Getting the Right Output Means no Artefacts in Calculating Stuff in water
11655
    1DT     O5'    1   1.129   3.288   4.904 -0.0733  0.2229 -0.2796
    1DT     H5T    2   1.073   3.286   4.826 -1.7760  0.0585  0.9205
    1DT     C5'    3   1.183   3.416   4.913 -0.4222 -0.0467  0.6103
    1DT    H5'1    4   1.265   3.416   4.985  0.9434 -0.3238 -0.9270
    1DT    H5'2    5   1.106   3.488   4.942  1.5997  1.9078  1.2747
    1DT     C4'    6   1.226   3.461   4.773  0.1062 -0.2411  0.0177
    1DT     H4'    7   1.301   3.387   4.744  1.0266  0.0766  1.5521
    1DT     O4'    8   1.113   3.467   4.690  0.0306 -0.5736 -0.0389
    1DT     C1'    9   1.090   3.608   4.655  0.5486 -0.4736  0.0455
    1DT     H1'   10   1.132   3.618   4.555  1.9557  2.7787  0.9203
    1DT      N1   11   0.936   3.633   4.662  0.3758 -0.2374 -0.3251
    1DT      C6   12   0.858   3.559   4.746  0.7003  0.2565 -0.3006
    1DT      H6   13   0.900   3.485   4.812  0.9558 -0.3992 -1.1950
    1DT      C5   14   0.724   3.571   4.745 -0.7808 -0.2131 -0.1902
    1DT      C7   15   0.645   3.479   4.833  0.0163 -0.2421 -0.2647
    1DT     H71   16   0.578   3.427   4.765  0.1459 -0.2429 -0.3919
    1DT     H72   17   0.707   3.403   4.880 -0.6143 -0.6144 -0.0238
    1DT     H73   18   0.593   3.525   4.917 -1.0005 -1.2427 -0.3332
    1DT      C4   19   0.653   3.670   4.660 -0.4630  0.0396  0.7081
    1DT      O4   20   0.532   3.687   4.653 -0.3534  0.2439 -0.0878
    1DT      N3   21   0.742   3.746   4.578 -0.0287  0.4145 -0.0345
    1DT      H3   22   0.696   3.802   4.507  0.1386 -1.2665 -1.5136
    1DT      C2   23   0.881   3.732   4.575 -0.0511 -0.4740 -0.0974
    1DT      O2   24   0.946   3.809   4.502  0.3158 -0.1650 -0.0933
    1DT     C3'   25   1.290   3.600   4.789 -0.2394 -1.0171 -0.1023
    1DT     H3'   26   1.301   3.626   4.894 -0.6939 -1.2427  0.0000
    1DT     C2'   27   1.174   3.695   4.740  0.2254 -0.5666 -0.9313
    1DT    H2'1   28   1.118   3.719   4.831  0.8453 -1.8349 -0.1981
    1DT    H2'2   29   1.206   3.789   4.696  1.7184 -1.1852 -1.1973
    1DT     O3'   30   1.414   3.621   4.721 -0.4562 -0.1065 -0.1748
    2DT       P   31   1.434   3.607   4.562 -0.4200 -0.1929 -0.2721
    2DT     O1P   32   1.582   3.614   4.532 -0.5061  0.2386  0.2784
    2DT     O2P   33   1.341   3.705   4.495 -0.0225 -0.1039  0.3176
    2DT     O5'   34   1.387   3.460   4.530  0.3182  0.2299 -0.7858
    2DT     C5'   35   1.315   3.414   4.419 -0.3461  0.1291  0.4794
    2DT    H5'1   36   1.344   3.465   4.327 -2.2258 -2.7616 -1.8174
    2DT    H5'2   37   1.207   3.416   4.429 -0.4194  0.9821 -0.3466
    2DT     C4'   38   1.356   3.269   4.384  0.7478 -0.4266 -0.1206
    2DT     H4'   39   1.305   3.245   4.290 -0.8674 -0.2332  0.6884
    2DT     O4'   40   1.496   3.270   4.360  0.7075  0.0029 -0.0751
    2DT     C1'   41   1.552   3.163   4.432  0.4971 -0.1859 -0.3245
    2DT     H1'   42   1.561   3.073   4.371  1.0725  0.6332 -1.4788
    2DT      N1   43   1.694   3.200   4.479 -0.0698  0.2918  0.0816
    2DT      C6   44   1.723   3.307   4.562 -0.4302  0.3335 -0.2059
    2DT      H6   45   1.645   3.377   4.588 -0.1244  1.3388 -1.8455
    2DT      C5   46   1.850   3.340   4.599  0.4366 -0.6944  0.2347
    2DT      C7   47   1.880   3.458   4.689 -0.3181  0.4216  0.1729
    2DT     H71   48   1.935   3.524   4.622  0.3224  0.2173  0.4972
    2DT     H72   49   1.795   3.517   4.725 -1.2194  0.0367 -1.2888
    2DT     H73   50   1.948   3.429   4.769  0.5748 -1.5609 -1.2515
    2DT      C4   51   1.960   3.255   4.548  0.2388  0.4557  0.0830
    2DT      O4   52   2.075   3.263   4.574  0.1030 -0.2916  0.0324
    2DT      N3   53   1.923   3.150   4.465  0.0291  0.0072 -0.2813
    2DT      H3   54   1.995   3.091   4.426 -1.5184 -1.3654 -1.1049
    2DT      C2   55   1.797   3.117   4.439 -0.4851  0.3335  0.1702
    2DT      O2   56   1.773   3.025   4.356 -0.3862 -0.0307  0.1940
    2DT     C3'   57   1.318   3.170   4.492  0.1731 -0.1377  0.2838
    2DT     H3'   58   1.257   3.210   4.574  1.5494  1.2411  0.6600
    2DT     C2'   59   1.453   3.136   4.546 -0.0277  0.3087  0.3506
    2DT    H2'1   60   1.487   3.212   4.616  0.5349 -1.3006  1.8538
    2DT    H2'2   61   1.453   3.035   4.588 -0.2505 -0.9135 -2.4435
    2DT     O3'   62   1.256   3.067   4.424  0.3984  0.3483 -0.2673
    3DT       P   63   1.184   2.949   4.496 -0.2523  0.5081 -0.3968
    3DT     O1P   64   1.090   2.889   4.402 -0.2547 -0.0404 -0.0663
    3DT     O2P   65   1.134   2.993   4.632 -0.3950  0.2580 -0.0565
    3DT     O5'   66   1.307   2.848   4.513 -0.0325  0.0287 -0.3767
    3DT     C5'   67   1.374   2.798   4.396  0.0948  0.5362 -0.1936
    3DT    H5'1   68   1.395   2.877   4.324  1.2847 -0.3374 -0.8265
    3DT    H5'2   69   1.306   2.732   4.343  1.8699 -0.8086 -0.8607
    3DT     C4'   70   1.511   2.731   4.429  0.1331  0.2238  0.0903
    3DT     H4'   71   1.552   2.696   4.334  0.7562  0.7382  0.1677
    3DT     O4'   72   1.606   2.823   4.481  0.2469 -0.0232  0.0576
    3DT     C1'   73   1.658   2.773   4.603 -0.4146 -0.0197 -0.2046
    3DT     H1'   74   1.744   2.711   4.576 -0.7315 -0.2566 -0.6717
    3DT      N1   75   1.725   2.879   4.685  0.9284 -0.0853  0.2030
    3DT      C6   76   1.652   2.948   4.779 -0.2748  0.2166  0.7796
    3DT      H6   77   1.548   2.925   4.799  0.2940 -1.2213  2.2965
    3DT      C5   78   1.707   3.044   4.852  0.0544 -0.7153 -0.1734
    3DT      C7   79   1.621   3.112   4.958  0.2819 -0.2024 -0.2150
    3DT     H71   80   1.599   3.214   4.928 -0.1874 -0.3889 -0.5067
    3DT     H72   81   1.524   3.063   4.970  0.3652 -0.2945  0.1034
    3DT     H73   82   1.679   3.104   5.050  0.8896  0.0984 -0.5667
    3DT      C4   83   1.852   3.070   4.837  0.8186  0.0004  0.4705
    3DT      O4   84   1.915   3.154   4.901  0.2655  0.3065 -0.6526
    3DT      N3   85   1.918   2.994   4.745  0.2871 -0.0065 -0.1094
    3DT      H3   86   2.019   3.004   4.748  0.4019 -1.1719  0.3577
    3DT      C2   87   1.861   2.898   4.664  0.5407  0.2288  0.2341
    3DT      O2   88   1.928   2.849   4.578 -0.0374  0.1062 -0.5228
    3DT     C3'   89   1.495   2.624   4.540 -0.0447 -0.0066  0.2988
    3DT     H3'   90   1.391   2.599   4.560  0.0988 -1.3326 -0.5473
    3DT     C2'   91   1.554   2.684   4.662 -0.2878  0.1979 -0.0663
    3DT    H2'1   92   1.483   2.745   4.718  0.5551  0.1796  1.0514
    3DT    H2'2   93   1.594   2.608   4.730  0.6051  0.5526 -0.1908
    3DT     O3'   94   1.573   2.507   4.500  0.2411  0.2966  0.2486
    4DT       P   95   1.512   2.384   4.429 -0.1226 -0.0599 -0.1686
    4DT     O1P   96   1.421   2.426   4.324  0.3783  0.4923 -0.2553
    4DT     O2P   97   1.476   2.288   4.540 -0.0830 -0.1236  0.2522
    4DT     O5'   98   1.644   2.325   4.362  0.2856  0.5171 -0.4202
    4DT     C5'   99   1.686   2.378   4.235  0.1579 -0.1885 -0.0164
    4DT    H5'1  100   1.726   2.478   4.252 -1.9778  0.6488  0.2656
    4DT    H5'2  101   1.603   2.390   4.166  0.3745  1.4273 -0.0297
    4DT     C4'  102   1.793   2.287   4.169 -0.5280 -0.0680 -0.1740
    4DT     H4'  103   1.810   2.330   4.070 -0.2513 -1.4102 -0.7122
    4DT     O4'  104   1.914   2.306   4.238 -0.8290  0.8615 -0.1706
    4DT     C1'  105   1.965   2.177   4.274  0.2057  0.0207  0.0839
    4DT     H1'  106   2.016   2.140   4.185 -0.0298  0.8795 -0.4119
    4DT      N1  107   2.059   2.192   4.389 -0.5614 -0.0087  0.4506
    4DT      C6  108   2.018   2.222   4.518  0.0002  0.2482  1.1992
    4DT      H6  109   1.912   2.228   4.534 -0.0492 -0.4392  1.1402
    4DT      C5  110   2.108   2.231   4.617  0.2075 -0.6819  0.0826
    4DT      C7  111   2.061   2.263   4.754 -0.0369 -0.0074 -0.0138
    4DT     H71  112   2.067   2.170   4.811  1.5545 -0.5905 -1.0784
    4DT     H72  113   2.121   2.346   4.792 -0.0258  1.1307 -2.4343
    4DT     H73  114   1.956   2.289   4.748 -0.0479 -0.0167  0.1425
    4DT      C4  115   2.254   2.217   4.594  0.6610  0.7813  0.8065
    4DT      O4  116   2.341   2.238   4.677 -0.2890  0.3027  0.5143
    4DT      N3  117   2.285   2.179   4.464 -0.3445 -0.9487 -0.0877
    4DT      H3  118   2.382   2.157   4.446 -0.6354 -3.0302  0.6741
    4DT      C2  119   2.195   2.166   4.359 -0.8060  0.2659 -0.6727
    4DT      O2  120   2.238   2.132   4.251 -0.4724 -0.1175  0.1588
    4DT     C3'  121   1.756   2.139   4.174  0.5678 -0.1329  0.6357
    4DT     H3'  122   1.650   2.121   4.191  0.4743 -0.2306 -0.0204
    4DT     C2'  123   1.839   2.096   4.299  0.5119 -0.1346 -0.1254
    4DT    H2'1  124   1.793   2.133   4.391  0.7599  0.1127 -0.1005
    4DT    H2'2  125   1.857   1.989   4.309 -0.4835 -0.2015  1.1570
    4DT     O3'  126   1.805   2.070   4.060  0.5248  0.3022 -0.0055
    5DT       P  127   1.765   1.921   4.038 -0.1226  0.1814  0.0623
    5DT     O1P  128   1.764   1.896   3.892  0.1255  0.3391  0.9440
    5DT     O2P  129   1.636   1.893   4.103  0.3109 -0.6188 -0.3356
    5DT     O5'  130   1.880   1.833   4.105  0.5276 -0.2285  0.5124
    5DT     C5'  131   2.009   1.832   4.047  0.4293  0.1961 -0.5588
    5DT    H5'1  132   2.037   1.935   4.026  1.3660 -0.2164 -1.3688
    5DT    H5'2  133   2.000   1.780   3.951 -2.2083  0.1399 -0.3198
    5DT     C4'  134   2.120   1.762   4.130 -0.4262  0.3349  0.5562
    5DT     H4'  135   2.213   1.770   4.073 -1.7286  0.9536 -1.5428
    5DT     O4'  136   2.136   1.828   4.251 -0.7847  0.3412 -0.1797
    5DT     C1'  137   2.209   1.744   4.332 -0.5796  0.3008 -0.2701
    5DT     H1'  138   2.311   1.751   4.292 -1.0470 -0.0799 -1.5611
    5DT      N1  139   2.201   1.797   4.472 -0.5736 -0.2557 -0.2133
    5DT      C6  140   2.078   1.823   4.531 -0.6281  0.3916 -0.5245
    5DT      H6  141   1.992   1.807   4.468 -0.3095 -0.3377 -0.7883
    5DT      C5  142   2.066   1.862   4.658  0.3484  0.0338 -0.4863
    5DT      C7  143   1.927   1.895   4.716  0.2999  0.3901 -0.0021
    5DT     H71  144   1.907   2.002   4.722 -0.1692  0.2297  1.6041
    5DT     H72  145   1.847   1.866   4.649  0.5455  1.1151 -0.6174
    5DT     H73  146   1.911   1.851   4.815  1.6923 -1.1847 -0.4610
    5DT      C4  147   2.187   1.882   4.746  0.0537  0.5119 -0.5136
    5DT      O4  148   2.196   1.926   4.860  0.2887 -0.5033 -0.0022
    5DT      N3  149   2.302   1.846   4.685 -0.1814 -0.1483  0.2797
    5DT      H3  150   2.383   1.867   4.742  0.1537  0.5348 -0.4305
    5DT      C2  151   2.316   1.811   4.549  0.0919 -0.3133 -0.3166
    5DT      O2  152   2.429   1.801   4.502  0.3948 -0.1250  0.1691
    5DT     C3'  153   2.101   1.617   4.176  0.3542 -0.4404  0.5310
    5DT     H3'  154   1.996   1.591   4.165  0.1458  1.2792 -1.9575
    5DT     C2'  155   2.159   1.604   4.315  0.6631 -0.0188  0.0752
    5DT    H2'1  156   2.077   1.583   4.383  0.3280 -0.3697 -0.4312
    5DT    H2'2  157   2.239   1.532   4.330  0.4924 -0.0908  0.6307
    5DT     O3'  158   2.178   1.529   4.094 -0.3710  0.3375 -0.4475
    5DT     H3T  159   2.123   1.493   4.023  1.8470 -3.5835 -0.3263
   11SOL     OW  160   2.001   3.365   0.689 -0.2269  0.2460 -0.2384
   11SOL    HW2  161   1.931   3.406   0.739  0.3861  1.3175 -0.2385
   11SOL    HW3  162   2.081   3.406   0.722  0.4584 -1.3177  0.1313
   11SOL    MW4  163   2.003   3.376   0.700 -0.0556  0.1810 -0.1896
   12SOL     OW  164   1.063   1.046   0.362 -0.0021 -0.0224 -0.1563
   12SOL    HW2  165   1.150   1.014   0.384  0.1650  0.4751 -0.0808
   12SOL    HW3  166   1.026   1.075   0.446  0.9119  2.5507 -0.5868
   12SOL    MW4  167   1.070   1.046   0.376  0.1405  0.3827 -0.2031
   13SOL     OW  168   3.578   4.244   0.807  0.3119  0.2734  0.3501
   13SOL    HW2  169   3.511   4.296   0.762  0.0155 -0.4684 -0.0595
   13SOL    HW3  170   3.660   4.270   0.765  0.1235  0.1545 -0.0998
   13SOL    MW4  171   3.580   4.254   0.795  0.2480  0.1597  0.2367
   14SOL     OW  172   2.476   3.123   1.069 -0.2090 -0.7972 -0.0353
   14SOL    HW2  173   2.554   3.171   1.097 -1.0520 -0.1411  1.2353
   14SOL    HW3  174   2.475   3.044   1.122 -0.9943 -0.2676  0.7723
   14SOL    MW4  175   2.486   3.119   1.080 -0.4237 -0.6409  0.2389
   15SOL     OW  176   4.466   0.388   0.309 -0.6928 -0.4799 -0.4192
   15SOL    HW2  177   4.499   0.325   0.245  0.9275 -0.3118  0.2374
   15SOL    HW3  178   4.538   0.450   0.321 -2.6970  2.2473 -1.9933
   15SOL    MW4  179   4.480   0.388   0.302 -0.7434 -0.0979 -0.5402
   16SOL     OW  180   2.945   3.701   0.467 -0.1447 -0.0784 -0.3448
   16SOL    HW2  181   2.946   3.623   0.411 -1.4753  1.0602 -2.0070
   16SOL    HW3  182   3.005   3.762   0.425  2.3435 -0.8309  1.9674
   16SOL    MW4  183   2.953   3.699   0.454  0.0079 -0.0274 -0.2591
   17SOL     OW  184   0.428   2.655   1.069 -0.1378 -0.2091 -0.4739
   17SOL    HW2  185   0.341   2.693   1.079  0.1201 -0.1467  1.8042
   17SOL    HW3  186   0.448   2.665   0.976 -2.8811 -0.9460 -1.1817
   17SOL    MW4  187   0.419   2.661   1.058 -0.4657 -0.2983 -0.2668
   18SOL     OW  188   1.521   2.016   0.659  0.1503 -0.2105 -0.4082
   18SOL    HW2  189   1.519   1.981   0.570  0.7597  1.5947 -1.1427
   18SOL    HW3  190   1.509   2.110   0.649 -0.4800 -0.0493  1.4758
   18SOL    MW4  191   1.519   2.024   0.646  0.1475  0.0491 -0.2565
   19SOL     OW  192   0.898   3.459   1.118  0.2734  0.3856  0.0100
   19SOL    HW2  193   0.970   3.511   1.154  0.6548 -0.8274  1.0302
   19SOL    HW3  194   0.821   3.515   1.126  0.4037  0.2468  2.4867
   19SOL    MW4  195   0.897   3.473   1.124  0.3409  0.2072  0.4715
   20SOL     OW  196   3.210   1.469   0.374  0.6615  0.5514 -0.1760
   20SOL    HW2  197   3.131   1.499   0.327  0.8061  1.0429 -0.1088
   20SOL    HW3  198   3.202   1.374   0.376  0.3366  0.5659 -0.6489
   20SOL    MW4  199   3.198   1.460   0.368  0.6380  0.6181 -0.2295
   21SOL     OW  200   2.830   2.776   0.523 -0.0934 -0.1968 -0.0031
   21SOL    HW2  201   2.817   2.726   0.443  1.4171 -0.3165 -0.2001
   21SOL    HW3  202   2.817   2.867   0.498  1.8176 -0.1035 -0.7429
   21SOL    MW4  203   2.827   2.781   0.509  0.3581 -0.2005 -0.1267
   22SOL     OW  204   3.793   1.296   0.708 -0.1781 -0.3378 -0.1666
   22SOL    HW2  205   3.720   1.235   0.716  0.8478 -1.4145  1.4284
   22SOL    HW3  206   3.779   1.359   0.778  0.1825 -0.3076 -0.1199
   22SOL    MW4  207   3.782   1.296   0.719  0.0050 -0.4756  0.0499
   23SOL     OW  208   2.760   3.068   0.809  0.6429 -0.0930 -0.3260
   23SOL    HW2  209   2.753   3.056   0.714  0.5820  1.3316 -0.5147
   23SOL    HW3  210   2.720   2.990   0.846  1.6536 -1.1836 -1.4806
   23SOL    MW4  211   2.754   3.056   0.801  0.7684 -0.0491 -0.5032
   24SOL     OW  212   3.234   2.624   0.504 -0.2922 -0.4378  0.5941
   24SOL    HW2  213   3.166   2.575   0.457  1.5186 -1.3372 -1.1344
   24SOL    HW3  214   3.311   2.567   0.500  0.6835  0.7400  2.2101
   24SOL    MW4  215   3.235   2.610   0.498  0.0753 -0.4010  0.5792
   25SOL     OW  216   1.159   2.150   0.315  0.6410 -0.1701  0.4541
   25SOL    HW2  217   1.112   2.231   0.299 -0.0835 -0.8080 -0.6689
   25SOL    HW3  218   1.167   2.145   0.411  0.7853  1.2658  0.5184
   25SOL    MW4  219   1.154   2.160   0.326  0.5643 -0.0644  0.3144
   26SOL     OW  220   2.952   2.267   0.805 -0.4980  0.2058 -0.2436
   26SOL    HW2  221   2.947   2.341   0.745  2.7237  0.5380 -0.2096
   26SOL    HW3  222   2.951   2.307   0.892 -0.3768  0.0988 -0.1926
   26SOL    MW4  223   2.951   2.282   0.809 -0.0570  0.2353 -0.2324
   27SOL     OW  224   0.016   0.899   0.691 -0.4779 -0.1009  0.3368
   27SOL    HW2  225  -0.064   0.847   0.700 -0.2202 -0.4338  0.7358
   27SOL    HW3  226   0.002   0.976   0.746 -0.5651 -0.1133  0.3309
   27SOL    MW4  227   0.004   0.902   0.700 -0.4549 -0.1464  0.3886
   28SOL     OW  228   2.129   2.036   0.126 -0.4794 -0.0593  0.2485
   28SOL    HW2  229   2.209   2.025   0.074 -1.2346  0.3675 -0.9993
   28SOL    HW3  230   2.140   2.121   0.169  0.0063 -0.2740  0.5536
   28SOL    MW4  231   2.141   2.046   0.125 -0.5147 -0.0312  0.1241
   29SOL     OW  232   2.331   3.696   0.434  0.5387  1.1075 -0.3842
   29SOL    HW2  233   2.253   3.654   0.399  0.1986  1.3817  0.0414
   29SOL    HW3  234   2.395   3.626   0.442 -0.2901  0.5062  1.1033
   29SOL    MW4  235   2.330   3.681   0.431  0.3843  1.0645 -0.1318
   30SOL     OW  236   1.130   2.604   0.468  0.0396 -0.0010 -0.1862
   30SOL    HW2  237   1.189   2.567   0.534 -1.1252 -1.3510  0.1074
   30SOL    HW3  238   1.101   2.528   0.417 -0.8444  0.7583 -0.8155
   30SOL    MW4  239   1.134   2.589   0.470 -0.2307 -0.0789 -0.2305
   31SOL     OW  240   2.668   4.283   0.772 -0.1654 -0.5895 -0.2111
   31SOL    HW2  241   2.681   4.299   0.866 -0.7399  2.7972 -0.6685
   31SOL    HW3  242   2.742   4.326   0.730 -0.0543 -1.8756 -1.3723
   31SOL    MW4  243   2.680   4.290   0.779 -0.2265 -0.3123 -0.4246
   32SOL     OW  244   1.880   0.438   0.251 -0.2250 -0.6651 -0.1697
   32SOL    HW2  245   1.922   0.367   0.202 -1.1133 -1.0813 -0.3275
   32SOL    HW3  246   1.938   0.452   0.327  1.2692  0.1334 -1.4256
   32SOL    MW4  247   1.893   0.431   0.255 -0.1451 -0.6147 -0.3562
   33SOL     OW  248   1.436   2.708   0.813  0.3629 -0.7188  0.0811
   33SOL    HW2  249   1.398   2.795   0.799 -0.8700 -1.4475 -1.1573
   33SOL    HW3  250   1.407   2.684   0.901 -0.8463 -0.6548 -0.2932
   33SOL    MW4  251   1.427   2.716   0.823  0.0408 -0.8063 -0.1317
   34SOL     OW  252   2.249   4.229   0.306  0.5091 -0.2005  0.2040
   34SOL    HW2  253   2.162   4.225   0.345  0.5448 -0.7694  0.2364
   34SOL    HW3  254   2.300   4.283   0.365  0.1578  0.1900  0.1500
   34SOL    MW4  255   2.244   4.235   0.319  0.4673 -0.2241  0.2011
   35SOL     OW  256   1.940   3.368   0.411 -0.0107 -0.3251 -0.1626
   35SOL    HW2  257   1.957   3.280   0.378  0.2071 -0.9122  1.4921
   35SOL    HW3  258   1.957   3.363   0.505  0.3394  1.5660 -0.0976
   35SOL    MW4  259   1.944   3.356   0.419  0.0643 -0.1528  0.0643
   36SOL     OW  260   0.814   0.966   0.257 -0.1031  0.0099 -0.1781
   36SOL    HW2  261   0.825   0.882   0.301  0.0889 -0.1416 -0.5242
   36SOL    HW3  262   0.903   0.997   0.240 -0.1779  0.0677 -0.4684
   36SOL    MW4  263   0.827   0.959   0.261 -0.0876 -0.0024 -0.2621
   37SOL     OW  264   4.470   2.750   0.814 -0.4172 -0.5558  0.4052
   37SOL    HW2  265   4.405   2.820   0.807  0.8284  0.6151  0.4435
   37SOL    HW3  266   4.460   2.719   0.904  0.5928  1.1499  1.1382
   37SOL    MW4  267   4.460   2.755   0.825 -0.1192 -0.1762  0.5070
   38SOL     OW  268   1.874   2.751   0.645  0.3747  0.2685 -0.1643
   38SOL    HW2  269   1.885   2.725   0.737 -0.6622  1.9154  0.4484
   38SOL    HW3  270   1.845   2.842   0.650  0.5975  0.4528 -2.1463
   38SOL    MW4  271   1.872   2.759   0.658  0.2673  0.5100 -0.3449
   39SOL     OW  272   0.920   0.052   0.299  0.5314 -0.0243  0.0901
   39SOL    HW2  273   1.012   0.056   0.327  0.0537 -0.8632  1.8258
   39SOL    HW3  274   0.886   0.140   0.315  1.4147  0.7186 -1.9737
   39SOL    MW4  275   0.928   0.064   0.304  0.5850 -0.0370  0.0468
   40SOL     OW  276   4.222   2.107   0.689 -0.0357 -0.2461  0.1029
   40SOL    HW2  277   4.190   2.113   0.599  0.6802  0.2145 -0.1267
   40SOL    HW3  278   4.170   2.037   0.729  0.4995 -1.2954 -1.0251
   40SOL    MW4  279   4.211   2.099   0.683  0.1297 -0.3238 -0.0761
   41SOL     OW  280   4.095   2.073   0.442  0.5763  0.5389 -0.1427
   41SOL    HW2  281   4.018   2.041   0.489  0.5111  0.1497 -0.5172
   41SOL    HW3  282   4.061   2.140   0.382  0.4388 -0.1087 -0.7860
   41SOL    MW4  283   4.081   2.078   0.440  0.5493  0.4022 -0.2770
   42SOL     OW  284   0.208   2.088   0.704 -0.3230 -0.4013 -0.2139
   42SOL    HW2  285   0.223   2.084   0.609 -0.6937 -0.0207 -0.2901
   42SOL    HW3  286   0.124   2.043   0.716 -0.8149  0.5083 -0.1960
   42SOL    MW4  287   0.199   2.081   0.693 -0.4368 -0.2310 -0.2216
   43SOL     OW  288   0.936   1.472   0.891 -0.3907  0.7698 -0.1817
   43SOL    HW2  289   1.010   1.488   0.950 -0.4697 -0.2887  0.2244
   43SOL    HW3  290   0.977   1.457   0.805  0.0400 -1.6829  0.3995
   43SOL    MW4  291   0.951   1.472   0.887 -0.3443  0.3066 -0.0514
   44SOL     OW  292   3.565   1.165   0.851  0.2164  0.0270 -0.0515
   44SOL    HW2  293   3.491   1.221   0.829 -0.8048 -1.0397  0.6333
   44SOL    HW3  294   3.575   1.175   0.946  1.2858  0.5585 -0.2045
   44SOL    MW4  295   3.557   1.174   0.861  0.2227 -0.0437  0.0187
   45SOL     OW  296   3.994   4.019   1.142  0.0195  0.0739 -0.1213
   45SOL    HW2  297   4.009   4.100   1.093 -1.4388 -1.0341 -2.4927
   45SOL    HW3  298   4.078   3.973   1.139  0.2946  0.5919 -0.4652
   45SOL    MW4  299   4.007   4.023   1.136 -0.1364 -0.0043 -0.4795
   46SOL     OW  300   1.285   0.978   0.752 -0.5767 -0.0851  0.3502
   46SOL    HW2  301   1.289   1.054   0.810  0.4946 -0.6779  1.0563
   46SOL    HW3  302   1.209   0.928   0.784 -1.8340  1.1150 -0.6759
   46SOL    MW4  303   1.275   0.981   0.764 -0.6012 -0.0050  0.3080
   47SOL     OW  304   0.942   1.846   0.593 -0.6715 -0.5669 -0.0736
   47SOL    HW2  305   1.026   1.834   0.549 -0.6939  0.1895 -0.3389
   47SOL    HW3  306   0.964   1.886   0.677 -0.9275  1.8810 -1.1365
   47SOL    MW4  307   0.956   1.850   0.598 -0.7082 -0.1441 -0.2489
   48SOL     OW  308   0.573   4.664   0.408 -0.2297  0.2119  0.2385
   48SOL    HW2  309   0.499   4.723   0.395  0.5381  1.0999 -0.1612
   48SOL    HW3  310   0.620   4.666   0.325  1.2440  1.0652  1.0752
   48SOL    MW4  311   0.569   4.672   0.395  0.0660  0.4420  0.2962
   49SOL     OW  312   2.434   4.374   0.463 -0.3238 -0.2252 -0.2364
   49SOL    HW2  313   2.494   4.303   0.483 -0.4511  0.2267  1.7947
   49SOL    HW3  314   2.490   4.445   0.432  0.0263 -0.3513  0.1142
   49SOL    MW4  315   2.449   4.374   0.461 -0.2944 -0.1817  0.0778
   50SOL     OW  316   2.486   1.565   0.814 -0.2320 -0.1204 -0.3707
   50SOL    HW2  317   2.565   1.615   0.792 -0.0554 -0.4665 -0.5190
   50SOL    HW3  318   2.415   1.616   0.774 -0.1441  0.4681  0.2066
   50SOL    MW4  319   2.487   1.579   0.805 -0.1972 -0.0885 -0.3141
   51SOL     OW  320   0.697   3.858   0.814  0.1584  0.0860 -0.3331
   51SOL    HW2  321   0.616   3.890   0.776 -0.2829 -0.6094  0.0111
   51SOL    HW3  322   0.686   3.763   0.817  0.3384  0.1100  1.1948
   51SOL    MW4  323   0.685   3.849   0.809  0.1239 -0.0024 -0.0861
   52SOL     OW  324   0.801   1.589   0.633  0.1544  0.2052 -0.4222
   52SOL    HW2  325   0.849   1.672   0.633  0.1875  0.1861 -0.4097
   52SOL    HW3  326   0.721   1.607   0.583 -0.7701  0.7887  1.2235
   52SOL    MW4  327   0.797   1.602   0.626  0.0368  0.2797 -0.2034
   53SOL     OW  328   1.955   0.780   0.819 -0.3904 -0.5619  0.0167
   53SOL    HW2  329   1.944   0.772   0.914  1.8981  1.1093  0.4709
   53SOL    HW3  330   1.975   0.692   0.789 -0.5900 -1.0083  1.1715
   53SOL    MW4  331   1.956   0.768   0.827 -0.1149 -0.4002  0.2289
   54SOL     OW  332   1.801   3.026   0.691 -0.1038 -0.0283  0.0202
   54SOL    HW2  333   1.818   3.048   0.599 -1.1062  0.8503  0.0331
   54SOL    HW3  334   1.881   3.053   0.736 -0.4313  1.5883 -0.3027
   54SOL    MW4  335   1.814   3.033   0.684 -0.2793  0.3011 -0.0207
   55SOL     OW  336   3.001   1.858   0.540  0.3801 -0.0223  0.3311
   55SOL    HW2  337   3.054   1.791   0.583  0.9952 -0.4674 -1.0703
   55SOL    HW3  338   2.916   1.818   0.527 -0.1735  0.5226  2.1544
   55SOL    MW4  339   2.997   1.844   0.544  0.3879 -0.0092  0.3868
   56SOL     OW  340   2.987   2.996   0.929  0.1002 -0.1136 -0.2763
   56SOL    HW2  341   2.908   3.025   0.883  0.4095  0.7427 -0.2669
   56SOL    HW3  342   2.977   3.031   1.017  0.0133 -0.8582  0.0094
   56SOL    MW4  343   2.975   3.004   0.934  0.1297 -0.0992 -0.2374
   57SOL     OW  344   1.361   3.588   0.738 -0.0232  0.0169 -0.5620
   57SOL    HW2  345   1.384   3.655   0.675  1.9202 -0.9588 -0.9037
   57SOL    HW3  346   1.421   3.516   0.721 -0.7217 -1.0150  1.1391
   57SOL    MW4  347   1.372   3.587   0.728  0.1410 -0.2480 -0.3827
   58SOL     OW  348   2.252   2.979   0.716  0.1546 -0.6116 -0.1479
   58SOL    HW2  349   2.242   2.889   0.747  1.6372 -0.4256  0.9514
   58SOL    HW3  350   2.337   3.006   0.752 -0.3719  1.2794 -0.3231
   58SOL    MW4  351   2.262   2.970   0.725  0.2809 -0.3374 -0.0260
   59SOL     OW  352   2.776   0.670   0.392 -0.5640 -0.0453  0.1229
   59SOL    HW2  353   2.687   0.655   0.425 -0.8394  0.2171 -0.5043
   59SOL    HW3  354   2.782   0.765   0.379 -0.2852 -0.0938 -0.1141
   59SOL    MW4  355   2.765   0.680   0.395 -0.5639 -0.0170  0.0089
   60SOL     OW  356   0.911   4.066   0.510  0.1182  0.5196  0.0888
   60SOL    HW2  357   0.819   4.091   0.502  0.0490  0.1212 -0.3725
   60SOL    HW3  358   0.910   3.985   0.561 -0.0183 -1.0638 -2.3550
   60SOL    MW4  359   0.899   4.059   0.516  0.0911  0.2584 -0.2945
   61SOL     OW  360   2.257   3.740   0.708  0.2333  0.0814  0.4124
   61SOL    HW2  361   2.336   3.768   0.755  0.9436 -1.2547  0.0368
   61SOL    HW3  362   2.284   3.739   0.616 -0.1656 -0.5399  0.3014
   61SOL    MW4  363   2.271   3.744   0.702  0.2744 -0.1769  0.3482
   62SOL     OW  364   3.518   1.103   0.546 -0.3451 -0.0473 -0.4321
   62SOL    HW2  365   3.524   1.021   0.595 -0.1193 -0.2400 -0.7833
   62SOL    HW3  366   3.602   1.110   0.500 -0.6569  0.0085 -0.9918
   62SOL    MW4  367   3.530   1.093   0.546 -0.3564 -0.0654 -0.5522
   63SOL     OW  368   1.488   3.670   0.325 -0.1798 -0.0553  0.4837
   63SOL    HW2  369   1.416   3.611   0.302 -0.0742 -0.6131  1.5821
   63SOL    HW3  370   1.568   3.621   0.303 -0.0994 -0.1732  1.0362
   63SOL    MW4  371   1.489   3.656   0.319 -0.1553 -0.1445  0.7015
   64SOL     OW  372   4.110   0.221   0.322  0.2462 -0.0680  0.2931
   64SOL    HW2  373   4.031   0.186   0.362 -0.3655 -0.8844 -1.6024
   64SOL    HW3  374   4.083   0.305   0.284 -0.0751 -1.0264 -1.6281
   64SOL    MW4  375   4.096   0.228   0.322  0.1230 -0.3022 -0.2104
   65SOL     OW  376   3.683   2.586   0.673  0.0338  0.1434 -0.3072
   65SOL    HW2  377   3.648   2.645   0.738 -2.1492 -0.2360 -1.0922
   65SOL    HW3  378   3.714   2.510   0.723  0.8039  0.9785  0.4947
   65SOL    MW4  379   3.682   2.584   0.688 -0.1526  0.2034 -0.3049
   66SOL     OW  380   3.200   3.052   0.527  0.3445  0.4378 -0.2083
   66SOL    HW2  381   3.136   2.984   0.547 -1.4978  2.1597 -0.0498
   66SOL    HW3  382   3.237   3.075   0.612 -0.2717  0.8176 -0.0390
   66SOL    MW4  383   3.196   3.046   0.541  0.0203  0.7150 -0.1651
   67SOL     OW  384   0.922   1.141   0.589 -0.0027  0.8572  0.2651
   67SOL    HW2  385   0.904   1.162   0.681 -0.4497  1.1865  0.1045
   67SOL    HW3  386   0.850   1.181   0.541  0.3781  0.9187 -0.2568
   67SOL    MW4  387   0.910   1.149   0.595 -0.0114  0.9087  0.1751
   68SOL     OW  388   3.751   3.053   0.366  0.3948 -0.0097 -0.0698
   68SOL    HW2  389   3.685   3.122   0.370 -1.3615 -1.4360 -2.8113
   68SOL    HW3  390   3.709   2.977   0.406  1.2453 -0.2780  0.3163
   68SOL    MW4  391   3.737   3.052   0.372  0.2756 -0.2334 -0.3805
   69SOL     OW  392   0.166   1.288   0.686  0.0382  0.2982  0.3483
   69SOL    HW2  393   0.103   1.231   0.730  0.1562  2.0115  2.8247
   69SOL    HW3  394   0.114   1.339   0.625 -0.4814 -0.4934  0.1113
   69SOL    MW4  395   0.151   1.287   0.684 -0.0148  0.4197  0.6438
   70SOL     OW  396   3.654   2.149   0.712 -0.1666  0.3593  0.0322
   70SOL    HW2  397   3.610   2.072   0.748 -0.0654  0.3934  0.2310
   70SOL    HW3  398   3.596   2.180   0.643 -0.1756  0.0637 -0.0944
   70SOL    MW4  399   3.640   2.143   0.708 -0.1545  0.3250  0.0417
   71SOL     OW  400   3.824   2.354   1.118  0.0929  0.1804  0.1861
   71SOL    HW2  401   3.823   2.259   1.129 -0.8491  0.2916  1.2061
   71SOL    HW3  402   3.910   2.382   1.148  0.4769 -0.3857 -0.4014
   71SOL    MW4  403   3.835   2.345   1.123  0.0193  0.1204  0.2432
   72SOL     OW  404   0.071   3.432   0.495 -0.0289  0.2325 -0.2013
   72SOL    HW2  405   0.089   3.376   0.570  0.9839 -1.3032 -1.5359
   72SOL    HW3  406   0.149   3.487   0.487  1.0908 -1.4856 -1.7028
   72SOL    MW4  407   0.084   3.432   0.504  0.2525 -0.1969 -0.5755
   73SOL     OW  408   1.925   1.029   0.311  0.1567 -0.3944  0.7458
   73SOL    HW2  409   1.855   1.000   0.369 -0.6951  0.5703  0.2160
   73SOL    HW3  410   1.881   1.065   0.234  1.2881 -1.8410 -0.6080
   73SOL    MW4  411   1.910   1.030   0.309  0.1937 -0.4580  0.4973
   74SOL     OW  412   3.578   3.271   0.383  0.2173 -0.5029 -0.3556
   74SOL    HW2  413   3.550   3.331   0.453  1.0394  0.0433 -0.4921
   74SOL    HW3  414   3.520   3.291   0.310  0.1206 -0.2632 -0.2147
   74SOL    MW4  415   3.567   3.282   0.383  0.3128 -0.3991 -0.3550
   75SOL     OW  416   3.351   3.148   0.739 -0.0966  0.8582 -0.1135
   75SOL    HW2  417   3.277   3.195   0.776  0.2236  0.7528  0.6750
   75SOL    HW3  418   3.397   3.214   0.686 -1.0016  0.8030 -0.9618
   75SOL    MW4  419   3.348   3.163   0.737 -0.1738  0.8371 -0.1215
   76SOL     OW  420   1.583   1.898   0.407  0.0758 -0.0790  0.1942
   76SOL    HW2  421   1.542   1.955   0.342  0.7586  0.1174 -0.0685
   76SOL    HW3  422   1.667   1.938   0.425 -0.4253  0.2903  1.7910
   76SOL    MW4  423   1.589   1.911   0.401  0.0998 -0.0042  0.3702
   77SOL     OW  424   0.017   4.005   1.155  0.3355 -0.3462 -0.0987
   77SOL    HW2  425  -0.064   3.960   1.129  0.7828 -0.2446 -1.7662
   77SOL    HW3  426   0.030   3.980   1.246 -0.6583 -1.7475 -0.3098
   77SOL    MW4  427   0.008   3.996   1.163  0.2632 -0.5181 -0.3467
   78SOL     OW  428   2.297   0.147   0.707 -0.1298 -0.3162  0.2151
   78SOL    HW2  429   2.213   0.131   0.750 -0.9183  1.4525 -0.6395
   78SOL    HW3  430   2.310   0.241   0.715 -0.0840 -0.0036 -3.0409
   78SOL    MW4  431   2.288   0.157   0.714 -0.2279 -0.0416 -0.3272
   79SOL     OW  432   4.279   0.525   0.723  0.1066  0.4759 -0.2331
   79SOL    HW2  433   4.344   0.468   0.763 -1.4376 -0.9130  0.3519
   79SOL    HW3  434   4.310   0.537   0.633  0.7735 -0.7707 -0.1782
   79SOL    MW4  435   4.292   0.519   0.716 -0.0086  0.1281 -0.1487
   80SOL     OW  436   3.150   2.456   1.170  0.2786  0.1470  0.0798
   80SOL    HW2  437   3.229   2.408   1.143  0.3647  0.3006  0.0569
   80SOL    HW3  438   3.152   2.452   1.266 -0.0710 -0.4702  0.0634
   80SOL    MW4  439   3.161   2.449   1.179  0.2437  0.0861  0.0746
   81SOL     OW  440   3.752   1.848   0.348  0.3317  0.0934  0.0379
   81SOL    HW2  441   3.768   1.891   0.432 -1.0812 -0.1622  0.4486
   81SOL    HW3  442   3.683   1.901   0.308  0.4362 -0.2640 -0.6182
   81SOL    MW4  443   3.745   1.861   0.354  0.1590  0.0125  0.0055
   82SOL     OW  444   4.001   3.982   0.622  0.1383 -0.3094 -0.2178
   82SOL    HW2  445   4.010   4.069   0.662 -1.2287  1.0421 -2.6681
   82SOL    HW3  446   4.072   3.930   0.661  0.3873  1.6104  2.0121
   82SOL    MW4  447   4.012   3.987   0.632 -0.0091  0.1223 -0.2469
   83SOL     OW  448   3.537   2.742   0.850  0.0059  0.1445 -0.4875
   83SOL    HW2  449   3.552   2.709   0.939  0.1212 -0.8123 -0.8508
   83SOL    HW3  450   3.462   2.800   0.857 -1.0549 -1.2574 -0.0600
   83SOL    MW4  451   3.529   2.745   0.862 -0.1187 -0.1669 -0.4790
   84SOL     OW  452   3.444   2.463   0.605  0.3524 -0.0740 -0.2019
   84SOL    HW2  453   3.519   2.521   0.616  0.3502 -0.0560 -0.2797
   84SOL    HW3  454   3.479   2.386   0.561  0.3887 -0.2055  0.0556
   84SOL    MW4  455   3.458   2.460   0.600  0.3569 -0.0892 -0.1782
   85SOL     OW  456   4.041   0.901   0.686  0.5870  0.2514  0.2237
   85SOL    HW2  457   4.043   0.992   0.717 -1.3315  1.2475 -2.3845
   85SOL    HW3  458   3.963   0.864   0.727  0.2528  0.4044 -0.2611
   85SOL    MW4  459   4.031   0.908   0.695  0.2894  0.4029 -0.1844
   86SOL     OW  460   0.001   1.185   1.097 -0.1359 -0.4781 -0.0690
   86SOL    HW2  461  -0.082   1.225   1.124 -0.2954 -0.6082 -0.3580
   86SOL    HW3  462  -0.009   1.092   1.118 -0.0634 -0.4949 -0.1092
   86SOL    MW4  463  -0.012   1.178   1.103 -0.1473 -0.4975 -0.1124
   87SOL     OW  464   0.481   1.303   0.541  0.1525 -0.1023  0.0975
   87SOL    HW2  465   0.554   1.287   0.481 -0.4240 -0.3132 -0.5680
   87SOL    HW3  466   0.429   1.371   0.498  0.3254  0.5226  0.8922
   87SOL    MW4  467   0.484   1.310   0.527  0.0992 -0.0477  0.1145
   88SOL     OW  468   2.703   2.591   0.304 -0.0257  0.2541 -0.0797
   88SOL    HW2  469   2.637   2.656   0.282 -1.1284 -1.1923 -1.1211
   88SOL    HW3  470   2.654   2.515   0.335  1.1833 -0.4240  0.2137
   88SOL    MW4  471   2.688   2.589   0.305 -0.0117 -0.0260 -0.1784
   89SOL     OW  472   1.506   3.966   0.230  0.4456 -0.3112  0.7229
   89SOL    HW2  473   1.509   3.871   0.239 -0.2423 -0.3988  0.0691
   89SOL    HW3  474   1.590   3.996   0.265  1.3790 -1.2771 -0.6519
   89SOL    MW4  475   1.517   3.957   0.236  0.4780 -0.4501  0.4552
   90SOL     OW  476   0.404   0.948   0.728  0.0728  0.2406  0.2248
   90SOL    HW2  477   0.328   0.891   0.738  0.5355 -0.2645  0.9025
   90SOL    HW3  478   0.400   0.978   0.637 -1.6236  1.2266  0.6172
   90SOL    MW4  479   0.394   0.945   0.717 -0.0900  0.3040  0.3660
   91SOL     OW  480   2.720   3.042   0.532  1.0734 -0.3174 -0.0971
   91SOL    HW2  481   2.628   3.021   0.514  1.4515 -1.2219 -0.9831
   91SOL    HW3  482   2.733   3.128   0.491  0.3516  0.3023  0.9295
   91SOL    MW4  483   2.709   3.051   0.524  1.0278 -0.3550 -0.0786
   92SOL     OW  484   3.368   3.841   0.755 -0.1049  0.0619  0.2013
   92SOL    HW2  485   3.447   3.894   0.741  0.1928 -0.3157  0.4300
   92SOL    HW3  486   3.352   3.847   0.849 -0.6809  0.6051  0.0684
   92SOL    MW4  487   3.377   3.849   0.766 -0.1416  0.0839  0.2139
   93SOL     OW  488   1.889   2.227   0.375  0.3964 -0.0764  0.0108
   93SOL    HW2  489   1.883   2.132   0.380 -1.6534  0.0531  0.3747
   93SOL    HW3  490   1.908   2.256   0.464  0.0639 -0.0850  0.0845
   93SOL    MW4  491   1.891   2.218   0.387  0.0821 -0.0606  0.0685
   94SOL     OW  492   3.566   0.115   0.381 -0.6757 -0.6980  0.0193
   94SOL    HW2  493   3.659   0.139   0.384 -0.1105 -2.5754 -1.2481
   94SOL    HW3  494   3.536   0.125   0.471  0.4037  1.2272  0.1953
   94SOL    MW4  495   3.575   0.120   0.394 -0.4590 -0.6917 -0.1247
   95SOL     OW  496   3.317   1.886   0.323  0.0699 -0.2537  0.4504
   95SOL    HW2  497   3.230   1.874   0.284  0.1674 -0.5799  0.3319
   95SOL    HW3  498   3.329   1.809   0.379 -0.1846  0.3463  1.3445
   95SOL    MW4  499   3.307   1.874   0.325  0.0491 -0.2176  0.5527
   96SOL     OW  500   2.073   0.460   0.456  0.2478 -0.3329 -0.1198
   96SOL    HW2  501   2.131   0.526   0.418 -0.6358 -0.2331 -1.3000
   96SOL    HW3  502   2.117   0.377   0.437  0.5092 -0.1990 -0.1117
   96SOL    MW4  503   2.087   0.458   0.448  0.1655 -0.3020 -0.2744
   97SOL     OW  504   2.874   2.092   1.207  0.4735 -0.2307  0.3473
   97SOL    HW2  505   2.893   2.093   1.301 -0.7747  1.3247  0.6152
   97SOL    HW3  506   2.842   2.181   1.189  0.5824 -0.5670 -1.5161
   97SOL    MW4  507   2.872   2.104   1.217  0.3231 -0.0699  0.1367
   98SOL     OW  508   3.274   4.066   0.404  0.0404  0.6060 -0.6401
   98SOL    HW2  509   3.367   4.043   0.402 -0.1479 -0.1047 -1.8078
   98SOL    HW3  510   3.231   3.993   0.360 -0.8614  1.9242 -1.9556
   98SOL    MW4  511   3.281   4.053   0.398 -0.1035  0.6857 -0.9677
   99SOL     OW  512   1.370   1.422   0.322 -0.4295 -0.3493 -0.3239
   99SOL    HW2  513   1.374   1.512   0.355  0.0141 -0.5573  0.1885
   99SOL    HW3  514   1.287   1.388   0.356 -0.8477  0.0294 -0.9460
   99SOL    MW4  515   1.360   1.430   0.331 -0.4263 -0.3268 -0.3384
  100SOL     OW  516   4.031   2.804   0.843 -0.2358  0.0128 -0.1902
  100SOL    HW2  517   3.943   2.838   0.858 -0.6277 -0.8882 -0.3717
  100SOL    HW3  518   4.018   2.731   0.782  0.4697 -1.0123  0.8767
  100SOL    MW4  519   4.018   2.799   0.837 -0.1936 -0.2415 -0.0733
  101SOL     OW  520   2.399   2.328   0.814 -0.5168 -0.1459 -0.0319
  101SOL    HW2  521   2.405   2.241   0.775  3.0926  0.3830 -0.8861
  101SOL    HW3  522   2.431   2.317   0.903 -2.2856 -0.0963  0.6238
  101SOL    MW4  523   2.404   2.315   0.821 -0.2737 -0.0699 -0.0581
  102SOL     OW  524   0.894   1.691   1.193  0.6441 -0.0487  0.2756
  102SOL    HW2  525   0.812   1.656   1.158  0.4682 -0.2987  0.9287
  102SOL    HW3  526   0.903   1.777   1.152 -0.4411  0.3932  0.9267
  102SOL    MW4  527   0.884   1.698   1.183  0.4777 -0.0234  0.4476
  103SOL     OW  528   4.058   1.544   0.472  0.2002  0.1573 -0.0515
  103SOL    HW2  529   3.977   1.496   0.452 -0.0294  1.1689 -1.6855
  103SOL    HW3  530   4.053   1.622   0.418  0.8490  1.7616  2.1372
  103SOL    MW4  531   4.047   1.548   0.462  0.2556  0.5025  0.0217
  104SOL     OW  532   2.161   0.887   0.403 -0.5336 -0.0722 -1.0437
  104SOL    HW2  533   2.213   0.925   0.332 -0.5213 -1.6198 -1.8750
  104SOL    HW3  534   2.071   0.915   0.385 -0.0667  2.3992  0.2582
  104SOL    MW4  535   2.156   0.896   0.392 -0.4704  0.0497 -0.9816
  105SOL     OW  536   3.319   0.479   1.190 -0.3854  0.1718 -0.8602
  105SOL    HW2  537   3.346   0.564   1.155 -0.4053 -0.1024 -1.5514
  105SOL    HW3  538   3.234   0.462   1.149 -1.2021  0.6277  0.6382
  105SOL    MW4  539   3.311   0.488   1.180 -0.4957  0.1958 -0.7538
  106SOL     OW  540   3.746   1.137   0.383 -0.2409  0.2077  0.0836
  106SOL    HW2  541   3.694   1.118   0.305 -0.4600  0.9673  0.0422
  106SOL    HW3  542   3.799   1.058   0.396 -1.2534 -0.5006  0.0107
  106SOL    MW4  543   3.746   1.124   0.375 -0.4032  0.2145  0.0685
  107SOL     OW  544   0.308   3.797   0.366 -0.2579 -0.1796 -0.2757
  107SOL    HW2  545   0.398   3.827   0.381 -1.2593  1.9887  1.8588
  107SOL    HW3  546   0.301   3.716   0.416  1.2831 -1.8470 -2.6996
  107SOL    MW4  547   0.319   3.790   0.375 -0.1867 -0.1135 -0.3139
  108SOL     OW  548   1.779   3.474   0.818 -0.3870  0.2263 -0.3196
  108SOL    HW2  549   1.804   3.491   0.909  0.4357  1.3291 -0.7350
  108SOL    HW3  550   1.784   3.559   0.775 -1.9292 -0.0715 -1.1415
  108SOL    MW4  551   1.783   3.487   0.824 -0.4821  0.3324 -0.4828
  109SOL     OW  552   0.438   0.323   0.768 -0.3653 -0.1181  0.7044
  109SOL    HW2  553   0.433   0.238   0.726  0.7023  1.0253 -1.8391
  109SOL    HW3  554   0.363   0.372   0.734  0.9943  1.1034 -0.6297
  109SOL    MW4  555   0.428   0.318   0.758 -0.0450  0.1939  0.1929
  110SOL     OW  556   3.483   0.568   0.436 -0.2744 -0.2241 -0.1882
  110SOL    HW2  557   3.418   0.572   0.506 -0.2874 -0.9010 -0.1609
  110SOL    HW3  558   3.458   0.490   0.385  0.9233 -0.8912  0.2311
  110SOL    MW4  559   3.471   0.558   0.439 -0.1180 -0.4015 -0.1293
  111SOL     OW  560   2.583   1.966   0.381 -0.0527  0.0340 -0.0893
  111SOL    HW2  561   2.636   1.891   0.409  0.4124  0.2092 -0.4838
  111SOL    HW3  562   2.647   2.031   0.352 -0.5027 -0.1162 -1.4776
  111SOL    MW4  563   2.599   1.965   0.381 -0.0505  0.0373 -0.3245
  112SOL     OW  564   0.463   3.462   0.754  0.5103  0.1195  0.2347
  112SOL    HW2  565   0.554   3.492   0.747  1.0166 -1.2188  0.7694
  112SOL    HW3  566   0.443   3.468   0.847  0.5399 -0.9278  0.3148
  112SOL    MW4  567   0.473   3.466   0.765  0.5810 -0.1953  0.3158
  113SOL     OW  568   2.912   4.650   0.866  0.2422 -0.0271 -0.0769
  113SOL    HW2  569   2.983   4.702   0.829  0.4925 -0.1213  0.2775
  113SOL    HW3  570   2.925   4.562   0.831  0.5140 -0.1302  0.2875
  113SOL    MW4  571   2.923   4.646   0.856  0.3111 -0.0525  0.0179
  114SOL     OW  572   3.991   4.240   0.746  0.0992  0.2911 -0.5119
  114SOL    HW2  573   3.920   4.303   0.738 -2.5197 -2.4054  0.4941
  114SOL    HW3  574   4.012   4.238   0.839  0.6605  0.1993 -0.6388
  114SOL    MW4  575   3.985   4.248   0.757 -0.1721 -0.0772 -0.3960
  115SOL     OW  576   1.877   2.576   0.416 -0.0975  0.6384 -0.0363
  115SOL    HW2  577   1.894   2.498   0.469  0.9335  0.5318 -0.5118
  115SOL    HW3  578   1.868   2.646   0.481  0.0568  0.3163  0.3391
  115SOL    MW4  579   1.878   2.575   0.432  0.0589  0.5815 -0.0495
  116SOL     OW  580   2.543   1.063   0.384 -0.0861 -0.3330  0.3436
  116SOL    HW2  581   2.551   1.157   0.369 -0.1840 -0.2222  0.9475
  116SOL    HW3  582   2.631   1.029   0.366  0.2775  0.0577  1.3116
  116SOL    MW4  583   2.556   1.071   0.380 -0.0510 -0.2668  0.5510
  117SOL     OW  584   2.140   2.562   0.319 -0.3433 -0.6113  0.2805
  117SOL    HW2  585   2.055   2.588   0.354  0.4166  0.3731  1.4455
  117SOL    HW3  586   2.170   2.639   0.271  0.8227 -0.1753  1.6737
  117SOL    MW4  587   2.133   2.576   0.317 -0.0892 -0.4239  0.6180
  118SOL     OW  588   4.450   0.097   1.133 -0.1231  0.0937  0.5173
  118SOL    HW2  589   4.529   0.060   1.094 -0.1966  0.3752  0.1099
  118SOL    HW3  590   4.448   0.188   1.104 -1.0607 -0.1428 -0.1884
  118SOL    MW4  591   4.460   0.104   1.124 -0.2570  0.0996  0.3705
  119SOL     OW  592   4.212   4.596   0.799  0.5041  0.3376 -0.1274
  119SOL    HW2  593   4.283   4.660   0.793  1.0768 -0.2496  0.3693
  119SOL    HW3  594   4.193   4.590   0.893 -0.1833  0.4617 -0.2533
  119SOL    MW4  595   4.219   4.604   0.811  0.4888  0.2761 -0.0786
  120SOL     OW  596   4.208   4.361   0.645 -0.0608 -0.0605  0.2084
  120SOL    HW2  597   4.205   4.442   0.696 -1.2006  1.1493 -1.7541
  120SOL    HW3  598   4.130   4.312   0.673  0.0798 -0.0367  0.6466
  120SOL    MW4  599   4.197   4.365   0.656 -0.1926  0.1025  0.0073
  121SOL     OW  600   0.089   4.146   0.385  0.0105 -0.1129  0.0453
  121SOL    HW2  601   0.003   4.187   0.397  0.6242  1.1368  0.3387
  121SOL    HW3  602   0.074   4.077   0.320 -1.1132  0.4257 -0.2884
  121SOL    MW4  603   0.076   4.143   0.378 -0.0568  0.1230  0.0400
  122SOL     OW  604   2.580   2.384   0.425 -0.2855 -0.2084  0.0291
  122SOL    HW2  605   2.495   2.339   0.423 -1.1270  1.3403 -0.0482
  122SOL    HW3  606   2.589   2.412   0.516 -0.4838  0.7950 -0.2613
  122SOL    MW4  607   2.570   2.381   0.437 -0.4225  0.1283 -0.0194
  123SOL     OW  608   2.668   2.819   0.924 -0.2470 -0.1534 -0.3317
  123SOL    HW2  609   2.619   2.800   0.844 -0.7423 -1.8217  0.3405
  123SOL    HW3  610   2.630   2.760   0.989  1.3242 -0.0356  0.7039
  123SOL    MW4  611   2.656   2.809   0.922 -0.1049 -0.3581 -0.1064
  124SOL     OW  612   2.430   0.242   0.233 -0.2195  0.1951  0.5953
  124SOL    HW2  613   2.432   0.147   0.223  0.9365  0.2067  0.6779
  124SOL    HW3  614   2.360   0.258   0.296 -1.9056 -0.4387 -1.0381
  124SOL    MW4  615   2.421   0.232   0.240 -0.2892  0.1130  0.3907
  125SOL     OW  616   3.799   0.519   0.742 -0.0597  0.0864  0.1910
  125SOL    HW2  617   3.732   0.470   0.788  0.9317  0.4102  2.0396
  125SOL    HW3  618   3.879   0.468   0.754  0.3128  0.4313 -0.7525
  125SOL    MW4  619   3.801   0.506   0.750  0.1199  0.1747  0.3105
  126SOL     OW  620   0.163   2.355   0.784  0.3592 -0.1328 -0.2248
  126SOL    HW2  621   0.153   2.344   0.879  0.6277  0.4976 -0.1167
  126SOL    HW3  622   0.200   2.272   0.754  1.2681  0.0355  0.3803
  126SOL    MW4  623   0.167   2.343   0.793  0.5146 -0.0274 -0.1307
  127SOL     OW  624   3.298   4.356   0.416  0.4818  0.0822  0.1382
  127SOL    HW2  625   3.325   4.388   0.502  0.2427  0.5538  0.0363
  127SOL    HW3  626   3.283   4.262   0.429  1.7671 -0.1043  0.2898
  127SOL    MW4  627   3.300   4.348   0.429  0.6196  0.1197  0.1448
  128SOL     OW  628   0.686   2.965   0.476 -0.1969  0.2439  0.2903
  128SOL    HW2  629   0.765   2.912   0.463  0.0449 -0.0669  2.7506
  128SOL    HW3  630   0.615   2.901   0.475 -0.1744  0.2156  0.5630
  128SOL    MW4  631   0.687   2.949   0.474 -0.1619  0.1993  0.6509
  129SOL     OW  632   1.571   0.546   0.454  0.0655  0.0967 -0.1042
  129SOL    HW2  633   1.630   0.474   0.435 -0.7686 -0.7402  0.4266
  129SOL    HW3  634   1.488   0.521   0.413 -0.3614  0.5248  0.4761
  129SOL    MW4  635   1.568   0.533   0.446 -0.1007  0.0428  0.0423
  130SOL     OW  636   4.270   2.929   0.769  0.3741 -0.1970  0.1640
  130SOL    HW2  637   4.180   2.899   0.770  0.7694 -1.4421 -0.6522
  130SOL    HW3  638   4.276   2.986   0.692  0.6297 -1.2195 -0.5776
  130SOL    MW4  639   4.259   2.933   0.759  0.4606 -0.4961 -0.0415
  131SOL     OW  640   2.189   4.260   0.860 -0.1136  0.1221 -0.1784
  131SOL    HW2  641   2.270   4.298   0.826  0.2415 -0.4778 -0.0103
  131SOL    HW3  642   2.165   4.193   0.796  0.3783 -0.7838  0.5693
  131SOL    MW4  643   2.197   4.256   0.847 -0.0019 -0.0758 -0.0576
  132SOL     OW  644   2.209   4.278   1.118  0.1342 -0.0582 -0.3353
  132SOL    HW2  645   2.143   4.346   1.132  0.9383  0.7714 -0.4981
  132SOL    HW3  646   2.197   4.253   1.026  0.3631  0.4414 -0.5048
  132SOL    MW4  647   2.199   4.284   1.107  0.2704  0.1168 -0.3791
  133SOL     OW  648   3.843   1.519   0.873 -0.2461  0.4203  0.2717
  133SOL    HW2  649   3.769   1.563   0.831  0.9613  2.2385 -0.0277
  133SOL    HW3  650   3.921   1.562   0.835  0.9525 -1.1516  0.8880
  133SOL    MW4  651   3.844   1.530   0.862  0.0713  0.4528  0.3135
  134SOL     OW  652   4.230   2.368   0.822  0.1784 -0.1706  0.1403
  134SOL    HW2  653   4.301   2.408   0.773 -0.7317  0.8145 -0.3890
  134SOL    HW3  654   4.215   2.284   0.778 -0.0319  0.3121 -0.7222
  134SOL    MW4  655   4.237   2.362   0.810  0.0300  0.0231 -0.0433
  135SOL     OW  656   3.132   4.282   0.777 -0.3509 -0.0506  0.2123
  135SOL    HW2  657   3.126   4.199   0.730 -2.0197  0.2288 -0.1018
  135SOL    HW3  658   3.127   4.257   0.869 -0.5719 -0.3392  0.1271
  135SOL    MW4  659   3.130   4.268   0.783 -0.6003 -0.0525  0.1597
  136SOL     OW  660   3.538   1.029   0.205  0.2279 -0.1241  0.5140
  136SOL    HW2  661   3.537   1.008   0.112  2.2087 -0.0466  0.4565
  136SOL    HW3  662   3.518   0.946   0.248 -0.4822 -0.2073  0.0350
  136SOL    MW4  663   3.535   1.015   0.198  0.3955 -0.1248  0.4432
  137SOL     OW  664   1.157   3.843   0.829 -0.2902 -0.2218  0.3595
  137SOL    HW2  665   1.068   3.823   0.801  0.0200 -0.0090 -0.7820
  137SOL    HW3  666   1.198   3.758   0.841 -0.1224 -0.3057 -0.8038
  137SOL    MW4  667   1.151   3.829   0.827 -0.2272 -0.2050  0.0554
  138SOL     OW  668   1.508   1.194   0.451 -0.0175  0.0029 -0.2235
  138SOL    HW2  669   1.481   1.267   0.395  0.1451  0.1217 -0.1462
  138SOL    HW3  670   1.433   1.134   0.450  0.2544 -0.3371 -1.1402
  138SOL    MW4  671   1.494   1.195   0.443  0.0398 -0.0262 -0.3342
  139SOL     OW  672   3.793   4.411   0.697 -0.0137 -0.2803 -0.4574
  139SOL    HW2  673   3.770   4.499   0.726 -1.7098 -0.4341 -1.2771
  139SOL    HW3  674   3.790   4.415   0.602  1.1177 -0.9196 -0.5308
  139SOL    MW4  675   3.790   4.423   0.688 -0.0882 -0.3853 -0.5752
  140SOL     OW  676   1.799   2.767   1.119 -0.0467 -0.1345 -0.3769
  140SOL    HW2  677   1.776   2.675   1.131  0.7422 -0.6146 -2.3933
  140SOL    HW3  678   1.883   2.777   1.164  1.1233 -1.0526 -2.2660
  140SOL    MW4  679   1.807   2.756   1.126  0.2118 -0.3190 -0.8923
  141SOL     OW  680   2.024   3.885   0.782 -0.5610  0.2644  0.1817
  141SOL    HW2  681   2.098   3.824   0.776 -0.7729  0.0437 -0.2604
  141SOL    HW3  682   2.012   3.900   0.875  0.4916  0.8561  0.2230
  141SOL    MW4  683   2.032   3.879   0.793 -0.4497  0.3135  0.1288
  142SOL     OW  684   1.944   2.045   0.705 -0.1696  0.0060 -0.1082
  142SOL    HW2  685   1.870   1.993   0.738 -0.0355  0.0938  0.3320
  142SOL    HW3  686   1.930   2.132   0.742  0.4360 -0.1098  0.3937
  142SOL    MW4  687   1.932   2.050   0.714 -0.0721  0.0024  0.0162
  143SOL     OW  688   1.070   3.208   0.277  0.1168 -0.2552 -0.1344
  143SOL    HW2  689   1.117   3.125   0.270  0.4112  0.0007 -1.3059
  143SOL    HW3  690   1.018   3.213   0.197 -0.4489  0.3506  0.2674
  143SOL    MW4  691   1.069   3.198   0.266  0.0809 -0.1416 -0.2359
  144SOL     OW  692   4.187   4.076   0.306  0.4726  0.2957 -0.3297
  144SOL    HW2  693   4.099   4.096   0.335  0.9313 -0.1470  1.3980
  144SOL    HW3  694   4.237   4.156   0.324  0.7519  0.0266  0.0984
  144SOL    MW4  695   4.182   4.089   0.312  0.5698  0.2012 -0.0453
  145SOL     OW  696   1.453   3.790   0.570 -0.2406  0.1344 -0.6115
  145SOL    HW2  697   1.498   3.852   0.628  1.5956 -2.1525  0.5320
  145SOL    HW3  698   1.510   3.784   0.493  0.1671 -0.8968 -0.2454
  145SOL    MW4  699   1.467   3.798   0.568  0.0554 -0.3035 -0.4123
  146SOL     OW  700   2.146   4.100   0.644 -0.7930  0.2643 -0.0908
  146SOL    HW2  701   2.212   4.060   0.588 -0.7823  0.2642 -0.0778
  146SOL    HW3  702   2.109   4.027   0.693 -1.5703  0.1119 -0.8924
  146SOL    MW4  703   2.150   4.085   0.643 -0.8943  0.2441 -0.1948
  147SOL     OW  704   3.319   3.378   0.249  0.4274 -0.0522 -0.2557
  147SOL    HW2  705   3.259   3.351   0.319 -0.0980  1.6926 -0.0030
  147SOL    HW3  706   3.263   3.384   0.171  0.5374  0.2582 -0.3127
  147SOL    MW4  707   3.303   3.375   0.248  0.3726  0.2191 -0.2299
  148SOL     OW  708   2.584   2.737   0.654 -0.1004 -0.1041 -0.4330
  148SOL    HW2  709   2.524   2.757   0.582 -0.3115  0.1599 -0.1837
  148SOL    HW3  710   2.671   2.740   0.614 -0.2381 -0.2758 -0.7467
  148SOL    MW4  711   2.587   2.740   0.639 -0.1464 -0.0918 -0.4415
  149SOL     OW  712   2.013   0.535   0.729  0.5861 -0.1145 -0.5876
  149SOL    HW2  713   1.939   0.477   0.748 -1.1975  2.0933 -0.5078
  149SOL    HW3  714   2.032   0.520   0.636 -0.0659 -0.6032 -0.6439
  149SOL    MW4  715   2.006   0.526   0.719  0.2649  0.1123 -0.5845
  150SOL     OW  716   0.229   0.496   0.697 -0.6246  0.0618 -0.1260
  150SOL    HW2  717   0.227   0.586   0.730  1.5361  1.1553 -2.7768
  150SOL    HW3  718   0.149   0.456   0.732 -0.7845  2.4779  2.4851
  150SOL    MW4  719   0.218   0.502   0.706 -0.3606  0.5248 -0.1312
  151SOL     OW  720   3.566   4.505   0.335  0.0787  0.3405 -0.2953
  151SOL    HW2  721   3.475   4.477   0.344  0.1179 -0.0527 -1.0604
  151SOL    HW3  722   3.565   4.599   0.351 -0.2229  0.0951  1.2383
  151SOL    MW4  723   3.554   4.514   0.338  0.0436  0.2561 -0.1939
  152SOL     OW  724   3.561   0.386   0.809  0.4114  0.1289  0.6300
  152SOL    HW2  725   3.525   0.368   0.896  0.1134 -2.1911  0.0548
  152SOL    HW3  726   3.499   0.447   0.770 -0.2842 -0.0183  1.4758
  152SOL    MW4  727   3.548   0.392   0.816  0.2804 -0.1966  0.6658
  153SOL     OW  728   3.542   2.229   0.473 -0.4579 -0.0491  0.6766
  153SOL    HW2  729   3.574   2.211   0.384  0.3365  0.5820  0.8299
  153SOL    HW3  730   3.455   2.189   0.476 -0.8757  0.7045 -0.6953
  153SOL    MW4  731   3.535   2.222   0.462 -0.4082  0.1335  0.5158
  154SOL     OW  732   2.665   0.359   1.061  0.2358  0.1686  0.1148
  154SOL    HW2  733   2.668   0.264   1.076  1.6376  0.1500 -0.2963
  154SOL    HW3  734   2.707   0.371   0.976  0.2297  1.1895  0.2575
  154SOL    MW4  735   2.671   0.348   1.052  0.4201  0.3008  0.0795
  155SOL     OW  736   0.009   0.395   0.820 -0.2662 -0.2602  0.2358
  155SOL    HW2  737   0.000   0.300   0.807  0.0024 -0.0106 -1.9533
  155SOL    HW3  738   0.018   0.405   0.914 -0.2396 -2.4290  0.4997
  155SOL    MW4  739   0.009   0.384   0.831 -0.2273 -0.5135 -0.0183
  156SOL     OW  740   3.328   1.162   0.348 -0.2977 -0.1714  0.6133
  156SOL    HW2  741   3.388   1.151   0.422  0.7393 -0.6477 -0.2723
  156SOL    HW3  742   3.380   1.136   0.272 -1.2966  0.4651 -0.2992
  156SOL    MW4  743   3.343   1.157   0.348 -0.2928 -0.1503  0.3760
  157SOL     OW  744   3.801   3.611   1.170  0.2360  0.5430  0.1061
  157SOL    HW2  745   3.789   3.601   1.264  0.4457  0.3611  0.1144
  157SOL    HW3  746   3.884   3.569   1.152 -0.5262 -0.7837 -0.3909
  157SOL    MW4  747   3.810   3.604   1.180  0.1631  0.3438  0.0416
  158SOL     OW  748   1.705   3.483   0.333  0.6894  0.2970  0.4399
  158SOL    HW2  749   1.780   3.428   0.355  1.6710  2.1579  1.9450
  158SOL    HW3  750   1.629   3.434   0.363  1.3203 -1.4151 -0.6856
  158SOL    MW4  751   1.705   3.470   0.340  0.9021  0.3164  0.4900
  159SOL     OW  752   2.255   0.615   0.336 -0.0058  0.1957 -0.0711
  159SOL    HW2  753   2.226   0.705   0.319 -0.3146  0.0332 -0.4071
  159SOL    HW3  754   2.343   0.625   0.374 -0.8072  0.7400  1.7199
  159SOL    MW4  755   2.263   0.628   0.339 -0.1519  0.2461  0.1209
  160SOL     OW  756   4.000   3.647   0.586 -0.2917 -0.1146  0.2871
  160SOL    HW2  757   3.937   3.605   0.645 -2.0357  0.9608 -0.7763
  160SOL    HW3  758   3.946   3.700   0.528  1.3356 -1.6331 -2.6996
  160SOL    MW4  759   3.985   3.648   0.586 -0.3073 -0.1731 -0.2474
  161SOL     OW  760   3.135   4.212   1.039  0.0013 -0.5063 -0.6298
  161SOL    HW2  761   3.152   4.121   1.063 -1.3755 -0.2662  1.3148
  161SOL    HW3  762   3.214   4.259   1.066 -0.1818 -0.7793  0.4002
  161SOL    MW4  763   3.148   4.206   1.046 -0.2048 -0.5102 -0.2373
  162SOL     OW  764   3.127   0.111   0.720 -0.6559 -0.4649 -0.0385
  162SOL    HW2  765   3.093   0.109   0.630 -0.3955 -1.2794 -0.1191
  162SOL    HW3  766   3.142   0.204   0.737  0.4586 -0.4083 -1.2685
  162SOL    MW4  767   3.124   0.123   0.710 -0.4745 -0.5649 -0.2115
  163SOL     OW  768   3.017   3.642   0.719  0.0150 -0.1266 -0.4284
  163SOL    HW2  769   2.991   3.668   0.631  1.5249 -0.7278 -1.0759
  163SOL    HW3  770   3.112   3.637   0.715  0.0709 -0.5311  1.1388
  163SOL    MW4  771   3.026   3.645   0.707  0.2215 -0.2594 -0.3071
  164SOL     OW  772   1.144   3.207   0.686  0.4811  0.1764  0.1430
  164SOL    HW2  773   1.063   3.166   0.656  0.3019  0.0992  0.7289
  164SOL    HW3  774   1.208   3.135   0.689  0.2480 -0.0036  0.8716
  164SOL    MW4  775   1.142   3.192   0.682  0.4267  0.1423  0.3164
  165SOL     OW  776   1.111   1.403   0.703 -0.3378 -0.1510 -0.5016
  165SOL    HW2  777   1.120   1.354   0.621 -1.4025 -0.3030 -0.5361
  165SOL    HW3  778   1.143   1.491   0.682  0.8147 -0.6152 -0.6642
  165SOL    MW4  779   1.116   1.409   0.689 -0.3262 -0.2323 -0.5276
  166SOL     OW  780   2.672   3.710   0.635 -0.2442 -0.1802  0.0709
  166SOL    HW2  781   2.726   3.761   0.574  0.0456  0.4301  0.8316
  166SOL    HW3  782   2.615   3.775   0.676 -0.5185 -0.6095  0.3718
  166SOL    MW4  783   2.672   3.726   0.632 -0.2422 -0.1559  0.2110
  167SOL     OW  784   0.387   0.415   0.374 -0.1441  0.0699  0.0064
  167SOL    HW2  785   0.463   0.466   0.401 -1.4829  0.7107  2.6834
  167SOL    HW3  786   0.315   0.477   0.373 -0.9097 -0.8079 -1.2124
  167SOL    MW4  787   0.388   0.430   0.377 -0.4218  0.0387  0.1987
  168SOL     OW  788   1.324   0.499   0.339 -0.5249 -0.3022 -0.0894
  168SOL    HW2  789   1.237   0.513   0.377 -0.2955  0.2357  0.2464
  168SOL    HW3  790   1.335   0.573   0.278 -0.1875 -0.2055  0.0864
  168SOL    MW4  791   1.314   0.511   0.336 -0.4501 -0.2185 -0.0219
  169SOL     OW  792   1.786   1.197   0.802  0.0983  0.2710  0.1084
  169SOL    HW2  793   1.777   1.112   0.759  0.9479  0.6338 -0.8177
  169SOL    HW3  794   1.703   1.241   0.785 -0.0332 -0.0576 -0.1170
  169SOL    MW4  795   1.774   1.191   0.794  0.1931  0.2755 -0.0435
  170SOL     OW  796   1.306   2.506   0.669  0.1916 -0.2113  0.1001
  170SOL    HW2  797   1.348   2.581   0.711  2.1100 -1.3000  0.1761
  170SOL    HW3  798   1.249   2.470   0.736 -1.0406  1.3823 -0.0504
  170SOL    MW4  799   1.304   2.511   0.683  0.2820 -0.1447  0.0904
  171SOL     OW  800   2.037   0.079   0.806 -0.3048  0.2161 -0.1439
  171SOL    HW2  801   1.953   0.092   0.762  0.4528 -0.4697 -1.8506
  171SOL    HW3  802   2.058  -0.013   0.792  0.3809  0.2072  0.9031
  171SOL    MW4  803   2.029   0.069   0.799 -0.1144  0.1245 -0.2310
  172SOL     OW  804   3.574   1.932   1.116  0.4601  0.0022 -0.0105
  172SOL    HW2  805   3.579   1.845   1.156 -0.7409 -0.4118 -0.7161
  172SOL    HW3  806   3.576   1.915   1.022 -0.4038  0.6730 -0.1604
  172SOL    MW4  807   3.575   1.918   1.109  0.1876  0.0361 -0.1234
  173SOL     OW  808   0.096   2.542   0.439 -0.0390 -0.2844 -0.1416
  173SOL    HW2  809   0.030   2.559   0.506 -0.6881 -0.4564 -0.7317
  173SOL    HW3  810   0.131   2.628   0.417  1.5745 -0.4285  1.8353
  173SOL    MW4  811   0.092   2.556   0.445  0.0883 -0.3259  0.0413
  174SOL     OW  812   0.476   3.975   0.695  0.3133 -0.4940  0.1660
  174SOL    HW2  813   0.386   3.941   0.702 -0.1534  0.3040 -1.8243
  174SOL    HW3  814   0.468   4.068   0.715  0.7523 -0.4901  0.3197
  174SOL    MW4  815   0.463   3.983   0.699  0.3096 -0.3881 -0.0764
  175SOL     OW  816   4.015   0.099   0.701 -0.1867 -0.3842  0.5653
  175SOL    HW2  817   4.053   0.181   0.735 -0.1422  0.0864 -0.5914
  175SOL    HW3  818   4.076   0.031   0.728  1.0265  0.2582 -0.4840
  175SOL    MW4  819   4.028   0.101   0.709 -0.0210 -0.2374  0.2743
  176SOL     OW  820   3.535   3.995   0.397 -0.0136 -0.1235  0.3311
  176SOL    HW2  821   3.614   4.024   0.352 -0.3397  1.1010  0.5211
  176SOL    HW3  822   3.555   4.006   0.490  0.1425 -1.3003  0.4535
  176SOL    MW4  823   3.548   4.000   0.403 -0.0358 -0.1173  0.3723
  177SOL     OW  824   0.672   4.583   0.822  0.2715 -0.7410  0.6367
  177SOL    HW2  825   0.732   4.649   0.788 -0.6697  0.0834  0.5521
  177SOL    HW3  826   0.673   4.596   0.917 -0.2161 -0.3410  0.5880
  177SOL    MW4  827   0.680   4.593   0.830  0.0830 -0.5794  0.6192
  178SOL     OW  828   2.986   2.508   0.397  0.2159  0.2794 -0.0670
  178SOL    HW2  829   2.930   2.548   0.332 -0.5362 -1.1131 -0.2887
  178SOL    HW3  830   2.936   2.514   0.479  1.7168  3.2655  0.7274
  178SOL    MW4  831   2.972   2.514   0.399  0.3147  0.4900  0.0086
  179SOL     OW  832   0.204   4.650   0.769 -0.6855  0.4284 -0.1854
  179SOL    HW2  833   0.187   4.560   0.741  0.4515  0.5288 -1.2688
  179SOL    HW3  834   0.293   4.668   0.738  0.0077  1.1245  2.0957
  179SOL    MW4  835   0.214   4.641   0.761 -0.4440  0.5334 -0.0274
  180SOL     OW  836   0.852   2.615   0.277  0.2995  0.1183  0.3518
  180SOL    HW2  837   0.767   2.582   0.308  1.2361 -1.6823  1.0040
  180SOL    HW3  838   0.830   2.700   0.238 -1.6075  0.3278  1.7496
  180SOL    MW4  839   0.838   2.622   0.276  0.1715 -0.0918  0.6222
  181SOL     OW  840   2.091   3.578   0.289  0.3907 -0.6936 -0.1057
  181SOL    HW2  841   2.070   3.495   0.333  0.9138 -0.7600  0.0227
  181SOL    HW3  842   2.029   3.582   0.216  0.3359 -1.1842 -0.0925
  181SOL    MW4  843   2.080   3.567   0.285  0.4523 -0.7670 -0.0870
  182SOL     OW  844   4.050   3.499   1.106 -0.5245 -0.3367  0.7535
  182SOL    HW2  845   4.001   3.497   1.023  1.4656  0.2572 -0.4612
  182SOL    HW3  846   4.060   3.407   1.129 -2.0018 -0.4793  0.9038
  182SOL    MW4  847   4.045   3.487   1.098 -0.4568 -0.2773  0.6130
  183SOL     OW  848   2.563   1.352   0.380 -0.3525 -0.7262  0.1516
  183SOL    HW2  849   2.495   1.392   0.326 -0.2236 -0.5524  0.1167
  183SOL    HW3  850   2.522   1.342   0.466  0.5526  2.2472  0.9918
  183SOL    MW4  851   2.548   1.356   0.384 -0.2160 -0.3110  0.2578
  184SOL     OW  852   3.325   3.588   1.145  0.4319  0.3055  0.1903
  184SOL    HW2  853   3.334   3.664   1.089 -0.8896  1.0334  0.9386
  184SOL    HW3  854   3.335   3.622   1.234 -1.5901 -0.1136  0.6198
  184SOL    MW4  855   3.327   3.602   1.150 -0.0091  0.3462  0.3457
  185SOL     OW  856   4.063   1.899   0.784 -0.0914  0.2044  0.1475
  185SOL    HW2  857   4.049   1.808   0.759  1.2318 -0.0074  0.1084
  185SOL    HW3  858   4.059   1.899   0.880 -1.4487  0.3487  0.0895
  185SOL    MW4  859   4.061   1.887   0.794 -0.0958  0.1954  0.1347
  186SOL     OW  860   1.407   0.213   0.399 -0.2341 -0.3518  0.5945
  186SOL    HW2  861   1.368   0.298   0.383  0.1833 -0.1643  0.5574
  186SOL    HW3  862   1.497   0.222   0.368 -0.6863 -1.3579 -1.0916
  186SOL    MW4  863   1.414   0.225   0.393 -0.2387 -0.4598  0.3672
  187SOL     OW  864   4.243   0.782   0.823  0.3047  0.2887 -0.6714
  187SOL    HW2  865   4.238   0.692   0.791  1.0664  0.2234 -0.6210
  187SOL    HW3  866   4.166   0.825   0.786 -0.8002 -0.7243  0.4138
  187SOL    MW4  867   4.233   0.776   0.813  0.2589  0.1464 -0.5215
  188SOL     OW  868   0.487   1.664   0.789  0.5305  0.2617 -0.2224
  188SOL    HW2  869   0.507   1.659   0.695  1.0461 -0.1807 -0.0876
  188SOL    HW3  870   0.410   1.608   0.800 -1.3150  2.5588 -0.8716
  188SOL    MW4  871   0.480   1.656   0.778  0.3551  0.5065 -0.2902
  189SOL     OW  872   3.966   3.377   0.374 -0.4032  0.0172 -0.3192
  189SOL    HW2  873   3.999   3.290   0.352 -0.0632  0.0732 -0.0217
  189SOL    HW3  874   3.872   3.364   0.389 -0.0603 -0.5922  1.3786
  189SOL    MW4  875   3.958   3.364   0.373 -0.3133 -0.0556 -0.0559
  190SOL     OW  876   2.906   0.804   0.833 -0.1163  0.1391  0.4814
  190SOL    HW2  877   2.939   0.725   0.792  0.2477  0.9290 -0.7804
  190SOL    HW3  878   2.981   0.864   0.834 -1.4504  1.9620 -2.4466
  190SOL    MW4  879   2.920   0.802   0.828 -0.2444  0.4838 -0.0714
  191SOL     OW  880   1.105   1.746   0.390  0.4053  0.2352  0.0106
  191SOL    HW2  881   1.072   1.801   0.319 -0.0503 -0.2895 -0.1880
  191SOL    HW3  882   1.194   1.722   0.363  0.4999  0.6364 -0.0339
  191SOL    MW4  883   1.113   1.750   0.377  0.3577  0.2189 -0.0215
  192SOL     OW  884   2.326   2.006   0.474  0.6515 -0.4177  0.5222
  192SOL    HW2  885   2.413   1.983   0.443  0.8917  0.8222  0.2492
  192SOL    HW3  886   2.339   2.040   0.562  0.4125 -0.4686  0.5789
  192SOL    MW4  887   2.339   2.007   0.482  0.6518 -0.2608  0.4937
  193SOL     OW  888   0.045   4.049   0.651  0.3010  0.5498  0.2580
  193SOL    HW2  889   0.024   4.132   0.693 -1.2977 -0.0218  0.6476
  193SOL    HW3  890   0.093   4.073   0.572  2.1135  1.7130  1.6467
  193SOL    MW4  891   0.049   4.063   0.646  0.3292  0.6280  0.4927
  194SOL     OW  892   2.115   1.864   0.341  0.3898  0.3678  0.3865
  194SOL    HW2  893   2.111   1.909   0.257  0.2117  0.8020  0.6232
  194SOL    HW3  894   2.185   1.907   0.389  1.2035 -0.5759  0.0709
  194SOL    MW4  895   2.123   1.875   0.336  0.4737  0.3006  0.3761
  195SOL     OW  896   2.211   0.214   0.428  0.3257  0.4885 -0.1607
  195SOL    HW2  897   2.158   0.153   0.377 -1.1702  1.2583  0.4142
  195SOL    HW3  898   2.236   0.164   0.506 -1.3320  0.7490  0.5561
  195SOL    MW4  899   2.207   0.199   0.432 -0.0904  0.6244  0.0097
  196SOL     OW  900   0.491   2.752   0.505 -0.4351  0.0996 -0.2961
  196SOL    HW2  901   0.531   2.672   0.471 -3.0867 -1.2761 -0.2856
  196SOL    HW3  902   0.515   2.753   0.598  0.3078 -0.2400 -0.4849
  196SOL    MW4  903   0.500   2.742   0.513 -0.6869 -0.1271 -0.3196
  197SOL     OW  904   4.037   1.167   0.822  0.2011  0.3642  0.0081
  197SOL    HW2  905   4.034   1.161   0.917  0.7590  1.9805  0.1440
  197SOL    HW3  906   3.963   1.224   0.799 -0.1948 -0.3698 -0.5683
  197SOL    MW4  907   4.027   1.174   0.831  0.2222  0.4807 -0.0501
  198SOL     OW  908   0.624   2.527   0.416 -0.1061  0.2506  0.6333
  198SOL    HW2  909   0.555   2.466   0.393 -0.7344  0.3088  2.3632
  198SOL    HW3  910   0.663   2.492   0.496  1.1837  0.7719  0.2571
  198SOL    MW4  911   0.620   2.515   0.423 -0.0188  0.3271  0.8119
  199SOL     OW  912   2.398   2.075   0.736 -0.7370 -0.0571 -0.7050
  199SOL    HW2  913   2.339   2.008   0.769 -1.0564  1.3976  1.8511
  199SOL    HW3  914   2.485   2.044   0.761 -0.8030 -0.0004 -0.4017
  199SOL    MW4  915   2.402   2.062   0.744 -0.7880  0.1419 -0.3277
  200SOL     OW  916   0.099   0.183   0.174 -0.8664  0.0328 -0.2283
  200SOL    HW2  917   0.191   0.195   0.150 -0.4244 -0.8456  0.9960
  200SOL    HW3  918   0.094   0.093   0.206 -1.8445  0.5503  1.1013
  200SOL    MW4  919   0.111   0.173   0.175 -0.9372 -0.0149  0.1086
  201SOL     OW  920   2.234   0.151   1.195 -0.1793  0.1708  0.1833
  201SOL    HW2  921   2.246   0.226   1.136 -1.6407  0.2957  0.0225
  201SOL    HW3  922   2.305   0.091   1.172  0.6527  1.2383 -0.0992
  201SOL    MW4  923   2.245   0.153   1.184 -0.2623  0.3281  0.1247
  202SOL     OW  924   2.575   4.124   0.455 -0.3309 -0.3222 -0.6738
  202SOL    HW2  925   2.516   4.050   0.436 -0.1374 -0.2857 -1.4148
  202SOL    HW3  926   2.636   4.089   0.520 -0.9799 -0.4513 -0.1191
  202SOL    MW4  927   2.575   4.110   0.461 -0.3910 -0.3343 -0.6984
  203SOL     OW  928   4.324   3.853   0.306  0.0259 -0.0974  0.4430
  203SOL    HW2  929   4.404   3.887   0.266  0.4080 -1.6066 -0.1410
  203SOL    HW3  930   4.267   3.929   0.317  1.0948  0.8070 -0.2030
  203SOL    MW4  931   4.327   3.867   0.303  0.2174 -0.1771  0.2807
  204SOL     OW  932   0.952   4.229   0.807  0.3700  0.0297  0.0743
  204SOL    HW2  933   1.006   4.173   0.751 -0.3287 -0.8251  0.2415
  204SOL    HW3  934   0.875   4.250   0.753 -0.5685 -1.2431  0.8768
  204SOL    MW4  935   0.949   4.224   0.793  0.1541 -0.2518  0.2022
  205SOL     OW  936   2.030   0.480   1.174  0.0547 -0.3355  0.2524
  205SOL    HW2  937   1.942   0.445   1.163  0.6652 -1.6907 -0.3473
  205SOL    HW3  938   2.048   0.471   1.268 -0.9208  1.1437  0.6104
  205SOL    MW4  939   2.021   0.474   1.185  0.0064 -0.3192  0.2205
  206SOL     OW  940   3.177   2.568   0.803  0.0189 -0.2291 -0.1761
  206SOL    HW2  941   3.236   2.518   0.860 -0.2472 -0.2100  0.1172
  206SOL    HW3  942   3.211   2.553   0.715  0.0648 -0.7639 -0.0689
  206SOL    MW4  943   3.189   2.559   0.799 -0.0100 -0.2971 -0.1232
  207SOL     OW  944   1.557   1.315   0.703 -0.1913 -0.6392 -0.2917
  207SOL    HW2  945   1.516   1.401   0.705  0.4758 -0.3317  0.7751
  207SOL    HW3  946   1.530   1.277   0.620 -0.4149  0.6349 -0.8109
  207SOL    MW4  947   1.548   1.321   0.693 -0.1328 -0.4305 -0.2194
  208SOL     OW  948   2.950   1.573   0.818 -0.5141 -0.5931 -0.3600
  208SOL    HW2  949   3.026   1.620   0.783 -0.4585  0.2674  0.8720
  208SOL    HW3  950   2.939   1.498   0.759  1.2055 -0.6586 -0.6342
  208SOL    MW4  951   2.958   1.570   0.805 -0.2799 -0.4882 -0.2337
  209SOL     OW  952   3.055   2.231   0.421 -0.6072  0.0913  0.3171
  209SOL    HW2  953   3.032   2.322   0.402 -1.6375 -0.1135  0.5623
  209SOL    HW3  954   2.976   2.181   0.398  0.5277 -0.9411 -1.4886
  209SOL    MW4  955   3.041   2.237   0.415 -0.5937 -0.0720  0.1113
  210SOL     OW  956   4.056   2.682   1.103 -0.1152 -0.1572 -0.1627
  210SOL    HW2  957   3.981   2.726   1.142  0.3463 -0.0291  0.5833
  210SOL    HW3  958   4.056   2.712   1.011 -1.0731 -0.3043 -0.2141
  210SOL    MW4  959   4.046   2.692   1.096 -0.1807 -0.1597 -0.0710
  211SOL     OW  960   1.394   1.676   0.434 -0.0767  0.7497  0.1884
  211SOL    HW2  961   1.355   1.678   0.522 -1.6148  0.1921 -0.4770
  211SOL    HW3  962   1.473   1.731   0.442 -0.0370  0.4677  1.9881
  211SOL    MW4  963   1.400   1.684   0.447 -0.2743  0.6388  0.3381
  212SOL     OW  964   3.096   0.983   0.855 -0.0612  0.0782  0.0474
  212SOL    HW2  965   3.179   0.939   0.839  0.1624  0.2288  0.8159
  212SOL    HW3  966   3.108   1.029   0.938 -0.7823  0.4077 -0.0270
  212SOL    MW4  967   3.108   0.983   0.863 -0.1268  0.1416  0.1389
  213SOL     OW  968   0.544   4.391   0.464  0.3196  0.4942  0.0381
  213SOL    HW2  969   0.455   4.389   0.428 -0.1249 -0.6785  1.1822
  213SOL    HW3  970   0.569   4.483   0.458 -0.7568  0.7568 -0.7943
  213SOL    MW4  971   0.535   4.403   0.458  0.1190  0.3743  0.0792
  214SOL     OW  972   2.011   0.226   0.084 -0.5635 -0.2750 -0.7319
  214SOL    HW2  973   2.000   0.240  -0.010  1.8608 -0.3653 -1.0673
  214SOL    HW3  974   2.081   0.287   0.109  0.8425 -2.2902  0.4093
  214SOL    MW4  975   2.019   0.236   0.075 -0.0582 -0.5528 -0.6256
  215SOL     OW  976   1.964   4.205   0.440 -0.3770  0.4027 -0.0190
  215SOL    HW2  977   1.998   4.172   0.523 -0.5953  0.4472  0.0894
  215SOL    HW3  978   1.977   4.299   0.445 -0.0282  0.3662 -0.2026
  215SOL    MW4  979   1.970   4.213   0.452 -0.3597  0.4039 -0.0289
  216SOL     OW  980   2.747   0.415   0.807 -0.1127 -0.6418 -0.0465
  216SOL    HW2  981   2.718   0.326   0.790  1.4044 -1.2919  0.6856
  216SOL    HW3  982   2.668   0.468   0.796 -0.5546 -1.7584 -2.7975
  216SOL    MW4  983   2.733   0.410   0.803  0.0291 -0.8749 -0.3129
  217SOL     OW  984   1.751   4.012   0.423 -0.8570 -0.3624 -0.0142
  217SOL    HW2  985   1.825   4.072   0.434 -1.7855  0.5959  1.1925
  217SOL    HW3  986   1.790   3.925   0.427  0.3836  0.1472 -0.8586
  217SOL    MW4  987   1.766   4.008   0.425 -0.8157 -0.1688  0.0336
  218SOL     OW  988   2.242   2.817   0.250  0.4911 -0.0007 -0.5733
  218SOL    HW2  989   2.219   2.871   0.174  0.3513  0.4119 -0.2367
  218SOL    HW3  990   2.178   2.842   0.317  0.8405 -0.1076 -0.2018
  218SOL    MW4  991   2.231   2.827   0.249  0.5188  0.0393 -0.4799
  219SOL     OW  992   2.825   0.952   0.405 -0.3587 -0.4541  0.0294
  219SOL    HW2  993   2.794   0.952   0.495  0.1357 -0.4983  0.2024
  219SOL    HW3  994   2.915   0.983   0.411  0.1512 -1.8321 -0.2817
  219SOL    MW4  995   2.833   0.956   0.417 -0.2263 -0.6417  0.0112
  220SOL     OW  996   3.288   2.107   0.486  0.0416  0.3571  0.2896
  220SOL    HW2  997   3.205   2.147   0.462 -0.8839 -0.3937  2.0832
  220SOL    HW3  998   3.289   2.022   0.441 -0.8267 -0.2390  1.3682
  220SOL    MW4  999   3.278   2.101   0.477 -0.1950  0.1795  0.6685
  221SOL     OW 1000   4.051   3.224   1.133  0.0591  0.0012 -0.3644
  221SOL    HW2 1001   4.056   3.207   1.227 -1.7336  1.3680  0.0134
  221SOL    HW3 1002   3.966   3.188   1.107 -0.9726  2.6121 -0.7794
  221SOL    MW4 1003   4.040   3.217   1.142 -0.3138  0.5257 -0.3694
  222SOL     OW 1004   4.298   1.551   0.832 -0.2262 -0.2886 -0.0215
  222SOL    HW2 1005   4.309   1.580   0.922  1.2696 -0.4337 -0.1537
  222SOL    HW3 1006   4.291   1.456   0.838  0.1859 -0.3238 -0.0844
  222SOL    MW4 1007   4.298   1.542   0.844  0.0257 -0.3123 -0.0473
  223SOL     OW 1008   3.984   3.042   0.600  0.0003  0.2110 -0.5282
  223SOL    HW2 1009   4.001   3.063   0.508 -2.0276 -0.1065 -1.0143
  223SOL    HW3 1010   3.967   2.948   0.600  2.8939 -0.3713  0.6659
  223SOL    MW4 1011   3.984   3.032   0.588  0.1144  0.0923 -0.4348
  224SOL     OW 1012   4.293   0.568   0.436 -0.0647  0.3459 -0.2818
  224SOL    HW2 1013   4.211   0.538   0.397 -0.3146 -0.3913  0.7890
  224SOL    HW3 1014   4.359   0.506   0.405 -0.0235  0.5344 -0.5809
  224SOL    MW4 1015   4.291   0.556   0.427 -0.0925  0.2735 -0.1800
  225SOL     OW 1016   4.350   4.576   0.376  0.2347  0.2275  0.1011
  225SOL    HW2 1017   4.356   4.659   0.422 -0.3303  1.1904 -1.5141
  225SOL    HW3 1018   4.291   4.594   0.302  1.9018 -1.0060 -1.5670
  225SOL    MW4 1019   4.343   4.589   0.372  0.3800  0.1917 -0.3321
  226SOL     OW 1020   0.356   2.124   0.407 -0.2543 -0.3564 -0.1290
  226SOL    HW2 1021   0.355   2.211   0.447  1.2036 -0.3617 -0.0554
  226SOL    HW3 1022   0.336   2.140   0.314 -1.6603 -0.1396  0.1935
  226SOL    MW4 1023   0.353   2.137   0.400 -0.2474 -0.3285 -0.0767
  227SOL     OW 1024   4.207   1.086   0.419 -0.2801  0.3102 -0.3467
  227SOL    HW2 1025   4.123   1.063   0.458 -0.1229 -0.9003 -0.6894
  227SOL    HW3 1026   4.239   1.004   0.380  1.5492  0.4902  0.6955
  227SOL    MW4 1027   4.200   1.072   0.419 -0.0186  0.1743 -0.2545
  228SOL     OW 1028   2.739   1.752   0.475  0.8915 -0.1512 -0.0012
  228SOL    HW2 1029   2.718   1.734   0.567 -0.3531 -1.0472 -0.4416
  228SOL    HW3 1030   2.742   1.665   0.434 -0.5041  0.3429 -1.1982
  228SOL    MW4 1031   2.737   1.738   0.482  0.5431 -0.2042 -0.2173
  229SOL     OW 1032   0.099   0.866   0.417 -0.4887  0.4657 -0.0398
  229SOL    HW2 1033   0.176   0.915   0.387 -0.3014  0.6784  0.7778
  229SOL    HW3 1034   0.088   0.892   0.509  0.7694 -2.4702  1.0095
  229SOL    MW4 1035   0.108   0.876   0.425 -0.2980  0.1064  0.2066
  230SOL     OW 1036   3.618   3.712   0.367  0.5023  0.1743  0.1568
  230SOL    HW2 1037   3.589   3.803   0.369  1.5834  0.6253 -2.4496
  230SOL    HW3 1038   3.651   3.696   0.455  0.0598  2.2269  0.7340
  230SOL    MW4 1039   3.619   3.722   0.379  0.5863  0.5045 -0.1109
  231SOL     OW 1040   0.342   2.393   0.483  0.1745  0.0439  0.0110
  231SOL    HW2 1041   0.369   2.428   0.568  0.9418  2.0695 -1.0364
  231SOL    HW3 1042   0.263   2.442   0.461  0.5297  0.2109 -0.8867
  231SOL    MW4 1043   0.335   2.404   0.492  0.3226  0.3331 -0.2457
  232SOL     OW 1044   4.463   4.306   0.762 -0.3758 -0.2914 -0.8002
  232SOL    HW2 1045   4.374   4.321   0.729 -0.8015 -2.8569 -0.9490
  232SOL    HW3 1046   4.452   4.290   0.855  0.2034  1.5032 -0.4068
  232SOL    MW4 1047   4.450   4.306   0.770 -0.3557 -0.3929 -0.7679
  233SOL     OW 1048   1.009   2.401   0.315  0.2394  0.0549 -0.3187
  233SOL    HW2 1049   0.952   2.354   0.376 -0.6706 -0.8413 -1.8357
  233SOL    HW3 1050   0.956   2.475   0.284  1.2131  1.3789  1.0596
  233SOL    MW4 1051   0.994   2.405   0.319  0.2478  0.1113 -0.3370
  234SOL     OW 1052   2.269   1.174   0.774  0.0884 -0.3552  0.0615
  234SOL    HW2 1053   2.246   1.084   0.750 -0.8230  0.4803 -2.4127
  234SOL    HW3 1054   2.188   1.223   0.761  1.2476  1.2726 -1.1669
  234SOL    MW4 1055   2.255   1.168   0.769  0.1211 -0.0302 -0.4270
  235SOL     OW 1056   3.835   1.564   1.132 -0.5817  0.0366 -0.7273
  235SOL    HW2 1057   3.913   1.617   1.149 -0.1520 -1.0178  0.7006
  235SOL    HW3 1058   3.837   1.547   1.038  2.5399 -2.4455 -0.2973
  235SOL    MW4 1059   3.845   1.569   1.122 -0.1130 -0.4300 -0.4822
  236SOL     OW 1060   2.816   0.466   0.217  0.5070  0.5962  0.1339
  236SOL    HW2 1061   2.800   0.548   0.264 -0.0588  0.2883  0.4877
  236SOL    HW3 1062   2.911   0.461   0.208  0.5818  0.9453  0.7344
  236SOL    MW4 1063   2.827   0.476   0.222  0.4423  0.6017  0.2598
  237SOL     OW 1064   1.981   4.494   0.452 -0.1946  0.2195 -0.4400
  237SOL    HW2 1065   2.028   4.562   0.403  1.4312  0.2711  1.1407
  237SOL    HW3 1066   2.015   4.500   0.541  0.3026 -2.9323 -0.3374
  237SOL    MW4 1067   1.992   4.503   0.457  0.0856 -0.1893 -0.2179
  238SOL     OW 1068   0.661   2.971   0.817 -0.1884 -0.1694 -0.2372
  238SOL    HW2 1069   0.622   2.896   0.772 -0.6956  0.0604 -0.1808
  238SOL    HW3 1070   0.613   3.047   0.784 -0.7110 -0.0160  0.8428
  238SOL    MW4 1071   0.650   2.971   0.807 -0.3242 -0.1190 -0.0872
  239SOL     OW 1072   3.044   1.794   0.258 -0.5314 -0.1934  0.0348
  239SOL    HW2 1073   3.030   1.813   0.351 -1.3126 -1.5502  0.2097
  239SOL    HW3 1074   3.013   1.704   0.247 -0.9959  0.1507 -1.6590
  239SOL    MW4 1075   3.038   1.784   0.269 -0.6957 -0.3270 -0.1656
  240SOL     OW 1076   3.808   1.411   0.451  0.4209  0.1481  0.0694
  240SOL    HW2 1077   3.810   1.379   0.541  1.6170  0.0051  0.0001
  240SOL    HW3 1078   3.838   1.337   0.398  0.0170  0.3283 -0.4214
  240SOL    MW4 1079   3.812   1.397   0.456  0.5255  0.1529 -0.0045
  241SOL     OW 1080   2.315   2.292   0.426 -0.0924  0.1424  0.2260
  241SOL    HW2 1081   2.316   2.198   0.446  2.0992  0.2921  0.9070
  241SOL    HW3 1082   2.255   2.299   0.352  0.3476 -1.9278 -0.3762
  241SOL    MW4 1083   2.307   2.280   0.419  0.2549 -0.1109  0.2364
  242SOL     OW 1084   3.197   0.815   0.521  0.4120  0.5685 -0.2660
  242SOL    HW2 1085   3.212   0.794   0.614  0.4402 -0.5279 -0.5027
  242SOL    HW3 1086   3.147   0.740   0.488 -2.0449  2.2423 -0.4856
  242SOL    MW4 1087   3.192   0.802   0.529  0.0918  0.6447 -0.3262
  243SOL     OW 1088   0.400   1.934   0.842  0.0001  0.1628  0.1709
  243SOL    HW2 1089   0.406   1.846   0.804  0.2474  1.0671 -1.9852
  243SOL    HW3 1090   0.318   1.969   0.806 -1.1092  0.1152  2.5874
  243SOL    MW4 1091   0.390   1.927   0.832 -0.1136  0.2757  0.2052
  244SOL     OW 1092   0.579   1.122   0.293 -0.3916  0.5430  0.1104
  244SOL    HW2 1093   0.530   1.121   0.211 -0.7278 -0.6607  0.3117
  244SOL    HW3 1094   0.659   1.073   0.274 -0.6158 -0.0124  0.5877
  244SOL    MW4 1095   0.583   1.116   0.280 -0.4656  0.3109  0.1999
  245SOL     OW 1096   1.318   0.359   0.797  0.4341  0.2042 -0.6394
  245SOL    HW2 1097   1.386   0.424   0.782  1.3203 -0.5318  0.1106
  245SOL    HW3 1098   1.308   0.355   0.892 -0.3194 -0.0398 -0.7202
  245SOL    MW4 1099   1.326   0.367   0.808  0.4517  0.0749 -0.5511
  246SOL     OW 1100   3.335   3.630   0.370 -0.2340  0.2410 -0.2065
  246SOL    HW2 1101   3.321   3.550   0.319 -0.3584 -0.3058  0.6822
  246SOL    HW3 1102   3.427   3.652   0.354 -0.1393 -0.2036 -0.2875
  246SOL    MW4 1103   3.346   3.622   0.361 -0.2379  0.1101 -0.0999
  247SOL     OW 1104   4.004   0.511   0.313 -0.6920 -0.6312 -0.2219
  247SOL    HW2 1105   3.919   0.504   0.357 -1.2731 -0.4627 -1.2927
  247SOL    HW3 1106   4.009   0.603   0.285  1.0684  0.0741  2.2324
  247SOL    MW4 1107   3.994   0.522   0.315 -0.5367 -0.5159 -0.0394
  248SOL     OW 1108   3.384   1.321   0.700 -0.0413 -0.7530 -0.1373
  248SOL    HW2 1109   3.441   1.293   0.628 -0.9776  0.4761 -1.3947
  248SOL    HW3 1110   3.305   1.269   0.689 -0.0743 -0.7678  0.1726
  248SOL    MW4 1111   3.381   1.311   0.689 -0.1690 -0.5926 -0.2623
  249SOL     OW 1112   0.729   3.691   0.463 -0.4886 -0.2869  0.5834
  249SOL    HW2 1113   0.673   3.762   0.431  1.2666 -0.1410 -2.3559
  249SOL    HW3 1114   0.678   3.612   0.447 -0.8261  0.0240  0.0830
  249SOL    MW4 1115   0.715   3.690   0.457 -0.3014 -0.2267  0.1296
  250SOL     OW 1116   2.622   0.353   0.387  0.6698  0.1910 -0.5372
  250SOL    HW2 1117   2.696   0.378   0.331 -0.5967 -0.8325 -2.7150
  250SOL    HW3 1118   2.567   0.298   0.332 -0.9763 -0.3141  1.5260
  250SOL    MW4 1119   2.625   0.349   0.373  0.2859 -0.0107 -0.5523
  251SOL     OW 1120   1.743   0.391   1.101 -0.2221 -1.0347  0.3434
  251SOL    HW2 1121   1.664   0.420   1.145  0.4042 -0.5007  1.1256
  251SOL    HW3 1122   1.735   0.427   1.012 -0.2715  0.0809  0.7869
  251SOL    MW4 1123   1.732   0.400   1.095 -0.1459 -0.8171  0.5051
  252SOL     OW 1124   2.795   4.339   0.391  0.3161 -0.1179  0.0155
  252SOL    HW2 1125   2.749   4.267   0.348  0.1049  0.6841 -1.1228
  252SOL    HW3 1126   2.739   4.415   0.378  0.1692  0.1174  1.8763
  252SOL    MW4 1127   2.782   4.340   0.384  0.2687  0.0191  0.1109
  253SOL     OW 1128   3.900   3.772   0.322  0.0434  0.4009  0.2423
  253SOL    HW2 1129   3.807   3.748   0.322 -0.0619  0.8146 -0.0541
  253SOL    HW3 1130   3.901   3.866   0.307  0.5089  0.4213  0.3816
  253SOL    MW4 1131   3.888   3.781   0.320  0.0908  0.4585  0.2216
  254SOL     OW 1132   3.914   2.759   0.584  0.6822  0.0525 -0.1498
  254SOL    HW2 1133   3.823   2.787   0.573  0.2594 -0.4141  1.8591
  254SOL    HW3 1134   3.908   2.664   0.594  1.3015  0.1163  0.8337
  254SOL    MW4 1135   3.901   2.750   0.584  0.7081 -0.0007  0.2450
  255SOL     OW 1136   2.297   1.445   0.259  0.2371  0.7950 -0.4318
  255SOL    HW2 1137   2.226   1.499   0.294 -1.0788 -0.6112 -0.8513
  255SOL    HW3 1138   2.288   1.454   0.164  1.0979  1.2053 -0.4735
  255SOL    MW4 1139   2.286   1.453   0.251  0.1769  0.6636 -0.4926
  256SOL     OW 1140   2.672   4.006   0.730 -0.5088  0.3319 -0.0318
  256SOL    HW2 1141   2.681   4.099   0.752 -0.2045  0.1631  0.5637
  256SOL    HW3 1142   2.753   3.966   0.761 -0.4878 -0.0738 -0.6137
  256SOL    MW4 1143   2.684   4.013   0.737 -0.4659  0.2565 -0.0300
  257SOL     OW 1144   2.128   2.304   0.235  0.1778  0.4388 -0.2922
  257SOL    HW2 1145   2.045   2.279   0.276 -0.1522  2.1035  0.1100
  257SOL    HW3 1146   2.139   2.396   0.258  2.7683 -0.0859  0.6670
  257SOL    MW4 1147   2.118   2.313   0.243  0.4759  0.5891 -0.1126
  258SOL     OW 1148   2.878   2.491   0.660 -0.2383 -0.0434  0.0353
  258SOL    HW2 1149   2.913   2.552   0.725 -0.1668 -2.0963  1.9598
  258SOL    HW3 1150   2.789   2.473   0.689 -0.3408 -0.6769 -0.6545
  258SOL    MW4 1151   2.871   2.497   0.672 -0.2422 -0.3982  0.1983
  259SOL     OW 1152   0.223   4.389   0.689 -0.0460 -0.0407 -0.7722
  259SOL    HW2 1153   0.295   4.329   0.710 -0.1825  0.0782  0.0714
  259SOL    HW3 1154   0.144   4.338   0.709 -0.1607  0.4472  0.0531
  259SOL    MW4 1155   0.222   4.374   0.694 -0.0791  0.0396 -0.5521
  260SOL     OW 1156   1.876   3.727   0.445  0.0982 -0.6309  0.1925
  260SOL    HW2 1157   1.834   3.649   0.410  0.1108  1.2790 -4.3601
  260SOL    HW3 1158   1.969   3.715   0.428  0.2909 -0.3865  1.0567
  260SOL    MW4 1159   1.882   3.715   0.438  0.1253 -0.3467 -0.2941
  261SOL     OW 1160   2.612   4.566   0.368  0.4114 -0.0288 -0.0013
  261SOL    HW2 1161   2.627   4.648   0.416 -1.7376  0.6259 -0.3695
  261SOL    HW3 1162   2.594   4.594   0.278 -0.0730 -0.9067 -0.1866
  261SOL    MW4 1163   2.611   4.581   0.362  0.0639 -0.0582 -0.0744
  262SOL     OW 1164   0.918   3.328   0.839 -0.2522  0.8758 -0.4366
  262SOL    HW2 1165   0.914   3.372   0.924  0.2315  0.3430 -0.1386
  262SOL    HW3 1166   0.991   3.370   0.794  0.3199  0.2640 -0.0852
  262SOL    MW4 1167   0.927   3.339   0.844 -0.1130  0.7250 -0.3510
  263SOL     OW 1168   2.801   1.481   0.406  0.1889  0.1344  0.0903
  263SOL    HW2 1169   2.731   1.420   0.385  0.1242  0.4721 -0.7273
  263SOL    HW3 1170   2.848   1.441   0.479 -1.1403  0.1315  0.9686
  263SOL    MW4 1171   2.798   1.468   0.413  0.0050  0.1787  0.0983
  264SOL     OW 1172   1.676   0.294   0.389 -0.0238 -0.3135  0.4003
  264SOL    HW2 1173   1.742   0.339   0.335 -1.6646 -1.4291 -2.6376
  264SOL    HW3 1174   1.710   0.205   0.399 -0.1712 -0.3666  0.4300
  264SOL    MW4 1175   1.689   0.288   0.383 -0.2598 -0.4677  0.0034
  265SOL     OW 1176   4.048   1.624   0.735 -0.2117  0.3616 -0.0891
  265SOL    HW2 1177   4.046   1.585   0.648 -1.3934  0.1669  0.0242
  265SOL    HW3 1178   4.133   1.598   0.770 -0.1891 -0.5051 -0.7568
  265SOL    MW4 1179   4.059   1.615   0.728 -0.3643  0.2214 -0.1622
  266SOL     OW 1180   2.536   3.497   0.488 -0.1554  0.0525 -0.4920
  266SOL    HW2 1181   2.576   3.571   0.534  1.4135 -0.5627 -0.8615
  266SOL    HW3 1182   2.497   3.445   0.558  0.5950  0.1069 -0.0257
  266SOL    MW4 1183   2.536   3.500   0.504  0.1507 -0.0217 -0.4792
  267SOL     OW 1184   2.952   3.450   0.301  0.0419 -0.0230 -0.2264
  267SOL    HW2 1185   2.876   3.392   0.297  0.1409 -0.0407 -3.6815
  267SOL    HW3 1186   3.018   3.399   0.347 -1.9685 -0.0127  2.8332
  267SOL    MW4 1187   2.950   3.435   0.307 -0.2103 -0.0238 -0.2786
  268SOL     OW 1188   1.703   2.428   0.813 -0.2488  0.8519 -0.3330
  268SOL    HW2 1189   1.692   2.367   0.886 -0.8330  0.1466 -1.0032
  268SOL    HW3 1190   1.635   2.403   0.750 -0.0218  1.7247 -0.9358
  268SOL    MW4 1191   1.692   2.416   0.814 -0.2959  0.8738 -0.5009
  269SOL     OW 1192   1.120   3.622   1.168 -0.3604 -0.2063  0.1584
  269SOL    HW2 1193   1.123   3.716   1.150  1.3655  0.0334  1.5370
  269SOL    HW3 1194   1.203   3.589   1.136 -0.2639 -0.9677  1.1849
  269SOL    MW4 1195   1.131   3.630   1.162 -0.1200 -0.2751  0.4756
  270SOL     OW 1196   1.879   2.935   0.162 -0.0159  0.0427  0.6995
  270SOL    HW2 1197   1.803   2.992   0.150  0.7587  0.5402 -2.0889
  270SOL    HW3 1198   1.846   2.847   0.146 -0.7271 -0.1118  2.8614
  270SOL    MW4 1199   1.865   2.931   0.159 -0.0075  0.0880  0.6168
  271SOL     OW 1200   4.282   3.294   0.843  0.0361 -0.0288 -0.5503
  271SOL    HW2 1201   4.359   3.274   0.789  0.4118 -0.3699  0.1039
  271SOL    HW3 1202   4.287   3.232   0.915 -0.3368  0.5737  0.0003
  271SOL    MW4 1203   4.293   3.283   0.845  0.0367  0.0060 -0.3914
  272SOL     OW 1204   0.007   3.224   0.685  0.4275  0.0183  0.2545
  272SOL    HW2 1205   0.088   3.180   0.710  0.2157  0.2001  1.2991
  272SOL    HW3 1206  -0.038   3.162   0.629  0.7612 -0.5372  0.5994
  272SOL    MW4 1207   0.012   3.210   0.681  0.4436 -0.0310  0.4379
  273SOL     OW 1208   3.766   3.875   1.066 -0.1687  0.0308 -0.2566
  273SOL    HW2 1209   3.775   3.785   1.098 -0.7354  0.2107  0.4084
  273SOL    HW3 1210   3.842   3.920   1.101 -0.2411 -0.0237 -0.0306
  273SOL    MW4 1211   3.777   3.869   1.075 -0.2532  0.0472 -0.1390
  274SOL     OW 1212   1.398   4.244   0.811 -0.1338 -0.3525 -0.1373
  274SOL    HW2 1213   1.492   4.223   0.810  0.0961  0.6389  0.3726
  274SOL    HW3 1214   1.382   4.279   0.898 -1.6049 -3.2617  0.8246
  274SOL    MW4 1215   1.409   4.246   0.822 -0.2977 -0.6051  0.0569
  275SOL     OW 1216   0.880   2.279   0.534 -0.3263  0.0166 -0.2526
  275SOL    HW2 1217   0.830   2.340   0.588 -1.3845 -2.3114  1.5460
  275SOL    HW3 1218   0.960   2.262   0.584 -0.4829 -0.7688 -0.2480
  275SOL    MW4 1219   0.884   2.285   0.548 -0.4866 -0.3941 -0.0147
  276SOL     OW 1220   0.666   0.463   1.232  0.0308  0.4326 -0.0001
  276SOL    HW2 1221   0.653   0.549   1.193 -0.0339  0.2823 -0.3135
  276SOL    HW3 1222   0.605   0.406   1.185 -1.2674  0.5778  1.4646
  276SOL    MW4 1223   0.656   0.467   1.221 -0.1490  0.4319  0.1519
  277SOL     OW 1224   1.931   2.372   0.617 -0.2317 -0.2081  0.5054
  277SOL    HW2 1225   1.857   2.402   0.669 -0.0386 -1.5651  1.6120
  277SOL    HW3 1226   2.008   2.406   0.662 -0.1764  2.1028 -1.2379
  277SOL    MW4 1227   1.931   2.380   0.629 -0.1990 -0.0825  0.4214
  278SOL     OW 1228   0.734   2.491   0.682 -0.0278 -0.4496 -0.0556
  278SOL    HW2 1229   0.785   2.559   0.725 -0.5113 -0.1789  0.1004
  278SOL    HW3 1230   0.721   2.424   0.749 -0.4094 -0.2277  0.0977
  278SOL    MW4 1231   0.739   2.491   0.696 -0.1419 -0.3846 -0.0148
  279SOL     OW 1232   3.135   3.312   0.456  0.1327 -0.2926 -0.1630
  279SOL    HW2 1233   3.108   3.360   0.535  0.5166  0.9161 -0.7566
  279SOL    HW3 1234   3.155   3.224   0.487 -0.1421  0.0521  1.0198
  279SOL    MW4 1235   3.134   3.307   0.471  0.1471 -0.0877 -0.0853
  280SOL     OW 1236   1.290   1.201   1.116  0.3899 -0.5465  0.0014
  280SOL    HW2 1237   1.308   1.108   1.130 -0.4319 -1.0297 -2.0603
  280SOL    HW3 1238   1.295   1.212   1.022  0.4514  1.5157  0.2338
  280SOL    MW4 1239   1.293   1.190   1.106  0.2896 -0.3382 -0.2401
  281SOL     OW 1240   0.427   0.883   1.231 -0.0009 -0.5934 -0.2581
  281SOL    HW2 1241   0.494   0.822   1.201 -0.0185 -1.6610  1.8415
  281SOL    HW3 1242   0.421   0.869   1.325 -0.0593  2.6030  0.2875
  281SOL    MW4 1243   0.435   0.873   1.239 -0.0109 -0.3126  0.0907
  282SOL     OW 1244   4.466   3.479   1.042 -0.3574  0.3620  0.6146
  282SOL    HW2 1245   4.405   3.458   0.971 -1.3612  1.0073  1.2702
  282SOL    HW3 1246   4.466   3.401   1.098  2.8804 -1.4187 -1.7558
  282SOL    MW4 1247   4.458   3.466   1.040 -0.0629  0.2120  0.3885
  283SOL     OW 1248   1.087   2.370   0.815 -0.3118  0.1855  0.4398
  283SOL    HW2 1249   1.030   2.441   0.844 -0.4764  0.3864 -0.3788
  283SOL    HW3 1250   1.128   2.338   0.896 -0.1364  1.2908  0.7956
  283SOL    MW4 1251   1.085   2.375   0.829 -0.3104  0.3576  0.3787
  284SOL     OW 1252   3.803   3.870   0.777 -0.0225 -0.1131 -0.3932
  284SOL    HW2 1253   3.886   3.911   0.753 -0.1622  0.0622 -0.5769
  284SOL    HW3 1254   3.804   3.869   0.873  0.0776  0.1275 -0.3898
  284SOL    MW4 1255   3.814   3.875   0.787 -0.0279 -0.0582 -0.4170
  285SOL     OW 1256   1.099   1.527   1.107 -0.2895  0.1292  0.1072
  285SOL    HW2 1257   1.085   1.447   1.157 -0.8056  0.5449  0.6419
  285SOL    HW3 1258   1.032   1.587   1.140 -0.0616  0.6985 -0.4613
  285SOL    MW4 1259   1.088   1.524   1.118 -0.3275  0.2592  0.1026
  286SOL     OW 1260   2.907   1.219   1.145 -0.0326  0.2251  0.2546
  286SOL    HW2 1261   2.902   1.310   1.117 -0.1158  0.0806 -0.2082
  286SOL    HW3 1262   2.899   1.222   1.240  1.0763  0.7860  0.3297
  286SOL    MW4 1263   2.905   1.231   1.154  0.1030  0.2799  0.2035
  287SOL     OW 1264   2.714   1.713   0.739  0.0366  0.1982 -0.2106
  287SOL    HW2 1265   2.794   1.686   0.784  0.0465 -1.2621 -1.0686
  287SOL    HW3 1266   2.690   1.796   0.780  1.8033  0.4800  0.2847
  287SOL    MW4 1267   2.721   1.720   0.750  0.2708  0.0428 -0.2584
  288SOL     OW 1268   3.176   1.711   0.699  0.0443 -0.1015 -0.1376
  288SOL    HW2 1269   3.201   1.798   0.731  0.3941 -0.1413 -0.2923
  288SOL    HW3 1270   3.239   1.693   0.629 -0.8628  0.1016 -1.0193
  288SOL    MW4 1271   3.188   1.720   0.694 -0.0291 -0.0800 -0.2743
  289SOL     OW 1272   0.217   0.747   0.790 -0.4986 -0.4314 -0.3267
  289SOL    HW2 1273   0.225   0.766   0.883  1.2075 -0.4028 -0.4642
  289SOL    HW3 1274   0.135   0.789   0.764  0.2190  1.6452  0.6579
  289SOL    MW4 1275   0.208   0.755   0.799 -0.1789 -0.1536 -0.2149
  290SOL     OW 1276   1.589   3.946   0.758  0.2597  0.0952 -0.0477
  290SOL    HW2 1277   1.665   3.889   0.753  0.0551 -0.2256  0.4266
  290SOL    HW3 1278   1.625   4.034   0.765  0.5768  0.2307 -2.7644
  290SOL    MW4 1279   1.604   3.950   0.758  0.2744  0.0710 -0.3436
  291SOL     OW 1280   4.337   0.832   0.300 -0.0929 -0.1064  0.3608
  291SOL    HW2 1281   4.429   0.853   0.312  0.5062 -1.1476 -2.2424
  291SOL    HW3 1282   4.328   0.743   0.333 -0.4064  0.3402  1.5232
  291SOL    MW4 1283   4.348   0.823   0.306 -0.0558 -0.1848  0.1707
  292SOL     OW 1284   3.759   0.004   0.795  0.1698 -0.3241  0.2257
  292SOL    HW2 1285   3.690   0.054   0.750  1.1696  0.4556 -0.4804
  292SOL    HW3 1286   3.841   0.042   0.762  0.9314 -0.5948  1.7812
  292SOL    MW4 1287   3.761   0.016   0.785  0.4025 -0.2570  0.3378
  293SOL     OW 1288   2.016   2.081   1.152 -0.5148 -0.0987  0.4641
  293SOL    HW2 1289   1.940   2.039   1.111 -2.2882  1.9146  1.5458
  293SOL    HW3 1290   2.005   2.065   1.246  0.4732  0.0758  0.6149
  293SOL    MW4 1291   2.004   2.074   1.159 -0.6182  0.1903  0.6266
  294SOL     OW 1292   1.083   2.920   0.270  0.1845 -0.5157 -0.4042
  294SOL    HW2 1293   1.025   2.899   0.344  0.3769 -0.5556 -0.2665
  294SOL    HW3 1294   1.149   2.851   0.272  1.2031  0.4768  0.4423
  294SOL    MW4 1295   1.084   2.908   0.280  0.3443 -0.3901 -0.2743
  295SOL     OW 1296   2.692   0.143   0.793  0.1719 -0.2478  0.0523
  295SOL    HW2 1297   2.620   0.087   0.820  1.2086 -0.8231  1.7091
  295SOL    HW3 1298   2.771   0.097   0.822  1.1465  0.9855 -0.5626
  295SOL    MW4 1299   2.693   0.130   0.801  0.4375 -0.1610  0.1898
  296SOL     OW 1300   0.672   3.814   1.088 -0.0292 -0.1722  0.0946
  296SOL    HW2 1301   0.687   3.852   1.001  3.0763  1.7014  1.3473
  296SOL    HW3 1302   0.595   3.858   1.121  0.1491  0.8217 -0.7956
  296SOL    MW4 1303   0.664   3.825   1.081  0.4041  0.2060  0.1423
  297SOL     OW 1304   1.121   3.903   1.127 -0.5716  0.0954 -0.1851
  297SOL    HW2 1305   1.032   3.927   1.152 -1.0061  0.1348 -1.7041
  297SOL    HW3 1306   1.122   3.911   1.031  1.1107  0.2668 -0.1690
  297SOL    MW4 1307   1.110   3.907   1.117 -0.4070  0.1235 -0.3834
  298SOL     OW 1308   0.518   3.192   0.744  0.6514 -0.1522  0.1959
  298SOL    HW2 1309   0.507   3.287   0.734 -0.9559 -0.6028 -3.0690
  298SOL    HW3 1310   0.429   3.160   0.760  0.7156 -1.3916 -1.7784
  298SOL    MW4 1311   0.505   3.201   0.745  0.4478 -0.3753 -0.4953
  299SOL     OW 1312   1.317   0.937   1.155 -0.0420 -0.4579  0.2099
  299SOL    HW2 1313   1.242   0.878   1.156 -1.0009  0.7436  0.0452
  299SOL    HW3 1314   1.338   0.950   1.248 -0.7006  0.0157  0.3001
  299SOL    MW4 1315   1.310   0.931   1.167 -0.2553 -0.2368  0.1999
  300SOL     OW 1316   1.527   3.099   0.795  0.3586  0.0023  0.0895
  300SOL    HW2 1317   1.615   3.082   0.760  0.1526  0.5143 -0.6904
  300SOL    HW3 1318   1.541   3.113   0.889  1.5141  2.9398 -0.4735
  300SOL    MW4 1319   1.540   3.098   0.803  0.4840  0.4573 -0.0876
  301SOL     OW 1320   1.282   1.945   0.791  0.2821 -0.0659 -0.3229
  301SOL    HW2 1321   1.359   1.976   0.744 -0.0672  1.4582  0.1000
  301SOL    HW3 1322   1.308   1.946   0.883  0.0025 -0.2598 -0.2410
  301SOL    MW4 1323   1.296   1.949   0.797  0.1991  0.1097 -0.2562
  302SOL     OW 1324   0.847   0.711   0.457 -0.2862  0.2428 -0.0980
  302SOL    HW2 1325   0.765   0.663   0.451  0.3968 -1.0459  0.8850
  302SOL    HW3 1326   0.831   0.778   0.524 -0.8218  0.5911 -0.5670
  302SOL    MW4 1327   0.834   0.714   0.465 -0.2667  0.1187 -0.0302
  303SOL     OW 1328   3.582   4.010   0.682 -0.0612  0.5564 -0.2943
  303SOL    HW2 1329   3.582   4.088   0.737 -0.0049  1.4885 -1.5928
  303SOL    HW3 1330   3.660   3.962   0.709 -0.7892  0.3162  1.3907
  303SOL    MW4 1331   3.593   4.014   0.693 -0.1495  0.6480 -0.2432
  304SOL     OW 1332   1.184   4.099   0.687  0.5869 -0.0330  0.2062
  304SOL    HW2 1333   1.238   4.145   0.751 -1.3930  1.4792  0.8621
  304SOL    HW3 1334   1.189   4.007   0.712 -0.1889  0.5500  2.5930
  304SOL    MW4 1335   1.192   4.093   0.699  0.2234  0.2427  0.6077
  305SOL     OW 1336   2.339   0.971   0.225  0.2131  0.0603 -0.2126
  305SOL    HW2 1337   2.407   1.013   0.277  0.6202 -0.5860 -0.2217
  305SOL    HW3 1338   2.386   0.919   0.160 -0.2530 -2.0072  1.0609
  305SOL    MW4 1339   2.354   0.970   0.223  0.2053 -0.2977 -0.0458
  306SOL     OW 1340   2.697   1.185   0.780  0.2878  0.2631 -0.5467
  306SOL    HW2 1341   2.626   1.221   0.726  0.2399 -0.5515 -1.0417
  306SOL    HW3 1342   2.710   1.096   0.746 -0.1820 -0.4967  1.2313
  306SOL    MW4 1343   2.689   1.178   0.768  0.2193  0.0556 -0.3774
  307SOL     OW 1344   1.302   4.415   0.633  0.2964  0.3326 -0.2848
  307SOL    HW2 1345   1.337   4.344   0.687  1.2247  0.6785 -0.4223
  307SOL    HW3 1346   1.245   4.371   0.570 -1.7551  0.0286  1.6976
  307SOL    MW4 1347   1.299   4.400   0.632  0.1483  0.3386 -0.0414
  308SOL     OW 1348   0.427   2.446   0.762 -0.0628  0.0712  0.1318
  308SOL    HW2 1349   0.337   2.424   0.784 -0.3963 -0.2091 -1.4350
  308SOL    HW3 1350   0.478   2.370   0.791 -0.8104 -1.4255 -2.2878
  308SOL    MW4 1351   0.422   2.433   0.769 -0.2054 -0.1633 -0.3942
  309SOL     OW 1352   2.475   4.648   0.820  0.7514  0.3526  0.1051
  309SOL    HW2 1353   2.402   4.683   0.770 -0.4161 -1.0832  0.7762
  309SOL    HW3 1354   2.483   4.557   0.791  1.5110  0.1583  0.9004
  309SOL    MW4 1355   2.466   4.641   0.810  0.6976  0.1378  0.2986
  310SOL     OW 1356   0.657   1.997   0.756 -0.1590 -0.0895 -0.6361
  310SOL    HW2 1357   0.570   1.974   0.787 -0.0098 -1.1772 -0.9947
  310SOL    HW3 1358   0.658   1.968   0.665  0.5967 -0.1362 -0.6130
  310SOL    MW4 1359   0.646   1.990   0.748 -0.0396 -0.2390 -0.6804
  311SOL     OW 1360   1.535   3.387   0.715 -0.6478  0.0230  0.3031
  311SOL    HW2 1361   1.518   3.299   0.749  0.8726 -0.5734 -0.4163
  311SOL    HW3 1362   1.621   3.409   0.749 -0.5899  0.8164 -0.3464
  311SOL    MW4 1363   1.544   3.378   0.724 -0.4396  0.0491  0.1225
  312SOL     OW 1364   1.575   4.663   0.821  0.3019  0.1261 -0.3494
  312SOL    HW2 1365   1.499   4.694   0.772  0.5997 -1.6114 -1.9737
  312SOL    HW3 1366   1.550   4.672   0.913 -1.9535 -0.5968 -0.8701
  312SOL    MW4 1367   1.562   4.668   0.826  0.0435 -0.1985 -0.6323
  313SOL     OW 1368   1.513   1.602   0.765  0.0289 -0.1957  0.3510
  313SOL    HW2 1369   1.592   1.612   0.712  0.0708 -1.3764  0.1733
  313SOL    HW3 1370   1.545   1.586   0.854  0.0031 -1.5265  0.1229
  313SOL    MW4 1371   1.527   1.601   0.770  0.0311 -0.5271  0.2974
  314SOL     OW 1372   2.130   2.995   0.066  0.3139  0.1092 -0.0465
  314SOL    HW2 1373   2.038   2.970   0.071  0.4750 -0.4564  0.1480
  314SOL    HW3 1374   2.136   3.074   0.120  0.2124 -0.6542  1.1111
  314SOL    MW4 1375   2.119   3.002   0.074  0.3216 -0.0660  0.1320
  315SOL     OW 1376   4.330   3.071   0.525 -0.0930  0.0197 -0.3759
  315SOL    HW2 1377   4.300   3.139   0.464 -1.9309  0.3192  0.8230
  315SOL    HW3 1378   4.304   2.988   0.483 -2.3821  0.2687  0.5188
  315SOL    MW4 1379   4.323   3.069   0.511 -0.6375  0.0918 -0.0997
  316SOL     OW 1380   2.666   4.277   1.052  0.1216 -0.1115  0.1759
  316SOL    HW2 1381   2.590   4.314   1.097 -0.9036 -1.3210 -0.5225
  316SOL    HW3 1382   2.671   4.187   1.084  1.1669 -0.0820  0.0945
  316SOL    MW4 1383   2.656   4.270   1.062  0.1242 -0.2666  0.0731
  317SOL     OW 1384   2.930   3.376   0.669 -0.0408 -0.2824  0.5616
  317SOL    HW2 1385   2.961   3.466   0.679  0.5114 -0.1945 -1.5170
  317SOL    HW3 1386   2.986   3.324   0.727  0.1632  0.6252  1.1752
  317SOL    MW4 1387   2.942   3.381   0.678  0.0589 -0.1509  0.3683
  318SOL     OW 1388   1.834   1.498   0.437 -0.1648 -0.1504 -0.6059
  318SOL    HW2 1389   1.758   1.476   0.383 -0.9288  0.1454  0.3222
  318SOL    HW3 1390   1.887   1.419   0.438 -0.6813 -0.5020 -0.9137
  318SOL    MW4 1391   1.831   1.485   0.430 -0.3337 -0.1578 -0.5240
  319SOL     OW 1392   0.230   1.540   0.819 -0.4738 -0.2114  0.4169
  319SOL    HW2 1393   0.224   1.517   0.912 -1.2831 -0.9510  0.1895
  319SOL    HW3 1394   0.187   1.467   0.774 -2.2966  1.3181 -0.3919
  319SOL    MW4 1395   0.223   1.527   0.825 -0.8211 -0.1070  0.2801
  320SOL     OW 1396   4.042   0.387   0.765 -0.2542  0.3008  0.0222
  320SOL    HW2 1397   4.121   0.439   0.748 -0.2390  0.2858  0.0485
  320SOL    HW3 1398   4.043   0.373   0.860 -0.0393 -0.1027 -0.0408
  320SOL    MW4 1399   4.053   0.392   0.775 -0.2241  0.2456  0.0173
  321SOL     OW 1400   3.923   0.912   0.425 -0.1384 -0.1076 -0.1134
  321SOL    HW2 1401   3.969   0.884   0.504 -1.0650  0.6422  0.7004
  321SOL    HW3 1402   3.960   0.857   0.356 -0.3270 -1.7770  1.0725
  321SOL    MW4 1403   3.934   0.901   0.426 -0.2856 -0.2289  0.1505
  322SOL     OW 1404   3.575   0.073   1.200  0.1222  0.0443  0.3298
  322SOL    HW2 1405   3.654   0.046   1.152 -0.9730  0.4667 -1.7899
  322SOL    HW3 1406   3.548   0.154   1.157 -1.7712 -0.3770  0.6841
  322SOL    MW4 1407   3.582   0.080   1.188 -0.2723  0.0445  0.0969
  323SOL     OW 1408   4.348   4.298   0.401 -0.1159 -0.1373 -0.2552
  323SOL    HW2 1409   4.308   4.320   0.485  0.0507  1.7194 -0.6407
  323SOL    HW3 1410   4.369   4.383   0.361  1.3927 -1.0274 -1.4119
  323SOL    MW4 1411   4.346   4.312   0.406  0.1054 -0.0095 -0.4586
  324SOL     OW 1412   3.153   4.008   0.670 -0.0032  0.0034 -0.2522
  324SOL    HW2 1413   3.214   3.953   0.719  0.6368  0.2733 -0.7328
  324SOL    HW3 1414   3.196   4.021   0.585  0.0912  1.6480  0.0255
  324SOL    MW4 1415   3.167   4.002   0.665  0.0939  0.2561 -0.2789
  325SOL     OW 1416   1.476   0.805   0.401 -0.0875  0.0477  0.0341
  325SOL    HW2 1417   1.555   0.858   0.402 -0.4663  0.6769 -1.2917
  325SOL    HW3 1418   1.507   0.715   0.407  0.7724  0.2680 -0.8839
  325SOL    MW4 1419   1.490   0.800   0.402 -0.0242  0.1598 -0.2620
  326SOL     OW 1420   1.010   2.026   0.803 -0.1711  0.4988 -0.3861
  326SOL    HW2 1421   1.098   1.987   0.802 -0.6374 -0.5573 -0.8720
  326SOL    HW3 1422   0.984   2.022   0.895 -1.0565 -2.3266 -0.6999
  326SOL    MW4 1423   1.019   2.020   0.815 -0.3495 -0.0134 -0.4917
  327SOL     OW 1424   2.789   2.174   0.391  0.0165  0.0565  0.3816
  327SOL    HW2 1425   2.805   2.144   0.480  1.4187  0.7582  0.3748
  327SOL    HW3 1426   2.731   2.250   0.401 -0.2274 -0.1632  0.6508
  327SOL    MW4 1427   2.783   2.180   0.404  0.1695  0.1199  0.4163
  328SOL     OW 1428   1.855   3.074   0.424 -0.4464  0.6917  0.0081
  328SOL    HW2 1429   1.771   3.111   0.397 -0.5181  0.5328  0.0102
  328SOL    HW3 1430   1.882   3.020   0.350 -0.5916  0.3400  0.2095
  328SOL    MW4 1431   1.848   3.072   0.411 -0.4752  0.6244  0.0350
  329SOL     OW 1432   1.023   3.636   0.457  0.4767 -0.4740 -0.1808
  329SOL    HW2 1433   1.036   3.594   0.542  1.2417  0.9789  0.4350
  329SOL    HW3 1434   0.929   3.630   0.441  0.1098  0.6101  1.4881
  329SOL    MW4 1435   1.012   3.629   0.466  0.5292 -0.1392  0.1206
  330SOL     OW 1436   3.102   1.054   0.439 -0.0731 -0.0868 -0.1809
  330SOL    HW2 1437   3.129   0.964   0.455 -0.6583 -0.3384 -0.5640
  330SOL    HW3 1438   3.170   1.090   0.383  0.5522 -0.0537  0.5917
  330SOL    MW4 1439   3.114   1.047   0.434 -0.0679 -0.1155 -0.1295
  331SOL     OW 1440   4.458   1.978   0.794  0.1332 -0.0097 -0.2719
  331SOL    HW2 1441   4.464   1.886   0.768 -1.1594 -0.3973  0.7216
  331SOL    HW3 1442   4.383   2.012   0.744  1.4182  0.8606 -1.6303
  331SOL    MW4 1443   4.449   1.970   0.784  0.1326  0.0540 -0.3200
  332SOL     OW 1444   1.758   0.398   0.820  0.2530  0.5015 -0.2184
  332SOL    HW2 1445   1.680   0.436   0.780 -0.6926  0.3444  1.4093
  332SOL    HW3 1446   1.753   0.305   0.801 -0.9850  0.1910  1.4671
  332SOL    MW4 1447   1.747   0.391   0.813 -0.0352  0.4398  0.2187
  333SOL     OW 1448   1.154   1.319   0.445 -0.2078 -0.1290  0.7055
  333SOL    HW2 1449   1.136   1.225   0.434  0.0937  0.0095 -1.2125
  333SOL    HW3 1450   1.072   1.362   0.424  0.0253  0.0857  0.2078
  333SOL    MW4 1451   1.141   1.312   0.440 -0.1372 -0.0821  0.3868
  334SOL     OW 1452   2.025   1.313   0.687  0.1983  0.3080 -0.2326
  334SOL    HW2 1453   1.944   1.280   0.726 -0.3486  1.5074 -0.3093
  334SOL    HW3 1454   2.018   1.293   0.594  0.1435  0.1184 -0.1875
  334SOL    MW4 1455   2.014   1.306   0.680  0.1192  0.4412 -0.2367
  335SOL     OW 1456   1.032   2.845   0.725  0.2391  0.1263 -0.3076
  335SOL    HW2 1457   1.001   2.912   0.786  0.6659  0.6284 -0.6492
  335SOL    HW3 1458   1.128   2.849   0.731  0.2692 -0.6147 -0.1484
  335SOL    MW4 1459   1.041   2.854   0.734  0.2993  0.0949 -0.3316
  336SOL     OW 1460   0.478   0.358   1.046  0.4082 -0.2209  0.0949
  336SOL    HW2 1461   0.481   0.337   0.952  1.9843 -0.7824  0.2435
  336SOL    HW3 1462   0.449   0.277   1.087  0.8390 -0.3398  0.1744
  336SOL    MW4 1463   0.475   0.344   1.039  0.6730 -0.3107  0.1249
  337SOL     OW 1464   1.719   1.893   0.805 -0.2821 -0.1494  0.5305
  337SOL    HW2 1465   1.731   1.811   0.757  1.5650  0.8484 -0.7928
  337SOL    HW3 1466   1.653   1.941   0.756  0.0847 -0.0045  0.1816
  337SOL    MW4 1467   1.712   1.888   0.792  0.0099  0.0014  0.3099
  338SOL     OW 1468   2.254   2.743   1.074 -0.0070  0.0508 -0.4170
  338SOL    HW2 1469   2.239   2.734   0.980 -0.2030 -0.0829 -0.3732
  338SOL    HW3 1470   2.282   2.656   1.103  0.1303  0.1114 -0.3676
  338SOL    MW4 1471   2.255   2.730   1.066 -0.0150  0.0410 -0.4046
  339SOL     OW 1472   4.424   0.106   0.744  0.5509  0.0597 -0.0072
  339SOL    HW2 1473   4.514   0.074   0.744  0.0130 -1.6094 -2.3741
  339SOL    HW3 1474   4.409   0.134   0.653 -2.2994 -2.6946 -0.4867
  339SOL    MW4 1475   4.434   0.106   0.732  0.1044 -0.5239 -0.3828
  340SOL     OW 1476   3.163   0.368   0.809 -0.4891 -0.1212 -0.0392
  340SOL    HW2 1477   3.146   0.352   0.901 -0.1162 -0.6860 -0.0699
  340SOL    HW3 1478   3.097   0.433   0.784  0.0156  0.7439  0.8570
  340SOL    MW4 1479   3.152   0.375   0.818 -0.3734 -0.0816  0.0750
  341SOL     OW 1480   0.844   4.539   0.501  0.2853  0.3312 -0.0810
  341SOL    HW2 1481   0.867   4.597   0.428 -1.8136  0.2146 -0.8624
  341SOL    HW3 1482   0.824   4.600   0.573  1.6636  0.4625  0.2046
  341SOL    MW4 1483   0.844   4.555   0.501  0.1901  0.3338 -0.1464
  342SOL     OW 1484   2.851   2.082   0.640 -0.4582 -0.1924  0.5527
  342SOL    HW2 1485   2.914   2.010   0.641 -1.2950 -0.9635 -1.2247
  342SOL    HW3 1486   2.885   2.144   0.705  0.6734 -1.8327  1.5594
  342SOL    MW4 1487   2.864   2.081   0.649 -0.4194 -0.5107  0.4510
  343SOL     OW 1488   3.219   2.151   0.757 -0.2555  0.2673 -0.1459
  343SOL    HW2 1489   3.245   2.128   0.668  0.7521 -2.4368  0.7856
  343SOL    HW3 1490   3.140   2.203   0.746 -0.7253 -0.8735 -2.6037
  343SOL    MW4 1491   3.212   2.155   0.744 -0.1845 -0.2403 -0.3473
  344SOL     OW 1492   4.063   1.796   0.348 -0.1748 -0.2731 -0.0390
  344SOL    HW2 1493   4.094   1.886   0.357 -0.0414 -0.3260  0.0265
  344SOL    HW3 1494   3.969   1.805   0.329  0.0273 -0.0883 -0.9688
  344SOL    MW4 1495   4.054   1.809   0.347 -0.1307 -0.2558 -0.1531
  345SOL     OW 1496   2.511   4.642   0.100 -0.0716 -0.2634  0.0138
  345SOL    HW2 1497   2.432   4.588   0.098 -0.5593  0.4225  0.5773
  345SOL    HW3 1498   2.530   4.659   0.007 -1.3572  0.6651 -0.1024
  345SOL    MW4 1499   2.503   4.637   0.087 -0.3054 -0.0505  0.0728
  346SOL     OW 1500   0.116   4.599   0.292 -0.4131 -0.3695  0.2230
  346SOL    HW2 1501   0.028   4.573   0.320 -0.5792 -0.2181 -0.1538
  346SOL    HW3 1502   0.173   4.529   0.323 -0.7355 -0.7266  0.0085
  346SOL    MW4 1503   0.112   4.587   0.300 -0.4775 -0.3967  0.1450
  347SOL     OW 1504   2.229   1.628   0.659 -0.0788 -0.0637 -0.4472
  347SOL    HW2 1505   2.206   1.608   0.569 -0.8547 -1.0704 -0.0370
  347SOL    HW3 1506   2.162   1.583   0.712 -0.4885  1.6825  0.5818
  347SOL    MW4 1507   2.217   1.620   0.654 -0.2348  0.0339 -0.2574
  348SOL     OW 1508   4.167   3.827   0.779  0.2639 -0.2376 -0.0284
  348SOL    HW2 1509   4.118   3.745   0.771  0.3114 -0.0913 -2.1619
  348SOL    HW3 1510   4.235   3.821   0.712  0.6461  1.2880  0.2115
  348SOL    MW4 1511   4.169   3.815   0.769  0.3204 -0.0167 -0.2783
  349SOL     OW 1512   0.636   2.258   0.812 -0.8804 -0.0927 -0.0077
  349SOL    HW2 1513   0.663   2.169   0.788 -0.6748  0.1042 -0.5135
  349SOL    HW3 1514   0.673   2.272   0.900  2.5561  0.9525 -1.5333
  349SOL    MW4 1515   0.644   2.248   0.821 -0.3999  0.0710 -0.2757
  350SOL     OW 1516   3.354   4.656   0.797 -0.2769  0.1813 -0.0484
  350SOL    HW2 1517   3.272   4.697   0.770  0.2904  1.1973 -0.2782
  350SOL    HW3 1518   3.355   4.665   0.892  0.5489  2.1305 -0.2027
  350SOL    MW4 1519   3.344   4.663   0.806 -0.0930  0.5722 -0.0991
  351SOL     OW 1520   2.079   2.889   0.459  0.4868 -0.0496  0.5153
  351SOL    HW2 1521   2.055   2.980   0.476  1.7749  0.3744  0.1084
  351SOL    HW3 1522   2.019   2.838   0.515 -0.8377  0.9921  0.0845
  351SOL    MW4 1523   2.068   2.894   0.469  0.4823  0.1440  0.4048
  352SOL     OW 1524   0.415   1.141   1.129  0.3600 -0.3514 -0.1552
  352SOL    HW2 1525   0.371   1.123   1.046  0.2105 -0.6511 -0.0136
  352SOL    HW3 1526   0.430   1.054   1.167  1.4913 -0.2826 -0.4183
  352SOL    MW4 1527   0.411   1.127   1.123  0.4896 -0.3819 -0.1712
  353SOL     OW 1528   0.855   4.353   0.309 -0.0620  0.2624  0.3355
  353SOL    HW2 1529   0.801   4.398   0.244 -1.5471  0.0255  1.3608
  353SOL    HW3 1530   0.854   4.412   0.385  1.5168  0.4654  0.2111
  353SOL    MW4 1531   0.848   4.367   0.310 -0.0496  0.2575  0.4544
  354SOL     OW 1532   2.184   1.886   0.785  0.2092 -0.0783 -0.2270
  354SOL    HW2 1533   2.186   1.811   0.725 -0.5300 -0.7773  0.6151
  354SOL    HW3 1534   2.113   1.941   0.753 -0.0561 -0.3509 -0.0981
  354SOL    MW4 1535   2.175   1.883   0.773  0.0768 -0.2065 -0.0988
  355SOL     OW 1536   2.104   1.582   0.403 -0.2209  0.3302 -0.2469
  355SOL    HW2 1537   2.105   1.676   0.385  0.7224  0.8461  2.2544
  355SOL    HW3 1538   2.012   1.562   0.419 -0.1221  1.4714  2.0458
  355SOL    MW4 1539   2.092   1.592   0.403 -0.0832  0.5488  0.3856
  356SOL     OW 1540   4.427   2.508   0.672  0.5930  0.9272 -0.4731
  356SOL    HW2 1541   4.445   2.589   0.720  2.8830  0.4320 -0.4160
  356SOL    HW3 1542   4.499   2.450   0.696 -0.0902 -0.5285 -1.8504
  356SOL    MW4 1543   4.439   2.511   0.681  0.8049  0.6697 -0.6472
  357SOL     OW 1544   1.535   4.511   0.472  0.2587 -0.2780  0.0903
  357SOL    HW2 1545   1.463   4.522   0.534 -0.9147 -0.8133 -1.1610
  357SOL    HW3 1546   1.561   4.420   0.481  0.1478 -0.3326 -0.1546
  357SOL    MW4 1547   1.529   4.501   0.481  0.0893 -0.3557 -0.1071
  358SOL     OW 1548   1.105   4.487   0.828 -0.1570 -0.0006  0.0272
  358SOL    HW2 1549   1.049   4.410   0.838  0.5392 -0.7734 -1.8300
  358SOL    HW3 1550   1.169   4.462   0.761  1.8989  1.1427  1.4826
  358SOL    MW4 1551   1.106   4.473   0.821  0.2062  0.0486 -0.0257
  359SOL     OW 1552   2.229   1.909   1.073 -0.6215 -0.0115 -0.1392
  359SOL    HW2 1553   2.149   1.959   1.089 -0.5969  0.6185 -1.9186
  359SOL    HW3 1554   2.226   1.887   0.980  0.1777 -1.9386  0.2732
  359SOL    MW4 1555   2.218   1.913   1.063 -0.5128 -0.1826 -0.3196
  360SOL     OW 1556   2.191   0.910   0.702  0.0266 -0.5387 -0.4580
  360SOL    HW2 1557   2.168   0.906   0.610 -0.8219 -1.4175 -0.2168
  360SOL    HW3 1558   2.117   0.870   0.748 -0.5422  1.8326  0.7858
  360SOL    MW4 1559   2.178   0.904   0.696 -0.1605 -0.3418 -0.2621
  361SOL     OW 1560   4.132   3.645   0.306 -0.5734  0.3188  0.2745
  361SOL    HW2 1561   4.199   3.710   0.287 -0.2019 -0.4955 -1.2617
  361SOL    HW3 1562   4.050   3.694   0.306 -0.0640  1.2114  1.5963
  361SOL    MW4 1563   4.130   3.660   0.304 -0.4568  0.3293  0.2462
  362SOL     OW 1564   1.606   2.683   0.571  0.0360 -0.3282  0.1129
  362SOL    HW2 1565   1.566   2.680   0.658 -0.7704  0.2819 -0.2284
  362SOL    HW3 1566   1.697   2.707   0.588  0.9306 -4.0275  1.0838
  362SOL    MW4 1567   1.613   2.686   0.585  0.0477 -0.7358  0.1959
  363SOL     OW 1568   1.635   1.444   0.229 -0.2923 -0.1364  0.2314
  363SOL    HW2 1569   1.633   1.504   0.155  1.5224 -0.9781 -0.5290
  363SOL    HW3 1570   1.547   1.449   0.267 -0.9280  1.0457 -1.3706
  363SOL    MW4 1571   1.623   1.452   0.224 -0.1366 -0.0914 -0.0803
  364SOL     OW 1572   0.670   0.478   0.750 -0.1198  0.3600 -0.5381
  364SOL    HW2 1573   0.633   0.557   0.791 -0.1381  0.0618  0.0233
  364SOL    HW3 1574   0.599   0.414   0.754  0.7613 -0.5233  1.4213
  364SOL    MW4 1575   0.656   0.480   0.756 -0.0060  0.2041 -0.2056
  365SOL     OW 1576   0.749   1.292   0.443  0.3322  0.2810  0.1646
  365SOL    HW2 1577   0.721   1.240   0.368 -0.0857 -1.1425  1.2779
  365SOL    HW3 1578   0.787   1.371   0.405  1.7490 -1.2012 -1.6260
  365SOL    MW4 1579   0.751   1.296   0.428  0.4640 -0.1024  0.0753
  366SOL     OW 1580   3.408   2.867   0.440  0.2291 -0.4098 -0.3603
  366SOL    HW2 1581   3.351   2.790   0.445  0.0603 -0.1506  2.2616
  366SOL    HW3 1582   3.350   2.941   0.457  0.7550  0.1423 -0.9480
  366SOL    MW4 1583   3.393   2.866   0.442  0.2759 -0.3028 -0.0919
  367SOL     OW 1584   0.689   3.393   0.511  0.2386  0.3168  0.1526
  367SOL    HW2 1585   0.761   3.331   0.521 -0.9009 -1.2971 -1.3277
  367SOL    HW3 1586   0.612   3.339   0.496 -0.9183  2.0769 -0.4976
  367SOL    MW4 1587   0.688   3.378   0.510 -0.0644  0.3359 -0.1284
  368SOL     OW 1588   0.231   3.835   0.713  0.0925  0.0997  0.0020
  368SOL    HW2 1589   0.221   3.855   0.806 -1.9075  0.4047 -0.2452
  368SOL    HW3 1590   0.167   3.893   0.670  0.9996 -0.0371 -1.5576
  368SOL    MW4 1591   0.221   3.846   0.720 -0.0517  0.1218 -0.2363
  369SOL     OW 1592   2.719   0.898   0.659 -0.4911 -0.8516  0.1573
  369SOL    HW2 1593   2.779   0.851   0.717  0.1595  2.1399  1.9921
  369SOL    HW3 1594   2.632   0.868   0.686 -0.1027 -0.7784  1.5266
  369SOL    MW4 1595   2.715   0.888   0.671 -0.3538 -0.4472  0.5801
  370SOL     OW 1596   0.343   0.136   0.344  0.6838  0.5871 -0.5352
  370SOL    HW2 1597   0.249   0.120   0.344  0.7944 -0.0923 -1.1751
  370SOL    HW3 1598   0.352   0.231   0.353 -0.0446  0.5714  0.4133
  370SOL    MW4 1599   0.332   0.146   0.345  0.6022  0.4954 -0.4945
  371SOL     OW 1600   0.807   1.999   0.410 -0.0309 -0.0856 -0.1184
  371SOL    HW2 1601   0.841   1.931   0.468  1.2474  1.0138  0.4318
  371SOL    HW3 1602   0.830   2.081   0.453 -2.8299  0.7226 -0.0180
  371SOL    MW4 1603   0.814   2.000   0.424 -0.2316  0.1662 -0.0326
  372SOL     OW 1604   0.812   1.793   0.860  0.1763  0.2091  0.2961
  372SOL    HW2 1605   0.870   1.834   0.925  0.8798  0.8115 -0.7080
  372SOL    HW3 1606   0.747   1.861   0.840 -1.2534 -0.6544  1.8449
  372SOL    MW4 1607   0.811   1.807   0.866  0.0805  0.1748  0.3679
  373SOL     OW 1608   4.339   0.176   0.464  0.6952 -0.5958 -0.1765
  373SOL    HW2 1609   4.395   0.236   0.415  0.3286 -0.3594 -0.3141
  373SOL    HW3 1610   4.252   0.186   0.423  0.3014 -0.1084  0.7809
  373SOL    MW4 1611   4.335   0.185   0.452  0.5946 -0.5003 -0.0683
  374SOL     OW 1612   1.581   3.909   1.048 -0.3587  0.0562  0.1026
  374SOL    HW2 1613   1.506   3.957   1.085  0.1079  1.5397 -0.8458
  374SOL    HW3 1614   1.566   3.910   0.954 -0.5176 -2.0012  0.0870
  374SOL    MW4 1615   1.569   3.915   1.041 -0.3181 -0.0196 -0.0246
  375SOL     OW 1616   0.621   1.371   0.811  0.2455  0.0555 -0.5344
  375SOL    HW2 1617   0.584   1.363   0.722 -0.6444 -1.7543 -0.0391
  375SOL    HW3 1618   0.556   1.329   0.867  2.2357 -1.6543  0.5797
  375SOL    MW4 1619   0.607   1.364   0.806  0.3907 -0.4089 -0.3220
  376SOL     OW 1620   2.027   3.114   0.823 -0.3070 -0.1032 -0.3662
  376SOL    HW2 1621   2.018   3.196   0.773  1.6937  1.0599  1.0976
  376SOL    HW3 1622   2.107   3.074   0.789 -0.4086 -0.6615  0.0424
  376SOL    MW4 1623   2.036   3.120   0.812 -0.0565 -0.0236 -0.1191
  377SOL     OW 1624   2.194   0.398   0.137  0.2178  0.3753  0.0507
  377SOL    HW2 1625   2.187   0.483   0.181  2.3225 -0.0158  1.1790
  377SOL    HW3 1626   2.285   0.372   0.150 -0.6688 -2.5507  0.5756
  377SOL    MW4 1627   2.205   0.406   0.144  0.3788 -0.0624  0.2688
  378SOL     OW 1628   1.900   2.618   0.898  0.1357  0.0495 -0.3056
  378SOL    HW2 1629   1.830   2.558   0.870 -1.1256  1.9780 -1.3842
  378SOL    HW3 1630   1.861   2.669   0.969  0.9000  0.2726 -0.0393
  378SOL    MW4 1631   1.886   2.617   0.904  0.0702  0.3335 -0.4128
  379SOL     OW 1632   3.147   1.199   0.665  0.4001 -0.0922  0.2371
  379SOL    HW2 1633   3.136   1.149   0.584  1.2201 -0.3673  0.2910
  379SOL    HW3 1634   3.149   1.132   0.734  0.0906  0.1173  0.4543
  379SOL    MW4 1635   3.145   1.183   0.663  0.4675 -0.1010  0.2729
  380SOL     OW 1636   1.508   0.544   0.714  0.1823  0.5399  0.2167
  380SOL    HW2 1637   1.527   0.547   0.620  0.9096  0.7196  0.3692
  380SOL    HW3 1638   1.508   0.635   0.741  0.7253  0.4435  0.5430
  380SOL    MW4 1639   1.511   0.556   0.705  0.3498  0.5509  0.2799
  381SOL     OW 1640   2.029   3.907   1.055 -0.1864 -0.5330  0.2399
  381SOL    HW2 1641   2.009   3.822   1.094  0.0427 -0.9756 -0.5962
  381SOL    HW3 1642   1.954   3.962   1.079  0.3320 -0.5536  1.9911
  381SOL    MW4 1643   2.016   3.903   1.064 -0.0877 -0.5939  0.3605
  382SOL     OW 1644   1.016   1.942   0.222 -0.3136 -0.5552  0.2938
  382SOL    HW2 1645   0.939   1.937   0.279  1.4689 -0.8105  2.7645
  382SOL    HW3 1646   1.065   2.017   0.256  1.1716 -1.1974 -0.4237
  382SOL    MW4 1647   1.012   1.951   0.234  0.1175 -0.6737  0.5251
  383SOL     OW 1648   1.619   2.313   0.340 -0.2658  0.1074  0.3929
  383SOL    HW2 1649   1.583   2.237   0.294 -0.1347  1.4426 -2.0418
  383SOL    HW3 1650   1.711   2.292   0.352 -0.2819 -0.2482 -0.0503
  383SOL    MW4 1651   1.626   2.300   0.335 -0.2507  0.2367  0.0131
  384SOL     OW 1652   1.088   0.535   0.748 -0.1995 -0.2661 -0.3669
  384SOL    HW2 1653   1.031   0.461   0.770  0.5941 -0.7395  0.1244
  384SOL    HW3 1654   1.177   0.501   0.757  0.1917  0.9420  0.6071
  384SOL    MW4 1655   1.092   0.521   0.752 -0.0432 -0.1691 -0.1736
  385SOL     OW 1656   2.920   4.425   0.711 -0.0858  0.5467 -0.3626
  385SOL    HW2 1657   2.990   4.364   0.733 -0.1809  0.6627  0.2814
  385SOL    HW3 1658   2.937   4.450   0.620  0.1938 -0.1109 -0.4948
  385SOL    MW4 1659   2.931   4.420   0.702 -0.0615  0.4749 -0.2950
  386SOL     OW 1660   3.356   2.803   1.204 -0.4551  0.3185  0.0794
  386SOL    HW2 1661   3.364   2.898   1.194 -1.3226  0.3117 -0.8257
  386SOL    HW3 1662   3.274   2.782   1.160 -0.0697 -0.9060 -0.0602
  386SOL    MW4 1663   3.346   2.813   1.197 -0.5188  0.1562 -0.0583
  387SOL     OW 1664   2.653   1.180   1.066  0.5868 -0.0286  0.3228
  387SOL    HW2 1665   2.738   1.192   1.109  0.5850  0.5844  0.1496
  387SOL    HW3 1666   2.671   1.193   0.973 -0.1925  2.7516  0.5198
  387SOL    MW4 1667   2.667   1.183   1.059  0.4840  0.4190  0.3260
  388SOL     OW 1668   0.558   3.900   0.439 -0.4917 -0.4072  0.5621
  388SOL    HW2 1669   0.509   3.930   0.517 -0.1463  0.5356  0.4217
  388SOL    HW3 1670   0.605   3.978   0.410 -0.0502 -0.9536 -0.1689
  388SOL    MW4 1671   0.558   3.914   0.446 -0.3878 -0.3548  0.4471
  389SOL     OW 1672   2.014   1.559   0.849  0.5947  0.0004  0.2911
  389SOL    HW2 1673   2.034   1.471   0.817  1.3414  0.0726  0.5683
  389SOL    HW3 1674   2.007   1.549   0.944  0.5973  0.2298  0.3156
  389SOL    MW4 1675   2.016   1.546   0.858  0.6936  0.0402  0.3310
  390SOL     OW 1676   4.277   3.312   0.404 -0.1677 -0.1119  0.3136
  390SOL    HW2 1677   4.355   3.348   0.446 -1.3640  1.2742  1.3901
  390SOL    HW3 1678   4.284   3.337   0.312  0.7455 -0.1683  0.3664
  390SOL    MW4 1679   4.288   3.320   0.398 -0.2050  0.0634  0.4626
  391SOL     OW 1680   3.361   1.674   0.503  0.2992 -0.3500 -0.0632
  391SOL    HW2 1681   3.323   1.594   0.468  1.5793 -0.6468 -0.7725
  391SOL    HW3 1682   3.455   1.659   0.504  0.5176  0.9360  0.3169
  391SOL    MW4 1683   3.368   1.662   0.499  0.4971 -0.2196 -0.1067
  392SOL     OW 1684   0.435   4.224   0.781  0.3555  0.0190 -0.1310
  392SOL    HW2 1685   0.444   4.208   0.875  1.5913 -0.4070 -0.3137
  392SOL    HW3 1686   0.516   4.267   0.756 -0.4049  1.0938 -0.8211
  392SOL    MW4 1687   0.447   4.227   0.790  0.4182  0.1049 -0.2461
  393SOL     OW 1688   2.889   0.777   1.123  0.4795 -0.1180 -0.2319
  393SOL    HW2 1689   2.981   0.803   1.133 -0.0257  1.6441 -0.0096
  393SOL    HW3 1690   2.871   0.788   1.029  1.0796 -2.5463 -0.6702
  393SOL    MW4 1691   2.899   0.782   1.112  0.4921 -0.2059 -0.2605
  394SOL     OW 1692   2.274   0.422   0.791 -0.2559  0.0171  0.2115
  394SOL    HW2 1693   2.257   0.409   0.885 -0.2209  0.2766  0.2542
  394SOL    HW3 1694   2.190   0.454   0.757  0.0104  0.8257  0.3289
  394SOL    MW4 1695   2.260   0.424   0.799 -0.2158  0.1580  0.2326
  395SOL     OW 1696   2.918   4.614   1.143  0.2995  0.1257 -0.5029
  395SOL    HW2 1697   2.904   4.618   1.048  0.1343 -1.1020 -0.5380
  395SOL    HW3 1698   2.920   4.520   1.163  0.1055  0.3819  0.7429
  395SOL    MW4 1699   2.917   4.602   1.133  0.2520 -0.0024 -0.3430
  396SOL     OW 1700   1.555   4.650   1.110  0.4887 -0.4080 -0.0275
  396SOL    HW2 1701   1.559   4.563   1.149 -0.2773 -0.0327  0.9265
  396SOL    HW3 1702   1.632   4.695   1.144 -0.1929 -0.0732  1.1190
  396SOL    MW4 1703   1.566   4.645   1.120  0.2978 -0.3147  0.2496
  397SOL     OW 1704   3.863   2.001   0.589  0.4746 -0.3073  0.2389
  397SOL    HW2 1705   3.918   1.970   0.661  0.4814 -3.5592 -1.0833
  397SOL    HW3 1706   3.796   2.054   0.632  2.1929  0.2569  2.3114
  397SOL    MW4 1707   3.861   2.004   0.604  0.7024 -0.6616  0.3379
  398SOL     OW 1708   2.121   2.413   0.808  0.0018 -0.1820  0.1327
  398SOL    HW2 1709   2.085   2.394   0.895  0.7754  1.3878  0.8121
  398SOL    HW3 1710   2.209   2.375   0.809  0.2777  0.4445  0.3046
  398SOL    MW4 1711   2.128   2.406   0.819  0.1402  0.1080  0.2450
  399SOL     OW 1712   1.336   4.163   0.331 -0.3726  0.1707  0.6348
  399SOL    HW2 1713   1.386   4.090   0.293  1.1377  0.5746  1.7814
  399SOL    HW3 1714   1.331   4.228   0.260 -0.5626 -0.4935  0.0353
  399SOL    MW4 1715   1.342   4.162   0.316 -0.1984  0.1359  0.7070
  400SOL     OW 1716   1.180   0.034   0.365  0.0048 -0.1949  0.0729
  400SOL    HW2 1717   1.168   0.008   0.456  0.1511  0.6354  0.3370
  400SOL    HW3 1718   1.237   0.111   0.369 -0.6047  0.3083 -0.6643
  400SOL    MW4 1719   1.186   0.041   0.377 -0.0563 -0.0190  0.0105
  401SOL     OW 1720   1.308   1.008   0.465 -0.2602 -0.1105  0.2708
  401SOL    HW2 1721   1.302   0.988   0.558  1.9505 -0.1626  0.4333
  401SOL    HW3 1722   1.353   0.933   0.427  0.2732  0.6156 -0.5639
  401SOL    MW4 1723   1.313   0.996   0.472  0.1020 -0.0216  0.1821
  402SOL     OW 1724   3.076   2.822   0.631  0.1231 -0.0274 -0.0076
  402SOL    HW2 1725   2.993   2.812   0.585  0.2871 -2.1519  0.1381
  402SOL    HW3 1726   3.131   2.751   0.599  1.3074  0.3229  1.1716
  402SOL    MW4 1727   3.072   2.811   0.621  0.3011 -0.2615  0.1672
  403SOL     OW 1728   2.441   0.821   0.782 -0.2166 -0.0851  0.3128
  403SOL    HW2 1729   2.367   0.870   0.746 -0.6447 -0.0729  1.1882
  403SOL    HW3 1730   2.416   0.804   0.873  1.5610  1.2687  1.0690
  403SOL    MW4 1731   2.428   0.825   0.789 -0.0389  0.0951  0.5280
  404SOL     OW 1732   3.303   2.925   0.878  0.4046 -0.0789 -0.1758
  404SOL    HW2 1733   3.331   2.995   0.819  0.7707 -0.0613  0.0193
  404SOL    HW3 1734   3.327   2.956   0.965 -0.0694 -0.1382 -0.0235
  404SOL    MW4 1735   3.310   2.939   0.881  0.3908 -0.0839 -0.1300
  405SOL     OW 1736   1.785   1.652   0.699  0.0169  0.0283 -0.4832
  405SOL    HW2 1737   1.795   1.609   0.614  1.2756  0.0791 -0.3632
  405SOL    HW3 1738   1.861   1.624   0.750 -1.0594 -0.5120  0.8554
  405SOL    MW4 1739   1.796   1.643   0.694  0.0409 -0.0362 -0.2908
  406SOL     OW 1740   4.485   1.135   0.832 -0.2098  0.1834  0.0746
  406SOL    HW2 1741   4.406   1.186   0.814 -1.1169 -0.5312  1.9035
  406SOL    HW3 1742   4.507   1.158   0.923  0.4753 -1.2326  0.2693
  406SOL    MW4 1743   4.478   1.145   0.842 -0.2389 -0.0978  0.3415
  407SOL     OW 1744   1.099   4.337   0.442  0.3634 -0.1417  0.1223
  407SOL    HW2 1745   1.021   4.341   0.386  0.2761  0.0469  0.2562
  407SOL    HW3 1746   1.164   4.391   0.396  0.2654  0.0808  0.2420
  407SOL    MW4 1747   1.097   4.345   0.429  0.3389 -0.0873  0.1557
  408SOL     OW 1748   3.461   3.383   0.620 -0.0034  0.1722  0.4901
  408SOL    HW2 1749   3.415   3.465   0.636 -1.4421 -0.5953  0.2972
  408SOL    HW3 1750   3.540   3.389   0.674  0.0229  1.7772  0.2998
  408SOL    MW4 1751   3.466   3.395   0.629 -0.1900  0.2823  0.4395
  409SOL     OW 1752   3.745   2.385   0.841 -0.4900 -0.0699 -0.0844
  409SOL    HW2 1753   3.766   2.383   0.935  0.7569 -0.3827 -0.3572
  409SOL    HW3 1754   3.709   2.298   0.824  0.0542 -0.3015 -0.0639
  409SOL    MW4 1755   3.743   2.373   0.851 -0.2537 -0.1416 -0.1177
  410SOL     OW 1756   2.521   0.560   0.754 -0.0335  0.3167 -0.1302
  410SOL    HW2 1757   2.442   0.507   0.760 -0.8339  1.4785 -0.1947
  410SOL    HW3 1758   2.490   0.650   0.760  1.2992  0.7854 -0.0484
  410SOL    MW4 1759   2.506   0.565   0.756  0.0367  0.5319 -0.1279
  411SOL     OW 1760   1.744   2.666   0.189  0.1373 -0.2211 -0.5338
  411SOL    HW2 1761   1.654   2.645   0.216 -0.2317 -1.4209 -2.5890
  411SOL    HW3 1762   1.799   2.617   0.250 -0.6079 -0.1182  0.2372
  411SOL    MW4 1763   1.739   2.657   0.201 -0.0097 -0.3660 -0.7032
  412SOL     OW 1764   3.801   4.357   0.422  0.4297  0.0520  0.5996
  412SOL    HW2 1765   3.732   4.403   0.375 -0.0720  0.1945  1.4619
  412SOL    HW3 1766   3.882   4.401   0.395 -0.0100  1.2270  1.1617
  412SOL    MW4 1767   3.802   4.369   0.412  0.3057  0.2260  0.7875
  413SOL     OW 1768   2.477   1.326   0.638  0.1399 -0.3780 -0.5347
  413SOL    HW2 1769   2.484   1.410   0.684 -0.0656  0.0455 -1.2700
  413SOL    HW3 1770   2.403   1.282   0.680 -2.5735  1.6405 -2.9741
  413SOL    MW4 1771   2.468   1.332   0.650 -0.2453 -0.0558 -0.9536
  414SOL     OW 1772   0.227   2.783   0.435  0.1959 -0.3292 -0.6187
  414SOL    HW2 1773   0.227   2.875   0.408  1.0374  0.1857  1.0313
  414SOL    HW3 1774   0.320   2.759   0.437 -0.0061 -1.1315 -0.7719
  414SOL    MW4 1775   0.239   2.792   0.432  0.2803 -0.3672 -0.4212
  415SOL     OW 1776   4.114   2.842   0.373  0.2632 -0.0363  0.3169
  415SOL    HW2 1777   4.159   2.774   0.323  0.9913  0.9825 -0.4417
  415SOL    HW3 1778   4.040   2.798   0.413  1.3095 -1.5072  0.6716
  415SOL    MW4 1779   4.110   2.828   0.372  0.4973 -0.0961  0.2636
  416SOL     OW 1780   1.276   2.727   0.285 -0.4620 -0.3192  0.3170
  416SOL    HW2 1781   1.354   2.677   0.262 -0.6315 -0.6329  0.4228
  416SOL    HW3 1782   1.227   2.670   0.343 -0.3764  0.2041  0.9082
  416SOL    MW4 1783   1.280   2.713   0.290 -0.4730 -0.2916  0.4089
  417SOL     OW 1784   4.044   4.269   1.012 -0.1426 -0.2030  0.2532
  417SOL    HW2 1785   3.964   4.314   1.041  0.2358  0.8995 -0.4113
  417SOL    HW3 1786   4.112   4.301   1.071 -0.0035 -0.4500  0.2288
  417SOL    MW4 1787   4.042   4.279   1.024 -0.0744 -0.0896  0.1622
  418SOL     OW 1788   2.078   0.012   0.272 -0.1225 -0.3606  0.6134
  418SOL    HW2 1789   2.137  -0.029   0.209 -0.9579 -0.3775 -0.1754
  418SOL    HW3 1790   2.027   0.074   0.220  0.5408  1.0712  1.6374
  418SOL    MW4 1791   2.079   0.015   0.257 -0.1452 -0.1736  0.6444
  419SOL     OW 1792   0.378   1.039   0.481 -0.0611  0.2846 -0.1392
  419SOL    HW2 1793   0.393   1.131   0.505 -0.5759  0.3914 -0.2331
  419SOL    HW3 1794   0.449   1.019   0.419  0.8545  0.2144  0.9049
  419SOL    MW4 1795   0.389   1.048   0.476 -0.0082  0.2893 -0.0138
  420SOL     OW 1796   2.468   3.368   0.726 -0.2778 -0.4106  0.0438
  420SOL    HW2 1797   2.548   3.406   0.762 -0.7035 -0.7754  1.4036
  420SOL    HW3 1798   2.474   3.275   0.747 -1.8507 -0.1675  1.7335
  420SOL    MW4 1799   2.479   3.361   0.734 -0.5414 -0.4265  0.4461
  421SOL     OW 1800   2.045   4.476   0.727 -0.1796 -0.4931 -0.7815
  421SOL    HW2 1801   1.960   4.455   0.766 -0.2798 -1.3332 -1.4295
  421SOL    HW3 1802   2.106   4.414   0.768  0.3430  0.8800  0.5461
  421SOL    MW4 1803   2.042   4.465   0.738 -0.1240 -0.4225 -0.6918
  422SOL     OW 1804   1.433   2.893   0.444 -0.1394  0.0774 -0.0989
  422SOL    HW2 1805   1.496   2.835   0.487  1.6918  1.2975 -1.0682
  422SOL    HW3 1806   1.381   2.834   0.390  0.7541 -0.8579  0.0320
  422SOL    MW4 1807   1.435   2.878   0.442  0.2201  0.1149 -0.2095
  423SOL     OW 1808   1.668   4.207   0.753 -0.1723 -0.6052  0.3246
  423SOL    HW2 1809   1.724   4.281   0.777 -0.3141 -0.7631  1.1745
  423SOL    HW3 1810   1.632   4.230   0.668 -0.0341  0.2009  0.4851
  423SOL    MW4 1811   1.671   4.220   0.745 -0.1727 -0.5198  0.4579
  424SOL     OW 1812   0.237   3.069   0.424  0.2188 -0.5689  0.3509
  424SOL    HW2 1813   0.181   3.132   0.378  1.0527  0.7329  1.0904
  424SOL    HW3 1814   0.323   3.109   0.426  0.6844 -1.5695  1.1636
  424SOL    MW4 1815   0.241   3.083   0.418  0.3903 -0.5293  0.5557
  425SOL     OW 1816   3.383   0.323   0.321 -0.2875 -0.2061 -0.3403
  425SOL    HW2 1817   3.447   0.252   0.321 -0.0034  0.0244 -2.1443
  425SOL    HW3 1818   3.373   0.346   0.229 -1.7330  0.8815  0.0688
  425SOL    MW4 1819   3.390   0.316   0.309 -0.4411 -0.0322 -0.5243
  426SOL     OW 1820   0.862   0.305   0.402  0.4119 -0.1012 -0.5759
  426SOL    HW2 1821   0.924   0.378   0.407 -1.1655  1.1892  1.3163
  426SOL    HW3 1822   0.859   0.270   0.491 -0.4739 -1.0818 -0.9817
  426SOL    MW4 1823   0.869   0.310   0.415  0.0870 -0.0604 -0.3798
  427SOL     OW 1824   3.553   1.903   0.838 -0.2392 -0.1945  0.4857
  427SOL    HW2 1825   3.590   1.821   0.806  0.3448 -0.3725  1.5786
  427SOL    HW3 1826   3.459   1.887   0.846 -0.0755 -0.8689  1.0372
  427SOL    MW4 1827   3.546   1.890   0.835 -0.1404 -0.3070  0.7027
  428SOL     OW 1828   3.367   2.372   0.852 -0.1169  0.2192  0.3201
  428SOL    HW2 1829   3.321   2.292   0.826 -0.4764  0.1923  1.0356
  428SOL    HW3 1830   3.405   2.405   0.771 -0.2440 -0.5015 -0.0363
  428SOL    MW4 1831   3.366   2.366   0.838 -0.1807  0.1206  0.3674
  429SOL     OW 1832   4.180   4.650   0.183 -0.6458 -0.0112 -0.2656
  429SOL    HW2 1833   4.215   4.658   0.095  2.1304 -0.0612  0.7976
  429SOL    HW3 1834   4.148   4.738   0.204  0.7338  0.5656 -0.5082
  429SOL    MW4 1835   4.180   4.662   0.174 -0.0978  0.0582 -0.1573
  430SOL     OW 1836   1.145   2.199   0.605 -0.9769 -0.6538  0.4695
  430SOL    HW2 1837   1.135   2.278   0.658  0.8329  0.0617 -0.1912
  430SOL    HW3 1838   1.134   2.127   0.667 -2.9036  0.0844  1.0372
  430SOL    MW4 1839   1.142   2.200   0.620 -0.9924 -0.4618  0.4572
  431SOL     OW 1840   1.309   4.456   0.306  0.2932  0.0519 -0.5401
  431SOL    HW2 1841   1.390   4.468   0.355 -0.2020  0.1054  0.2880
  431SOL    HW3 1842   1.274   4.545   0.295 -0.6597 -0.1288  0.8766
  431SOL    MW4 1843   1.315   4.469   0.311  0.1020  0.0348 -0.2439
  432SOL     OW 1844   2.895   2.669   0.894 -0.6811 -0.2232  0.2458
  432SOL    HW2 1845   2.834   2.739   0.916 -0.0130  0.4206  0.0908
  432SOL    HW3 1846   2.874   2.598   0.955  1.0210  1.4719  2.9359
  432SOL    MW4 1847   2.884   2.669   0.905 -0.3684  0.0856  0.5803
  433SOL     OW 1848   3.674   3.392   0.801  0.1569 -0.1388  0.3758
  433SOL    HW2 1849   3.638   3.403   0.889 -1.2666 -1.3327 -0.0432
  433SOL    HW3 1850   3.701   3.300   0.798  0.7007  0.0392 -0.2566
  433SOL    MW4 1851   3.673   3.381   0.812  0.0408 -0.2730  0.2370
  434SOL     OW 1852   0.266   4.372   0.416  0.2296 -0.2305 -0.4984
  434SOL    HW2 1853   0.254   4.389   0.510 -0.6344  0.6608 -0.7598
  434SOL    HW3 1854   0.196   4.311   0.393  0.0044  0.1087 -0.7124
  434SOL    MW4 1855   0.255   4.367   0.426  0.0859 -0.0677 -0.5611
  435SOL     OW 1856   2.701   0.105   0.513 -0.1778 -0.3127 -0.0172
  435SOL    HW2 1857   2.692   0.194   0.476  2.4105  0.2855  0.6787
  435SOL    HW3 1858   2.671   0.113   0.603  2.2806  0.4810  0.7814
  435SOL    MW4 1859   2.696   0.118   0.520  0.4883 -0.1290  0.1800
  436SOL     OW 1860   4.018   3.092   0.337  0.3277 -0.6083  0.2286
  436SOL    HW2 1861   3.923   3.080   0.337  0.3586 -0.8434  0.3774
  436SOL    HW3 1862   4.054   3.004   0.342  0.5501 -0.4562  1.4419
  436SOL    MW4 1863   4.010   3.079   0.337  0.3610 -0.6192  0.4083
  437SOL     OW 1864   0.386   1.211   0.842  0.4309  0.1319  0.1044
  437SOL    HW2 1865   0.311   1.239   0.789 -0.0774 -0.3053  0.5686
  437SOL    HW3 1866   0.403   1.121   0.814  0.9319  0.3127 -0.1647
  437SOL    MW4 1867   0.378   1.203   0.832  0.4299  0.0981  0.1302
  438SOL     OW 1868   3.346   3.835   1.031 -0.1809 -0.4821  0.1791
  438SOL    HW2 1869   3.271   3.870   1.080  0.2972  1.2681 -0.2906
  438SOL    HW3 1870   3.421   3.885   1.064  0.3348 -0.1501 -1.4578
  438SOL    MW4 1871   3.346   3.846   1.042 -0.0496 -0.2077 -0.0989
  439SOL     OW 1872   0.724   3.586   0.751  0.0529 -0.3416 -0.5742
  439SOL    HW2 1873   0.778   3.509   0.765  0.5316 -0.1489 -1.3714
  439SOL    HW3 1874   0.729   3.603   0.657  0.7959  1.2759 -0.2655
  439SOL    MW4 1875   0.732   3.578   0.741  0.2142 -0.1030 -0.6386
  440SOL     OW 1876   1.101   0.026   0.652  0.2893  0.5474  0.4000
  440SOL    HW2 1877   1.091  -0.063   0.686  0.9326 -0.1333 -1.1377
  440SOL    HW3 1878   1.187   0.054   0.684  0.8125 -0.0248 -0.4583
  440SOL    MW4 1879   1.111   0.018   0.660  0.4432  0.3820  0.0838
  441SOL     OW 1880   3.137   3.835   0.294 -0.0296  0.2356 -0.1634
  441SOL    HW2 1881   3.215   3.780   0.297 -0.1131  0.1202 -0.1305
  441SOL    HW3 1882   3.101   3.820   0.206 -1.4775 -1.7133  0.7338
  441SOL    MW4 1883   3.142   3.826   0.283 -0.2317 -0.0367 -0.0407
  442SOL     OW 1884   2.914   1.353   0.638  0.0695 -0.1702  0.3496
  442SOL    HW2 1885   2.990   1.294   0.636 -0.1422 -0.4324 -1.3320
  442SOL    HW3 1886   2.842   1.298   0.668 -0.0067 -0.6467 -0.6622
  442SOL    MW4 1887   2.914   1.338   0.642  0.0315 -0.2676 -0.0057
  443SOL     OW 1888   3.354   0.537   0.690  0.0296  0.7725  0.1185
  443SOL    HW2 1889   3.334   0.618   0.737 -0.1240 -0.3053  1.9397
  443SOL    HW3 1890   3.283   0.478   0.713  0.0128  0.1835 -1.4043
  443SOL    MW4 1891   3.342   0.540   0.699  0.0069  0.5526  0.1579
  444SOL     OW 1892   0.564   1.647   0.523  0.5450 -0.0247  0.3421
  444SOL    HW2 1893   0.549   1.739   0.503 -0.8947 -0.4169 -0.4019
  444SOL    HW3 1894   0.500   1.599   0.471  1.7744 -1.5069  0.1451
  444SOL    MW4 1895   0.553   1.653   0.514  0.5172 -0.2720  0.2179
  445SOL     OW 1896   4.264   1.300   0.764  0.1312  0.4975 -0.2479
  445SOL    HW2 1897   4.182   1.250   0.769  0.6735 -0.4451 -0.6284
  445SOL    HW3 1898   4.267   1.332   0.674 -0.1081  1.0414 -0.0651
  445SOL    MW4 1899   4.254   1.297   0.753  0.1712  0.4450 -0.2740
  446SOL     OW 1900   0.026   1.706   0.724  0.3242 -0.0115  0.3417
  446SOL    HW2 1901  -0.048   1.667   0.771 -0.4998 -0.7238 -1.4924
  446SOL    HW3 1902   0.103   1.678   0.773 -0.4054 -2.0693  0.3805
  446SOL    MW4 1903   0.026   1.697   0.737  0.1193 -0.3768  0.1048
  447SOL     OW 1904   1.261   1.657   0.683 -0.0083 -0.3767 -0.0914
  447SOL    HW2 1905   1.340   1.645   0.736 -0.4614 -0.1839  0.6348
  447SOL    HW3 1906   1.243   1.751   0.688 -0.2755 -0.4192 -0.2795
  447SOL    MW4 1907   1.269   1.668   0.690 -0.1031 -0.3568 -0.0204
  448SOL     OW 1908   2.418   4.388   0.736  0.5789 -0.1131 -0.0449
  448SOL    HW2 1909   2.498   4.337   0.742  1.1400  0.7479 -0.1116
  448SOL    HW3 1910   2.405   4.401   0.642  0.9251  0.6097  0.0008
  448SOL    MW4 1911   2.427   4.383   0.724  0.6986  0.0954 -0.0477
  449SOL     OW 1912   0.656   0.511   0.468  0.2047  0.4480  0.2160
  449SOL    HW2 1913   0.664   0.510   0.563  0.4735  1.4599  0.2149
  449SOL    HW3 1914   0.722   0.449   0.437 -0.6986 -0.7830  0.7326
  449SOL    MW4 1915   0.666   0.503   0.477  0.1209  0.4191  0.2840
  450SOL     OW 1916   0.898   3.196   0.500 -0.3547  0.4380  0.7020
  450SOL    HW2 1917   0.827   3.133   0.485 -1.3402  1.9118 -0.9249
  450SOL    HW3 1918   0.949   3.194   0.419 -0.4156  1.7545  0.6255
  450SOL    MW4 1919   0.895   3.187   0.487 -0.4927  0.8063  0.4772
  451SOL     OW 1920   2.973   0.555   0.744 -0.3459  0.2319  0.5309
  451SOL    HW2 1921   2.981   0.545   0.650  2.0748 -0.2741  0.7538
  451SOL    HW3 1922   2.890   0.513   0.767  0.2452 -1.8453 -1.0557
  451SOL    MW4 1923   2.963   0.548   0.735  0.0515 -0.1089  0.3511
  452SOL     OW 1924   0.052   1.482   0.551  0.3509  0.6971 -0.0521
  452SOL    HW2 1925  -0.033   1.447   0.525  0.0659  0.3737  1.2875
  452SOL    HW3 1926   0.032   1.565   0.595  0.8465  1.3545 -1.0417
  452SOL    MW4 1927   0.038   1.488   0.553  0.3787  0.7411 -0.0059
  453SOL     OW 1928   0.907   3.047   0.892 -0.0143 -0.2485  0.0977
  453SOL    HW2 1929   0.820   3.022   0.861  0.4655 -0.6349 -0.9597
  453SOL    HW3 1930   0.922   3.133   0.853 -0.4002  0.3492  1.2410
  453SOL    MW4 1931   0.898   3.055   0.883 -0.0019 -0.2208  0.1091
  454SOL     OW 1932   2.690   3.499   0.835  0.7406  0.2528 -0.3747
  454SOL    HW2 1933   2.781   3.471   0.825  0.7244  0.1048 -0.1112
  454SOL    HW3 1934   2.685   3.580   0.785  0.9804  0.1833 -0.5132
  454SOL    MW4 1935   2.702   3.506   0.827  0.7701  0.2241 -0.3582
  455SOL     OW 1936   0.683   4.326   0.699  0.5912  0.3830  0.4762
  455SOL    HW2 1937   0.656   4.364   0.615 -1.3436 -0.1770  0.8186
  455SOL    HW3 1938   0.687   4.401   0.759 -0.1262  0.4965  0.3915
  455SOL    MW4 1939   0.680   4.341   0.696  0.2413  0.3242  0.5102
  456SOL     OW 1940   1.054   0.512   0.460 -0.0033 -0.3624  0.3451
  456SOL    HW2 1941   0.999   0.586   0.435  1.9941  0.7566 -0.8889
  456SOL    HW3 1942   1.063   0.519   0.555 -2.6739 -1.0846  0.6922
  456SOL    MW4 1943   1.048   0.523   0.469 -0.0921 -0.3100  0.2280
  457SOL     OW 1944   4.266   1.351   0.485 -0.1526 -0.3606 -0.2197
  457SOL    HW2 1945   4.188   1.404   0.473  1.2141  1.3543 -1.8610
  457SOL    HW3 1946   4.238   1.262   0.462 -1.9238  0.0122  0.4362
  457SOL    MW4 1947   4.252   1.346   0.480 -0.2065 -0.0851 -0.3498
  458SOL     OW 1948   2.652   1.978   0.804  0.3865 -0.0311  0.4514
  458SOL    HW2 1949   2.722   2.015   0.750  1.3895  0.0919  1.8285
  458SOL    HW3 1950   2.675   2.002   0.894 -2.1267  1.1520  0.8160
  458SOL    MW4 1951   2.665   1.986   0.809  0.1872  0.1411  0.6812
  459SOL     OW 1952   3.629   1.655   0.770  0.2462  0.2276  0.3538
  459SOL    HW2 1953   3.545   1.622   0.801 -0.5873  1.3177 -0.6987
  459SOL    HW3 1954   3.633   1.630   0.678  0.5644  1.1498  0.1093
  459SOL    MW4 1955   3.618   1.648   0.762  0.1781  0.4932  0.1826
  460SOL     OW 1956   2.910   2.805   1.273  0.2115  0.1980  0.0293
  460SOL    HW2 1957   2.849   2.732   1.262  0.4639  0.0938 -0.6792
  460SOL    HW3 1958   2.903   2.828   1.366 -0.0043 -0.6061  0.2154
  460SOL    MW4 1959   2.901   2.799   1.284  0.2158  0.0780 -0.0397
  461SOL     OW 1960   0.864   3.197   1.211  0.0997 -0.0851 -0.0623
  461SOL    HW2 1961   0.855   3.285   1.175  2.1138  0.5371  0.8622
  461SOL    HW3 1962   0.941   3.161   1.167 -0.6596 -1.3419 -0.3595
  461SOL    MW4 1963   0.873   3.204   1.201  0.2652 -0.1690  0.0204
  462SOL     OW 1964   3.375   1.569   0.834  0.2079  0.4699 -0.1479
  462SOL    HW2 1965   3.300   1.618   0.801 -0.3800  0.3162  0.9273
  462SOL    HW3 1966   3.379   1.491   0.779  0.7440  1.3787 -1.4321
  462SOL    MW4 1967   3.366   1.565   0.822  0.2010  0.5696 -0.1755
  463SOL     OW 1968   1.487   3.357   0.424  0.1021  0.2919 -0.5660
  463SOL    HW2 1969   1.399   3.380   0.392  0.2804  0.6461 -0.8073
  463SOL    HW3 1970   1.483   3.373   0.518 -0.2539 -0.2058 -0.4933
  463SOL    MW4 1971   1.475   3.362   0.432  0.0786  0.2725 -0.5882
  464SOL     OW 1972   1.742   0.932   0.712 -0.2777  0.0112 -0.1797
  464SOL    HW2 1973   1.812   0.882   0.755  0.0864 -0.5649 -1.4397
  464SOL    HW3 1974   1.661   0.894   0.747 -0.0208 -1.9878 -1.6949
  464SOL    MW4 1975   1.740   0.921   0.722 -0.1957 -0.3285 -0.5459
  465SOL     OW 1976   2.229   3.479   0.826 -0.2655  0.2321  0.2595
  465SOL    HW2 1977   2.244   3.569   0.797  0.6620 -0.0400 -0.1361
  465SOL    HW3 1978   2.296   3.428   0.780 -2.4442 -1.0544 -1.5796
  465SOL    MW4 1979   2.240   3.484   0.816 -0.4308  0.0262 -0.0353
  466SOL     OW 1980   0.748   4.556   0.141 -0.4190 -0.2609  0.0585
  466SOL    HW2 1981   0.755   4.563   0.046 -0.1313 -1.1371  0.0090
  466SOL    HW3 1982   0.819   4.611   0.175 -1.1503  0.8674 -0.2035
  466SOL    MW4 1983   0.759   4.564   0.133 -0.4776 -0.2279  0.0174
  467SOL     OW 1984   3.545   2.008   0.248  0.3198  0.2307  0.2090
  467SOL    HW2 1985   3.527   2.053   0.166  0.3701  0.7605  0.4784
  467SOL    HW3 1986   3.461   1.971   0.275  0.1864  0.5175  0.1906
  467SOL    MW4 1987   3.532   2.009   0.241  0.3090  0.3386  0.2421
  468SOL     OW 1988   0.825   0.110   0.682  0.2359 -0.1290 -0.2457
  468SOL    HW2 1989   0.909   0.066   0.665  0.4715  0.3296 -0.2937
  468SOL    HW3 1990   0.848   0.182   0.741  0.0170  0.4912 -0.9020
  468SOL    MW4 1991   0.839   0.114   0.687  0.2381  0.0134 -0.3386
  469SOL     OW 1992   3.105   0.334   0.372 -0.2433 -0.0759  0.1396
  469SOL    HW2 1993   3.060   0.258   0.408  0.0149  0.1623  0.9789
  469SOL    HW3 1994   3.196   0.307   0.364 -0.0606  0.2998  0.8962
  469SOL    MW4 1995   3.111   0.321   0.376 -0.1853  0.0051  0.3502
  470SOL     OW 1996   0.505   3.164   0.477 -0.1646 -0.3206  0.0464
  470SOL    HW2 1997   0.498   3.162   0.572  0.9622  0.2113  0.1554
  470SOL    HW3 1998   0.575   3.101   0.457  0.0195  0.0077 -0.3723
  470SOL    MW4 1999   0.514   3.155   0.487  0.0083 -0.2072  0.0055
  471SOL     OW 2000   3.361   4.392   0.686 -0.0160 -0.0776  0.0671
  471SOL    HW2 2001   3.365   4.480   0.724  0.0359 -0.1354  0.1933
  471SOL    HW3 2002   3.289   4.349   0.732  1.2576 -0.7854  1.4286
  471SOL    MW4 2003   3.352   4.398   0.697  0.1588 -0.1788  0.2633
  472SOL     OW 2004   3.710   3.649   0.629  0.1085  0.1249 -0.1632
  472SOL    HW2 2005   3.704   3.563   0.673 -0.7356 -0.6944 -1.8417
  472SOL    HW3 2006   3.743   3.708   0.697 -1.1062 -1.1330  1.5791
  472SOL    MW4 2007   3.714   3.645   0.644 -0.1631 -0.1490 -0.1547
  473SOL     OW 2008   4.356   3.842   0.591  0.3652 -0.0302 -0.3835
  473SOL    HW2 2009   4.357   3.856   0.496  2.8925 -0.3135 -0.4530
  473SOL    HW3 2010   4.402   3.919   0.626 -2.2614  1.0366  0.7867
  473SOL    MW4 2011   4.362   3.854   0.583  0.3519  0.0732 -0.2383
  474SOL     OW 2012   3.104   3.248   0.823  0.0007  0.2546  0.2301
  474SOL    HW2 2013   3.067   3.167   0.859  0.9864  0.4106  1.6279
  474SOL    HW3 2014   3.105   3.309   0.897 -2.4162  2.1617 -1.2529
  474SOL    MW4 2015   3.100   3.245   0.838 -0.1879  0.5269  0.2188
  475SOL     OW 2016   0.928   3.837   0.653 -0.2127  0.0897  0.0193
  475SOL    HW2 2017   0.842   3.835   0.694 -0.1562  0.3706  0.1539
  475SOL    HW3 2018   0.919   3.781   0.576 -0.6991  0.6343 -0.3261
  475SOL    MW4 2019   0.915   3.829   0.649 -0.2694  0.1986 -0.0085
  476SOL     OW 2020   3.564   0.915   0.755 -0.7187 -0.3733  0.3508
  476SOL    HW2 2021   3.644   0.870   0.780 -1.0190 -0.9692  0.2577
  476SOL    HW3 2022   3.571   1.001   0.794 -0.2540 -0.5938  0.7545
  476SOL    MW4 2023   3.575   0.920   0.763 -0.6969 -0.4810  0.3918
  477SOL     OW 2024   3.676   2.897   0.573 -0.0371  0.0985 -0.5318
  477SOL    HW2 2025   3.660   2.979   0.619  0.2731  0.5901 -1.2968
  477SOL    HW3 2026   3.589   2.868   0.545 -0.0550  0.5945 -0.9897
  477SOL    MW4 2027   3.662   2.904   0.576  0.0012  0.2286 -0.6931
  478SOL     OW 2028   0.451   0.037   0.690  0.3824 -0.4128 -0.1347
  478SOL    HW2 2029   0.518   0.008   0.752  0.6199 -2.5171 -1.3588
  478SOL    HW3 2030   0.483   0.008   0.605 -1.2343  0.1262 -0.9346
  478SOL    MW4 2031   0.464   0.030   0.687  0.2005 -0.6193 -0.4017
  479SOL     OW 2032   1.515   2.578   0.316 -0.0007  0.2102  0.6059
  479SOL    HW2 2033   1.531   2.606   0.406  3.1689 -0.8729  0.4271
  479SOL    HW3 2034   1.550   2.489   0.311  1.4739  0.8841 -2.1425
  479SOL    MW4 2035   1.522   2.570   0.327  0.6120  0.1564  0.2197
  480SOL     OW 2036   4.334   3.564   0.615 -0.1392 -0.4042 -0.5041
  480SOL    HW2 2037   4.337   3.660   0.614  0.9549 -0.4411 -0.9476
  480SOL    HW3 2038   4.420   3.537   0.582  0.5016 -1.5491  2.0327
  480SOL    MW4 2039   4.346   3.573   0.610  0.0896 -0.5605 -0.2279
  481SOL     OW 2040   1.057   0.811   0.851  0.2755  0.0236 -0.3362
  481SOL    HW2 2041   1.065   0.722   0.816  0.7450  0.1397 -0.5314
  481SOL    HW3 2042   1.092   0.806   0.939  0.6016  0.0860 -0.4626
  481SOL    MW4 2043   1.062   0.798   0.858  0.3805  0.0471 -0.3787
  482SOL     OW 2044   2.750   3.319   0.447 -0.4941  0.0283 -0.1187
  482SOL    HW2 2045   2.807   3.343   0.520 -0.4207 -1.0077  0.1803
  482SOL    HW3 2046   2.677   3.380   0.451 -1.1516 -0.8539  1.6216
  482SOL    MW4 2047   2.748   3.330   0.457 -0.5710 -0.2246  0.1504
  483SOL     OW 2048   3.252   1.923   0.882 -0.0451  0.1212 -0.1013
  483SOL    HW2 2049   3.193   1.932   0.957 -0.1394 -0.3061 -0.1222
  483SOL    HW3 2050   3.245   2.007   0.836 -0.2460  0.2594  0.1820
  483SOL    MW4 2051   3.243   1.936   0.886 -0.0839  0.0831 -0.0666
  484SOL     OW 2052   3.276   3.616   0.632 -0.2663 -0.1670  0.0651
  484SOL    HW2 2053   3.314   3.694   0.672  0.2775 -0.3817 -0.0278
  484SOL    HW3 2054   3.289   3.630   0.538 -0.4224 -0.2377  0.0339
  484SOL    MW4 2055   3.283   3.628   0.625 -0.2151 -0.2046  0.0488
  485SOL     OW 2056   2.982   0.122   0.493 -0.6726 -0.5177  0.4026
  485SOL    HW2 2057   2.889   0.123   0.516 -0.5467 -0.5717  0.9199
  485SOL    HW3 2058   2.998   0.031   0.466 -0.3084 -1.0449  2.2696
  485SOL    MW4 2059   2.971   0.110   0.493 -0.6077 -0.5945  0.7172
  486SOL     OW 2060   0.239   3.094   0.778 -0.1278  0.5724  0.1529
  486SOL    HW2 2061   0.227   3.087   0.873 -1.0422  1.0112  0.0668
  486SOL    HW3 2062   0.241   3.003   0.748  0.4692  0.4239  0.6291
  486SOL    MW4 2063   0.238   3.081   0.787 -0.1697  0.6111  0.2044
  487SOL     OW 2064   1.873   1.966   0.426 -0.0211  0.0358  0.1351
  487SOL    HW2 2065   1.948   1.915   0.395  0.2845  0.3325  0.3732
  487SOL    HW3 2066   1.900   1.998   0.512 -0.0070  1.0030 -0.2203
  487SOL    MW4 2067   1.887   1.964   0.433  0.0211  0.2024  0.1196
  488SOL     OW 2068   1.437   2.103   0.261  0.0599 -0.0924 -0.0384
  488SOL    HW2 2069   1.345   2.122   0.282  0.4920  2.6511 -0.4837
  488SOL    HW3 2070   1.435   2.079   0.168 -0.1088  0.6199 -0.2185
  488SOL    MW4 2071   1.424   2.102   0.252  0.0948  0.3636 -0.1209
  489SOL     OW 2072   2.044   1.270   0.412  0.2426  0.0162  0.0390
  489SOL    HW2 2073   2.140   1.267   0.408  0.2502  1.1153 -0.7465
  489SOL    HW3 2074   2.015   1.201   0.352  0.5359  0.1770 -0.2900
  489SOL    MW4 2075   2.053   1.261   0.404  0.2825  0.1824 -0.1080
  490SOL     OW 2076   3.790   2.901   0.926 -0.2646 -0.4149  0.1764
  490SOL    HW2 2077   3.778   2.954   1.005 -0.5096 -0.5575  0.2361
  490SOL    HW3 2078   3.707   2.854   0.916  0.1094 -1.1188  0.3697
  490SOL    MW4 2079   3.777   2.902   0.935 -0.2475 -0.5264  0.2097
  491SOL     OW 2080   0.182   4.636   1.060  0.0057 -0.4207 -0.2296
  491SOL    HW2 2081   0.259   4.681   1.094 -0.5130  1.2710 -1.2151
  491SOL    HW3 2082   0.196   4.634   0.965 -1.3723  0.3187 -0.4557
  491SOL    MW4 2083   0.194   4.642   1.052 -0.2445 -0.1001 -0.3896
  492SOL     OW 2084   0.020   0.385   1.098  0.0960  0.4908 -0.2623
  492SOL    HW2 2085  -0.065   0.421   1.124  0.2598  1.5967 -1.2163
  492SOL    HW3 2086   0.084   0.440   1.144  0.3298  0.9189 -1.0886
  492SOL    MW4 2087   0.018   0.397   1.107  0.1485  0.6932 -0.4971
  493SOL     OW 2088   0.249   0.542   1.186  0.0427  0.0450 -0.1864
  493SOL    HW2 2089   0.245   0.623   1.135  0.6747  0.5939  0.6382
  493SOL    HW3 2090   0.321   0.492   1.146  0.4641  0.4267  0.0972
  493SOL    MW4 2091   0.258   0.546   1.174  0.1817  0.1677 -0.0401
  494SOL     OW 2092   0.227   0.779   1.065 -0.6083 -0.2324  0.4575
  494SOL    HW2 2093   0.302   0.819   1.111 -0.7374  0.9460 -0.3360
  494SOL    HW3 2094   0.150   0.822   1.102 -0.8258 -0.6133  0.4522
  494SOL    MW4 2095   0.227   0.790   1.076 -0.6541 -0.1272  0.3521
  495SOL     OW 2096   1.584   3.108   0.327 -0.4288 -0.1133 -0.0460
  495SOL    HW2 2097   1.537   3.038   0.372  0.8043 -0.0364  1.3870
  495SOL    HW3 2098   1.541   3.188   0.356 -1.2729 -0.2100 -1.0032
  495SOL    MW4 2099   1.572   3.109   0.336 -0.3775 -0.1161  0.0167
  496SOL     OW 2100   3.921   3.505   0.834 -0.0793  0.2193 -1.0713
  496SOL    HW2 2101   3.836   3.464   0.822 -0.0388 -0.0025 -0.6212
  496SOL    HW3 2102   3.982   3.448   0.788  0.0831 -0.6494  0.1877
  496SOL    MW4 2103   3.918   3.492   0.827 -0.0527  0.0753 -0.8458
  497SOL     OW 2104   0.927   2.595   0.857 -0.2794  0.2222  0.4602
  497SOL    HW2 2105   0.961   2.673   0.813  2.2528  0.0331  1.9796
  497SOL    HW3 2106   0.903   2.625   0.945  2.0393 -0.9391  1.5360
  497SOL    MW4 2107   0.928   2.609   0.863  0.3606  0.0439  0.8026
  498SOL     OW 2108   0.207   1.271   1.253 -0.4902 -0.1436 -0.3858
  498SOL    HW2 2109   0.275   1.222   1.207 -0.2711 -0.6043  0.4181
  498SOL    HW3 2110   0.125   1.245   1.211 -0.2122  0.1070 -1.0917
  498SOL    MW4 2111   0.205   1.261   1.241 -0.4246 -0.1713 -0.3728
  499SOL     OW 2112   3.633   1.620   0.480  0.4198 -0.2204 -0.2620
  499SOL    HW2 2113   3.681   1.543   0.451 -0.3168 -1.0276  0.5974
  499SOL    HW3 2114   3.670   1.692   0.430  1.7491 -0.9928 -0.4253
  499SOL    MW4 2115   3.644   1.619   0.470  0.4978 -0.4287 -0.1701
  500SOL     OW 2116   0.048   1.667   1.234  0.1538  0.0268  0.9456
  500SOL    HW2 2117   0.037   1.739   1.172  1.6254 -0.2945  0.2787
  500SOL    HW3 2118   0.103   1.604   1.187 -0.6674 -1.2797  1.7277
  500SOL    MW4 2119   0.054   1.668   1.220  0.2396 -0.1880  0.9607
  501SOL     OW 2120   4.480   1.876   1.041 -0.5623  0.3914  0.2983
  501SOL    HW2 2121   4.478   1.917   0.955  0.7233 -1.4402 -0.6429
  501SOL    HW3 2122   4.418   1.926   1.093 -0.2400  2.4857 -1.2604
  501SOL    MW4 2123   4.472   1.888   1.037 -0.3495  0.4259 -0.0315
  502SOL     OW 2124   0.187   2.035   1.183  1.0714  0.0435 -0.3169
  502SOL    HW2 2125   0.182   2.113   1.128 -1.2559 -0.1006 -0.3800
  502SOL    HW3 2126   0.127   1.973   1.142  1.2502 -0.9912  0.9407
  502SOL    MW4 2127   0.178   2.037   1.171  0.7879 -0.1121 -0.1594
  503SOL     OW 2128   0.186   2.281   1.066 -0.6972 -0.0760  0.0298
  503SOL    HW2 2129   0.272   2.311   1.095 -0.8802 -1.1376  1.7951
  503SOL    HW3 2130   0.124   2.333   1.117 -1.0598 -0.4029 -0.0697
  503SOL    MW4 2131   0.189   2.292   1.077 -0.7692 -0.2589  0.2495
  504SOL     OW 2132   0.001   2.460   1.168 -0.1394  0.1402  0.0586
  504SOL    HW2 2133  -0.012   2.463   1.262 -0.4294  0.1958  0.0172
  504SOL    HW3 2134  -0.060   2.394   1.136 -0.3881  0.4693 -0.1475
  504SOL    MW4 2135  -0.009   2.452   1.176 -0.2108  0.1910  0.0260
  505SOL     OW 2136   4.463   2.719   1.083 -0.4100  0.0312  0.1545
  505SOL    HW2 2137   4.480   2.629   1.111  0.4206  0.5577  1.4191
  505SOL    HW3 2138   4.405   2.755   1.151 -1.9926 -0.0083 -1.1563
  505SOL    MW4 2139   4.458   2.712   1.096 -0.5093  0.0954  0.1484
  506SOL     OW 2140   0.215   3.085   1.058  0.1208 -0.2986 -0.2910
  506SOL    HW2 2141   0.284   3.140   1.095 -1.4285  1.2759  0.2885
  506SOL    HW3 2142   0.229   2.999   1.099  1.5501  0.0740  0.0260
  506SOL    MW4 2143   0.226   3.081   1.068  0.1050 -0.0417 -0.1727
  507SOL     OW 2144   1.308   2.956   0.692  0.1523  0.5899  0.0441
  507SOL    HW2 2145   1.322   2.940   0.599  0.2068  0.7678  0.0219
  507SOL    HW3 2146   1.389   2.997   0.722  1.1037 -1.6905  0.6965
  507SOL    MW4 2147   1.321   2.959   0.684  0.2851  0.3126  0.1272
  508SOL     OW 2148   0.011   3.223   1.195 -0.0054  0.4056  0.5801
  508SOL    HW2 2149  -0.063   3.199   1.139  0.7092  0.9210 -0.5810
  508SOL    HW3 2150   0.088   3.191   1.149  0.5307  0.1073  1.6658
  508SOL    MW4 2151   0.011   3.216   1.182  0.1597  0.4344  0.5702
  509SOL     OW 2152   4.290   3.621   1.184 -0.3551  0.4750 -0.3560
  509SOL    HW2 2153   4.356   3.588   1.123  0.3818  0.8107  0.2504
  509SOL    HW3 2154   4.210   3.574   1.160  0.1420 -0.0684 -0.9827
  509SOL    MW4 2155   4.288   3.610   1.173 -0.1922  0.4475 -0.3587
  510SOL     OW 2156   0.202   3.623   1.153  0.2206  0.0171  0.2628
  510SOL    HW2 2157   0.195   3.653   1.243 -1.3407  1.8130 -0.3980
  510SOL    HW3 2158   0.117   3.582   1.135  0.5885 -0.4919 -0.3423
  510SOL    MW4 2159   0.190   3.622   1.162  0.0632  0.1867  0.0958
  511SOL     OW 2160   0.225   3.882   0.986 -0.1791 -0.2747  0.5547
  511SOL    HW2 2161   0.152   3.932   1.021 -1.4841 -1.0595 -0.9463
  511SOL    HW3 2162   0.209   3.792   1.017 -0.1368 -0.5418 -0.1889
  511SOL    MW4 2163   0.213   3.876   0.995 -0.3457 -0.4134  0.2585
  512SOL     OW 2164   4.259   3.888   1.069 -0.5067  0.2051  0.5486
  512SOL    HW2 2165   4.258   3.860   0.977  0.5213 -0.9945  0.8986
  512SOL    HW3 2166   4.262   3.807   1.119  1.5880  0.9025  1.5946
  512SOL    MW4 2167   4.259   3.874   1.063 -0.0944  0.1390  0.7328
  513SOL     OW 2168   4.485   4.281   1.038  0.4113  0.5391  0.0647
  513SOL    HW2 2169   4.565   4.324   1.068 -0.2383  0.3719  2.1042
  513SOL    HW3 2170   4.485   4.196   1.083 -0.5080  0.2016 -0.5452
  513SOL    MW4 2171   4.495   4.275   1.048  0.2043  0.4725  0.2532
  514SOL     OW 2172   0.235   4.378   1.153 -0.8835  0.6848 -0.3654
  514SOL    HW2 2173   0.241   4.381   1.248 -0.4856 -0.8576 -0.3301
  514SOL    HW3 2174   0.230   4.470   1.126  0.0904  1.1688  1.0746
  514SOL    MW4 2175   0.235   4.391   1.162 -0.7025  0.5450 -0.1706
  515SOL     OW 2176   1.782   0.137   0.708 -0.5481 -0.0010  0.2246
  515SOL    HW2 2177   1.713   0.092   0.758 -0.9667  0.7122  0.3001
  515SOL    HW3 2178   1.769   0.108   0.618 -1.3406  0.5996  0.1368
  515SOL    MW4 2179   1.771   0.127   0.703 -0.7079  0.1724  0.2230
  516SOL     OW 2180   0.645   4.604   1.102 -0.1009  0.1194  0.0604
  516SOL    HW2 2181   0.710   4.656   1.151  1.1041  0.4081 -1.7788
  516SOL    HW3 2182   0.656   4.515   1.135  1.0275  0.2273  0.0121
  516SOL    MW4 2183   0.655   4.599   1.113  0.2069  0.1721 -0.1886
  517SOL     OW 2184   3.034   0.573   0.480  0.0349 -0.0995 -0.3157
  517SOL    HW2 2185   3.058   0.491   0.436 -1.0199 -1.0286  0.8281
  517SOL    HW3 2186   2.953   0.600   0.438  1.1943  1.2243 -1.7867
  517SOL    MW4 2187   3.027   0.565   0.469  0.0489 -0.0474 -0.3589
  518SOL     OW 2188   0.636   0.739   1.104 -0.3048 -0.3546  0.1638
  518SOL    HW2 2189   0.634   0.735   1.008  0.1626  0.4732  0.1189
  518SOL    HW3 2190   0.723   0.771   1.125 -0.7326  0.3829  0.8409
  518SOL    MW4 2191   0.647   0.743   1.094 -0.2995 -0.1482  0.2472
  519SOL     OW 2192   3.550   0.135   0.666 -0.0571 -0.0093  0.0165
  519SOL    HW2 2193   3.550   0.223   0.704  0.6491 -0.6333  1.5014
  519SOL    HW3 2194   3.482   0.088   0.714 -0.9194 -0.0869 -1.2579
  519SOL    MW4 2195   3.541   0.141   0.678 -0.0780 -0.1018  0.0442
  520SOL     OW 2196   0.009   0.920   1.180 -0.1601  0.0825 -0.1540
  520SOL    HW2 2197  -0.073   0.880   1.150  0.2262 -1.0165  0.2529
  520SOL    HW3 2198   0.007   0.910   1.275 -0.3083  1.5327  0.0173
  520SOL    MW4 2199  -0.002   0.914   1.188 -0.1287  0.1289 -0.0777
  521SOL     OW 2200   0.098   3.930   0.223  0.0402 -0.2407  0.0381
  521SOL    HW2 2201   0.164   3.882   0.273 -1.1723 -2.3737 -0.3412
  521SOL    HW3 2202   0.112   3.904   0.132 -0.5674  0.2015 -0.1885
  521SOL    MW4 2203   0.109   3.920   0.218 -0.1999 -0.4642 -0.0418
  522SOL     OW 2204   0.643   1.302   1.200 -0.0993 -0.1473  0.3904
  522SOL    HW2 2205   0.574   1.256   1.153  0.5064 -0.6524  0.0055
  522SOL    HW3 2206   0.722   1.251   1.184  0.5153  0.8571  0.1955
  522SOL    MW4 2207   0.644   1.290   1.192  0.0616 -0.0815  0.3139
  523SOL     OW 2208   0.427   1.657   1.222  0.0707  0.6482  0.4557
  523SOL    HW2 2209   0.437   1.676   1.315  0.5225 -0.0043  0.5449
  523SOL    HW3 2210   0.441   1.741   1.179 -0.8016  1.0918  1.0108
  523SOL    MW4 2211   0.430   1.670   1.229  0.0153  0.6206  0.5406
  524SOL     OW 2212   0.240   1.493   1.097  0.2728 -0.0731 -0.1427
  524SOL    HW2 2213   0.219   1.410   1.141 -0.6836  0.5748  0.6457
  524SOL    HW3 2214   0.304   1.535   1.155 -0.1914  0.3038  0.0981
  524SOL    MW4 2215   0.246   1.487   1.111  0.0854  0.0622 -0.0068
  525SOL     OW 2216   0.437   1.918   1.098  0.5773 -0.1109  0.1739
  525SOL    HW2 2217   0.420   1.935   1.005  0.0859  1.8541  0.5961
  525SOL    HW3 2218   0.367   1.966   1.144  1.1795 -0.5560  1.5786
  525SOL    MW4 2219   0.425   1.927   1.092  0.5919  0.0896  0.4150
  526SOL     OW 2220   0.657   2.059   1.182 -0.2125  0.2417  0.2825
  526SOL    HW2 2221   0.640   2.070   1.275  1.7624 -0.8014  0.7902
  526SOL    HW3 2222   0.574   2.027   1.146 -1.1514  1.1889  1.5653
  526SOL    MW4 2223   0.644   2.056   1.189 -0.0758  0.2291  0.5187
  527SOL     OW 2224   0.696   2.304   1.088 -0.3987 -0.0832 -0.2162
  527SOL    HW2 2225   0.606   2.334   1.100 -0.8003 -0.9729 -0.9958
  527SOL    HW3 2226   0.695   2.213   1.117 -0.1955 -0.6777 -2.0289
  527SOL    MW4 2227   0.684   2.296   1.094 -0.4249 -0.2789 -0.5584
  528SOL     OW 2228   0.438   2.398   1.151  0.3124 -0.5194 -0.2356
  528SOL    HW2 2229   0.446   2.408   1.246 -0.6875 -0.4679 -0.1550
  528SOL    HW3 2230   0.443   2.488   1.117  0.3746 -0.5132 -0.2104
  528SOL    MW4 2231   0.440   2.411   1.159  0.1886 -0.5119 -0.2216
  529SOL     OW 2232   0.222   2.815   1.157  0.8023 -0.2903 -0.0913
  529SOL    HW2 2233   0.226   2.809   1.253 -0.5499 -2.1141 -0.1235
  529SOL    HW3 2234   0.131   2.792   1.136  1.6235 -1.9551 -1.9486
  529SOL    MW4 2235   0.210   2.811   1.167  0.7323 -0.7508 -0.3406
  530SOL     OW 2236   0.623   2.792   1.249 -0.0487 -0.6640  0.1802
  530SOL    HW2 2237   0.642   2.875   1.205 -0.5460 -0.5128  0.2431
  530SOL    HW3 2238   0.561   2.747   1.190 -0.4059 -0.6352  0.5310
  530SOL    MW4 2239   0.617   2.797   1.235 -0.1614 -0.6404  0.2348
  531SOL     OW 2240   0.658   3.019   1.101  0.2341 -0.1369 -0.2341
  531SOL    HW2 2241   0.738   3.072   1.103 -1.2475  2.2346 -1.4104
  531SOL    HW3 2242   0.642   3.001   1.008  0.1187 -1.7562  0.0814
  531SOL    MW4 2243   0.666   3.024   1.089  0.0234 -0.0374 -0.3476
  532SOL     OW 2244   0.449   3.202   1.168 -0.1327  0.4760  0.5370
  532SOL    HW2 2245   0.448   3.285   1.120 -0.8769 -1.3710 -2.7354
  532SOL    HW3 2246   0.529   3.158   1.141 -0.8752 -0.8783  0.4691
  532SOL    MW4 2247   0.459   3.207   1.158 -0.3289  0.0536  0.0962
  533SOL     OW 2248   0.389   3.453   1.040 -0.2092  0.2021 -0.0481
  533SOL    HW2 2249   0.468   3.493   1.074  0.2250 -0.6244 -0.0722
  533SOL    HW3 2250   0.318   3.507   1.074  0.3698  1.0946 -0.2333
  533SOL    MW4 2251   0.390   3.465   1.049 -0.0756  0.2110 -0.0757
  534SOL     OW 2252   0.637   3.542   1.149  0.1154 -0.1425  0.4053
  534SOL    HW2 2253   0.634   3.549   1.245 -1.2671  0.8011  0.3080
  534SOL    HW3 2254   0.642   3.633   1.120  0.8154 -0.4406 -0.4297
  534SOL    MW4 2255   0.637   3.555   1.158  0.0253 -0.0572  0.2823
  535SOL     OW 2256   0.849   3.973   1.210 -0.4322  0.3018 -0.1353
  535SOL    HW2 2257   0.846   3.975   1.305 -1.0938  1.4090 -0.1674
  535SOL    HW3 2258   0.799   3.895   1.185  0.4524 -0.4515  0.4420
  535SOL    MW4 2259   0.842   3.963   1.219 -0.4028  0.3486 -0.0634
  536SOL     OW 2260   0.439   3.963   1.163  0.0032  0.0376 -0.0397
  536SOL    HW2 2261   0.465   4.054   1.150  1.3631 -0.3831 -0.3832
  536SOL    HW3 2262   0.373   3.946   1.096 -1.1807  1.1279  0.8307
  536SOL    MW4 2263   0.434   3.973   1.153  0.0264  0.1261  0.0299
  537SOL     OW 2264   0.463   4.237   1.055  0.0102 -0.0071 -0.2567
  537SOL    HW2 2265   0.383   4.276   1.090  0.7054 -0.8203  2.3679
  537SOL    HW3 2266   0.533   4.288   1.095  0.8414 -0.6892 -0.8333
  537SOL    MW4 2267   0.462   4.249   1.065  0.2116 -0.2046  0.0135
  538SOL     OW 2268   0.676   4.335   1.173 -0.5838 -0.0468  0.0256
  538SOL    HW2 2269   0.661   4.315   1.265 -0.3853  0.6600  0.2089
  538SOL    HW3 2270   0.758   4.291   1.152  0.9045  2.1937  0.9615
  538SOL    MW4 2271   0.685   4.326   1.182 -0.3613  0.3424  0.1733
  539SOL     OW 2272   1.070   4.607   1.070 -0.2686  0.1418 -0.4468
  539SOL    HW2 2273   1.096   4.528   1.118 -2.2000 -0.3700 -0.2092
  539SOL    HW3 2274   1.075   4.582   0.978  1.1013  0.3895 -0.4560
  539SOL    MW4 2275   1.074   4.593   1.064 -0.3426  0.1063 -0.4166
  540SOL     OW 2276   0.866   0.072   1.209 -0.0467 -0.2647 -0.3342
  540SOL    HW2 2277   0.933   0.015   1.172 -0.4565 -0.8276 -0.2197
  540SOL    HW3 2278   0.873   0.060   1.303 -1.1155 -1.2679 -0.3678
  540SOL    MW4 2279   0.876   0.062   1.216 -0.2418 -0.4713 -0.3235
  541SOL     OW 2280   0.870   0.317   1.117 -0.6890  0.3419  0.0744
  541SOL    HW2 2281   0.870   0.224   1.141 -0.1039  0.1481 -0.6642
  541SOL    HW3 2282   0.793   0.353   1.162 -1.7088 -0.7839 -0.7285
  541SOL    MW4 2283   0.860   0.309   1.127 -0.7464  0.1678 -0.1289
  542SOL     OW 2284   1.100   0.452   1.195  0.1836 -0.1746 -0.5048
  542SOL    HW2 2285   1.111   0.442   1.289 -0.5310  0.1720 -0.3802
  542SOL    HW3 2286   1.018   0.407   1.176 -0.0802  0.4380 -0.8343
  542SOL    MW4 2287   1.090   0.445   1.205  0.0545 -0.0481 -0.5319
  543SOL     OW 2288   1.104   0.747   1.124  0.0278 -0.0337  0.2667
  543SOL    HW2 2289   1.016   0.765   1.155 -0.3035 -0.2012 -0.5849
  543SOL    HW3 2290   1.113   0.652   1.133 -0.0507 -0.0763 -0.1013
  543SOL    MW4 2291   1.094   0.737   1.130 -0.0262 -0.0615  0.1059
  544SOL     OW 2292   0.862   0.865   1.172 -0.4079  0.5653 -0.3654
  544SOL    HW2 2293   0.871   0.957   1.147  0.3867  1.1552  1.9443
  544SOL    HW3 2294   0.862   0.867   1.268 -0.6792 -1.8198 -0.3020
  544SOL    MW4 2295   0.863   0.878   1.181 -0.3388  0.3284 -0.0522
  545SOL     OW 2296   0.839   1.136   1.110 -0.1394 -0.1445 -0.1965
  545SOL    HW2 2297   0.921   1.173   1.143 -0.8601  0.0040  1.4765
  545SOL    HW3 2298   0.832   1.169   1.021  3.1842 -2.6528 -1.5236
  545SOL    MW4 2299   0.849   1.145   1.102  0.2041 -0.4559 -0.1508
  546SOL     OW 2300   1.055   1.268   1.212 -0.1683 -0.1852  0.3822
  546SOL    HW2 2301   1.063   1.272   1.308 -0.8980 -1.0352  0.4849
  546SOL    HW3 2302   1.144   1.249   1.181  0.3602  1.5837  0.7951
  546SOL    MW4 2303   1.068   1.266   1.221 -0.1949 -0.0639  0.4503
  547SOL     OW 2304   1.308   1.237   0.852  0.3266 -0.1016  0.0527
  547SOL    HW2 2305   1.390   1.258   0.807  0.4512 -0.7417 -0.0157
  547SOL    HW3 2306   1.243   1.294   0.809  0.2977 -1.2717 -1.4928
  547SOL    MW4 2307   1.310   1.247   0.840  0.3394 -0.3406 -0.1602
  548SOL     OW 2308   0.900   1.947   1.073  0.4956 -0.3519 -0.2952
  548SOL    HW2 2309   0.975   1.989   1.115 -0.0823  0.1597  0.2313
  548SOL    HW3 2310   0.825   1.971   1.128  0.0980 -1.7355 -0.1977
  548SOL    MW4 2311   0.900   1.955   1.086  0.3669 -0.4669 -0.2129
  549SOL     OW 2312   4.057   0.781   0.204 -0.2078 -0.6108 -0.2001
  549SOL    HW2 2313   4.145   0.811   0.227 -0.2255 -1.1201  0.5282
  549SOL    HW3 2314   4.049   0.801   0.110  1.0088 -1.3691 -0.4677
  549SOL    MW4 2315   4.068   0.788   0.195 -0.0501 -0.7781 -0.1393
  550SOL     OW 2316   1.135   2.046   1.190  0.0738 -0.2559 -0.2072
  550SOL    HW2 2317   1.131   2.060   1.284 -1.7721 -0.0246 -0.2978
  550SOL    HW3 2318   1.152   2.132   1.152  0.2966 -0.2609 -0.1185
  550SOL    MW4 2319   1.136   2.059   1.197 -0.1404 -0.2260 -0.2075
  551SOL     OW 2320   1.170   2.304   1.062 -0.2679  0.5877 -0.0328
  551SOL    HW2 2321   1.253   2.334   1.101 -0.1857  0.4083 -0.0669
  551SOL    HW3 2322   1.102   2.339   1.120 -0.1216 -0.1511  0.5954
  551SOL    MW4 2323   1.172   2.313   1.075 -0.2378  0.4666  0.0454
  552SOL     OW 2324   0.948   2.399   1.198 -0.2020 -0.2523  0.2652
  552SOL    HW2 2325   0.922   2.402   1.290 -0.0787 -1.3010  0.3432
  552SOL    HW3 2326   0.873   2.360   1.153  0.2791 -1.0443  0.1349
  552SOL    MW4 2327   0.935   2.394   1.204 -0.1222 -0.4952  0.2582
  553SOL     OW 2328   0.902   2.680   1.118  0.3140  0.0206 -0.1763
  553SOL    HW2 2329   0.825   2.702   1.170  0.3827 -0.5763  0.1843
  553SOL    HW3 2330   0.928   2.593   1.149  1.2223  0.2767 -0.1817
  553SOL    MW4 2331   0.896   2.671   1.129  0.4429 -0.0243 -0.1293
  554SOL     OW 2332   1.137   2.799   1.167  0.3059  0.1614 -0.2151
  554SOL    HW2 2333   1.140   2.798   1.263  0.6181  0.4307 -0.2220
  554SOL    HW3 2334   1.055   2.754   1.145  0.4545 -0.2919  0.1646
  554SOL    MW4 2335   1.126   2.793   1.177  0.3667  0.1371 -0.1659
  555SOL     OW 2336   1.091   3.069   1.110  0.0698 -0.2806  0.1941
  555SOL    HW2 2337   1.045   3.053   1.027  0.4612 -0.9547  0.1050
  555SOL    HW3 2338   1.123   2.983   1.136  0.5537  0.0528  0.6937
  555SOL    MW4 2339   1.089   3.056   1.102  0.1854 -0.3254  0.2482
  556SOL     OW 2340   0.914   0.341   0.824  0.0518 -0.2817  0.2851
  556SOL    HW2 2341   0.839   0.400   0.820  0.4112  0.1265 -0.4800
  556SOL    HW3 2342   0.921   0.318   0.917 -0.3365  0.5509  0.5285
  556SOL    MW4 2343   0.905   0.346   0.836  0.0479 -0.1179  0.2163
  557SOL     OW 2344   0.661   1.565   1.095  0.4189 -0.3319 -0.1338
  557SOL    HW2 2345   0.570   1.591   1.111  0.6959  0.3322  0.3668
  557SOL    HW3 2346   0.672   1.483   1.142  0.1271 -0.3335 -0.0686
  557SOL    MW4 2347   0.651   1.558   1.103  0.4169 -0.2444 -0.0591
  558SOL     OW 2348   0.945   1.495   0.394  0.4311  0.5384  0.1228
  558SOL    HW2 2349   0.998   1.569   0.364  1.2946  0.1548  0.6657
  558SOL    HW3 2350   0.899   1.528   0.471 -0.4573  0.9996 -0.5915
  558SOL    MW4 2351   0.946   1.509   0.400  0.4279  0.5487  0.1002
  559SOL     OW 2352   2.278   4.494   0.127 -0.1696  0.5837 -0.2673
  559SOL    HW2 2353   2.224   4.474   0.051 -2.1748 -1.0598  1.5154
  559SOL    HW3 2354   2.279   4.413   0.178  0.6903  1.7920  1.7208
  559SOL    MW4 2355   2.271   4.481   0.124 -0.3209  0.5264  0.2302
  560SOL     OW 2356   0.907   4.204   1.089  0.0990 -0.7282 -0.3497
  560SOL    HW2 2357   0.923   4.195   0.995  1.1910 -1.4386 -0.0953
  560SOL    HW3 2358   0.872   4.119   1.116  0.1456 -0.6513 -0.0431
  560SOL    MW4 2359   0.904   4.192   1.080  0.2493 -0.8116 -0.2757
  561SOL     OW 2360   2.488   3.098   0.803  0.3321 -0.0137  0.2010
  561SOL    HW2 2361   2.583   3.100   0.795  0.4416 -0.0290  1.4967
  561SOL    HW3 2362   2.471   3.096   0.897 -0.9414 -0.6390 -0.0312
  561SOL    MW4 2363   2.498   3.098   0.814  0.1783 -0.0980  0.3413
  562SOL     OW 2364   1.127   4.364   1.185  0.1116  0.4043  0.3563
  562SOL    HW2 2365   1.130   4.361   1.281 -0.5640 -0.0844  0.3683
  562SOL    HW3 2366   1.042   4.324   1.163  1.1718 -1.4235 -0.5295
  562SOL    MW4 2367   1.116   4.358   1.195  0.1625  0.0982  0.2410
  563SOL     OW 2368   1.569   4.408   1.259 -0.2239 -0.4120  0.2168
  563SOL    HW2 2369   1.647   4.373   1.217 -0.0797  0.8993 -0.6116
  563SOL    HW3 2370   1.585   4.397   1.353 -0.4157 -3.0650 -0.0065
  563SOL    MW4 2371   1.581   4.402   1.266 -0.2302 -0.5889  0.0781
  564SOL     OW 2372   1.299   0.064   1.193 -0.3376 -0.2207 -0.3384
  564SOL    HW2 2373   1.389   0.039   1.174 -0.7840 -1.2448 -1.1325
  564SOL    HW3 2374   1.246   0.016   1.129 -1.3411  1.4675 -0.8192
  564SOL    MW4 2375   1.304   0.055   1.182 -0.5288 -0.1331 -0.5066
  565SOL     OW 2376   1.503   0.488   1.213  0.0252 -0.4862 -0.2757
  565SOL    HW2 2377   1.430   0.430   1.188 -0.8173 -0.3082  1.6247
  565SOL    HW3 2378   1.491   0.567   1.161 -0.5429 -0.8771 -0.7398
  565SOL    MW4 2379   1.492   0.490   1.203 -0.1609 -0.5143 -0.0863
  566SOL     OW 2380   1.298   0.309   1.067  0.1041  0.1133  0.2651
  566SOL    HW2 2381   1.303   0.221   1.107 -0.3818 -0.1927 -0.3542
  566SOL    HW3 2382   1.214   0.343   1.096 -0.5418 -0.3656 -1.0266
  566SOL    MW4 2383   1.288   0.302   1.076 -0.0452  0.0097  0.0130
  567SOL     OW 2384   3.997   2.521   0.764 -0.0374 -0.0595 -0.4378
  567SOL    HW2 2385   3.927   2.457   0.774  0.9232 -1.2639 -1.2488
  567SOL    HW3 2386   4.077   2.472   0.786  0.5617  1.2870  0.4837
  567SOL    MW4 2387   3.999   2.506   0.768  0.1683 -0.0408 -0.4232
  568SOL     OW 2388   1.512   0.750   1.070  0.1252  0.8455 -0.8072
  568SOL    HW2 2389   1.593   0.774   1.115 -0.3142  0.6571  0.1016
  568SOL    HW3 2390   1.447   0.814   1.100 -1.0035 -1.2804  1.5048
  568SOL    MW4 2391   1.514   0.761   1.080 -0.0817  0.5402 -0.3822
  569SOL     OW 2392   1.549   1.306   1.150 -0.0768 -0.3415 -0.0874
  569SOL    HW2 2393   1.592   1.229   1.112 -0.1482  0.5866 -2.1107
  569SOL    HW3 2394   1.455   1.286   1.144 -0.1055  0.0473 -0.9201
  569SOL    MW4 2395   1.542   1.293   1.144 -0.0900 -0.1676 -0.4641
  570SOL     OW 2396   1.749   1.106   1.067  0.0088  0.0401  0.1943
  570SOL    HW2 2397   1.758   1.013   1.088  0.2215  0.2731  1.1900
  570SOL    HW3 2398   1.751   1.110   0.972  0.6370 -0.9179  0.1611
  570SOL    MW4 2399   1.750   1.094   1.057  0.1197 -0.0554  0.3213
  571SOL     OW 2400   1.563   1.545   1.035  0.0500 -0.1801  0.2463
  571SOL    HW2 2401   1.487   1.583   1.079  1.4913 -0.0335  2.7364
  571SOL    HW3 2402   1.572   1.458   1.073  0.4002 -0.6664 -0.9256
  571SOL    MW4 2403   1.554   1.539   1.046  0.2865 -0.2249  0.4201
  572SOL     OW 2404   1.339   1.655   1.160  0.1312  0.0016  0.2002
  572SOL    HW2 2405   1.255   1.613   1.142 -0.8231  1.8712  0.1472
  572SOL    HW3 2406   1.350   1.647   1.255  0.1580 -0.7184  0.1374
  572SOL    MW4 2407   1.329   1.648   1.170  0.0089  0.1534  0.1849
  573SOL     OW 2408   1.364   1.908   1.058 -0.7679 -0.3987 -0.2761
  573SOL    HW2 2409   1.288   1.935   1.109  0.0143  0.6758  0.3180
  573SOL    HW3 2410   1.380   1.817   1.086 -2.3649 -0.9465 -1.0627
  573SOL    MW4 2411   1.356   1.899   1.068 -0.8751 -0.3291 -0.3014
  574SOL     OW 2412   1.588   2.042   1.149  0.0893  0.4571 -0.2274
  574SOL    HW2 2413   1.577   2.065   1.241 -0.0169 -1.8432  0.3450
  574SOL    HW3 2414   1.505   2.000   1.125  0.6062 -0.1052 -1.0290
  574SOL    MW4 2415   1.575   2.040   1.158  0.1435  0.0794 -0.2577
  575SOL     OW 2416   0.925   2.823   0.471 -0.0027 -0.4850 -0.0775
  575SOL    HW2 2417   0.957   2.735   0.453  0.2615 -0.6874  1.3266
  575SOL    HW3 2418   0.961   2.844   0.558 -1.1010  0.5027  0.1443
  575SOL    MW4 2419   0.934   2.814   0.480 -0.1128 -0.3815  0.1370
  576SOL     OW 2420   1.399   2.438   1.156  0.1693  0.1748  0.0539
  576SOL    HW2 2421   1.389   2.438   1.251  1.0193  0.0972  0.1478
  576SOL    HW3 2422   1.407   2.530   1.133 -0.4924  0.2187  0.0101
  576SOL    MW4 2423   1.399   2.450   1.166  0.1942  0.1702  0.0604
  577SOL     OW 2424   1.398   2.708   1.086 -0.2395 -0.4659 -0.0637
  577SOL    HW2 2425   1.462   2.774   1.113 -0.9353  0.9651 -1.8267
  577SOL    HW3 2426   1.314   2.743   1.114 -0.3705 -1.9102  1.4206
  577SOL    MW4 2427   1.396   2.722   1.093 -0.3487 -0.4678 -0.1004
  578SOL     OW 2428   1.560   3.145   1.066 -0.4243 -0.0244  0.2868
  578SOL    HW2 2429   1.649   3.179   1.069  0.0853 -1.2953  0.1563
  578SOL    HW3 2430   1.504   3.221   1.082  0.7521  0.4421  2.4873
  578SOL    MW4 2431   1.565   3.159   1.069 -0.2019 -0.1304  0.5598
  579SOL     OW 2432   1.583   2.888   1.204  0.3095 -0.0389  0.3597
  579SOL    HW2 2433   1.576   2.972   1.159 -1.0905 -1.0690 -1.4486
  579SOL    HW3 2434   1.667   2.852   1.175  0.6023  0.4223  0.6208
  579SOL    MW4 2435   1.593   2.894   1.194  0.1634 -0.1140  0.1556
  580SOL     OW 2436   1.319   3.280   1.163  0.1165  0.3548  0.6146
  580SOL    HW2 2437   1.338   3.278   1.257  0.6838  0.6487  0.5043
  580SOL    HW3 2438   1.228   3.250   1.157  0.5951 -1.2692  1.1189
  580SOL    MW4 2439   1.309   3.275   1.175  0.2545  0.1793  0.6665
  581SOL     OW 2440   1.345   3.553   1.030  0.0246  0.4561  0.6480
  581SOL    HW2 2441   1.347   3.459   1.046 -0.7950  0.4131  0.5105
  581SOL    HW3 2442   1.359   3.562   0.936  0.7977  0.5090  0.7649
  581SOL    MW4 2443   1.347   3.542   1.020  0.0185  0.4575  0.6453
  582SOL     OW 2444   1.572   3.686   1.203  0.0372 -0.3904 -0.4526
  582SOL    HW2 2445   1.577   3.770   1.157  1.3277 -1.7441 -2.8936
  582SOL    HW3 2446   1.487   3.650   1.176  0.1224 -0.5005 -0.5768
  582SOL    MW4 2447   1.561   3.692   1.193  0.2186 -0.5834 -0.7910
  583SOL     OW 2448   1.367   4.023   1.178  0.1078 -0.2593 -0.7563
  583SOL    HW2 2449   1.278   3.986   1.183  0.4062 -1.0085 -0.8646
  583SOL    HW3 2450   1.355   4.109   1.139 -0.9861  1.1324  2.5195
  583SOL    MW4 2451   1.353   4.029   1.174  0.0029 -0.1745 -0.3383
  584SOL     OW 2452   1.830   4.065   1.161  0.0233  0.1768 -0.1662
  584SOL    HW2 2453   1.821   4.063   1.256 -1.2952  0.8540 -0.2655
  584SOL    HW3 2454   1.766   4.002   1.129 -0.8912  1.3545 -0.6780
  584SOL    MW4 2455   1.821   4.057   1.169 -0.2713  0.4215 -0.2468
  585SOL     OW 2456   1.377   4.302   1.080  0.5516  0.1600  0.0584
  585SOL    HW2 2457   1.289   4.325   1.112 -0.7131 -1.5314 -2.0855
  585SOL    HW3 2458   1.435   4.325   1.153 -1.7793  0.3227  1.9349
  585SOL    MW4 2459   1.373   4.308   1.094  0.0772 -0.0415  0.0231
  586SOL     OW 2460   1.499   0.817   0.796  0.2265  0.4039 -0.5508
  586SOL    HW2 2461   1.494   0.788   0.887  2.0587  2.4022  0.2341
  586SOL    HW3 2462   1.421   0.871   0.783  1.2958  2.3101  0.6934
  586SOL    MW4 2463   1.488   0.821   0.806  0.6093  0.9190 -0.2830
  587SOL     OW 2464   1.689   0.982   0.444 -0.1600 -0.0021  0.1285
  587SOL    HW2 2465   1.697   0.956   0.536  0.3568 -0.4391 -0.0373
  587SOL    HW3 2466   1.631   1.059   0.446 -2.0534 -1.4138  0.5769
  587SOL    MW4 2467   1.682   0.989   0.456 -0.3415 -0.2460  0.1657
  588SOL     OW 2468   1.761   0.144   1.191  0.3196  0.5126 -0.1582
  588SOL    HW2 2469   1.753   0.234   1.162  2.0280  1.1365  1.1952
  588SOL    HW3 2470   1.844   0.114   1.154  1.2329  0.4866  1.8629
  588SOL    MW4 2471   1.771   0.152   1.182  0.6654  0.5915  0.2871
  589SOL     OW 2472   2.003   0.751   1.096 -0.3141 -0.1256  0.1629
  589SOL    HW2 2473   2.078   0.803   1.122 -1.4354  0.4450  2.3649
  589SOL    HW3 2474   2.025   0.662   1.123  0.1563 -0.2203 -0.5089
  589SOL    MW4 2475   2.016   0.746   1.103 -0.3998 -0.0628  0.3648
  590SOL     OW 2476   2.225   0.893   1.164  0.6721  0.3001  0.1451
  590SOL    HW2 2477   2.304   0.855   1.126  0.6617 -0.3456  0.7603
  590SOL    HW3 2478   2.219   0.980   1.124  0.9073 -0.1950 -0.9756
  590SOL    MW4 2479   2.235   0.900   1.154  0.7017  0.1495  0.0784
  591SOL     OW 2480   3.416   0.810   0.327 -0.3202 -0.3879  0.0817
  591SOL    HW2 2481   3.448   0.728   0.365  0.0690 -0.0266  0.5264
  591SOL    HW3 2482   3.351   0.842   0.388  0.2355  0.1418  0.4019
  591SOL    MW4 2483   3.412   0.803   0.340 -0.1957 -0.2702  0.1826
  592SOL     OW 2484   1.744   0.842   1.167 -0.0753  0.3050 -0.1284
  592SOL    HW2 2485   1.825   0.798   1.142 -0.4779 -0.6048  0.1315
  592SOL    HW3 2486   1.749   0.850   1.262  0.7788  2.4148 -0.3247
  592SOL    MW4 2487   1.755   0.837   1.176 -0.0156  0.4633 -0.1200
  593SOL     OW 2488   1.356   0.119   0.671  0.0813 -0.2189  0.0750
  593SOL    HW2 2489   1.335   0.206   0.703 -1.2245 -0.8512  0.9618
  593SOL    HW3 2490   1.390   0.133   0.583 -2.1014  1.0194 -0.5905
  593SOL    MW4 2491   1.358   0.132   0.664 -0.3788 -0.1389  0.1042
  594SOL     OW 2492   1.969   1.263   1.157 -0.3969 -0.1677 -0.1133
  594SOL    HW2 2493   2.045   1.221   1.116  0.1504 -0.3460  1.0673
  594SOL    HW3 2494   1.895   1.206   1.136 -0.0788 -0.3815 -0.6483
  594SOL    MW4 2495   1.969   1.250   1.149 -0.2828 -0.2195 -0.0281
  595SOL     OW 2496   1.990   1.538   1.132 -0.0361 -0.3316 -0.3848
  595SOL    HW2 2497   1.909   1.584   1.150  0.2655  0.0652 -0.0323
  595SOL    HW3 2498   1.971   1.446   1.154  0.4132  0.1734  2.3221
  595SOL    MW4 2499   1.977   1.532   1.138  0.0629 -0.2127  0.0188
  596SOL     OW 2500   1.761   1.664   1.173 -0.5667 -0.3206  0.2373
  596SOL    HW2 2501   1.681   1.648   1.124 -0.4409 -0.6822  0.1492
  596SOL    HW3 2502   1.800   1.740   1.130  0.5549 -1.8225 -1.5076
  596SOL    MW4 2503   1.756   1.672   1.161 -0.4022 -0.5665 -0.0046
  597SOL     OW 2504   1.811   1.913   1.058 -0.0049 -0.5581  0.1829
  597SOL    HW2 2505   1.750   1.965   1.109  1.6221  1.8881 -0.2681
  597SOL    HW3 2506   1.771   1.906   0.971  0.0712  0.5418  0.0531
  597SOL    MW4 2507   1.798   1.919   1.053  0.2199 -0.0904  0.1063
  598SOL     OW 2508   2.003   2.017   1.444  0.1533 -0.1688 -0.0010
  598SOL    HW2 2509   2.074   1.968   1.485  0.3440  1.9027  2.2337
  598SOL    HW3 2510   1.926   1.995   1.497  0.0347  1.1076  0.3593
  598SOL    MW4 2511   2.002   2.007   1.457  0.1631  0.2730  0.3414
  599SOL     OW 2512   2.058   2.356   1.109  0.4521  0.1939  0.4245
  599SOL    HW2 2513   2.039   2.263   1.124  0.6815 -0.0873 -0.9235
  599SOL    HW3 2514   1.974   2.400   1.122  0.1982 -0.2873  0.4184
  599SOL    MW4 2515   2.045   2.350   1.113  0.4485  0.0935  0.2459
  600SOL     OW 2516   2.286   2.491   1.177 -0.3727  0.0369  0.0017
  600SOL    HW2 2517   2.276   2.475   1.271 -0.9723 -0.7855 -0.1980
  600SOL    HW3 2518   2.206   2.456   1.138  0.3606 -0.6156 -0.9420
  600SOL    MW4 2519   2.274   2.484   1.184 -0.3550 -0.1578 -0.1490
  601SOL     OW 2520   1.633   2.302   1.045  0.0152  0.3962 -0.2386
  601SOL    HW2 2521   1.547   2.337   1.066 -0.0207  0.4533 -0.4837
  601SOL    HW3 2522   1.629   2.210   1.072  0.6967  1.0086  2.0970
  601SOL    MW4 2523   1.621   2.295   1.051  0.1005  0.4842  0.0373
  602SOL     OW 2524   2.057   2.855   1.221  0.5043  0.1049 -0.2738
  602SOL    HW2 2525   2.118   2.810   1.163  0.2069 -0.6786  0.0070
  602SOL    HW3 2526   2.051   2.944   1.187 -0.1590 -0.5189 -1.8238
  602SOL    MW4 2527   2.064   2.861   1.209  0.3774 -0.0808 -0.4413
  603SOL     OW 2528   2.048   3.128   1.104 -0.4086 -0.2017 -0.2442
  603SOL    HW2 2529   1.977   3.188   1.125  0.4189  0.6913  0.0236
  603SOL    HW3 2530   2.048   3.124   1.008  2.1637  3.4997 -0.5144
  603SOL    MW4 2531   2.038   3.135   1.094  0.0401  0.4046 -0.2446
  604SOL     OW 2532   1.802   3.240   1.167  0.0454 -0.2169 -0.1231
  604SOL    HW2 2533   1.799   3.232   1.262 -0.3296  0.5196 -0.0682
  604SOL    HW3 2534   1.810   3.334   1.151 -1.0704 -0.2276 -0.8316
  604SOL    MW4 2535   1.803   3.251   1.177 -0.1513 -0.1211 -0.2093
  605SOL     OW 2536   1.804   3.500   1.113  0.6115 -0.3760 -0.0824
  605SOL    HW2 2537   1.885   3.547   1.131  0.8098  0.4036 -2.7576
  605SOL    HW3 2538   1.735   3.555   1.150  1.1131  0.2727 -0.1071
  605SOL    MW4 2539   1.806   3.513   1.120  0.7039 -0.1872 -0.4385
  606SOL     OW 2540   2.030   3.649   1.184 -0.0923 -0.1479  0.1619
  606SOL    HW2 2541   2.033   3.650   1.280  0.6478  1.1852  0.1342
  606SOL    HW3 2542   2.103   3.591   1.159  0.9163  1.0207  0.3673
  606SOL    MW4 2543   2.040   3.641   1.193  0.1383  0.1822  0.1853
  607SOL     OW 2544   2.208   4.030   1.218 -0.4153  0.1228  0.0569
  607SOL    HW2 2545   2.214   4.108   1.162 -0.0644 -0.0152 -0.0924
  607SOL    HW3 2546   2.142   3.975   1.175 -0.7927  0.4144  0.2571
  607SOL    MW4 2547   2.200   4.033   1.205 -0.4187  0.1431  0.0637
  608SOL     OW 2548   3.853   0.176   0.429 -0.6930 -0.5387 -0.6165
  608SOL    HW2 2549   3.884   0.166   0.519 -0.4337 -0.2112 -0.6708
  608SOL    HW3 2550   3.832   0.269   0.420 -0.3942 -0.5046 -0.9969
  608SOL    MW4 2551   3.854   0.187   0.440 -0.6194 -0.4910 -0.6738
  609SOL     OW 2552   1.787   4.331   1.090 -0.2823  0.2344  0.3240
  609SOL    HW2 2553   1.809   4.240   1.112 -0.3948  0.2132  0.3435
  609SOL    HW3 2554   1.867   4.380   1.111  0.0462  0.0283 -0.4105
  609SOL    MW4 2555   1.801   4.325   1.095 -0.2538  0.2046  0.2297
  610SOL     OW 2556   2.019   4.469   1.173 -0.8461  0.1941 -0.1384
  610SOL    HW2 2557   2.010   4.464   1.268 -1.9080  0.6824 -0.2094
  610SOL    HW3 2558   2.010   4.562   1.152  0.4419  0.2180 -0.6197
  610SOL    MW4 2559   2.017   4.480   1.183 -0.8163  0.2613 -0.2114
  611SOL     OW 2560   2.439   4.628   1.113  0.2220  0.3239 -0.2187
  611SOL    HW2 2561   2.522   4.662   1.146 -1.1468  1.2163  2.4341
  611SOL    HW3 2562   2.442   4.645   1.019  2.2039  2.1995  0.1405
  611SOL    MW4 2563   2.450   4.635   1.105  0.3028  0.6886  0.1787
  612SOL     OW 2564   1.999   0.068   1.072 -0.3486 -0.3294 -0.0060
  612SOL    HW2 2565   2.084   0.093   1.110 -0.0131 -1.0775 -0.2456
  612SOL    HW3 2566   2.010   0.081   0.978 -0.9420  0.8347  0.0845
  612SOL    MW4 2567   2.012   0.073   1.065 -0.3824 -0.2745 -0.0256
  613SOL     OW 2568   0.147   0.571   0.444 -0.0643  0.1019 -0.6013
  613SOL    HW2 2569   0.169   0.555   0.536  0.1097  0.2703 -0.6141
  613SOL    HW3 2570   0.136   0.666   0.438  0.9833  0.2077 -0.9903
  613SOL    MW4 2571   0.148   0.581   0.455  0.0969  0.1380 -0.6543
  614SOL     OW 2572   2.252   0.379   1.068  0.3703  0.5742  0.5148
  614SOL    HW2 2573   2.305   0.430   1.130 -1.0810  0.7656  1.6481
  614SOL    HW3 2574   2.162   0.405   1.087 -0.2912 -1.2524  0.0312
  614SOL    MW4 2575   2.247   0.389   1.079  0.0916  0.3584  0.6005
  615SOL     OW 2576   2.421   0.769   1.037  0.0655 -0.4387 -0.1518
  615SOL    HW2 2577   2.424   0.687   1.086 -0.2941  0.3055  1.1352
  615SOL    HW3 2578   2.506   0.810   1.053  0.1564 -0.4426 -0.6082
  615SOL    MW4 2579   2.432   0.764   1.046  0.0300 -0.3411 -0.0423
  616SOL     OW 2580   0.619   0.735   0.801 -0.3587  0.2401 -0.1605
  616SOL    HW2 2581   0.555   0.799   0.770  0.7853  2.0304  1.0277
  616SOL    HW3 2582   0.703   0.769   0.772  0.2282 -1.1115 -0.0997
  616SOL    MW4 2583   0.622   0.748   0.793 -0.1303  0.2980  0.0043
  617SOL     OW 2584   2.206   1.134   1.046  0.5887 -0.4749 -0.6547
  617SOL    HW2 2585   2.282   1.161   1.097  1.2057 -1.4321 -1.0503
  617SOL    HW3 2586   2.234   1.143   0.955  0.4667 -1.4692 -0.7967
  617SOL    MW4 2587   2.220   1.139   1.041  0.6540 -0.7323 -0.7256
  618SOL     OW 2588   2.401   1.247   1.172 -0.1570 -0.1069 -0.4786
  618SOL    HW2 2589   2.485   1.208   1.146 -0.1362 -1.4044  1.4156
  618SOL    HW3 2590   2.416   1.341   1.168  1.7378 -0.3282  0.8601
  618SOL    MW4 2591   2.414   1.254   1.168  0.0956 -0.3073 -0.0522
  619SOL     OW 2592   2.465   1.514   1.101  0.9763  0.4007 -0.8738
  619SOL    HW2 2593   2.395   1.576   1.124  0.3214 -0.6615  0.0237
  619SOL    HW3 2594   2.477   1.526   1.006  1.2407  2.2848 -0.6232
  619SOL    MW4 2595   2.457   1.524   1.091  0.9248  0.5093 -0.7223
  620SOL     OW 2596   2.236   1.668   1.225 -0.0440  0.1776  0.3538
  620SOL    HW2 2597   2.152   1.627   1.202 -0.4615  0.5984  1.1334
  620SOL    HW3 2598   2.234   1.752   1.180  0.8688 -0.6928 -1.3526
  620SOL    MW4 2599   2.224   1.674   1.216  0.0212  0.1184  0.2315
  621SOL     OW 2600   2.472   2.026   1.196  0.3266 -0.1572 -0.1985
  621SOL    HW2 2601   2.541   1.969   1.162 -0.2410 -0.6458 -0.5369
  621SOL    HW3 2602   2.391   1.980   1.176 -0.1448  0.8741 -0.6651
  621SOL    MW4 2603   2.470   2.013   1.189  0.1895 -0.0856 -0.3048
  622SOL     OW 2604   2.478   2.276   1.095 -0.1054 -0.0633  0.1319
  622SOL    HW2 2605   2.405   2.334   1.117 -0.2883 -0.9267  1.8709
  622SOL    HW3 2606   2.453   2.191   1.132  0.4406 -1.1088 -1.8253
  622SOL    MW4 2607   2.465   2.273   1.103 -0.0575 -0.3152  0.1031
  623SOL     OW 2608   4.051   4.450   0.368  0.4676  0.2476 -0.0115
  623SOL    HW2 2609   4.127   4.450   0.427  1.4620 -1.4910 -1.2434
  623SOL    HW3 2610   4.073   4.515   0.301  0.3571  0.5453  0.2359
  623SOL    MW4 2611   4.064   4.459   0.367  0.5841  0.0572 -0.1414
  624SOL     OW 2612   2.479   2.877   1.211 -0.6243  0.1234 -0.7275
  624SOL    HW2 2613   2.454   2.881   1.303 -0.8153  0.0948 -0.7768
  624SOL    HW3 2614   2.399   2.852   1.166 -0.8951  1.5013 -1.0553
  624SOL    MW4 2615   2.465   2.875   1.217 -0.6852  0.3011 -0.7772
  625SOL     OW 2616   3.358   3.081   1.136  0.1756 -0.3205 -0.1051
  625SOL    HW2 2617   3.293   3.125   1.190  0.7242  0.9185 -0.4121
  625SOL    HW3 2618   3.439   3.129   1.153  0.5654 -0.5467 -1.2594
  625SOL    MW4 2619   3.360   3.093   1.145  0.2992 -0.1869 -0.2980
  626SOL     OW 2620   3.900   4.087   0.400  0.6569 -0.1403  0.5991
  626SOL    HW2 2621   3.865   4.176   0.406  0.4477 -0.0397 -1.4641
  626SOL    HW3 2622   3.933   4.068   0.487  0.7502  1.9809  1.0661
  626SOL    MW4 2623   3.900   4.096   0.412  0.6416  0.1531  0.3885
  627SOL     OW 2624   4.080   3.349   0.676  0.3279 -0.4163  0.0973
  627SOL    HW2 2625   4.155   3.338   0.734 -0.5346 -1.4153  1.0591
  627SOL    HW3 2626   4.074   3.266   0.629  0.5164  0.0826 -0.8200
  627SOL    MW4 2627   4.089   3.337   0.678  0.2389 -0.4821  0.1032
  628SOL     OW 2628   2.294   3.263   1.232  0.4818 -0.0923 -0.2783
  628SOL    HW2 2629   2.207   3.227   1.212 -0.2731  1.5486 -0.0794
  628SOL    HW3 2630   2.354   3.214   1.177 -0.3710 -2.3723  0.7695
  628SOL    MW4 2631   2.290   3.252   1.222  0.2699 -0.1767 -0.1140
  629SOL     OW 2632   2.260   3.519   1.091  0.4423 -0.3873 -0.1094
  629SOL    HW2 2633   2.290   3.442   1.140 -1.4294  0.1146  1.9423
  629SOL    HW3 2634   2.274   3.497   0.999 -0.4130 -3.3577  0.4234
  629SOL    MW4 2635   2.266   3.506   1.085  0.0825 -0.7129  0.2315
  630SOL     OW 2636   2.665   3.504   1.120 -0.2084 -0.4176  0.0558
  630SOL    HW2 2637   2.622   3.585   1.148  1.6567  0.0948  1.5624
  630SOL    HW3 2638   2.652   3.501   1.025 -1.2859  1.0507  0.1373
  630SOL    MW4 2639   2.657   3.514   1.111 -0.1047 -0.1566  0.2652
  631SOL     OW 2640   2.472   3.677   1.215 -0.0460  0.0002  0.3373
  631SOL    HW2 2641   2.447   3.667   1.307 -1.0311 -0.3222  0.0437
  631SOL    HW3 2642   2.394   3.648   1.166 -0.3797  2.3725 -0.5878
  631SOL    MW4 2643   2.458   3.672   1.220 -0.2201  0.2708  0.1765
  632SOL     OW 2644   2.454   3.935   1.112 -0.0802 -0.4550 -0.1164
  632SOL    HW2 2645   2.466   3.852   1.159  0.4711 -0.3007  0.0135
  632SOL    HW3 2646   2.366   3.964   1.138  0.3905 -0.1421  1.1964
  632SOL    MW4 2647   2.444   3.928   1.122  0.0548 -0.3932  0.0740
  633SOL     OW 2648   1.784   4.439   0.820  0.5680 -0.0740  0.2061
  633SOL    HW2 2649   1.720   4.508   0.807  0.3624 -0.2676  0.1962
  633SOL    HW3 2650   1.772   4.411   0.911  1.7889  1.0611  0.7331
  633SOL    MW4 2651   1.774   4.444   0.830  0.7020  0.0501  0.2744
  634SOL     OW 2652   2.472   4.385   1.214 -0.0166  0.0433  0.3656
  634SOL    HW2 2653   2.387   4.345   1.195  0.2028 -1.0622  1.6552
  634SOL    HW3 2654   2.466   4.473   1.175 -1.5975 -0.1725  0.0865
  634SOL    MW4 2655   2.460   4.392   1.207 -0.1965 -0.1311  0.4990
  635SOL     OW 2656   3.123   0.121   1.214 -0.0371  0.2957 -0.3743
  635SOL    HW2 2657   3.132   0.114   1.309 -2.3926  2.9676  0.1320
  635SOL    HW3 2658   3.051   0.062   1.192 -0.5569  0.8767 -0.2505
  635SOL    MW4 2659   3.115   0.113   1.224 -0.4165  0.7249 -0.2910
  636SOL     OW 2660   2.668   0.084   1.190 -0.3453 -0.2576 -0.2353
  636SOL    HW2 2661   2.665   0.096   1.285 -2.4027 -1.7271 -0.0952
  636SOL    HW3 2662   2.745   0.028   1.175  0.1604  0.2316  0.5163
  636SOL    MW4 2663   2.678   0.078   1.200 -0.5500 -0.3870 -0.1177
  637SOL     OW 2664   2.455   0.528   1.187  0.0905 -0.2337  0.3291
  637SOL    HW2 2665   2.528   0.487   1.141 -0.0699  0.0433 -0.1836
  637SOL    HW3 2666   2.480   0.526   1.279  1.4519  1.2723  0.0084
  637SOL    MW4 2667   2.468   0.522   1.193  0.2487  0.0015  0.2193
  638SOL     OW 2668   2.878   0.506   1.183 -0.2033  0.2143  0.2086
  638SOL    HW2 2669   2.882   0.599   1.161 -0.4492  0.3832  0.8641
  638SOL    HW3 2670   2.803   0.473   1.135 -0.3279  0.4340  0.2511
  638SOL    MW4 2671   2.868   0.514   1.174 -0.2522  0.2655  0.3006
  639SOL     OW 2672   3.100   3.408   1.067  0.2039  0.2632  0.5536
  639SOL    HW2 2673   3.115   3.337   1.130  1.1014 -0.4666 -0.4566
  639SOL    HW3 2674   3.164   3.475   1.091 -0.4292  0.6027  1.3119
  639SOL    MW4 2675   3.110   3.407   1.078  0.2391  0.2117  0.5202
  640SOL     OW 2676   2.645   0.912   1.151  0.0802 -0.1186  0.1737
  640SOL    HW2 2677   2.657   0.994   1.104  0.1956  0.2812  0.8982
  640SOL    HW3 2678   2.730   0.868   1.146  0.8207  1.0318  2.1028
  640SOL    MW4 2679   2.658   0.917   1.144  0.1931  0.0859  0.5238
  641SOL     OW 2680   2.933   3.907   0.780  0.6373 -0.2112 -0.1547
  641SOL    HW2 2681   2.963   3.817   0.768  0.5130 -0.3063  0.2295
  641SOL    HW3 2682   2.996   3.960   0.731  0.6261 -0.5186 -0.4992
  641SOL    MW4 2683   2.945   3.902   0.772  0.6194 -0.2642 -0.1494
  642SOL     OW 2684   3.311   0.793   0.807 -0.3738 -0.4662 -0.2611
  642SOL    HW2 2685   3.317   0.771   0.901  0.9282  2.4407  0.3897
  642SOL    HW3 2686   3.402   0.812   0.782 -1.0598  1.3159 -1.4645
  642SOL    MW4 2687   3.324   0.792   0.816 -0.2925  0.1524 -0.3340
  643SOL     OW 2688   2.956   1.500   1.095 -0.1236 -0.3874  0.2841
  643SOL    HW2 2689   3.024   1.554   1.133 -1.8269  1.0861  1.3342
  643SOL    HW3 2690   2.954   1.525   1.002 -0.3118  0.7304  0.5833
  643SOL    MW4 2691   2.965   1.510   1.088 -0.3734 -0.0454  0.4623
  644SOL     OW 2692   2.737   1.648   1.157  0.3052 -0.2226  0.3250
  644SOL    HW2 2693   2.810   1.592   1.133  0.0876 -0.5415  0.4028
  644SOL    HW3 2694   2.661   1.590   1.155 -0.1023  0.3232 -0.7677
  644SOL    MW4 2695   2.736   1.633   1.153  0.2227 -0.1928  0.1912
  645SOL     OW 2696   2.701   1.923   1.091 -0.0726 -0.0543  0.4430
  645SOL    HW2 2697   2.772   1.974   1.130 -0.5458  1.2063 -0.3092
  645SOL    HW3 2698   2.713   1.835   1.125  1.7564  0.1877  0.4650
  645SOL    MW4 2699   2.712   1.918   1.101  0.1061  0.1440  0.3467
  646SOL     OW 2700   3.026   4.516   0.434 -0.1861  0.5016 -0.0963
  646SOL    HW2 2701   3.110   4.472   0.420 -0.6902 -0.7141  0.7101
  646SOL    HW3 2702   2.962   4.463   0.386 -0.6294  0.9532 -0.0147
  646SOL    MW4 2703   3.029   4.503   0.426 -0.3111  0.4010  0.0209
  647SOL     OW 2704   2.904   2.425   1.029  0.1178  0.6065  0.1163
  647SOL    HW2 2705   2.980   2.433   1.086 -1.4175  1.1069  2.1394
  647SOL    HW3 2706   2.836   2.387   1.084 -1.1586  0.2812 -1.6200
  647SOL    MW4 2707   2.905   2.421   1.044 -0.2530  0.6297  0.1541
  648SOL     OW 2708   2.737   2.313   1.204  0.0308  0.0107  0.2735
  648SOL    HW2 2709   2.735   2.363   1.286 -1.5688 -1.9273  1.4601
  648SOL    HW3 2710   2.645   2.299   1.182  0.4468 -0.4427 -1.3005
  648SOL    MW4 2711   2.725   2.318   1.212 -0.1254 -0.3052  0.2224
  649SOL     OW 2712   2.449   2.976   0.507 -0.6707  0.0422  0.4017
  649SOL    HW2 2713   2.427   2.892   0.466 -1.6513  0.3676  0.2431
  649SOL    HW3 2714   2.373   2.996   0.561 -0.2847  0.6647  0.7162
  649SOL    MW4 2715   2.436   2.967   0.509 -0.7491  0.1674  0.4223
  650SOL     OW 2716   2.930   3.072   1.186  0.0323  0.2469 -0.4928
  650SOL    HW2 2717   2.852   3.125   1.168  0.4920  2.0400  2.3004
  650SOL    HW3 2718   2.896   2.988   1.216 -0.8190  0.6280 -0.3801
  650SOL    MW4 2719   2.915   3.068   1.188 -0.0191  0.5341 -0.1094
  651SOL     OW 2720   0.330   1.516   0.427  0.0132 -0.2437  0.0434
  651SOL    HW2 2721   0.296   1.494   0.341  0.6452  0.0280 -0.2784
  651SOL    HW3 2722   0.251   1.533   0.480 -0.3726 -0.3077 -0.5030
  651SOL    MW4 2723   0.315   1.516   0.423  0.0457 -0.2161 -0.0711
  652SOL     OW 2724   2.716   3.240   1.173  0.2509 -0.0155 -0.5128
  652SOL    HW2 2725   2.705   3.330   1.143  0.6970  0.0359 -0.5200
  652SOL    HW3 2726   2.707   3.245   1.268  0.0938  0.0072 -0.5277
  652SOL    MW4 2727   2.713   3.252   1.182  0.2887 -0.0060 -0.5157
  653SOL     OW 2728   0.239   2.822   0.711  0.3213  1.0327  0.1343
  653SOL    HW2 2729   0.232   2.798   0.619  0.2706  0.2065  0.3511
  653SOL    HW3 2730   0.154   2.800   0.748  0.2292  1.6732  0.3092
  653SOL    MW4 2731   0.227   2.816   0.704  0.3025  1.0080  0.1860
  654SOL     OW 2732   3.159   3.222   1.259 -0.2343  0.1749  0.3296
  654SOL    HW2 2733   3.079   3.171   1.244  0.1024 -0.2541 -0.0280
  654SOL    HW3 2734   3.155   3.246   1.352 -1.0537  0.6374  0.1778
  654SOL    MW4 2735   3.148   3.218   1.269 -0.2978  0.1795  0.2625
  655SOL     OW 2736   3.561   3.461   1.086  0.2433 -0.0443  0.2371
  655SOL    HW2 2737   3.479   3.507   1.103 -0.1289 -0.6223  0.0227
  655SOL    HW3 2738   3.629   3.525   1.108 -0.2596  1.1456 -1.4923
  655SOL    MW4 2739   3.559   3.476   1.091  0.1278  0.0367 -0.0193
  656SOL     OW 2740   1.755   0.034   0.447 -0.0061  0.2451  0.0456
  656SOL    HW2 2741   1.673  -0.014   0.460  1.4008 -1.3167  4.0764
  656SOL    HW3 2742   1.823  -0.033   0.443  1.4905  1.6532  0.7375
  656SOL    MW4 2743   1.753   0.019   0.448  0.3769  0.2246  0.6687
  657SOL     OW 2744   2.686   4.048   1.230  0.1241  0.0519 -0.7785
  657SOL    HW2 2745   2.752   3.990   1.193  0.7885 -0.2022  0.7524
  657SOL    HW3 2746   2.604   3.999   1.223  0.7802 -1.3932  1.0855
  657SOL    MW4 2747   2.684   4.034   1.225  0.2983 -0.1726 -0.3306
  658SOL     OW 2748   2.922   4.346   1.189 -0.1829 -0.0890 -0.0395
  658SOL    HW2 2749   2.981   4.284   1.145 -0.9696 -0.7642 -0.1579
  658SOL    HW3 2750   2.835   4.318   1.162 -0.5547  0.9394  0.0962
  658SOL    MW4 2751   2.919   4.334   1.180 -0.3359 -0.0429 -0.0372
  659SOL     OW 2752   2.523   0.582   0.481  0.0421  0.3565  0.3132
  659SOL    HW2 2753   2.511   0.573   0.576 -0.8058  0.6252  0.2293
  659SOL    HW3 2754   2.548   0.494   0.452 -3.2959 -0.6320  0.2453
  659SOL    MW4 2755   2.525   0.569   0.490 -0.5102  0.2615  0.2932
  660SOL     OW 2756   3.335   4.657   1.081 -0.1173 -0.2040  0.1312
  660SOL    HW2 2757   3.420   4.677   1.121 -0.5044  1.7002  0.0707
  660SOL    HW3 2758   3.272   4.707   1.133 -0.7215  1.6675 -2.2798
  660SOL    MW4 2759   3.338   4.666   1.093 -0.2480  0.2942 -0.1949
  661SOL     OW 2760   1.512   2.316   0.601  0.2658  0.3523 -0.3580
  661SOL    HW2 2761   1.430   2.364   0.594  0.8158  1.3642  0.0312
  661SOL    HW3 2762   1.541   2.305   0.511  0.0973  0.6826 -0.4538
  661SOL    MW4 2763   1.505   2.321   0.588  0.3163  0.5293 -0.3193
  662SOL     OW 2764   3.103   0.368   1.085  0.1760  0.1548 -0.5371
  662SOL    HW2 2765   3.104   0.285   1.133  1.9053  0.6270  0.2926
  662SOL    HW3 2766   3.018   0.406   1.105 -0.2465 -0.9790 -0.1336
  662SOL    MW4 2767   3.092   0.362   1.094  0.3486  0.0675 -0.3743
  663SOL     OW 2768   3.372   0.723   1.063  0.0207 -0.2159  0.1241
  663SOL    HW2 2769   3.294   0.769   1.095 -0.1462 -0.5636  0.2270
  663SOL    HW3 2770   3.445   0.779   1.088 -0.3478  1.1649 -1.8743
  663SOL    MW4 2771   3.371   0.736   1.071 -0.0498 -0.0796 -0.1259
  664SOL     OW 2772   3.144   0.865   1.166  0.1864 -0.1128 -0.4932
  664SOL    HW2 2773   3.134   0.867   1.262 -3.1098  0.3123 -0.7842
  664SOL    HW3 2774   3.166   0.955   1.143 -0.9487  0.2298 -0.2847
  664SOL    MW4 2775   3.146   0.878   1.176 -0.3982 -0.0115 -0.5041
  665SOL     OW 2776   3.154   1.139   1.089 -0.3667 -0.5105 -0.1511
  665SOL    HW2 2777   3.216   1.208   1.116 -1.0686  0.8934 -2.0143
  665SOL    HW3 2778   3.068   1.172   1.116 -0.4333 -2.0139  1.5490
  665SOL    MW4 2779   3.151   1.153   1.096 -0.4680 -0.5236 -0.1727
  666SOL     OW 2780   3.359   1.300   1.207  0.0405 -0.1726  0.0531
  666SOL    HW2 2781   3.368   1.392   1.180  0.9871 -0.2957 -0.0769
  666SOL    HW3 2782   3.353   1.304   1.302 -1.9121  0.1617 -0.0565
  666SOL    MW4 2783   3.360   1.313   1.216 -0.0923 -0.1447  0.0216
  667SOL     OW 2784   3.359   1.550   1.107 -0.2539  0.0909  0.3695
  667SOL    HW2 2785   3.363   1.556   1.011  1.1922 -1.6920  0.3018
  667SOL    HW3 2786   3.286   1.608   1.131 -0.9018  0.2453 -1.8309
  667SOL    MW4 2787   3.350   1.559   1.097 -0.1485 -0.1239  0.0702
  668SOL     OW 2788   3.140   1.685   1.196  0.2642 -0.0368  0.1536
  668SOL    HW2 2789   3.121   1.678   1.289  0.1259 -0.9304  0.0649
  668SOL    HW3 2790   3.144   1.779   1.179  1.5765  0.1265  1.3109
  668SOL    MW4 2791   3.138   1.697   1.206  0.4189 -0.1330  0.2947
  669SOL     OW 2792   3.125   1.955   1.131 -0.1282  1.0168 -0.0324
  669SOL    HW2 2793   3.198   2.014   1.152 -0.4856  0.8065  1.8562
  669SOL    HW3 2794   3.048   2.012   1.131 -0.1719  0.9614 -0.5299
  669SOL    MW4 2795   3.125   1.970   1.134 -0.1812  0.9818  0.1510
  670SOL     OW 2796   3.352   2.063   1.246 -0.5192  0.2290 -0.7125
  670SOL    HW2 2797   3.425   2.008   1.217  0.4727  1.0332  0.1941
  670SOL    HW3 2798   3.363   2.144   1.196  0.8202  1.3772  1.4173
  670SOL    MW4 2799   3.363   2.066   1.235 -0.2115  0.4866 -0.3121
  671SOL     OW 2800   3.352   2.299   1.116  0.3567  0.0629  0.1729
  671SOL    HW2 2801   3.365   2.306   1.021  0.0543 -0.5168  0.0851
  671SOL    HW3 2802   3.421   2.353   1.154  0.6189  0.1143 -0.3731
  671SOL    MW4 2803   3.363   2.307   1.108  0.3514 -0.0067  0.0892
  672SOL     OW 2804   3.117   2.733   1.096 -0.2703 -0.0008 -0.2380
  672SOL    HW2 2805   3.136   2.644   1.127 -0.2356 -0.2144 -0.8646
  672SOL    HW3 2806   3.036   2.757   1.140 -0.9174 -0.7991 -0.9673
  672SOL    MW4 2807   3.109   2.724   1.106 -0.3507 -0.1345 -0.4169
  673SOL     OW 2808   3.593   2.679   1.116 -0.0386  0.1110  0.3180
  673SOL    HW2 2809   3.583   2.591   1.152 -1.1903  0.1431  0.0905
  673SOL    HW3 2810   3.508   2.720   1.130  0.1626  0.8274 -0.5640
  673SOL    MW4 2811   3.581   2.673   1.123 -0.1643  0.2098  0.1717
  674SOL     OW 2812   1.110   3.487   0.681  0.0518 -0.2964  0.0513
  674SOL    HW2 2813   1.127   3.394   0.669 -0.2762 -0.4214  0.5444
  674SOL    HW3 2814   1.189   3.521   0.723  1.6080  0.3257 -3.1744
  674SOL    MW4 2815   1.123   3.479   0.685  0.2140 -0.2308 -0.3092
  675SOL     OW 2816   2.912   3.604   1.121 -0.1538 -0.0045  0.1065
  675SOL    HW2 2817   2.828   3.561   1.103 -0.7140  1.1476 -0.0649
  675SOL    HW3 2818   2.977   3.540   1.093 -0.9532 -1.3790  1.2846
  675SOL    MW4 2819   2.909   3.590   1.115 -0.3333 -0.0336  0.2394
  676SOL     OW 2820   2.494   3.844   0.859 -0.4035 -0.3880 -0.4122
  676SOL    HW2 2821   2.541   3.917   0.818  1.0794 -1.2933 -0.3635
  676SOL    HW3 2822   2.508   3.857   0.953  0.6708 -1.2654 -0.4486
  676SOL    MW4 2823   2.502   3.856   0.866 -0.0663 -0.6232 -0.4106
  677SOL     OW 2824   2.302   3.988   0.453 -0.6097  0.1710  0.7249
  677SOL    HW2 2825   2.297   3.900   0.414  2.5612 -0.7402  2.1810
  677SOL    HW3 2826   2.291   4.047   0.379  0.7132 -1.5066 -0.8738
  677SOL    MW4 2827   2.300   3.984   0.438 -0.0167 -0.1707  0.7061
  678SOL     OW 2828   1.794   3.751   0.707 -0.6353 -0.0472 -0.0749
  678SOL    HW2 2829   1.872   3.799   0.736 -1.6350  2.5571 -1.5354
  678SOL    HW3 2830   1.810   3.733   0.614 -1.2749 -0.5512 -0.0922
  678SOL    MW4 2831   1.806   3.755   0.698 -0.8518  0.2301 -0.2699
  679SOL     OW 2832   3.594   3.199   1.227 -0.0643  0.3420  0.3715
  679SOL    HW2 2833   3.581   3.288   1.194 -0.5084  0.2106  0.1910
  679SOL    HW3 2834   3.583   3.207   1.322  1.4492  0.7652  0.5225
  679SOL    MW4 2835   3.591   3.212   1.235  0.0768  0.3805  0.3676
  680SOL     OW 2836   2.872   3.870   1.085  0.1597 -0.1968 -0.0290
  680SOL    HW2 2837   2.891   3.889   0.993  0.7165  1.0777  0.3490
  680SOL    HW3 2838   2.882   3.775   1.092  1.6342 -0.1147 -0.9388
  680SOL    MW4 2839   2.876   3.860   1.074  0.4277 -0.0181 -0.0989
  681SOL     OW 2840   3.138   3.953   1.153 -0.1525  0.4481  0.2870
  681SOL    HW2 2841   3.171   3.965   1.242 -0.8636 -2.5741  1.0154
  681SOL    HW3 2842   3.050   3.915   1.165  0.2173 -1.0893 -1.6903
  681SOL    MW4 2843   3.130   3.950   1.167 -0.1976 -0.1533  0.1222
  682SOL     OW 2844   3.332   4.388   1.124  0.2497  0.4712  0.0705
  682SOL    HW2 2845   3.422   4.361   1.108  0.1905  0.2217  0.1408
  682SOL    HW3 2846   3.327   4.477   1.091  0.5044  0.4629  0.0050
  682SOL    MW4 2847   3.343   4.396   1.118  0.2756  0.4373  0.0710
  683SOL     OW 2848   0.678   4.153   0.400  0.1263 -0.2078  0.7014
  683SOL    HW2 2849   0.616   4.221   0.427 -0.1627 -0.2213  0.0934
  683SOL    HW3 2850   0.751   4.201   0.362  1.2109 -0.1234  2.8360
  683SOL    MW4 2851   0.679   4.168   0.398  0.2312 -0.1984  0.9028
  684SOL     OW 2852   3.815   4.659   1.069 -0.1881 -0.3096 -0.0608
  684SOL    HW2 2853   3.787   4.666   0.978 -2.8219  0.6537  0.7931
  684SOL    HW3 2854   3.817   4.566   1.087 -0.4759 -0.4695 -0.8380
  684SOL    MW4 2855   3.812   4.648   1.059 -0.5734 -0.2036 -0.0507
  685SOL     OW 2856   3.550   0.336   1.094 -0.0353 -0.0642 -0.3735
  685SOL    HW2 2857   3.467   0.371   1.126 -0.7208 -0.8613 -1.2371
  685SOL    HW3 2858   3.617   0.390   1.135 -1.0492  1.7571 -1.0729
  685SOL    MW4 2859   3.548   0.347   1.103 -0.2596  0.0710 -0.5798
  686SOL     OW 2860   4.022   0.389   1.053  0.1931  0.5601  0.5664
  686SOL    HW2 2861   4.016   0.297   1.080  1.0858  0.3879  0.2001
  686SOL    HW3 2862   3.937   0.426   1.074 -0.1850 -0.3667  0.6871
  686SOL    MW4 2863   4.010   0.382   1.059  0.2608  0.4151  0.5339
  687SOL     OW 2864   3.831   0.761   1.109  0.2272 -0.3839 -0.0252
  687SOL    HW2 2865   3.906   0.804   1.150 -0.9793  0.5175  1.2629
  687SOL    HW3 2866   3.761   0.826   1.113 -0.5386 -1.0988 -1.5141
  687SOL    MW4 2867   3.832   0.775   1.115 -0.0329 -0.3593 -0.0517
  688SOL     OW 2868   3.595   0.884   1.159  0.4914  0.2122  0.7902
  688SOL    HW2 2869   3.579   0.977   1.146  0.7462  0.1957  0.3363
  688SOL    HW3 2870   3.604   0.874   1.253 -1.0975  0.3912  0.9829
  688SOL    MW4 2871   3.594   0.895   1.170  0.3157  0.2337  0.7557
  689SOL     OW 2872   3.584   1.155   1.113  0.2441 -0.5072  0.2815
  689SOL    HW2 2873   3.655   1.207   1.149 -0.4775  0.9864 -0.3837
  689SOL    HW3 2874   3.505   1.194   1.149 -0.5157  1.0650 -2.8517
  689SOL    MW4 2875   3.583   1.167   1.122  0.0486 -0.1028 -0.2196
  690SOL     OW 2876   3.797   1.314   1.231 -0.1967 -0.1748  0.1454
  690SOL    HW2 2877   3.798   1.312   1.327 -0.7153  0.8726  0.1849
  690SOL    HW3 2878   3.806   1.407   1.209 -1.0443 -0.2999 -0.7938
  690SOL    MW4 2879   3.798   1.326   1.241 -0.3769 -0.0532  0.0267
  691SOL     OW 2880   3.585   1.680   1.204 -0.2384  0.2542 -0.4194
  691SOL    HW2 2881   3.670   1.648   1.175  0.0640  0.2545  0.4455
  691SOL    HW3 2882   3.522   1.613   1.177  0.1505 -0.1616 -0.2775
  691SOL    MW4 2883   3.588   1.667   1.197 -0.1471  0.1993 -0.2866
  692SOL     OW 2884   4.007   1.927   1.046  0.0143  0.0086  0.0330
  692SOL    HW2 2885   4.017   1.852   1.105 -0.3259  0.4239  0.6244
  692SOL    HW3 2886   3.935   1.977   1.084 -1.2607 -0.5356 -1.5885
  692SOL    MW4 2887   3.999   1.924   1.058 -0.1986 -0.0085 -0.1030
  693SOL     OW 2888   2.989   1.519   0.200 -0.0492 -0.1915 -0.2155
  693SOL    HW2 2889   2.926   1.495   0.269  0.1444 -0.3882 -0.1030
  693SOL    HW3 2890   2.945   1.496   0.118 -0.9982  1.7123 -0.2553
  693SOL    MW4 2891   2.975   1.512   0.199 -0.1488  0.0336 -0.2059
  694SOL     OW 2892   3.795   2.080   1.189  0.6453  0.0984  0.2795
  694SOL    HW2 2893   3.805   2.084   1.284  2.1014 -0.2540  0.1509
  694SOL    HW3 2894   3.720   2.022   1.175  0.8050 -0.3293  1.1951
  694SOL    MW4 2895   3.787   2.073   1.200  0.8583 -0.0045  0.3833
  695SOL     OW 2896   0.848   1.223   0.841 -0.0959 -0.1592  0.4940
  695SOL    HW2 2897   0.761   1.260   0.823  0.0324 -0.3640 -0.5638
  695SOL    HW3 2898   0.904   1.300   0.853 -0.0379  0.0085 -0.7125
  695SOL    MW4 2899   0.844   1.238   0.840 -0.0714 -0.1640  0.1953
  696SOL     OW 2900   2.606   2.452   0.695  0.2159 -0.0321 -0.2439
  696SOL    HW2 2901   2.529   2.408   0.730  0.6414 -1.0910 -0.6341
  696SOL    HW3 2902   2.580   2.544   0.690 -0.8153 -0.2922  0.1922
  696SOL    MW4 2903   2.592   2.459   0.699  0.1361 -0.2062 -0.2380
  697SOL     OW 2904   3.573   2.429   1.237  0.2851 -0.0057  0.0147
  697SOL    HW2 2905   3.582   2.413   1.331  0.4124  1.5486  0.2787
  697SOL    HW3 2906   3.653   2.392   1.199  1.3978  1.5080  0.8149
  697SOL    MW4 2907   3.585   2.422   1.245  0.4487  0.3986  0.1552
  698SOL     OW 2908   3.832   2.781   1.229 -0.0935 -0.3077 -0.3912
  698SOL    HW2 2909   3.753   2.739   1.195 -0.7592 -0.3582  1.1949
  698SOL    HW3 2910   3.818   2.786   1.324  1.0728  1.1928 -0.2828
  698SOL    MW4 2911   3.820   2.776   1.237 -0.0277 -0.1166 -0.1677
  699SOL     OW 2912   2.191   2.708   0.791 -0.0262  0.2810 -0.3171
  699SOL    HW2 2913   2.113   2.655   0.806 -0.8373  1.3925 -0.6154
  699SOL    HW3 2914   2.231   2.670   0.713 -0.1409 -0.4231 -0.0384
  699SOL    MW4 2915   2.186   2.696   0.783 -0.1483  0.3345 -0.3197
  700SOL     OW 2916   3.529   3.991   1.154 -0.6757 -0.3630  0.3541
  700SOL    HW2 2917   3.553   3.996   1.246 -0.4858  0.1066  0.2814
  700SOL    HW3 2918   3.608   3.960   1.110 -0.6884 -0.3404  0.3152
  700SOL    MW4 2919   3.543   3.987   1.160 -0.6521 -0.2983  0.3393
  701SOL     OW 2920   1.574   4.231   0.496  0.7567  0.1649  0.0137
  701SOL    HW2 2921   1.500   4.223   0.435  0.6647  1.3048 -0.0328
  701SOL    HW3 2922   1.625   4.151   0.482 -0.6862 -0.8256  0.3469
  701SOL    MW4 2923   1.571   4.219   0.486  0.5542  0.1850  0.0516
  702SOL     OW 2924   2.446   2.729   0.395  0.2112  0.0709  0.3185
  702SOL    HW2 2925   2.412   2.653   0.443  1.7296  0.2103  1.6704
  702SOL    HW3 2926   2.372   2.760   0.343 -0.7392 -1.6629  0.5993
  702SOL    MW4 2927   2.432   2.723   0.394  0.2863 -0.1392  0.5339
  703SOL     OW 2928   0.558   1.941   0.492  0.0503  0.3273 -0.7772
  703SOL    HW2 2929   0.491   2.005   0.468 -0.0942  0.5243  0.1359
  703SOL    HW3 2930   0.635   1.967   0.442  0.2006  1.6432  0.1116
  703SOL    MW4 2931   0.559   1.953   0.482  0.0510  0.5269 -0.5395
  704SOL     OW 2932   0.296   3.595   0.569 -0.1962  0.0686  0.4261
  704SOL    HW2 2933   0.272   3.677   0.612  0.9476 -0.3400  1.8559
  704SOL    HW3 2934   0.355   3.552   0.630  0.7758 -0.9208 -1.1835
  704SOL    MW4 2935   0.301   3.600   0.583  0.0829 -0.1161  0.4024
  705SOL     OW 2936   3.566   4.254   1.082 -0.2139 -0.5202 -0.0895
  705SOL    HW2 2937   3.564   4.255   0.986 -0.5700 -0.3981 -0.0806
  705SOL    HW3 2938   3.546   4.164   1.106 -1.2936 -0.2961 -0.1051
  705SOL    MW4 2939   3.563   4.242   1.072 -0.4034 -0.4745 -0.0904
  706SOL     OW 2940   3.803   4.379   1.132  0.5123 -0.3604 -0.5202
  706SOL    HW2 2941   3.806   4.377   1.228  0.5050  0.1742 -0.5060
  706SOL    HW3 2942   3.740   4.311   1.109  0.5854 -0.5574 -0.1492
  706SOL    MW4 2943   3.795   4.369   1.142  0.5209 -0.3161 -0.4693
  707SOL     OW 2944   4.235   4.606   1.079 -0.0294  0.7175 -0.4165
  707SOL    HW2 2945   4.164   4.668   1.091 -0.5580 -0.0268  0.3533
  707SOL    HW3 2946   4.315   4.657   1.091 -0.4508  1.3688 -0.4073
  707SOL    MW4 2947   4.237   4.621   1.082 -0.1540  0.7057 -0.3138
  708SOL     OW 2948   4.044   0.128   1.151  0.2081  0.1678 -0.3006
  708SOL    HW2 2949   4.044   0.131   1.246 -0.1730 -0.5278 -0.2731
  708SOL    HW3 2950   3.961   0.087   1.128  0.4259  0.0602 -0.9221
  708SOL    MW4 2951   4.033   0.123   1.160  0.1864  0.0618 -0.3790
  709SOL     OW 2952   3.773   0.509   1.195 -0.1932 -0.2467 -0.1992
  709SOL    HW2 2953   3.769   0.602   1.173  1.5967 -0.5044 -1.8274
  709SOL    HW3 2954   3.808   0.506   1.284 -0.8973  0.6447  0.1114
  709SOL    MW4 2955   3.777   0.521   1.204 -0.0501 -0.1631 -0.3732
  710SOL     OW 2956   4.257   0.779   1.095  0.3550  0.0852 -0.1897
  710SOL    HW2 2957   4.260   0.686   1.120 -1.0740 -0.2000 -1.0360
  710SOL    HW3 2958   4.272   0.779   1.001  2.1362  0.8804  0.0687
  710SOL    MW4 2959   4.259   0.767   1.086  0.4015  0.1525 -0.2673
  711SOL     OW 2960   4.257   0.483   1.173  0.0533 -0.2593 -0.0541
  711SOL    HW2 2961   4.261   0.479   1.268 -0.4974 -0.6066 -0.0429
  711SOL    HW3 2962   4.167   0.458   1.152 -0.1877  1.0484 -0.6006
  711SOL    MW4 2963   4.246   0.479   1.183 -0.0520 -0.1326 -0.1248
  712SOL     OW 2964   4.042   0.916   1.212  0.1541  0.4590 -0.0087
  712SOL    HW2 2965   4.058   0.922   1.307  0.5510  0.2942 -0.0635
  712SOL    HW3 2966   4.115   0.864   1.179 -0.1188  0.3026 -0.3710
  712SOL    MW4 2967   4.054   0.910   1.220  0.1702  0.4166 -0.0638
  713SOL     OW 2968   4.019   1.175   1.100 -0.1753 -0.6633  1.0259
  713SOL    HW2 2969   4.031   1.087   1.135  1.2130 -0.3170  1.4630
  713SOL    HW3 2970   3.959   1.218   1.160 -2.4464 -1.9262 -0.2820
  713SOL    MW4 2971   4.013   1.169   1.112 -0.2918 -0.7842  0.9110
  714SOL     OW 2972   4.241   1.279   1.207 -0.2718 -0.0948 -0.2449
  714SOL    HW2 2973   4.232   1.285   1.302  1.3833 -0.5267 -0.0381
  714SOL    HW3 2974   4.159   1.240   1.177 -0.4884 -0.6916  1.1044
  714SOL    MW4 2975   4.229   1.274   1.216 -0.0820 -0.2306 -0.0396
  715SOL     OW 2976   4.290   1.586   1.124 -0.1314  0.3533 -0.5191
  715SOL    HW2 2977   4.360   1.631   1.172  0.4642 -0.2569 -0.8022
  715SOL    HW3 2978   4.305   1.493   1.142 -1.2195  0.2444 -0.1183
  715SOL    MW4 2979   4.301   1.580   1.133 -0.1965  0.2584 -0.5037
  716SOL     OW 2980   4.051   1.710   1.201 -0.4307  0.0389  0.0205
  716SOL    HW2 2981   4.058   1.724   1.296  0.8698  0.9320 -0.1905
  716SOL    HW3 2982   4.131   1.665   1.177 -0.8403 -0.3465 -0.6376
  716SOL    MW4 2983   4.062   1.706   1.210 -0.3128  0.1059 -0.0941
  717SOL     OW 2984   0.498   2.722   0.790  0.4731 -0.0172 -0.6006
  717SOL    HW2 2985   0.482   2.629   0.774  0.2676 -0.6091  2.8260
  717SOL    HW3 2986   0.410   2.762   0.789  0.3985 -0.1757 -0.0757
  717SOL    MW4 2987   0.484   2.715   0.788  0.4362 -0.1161 -0.0793
  718SOL     OW 2988   4.245   2.035   1.174 -0.2402  0.4536 -0.1197
  718SOL    HW2 2989   4.244   2.125   1.141  1.1157  0.1520 -0.9922
  718SOL    HW3 2990   4.163   1.997   1.141 -0.6542  1.2553 -0.0357
  718SOL    MW4 2991   4.234   2.042   1.165 -0.1154  0.5193 -0.2235
  719SOL     OW 2992   4.271   2.291   1.091  0.4956 -0.3495 -0.0550
  719SOL    HW2 2993   4.206   2.346   1.134  1.1582 -0.0875  0.6171
  719SOL    HW3 2994   4.266   2.316   0.999  0.2755  0.3102  0.1343
  719SOL    MW4 2995   4.261   2.302   1.085  0.5536 -0.2282  0.0588
  720SOL     OW 2996   4.062   2.436   1.227  0.1864 -0.0841 -0.0385
  720SOL    HW2 2997   4.067   2.525   1.193 -1.3345  0.2378  0.5405
  720SOL    HW3 2998   4.065   2.447   1.322 -0.6744 -0.5985  0.0534
  720SOL    MW4 2999   4.063   2.449   1.235 -0.1278 -0.1097  0.0499
  721SOL     OW 3000   0.842   0.891   0.684  0.0751  0.5648 -0.3276
  721SOL    HW2 3001   0.850   0.978   0.645 -1.3436  0.8523  0.0160
  721SOL    HW3 3002   0.923   0.881   0.735  0.2552  1.6796 -0.3685
  721SOL    MW4 3003   0.854   0.901   0.686 -0.0885  0.7498 -0.2877
  722SOL     OW 3004   4.262   2.847   1.227  0.3553 -0.0426 -0.1388
  722SOL    HW2 3005   4.276   2.920   1.166 -1.6930  0.3699 -0.1479
  722SOL    HW3 3006   4.192   2.796   1.187 -1.1272  0.3288  1.9446
  722SOL    MW4 3007   4.255   2.850   1.214 -0.1101  0.0608  0.1349
  723SOL     OW 3008   4.281   3.060   1.012  0.0483 -0.2556  0.7300
  723SOL    HW2 3009   4.190   3.077   1.034 -0.2477 -0.5111 -0.2847
  723SOL    HW3 3010   4.278   3.004   0.935  1.0645 -0.7771  1.0521
  723SOL    MW4 3011   4.269   3.055   1.005  0.1435 -0.3583  0.6387
  724SOL     OW 3012   2.676   2.674   1.182  0.0106  0.3640  0.8165
  724SOL    HW2 3013   2.618   2.749   1.195 -0.7473 -0.4781  2.4765
  724SOL    HW3 3014   2.665   2.621   1.261  2.5190 -0.1678  0.8731
  724SOL    MW4 3015   2.667   2.677   1.194  0.2415  0.1826  1.0430
  725SOL     OW 3016   2.275   2.573   0.560 -0.3079  0.0232 -0.1383
  725SOL    HW2 3017   2.307   2.483   0.563 -2.9457 -0.9527  0.2278
  725SOL    HW3 3018   2.227   2.579   0.477 -1.1626  0.7231  0.3933
  725SOL    MW4 3019   2.273   2.562   0.549 -0.7684 -0.0129 -0.0199
  726SOL     OW 3020   3.760   3.131   0.746 -0.1701  0.0184  0.3822
  726SOL    HW2 3021   3.839   3.101   0.701  1.2429  0.7972  2.2759
  726SOL    HW3 3022   3.752   3.073   0.822 -0.3368  1.1384  1.2407
  726SOL    MW4 3023   3.769   3.119   0.750 -0.0055  0.2689  0.7454
  727SOL     OW 3024   3.774   0.462   0.464  0.1536 -0.7978 -0.4066
  727SOL    HW2 3025   3.692   0.505   0.440 -0.1211 -1.3514 -0.4871
  727SOL    HW3 3026   3.783   0.478   0.558  0.4434  0.0776 -0.5867
  727SOL    MW4 3027   3.764   0.470   0.474  0.1557 -0.7554 -0.4410
  728SOL     OW 3028   3.822   0.781   0.838  0.1326 -0.3578  0.2826
  728SOL    HW2 3029   3.841   0.788   0.931 -1.7488  0.1840  0.6539
  728SOL    HW3 3030   3.828   0.687   0.819 -1.3675 -0.6976  1.3982
  728SOL    MW4 3031   3.825   0.769   0.848 -0.3135 -0.3312  0.4787
  729SOL     OW 3032   1.186   3.865   0.484 -0.4264  0.3481 -0.0181
  729SOL    HW2 3033   1.147   3.778   0.476 -0.2566  0.0647  1.9573
  729SOL    HW3 3034   1.276   3.849   0.511 -0.1493  1.1279 -0.4523
  729SOL    MW4 3035   1.193   3.851   0.487 -0.3674  0.4137  0.1853
  730SOL     OW 3036   4.238   4.352   1.172  0.5262 -0.2982  0.4353
  730SOL    HW2 3037   4.242   4.447   1.159 -0.2667 -0.1514  1.2409
  730SOL    HW3 3038   4.305   4.317   1.113 -0.4025  0.6294 -1.1839
  730SOL    MW4 3039   4.247   4.360   1.163  0.2990 -0.1564  0.3281
  731SOL     OW 3040   0.425   0.111   1.433 -0.4582 -0.3092 -0.2074
  731SOL    HW2 3041   0.498   0.062   1.470  0.0928 -0.0502 -0.9286
  731SOL    HW3 3042   0.347   0.067   1.466  0.0230 -0.3090  0.9403
  731SOL    MW4 3043   0.424   0.099   1.442 -0.3220 -0.2750 -0.1510
  732SOL     OW 3044   4.490   0.114   1.410 -0.5192  0.3801  0.0416
  732SOL    HW2 3045   4.404   0.076   1.427 -1.1118  1.6595 -0.0128
  732SOL    HW3 3046   4.502   0.105   1.316  0.1155 -1.2428  0.2665
  732SOL    MW4 3047   4.480   0.108   1.400 -0.5131  0.3348  0.0640
  733SOL     OW 3048   4.485   0.358   1.549 -0.2246  0.1133 -0.1625
  733SOL    HW2 3049   4.473   0.346   1.643  2.4233  0.0409  0.2069
  733SOL    HW3 3050   4.481   0.270   1.512 -1.6069  0.1756 -0.1681
  733SOL    MW4 3051   4.483   0.345   1.556 -0.0577  0.1120 -0.1144
  734SOL     OW 3052   0.231   0.492   1.466  0.5424 -0.6319 -0.0580
  734SOL    HW2 3053   0.145   0.453   1.482 -0.2680  1.0728 -0.0404
  734SOL    HW3 3054   0.232   0.507   1.371  0.6927 -0.3712 -0.0144
  734SOL    MW4 3055   0.220   0.489   1.455  0.4553 -0.3726 -0.0501
  735SOL     OW 3056   0.194   0.740   1.596  0.0519  0.0037  0.2501
  735SOL    HW2 3057   0.268   0.794   1.567  0.1891 -0.8782 -1.1002
  735SOL    HW3 3058   0.214   0.652   1.564 -1.7999 -0.1576 -0.5317
  735SOL    MW4 3059   0.206   0.735   1.588 -0.1743 -0.1340 -0.0312
  736SOL     OW 3060   0.012   0.901   1.453 -0.1134 -0.4290  0.3351
  736SOL    HW2 3061  -0.002   0.972   1.516 -0.6504  0.5667 -0.8911
  736SOL    HW3 3062   0.075   0.843   1.496 -0.2529  0.3783  1.6668
  736SOL    MW4 3063   0.018   0.903   1.467 -0.2026 -0.1912  0.3490
  737SOL     OW 3064   4.459   1.133   1.593  0.1549  0.0604 -0.0882
  737SOL    HW2 3065   4.465   1.135   1.688  0.5213  0.3149 -0.1140
  737SOL    HW3 3066   4.539   1.176   1.563 -0.5457  1.1180 -0.4917
  737SOL    MW4 3067   4.470   1.139   1.601  0.1101  0.2334 -0.1448
  738SOL     OW 3068   0.216   1.240   1.551  0.1945  0.1560  0.2945
  738SOL    HW2 3069   0.204   1.328   1.585 -0.6132 -0.3268  1.2939
  738SOL    HW3 3070   0.209   1.250   1.456 -1.2699  0.9649  0.4752
  738SOL    MW4 3071   0.214   1.253   1.543 -0.1053  0.1991  0.4503
  739SOL     OW 3072   0.207   1.521   1.622  0.0395 -0.0748  0.1265
  739SOL    HW2 3073   0.200   1.528   1.717  1.6991  1.2389  0.1746
  739SOL    HW3 3074   0.132   1.571   1.589  1.4414  2.5616  0.7402
  739SOL    MW4 3075   0.196   1.529   1.630  0.4434  0.4464  0.2137
  740SOL     OW 3076   0.006   1.673   1.495  0.5535 -0.3280  0.3854
  740SOL    HW2 3077   0.022   1.762   1.526  0.0852  0.1055 -0.5778
  740SOL    HW3 3078   0.037   1.674   1.404 -0.5539 -0.7961 -0.0109
  740SOL    MW4 3079   0.012   1.685   1.487  0.3456 -0.3325  0.2060
  741SOL     OW 3080   0.032   1.922   1.570 -0.3490  0.5479  0.0248
  741SOL    HW2 3081   0.032   1.922   1.666  0.4898  0.2502  0.0238
  741SOL    HW3 3082  -0.045   1.974   1.547  0.0724  1.5798  0.8571
  741SOL    MW4 3083   0.022   1.929   1.580 -0.1828  0.6448  0.1345
  742SOL     OW 3084   0.239   2.063   1.464 -0.1301  0.2230  0.2513
  742SOL    HW2 3085   0.162   2.022   1.504 -0.8095  0.9568 -0.2775
  742SOL    HW3 3086   0.221   2.061   1.370  0.4402  0.5191  0.1341
  742SOL    MW4 3087   0.226   2.057   1.457 -0.1445  0.3591  0.1661
  743SOL     OW 3088   0.218   2.314   1.548 -0.5827 -0.1709 -0.1710
  743SOL    HW2 3089   0.218   2.317   1.643 -1.4563 -0.2610 -0.1707
  743SOL    HW3 3090   0.239   2.223   1.527  0.2850 -0.0023 -0.0773
  743SOL    MW4 3091   0.221   2.303   1.557 -0.5835 -0.1607 -0.1584
  744SOL     OW 3092   4.491   2.440   1.447  0.0437 -0.0397  0.8064
  744SOL    HW2 3093   4.420   2.396   1.496 -0.2426 -0.2069  0.2432
  744SOL    HW3 3094   4.571   2.397   1.478 -0.0731  0.2919  1.6025
  744SOL    MW4 3095   4.492   2.428   1.458 -0.0095 -0.0176  0.8371
  745SOL     OW 3096   0.026   2.701   1.569  0.0188  0.2052 -0.2673
  745SOL    HW2 3097  -0.056   2.747   1.548 -0.0198 -0.0687 -0.7233
  745SOL    HW3 3098   0.015   2.614   1.530 -0.0578 -0.3147  0.9054
  745SOL    MW4 3099   0.014   2.696   1.561  0.0038  0.1009 -0.1729
  746SOL     OW 3100   0.222   2.845   1.450 -0.2119 -0.5521  0.2377
  746SOL    HW2 3101   0.304   2.804   1.478  0.0790  0.3036  0.6605
  746SOL    HW3 3102   0.154   2.796   1.496  0.0519 -1.2815 -0.1351
  746SOL    MW4 3103   0.224   2.833   1.460 -0.1387 -0.5355  0.2444
  747SOL     OW 3104   0.203   3.123   1.517  0.5972 -0.0646 -0.3243
  747SOL    HW2 3105   0.119   3.134   1.474  1.7124 -0.7887 -2.7724
  747SOL    HW3 3106   0.230   3.034   1.494  3.0739  0.9503 -1.4646
  747SOL    MW4 3107   0.196   3.112   1.509  1.0711 -0.0265 -0.7977
  748SOL     OW 3108   4.443   3.213   1.446 -0.2356 -0.4064 -0.3029
  748SOL    HW2 3109   4.466   3.301   1.473  2.1053 -1.6442  1.9289
  748SOL    HW3 3110   4.470   3.208   1.355  2.5296  0.2250  0.4374
  748SOL    MW4 3111   4.450   3.224   1.438  0.4382 -0.4864  0.0892
  749SOL     OW 3112   0.001   3.460   1.553 -0.0511  0.3140  0.1794
  749SOL    HW2 3113   0.005   3.459   1.649  1.2026  0.1533  0.1370
  749SOL    HW3 3114  -0.077   3.511   1.532 -0.0825  0.7185  1.2787
  749SOL    MW4 3115  -0.009   3.466   1.563  0.1097  0.3459  0.3188
  750SOL     OW 3116   0.194   3.596   1.426 -0.2456 -0.2851 -0.0374
  750SOL    HW2 3117   0.207   3.670   1.485 -0.0915 -0.6289  0.3621
  750SOL    HW3 3118   0.120   3.548   1.463 -0.2796 -0.3907 -0.2368
  750SOL    MW4 3119   0.186   3.599   1.438 -0.2298 -0.3445 -0.0110
  751SOL     OW 3120   0.237   3.850   1.550  0.0182  0.2767  0.2521
  751SOL    HW2 3121   0.233   3.859   1.645  1.8552 -1.3584  0.5164
  751SOL    HW3 3122   0.318   3.893   1.525 -0.5020  0.7721 -0.5882
  751SOL    MW4 3123   0.247   3.857   1.559  0.1919  0.1264  0.1762
  752SOL     OW 3124   0.018   3.960   1.425  0.3093  0.0164  0.2568
  752SOL    HW2 3125   0.030   4.053   1.443  2.6639 -0.2229  0.0456
  752SOL    HW3 3126   0.087   3.917   1.475  0.8033 -1.4135 -1.6262
  752SOL    MW4 3127   0.029   3.967   1.434  0.6857 -0.2036 -0.0194
  753SOL     OW 3128   0.022   4.211   1.535  0.3977  0.2753 -0.4211
  753SOL    HW2 3129   0.024   4.231   1.629  1.2316 -0.4361 -0.2771
  753SOL    HW3 3130  -0.054   4.258   1.502 -0.2311  0.0871  0.7254
  753SOL    MW4 3131   0.012   4.220   1.543  0.4249  0.1564 -0.2511
  754SOL     OW 3132   0.213   4.385   1.436 -0.4778 -0.5057 -0.5126
  754SOL    HW2 3133   0.214   4.463   1.493  0.5108 -1.0647  0.2531
  754SOL    HW3 3134   0.146   4.329   1.475 -1.3599  0.0456 -1.2032
  754SOL    MW4 3135   0.204   4.388   1.449 -0.4638 -0.5059 -0.5028
  755SOL     OW 3136   0.635   4.624   1.527  0.1505  0.0611  0.2621
  755SOL    HW2 3137   0.631   4.632   1.622  0.5627  0.5192  0.2428
  755SOL    HW3 3138   0.716   4.668   1.502 -0.2819  0.5308 -0.3571
  755SOL    MW4 3139   0.645   4.631   1.536  0.1479  0.1831  0.1779
  756SOL     OW 3140   0.412   0.107   1.155 -0.2178 -0.3162 -0.3839
  756SOL    HW2 3141   0.407   0.101   1.250  1.9711  1.7107 -0.1155
  756SOL    HW3 3142   0.491   0.059   1.131 -0.0723  0.2423 -1.0560
  756SOL    MW4 3143   0.422   0.100   1.164  0.0902  0.0249 -0.4371
  757SOL     OW 3144   0.425   0.348   1.573 -0.0019 -0.1909 -0.5060
  757SOL    HW2 3145   0.418   0.265   1.525 -0.3064 -0.2731 -0.3201
  757SOL    HW3 3146   0.347   0.397   1.547 -0.4601 -0.4636  0.3420
  757SOL    MW4 3147   0.414   0.344   1.563 -0.1025 -0.2377 -0.3698
  758SOL     OW 3148   0.660   0.485   1.503  0.0417 -0.2505 -0.2670
  758SOL    HW2 3149   0.583   0.440   1.537  0.7496 -0.7554  0.6848
  758SOL    HW3 3150   0.648   0.486   1.408 -0.2046 -2.0373 -0.2629
  758SOL    MW4 3151   0.648   0.479   1.495  0.1026 -0.5528 -0.1408
  759SOL     OW 3152   0.653   0.755   1.566 -0.1194  0.4387  0.1159
  759SOL    HW2 3153   0.657   0.663   1.541 -2.6670  0.8431 -2.0580
  759SOL    HW3 3154   0.620   0.754   1.656  0.8552 -0.8060  0.4673
  759SOL    MW4 3155   0.649   0.743   1.574 -0.3270  0.3278 -0.1246
  760SOL     OW 3156   0.411   0.871   1.498  0.2757 -0.4927 -0.6395
  760SOL    HW2 3157   0.419   0.962   1.527  0.3166 -1.3428  2.1939
  760SOL    HW3 3158   0.496   0.832   1.519  0.5346 -0.9949 -2.5808
  760SOL    MW4 3159   0.424   0.878   1.505  0.3152 -0.6711 -0.5218
  761SOL     OW 3160   0.451   1.120   1.612  0.5058  0.3473 -0.1379
  761SOL    HW2 3161   0.523   1.158   1.561 -0.4005  0.6623 -1.1969
  761SOL    HW3 3162   0.373   1.162   1.577 -0.2484 -0.4531  0.5935
  761SOL    MW4 3163   0.450   1.130   1.601  0.2867  0.2831 -0.1811
  762SOL     OW 3164   0.643   1.251   1.476  0.0304 -0.6894  0.4530
  762SOL    HW2 3165   0.654   1.338   1.515  0.3103 -1.1882  1.4949
  762SOL    HW3 3166   0.629   1.269   1.383  0.4469  0.4563  0.5941
  762SOL    MW4 3167   0.643   1.265   1.469  0.1222 -0.6042  0.6093
  763SOL     OW 3168   0.690   1.510   1.579  0.2242 -0.2516 -0.6289
  763SOL    HW2 3169   0.763   1.570   1.561  1.4031 -0.0399  4.1475
  763SOL    HW3 3170   0.612   1.560   1.558  1.2938  2.1095  0.7775
  763SOL    MW4 3171   0.689   1.525   1.574  0.5209  0.0879  0.1869
  764SOL     OW 3172   0.461   1.654   1.519  0.0465  0.2912 -0.2481
  764SOL    HW2 3173   0.450   1.746   1.540 -0.9145  0.4170 -1.2883
  764SOL    HW3 3174   0.383   1.611   1.554  0.9525 -0.3105  1.1409
  764SOL    MW4 3175   0.449   1.660   1.527  0.0392  0.2284 -0.2021
  765SOL     OW 3176   0.449   1.922   1.565 -0.4833 -0.1072  0.3872
  765SOL    HW2 3177   0.450   1.937   1.660  0.5876  0.6479  0.2657
  765SOL    HW3 3178   0.382   1.983   1.533  0.0238  0.5297  0.5244
  765SOL    MW4 3179   0.440   1.932   1.573 -0.2751  0.0764  0.3893
  766SOL     OW 3180   0.681   2.080   1.489 -0.0063  0.3809  0.1286
  766SOL    HW2 3181   0.759   2.047   1.533 -0.5205  0.7516  1.3441
  766SOL    HW3 3182   0.613   2.016   1.507 -0.3118  0.7162  0.1902
  766SOL    MW4 3183   0.682   2.067   1.497 -0.1144  0.4737  0.2971
  767SOL     OW 3184   0.657   2.340   1.586 -0.5003  0.0464 -0.0385
  767SOL    HW2 3185   0.578   2.379   1.549 -1.7728 -1.3690  1.1019
  767SOL    HW3 3186   0.657   2.251   1.553 -0.0228 -0.3101  0.9051
  767SOL    MW4 3187   0.647   2.334   1.577 -0.6052 -0.1876  0.2363
  768SOL     OW 3188   0.446   2.431   1.464 -0.2520  0.3092  0.1384
  768SOL    HW2 3189   0.435   2.516   1.508 -1.7115  0.7008 -0.9508
  768SOL    HW3 3190   0.367   2.382   1.485 -0.3119 -0.0397 -0.8638
  768SOL    MW4 3191   0.434   2.436   1.472 -0.4525  0.3147 -0.1376
  769SOL     OW 3192   0.464   2.700   1.577  0.6642  0.1044 -0.0859
  769SOL    HW2 3193   0.453   2.702   1.672 -2.0370 -0.2148 -0.3507
  769SOL    HW3 3194   0.544   2.751   1.561  0.4450  1.2406  2.2486
  769SOL    MW4 3195   0.473   2.707   1.588  0.2789  0.2122  0.1872
  770SOL     OW 3196   0.693   2.832   1.512 -0.8313  0.5297 -0.0206
  770SOL    HW2 3197   0.693   2.926   1.528 -1.7021  0.5185  0.0808
  770SOL    HW3 3198   0.659   2.822   1.423 -1.1138  0.2943  0.1107
  770SOL    MW4 3199   0.688   2.843   1.502 -0.9835  0.4973  0.0101
  771SOL     OW 3200   0.657   3.090   1.592  0.2035  0.2614 -0.1941
  771SOL    HW2 3201   0.727   3.141   1.551  0.1885  0.0758 -0.4540
  771SOL    HW3 3202   0.577   3.134   1.565  0.1308 -0.5481 -1.3470
  771SOL    MW4 3203   0.656   3.103   1.583  0.1919  0.1299 -0.3806
  772SOL     OW 3204   0.438   3.246   1.462  0.0419 -0.1011 -0.5241
  772SOL    HW2 3205   0.351   3.212   1.484 -0.5770  1.6780 -0.1603
  772SOL    HW3 3206   0.449   3.227   1.369 -1.3844  1.0908 -0.9358
  772SOL    MW4 3207   0.428   3.239   1.453 -0.2280  0.2909 -0.5306
  773SOL     OW 3208   0.431   3.518   1.539 -0.1637 -0.1368 -0.0880
  773SOL    HW2 3209   0.431   3.424   1.523  0.0790 -0.3276  0.9853
  773SOL    HW3 3210   0.353   3.550   1.493 -1.9055 -1.3083  1.8866
  773SOL    MW4 3211   0.420   3.510   1.531 -0.3615 -0.3169  0.3142
  774SOL     OW 3212   0.686   3.588   1.443  0.2236  0.0286  0.2333
  774SOL    HW2 3213   0.749   3.556   1.507  1.7399  0.9244 -0.7903
  774SOL    HW3 3214   0.603   3.548   1.469  1.4456 -2.1517  0.8607
  774SOL    MW4 3215   0.683   3.579   1.455  0.5850 -0.1411  0.1811
  775SOL     OW 3216   0.627   3.822   1.566  0.1258 -0.0939 -0.0230
  775SOL    HW2 3217   0.708   3.866   1.539 -0.1259  0.7643  0.6060
  775SOL    HW3 3218   0.637   3.733   1.532  1.5853 -0.1630  0.5317
  775SOL    MW4 3219   0.639   3.816   1.558  0.2851  0.0103  0.1332
  776SOL     OW 3220   0.444   3.994   1.446  0.1617  0.4780  0.2942
  776SOL    HW2 3221   0.514   3.937   1.476  0.2174  0.6240  0.4423
  776SOL    HW3 3222   0.441   3.982   1.351 -0.3693 -0.3862  0.4157
  776SOL    MW4 3223   0.453   3.985   1.438  0.0989  0.3834  0.3297
  777SOL     OW 3224   0.416   4.244   1.559  0.2810  0.0785  0.4775
  777SOL    HW2 3225   0.420   4.151   1.535  0.2878 -0.1938  1.5036
  777SOL    HW3 3226   0.341   4.278   1.511 -2.1926 -1.3763  3.1599
  777SOL    MW4 3227   0.407   4.236   1.550 -0.0444 -0.1488  0.9668
  778SOL     OW 3228   0.630   4.348   1.442 -0.1416  0.2460  0.1366
  778SOL    HW2 3229   0.548   4.310   1.474 -0.4024 -0.8146 -1.7017
  778SOL    HW3 3230   0.630   4.438   1.475 -1.1359 -0.3170  1.7310
  778SOL    MW4 3231   0.619   4.355   1.451 -0.3071  0.0319  0.1044
  779SOL     OW 3232   1.075   4.613   1.602  0.4626  0.2514 -0.5364
  779SOL    HW2 3233   1.086   4.624   1.697  0.1808 -1.6626 -0.2583
  779SOL    HW3 3234   1.151   4.657   1.564  1.8083 -0.9351  0.7154
  779SOL    MW4 3235   1.087   4.620   1.610  0.6030 -0.1578 -0.3346
  780SOL     OW 3236   0.884   0.083   1.484 -0.1849  0.1709 -0.1053
  780SOL    HW2 3237   0.894   0.172   1.517 -0.8178 -0.1818  1.0650
  780SOL    HW3 3238   0.954   0.034   1.528 -1.3292 -0.4013  1.0998
  780SOL    MW4 3239   0.895   0.088   1.494 -0.4194  0.0489  0.2083
  781SOL     OW 3240   0.892   0.344   1.572 -0.3082 -0.3791  0.0291
  781SOL    HW2 3241   0.905   0.357   1.666 -1.9353 -1.5462  0.4428
  781SOL    HW3 3242   0.812   0.394   1.552  0.0380 -0.1283 -0.7415
  781SOL    MW4 3243   0.883   0.352   1.582 -0.4773 -0.5000 -0.0180
  782SOL     OW 3244   1.127   0.454   1.500  0.1237 -0.5400  0.3485
  782SOL    HW2 3245   1.125   0.547   1.519  0.0599 -0.5560  0.4219
  782SOL    HW3 3246   1.041   0.422   1.528  0.8870 -0.9915  2.2274
  782SOL    MW4 3247   1.115   0.462   1.506  0.2160 -0.6016  0.6059
  783SOL     OW 3248   1.117   0.753   1.535  0.3439 -0.5924  0.0491
  783SOL    HW2 3249   1.107   0.750   1.630 -0.0205 -0.4518  0.0187
  783SOL    HW3 3250   1.031   0.781   1.503  0.8170  0.5625 -0.2395
  783SOL    MW4 3251   1.104   0.756   1.543  0.3582 -0.4215  0.0070
  784SOL     OW 3252   0.875   0.894   1.452  0.1418  0.5291  0.2314
  784SOL    HW2 3253   0.868   0.981   1.492 -0.6768  0.0006  1.2535
  784SOL    HW3 3254   0.800   0.845   1.487  2.6301 -1.7543  2.5900
  784SOL    MW4 3255   0.864   0.899   1.462  0.3621  0.1581  0.6773
  785SOL     OW 3256   0.873   1.145   1.563 -0.1093  0.0887 -0.4082
  785SOL    HW2 3257   0.858   1.124   1.655 -1.3126  0.5262 -0.5020
  785SOL    HW3 3258   0.788   1.174   1.530  0.0603 -1.0618 -1.9351
  785SOL    MW4 3259   0.860   1.146   1.571 -0.2457 -0.0054 -0.6220
  786SOL     OW 3260   1.078   1.294   1.480 -0.0331 -0.0840  0.4532
  786SOL    HW2 3261   1.159   1.252   1.509  0.0593  1.0093  1.8628
  786SOL    HW3 3262   1.009   1.244   1.523  0.0228  0.4527  1.1844
  786SOL    MW4 3263   1.079   1.282   1.490 -0.0135  0.1310  0.7356
  787SOL     OW 3264   1.115   1.560   1.569 -0.6084  0.3822  0.1372
  787SOL    HW2 3265   1.124   1.558   1.665  0.1313  0.5846  0.0753
  787SOL    HW3 3266   1.090   1.471   1.546 -1.4316  0.4961  0.5839
  787SOL    MW4 3267   1.113   1.548   1.579 -0.6193  0.4239  0.1881
  788SOL     OW 3268   0.894   1.685   1.482  0.1334  0.1596 -0.4479
  788SOL    HW2 3269   0.972   1.642   1.516  1.3093  1.9293 -0.8742
  788SOL    HW3 3270   0.904   1.681   1.387 -0.6065 -0.1349 -0.5233
  788SOL    MW4 3271   0.905   1.679   1.474  0.1909  0.3542 -0.5141
  789SOL     OW 3272   0.909   1.959   1.604 -0.5174  0.9702  0.0079
  789SOL    HW2 3273   0.987   2.004   1.574 -0.6142  0.6998 -0.6580
  789SOL    HW3 3274   0.913   1.873   1.562  0.5318 -0.2921  2.5799
  789SOL    MW4 3275   0.920   1.954   1.595 -0.3918  0.7679  0.2593
  790SOL     OW 3276   1.114   2.091   1.474 -0.1257  0.1941  0.1291
  790SOL    HW2 3277   1.190   2.046   1.511 -0.9831 -0.9199  0.5704
  790SOL    HW3 3278   1.118   2.180   1.510  0.2736 -0.2351  1.1450
  790SOL    MW4 3279   1.124   2.097   1.484 -0.1861 -0.0095  0.3213
  791SOL     OW 3280   1.143   2.348   1.564 -0.1085  0.3583 -0.2733
  791SOL    HW2 3281   1.221   2.375   1.515 -0.3372 -0.6374 -1.2126
  791SOL    HW3 3282   1.072   2.398   1.524 -0.4474 -1.1918 -1.6422
  791SOL    MW4 3283   1.144   2.358   1.552 -0.1835  0.0226 -0.5778
  792SOL     OW 3284   0.864   2.447   1.449 -0.2016  0.2165 -0.0419
  792SOL    HW2 3285   0.874   2.538   1.477 -0.5584  0.3519 -0.3599
  792SOL    HW3 3286   0.798   2.411   1.508  0.4884 -0.0480  0.5757
  792SOL    MW4 3287   0.857   2.455   1.460 -0.1576  0.1996 -0.0024
  793SOL     OW 3288   0.937   2.690   1.542  0.3481 -0.5461  0.4401
  793SOL    HW2 3289   0.945   2.666   1.634 -0.3076  0.6740  0.8352
  793SOL    HW3 3290   0.855   2.739   1.538  0.9914  0.4719 -0.5520
  793SOL    MW4 3291   0.927   2.694   1.554  0.3464 -0.2508  0.3614
  794SOL     OW 3292   1.137   2.845   1.441 -0.3300  0.3201 -0.0933
  794SOL    HW2 3293   1.141   2.934   1.476  1.9202 -0.5078  1.9030
  794SOL    HW3 3294   1.061   2.806   1.484 -0.4022  0.7927  0.2153
  794SOL    MW4 3295   1.128   2.852   1.451 -0.0424  0.2735  0.2109
  795SOL     OW 3296   1.105   3.099   1.540  0.0462  0.6035  1.0045
  795SOL    HW2 3297   1.104   3.102   1.636  0.4856  1.8605  0.9749
  795SOL    HW3 3298   1.185   3.145   1.515  0.0602  0.0732  0.0322
  795SOL    MW4 3299   1.115   3.105   1.550  0.1060  0.6995  0.8724
  796SOL     OW 3300   0.873   3.251   1.476  0.6692 -0.4967  0.0383
  796SOL    HW2 3301   0.953   3.204   1.500  1.0550 -0.0222 -0.3149
  796SOL    HW3 3302   0.862   3.235   1.383  0.4372 -0.4375  0.0543
  796SOL    MW4 3303   0.882   3.243   1.467  0.6895 -0.4261 -0.0063
  797SOL     OW 3304   0.909   3.525   1.581 -0.2419 -0.0012  0.2901
  797SOL    HW2 3305   0.984   3.561   1.534  0.1653 -0.1183  0.8430
  797SOL    HW3 3306   0.896   3.438   1.544 -0.2035  0.0811  0.0850
  797SOL    MW4 3307   0.917   3.518   1.570 -0.1832 -0.0057  0.3361
  798SOL     OW 3308   1.125   3.635   1.447  0.7940  0.5254 -0.1931
  798SOL    HW2 3309   1.195   3.582   1.484 -1.3058 -1.6127  0.8573
  798SOL    HW3 3310   1.127   3.614   1.353  1.1517 -0.0154 -0.0711
  798SOL    MW4 3311   1.135   3.625   1.439  0.5641  0.1719 -0.0384
  799SOL     OW 3312   1.125   3.916   1.511  0.0535  0.2384 -0.3134
  799SOL    HW2 3313   1.215   3.947   1.516  0.4216 -0.8421  0.0624
  799SOL    HW3 3314   1.133   3.821   1.497 -1.0199  0.2399 -1.0092
  799SOL    MW4 3315   1.138   3.907   1.510 -0.0395  0.0961 -0.3557
  800SOL     OW 3316   0.860   3.972   1.488 -0.3600  0.2273  0.1201
  800SOL    HW2 3317   0.865   4.065   1.513  1.1876  0.4310 -0.9003
  800SOL    HW3 3318   0.952   3.945   1.480 -0.8157 -1.1143 -0.6024
  800SOL    MW4 3319   0.873   3.981   1.490 -0.2159  0.0775 -0.1099
  801SOL     OW 3320   0.868   4.260   1.526 -0.4146 -0.0633 -0.3927
  801SOL    HW2 3321   0.871   4.269   1.622  0.9920  0.3315 -0.4661
  801SOL    HW3 3322   0.782   4.292   1.502 -0.5722  0.3618  0.6916
  801SOL    MW4 3323   0.857   4.265   1.536 -0.2499  0.0448 -0.2594
  802SOL     OW 3324   1.131   4.368   1.472 -0.0760  0.1789 -0.2044
  802SOL    HW2 3325   1.043   4.337   1.494  0.1649  0.1103  0.6750
  802SOL    HW3 3326   1.128   4.463   1.487  0.2066  0.0745  0.5252
  802SOL    MW4 3327   1.119   4.376   1.477 -0.0070  0.1564  0.0080
  803SOL     OW 3328   1.552   4.633   1.542 -0.2392  0.6591  0.1798
  803SOL    HW2 3329   1.552   4.651   1.637 -0.0943  1.7017 -0.0097
  803SOL    HW3 3330   1.462   4.652   1.514 -0.1428  0.8789  0.0171
  803SOL    MW4 3331   1.540   4.638   1.551 -0.2073  0.8264  0.1333
  804SOL     OW 3332   1.299   0.064   1.473 -0.0979  0.2450  0.7118
  804SOL    HW2 3333   1.321   0.154   1.499  0.2397  0.4180 -0.1549
  804SOL    HW3 3334   1.293   0.068   1.378  1.4516 -0.9939  0.5401
  804SOL    MW4 3335   1.301   0.077   1.464  0.1510  0.1044  0.5749
  805SOL     OW 3336   1.337   0.330   1.586 -0.6315 -0.2408 -0.1758
  805SOL    HW2 3337   1.405   0.392   1.557 -0.9504  0.4615  0.5495
  805SOL    HW3 3338   1.255   0.371   1.559 -0.8322 -0.5079  0.0312
  805SOL    MW4 3339   1.335   0.344   1.579 -0.7000 -0.1834 -0.0527
  806SOL     OW 3340   1.534   0.520   1.508  0.2099  0.0512 -0.4003
  806SOL    HW2 3341   1.621   0.490   1.531  0.5874  1.4655  0.0618
  806SOL    HW3 3342   1.529   0.507   1.413  0.9247 -0.0425 -0.4280
  806SOL    MW4 3343   1.545   0.514   1.498  0.3541  0.2255 -0.3428
  807SOL     OW 3344   1.566   0.804   1.588  0.2379  0.0311  0.0873
  807SOL    HW2 3345   1.584   0.788   1.680 -0.1684  0.5222  0.2591
  807SOL    HW3 3346   1.546   0.718   1.552  0.2043 -0.1368  0.5034
  807SOL    MW4 3347   1.566   0.790   1.595  0.1800  0.0738  0.1650
  808SOL     OW 3348   1.339   0.898   1.441  0.3445 -0.7016  0.3908
  808SOL    HW2 3349   1.264   0.843   1.465  1.3500 -2.4474 -0.4035
  808SOL    HW3 3350   1.408   0.873   1.503 -0.0935  1.8573  2.0011
  808SOL    MW4 3351   1.338   0.887   1.453  0.4194 -0.5943  0.4985
  809SOL     OW 3352   1.327   1.170   1.533  0.4000 -0.2961  0.0643
  809SOL    HW2 3353   1.313   1.165   1.628 -0.0550 -0.4327 -0.0092
  809SOL    HW3 3354   1.311   1.082   1.501 -1.5514  0.2128 -0.4129
  809SOL    MW4 3355   1.323   1.158   1.541  0.0824 -0.2471 -0.0082
  810SOL     OW 3356   1.547   1.311   1.438  0.6932 -0.1933  0.0163
  810SOL    HW2 3357   1.469   1.260   1.462  1.7368 -2.0790 -0.5168
  810SOL    HW3 3358   1.545   1.312   1.342  0.7423  0.6949  0.0223
  810SOL    MW4 3359   1.536   1.304   1.429  0.8373 -0.3250 -0.0532
  811SOL     OW 3360   1.549   1.563   1.596  0.2864 -0.6225 -0.5206
  811SOL    HW2 3361   1.554   1.561   1.692  0.3739  0.6091 -0.4877
  811SOL    HW3 3362   1.546   1.471   1.570  0.6712 -0.9728  0.6449
  811SOL    MW4 3363   1.549   1.551   1.606  0.3486 -0.5062 -0.3625
  812SOL     OW 3364   1.321   1.692   1.445  0.1757  0.0970  0.0845
  812SOL    HW2 3365   1.402   1.669   1.490  0.2086  2.0089  1.0416
  812SOL    HW3 3366   1.254   1.638   1.487  0.7272 -0.5072  0.1965
  812SOL    MW4 3367   1.323   1.682   1.456  0.2528  0.2694  0.2255
  813SOL     OW 3368   1.343   1.962   1.531 -0.1322 -0.2857 -0.1389
  813SOL    HW2 3369   1.362   1.952   1.624 -1.9694  1.6394  0.4719
  813SOL    HW3 3370   1.325   1.873   1.501  2.6374 -1.2238  0.8069
  813SOL    MW4 3371   1.343   1.949   1.539 -0.0092 -0.1554  0.0665
  814SOL     OW 3372   1.573   2.068   1.426  0.1899  0.2520 -0.4902
  814SOL    HW2 3373   1.649   2.027   1.467  0.0756 -0.7599 -1.2643
  814SOL    HW3 3374   1.498   2.020   1.460 -0.0755  0.9749 -0.0473
  814SOL    MW4 3375   1.573   2.056   1.436  0.1397  0.2139 -0.5338
  815SOL     OW 3376   1.574   2.335   1.562  0.2945 -0.0306 -0.4669
  815SOL    HW2 3377   1.571   2.324   1.657 -0.9822  1.0574 -0.3769
  815SOL    HW3 3378   1.579   2.246   1.528  1.3507 -0.4037  0.6381
  815SOL    MW4 3379   1.574   2.322   1.570  0.2654  0.0639 -0.3092
  816SOL     OW 3380   1.361   2.446   1.430 -0.3393  0.1110 -0.1446
  816SOL    HW2 3381   1.351   2.532   1.471  0.1872 -0.0839  0.4028
  816SOL    HW3 3382   1.438   2.408   1.473  0.7953  0.2784 -1.9559
  816SOL    MW4 3383   1.370   2.453   1.441 -0.1203  0.1073 -0.3114
  817SOL     OW 3384   1.353   2.700   1.547 -0.0698 -0.4476  0.4292
  817SOL    HW2 3385   1.426   2.758   1.525  0.6379 -1.5185 -0.0338
  817SOL    HW3 3386   1.275   2.749   1.520  0.4188  0.9910  1.5423
  817SOL    MW4 3387   1.352   2.714   1.541  0.0880 -0.3994  0.5149
  818SOL     OW 3388   1.544   2.881   1.471 -0.2470  0.5137  0.4267
  818SOL    HW2 3389   1.622   2.833   1.497 -0.2862  0.0391 -0.3240
  818SOL    HW3 3390   1.553   2.893   1.376 -1.2741  0.1122  0.2710
  818SOL    MW4 3391   1.556   2.876   1.462 -0.3875  0.3982  0.3072
  819SOL     OW 3392   1.549   3.137   1.592 -0.0419  0.0030 -0.1797
  819SOL    HW2 3393   1.631   3.171   1.555 -1.2650  1.5355 -1.5998
  819SOL    HW3 3394   1.540   3.049   1.554  0.7930 -0.0480 -0.2671
  819SOL    MW4 3395   1.559   3.130   1.582 -0.0932  0.1986 -0.3787
  820SOL     OW 3396   1.336   3.254   1.455 -0.0622  0.4224  0.3482
  820SOL    HW2 3397   1.327   3.334   1.507  0.2002  0.2906  0.5959
  820SOL    HW3 3398   1.419   3.216   1.484 -0.1201  0.1330  0.1311
  820SOL    MW4 3399   1.346   3.260   1.466 -0.0352  0.3667  0.3521
  821SOL     OW 3400   1.345   3.501   1.568  0.4361  0.0364 -0.2520
  821SOL    HW2 3401   1.351   3.486   1.663 -1.6076 -0.0298 -0.1177
  821SOL    HW3 3402   1.431   3.536   1.544  0.5073  1.4610  1.8927
  821SOL    MW4 3403   1.357   3.504   1.577  0.1758  0.2155  0.0485
  822SOL     OW 3404   1.594   3.651   1.483  0.3107  1.1185  0.1146
  822SOL    HW2 3405   1.595   3.740   1.516  1.2848  1.4354 -0.7275
  822SOL    HW3 3406   1.609   3.660   1.389 -1.5058  0.1843 -0.2881
  822SOL    MW4 3407   1.596   3.664   1.475  0.1994  1.0369 -0.0497
  823SOL     OW 3408   1.608   3.902   1.569 -0.0068 -0.2018  0.1629
  823SOL    HW2 3409   1.594   3.899   1.664 -0.2037 -1.1188  0.1086
  823SOL    HW3 3410   1.528   3.942   1.534 -0.5928 -1.2505  0.2606
  823SOL    MW4 3411   1.596   3.907   1.577 -0.1100 -0.4613  0.1687
  824SOL     OW 3412   1.396   4.022   1.454  0.2226  0.3874  0.3181
  824SOL    HW2 3413   1.371   4.106   1.493 -0.5273 -0.4053  1.5746
  824SOL    HW3 3414   1.380   4.033   1.360 -1.0021  1.2474  0.6172
  824SOL    MW4 3415   1.391   4.035   1.447 -0.0378  0.3958  0.5233
  825SOL     OW 3416   1.315   4.223   1.607  0.1427  0.3018  0.2504
  825SOL    HW2 3417   1.391   4.279   1.595 -0.1906  0.5570 -0.6940
  825SOL    HW3 3418   1.245   4.266   1.558  0.2719 -1.7576 -1.8373
  825SOL    MW4 3419   1.316   4.236   1.599  0.1158  0.0639 -0.1497
  826SOL     OW 3420   1.536   4.349   1.549  0.3422  0.1828 -0.2065
  826SOL    HW2 3421   1.630   4.338   1.563  0.2641  0.9987  1.0590
  826SOL    HW3 3422   1.524   4.444   1.542  0.0016 -0.0435 -3.3379
  826SOL    MW4 3423   1.547   4.360   1.550  0.2869  0.2604 -0.4526
  827SOL     OW 3424   1.994   0.027   1.545 -0.4812 -0.0866 -0.1434
  827SOL    HW2 3425   2.001   0.016   1.640  1.0279  0.1086 -0.2169
  827SOL    HW3 3426   1.917   0.082   1.533 -0.5601  0.0614  0.9868
  827SOL    MW4 3427   1.985   0.033   1.556 -0.2925 -0.0413 -0.0041
  828SOL     OW 3428   1.750   0.150   1.469  0.1960 -0.6579 -0.2446
  828SOL    HW2 3429   1.678   0.090   1.490 -0.9535  0.7207 -0.1192
  828SOL    HW3 3430   1.760   0.142   1.374 -0.0821 -0.9024 -0.2552
  828SOL    MW4 3431   1.741   0.141   1.459  0.0076 -0.5083 -0.2296
  829SOL     OW 3432   1.770   0.403   1.554  0.2348 -0.0906  0.7800
  829SOL    HW2 3433   1.852   0.438   1.518 -0.5612 -0.8836 -1.9641
  829SOL    HW3 3434   1.766   0.313   1.521 -1.6519 -0.0957  0.9909
  829SOL    MW4 3435   1.780   0.396   1.545 -0.1191 -0.1959  0.4458
  830SOL     OW 3436   2.019   0.482   1.455  0.0345  0.0470 -0.4243
  830SOL    HW2 3437   2.096   0.452   1.503 -0.6711  1.8638  1.9275
  830SOL    HW3 3438   2.026   0.577   1.455 -1.6471  0.1902 -1.1718
  830SOL    MW4 3439   2.030   0.490   1.461 -0.2809  0.3056 -0.2128
  831SOL     OW 3440   2.028   0.758   1.544  0.0729 -0.0069 -0.0719
  831SOL    HW2 3441   2.098   0.816   1.515  0.3897  0.2830  1.2459
  831SOL    HW3 3442   1.947   0.809   1.530 -0.0076 -0.7416 -2.6041
  831SOL    MW4 3443   2.026   0.772   1.538  0.1040 -0.0656 -0.2321
  832SOL     OW 3444   1.796   0.886   1.457  0.2251  0.3315 -0.1002
  832SOL    HW2 3445   1.797   0.981   1.469 -0.2120  0.5022 -1.2952
  832SOL    HW3 3446   1.720   0.856   1.506  0.0004  0.6774 -0.2348
  832SOL    MW4 3447   1.786   0.894   1.465  0.1378  0.3996 -0.2755
  833SOL     OW 3448   1.774   1.165   1.529 -0.1264 -0.3453 -0.0380
  833SOL    HW2 3449   1.859   1.205   1.512  0.0917 -0.6597  0.3148
  833SOL    HW3 3450   1.711   1.228   1.493  0.3387 -1.1219 -2.2525
  833SOL    MW4 3451   1.777   1.179   1.522 -0.0364 -0.4892 -0.2837
  834SOL     OW 3452   2.022   1.295   1.445 -0.1745 -0.1299 -0.0121
  834SOL    HW2 3453   1.995   1.381   1.476  1.1265  0.7012 -1.1706
  834SOL    HW3 3454   1.994   1.292   1.353  0.7550 -0.5097 -0.2931
  834SOL    MW4 3455   2.015   1.306   1.437  0.1197 -0.0705 -0.2021
  835SOL     OW 3456   1.963   1.515   1.564 -0.0805  0.2813  0.5304
  835SOL    HW2 3457   2.051   1.539   1.532  0.3926 -1.4145  0.5110
  835SOL    HW3 3458   1.906   1.585   1.530  0.9676  0.4017 -1.0791
  835SOL    MW4 3459   1.967   1.527   1.555  0.1202  0.0734  0.3154
  836SOL     OW 3460   1.765   1.691   1.461 -0.0032 -0.3670 -0.2040
  836SOL    HW2 3461   1.700   1.627   1.489  2.3815 -2.7004  0.2343
  836SOL    HW3 3462   1.762   1.688   1.365  0.5786 -1.7129 -0.1970
  836SOL    MW4 3463   1.756   1.682   1.452  0.3883 -0.8522 -0.1453
  837SOL     OW 3464   1.774   1.945   1.582 -0.1344  0.1491 -0.0315
  837SOL    HW2 3465   1.777   1.856   1.545  3.4388 -0.1159  0.7254
  837SOL    HW3 3466   1.790   1.933   1.675  0.2832  1.5490  0.0902
  837SOL    MW4 3467   1.777   1.932   1.589  0.3921  0.2986  0.0845
  838SOL     OW 3468   2.030   2.287   1.511 -0.0355 -0.3445  0.0177
  838SOL    HW2 3469   2.037   2.305   1.605  2.3645 -0.5231 -0.0978
  838SOL    HW3 3470   2.014   2.193   1.506 -1.7157 -0.0974  0.2635
  838SOL    MW4 3471   2.028   2.277   1.523  0.0594 -0.3355  0.0348
  839SOL     OW 3472   1.802   2.457   1.443 -0.0457  0.0968  0.2720
  839SOL    HW2 3473   1.882   2.416   1.474  0.2803 -0.1329 -0.8426
  839SOL    HW3 3474   1.732   2.416   1.494  0.3752 -1.1303 -0.1192
  839SOL    MW4 3475   1.803   2.446   1.454  0.0528 -0.0954  0.0732
  840SOL     OW 3476   1.798   2.492   1.170 -0.1093  0.4411 -0.1134
  840SOL    HW2 3477   1.793   2.485   1.265  0.3253  0.4611 -0.0900
  840SOL    HW3 3478   1.729   2.433   1.138  0.1232 -0.0001  0.1995
  840SOL    MW4 3479   1.788   2.483   1.178 -0.0212  0.3855 -0.0691
  841SOL     OW 3480   1.759   2.722   1.516 -0.3646  0.0373 -0.1672
  841SOL    HW2 3481   1.848   2.757   1.506 -0.2477  0.1486  1.2501
  841SOL    HW3 3482   1.767   2.630   1.489  0.4341 -0.2536  1.0284
  841SOL    MW4 3483   1.772   2.714   1.511 -0.2437  0.0134  0.1776
  842SOL     OW 3484   2.024   2.869   1.496  0.4538  0.7438  0.2566
  842SOL    HW2 3485   2.034   2.960   1.522  0.5418  0.7145  0.3274
  842SOL    HW3 3486   2.045   2.868   1.403  0.6734  0.7595  0.3050
  842SOL    MW4 3487   2.028   2.881   1.487  0.4945  0.7417  0.2723
  843SOL     OW 3488   2.050   3.144   1.569  0.1669 -0.2171 -0.0284
  843SOL    HW2 3489   2.059   3.131   1.664  2.8014 -2.4221 -0.5063
  843SOL    HW3 3490   2.131   3.188   1.544 -0.2648 -0.1508 -1.3280
  843SOL    MW4 3491   2.062   3.148   1.578  0.4575 -0.4992 -0.2630
  844SOL     OW 3492   1.795   3.222   1.452  0.2485 -0.4278 -0.2918
  844SOL    HW2 3493   1.807   3.305   1.497  0.3249 -1.4054  1.5433
  844SOL    HW3 3494   1.870   3.169   1.478 -0.4988 -1.5372 -0.3551
  844SOL    MW4 3495   1.807   3.226   1.461  0.1600 -0.7033 -0.0581
  845SOL     OW 3496   1.821   3.495   1.540 -0.7698 -0.2069  0.1714
  845SOL    HW2 3497   1.839   3.519   1.631 -0.5726 -1.7424  0.5525
  845SOL    HW3 3498   1.740   3.542   1.518 -1.2704 -0.4627  1.4134
  845SOL    MW4 3499   1.813   3.504   1.549 -0.8098 -0.4432  0.3855
  846SOL     OW 3500   2.038   3.640   1.467  0.5902  0.3516  0.1482
  846SOL    HW2 3501   2.110   3.582   1.492 -0.1197 -0.1278  1.1350
  846SOL    HW3 3502   1.959   3.594   1.496 -0.0669  1.2322 -0.2062
  846SOL    MW4 3503   2.037   3.626   1.474  0.4101  0.4046  0.2316
  847SOL     OW 3504   2.036   3.890   1.598  0.2299 -0.0520  0.1525
  847SOL    HW2 3505   2.102   3.950   1.565  0.4753 -0.9114 -0.9648
  847SOL    HW3 3506   2.049   3.810   1.547 -0.9606 -0.5939  0.6794
  847SOL    MW4 3507   2.046   3.887   1.587  0.1054 -0.2370  0.0746
  848SOL     OW 3508   1.839   4.020   1.446  0.3820  0.7495 -0.4639
  848SOL    HW2 3509   1.898   3.968   1.501  1.4709 -0.1594 -2.4508
  848SOL    HW3 3510   1.753   3.981   1.460  0.9809 -0.7458 -0.9099
  848SOL    MW4 3511   1.835   4.008   1.455  0.6047  0.4325 -0.7849
  849SOL     OW 3512   1.816   4.282   1.569  0.0571  0.0892  0.3061
  849SOL    HW2 3513   1.896   4.325   1.538  1.2576 -1.3374  1.3563
  849SOL    HW3 3514   1.813   4.199   1.522 -0.7528  0.0774  0.3687
  849SOL    MW4 3515   1.826   4.277   1.559  0.1087 -0.1006  0.4530
  850SOL     OW 3516   2.017   4.435   1.439 -0.2294  0.4170 -0.2352
  850SOL    HW2 3517   2.100   4.396   1.467 -0.8676 -0.6453  0.2224
  850SOL    HW3 3518   2.019   4.523   1.476  1.6287  1.1616 -2.0495
  850SOL    MW4 3519   2.028   4.441   1.448 -0.0687  0.3748 -0.4141
  851SOL     OW 3520   2.467   4.637   1.595 -0.2120 -0.2874 -0.0859
  851SOL    HW2 3521   2.463   4.640   1.690 -0.2327 -0.2953 -0.0864
  851SOL    HW3 3522   2.389   4.685   1.566  0.8596  1.4674 -0.1232
  851SOL    MW4 3523   2.456   4.643   1.604 -0.0732 -0.0569 -0.0911
  852SOL     OW 3524   2.253   0.120   1.471  0.5269  0.1980  0.2859
  852SOL    HW2 3525   2.167   0.090   1.503  0.0903  2.4028  1.2658
  852SOL    HW3 3526   2.240   0.134   1.378  0.1067 -0.4386  0.2424
  852SOL    MW4 3527   2.240   0.118   1.463  0.4137  0.4049  0.4094
  853SOL     OW 3528   2.221   0.385   1.581  0.0299 -0.2623 -0.3696
  853SOL    HW2 3529   2.232   0.397   1.675 -0.9302 -0.0408 -0.2758
  853SOL    HW3 3530   2.221   0.290   1.568 -0.5149 -0.3026 -0.0611
  853SOL    MW4 3531   2.222   0.374   1.591 -0.1686 -0.2384 -0.3166
  854SOL     OW 3532   2.461   0.488   1.468  0.4987 -0.2679 -0.8772
  854SOL    HW2 3533   2.537   0.432   1.485  0.7242  0.2881 -0.0127
  854SOL    HW3 3534   2.386   0.437   1.499  0.5486 -0.6795 -1.4238
  854SOL    MW4 3535   2.461   0.474   1.475  0.5352 -0.2488 -0.8353
  855SOL     OW 3536   2.460   0.764   1.575 -0.3285  0.7298  0.3232
  855SOL    HW2 3537   2.383   0.800   1.531 -1.6255 -0.3660  1.6275
  855SOL    HW3 3538   2.470   0.676   1.538 -0.2547  0.5342  0.7958
  855SOL    MW4 3539   2.451   0.757   1.565 -0.4900  0.5594  0.5575
  856SOL     OW 3540   2.238   0.891   1.453  0.5171  0.4929 -0.3756
  856SOL    HW2 3541   2.235   0.983   1.479 -2.3600  0.6911 -1.2825
  856SOL    HW3 3542   2.255   0.894   1.359 -0.3746  0.1428 -0.5513
  856SOL    MW4 3543   2.240   0.904   1.444  0.0196  0.4728 -0.5186
  857SOL     OW 3544   2.217   1.152   1.549 -0.3808 -0.1027  0.0595
  857SOL    HW2 3545   2.211   1.161   1.644 -0.6797 -0.5892  0.0867
  857SOL    HW3 3546   2.153   1.215   1.515 -0.0570  0.2926  0.1671
  857SOL    MW4 3547   2.208   1.162   1.557 -0.3774 -0.1147  0.0772
  858SOL     OW 3548   2.446   1.274   1.448 -0.1702 -0.4833 -0.1937
  858SOL    HW2 3549   2.372   1.224   1.484  0.0303 -0.3982  0.3474
  858SOL    HW3 3550   2.435   1.269   1.353 -1.2526  0.1072 -0.0986
  858SOL    MW4 3551   2.435   1.267   1.441 -0.2866 -0.3941 -0.1098
  859SOL     OW 3552   2.457   1.525   1.565 -0.0496 -0.0584 -0.0678
  859SOL    HW2 3553   2.528   1.565   1.515 -0.2818 -1.2274 -1.3567
  859SOL    HW3 3554   2.440   1.441   1.521 -1.2464 -0.4534  1.0923
  859SOL    MW4 3555   2.464   1.519   1.553 -0.2382 -0.2646 -0.0849
  860SOL     OW 3556   2.210   1.602   1.486  0.3667 -0.4888 -0.1824
  860SOL    HW2 3557   2.293   1.579   1.528  0.3099 -0.3918 -0.0150
  860SOL    HW3 3558   2.231   1.612   1.394  0.8647  1.1449  0.0998
  860SOL    MW4 3559   2.224   1.600   1.480  0.4244 -0.2605 -0.1229
  861SOL     OW 3560   2.227   1.890   1.576 -0.0242 -0.3800  0.0656
  861SOL    HW2 3561   2.228   1.897   1.672 -2.0470  1.2078  0.0034
  861SOL    HW3 3562   2.220   1.796   1.559  1.4266 -0.7699  1.4368
  861SOL    MW4 3563   2.226   1.879   1.586 -0.0999 -0.2220  0.2383
  862SOL     OW 3564   2.426   2.049   1.475  0.1436  0.0334  0.6044
  862SOL    HW2 3565   2.354   1.993   1.503  1.4900 -1.6535  0.7567
  862SOL    HW3 3566   2.444   2.021   1.385  0.0521  1.0475  0.2627
  862SOL    MW4 3567   2.419   2.038   1.467  0.3090 -0.0551  0.5795
  863SOL     OW 3568   2.460   2.315   1.544  0.0006 -0.6700  0.0374
  863SOL    HW2 3569   2.438   2.325   1.637  0.0969 -0.9280  0.0879
  863SOL    HW3 3570   2.454   2.221   1.528 -0.2439 -0.6016 -0.2754
  863SOL    MW4 3571   2.456   2.304   1.554 -0.0188 -0.6950  0.0029
  864SOL     OW 3572   2.233   2.465   1.452  0.0676 -0.0158 -0.3633
  864SOL    HW2 3573   2.302   2.410   1.490 -1.8711 -1.0762  1.7385
  864SOL    HW3 3574   2.155   2.410   1.454 -1.4086  2.0286 -0.4174
  864SOL    MW4 3575   2.232   2.450   1.457 -0.3831  0.1140 -0.0931
  865SOL     OW 3576   2.245   2.718   1.592  0.2530 -0.0424 -0.4403
  865SOL    HW2 3577   2.228   2.635   1.549  0.1800  0.2149 -0.9058
  865SOL    HW3 3578   2.167   2.771   1.575  0.7948  0.5377 -1.1393
  865SOL    MW4 3579   2.233   2.714   1.584  0.3150  0.0679 -0.5940
  866SOL     OW 3580   2.470   2.877   1.483 -0.3966  0.0595  0.5055
  866SOL    HW2 3581   2.477   2.960   1.530  0.2726 -0.0030  0.5278
  866SOL    HW3 3582   2.392   2.836   1.518 -0.1054  0.1783  1.3063
  866SOL    MW4 3583   2.461   2.883   1.494 -0.2699  0.0670  0.6140
  867SOL     OW 3584   2.511   3.127   1.581  0.0182  0.0842 -0.2592
  867SOL    HW2 3585   2.429   3.162   1.546 -1.2147 -1.8967  0.5767
  867SOL    HW3 3586   2.499   3.132   1.676  0.5814 -0.8639 -0.1406
  867SOL    MW4 3587   2.498   3.132   1.589 -0.0703 -0.3023 -0.1332
  868SOL     OW 3588   2.295   3.240   1.502 -0.0535  0.1200  0.2181
  868SOL    HW2 3589   2.277   3.328   1.537 -1.4078  0.1643 -0.5675
  868SOL    HW3 3590   2.286   3.249   1.407  1.4929 -0.4923  0.0049
  868SOL    MW4 3591   2.291   3.253   1.494 -0.0281  0.0451  0.0863
  869SOL     OW 3592   2.252   3.500   1.571  0.7130 -0.1786  0.2584
  869SOL    HW2 3593   2.235   3.494   1.665  3.2600 -1.3816  0.6925
  869SOL    HW3 3594   2.324   3.562   1.563 -0.1057  0.6348 -1.0008
  869SOL    MW4 3595   2.259   3.507   1.582  0.9413 -0.2298  0.1495
  870SOL     OW 3596   2.437   3.689   1.498 -0.2272  0.2873  0.6982
  870SOL    HW2 3597   2.524   3.650   1.508 -0.1371 -0.1329 -1.6238
  870SOL    HW3 3598   2.442   3.772   1.545  1.5326  0.4363  0.2533
  870SOL    MW4 3599   2.449   3.695   1.506  0.0172  0.2515  0.3333
  871SOL     OW 3600   2.433   3.938   1.624 -0.2227  0.3632  0.0120
  871SOL    HW2 3601   2.434   3.942   1.719 -1.0633  2.7391 -0.0327
  871SOL    HW3 3602   2.521   3.962   1.597 -0.5208  1.7131  0.1810
  871SOL    MW4 3603   2.444   3.942   1.633 -0.3729  0.8550  0.0284
  872SOL     OW 3604   2.205   4.085   1.518  0.0307  0.1989  0.2988
  872SOL    HW2 3605   2.286   4.055   1.558 -0.3195 -0.6910  0.3532
  872SOL    HW3 3606   2.214   4.066   1.425 -0.6227 -1.0792  0.4847
  872SOL    MW4 3607   2.217   4.078   1.511 -0.1018 -0.0873  0.3307
  873SOL     OW 3608   2.258   4.344   1.547  0.2297  0.3834  0.6640
  873SOL    HW2 3609   2.353   4.357   1.543 -0.1291  3.7759  1.0228
  873SOL    HW3 3610   2.245   4.250   1.537  3.5523  0.0205 -0.6943
  873SOL    MW4 3611   2.269   4.334   1.545  0.6211  0.7834  0.5320
  874SOL     OW 3612   2.536   4.380   1.501 -0.1138 -0.4173 -0.1745
  874SOL    HW2 3613   2.524   4.466   1.542 -1.6381 -0.4536 -0.5159
  874SOL    HW3 3614   2.531   4.397   1.407 -0.3511 -0.8673 -0.2451
  874SOL    MW4 3615   2.534   4.393   1.494 -0.3462 -0.4811 -0.2290
  875SOL     OW 3616   2.917   4.624   1.586 -0.5129 -0.0602  0.2115
  875SOL    HW2 3617   2.902   4.639   1.680 -0.5339  0.4098  0.1339
  875SOL    HW3 3618   2.845   4.670   1.543 -0.7883 -0.6993 -0.0148
  875SOL    MW4 3619   2.905   4.632   1.593 -0.5522 -0.0825  0.1713
  876SOL     OW 3620   2.700   0.090   1.474  0.0778 -0.7034  0.2673
  876SOL    HW2 3621   2.713   0.178   1.507  0.8583 -0.3252 -1.0058
  876SOL    HW3 3622   2.623   0.058   1.521 -0.7617  0.9897  0.0861
  876SOL    MW4 3623   2.691   0.097   1.484  0.0701 -0.4301  0.0755
  877SOL     OW 3624   2.699   0.360   1.549  0.1413  0.1012 -0.0232
  877SOL    HW2 3625   2.727   0.358   1.640 -0.6545  0.4785  0.2410
  877SOL    HW3 3626   2.763   0.416   1.505  0.5178 -0.0720  0.3007
  877SOL    MW4 3627   2.711   0.367   1.555  0.0863  0.1281  0.0544
  878SOL     OW 3628   2.918   0.491   1.461 -0.0120  0.5217 -0.0340
  878SOL    HW2 3629   2.914   0.581   1.492  0.8588  0.5065  0.1413
  878SOL    HW3 3630   2.916   0.497   1.366  0.0764  0.7342 -0.0220
  878SOL    MW4 3631   2.917   0.504   1.453  0.1144  0.5478 -0.0092
  879SOL     OW 3632   2.923   0.753   1.544  0.4217 -0.3994 -0.2300
  879SOL    HW2 3633   2.909   0.762   1.638 -0.5952  1.0300 -0.4951
  879SOL    HW3 3634   2.840   0.781   1.504  1.7223  1.6850 -1.6290
  879SOL    MW4 3635   2.911   0.758   1.551  0.4594  0.0642 -0.4494
  880SOL     OW 3636   2.687   0.894   1.443 -0.0317  0.6070 -0.3212
  880SOL    HW2 3637   2.602   0.863   1.474  1.2748 -1.7506  1.1276
  880SOL    HW3 3638   2.673   0.914   1.350 -2.2850  0.8266  0.0317
  880SOL    MW4 3639   2.674   0.892   1.435 -0.1566  0.3249 -0.0836
  881SOL     OW 3640   2.658   1.137   1.581 -0.6017  0.2106  0.1568
  881SOL    HW2 3641   2.671   1.054   1.535 -0.0032  0.2476  0.2582
  881SOL    HW3 3642   2.592   1.183   1.529  0.4129  0.4497 -0.9348
  881SOL    MW4 3643   2.651   1.132   1.568 -0.3884  0.2471  0.0261
  882SOL     OW 3644   2.870   1.254   1.439  0.0386 -0.0819  0.1331
  882SOL    HW2 3645   2.948   1.225   1.486  0.7122  1.0393 -0.2779
  882SOL    HW3 3646   2.797   1.218   1.490  0.8098 -2.6475 -0.4616
  882SOL    MW4 3647   2.870   1.245   1.452  0.2294 -0.2724  0.0004
  883SOL     OW 3648   2.878   1.532   1.571  0.5242 -0.1056  0.1671
  883SOL    HW2 3649   2.805   1.579   1.531  0.2710  0.6490  1.4725
  883SOL    HW3 3650   2.890   1.455   1.517  1.1962  1.6600 -2.2601
  883SOL    MW4 3651   2.870   1.528   1.559  0.5796  0.2270  0.0192
  884SOL     OW 3652   2.689   1.693   1.445 -0.4094  0.6530 -0.0687
  884SOL    HW2 3653   2.681   1.782   1.480 -1.0877  0.8238 -0.6516
  884SOL    HW3 3654   2.699   1.705   1.351  0.6818  0.1585 -0.0230
  884SOL    MW4 3655   2.689   1.706   1.438 -0.3548  0.6104 -0.1396
  885SOL     OW 3656   2.700   1.954   1.554  0.1218  0.3423 -0.2266
  885SOL    HW2 3657   2.721   1.938   1.646  1.2928  2.6011 -0.0726
  885SOL    HW3 3658   2.608   1.979   1.554  0.1374  0.4053  0.3289
  885SOL    MW4 3659   2.691   1.955   1.566  0.2785  0.6485 -0.1330
  886SOL     OW 3660   2.923   2.110   1.481  0.0447  0.2791  0.2576
  886SOL    HW2 3661   2.902   2.203   1.492 -0.5330  0.1377  0.3593
  886SOL    HW3 3662   2.841   2.064   1.500 -0.0035 -0.1847 -1.0054
  886SOL    MW4 3663   2.909   2.116   1.485 -0.0379  0.1993  0.1043
  887SOL     OW 3664   2.852   2.382   1.505  0.2308  0.3436 -0.1556
  887SOL    HW2 3665   2.859   2.397   1.599  0.5455 -0.6192 -0.0274
  887SOL    HW3 3666   2.767   2.419   1.482  0.7796  1.9082  0.2429
  887SOL    MW4 3667   2.841   2.389   1.514  0.3450  0.4232 -0.0862
  888SOL     OW 3668   2.623   2.486   1.396 -0.1962 -0.1323 -0.1553
  888SOL    HW2 3669   2.635   2.550   1.466 -0.8718  1.9304 -1.8631
  888SOL    HW3 3670   2.558   2.425   1.430 -0.1856  0.5839  1.1737
  888SOL    MW4 3671   2.616   2.486   1.410 -0.2837  0.2346 -0.2053
  889SOL     OW 3672   2.669   2.688   1.589 -0.0618  0.1508 -0.0058
  889SOL    HW2 3673   2.670   2.702   1.683  0.4396  1.5766 -0.2045
  889SOL    HW3 3674   2.599   2.745   1.557  0.8867  0.9527 -0.6738
  889SOL    MW4 3675   2.660   2.697   1.597  0.1295  0.4447 -0.1200
  890SOL     OW 3676   2.885   2.876   1.535  0.0479  0.2287 -0.0058
  890SOL    HW2 3677   2.970   2.839   1.560 -0.2494 -0.6539 -0.2940
  890SOL    HW3 3678   2.822   2.809   1.559 -0.4764  0.4539 -0.7476
  890SOL    MW4 3679   2.888   2.862   1.542 -0.0606  0.1421 -0.1417
  891SOL     OW 3680   2.877   3.149   1.583 -0.1599  0.0559  0.4059
  891SOL    HW2 3681   2.860   3.164   1.676  2.0418 -0.4017  0.9228
  891SOL    HW3 3682   2.881   3.053   1.575  1.5667  0.1239  0.2454
  891SOL    MW4 3683   2.875   3.138   1.595  0.3583  0.0043  0.4528
  892SOL     OW 3684   2.684   3.267   1.445  0.0305  0.5263 -0.2365
  892SOL    HW2 3685   2.767   3.240   1.486 -0.9107  0.6777  1.8255
  892SOL    HW3 3686   2.618   3.213   1.487 -0.7757 -0.8094 -3.0889
  892SOL    MW4 3687   2.686   3.256   1.456 -0.1998  0.3700 -0.3407
  893SOL     OW 3688   2.671   3.526   1.535 -0.3519 -0.3705  0.1529
  893SOL    HW2 3689   2.689   3.515   1.628 -0.3497 -0.0647  0.1901
  893SOL    HW3 3690   2.665   3.437   1.500  0.2410 -0.4749  0.3265
  893SOL    MW4 3691   2.672   3.513   1.542 -0.2735 -0.3440  0.1806
  894SOL     OW 3692   2.905   3.611   1.407  0.5531 -0.0683  0.1761
  894SOL    HW2 3693   2.822   3.573   1.435  0.0438  0.4036 -0.6852
  894SOL    HW3 3694   2.901   3.611   1.312  1.3867  0.3013  0.1360
  894SOL    MW4 3695   2.893   3.606   1.398  0.5958  0.0427  0.0572
  895SOL     OW 3696   2.943   3.867   1.528  0.2869 -0.5887  0.6352
  895SOL    HW2 3697   2.861   3.916   1.529  0.7034  0.1571 -0.1309
  895SOL    HW3 3698   2.925   3.791   1.472  0.6203  0.5377 -1.0674
  895SOL    MW4 3699   2.930   3.864   1.521  0.3858 -0.3417  0.3095
  896SOL     OW 3700   2.693   3.993   1.509  0.1112  0.8418  0.1629
  896SOL    HW2 3701   2.709   4.072   1.561 -1.3699  1.4223 -0.2626
  896SOL    HW3 3702   2.701   4.021   1.418 -0.2683  0.4752  0.0133
  896SOL    MW4 3703   2.696   4.007   1.504 -0.1342  0.8698  0.0871
  897SOL     OW 3704   2.732   4.260   1.626  0.3408 -0.1789 -0.2425
  897SOL    HW2 3705   2.811   4.285   1.578  0.7823 -0.7664  0.1788
  897SOL    HW3 3706   2.662   4.309   1.583  0.8151 -0.2774 -1.1372
  897SOL    MW4 3707   2.733   4.270   1.614  0.4613 -0.2694 -0.3049
  898SOL     OW 3708   2.925   4.367   1.462 -0.1327 -0.3955  0.6136
  898SOL    HW2 3709   2.924   4.459   1.487  2.0307 -0.4128  0.8754
  898SOL    HW3 3710   2.921   4.367   1.367  1.8902  0.0720  0.5089
  898SOL    MW4 3711   2.924   4.379   1.453  0.4199 -0.3362  0.6344
  899SOL     OW 3712   3.392   4.627   1.557  0.1019 -0.8686  0.2752
  899SOL    HW2 3713   3.479   4.668   1.549 -0.0034 -0.7968 -0.5456
  899SOL    HW3 3714   3.400   4.545   1.508 -1.0683  0.3688 -2.0548
  899SOL    MW4 3715   3.405   4.622   1.550 -0.0665 -0.6957 -0.1405
  900SOL     OW 3716   3.168   0.124   1.489  0.3107  0.0344 -0.6225
  900SOL    HW2 3717   3.236   0.064   1.520 -0.2325  0.0299  0.5897
  900SOL    HW3 3718   3.087   0.073   1.496 -0.3188  1.2837  1.5587
  900SOL    MW4 3719   3.166   0.109   1.494  0.1559  0.1986 -0.1748
  901SOL     OW 3720   3.134   0.390   1.617 -0.1489 -0.3391  0.3166
  901SOL    HW2 3721   3.143   0.298   1.591 -1.1110 -1.0360  2.3341
  901SOL    HW3 3722   3.057   0.422   1.571 -0.3302 -0.8060  0.2977
  901SOL    MW4 3723   3.125   0.382   1.608 -0.2995 -0.4927  0.5803
  902SOL     OW 3724   3.369   0.493   1.491  0.3285 -0.1421 -0.2659
  902SOL    HW2 3725   3.295   0.457   1.541  0.4406  0.3018  0.2219
  902SOL    HW3 3726   3.346   0.475   1.400  0.4379 -1.5745 -0.0350
  902SOL    MW4 3727   3.356   0.486   1.486  0.3579 -0.2725 -0.1711
  903SOL     OW 3728   3.383   0.773   1.542 -0.7559 -0.0853  0.5422
  903SOL    HW2 3729   3.362   0.775   1.635  1.2418 -0.8401  1.0236
  903SOL    HW3 3730   3.386   0.680   1.520  0.8134  0.0351  0.2044
  903SOL    MW4 3731   3.380   0.761   1.551 -0.2851 -0.1690  0.5612
  904SOL     OW 3732   3.160   0.900   1.468  0.1274  0.2575  0.0353
  904SOL    HW2 3733   3.238   0.863   1.508 -0.2968  1.8800  2.4581
  904SOL    HW3 3734   3.092   0.834   1.480  0.6048 -0.2658 -0.1532
  904SOL    MW4 3735   3.161   0.887   1.475  0.1342  0.4026  0.3301
  905SOL     OW 3736   3.111   1.161   1.565  0.1242  0.2111  0.2862
  905SOL    HW2 3737   3.114   1.151   1.660  0.5126  1.3754  0.4049
  905SOL    HW3 3738   3.127   1.073   1.531  0.5432 -0.1072  1.2930
  905SOL    MW4 3739   3.114   1.148   1.573  0.2306  0.3227  0.4349
  906SOL     OW 3740   3.342   1.296   1.482 -0.8040  0.3581 -0.1933
  906SOL    HW2 3741   3.417   1.243   1.512 -0.3660  0.1753 -1.5425
  906SOL    HW3 3742   3.265   1.250   1.516 -0.3344  0.0578  0.4739
  906SOL    MW4 3743   3.342   1.283   1.490 -0.6840  0.2942 -0.2832
  907SOL     OW 3744   3.318   1.557   1.590 -0.1413 -0.0569  0.2847
  907SOL    HW2 3745   3.317   1.556   1.685 -1.8130 -0.5834  0.2811
  907SOL    HW3 3746   3.326   1.465   1.564  0.8438  0.1243 -0.0951
  907SOL    MW4 3747   3.319   1.545   1.599 -0.2317 -0.1025  0.2341
  908SOL     OW 3748   3.092   1.688   1.487 -0.0136 -0.3631  0.0303
  908SOL    HW2 3749   3.166   1.635   1.516 -0.3736 -0.4595  0.7859
  908SOL    HW3 3750   3.015   1.637   1.513 -0.3626  0.5623  0.8413
  908SOL    MW4 3751   3.091   1.674   1.494 -0.1073 -0.2537  0.2370
  909SOL     OW 3752   3.085   1.936   1.606 -0.0321  0.2293  0.1055
  909SOL    HW2 3753   3.072   1.848   1.570 -0.1986  0.0518  0.5966
  909SOL    HW3 3754   3.028   1.992   1.553  0.5287  0.1377 -0.6011
  909SOL    MW4 3755   3.076   1.932   1.595  0.0200  0.1937  0.0771
  910SOL     OW 3756   3.324   2.079   1.530  0.4148 -0.2649  0.0920
  910SOL    HW2 3757   3.245   2.026   1.544  0.3278  0.0612  0.8419
  910SOL    HW3 3758   3.335   2.080   1.435 -1.2515  0.7921 -0.1139
  910SOL    MW4 3759   3.315   2.072   1.519  0.1836 -0.0825  0.1637
  911SOL     OW 3760   3.300   2.348   1.573  0.0128  0.2245 -0.0116
  911SOL    HW2 3761   3.389   2.371   1.547 -0.3017  0.6285 -0.7263
  911SOL    HW3 3762   3.293   2.254   1.555 -0.4347  0.6436 -2.0414
  911SOL    MW4 3763   3.311   2.339   1.567 -0.0877  0.3333 -0.3737
  912SOL     OW 3764   3.107   2.477   1.435  0.5452  0.0159  0.0382
  912SOL    HW2 3765   3.170   2.430   1.490  0.0215  0.7088  1.2452
  912SOL    HW3 3766   3.026   2.425   1.441  1.0047 -0.9513 -1.6211
  912SOL    MW4 3767   3.104   2.464   1.443  0.5367 -0.0203 -0.0215
  913SOL     OW 3768   3.107   2.722   1.603  0.4983  0.5235 -0.1676
  913SOL    HW2 3769   3.177   2.744   1.541 -0.5005  0.0200 -1.5038
  913SOL    HW3 3770   3.089   2.629   1.586  1.2019 -0.0291  1.9115
  913SOL    MW4 3771   3.114   2.712   1.592  0.4592  0.3841 -0.0697
  914SOL     OW 3772   3.346   2.812   1.499  0.2049  0.3918  0.4421
  914SOL    HW2 3773   3.326   2.896   1.540 -0.3078  0.6741 -0.3722
  914SOL    HW3 3774   3.344   2.830   1.405 -1.1035 -0.7899  0.2261
  914SOL    MW4 3775   3.344   2.825   1.492 -0.0355  0.2730  0.3061
  915SOL     OW 3776   3.547   3.232   1.503 -0.0139  0.2971  0.2658
  915SOL    HW2 3777   3.472   3.185   1.539  0.3119 -1.3363 -1.1335
  915SOL    HW3 3778   3.622   3.199   1.552  0.2116 -0.6772 -0.7023
  915SOL    MW4 3779   3.547   3.221   1.514  0.0589 -0.0470 -0.0465
  916SOL     OW 3780   3.327   3.067   1.594 -0.3552 -0.6623 -0.0997
  916SOL    HW2 3781   3.249   3.117   1.573 -0.4555 -1.2078 -1.0747
  916SOL    HW3 3782   3.342   3.082   1.687 -1.8530 -0.8823  0.1858
  916SOL    MW4 3783   3.319   3.075   1.604 -0.5660 -0.7629 -0.1907
  917SOL     OW 3784   3.122   3.235   1.527 -0.3596 -0.0892  0.2703
  917SOL    HW2 3785   3.033   3.213   1.554 -1.6072  1.1159 -2.6859
  917SOL    HW3 3786   3.130   3.329   1.540 -0.0839  0.0734 -0.9670
  917SOL    MW4 3787   3.111   3.244   1.532 -0.4880  0.0911 -0.2830
  918SOL     OW 3788   3.386   3.627   1.432 -0.0536  0.1390  0.6093
  918SOL    HW2 3789   3.315   3.577   1.472  1.6870 -1.3150  1.9517
  918SOL    HW3 3790   3.465   3.596   1.476  1.4697  1.4422 -1.1347
  918SOL    MW4 3791   3.387   3.616   1.443  0.3769  0.1192  0.5563
  919SOL     OW 3792   3.365   3.885   1.558 -0.3169  0.2512  0.0534
  919SOL    HW2 3793   3.291   3.922   1.511 -0.7698 -1.2628 -0.4555
  919SOL    HW3 3794   3.380   3.800   1.517  2.4997  1.0476 -0.6756
  919SOL    MW4 3795   3.358   3.879   1.547 -0.0048  0.1564 -0.1100
  920SOL     OW 3796   3.168   4.021   1.415  0.2201 -0.0131  0.1332
  920SOL    HW2 3797   3.171   4.102   1.466 -0.0884  0.5547 -0.7388
  920SOL    HW3 3798   3.099   3.970   1.457  1.1801 -0.3149  1.3915
  920SOL    MW4 3799   3.159   4.025   1.428  0.3064  0.0224  0.1841
  921SOL     OW 3800   3.158   4.271   1.556 -0.1913  0.0183  0.4181
  921SOL    HW2 3801   3.151   4.293   1.649 -0.2534 -0.2461  0.4750
  921SOL    HW3 3802   3.074   4.300   1.519 -0.4067 -0.4317  0.5553
  921SOL    MW4 3803   3.146   4.278   1.564 -0.2279 -0.0763  0.4436
  922SOL     OW 3804   3.349   4.405   1.407 -0.2268 -0.0732  0.0811
  922SOL    HW2 3805   3.275   4.353   1.438 -0.3111  0.1483  0.2464
  922SOL    HW3 3806   3.347   4.394   1.312  0.4715 -1.3489  0.2031
  922SOL    MW4 3807   3.339   4.396   1.398 -0.1459 -0.2122  0.1191
  923SOL     OW 3808   3.842   4.646   1.518 -0.1499 -0.2071 -0.5164
  923SOL    HW2 3809   3.828   4.659   1.612 -0.3066  0.1327 -0.5871
  923SOL    HW3 3810   3.915   4.703   1.496 -0.3433 -0.0177 -0.6723
  923SOL    MW4 3811   3.849   4.655   1.528 -0.1960 -0.1369 -0.5462
  924SOL     OW 3812   3.610   0.103   1.468 -0.4547 -0.0423  0.8828
  924SOL    HW2 3813   3.698   0.069   1.488 -0.3545  0.1058  0.6961
  924SOL    HW3 3814   3.598   0.084   1.375 -0.2176  0.8321  0.6632
  924SOL    MW4 3815   3.620   0.096   1.458 -0.4101  0.0926  0.8291
  925SOL     OW 3816   3.613   0.374   1.546  0.0930  0.0797 -0.0032
  925SOL    HW2 3817   3.601   0.284   1.517  0.8222  0.0750 -0.2910
  925SOL    HW3 3818   3.543   0.423   1.504 -0.3845 -0.3749  0.2608
  925SOL    MW4 3819   3.602   0.369   1.537  0.1264  0.0191 -0.0066
  926SOL     OW 3820   3.856   0.489   1.462 -0.4533 -0.3138 -0.2854
  926SOL    HW2 3821   3.776   0.445   1.489 -0.5369  0.5840  0.9945
  926SOL    HW3 3822   3.841   0.582   1.483  0.9890 -0.1611  0.1710
  926SOL    MW4 3823   3.844   0.496   1.468 -0.2737 -0.1752 -0.0564
  927SOL     OW 3824   3.845   0.748   1.552  0.1594  0.0729  0.0656
  927SOL    HW2 3825   3.775   0.798   1.510 -0.9476 -1.5494 -0.0962
  927SOL    HW3 3826   3.837   0.768   1.645 -0.5935 -0.1711  0.0557
  927SOL    MW4 3827   3.835   0.757   1.559 -0.0858 -0.1734  0.0429
  928SOL     OW 3828   3.632   0.878   1.445 -0.1622  0.0752  0.3820
  928SOL    HW2 3829   3.551   0.842   1.479 -0.7736  0.3564 -0.7565
  928SOL    HW3 3830   3.623   0.973   1.454 -0.3036  0.1531 -0.4687
  928SOL    MW4 3831   3.620   0.886   1.450 -0.2615  0.1227  0.1197
  929SOL     OW 3832   3.559   1.156   1.560 -0.3539 -0.1429  0.4681
  929SOL    HW2 3833   3.637   1.207   1.539 -0.6496  0.4109  0.7051
  929SOL    HW3 3834   3.569   1.133   1.652  0.0975 -1.0837  0.1931
  929SOL    MW4 3835   3.570   1.159   1.570 -0.3335 -0.1940  0.4632
  930SOL     OW 3836   3.784   1.319   1.495  0.0820 -0.0030 -0.5149
  930SOL    HW2 3837   3.858   1.272   1.534 -0.1290 -0.8742 -1.1618
  930SOL    HW3 3838   3.795   1.409   1.525  0.1090 -0.5889  1.3093
  930SOL    MW4 3839   3.796   1.325   1.504  0.0575 -0.1953 -0.3597
  931SOL     OW 3840   3.827   1.594   1.570 -0.0316 -0.3277  0.4221
  931SOL    HW2 3841   3.825   1.607   1.665 -0.0385  1.9814  0.1471
  931SOL    HW3 3842   3.738   1.615   1.541  0.0018 -0.9099 -0.1127
  931SOL    MW4 3843   3.815   1.599   1.579 -0.0284 -0.0998  0.3153
  932SOL     OW 3844   3.565   1.662   1.490  0.1645 -0.2564 -0.0796
  932SOL    HW2 3845   3.479   1.623   1.504  0.9056 -1.5853  0.8257
  932SOL    HW3 3846   3.573   1.669   1.395 -0.5834 -0.9472 -0.2009
  932SOL    MW4 3847   3.555   1.658   1.480  0.1636 -0.5229  0.0238
  933SOL     OW 3848   3.588   1.933   1.548 -0.0498 -0.0304  0.4598
  933SOL    HW2 3849   3.564   1.840   1.538  1.0930 -0.1558 -1.4571
  933SOL    HW3 3850   3.506   1.980   1.530 -0.2209 -0.6184 -0.3476
  933SOL    MW4 3851   3.574   1.927   1.544  0.0787 -0.1246  0.1003
  934SOL     OW 3852   3.819   2.065   1.472  0.0446  0.0472 -1.0536
  934SOL    HW2 3853   3.820   2.147   1.520  0.9403 -0.6159  0.1018
  934SOL    HW3 3854   3.733   2.027   1.491 -0.1641  0.4687 -1.1588
  934SOL    MW4 3855   3.808   2.070   1.481  0.1354  0.0153 -0.9151
  935SOL     OW 3856   3.811   2.312   1.585  0.1518  0.4670 -0.3958
  935SOL    HW2 3857   3.843   2.297   1.674  0.4706 -1.3578 -0.7946
  935SOL    HW3 3858   3.883   2.358   1.541  0.0955  1.1336  0.1971
  935SOL    MW4 3859   3.825   2.316   1.591  0.1862  0.3140 -0.3703
  936SOL     OW 3860   3.576   2.432   1.508  0.3131  0.1199  0.0156
  936SOL    HW2 3861   3.565   2.524   1.530 -1.0758 -0.0559  0.1327
  936SOL    HW3 3862   3.665   2.411   1.536  0.4024  1.2471  0.6228
  936SOL    MW4 3863   3.586   2.441   1.515  0.1416  0.2456  0.1111
  937SOL     OW 3864   3.583   2.699   1.589  0.4542  0.2060 -0.5881
  937SOL    HW2 3865   3.574   2.711   1.684  0.7319  0.8719 -0.6495
  937SOL    HW3 3866   3.509   2.747   1.552  0.8626  0.7019 -0.7613
  937SOL    MW4 3867   3.572   2.707   1.597  0.5448  0.3591 -0.6191
  938SOL     OW 3868   3.807   2.833   1.505 -0.0128 -0.0434  0.4986
  938SOL    HW2 3869   3.884   2.794   1.547  0.3397 -0.8316 -0.8717
  938SOL    HW3 3870   3.733   2.786   1.544  0.3279 -0.9377  0.0833
  938SOL    MW4 3871   3.807   2.822   1.516  0.0784 -0.2654  0.2629
  939SOL     OW 3872   3.850   3.135   1.554  0.0527  0.2512 -0.1912
  939SOL    HW2 3873   3.926   3.163   1.505  0.3241  0.3445  0.2783
  939SOL    HW3 3874   3.835   3.044   1.527  1.3897 -0.3449  1.0126
  939SOL    MW4 3875   3.858   3.126   1.544  0.2649  0.1853  0.0296
  940SOL     OW 3876   3.815   3.053   1.142 -0.0284  0.1791 -0.2197
  940SOL    HW2 3877   3.741   3.108   1.167 -0.1175  0.1119 -0.3327
  940SOL    HW3 3878   3.817   2.984   1.209 -0.2943 -0.0265 -0.4209
  940SOL    MW4 3879   3.805   3.051   1.154 -0.0753  0.1433 -0.2612
  941SOL     OW 3880   3.592   3.496   1.553  0.2676 -0.1782 -0.2104
  941SOL    HW2 3881   3.675   3.516   1.511  0.5813 -0.9567  0.0215
  941SOL    HW3 3882   3.582   3.401   1.543 -0.1466 -0.2241  0.5562
  941SOL    MW4 3883   3.601   3.486   1.546  0.2544 -0.2866 -0.0786
  942SOL     OW 3884   3.815   3.603   1.438  0.1480 -0.0012 -0.1227
  942SOL    HW2 3885   3.892   3.565   1.481 -0.4246 -1.0308  0.0164
  942SOL    HW3 3886   3.810   3.692   1.472  2.3706  0.7141 -1.5625
  942SOL    MW4 3887   3.824   3.610   1.448  0.3657 -0.0424 -0.2943
  943SOL     OW 3888   3.810   3.849   1.544  0.1784 -0.2953 -0.2016
  943SOL    HW2 3889   3.883   3.893   1.500  1.0583  0.2320  1.7324
  943SOL    HW3 3890   3.734   3.905   1.526  0.7474  0.5160 -0.1064
  943SOL    MW4 3891   3.810   3.862   1.536  0.3695 -0.1187  0.0662
  944SOL     OW 3892   3.574   4.019   1.437 -0.0820  0.2385 -0.1974
  944SOL    HW2 3893   3.570   4.113   1.451  0.5764  0.2285  0.1009
  944SOL    HW3 3894   3.489   3.986   1.466 -0.6290  0.8308 -1.0777
  944SOL    MW4 3895   3.562   4.027   1.442 -0.0672  0.3152 -0.2742
  945SOL     OW 3896   3.605   4.281   1.501 -0.1410  0.0564 -0.0158
  945SOL    HW2 3897   3.605   4.290   1.596 -0.8744 -1.8830  0.1884
  945SOL    HW3 3898   3.531   4.334   1.471  0.4671  1.1745  0.4157
  945SOL    MW4 3899   3.595   4.289   1.509 -0.1576 -0.0520  0.0679
  946SOL     OW 3900   3.843   4.400   1.416 -0.2726  0.0184  0.3028
  946SOL    HW2 3901   3.759   4.372   1.453 -0.0508  0.5243  1.2051
  946SOL    HW3 3902   3.854   4.490   1.447  1.1527 -0.4401  1.1745
  946SOL    MW4 3903   3.833   4.408   1.425 -0.0556  0.0243  0.5368
  947SOL     OW 3904   4.272   4.633   1.539  0.6275 -0.0189 -0.3425
  947SOL    HW2 3905   4.285   4.628   1.634  1.2200  0.4114 -0.3974
  947SOL    HW3 3906   4.278   4.542   1.510  1.7873 -0.0258 -0.1267
  947SOL    MW4 3907   4.275   4.620   1.548  0.8593  0.0367 -0.3213
  948SOL     OW 3908   4.068   0.132   1.424  0.5184  0.1155  0.0803
  948SOL    HW2 3909   4.082   0.204   1.486 -1.1880  1.8110 -1.4241
  948SOL    HW3 3910   4.127   0.063   1.453  1.7013  1.8764  1.9877
  948SOL    MW4 3911   4.078   0.133   1.436  0.4501  0.5715  0.1335
  949SOL     OW 3912   4.077   0.403   1.585  0.5647 -0.5310 -0.2818
  949SOL    HW2 3913   4.051   0.401   1.677 -1.3829  1.8266 -0.7242
  949SOL    HW3 3914   3.999   0.435   1.539  1.9565 -0.3467 -2.5808
  949SOL    MW4 3915   4.063   0.407   1.591  0.4916 -0.1957 -0.6436
  950SOL     OW 3916   4.277   0.488   1.439  0.2656  0.3356  0.5055
  950SOL    HW2 3917   4.202   0.458   1.490 -0.2437  0.7917  0.0342
  950SOL    HW3 3918   4.351   0.439   1.474 -0.1614  0.2687  1.3351
  950SOL    MW4 3919   4.277   0.478   1.450  0.1426  0.3870  0.5527
  951SOL     OW 3920   4.289   0.762   1.530  0.0929 -0.2000  0.0084
  951SOL    HW2 3921   4.291   0.669   1.509  0.0870 -0.5576  1.5596
  951SOL    HW3 3922   4.366   0.798   1.486 -0.4370 -0.7479 -1.4051
  951SOL    MW4 3923   4.299   0.755   1.521  0.0215 -0.3195  0.0267
  952SOL     OW 3924   4.066   0.914   1.484 -0.4644 -0.5378  0.1525
  952SOL    HW2 3925   4.142   0.863   1.511  0.1264  0.4526  0.3781
  952SOL    HW3 3926   3.992   0.854   1.494  0.2369 -1.3907  0.2767
  952SOL    MW4 3927   4.066   0.899   1.489 -0.2942 -0.5196  0.1986
  953SOL     OW 3928   3.988   1.186   1.608 -0.4631  0.1299  0.4321
  953SOL    HW2 3929   3.992   1.181   1.704 -1.7121 -0.1050  0.4756
  953SOL    HW3 3930   4.014   1.098   1.579 -1.2323 -0.1494  0.5875
  953SOL    MW4 3931   3.992   1.173   1.617 -0.7296  0.0620  0.4582
  954SOL     OW 3932   4.244   1.292   1.498  0.2074 -0.8446 -0.1433
  954SOL    HW2 3933   4.175   1.250   1.550  0.4947 -0.8488  0.2359
  954SOL    HW3 3934   4.323   1.243   1.519  0.4982 -0.2705  0.1019
  954SOL    MW4 3935   4.246   1.280   1.507  0.2837 -0.7694 -0.0608
  955SOL     OW 3936   4.263   1.558   1.588 -0.1794  0.4981  0.6179
  955SOL    HW2 3937   4.250   1.469   1.555 -0.5102  0.3810  1.0588
  955SOL    HW3 3938   4.346   1.586   1.550 -1.5623  1.1538 -2.0934
  955SOL    MW4 3939   4.272   1.550   1.579 -0.4053  0.5691  0.3183
  956SOL     OW 3940   4.063   1.720   1.480 -0.6360  0.3564  0.2622
  956SOL    HW2 3941   4.126   1.663   1.524  0.0799 -1.0150 -2.3928
  956SOL    HW3 3942   3.978   1.680   1.498 -0.2526 -0.8164 -0.4244
  956SOL    MW4 3943   4.060   1.707   1.488 -0.4911  0.0206 -0.1786
  957SOL     OW 3944   4.057   1.955   1.591 -0.3342 -0.2567  0.3312
  957SOL    HW2 3945   4.057   1.861   1.574 -0.9444 -0.2626  0.3205
  957SOL    HW3 3946   3.980   1.987   1.543 -0.7191  0.0852  1.1571
  957SOL    MW4 3947   4.047   1.947   1.583 -0.4654 -0.2124  0.4387
  958SOL     OW 3948   4.292   2.074   1.502 -0.4042  0.1097 -0.3039
  958SOL    HW2 3949   4.206   2.037   1.519 -0.6713  0.8137 -0.1320
  958SOL    HW3 3950   4.298   2.078   1.406  0.2713 -1.8758 -0.3843
  958SOL    MW4 3951   4.282   2.069   1.491 -0.3500 -0.0589 -0.2917
  959SOL     OW 3952   4.274   2.343   1.570  0.5480  0.0473  0.1071
  959SOL    HW2 3953   4.252   2.348   1.663 -1.0876 -0.2009 -0.2514
  959SOL    HW3 3954   4.269   2.249   1.549 -0.6317  0.2558 -0.5831
  959SOL    MW4 3955   4.270   2.331   1.579  0.1764  0.0422 -0.0312
  960SOL     OW 3956   4.037   2.452   1.503  0.1727 -0.1232  0.4290
  960SOL    HW2 3957   4.028   2.530   1.558  2.1655  0.5833 -0.2195
  960SOL    HW3 3958   4.123   2.416   1.525  0.0978 -1.0289 -0.6972
  960SOL    MW4 3959   4.047   2.458   1.513  0.4258 -0.1493  0.1948
  961SOL     OW 3960   4.028   2.696   1.606  0.1708  0.0731  0.3267
  961SOL    HW2 3961   4.045   2.696   1.700 -0.2524  0.0039  0.4036
  961SOL    HW3 3962   4.106   2.737   1.568 -0.1487  1.1518  0.7989
  961SOL    MW4 3963   4.040   2.701   1.613  0.0730  0.2065  0.3991
  962SOL     OW 3964   4.268   2.828   1.491 -0.1837 -0.4292  0.3787
  962SOL    HW2 3965   4.256   2.917   1.525  3.2642 -0.3817  1.6919
  962SOL    HW3 3966   4.273   2.839   1.396  0.5052  0.8369  0.5477
  962SOL    MW4 3967   4.267   2.841   1.483  0.3619 -0.2558  0.5741
  963SOL     OW 3968   4.226   3.091   1.582  0.3666 -0.0682  0.0338
  963SOL    HW2 3969   4.238   3.099   1.676 -0.0973 -0.3241  0.1132
  963SOL    HW3 3970   4.301   3.137   1.544  0.2864  0.4623  0.5232
  963SOL    MW4 3971   4.238   3.098   1.589  0.2952 -0.0319  0.1088
  964SOL     OW 3972   4.069   3.223   1.405  0.3923  0.0006 -0.1801
  964SOL    HW2 3973   4.057   3.311   1.440 -0.6563  0.3610 -1.4035
  964SOL    HW3 3974   4.125   3.179   1.469  0.9838  1.5700  0.4008
  964SOL    MW4 3975   4.075   3.229   1.418  0.3319  0.2551 -0.2649
  965SOL     OW 3976   4.017   3.445   1.552  0.3340  0.4651  0.0766
  965SOL    HW2 3977   4.025   3.441   1.647  0.4387 -0.1482  0.0444
  965SOL    HW3 3978   4.099   3.486   1.523  0.8357 -0.4797  0.1629
  965SOL    MW4 3979   4.029   3.450   1.561  0.4139  0.2594  0.0839
  966SOL     OW 3980   4.251   3.580   1.467 -0.0451  0.3105  0.1722
  966SOL    HW2 3981   4.241   3.670   1.498  0.4306  0.7426 -0.8969
  966SOL    HW3 3982   4.265   3.589   1.373  1.3002 -0.8182  0.2560
  966SOL    MW4 3983   4.251   3.593   1.459  0.1950  0.2186  0.0421
  967SOL     OW 3984   4.269   3.861   1.538 -0.3282  0.5272  0.0159
  967SOL    HW2 3985   4.186   3.895   1.507 -0.1638 -0.5366 -1.6125
  967SOL    HW3 3986   4.335   3.906   1.486  0.1194  1.1809  1.1249
  967SOL    MW4 3987   4.267   3.871   1.527 -0.2475  0.4730 -0.0526
  968SOL     OW 3988   4.042   3.991   1.429  0.3811  0.3156  0.1488
  968SOL    HW2 3989   4.040   4.078   1.470  1.6794  1.1656 -1.5039
  968SOL    HW3 3990   4.038   4.009   1.335  2.5570 -1.2962 -0.2990
  968SOL    MW4 3991   4.041   4.005   1.422  0.8402  0.2151 -0.1284
  969SOL     OW 3992   4.043   4.249   1.536  0.4771 -0.6165  0.0668
  969SOL    HW2 3993   4.027   4.296   1.617  2.0220 -0.2243  0.1430
  969SOL    HW3 3994   3.987   4.293   1.471  1.0644  0.5933  0.3785
  969SOL    MW4 3995   4.033   4.261   1.538  0.7582 -0.4048  0.1179
  970SOL     OW 3996   4.299   4.365   1.458  0.2848 -0.1078  0.3880
  970SOL    HW2 3997   4.224   4.307   1.476  0.0206  0.2129  0.3207
  970SOL    HW3 3998   4.301   4.372   1.363  1.7873 -1.9344  0.2643
  970SOL    MW4 3999   4.289   4.358   1.448  0.4482 -0.3061  0.3629
  971SOL     OW 4000   0.206   4.637   1.551  0.6097 -0.2678 -0.0067
  971SOL    HW2 4001   0.207   4.649   1.646 -1.4155 -1.3225  0.1917
  971SOL    HW3 4002   0.129   4.686   1.522  0.6835 -0.7110 -0.9758
  971SOL    MW4 4003   0.196   4.645   1.560  0.3522 -0.4654 -0.1084
  972SOL     OW 4004   0.253   4.640   1.840 -0.0114 -0.1103  0.0720
  972SOL    HW2 4005   0.256   4.552   1.878 -0.6399  0.0361  0.4678
  972SOL    HW3 4006   0.181   4.683   1.886  0.5776  0.7512  0.1861
  972SOL    MW4 4007   0.244   4.634   1.851 -0.0166  0.0226  0.1394
  973SOL     OW 4008   0.010   0.363   1.854  0.1595  0.6992 -0.0581
  973SOL    HW2 4009  -0.069   0.404   1.889  0.7383  0.7995  1.1302
  973SOL    HW3 4010   0.082   0.420   1.882  0.8303 -0.3438  0.3709
  973SOL    MW4 4011   0.009   0.376   1.862  0.3244  0.5748  0.1552
  974SOL     OW 4012   0.219   0.484   1.977  0.0291 -0.5096  0.1063
  974SOL    HW2 4013   0.304   0.458   1.942  0.8124 -0.8988  2.2333
  974SOL    HW3 4014   0.212   0.577   1.957  0.8102 -0.5397 -0.3235
  974SOL    MW4 4015   0.229   0.493   1.970  0.2355 -0.5649  0.3303
  975SOL     OW 4016   0.218   0.747   1.883  0.0138 -0.4522 -0.0413
  975SOL    HW2 4017   0.300   0.796   1.888 -0.6763  0.6617  0.5941
  975SOL    HW3 4018   0.188   0.759   1.793  0.6468 -1.0438 -0.3382
  975SOL    MW4 4019   0.225   0.755   1.872  0.0063 -0.3833  0.0033
  976SOL     OW 4020   4.468   0.902   1.977  0.5736 -0.3997 -0.2996
  976SOL    HW2 4021   4.549   0.851   1.972  0.2069 -1.3139  2.0466
  976SOL    HW3 4022   4.405   0.852   1.925  0.6128 -1.5910  0.7667
  976SOL    MW4 4023   4.470   0.888   1.970  0.5302 -0.6775  0.1507
  977SOL     OW 4024   4.481   1.164   1.878  0.4355 -0.1499 -0.4403
  977SOL    HW2 4025   4.475   1.078   1.918  0.2630 -0.3721 -0.9404
  977SOL    HW3 4026   4.552   1.208   1.925 -0.3815 -0.0647  0.7289
  977SOL    MW4 4027   4.490   1.159   1.889  0.3047 -0.1680 -0.3520
  978SOL     OW 4028   0.218   1.278   1.995 -0.0315 -0.3753  0.0396
  978SOL    HW2 4029   0.226   1.371   1.971  1.7040 -0.6433 -0.4764
  978SOL    HW3 4030   0.223   1.278   2.091  0.9191 -0.0240 -0.0082
  978SOL    MW4 4031   0.220   1.290   2.005  0.3229 -0.3643 -0.0348
  979SOL     OW 4032   0.258   1.540   1.899 -0.0462 -0.3617 -0.0385
  979SOL    HW2 4033   0.325   1.604   1.922 -0.3508 -0.0428 -0.0239
  979SOL    HW3 4034   0.176   1.582   1.924 -0.3179 -0.3622 -0.9068
  979SOL    MW4 4035   0.256   1.554   1.905 -0.1222 -0.3197 -0.1513
  980SOL     OW 4036   0.022   1.661   1.969  0.2745 -0.1063 -0.5660
  980SOL    HW2 4037   0.013   1.688   2.060  2.5086  1.0500 -0.6496
  980SOL    HW3 4038  -0.063   1.623   1.947 -1.0389  1.6207  1.3129
  980SOL    MW4 4039   0.010   1.659   1.978  0.3959  0.2741 -0.3291
  981SOL     OW 4040   0.016   1.936   1.870 -0.0733 -0.2934 -0.3271
  981SOL    HW2 4041  -0.060   1.985   1.902 -0.5352 -1.1941 -0.0148
  981SOL    HW3 4042   0.000   1.847   1.899  1.7314 -0.2529  0.8060
  981SOL    MW4 4043   0.004   1.931   1.878  0.1040 -0.4069 -0.1363
  982SOL     OW 4044   0.249   2.060   1.938 -0.3411  0.3630 -0.1800
  982SOL    HW2 4045   0.169   2.009   1.922 -0.4886  0.5441 -0.0217
  982SOL    HW3 4046   0.232   2.144   1.895  0.1517  0.0561 -0.9741
  982SOL    MW4 4047   0.236   2.064   1.930 -0.2955  0.3464 -0.2638
  983SOL     OW 4048   0.213   2.303   1.816  0.1288  0.1029 -0.1241
  983SOL    HW2 4049   0.290   2.340   1.859 -0.8004  2.2970 -0.2677
  983SOL    HW3 4050   0.139   2.335   1.869 -0.7168 -1.6673 -0.1998
  983SOL    MW4 4051   0.214   2.312   1.829 -0.1054  0.1585 -0.1529
  984SOL     OW 4052   0.022   2.447   1.959  0.2287 -0.4492 -0.2086
  984SOL    HW2 4053   0.007   2.455   2.053 -0.1807  0.9336 -0.3714
  984SOL    HW3 4054   0.020   2.537   1.927 -0.3287 -0.9521 -1.6449
  984SOL    MW4 4055   0.020   2.460   1.967  0.1011 -0.3331 -0.4196
  985SOL     OW 4056   4.480   2.685   1.835 -0.2148 -0.2488 -0.3177
  985SOL    HW2 4057   4.409   2.744   1.858 -1.0407 -1.3189 -0.0646
  985SOL    HW3 4058   4.491   2.697   1.740  0.7806  1.5429  0.0183
  985SOL    MW4 4059   4.472   2.694   1.825 -0.1922 -0.1538 -0.2398
  986SOL     OW 4060   0.227   2.825   1.918  0.2748 -0.0738  0.3606
  986SOL    HW2 4061   0.224   2.910   1.872  1.4772 -0.2989 -0.1501
  986SOL    HW3 4062   0.157   2.774   1.877  0.6520  0.0933 -0.5029
  986SOL    MW4 4063   0.217   2.830   1.906  0.4832 -0.0815  0.1794
  987SOL     OW 4064   0.204   3.068   1.788  0.5047 -0.0184 -0.2139
  987SOL    HW2 4065   0.275   3.124   1.819  1.0633 -0.6485 -0.3200
  987SOL    HW3 4066   0.199   3.086   1.694  1.0817 -0.5727 -0.3545
  987SOL    MW4 4067   0.213   3.078   1.779  0.6546 -0.1745 -0.2465
  988SOL     OW 4068   4.480   3.215   1.924  0.4231 -0.1973 -0.5395
  988SOL    HW2 4069   4.397   3.184   1.888  0.8142 -0.3028 -1.3613
  988SOL    HW3 4070   4.546   3.162   1.880  0.9744  0.3977 -0.4296
  988SOL    MW4 4071   4.477   3.204   1.914  0.5474 -0.1326 -0.6332
  989SOL     OW 4072   0.012   3.470   1.816 -0.0697 -0.0273  0.1021
  989SOL    HW2 4073   0.078   3.519   1.865  1.2100 -1.6127 -0.0232
  989SOL    HW3 4074   0.012   3.383   1.855 -1.2472 -0.3915 -0.6828
  989SOL    MW4 4075   0.021   3.465   1.828 -0.0562 -0.2844 -0.0181
  990SOL     OW 4076   0.198   3.637   1.937  0.7980  0.1002 -0.3645
  990SOL    HW2 4077   0.189   3.626   2.032  1.3751 -1.4015 -0.4789
  990SOL    HW3 4078   0.287   3.608   1.917  0.3549 -0.5003 -1.5017
  990SOL    MW4 4079   0.208   3.632   1.947  0.8157 -0.1771 -0.5296
  991SOL     OW 4080   0.223   3.883   1.819 -0.1425 -0.1629 -0.2253
  991SOL    HW2 4081   0.298   3.926   1.863 -0.4819  1.9982 -1.6509
  991SOL    HW3 4082   0.210   3.802   1.868  1.1407  0.9261  2.0230
  991SOL    MW4 4083   0.231   3.878   1.831 -0.0180  0.2658 -0.1167
  992SOL     OW 4084   4.476   3.989   1.917 -0.0448  0.1946  0.4693
  992SOL    HW2 4085   4.479   3.982   2.012 -0.6228 -0.6126  0.4282
  992SOL    HW3 4086   4.556   3.946   1.887 -0.4151 -0.5363  0.5343
  992SOL    MW4 4087   4.487   3.982   1.926 -0.1707 -0.0083  0.4724
  993SOL     OW 4088   4.489   4.253   1.809 -0.2508 -0.2063 -0.4414
  993SOL    HW2 4089   4.406   4.292   1.839 -0.2320 -0.8265  0.4212
  993SOL    HW3 4090   4.482   4.161   1.832  1.1550 -0.0511  0.6463
  993SOL    MW4 4091   4.477   4.246   1.816 -0.0628 -0.2675 -0.1841
  994SOL     OW 4092   0.207   4.367   1.937 -0.1267 -1.1230 -0.2968
  994SOL    HW2 4093   0.200   4.358   2.032 -1.6584  0.4835 -0.2243
  994SOL    HW3 4094   0.133   4.317   1.903  0.7270 -2.1389 -0.6892
  994SOL    MW4 4095   0.196   4.359   1.945 -0.2162 -1.0452 -0.3390
  995SOL     OW 4096   0.672   4.652   1.799  0.4483 -0.1131  0.0802
  995SOL    HW2 4097   0.602   4.683   1.857  0.7755  0.2768  0.2734
  995SOL    HW3 4098   0.686   4.561   1.825 -1.5037 -0.8913 -1.4524
  995SOL    MW4 4099   0.665   4.644   1.810  0.2339 -0.1645 -0.0964
  996SOL     OW 4100   0.480   0.081   1.957  0.0301  0.0956 -0.2637
  996SOL    HW2 4101   0.395   0.046   1.931 -0.3518  1.2160 -0.5489
  996SOL    HW3 4102   0.474   0.175   1.941  1.1081  0.2787  0.3026
  996SOL    MW4 4103   0.468   0.089   1.952  0.1220  0.2676 -0.2266
  997SOL     OW 4104   0.446   0.353   1.876  0.2849 -0.8369 -0.3392
  997SOL    HW2 4105   0.532   0.394   1.887 -0.2874  0.3955 -0.3701
  997SOL    HW3 4106   0.427   0.364   1.783 -1.1606  1.4788  0.1884
  997SOL    MW4 4107   0.455   0.360   1.865  0.0187 -0.3688 -0.2737
  998SOL     OW 4108   0.660   0.484   1.983 -0.1866 -0.4484  0.0451
  998SOL    HW2 4109   0.675   0.470   2.077  0.7241 -1.2691 -0.2077
  998SOL    HW3 4110   0.735   0.442   1.941 -0.8356 -0.4854 -1.0786
  998SOL    MW4 4111   0.672   0.477   1.990 -0.1521 -0.5616 -0.1365
  999SOL     OW 4112   0.656   0.749   1.850  0.1290 -0.5451 -0.0416
  999SOL    HW2 4113   0.734   0.797   1.877  0.2761  0.2272 -1.7383
  999SOL    HW3 4114   0.664   0.663   1.891  1.7445 -0.3802  0.0135
  999SOL    MW4 4115   0.667   0.744   1.859  0.3616 -0.4215 -0.2582
 1000SOL     OW 4116   0.446   0.882   1.944  0.4894  0.0610  0.1971
 1000SOL    HW2 4117   0.468   0.974   1.929  1.1920 -0.4209 -2.0602
 1000SOL    HW3 4118   0.527   0.835   1.922 -0.6213 -1.2515 -1.2415
 1000SOL    MW4 4119   0.460   0.888   1.939  0.4356 -0.1757 -0.2905
 1001SOL     OW 4120   0.444   1.158   1.896  0.0416 -0.3576 -0.7101
 1001SOL    HW2 4121   0.364   1.190   1.937 -0.0973 -0.5686 -0.8128
 1001SOL    HW3 4122   0.426   1.161   1.802 -0.1425 -1.1754 -0.7051
 1001SOL    MW4 4123   0.431   1.163   1.889 -0.0010 -0.4934 -0.7230
 1002SOL     OW 4124   0.684   1.273   1.930  0.1227 -0.0457  0.0342
 1002SOL    HW2 4125   0.690   1.287   2.024 -0.4634 -1.5811  0.3193
 1002SOL    HW3 4126   0.595   1.241   1.916 -0.1511  1.1921 -1.1968
 1002SOL    MW4 4127   0.673   1.271   1.940  0.0092 -0.0850 -0.0907
 1003SOL     OW 4128   0.688   1.538   1.854  0.5514 -0.0347 -0.7287
 1003SOL    HW2 4129   0.682   1.448   1.886 -0.4595 -0.0803 -1.0449
 1003SOL    HW3 4130   0.677   1.531   1.759 -1.0018  0.5587 -0.6076
 1003SOL    MW4 4131   0.686   1.525   1.846  0.2131  0.0377 -0.7545
 1004SOL     OW 4132   0.493   1.691   1.966 -0.8659  0.0504 -0.2200
 1004SOL    HW2 4133   0.506   1.683   2.061 -1.1926  1.9801  0.0036
 1004SOL    HW3 4134   0.562   1.637   1.928 -2.0110 -2.4468  1.1205
 1004SOL    MW4 4135   0.504   1.683   1.974 -1.0601 -0.0244 -0.0137
 1005SOL     OW 4136   0.479   1.950   1.839  0.3801  0.0767 -0.0860
 1005SOL    HW2 4137   0.480   1.863   1.880  2.7719  0.0913 -0.0876
 1005SOL    HW3 4138   0.403   1.993   1.878 -0.2029 -1.6296  0.7324
 1005SOL    MW4 4139   0.469   1.944   1.850  0.6188 -0.1465  0.0217
 1006SOL     OW 4140   0.707   2.092   1.936 -0.1122  0.0948  0.0706
 1006SOL    HW2 4141   0.703   2.070   2.029  1.0305 -0.4813 -0.0107
 1006SOL    HW3 4142   0.636   2.042   1.896  0.5303 -1.0662  0.3611
 1006SOL    MW4 4143   0.697   2.083   1.943  0.1233 -0.1345  0.0981
 1007SOL     OW 4144   0.677   2.358   1.863  0.4820  0.2215 -0.2085
 1007SOL    HW2 4145   0.683   2.264   1.881  0.8228  0.3052  0.1424
 1007SOL    HW3 4146   0.674   2.365   1.768  0.1513 -0.1630 -0.2235
 1007SOL    MW4 4147   0.678   2.347   1.853  0.4834  0.1817 -0.1642
 1008SOL     OW 4148   0.432   2.430   1.933 -0.1040  0.6730  0.0015
 1008SOL    HW2 4149   0.436   2.453   2.026 -1.2437  0.1418  0.1881
 1008SOL    HW3 4150   0.520   2.398   1.913  0.0982  0.6290  0.9377
 1008SOL    MW4 4151   0.444   2.429   1.943 -0.2277  0.5970  0.1496
 1009SOL     OW 4152   0.465   2.702   1.856  0.4232 -0.0459 -0.0494
 1009SOL    HW2 4153   0.448   2.609   1.870  0.4532 -0.3001 -1.6101
 1009SOL    HW3 4154   0.381   2.745   1.874  0.5505 -0.3175  1.1908
 1009SOL    MW4 4155   0.452   2.696   1.860  0.4439 -0.1152 -0.0917
 1010SOL     OW 4156   0.710   2.796   1.942  0.4460 -0.6350  0.2160
 1010SOL    HW2 4157   0.698   2.824   2.032  0.0028 -2.2376  0.6772
 1010SOL    HW3 4158   0.621   2.782   1.909  0.6294 -0.7436 -0.2408
 1010SOL    MW4 4159   0.697   2.798   1.949  0.4117 -0.8607  0.2164
 1011SOL     OW 4160   0.657   3.059   1.893 -0.1538  0.6363 -0.3335
 1011SOL    HW2 4161   0.676   2.968   1.918  2.1431  1.5119  1.2908
 1011SOL    HW3 4162   0.675   3.062   1.799  0.1522 -0.4784 -0.3246
 1011SOL    MW4 4163   0.662   3.047   1.884  0.1895  0.6049 -0.1180
 1012SOL     OW 4164   0.413   3.200   1.896 -0.5652 -0.5532  0.4038
 1012SOL    HW2 4165   0.431   3.293   1.887 -0.7921 -0.6152 -0.7818
 1012SOL    HW3 4166   0.498   3.158   1.890 -0.5174 -0.4525  0.3793
 1012SOL    MW4 4167   0.426   3.206   1.894 -0.5888 -0.5481  0.2441
 1013SOL     OW 4168   0.438   3.469   1.865  0.2092 -0.1484  0.3447
 1013SOL    HW2 4169   0.519   3.502   1.903  1.1430 -2.7731  0.6991
 1013SOL    HW3 4170   0.439   3.499   1.774 -0.7626  3.8974  1.5681
 1013SOL    MW4 4171   0.449   3.477   1.858  0.2042  0.0391  0.5528
 1014SOL     OW 4172   0.645   3.631   1.939 -0.0493  0.4310  0.0204
 1014SOL    HW2 4173   0.734   3.603   1.915 -0.5398  0.3074 -1.6770
 1014SOL    HW3 4174   0.633   3.714   1.893 -0.9236  0.3221  0.0559
 1014SOL    MW4 4175   0.655   3.638   1.930 -0.2294  0.4005 -0.1990
 1015SOL     OW 4176   0.681   3.878   1.844 -0.0629  0.4854 -0.1158
 1015SOL    HW2 4177   0.761   3.929   1.859  0.9184 -1.2824  0.8167
 1015SOL    HW3 4178   0.676   3.869   1.749  0.0363  1.8308 -0.2658
 1015SOL    MW4 4179   0.691   3.884   1.833  0.0796  0.4296 -0.0126
 1016SOL     OW 4180   0.453   3.997   1.931 -0.1126  0.1301 -0.0597
 1016SOL    HW2 4181   0.457   4.089   1.905  0.3619 -0.3682 -1.8175
 1016SOL    HW3 4182   0.533   3.959   1.894 -0.8027 -1.2008 -0.1943
 1016SOL    MW4 4183   0.464   4.005   1.922 -0.1411 -0.1111 -0.3093
 1017SOL     OW 4184   0.450   4.274   1.835 -0.1865 -0.4290  0.4323
 1017SOL    HW2 4185   0.370   4.315   1.867  0.1536  0.6227 -0.0564
 1017SOL    HW3 4186   0.444   4.282   1.739  0.6488 -0.0775  0.4082
 1017SOL    MW4 4187   0.439   4.280   1.826 -0.0314 -0.2437  0.3645
 1018SOL     OW 4188   0.665   4.414   1.941 -0.7531 -0.3485  0.4648
 1018SOL    HW2 4189   0.741   4.373   1.898 -0.3316  1.0345 -0.1141
 1018SOL    HW3 4190   0.592   4.357   1.918  0.0250 -1.4516  0.6489
 1018SOL    MW4 4191   0.666   4.401   1.932 -0.5948 -0.3114  0.4127
 1019SOL     OW 4192   1.104   4.664   1.883 -0.0518  0.0543  0.1349
 1019SOL    HW2 4193   1.182   4.712   1.913  0.4633 -0.2288 -0.7205
 1019SOL    HW3 4194   1.113   4.577   1.923 -0.1014  0.1296  0.3099
 1019SOL    MW4 4195   1.116   4.659   1.892  0.0095  0.0267  0.0453
 1020SOL     OW 4196   0.871   0.138   1.938 -0.3418 -0.2147  0.0599
 1020SOL    HW2 4197   0.949   0.086   1.916 -0.2941  0.0820 -0.4913
 1020SOL    HW3 4198   0.798   0.089   1.900 -0.3930 -0.3423  0.3229
 1020SOL    MW4 4199   0.872   0.125   1.930 -0.3422 -0.1924  0.0219
 1021SOL     OW 4200   0.887   0.382   1.845 -0.0373 -0.3216  0.1961
 1021SOL    HW2 4201   0.949   0.427   1.903 -1.6398 -0.6647  2.2561
 1021SOL    HW3 4202   0.894   0.290   1.869  0.5530 -0.7190 -1.4257
 1021SOL    MW4 4203   0.896   0.376   1.856 -0.1709 -0.4193  0.2539
 1022SOL     OW 4204   1.127   0.505   1.963 -0.0858 -0.0361 -0.2176
 1022SOL    HW2 4205   1.213   0.469   1.939  0.7396  0.7598  1.4519
 1022SOL    HW3 4206   1.121   0.586   1.913 -0.5636 -0.8694 -1.5378
 1022SOL    MW4 4207   1.138   0.511   1.953 -0.0399 -0.0410 -0.1715
 1023SOL     OW 4208   1.129   0.737   1.804 -0.0346 -0.4829  0.2409
 1023SOL    HW2 4209   1.204   0.792   1.826 -0.0168  0.2801 -1.6057
 1023SOL    HW3 4210   1.054   0.782   1.842  0.0421  0.5782 -0.8314
 1023SOL    MW4 4211   1.129   0.750   1.812 -0.0221 -0.2422 -0.1442
 1024SOL     OW 4212   0.895   0.842   1.939 -0.3472  0.0639  0.3219
 1024SOL    HW2 4213   0.917   0.846   2.032  1.5058 -0.2523 -0.0992
 1024SOL    HW3 4214   0.901   0.933   1.909  0.7019 -0.0536  0.1505
 1024SOL    MW4 4215   0.898   0.855   1.947  0.0356  0.0067  0.2437
 1025SOL     OW 4216   0.889   1.115   1.849  0.5185 -0.0475  0.1954
 1025SOL    HW2 4217   0.811   1.167   1.868  0.4659 -0.1130  0.1609
 1025SOL    HW3 4218   0.963   1.172   1.872  0.4487 -0.5432  1.7006
 1025SOL    MW4 4219   0.889   1.129   1.854  0.5023 -0.1216  0.3895
 1026SOL     OW 4220   1.103   1.278   1.917 -0.1770 -0.2679 -0.2692
 1026SOL    HW2 4221   1.119   1.284   2.011  0.1873  0.1513 -0.3596
 1026SOL    HW3 4222   1.183   1.237   1.882  0.1440  0.5856 -0.5400
 1026SOL    MW4 4223   1.116   1.273   1.925 -0.0867 -0.0999 -0.3167
 1027SOL     OW 4224   1.145   1.550   1.855  0.2287 -0.5129  0.7683
 1027SOL    HW2 4225   1.135   1.461   1.888  1.4459 -0.1935  2.0461
 1027SOL    HW3 4226   1.068   1.596   1.889 -0.9328 -1.3029 -0.7440
 1027SOL    MW4 4227   1.133   1.544   1.864  0.2362 -0.5751  0.7373
 1028SOL     OW 4228   0.910   1.663   1.959  0.4546 -0.3441 -0.1229
 1028SOL    HW2 4229   0.897   1.754   1.931  1.3504 -0.0139  0.5032
 1028SOL    HW3 4230   0.835   1.616   1.923 -0.2106  0.7146 -0.1434
 1028SOL    MW4 4231   0.898   1.669   1.951  0.4850 -0.1608 -0.0428
 1029SOL     OW 4232   0.916   1.923   1.876 -0.1341  0.1971 -0.3001
 1029SOL    HW2 4233   0.843   1.981   1.897  0.1629  0.5467 -0.2181
 1029SOL    HW3 4234   0.922   1.925   1.781  0.9379  1.6301 -0.2136
 1029SOL    MW4 4235   0.907   1.931   1.866  0.0465  0.4324 -0.2778
 1030SOL     OW 4236   1.162   2.042   1.939 -0.2904  0.0007  0.0237
 1030SOL    HW2 4237   1.144   2.118   1.884  0.5894 -1.1578 -1.9481
 1030SOL    HW3 4238   1.078   1.996   1.944 -0.4806  0.3436 -0.0068
 1030SOL    MW4 4239   1.149   2.046   1.932 -0.1993 -0.1068 -0.2406
 1031SOL     OW 4240   1.113   2.301   1.831 -0.0997 -0.1613  0.0639
 1031SOL    HW2 4241   1.182   2.347   1.879 -1.1463  0.6910  0.7844
 1031SOL    HW3 4242   1.138   2.309   1.739  1.0501 -0.3446  0.3630
 1031SOL    MW4 4243   1.125   2.308   1.825 -0.0862 -0.0730  0.1984
 1032SOL     OW 4244   0.908   2.427   1.980  0.6625 -0.1282  0.7844
 1032SOL    HW2 4245   0.977   2.374   1.940  0.4109 -0.0171  0.2050
 1032SOL    HW3 4246   0.829   2.403   1.932  0.5905  0.9554  0.3700
 1032SOL    MW4 4247   0.907   2.417   1.968  0.6198  0.0293  0.6533
 1033SOL     OW 4248   0.931   2.660   1.820 -0.1288  0.5483 -0.0095
 1033SOL    HW2 4249   0.943   2.584   1.878  0.6085  0.9898  0.4137
 1033SOL    HW3 4250   0.843   2.691   1.840 -0.4586 -0.2221 -0.2194
 1033SOL    MW4 4251   0.921   2.654   1.830 -0.0750  0.5050  0.0187
 1034SOL     OW 4252   1.119   2.830   1.947 -0.3215 -0.3416  0.0352
 1034SOL    HW2 4253   1.114   2.825   2.042  0.3865 -1.0365  0.0369
 1034SOL    HW3 4254   1.059   2.762   1.916  1.2885 -1.7661  0.0034
 1034SOL    MW4 4255   1.110   2.821   1.955 -0.0157 -0.6211  0.0312
 1035SOL     OW 4256   1.094   3.094   1.827 -0.3475  0.0679  0.2378
 1035SOL    HW2 4257   1.018   3.127   1.874 -0.9556 -0.3073 -0.4785
 1035SOL    HW3 4258   1.105   3.004   1.857 -3.3429 -1.6663 -3.4321
 1035SOL    MW4 4259   1.085   3.087   1.837 -0.8230 -0.2105 -0.3408
 1036SOL     OW 4260   0.870   3.228   1.961  0.1857  0.0198 -0.1976
 1036SOL    HW2 4261   0.884   3.245   2.054  0.5656  0.7330 -0.3857
 1036SOL    HW3 4262   0.792   3.172   1.958 -0.9913  1.5972  0.4256
 1036SOL    MW4 4263   0.862   3.223   1.973  0.0806  0.3219 -0.1401
 1037SOL     OW 4264   0.869   3.490   1.855 -0.4297 -0.0233  0.1418
 1037SOL    HW2 4265   0.859   3.395   1.863  2.6487 -0.3669  0.5494
 1037SOL    HW3 4266   0.891   3.504   1.763  0.0245  0.1994  0.2833
 1037SOL    MW4 4267   0.871   3.479   1.844  0.0364 -0.0396  0.2142
 1038SOL     OW 4268   1.125   3.619   1.916  0.0018  0.1571  0.0655
 1038SOL    HW2 4269   1.154   3.625   2.007 -0.7466  5.5011  0.1039
 1038SOL    HW3 4270   1.034   3.590   1.922  0.3684 -0.8358  0.9431
 1038SOL    MW4 4271   1.117   3.616   1.929 -0.0485  0.7315  0.1863
 1039SOL     OW 4272   1.139   3.883   1.787 -0.5364  0.0087 -0.0757
 1039SOL    HW2 4273   1.145   3.794   1.822 -1.2184 -0.2778 -0.6792
 1039SOL    HW3 4274   1.125   3.871   1.693 -1.2622  0.7343 -0.0708
 1039SOL    MW4 4275   1.138   3.870   1.780 -0.7221  0.0668 -0.1546
 1040SOL     OW 4276   0.911   4.006   1.917 -0.0701  0.1990  0.1737
 1040SOL    HW2 4277   0.934   4.030   2.006  0.2032  1.1837 -0.1596
 1040SOL    HW3 4278   0.992   3.975   1.878 -0.3586 -1.0322  0.5090
 1040SOL    MW4 4279   0.925   4.005   1.923 -0.0721  0.1669  0.1739
 1041SOL     OW 4280   0.870   4.288   1.814 -0.2930  0.1557  0.1402
 1041SOL    HW2 4281   0.948   4.322   1.857 -1.6272  0.4220  2.4297
 1041SOL    HW3 4282   0.874   4.193   1.828  1.1924 -0.1889 -2.4526
 1041SOL    MW4 4283   0.881   4.280   1.822 -0.2730  0.1450  0.1003
 1042SOL     OW 4284   1.094   4.406   1.946  0.5945  0.2160 -0.3115
 1042SOL    HW2 4285   1.073   4.395   2.038  2.4138 -0.9303  0.0003
 1042SOL    HW3 4286   1.178   4.361   1.935  2.1579  3.3019 -1.7424
 1042SOL    MW4 4287   1.103   4.399   1.957  1.0407  0.4716 -0.4591
 1043SOL     OW 4288   1.551   0.014   1.830  0.0206  0.0553  0.5585
 1043SOL    HW2 4289   1.621   0.063   1.872 -1.2797  1.2079  1.4483
 1043SOL    HW3 4290   1.556  -0.074   1.869  0.8315  0.1898  0.7639
 1043SOL    MW4 4291   1.561   0.008   1.841 -0.0439  0.2246  0.7030
 1044SOL     OW 4292   1.348   0.134   1.974 -0.6025  0.0959  0.2792
 1044SOL    HW2 4293   1.364   0.117   2.067  1.8922  1.3601  0.1266
 1044SOL    HW3 4294   1.421   0.092   1.929 -1.6767 -0.3115 -1.1164
 1044SOL    MW4 4295   1.360   0.126   1.980 -0.4152  0.2090  0.0749
 1045SOL     OW 4296   1.350   0.381   1.859  0.5075  0.3595 -0.3634
 1045SOL    HW2 4297   1.342   0.298   1.907  0.5326  1.1580  1.0401
 1045SOL    HW3 4298   1.354   0.354   1.767  0.2791 -1.1862  0.0515
 1045SOL    MW4 4299   1.350   0.366   1.854  0.4808  0.2609 -0.1235
 1046SOL     OW 4300   1.586   0.514   1.967 -0.6796  0.2394 -0.7684
 1046SOL    HW2 4301   1.648   0.471   1.909  0.1090 -0.9821  0.9573
 1046SOL    HW3 4302   1.500   0.479   1.941 -0.1773 -1.4429 -0.2031
 1046SOL    MW4 4303   1.583   0.504   1.956 -0.5093 -0.1437 -0.4662
 1047SOL     OW 4304   1.592   0.767   1.870 -0.6432  0.1951  0.1969
 1047SOL    HW2 4305   1.676   0.804   1.896 -1.1225  1.6657 -0.2684
 1047SOL    HW3 4306   1.591   0.679   1.908  0.2056  0.9351  2.0123
 1047SOL    MW4 4307   1.603   0.760   1.879 -0.5945  0.4868  0.3749
 1048SOL     OW 4308   1.357   0.888   1.905  0.2637 -0.3071  0.0661
 1048SOL    HW2 4309   1.334   0.870   1.996 -0.2848 -0.0778 -0.0237
 1048SOL    HW3 4310   1.435   0.835   1.889  0.4404 -0.2444  0.7073
 1048SOL    MW4 4311   1.364   0.879   1.915  0.2147 -0.2685  0.1389
 1049SOL     OW 4312   1.327   1.147   1.833 -0.0056 -0.1940 -0.0594
 1049SOL    HW2 4313   1.330   1.053   1.851 -0.0841 -0.4524 -1.2911
 1049SOL    HW3 4314   1.411   1.180   1.864 -0.4839 -0.4431  1.5295
 1049SOL    MW4 4315   1.338   1.139   1.839 -0.0790 -0.2609 -0.0122
 1050SOL     OW 4316   1.565   1.248   1.949  0.3828 -0.0126 -0.0321
 1050SOL    HW2 4317   1.581   1.336   1.913  0.0861 -0.5927 -1.6092
 1050SOL    HW3 4318   1.633   1.194   1.910 -0.1869 -0.7363 -0.0238
 1050SOL    MW4 4319   1.576   1.253   1.939  0.2687 -0.1845 -0.2389
 1051SOL     OW 4320   1.600   1.497   1.869 -0.2211 -0.5815  0.3505
 1051SOL    HW2 4321   1.669   1.554   1.902 -0.3993  0.6681 -1.3738
 1051SOL    HW3 4322   1.520   1.532   1.906 -0.2108 -0.4211  0.2193
 1051SOL    MW4 4323   1.599   1.509   1.878 -0.2433 -0.3954  0.1056
 1052SOL     OW 4324   1.371   1.669   1.978 -0.6766 -0.3258 -0.0754
 1052SOL    HW2 4325   1.365   1.677   2.073 -0.5218 -1.0897  0.0052
 1052SOL    HW3 4326   1.282   1.648   1.950 -1.0355  1.3889 -0.2627
 1052SOL    MW4 4327   1.358   1.667   1.987 -0.7035 -0.2004 -0.0895
 1053SOL     OW 4328   1.370   1.893   1.835  0.1388  0.2527  0.0611
 1053SOL    HW2 4329   1.377   1.816   1.890  0.8006  0.0084 -0.3664
 1053SOL    HW3 4330   1.299   1.944   1.874  0.0481 -0.3195  0.6433
 1053SOL    MW4 4331   1.361   1.890   1.847  0.2141  0.1450  0.0815
 1054SOL     OW 4332   1.584   2.048   1.923 -0.1114 -0.0702  0.2081
 1054SOL    HW2 4333   1.563   2.049   2.016 -0.1837  1.4858  0.1828
 1054SOL    HW3 4334   1.512   2.000   1.883 -0.8293  0.5186  0.7803
 1054SOL    MW4 4335   1.572   2.042   1.930 -0.2156  0.2129  0.2803
 1055SOL     OW 4336   1.540   2.309   1.843 -0.1873 -0.6974  0.1916
 1055SOL    HW2 4337   1.542   2.218   1.873 -0.1453 -0.4443  0.9607
 1055SOL    HW3 4338   1.621   2.347   1.876  0.5485 -0.7897 -1.4571
 1055SOL    MW4 4339   1.551   2.302   1.851 -0.0849 -0.6762  0.0756
 1056SOL     OW 4340   1.317   2.440   1.953 -0.2657 -0.5261  0.0521
 1056SOL    HW2 4341   1.305   2.526   1.914  1.2180 -0.1724  0.3470
 1056SOL    HW3 4342   1.396   2.405   1.912  0.2367 -0.9401  1.3330
 1056SOL    MW4 4343   1.326   2.447   1.942 -0.0036 -0.5341  0.2601
 1057SOL     OW 4344   1.332   2.710   1.831  0.1120 -0.5024  0.4568
 1057SOL    HW2 4345   1.257   2.762   1.861  1.1274  0.5278  1.2124
 1057SOL    HW3 4346   1.323   2.709   1.735  0.3927  1.5633  0.3855
 1057SOL    MW4 4347   1.321   2.717   1.822  0.2830 -0.0939  0.5471
 1058SOL     OW 4348   1.566   2.832   1.916  0.0552 -0.0851  0.1149
 1058SOL    HW2 4349   1.638   2.785   1.874  0.9413  0.4468  1.0178
 1058SOL    HW3 4350   1.488   2.781   1.895  0.6708 -0.5684 -1.0228
 1058SOL    MW4 4351   1.565   2.819   1.908  0.2533 -0.0787  0.0837
 1059SOL     OW 4352   1.569   3.099   1.875 -0.1736 -0.3225  0.1127
 1059SOL    HW2 4353   1.559   3.007   1.900 -0.9503 -0.0927  0.6730
 1059SOL    HW3 4354   1.564   3.099   1.780 -2.0968 -0.6433  0.1890
 1059SOL    MW4 4355   1.567   3.087   1.866 -0.5300 -0.3345  0.1968
 1060SOL     OW 4356   1.310   3.215   1.966 -0.2781 -0.1438  0.0257
 1060SOL    HW2 4357   1.385   3.178   1.920 -0.2235 -1.1337  0.8995
 1060SOL    HW3 4358   1.234   3.187   1.914 -0.0883  0.3626 -0.5277
 1060SOL    MW4 4359   1.310   3.207   1.953 -0.2459 -0.2077  0.0681
 1061SOL     OW 4360   1.348   3.456   1.847  0.2288  0.1637  0.3733
 1061SOL    HW2 4361   1.345   3.374   1.896 -1.9932 -0.4604 -0.7299
 1061SOL    HW3 4362   1.265   3.499   1.868 -0.5713  0.0928 -2.4051
 1061SOL    MW4 4363   1.336   3.451   1.856 -0.1699  0.0720 -0.1388
 1062SOL     OW 4364   1.579   3.610   1.900  0.1047  0.2565 -0.0168
 1062SOL    HW2 4365   1.585   3.639   1.991  0.6418 -0.8364  0.2917
 1062SOL    HW3 4366   1.498   3.560   1.896 -0.3468  1.0045 -0.3382
 1062SOL    MW4 4367   1.569   3.607   1.911  0.1159  0.2110 -0.0185
 1063SOL     OW 4368   1.563   3.889   1.841  0.2276 -0.0878 -0.2331
 1063SOL    HW2 4369   1.636   3.932   1.887 -0.6531  1.2486 -0.0481
 1063SOL    HW3 4370   1.577   3.796   1.855  1.0200  0.2292  1.1530
 1063SOL    MW4 4371   1.575   3.883   1.849  0.2160  0.1299 -0.0257
 1064SOL     OW 4372   1.333   3.999   1.956  0.5472  0.4714  0.3979
 1064SOL    HW2 4373   1.412   3.968   1.911 -0.2026 -0.7154 -0.1203
 1064SOL    HW3 4374   1.261   3.957   1.909 -0.2293 -1.1482  2.9598
 1064SOL    MW4 4375   1.334   3.990   1.944  0.3457  0.1013  0.6673
 1065SOL     OW 4376   1.321   4.267   1.900  0.0924  0.0189  0.5552
 1065SOL    HW2 4377   1.322   4.178   1.935 -1.4740 -0.7143 -1.1518
 1065SOL    HW3 4378   1.332   4.256   1.806 -2.7422  1.3970  0.0007
 1065SOL    MW4 4379   1.322   4.254   1.892 -0.4883  0.1035  0.2569
 1066SOL     OW 4380   1.541   4.424   1.929  0.1325  0.1837 -0.2508
 1066SOL    HW2 4381   1.561   4.406   2.021  0.0183 -0.7147 -0.3978
 1066SOL    HW3 4382   1.474   4.360   1.906  1.0093 -0.3640 -1.2938
 1066SOL    MW4 4383   1.535   4.413   1.939  0.2332 -0.0072 -0.4076
 1067SOL     OW 4384   2.017   0.008   1.821 -0.1607 -0.2621 -0.5536
 1067SOL    HW2 4385   2.097   0.032   1.868  0.7025  0.4411 -2.3365
 1067SOL    HW3 4386   1.992  -0.077   1.857  0.8415 -0.0360  0.7083
 1067SOL    MW4 4387   2.024   0.000   1.832  0.0854 -0.1392 -0.6224
 1068SOL     OW 4388   1.785   0.122   1.938 -0.3876 -0.4069 -0.1836
 1068SOL    HW2 4389   1.798   0.107   2.031  0.7007 -0.9644 -0.4144
 1068SOL    HW3 4390   1.871   0.104   1.898 -1.5176 -2.8666 -1.6230
 1068SOL    MW4 4391   1.798   0.117   1.945 -0.3932 -0.8050 -0.4041
 1069SOL     OW 4392   1.806   0.393   1.836  0.3594  0.2693 -0.2649
 1069SOL    HW2 4393   1.807   0.302   1.865 -1.4897  0.5190  0.6459
 1069SOL    HW3 4394   1.787   0.388   1.742 -2.2035 -0.2156  0.2420
 1069SOL    MW4 4395   1.804   0.380   1.827 -0.2228  0.2382 -0.0778
 1070SOL     OW 4396   2.024   0.528   1.958  0.3929  0.2122 -0.0956
 1070SOL    HW2 4397   2.030   0.611   1.911  1.2997 -0.1940 -0.7346
 1070SOL    HW3 4398   1.953   0.481   1.914 -1.3677  1.3570  1.4511
 1070SOL    MW4 4399   2.016   0.533   1.946  0.2801  0.3096  0.0242
 1071SOL     OW 4400   2.009   0.758   1.819 -0.3141  0.6750  0.0159
 1071SOL    HW2 4401   2.083   0.815   1.838  0.4079 -0.5325  0.9545
 1071SOL    HW3 4402   2.009   0.751   1.724  0.5982  0.9413 -0.0165
 1071SOL    MW4 4403   2.019   0.764   1.809 -0.0985  0.5508  0.1354
 1072SOL     OW 4404   1.822   0.893   1.957  0.6164 -0.1790 -0.4157
 1072SOL    HW2 4405   1.801   0.978   1.918 -0.4271 -0.2043  0.0892
 1072SOL    HW3 4406   1.897   0.861   1.905  0.1082  0.3960 -1.5214
 1072SOL    MW4 4407   1.829   0.900   1.945  0.4117 -0.1065 -0.4950
 1073SOL     OW 4408   1.763   1.115   1.806  0.7792  0.1613 -0.2269
 1073SOL    HW2 4409   1.840   1.170   1.824 -0.0174  1.5611 -0.9591
 1073SOL    HW3 4410   1.754   1.117   1.711 -1.7070  2.2744 -0.0212
 1073SOL    MW4 4411   1.772   1.123   1.796  0.3459  0.6248 -0.2964
 1074SOL     OW 4412   1.979   1.234   1.905 -0.1932  0.2508 -0.5434
 1074SOL    HW2 4413   1.981   1.223   2.001 -0.3276 -1.4747 -0.7133
 1074SOL    HW3 4414   2.066   1.206   1.877 -0.1651  0.7354 -0.9269
 1074SOL    MW4 4415   1.991   1.229   1.914 -0.2072  0.0870 -0.6163
 1075SOL     OW 4416   2.052   1.493   1.816 -0.1784  0.3178 -0.1224
 1075SOL    HW2 4417   2.024   1.402   1.827  0.8873 -0.1140 -0.9206
 1075SOL    HW3 4418   2.021   1.517   1.728  1.2582  0.0839 -0.7014
 1075SOL    MW4 4419   2.044   1.484   1.806  0.1519  0.2300 -0.3042
 1076SOL     OW 4420   1.822   1.618   1.953  0.0782  0.3976 -0.1678
 1076SOL    HW2 4421   1.807   1.706   1.918 -1.1427 -0.1094 -0.9292
 1076SOL    HW3 4422   1.889   1.580   1.896 -0.7986  0.1353 -1.0441
 1076SOL    MW4 4423   1.829   1.625   1.941 -0.1987  0.2960 -0.3839
 1077SOL     OW 4424   1.788   1.865   1.843 -0.2144  0.4605  0.4459
 1077SOL    HW2 4425   1.728   1.927   1.884 -0.1661  0.8217 -0.0188
 1077SOL    HW3 4426   1.875   1.905   1.854  0.1798 -0.9079  2.7018
 1077SOL    MW4 4427   1.792   1.879   1.850 -0.1562  0.3276  0.6822
 1078SOL     OW 4428   1.975   2.070   1.937 -0.0695  0.1303 -0.2229
 1078SOL    HW2 4429   1.964   2.080   2.032 -0.3882 -0.5794 -0.1778
 1078SOL    HW3 4430   2.066   2.043   1.925 -0.1585 -0.2396 -0.0777
 1078SOL    MW4 4431   1.985   2.068   1.948 -0.1235 -0.0124 -0.1978
 1079SOL     OW 4432   1.992   2.315   1.792 -0.3613 -0.1343  0.2261
 1079SOL    HW2 4433   2.050   2.365   1.849  0.3649 -0.3621 -0.3054
 1079SOL    HW3 4434   1.972   2.236   1.841 -1.0797  0.4214  0.8461
 1079SOL    MW4 4435   1.997   2.311   1.806 -0.3603 -0.0911  0.2377
 1080SOL     OW 4436   1.776   2.451   1.895 -0.2241  0.4072  0.0207
 1080SOL    HW2 4437   1.794   2.444   1.989 -1.2341 -1.2411  0.1135
 1080SOL    HW3 4438   1.848   2.404   1.853 -1.0576 -0.9569  0.0986
 1080SOL    MW4 4439   1.788   2.444   1.902 -0.4674  0.0098  0.0432
 1081SOL     OW 4440   1.810   2.701   1.813 -0.3451  0.1568 -0.0669
 1081SOL    HW2 4441   1.790   2.609   1.833 -1.7455  0.2819 -0.7780
 1081SOL    HW3 4442   1.786   2.710   1.720  0.6922  1.0009 -0.2609
 1081SOL    MW4 4443   1.804   2.690   1.803 -0.3930  0.2847 -0.1862
 1082SOL     OW 4444   2.036   2.824   1.905 -0.3952  0.2093 -0.2846
 1082SOL    HW2 4445   2.033   2.830   2.000  0.0734 -2.4021 -0.0568
 1082SOL    HW3 4446   1.951   2.789   1.880 -0.3330  0.4103 -0.7819
 1082SOL    MW4 4447   2.025   2.820   1.914 -0.3252 -0.1087 -0.3202
 1083SOL     OW 4448   2.046   3.100   1.857  0.1925  0.4540  0.3910
 1083SOL    HW2 4449   1.957   3.118   1.885 -0.1760 -1.5119  0.5650
 1083SOL    HW3 4450   2.055   3.005   1.865  1.8346  0.4681 -0.9705
 1083SOL    MW4 4451   2.036   3.090   1.861  0.3607  0.1967  0.2344
 1084SOL     OW 4452   1.808   3.229   1.932 -0.1220 -0.1523 -0.2772
 1084SOL    HW2 4453   1.820   3.232   2.027  2.0252  0.8262 -0.5635
 1084SOL    HW3 4454   1.721   3.188   1.921 -1.0497  1.0439  2.1181
 1084SOL    MW4 4455   1.798   3.224   1.943  0.0389  0.1347  0.0011
 1085SOL     OW 4456   1.824   3.480   1.838 -0.0166 -0.0801  0.0086
 1085SOL    HW2 4457   1.826   3.392   1.875  2.8237  1.0185  2.7613
 1085SOL    HW3 4458   1.739   3.515   1.862 -0.5967 -1.5676  0.1414
 1085SOL    MW4 4459   1.813   3.473   1.846  0.2816 -0.1314  0.3892
 1086SOL     OW 4460   2.020   3.622   1.992  0.2564  0.0020 -0.3951
 1086SOL    HW2 4461   2.037   3.711   1.961  1.2159 -0.7627 -2.1854
 1086SOL    HW3 4462   1.939   3.597   1.949  0.0085  0.0002  0.0750
 1086SOL    MW4 4463   2.012   3.630   1.982  0.3505 -0.0992 -0.5693
 1087SOL     OW 4464   2.062   3.860   1.879  0.0199  0.2182 -0.4248
 1087SOL    HW2 4465   2.127   3.928   1.894 -0.6396  0.6334  0.5819
 1087SOL    HW3 4466   2.060   3.849   1.784  1.3868  0.3599 -0.4781
 1087SOL    MW4 4467   2.070   3.867   1.868  0.1132  0.2916 -0.2989
 1088SOL     OW 4468   1.794   3.982   1.975  0.0378  0.4620  0.6487
 1088SOL    HW2 4469   1.812   4.071   1.943  0.8307  0.5019  1.1811
 1088SOL    HW3 4470   1.877   3.936   1.964 -0.1031  0.0594  1.2685
 1088SOL    MW4 4471   1.807   3.988   1.969  0.1239  0.4139  0.8006
 1089SOL     OW 4472   1.804   4.237   1.869 -0.1197  0.0405 -0.1499
 1089SOL    HW2 4473   1.725   4.282   1.898  0.6014  1.2387  0.0168
 1089SOL    HW3 4474   1.808   4.251   1.775 -0.6738 -0.9517 -0.3260
 1089SOL    MW4 4475   1.794   4.245   1.861 -0.0976  0.0677 -0.1510
 1090SOL     OW 4476   2.015   4.408   1.948  0.0992  0.1284 -0.3038
 1090SOL    HW2 4477   2.096   4.364   1.923  0.1803 -0.0760  0.3074
 1090SOL    HW3 4478   1.946   4.351   1.915  0.2041 -0.2275  0.0886
 1090SOL    MW4 4479   2.017   4.395   1.940  0.1240  0.0544 -0.1713
 1091SOL     OW 4480   2.476   4.645   1.861 -0.1496 -0.0535 -0.3307
 1091SOL    HW2 4481   2.551   4.699   1.885 -0.5558 -0.1842  1.3032
 1091SOL    HW3 4482   2.491   4.562   1.905 -0.4886 -0.6221 -1.2652
 1091SOL    MW4 4483   2.488   4.641   1.870 -0.2482 -0.1458 -0.2384
 1092SOL     OW 4484   2.260   0.112   1.929 -0.1892  0.3308 -0.2598
 1092SOL    HW2 4485   2.267   0.120   2.024 -1.7950 -2.5737  0.1649
 1092SOL    HW3 4486   2.344   0.074   1.901  0.4573  1.6094 -0.0805
 1092SOL    MW4 4487   2.272   0.108   1.938 -0.3159  0.1163 -0.1801
 1093SOL     OW 4488   2.243   0.369   1.850 -0.0571 -0.3214 -0.5921
 1093SOL    HW2 4489   2.247   0.279   1.881 -0.5272 -0.2882 -0.4304
 1093SOL    HW3 4490   2.178   0.411   1.906  1.9665  0.7672  0.9861
 1093SOL    MW4 4491   2.235   0.363   1.861  0.1476 -0.1734 -0.3625
 1094SOL     OW 4492   2.462   0.497   1.946  0.1527 -0.2248 -0.0615
 1094SOL    HW2 4493   2.529   0.457   1.891 -0.6755 -0.6867 -0.7322
 1094SOL    HW3 4494   2.379   0.466   1.910 -0.4453  0.8589  0.3662
 1094SOL    MW4 4495   2.460   0.488   1.934 -0.0355 -0.1428 -0.0936
 1095SOL     OW 4496   2.451   0.772   1.852  0.1954  0.0507 -0.1206
 1095SOL    HW2 4497   2.443   0.682   1.884 -0.0441 -0.1027 -0.6191
 1095SOL    HW3 4498   2.447   0.764   1.757 -1.2567  0.7265 -0.1287
 1095SOL    MW4 4499   2.449   0.759   1.844 -0.0279  0.1196 -0.1874
 1096SOL     OW 4500   2.222   0.912   1.936 -0.6144  0.2003  0.7465
 1096SOL    HW2 4501   2.217   0.899   2.031  0.8119  0.9405  0.9275
 1096SOL    HW3 4502   2.307   0.876   1.911 -0.9103  0.1626 -0.2357
 1096SOL    MW4 4503   2.232   0.905   1.945 -0.4652  0.2930  0.6406
 1097SOL     OW 4504   2.238   1.171   1.821 -0.0573  0.3333 -0.3397
 1097SOL    HW2 4505   2.300   1.224   1.870 -1.8233  1.5541  0.6190
 1097SOL    HW3 4506   2.246   1.083   1.859  1.3655  0.3610 -0.5256
 1097SOL    MW4 4507   2.247   1.166   1.832 -0.1025  0.4982 -0.2377
 1098SOL     OW 4508   2.457   1.277   1.965 -0.1850 -0.3023  0.0026
 1098SOL    HW2 4509   2.445   1.282   2.060 -1.1051  0.1169 -0.1311
 1098SOL    HW3 4510   2.458   1.369   1.936 -1.0571 -0.4559 -0.5285
 1098SOL    MW4 4511   2.455   1.290   1.974 -0.4210 -0.2671 -0.0850
 1099SOL     OW 4512   2.440   1.540   1.847 -0.0567 -0.2732  0.3237
 1099SOL    HW2 4513   2.359   1.590   1.861  0.3687  0.2558  0.8944
 1099SOL    HW3 4514   2.445   1.528   1.753  0.1934  1.3537  0.1196
 1099SOL    MW4 4515   2.430   1.545   1.837  0.0327  0.0112  0.3721
 1100SOL     OW 4516   2.221   1.671   1.933  0.1786 -0.3095 -0.3426
 1100SOL    HW2 4517   2.212   1.673   2.028  0.6836  1.6195 -0.3099
 1100SOL    HW3 4518   2.161   1.602   1.905 -0.6592 -0.2806  1.3027
 1100SOL    MW4 4519   2.212   1.662   1.942  0.1347 -0.0511 -0.1212
 1101SOL     OW 4520   2.208   1.933   1.841 -0.4687 -0.0849 -0.2710
 1101SOL    HW2 4521   2.289   1.972   1.873 -1.6091  0.9757  1.4290
 1101SOL    HW3 4522   2.210   1.843   1.874 -0.2152  0.0995  0.2315
 1101SOL    MW4 4523   2.219   1.926   1.850 -0.5858  0.0793  0.0196
 1102SOL     OW 4524   2.459   2.069   1.914  0.1629  0.1847  0.0878
 1102SOL    HW2 4525   2.526   2.022   1.866 -0.2800 -1.3497  0.9402
 1102SOL    HW3 4526   2.448   2.151   1.866 -1.1537 -1.8038 -3.1849
 1102SOL    MW4 4527   2.466   2.074   1.902 -0.0694 -0.2801 -0.2316
 1103SOL     OW 4528   2.413   2.329   1.818  0.1181  0.6802 -0.3013
 1103SOL    HW2 4529   2.481   2.387   1.852 -0.1955  1.2623 -0.6547
 1103SOL    HW3 4530   2.332   2.362   1.858  0.3091 -1.2901  1.7554
 1103SOL    MW4 4531   2.411   2.341   1.828  0.1016  0.4971 -0.0765
 1104SOL     OW 4532   2.185   2.449   1.956  0.8032 -0.2998 -0.1239
 1104SOL    HW2 4533   2.188   2.457   2.052  0.8445 -1.3840 -0.0209
 1104SOL    HW3 4534   2.219   2.532   1.924 -1.0583  0.8447  0.7820
 1104SOL    MW4 4535   2.190   2.461   1.965  0.5627 -0.2918  0.0092
 1105SOL     OW 4536   2.276   2.690   1.854 -0.4237 -0.3185 -0.0818
 1105SOL    HW2 4537   2.191   2.731   1.872 -0.1517  0.7240 -1.1329
 1105SOL    HW3 4538   2.285   2.694   1.759  1.0955  0.1498  0.0731
 1105SOL    MW4 4539   2.266   2.696   1.844 -0.1874 -0.1192 -0.2000
 1106SOL     OW 4540   2.470   2.855   1.981  0.7698 -0.0653 -0.0407
 1106SOL    HW2 4541   2.482   2.938   1.934  0.9743 -0.1134 -0.0722
 1106SOL    HW3 4542   2.404   2.809   1.930  0.3286  0.2682  0.2274
 1106SOL    MW4 4543   2.463   2.860   1.968  0.7386 -0.0274 -0.0095
 1107SOL     OW 4544   2.489   3.104   1.869  0.3814 -0.0286  0.0831
 1107SOL    HW2 4545   2.411   3.154   1.892  0.4749  0.2992 -0.2964
 1107SOL    HW3 4546   2.562   3.158   1.902  0.3662 -1.4282  2.4781
 1107SOL    MW4 4547   2.488   3.118   1.876  0.3915 -0.1702  0.3490
 1108SOL     OW 4548   2.271   3.254   1.936  0.1340  0.5971 -0.0430
 1108SOL    HW2 4549   2.265   3.251   2.031 -1.0794  1.4667 -0.0741
 1108SOL    HW3 4550   2.190   3.213   1.905  0.1567  1.0262 -0.6912
 1108SOL    MW4 4551   2.259   3.248   1.944 -0.0231  0.7682 -0.1327
 1109SOL     OW 4552   2.245   3.499   1.844  0.4824  0.0990  0.0354
 1109SOL    HW2 4553   2.262   3.412   1.878  1.5838  1.0811  2.1341
 1109SOL    HW3 4554   2.167   3.529   1.891 -0.9027 -0.3944 -1.9214
 1109SOL    MW4 4555   2.237   3.492   1.855  0.4451  0.1633  0.0542
 1110SOL     OW 4556   2.458   3.649   1.942 -0.1422  0.1199  0.5607
 1110SOL    HW2 4557   2.455   3.646   2.037  0.9859  0.8622  0.6171
 1110SOL    HW3 4558   2.378   3.604   1.915 -2.3471  3.0279  1.8932
 1110SOL    MW4 4559   2.447   3.643   1.951 -0.2840  0.6015  0.7439
 1111SOL     OW 4560   2.467   3.938   1.884 -0.6276 -0.1269 -0.0005
 1111SOL    HW2 4561   2.392   3.984   1.921 -1.8470 -1.2151 -1.0392
 1111SOL    HW3 4562   2.448   3.845   1.900 -0.4504 -0.5219 -1.9732
 1111SOL    MW4 4563   2.455   3.932   1.891 -0.7651 -0.3228 -0.3977
 1112SOL     OW 4564   2.245   4.073   1.960  0.0137 -0.0416  0.2637
 1112SOL    HW2 4565   2.238   4.090   2.054  0.0721  1.0766  0.0796
 1112SOL    HW3 4566   2.249   4.160   1.921  2.2160 -0.4924 -0.6012
 1112SOL    MW4 4567   2.245   4.087   1.968  0.3121  0.0467  0.1254
 1113SOL     OW 4568   2.261   4.312   1.819  0.2733 -0.0851  0.2192
 1113SOL    HW2 4569   2.341   4.351   1.854 -0.0401  0.1544  0.6775
 1113SOL    HW3 4570   2.267   4.324   1.724 -0.0934  1.6145  0.3956
 1113SOL    MW4 4571   2.272   4.318   1.811  0.1836  0.1702  0.3030
 1114SOL     OW 4572   2.481   4.398   1.969  0.1873 -0.4579  0.3058
 1114SOL    HW2 4573   2.460   4.416   2.060 -2.0147 -2.1292  0.1734
 1114SOL    HW3 4574   2.562   4.347   1.972  1.2363  1.2350  1.1836
 1114SOL    MW4 4575   2.489   4.394   1.981  0.0353 -0.4549  0.4040
 1115SOL     OW 4576   2.904   4.625   1.868 -0.4756  0.2641  0.5684
 1115SOL    HW2 4577   2.989   4.665   1.890  0.6066 -0.4858 -2.0104
 1115SOL    HW3 4578   2.908   4.538   1.908 -0.2207  0.4055  0.8575
 1115SOL    MW4 4579   2.916   4.619   1.876 -0.2992  0.1836  0.2662
 1116SOL     OW 4580   2.696   0.139   1.938 -0.3363  0.0497 -0.1643
 1116SOL    HW2 4581   2.706   0.138   2.033  0.4663  2.3685 -0.2078
 1116SOL    HW3 4582   2.768   0.085   1.906 -0.6580 -0.8059  0.5313
 1116SOL    MW4 4583   2.707   0.131   1.946 -0.2730  0.2427 -0.0782
 1117SOL     OW 4584   2.691   0.384   1.818 -0.2600  0.4552  0.7009
 1117SOL    HW2 4585   2.762   0.433   1.858 -0.0199  1.0829 -0.4713
 1117SOL    HW3 4586   2.698   0.296   1.856  0.9725  0.5895  0.8063
 1117SOL    MW4 4587   2.701   0.379   1.828 -0.0658  0.5557  0.5603
 1118SOL     OW 4588   2.905   0.502   1.944 -0.0088 -0.1074 -0.3286
 1118SOL    HW2 4589   2.993   0.468   1.926 -0.7381 -1.8655 -0.5684
 1118SOL    HW3 4590   2.904   0.587   1.900  2.1985  0.7993  1.2176
 1118SOL    MW4 4591   2.917   0.509   1.936  0.1864 -0.2197 -0.1562
 1119SOL     OW 4592   2.895   0.748   1.826 -0.1361  0.2719  0.4153
 1119SOL    HW2 4593   2.978   0.794   1.843  0.9946 -1.1221 -1.1785
 1119SOL    HW3 4594   2.827   0.811   1.852  1.3690  2.6696 -1.2226
 1119SOL    MW4 4595   2.897   0.763   1.832  0.2115  0.4042 -0.0111
 1120SOL     OW 4596   2.684   0.890   1.958  0.1570 -0.3475  0.2504
 1120SOL    HW2 4597   2.692   0.979   1.924  0.8811 -0.6947 -0.5086
 1120SOL    HW3 4598   2.598   0.860   1.927  0.2890 -0.2227 -0.2390
 1120SOL    MW4 4599   2.673   0.897   1.949  0.2699 -0.3768  0.0857
 1121SOL     OW 4600   2.671   1.149   1.857 -0.3106 -0.0566 -0.0209
 1121SOL    HW2 4601   2.589   1.190   1.887  0.9571  3.0836 -0.5884
 1121SOL    HW3 4602   2.665   1.153   1.762 -0.9823 -3.0215 -0.1360
 1121SOL    MW4 4603   2.659   1.155   1.849 -0.2315 -0.0335 -0.1110
 1122SOL     OW 4604   2.883   1.285   1.984 -0.3613  0.0334  0.1219
 1122SOL    HW2 4605   2.878   1.378   1.961 -2.6081  0.2115  1.1950
 1122SOL    HW3 4606   2.804   1.246   1.947 -1.1085 -0.7893  2.4313
 1122SOL    MW4 4607   2.872   1.292   1.976 -0.7563 -0.0515  0.5683
 1123SOL     OW 4608   2.905   1.545   1.882 -0.0800  0.1322 -0.1722
 1123SOL    HW2 4609   2.980   1.603   1.896  0.3925 -0.6770  0.6791
 1123SOL    HW3 4610   2.906   1.529   1.788  0.6742  0.3169 -0.2032
 1123SOL    MW4 4611   2.915   1.551   1.871  0.0820  0.0497 -0.0639
 1124SOL     OW 4612   2.674   1.681   1.971  0.3029  0.3644 -0.3643
 1124SOL    HW2 4613   2.748   1.630   1.939 -0.8578 -2.3565  1.1656
 1124SOL    HW3 4614   2.599   1.648   1.923 -0.7396 -0.6028  1.8541
 1124SOL    MW4 4615   2.674   1.670   1.961  0.0119 -0.1221  0.1303
 1125SOL     OW 4616   2.692   1.932   1.830  0.2515 -0.1231 -0.7539
 1125SOL    HW2 4617   2.746   1.994   1.880  0.5904 -0.5809 -0.5492
 1125SOL    HW3 4618   2.692   1.853   1.884 -0.0258 -0.3613 -1.1104
 1125SOL    MW4 4619   2.699   1.930   1.844  0.2596 -0.2149 -0.7740
 1126SOL     OW 4620   2.877   2.108   1.940 -0.1328  0.2354  0.4470
 1126SOL    HW2 4621   2.871   2.095   2.034 -2.1579 -1.6724  0.0952
 1126SOL    HW3 4622   2.947   2.049   1.912 -0.6461 -0.4355  0.5602
 1126SOL    MW4 4623   2.885   2.099   1.949 -0.4678 -0.1049  0.4156
 1127SOL     OW 4624   2.872   2.362   1.808  0.4190 -0.3183 -0.0686
 1127SOL    HW2 4625   2.951   2.396   1.849  1.2999 -1.4096 -0.8134
 1127SOL    HW3 4626   2.864   2.273   1.841  0.2259 -0.6501 -0.9864
 1127SOL    MW4 4627   2.881   2.355   1.817  0.5095 -0.5059 -0.2879
 1128SOL     OW 4628   2.654   2.470   1.921  0.5811  0.6786 -0.0393
 1128SOL    HW2 4629   2.653   2.447   2.014 -1.9241 -1.2855 -0.5106
 1128SOL    HW3 4630   2.731   2.425   1.887  1.2624  1.0404  0.9805
 1128SOL    MW4 4631   2.664   2.461   1.929  0.3405  0.4671  0.0331
 1129SOL     OW 4632   2.696   2.740   1.866  0.2212  0.5269 -0.1514
 1129SOL    HW2 4633   2.645   2.790   1.930 -0.5374  0.1928 -0.4918
 1129SOL    HW3 4634   2.690   2.649   1.896  1.3547  0.5883  0.3018
 1129SOL    MW4 4635   2.689   2.735   1.879  0.2706  0.4909 -0.1364
 1130SOL     OW 4636   2.925   2.876   1.951 -0.4576 -0.4886  0.0662
 1130SOL    HW2 4637   2.904   2.954   1.900  0.2077 -1.7877 -2.2683
 1130SOL    HW3 4638   2.851   2.818   1.935 -0.7564 -0.4932  1.4653
 1130SOL    MW4 4639   2.912   2.879   1.942 -0.4094 -0.6607 -0.0572
 1131SOL     OW 4640   2.876   3.140   1.868 -0.2877  0.3358  0.3161
 1131SOL    HW2 4641   2.958   3.181   1.896  0.1436  0.1370 -0.6368
 1131SOL    HW3 4642   2.808   3.194   1.908  0.2792  1.4714 -0.2112
 1131SOL    MW4 4643   2.878   3.153   1.877 -0.1562  0.4594  0.1206
 1132SOL     OW 4644   2.667   3.292   1.934 -0.0530 -0.1955  0.3859
 1132SOL    HW2 4645   2.665   3.378   1.890 -0.9576 -0.8448 -0.8970
 1132SOL    HW3 4646   2.675   3.313   2.027 -0.1372  1.2790  0.0846
 1132SOL    MW4 4647   2.668   3.306   1.940 -0.1833 -0.0868  0.1769
 1133SOL     OW 4648   2.668   3.542   1.820 -0.1954 -0.1950 -0.2367
 1133SOL    HW2 4649   2.748   3.569   1.866 -0.0864  0.9584 -1.0647
 1133SOL    HW3 4650   2.598   3.592   1.862 -0.0794  0.9589 -1.3579
 1133SOL    MW4 4651   2.669   3.552   1.831 -0.1657  0.1092 -0.4939
 1134SOL     OW 4652   2.908   3.625   1.954 -0.1357  0.5798 -0.0090
 1134SOL    HW2 4653   2.928   3.630   2.048  0.6772  0.9988 -0.1953
 1134SOL    HW3 4654   2.976   3.568   1.918 -0.8396 -0.1160 -0.2422
 1134SOL    MW4 4655   2.920   3.618   1.962 -0.1216  0.5434 -0.0644
 1135SOL     OW 4656   2.932   3.865   1.823 -0.0688  0.1909 -0.4058
 1135SOL    HW2 4657   2.922   3.783   1.871 -0.1913  0.5891  0.2443
 1135SOL    HW3 4658   2.929   3.839   1.731  2.1501 -0.8353 -0.2385
 1135SOL    MW4 4659   2.931   3.851   1.817  0.2081  0.1078 -0.2980
 1136SOL     OW 4660   2.725   3.967   1.989 -0.1961 -0.0519 -0.4414
 1136SOL    HW2 4661   2.793   3.952   1.923  0.3941 -0.7625  0.3160
 1136SOL    HW3 4662   2.644   3.935   1.948  0.3180 -1.3134 -0.4901
 1136SOL    MW4 4663   2.723   3.960   1.975 -0.0505 -0.3121 -0.3479
 1137SOL     OW 4664   2.700   4.242   1.918  0.5026 -0.0249 -0.2126
 1137SOL    HW2 4665   2.715   4.152   1.948  1.4915 -0.5130 -2.0854
 1137SOL    HW3 4666   2.702   4.236   1.822  0.0618  1.9134 -0.3640
 1137SOL    MW4 4667   2.702   4.230   1.909  0.5748  0.1664 -0.4797
 1138SOL     OW 4668   2.922   4.379   2.002  0.4294 -0.0578  0.0525
 1138SOL    HW2 4669   2.909   4.381   2.097  0.7714 -2.7392  0.2139
 1138SOL    HW3 4670   2.843   4.336   1.968  1.0086 -0.5566 -0.6892
 1138SOL    MW4 4671   2.910   4.373   2.010  0.5505 -0.4773 -0.0238
 1139SOL     OW 4672   3.367   4.636   1.837 -0.3591  0.4504 -0.2685
 1139SOL    HW2 4673   3.372   4.553   1.885 -1.2786  0.6013  0.0924
 1139SOL    HW3 4674   3.377   4.611   1.745  2.2350  0.2442  0.0319
 1139SOL    MW4 4675   3.369   4.622   1.831 -0.1380  0.4430 -0.1812
 1140SOL     OW 4676   3.127   0.109   1.937  0.1341 -0.1167  0.0131
 1140SOL    HW2 4677   3.117   0.083   2.028 -0.7868 -0.3339 -0.1476
 1140SOL    HW3 4678   3.213   0.075   1.911 -0.3213 -1.5176  0.3015
 1140SOL    MW4 4679   3.137   0.101   1.945 -0.0474 -0.3302  0.0299
 1141SOL     OW 4680   3.142   0.397   1.890 -0.1375  0.2660  0.1148
 1141SOL    HW2 4681   3.124   0.304   1.898 -1.5460  0.5954  1.0623
 1141SOL    HW3 4682   3.147   0.413   1.795  0.2558 -0.7843 -0.0448
 1141SOL    MW4 4683   3.140   0.387   1.878 -0.2713  0.1709  0.2185
 1142SOL     OW 4684   3.369   0.533   1.996 -0.2429 -0.0050  0.1865
 1142SOL    HW2 4685   3.437   0.480   1.956  0.9015  0.5482  1.3589
 1142SOL    HW3 4686   3.287   0.494   1.966  0.5715 -2.6071  1.2459
 1142SOL    MW4 4687   3.367   0.521   1.987  0.0155 -0.2753  0.4809
 1143SOL     OW 4688   3.341   0.768   1.814 -0.2934  0.6422  0.0146
 1143SOL    HW2 4689   3.261   0.810   1.846 -0.6840  0.1151 -0.2591
 1143SOL    HW3 4690   3.365   0.706   1.883 -0.4544  0.3740 -0.1711
 1143SOL    MW4 4691   3.334   0.766   1.827 -0.3660  0.5373 -0.0461
 1144SOL     OW 4692   3.131   0.880   1.906 -0.3380 -0.3207  0.4724
 1144SOL    HW2 4693   3.134   0.895   2.001 -0.9250  0.7967  0.3210
 1144SOL    HW3 4694   3.112   0.966   1.869  0.0334 -0.7315 -0.6746
 1144SOL    MW4 4695   3.129   0.893   1.914 -0.3662 -0.2275  0.3011
 1145SOL     OW 4696   3.092   1.142   1.837 -0.3149  0.3816  0.1406
 1145SOL    HW2 4697   3.172   1.191   1.857  0.1676 -0.3768  0.0763
 1145SOL    HW3 4698   3.022   1.192   1.880  0.1783  1.0928  0.1215
 1145SOL    MW4 4699   3.093   1.155   1.845 -0.1860  0.3754  0.1296
 1146SOL     OW 4700   3.315   1.302   1.921 -0.0160  0.0120 -0.2275
 1146SOL    HW2 4701   3.312   1.298   2.016 -0.6121 -1.8238 -0.3062
 1146SOL    HW3 4702   3.330   1.395   1.901  0.6034  0.3284  1.6482
 1146SOL    MW4 4703   3.317   1.314   1.931 -0.0129 -0.1884  0.0097
 1147SOL     OW 4704   3.364   1.564   1.855 -0.1264  0.0038 -0.0257
 1147SOL    HW2 4705   3.445   1.593   1.896  0.3680  0.7222 -1.4752
 1147SOL    HW3 4706   3.294   1.597   1.912  0.5611  0.3851  0.5958
 1147SOL    MW4 4707   3.365   1.572   1.868  0.0296  0.1489 -0.1348
 1148SOL     OW 4708   3.150   1.667   1.980  0.2176 -0.1593 -0.6111
 1148SOL    HW2 4709   3.150   1.672   2.075  1.6806 -0.6059 -0.5702
 1148SOL    HW3 4710   3.143   1.758   1.951 -0.3310 -0.0320 -0.0786
 1148SOL    MW4 4711   3.149   1.680   1.988  0.3381 -0.2013 -0.5355
 1149SOL     OW 4712   3.117   1.916   1.883  0.2477  0.6322  0.1495
 1149SOL    HW2 4713   3.200   1.955   1.911  1.0509 -0.2362 -0.9848
 1149SOL    HW3 4714   3.123   1.914   1.787 -0.8432  0.0303  0.0914
 1149SOL    MW4 4715   3.129   1.921   1.874  0.2100  0.4383 -0.0077
 1150SOL     OW 4716   3.368   2.066   1.948 -0.2624 -0.2101  0.1473
 1150SOL    HW2 4717   3.433   2.026   1.890 -1.2887 -0.9429 -0.5070
 1150SOL    HW3 4718   3.352   2.152   1.909  0.4741  0.0635  0.4369
 1150SOL    MW4 4719   3.375   2.072   1.935 -0.3006 -0.2704  0.0992
 1151SOL     OW 4720   3.302   2.327   1.855  0.4232 -0.4711  0.2535
 1151SOL    HW2 4721   3.225   2.355   1.905  1.4045  1.0900  0.9332
 1151SOL    HW3 4722   3.291   2.366   1.769  1.3111  1.2469  0.9012
 1151SOL    MW4 4723   3.290   2.335   1.850  0.6700 -0.0384  0.4287
 1152SOL     OW 4724   3.073   2.453   1.983 -0.0859 -0.4236  0.1608
 1152SOL    HW2 4725   3.088   2.453   2.078 -2.1216  0.7214  0.5203
 1152SOL    HW3 4726   3.090   2.543   1.957 -0.5729 -0.4960 -0.3923
 1152SOL    MW4 4727   3.077   2.465   1.992 -0.4182 -0.2820  0.1352
 1153SOL     OW 4728   3.129   2.706   1.876 -0.8491  0.0237  0.4351
 1153SOL    HW2 4729   3.054   2.762   1.898 -1.2788 -0.4428  0.1828
 1153SOL    HW3 4730   3.134   2.708   1.781 -0.2970  0.3580  0.4683
 1153SOL    MW4 4731   3.119   2.713   1.866 -0.8328  0.0062  0.4063
 1154SOL     OW 4732   3.342   2.849   1.979 -0.2192 -0.1137 -0.0283
 1154SOL    HW2 4733   3.343   2.829   2.073  1.0087 -0.5483 -0.1249
 1154SOL    HW3 4734   3.262   2.807   1.947  0.0230 -1.0833  0.5957
 1154SOL    MW4 4735   3.332   2.841   1.988 -0.0250 -0.2990  0.0412
 1155SOL     OW 4736   3.348   3.104   1.867  0.3465  0.9224 -0.1371
 1155SOL    HW2 4737   3.424   3.161   1.878  0.4895  0.7055 -0.0144
 1155SOL    HW3 4738   3.363   3.031   1.927  0.8256  0.0662 -1.2739
 1155SOL    MW4 4739   3.360   3.102   1.876  0.4287  0.7808 -0.2710
 1156SOL     OW 4740   3.144   3.507   1.801  0.8825  0.2131 -0.4135
 1156SOL    HW2 4741   3.214   3.558   1.841  0.9897 -0.6318  0.4671
 1156SOL    HW3 4742   3.141   3.425   1.850 -1.1350  0.4863 -0.0103
 1156SOL    MW4 4743   3.153   3.503   1.813  0.6306  0.1376 -0.2441
 1157SOL     OW 4744   3.138   3.512   1.528 -0.2446 -0.2504 -0.0764
 1157SOL    HW2 4745   3.140   3.522   1.623  0.3122  0.9062 -0.2058
 1157SOL    HW3 4746   3.065   3.567   1.499 -0.4147 -0.6002 -0.3165
 1157SOL    MW4 4747   3.129   3.521   1.537 -0.1934 -0.1438 -0.1252
 1158SOL     OW 4748   3.367   3.619   1.947 -0.2591  0.3825 -0.5314
 1158SOL    HW2 4749   3.449   3.579   1.916  0.8969  0.8998  1.7308
 1158SOL    HW3 4750   3.370   3.708   1.914 -0.1419  0.2583 -0.8602
 1158SOL    MW4 4751   3.378   3.625   1.939 -0.0908  0.4344 -0.2762
 1159SOL     OW 4752   3.358   3.862   1.836 -0.0138  0.3952 -0.2861
 1159SOL    HW2 4753   3.283   3.911   1.870  0.7607  2.4952 -1.5089
 1159SOL    HW3 4754   3.346   3.864   1.741  1.3332  0.3246 -0.4657
 1159SOL    MW4 4755   3.346   3.869   1.828  0.2661  0.6628 -0.4712
 1160SOL     OW 4756   3.143   4.020   1.940 -0.5165 -0.2195 -0.4315
 1160SOL    HW2 4757   3.144   3.996   2.032 -0.4344 -0.7558 -0.5724
 1160SOL    HW3 4758   3.079   3.960   1.900 -1.2223  0.6039 -0.5604
 1160SOL    MW4 4759   3.134   4.009   1.947 -0.5987 -0.1817 -0.4669
 1161SOL     OW 4760   3.147   4.278   1.853  0.4700 -0.2402 -0.1684
 1161SOL    HW2 4761   3.146   4.188   1.884 -1.4330 -0.2691 -0.2771
 1161SOL    HW3 4762   3.073   4.320   1.897  0.3520  0.8386 -1.3646
 1161SOL    MW4 4763   3.137   4.272   1.863  0.2031 -0.1016 -0.3406
 1162SOL     OW 4764   3.370   4.380   1.960 -0.1299 -0.3011 -0.3053
 1162SOL    HW2 4765   3.434   4.343   1.899 -0.6970  1.4634 -2.0221
 1162SOL    HW3 4766   3.286   4.342   1.933 -0.4123  0.6447 -0.7799
 1162SOL    MW4 4767   3.368   4.370   1.949 -0.2418  0.0563 -0.5944
 1163SOL     OW 4768   3.831   0.009   1.786  0.1813  0.0463  0.0899
 1163SOL    HW2 4769   3.825  -0.086   1.794  0.2599 -0.0168 -0.6377
 1163SOL    HW3 4770   3.756   0.042   1.836 -2.1620 -0.5160 -2.9167
 1163SOL    MW4 4771   3.820   0.001   1.794 -0.1175 -0.0362 -0.4028
 1164SOL     OW 4772   3.596   0.114   1.909 -0.2626  0.3737  0.0162
 1164SOL    HW2 4773   3.591   0.133   2.003  0.4531  0.7729 -0.0190
 1164SOL    HW3 4774   3.519   0.060   1.891 -0.2069 -0.0196  0.9092
 1164SOL    MW4 4775   3.585   0.109   1.919 -0.1609  0.3745  0.1295
 1165SOL     OW 4776   3.556   0.387   1.830  0.6659 -0.3411 -0.0393
 1165SOL    HW2 4777   3.545   0.294   1.848 -0.1840 -0.0708  0.9247
 1165SOL    HW3 4778   3.567   0.392   1.735 -0.0050 -1.3610 -0.1868
 1165SOL    MW4 4779   3.556   0.375   1.820  0.4652 -0.4400  0.0685
 1166SOL     OW 4780   3.799   0.503   1.937 -0.4734 -0.0074  0.1271
 1166SOL    HW2 4781   3.777   0.589   1.902 -0.9137 -0.6119 -1.1010
 1166SOL    HW3 4782   3.729   0.445   1.905  0.0675 -0.9142  0.5551
 1166SOL    MW4 4783   3.787   0.506   1.928 -0.4604 -0.2068  0.0216
 1167SOL     OW 4784   3.800   0.770   1.840 -0.5395 -0.0404 -0.1161
 1167SOL    HW2 4785   3.733   0.833   1.866 -0.6094 -0.0110 -0.3685
 1167SOL    HW3 4786   3.882   0.807   1.873 -0.4559  0.6575 -1.0901
 1167SOL    MW4 4787   3.802   0.783   1.848 -0.5379  0.0556 -0.2779
 1168SOL     OW 4788   3.574   0.903   1.898 -0.3428 -0.6102  0.3345
 1168SOL    HW2 4789   3.566   0.997   1.883 -1.0671 -0.4981  1.3851
 1168SOL    HW3 4790   3.501   0.865   1.849 -0.9386 -0.4982  1.1354
 1168SOL    MW4 4791   3.563   0.910   1.890 -0.5171 -0.5806  0.5789
 1169SOL     OW 4792   3.559   1.185   1.873  0.0410 -0.2022 -0.2249
 1169SOL    HW2 4793   3.628   1.236   1.915 -0.2392 -0.8562  1.0551
 1169SOL    HW3 4794   3.478   1.231   1.894  0.0485  0.4814 -1.5997
 1169SOL    MW4 4795   3.557   1.198   1.881  0.0050 -0.1984 -0.2373
 1170SOL     OW 4796   3.777   1.300   1.995  0.3274  0.0835  0.3900
 1170SOL    HW2 4797   3.854   1.266   1.949 -0.3726 -0.6782 -0.2300
 1170SOL    HW3 4798   3.786   1.267   2.084 -0.3835 -1.8309 -0.2226
 1170SOL    MW4 4799   3.789   1.291   2.001  0.1414 -0.2695  0.2272
 1171SOL     OW 4800   3.809   1.557   1.855  0.7879  0.2097  0.0896
 1171SOL    HW2 4801   3.890   1.582   1.899  0.3222  0.0602  1.0691
 1171SOL    HW3 4802   3.780   1.478   1.901  0.6477 -0.3455 -0.9537
 1171SOL    MW4 4803   3.816   1.550   1.867  0.7081  0.1167  0.0812
 1172SOL     OW 4804   3.584   1.674   1.976 -0.1689 -0.2819 -0.2708
 1172SOL    HW2 4805   3.575   1.757   1.929  0.1873  0.3976  0.8470
 1172SOL    HW3 4806   3.666   1.637   1.943 -0.0931  0.0364 -0.4402
 1172SOL    MW4 4807   3.594   1.680   1.966 -0.1118 -0.1504 -0.1457
 1173SOL     OW 4808   3.564   1.919   1.829 -0.1248  0.0050  0.3702
 1173SOL    HW2 4809   3.645   1.960   1.856 -0.2118  0.7512 -0.4877
 1173SOL    HW3 4810   3.571   1.911   1.733 -1.2513  0.5337  0.2272
 1173SOL    MW4 4811   3.575   1.923   1.820 -0.2849  0.1732  0.2382
 1174SOL     OW 4812   3.794   2.009   1.945  0.4848 -0.1455 -0.2462
 1174SOL    HW2 4813   3.878   1.968   1.925  0.0214 -1.4371  0.4447
 1174SOL    HW3 4814   3.809   2.102   1.930  1.8350 -0.4474 -0.8247
 1174SOL    MW4 4815   3.807   2.016   1.940  0.6015 -0.3560 -0.2313
 1175SOL     OW 4816   3.835   2.271   1.876 -0.1782  0.2227 -0.0776
 1175SOL    HW2 4817   3.904   2.328   1.910 -0.5593  0.0227  1.0523
 1175SOL    HW3 4818   3.753   2.314   1.904 -0.4793 -0.3400 -0.0947
 1175SOL    MW4 4819   3.833   2.285   1.885 -0.2682  0.1221  0.0691
 1176SOL     OW 4820   3.587   2.422   1.925 -0.2995 -0.2137  0.2622
 1176SOL    HW2 4821   3.579   2.506   1.880  0.0576 -0.8985 -1.1035
 1176SOL    HW3 4822   3.511   2.372   1.896 -0.6980 -0.2429  1.3415
 1176SOL    MW4 4823   3.576   2.426   1.915 -0.3047 -0.3080  0.2245
 1177SOL     OW 4824   3.563   2.708   1.877 -0.1074 -0.7720  1.1943
 1177SOL    HW2 4825   3.637   2.757   1.913  1.4129 -1.4539 -0.8799
 1177SOL    HW3 4826   3.486   2.760   1.900  1.3813  2.1399 -0.1414
 1177SOL    MW4 4827   3.562   2.721   1.885  0.2897 -0.4776  0.7442
 1178SOL     OW 4828   3.829   2.853   1.950 -0.7663  0.6861 -0.0577
 1178SOL    HW2 4829   3.845   2.862   2.044  0.8886 -0.0018 -0.2618
 1178SOL    HW3 4830   3.825   2.942   1.917 -0.0358  0.9054  0.4524
 1178SOL    MW4 4831   3.830   2.866   1.958 -0.4516  0.6244 -0.0174
 1179SOL     OW 4832   3.823   3.102   1.824  0.5533 -0.3130 -0.2724
 1179SOL    HW2 4833   3.753   3.163   1.851  2.4653  0.8596  2.2886
 1179SOL    HW3 4834   3.839   3.123   1.732 -2.2443 -0.4093 -0.8326
 1179SOL    MW4 4835   3.816   3.113   1.816  0.4365 -0.1709 -0.0086
 1180SOL     OW 4836   3.592   3.231   1.914  0.4800  0.0195  0.0320
 1180SOL    HW2 4837   3.594   3.239   2.009  0.7979  1.3316 -0.0824
 1180SOL    HW3 4838   3.595   3.321   1.882  1.5215 -0.4517 -1.2383
 1180SOL    MW4 4839   3.592   3.244   1.922  0.6595  0.1304 -0.1507
 1181SOL     OW 4840   3.602   3.507   1.837 -0.3482 -0.1733  0.6182
 1181SOL    HW2 4841   3.684   3.539   1.876 -1.0870  1.3631  0.9494
 1181SOL    HW3 4842   3.610   3.526   1.744 -0.5885  0.5672  0.7453
 1181SOL    MW4 4843   3.614   3.514   1.830 -0.4773  0.1271  0.6787
 1182SOL     OW 4844   3.855   3.613   1.914 -0.1035 -0.1575 -0.1425
 1182SOL    HW2 4845   3.936   3.575   1.881  1.1074  1.4810  0.8782
 1182SOL    HW3 4846   3.850   3.698   1.870 -0.8560  0.0863  0.4165
 1182SOL    MW4 4847   3.865   3.619   1.904 -0.0432  0.0908  0.0662
 1183SOL     OW 4848   3.840   3.881   1.830 -0.2864 -0.6249  0.2387
 1183SOL    HW2 4849   3.760   3.924   1.862 -0.2633  0.4283 -1.0863
 1183SOL    HW3 4850   3.824   3.868   1.737  0.0495 -2.7713  0.4567
 1183SOL    MW4 4851   3.827   3.885   1.822 -0.2394 -0.7691  0.0925
 1184SOL     OW 4852   3.594   4.004   1.915 -0.3483 -0.2030  0.1584
 1184SOL    HW2 4853   3.590   3.982   2.008 -0.5925 -0.0103  0.1946
 1184SOL    HW3 4854   3.527   3.949   1.874 -0.2087 -0.3221  0.0900
 1184SOL    MW4 4855   3.584   3.994   1.922 -0.3622 -0.1931  0.1543
 1185SOL     OW 4856   3.568   4.280   1.796 -0.6391  0.5506 -0.5017
 1185SOL    HW2 4857   3.639   4.325   1.842 -1.1267  0.5846  0.2312
 1185SOL    HW3 4858   3.575   4.189   1.825 -0.9910  0.5857 -0.3061
 1185SOL    MW4 4859   3.578   4.274   1.806 -0.7501  0.5593 -0.3791
 1186SOL     OW 4860   3.778   4.435   1.897  0.3631 -0.0106 -0.3262
 1186SOL    HW2 4861   3.766   4.426   1.992 -0.0096  0.2658 -0.3456
 1186SOL    HW3 4862   3.865   4.401   1.880  0.2052 -0.6047  0.0423
 1186SOL    MW4 4863   3.788   4.429   1.907  0.2933 -0.0525 -0.2801
 1187SOL     OW 4864   4.287   4.632   1.820 -0.0680  0.0730  0.4948
 1187SOL    HW2 4865   4.214   4.689   1.846  0.6537  0.9091  0.7201
 1187SOL    HW3 4866   4.363   4.671   1.863  0.8616  0.4509 -1.4733
 1187SOL    MW4 4867   4.287   4.645   1.829  0.1497  0.2332  0.2648
 1188SOL     OW 4868   4.061   0.108   1.939  0.0601 -0.6602  0.2305
 1188SOL    HW2 4869   4.041   0.107   2.032 -0.6095  0.8846  0.1336
 1188SOL    HW3 4870   3.983   0.073   1.897  0.6453 -2.0538  0.2752
 1188SOL    MW4 4871   4.048   0.104   1.945  0.0486 -0.6403  0.2235
 1189SOL     OW 4872   4.024   0.382   1.862  0.3277  0.2623  0.1867
 1189SOL    HW2 4873   4.032   0.297   1.907 -2.3093 -0.4935 -0.6801
 1189SOL    HW3 4874   3.941   0.417   1.893 -1.2990 -0.0074 -3.5783
 1189SOL    MW4 4875   4.014   0.375   1.872 -0.2351  0.1270 -0.4244
 1190SOL     OW 4876   4.263   0.489   1.942 -0.3726  0.5064 -0.0456
 1190SOL    HW2 4877   4.263   0.494   2.037 -2.1897  3.2481 -0.1340
 1190SOL    HW3 4878   4.181   0.444   1.920  0.2286 -0.4637 -0.2915
 1190SOL    MW4 4879   4.252   0.484   1.952 -0.5331  0.7401 -0.0898
 1191SOL     OW 4880   4.276   0.777   1.819  0.2496  0.1206  0.1762
 1191SOL    HW2 4881   4.275   0.685   1.847  1.3012  0.0086 -0.1413
 1191SOL    HW3 4882   4.284   0.772   1.724 -3.7959  0.4841 -0.2769
 1191SOL    MW4 4883   4.277   0.764   1.810 -0.1454  0.1537  0.0745
 1192SOL     OW 4884   4.031   0.880   1.926  0.3533  0.0564 -0.0278
 1192SOL    HW2 4885   4.106   0.855   1.871 -0.1233 -0.5788 -0.3949
 1192SOL    HW3 4886   4.059   0.859   2.015  0.1969 -1.2592 -0.2675
 1192SOL    MW4 4887   4.045   0.874   1.930  0.2699 -0.2009 -0.1079
 1193SOL     OW 4888   3.995   1.155   1.887 -0.0830  0.3802 -0.7057
 1193SOL    HW2 4889   4.077   1.189   1.923 -0.3998 -0.2160  0.5961
 1193SOL    HW3 4890   4.001   1.060   1.900 -1.3577  0.4209  0.1771
 1193SOL    MW4 4891   4.007   1.147   1.893 -0.2933  0.3070 -0.4176
 1194SOL     OW 4892   4.254   1.262   1.972  0.3964 -0.3971 -0.0322
 1194SOL    HW2 4893   4.260   1.266   2.068 -0.4592  1.6215 -0.0387
 1194SOL    HW3 4894   4.338   1.225   1.945  1.7220  1.4831  1.3644
 1194SOL    MW4 4895   4.266   1.257   1.981  0.4582  0.1172  0.1512
 1195SOL     OW 4896   4.274   1.515   1.873 -0.2965 -0.1887  0.1773
 1195SOL    HW2 4897   4.276   1.423   1.901  2.5464  0.0263  0.8175
 1195SOL    HW3 4898   4.262   1.511   1.779  2.5036 -1.3808 -0.1881
 1195SOL    MW4 4899   4.273   1.502   1.865  0.4478 -0.3176  0.2135
 1196SOL     OW 4900   4.059   1.653   1.965 -0.0051  0.0367  0.9398
 1196SOL    HW2 4901   4.042   1.646   2.059  1.3379 -0.3164  1.1807
 1196SOL    HW3 4902   4.136   1.597   1.951 -0.1301  0.1737 -0.3499
 1196SOL    MW4 4903   4.067   1.644   1.975  0.1554  0.0083  0.8016
 1197SOL     OW 4904   4.062   1.918   1.873  0.1068  0.3254  0.2436
 1197SOL    HW2 4905   4.060   1.824   1.891 -1.0681  0.3320  0.1371
 1197SOL    HW3 4906   4.067   1.924   1.778  0.7909  0.3678  0.2793
 1197SOL    MW4 4907   4.063   1.906   1.863  0.0420  0.3319  0.2341
 1198SOL     OW 4908   4.283   2.066   1.994  0.3753 -0.2932 -0.1482
 1198SOL    HW2 4909   4.265   2.064   2.088  2.0687  0.8488  0.2356
 1198SOL    HW3 4910   4.209   2.020   1.954 -0.0316 -1.3946  1.7889
 1198SOL    MW4 4911   4.271   2.060   2.001  0.5445 -0.2880  0.1578
 1199SOL     OW 4912   4.279   2.342   1.869 -0.2179  0.0825  0.0050
 1199SOL    HW2 4913   4.276   2.254   1.906  0.3633 -0.1135 -0.4070
 1199SOL    HW3 4914   4.361   2.379   1.900 -0.1253  0.2231 -0.4059
 1199SOL    MW4 4915   4.289   2.336   1.878 -0.1292  0.0753 -0.1037
 1200SOL     OW 4916   4.050   2.404   1.969 -0.0782  0.0430 -0.2142
 1200SOL    HW2 4917   4.062   2.406   2.064 -0.9003 -2.4041 -0.0196
 1200SOL    HW3 4918   4.138   2.391   1.933 -0.0525 -1.3181  0.3350
 1200SOL    MW4 4919   4.063   2.403   1.976 -0.1841 -0.4592 -0.1160
 1201SOL     OW 4920   4.026   2.675   1.891 -0.1641  0.2850 -0.3932
 1201SOL    HW2 4921   4.002   2.587   1.920 -0.9631  0.5029 -0.3666
 1201SOL    HW3 4922   3.954   2.730   1.921 -0.8403  0.5735 -2.4428
 1201SOL    MW4 4923   4.013   2.671   1.899 -0.3591  0.3519 -0.6601
 1202SOL     OW 4924   4.253   2.809   1.961 -0.1595 -0.6145 -0.1225
 1202SOL    HW2 4925   4.251   2.820   2.056  1.2898 -1.2248 -0.0180
 1202SOL    HW3 4926   4.177   2.753   1.943  0.2743 -1.5267  0.8191
 1202SOL    MW4 4927   4.242   2.803   1.971  0.0887 -0.8156  0.0155
 1203SOL     OW 4928   4.239   3.070   1.867 -0.0079  0.0421  0.2016
 1203SOL    HW2 4929   4.160   3.104   1.908 -0.4466 -0.1618 -0.4614
 1203SOL    HW3 4930   4.255   2.987   1.910  1.1565  1.1427  1.9379
 1203SOL    MW4 4931   4.231   3.064   1.878  0.0882  0.1605  0.3432
 1204SOL     OW 4932   4.028   3.224   1.968  0.4137 -0.0309  0.4722
 1204SOL    HW2 4933   4.013   3.221   2.062  0.7419  0.8387  0.5573
 1204SOL    HW3 4934   3.953   3.177   1.931 -0.7992  1.4054  1.0674
 1204SOL    MW4 4935   4.016   3.217   1.975  0.2971  0.2735  0.5620
 1205SOL     OW 4936   4.063   3.449   1.809  0.3387  0.1387 -0.1631
 1205SOL    HW2 4937   4.144   3.484   1.847 -0.0927  0.6342  0.2940
 1205SOL    HW3 4938   4.045   3.371   1.862  0.8158 -0.2909 -0.6211
 1205SOL    MW4 4939   4.072   3.443   1.821  0.3448  0.1473 -0.1632
 1206SOL     OW 4940   4.274   3.566   1.935 -0.1201 -0.2083  0.9829
 1206SOL    HW2 4941   4.261   3.655   1.901  1.5046  0.8260  2.9568
 1206SOL    HW3 4942   4.356   3.537   1.896 -1.8096 -1.8161 -1.5206
 1206SOL    MW4 4943   4.283   3.574   1.925 -0.1287 -0.2840  0.9131
 1207SOL     OW 4944   4.268   3.839   1.821  0.1210  0.3336  0.0399
 1207SOL    HW2 4945   4.340   3.892   1.855  0.8725 -0.0879 -0.8720
 1207SOL    HW3 4946   4.284   3.835   1.727 -0.4227 -0.7776 -0.0072
 1207SOL    MW4 4947   4.279   3.845   1.813  0.1488  0.1316 -0.0867
 1208SOL     OW 4948   4.059   4.013   1.872  0.2421 -0.9840  0.6750
 1208SOL    HW2 4949   4.128   3.947   1.871  0.1218 -1.1155  1.1080
 1208SOL    HW3 4950   3.978   3.964   1.866  0.1890 -0.8126 -0.1084
 1208SOL    MW4 4951   4.058   3.998   1.871  0.2189 -0.9782  0.6288
 1209SOL     OW 4952   4.026   4.321   1.834 -0.2246 -0.3602  0.0233
 1209SOL    HW2 4953   4.106   4.351   1.876  0.6280 -1.1573 -0.9940
 1209SOL    HW3 4954   4.039   4.227   1.822 -1.2417 -0.4659 -0.2860
 1209SOL    MW4 4955   4.038   4.313   1.838 -0.2465 -0.4797 -0.1516
 1210SOL     OW 4956   4.276   4.391   1.930 -0.1274  0.2633 -0.6033
 1210SOL    HW2 4957   4.267   4.389   2.025  1.6526  0.4636 -0.4217
 1210SOL    HW3 4958   4.272   4.484   1.908  2.5990  0.4690 -0.3835
 1210SOL    MW4 4959   4.274   4.403   1.939  0.4673  0.3166 -0.5502
 1211SOL     OW 4960   0.201   4.640   2.339 -0.2873  0.1476  0.2096
 1211SOL    HW2 4961   0.218   4.634   2.433 -0.4982 -1.0388  0.1902
 1211SOL    HW3 4962   0.281   4.678   2.302  0.1371 -0.1976  0.7698
 1211SOL    MW4 4963   0.214   4.644   2.346 -0.2591 -0.0544  0.2809
 1212SOL     OW 4964   0.027   0.102   1.930  0.2311 -0.1472  0.0707
 1212SOL    HW2 4965   0.029   0.194   1.907 -0.6846 -0.1817 -0.1976
 1212SOL    HW3 4966   0.015   0.101   2.025  0.4526  0.0139  0.0984
 1212SOL    MW4 4967   0.025   0.114   1.940  0.1388 -0.1305  0.0389
 1213SOL     OW 4968   4.472   0.118   2.204 -0.1786 -0.1668 -0.3780
 1213SOL    HW2 4969   4.481   0.198   2.257  1.4918  0.3341 -1.3822
 1213SOL    HW3 4970   4.538   0.059   2.240  0.0343 -0.3207 -1.0284
 1213SOL    MW4 4971   4.482   0.121   2.216  0.0699 -0.1210 -0.5963
 1214SOL     OW 4972   0.226   0.534   2.259  0.3184 -0.3662  0.1905
 1214SOL    HW2 4973   0.287   0.469   2.293 -2.2416 -2.0310  1.8033
 1214SOL    HW3 4974   0.234   0.527   2.164  1.2360 -1.9004  0.3604
 1214SOL    MW4 4975   0.235   0.524   2.251  0.1017 -0.7884  0.4256
 1215SOL     OW 4976   0.198   0.803   2.358 -0.7121 -0.0594 -0.1263
 1215SOL    HW2 4977   0.205   0.803   2.454  0.5919  0.8228 -0.2070
 1215SOL    HW3 4978   0.212   0.711   2.333 -0.0884 -0.1327  0.4698
 1215SOL    MW4 4979   0.201   0.791   2.368 -0.4578  0.0473 -0.0582
 1216SOL     OW 4980   4.435   0.884   2.252  0.1753 -0.0329  0.0121
 1216SOL    HW2 4981   4.513   0.841   2.286  0.9911  0.9896 -0.5125
 1216SOL    HW3 4982   4.445   0.882   2.157 -0.1792  0.5691 -0.0442
 1216SOL    MW4 4983   4.446   0.878   2.244  0.2365  0.1815 -0.0644
 1217SOL     OW 4984   0.008   1.142   2.379 -0.1903  0.1333  0.1368
 1217SOL    HW2 4985   0.009   1.138   2.474  1.6087 -0.1125  0.1199
 1217SOL    HW3 4986  -0.007   1.052   2.351 -0.7425  0.2093  0.1702
 1217SOL    MW4 4987   0.006   1.130   2.388 -0.0253  0.1109  0.1392
 1218SOL     OW 4988   0.227   1.287   2.261  0.5310 -0.0966 -0.4537
 1218SOL    HW2 4989   0.158   1.236   2.304  0.8094 -0.2204 -0.1503
 1218SOL    HW3 4990   0.211   1.377   2.289  1.1887 -0.2866  0.5545
 1218SOL    MW4 4991   0.216   1.292   2.270  0.6545 -0.1380 -0.2809
 1219SOL     OW 4992   0.214   1.548   2.352  0.4307  0.0308 -0.4754
 1219SOL    HW2 4993   0.220   1.560   2.447  0.9057  1.6130 -0.6868
 1219SOL    HW3 4994   0.302   1.569   2.319 -0.1645  1.0843 -1.4232
 1219SOL    MW4 4995   0.227   1.552   2.360  0.4148  0.3785 -0.6285
 1220SOL     OW 4996   4.461   1.671   2.250 -0.5132  0.2901  0.0992
 1220SOL    HW2 4997   4.470   1.751   2.301  0.6995  1.2944 -1.6342
 1220SOL    HW3 4998   4.538   1.619   2.272 -0.2542  0.4998 -0.2999
 1220SOL    MW4 4999   4.472   1.675   2.260 -0.3195  0.4503 -0.1824
 1221SOL     OW 5000   4.483   1.925   2.394 -0.1582  0.4653 -0.1277
 1221SOL    HW2 5001   4.395   1.949   2.365 -0.2629  0.5156  0.2268
 1221SOL    HW3 5002   4.541   1.971   2.334 -0.3666  1.2224  0.2420
 1221SOL    MW4 5003   4.479   1.935   2.382 -0.1996  0.5718 -0.0322
 1222SOL     OW 5004   0.224   2.043   2.251 -0.1685 -0.2678  0.2964
 1222SOL    HW2 5005   0.308   2.008   2.280 -0.3592 -0.7671  0.2437
 1222SOL    HW3 5006   0.229   2.042   2.156 -0.0397  0.1819  0.2943
 1222SOL    MW4 5007   0.236   2.038   2.243 -0.1767 -0.2744  0.2894
 1223SOL     OW 5008   0.195   2.307   2.330 -0.0715 -0.4452  0.1150
 1223SOL    HW2 5009   0.195   2.295   2.425 -0.1059 -1.2966  0.0046
 1223SOL    HW3 5010   0.208   2.220   2.294 -0.4533 -0.1837 -0.6744
 1223SOL    MW4 5011   0.197   2.294   2.338 -0.1264 -0.5231 -0.0038
 1224SOL     OW 5012   4.479   2.460   2.230  0.4694  0.4996 -0.0601
 1224SOL    HW2 5013   4.468   2.542   2.277 -0.3722  0.1834  0.3204
 1224SOL    HW3 5014   4.545   2.412   2.280 -1.0863 -0.2273  1.3951
 1224SOL    MW4 5015   4.486   2.464   2.243  0.1531  0.3622  0.1817
 1225SOL     OW 5016   4.488   2.727   2.317  0.6614  0.3483 -0.4798
 1225SOL    HW2 5017   4.491   2.739   2.412 -0.6310  2.2057 -0.6658
 1225SOL    HW3 5018   4.565   2.773   2.285 -0.0634  1.5403 -0.5147
 1225SOL    MW4 5019   4.499   2.735   2.326  0.3952  0.7505 -0.5093
 1226SOL     OW 5020   0.228   2.846   2.191 -0.0041 -0.0571  0.1406
 1226SOL    HW2 5021   0.304   2.796   2.222 -0.4156 -0.0320  1.2294
 1226SOL    HW3 5022   0.230   2.838   2.096  1.2904 -0.1688  0.1682
 1226SOL    MW4 5023   0.238   2.839   2.183  0.1124 -0.0684  0.2880
 1227SOL     OW 5024   0.225   3.112   2.277 -0.6088 -0.6210  0.0175
 1227SOL    HW2 5025   0.140   3.135   2.238 -0.5265 -0.2371  0.0570
 1227SOL    HW3 5026   0.238   3.020   2.254 -1.2151 -0.7916  0.3358
 1227SOL    MW4 5027   0.215   3.103   2.269 -0.6779 -0.5932  0.0646
 1228SOL     OW 5028   4.438   3.183   2.200 -0.0863  0.4100 -0.3951
 1228SOL    HW2 5029   4.472   3.262   2.242  1.5891  0.0499 -1.0196
 1228SOL    HW3 5030   4.450   3.199   2.106 -2.4874  0.6263 -0.6891
 1228SOL    MW4 5031   4.444   3.195   2.193 -0.1822  0.3910 -0.5167
 1229SOL     OW 5032   4.475   3.441   2.303  0.3214 -0.0580 -0.0496
 1229SOL    HW2 5033   4.475   3.449   2.398  1.3529  0.4171 -0.0877
 1229SOL    HW3 5034   4.392   3.481   2.276 -0.6392 -1.4527  0.7432
 1229SOL    MW4 5035   4.464   3.447   2.312  0.3309 -0.1795  0.0501
 1230SOL     OW 5036   0.203   3.599   2.203  0.1284 -0.6038 -0.8726
 1230SOL    HW2 5037   0.282   3.550   2.220 -0.2052 -0.8754 -0.0850
 1230SOL    HW3 5038   0.132   3.535   2.210 -0.2424 -0.1699 -0.5740
 1230SOL    MW4 5039   0.204   3.584   2.206  0.0354 -0.5825 -0.7293
 1231SOL     OW 5040   0.206   3.872   2.290  0.1296 -0.0567  0.6287
 1231SOL    HW2 5041   0.204   3.862   2.385 -1.3681  0.2151  0.6421
 1231SOL    HW3 5042   0.212   3.782   2.257 -1.6422 -0.3124  0.9527
 1231SOL    MW4 5043   0.206   3.859   2.298 -0.3018 -0.0546  0.6731
 1232SOL     OW 5044   4.478   3.986   2.191  0.0246  0.7525  0.6174
 1232SOL    HW2 5045   4.457   4.074   2.224 -0.4150  0.2360  1.7145
 1232SOL    HW3 5046   4.558   3.962   2.238 -1.0761 -0.3340  1.9626
 1232SOL    MW4 5047   4.486   3.995   2.201 -0.1779  0.5405  0.9396
 1233SOL     OW 5048   4.452   4.240   2.311  0.1915  0.4751  0.3392
 1233SOL    HW2 5049   4.464   4.259   2.404  0.4081  0.8808  0.2305
 1233SOL    HW3 5050   4.526   4.283   2.269 -0.1825  0.7201 -0.0710
 1233SOL    MW4 5051   4.464   4.248   2.318  0.1707  0.5608  0.2708
 1234SOL     OW 5052   0.204   4.364   2.209 -0.0733 -0.5308 -0.5514
 1234SOL    HW2 5053   0.278   4.319   2.251  0.4276  0.0003 -0.8448
 1234SOL    HW3 5054   0.206   4.452   2.247  0.8321  0.1816 -2.2125
 1234SOL    MW4 5055   0.214   4.370   2.220  0.1123 -0.3667 -0.8092
 1235SOL     OW 5056   0.651   4.615   2.339 -0.3683  0.2355  0.2009
 1235SOL    HW2 5057   0.668   4.604   2.433  0.2365  0.9598  0.1753
 1235SOL    HW3 5058   0.721   4.672   2.308 -0.1903 -0.5418 -0.8323
 1235SOL    MW4 5059   0.662   4.621   2.347 -0.2651  0.2284  0.0610
 1236SOL     OW 5060   0.420   0.094   2.222 -0.4003  0.3039  0.1355
 1236SOL    HW2 5061   0.489   0.044   2.266  0.3618  0.7532 -0.5326
 1236SOL    HW3 5062   0.444   0.092   2.130 -0.3283  1.9369  0.1028
 1236SOL    MW4 5063   0.432   0.087   2.216 -0.2902  0.5786  0.0432
 1237SOL     OW 5064   0.422   0.347   2.332 -0.0984  0.3246 -0.2379
 1237SOL    HW2 5065   0.433   0.347   2.427 -0.7435  0.5607 -0.1553
 1237SOL    HW3 5066   0.436   0.256   2.306  0.2283  0.2883  0.0633
 1237SOL    MW4 5067   0.425   0.335   2.341 -0.1404  0.3510 -0.1874
 1238SOL     OW 5068   0.653   0.500   2.256 -0.3992  0.3561  0.0612
 1238SOL    HW2 5069   0.647   0.595   2.265 -1.0306  0.4441 -1.0648
 1238SOL    HW3 5070   0.577   0.467   2.304  0.5210  0.3345  1.5219
 1238SOL    MW4 5071   0.642   0.508   2.263 -0.3610  0.3648  0.1051
 1239SOL     OW 5072   0.685   0.784   2.305 -0.3407 -0.6248  0.1908
 1239SOL    HW2 5073   0.685   0.772   2.400 -0.9524 -1.6798  0.0648
 1239SOL    HW3 5074   0.603   0.829   2.285  0.1698  0.3494  0.2411
 1239SOL    MW4 5075   0.674   0.788   2.315 -0.3541 -0.6354  0.1805
 1240SOL     OW 5076   0.413   0.889   2.225  0.3723  0.1395  0.4251
 1240SOL    HW2 5077   0.335   0.848   2.261  2.2020 -3.7008  0.2791
 1240SOL    HW3 5078   0.408   0.871   2.131  2.4043 -1.9176  0.6838
 1240SOL    MW4 5079   0.402   0.881   2.217  0.8818 -0.6385  0.4404
 1241SOL     OW 5080   0.496   1.142   2.319 -0.2114 -0.0980  0.4375
 1241SOL    HW2 5081   0.479   1.057   2.280 -0.4075  0.3587 -0.5029
 1241SOL    HW3 5082   0.414   1.190   2.308  0.5591  0.9413 -1.0057
 1241SOL    MW4 5083   0.483   1.137   2.313 -0.1356  0.0994  0.1233
 1242SOL     OW 5084   0.706   1.271   2.221  0.3204 -0.0185 -0.6115
 1242SOL    HW2 5085   0.704   1.359   2.259 -0.8065  0.5008 -1.8228
 1242SOL    HW3 5086   0.625   1.230   2.252  0.3961 -0.3046 -0.7911
 1242SOL    MW4 5087   0.695   1.278   2.230  0.1819  0.0124 -0.7951
 1243SOL     OW 5088   0.711   1.522   2.326  0.0406  0.3535  0.0507
 1243SOL    HW2 5089   0.700   1.518   2.421  0.6225 -1.0321  0.0629
 1243SOL    HW3 5090   0.775   1.592   2.312  3.5232 -2.4950  0.9889
 1243SOL    MW4 5091   0.718   1.531   2.337  0.5769 -0.2053  0.1760
 1244SOL     OW 5092   0.462   1.639   2.260  0.3826 -0.2370  0.0462
 1244SOL    HW2 5093   0.539   1.592   2.292 -0.2241 -0.4312  1.2501
 1244SOL    HW3 5094   0.471   1.727   2.297 -0.0395 -0.3013  0.3064
 1244SOL    MW4 5095   0.474   1.645   2.269  0.2469 -0.2712  0.2394
 1245SOL     OW 5096   0.471   1.910   2.319  0.4812 -0.3526  0.0536
 1245SOL    HW2 5097   0.479   1.917   2.414  1.2442 -0.7613  0.0243
 1245SOL    HW3 5098   0.541   1.966   2.285  0.4188 -0.4622 -0.2610
 1245SOL    MW4 5099   0.481   1.918   2.327  0.5736 -0.4210  0.0083
 1246SOL     OW 5100   0.676   2.069   2.215 -0.3309 -0.5897  0.4078
 1246SOL    HW2 5101   0.758   2.041   2.255  0.3494  1.8818  0.8305
 1246SOL    HW3 5102   0.663   2.158   2.247 -2.2126 -0.2707 -1.1556
 1246SOL    MW4 5103   0.685   2.077   2.224 -0.4894 -0.2213  0.2575
 1247SOL     OW 5104   0.652   2.322   2.333  0.0625 -0.6006 -0.1747
 1247SOL    HW2 5105   0.654   2.319   2.429  1.2665  0.3693 -0.1629
 1247SOL    HW3 5106   0.732   2.367   2.309 -0.9614  0.4980 -1.5948
 1247SOL    MW4 5107   0.663   2.327   2.343  0.0863 -0.3276 -0.3605
 1248SOL     OW 5108   0.461   2.483   2.201 -0.0794 -0.3713 -0.0949
 1248SOL    HW2 5109   0.536   2.438   2.240  0.0146  0.1948  0.3922
 1248SOL    HW3 5110   0.385   2.443   2.243 -0.0559 -0.9998 -0.6465
 1248SOL    MW4 5111   0.461   2.472   2.212 -0.0639 -0.3796 -0.1032
 1249SOL     OW 5112   0.463   2.731   2.296  0.2937  0.0335  0.1687
 1249SOL    HW2 5113   0.432   2.704   2.383 -3.1252 -1.3056 -1.3664
 1249SOL    HW3 5114   0.478   2.649   2.250 -0.6755  0.7267 -1.4016
 1249SOL    MW4 5115   0.461   2.717   2.302 -0.2853 -0.0520 -0.2408
 1250SOL     OW 5116   0.697   2.854   2.207 -0.2726 -0.2046 -0.4003
 1250SOL    HW2 5117   0.778   2.810   2.234  0.0400  0.0980 -0.8181
 1250SOL    HW3 5118   0.630   2.822   2.267  0.3576  0.2574  0.5581
 1250SOL    MW4 5119   0.699   2.844   2.218 -0.1482 -0.1040 -0.3288
 1251SOL     OW 5120   0.684   3.110   2.343  0.1631 -0.0697  0.5449
 1251SOL    HW2 5121   0.616   3.150   2.288 -0.3179 -0.0960  1.1091
 1251SOL    HW3 5122   0.690   3.019   2.312  1.4916  0.5086 -0.9600
 1251SOL    MW4 5123   0.675   3.103   2.332  0.2749  0.0031  0.4206
 1252SOL     OW 5124   0.464   3.196   2.163  0.2436  0.0343  0.4236
 1252SOL    HW2 5125   0.376   3.178   2.195 -0.1944  0.7178 -0.3551
 1252SOL    HW3 5126   0.456   3.192   2.067  1.3014 -0.9817  0.3669
 1252SOL    MW4 5127   0.451   3.193   2.154  0.3254 -0.0095  0.3133
 1253SOL     OW 5128   0.429   3.451   2.247  0.1687 -0.0484 -0.4313
 1253SOL    HW2 5129   0.511   3.499   2.238 -0.4228  0.9345 -0.6009
 1253SOL    HW3 5130   0.449   3.363   2.215  1.2613  0.0720 -0.0805
 1253SOL    MW4 5131   0.442   3.446   2.242  0.2348  0.0968 -0.4075
 1254SOL     OW 5132   0.673   3.579   2.220  0.3518  0.2995 -0.5213
 1254SOL    HW2 5133   0.658   3.663   2.263 -0.6285 -0.1954  0.1261
 1254SOL    HW3 5134   0.678   3.600   2.127 -2.2398  0.7911 -0.5889
 1254SOL    MW4 5135   0.672   3.593   2.214 -0.1194  0.2990 -0.4447
 1255SOL     OW 5136   0.681   3.858   2.312  0.2107 -0.0966 -1.0368
 1255SOL    HW2 5137   0.684   3.872   2.406  2.0036  0.9188 -1.2152
 1255SOL    HW3 5138   0.598   3.896   2.283 -0.3475 -0.4269  0.1278
 1255SOL    MW4 5139   0.671   3.865   2.320  0.3736 -0.0062 -0.9067
 1256SOL     OW 5140   0.448   3.981   2.202  0.6807  0.0095  0.5173
 1256SOL    HW2 5141   0.364   3.946   2.230  1.2183 -1.8583 -0.1284
 1256SOL    HW3 5142   0.448   3.971   2.107  1.4650  0.3831  0.4732
 1256SOL    MW4 5143   0.437   3.975   2.194  0.8551 -0.1874  0.4263
 1257SOL     OW 5144   0.432   4.228   2.316  0.8908 -0.5984 -0.0865
 1257SOL    HW2 5145   0.490   4.281   2.261  1.2541 -0.5320  0.3520
 1257SOL    HW3 5146   0.446   4.138   2.287  0.1805 -0.4421 -0.9188
 1257SOL    MW4 5147   0.441   4.223   2.305  0.8450 -0.5693 -0.1383
 1258SOL     OW 5148   0.651   4.370   2.219  0.3157  0.5453 -0.4248
 1258SOL    HW2 5149   0.658   4.452   2.267 -0.6845 -0.0394  0.7341
 1258SOL    HW3 5150   0.677   4.392   2.130 -1.2501  2.4168 -0.4314
 1258SOL    MW4 5151   0.655   4.384   2.214 -0.0229  0.7153 -0.2725
 1259SOL     OW 5152   1.088   4.637   2.325  0.4461  0.1250  0.1078
 1259SOL    HW2 5153   1.077   4.644   2.420  0.9806  2.6302  0.0204
 1259SOL    HW3 5154   1.015   4.687   2.289  1.2053  0.6323 -0.7564
 1259SOL    MW4 5155   1.077   4.645   2.333  0.6169  0.5226 -0.0176
 1260SOL     OW 5156   0.848   0.133   2.226 -0.5255  0.0960  0.0160
 1260SOL    HW2 5157   0.855   0.221   2.264  0.8855 -0.2157  0.5147
 1260SOL    HW3 5158   0.877   0.144   2.135  0.0136  0.0779  0.1842
 1260SOL    MW4 5159   0.853   0.146   2.219 -0.2683  0.0525  0.1040
 1261SOL     OW 5160   0.893   0.373   2.347  0.7519 -0.1166  0.0815
 1261SOL    HW2 5161   0.969   0.422   2.314  0.8310  1.0510  1.9367
 1261SOL    HW3 5162   0.818   0.430   2.330  0.6755  0.0630  1.0099
 1261SOL    MW4 5163   0.893   0.387   2.340  0.7522  0.0611  0.4489
 1262SOL     OW 5164   1.122   0.487   2.245 -0.0033  0.3033  0.1269
 1262SOL    HW2 5165   1.202   0.455   2.286 -0.8177 -1.0328  0.6876
 1262SOL    HW3 5166   1.145   0.497   2.153  1.2339  1.3722  0.5265
 1262SOL    MW4 5167   1.135   0.484   2.238  0.0523  0.2681  0.2537
 1263SOL     OW 5168   1.102   0.739   2.364  0.3956 -0.2974 -0.1665
 1263SOL    HW2 5169   1.031   0.783   2.318  0.2916 -0.3953 -0.0999
 1263SOL    HW3 5170   1.115   0.657   2.317  0.9423  0.0397 -0.6072
 1263SOL    MW4 5171   1.094   0.734   2.352  0.4539 -0.2658 -0.2158
 1264SOL     OW 5172   0.915   0.884   2.216 -0.2320 -0.3535 -0.2341
 1264SOL    HW2 5173   0.921   0.976   2.244  0.7038  0.0010 -1.5240
 1264SOL    HW3 5174   0.834   0.852   2.255 -0.3818  0.9208  0.5383
 1264SOL    MW4 5175   0.905   0.892   2.225 -0.1283 -0.1386 -0.3023
 1265SOL     OW 5176   0.926   1.145   2.318  0.0102  0.0123 -0.6351
 1265SOL    HW2 5177   0.998   1.177   2.263 -0.6365  0.8490 -0.9985
 1265SOL    HW3 5178   0.849   1.191   2.287 -0.4811  0.0353  0.5692
 1265SOL    MW4 5179   0.925   1.155   2.307 -0.1400  0.1255 -0.5243
 1266SOL     OW 5180   1.139   1.295   2.196 -0.0956  0.2004 -0.4526
 1266SOL    HW2 5181   1.206   1.235   2.230 -0.8220 -0.4316 -0.1036
 1266SOL    HW3 5182   1.141   1.370   2.255 -0.4147 -0.2901  0.1874
 1266SOL    MW4 5183   1.148   1.297   2.208 -0.2335  0.0522 -0.3221
 1267SOL     OW 5184   1.123   1.514   2.353 -0.2798  0.9052  0.0834
 1267SOL    HW2 5185   1.047   1.572   2.344 -1.1052 -0.1773 -0.0384
 1267SOL    HW3 5186   1.143   1.516   2.447  0.2268  2.0538 -0.0483
 1267SOL    MW4 5187   1.115   1.522   2.364 -0.3219  0.9140  0.0501
 1268SOL     OW 5188   0.927   1.678   2.243 -0.5331 -0.3130  0.0274
 1268SOL    HW2 5189   0.906   1.766   2.276  0.8192 -0.3664  1.0595
 1268SOL    HW3 5190   0.924   1.687   2.148  2.5994  1.6169  0.0590
 1268SOL    MW4 5191   0.924   1.691   2.235  0.0585 -0.0654  0.1676
 1269SOL     OW 5192   0.921   1.960   2.321  0.1591  0.4642  0.4196
 1269SOL    HW2 5193   0.929   1.970   2.416  0.1781  1.6122  0.3048
 1269SOL    HW3 5194   1.003   1.997   2.286  0.1262  0.0987 -0.0473
 1269SOL    MW4 5195   0.933   1.966   2.329  0.1572  0.5674  0.3426
 1270SOL     OW 5196   1.173   2.079   2.236  0.4167 -0.3276  0.2711
 1270SOL    HW2 5197   1.250   2.040   2.278  1.9424  2.4194  0.1605
 1270SOL    HW3 5198   1.183   2.056   2.143  0.2929 -1.2398  0.4793
 1270SOL    MW4 5199   1.185   2.070   2.229  0.6016 -0.0851  0.2837
 1271SOL     OW 5200   1.109   2.326   2.343 -0.8553 -0.1177 -0.4144
 1271SOL    HW2 5201   1.197   2.358   2.322 -0.2124 -1.4679  0.1477
 1271SOL    HW3 5202   1.106   2.238   2.304 -2.1423  0.1250 -0.8742
 1271SOL    MW4 5203   1.120   2.318   2.335 -0.9402 -0.2639 -0.4010
 1272SOL     OW 5204   0.884   2.448   2.256 -0.4476 -0.0504 -0.1559
 1272SOL    HW2 5205   0.958   2.407   2.301 -1.0116 -0.9797 -0.0567
 1272SOL    HW3 5206   0.891   2.417   2.166 -1.1689 -0.7994  0.0342
 1272SOL    MW4 5207   0.895   2.438   2.250 -0.6172 -0.2720 -0.1180
 1273SOL     OW 5208   0.907   2.718   2.323  0.7611  0.2237 -0.6367
 1273SOL    HW2 5209   0.891   2.711   2.417 -3.1809  2.6131 -1.0298
 1273SOL    HW3 5210   0.898   2.628   2.290 -2.9688  0.0585  0.6188
 1273SOL    MW4 5211   0.904   2.705   2.331 -0.2510  0.5171 -0.5229
 1274SOL     OW 5212   1.124   2.860   2.232 -0.0525 -0.0177 -0.0693
 1274SOL    HW2 5213   1.201   2.809   2.256 -1.5526 -2.1254  0.4294
 1274SOL    HW3 5214   1.051   2.815   2.275 -1.5926  1.7854 -0.7194
 1274SOL    MW4 5215   1.125   2.847   2.241 -0.4537 -0.0577 -0.0894
 1275SOL     OW 5216   1.130   3.125   2.333 -0.2366  0.3513  0.0538
 1275SOL    HW2 5217   1.045   3.164   2.311 -0.8169 -0.0578  1.5445
 1275SOL    HW3 5218   1.128   3.039   2.291 -0.8329  0.0754  0.6403
 1275SOL    MW4 5219   1.119   3.119   2.324 -0.3918  0.2611  0.3278
 1276SOL     OW 5220   0.909   3.244   2.237 -0.1897 -0.1792 -0.1236
 1276SOL    HW2 5221   0.913   3.335   2.268  0.7208 -0.0051 -0.7287
 1276SOL    HW3 5222   0.837   3.205   2.287 -0.1056  0.6712  0.6842
 1276SOL    MW4 5223   0.900   3.251   2.248 -0.0585 -0.0441 -0.0968
 1277SOL     OW 5224   0.915   3.505   2.321  0.1865 -0.3860 -0.0038
 1277SOL    HW2 5225   0.908   3.501   2.416 -0.6601 -0.6020 -0.0737
 1277SOL    HW3 5226   0.825   3.518   2.290  0.4749 -0.1473 -0.7643
 1277SOL    MW4 5227   0.902   3.506   2.329  0.1128 -0.3827 -0.1135
 1278SOL     OW 5228   1.165   3.617   2.196 -0.5004 -0.3152 -0.0277
 1278SOL    HW2 5229   1.229   3.565   2.243  0.1598  0.3041 -0.2338
 1278SOL    HW3 5230   1.080   3.580   2.221 -0.0580 -1.2761  0.0717
 1278SOL    MW4 5231   1.162   3.605   2.205 -0.3550 -0.3605 -0.0417
 1279SOL     OW 5232   1.119   3.871   2.298 -0.2362 -0.3469  0.0772
 1279SOL    HW2 5233   1.196   3.923   2.276 -1.5744  1.9718  0.7147
 1279SOL    HW3 5234   1.144   3.781   2.277  2.8862  0.2590  0.9383
 1279SOL    MW4 5235   1.132   3.866   2.292 -0.0007  0.0389  0.2749
 1280SOL     OW 5236   0.905   4.021   2.218 -0.3702 -0.1986  0.2158
 1280SOL    HW2 5237   0.974   3.968   2.258  0.5550  0.6443 -0.2624
 1280SOL    HW3 5238   0.824   3.973   2.238  0.2059 -0.4853  1.9355
 1280SOL    MW4 5239   0.903   4.008   2.225 -0.1721 -0.1249  0.3793
 1281SOL     OW 5240   0.873   4.258   2.346 -0.3943 -0.0004 -0.5827
 1281SOL    HW2 5241   0.883   4.167   2.320 -1.2367 -0.3399  0.2374
 1281SOL    HW3 5242   0.794   4.288   2.301 -0.1989  0.2876 -0.7393
 1281SOL    MW4 5243   0.864   4.250   2.337 -0.4797 -0.0076 -0.4952
 1282SOL     OW 5244   1.072   4.390   2.208 -0.4311  0.4392 -0.1792
 1282SOL    HW2 5245   1.009   4.334   2.254 -0.8409  0.9607 -0.1009
 1282SOL    HW3 5246   1.070   4.473   2.256  1.7192 -0.1391  0.9849
 1282SOL    MW4 5247   1.063   4.394   2.221 -0.2013  0.4320 -0.0153
 1283SOL     OW 5248   1.582   4.624   2.358 -0.2303  0.2428 -0.3298
 1283SOL    HW2 5249   1.656   4.667   2.315 -0.5437 -1.2800 -2.4700
 1283SOL    HW3 5250   1.508   4.683   2.342  0.0403  0.6215 -0.1988
 1283SOL    MW4 5251   1.582   4.638   2.350 -0.2359  0.0916 -0.5946
 1284SOL     OW 5252   1.365   0.087   2.241 -0.2234 -0.3558 -0.4433
 1284SOL    HW2 5253   1.355   0.174   2.280 -1.3426 -0.4317 -0.5498
 1284SOL    HW3 5254   1.292   0.036   2.276  1.6594 -1.8949  1.3425
 1284SOL    MW4 5255   1.354   0.091   2.251 -0.1227 -0.5689 -0.2217
 1285SOL     OW 5256   1.328   0.368   2.358  0.3658  0.2504 -1.0095
 1285SOL    HW2 5257   1.339   0.352   2.452 -0.6824 -0.9829 -1.0875
 1285SOL    HW3 5258   1.417   0.383   2.326  0.6682  1.2298  0.2718
 1285SOL    MW4 5259   1.341   0.368   2.366  0.2674  0.2169 -0.8509
 1286SOL     OW 5260   1.601   0.445   2.235  0.2691  0.2572  0.3028
 1286SOL    HW2 5261   1.675   0.406   2.282  0.7914 -1.4644 -1.8512
 1286SOL    HW3 5262   1.635   0.463   2.148 -1.0193  2.2519  0.1918
 1286SOL    MW4 5263   1.615   0.442   2.230  0.1680  0.2933  0.0041
 1287SOL     OW 5264   1.522   0.706   2.299 -0.4814  0.2874  0.2090
 1287SOL    HW2 5265   1.597   0.756   2.268 -0.6182 -0.5989 -1.6209
 1287SOL    HW3 5266   1.543   0.615   2.279 -2.6585  0.1624 -1.6966
 1287SOL    MW4 5267   1.534   0.701   2.293 -0.7867  0.1540 -0.2835
 1288SOL     OW 5268   1.303   0.843   2.179 -0.6982 -0.7374 -0.1364
 1288SOL    HW2 5269   1.378   0.797   2.217 -1.1669 -0.2844  1.3855
 1288SOL    HW3 5270   1.230   0.822   2.237 -1.3456  0.2930 -0.5657
 1288SOL    MW4 5271   1.303   0.834   2.192 -0.8454 -0.5417  0.0076
 1289SOL     OW 5272   1.327   1.096   2.288  0.4878 -0.7743 -0.2816
 1289SOL    HW2 5273   1.321   1.077   2.381 -2.4238 -0.2676 -0.3159
 1289SOL    HW3 5274   1.311   1.012   2.245 -0.8670 -0.5013 -0.3302
 1289SOL    MW4 5275   1.324   1.082   2.295 -0.0751 -0.6715 -0.2925
 1290SOL     OW 5276   1.535   1.264   2.223 -0.4470  0.1515 -0.1238
 1290SOL    HW2 5277   1.467   1.204   2.254  0.1295  0.1663  1.2145
 1290SOL    HW3 5278   1.537   1.252   2.128 -1.8356 -0.3500 -0.0964
 1290SOL    MW4 5279   1.526   1.254   2.214 -0.5542  0.0874  0.0563
 1291SOL     OW 5280   1.548   1.542   2.356  0.0694 -0.4875 -0.2773
 1291SOL    HW2 5281   1.630   1.559   2.309 -1.6034  0.2100 -3.0017
 1291SOL    HW3 5282   1.518   1.458   2.321 -0.2416 -0.9171  0.9836
 1291SOL    MW4 5283   1.555   1.533   2.345 -0.1924 -0.4522 -0.4706
 1292SOL     OW 5284   1.321   1.698   2.267  0.2103  0.0573 -0.3593
 1292SOL    HW2 5285   1.399   1.657   2.304  0.8674  0.5485 -1.1726
 1292SOL    HW3 5286   1.249   1.643   2.296  0.6784  0.5698  1.8168
 1292SOL    MW4 5287   1.322   1.685   2.276  0.3588  0.1897 -0.1795
 1293SOL     OW 5288   1.401   1.955   2.365  0.5297 -0.0936  0.4541
 1293SOL    HW2 5289   1.382   1.928   2.455 -0.9987  1.0679  0.4777
 1293SOL    HW3 5290   1.379   1.878   2.312  1.1505 -0.6770  1.0327
 1293SOL    MW4 5291   1.396   1.941   2.370  0.4100 -0.0174  0.5336
 1294SOL     OW 5292   1.607   2.042   2.207  0.0097  0.0603  0.2726
 1294SOL    HW2 5293   1.672   1.977   2.234 -1.5027 -2.7070 -2.5275
 1294SOL    HW3 5294   1.530   2.023   2.261 -0.4375 -0.4590 -0.5529
 1294SOL    MW4 5295   1.605   2.031   2.218 -0.2489 -0.3736 -0.2058
 1295SOL     OW 5296   1.576   2.300   2.278  0.4861 -0.3631 -0.4193
 1295SOL    HW2 5297   1.592   2.304   2.372 -1.1516  0.8668 -0.1870
 1295SOL    HW3 5298   1.591   2.208   2.256  0.3615 -0.7762  1.1343
 1295SOL    MW4 5299   1.580   2.288   2.287  0.2536 -0.2551 -0.1836
 1296SOL     OW 5300   1.352   2.434   2.220  0.2581 -0.1128  0.0045
 1296SOL    HW2 5301   1.432   2.381   2.223 -0.8786 -1.8438  0.4286
 1296SOL    HW3 5302   1.337   2.449   2.127  1.9036  1.5357 -0.0220
 1296SOL    MW4 5303   1.361   2.429   2.208  0.3252 -0.1237  0.0570
 1297SOL     OW 5304   1.350   2.710   2.305 -0.0924 -0.3001  0.2426
 1297SOL    HW2 5305   1.434   2.742   2.270  1.5109 -2.0116  2.3842
 1297SOL    HW3 5306   1.335   2.627   2.259 -0.7217  0.0907 -0.2670
 1297SOL    MW4 5307   1.359   2.703   2.294  0.0361 -0.4745  0.4580
 1298SOL     OW 5308   1.589   2.825   2.200  0.4956  0.0470 -0.1246
 1298SOL    HW2 5309   1.597   2.916   2.231  1.0694  0.0998 -0.4322
 1298SOL    HW3 5310   1.589   2.833   2.105  1.4319 -0.3579 -0.1562
 1298SOL    MW4 5311   1.590   2.838   2.192  0.6950  0.0005 -0.1698
 1299SOL     OW 5312   1.598   3.081   2.283  0.4290 -0.1533  0.0610
 1299SOL    HW2 5313   1.596   3.091   2.378 -1.0688 -0.5503  0.0857
 1299SOL    HW3 5314   1.510   3.104   2.254  0.8230 -0.1728 -1.2220
 1299SOL    MW4 5315   1.586   3.085   2.292  0.2834 -0.2081 -0.1051
 1300SOL     OW 5316   1.366   3.211   2.239 -0.3248  0.2024 -0.1009
 1300SOL    HW2 5317   1.278   3.186   2.270  0.4608 -2.2378  0.3095
 1300SOL    HW3 5318   1.359   3.209   2.144 -1.3010  2.2616 -0.0887
 1300SOL    MW4 5319   1.353   3.207   2.231 -0.3498  0.1521 -0.0453
 1301SOL     OW 5320   1.371   3.476   2.305  0.3809  0.0337  0.3842
 1301SOL    HW2 5321   1.360   3.469   2.400  1.2227  0.4064  0.5193
 1301SOL    HW3 5322   1.381   3.386   2.276  1.4776 -0.0067  0.8391
 1301SOL    MW4 5323   1.371   3.463   2.314  0.6367  0.0775  0.4618
 1302SOL     OW 5324   1.576   3.640   2.189 -0.0232  0.8145 -0.2915
 1302SOL    HW2 5325   1.552   3.719   2.237 -1.0718  0.2236  0.1722
 1302SOL    HW3 5326   1.504   3.579   2.206 -0.8368  0.8786 -3.3122
 1302SOL    MW4 5327   1.563   3.643   2.198 -0.2689  0.7451 -0.6289
 1303SOL     OW 5328   1.551   3.873   2.335 -0.1772 -0.3460 -0.1815
 1303SOL    HW2 5329   1.564   3.875   2.430 -1.1780  0.4225 -0.0516
 1303SOL    HW3 5330   1.624   3.923   2.299  0.4984 -1.0827  0.1442
 1303SOL    MW4 5331   1.562   3.880   2.343 -0.2201 -0.3417 -0.1216
 1304SOL     OW 5332   1.330   4.026   2.218  0.2489 -0.4905  0.3500
 1304SOL    HW2 5333   1.404   3.979   2.256  1.5408  0.8689 -0.4641
 1304SOL    HW3 5334   1.336   4.009   2.124  0.9212  1.5405  0.0083
 1304SOL    MW4 5335   1.341   4.018   2.211  0.5081 -0.0434  0.1976
 1305SOL     OW 5336   1.315   4.288   2.294 -0.4378  0.3572  0.2934
 1305SOL    HW2 5337   1.311   4.200   2.256 -1.1515  0.6246 -0.2522
 1305SOL    HW3 5338   1.235   4.331   2.265 -0.1459  1.1582  0.6493
 1305SOL    MW4 5339   1.304   4.282   2.285 -0.4934  0.4983  0.2682
 1306SOL     OW 5340   1.565   4.400   2.214  0.1093 -0.0831 -0.1347
 1306SOL    HW2 5341   1.484   4.357   2.241 -0.8869  0.6117 -1.8630
 1306SOL    HW3 5342   1.564   4.484   2.260 -0.2275 -0.0267 -0.2435
 1306SOL    MW4 5343   1.554   4.406   2.223 -0.0665  0.0157 -0.3769
 1307SOL     OW 5344   2.024   4.653   2.335 -0.4511  0.4041  0.2323
 1307SOL    HW2 5345   2.100   4.705   2.308  0.7586 -0.2866  2.1892
 1307SOL    HW3 5346   2.045   4.564   2.307 -1.9789  0.7256 -2.0379
 1307SOL    MW4 5347   2.037   4.648   2.328 -0.4926  0.3552  0.1910
 1308SOL     OW 5348   1.792   0.085   2.218  0.1411  0.0700 -0.0598
 1308SOL    HW2 5349   1.797   0.172   2.258  1.9497 -0.5412  1.1443
 1308SOL    HW3 5350   1.862   0.036   2.261 -0.2329 -1.6959 -1.4262
 1308SOL    MW4 5351   1.802   0.090   2.229  0.3304 -0.2436 -0.0811
 1309SOL     OW 5352   1.825   0.345   2.341 -0.6355 -0.2043 -0.3329
 1309SOL    HW2 5353   1.831   0.358   2.435 -0.3952 -0.5893 -0.2907
 1309SOL    HW3 5354   1.893   0.402   2.305 -0.6101 -0.1879 -0.2597
 1309SOL    MW4 5355   1.835   0.354   2.349 -0.6005 -0.2529 -0.3176
 1310SOL     OW 5356   2.020   0.534   2.232 -0.0123  0.3686 -1.0276
 1310SOL    HW2 5357   1.995   0.622   2.261  0.8355  0.1412  0.3874
 1310SOL    HW3 5358   2.021   0.541   2.136 -0.1127  1.8518 -0.9408
 1310SOL    MW4 5359   2.017   0.547   2.223  0.0863  0.5343 -0.8295
 1311SOL     OW 5360   1.966   0.777   2.354  0.5745  0.0212 -0.0925
 1311SOL    HW2 5361   2.042   0.810   2.305  0.5200 -0.2194 -0.3385
 1311SOL    HW3 5362   1.890   0.810   2.307  0.5281  1.2028  0.7963
 1311SOL    MW4 5363   1.966   0.786   2.341  0.5612  0.1454 -0.0076
 1312SOL     OW 5364   1.741   0.873   2.215 -0.2787  0.2442  0.3962
 1312SOL    HW2 5365   1.746   0.961   2.252  0.2442  0.5721 -0.4278
 1312SOL    HW3 5366   1.771   0.883   2.125 -0.4968 -0.7299  0.2018
 1312SOL    MW4 5367   1.745   0.886   2.208 -0.2387  0.1589  0.2618
 1313SOL     OW 5368   1.753   1.137   2.295  0.3132  0.2272  0.0097
 1313SOL    HW2 5369   1.823   1.187   2.252  1.1057  0.7939  1.9381
 1313SOL    HW3 5370   1.672   1.180   2.268  0.7814  0.3983 -1.1483
 1313SOL    MW4 5371   1.752   1.149   2.286  0.4795  0.3245  0.1111
 1314SOL     OW 5372   2.008   1.249   2.201  0.0824 -0.1491 -0.2026
 1314SOL    HW2 5373   2.073   1.195   2.245 -1.8712 -1.1053  1.5688
 1314SOL    HW3 5374   2.015   1.335   2.243  0.3656 -0.1875 -0.1749
 1314SOL    MW4 5375   2.017   1.253   2.212 -0.1380 -0.2801  0.0348
 1315SOL     OW 5376   2.022   1.491   2.320 -0.2881 -0.7618 -0.0399
 1315SOL    HW2 5377   2.019   1.497   2.415  0.6857 -0.1732 -0.0306
 1315SOL    HW3 5378   1.941   1.531   2.290  0.0102  0.2646  0.5046
 1315SOL    MW4 5379   2.011   1.497   2.328 -0.1204 -0.5486  0.0336
 1316SOL     OW 5380   1.788   1.603   2.228  0.3113 -0.2927  0.3821
 1316SOL    HW2 5381   1.797   1.697   2.245 -0.1043 -0.0211 -0.8747
 1316SOL    HW3 5382   1.780   1.596   2.133 -1.3127 -1.4634  0.5873
 1316SOL    MW4 5383   1.788   1.614   2.218  0.0423 -0.4114  0.2434
 1317SOL     OW 5384   1.800   1.878   2.288  0.0425  0.4397  0.1928
 1317SOL    HW2 5385   1.782   1.903   2.378  0.1539  2.0792 -0.2297
 1317SOL    HW3 5386   1.862   1.944   2.256  0.0916 -0.1849 -1.0485
 1317SOL    MW4 5387   1.806   1.890   2.296  0.0635  0.5738 -0.0267
 1318SOL     OW 5388   2.001   2.068   2.217 -0.0964  0.0398  0.0776
 1318SOL    HW2 5389   2.062   2.010   2.264  0.5638  0.9682  0.3664
 1318SOL    HW3 5390   1.998   2.147   2.270 -0.1325  0.7045 -0.9113
 1318SOL    MW4 5391   2.009   2.070   2.230 -0.0138  0.2499 -0.0148
 1319SOL     OW 5392   2.000   2.305   2.344 -0.6550  0.1993 -0.1862
 1319SOL    HW2 5393   2.076   2.355   2.313 -0.1945 -0.3283  0.0922
 1319SOL    HW3 5394   2.008   2.306   2.439 -1.2348  0.5052 -0.1364
 1319SOL    MW4 5395   2.011   2.312   2.352 -0.6704  0.1700 -0.1431
 1320SOL     OW 5396   1.814   2.435   2.167 -0.0475 -0.0237  0.6215
 1320SOL    HW2 5397   1.892   2.398   2.207  1.1091  0.7316 -0.9059
 1320SOL    HW3 5398   1.741   2.390   2.210  1.2119 -0.6547  2.1248
 1320SOL    MW4 5399   1.815   2.424   2.178  0.2712 -0.0072  0.6182
 1321SOL     OW 5400   1.810   2.691   2.294 -0.3205  0.0418  0.2558
 1321SOL    HW2 5401   1.802   2.602   2.259  0.0624  0.4888 -0.9941
 1321SOL    HW3 5402   1.728   2.734   2.271  0.6212  0.8661 -1.6725
 1321SOL    MW4 5403   1.798   2.685   2.286 -0.1458  0.2096 -0.1636
 1322SOL     OW 5404   2.023   2.840   2.196 -0.3563  0.1933 -0.2641
 1322SOL    HW2 5405   2.103   2.814   2.241 -0.5893 -0.4456 -0.2205
 1322SOL    HW3 5406   1.954   2.788   2.237 -1.0113  1.7262  0.6515
 1322SOL    MW4 5407   2.024   2.830   2.208 -0.4735  0.3114 -0.1376
 1323SOL     OW 5408   2.040   3.104   2.281 -0.5377  0.3420  0.2500
 1323SOL    HW2 5409   2.118   3.147   2.246 -1.8247  2.0184 -0.6188
 1323SOL    HW3 5410   2.051   3.012   2.257  1.3771  0.4566  0.5330
 1323SOL    MW4 5411   2.052   3.098   2.274 -0.4549  0.5784  0.1729
 1324SOL     OW 5412   1.823   3.240   2.202  0.2951 -0.0083  0.1076
 1324SOL    HW2 5413   1.890   3.180   2.234 -0.9675 -1.3384  0.3283
 1324SOL    HW3 5414   1.740   3.195   2.218 -0.6869  1.7567  0.1852
 1324SOL    MW4 5415   1.821   3.226   2.208 -0.0011  0.0491  0.1469
 1325SOL     OW 5416   1.784   3.509   2.328  0.4797  0.1756  0.0667
 1325SOL    HW2 5417   1.793   3.424   2.285 -1.3164 -0.0996  0.2005
 1325SOL    HW3 5418   1.718   3.555   2.276 -0.3696  0.5405  1.4600
 1325SOL    MW4 5419   1.776   3.504   2.315  0.1307  0.1876  0.2682
 1326SOL     OW 5420   2.011   3.647   2.263  0.6085  0.1111  0.0312
 1326SOL    HW2 5421   1.941   3.592   2.297  0.1630  0.4034 -0.4073
 1326SOL    HW3 5422   2.010   3.633   2.168  0.0895  1.3164 -0.1608
 1326SOL    MW4 5423   2.002   3.638   2.255  0.4811  0.3088 -0.0522
 1327SOL     OW 5424   2.024   3.916   2.308 -0.0002  0.4405 -0.4150
 1327SOL    HW2 5425   2.038   3.920   2.403  1.4596 -0.9990 -0.5556
 1327SOL    HW3 5426   2.018   3.823   2.288 -0.2826  0.7348 -1.7473
 1327SOL    MW4 5427   2.025   3.905   2.318  0.1552  0.2894 -0.6092
 1328SOL     OW 5428   1.769   4.008   2.249  0.4989  0.0904 -0.2309
 1328SOL    HW2 5429   1.853   3.978   2.283 -0.1291 -0.2402  1.0508
 1328SOL    HW3 5430   1.770   3.983   2.156  1.7135 -0.1066 -0.1742
 1328SOL    MW4 5431   1.780   4.001   2.241  0.5763  0.0215 -0.0546
 1329SOL     OW 5432   1.791   4.280   2.321  0.0906  0.2070  0.0338
 1329SOL    HW2 5433   1.765   4.192   2.294  0.6217  0.4544 -1.3413
 1329SOL    HW3 5434   1.718   4.336   2.293 -0.7189  0.0975  1.8242
 1329SOL    MW4 5435   1.778   4.276   2.314  0.0538  0.2251  0.0887
 1330SOL     OW 5436   2.039   4.397   2.237  0.0356 -0.0471  0.3231
 1330SOL    HW2 5437   1.953   4.366   2.266 -0.1846 -0.3984 -0.6785
 1330SOL    HW3 5438   2.035   4.393   2.142  1.3556 -0.5794  0.2768
 1330SOL    MW4 5439   2.027   4.393   2.229  0.1807 -0.1640  0.1848
 1331SOL     OW 5440   2.465   0.020   2.333 -0.3537 -0.2750 -0.2255
 1331SOL    HW2 5441   2.536   0.073   2.297 -1.0981  0.9885  0.1136
 1331SOL    HW3 5442   2.472  -0.064   2.289  0.4959  0.3048 -1.2080
 1331SOL    MW4 5443   2.475   0.016   2.323 -0.3397 -0.0318 -0.3104
 1332SOL     OW 5444   2.267   0.165   2.210  0.2780 -0.1334 -0.3710
 1332SOL    HW2 5445   2.244   0.242   2.262 -1.2622 -1.1803  0.5612
 1332SOL    HW3 5446   2.335   0.121   2.260 -2.6575 -2.2686  1.9531
 1332SOL    MW4 5447   2.273   0.169   2.223 -0.3126 -0.5533  0.0589
 1333SOL     OW 5448   2.239   0.405   2.346  0.4047 -0.1409 -0.7890
 1333SOL    HW2 5449   2.318   0.441   2.306  0.1934  0.6129 -0.5386
 1333SOL    HW3 5450   2.167   0.455   2.307  0.1252 -0.1132 -0.2439
 1333SOL    MW4 5451   2.240   0.416   2.336  0.3397 -0.0378 -0.6838
 1334SOL     OW 5452   2.461   0.512   2.222 -0.4423  0.3978  0.3290
 1334SOL    HW2 5453   2.533   0.463   2.261  0.5675  1.8642  0.3809
 1334SOL    HW3 5454   2.471   0.497   2.128  0.1315  0.8511  0.3141
 1334SOL    MW4 5455   2.472   0.504   2.215 -0.2334  0.6511  0.3340
 1335SOL     OW 5456   2.424   0.776   2.310  0.2506  0.2966 -0.5943
 1335SOL    HW2 5457   2.505   0.824   2.293 -0.0294  1.1601  0.4533
 1335SOL    HW3 5458   2.440   0.689   2.274  1.3232  0.7180 -1.1685
 1335SOL    MW4 5459   2.437   0.771   2.303  0.3552  0.4661 -0.5317
 1336SOL     OW 5460   2.179   0.894   2.219 -0.2456 -0.3455 -0.2854
 1336SOL    HW2 5461   2.188   0.981   2.257  0.0147  0.1416 -1.4329
 1336SOL    HW3 5462   2.259   0.848   2.244  0.0119  0.0348 -0.4074
 1336SOL    MW4 5463   2.190   0.900   2.227 -0.1771 -0.2311 -0.4528
 1337SOL     OW 5464   2.211   1.148   2.338  0.7092 -0.2451 -0.1885
 1337SOL    HW2 5465   2.275   1.200   2.290  0.4956 -0.0504 -0.2625
 1337SOL    HW3 5466   2.229   1.165   2.430  1.4990 -1.0677 -0.1796
 1337SOL    MW4 5467   2.222   1.157   2.344  0.7851 -0.3281 -0.1972
 1338SOL     OW 5468   2.409   1.309   2.238  0.1342 -0.0428 -0.1781
 1338SOL    HW2 5469   2.481   1.267   2.285 -0.6093  0.6388  1.6079
 1338SOL    HW3 5470   2.417   1.402   2.261 -0.8166  0.1490 -0.6404
 1338SOL    MW4 5471   2.420   1.316   2.247 -0.0889  0.0724 -0.0033
 1339SOL     OW 5472   2.438   1.578   2.337 -0.6566 -0.2031 -0.1634
 1339SOL    HW2 5473   2.430   1.561   2.431 -0.9021 -0.2318 -0.1889
 1339SOL    HW3 5474   2.526   1.614   2.327 -0.9421  0.6146  0.2014
 1339SOL    MW4 5475   2.448   1.581   2.348 -0.7269 -0.0991 -0.1187
 1340SOL     OW 5476   2.186   1.668   2.211 -0.1644 -0.3180 -0.4405
 1340SOL    HW2 5477   2.271   1.649   2.251 -0.1005  0.7867 -0.0439
 1340SOL    HW3 5478   2.125   1.609   2.255 -0.0933  0.8704  1.2909
 1340SOL    MW4 5479   2.189   1.658   2.222 -0.1466 -0.0154 -0.1597
 1341SOL     OW 5480   2.193   1.915   2.336  0.1791  0.0329 -0.4049
 1341SOL    HW2 5481   2.273   1.953   2.301 -0.1241  0.2237 -0.8934
 1341SOL    HW3 5482   2.179   1.837   2.283 -0.6130  0.6520 -1.1091
 1341SOL    MW4 5483   2.202   1.910   2.325  0.0343  0.1397 -0.5622
 1342SOL     OW 5484   2.427   2.041   2.228  0.2959  0.1435 -0.2512
 1342SOL    HW2 5485   2.498   2.001   2.277 -0.1474 -1.7390 -1.0876
 1342SOL    HW3 5486   2.455   2.036   2.137 -0.3327  0.5654 -0.4678
 1342SOL    MW4 5487   2.440   2.035   2.222  0.1545 -0.0491 -0.3903
 1343SOL     OW 5488   2.471   2.314   2.317  0.4083 -0.0519  0.1831
 1343SOL    HW2 5489   2.494   2.296   2.408  0.7658  0.5831  0.2226
 1343SOL    HW3 5490   2.455   2.228   2.278  0.7104 -0.3514  0.7240
 1343SOL    MW4 5491   2.472   2.300   2.324  0.4954 -0.0076  0.2601
 1344SOL     OW 5492   2.209   2.445   2.242  0.0757 -0.7543  0.1198
 1344SOL    HW2 5493   2.199   2.532   2.282 -1.1740 -0.8810  0.0822
 1344SOL    HW3 5494   2.299   2.420   2.264  0.1492  0.1599  0.9173
 1344SOL    MW4 5495   2.220   2.454   2.250 -0.0794 -0.6504  0.2201
 1345SOL     OW 5496   2.229   2.713   2.350  0.0750  0.0737  0.0083
 1345SOL    HW2 5497   2.240   2.717   2.445  1.2564 -0.5175 -0.0896
 1345SOL    HW3 5498   2.316   2.734   2.315 -0.5277  1.0254 -0.9642
 1345SOL    MW4 5499   2.242   2.716   2.358  0.1514  0.1214 -0.1328
 1346SOL     OW 5500   2.478   2.831   2.263  0.2957 -0.0346  0.4986
 1346SOL    HW2 5501   2.559   2.788   2.291  0.7627 -0.3010 -1.1847
 1346SOL    HW3 5502   2.487   2.838   2.168 -1.8154 -0.3925  0.2513
 1346SOL    MW4 5503   2.490   2.826   2.254  0.0789 -0.1171  0.2439
 1347SOL     OW 5504   2.501   3.104   2.334 -0.2432 -0.1375  0.0778
 1347SOL    HW2 5505   2.486   3.122   2.427 -0.0009  0.3495  0.0228
 1347SOL    HW3 5506   2.489   3.010   2.326  0.4445 -0.2880  0.7401
 1347SOL    MW4 5507   2.498   3.094   2.345 -0.1209 -0.0930  0.1578
 1348SOL     OW 5508   2.287   3.243   2.238  0.3941 -0.2981  0.3550
 1348SOL    HW2 5509   2.268   3.315   2.297 -0.7756 -0.5189  0.2647
 1348SOL    HW3 5510   2.367   3.204   2.272  0.9710  0.9593  0.4780
 1348SOL    MW4 5511   2.295   3.247   2.250  0.3157 -0.1612  0.3593
 1349SOL     OW 5512   2.241   3.500   2.343  0.5423 -0.5392  0.2590
 1349SOL    HW2 5513   2.250   3.517   2.437  0.5052 -1.4502  0.4360
 1349SOL    HW3 5514   2.163   3.548   2.317  1.2855  0.7655  0.4229
 1349SOL    MW4 5515   2.232   3.508   2.352  0.6356 -0.4871  0.3040
 1350SOL     OW 5516   2.462   3.614   2.211  0.2961  0.2116  0.0488
 1350SOL    HW2 5517   2.451   3.690   2.268  0.9899  0.6430 -0.3919
 1350SOL    HW3 5518   2.383   3.562   2.225  0.2557  0.5447  1.0601
 1350SOL    MW4 5519   2.450   3.617   2.220  0.3822  0.3126  0.1242
 1351SOL     OW 5520   2.461   3.864   2.338  0.2226 -0.1677  0.1509
 1351SOL    HW2 5521   2.384   3.907   2.300  1.6644  1.5471 -0.9223
 1351SOL    HW3 5522   2.452   3.878   2.433 -0.8609 -0.1256  0.0491
 1351SOL    MW4 5523   2.450   3.871   2.346  0.2697  0.0641 -0.0041
 1352SOL     OW 5524   2.252   4.024   2.232 -0.0208  0.4224 -0.3726
 1352SOL    HW2 5525   2.258   4.100   2.290 -0.6421 -0.4321  0.8463
 1352SOL    HW3 5526   2.162   3.992   2.244  0.6916 -1.4056  0.3216
 1352SOL    MW4 5527   2.241   4.030   2.241 -0.0088  0.0682 -0.1202
 1353SOL     OW 5528   2.254   4.263   2.348 -0.6267  0.7244  0.0017
 1353SOL    HW2 5529   2.269   4.283   2.440 -0.0001 -0.8368  0.2516
 1353SOL    HW3 5530   2.172   4.307   2.327  0.0929  2.5207  0.8355
 1353SOL    MW4 5531   2.245   4.272   2.357 -0.4489  0.7553  0.1450
 1354SOL     OW 5532   2.450   4.420   2.242  0.1773 -0.0550  0.1694
 1354SOL    HW2 5533   2.523   4.361   2.262 -0.1428 -0.3188  0.5666
 1354SOL    HW3 5534   2.373   4.375   2.276 -0.0081  0.8331  0.9443
 1354SOL    MW4 5535   2.450   4.406   2.249  0.1104  0.0272  0.3242
 1355SOL     OW 5536   2.896   0.007   2.358  0.0896 -0.6810  0.2386
 1355SOL    HW2 5537   2.982   0.031   2.323 -0.5940  0.2522 -0.8392
 1355SOL    HW3 5538   2.891  -0.088   2.344  1.9540 -1.1814  2.6188
 1355SOL    MW4 5539   2.907  -0.002   2.351  0.2456 -0.6239  0.4103
 1356SOL     OW 5540   2.697   0.139   2.213 -0.4898  0.1318 -0.1228
 1356SOL    HW2 5541   2.697   0.226   2.252 -0.8141  1.0553 -2.1360
 1356SOL    HW3 5542   2.752   0.086   2.272  2.2367  2.4219 -0.5268
 1356SOL    MW4 5543   2.704   0.143   2.226 -0.1731  0.5558 -0.4418
 1357SOL     OW 5544   2.701   0.412   2.325 -0.0282  0.1681  0.1727
 1357SOL    HW2 5545   2.721   0.422   2.419 -0.2099 -0.1929  0.2489
 1357SOL    HW3 5546   2.769   0.464   2.281  0.7298 -0.5635  0.4617
 1357SOL    MW4 5547   2.713   0.420   2.332  0.0479  0.0240  0.2210
 1358SOL     OW 5548   2.930   0.546   2.212 -0.4222  0.9714 -0.3065
 1358SOL    HW2 5549   2.942   0.638   2.232 -1.0218  0.8982  0.4073
 1358SOL    HW3 5550   2.919   0.543   2.117  0.2970  1.5519 -0.4096
 1358SOL    MW4 5551   2.930   0.558   2.202 -0.4063  1.0384 -0.2260
 1359SOL     OW 5552   2.918   0.804   2.338  0.1015 -0.0087  0.1808
 1359SOL    HW2 5553   2.919   0.805   2.434  0.3819  0.2590  0.1725
 1359SOL    HW3 5554   2.834   0.844   2.315  0.2197  0.3148  0.3074
 1359SOL    MW4 5555   2.907   0.809   2.347  0.1540  0.0693  0.1965
 1360SOL     OW 5556   2.671   0.914   2.252  0.1825 -0.3843 -0.2690
 1360SOL    HW2 5557   2.644   1.005   2.263  0.1514 -0.4016 -0.2011
 1360SOL    HW3 5558   2.664   0.898   2.158  0.4000 -0.2499 -0.3080
 1360SOL    MW4 5559   2.666   0.924   2.241  0.2069 -0.3688 -0.2651
 1361SOL     OW 5560   2.642   1.180   2.325 -0.0679 -0.1082 -0.4226
 1361SOL    HW2 5561   2.663   1.158   2.416 -1.1109  1.8734  0.3268
 1361SOL    HW3 5562   2.726   1.207   2.288  0.0558  0.7635  0.4684
 1361SOL    MW4 5563   2.656   1.181   2.332 -0.1893  0.2682 -0.2065
 1362SOL     OW 5564   2.883   1.275   2.258  0.0181  0.2177  0.0799
 1362SOL    HW2 5565   2.967   1.231   2.263 -0.6677 -1.3319 -1.5628
 1362SOL    HW3 5566   2.874   1.300   2.166 -1.6016 -0.2315  0.1037
 1362SOL    MW4 5567   2.893   1.272   2.247 -0.2859 -0.0461 -0.1338
 1363SOL     OW 5568   2.901   1.521   2.377  0.2952 -0.0523 -0.0376
 1363SOL    HW2 5569   2.915   1.515   2.471  0.1640  1.1869  0.0790
 1363SOL    HW3 5570   2.899   1.431   2.346  1.4395 -0.4397  0.9834
 1363SOL    MW4 5571   2.903   1.508   2.385  0.4292  0.0601  0.1123
 1364SOL     OW 5572   2.693   1.680   2.262 -0.2021 -0.6103  0.0823
 1364SOL    HW2 5573   2.756   1.612   2.282 -0.9386 -1.0772  0.8234
 1364SOL    HW3 5574   2.676   1.671   2.168  0.7541 -0.5433 -0.0953
 1364SOL    MW4 5575   2.699   1.670   2.252 -0.1729 -0.6633  0.1566
 1365SOL     OW 5576   2.671   1.942   2.329  0.6115  0.2913 -0.4023
 1365SOL    HW2 5577   2.686   1.947   2.423 -0.7565  0.5277 -0.1886
 1365SOL    HW3 5578   2.679   1.849   2.308 -0.3822  0.0648  0.1801
 1365SOL    MW4 5579   2.674   1.931   2.339  0.2999  0.2928 -0.2975
 1366SOL     OW 5580   2.867   2.089   2.212 -0.3554  0.3131 -0.0161
 1366SOL    HW2 5581   2.940   2.042   2.252 -0.5578  1.2469  1.4488
 1366SOL    HW3 5582   2.790   2.035   2.232 -0.3564  0.3991  0.2100
 1366SOL    MW4 5583   2.866   2.076   2.220 -0.3822  0.4473  0.2069
 1367SOL     OW 5584   2.856   2.334   2.322  0.1837 -0.3125  0.0480
 1367SOL    HW2 5585   2.867   2.317   2.416 -0.6161  0.7290  0.3347
 1367SOL    HW3 5586   2.859   2.247   2.281  0.2988 -0.7881  1.0544
 1367SOL    MW4 5587   2.858   2.320   2.329  0.0935 -0.2379  0.2186
 1368SOL     OW 5588   2.651   2.464   2.200 -0.4102  0.2545  0.3116
 1368SOL    HW2 5589   2.723   2.419   2.244  0.2777  0.9907 -0.0518
 1368SOL    HW3 5590   2.572   2.416   2.227  0.1896 -0.4097  0.8911
 1368SOL    MW4 5591   2.650   2.451   2.209 -0.2401  0.2637  0.3405
 1369SOL     OW 5592   2.719   2.692   2.337 -0.5962 -0.0473 -0.1201
 1369SOL    HW2 5593   2.788   2.741   2.293 -0.6784  0.2732  0.1103
 1369SOL    HW3 5594   2.708   2.613   2.283 -1.2373  0.7096 -1.1041
 1369SOL    MW4 5595   2.727   2.688   2.324 -0.6917  0.0951 -0.2198
 1370SOL     OW 5596   2.906   2.869   2.226 -0.6396 -0.1561  0.1833
 1370SOL    HW2 5597   2.909   2.955   2.268  1.9839  0.5757 -1.3597
 1370SOL    HW3 5598   2.918   2.887   2.133 -0.9594 -2.1326 -0.2624
 1370SOL    MW4 5599   2.908   2.883   2.220 -0.3355 -0.3202 -0.0789
 1371SOL     OW 5600   3.155   3.245   2.197  0.2882 -0.3564 -0.3208
 1371SOL    HW2 5601   3.173   3.324   2.247  3.0507 -0.6065 -0.8488
 1371SOL    HW3 5602   3.081   3.204   2.242  0.2105  1.4304  1.2018
 1371SOL    MW4 5603   3.147   3.250   2.210  0.6425 -0.1535 -0.1895
 1372SOL     OW 5604   2.723   3.291   2.198 -0.4089 -0.7006 -0.0290
 1372SOL    HW2 5605   2.711   3.379   2.233 -2.3487 -1.0678  0.3434
 1372SOL    HW3 5606   2.663   3.236   2.250  0.3394 -2.1300 -0.6303
 1372SOL    MW4 5607   2.713   3.295   2.209 -0.5660 -0.9375 -0.0594
 1373SOL     OW 5608   2.697   3.543   2.340  0.6814 -0.3154  0.0239
 1373SOL    HW2 5609   2.770   3.588   2.299  0.2856 -1.0708 -1.5520
 1373SOL    HW3 5610   2.621   3.569   2.288 -0.4792  1.7478  2.5882
 1373SOL    MW4 5611   2.696   3.553   2.328  0.4761 -0.1431  0.1543
 1374SOL     OW 5612   2.949   3.645   2.231 -0.3266  0.2458 -0.0682
 1374SOL    HW2 5613   3.024   3.601   2.270 -1.2322  0.7051  2.3202
 1374SOL    HW3 5614   2.954   3.735   2.265 -1.4396  0.5139 -0.5944
 1374SOL    MW4 5615   2.959   3.651   2.241 -0.5929  0.3419  0.1776
 1375SOL     OW 5616   2.923   3.885   2.373  0.1820 -0.2916 -0.5695
 1375SOL    HW2 5617   2.909   3.889   2.468  0.5501 -0.4809 -0.5049
 1375SOL    HW3 5618   2.845   3.924   2.335  0.4215  0.6099 -0.1595
 1375SOL    MW4 5619   2.911   3.891   2.381  0.2623 -0.1976 -0.5066
 1376SOL     OW 5620   2.683   3.998   2.255 -0.6305 -0.4017  0.2409
 1376SOL    HW2 5621   2.610   3.943   2.283 -0.7324 -0.5283 -0.2849
 1376SOL    HW3 5622   2.696   3.977   2.163 -0.9717  0.7886 -0.0880
 1376SOL    MW4 5623   2.675   3.988   2.247 -0.6890 -0.2615  0.1280
 1377SOL     OW 5624   2.676   4.275   2.306 -0.9341  0.0922 -0.1542
 1377SOL    HW2 5625   2.676   4.273   2.402 -1.7228  1.2193 -0.1240
 1377SOL    HW3 5626   2.667   4.183   2.280 -1.5877 -0.1335  0.8551
 1377SOL    MW4 5627   2.675   4.262   2.315 -1.1244  0.2112 -0.0172
 1378SOL     OW 5628   2.909   4.392   2.277 -0.1788 -0.3352  0.4513
 1378SOL    HW2 5629   2.988   4.344   2.303  0.4019 -0.5146 -1.6128
 1378SOL    HW3 5630   2.837   4.338   2.308  0.4741 -0.3458  2.0468
 1378SOL    MW4 5631   2.910   4.378   2.285 -0.0160 -0.3605  0.3896
 1379SOL     OW 5632   3.384   4.663   2.309 -0.2460  0.0073 -0.0048
 1379SOL    HW2 5633   3.408   4.640   2.398 -0.2474  0.7943  0.1953
 1379SOL    HW3 5634   3.462   4.705   2.272 -0.9700  1.6494  0.3254
 1379SOL    MW4 5635   3.397   4.665   2.316 -0.3419  0.3276  0.0651
 1380SOL     OW 5636   3.138   0.103   2.230  0.4498  0.0771 -0.2899
 1380SOL    HW2 5637   3.152   0.195   2.254  1.2422 -0.3049  0.7165
 1380SOL    HW3 5638   3.217   0.058   2.258 -0.5129 -1.1679  0.5122
 1380SOL    MW4 5639   3.150   0.110   2.237  0.4272 -0.1376 -0.0513
 1381SOL     OW 5640   3.123   0.375   2.325 -0.1971  0.2803  0.2804
 1381SOL    HW2 5641   3.208   0.420   2.323 -0.2205  0.3122 -0.5004
 1381SOL    HW3 5642   3.062   0.440   2.291 -0.1338 -0.5206 -1.4345
 1381SOL    MW4 5643   3.126   0.389   2.320 -0.1917  0.1789 -0.0491
 1382SOL     OW 5644   3.356   0.495   2.272  0.1009  0.2249  0.0412
 1382SOL    HW2 5645   3.432   0.443   2.300 -0.0435 -0.0821 -0.1277
 1382SOL    HW3 5646   3.361   0.495   2.176 -2.0070 -2.7172 -0.1574
 1382SOL    MW4 5647   3.367   0.488   2.263 -0.1960 -0.2038 -0.0074
 1383SOL     OW 5648   3.363   0.776   2.284  0.3140  0.0046 -0.0078
 1383SOL    HW2 5649   3.445   0.813   2.253  0.9349  0.8058  2.4570
 1383SOL    HW3 5650   3.376   0.681   2.281  0.5072  0.0687 -1.6754
 1383SOL    MW4 5651   3.375   0.768   2.280  0.4215  0.1187  0.0975
 1384SOL     OW 5652   3.125   0.896   2.185 -0.5065  0.2073  0.0979
 1384SOL    HW2 5653   3.202   0.851   2.219  0.3054 -0.0881 -2.0576
 1384SOL    HW3 5654   3.053   0.868   2.242  0.4160 -1.9729  0.2497
 1384SOL    MW4 5655   3.125   0.886   2.197 -0.2778 -0.1193 -0.1664
 1385SOL     OW 5656   3.123   1.146   2.305  0.0067 -0.1868  0.1390
 1385SOL    HW2 5657   3.188   1.185   2.246 -2.2389  0.7776 -1.8164
 1385SOL    HW3 5658   3.119   1.054   2.279  0.5698 -0.2531  0.2720
 1385SOL    MW4 5659   3.131   1.139   2.293 -0.2151 -0.0683 -0.1013
 1386SOL     OW 5660   3.344   1.292   2.185 -0.5321 -0.1479  0.3470
 1386SOL    HW2 5661   3.414   1.256   2.240  0.1469  2.3428  1.1707
 1386SOL    HW3 5662   3.332   1.381   2.218 -1.5364  0.6955 -2.2336
 1386SOL    MW4 5663   3.352   1.299   2.197 -0.5746  0.2918  0.1152
 1387SOL     OW 5664   3.341   1.554   2.321  0.2079  0.1347 -0.2442
 1387SOL    HW2 5665   3.351   1.547   2.416 -0.5801 -2.6278 -0.3360
 1387SOL    HW3 5666   3.261   1.605   2.309 -0.5325 -0.8098  0.6051
 1387SOL    MW4 5667   3.332   1.560   2.332  0.0062 -0.3543 -0.1445
 1388SOL     OW 5668   3.111   1.679   2.259  0.0271 -0.3482  0.0708
 1388SOL    HW2 5669   3.086   1.764   2.297 -0.0060 -0.1561 -0.3728
 1388SOL    HW3 5670   3.048   1.617   2.296  1.6062 -0.6211  2.3705
 1388SOL    MW4 5671   3.099   1.682   2.268  0.2313 -0.3588  0.3157
 1389SOL     OW 5672   3.098   1.945   2.325  0.1162  0.1507 -0.5456
 1389SOL    HW2 5673   3.127   1.930   2.415 -1.3631 -0.7112 -0.1830
 1389SOL    HW3 5674   3.172   1.985   2.282  1.6909 -1.5937  0.4535
 1389SOL    MW4 5675   3.111   1.948   2.332  0.1285 -0.1931 -0.3657
 1390SOL     OW 5676   3.329   2.036   2.242  0.1724  0.6565  0.1951
 1390SOL    HW2 5677   3.406   1.997   2.285  0.0846  0.6498  0.3475
 1390SOL    HW3 5678   3.349   2.033   2.149 -0.7111 -1.6653  0.0578
 1390SOL    MW4 5679   3.342   2.030   2.236  0.0441  0.3490  0.1969
 1391SOL     OW 5680   3.339   2.314   2.318 -0.2097 -0.4716  0.1933
 1391SOL    HW2 5681   3.252   2.343   2.292 -0.6405 -1.4812  0.4698
 1391SOL    HW3 5682   3.340   2.220   2.298  1.3372 -0.1790 -1.2086
 1391SOL    MW4 5683   3.328   2.305   2.312 -0.0622 -0.5665  0.0448
 1392SOL     OW 5684   3.104   2.431   2.260  0.5255 -0.2441  0.6994
 1392SOL    HW2 5685   3.116   2.522   2.287  1.5651 -0.3065  0.4701
 1392SOL    HW3 5686   3.015   2.410   2.286  0.0866  1.0141  0.2642
 1392SOL    MW4 5687   3.094   2.440   2.267  0.6051 -0.0863  0.6118
 1393SOL     OW 5688   3.122   2.722   2.322  0.4250 -0.2777 -0.1548
 1393SOL    HW2 5689   3.117   2.716   2.417 -0.8624 -1.8588 -0.3017
 1393SOL    HW3 5690   3.043   2.770   2.297  0.3861 -0.4982 -0.4672
 1393SOL    MW4 5691   3.111   2.728   2.331  0.2496 -0.5152 -0.2153
 1394SOL     OW 5692   3.376   2.808   2.259  0.4013 -0.3659  0.5269
 1394SOL    HW2 5693   3.381   2.903   2.257 -0.8559 -0.3050 -0.9511
 1394SOL    HW3 5694   3.287   2.789   2.288  1.2837 -1.1382  2.8691
 1394SOL    MW4 5695   3.365   2.818   2.263  0.3517 -0.4599  0.6411
 1395SOL     OW 5696   3.363   3.088   2.295 -0.0451 -0.6042  0.1735
 1395SOL    HW2 5697   3.435   3.132   2.250  1.5573 -0.4225  2.8034
 1395SOL    HW3 5698   3.285   3.111   2.244  1.1707  2.6946 -0.3167
 1395SOL    MW4 5699   3.362   3.097   2.282  0.3269 -0.1450  0.4559
 1396SOL     OW 5700   3.127   3.254   1.932  0.1416  0.4479  0.0395
 1396SOL    HW2 5701   3.128   3.264   2.028  1.2916  3.5317 -0.2304
 1396SOL    HW3 5702   3.200   3.195   1.914 -0.7473 -1.0278  1.1159
 1396SOL    MW4 5703   3.137   3.248   1.942  0.1762  0.6602  0.1459
 1397SOL     OW 5704   3.175   3.478   2.320  0.3070  0.3758 -0.3024
 1397SOL    HW2 5705   3.174   3.503   2.412  0.0790  1.8067 -0.6894
 1397SOL    HW3 5706   3.254   3.520   2.284  0.9977 -1.0515 -0.5348
 1397SOL    MW4 5707   3.185   3.486   2.327  0.3676  0.3762 -0.3841
 1398SOL     OW 5708   3.390   3.606   2.239  0.2170  0.3172  0.3974
 1398SOL    HW2 5709   3.470   3.561   2.267  0.1017  0.1503  0.4615
 1398SOL    HW3 5710   3.402   3.620   2.145  0.2630  0.1699  0.3810
 1398SOL    MW4 5711   3.402   3.601   2.230  0.2079  0.2759  0.4039
 1399SOL     OW 5712   3.369   3.869   2.309  0.0431  0.2155 -0.6597
 1399SOL    HW2 5713   3.452   3.904   2.277  0.6606  0.0885  0.7795
 1399SOL    HW3 5714   3.375   3.775   2.296  0.2095  0.1875 -0.4001
 1399SOL    MW4 5715   3.381   3.861   2.303  0.1466  0.1950 -0.4356
 1400SOL     OW 5716   3.136   3.985   2.232 -0.0556  0.4960  0.1654
 1400SOL    HW2 5717   3.214   3.933   2.249 -0.1747 -0.0019 -0.7845
 1400SOL    HW3 5718   3.069   3.946   2.288  0.3171  0.7671  0.7970
 1400SOL    MW4 5719   3.137   3.973   2.242 -0.0222  0.4663  0.1235
 1401SOL     OW 5720   3.141   4.260   2.337  0.1114 -0.0035  0.9266
 1401SOL    HW2 5721   3.217   4.315   2.320 -0.8869  1.0240 -0.3589
 1401SOL    HW3 5722   3.164   4.175   2.299  0.3182  0.5238 -0.1571
 1401SOL    MW4 5723   3.154   4.256   2.329  0.0069  0.2017  0.6139
 1402SOL     OW 5724   3.382   4.393   2.237  0.0889  0.0380  0.3323
 1402SOL    HW2 5725   3.385   4.488   2.234 -1.4975  0.0967  0.1489
 1402SOL    HW3 5726   3.373   4.365   2.146 -2.3716 -0.1337  0.5827
 1402SOL    MW4 5727   3.381   4.402   2.225 -0.4454  0.0234  0.3412
 1403SOL     OW 5728   3.782   4.626   2.277 -0.5173 -0.1879  0.1141
 1403SOL    HW2 5729   3.784   4.625   2.373  0.7276  0.4059  0.1130
 1403SOL    HW3 5730   3.868   4.659   2.252 -0.7957 -0.4357 -1.2187
 1403SOL    MW4 5731   3.794   4.630   2.286 -0.3898 -0.1421 -0.0618
 1404SOL     OW 5732   3.595   0.136   2.197 -0.2344  0.1573 -0.1068
 1404SOL    HW2 5733   3.592   0.210   2.258 -0.7573  0.1322 -0.1009
 1404SOL    HW3 5734   3.664   0.080   2.231 -1.5096 -0.5913  1.3156
 1404SOL    MW4 5735   3.604   0.138   2.209 -0.4718  0.0552  0.0818
 1405SOL     OW 5736   3.590   0.363   2.339 -0.0293  0.4338  0.1942
 1405SOL    HW2 5737   3.613   0.346   2.431  1.2436  0.0843 -0.1770
 1405SOL    HW3 5738   3.658   0.424   2.309 -1.1253  1.4888 -0.1856
 1405SOL    MW4 5739   3.602   0.369   2.347 -0.0060  0.5269  0.0951
 1406SOL     OW 5740   3.776   0.518   2.222 -0.1938  0.1607 -0.9489
 1406SOL    HW2 5741   3.783   0.612   2.239 -0.3686  0.1262 -0.6711
 1406SOL    HW3 5742   3.785   0.509   2.128  1.3605  0.3204 -0.8366
 1406SOL    MW4 5743   3.778   0.529   2.212 -0.0117  0.1773 -0.8976
 1407SOL     OW 5744   3.810   0.775   2.275  0.1133  0.0700 -0.2734
 1407SOL    HW2 5745   3.809   0.783   2.370 -1.7530  2.4375 -0.4530
 1407SOL    HW3 5746   3.897   0.803   2.249  0.2968  0.3800  0.6624
 1407SOL    MW4 5747   3.821   0.780   2.284 -0.1087  0.4233 -0.1738
 1408SOL     OW 5748   3.587   0.899   2.169 -0.0613  0.2517  0.0870
 1408SOL    HW2 5749   3.666   0.847   2.188 -0.3444 -0.4189 -0.5374
 1408SOL    HW3 5750   3.582   0.900   2.073 -0.5999  0.6107  0.1179
 1408SOL    MW4 5751   3.597   0.892   2.159 -0.1698  0.2105  0.0086
 1409SOL     OW 5752   3.578   1.135   2.323 -0.1583  0.1851 -0.3069
 1409SOL    HW2 5753   3.584   1.113   2.416  0.5614  1.0056 -0.1583
 1409SOL    HW3 5754   3.568   1.050   2.280  0.5724 -0.2886  0.4263
 1409SOL    MW4 5755   3.577   1.121   2.330  0.0334  0.2307 -0.1905
 1410SOL     OW 5756   3.833   1.243   2.255 -0.3037 -0.5208 -0.4054
 1410SOL    HW2 5757   3.835   1.331   2.291 -0.4151 -0.6056 -0.1944
 1410SOL    HW3 5758   3.749   1.207   2.283 -0.3660 -0.6080 -0.6956
 1410SOL    MW4 5759   3.822   1.250   2.263 -0.3264 -0.5436 -0.4158
 1411SOL     OW 5760   3.822   1.500   2.352  0.2950 -0.2809  0.1019
 1411SOL    HW2 5761   3.833   1.502   2.447 -0.8929 -1.5151  0.2743
 1411SOL    HW3 5762   3.749   1.560   2.335  0.1077 -0.5325  0.0228
 1411SOL    MW4 5763   3.814   1.509   2.362  0.1135 -0.4768  0.1144
 1412SOL     OW 5764   3.596   1.645   2.252  0.0016  0.5271  0.1230
 1412SOL    HW2 5765   3.508   1.620   2.278  0.3683 -1.1451 -0.1727
 1412SOL    HW3 5766   3.593   1.649   2.156 -0.2413  2.3775  0.1982
 1412SOL    MW4 5767   3.584   1.642   2.242  0.0179  0.5506  0.0937
 1413SOL     OW 5768   3.566   1.902   2.355 -0.1128  0.0154  0.1143
 1413SOL    HW2 5769   3.635   1.955   2.315 -0.0695  0.1297  0.3347
 1413SOL    HW3 5770   3.585   1.813   2.326  0.7170 -0.0978  0.9616
 1413SOL    MW4 5771   3.578   1.897   2.346  0.0021  0.0156  0.2553
 1414SOL     OW 5772   3.795   2.036   2.227  0.1037 -0.0738  0.2581
 1414SOL    HW2 5773   3.872   1.983   2.250 -1.3897 -2.3020  0.3067
 1414SOL    HW3 5774   3.778   2.013   2.136 -0.0125  1.0475 -0.0017
 1414SOL    MW4 5775   3.803   2.026   2.218 -0.1087 -0.2201  0.2303
 1415SOL     OW 5776   3.801   2.303   2.338  0.4097 -0.8637 -0.1374
 1415SOL    HW2 5777   3.727   2.343   2.293 -0.6333 -1.4207  1.0915
 1415SOL    HW3 5778   3.808   2.215   2.300 -1.2550 -1.7921  1.6422
 1415SOL    MW4 5779   3.792   2.297   2.327  0.0522 -1.0598  0.2596
 1416SOL     OW 5780   3.583   2.444   2.216 -0.1745  0.2694  0.1353
 1416SOL    HW2 5781   3.499   2.408   2.243  0.4898 -0.9891  0.5796
 1416SOL    HW3 5782   3.581   2.440   2.120 -0.5205  0.0044  0.1515
 1416SOL    MW4 5783   3.572   2.438   2.207 -0.1321  0.0684  0.1960
 1417SOL     OW 5784   3.611   2.694   2.327 -0.0581 -0.2236 -0.1631
 1417SOL    HW2 5785   3.612   2.607   2.287 -0.7854 -0.5675  0.5516
 1417SOL    HW3 5786   3.527   2.731   2.303 -0.1451 -0.0975  0.3382
 1417SOL    MW4 5787   3.600   2.687   2.319 -0.1655 -0.2522 -0.0026
 1418SOL     OW 5788   3.845   2.824   2.246  0.0069  0.0070  0.3563
 1418SOL    HW2 5789   3.818   2.907   2.284 -0.8000  0.4470 -1.1229
 1418SOL    HW3 5790   3.776   2.762   2.271 -0.4764  0.2741 -0.3045
 1418SOL    MW4 5791   3.833   2.827   2.254 -0.1631  0.1004  0.0739
 1419SOL     OW 5792   3.771   3.065   2.346  0.0061  0.0994 -0.3857
 1419SOL    HW2 5793   3.789   3.051   2.439 -0.0090 -0.6595 -0.5016
 1419SOL    HW3 5794   3.842   3.123   2.317  0.5513 -0.4292 -0.1220
 1419SOL    MW4 5795   3.783   3.071   2.355  0.0761 -0.0706 -0.3662
 1420SOL     OW 5796   3.592   3.199   2.190  0.0783 -0.6079 -0.3458
 1420SOL    HW2 5797   3.591   3.282   2.237  0.8581 -0.3046 -0.8719
 1420SOL    HW3 5798   3.648   3.142   2.243  0.6484 -0.3827 -0.7079
 1420SOL    MW4 5799   3.599   3.202   2.203  0.2565 -0.5381 -0.4628
 1421SOL     OW 5800   3.620   3.456   2.313  0.3780 -0.3251 -0.3928
 1421SOL    HW2 5801   3.632   3.465   2.407  0.3614 -0.2445 -0.3979
 1421SOL    HW3 5802   3.690   3.510   2.275  0.2275 -0.1514 -0.4259
 1421SOL    MW4 5803   3.631   3.464   2.320  0.3560 -0.2918 -0.3979
 1422SOL     OW 5804   3.833   3.578   2.183 -0.7299  0.0886 -0.2834
 1422SOL    HW2 5805   3.829   3.669   2.212  2.2917  0.1702 -0.0155
 1422SOL    HW3 5806   3.837   3.583   2.088 -1.3510  0.1897 -0.3069
 1422SOL    MW4 5807   3.833   3.591   2.174 -0.4132  0.1128 -0.2513
 1423SOL     OW 5808   3.798   3.829   2.283 -0.5883 -0.1000  0.3590
 1423SOL    HW2 5809   3.814   3.835   2.377  0.5092 -1.5694  0.2787
 1423SOL    HW3 5810   3.874   3.872   2.243 -0.9876  0.4013  0.1336
 1423SOL    MW4 5811   3.810   3.836   2.290 -0.4964 -0.2277  0.3185
 1424SOL     OW 5812   3.595   3.987   2.182  0.2862 -0.0386  0.0047
 1424SOL    HW2 5813   3.592   4.076   2.219  0.7627 -0.4053  0.9577
 1424SOL    HW3 5814   3.664   3.943   2.233  0.0874 -0.9353 -0.5017
 1424SOL    MW4 5815   3.604   3.993   2.194  0.3228 -0.2053  0.0637
 1425SOL     OW 5816   3.581   4.234   2.307  0.2441  0.1306 -0.0560
 1425SOL    HW2 5817   3.657   4.273   2.264  1.0407  0.2439  1.4105
 1425SOL    HW3 5818   3.510   4.297   2.293  0.3473 -0.1007 -1.6491
 1425SOL    MW4 5819   3.581   4.248   2.300  0.3629  0.1149 -0.0727
 1426SOL     OW 5820   3.761   4.373   2.167 -0.4994  0.3652  0.2310
 1426SOL    HW2 5821   3.834   4.319   2.198  0.2623  1.1222 -0.2257
 1426SOL    HW3 5822   3.767   4.453   2.219  0.1600  1.2168 -1.1257
 1426SOL    MW4 5823   3.771   4.376   2.178 -0.3119  0.5779 -0.0086
 1427SOL     OW 5824   4.253   4.630   2.342  0.3382 -0.4127  0.1002
 1427SOL    HW2 5825   4.252   4.634   2.438 -0.5615  0.3642  0.0577
 1427SOL    HW3 5826   4.315   4.697   2.315  0.3122 -0.3807  0.1199
 1427SOL    MW4 5827   4.261   4.639   2.351  0.2155 -0.3060  0.0973
 1428SOL     OW 5828   4.023   0.055   2.210  0.2453 -0.0560  0.1220
 1428SOL    HW2 5829   4.020   0.150   2.225 -0.6058 -0.2954  1.6454
 1428SOL    HW3 5830   4.105   0.027   2.251 -0.4353 -0.2297  1.4026
 1428SOL    MW4 5831   4.033   0.064   2.218  0.0429 -0.1105  0.4921
 1429SOL     OW 5832   4.018   0.352   2.257 -0.1517 -0.1601  0.4027
 1429SOL    HW2 5833   4.089   0.415   2.252  0.2461 -0.7617 -2.1288
 1429SOL    HW3 5834   3.938   0.405   2.244 -0.0126  0.1915  0.9706
 1429SOL    MW4 5835   4.017   0.367   2.255 -0.0806 -0.1931  0.1438
 1430SOL     OW 5836   4.250   0.484   2.206 -0.1960 -0.0306 -0.2182
 1430SOL    HW2 5837   4.246   0.569   2.249 -1.0279  0.0660 -0.4800
 1430SOL    HW3 5838   4.323   0.439   2.249 -0.3421  0.4628  0.5594
 1430SOL    MW4 5839   4.259   0.489   2.217 -0.3252  0.0472 -0.1500
 1431SOL     OW 5840   4.223   0.719   2.349 -0.1186  0.5660 -0.0969
 1431SOL    HW2 5841   4.302   0.766   2.321  0.7498 -0.7524  0.0849
 1431SOL    HW3 5842   4.224   0.726   2.444  0.3390 -0.3292 -0.0339
 1431SOL    MW4 5843   4.234   0.727   2.358  0.0563  0.2739 -0.0646
 1432SOL     OW 5844   4.057   0.860   2.200  0.4465  0.3067 -0.1008
 1432SOL    HW2 5845   4.065   0.945   2.243  2.3433  0.1062 -0.0076
 1432SOL    HW3 5846   4.122   0.805   2.244  0.3626 -0.7237 -1.2507
 1432SOL    MW4 5847   4.066   0.864   2.212  0.6857  0.1443 -0.2401
 1433SOL     OW 5848   4.064   1.094   2.350 -0.3204  0.1218 -0.2641
 1433SOL    HW2 5849   4.064   1.093   2.446 -0.4250 -0.6581 -0.2676
 1433SOL    HW3 5850   3.980   1.133   2.326 -0.5336 -0.1926 -0.0386
 1433SOL    MW4 5851   4.053   1.099   2.359 -0.3624 -0.0225 -0.2348
 1434SOL     OW 5852   4.269   1.250   2.260  0.1884 -0.0995 -0.7444
 1434SOL    HW2 5853   4.191   1.207   2.293  0.4013 -0.2271 -0.4018
 1434SOL    HW3 5854   4.340   1.216   2.314  0.3782  0.5919 -0.5437
 1434SOL    MW4 5855   4.268   1.240   2.271  0.2413 -0.0250 -0.6723
 1435SOL     OW 5856   4.266   1.515   2.356 -0.0577 -0.0496 -0.1954
 1435SOL    HW2 5857   4.280   1.421   2.339  0.7080 -0.1921  1.1641
 1435SOL    HW3 5858   4.342   1.558   2.317  1.1576 -0.2800  1.8897
 1435SOL    MW4 5859   4.278   1.508   2.348  0.2041 -0.0988  0.2589
 1436SOL     OW 5860   4.048   1.640   2.249 -0.0105  0.3923  0.4801
 1436SOL    HW2 5861   4.120   1.594   2.293  0.0115 -1.9562 -1.8579
 1436SOL    HW3 5862   3.969   1.599   2.283 -0.1047  0.4733  0.3591
 1436SOL    MW4 5863   4.047   1.629   2.260 -0.0200  0.0930  0.1554
 1437SOL     OW 5864   4.002   1.895   2.324  0.6488 -0.0972  0.2252
 1437SOL    HW2 5865   4.015   1.907   2.418  1.3172  0.5606  0.0541
 1437SOL    HW3 5866   4.036   1.807   2.307  0.9546 -0.0409  0.5257
 1437SOL    MW4 5867   4.009   1.885   2.334  0.7772 -0.0031  0.2420
 1438SOL     OW 5868   4.241   2.031   2.271  0.0546  0.0787 -0.0939
 1438SOL    HW2 5869   4.226   2.118   2.307  1.6069  1.6956 -3.1414
 1438SOL    HW3 5870   4.158   1.985   2.283 -0.4324  1.5625  2.5741
 1438SOL    MW4 5871   4.228   2.036   2.278  0.1950  0.4878 -0.1438
 1439SOL     OW 5872   4.277   2.296   2.361  0.0635 -0.3686 -0.0640
 1439SOL    HW2 5873   4.191   2.331   2.337 -0.0400  0.8115  1.9486
 1439SOL    HW3 5874   4.338   2.339   2.302 -0.4287  0.8314  0.2911
 1439SOL    MW4 5875   4.274   2.306   2.350 -0.0153 -0.0546  0.2482
 1440SOL     OW 5876   4.035   2.396   2.242  0.2537 -0.1358  0.4883
 1440SOL    HW2 5877   4.053   2.488   2.263 -1.3153  0.5607 -1.1308
 1440SOL    HW3 5878   3.949   2.379   2.282 -0.9831  0.0893 -2.0066
 1440SOL    MW4 5879   4.026   2.406   2.250 -0.1159 -0.0141 -0.0546
 1441SOL     OW 5880   4.063   2.659   2.325  0.1197 -0.3886  0.1906
 1441SOL    HW2 5881   4.071   2.656   2.420  0.2396  0.5941  0.2165
 1441SOL    HW3 5882   3.985   2.712   2.309  0.1460 -0.4816 -0.2540
 1441SOL    MW4 5883   4.054   2.666   2.335  0.1388 -0.2711  0.1352
 1442SOL     OW 5884   4.248   2.836   2.235 -0.1423 -0.2041 -0.0533
 1442SOL    HW2 5885   4.186   2.771   2.270 -1.1734  1.0553  0.5492
 1442SOL    HW3 5886   4.334   2.798   2.249 -0.7597 -1.6865 -0.2326
 1442SOL    MW4 5887   4.251   2.822   2.242 -0.3600 -0.2337  0.0024
 1443SOL     OW 5888   4.208   3.096   2.316 -0.2040 -0.0147  0.3223
 1443SOL    HW2 5889   4.216   3.001   2.303  0.5656 -0.0378  0.9614
 1443SOL    HW3 5890   4.286   3.132   2.275 -0.8863  0.4156 -0.6202
 1443SOL    MW4 5891   4.219   3.088   2.308 -0.1926  0.0391  0.2823
 1444SOL     OW 5892   3.982   3.209   2.237  0.0761 -0.2556  0.3249
 1444SOL    HW2 5893   3.999   3.301   2.256  2.1423 -0.3426 -0.9376
 1444SOL    HW3 5894   4.057   3.163   2.272  1.1608 -0.9849 -2.7873
 1444SOL    MW4 5895   3.994   3.215   2.244  0.4919 -0.3636 -0.2525
 1445SOL     OW 5896   4.047   3.481   2.317 -0.1811 -0.2348  0.1919
 1445SOL    HW2 5897   4.127   3.516   2.279 -0.1531  1.5817  1.8348
 1445SOL    HW3 5898   3.977   3.525   2.270 -0.1994 -0.4138  0.0487
 1445SOL    MW4 5899   4.048   3.491   2.306 -0.1798 -0.0188  0.3898
 1446SOL     OW 5900   4.273   3.593   2.213 -0.3535  0.3269  0.2848
 1446SOL    HW2 5901   4.276   3.688   2.218  0.1847  0.3854 -0.8713
 1446SOL    HW3 5902   4.260   3.574   2.120 -0.6668 -0.7253  0.5296
 1446SOL    MW4 5903   4.272   3.603   2.201 -0.3238  0.1955  0.1647
 1447SOL     OW 5904   4.249   3.878   2.263  0.0487  0.2183 -0.7180
 1447SOL    HW2 5905   4.246   3.874   2.359 -0.0673  0.4893 -0.7079
 1447SOL    HW3 5906   4.329   3.926   2.244 -0.4745  1.0964 -0.7245
 1447SOL    MW4 5907   4.259   3.884   2.274 -0.0353  0.3700 -0.7174
 1448SOL     OW 5908   4.016   3.996   2.163 -0.1699  0.0346  0.7428
 1448SOL    HW2 5909   4.107   3.974   2.186 -0.0994  1.0910  1.5258
 1448SOL    HW3 5910   4.019   4.014   2.069  0.5819  0.7803  0.9061
 1448SOL    MW4 5911   4.029   3.996   2.153 -0.0615  0.2720  0.8678
 1449SOL     OW 5912   3.993   4.259   2.267 -0.7555  0.2408 -0.0167
 1449SOL    HW2 5913   4.074   4.302   2.240 -0.2344 -1.1157 -0.6368
 1449SOL    HW3 5914   4.006   4.167   2.247 -1.6326 -0.3243  1.8249
 1449SOL    MW4 5915   4.005   4.253   2.261 -0.8020 -0.0129  0.1447
 1450SOL     OW 5916   4.236   4.389   2.208 -0.7712 -0.6965 -0.0623
 1450SOL    HW2 5917   4.250   4.475   2.248  1.2524 -1.0831  0.1037
 1450SOL    HW3 5918   4.299   4.332   2.252  0.1921 -1.5526 -2.4971
 1450SOL    MW4 5919   4.246   4.393   2.219 -0.3772 -0.8607 -0.3619
 1451SOL     OW 5920   0.264   4.625   2.603 -0.2626 -0.1034 -0.3908
 1451SOL    HW2 5921   0.250   4.547   2.656 -1.0800  0.0039 -0.4470
 1451SOL    HW3 5922   0.197   4.687   2.632  0.5849  0.6951 -0.1236
 1451SOL    MW4 5923   0.253   4.623   2.614 -0.2587  0.0167 -0.3629
 1452SOL     OW 5924   0.068   0.123   2.687  0.1837 -0.0432 -0.3271
 1452SOL    HW2 5925   0.064   0.127   2.782 -0.5695 -0.9997 -0.3030
 1452SOL    HW3 5926   0.050   0.213   2.658  0.4337  0.2520  0.4291
 1452SOL    MW4 5927   0.065   0.135   2.695  0.1173 -0.1304 -0.2241
 1453SOL     OW 5928   4.472   0.389   2.316  0.2392 -0.2278 -0.1422
 1453SOL    HW2 5929   4.555   0.433   2.295  0.4175 -0.5918 -0.2025
 1453SOL    HW3 5930   4.471   0.386   2.412  1.2265 -1.9677 -0.1600
 1453SOL    MW4 5931   4.483   0.395   2.326  0.3930 -0.5054 -0.1526
 1454SOL     OW 5932   0.207   0.507   2.710 -0.3020 -0.1767  0.4380
 1454SOL    HW2 5933   0.210   0.508   2.805  2.2257  1.3170  0.3709
 1454SOL    HW3 5934   0.285   0.460   2.683 -0.6742 -0.0495 -0.9173
 1454SOL    MW4 5935   0.217   0.501   2.719 -0.0176  0.0371  0.2503
 1455SOL     OW 5936   0.226   0.793   2.633  0.3860  0.5316 -0.4084
 1455SOL    HW2 5937   0.299   0.833   2.682 -0.4569 -0.1059  1.4433
 1455SOL    HW3 5938   0.219   0.705   2.671 -0.8355  0.3167 -1.1312
 1455SOL    MW4 5939   0.235   0.787   2.645  0.1136  0.4191 -0.2594
 1456SOL     OW 5940   4.463   0.885   2.749 -0.2330 -0.0846  0.3127
 1456SOL    HW2 5941   4.456   0.900   2.843  2.9359  2.8612  0.1634
 1456SOL    HW3 5942   4.546   0.838   2.738 -0.2184  0.2394 -1.0805
 1456SOL    MW4 5943   4.473   0.881   2.760  0.1869  0.3468  0.1090
 1457SOL     OW 5944   4.455   1.142   2.666 -0.1255  0.9608  0.4542
 1457SOL    HW2 5945   4.537   1.181   2.697  1.0348 -1.4209  0.4443
 1457SOL    HW3 5946   4.460   1.050   2.693 -2.0331  0.3901 -1.0557
 1457SOL    MW4 5947   4.466   1.135   2.674 -0.2241  0.5713  0.2539
 1458SOL     OW 5948   0.203   1.282   2.715  0.2099  0.5662  0.2667
 1458SOL    HW2 5949   0.276   1.231   2.680 -1.0864 -0.5346 -0.8875
 1458SOL    HW3 5950   0.223   1.372   2.689  1.3461  0.3311  0.2926
 1458SOL    MW4 5951   0.215   1.287   2.707  0.1888  0.3899  0.1175
 1459SOL     OW 5952   0.236   1.537   2.629  0.2207 -0.1094 -0.2281
 1459SOL    HW2 5953   0.309   1.589   2.661  0.8436 -1.2450  0.2577
 1459SOL    HW3 5954   0.159   1.576   2.670  0.5889  0.9065 -0.4979
 1459SOL    MW4 5955   0.235   1.549   2.639  0.3515 -0.1252 -0.1996
 1460SOL     OW 5956   4.484   1.642   2.725  0.1001  0.1024  0.1421
 1460SOL    HW2 5957   4.502   1.649   2.819  1.4984  0.6520 -0.1428
 1460SOL    HW3 5958   4.493   1.732   2.692 -0.9042 -0.0020 -0.4320
 1460SOL    MW4 5959   4.488   1.655   2.733  0.1516  0.1612  0.0288
 1461SOL     OW 5960   0.008   1.906   2.666  0.0378  0.2754 -0.0232
 1461SOL    HW2 5961   0.086   1.947   2.702  1.0666 -2.1819  0.6122
 1461SOL    HW3 5962   0.020   1.911   2.571  1.2231 -0.5413  0.0719
 1461SOL    MW4 5963   0.020   1.912   2.658  0.3299 -0.1565  0.0730
 1462SOL     OW 5964   0.249   2.068   2.749  0.4096 -0.3401 -1.2334
 1462SOL    HW2 5965   0.300   2.016   2.686  2.5197 -0.4307  0.4932
 1462SOL    HW3 5966   0.233   2.150   2.703  2.1619 -0.3004 -1.8343
 1462SOL    MW4 5967   0.254   2.072   2.735  0.9192 -0.3469 -1.0850
 1463SOL     OW 5968   0.228   2.288   2.604 -0.8924  0.1346  0.0279
 1463SOL    HW2 5969   0.311   2.332   2.618 -0.0759 -0.9817 -1.1785
 1463SOL    HW3 5970   0.162   2.349   2.637  0.3465  1.3351  0.3102
 1463SOL    MW4 5971   0.230   2.302   2.610 -0.6212  0.1457 -0.0939
 1464SOL     OW 5972   0.028   2.475   2.706  0.1624  0.1698  0.1643
 1464SOL    HW2 5973   0.026   2.483   2.801 -2.0832 -0.4798  0.2102
 1464SOL    HW3 5974  -0.041   2.411   2.687  2.2854 -1.6310 -1.7135
 1464SOL    MW4 5975   0.019   2.467   2.716  0.1462 -0.1533 -0.0772
 1465SOL     OW 5976   0.017   2.742   2.598 -0.4105  0.0884 -0.2459
 1465SOL    HW2 5977  -0.068   2.777   2.624 -0.0969  0.3183  0.4741
 1465SOL    HW3 5978   0.017   2.652   2.632  0.0822  0.4567  0.7612
 1465SOL    MW4 5979   0.006   2.735   2.606 -0.3042  0.1674 -0.0181
 1466SOL     OW 5980   0.236   2.846   2.704 -0.2997 -0.3191 -0.1444
 1466SOL    HW2 5981   0.240   2.934   2.667 -1.1655 -0.5472 -0.8099
 1466SOL    HW3 5982   0.161   2.805   2.661  0.0209 -1.3467  0.2428
 1466SOL    MW4 5983   0.226   2.852   2.693 -0.3717 -0.4849 -0.1810
 1467SOL     OW 5984   0.241   3.078   2.560 -0.1771 -0.2132 -0.1987
 1467SOL    HW2 5985   0.317   3.133   2.580 -0.8973  1.1104 -1.0828
 1467SOL    HW3 5986   0.225   3.093   2.467 -1.8769 -0.0534  0.1145
 1467SOL    MW4 5987   0.249   3.087   2.551 -0.4964 -0.0176 -0.2739
 1468SOL     OW 5988   0.004   3.198   2.692 -0.2517 -0.0159 -0.1381
 1468SOL    HW2 5989  -0.071   3.149   2.659 -0.0117 -0.7624  0.4283
 1468SOL    HW3 5990   0.081   3.151   2.659 -0.0030 -0.8803  1.6294
 1468SOL    MW4 5991   0.005   3.185   2.683 -0.1872 -0.2286  0.1698
 1469SOL     OW 5992   0.014   3.452   2.576  0.6723 -0.8248  0.1384
 1469SOL    HW2 5993   0.088   3.504   2.609 -0.2267 -0.5991  1.8563
 1469SOL    HW3 5994   0.016   3.373   2.629 -0.6980 -0.5339  0.6378
 1469SOL    MW4 5995   0.024   3.449   2.587  0.3724 -0.7565  0.4308
 1470SOL     OW 5996   0.243   3.596   2.687  0.1397  0.4844 -0.4356
 1470SOL    HW2 5997   0.253   3.572   2.779 -0.0275  0.2449 -0.4784
 1470SOL    HW3 5998   0.301   3.536   2.640 -0.6631 -0.1751 -0.5861
 1470SOL    MW4 5999   0.252   3.585   2.693  0.0117  0.3657 -0.4611
 1471SOL     OW 6000   0.217   3.858   2.578  0.4280  0.0898 -0.6192
 1471SOL    HW2 6001   0.228   3.766   2.599  1.6644  0.3007 -0.3263
 1471SOL    HW3 6002   0.284   3.903   2.629 -0.4597  1.2018 -0.3993
 1471SOL    MW4 6003   0.227   3.852   2.587  0.4740  0.2644 -0.5517
 1472SOL     OW 6004   4.489   4.028   2.699 -0.3627  0.1473  0.1197
 1472SOL    HW2 6005   4.490   4.103   2.639  1.6125 -0.0316 -0.0992
 1472SOL    HW3 6006   4.561   3.973   2.670 -0.1591 -0.5612  1.9019
 1472SOL    MW4 6007   4.498   4.031   2.687 -0.0752  0.0300  0.3259
 1473SOL     OW 6008   4.479   4.269   2.576  0.3867 -0.3862  0.4006
 1473SOL    HW2 6009   4.400   4.303   2.617  0.0885 -0.6846  0.0819
 1473SOL    HW3 6010   4.551   4.315   2.619  0.1271 -1.2755  1.8054
 1473SOL    MW4 6011   4.478   4.279   2.587  0.3128 -0.5426  0.5438
 1474SOL     OW 6012   0.208   4.389   2.717  0.3485 -0.1469 -0.0795
 1474SOL    HW2 6013   0.214   4.384   2.813  0.4072 -2.8087 -0.1695
 1474SOL    HW3 6014   0.289   4.348   2.686  0.0227  0.0993 -1.2770
 1474SOL    MW4 6015   0.219   4.383   2.726  0.3132 -0.4654 -0.2494
 1475SOL     OW 6016   0.707   4.618   2.610 -0.2502  0.3813  0.2452
 1475SOL    HW2 6017   0.691   4.529   2.643 -1.2276 -0.1254 -1.5000
 1475SOL    HW3 6018   0.643   4.672   2.656 -0.9551 -0.1556 -0.0903
 1475SOL    MW4 6019   0.696   4.613   2.620 -0.4722  0.2437 -0.0293
 1476SOL     OW 6020   0.488   0.112   2.706 -0.1957 -0.0781 -0.0258
 1476SOL    HW2 6021   0.478   0.125   2.801  0.2808 -0.6420  0.1081
 1476SOL    HW3 6022   0.414   0.057   2.681 -0.2589 -0.0243  0.0437
 1476SOL    MW4 6023   0.477   0.107   2.716 -0.1411 -0.1454  0.0012
 1477SOL     OW 6024   0.447   0.363   2.603  0.1681  0.2364  0.0265
 1477SOL    HW2 6025   0.529   0.410   2.619  0.8077 -0.4640 -1.1197
 1477SOL    HW3 6026   0.459   0.278   2.644 -0.1521  0.2766  0.2094
 1477SOL    MW4 6027   0.459   0.358   2.610  0.2103  0.1493 -0.1006
 1478SOL     OW 6028   0.697   0.486   2.670 -0.1351  0.4655 -0.7101
 1478SOL    HW2 6029   0.717   0.499   2.763 -0.7279  0.9448 -0.6460
 1478SOL    HW3 6030   0.778   0.451   2.633  0.6395  1.8137 -0.3329
 1478SOL    MW4 6031   0.710   0.483   2.677 -0.1112  0.7066 -0.6518
 1479SOL     OW 6032   0.670   0.749   2.571  0.0614 -0.3751 -0.3262
 1479SOL    HW2 6033   0.740   0.793   2.618  0.3281 -0.3520 -0.7415
 1479SOL    HW3 6034   0.667   0.661   2.608  0.8339 -0.6254 -0.8538
 1479SOL    MW4 6035   0.679   0.743   2.582  0.1985 -0.4051 -0.4506
 1480SOL     OW 6036   0.465   0.894   2.702  0.0432  0.2604 -0.1236
 1480SOL    HW2 6037   0.451   0.981   2.665 -1.2812  0.2720  0.3923
 1480SOL    HW3 6038   0.538   0.858   2.651 -0.2206  1.1795 -1.1694
 1480SOL    MW4 6039   0.473   0.901   2.691 -0.1664  0.3832 -0.1936
 1481SOL     OW 6040   0.437   1.156   2.624  0.3148  0.2236  0.0518
 1481SOL    HW2 6041   0.513   1.207   2.653  0.3127  0.9536 -1.1955
 1481SOL    HW3 6042   0.441   1.159   2.528 -1.3800  0.3988 -0.0305
 1481SOL    MW4 6043   0.448   1.163   2.615  0.0909  0.3430 -0.1237
 1482SOL     OW 6044   0.675   1.301   2.683  0.3408  0.1947 -0.4134
 1482SOL    HW2 6045   0.689   1.300   2.778  0.9895  1.2549 -0.4958
 1482SOL    HW3 6046   0.746   1.247   2.648  0.8512  0.8545 -0.3940
 1482SOL    MW4 6047   0.686   1.294   2.691  0.4938  0.4218 -0.4218
 1483SOL     OW 6048   0.659   1.559   2.617  0.5225 -0.1851 -0.1293
 1483SOL    HW2 6049   0.740   1.594   2.655 -0.0536 -0.2888  1.2142
 1483SOL    HW3 6050   0.659   1.467   2.642  0.5410 -0.4547 -1.0989
 1483SOL    MW4 6051   0.670   1.552   2.625  0.4490 -0.2342 -0.0799
 1484SOL     OW 6052   0.445   1.680   2.717 -0.3391 -0.2337 -0.4282
 1484SOL    HW2 6053   0.457   1.677   2.812  0.1295 -0.5528 -0.4929
 1484SOL    HW3 6054   0.518   1.629   2.683  1.4309  2.6227 -1.1166
 1484SOL    MW4 6055   0.456   1.673   2.725 -0.0438  0.1011 -0.5274
 1485SOL     OW 6056   0.433   1.937   2.600 -0.1180 -0.4095  0.3537
 1485SOL    HW2 6057   0.516   1.961   2.641 -0.2266  1.8334 -0.7080
 1485SOL    HW3 6058   0.421   1.844   2.623  2.5117 -0.6738  0.7696
 1485SOL    MW4 6059   0.442   1.928   2.609  0.2146 -0.1484  0.2685
 1486SOL     OW 6060   0.685   2.030   2.711 -0.4642 -0.0853 -0.0425
 1486SOL    HW2 6061   0.706   2.042   2.803 -0.3170 -0.2141 -0.0593
 1486SOL    HW3 6062   0.758   1.979   2.676  0.1912  1.1641 -0.5378
 1486SOL    MW4 6063   0.698   2.025   2.718 -0.3583  0.0625 -0.1099
 1487SOL     OW 6064   0.682   2.300   2.611 -0.1380  0.2991  0.8420
 1487SOL    HW2 6065   0.761   2.327   2.657  1.5256 -0.0436 -1.7094
 1487SOL    HW3 6066   0.673   2.207   2.631  2.0858 -0.4928 -1.5394
 1487SOL    MW4 6067   0.691   2.291   2.620  0.3749  0.1493  0.1910
 1488SOL     OW 6068   0.459   2.440   2.709  0.1292  0.0558 -0.4054
 1488SOL    HW2 6069   0.441   2.523   2.665 -0.8341  0.1374  0.1499
 1488SOL    HW3 6070   0.542   2.411   2.670  0.5534  1.3412 -0.4923
 1488SOL    MW4 6071   0.468   2.447   2.698  0.0581  0.2360 -0.3436
 1489SOL     OW 6072   0.447   2.692   2.590 -0.4879  0.3130 -0.2780
 1489SOL    HW2 6073   0.527   2.727   2.629 -0.4438  0.5156 -0.5500
 1489SOL    HW3 6074   0.377   2.749   2.622 -0.7175 -0.7827  1.1804
 1489SOL    MW4 6075   0.448   2.704   2.599 -0.5124  0.1950 -0.1214
 1490SOL     OW 6076   0.650   2.811   2.727 -0.1976 -0.1639  0.1631
 1490SOL    HW2 6077   0.643   2.833   2.820 -0.6443  0.1865  0.0486
 1490SOL    HW3 6078   0.677   2.893   2.685  0.1283 -0.3533 -0.0027
 1490SOL    MW4 6079   0.653   2.825   2.734 -0.2135 -0.1426  0.1264
 1491SOL     OW 6080   0.695   3.050   2.597 -0.1184 -0.0982  0.6730
 1491SOL    HW2 6081   0.773   3.098   2.624 -0.3097  0.0958  0.8808
 1491SOL    HW3 6082   0.681   3.077   2.506 -0.4696  0.5670  0.9183
 1491SOL    MW4 6083   0.703   3.060   2.588 -0.1900  0.0150  0.7327
 1492SOL     OW 6084   0.467   3.208   2.638  0.1046 -0.3821  0.1543
 1492SOL    HW2 6085   0.458   3.206   2.733 -1.3080  0.3592  0.0507
 1492SOL    HW3 6086   0.551   3.166   2.621  0.5328 -0.2107  1.7484
 1492SOL    MW4 6087   0.477   3.202   2.648 -0.0253 -0.2615  0.3507
 1493SOL     OW 6088   0.448   3.460   2.538 -0.1140 -0.1002  0.1175
 1493SOL    HW2 6089   0.451   3.366   2.554 -1.5130 -0.4267 -1.3375
 1493SOL    HW3 6090   0.456   3.468   2.442 -0.7560  1.2042  0.1634
 1493SOL    MW4 6091   0.449   3.449   2.527 -0.3833  0.0288 -0.0684
 1494SOL     OW 6092   0.664   3.619   2.635 -0.4647  0.4510 -0.3135
 1494SOL    HW2 6093   0.658   3.612   2.731 -0.3925  1.0833 -0.2616
 1494SOL    HW3 6094   0.587   3.572   2.603 -1.0429  1.1140  0.0883
 1494SOL    MW4 6095   0.653   3.612   2.644 -0.5314  0.6220 -0.2537
 1495SOL     OW 6096   0.661   3.895   2.594  0.0092 -0.0938  0.0121
 1495SOL    HW2 6097   0.577   3.930   2.624  0.5906  0.0239  1.5195
 1495SOL    HW3 6098   0.657   3.802   2.617  0.5480  0.0444  0.6751
 1495SOL    MW4 6099   0.649   3.887   2.601  0.1570 -0.0598  0.2985
 1496SOL     OW 6100   0.427   3.994   2.699  0.1824  0.4317  0.1761
 1496SOL    HW2 6101   0.439   4.014   2.792  1.1759  1.6412 -0.2033
 1496SOL    HW3 6102   0.419   4.079   2.657  1.5690 -0.0302 -1.0821
 1496SOL    MW4 6103   0.428   4.008   2.706  0.4964  0.5307 -0.0401
 1497SOL     OW 6104   0.421   4.255   2.591 -0.1184 -0.0003  0.0476
 1497SOL    HW2 6105   0.506   4.292   2.614  0.4805 -0.9592 -0.5605
 1497SOL    HW3 6106   0.418   4.259   2.495  0.2885 -2.1987 -0.0747
 1497SOL    MW4 6107   0.432   4.260   2.581  0.0143 -0.4168 -0.0489
 1498SOL     OW 6108   0.643   4.370   2.687 -0.9096  0.0236  0.3274
 1498SOL    HW2 6109   0.719   4.321   2.655 -2.0495 -0.9386 -0.9517
 1498SOL    HW3 6110   0.658   4.380   2.781 -0.1444 -1.8478  0.4155
 1498SOL    MW4 6111   0.655   4.365   2.695 -0.9590 -0.3500  0.1705
 1499SOL     OW 6112   1.142   4.640   2.593 -0.2477  0.2623  0.1740
 1499SOL    HW2 6113   1.215   4.681   2.640 -0.2723  0.1299  0.3299
 1499SOL    HW3 6114   1.156   4.546   2.603 -0.6541  0.2391  0.5417
 1499SOL    MW4 6115   1.153   4.633   2.601 -0.3046  0.2418  0.2434
 1500SOL     OW 6116   0.920   0.068   2.718 -0.2002 -0.0202  0.2318
 1500SOL    HW2 6117   1.000   0.028   2.684 -1.1475 -1.0997 -0.7823
 1500SOL    HW3 6118   0.849   0.019   2.676 -1.4026  2.5941 -0.8502
 1500SOL    MW4 6119   0.921   0.056   2.708 -0.4839  0.1823 -0.0446
 1501SOL     OW 6120   0.939   0.320   2.625  0.2924 -0.1831  0.2016
 1501SOL    HW2 6121   0.915   0.228   2.632 -0.6150  0.0013 -0.3229
 1501SOL    HW3 6122   0.939   0.337   2.531  0.3472  0.3839  0.3035
 1501SOL    MW4 6123   0.936   0.310   2.613  0.1799 -0.0840  0.1459
 1502SOL     OW 6124   1.137   0.482   2.729  0.2939  0.1058 -0.1968
 1502SOL    HW2 6125   1.127   0.488   2.824  2.0743 -2.5516  0.2138
 1502SOL    HW3 6126   1.063   0.428   2.701  0.3077  0.0868 -0.1969
 1502SOL    MW4 6127   1.126   0.475   2.738  0.5307 -0.2473 -0.1426
 1503SOL     OW 6128   1.082   0.746   2.635  0.1692  0.4672 -0.0647
 1503SOL    HW2 6129   1.110   0.661   2.667 -0.7314 -0.6365 -2.1035
 1503SOL    HW3 6130   1.100   0.743   2.541  0.4273  2.6579 -0.1042
 1503SOL    MW4 6131   1.088   0.734   2.627  0.0844  0.6106 -0.3388
 1504SOL     OW 6132   0.864   0.904   2.707 -0.2046  0.4262 -0.0461
 1504SOL    HW2 6133   0.870   0.902   2.802 -0.4114 -0.3004 -0.0417
 1504SOL    HW3 6134   0.935   0.846   2.677 -0.6523  0.0047 -0.3043
 1504SOL    MW4 6135   0.874   0.896   2.715 -0.2910  0.2747 -0.0796
 1505SOL     OW 6136   0.886   1.156   2.588 -0.0937 -0.4631 -0.4780
 1505SOL    HW2 6137   0.884   1.068   2.626 -0.3225 -1.0954 -1.9065
 1505SOL    HW3 6138   0.897   1.141   2.494 -1.1744  1.0065 -0.8551
 1505SOL    MW4 6139   0.887   1.143   2.581 -0.2665 -0.3527 -0.7160
 1506SOL     OW 6140   1.126   1.264   2.688  0.1575  0.1867 -0.3363
 1506SOL    HW2 6141   1.194   1.209   2.651 -0.6755  0.3572 -2.1694
 1506SOL    HW3 6142   1.045   1.236   2.644 -0.6187  1.3565  0.3141
 1506SOL    MW4 6143   1.124   1.253   2.677 -0.0548  0.3635 -0.4923
 1507SOL     OW 6144   1.122   1.532   2.637 -0.4284  0.0720  0.4069
 1507SOL    HW2 6145   1.141   1.444   2.669 -0.4010 -0.0382  0.0938
 1507SOL    HW3 6146   1.192   1.587   2.672  0.2536 -0.2596 -0.4236
 1507SOL    MW4 6147   1.133   1.528   2.646 -0.3347  0.0136  0.2561
 1508SOL     OW 6148   0.896   1.669   2.713 -0.0487 -0.2913 -0.4265
 1508SOL    HW2 6149   0.894   1.663   2.809  0.7529 -2.8151 -0.5491
 1508SOL    HW3 6150   0.970   1.615   2.687 -1.2496 -0.9238 -2.5799
 1508SOL    MW4 6151   0.905   1.661   2.722 -0.1014 -0.7079 -0.7269
 1509SOL     OW 6152   0.917   1.918   2.594 -0.4240 -0.5815 -0.0774
 1509SOL    HW2 6153   0.981   1.960   2.652  0.7540 -1.3928 -0.7742
 1509SOL    HW3 6154   0.898   1.834   2.635  0.8345 -1.3995 -1.1259
 1509SOL    MW4 6155   0.923   1.912   2.607 -0.1026 -0.7963 -0.3076
 1510SOL     OW 6156   1.105   2.038   2.749  0.3412 -0.2760  0.2111
 1510SOL    HW2 6157   1.187   1.997   2.722  0.3889 -0.9933  1.3848
 1510SOL    HW3 6158   1.099   2.117   2.696  0.1747 -1.8567 -2.1968
 1510SOL    MW4 6159   1.115   2.043   2.739  0.3256 -0.5791  0.0479
 1511SOL     OW 6160   1.128   2.298   2.626 -0.5036 -0.2978 -0.2628
 1511SOL    HW2 6161   1.216   2.320   2.655 -0.8329  0.4426  0.1934
 1511SOL    HW3 6162   1.131   2.307   2.531 -0.1938  0.0997 -0.2142
 1511SOL    MW4 6163   1.140   2.302   2.617 -0.5060 -0.1478 -0.1960
 1512SOL     OW 6164   0.904   2.409   2.726  0.0000  0.0000 -0.1120
 1512SOL    HW2 6165   0.902   2.499   2.694  0.0000  0.0000 -0.0879
 1512SOL    HW3 6166   0.979   2.370   2.680  0.0000  0.0000 -0.1153
 1512SOL    MW4 6167   0.914   2.416   2.716  0.0000  0.0000 -0.1092
 1513SOL     OW 6168   0.874   2.673   2.616  0.0000  0.0000  0.1068
 1513SOL    HW2 6169   0.947   2.714   2.661  0.0000  0.0000  0.0607
 1513SOL    HW3 6170   0.796   2.710   2.658  0.0000  0.0000  0.1643
 1513SOL    MW4 6171   0.873   2.683   2.627  0.0000  0.0000  0.1085
 1514SOL     OW 6172   1.083   2.832   2.696  0.0000  0.0000 -0.4835
 1514SOL    HW2 6173   1.106   2.825   2.789  0.0000  0.0000 -0.4861
 1514SOL    HW3 6174   1.159   2.795   2.650  0.0000  0.0000 -0.4928
 1514SOL    MW4 6175   1.096   2.826   2.702  0.0000  0.0000 -0.4849
 1515SOL     OW 6176   1.148   3.096   2.605  0.0000  0.0000 -0.2835
 1515SOL    HW2 6177   1.122   3.007   2.627  0.0000  0.0000 -0.2887
 1515SOL    HW3 6178   1.136   3.101   2.510  0.0000  0.0000 -0.2836
 1515SOL    MW4 6179   1.143   3.085   2.595  0.0000  0.0000 -0.2842
 1516SOL     OW 6180   0.919   3.208   2.705  0.0000  0.0000  0.1217
 1516SOL    HW2 6181   0.903   3.287   2.653  0.0000  0.0000  0.1408
 1516SOL    HW3 6182   1.006   3.179   2.678  0.0000  0.0000  0.0919
 1516SOL    MW4 6183   0.928   3.215   2.695  0.0000  0.0000  0.1204
 1517SOL     OW 6184   0.887   3.462   2.595  0.0000  0.0000 -0.3854
 1517SOL    HW2 6185   0.961   3.509   2.636  0.0000  0.0000 -0.3979
 1517SOL    HW3 6186   0.810   3.512   2.622  0.0000  0.0000 -0.3803
 1517SOL    MW4 6187   0.887   3.475   2.604  0.0000  0.0000 -0.3865
 1518SOL     OW 6188   1.102   3.599   2.678  0.0000  0.0000 -0.1302
 1518SOL    HW2 6189   1.101   3.626   2.770  0.0000  0.0000 -0.1307
 1518SOL    HW3 6190   1.100   3.681   2.630  0.0000  0.0000 -0.1316
 1518SOL    MW4 6191   1.102   3.613   2.684  0.0000  0.0000 -0.1307
 1519SOL     OW 6192   1.098   3.851   2.575  0.0000  0.0000  0.3287
 1519SOL    HW2 6193   1.178   3.889   2.613  0.0000  0.0000  0.3301
 1519SOL    HW3 6194   1.110   3.859   2.480  0.0000  0.0000  0.3289
 1519SOL    MW4 6195   1.110   3.857   2.567  0.0000  0.0000  0.3290
 1520SOL     OW 6196   0.893   4.008   2.699  0.0000  0.0000  0.6693
 1520SOL    HW2 6197   0.957   3.963   2.644  0.0000  0.0000  0.6678
 1520SOL    HW3 6198   0.809   3.969   2.673  0.0000  0.0000  0.6757
 1520SOL    MW4 6199   0.890   3.997   2.689  0.0000  0.0000  0.6702
 1521SOL     OW 6200   0.890   4.272   2.611 -0.1320 -0.5506  0.1384
 1521SOL    HW2 6201   0.882   4.183   2.646  0.4165 -0.7519 -0.2410
 1521SOL    HW3 6202   0.887   4.260   2.516 -2.8459  0.1104  0.1034
 1521SOL    MW4 6203   0.888   4.259   2.603 -0.4178 -0.4897  0.0839
 1522SOL     OW 6204   1.154   4.377   2.685 -0.1572  0.1742  0.6517
 1522SOL    HW2 6205   1.156   4.377   2.781  0.1760 -1.6355  0.6739
 1522SOL    HW3 6206   1.072   4.333   2.663  0.3509 -0.5260  0.1250
 1522SOL    MW4 6207   1.143   4.371   2.695 -0.0461 -0.1574  0.5853
 1523SOL     OW 6208   1.623   4.659   2.636 -0.1070  0.2411  0.4413
 1523SOL    HW2 6209   1.634   4.570   2.668  0.0775  0.9661  2.4481
 1523SOL    HW3 6210   1.605   4.649   2.542 -1.9314 -2.0052  0.9830
 1523SOL    MW4 6211   1.622   4.646   2.628 -0.3234  0.0401  0.7777
 1524SOL     OW 6212   1.366   0.073   2.743  0.5842  0.3200 -0.0484
 1524SOL    HW2 6213   1.349   0.148   2.686  0.2962  0.0745 -0.2891
 1524SOL    HW3 6214   1.455   0.047   2.723  0.5232  0.3088 -0.3017
 1524SOL    MW4 6215   1.375   0.079   2.733  0.5380  0.2861 -0.1135
 1525SOL     OW 6216   1.327   0.309   2.618 -0.6283  0.2340 -0.0262
 1525SOL    HW2 6217   1.411   0.352   2.636  0.1457 -0.8054 -1.0915
 1525SOL    HW3 6218   1.261   0.374   2.644  0.5144  1.8283 -1.0178
 1525SOL    MW4 6219   1.330   0.323   2.624 -0.3753  0.3072 -0.2978
 1526SOL     OW 6220   1.561   0.461   2.668  0.8400 -0.4205 -0.1163
 1526SOL    HW2 6221   1.647   0.436   2.636  2.0187  2.2840  0.8693
 1526SOL    HW3 6222   1.549   0.551   2.640 -0.9572 -0.1905  1.2353
 1526SOL    MW4 6223   1.571   0.469   2.660  0.7584 -0.0333  0.1922
 1527SOL     OW 6224   1.547   0.710   2.579 -0.4106 -0.2169  0.1435
 1527SOL    HW2 6225   1.467   0.757   2.603 -0.4400  0.1675 -0.6925
 1527SOL    HW3 6226   1.545   0.706   2.483  0.8027  0.1997  0.0950
 1527SOL    MW4 6227   1.536   0.715   2.569 -0.2544 -0.1112  0.0269
 1528SOL     OW 6228   1.332   0.869   2.695 -0.2043  0.0427  0.2707
 1528SOL    HW2 6229   1.340   0.871   2.790 -0.5856  0.4886  0.2959
 1528SOL    HW3 6230   1.259   0.809   2.678  0.3503 -0.6206  0.2272
 1528SOL    MW4 6231   1.323   0.861   2.705 -0.1814  0.0140  0.2682
 1529SOL     OW 6232   1.323   1.107   2.567 -0.2832 -0.2615  0.4744
 1529SOL    HW2 6233   1.335   1.026   2.617  1.5228 -0.1206  0.2858
 1529SOL    HW3 6234   1.408   1.150   2.571 -0.8915  1.0343 -0.4787
 1529SOL    MW4 6235   1.335   1.102   2.574 -0.1252 -0.0720  0.3238
 1530SOL     OW 6236   1.530   1.251   2.671 -0.4392 -0.0885  0.2940
 1530SOL    HW2 6237   1.530   1.239   2.765  0.0384 -2.0645  0.0688
 1530SOL    HW3 6238   1.612   1.211   2.642 -0.5551  0.5507 -0.9460
 1530SOL    MW4 6239   1.541   1.244   2.679 -0.3914 -0.2649  0.1006
 1531SOL     OW 6240   1.521   1.514   2.633 -0.1658  0.2049  0.2575
 1531SOL    HW2 6241   1.531   1.422   2.658  0.3553  0.0164 -0.6319
 1531SOL    HW3 6242   1.536   1.516   2.539 -0.0009  1.2265  0.2913
 1531SOL    MW4 6243   1.524   1.502   2.624 -0.0753  0.3147  0.1442
 1532SOL     OW 6244   1.330   1.653   2.746 -0.0580  0.2723 -0.0935
 1532SOL    HW2 6245   1.402   1.602   2.710  1.8224  2.4962  0.3794
 1532SOL    HW3 6246   1.326   1.629   2.838  1.0057  1.1665  0.1910
 1532SOL    MW4 6247   1.339   1.643   2.753  0.3303  0.6835  0.0062
 1533SOL     OW 6248   1.306   1.905   2.615  0.2358 -0.3699  0.1285
 1533SOL    HW2 6249   1.315   1.824   2.665  2.3738 -0.7952 -0.8812
 1533SOL    HW3 6250   1.376   1.961   2.648 -0.0924  0.3880 -0.4541
 1533SOL    MW4 6251   1.316   1.902   2.626  0.4747 -0.3262 -0.0815
 1534SOL     OW 6252   1.548   2.069   2.669  0.2096 -0.6161 -0.4835
 1534SOL    HW2 6253   1.623   2.015   2.648 -1.1172 -2.5746 -0.3287
 1534SOL    HW3 6254   1.548   2.075   2.765  0.4883 -0.1252 -0.5108
 1534SOL    MW4 6255   1.558   2.063   2.679  0.0714 -0.8097 -0.4666
 1535SOL     OW 6256   1.618   2.308   2.570  0.3767  0.0150  0.4167
 1535SOL    HW2 6257   1.541   2.364   2.578  0.9870  0.7810  1.2014
 1535SOL    HW3 6258   1.596   2.230   2.620  0.5071  0.6966  1.5666
 1535SOL    MW4 6259   1.605   2.305   2.578  0.4746  0.2060  0.6719
 1536SOL     OW 6260   1.386   2.439   2.659  0.3631 -0.2374 -0.3377
 1536SOL    HW2 6261   1.370   2.533   2.647  0.1704 -0.4460 -1.8302
 1536SOL    HW3 6262   1.385   2.426   2.754  1.0704  1.3913 -0.0954
 1536SOL    MW4 6263   1.384   2.450   2.670  0.4311 -0.0498 -0.5028
 1537SOL     OW 6264   1.336   2.725   2.596  0.5670 -0.2401 -0.5628
 1537SOL    HW2 6265   1.411   2.771   2.632 -0.6504  2.1815 -1.0013
 1537SOL    HW3 6266   1.353   2.719   2.502  1.2467 -1.7325 -0.3567
 1537SOL    MW4 6267   1.348   2.730   2.588  0.4960 -0.1175 -0.5937
 1538SOL     OW 6268   1.580   2.860   2.672  0.2377  0.7407  0.3061
 1538SOL    HW2 6269   1.579   2.859   2.768  0.6709  1.5765  0.3263
 1538SOL    HW3 6270   1.653   2.802   2.649  0.5088  0.9963  0.5013
 1538SOL    MW4 6271   1.590   2.853   2.682  0.3306  0.8848  0.3345
 1539SOL     OW 6272   1.592   3.112   2.562 -0.0654 -0.5186 -0.0073
 1539SOL    HW2 6273   1.657   3.164   2.609  0.0070 -1.8962  1.4575
 1539SOL    HW3 6274   1.595   3.026   2.604 -1.3152 -1.2271 -1.3355
 1539SOL    MW4 6275   1.601   3.108   2.574 -0.2207 -0.7939  0.0107
 1540SOL     OW 6276   1.374   3.226   2.702  0.4864  0.2367  0.0076
 1540SOL    HW2 6277   1.453   3.188   2.666 -0.1703  0.3203 -1.5394
 1540SOL    HW3 6278   1.303   3.174   2.666 -0.2072  0.5415  0.9014
 1540SOL    MW4 6279   1.375   3.214   2.693  0.3083  0.2880 -0.0787
 1541SOL     OW 6280   1.328   3.460   2.576 -0.0715  0.6551  0.6196
 1541SOL    HW2 6281   1.334   3.379   2.627 -0.2170 -0.2375 -0.7427
 1541SOL    HW3 6282   1.252   3.505   2.612 -1.2529 -0.8096  0.0462
 1541SOL    MW4 6283   1.318   3.455   2.588 -0.2465  0.3440  0.3643
 1542SOL     OW 6284   1.560   3.596   2.680 -0.3583 -0.0379  0.1833
 1542SOL    HW2 6285   1.648   3.561   2.668  0.0285  1.2148 -0.7931
 1542SOL    HW3 6286   1.503   3.534   2.636 -0.0616 -1.3657  1.6537
 1542SOL    MW4 6287   1.564   3.583   2.673 -0.2682 -0.0477  0.2484
 1543SOL     OW 6288   1.553   3.867   2.616 -0.0779 -0.5973  0.1993
 1543SOL    HW2 6289   1.464   3.898   2.634 -0.3530 -1.6370  0.7003
 1543SOL    HW3 6290   1.551   3.774   2.641  1.4904 -0.3246  1.4074
 1543SOL    MW4 6291   1.541   3.859   2.622  0.0926 -0.6983  0.4249
 1544SOL     OW 6292   1.321   3.991   2.700 -0.0427  0.4455 -0.0498
 1544SOL    HW2 6293   1.322   4.009   2.794  0.1285  1.5245 -0.2578
 1544SOL    HW3 6294   1.350   4.072   2.659  0.3549 -0.1731 -1.0195
 1544SOL    MW4 6295   1.325   4.004   2.707  0.0323  0.5059 -0.2053
 1545SOL     OW 6296   1.381   4.268   2.572  0.3072  0.1858  0.5387
 1545SOL    HW2 6297   1.305   4.317   2.603  0.4473  0.0022  1.1661
 1545SOL    HW3 6298   1.369   4.265   2.477  0.2332  1.3331  0.4982
 1545SOL    MW4 6299   1.369   4.274   2.563  0.3159  0.3133  0.6163
 1546SOL     OW 6300   1.602   4.384   2.693 -0.0837  0.1186 -0.1110
 1546SOL    HW2 6301   1.600   4.372   2.788 -0.4979  0.7241 -0.0427
 1546SOL    HW3 6302   1.514   4.364   2.664 -0.2633  1.0291 -0.2279
 1546SOL    MW4 6303   1.590   4.380   2.702 -0.1621  0.3185 -0.1175
 1547SOL     OW 6304   2.075   4.652   2.619 -0.4235 -0.5769 -0.0508
 1547SOL    HW2 6305   2.146   4.712   2.642  0.4858 -1.1370 -1.3231
 1547SOL    HW3 6306   2.071   4.656   2.523 -1.9541 -0.7290  0.0048
 1547SOL    MW4 6307   2.084   4.661   2.609 -0.5054 -0.6709 -0.2115
 1548SOL     OW 6308   1.863   0.129   2.743  0.1576  0.4882  0.0943
 1548SOL    HW2 6309   1.932   0.069   2.713 -0.5461 -0.3952  0.1947
 1548SOL    HW3 6310   1.785   0.099   2.696 -0.5086  0.4318  1.2216
 1548SOL    MW4 6311   1.861   0.117   2.732 -0.0232  0.3642  0.2563
 1549SOL     OW 6312   1.827   0.376   2.620 -0.4846  0.6827  0.7331
 1549SOL    HW2 6313   1.882   0.443   2.661  2.3447 -0.0803 -1.6605
 1549SOL    HW3 6314   1.847   0.296   2.670 -1.4169  0.9173  1.5065
 1549SOL    MW4 6315   1.837   0.374   2.632 -0.2342  0.6129  0.5195
 1550SOL     OW 6316   1.989   0.572   2.737 -0.1346 -0.0272  0.0139
 1550SOL    HW2 6317   2.067   0.529   2.701 -0.4502 -0.0404 -0.6580
 1550SOL    HW3 6318   1.988   0.658   2.695 -1.1174 -0.4552 -0.8672
 1550SOL    MW4 6319   1.999   0.577   2.727 -0.3059 -0.0854 -0.1907
 1551SOL     OW 6320   1.994   0.814   2.616 -0.1320  0.2105  0.1054
 1551SOL    HW2 6321   1.907   0.838   2.646 -0.0375  0.1382  0.4308
 1551SOL    HW3 6322   1.985   0.806   2.521 -0.5781 -0.2237  0.1843
 1551SOL    MW4 6323   1.981   0.816   2.607 -0.1782  0.1436  0.1588
 1552SOL     OW 6324   1.743   0.872   2.692  0.6550 -0.1362  0.0781
 1552SOL    HW2 6325   1.749   0.951   2.638  1.0695  0.5023  1.0533
 1552SOL    HW3 6326   1.673   0.820   2.651  0.8865  0.3868 -1.0010
 1552SOL    MW4 6327   1.735   0.875   2.680  0.7403  0.0171  0.0646
 1553SOL     OW 6328   1.763   1.129   2.591  0.0716  0.3387 -0.0419
 1553SOL    HW2 6329   1.830   1.188   2.623  0.8358  0.0873 -1.1502
 1553SOL    HW3 6330   1.772   1.131   2.496 -0.3111 -1.0500 -0.1274
 1553SOL    MW4 6331   1.773   1.137   2.583  0.1220  0.1223 -0.1993
 1554SOL     OW 6332   1.961   1.281   2.712  0.0420  0.4345  0.5845
 1554SOL    HW2 6333   1.991   1.281   2.803  1.9906  1.7893 -0.0277
 1554SOL    HW3 6334   1.971   1.371   2.683  1.1941 -0.3423 -1.5412
 1554SOL    MW4 6335   1.966   1.293   2.720  0.4511  0.5106  0.2234
 1555SOL     OW 6336   2.019   1.536   2.607 -0.3195  0.1278  0.2487
 1555SOL    HW2 6337   1.942   1.589   2.630  0.3863  1.2803  0.0368
 1555SOL    HW3 6338   2.087   1.566   2.668  0.2391 -0.1566 -0.2281
 1555SOL    MW4 6339   2.018   1.547   2.618 -0.1526  0.2424  0.1578
 1556SOL     OW 6340   1.768   1.673   2.673 -0.3409 -0.4785 -0.0260
 1556SOL    HW2 6341   1.779   1.670   2.769 -0.9833 -0.8685  0.0452
 1556SOL    HW3 6342   1.699   1.609   2.656  0.2230 -0.8774 -0.8229
 1556SOL    MW4 6343   1.760   1.664   2.684 -0.3512 -0.5826 -0.1218
 1557SOL     OW 6344   1.778   1.938   2.557  0.5027 -0.1728  0.2348
 1557SOL    HW2 6345   1.858   1.977   2.592  0.7673  0.3785 -0.9684
 1557SOL    HW3 6346   1.774   1.851   2.597  0.8847  0.3787  1.4998
 1557SOL    MW4 6347   1.788   1.932   2.567  0.5882 -0.0273  0.2429
 1558SOL     OW 6348   1.985   2.056   2.697 -0.3024  0.3936 -0.0272
 1558SOL    HW2 6349   1.975   2.059   2.792 -0.4710 -0.6071 -0.0101
 1558SOL    HW3 6350   2.017   2.143   2.674  2.2213 -0.1482  1.2495
 1558SOL    MW4 6351   1.988   2.068   2.706  0.0083  0.1900  0.1433
 1559SOL     OW 6352   2.060   2.304   2.619  0.2016  0.1705  0.0677
 1559SOL    HW2 6353   2.135   2.332   2.671  1.2105  0.4947 -1.5359
 1559SOL    HW3 6354   1.988   2.360   2.649  0.7621  0.3459  1.1089
 1559SOL    MW4 6355   2.061   2.315   2.630  0.4089  0.2363 -0.0067
 1560SOL     OW 6356   1.834   2.471   2.655 -0.7247 -0.6855 -0.2508
 1560SOL    HW2 6357   1.822   2.466   2.749 -0.0215  0.7686 -0.0640
 1560SOL    HW3 6358   1.768   2.412   2.619 -0.1345 -2.2491  1.1876
 1560SOL    MW4 6359   1.824   2.463   2.662 -0.5541 -0.7000 -0.0362
 1561SOL     OW 6360   1.801   2.734   2.584  0.0723 -0.0593 -0.3117
 1561SOL    HW2 6361   1.812   2.648   2.626 -0.8754 -0.0650 -0.0582
 1561SOL    HW3 6362   1.820   2.718   2.492  0.7163 -0.3685 -0.1256
 1561SOL    MW4 6363   1.805   2.721   2.578  0.0321 -0.1006 -0.2537
 1562SOL     OW 6364   2.034   2.891   2.652  0.2401 -0.7147 -0.1678
 1562SOL    HW2 6365   2.027   2.902   2.747  1.2417 -2.5450  0.1509
 1562SOL    HW3 6366   1.947   2.860   2.625 -0.2972  0.6092  0.0216
 1562SOL    MW4 6367   2.021   2.888   2.661  0.3016 -0.7818 -0.1006
 1563SOL     OW 6368   2.015   3.154   2.578 -0.3692  0.1046 -0.9145
 1563SOL    HW2 6369   2.047   3.070   2.611  2.2356  0.9018 -1.2463
 1563SOL    HW3 6370   2.033   3.150   2.484 -0.8855  0.7562 -1.0407
 1563SOL    MW4 6371   2.022   3.142   2.570 -0.0932  0.2959 -0.9747
 1564SOL     OW 6372   1.771   3.227   2.714 -0.3828 -0.1434  0.3214
 1564SOL    HW2 6373   1.769   3.321   2.692 -1.2349  0.3038  2.2591
 1564SOL    HW3 6374   1.843   3.193   2.661  1.1655  1.9785  0.9689
 1564SOL    MW4 6375   1.781   3.235   2.704 -0.2909  0.1955  0.6626
 1565SOL     OW 6376   1.802   3.475   2.627  0.1753 -0.4819  0.5469
 1565SOL    HW2 6377   1.878   3.519   2.667  0.2970 -0.4165  0.2451
 1565SOL    HW3 6378   1.813   3.490   2.533  0.4596 -1.5550  0.4051
 1565SOL    MW4 6379   1.814   3.483   2.620  0.2289 -0.6146  0.4885
 1566SOL     OW 6380   1.998   3.652   2.707  0.6260 -0.1771 -0.0869
 1566SOL    HW2 6381   1.984   3.639   2.801 -1.6128  0.1226 -0.3524
 1566SOL    HW3 6382   2.071   3.594   2.686 -0.1449 -1.7724  1.4567
 1566SOL    MW4 6383   2.006   3.642   2.717  0.2289 -0.3483  0.0818
 1567SOL     OW 6384   1.997   3.909   2.579 -0.4891 -0.2005 -0.2066
 1567SOL    HW2 6385   1.929   3.947   2.634 -0.5668 -1.2930  0.4611
 1567SOL    HW3 6386   1.999   3.817   2.604  1.2489 -0.1768 -0.1948
 1567SOL    MW4 6387   1.988   3.902   2.590 -0.2700 -0.3417 -0.1171
 1568SOL     OW 6388   1.785   3.984   2.727  0.1946  0.1771  0.1282
 1568SOL    HW2 6389   1.789   4.076   2.703 -0.1429  0.6396  1.7764
 1568SOL    HW3 6390   1.701   3.953   2.693 -0.0499  0.6919  0.2570
 1568SOL    MW4 6391   1.775   3.992   2.720  0.1178  0.3064  0.3626
 1569SOL     OW 6392   1.825   4.253   2.620 -0.1893 -0.3635  0.2086
 1569SOL    HW2 6393   1.740   4.291   2.643 -0.2365 -0.5643  0.3661
 1569SOL    HW3 6394   1.832   4.265   2.525  0.9074  2.3104  0.5812
 1569SOL    MW4 6395   1.815   4.260   2.610 -0.0508 -0.0372  0.2785
 1570SOL     OW 6396   2.020   4.424   2.769 -0.2814  0.0153 -0.3283
 1570SOL    HW2 6397   1.950   4.382   2.720  0.2508 -1.3294  0.0497
 1570SOL    HW3 6398   2.050   4.495   2.712 -1.2634 -0.0283 -0.9156
 1570SOL    MW4 6399   2.015   4.428   2.755 -0.3409 -0.1678 -0.3560
 1571SOL     OW 6400   2.430   0.015   2.607 -0.9925  0.0738 -0.3109
 1571SOL    HW2 6401   2.508   0.056   2.645 -1.8213  1.6520 -0.2704
 1571SOL    HW3 6402   2.447   0.015   2.513  0.5885 -2.8550 -0.0962
 1571SOL    MW4 6403   2.443   0.020   2.600 -0.8931 -0.1044 -0.2773
 1572SOL     OW 6404   2.245   0.177   2.734  0.2613  0.6211  0.3959
 1572SOL    HW2 6405   2.246   0.152   2.826  1.5598 -0.0415  0.2144
 1572SOL    HW3 6406   2.316   0.126   2.694 -0.4933  0.6576 -1.0302
 1572SOL    MW4 6407   2.255   0.167   2.741  0.3328  0.5385  0.1838
 1573SOL     OW 6408   2.192   0.423   2.631  0.2323 -0.1173  0.1256
 1573SOL    HW2 6409   2.191   0.332   2.660  1.3167 -0.4184 -0.7556
 1573SOL    HW3 6410   2.182   0.418   2.536  0.0646  0.6995  0.0942
 1573SOL    MW4 6411   2.191   0.410   2.622  0.3533 -0.0493  0.0048
 1574SOL     OW 6412   2.468   0.506   2.664 -0.4308 -0.3876 -0.7579
 1574SOL    HW2 6413   2.474   0.598   2.641  0.2751 -0.2711 -0.1466
 1574SOL    HW3 6414   2.380   0.480   2.638 -0.9214  0.6655 -0.1882
 1574SOL    MW4 6415   2.457   0.514   2.658 -0.4027 -0.2334 -0.6020
 1575SOL     OW 6416   2.456   0.777   2.603  0.2371  0.0074  0.1827
 1575SOL    HW2 6417   2.377   0.830   2.616  0.4396  0.8169 -1.6821
 1575SOL    HW3 6418   2.466   0.774   2.508  2.0172 -0.7550  0.3905
 1575SOL    MW4 6419   2.447   0.784   2.592  0.4985  0.0136 -0.0360
 1576SOL     OW 6420   2.214   0.938   2.693  0.1328 -0.1980 -0.3456
 1576SOL    HW2 6421   2.210   0.930   2.789 -0.5168  1.0280 -0.2660
 1576SOL    HW3 6422   2.136   0.891   2.663  0.4648 -0.7935 -0.3018
 1576SOL    MW4 6423   2.203   0.930   2.702  0.0911 -0.1149 -0.3293
 1577SOL     OW 6424   2.226   1.198   2.613 -0.1983 -0.0194 -0.5448
 1577SOL    HW2 6425   2.235   1.108   2.643 -0.9786  0.0748 -0.0266
 1577SOL    HW3 6426   2.138   1.224   2.639 -0.1021  0.7824 -0.9893
 1577SOL    MW4 6427   2.216   1.190   2.620 -0.2885  0.0988 -0.5352
 1578SOL     OW 6428   2.474   1.308   2.754  0.0101 -0.0008  0.1025
 1578SOL    HW2 6429   2.542   1.256   2.712 -0.8122 -0.8045 -0.2533
 1578SOL    HW3 6430   2.392   1.268   2.726 -0.5937  0.4319  1.2131
 1578SOL    MW4 6431   2.472   1.296   2.745 -0.1781 -0.0496  0.2019
 1579SOL     OW 6432   2.464   1.560   2.628 -0.0918 -0.2023 -0.3220
 1579SOL    HW2 6433   2.378   1.582   2.663 -0.5880 -0.9941 -1.0115
 1579SOL    HW3 6434   2.483   1.473   2.663  1.5331  0.9525  1.8024
 1579SOL    MW4 6435   2.456   1.551   2.637  0.0575 -0.1544 -0.1328
 1580SOL     OW 6436   2.226   1.660   2.736  0.5181 -0.1851  0.4442
 1580SOL    HW2 6437   2.238   1.677   2.829  0.9481  0.2500  0.3164
 1580SOL    HW3 6438   2.236   1.746   2.695 -1.1745 -0.1211  0.1341
 1580SOL    MW4 6439   2.229   1.674   2.742  0.3514 -0.1192  0.3867
 1581SOL     OW 6440   2.206   1.908   2.620 -0.3245 -0.0113 -0.3282
 1581SOL    HW2 6441   2.128   1.953   2.652 -1.0708 -1.7047  0.2850
 1581SOL    HW3 6442   2.199   1.912   2.524 -0.3535  1.1817 -0.2865
 1581SOL    MW4 6443   2.195   1.914   2.611 -0.4270 -0.0772 -0.2420
 1582SOL     OW 6444   2.460   2.034   2.713 -0.1162 -0.2392  0.6490
 1582SOL    HW2 6445   2.464   2.123   2.677  2.0127  0.4124  2.4161
 1582SOL    HW3 6446   2.373   2.002   2.688 -0.3962  1.8349 -1.1600
 1582SOL    MW4 6447   2.449   2.042   2.705  0.1276  0.1206  0.6435
 1583SOL     OW 6448   2.489   2.297   2.600  0.1579  0.5123  0.3007
 1583SOL    HW2 6449   2.568   2.349   2.614 -0.7832  2.2015 -0.5030
 1583SOL    HW3 6450   2.417   2.352   2.631 -0.8292 -0.5271 -0.0544
 1583SOL    MW4 6451   2.490   2.311   2.606 -0.0966  0.5982  0.1478
 1584SOL     OW 6452   2.278   2.449   2.705  0.1633  0.5722  0.1656
 1584SOL    HW2 6453   2.256   2.540   2.687 -1.3031  0.2190  0.1086
 1584SOL    HW3 6454   2.268   2.439   2.800  0.0106  0.3914  0.1317
 1584SOL    MW4 6455   2.274   2.460   2.715 -0.0501  0.5016  0.1538
 1585SOL     OW 6456   2.257   2.715   2.629 -0.0774  0.2306 -0.2917
 1585SOL    HW2 6457   2.338   2.752   2.663 -0.1231  0.4724 -0.4417
 1585SOL    HW3 6458   2.190   2.782   2.645 -0.2858 -0.0459  0.0068
 1585SOL    MW4 6459   2.259   2.728   2.635 -0.1106  0.2260 -0.2720
 1586SOL     OW 6460   2.478   2.850   2.724  0.1585 -0.2179 -0.3162
 1586SOL    HW2 6461   2.559   2.805   2.699  0.0478 -0.0522 -1.0018
 1586SOL    HW3 6462   2.477   2.849   2.819  0.4539 -1.1480 -0.3202
 1586SOL    MW4 6463   2.488   2.844   2.733  0.1829 -0.3188 -0.4072
 1587SOL     OW 6464   2.479   3.120   2.625  0.2702  0.2620 -0.4190
 1587SOL    HW2 6465   2.476   3.033   2.663  1.7893  0.4540  0.2010
 1587SOL    HW3 6466   2.403   3.165   2.662  0.6788 -0.1385  0.9377
 1587SOL    MW4 6467   2.469   3.115   2.635  0.5243  0.2346 -0.1581
 1588SOL     OW 6468   2.245   3.268   2.689  0.1310 -0.4511  0.4161
 1588SOL    HW2 6469   2.231   3.268   2.784  0.7228 -2.6194  0.5213
 1588SOL    HW3 6470   2.165   3.231   2.653 -0.3460  0.9487  0.0125
 1588SOL    MW4 6471   2.233   3.263   2.697  0.1459 -0.5527  0.3769
 1589SOL     OW 6472   2.218   3.530   2.628  0.3900 -0.3083 -0.4154
 1589SOL    HW2 6473   2.306   3.557   2.655  0.3839 -0.4235 -0.2814
 1589SOL    HW3 6474   2.218   3.435   2.635  0.2796 -0.3146 -0.4929
 1589SOL    MW4 6475   2.230   3.521   2.633  0.3743 -0.3242 -0.4082
 1590SOL     OW 6476   2.479   3.602   2.700 -0.0539 -0.1108 -0.1237
 1590SOL    HW2 6477   2.481   3.608   2.796 -1.9854  1.3583 -0.1372
 1590SOL    HW3 6478   2.487   3.692   2.670  1.4631 -0.6493 -1.3909
 1590SOL    MW4 6479   2.480   3.614   2.709 -0.1085  0.0119 -0.2928
 1591SOL     OW 6480   2.463   3.878   2.619 -0.1772  0.2783 -0.7494
 1591SOL    HW2 6481   2.540   3.932   2.637  0.5528 -1.1858  0.5732
 1591SOL    HW3 6482   2.393   3.919   2.670 -0.6469  2.3951 -2.9710
 1591SOL    MW4 6483   2.464   3.891   2.628 -0.1428  0.3643 -0.8681
 1592SOL     OW 6484   2.232   4.015   2.722 -0.0472 -0.6793  0.0281
 1592SOL    HW2 6485   2.208   4.020   2.815 -1.0582  0.8896 -0.3103
 1592SOL    HW3 6486   2.157   3.972   2.680 -0.7581  0.9923 -0.4603
 1592SOL    MW4 6487   2.219   4.010   2.729 -0.2744 -0.2518 -0.0811
 1593SOL     OW 6488   2.228   4.278   2.635  0.4878 -0.5008  0.3433
 1593SOL    HW2 6489   2.240   4.187   2.663  0.5110 -0.5074  0.3138
 1593SOL    HW3 6490   2.146   4.305   2.676  1.4408  0.0734  1.9058
 1593SOL    MW4 6491   2.219   4.269   2.644  0.6166 -0.4263  0.5453
 1594SOL     OW 6492   2.459   4.422   2.702  0.0097 -0.0820  0.4969
 1594SOL    HW2 6493   2.392   4.369   2.659  2.1387 -0.7017 -2.2187
 1594SOL    HW3 6494   2.438   4.512   2.678 -0.9034 -0.1065  1.1949
 1594SOL    MW4 6495   2.447   4.427   2.693  0.1702 -0.1669  0.2306
 1595SOL     OW 6496   2.930   4.647   2.642  0.1875 -0.1672  0.5628
 1595SOL    HW2 6497   3.024   4.657   2.656 -0.0308  1.5351  0.9029
 1595SOL    HW3 6498   2.918   4.664   2.548  0.1507  0.0659  0.6113
 1595SOL    MW4 6499   2.941   4.650   2.631  0.1538  0.0882  0.6139
 1596SOL     OW 6500   2.685   0.100   2.722  0.0920  0.3114 -0.2825
 1596SOL    HW2 6501   2.688   0.095   2.818 -0.5601  0.9775 -0.2148
 1596SOL    HW3 6502   2.771   0.070   2.693  0.4070  0.4187  0.5280
 1596SOL    MW4 6503   2.697   0.095   2.731  0.0474  0.4135 -0.1667
 1597SOL     OW 6504   2.713   0.362   2.614 -0.2208  0.1505  0.3187
 1597SOL    HW2 6505   2.695   0.274   2.645 -1.9430 -0.0740 -1.2378
 1597SOL    HW3 6506   2.633   0.411   2.632  0.7056  1.4015  1.1393
 1597SOL    MW4 6507   2.700   0.357   2.620 -0.3259  0.2860  0.2217
 1598SOL     OW 6508   2.955   0.495   2.663  0.0351  0.1581  0.4231
 1598SOL    HW2 6509   2.966   0.589   2.650  0.6636 -0.1670 -1.5176
 1598SOL    HW3 6510   2.863   0.479   2.645 -0.1310  0.4449  1.0183
 1598SOL    MW4 6511   2.945   0.505   2.659  0.0961  0.1530  0.2456
 1599SOL     OW 6512   2.926   0.761   2.621 -0.0061 -0.3584  0.1319
 1599SOL    HW2 6513   2.988   0.829   2.648  0.3399 -0.9797  0.9055
 1599SOL    HW3 6514   2.842   0.790   2.656 -0.3628  0.9765 -1.7317
 1599SOL    MW4 6515   2.924   0.774   2.629 -0.0074 -0.2642 -0.0122
 1600SOL     OW 6516   2.687   0.882   2.716 -0.1615 -0.3578 -0.1783
 1600SOL    HW2 6517   2.690   0.867   2.811 -1.6878 -0.4634 -0.1381
 1600SOL    HW3 6518   2.604   0.844   2.688  0.0465  0.1264 -1.4857
 1600SOL    MW4 6519   2.677   0.875   2.725 -0.3357 -0.3079 -0.3457
 1601SOL     OW 6520   2.634   1.144   2.604  0.3008  0.2653  0.1169
 1601SOL    HW2 6521   2.722   1.180   2.618 -0.6387  1.4327  3.6625
 1601SOL    HW3 6522   2.639   1.055   2.638  0.3966 -0.0437 -0.7055
 1601SOL    MW4 6523   2.647   1.137   2.610  0.1895  0.3786  0.4764
 1602SOL     OW 6524   2.893   1.217   2.686  0.0620 -0.3370 -0.0451
 1602SOL    HW2 6525   2.905   1.220   2.781  0.6083  0.8265 -0.1431
 1602SOL    HW3 6526   2.982   1.215   2.650 -0.1178  0.5201 -0.5646
 1602SOL    MW4 6527   2.906   1.217   2.693  0.1104 -0.0705 -0.1268
 1603SOL     OW 6528   2.906   1.498   2.657 -0.7256  0.0580  0.1212
 1603SOL    HW2 6529   2.826   1.548   2.671 -1.0750 -0.9564  1.8842
 1603SOL    HW3 6530   2.883   1.408   2.679  1.1352 -0.0889  1.6726
 1603SOL    MW4 6531   2.893   1.493   2.662 -0.5262 -0.0951  0.5586
 1604SOL     OW 6532   2.698   1.664   2.719  0.3121 -0.1820 -0.2858
 1604SOL    HW2 6533   2.679   1.662   2.813  0.0631  0.1723 -0.3262
 1604SOL    HW3 6534   2.626   1.615   2.679 -0.1396  0.5584 -0.3797
 1604SOL    MW4 6535   2.686   1.657   2.726  0.2196 -0.0377 -0.3035
 1605SOL     OW 6536   2.683   1.901   2.600  0.3108 -0.2599 -0.3174
 1605SOL    HW2 6537   2.683   1.813   2.639 -0.3146 -0.5913 -1.0529
 1605SOL    HW3 6538   2.608   1.944   2.641  1.0725  0.1997  0.6190
 1605SOL    MW4 6539   2.673   1.895   2.611  0.3288 -0.2431 -0.2911
 1606SOL     OW 6540   2.920   2.029   2.641 -0.0924 -0.0885  0.1298
 1606SOL    HW2 6541   2.905   2.119   2.612 -0.0517  0.2733  1.1927
 1606SOL    HW3 6542   2.838   1.984   2.623 -0.4607  0.4162  0.5073
 1606SOL    MW4 6543   2.907   2.035   2.635 -0.1357  0.0260  0.3197
 1607SOL     OW 6544   2.915   2.302   2.602 -0.3294 -0.1765  0.2531
 1607SOL    HW2 6545   3.002   2.324   2.635  0.1751  0.9303 -1.7379
 1607SOL    HW3 6546   2.862   2.378   2.623 -0.1450  0.2908 -0.9387
 1607SOL    MW4 6547   2.920   2.315   2.609 -0.2384  0.0310 -0.1667
 1608SOL     OW 6548   2.698   2.468   2.668  0.4095  0.4840  0.1669
 1608SOL    HW2 6549   2.704   2.467   2.764  0.2385  1.5141  0.1972
 1608SOL    HW3 6550   2.715   2.560   2.645 -1.6287  0.6696 -0.6454
 1608SOL    MW4 6551   2.701   2.480   2.678  0.1180  0.6447  0.0637
 1609SOL     OW 6552   2.720   2.753   2.621 -0.0866  0.4867  0.3859
 1609SOL    HW2 6553   2.783   2.816   2.655  0.5840  0.2521 -0.4045
 1609SOL    HW3 6554   2.739   2.748   2.527 -0.0533 -0.9775  0.4528
 1609SOL    MW4 6555   2.731   2.761   2.613  0.0064  0.2625  0.2906
 1610SOL     OW 6556   2.936   3.146   2.611 -0.4851 -0.0455 -0.2693
 1610SOL    HW2 6557   2.950   3.064   2.659  0.1936  0.1706 -0.0904
 1610SOL    HW3 6558   2.863   3.188   2.656 -0.8190 -0.5467 -0.3494
 1610SOL    MW4 6559   2.928   3.141   2.623 -0.4396 -0.0832 -0.2563
 1611SOL     OW 6560   2.932   3.126   2.333  0.0070 -0.0089  0.1831
 1611SOL    HW2 6561   2.922   3.131   2.428 -0.3759  0.9174  0.1032
 1611SOL    HW3 6562   2.859   3.179   2.299  1.2331  1.2050 -0.5851
 1611SOL    MW4 6563   2.921   3.134   2.341  0.1180  0.2732  0.0710
 1612SOL     OW 6564   2.705   3.252   2.717  0.1982 -0.0821  0.4757
 1612SOL    HW2 6565   2.696   3.336   2.673  1.3258 -0.7764 -1.1201
 1612SOL    HW3 6566   2.630   3.201   2.686  0.9514 -0.5455 -0.6140
 1612SOL    MW4 6567   2.694   3.256   2.707  0.4461 -0.2348  0.1214
 1613SOL     OW 6568   2.724   3.495   2.595 -0.2865  0.1549 -0.5374
 1613SOL    HW2 6569   2.640   3.514   2.638 -0.4168 -1.0863 -0.2002
 1613SOL    HW3 6570   2.708   3.515   2.502 -1.4600 -1.5279 -0.7302
 1613SOL    MW4 6571   2.711   3.500   2.588 -0.4587 -0.2310 -0.5183
 1614SOL     OW 6572   2.938   3.633   2.707 -0.2598 -0.0751  0.2634
 1614SOL    HW2 6573   2.923   3.629   2.801  0.1649  1.4920  0.4120
 1614SOL    HW3 6574   2.866   3.582   2.669 -1.4794  0.7943  1.3526
 1614SOL    MW4 6575   2.927   3.626   2.714 -0.3648  0.2463  0.4265
 1615SOL     OW 6576   2.924   3.897   2.646 -0.0127  0.1475  0.3588
 1615SOL    HW2 6577   3.004   3.934   2.684  0.7922 -0.8122 -0.3922
 1615SOL    HW3 6578   2.926   3.805   2.669 -0.6388  0.0095 -0.1249
 1615SOL    MW4 6579   2.935   3.890   2.654  0.0105  0.0029  0.1960
 1616SOL     OW 6580   2.682   4.034   2.691  0.3927  0.1649 -0.4963
 1616SOL    HW2 6581   2.680   4.118   2.644  0.9851  1.0726  1.0480
 1616SOL    HW3 6582   2.770   4.001   2.678  1.8450  2.2953  3.0726
 1616SOL    MW4 6583   2.693   4.041   2.683  0.6623  0.5660  0.1783
 1617SOL     OW 6584   2.659   4.294   2.568  0.3829 -0.2107  0.1673
 1617SOL    HW2 6585   2.744   4.320   2.603  1.2660 -0.7969 -1.5165
 1617SOL    HW3 6586   2.596   4.340   2.624  1.7924  0.6685  1.0855
 1617SOL    MW4 6587   2.662   4.303   2.580  0.6855 -0.1721  0.0663
 1618SOL     OW 6588   2.905   4.361   2.692 -0.2671  0.2889 -0.1759
 1618SOL    HW2 6589   2.918   4.349   2.786 -0.8658  1.0476  0.0076
 1618SOL    HW3 6590   2.904   4.456   2.680 -1.8798  0.2265 -0.6977
 1618SOL    MW4 6591   2.907   4.372   2.703 -0.5589  0.3810 -0.2208
 1619SOL     OW 6592   3.435   4.601   2.566 -0.4199 -0.1940  0.0142
 1619SOL    HW2 6593   3.429   4.513   2.603  1.4874 -0.2028  0.3529
 1619SOL    HW3 6594   3.351   4.641   2.586 -0.9750 -1.6278  0.6455
 1619SOL    MW4 6595   3.423   4.594   2.573 -0.2415 -0.3839  0.1421
 1620SOL     OW 6596   3.194   0.057   2.675  0.4517 -0.0877 -0.0173
 1620SOL    HW2 6597   3.166   0.065   2.766  0.6969 -0.3697  0.0836
 1620SOL    HW3 6598   3.186   0.145   2.639 -0.9477 -0.2428 -0.0975
 1620SOL    MW4 6599   3.189   0.070   2.682  0.2995 -0.1454 -0.0148
 1621SOL     OW 6600   3.167   0.311   2.577 -0.2263  0.0545  0.0100
 1621SOL    HW2 6601   3.107   0.361   2.631  0.8881  0.2789  1.0598
 1621SOL    HW3 6602   3.139   0.329   2.487 -0.7302  1.4089  0.4282
 1621SOL    MW4 6603   3.156   0.320   2.572 -0.1459  0.2627  0.2034
 1622SOL     OW 6604   3.378   0.487   2.660  0.7733  0.3219 -0.1743
 1622SOL    HW2 6605   3.355   0.566   2.610  1.6469  0.9529  0.4062
 1622SOL    HW3 6606   3.312   0.423   2.634 -1.3561  1.9259  1.1077
 1622SOL    MW4 6607   3.366   0.489   2.650  0.6075  0.6168  0.0715
 1623SOL     OW 6608   3.333   0.768   2.586  0.3822  0.1621  0.0905
 1623SOL    HW2 6609   3.416   0.798   2.624 -0.4858  1.6511  0.8446
 1623SOL    HW3 6610   3.346   0.778   2.491  0.6957  1.4505  0.2503
 1623SOL    MW4 6611   3.346   0.774   2.578  0.3092  0.5286  0.2110
 1624SOL     OW 6612   3.138   0.936   2.707 -0.0014 -0.3562 -0.1941
 1624SOL    HW2 6613   3.155   0.929   2.801 -1.4828 -1.6064 -0.0132
 1624SOL    HW3 6614   3.208   0.885   2.666 -0.1380 -0.9361  0.2910
 1624SOL    MW4 6615   3.149   0.929   2.714 -0.2148 -0.5976 -0.1061
 1625SOL     OW 6616   3.144   1.176   2.570  0.0553 -0.0118 -0.0241
 1625SOL    HW2 6617   3.155   1.087   2.605  0.6967  0.1274  0.1318
 1625SOL    HW3 6618   3.151   1.165   2.475 -1.7191 -0.3937 -0.1268
 1625SOL    MW4 6619   3.147   1.162   2.562 -0.0942 -0.0437 -0.0169
 1626SOL     OW 6620   3.380   1.271   2.705  0.1238  0.3189  0.1572
 1626SOL    HW2 6621   3.373   1.277   2.800 -1.6562 -2.1969  0.2250
 1626SOL    HW3 6622   3.297   1.234   2.677  0.6294  1.0272 -2.4094
 1626SOL    MW4 6623   3.368   1.267   2.714 -0.0443  0.0805 -0.1724
 1627SOL     OW 6624   3.368   1.537   2.595 -0.6983  0.3827 -0.1173
 1627SOL    HW2 6625   3.301   1.573   2.653 -1.7993 -1.3575 -0.2743
 1627SOL    HW3 6626   3.372   1.444   2.616  1.3124  0.3546 -0.4852
 1627SOL    MW4 6627   3.360   1.530   2.605 -0.5784  0.1494 -0.1867
 1628SOL     OW 6628   3.154   1.638   2.727  0.1441  0.0282  0.0990
 1628SOL    HW2 6629   3.152   1.723   2.684  0.6379  0.9173  1.7999
 1628SOL    HW3 6630   3.066   1.602   2.713 -0.0669  0.8162 -0.6239
 1628SOL    MW4 6631   3.142   1.645   2.720  0.1814  0.2495  0.2284
 1629SOL     OW 6632   3.132   1.878   2.596  0.0931  0.4672  0.2004
 1629SOL    HW2 6633   3.200   1.929   2.639  0.6931 -0.3168  0.1902
 1629SOL    HW3 6634   3.052   1.929   2.609  0.6596  1.3359  0.3025
 1629SOL    MW4 6635   3.130   1.892   2.603  0.2470  0.4783  0.2127
 1630SOL     OW 6636   3.330   2.048   2.685  0.2948  0.0595 -0.1696
 1630SOL    HW2 6637   3.324   2.039   2.780  0.2038  0.6961 -0.1137
 1630SOL    HW3 6638   3.362   2.137   2.671  1.1283 -0.3151 -0.7127
 1630SOL    MW4 6639   3.333   2.059   2.696  0.3927  0.0939 -0.2341
 1631SOL     OW 6640   3.380   2.307   2.607 -0.0566 -0.0184  0.3368
 1631SOL    HW2 6641   3.464   2.352   2.618 -0.4555  0.7581  0.1771
 1631SOL    HW3 6642   3.373   2.294   2.512  0.5695 -1.3969  0.4649
 1631SOL    MW4 6643   3.390   2.311   2.596 -0.0267 -0.0978  0.3328
 1632SOL     OW 6644   3.114   2.713   2.616 -0.1267  0.1242 -0.7466
 1632SOL    HW2 6645   3.199   2.753   2.635  0.2594 -1.3693  0.8413
 1632SOL    HW3 6646   3.128   2.619   2.629 -2.3510 -0.0300  0.9048
 1632SOL    MW4 6647   3.127   2.706   2.620 -0.3693 -0.0930 -0.3190
 1633SOL     OW 6648   2.935   2.905   2.714  0.0196 -0.1648  0.1441
 1633SOL    HW2 6649   2.984   2.829   2.683 -0.8356 -0.8091  0.3736
 1633SOL    HW3 6650   2.921   2.889   2.807 -1.8395 -0.6640 -0.1955
 1633SOL    MW4 6651   2.940   2.893   2.722 -0.3386 -0.3159  0.1295
 1634SOL     OW 6652   3.375   2.850   2.690 -0.6711 -0.1377  0.0861
 1634SOL    HW2 6653   3.396   2.851   2.784  3.0294  0.9572 -0.6695
 1634SOL    HW3 6654   3.441   2.792   2.652 -0.7750  1.1725 -2.1330
 1634SOL    MW4 6655   3.386   2.842   2.698 -0.1967  0.1795 -0.3066
 1635SOL     OW 6656   3.399   3.109   2.574  0.2514 -0.1824 -0.4811
 1635SOL    HW2 6657   3.386   3.019   2.604  1.4245 -0.3119 -0.3376
 1635SOL    HW3 6658   3.398   3.103   2.479  0.2370 -0.3317 -0.4722
 1635SOL    MW4 6659   3.397   3.097   2.566  0.4044 -0.2193 -0.4606
 1636SOL     OW 6660   3.189   3.226   2.722  0.5009  0.5325 -0.2623
 1636SOL    HW2 6661   3.276   3.211   2.686 -0.0219  0.5996 -1.5854
 1636SOL    HW3 6662   3.129   3.182   2.661 -0.3530  0.0087  0.9357
 1636SOL    MW4 6663   3.192   3.218   2.709  0.3195  0.4723 -0.2787
 1637SOL     OW 6664   3.175   3.488   2.617 -0.1472  0.1964 -0.2223
 1637SOL    HW2 6665   3.160   3.397   2.642 -1.3038  0.6023  0.5863
 1637SOL    HW3 6666   3.103   3.537   2.657  0.5561  1.4966 -0.4898
 1637SOL    MW4 6667   3.164   3.483   2.626 -0.2067  0.4215 -0.1509
 1638SOL     OW 6668   3.431   3.589   2.693  0.4532  0.2229 -0.1328
 1638SOL    HW2 6669   3.438   3.594   2.788 -0.5627  0.4853 -0.0670
 1638SOL    HW3 6670   3.343   3.555   2.677  1.0430 -0.9302 -0.9562
 1638SOL    MW4 6671   3.420   3.585   2.703  0.3970  0.1054 -0.2327
 1639SOL     OW 6672   3.346   3.862   2.591 -0.0962 -0.2428  0.1601
 1639SOL    HW2 6673   3.367   3.772   2.617  2.0976 -0.1518 -1.1871
 1639SOL    HW3 6674   3.353   3.863   2.496 -1.2635  1.0875  0.0616
 1639SOL    MW4 6675   3.349   3.851   2.582  0.0393 -0.0553 -0.0308
 1640SOL     OW 6676   3.177   4.017   2.736  0.4310 -0.1286  0.2884
 1640SOL    HW2 6677   3.163   4.104   2.698 -1.7997 -0.6606 -0.2153
 1640SOL    HW3 6678   3.236   3.973   2.675  1.8131  1.1307  0.7085
 1640SOL    MW4 6679   3.183   4.023   2.723  0.3188 -0.0324  0.2773
 1641SOL     OW 6680   3.151   4.262   2.619  0.1131  0.4564 -0.0100
 1641SOL    HW2 6681   3.064   4.293   2.642 -0.6464 -1.4992 -0.1217
 1641SOL    HW3 6682   3.146   4.245   2.524 -0.1451 -1.9412  0.4043
 1641SOL    MW4 6683   3.139   4.264   2.609 -0.0210 -0.1183  0.0300
 1642SOL     OW 6684   3.412   4.353   2.685  0.0402 -0.2204 -0.0765
 1642SOL    HW2 6685   3.416   4.361   2.781 -1.1284 -0.6558  0.0280
 1642SOL    HW3 6686   3.318   4.343   2.667  0.2828 -0.3815 -1.2463
 1642SOL    MW4 6687   3.400   4.353   2.696 -0.0820 -0.2985 -0.2174
 1643SOL     OW 6688   3.813   4.638   2.580  0.3945 -0.0809  0.1618
 1643SOL    HW2 6689   3.820   4.552   2.621  0.8768  0.3388  0.9652
 1643SOL    HW3 6690   3.741   4.681   2.627 -0.6174 -0.4721 -1.0128
 1643SOL    MW4 6691   3.804   4.632   2.591  0.3245 -0.0763  0.1128
 1644SOL     OW 6692   3.624   0.066   2.746 -0.0844  0.1493 -0.0527
 1644SOL    HW2 6693   3.605   0.151   2.705  0.9024 -0.6502 -2.2399
 1644SOL    HW3 6694   3.561   0.006   2.706  1.1236 -0.7234 -0.6699
 1644SOL    MW4 6695   3.613   0.070   2.735  0.2053 -0.0713 -0.4225
 1645SOL     OW 6696   3.598   0.317   2.609 -0.4559  0.0208 -0.2997
 1645SOL    HW2 6697   3.673   0.370   2.635 -0.1816 -1.2353  1.5154
 1645SOL    HW3 6698   3.522   0.375   2.621  0.1519  1.1082 -1.6196
 1645SOL    MW4 6699   3.598   0.332   2.614 -0.3395 -0.0015 -0.2346
 1646SOL     OW 6700   3.803   0.497   2.671  0.1333  0.3891 -0.0941
 1646SOL    HW2 6701   3.808   0.496   2.766 -1.6404 -1.2373  0.0084
 1646SOL    HW3 6702   3.887   0.459   2.642 -0.0711 -0.8204  0.8728
 1646SOL    MW4 6703   3.815   0.492   2.680 -0.1276  0.0150  0.0472
 1647SOL     OW 6704   3.786   0.740   2.552 -0.3560  0.5921  0.1012
 1647SOL    HW2 6705   3.703   0.768   2.591  0.2784 -0.1438  2.0368
 1647SOL    HW3 6706   3.804   0.654   2.592  2.4641  1.7475  1.4619
 1647SOL    MW4 6707   3.778   0.732   2.563  0.0997  0.6474  0.5360
 1648SOL     OW 6708   3.583   0.849   2.691 -0.6704  0.3636 -0.7293
 1648SOL    HW2 6709   3.577   0.855   2.786  3.1427 -0.8233 -0.3141
 1648SOL    HW3 6710   3.604   0.938   2.662 -1.2614  0.6112 -0.3881
 1648SOL    MW4 6711   3.585   0.861   2.700 -0.2453  0.2397 -0.6299
 1649SOL     OW 6712   3.609   1.100   2.609 -0.6791  0.0462 -0.5066
 1649SOL    HW2 6713   3.685   1.148   2.643  0.1247 -0.8628 -1.0181
 1649SOL    HW3 6714   3.535   1.136   2.658 -0.0348  1.5131 -0.5768
 1649SOL    MW4 6715   3.610   1.111   2.620 -0.4878  0.1199 -0.5834
 1650SOL     OW 6716   3.824   1.245   2.713  0.3400 -0.1893  0.9528
 1650SOL    HW2 6717   3.909   1.209   2.688  0.6709 -0.5401  2.5328
 1650SOL    HW3 6718   3.824   1.334   2.677  1.1571 -0.3688  0.5006
 1650SOL    MW4 6719   3.835   1.252   2.705  0.4914 -0.2592  1.1015
 1651SOL     OW 6720   3.822   1.515   2.636 -0.5226  0.7137 -0.2286
 1651SOL    HW2 6721   3.896   1.572   2.654 -0.5083  0.3427  0.9056
 1651SOL    HW3 6722   3.745   1.567   2.658 -0.4955  0.1743  1.1765
 1651SOL    MW4 6723   3.822   1.529   2.641 -0.5171  0.5937  0.1063
 1652SOL     OW 6724   3.601   1.658   2.703  0.1900  0.1896 -0.1791
 1652SOL    HW2 6725   3.597   1.750   2.676 -0.8361 -0.0490 -0.8361
 1652SOL    HW3 6726   3.525   1.617   2.662  0.3865 -0.8601  0.4866
 1652SOL    MW4 6727   3.591   1.665   2.694  0.0803  0.0197 -0.1779
 1653SOL     OW 6728   3.583   1.930   2.631  0.5101  0.8155  0.0437
 1653SOL    HW2 6729   3.495   1.962   2.650  0.3104  0.2979 -0.0253
 1653SOL    HW3 6730   3.590   1.931   2.536  0.5801  0.8496  0.0485
 1653SOL    MW4 6731   3.572   1.934   2.621  0.4930  0.7517  0.0350
 1654SOL     OW 6732   3.817   2.038   2.721  0.1188 -0.3937  0.1407
 1654SOL    HW2 6733   3.888   1.992   2.677  0.8017 -1.0256  1.8583
 1654SOL    HW3 6734   3.738   1.994   2.690  0.4371  0.4389 -1.9234
 1654SOL    MW4 6735   3.816   2.026   2.712  0.2508 -0.3674  0.0949
 1655SOL     OW 6736   3.840   2.285   2.618  0.5473  0.1352  0.3005
 1655SOL    HW2 6737   3.819   2.195   2.643 -1.0752  0.3133 -0.3209
 1655SOL    HW3 6738   3.832   2.285   2.522 -0.4065  1.1419  0.3660
 1655SOL    MW4 6739   3.836   2.273   2.608  0.2077  0.2913  0.2272
 1656SOL     OW 6740   3.598   2.436   2.701  0.2732  0.1392  0.2449
 1656SOL    HW2 6741   3.575   2.413   2.791  0.1865  1.1217  0.4788
 1656SOL    HW3 6742   3.680   2.388   2.684  0.6460  0.4669  1.0737
 1656SOL    MW4 6743   3.606   2.426   2.711  0.3111  0.3121  0.3848
 1657SOL     OW 6744   3.592   2.699   2.615  0.1611  0.1970 -0.0503
 1657SOL    HW2 6745   3.584   2.610   2.650  0.3476  0.2998  0.2598
 1657SOL    HW3 6746   3.589   2.688   2.520  1.3283 -0.2613 -0.0434
 1657SOL    MW4 6747   3.590   2.686   2.607  0.3397  0.1504 -0.0086
 1658SOL     OW 6748   3.817   2.831   2.736  0.2286  0.2511 -0.2851
 1658SOL    HW2 6749   3.890   2.779   2.701  0.7854  1.2311 -0.5871
 1658SOL    HW3 6750   3.739   2.789   2.700  0.6789 -0.2666 -0.6770
 1658SOL    MW4 6751   3.816   2.818   2.727  0.3614  0.3123 -0.3765
 1659SOL     OW 6752   3.830   3.106   2.626  0.3748  0.0511  0.2526
 1659SOL    HW2 6753   3.754   3.150   2.664  0.9987  1.1496  0.2284
 1659SOL    HW3 6754   3.836   3.023   2.675 -0.0756  0.5202  1.1206
 1659SOL    MW4 6755   3.821   3.101   2.638  0.3977  0.2577  0.3641
 1660SOL     OW 6756   3.615   3.230   2.718 -0.7111  0.1014 -0.6298
 1660SOL    HW2 6757   3.636   3.312   2.673 -0.2899  0.8710  0.9587
 1660SOL    HW3 6758   3.536   3.199   2.673 -1.0011  1.4712 -1.1150
 1660SOL    MW4 6759   3.607   3.237   2.706 -0.6936  0.3836 -0.4840
 1661SOL     OW 6760   3.642   3.471   2.578 -0.4885 -0.4286  0.0708
 1661SOL    HW2 6761   3.719   3.498   2.628 -0.5784 -0.4734  0.2335
 1661SOL    HW3 6762   3.568   3.513   2.623 -0.4864  0.2045 -0.5161
 1661SOL    MW4 6763   3.642   3.480   2.591 -0.5000 -0.3505  0.0148
 1662SOL     OW 6764   3.833   3.610   2.728 -0.2592  0.0002  0.4375
 1662SOL    HW2 6765   3.913   3.566   2.699 -1.2343 -0.3749 -1.7883
 1662SOL    HW3 6766   3.830   3.690   2.676 -1.1620  0.1760  0.7555
 1662SOL    MW4 6767   3.843   3.615   2.717 -0.5066 -0.0260  0.1857
 1663SOL     OW 6768   3.799   3.843   2.576  0.3141  0.1812  0.1121
 1663SOL    HW2 6769   3.880   3.891   2.597  0.2955  0.4033 -0.3130
 1663SOL    HW3 6770   3.730   3.891   2.622  0.7057 -1.3384  2.3500
 1663SOL    MW4 6771   3.801   3.856   2.585  0.3631  0.0098  0.3512
 1664SOL     OW 6772   3.601   3.959   2.750 -0.3632  0.0205  0.6094
 1664SOL    HW2 6773   3.622   4.045   2.715  0.9379 -0.2227  0.7964
 1664SOL    HW3 6774   3.515   3.938   2.712 -0.1606  0.8863 -0.3424
 1664SOL    MW4 6775   3.592   3.967   2.741 -0.1647  0.1028  0.5085
 1665SOL     OW 6776   3.618   4.201   2.593  0.1863  0.2703  0.0339
 1665SOL    HW2 6777   3.543   4.248   2.628  1.9752  1.8518  1.8643
 1665SOL    HW3 6778   3.599   4.191   2.499 -2.3433  0.5008  0.4989
 1665SOL    MW4 6779   3.606   4.206   2.585  0.0885  0.5088  0.3366
 1666SOL     OW 6780   3.825   4.360   2.686  0.5979  0.1753 -0.1252
 1666SOL    HW2 6781   3.901   4.321   2.643 -0.3763 -0.4958 -1.2666
 1666SOL    HW3 6782   3.750   4.309   2.655 -0.3747  1.0721  0.6697
 1666SOL    MW4 6783   3.825   4.348   2.677  0.3412  0.2055 -0.1712
 1667SOL     OW 6784   4.319   4.638   2.619  0.0719 -0.2505  0.0107
 1667SOL    HW2 6785   4.251   4.682   2.670 -0.0482 -0.2618 -0.1401
 1667SOL    HW3 6786   4.399   4.687   2.640 -0.0957  0.1718 -0.3156
 1667SOL    MW4 6787   4.321   4.650   2.628  0.0343 -0.1960 -0.0520
 1668SOL     OW 6788   4.066   0.072   2.676  0.0439 -0.5332 -0.0577
 1668SOL    HW2 6789   4.057   0.080   2.771 -1.1517  0.0336 -0.2025
 1668SOL    HW3 6790   3.980   0.042   2.647  0.4199 -0.7486 -0.9612
 1668SOL    MW4 6791   4.053   0.069   2.685 -0.0644 -0.4868 -0.1960
 1669SOL     OW 6792   4.020   0.342   2.573 -0.0554  0.3084  0.8241
 1669SOL    HW2 6793   4.037   0.251   2.600 -1.9813 -0.5518 -0.7507
 1669SOL    HW3 6794   4.057   0.348   2.485  0.5237  1.2205  1.1224
 1669SOL    MW4 6795   4.027   0.330   2.565 -0.2327  0.3152  0.6557
 1670SOL     OW 6796   4.480   0.384   2.594  0.1153 -0.2058  0.6178
 1670SOL    HW2 6797   4.408   0.419   2.645  0.8758  1.4457  0.5898
 1670SOL    HW3 6798   4.557   0.433   2.624  0.6498  0.4732 -1.7770
 1670SOL    MW4 6799   4.481   0.395   2.605  0.2856  0.1017  0.2983
 1671SOL     OW 6800   4.229   0.749   2.632 -0.2084 -0.1481 -0.3380
 1671SOL    HW2 6801   4.236   0.661   2.670  0.7271  0.1355  0.1747
 1671SOL    HW3 6802   4.303   0.797   2.670 -0.6515  0.8291 -0.6961
 1671SOL    MW4 6803   4.240   0.744   2.642 -0.1431  0.0182 -0.3176
 1672SOL     OW 6804   3.997   0.870   2.715  0.0936 -0.4251 -0.0627
 1672SOL    HW2 6805   4.070   0.810   2.698 -0.3939 -0.7100 -1.2053
 1672SOL    HW3 6806   3.923   0.832   2.667 -0.0098  1.5046 -1.4949
 1672SOL    MW4 6807   3.997   0.857   2.706  0.0160 -0.2081 -0.4022
 1673SOL     OW 6808   4.053   1.129   2.625 -0.6528 -0.3302  0.4356
 1673SOL    HW2 6809   4.122   1.168   2.679 -1.1287 -0.1251  0.8920
 1673SOL    HW3 6810   4.043   1.040   2.660 -0.7745 -0.2881  0.5050
 1673SOL    MW4 6811   4.061   1.122   2.636 -0.7310 -0.2975  0.5050
 1674SOL     OW 6812   4.247   1.296   2.777  0.2799 -0.0438  0.5472
 1674SOL    HW2 6813   4.251   1.378   2.728  0.1973 -0.0172  0.5854
 1674SOL    HW3 6814   4.326   1.249   2.751  0.1205 -0.1290  0.2115
 1674SOL    MW4 6815   4.258   1.300   2.767  0.2480 -0.0515  0.5078
 1675SOL     OW 6816   4.242   1.538   2.622 -0.0473  0.1125  0.0491
 1675SOL    HW2 6817   4.329   1.573   2.642  0.4845 -0.6429 -0.9155
 1675SOL    HW3 6818   4.239   1.535   2.527 -1.5301  1.0959  0.0411
 1675SOL    MW4 6819   4.253   1.542   2.612 -0.1726  0.1426 -0.0794
 1676SOL     OW 6820   4.025   1.664   2.730  0.1214 -0.4989 -0.2071
 1676SOL    HW2 6821   4.040   1.680   2.823 -0.2977 -1.2734 -0.0038
 1676SOL    HW3 6822   4.107   1.626   2.698  0.5432  0.5132 -0.3281
 1676SOL    MW4 6823   4.038   1.661   2.738  0.1221 -0.4675 -0.1962
 1677SOL     OW 6824   4.030   1.910   2.594 -0.6547  0.2722 -0.4581
 1677SOL    HW2 6825   4.108   1.957   2.622  0.0060  0.5040 -2.5606
 1677SOL    HW3 6826   4.035   1.825   2.638  0.5540  0.4630 -0.2370
 1677SOL    MW4 6827   4.041   1.905   2.603 -0.4086  0.3282 -0.7062
 1678SOL     OW 6828   4.258   2.024   2.729  0.0579  0.3107  0.4179
 1678SOL    HW2 6829   4.266   2.116   2.703 -1.3353  0.2209 -0.3574
 1678SOL    HW3 6830   4.343   1.986   2.708  0.2971  1.1849 -0.2356
 1678SOL    MW4 6831   4.270   2.031   2.723 -0.0949  0.4141  0.2294
 1679SOL     OW 6832   4.332   2.277   2.630  0.0044  0.1110  0.4247
 1679SOL    HW2 6833   4.259   2.322   2.674  0.6238 -0.0032  1.6065
 1679SOL    HW3 6834   4.306   2.272   2.538 -1.2852  0.4590  0.7603
 1679SOL    MW4 6835   4.319   2.282   2.624 -0.0844  0.1419  0.6251
 1680SOL     OW 6836   4.084   2.383   2.734 -0.2611  0.1094  0.3551
 1680SOL    HW2 6837   4.063   2.400   2.826  0.1003  1.2854  0.2297
 1680SOL    HW3 6838   4.012   2.329   2.703 -0.3231 -0.4046  1.3646
 1680SOL    MW4 6839   4.072   2.378   2.742 -0.2213  0.1965  0.4716
 1681SOL     OW 6840   4.042   2.640   2.601  0.1373  0.4224  0.3723
 1681SOL    HW2 6841   4.105   2.695   2.649  0.2260 -0.8271  1.7180
 1681SOL    HW3 6842   4.057   2.552   2.634  0.2755 -0.5088 -2.0685
 1681SOL    MW4 6843   4.052   2.636   2.612  0.1669  0.1345  0.2277
 1682SOL     OW 6844   4.246   2.821   2.684 -0.1427  0.5275 -0.3546
 1682SOL    HW2 6845   4.253   2.832   2.779  0.0423 -0.2473 -0.2780
 1682SOL    HW3 6846   4.238   2.910   2.651 -1.6979  0.7336  0.5040
 1682SOL    MW4 6847   4.246   2.834   2.692 -0.3233  0.4528 -0.2313
 1683SOL     OW 6848   4.247   3.080   2.582 -0.2753 -0.2790 -0.0543
 1683SOL    HW2 6849   4.187   3.144   2.620  0.8025  0.3561  0.6103
 1683SOL    HW3 6850   4.244   3.096   2.488  0.4013  1.1173  0.1560
 1683SOL    MW4 6851   4.239   3.091   2.575 -0.0429 -0.0114  0.0610
 1684SOL     OW 6852   4.047   3.250   2.701 -0.0030  0.1780  0.1211
 1684SOL    HW2 6853   4.043   3.337   2.660 -1.0236  0.0452 -0.0670
 1684SOL    HW3 6854   3.968   3.206   2.672  1.5031 -1.5662 -1.4087
 1684SOL    MW4 6855   4.036   3.256   2.692  0.0615 -0.0696 -0.1056
 1685SOL     OW 6856   4.037   3.505   2.584  0.0821 -0.2305  0.0332
 1685SOL    HW2 6857   4.115   3.554   2.608  1.6941 -2.1564 -1.1183
 1685SOL    HW3 6858   4.034   3.508   2.488 -0.4243 -1.3895 -0.0003
 1685SOL    MW4 6859   4.047   3.512   2.574  0.2279 -0.6373 -0.1230
 1686SOL     OW 6860   4.280   3.629   2.651  0.4897  0.0116  0.0875
 1686SOL    HW2 6861   4.271   3.628   2.746 -2.7029  1.5333 -0.1269
 1686SOL    HW3 6862   4.348   3.564   2.633  0.4414 -1.0488  3.3274
 1686SOL    MW4 6863   4.288   3.620   2.661  0.0620  0.0725  0.4866
 1687SOL     OW 6864   4.269   3.877   2.547  0.3087 -0.5596  0.0566
 1687SOL    HW2 6865   4.335   3.931   2.590  1.7408 -1.2324 -1.2378
 1687SOL    HW3 6866   4.278   3.791   2.589  1.1918 -1.0089 -1.0057
 1687SOL    MW4 6867   4.279   3.873   2.558  0.6137 -0.7074 -0.2544
 1688SOL     OW 6868   4.037   3.974   2.648  0.0207  0.3341 -0.1090
 1688SOL    HW2 6869   4.044   3.996   2.741  0.3144 -0.1974 -0.0062
 1688SOL    HW3 6870   4.126   3.949   2.623  0.0712  1.0715 -0.6859
 1688SOL    MW4 6871   4.050   3.974   2.657  0.0658  0.3612 -0.1719
 1689SOL     OW 6872   4.053   4.233   2.561  0.1165  0.0425 -0.2411
 1689SOL    HW2 6873   4.033   4.142   2.585  0.3317  0.0294 -0.1123
 1689SOL    HW3 6874   4.049   4.235   2.466  1.4848 -0.4207 -0.3181
 1689SOL    MW4 6875   4.049   4.221   2.552  0.3252 -0.0200 -0.2346
 1690SOL     OW 6876   4.250   4.382   2.686  0.0339  0.4078 -0.6106
 1690SOL    HW2 6877   4.177   4.353   2.630 -0.3131  0.8453 -0.3911
 1690SOL    HW3 6878   4.278   4.465   2.648 -1.5459  1.7385  1.0509
 1690SOL    MW4 6879   4.244   4.389   2.673 -0.2208  0.6409 -0.3622
 1691SOL     OW 6880   0.235   0.008   3.080  0.0453  0.2760 -0.2326
 1691SOL    HW2 6881   0.200   0.001   3.169 -0.4716 -0.4496 -0.4826
 1691SOL    HW3 6882   0.170   0.061   3.033  0.8937  1.6405  0.1048
 1691SOL    MW4 6883   0.222   0.014   3.086  0.0891  0.3603 -0.2210
 1692SOL     OW 6884   0.022   0.146   2.950  0.2318  0.7789 -0.0175
 1692SOL    HW2 6885  -0.046   0.087   2.983  1.4062  0.4424  1.9073
 1692SOL    HW3 6886   0.025   0.217   3.015  1.9096  0.6420  0.0766
 1692SOL    MW4 6887   0.013   0.148   2.963  0.6081  0.7164  0.2491
 1693SOL     OW 6888   4.259   0.503   3.003  0.6007 -0.3601  0.1934
 1693SOL    HW2 6889   4.345   0.466   3.022  1.6138  1.3491 -0.9103
 1693SOL    HW3 6890   4.256   0.583   3.056  0.0137  0.0249 -0.4185
 1693SOL    MW4 6891   4.270   0.509   3.013  0.6571 -0.0837 -0.0329
 1694SOL     OW 6892   4.488   0.388   3.064  0.0144  0.1368  0.0081
 1694SOL    HW2 6893   4.565   0.438   3.036 -0.0457  0.7970  1.0307
 1694SOL    HW3 6894   4.486   0.397   3.159 -1.4219  0.2616 -0.0187
 1694SOL    MW4 6895   4.498   0.396   3.072 -0.1841  0.2404  0.1397
 1695SOL     OW 6896   0.220   0.524   2.978  0.0782  0.0533  0.0968
 1695SOL    HW2 6897   0.215   0.607   3.027 -0.1031  0.2920 -0.3256
 1695SOL    HW3 6898   0.293   0.477   3.018  1.7939  1.4878 -1.2892
 1695SOL    MW4 6899   0.229   0.529   2.990  0.2807  0.2741 -0.1419
 1696SOL     OW 6900   4.467   0.905   3.034  0.2283 -0.6155  0.4502
 1696SOL    HW2 6901   4.553   0.863   3.041  0.4709 -0.6461 -2.0887
 1696SOL    HW3 6902   4.482   0.995   3.063  0.5344 -1.2948  2.4155
 1696SOL    MW4 6903   4.480   0.911   3.038  0.3004 -0.7092  0.3746
 1697SOL     OW 6904   0.034   1.177   3.121 -0.3035  0.0497  0.0098
 1697SOL    HW2 6905  -0.045   1.219   3.087  0.1134  2.1295  1.5060
 1697SOL    HW3 6906   0.024   1.181   3.216  1.1652 -0.5072  0.2041
 1697SOL    MW4 6907   0.022   1.183   3.129 -0.0548  0.2507  0.2329
 1698SOL     OW 6908   0.260   1.316   3.002 -0.1181  0.0179  0.3580
 1698SOL    HW2 6909   0.183   1.276   3.044 -1.2208  1.3646 -0.3265
 1698SOL    HW3 6910   0.250   1.297   2.909  0.5784 -0.1110  0.3058
 1698SOL    MW4 6911   0.248   1.308   2.996 -0.1717  0.1786  0.2608
 1699SOL     OW 6912   0.237   1.577   3.086 -0.6651 -0.1672  0.3108
 1699SOL    HW2 6913   0.150   1.601   3.056 -0.4139  0.2693 -0.0795
 1699SOL    HW3 6914   0.243   1.482   3.070 -0.8282 -0.0807 -0.2626
 1699SOL    MW4 6915   0.226   1.567   3.080 -0.6535 -0.0982  0.1836
 1700SOL     OW 6916   4.474   1.663   2.993  0.0091  0.2589 -0.1308
 1700SOL    HW2 6917   4.397   1.620   3.032  1.2824 -0.9771  1.0894
 1700SOL    HW3 6918   4.466   1.754   3.020 -1.0548  0.1554 -0.0534
 1700SOL    MW4 6919   4.463   1.669   3.002  0.0362  0.0820  0.0403
 1701SOL     OW 6920   0.011   1.902   3.113 -0.0524 -0.3042  0.6222
 1701SOL    HW2 6921  -0.059   1.952   3.072  0.8258  0.1829 -0.3293
 1701SOL    HW3 6922   0.091   1.940   3.076  0.6979 -0.9840  1.5308
 1701SOL    MW4 6923   0.013   1.914   3.103  0.1626 -0.3296  0.6166
 1702SOL     OW 6924   0.210   2.052   3.014 -0.0151  0.2558  0.3673
 1702SOL    HW2 6925   0.197   2.143   3.041  2.5310  0.8579 -0.3042
 1702SOL    HW3 6926   0.224   2.057   2.919  1.1759 -0.7119  0.4831
 1702SOL    MW4 6927   0.210   2.065   3.005  0.4780  0.2074  0.2937
 1703SOL     OW 6928   0.178   2.324   3.083  0.6151  0.3432  0.3251
 1703SOL    HW2 6929   0.187   2.323   3.178  1.5000  1.3081  0.2596
 1703SOL    HW3 6930   0.265   2.349   3.050  0.1674  0.5934 -0.7062
 1703SOL    MW4 6931   0.191   2.327   3.091  0.6728  0.5033  0.1805
 1704SOL     OW 6932   4.461   2.460   2.965  0.4697 -0.1135 -0.2250
 1704SOL    HW2 6933   4.464   2.547   3.005 -0.9399 -0.7581  1.3927
 1704SOL    HW3 6934   4.538   2.415   3.000  1.4032  0.5809 -1.3514
 1704SOL    MW4 6935   4.471   2.465   2.975  0.4072 -0.1070 -0.1600
 1705SOL     OW 6936   4.481   2.726   3.060  0.1337  0.0646  0.2411
 1705SOL    HW2 6937   4.488   2.708   3.153  1.4374  0.1124  0.1611
 1705SOL    HW3 6938   4.568   2.755   3.034 -0.1188 -0.2840 -1.0621
 1705SOL    MW4 6939   4.493   2.727   3.069  0.2724  0.0246  0.0587
 1706SOL     OW 6940   0.243   2.818   2.985 -0.0808 -0.1630  0.1031
 1706SOL    HW2 6941   0.324   2.780   3.020  0.3522  0.8290  0.1942
 1706SOL    HW3 6942   0.266   2.844   2.896 -0.5575 -0.6661 -0.1722
 1706SOL    MW4 6943   0.257   2.816   2.978 -0.0865 -0.0987  0.0787
 1707SOL     OW 6944   0.243   3.093   3.094 -0.6657  0.2849  0.3869
 1707SOL    HW2 6945   0.170   3.148   3.066 -0.8803  0.7268  1.7873
 1707SOL    HW3 6946   0.228   3.009   3.051 -0.9972  0.9478 -0.7994
 1707SOL    MW4 6947   0.231   3.089   3.085 -0.7378  0.4311  0.4151
 1708SOL     OW 6948   0.029   3.234   2.976 -0.2042  0.0025  0.5849
 1708SOL    HW2 6949  -0.045   3.186   3.014  0.4721 -1.3360  0.2495
 1708SOL    HW3 6950   0.023   3.216   2.882  0.3572  0.1501  0.5246
 1708SOL    MW4 6951   0.018   3.225   2.969 -0.0409 -0.1545  0.5329
 1709SOL     OW 6952   4.444   3.482   3.049  0.5562 -0.3319 -0.4958
 1709SOL    HW2 6953   4.369   3.528   3.012  0.5142  0.1477  0.1864
 1709SOL    HW3 6954   4.432   3.391   3.021  0.3563 -0.0359 -1.3846
 1709SOL    MW4 6955   4.432   3.476   3.041  0.5240 -0.2296 -0.5231
 1710SOL     OW 6956   0.203   3.576   2.960 -0.1041 -0.0289 -0.1794
 1710SOL    HW2 6957   0.221   3.670   2.970  1.9564 -0.3993 -0.1133
 1710SOL    HW3 6958   0.110   3.567   2.981  0.1401  1.7077  1.8429
 1710SOL    MW4 6959   0.193   3.587   2.964  0.2000  0.1512  0.0961
 1711SOL     OW 6960   0.222   3.855   3.049  0.4727 -0.2753 -0.2112
 1711SOL    HW2 6961   0.222   3.859   3.145  0.4880 -0.6661 -0.1936
 1711SOL    HW3 6962   0.290   3.916   3.022  0.2482  0.0777  0.0172
 1711SOL    MW4 6963   0.231   3.863   3.058  0.4451 -0.2801 -0.1788
 1712SOL     OW 6964   4.477   3.970   2.960 -0.0328 -0.3129 -0.1074
 1712SOL    HW2 6965   4.560   3.930   2.988 -0.2335 -1.5230 -1.1585
 1712SOL    HW3 6966   4.488   3.980   2.865 -0.5387  0.8550 -0.0416
 1712SOL    MW4 6967   4.490   3.966   2.951 -0.1254 -0.3185 -0.2375
 1713SOL     OW 6968   4.478   4.256   3.049 -0.8844  0.0417  0.3044
 1713SOL    HW2 6969   4.473   4.253   3.144  1.8899  2.1736  0.5863
 1713SOL    HW3 6970   4.483   4.165   3.022  1.4952 -0.5126  2.4574
 1713SOL    MW4 6971   4.478   4.244   3.058 -0.2044  0.2499  0.6258
 1714SOL     OW 6972   0.224   4.401   2.986 -0.3692 -0.2663 -0.5731
 1714SOL    HW2 6973   0.230   4.483   3.035 -0.4484 -0.9761  0.6518
 1714SOL    HW3 6974   0.149   4.356   3.026  0.2764 -1.3580 -0.5917
 1714SOL    MW4 6975   0.215   4.406   2.998 -0.2945 -0.5045 -0.4137
 1715SOL     OW 6976   0.690   0.039   3.057  0.7015  0.0477 -0.1665
 1715SOL    HW2 6977   0.672   0.011   3.147 -0.4146  0.0067 -0.4003
 1715SOL    HW3 6978   0.616   0.094   3.034  2.0762  1.8689 -0.2958
 1715SOL    MW4 6979   0.678   0.042   3.066  0.7356  0.2828 -0.2141
 1716SOL     OW 6980   0.452   0.159   2.979  0.1959 -0.4522 -0.0419
 1716SOL    HW2 6981   0.449   0.241   3.028  1.1188 -0.8761  0.7232
 1716SOL    HW3 6982   0.376   0.110   3.010 -0.2777  0.0472 -0.3983
 1716SOL    MW4 6983   0.441   0.164   2.990  0.2552 -0.4423  0.0122
 1717SOL     OW 6984   0.455   0.407   3.105  0.3479 -0.3045 -0.1169
 1717SOL    HW2 6985   0.461   0.446   3.192  0.9982 -0.1113 -0.2493
 1717SOL    HW3 6986   0.534   0.436   3.060  0.8944 -1.8443 -0.1768
 1717SOL    MW4 6987   0.466   0.416   3.111  0.5058 -0.4822 -0.1421
 1718SOL     OW 6988   0.683   0.492   2.962 -0.3891 -0.1096  0.4519
 1718SOL    HW2 6989   0.742   0.437   3.012 -1.0275  0.2686  1.6319
 1718SOL    HW3 6990   0.678   0.574   3.011  0.9941  1.2354 -1.5859
 1718SOL    MW4 6991   0.690   0.496   2.975 -0.2909  0.1177  0.3386
 1719SOL     OW 6992   0.682   0.733   3.086 -0.3647 -0.1206 -0.3496
 1719SOL    HW2 6993   0.668   0.739   3.181  0.0089  0.2467 -0.3140
 1719SOL    HW3 6994   0.613   0.787   3.048 -1.5714 -1.6434 -0.3727
 1719SOL    MW4 6995   0.671   0.741   3.094 -0.4746 -0.2730 -0.3481
 1720SOL     OW 6996   0.233   0.769   3.085  0.2301  0.3394  0.5592
 1720SOL    HW2 6997   0.220   0.776   3.179  0.7588  0.3067  0.6371
 1720SOL    HW3 6998   0.308   0.825   3.067  0.2952  0.1393  0.1978
 1720SOL    MW4 6999   0.241   0.777   3.095  0.3085  0.3086  0.5217
 1721SOL     OW 7000   0.471   0.914   3.005  0.1492  0.0231  0.1526
 1721SOL    HW2 7001   0.485   0.998   3.048 -1.9253 -0.1962  1.3419
 1721SOL    HW3 7002   0.453   0.936   2.914 -1.5740  1.0068  0.6943
 1721SOL    MW4 7003   0.470   0.928   2.999 -0.3519  0.1240  0.3810
 1722SOL     OW 7004   0.654   1.280   2.962  0.1014  0.0876  0.5088
 1722SOL    HW2 7005   0.730   1.234   2.998 -0.6669 -1.2659  0.4330
 1722SOL    HW3 7006   0.579   1.238   3.003 -0.7016  0.0209 -0.9881
 1722SOL    MW4 7007   0.654   1.268   2.972 -0.1059 -0.0998  0.3014
 1723SOL     OW 7008   0.666   1.513   3.119 -0.2237 -0.2108 -0.1610
 1723SOL    HW2 7009   0.672   1.488   3.211 -0.2685 -1.0106 -0.3759
 1723SOL    HW3 7010   0.661   1.431   3.071  0.0185  0.1956 -0.8995
 1723SOL    MW4 7011   0.666   1.499   3.124 -0.1976 -0.2626 -0.2866
 1724SOL     OW 7012   0.475   1.695   3.009  0.0425  0.5902  0.1365
 1724SOL    HW2 7013   0.544   1.636   3.040 -0.9048 -1.5648 -1.7454
 1724SOL    HW3 7014   0.393   1.649   3.027 -0.7711  1.8506 -0.2808
 1724SOL    MW4 7015   0.474   1.681   3.016 -0.1898  0.4722 -0.1669
 1725SOL     OW 7016   0.461   1.954   3.089 -0.1995  0.2480 -0.3464
 1725SOL    HW2 7017   0.451   1.864   3.061 -1.7991 -0.1399  1.4023
 1725SOL    HW3 7018   0.386   2.000   3.052 -0.2167  0.5474  0.0568
 1725SOL    MW4 7019   0.450   1.948   3.080 -0.4128  0.2363 -0.0625
 1726SOL     OW 7020   0.701   2.065   3.002  0.6331  0.3079 -0.0974
 1726SOL    HW2 7021   0.767   2.008   3.042  0.3665  1.0221  1.3966
 1726SOL    HW3 7022   0.618   2.025   3.027  0.4681  0.3195 -0.6228
 1726SOL    MW4 7023   0.699   2.052   3.011  0.5762  0.4036  0.0300
 1727SOL     OW 7024   0.703   2.315   3.086 -0.1451  0.3190 -0.3279
 1727SOL    HW2 7025   0.696   2.299   3.180 -1.1640  0.9992 -0.2790
 1727SOL    HW3 7026   0.712   2.228   3.048 -0.3258 -0.0019  0.3485
 1727SOL    MW4 7027   0.703   2.301   3.094 -0.3034  0.3664 -0.2320
 1728SOL     OW 7028   0.448   2.452   3.006 -0.0955  0.2190  0.4117
 1728SOL    HW2 7029   0.525   2.408   3.043 -0.3768 -1.5635 -1.0602
 1728SOL    HW3 7030   0.463   2.450   2.911 -0.2201  3.1634  0.2912
 1728SOL    MW4 7031   0.460   2.446   2.998 -0.1490  0.3724  0.2015
 1729SOL     OW 7032   0.467   2.711   3.125 -0.0130  0.3029  0.2066
 1729SOL    HW2 7033   0.544   2.747   3.081  0.2983  0.1217  0.6001
 1729SOL    HW3 7034   0.463   2.620   3.096 -0.8599  0.6744 -0.8692
 1729SOL    MW4 7035   0.476   2.704   3.115 -0.0837  0.3283  0.1168
 1730SOL     OW 7036   0.674   2.827   2.997 -0.1463 -0.0284 -0.0137
 1730SOL    HW2 7037   0.752   2.786   3.034 -0.9613  0.2966  2.1178
 1730SOL    HW3 7038   0.685   2.920   3.018 -1.3373 -0.0525  0.7454
 1730SOL    MW4 7039   0.686   2.834   3.005 -0.4110  0.0114  0.3679
 1731SOL     OW 7040   0.679   3.084   3.071 -0.2055  0.3650 -0.2690
 1731SOL    HW2 7041   0.666   3.096   3.165 -0.3073 -2.2350  0.0733
 1731SOL    HW3 7042   0.599   3.117   3.031 -0.9576 -0.2499  0.6994
 1731SOL    MW4 7043   0.667   3.090   3.078 -0.3181 -0.0594 -0.0958
 1732SOL     OW 7044   0.468   3.202   2.946  0.6872 -0.2467  0.2860
 1732SOL    HW2 7045   0.467   3.294   2.971  2.4799 -0.4469  1.2061
 1732SOL    HW3 7046   0.402   3.161   3.002 -1.1949  0.7021 -1.1875
 1732SOL    MW4 7047   0.459   3.209   2.957  0.6754 -0.1481  0.2129
 1733SOL     OW 7048   0.458   3.466   3.041  0.3057  0.0132 -0.4319
 1733SOL    HW2 7049   0.466   3.457   3.136  0.9741  1.1897 -0.3605
 1733SOL    HW3 7050   0.369   3.501   3.027  0.8453  1.5858 -0.0873
 1733SOL    MW4 7051   0.447   3.470   3.052  0.4651  0.3762 -0.3769
 1734SOL     OW 7052   0.677   3.590   2.917  0.4729 -0.0369 -0.4209
 1734SOL    HW2 7053   0.757   3.555   2.954  0.2673 -1.2298 -1.0825
 1734SOL    HW3 7054   0.608   3.558   2.975  0.2781 -0.8046 -1.0694
 1734SOL    MW4 7055   0.678   3.581   2.929  0.4200 -0.2954 -0.5939
 1735SOL     OW 7056   0.636   3.839   3.046 -0.3480 -0.6218 -0.0458
 1735SOL    HW2 7057   0.647   3.750   3.012  0.4640 -0.8744  0.8445
 1735SOL    HW3 7058   0.661   3.833   3.139 -0.7850  0.4247  0.1552
 1735SOL    MW4 7059   0.641   3.827   3.054 -0.2985 -0.5174  0.0982
 1736SOL     OW 7060   0.443   4.019   2.986  0.7315  0.0255 -0.0768
 1736SOL    HW2 7061   0.523   3.973   3.013  0.7991  0.8900  1.2554
 1736SOL    HW3 7062   0.452   4.106   3.025 -0.7772  0.1832 -0.0772
 1736SOL    MW4 7063   0.455   4.024   2.995  0.5414  0.1602  0.0989
 1737SOL     OW 7064   0.444   4.277   3.095  0.5203 -0.0029  0.3558
 1737SOL    HW2 7065   0.518   4.321   3.052  0.4862 -0.4738 -0.1830
 1737SOL    HW3 7066   0.367   4.312   3.050  0.5259 -1.0973 -0.5064
 1737SOL    MW4 7067   0.444   4.288   3.083  0.5166 -0.2098  0.1707
 1738SOL     OW 7068   0.647   4.405   2.954  0.1160  0.0399 -0.1904
 1738SOL    HW2 7069   0.651   4.498   2.977  1.0985  0.0409 -0.3453
 1738SOL    HW3 7070   0.728   4.368   2.989 -0.3580 -0.8053  0.0421
 1738SOL    MW4 7071   0.658   4.412   2.962  0.1831 -0.0715 -0.1802
 1739SOL     OW 7072   1.126   4.620   3.068  0.2505  0.1604 -0.0374
 1739SOL    HW2 7073   1.215   4.654   3.053  0.3436 -0.6595 -1.4397
 1739SOL    HW3 7074   1.069   4.685   3.027  0.1295  1.1909  1.7212
 1739SOL    MW4 7075   1.130   4.633   3.060  0.2468  0.1879  0.0098
 1740SOL     OW 7076   0.943   0.128   2.979 -0.5074  0.3842 -0.6632
 1740SOL    HW2 7077   0.857   0.100   3.011 -0.2038  0.4692  0.2513
 1740SOL    HW3 7078   0.937   0.120   2.884 -0.8469 -1.6089 -0.5090
 1740SOL    MW4 7079   0.931   0.123   2.971 -0.5121  0.1324 -0.5224
 1741SOL     OW 7080   0.861   0.366   3.128  0.1163  0.7213 -0.1712
 1741SOL    HW2 7081   0.893   0.290   3.079  3.4954  1.5327  0.5978
 1741SOL    HW3 7082   0.856   0.334   3.219 -1.3388  0.5937 -0.2954
 1741SOL    MW4 7083   0.865   0.351   3.134  0.3701  0.8115 -0.0861
 1742SOL     OW 7084   1.084   0.496   3.016  0.4695  0.1918 -0.0750
 1742SOL    HW2 7085   1.147   0.434   3.053  1.3252  1.1820  0.1605
 1742SOL    HW3 7086   0.999   0.470   3.052  0.8728 -0.6241  0.2863
 1742SOL    MW4 7087   1.081   0.484   3.025  0.6356  0.2148  0.0041
 1743SOL     OW 7088   1.118   0.756   3.090  0.2169  0.2921  0.0825
 1743SOL    HW2 7089   1.102   0.767   3.183  1.6457  2.6094  0.0888
 1743SOL    HW3 7090   1.105   0.662   3.074  1.3243 -0.3715  2.8710
 1743SOL    MW4 7091   1.115   0.745   3.100  0.5516  0.5103  0.4511
 1744SOL     OW 7092   0.909   0.901   2.975 -0.1689  0.2481  0.0043
 1744SOL    HW2 7093   0.991   0.863   3.006 -0.9395 -0.9208  0.6389
 1744SOL    HW3 7094   0.841   0.847   3.015 -1.2783  2.0221  0.5548
 1744SOL    MW4 7095   0.911   0.889   2.984 -0.4169  0.3279  0.1602
 1745SOL     OW 7096   0.883   1.167   3.072  0.1221  0.2228 -0.2882
 1745SOL    HW2 7097   0.957   1.209   3.028  0.6214  0.3775  0.6797
 1745SOL    HW3 7098   0.894   1.074   3.055  1.3462  0.1014  1.0148
 1745SOL    MW4 7099   0.894   1.160   3.064  0.3495  0.2271  0.0114
 1746SOL     OW 7100   1.127   1.271   2.971 -0.0876  0.2345  0.4464
 1746SOL    HW2 7101   1.205   1.226   3.002  1.0643  2.0762  0.3460
 1746SOL    HW3 7102   1.130   1.262   2.876 -0.1153  0.1001  0.4589
 1746SOL    MW4 7103   1.138   1.264   2.962  0.0608  0.4598  0.4346
 1747SOL     OW 7104   1.094   1.509   3.105  0.1154 -0.3576 -0.2001
 1747SOL    HW2 7105   1.178   1.553   3.093  0.8730 -1.7740 -0.2588
 1747SOL    HW3 7106   1.103   1.429   3.053 -1.0214 -0.8354  0.3510
 1747SOL    MW4 7107   1.107   1.504   3.096  0.0654 -0.6076 -0.1352
 1748SOL     OW 7108   0.887   1.644   3.003 -0.1681  0.5945 -0.4281
 1748SOL    HW2 7109   0.954   1.588   3.041 -0.6055  0.8538  0.7536
 1748SOL    HW3 7110   0.804   1.607   3.034 -0.5776  0.3260 -1.8004
 1748SOL    MW4 7111   0.885   1.632   3.012 -0.2798  0.5932 -0.4532
 1749SOL     OW 7112   0.876   1.897   3.111  0.1698 -0.5488  0.1151
 1749SOL    HW2 7113   0.863   1.890   3.206 -0.1129 -0.6264  0.0730
 1749SOL    HW3 7114   0.885   1.807   3.082 -0.5228 -0.5705 -0.0354
 1749SOL    MW4 7115   0.875   1.884   3.120  0.0411 -0.5620  0.0896
 1750SOL     OW 7116   1.129   2.008   3.020 -0.1863  0.3842  0.3850
 1750SOL    HW2 7117   1.050   1.962   3.048  0.2359 -0.4582  0.2192
 1750SOL    HW3 7118   1.112   2.032   2.930  0.0854 -0.5899  0.0624
 1750SOL    MW4 7119   1.116   2.005   3.012 -0.0948  0.1445  0.3204
 1751SOL     OW 7120   1.153   2.288   3.089  0.0478  0.9397 -0.1350
 1751SOL    HW2 7121   1.078   2.339   3.059 -0.8921  0.3895  1.2233
 1751SOL    HW3 7122   1.131   2.197   3.069 -0.1010  0.6760  1.1700
 1751SOL    MW4 7123   1.141   2.282   3.082 -0.0958  0.8323  0.2165
 1752SOL     OW 7124   0.936   2.425   3.005  0.4033  0.1389 -0.4486
 1752SOL    HW2 7125   0.854   2.402   3.048  0.3136 -1.2274 -1.3460
 1752SOL    HW3 7126   0.923   2.404   2.913  1.7407 -0.0369 -0.6109
 1752SOL    MW4 7127   0.924   2.419   2.999  0.5679 -0.0646 -0.5884
 1753SOL     OW 7128   0.913   2.690   3.090 -0.2394  0.1280  0.3454
 1753SOL    HW2 7129   0.916   2.709   3.183 -0.2389 -0.1804  0.4078
 1753SOL    HW3 7130   0.922   2.595   3.084  1.7130  0.2978 -0.0594
 1753SOL    MW4 7131   0.915   2.680   3.101  0.0182  0.1094  0.3004
 1754SOL     OW 7132   1.110   2.819   2.965 -0.3426  0.0044  0.4596
 1754SOL    HW2 7133   1.093   2.911   2.984 -0.3078  0.2884 -0.8087
 1754SOL    HW3 7134   1.039   2.772   3.009 -0.7627  0.6892  0.5245
 1754SOL    MW4 7135   1.099   2.825   2.973 -0.3934  0.1323  0.3009
 1755SOL     OW 7136   1.107   3.086   3.084  0.4826  0.0809  0.3847
 1755SOL    HW2 7137   1.187   3.133   3.062  0.7546 -0.9611 -0.9700
 1755SOL    HW3 7138   1.036   3.144   3.056  0.7930  0.4758  0.4217
 1755SOL    MW4 7139   1.108   3.100   3.077  0.5594 -0.0048  0.2105
 1756SOL     OW 7140   0.897   3.229   2.986 -0.2925  0.2571 -0.2198
 1756SOL    HW2 7141   0.815   3.181   2.999  0.1331 -0.5509 -0.4991
 1756SOL    HW3 7142   0.916   3.219   2.893  1.0650 -1.1160  0.1768
 1756SOL    MW4 7143   0.889   3.221   2.976 -0.0573 -0.0305 -0.2043
 1757SOL     OW 7144   0.897   3.498   3.058  0.2736  0.3261 -0.0048
 1757SOL    HW2 7145   0.979   3.540   3.032  0.0836  0.6917 -0.0210
 1757SOL    HW3 7146   0.910   3.406   3.037  0.6863  0.3804  0.0057
 1757SOL    MW4 7147   0.910   3.492   3.052  0.3030  0.3815 -0.0055
 1758SOL     OW 7148   1.113   3.631   2.957  0.0751 -0.3618 -0.1917
 1758SOL    HW2 7149   1.196   3.601   2.993  1.1087  2.0796 -0.4177
 1758SOL    HW3 7150   1.105   3.721   2.988 -3.0174 -0.8801  0.6916
 1758SOL    MW4 7151   1.123   3.639   2.966 -0.1963 -0.1080 -0.1049
 1759SOL     OW 7152   1.097   3.878   3.111  0.1505 -0.1938 -0.0211
 1759SOL    HW2 7153   1.092   3.873   3.206  1.5900 -2.5589 -0.0420
 1759SOL    HW3 7154   1.008   3.902   3.083 -1.3532 -3.4913  1.6937
 1759SOL    MW4 7155   1.084   3.881   3.120  0.1421 -0.9410  0.2024
 1760SOL     OW 7156   0.873   3.975   2.977  0.3105  0.4124  0.5875
 1760SOL    HW2 7157   0.881   3.992   2.884  0.8013  2.6741  1.0187
 1760SOL    HW3 7158   0.792   3.925   2.986 -0.4558  1.3731 -0.9081
 1760SOL    MW4 7159   0.863   3.970   2.966  0.2741  0.8373  0.4468
 1761SOL     OW 7160   0.847   4.238   3.087 -0.8909 -0.2614  0.0048
 1761SOL    HW2 7161   0.858   4.148   3.056 -2.8073 -0.3852 -0.3589
 1761SOL    HW3 7162   0.864   4.233   3.181 -1.7859 -1.1604  0.1257
 1761SOL    MW4 7163   0.851   4.226   3.095 -1.2618 -0.3967 -0.0272
 1762SOL     OW 7164   1.090   4.362   2.987  0.2018  0.0738 -0.2374
 1762SOL    HW2 7165   1.016   4.318   3.029 -0.5229  0.1087 -1.4526
 1762SOL    HW3 7166   1.080   4.454   3.010 -0.3230  0.1279 -0.6824
 1762SOL    MW4 7167   1.079   4.368   2.996  0.0368  0.0854 -0.4566
 1763SOL     OW 7168   1.605   4.626   3.143  0.1039  0.2576  0.5022
 1763SOL    HW2 7169   1.583   4.613   3.235 -1.2997 -0.9673  0.0299
 1763SOL    HW3 7170   1.523   4.657   3.103  0.5369  0.2419 -0.4174
 1763SOL    MW4 7171   1.591   4.628   3.150 -0.0242  0.0939  0.3185
 1764SOL     OW 7172   1.372   0.077   3.022  0.2437  0.1244  0.4487
 1764SOL    HW2 7173   1.350   0.166   3.046  1.7690  0.4840  0.5497
 1764SOL    HW3 7174   1.369   0.076   2.926  0.8823  0.4592  0.4251
 1764SOL    MW4 7175   1.368   0.088   3.012  0.5292  0.2160  0.4592
 1765SOL     OW 7176   1.315   0.347   3.096  0.1308 -0.0371  0.1620
 1765SOL    HW2 7177   1.316   0.362   3.190 -0.7409  2.7070 -0.2324
 1765SOL    HW3 7178   1.399   0.381   3.065 -0.5874  1.3026 -0.3474
 1765SOL    MW4 7179   1.326   0.353   3.104 -0.0789  0.5017  0.0427
 1766SOL     OW 7180   1.537   0.448   2.965  0.3731  0.1570  0.0492
 1766SOL    HW2 7181   1.551   0.451   2.871 -0.1158  0.2795 -0.0199
 1766SOL    HW3 7182   1.551   0.538   2.995 -0.8590  0.4061 -0.1069
 1766SOL    MW4 7183   1.541   0.460   2.957  0.1462  0.2061  0.0196
 1767SOL     OW 7184   1.571   0.706   3.049 -0.8039 -0.0403 -0.1597
 1767SOL    HW2 7185   1.568   0.707   3.145 -2.0915 -2.3326 -0.1268
 1767SOL    HW3 7186   1.506   0.770   3.022  0.4762  1.5683  0.4700
 1767SOL    MW4 7187   1.562   0.714   3.058 -0.8049 -0.1306 -0.0722
 1768SOL     OW 7188   1.344   0.866   2.965 -0.1217 -0.6286  0.3493
 1768SOL    HW2 7189   1.351   0.950   3.009 -0.6656 -0.3993 -0.0088
 1768SOL    HW3 7190   1.270   0.822   3.008  0.8082 -1.3609  1.2583
 1768SOL    MW4 7191   1.335   0.871   2.977 -0.0707 -0.6949  0.4220
 1769SOL     OW 7192   1.347   1.133   3.077  0.5230  0.1228  0.2247
 1769SOL    HW2 7193   1.352   1.144   3.172 -1.8418  0.7577  0.3248
 1769SOL    HW3 7194   1.426   1.176   3.044  0.8258  0.8700  1.8352
 1769SOL    MW4 7195   1.358   1.140   3.086  0.2511  0.3052  0.4506
 1770SOL     OW 7196   1.563   1.252   2.952 -0.1098 -0.1902 -0.0206
 1770SOL    HW2 7197   1.646   1.206   2.961 -0.2939 -0.5380 -0.0506
 1770SOL    HW3 7198   1.574   1.333   3.000  0.3180 -0.1395 -0.2062
 1770SOL    MW4 7199   1.575   1.257   2.959 -0.0776 -0.2294 -0.0491
 1771SOL     OW 7200   1.581   1.485   3.070 -0.0790 -0.2441 -0.1121
 1771SOL    HW2 7201   1.590   1.499   3.164 -0.4938  0.4253 -0.1667
 1771SOL    HW3 7202   1.659   1.527   3.032 -0.4117  0.3603 -0.1378
 1771SOL    MW4 7203   1.593   1.492   3.077 -0.1777 -0.0761 -0.1225
 1772SOL     OW 7204   1.346   1.620   3.029 -0.9699 -0.1768 -0.4742
 1772SOL    HW2 7205   1.358   1.713   3.050  0.1397 -0.4174 -0.0204
 1772SOL    HW3 7206   1.430   1.580   3.049 -0.6199 -0.8468 -3.1407
 1772SOL    MW4 7207   1.359   1.627   3.035 -0.7774 -0.2970 -0.7663
 1773SOL     OW 7208   1.366   1.900   3.098 -0.1069  0.1178  0.2210
 1773SOL    HW2 7209   1.371   1.928   3.189  0.7259 -0.1143  0.2568
 1773SOL    HW3 7210   1.289   1.944   3.063  1.3041  2.6828  0.1978
 1773SOL    MW4 7211   1.356   1.910   3.105  0.1892  0.4256  0.2227
 1774SOL     OW 7212   1.557   2.038   2.947  0.6406 -0.2938 -0.1500
 1774SOL    HW2 7213   1.638   2.002   2.983 -0.1678  0.2290  2.3057
 1774SOL    HW3 7214   1.487   1.998   3.000 -0.5025  1.6968 -0.0755
 1774SOL    MW4 7215   1.558   2.028   2.959  0.3833  0.0379  0.1838
 1775SOL     OW 7216   1.994   2.315   3.348  0.0482 -0.5225 -0.0158
 1775SOL    HW2 7217   1.924   2.368   3.386  0.1914  0.0234 -0.5119
 1775SOL    HW3 7218   1.979   2.227   3.383 -0.0725 -0.1194  0.9750
 1775SOL    MW4 7219   1.983   2.310   3.358  0.0513 -0.3974  0.0494
 1776SOL     OW 7220   1.370   2.410   2.947 -0.0304  0.6316 -0.0384
 1776SOL    HW2 7221   1.296   2.370   2.993  0.1423 -1.3603 -1.4332
 1776SOL    HW3 7222   1.448   2.378   2.994  0.0186  1.6112  0.5685
 1776SOL    MW4 7223   1.371   2.400   2.960 -0.0012  0.4978 -0.1423
 1777SOL     OW 7224   1.337   2.671   3.024 -0.2235 -0.8307 -0.6855
 1777SOL    HW2 7225   1.325   2.586   2.983  2.1450 -1.6880  0.3224
 1777SOL    HW3 7226   1.253   2.716   3.011 -0.9861 -2.7190 -2.5519
 1777SOL    MW4 7227   1.324   2.666   3.017 -0.0118 -1.1933 -0.7989
 1778SOL     OW 7228   1.558   2.843   2.951 -0.1576  0.3034 -0.0242
 1778SOL    HW2 7229   1.638   2.806   2.988 -0.4380 -1.2066 -0.8709
 1778SOL    HW3 7230   1.491   2.777   2.968 -0.5427  0.1244 -2.1075
 1778SOL    MW4 7231   1.560   2.829   2.958 -0.2453  0.0803 -0.4108
 1779SOL     OW 7232   1.545   3.089   3.079  0.1521 -0.3914  0.0278
 1779SOL    HW2 7233   1.556   3.065   3.171 -0.5286 -1.0054 -0.0417
 1779SOL    HW3 7234   1.533   3.005   3.034  0.9617 -0.1209 -0.6863
 1779SOL    MW4 7235   1.545   3.075   3.085  0.1692 -0.4365 -0.0758
 1780SOL     OW 7236   1.330   3.216   2.974  0.2747 -0.2053 -0.2945
 1780SOL    HW2 7237   1.404   3.167   3.010  0.0786 -1.4898 -1.5682
 1780SOL    HW3 7238   1.349   3.222   2.880  0.5383  2.6472 -0.0816
 1780SOL    MW4 7239   1.342   3.210   2.966  0.2835  0.0014 -0.4344
 1781SOL     OW 7240   1.319   3.481   3.065 -0.1051  0.2493  0.2091
 1781SOL    HW2 7241   1.323   3.458   3.158  1.0076  1.0819  0.3898
 1781SOL    HW3 7242   1.320   3.397   3.019 -1.3979 -0.1867  0.9704
 1781SOL    MW4 7243   1.320   3.467   3.071 -0.1290  0.3014  0.3335
 1782SOL     OW 7244   1.567   3.605   2.979  0.2463  0.3818 -0.0233
 1782SOL    HW2 7245   1.477   3.588   3.009 -0.0651 -2.0635 -2.1197
 1782SOL    HW3 7246   1.564   3.589   2.884  2.8477  0.5544 -0.1725
 1782SOL    MW4 7247   1.555   3.601   2.970  0.5485  0.0820 -0.3195
 1783SOL     OW 7248   1.551   3.863   3.072 -0.2675 -0.0725 -0.2391
 1783SOL    HW2 7249   1.632   3.910   3.049 -1.5676  1.9795 -0.7829
 1783SOL    HW3 7250   1.561   3.777   3.031  0.4784  1.1052 -2.6290
 1783SOL    MW4 7251   1.563   3.858   3.064 -0.3406  0.3533 -0.6261
 1784SOL     OW 7252   1.312   4.014   3.000  0.2307 -0.2236 -0.3056
 1784SOL    HW2 7253   1.388   3.965   3.030  0.8267  0.5539 -0.5320
 1784SOL    HW3 7254   1.237   3.962   3.028  0.8585 -1.2799 -0.5997
 1784SOL    MW4 7255   1.312   4.001   3.008  0.3922 -0.2608 -0.3743
 1785SOL     OW 7256   1.310   4.265   3.095  0.5107 -0.0354 -0.0783
 1785SOL    HW2 7257   1.307   4.175   3.062  2.1337  0.2100 -0.9295
 1785SOL    HW3 7258   1.228   4.304   3.063 -1.2931 -1.8294  2.2004
 1785SOL    MW4 7259   1.298   4.258   3.086  0.4870 -0.2394  0.1101
 1786SOL     OW 7260   1.568   4.379   2.981 -0.5528  0.4715 -0.4081
 1786SOL    HW2 7261   1.485   4.348   3.015  0.1414 -0.0884  0.7944
 1786SOL    HW3 7262   1.595   4.449   3.041 -0.5283  1.1872 -1.2388
 1786SOL    MW4 7263   1.561   4.384   2.993 -0.4581  0.4921 -0.3593
 1787SOL     OW 7264   2.043   4.648   3.137  0.6106 -0.3293 -0.1749
 1787SOL    HW2 7265   2.033   4.657   3.231 -0.9488 -0.5046 -0.3109
 1787SOL    HW3 7266   1.975   4.705   3.100  0.1428 -1.5033 -1.1731
 1787SOL    MW4 7267   2.032   4.657   3.144  0.3431 -0.5074 -0.3247
 1788SOL     OW 7268   1.829   0.111   3.029 -0.3010  0.5046  0.3628
 1788SOL    HW2 7269   1.759   0.050   3.049  1.5361 -2.0504 -0.6568
 1788SOL    HW3 7270   1.843   0.102   2.934  0.6263  1.8084  0.3546
 1788SOL    MW4 7271   1.822   0.102   3.019  0.0639  0.3395  0.2275
 1789SOL     OW 7272   1.834   0.369   3.108  0.5756  0.1101 -0.3337
 1789SOL    HW2 7273   1.832   0.276   3.086 -0.3834 -0.7613  3.1386
 1789SOL    HW3 7274   1.757   0.406   3.065  0.4992 -0.8630 -1.0389
 1789SOL    MW4 7275   1.824   0.362   3.099  0.4389 -0.1332  0.0315
 1790SOL     OW 7276   2.046   0.543   3.005  0.1616  0.2387 -0.1187
 1790SOL    HW2 7277   1.975   0.483   3.029 -0.3215  1.2260  0.9903
 1790SOL    HW3 7278   2.039   0.552   2.910 -0.5457 -0.4900 -0.1426
 1790SOL    MW4 7279   2.035   0.536   2.996  0.0045  0.2728  0.0243
 1791SOL     OW 7280   2.024   0.804   3.107 -0.3575  0.3522 -0.0462
 1791SOL    HW2 7281   1.947   0.837   3.060  0.1301  1.1583 -0.2859
 1791SOL    HW3 7282   2.033   0.714   3.077 -1.6243  0.0238  0.5140
 1791SOL    MW4 7283   2.015   0.796   3.097 -0.4601  0.4153 -0.0038
 1792SOL     OW 7284   1.778   0.888   2.969  0.0959  0.0970 -0.1213
 1792SOL    HW2 7285   1.718   0.822   3.003 -0.4445  0.6761  0.0648
 1792SOL    HW3 7286   1.764   0.887   2.874 -0.0456  0.0743 -0.0997
 1792SOL    MW4 7287   1.768   0.879   2.961  0.0060  0.1705 -0.0939
 1793SOL     OW 7288   1.800   1.132   3.086  0.2121 -0.3717 -0.2876
 1793SOL    HW2 7289   1.772   1.130   3.178  0.3427  1.4620 -0.2045
 1793SOL    HW3 7290   1.780   1.044   3.054 -0.4514 -0.8285  1.3151
 1793SOL    MW4 7291   1.794   1.120   3.094  0.1416 -0.1899 -0.0651
 1794SOL     OW 7292   2.025   1.283   2.982  0.6793 -0.5807 -0.0840
 1794SOL    HW2 7293   2.108   1.249   3.016  0.3431 -1.6667 -0.3278
 1794SOL    HW3 7294   1.958   1.225   3.019  0.0975 -0.2155 -0.5443
 1794SOL    MW4 7295   2.027   1.271   2.991  0.5581 -0.6758 -0.1767
 1795SOL     OW 7296   2.004   1.547   3.072  0.3704 -0.0446 -0.0238
 1795SOL    HW2 7297   1.999   1.552   3.168  1.5298 -2.5541  0.1953
 1795SOL    HW3 7298   2.011   1.454   3.053  0.0071  0.4129 -2.5932
 1795SOL    MW4 7299   2.004   1.536   3.082  0.4756 -0.3153 -0.3338
 1796SOL     OW 7300   1.777   1.674   2.972  0.2909  0.0990  0.1634
 1796SOL    HW2 7301   1.765   1.763   3.004  0.7975  0.5007 -0.7637
 1796SOL    HW3 7302   1.855   1.643   3.019  0.5652  0.4103 -0.0857
 1796SOL    MW4 7303   1.786   1.682   2.983  0.3939  0.1932  0.0083
 1797SOL     OW 7304   1.778   1.932   3.081  0.1158  0.0073 -0.5100
 1797SOL    HW2 7305   1.856   1.976   3.047  0.2547 -0.5774 -0.9424
 1797SOL    HW3 7306   1.799   1.915   3.173 -0.1203  1.2589 -0.2236
 1797SOL    MW4 7307   1.791   1.936   3.089  0.1030  0.0952 -0.5293
 1798SOL     OW 7308   1.995   2.069   2.983  0.0258 -0.7173 -0.0513
 1798SOL    HW2 7309   2.074   2.030   3.018 -0.1968 -1.2436 -0.1326
 1798SOL    HW3 7310   2.000   2.161   3.010  0.2914 -0.9142  0.5938
 1798SOL    MW4 7311   2.006   2.076   2.991  0.0315 -0.8128  0.0229
 1799SOL     OW 7312   1.586   2.036   3.741  0.4597  0.2056 -0.2169
 1799SOL    HW2 7313   1.506   1.985   3.750 -0.0470  0.6125 -2.1460
 1799SOL    HW3 7314   1.653   1.983   3.784 -1.0342  0.4110  2.4941
 1799SOL    MW4 7315   1.584   2.022   3.748  0.1957  0.2863 -0.1140
 1800SOL     OW 7316   1.789   2.456   2.925  0.3697 -0.1120  0.4619
 1800SOL    HW2 7317   1.724   2.393   2.957 -0.3076  0.4874  0.2814
 1800SOL    HW3 7318   1.870   2.431   2.970 -0.1487 -0.4246  1.2415
 1800SOL    MW4 7319   1.791   2.445   2.935  0.2121 -0.0741  0.5410
 1801SOL     OW 7320   1.969   2.034   3.761  0.2168  0.0387  0.3883
 1801SOL    HW2 7321   1.892   1.990   3.798 -0.9830  0.6341 -1.3881
 1801SOL    HW3 7322   1.994   2.098   3.828 -0.4612 -0.5627  1.2361
 1801SOL    MW4 7323   1.962   2.036   3.775 -0.0309  0.0379  0.2656
 1802SOL     OW 7324   2.011   2.881   2.939  0.5264 -0.6491 -0.0759
 1802SOL    HW2 7325   2.029   2.960   2.990  0.9456 -0.4587 -0.5085
 1802SOL    HW3 7326   1.929   2.847   2.975 -0.4766  0.8205 -0.8706
 1802SOL    MW4 7327   2.003   2.887   2.950  0.4494 -0.4299 -0.2377
 1803SOL     OW 7328   2.038   3.139   3.106 -0.1988  0.8289 -0.5723
 1803SOL    HW2 7329   2.041   3.115   3.199  1.2198  1.4900 -0.4282
 1803SOL    HW3 7330   1.945   3.156   3.088 -0.7762 -1.4080  0.1615
 1803SOL    MW4 7331   2.026   3.138   3.116 -0.0880  0.6211 -0.4566
 1804SOL     OW 7332   1.775   3.183   2.998  0.4293  0.2039 -0.1429
 1804SOL    HW2 7333   1.689   3.152   3.026  0.4148  0.0822 -0.3212
 1804SOL    HW3 7334   1.768   3.188   2.902  0.8505 -0.4933 -0.2146
 1804SOL    MW4 7335   1.763   3.180   2.989  0.4829  0.0961 -0.1757
 1805SOL     OW 7336   1.775   3.449   3.078 -0.1734 -0.3299  0.5705
 1805SOL    HW2 7337   1.772   3.356   3.054  0.2406 -0.1600 -0.1261
 1805SOL    HW3 7338   1.684   3.479   3.067 -0.5911 -0.9528  2.0474
 1805SOL    MW4 7339   1.762   3.440   3.074 -0.1738 -0.3896  0.6735
 1806SOL     OW 7340   1.996   3.615   2.986 -0.0459  0.3343 -0.1656
 1806SOL    HW2 7341   2.003   3.700   3.029 -2.8198  0.2974  0.4430
 1806SOL    HW3 7342   1.910   3.581   3.013  0.3674 -1.9890 -1.6078
 1806SOL    MW4 7343   1.986   3.622   2.996 -0.3573  0.0229 -0.2759
 1807SOL     OW 7344   2.023   3.854   3.115 -0.3179 -0.1057  0.1925
 1807SOL    HW2 7345   2.024   3.844   3.210 -0.1250 -0.6330  0.1422
 1807SOL    HW3 7346   1.943   3.901   3.096 -1.2195 -1.4964  0.4808
 1807SOL    MW4 7347   2.013   3.859   3.125 -0.4113 -0.3586  0.2239
 1808SOL     OW 7348   1.796   3.979   3.012  0.0499 -0.0317  0.0162
 1808SOL    HW2 7349   1.778   4.068   3.041 -2.3338 -1.0891  1.9496
 1808SOL    HW3 7350   1.802   3.986   2.916 -1.0445  2.0376  0.0729
 1808SOL    MW4 7351   1.795   3.992   3.003 -0.4089  0.1018  0.2789
 1809SOL     OW 7352   1.761   4.237   3.098 -0.1644  0.3715  0.0599
 1809SOL    HW2 7353   1.835   4.288   3.064 -0.2224  0.9205  0.7439
 1809SOL    HW3 7354   1.683   4.283   3.067 -0.2215  0.2866  0.0755
 1809SOL    MW4 7355   1.761   4.249   3.090 -0.1795  0.4330  0.1526
 1810SOL     OW 7356   1.968   4.398   3.037 -0.5275  0.2325 -0.2375
 1810SOL    HW2 7357   1.982   4.479   3.087  1.0652 -0.0669 -0.1783
 1810SOL    HW3 7358   2.002   4.418   2.950  2.3511 -1.2036  0.5011
 1810SOL    MW4 7359   1.975   4.412   3.032  0.0623  0.0033 -0.1326
 1811SOL     OW 7360   2.471   4.641   3.126  0.1134 -0.0211 -0.1717
 1811SOL    HW2 7361   2.485   4.563   3.072  0.6657  0.9515 -1.4859
 1811SOL    HW3 7362   2.393   4.683   3.088  1.6389  1.7003 -1.4905
 1811SOL    MW4 7363   2.462   4.636   3.114  0.3877  0.3343 -0.5190
 1812SOL     OW 7364   2.253   0.101   2.998 -0.2997  0.2798  0.0517
 1812SOL    HW2 7365   2.229   0.192   3.016  0.8763 -0.0062  3.6087
 1812SOL    HW3 7366   2.188   0.049   3.046  1.0573 -0.6529  0.9240
 1812SOL    MW4 7367   2.241   0.106   3.007  0.0348  0.1190  0.6363
 1813SOL     OW 7368   2.240   0.366   3.075 -0.2247  0.1209  0.0383
 1813SOL    HW2 7369   2.248   0.365   3.170 -0.4365 -1.3453  0.0505
 1813SOL    HW3 7370   2.168   0.428   3.058 -0.7570 -0.2588  0.8774
 1813SOL    MW4 7371   2.231   0.374   3.085 -0.3228 -0.1227  0.1507
 1814SOL     OW 7372   2.445   0.522   2.957  0.2869  0.0877  0.0398
 1814SOL    HW2 7373   2.381   0.468   3.003  0.5834  0.2695  0.6706
 1814SOL    HW3 7374   2.450   0.484   2.869 -0.3236 -0.2260  0.1423
 1814SOL    MW4 7375   2.438   0.510   2.951  0.2456  0.0703  0.1366
 1815SOL     OW 7376   2.456   0.773   3.063 -0.0675 -0.3447 -0.5032
 1815SOL    HW2 7377   2.539   0.809   3.031 -0.2972  0.4421 -0.2305
 1815SOL    HW3 7378   2.455   0.683   3.031  0.6625 -0.2045 -0.9372
 1815SOL    MW4 7379   2.466   0.766   3.054 -0.0014 -0.2224 -0.5245
 1816SOL     OW 7380   2.239   0.929   2.960  0.5290  0.8711  0.4483
 1816SOL    HW2 7381   2.308   0.879   3.003  0.3157 -0.3623 -0.6272
 1816SOL    HW3 7382   2.159   0.906   3.007  0.6612  1.3821  0.9295
 1816SOL    MW4 7383   2.238   0.920   2.972  0.5181  0.7758  0.3700
 1817SOL     OW 7384   2.252   1.165   3.085  1.0589  0.5047 -0.3015
 1817SOL    HW2 7385   2.241   1.148   3.179 -0.1753  0.8617 -0.3800
 1817SOL    HW3 7386   2.262   1.078   3.046  1.0861  0.3276  0.0964
 1817SOL    MW4 7387   2.252   1.152   3.093  0.8996  0.5285 -0.2594
 1818SOL     OW 7388   2.496   1.281   3.032  0.1964 -0.2712  0.3986
 1818SOL    HW2 7389   2.412   1.240   3.054  0.3833 -0.2701  1.1114
 1818SOL    HW3 7390   2.492   1.292   2.937 -1.3801  1.3706  0.6244
 1818SOL    MW4 7391   2.484   1.277   3.022  0.0131 -0.0545  0.5224
 1819SOL     OW 7392   2.449   1.539   3.137 -0.4627  0.3319 -0.0241
 1819SOL    HW2 7393   2.366   1.575   3.107  0.2591  0.7036 -1.5993
 1819SOL    HW3 7394   2.454   1.453   3.097  0.3041  0.6510 -0.6193
 1819SOL    MW4 7395   2.439   1.533   3.128 -0.2663  0.4232 -0.3107
 1820SOL     OW 7396   2.228   1.680   3.023  0.2122 -0.2679  0.3496
 1820SOL    HW2 7397   2.145   1.638   3.044  0.2875 -0.6757 -0.1672
 1820SOL    HW3 7398   2.220   1.768   3.060  0.5108 -1.1096  2.5146
 1820SOL    MW4 7399   2.216   1.686   3.031  0.2615 -0.4327  0.5670
 1821SOL     OW 7400   2.224   1.960   3.110  0.7279 -0.3345  0.3096
 1821SOL    HW2 7401   2.303   2.011   3.091 -0.5112  1.5622  0.0657
 1821SOL    HW3 7402   2.213   1.966   3.205  0.7723 -0.4595  0.3232
 1821SOL    MW4 7403   2.233   1.967   3.120  0.5705 -0.1007  0.2792
 1822SOL     OW 7404   2.482   2.071   2.984 -0.1269 -0.3884 -0.2207
 1822SOL    HW2 7405   2.543   2.007   3.021  0.2160  0.4861  0.7342
 1822SOL    HW3 7406   2.496   2.065   2.890  0.7279 -0.9050 -0.0701
 1822SOL    MW4 7407   2.492   2.061   2.977  0.0312 -0.3412 -0.0749
 1823SOL     OW 7408   2.229   2.663   3.325 -0.1013  0.1751 -0.1510
 1823SOL    HW2 7409   2.306   2.713   3.352  1.2410 -1.9703  0.0464
 1823SOL    HW3 7410   2.242   2.576   3.361 -2.6613 -0.2197 -0.0811
 1823SOL    MW4 7411   2.241   2.658   3.333 -0.2618 -0.1602 -0.1159
 1824SOL     OW 7412   2.464   2.341   3.062  0.1606  0.2605  0.1930
 1824SOL    HW2 7413   2.464   2.347   3.157 -1.2863  0.8400  0.1635
 1824SOL    HW3 7414   2.469   2.247   3.044 -0.5190  0.0968  0.8503
 1824SOL    MW4 7415   2.465   2.329   3.072 -0.1202  0.3154  0.2756
 1825SOL     OW 7416   2.231   2.435   2.971 -0.0609 -0.2210  0.3706
 1825SOL    HW2 7417   2.235   2.530   2.984 -1.3021 -0.3364  1.6840
 1825SOL    HW3 7418   2.318   2.404   2.998  0.7024  0.6326 -1.0331
 1825SOL    MW4 7419   2.243   2.443   2.976 -0.1240 -0.1235  0.3586
 1826SOL     OW 7420   2.467   2.866   3.001  0.6366 -0.0939  0.2698
 1826SOL    HW2 7421   2.469   2.957   3.031  0.8634  0.0983 -0.3209
 1826SOL    HW3 7422   2.387   2.830   3.039  0.8385  0.1873  0.9732
 1826SOL    MW4 7423   2.457   2.873   3.010  0.6933 -0.0312  0.2847
 1827SOL     OW 7424   2.450   3.129   3.083 -0.0960 -0.1904  0.3425
 1827SOL    HW2 7425   2.533   3.168   3.054 -0.3503 -0.2843 -0.5167
 1827SOL    HW3 7426   2.382   3.182   3.041 -0.4619 -0.6349  0.3700
 1827SOL    MW4 7427   2.452   3.141   3.073 -0.1779 -0.2613  0.2329
 1828SOL     OW 7428   2.238   3.248   2.960 -0.3170 -0.0288  0.3796
 1828SOL    HW2 7429   2.235   3.334   3.003  1.6749  0.3532 -0.2162
 1828SOL    HW3 7430   2.172   3.197   3.006  0.0529  1.1260  2.2726
 1828SOL    MW4 7431   2.229   3.253   2.972 -0.0052  0.1740  0.5510
 1829SOL     OW 7432   2.229   3.493   3.101 -0.4208 -0.1869  0.3333
 1829SOL    HW2 7433   2.309   3.529   3.061 -0.4322 -2.3863 -1.7485
 1829SOL    HW3 7434   2.157   3.534   3.053 -0.4754 -0.7521 -0.0748
 1829SOL    MW4 7435   2.230   3.503   3.090 -0.4296 -0.5515  0.0048
 1830SOL     OW 7436   2.460   3.583   2.975  0.2641 -0.0585  0.4713
 1830SOL    HW2 7437   2.532   3.549   3.029 -1.2765 -1.2637  1.8170
 1830SOL    HW3 7438   2.446   3.672   3.005  0.6591 -0.0961  0.7645
 1830SOL    MW4 7439   2.468   3.590   2.986  0.1135 -0.2224  0.6876
 1831SOL     OW 7440   2.426   3.838   3.068  0.3872 -0.3489  0.1624
 1831SOL    HW2 7441   2.428   3.855   3.163 -1.2144  1.8233 -0.1506
 1831SOL    HW3 7442   2.508   3.876   3.036  1.3561 -1.8838  0.7842
 1831SOL    MW4 7443   2.437   3.845   3.077  0.3037 -0.2646  0.2034
 1832SOL     OW 7444   2.203   4.005   2.984  0.1711  0.2734  0.0966
 1832SOL    HW2 7445   2.283   3.960   3.011 -0.2642 -0.6390 -0.1217
 1832SOL    HW3 7446   2.132   3.951   3.018 -0.3687  0.2611 -1.0049
 1832SOL    MW4 7447   2.204   3.992   2.992  0.0427  0.1512 -0.0775
 1833SOL     OW 7448   2.214   4.273   3.101 -0.0718 -0.2077  0.0022
 1833SOL    HW2 7449   2.213   4.186   3.061 -0.5844 -1.0600  1.7936
 1833SOL    HW3 7450   2.125   4.306   3.089  0.5377  0.7914 -2.1106
 1833SOL    MW4 7451   2.202   4.266   3.094 -0.0591 -0.1888 -0.0401
 1834SOL     OW 7452   2.449   4.393   2.990  0.3132  0.9434 -0.2506
 1834SOL    HW2 7453   2.365   4.358   3.020  1.4598 -0.6155  1.2373
 1834SOL    HW3 7454   2.437   4.407   2.896 -1.1851 -0.5068 -0.2939
 1834SOL    MW4 7455   2.436   4.391   2.981  0.2668  0.5465 -0.0598
 1835SOL     OW 7456   2.907   4.646   3.051 -0.2458  0.5574 -0.1057
 1835SOL    HW2 7457   2.978   4.695   3.009  0.0915  0.0145 -0.1721
 1835SOL    HW3 7458   2.926   4.554   3.031 -0.4081  0.3398  0.7294
 1835SOL    MW4 7459   2.919   4.640   3.043 -0.2224  0.4568 -0.0043
 1836SOL     OW 7460   2.695   0.116   2.993  0.2030  0.2632 -0.1675
 1836SOL    HW2 7461   2.775   0.069   3.015 -0.1836 -0.3232  0.0102
 1836SOL    HW3 7462   2.626   0.068   3.038 -0.2935  0.5317 -0.6305
 1836SOL    MW4 7463   2.696   0.103   3.002  0.0865  0.2212 -0.2050
 1837SOL     OW 7464   2.679   0.405   3.079 -0.1183  0.8542 -0.0894
 1837SOL    HW2 7465   2.666   0.314   3.053  0.6150  1.1782 -1.6527
 1837SOL    HW3 7466   2.598   0.449   3.055  0.0527  0.8822 -0.6291
 1837SOL    MW4 7467   2.667   0.399   3.073  0.0012  0.9007 -0.3669
 1838SOL     OW 7468   2.923   0.483   2.946 -0.5616 -0.1022 -0.2366
 1838SOL    HW2 7469   2.831   0.459   2.954 -0.4661 -0.1064  0.8525
 1838SOL    HW3 7470   2.936   0.494   2.851 -1.2885 -1.5846 -0.5205
 1838SOL    MW4 7471   2.912   0.481   2.934 -0.6454 -0.2984 -0.1304
 1839SOL     OW 7472   2.946   0.726   3.081 -0.1625  0.3178  0.3437
 1839SOL    HW2 7473   2.940   0.721   3.177 -0.3155 -1.3026  0.2523
 1839SOL    HW3 7474   2.944   0.635   3.052  1.0454  0.7496 -1.1342
 1839SOL    MW4 7475   2.945   0.713   3.090 -0.0231  0.1611  0.1366
 1840SOL     OW 7476   2.717   0.851   2.982 -0.1926  0.2585  0.5598
 1840SOL    HW2 7477   2.716   0.943   3.007 -0.4189  0.5086 -0.3401
 1840SOL    HW3 7478   2.801   0.818   3.013  0.8499  1.3167 -1.0506
 1840SOL    MW4 7479   2.728   0.858   2.990 -0.0849  0.4311  0.2286
 1841SOL     OW 7480   2.707   1.111   3.091 -0.0121 -0.2190 -0.1371
 1841SOL    HW2 7481   2.791   1.148   3.064 -0.2131 -1.0287 -2.0012
 1841SOL    HW3 7482   2.641   1.169   3.052 -0.3480  1.0694  2.2740
 1841SOL    MW4 7483   2.709   1.123   3.082 -0.0830 -0.1559 -0.0651
 1842SOL     OW 7484   2.930   1.245   2.968  1.3409 -0.0777  0.0152
 1842SOL    HW2 7485   2.998   1.189   3.006  1.6032  0.1988 -0.0460
 1842SOL    HW3 7486   2.944   1.330   3.008  0.2532 -0.3174  0.9315
 1842SOL    MW4 7487   2.941   1.249   2.979  1.2319 -0.0728  0.1280
 1843SOL     OW 7488   2.931   1.493   3.084  0.0823 -0.0575  0.4331
 1843SOL    HW2 7489   2.937   1.515   3.177  0.5267  0.0863  0.3703
 1843SOL    HW3 7490   2.997   1.547   3.041  0.4221 -0.6964  0.1356
 1843SOL    MW4 7491   2.940   1.503   3.090  0.1857 -0.1228  0.3855
 1844SOL     OW 7492   2.687   1.604   2.994  0.3021  0.2353  0.1220
 1844SOL    HW2 7493   2.760   1.550   3.023 -0.2545 -0.7252 -0.2456
 1844SOL    HW3 7494   2.614   1.580   3.051 -0.1392  0.0816 -0.4947
 1844SOL    MW4 7495   2.687   1.594   3.005  0.1702  0.0883 -0.0079
 1845SOL     OW 7496   2.699   1.895   3.058 -0.3262 -0.2444 -0.2981
 1845SOL    HW2 7497   2.778   1.935   3.023 -0.9167 -0.7064 -2.2029
 1845SOL    HW3 7498   2.705   1.803   3.034 -1.7512 -0.1549 -1.0411
 1845SOL    MW4 7499   2.710   1.888   3.051 -0.5922 -0.2936 -0.6473
 1846SOL     OW 7500   2.912   2.036   2.911  0.0442  0.5367 -0.1383
 1846SOL    HW2 7501   2.910   2.127   2.941  2.2458  0.3304  0.7791
 1846SOL    HW3 7502   2.917   2.043   2.816  1.1204  1.4142 -0.0306
 1846SOL    MW4 7503   2.913   2.049   2.903  0.4766  0.6254 -0.0029
 1847SOL     OW 7504   3.161   2.426   2.949 -0.4591 -0.1566  0.5757
 1847SOL    HW2 7505   3.231   2.373   2.986 -0.6200 -1.4932 -0.9725
 1847SOL    HW3 7506   3.081   2.381   2.975 -0.5879 -0.8117 -0.9442
 1847SOL    MW4 7507   3.160   2.413   2.957 -0.4973 -0.4194  0.1707
 1848SOL     OW 7508   2.706   2.461   2.938  0.1040 -0.1234  0.4406
 1848SOL    HW2 7509   2.701   2.553   2.966  0.5531 -0.2583  0.9777
 1848SOL    HW3 7510   2.618   2.427   2.951 -0.6172  0.8197 -1.8147
 1848SOL    MW4 7511   2.694   2.469   2.943  0.0684 -0.0167  0.2139
 1849SOL     OW 7512   2.707   2.726   3.065  0.6163  0.4926  0.0743
 1849SOL    HW2 7513   2.722   2.735   3.159  0.0126 -0.4495  0.2597
 1849SOL    HW3 7514   2.619   2.760   3.051  0.1128 -0.8041  0.0818
 1849SOL    MW4 7515   2.698   2.732   3.076  0.4704  0.1974  0.0999
 1850SOL     OW 7516   2.908   2.868   2.984 -0.3584 -0.0359  0.4934
 1850SOL    HW2 7517   2.980   2.808   3.004 -0.0728  0.1923  0.1679
 1850SOL    HW3 7518   2.829   2.821   3.010 -0.1292 -0.5259  0.3118
 1850SOL    MW4 7519   2.907   2.854   2.990 -0.2904 -0.0703  0.4263
 1851SOL     OW 7520   2.939   3.135   3.063  0.2640  0.4734 -0.0938
 1851SOL    HW2 7521   2.862   3.181   3.029  0.0947  1.0943  1.0872
 1851SOL    HW3 7522   2.919   3.042   3.051 -0.3825  0.6522 -0.4171
 1851SOL    MW4 7523   2.926   3.129   3.057  0.1566  0.5786  0.0193
 1852SOL     OW 7524   2.694   3.240   2.989  0.1481 -0.1059 -0.4081
 1852SOL    HW2 7525   2.691   3.324   3.035  1.2337 -0.3143  0.0547
 1852SOL    HW3 7526   2.703   3.263   2.897 -0.7396  0.2992 -0.3985
 1852SOL    MW4 7527   2.694   3.254   2.983  0.1740 -0.0796 -0.3457
 1853SOL     OW 7528   2.680   3.490   3.094  0.3270 -0.2894 -0.1612
 1853SOL    HW2 7529   2.692   3.487   3.188 -1.0243  0.5079  0.0497
 1853SOL    HW3 7530   2.750   3.548   3.063  0.1632  0.2589  0.4741
 1853SOL    MW4 7531   2.691   3.498   3.102  0.1273 -0.1121 -0.0491
 1854SOL     OW 7532   2.912   3.645   2.987 -0.6823  0.0623  0.1816
 1854SOL    HW2 7533   2.999   3.609   3.009 -0.3730  0.1089 -0.9444
 1854SOL    HW3 7534   2.914   3.734   3.022  0.4590  0.7442 -1.5207
 1854SOL    MW4 7535   2.924   3.652   2.995 -0.4911  0.1585 -0.1915
 1855SOL     OW 7536   2.927   3.898   3.077  0.1320  0.3226 -0.1408
 1855SOL    HW2 7537   2.915   3.919   3.169 -1.2509 -1.5050  0.1299
 1855SOL    HW3 7538   2.847   3.929   3.034 -0.0697 -0.5433 -0.4047
 1855SOL    MW4 7539   2.915   3.904   3.083 -0.0772 -0.0329 -0.1397
 1856SOL     OW 7540   2.656   3.981   2.973 -0.6192  0.3401  0.3586
 1856SOL    HW2 7541   2.658   4.073   2.998  1.0027  0.7772 -1.3110
 1856SOL    HW3 7542   2.652   3.982   2.877 -0.6278 -1.3249  0.3289
 1856SOL    MW4 7543   2.656   3.993   2.963 -0.4065  0.1783  0.1345
 1857SOL     OW 7544   2.692   4.257   3.066 -0.5961  0.4069  0.1538
 1857SOL    HW2 7545   2.697   4.247   3.161 -2.1791 -0.7242  0.1426
 1857SOL    HW3 7546   2.611   4.307   3.052 -0.8842 -0.2794 -0.6461
 1857SOL    MW4 7547   2.682   4.262   3.077 -0.8430  0.1669  0.0470
 1858SOL     OW 7548   2.937   4.356   2.967 -0.2685 -0.3219  0.2301
 1858SOL    HW2 7549   3.011   4.320   3.015 -0.4924 -0.9086  0.1344
 1858SOL    HW3 7550   2.860   4.323   3.013 -0.4758  1.8565  1.5062
 1858SOL    MW4 7551   2.936   4.347   2.979 -0.3254 -0.1116  0.3858
 1859SOL     OW 7552   3.336   4.633   3.071  0.5304  0.1319  0.2035
 1859SOL    HW2 7553   3.408   4.695   3.060  0.0202  0.9237  1.2703
 1859SOL    HW3 7554   3.372   4.550   3.039  1.7731  0.6081  0.3213
 1859SOL    MW4 7555   3.351   4.630   3.065  0.6268  0.2995  0.3598
 1860SOL     OW 7556   3.129   0.098   2.953  0.0685 -0.4375  0.1329
 1860SOL    HW2 7557   3.127   0.179   3.005  0.4435  0.2214 -0.8743
 1860SOL    HW3 7558   3.198   0.046   2.994  0.0080 -0.1327  0.6277
 1860SOL    MW4 7559   3.138   0.102   2.966  0.1101 -0.3103  0.0656
 1861SOL     OW 7560   3.132   0.337   3.092  0.1786  0.5899 -0.0247
 1861SOL    HW2 7561   3.205   0.380   3.047 -0.9587  1.7779 -0.7896
 1861SOL    HW3 7562   3.055   0.384   3.061 -1.1815 -2.3651 -1.2515
 1861SOL    MW4 7563   3.132   0.349   3.082 -0.1509  0.3568 -0.2873
 1862SOL     OW 7564   3.367   0.463   2.969  0.1400  0.2645  0.3527
 1862SOL    HW2 7565   3.443   0.411   2.995  0.3214  0.4114  0.1245
 1862SOL    HW3 7566   3.375   0.470   2.874  0.2529  0.9115  0.4066
 1862SOL    MW4 7567   3.378   0.457   2.960  0.1791  0.3693  0.3297
 1863SOL     OW 7568   3.366   0.726   3.052  0.3957 -0.6755  0.0737
 1863SOL    HW2 7569   3.370   0.720   3.148  0.5472  0.0020  0.1151
 1863SOL    HW3 7570   3.363   0.636   3.022  0.5188 -0.8940  0.7138
 1863SOL    MW4 7571   3.366   0.714   3.061  0.4318 -0.6149  0.1633
 1864SOL     OW 7572   3.147   0.878   2.967 -0.1010 -0.2693 -0.0413
 1864SOL    HW2 7573   3.222   0.838   3.011 -0.3795  0.5610  1.2068
 1864SOL    HW3 7574   3.071   0.832   3.003 -0.2519 -0.5907 -0.7491
 1864SOL    MW4 7575   3.147   0.866   2.977 -0.1578 -0.2022  0.0300
 1865SOL     OW 7576   3.151   1.119   3.110 -0.3561 -0.3313  0.1097
 1865SOL    HW2 7577   3.210   1.176   3.060  2.0883 -1.1808  1.8919
 1865SOL    HW3 7578   3.153   1.036   3.062  0.2586 -0.4893  0.4016
 1865SOL    MW4 7579   3.159   1.115   3.097  0.0474 -0.4642  0.3834
 1866SOL     OW 7580   3.332   1.283   2.988  0.3713 -0.3838  0.1026
 1866SOL    HW2 7581   3.419   1.252   3.014 -0.2063 -1.4150  0.8551
 1866SOL    HW3 7582   3.324   1.369   3.030  1.0764 -0.2231 -0.0871
 1866SOL    MW4 7583   3.343   1.290   2.997  0.3884 -0.4988  0.1769
 1867SOL     OW 7584   3.388   1.530   3.102  0.0488 -0.4939 -0.1122
 1867SOL    HW2 7585   3.400   1.528   3.196  1.1064  0.5057 -0.2176
 1867SOL    HW3 7586   3.467   1.573   3.068 -0.8497  0.2212 -1.3457
 1867SOL    MW4 7587   3.400   1.536   3.110  0.0694 -0.2679 -0.2887
 1868SOL     OW 7588   3.148   1.623   2.997 -0.5787 -0.0126 -0.3754
 1868SOL    HW2 7589   3.230   1.594   3.037 -0.2060  1.9644  0.3248
 1868SOL    HW3 7590   3.171   1.636   2.904 -0.2505 -0.0847 -0.3064
 1868SOL    MW4 7591   3.162   1.621   2.990 -0.4864  0.2387 -0.2737
 1869SOL     OW 7592   3.108   1.888   3.044 -0.4650 -0.1825  0.1891
 1869SOL    HW2 7593   3.109   1.795   3.023  1.2466 -0.0174 -0.4891
 1869SOL    HW3 7594   3.040   1.924   2.987 -0.5553 -0.8760 -0.1446
 1869SOL    MW4 7595   3.099   1.880   3.033 -0.2511 -0.2521  0.0556
 1870SOL     OW 7596   3.340   2.028   2.982 -0.2774  0.2565 -0.1557
 1870SOL    HW2 7597   3.415   1.983   3.022 -0.7165 -1.0816 -0.7941
 1870SOL    HW3 7598   3.264   1.993   3.028 -0.5340  1.3174  0.2197
 1870SOL    MW4 7599   3.340   2.017   2.993 -0.3691  0.2201 -0.1903
 1871SOL     OW 7600   3.370   2.293   3.103 -0.0576 -0.6244 -0.3381
 1871SOL    HW2 7601   3.370   2.286   3.198  0.9611  0.0310 -0.2865
 1871SOL    HW3 7602   3.364   2.202   3.072  1.8301 -0.9927  0.3493
 1871SOL    MW4 7603   3.369   2.280   3.111  0.3259 -0.5867 -0.2406
 1872SOL     OW 7604   3.152   2.442   2.672  0.4946  0.2502  0.1681
 1872SOL    HW2 7605   3.152   2.448   2.768  0.0142 -0.3812  0.2122
 1872SOL    HW3 7606   3.235   2.401   2.650  0.8957  1.0067  0.2747
 1872SOL    MW4 7607   3.163   2.437   2.682  0.4840  0.2666  0.1879
 1873SOL     OW 7608   3.142   2.711   3.000 -0.0091 -0.1030  0.1342
 1873SOL    HW2 7609   3.149   2.703   3.095 -1.9648  0.0715  0.3045
 1873SOL    HW3 7610   3.158   2.622   2.967 -1.4207 -0.5986  0.7631
 1873SOL    MW4 7611   3.145   2.698   3.008 -0.4535 -0.1452  0.2398
 1874SOL     OW 7612   3.401   2.839   2.957 -0.7880  0.0371 -0.2241
 1874SOL    HW2 7613   3.407   2.928   2.992  0.2749 -1.1242  2.7413
 1874SOL    HW3 7614   3.321   2.803   2.996 -0.3036 -0.8429 -0.0068
 1874SOL    MW4 7615   3.391   2.846   2.967 -0.5836 -0.2325  0.1957
 1875SOL     OW 7616   3.389   3.091   3.053  0.1154 -0.4048 -0.0843
 1875SOL    HW2 7617   3.398   3.098   3.148  0.1401  1.1187 -0.1853
 1875SOL    HW3 7618   3.319   3.152   3.030 -0.8969 -1.8160 -0.9066
 1875SOL    MW4 7619   3.381   3.100   3.062 -0.0150 -0.3901 -0.2060
 1876SOL     OW 7620   3.174   3.248   2.995  0.0248 -0.2540 -0.1396
 1876SOL    HW2 7621   3.091   3.203   3.009 -0.4352  0.3607 -0.8704
 1876SOL    HW3 7622   3.183   3.253   2.899  0.2175  0.9234 -0.0682
 1876SOL    MW4 7623   3.164   3.243   2.984 -0.0105 -0.0179 -0.2267
 1877SOL     OW 7624   3.146   3.513   3.050 -0.4876  0.3735  0.3767
 1877SOL    HW2 7625   3.230   3.555   3.031 -0.6777  1.2984  1.5091
 1877SOL    HW3 7626   3.159   3.421   3.027  0.6911  0.6081  0.0951
 1877SOL    MW4 7627   3.159   3.506   3.045 -0.3572  0.5264  0.4890
 1878SOL     OW 7628   3.427   3.610   2.968  0.6002  0.5289 -0.0336
 1878SOL    HW2 7629   3.504   3.572   3.012  1.4951  2.6074  0.2442
 1878SOL    HW3 7630   3.415   3.695   3.010 -0.4620  1.1999 -1.6587
 1878SOL    MW4 7631   3.436   3.616   2.979  0.5779  0.8917 -0.2112
 1879SOL     OW 7632   3.367   3.833   3.101 -0.9204  0.4077  0.6274
 1879SOL    HW2 7633   3.367   3.841   3.196 -1.6688  0.4836  0.6223
 1879SOL    HW3 7634   3.297   3.891   3.071 -1.4370 -0.4591  0.1102
 1879SOL    MW4 7635   3.358   3.841   3.109 -1.0872  0.3035  0.5586
 1880SOL     OW 7636   3.182   4.007   3.009 -0.0385 -0.5012  0.4877
 1880SOL    HW2 7637   3.092   3.985   3.033 -0.1919  0.0079  0.3936
 1880SOL    HW3 7638   3.180   4.015   2.914 -0.1001  0.3930  0.5576
 1880SOL    MW4 7639   3.170   4.005   3.000 -0.0668 -0.3157  0.4847
 1881SOL     OW 7640   3.177   4.290   3.102 -0.0946 -0.2525 -0.4689
 1881SOL    HW2 7641   3.165   4.276   3.196  0.0964  0.0880 -0.3961
 1881SOL    HW3 7642   3.201   4.204   3.068 -1.5066 -0.6924 -0.4182
 1881SOL    MW4 7643   3.178   4.277   3.110 -0.2556 -0.2656 -0.4525
 1882SOL     OW 7644   3.424   4.381   2.982 -0.0895  0.6282  0.0094
 1882SOL    HW2 7645   3.497   4.343   3.030  0.0224  0.2846 -0.4304
 1882SOL    HW3 7646   3.346   4.344   3.024 -0.0673  2.2387  1.5258
 1882SOL    MW4 7647   3.423   4.371   2.994 -0.0718  0.7954  0.1516
 1883SOL     OW 7648   3.840   4.624   3.081  0.2345 -0.1145 -0.2896
 1883SOL    HW2 7649   3.829   4.535   3.046 -0.6376  0.5255 -1.6540
 1883SOL    HW3 7650   3.751   4.659   3.086  0.6300  0.8890 -0.2921
 1883SOL    MW4 7651   3.827   4.617   3.077  0.1712  0.1020 -0.4699
 1884SOL     OW 7652   3.604   0.071   3.048 -0.9232 -0.2225 -0.1954
 1884SOL    HW2 7653   3.606   0.165   3.066 -1.0981 -0.3856  0.7283
 1884SOL    HW3 7654   3.617   0.064   2.953 -0.3337  0.6974 -0.1888
 1884SOL    MW4 7655   3.606   0.083   3.038 -0.8686 -0.1227 -0.0725
 1885SOL     OW 7656   3.633   0.347   3.069 -0.3059  0.4163 -0.3266
 1885SOL    HW2 7657   3.636   0.361   3.164  1.4555  0.2921 -0.3444
 1885SOL    HW3 7658   3.708   0.395   3.035 -0.5760 -0.0304 -1.6026
 1885SOL    MW4 7659   3.643   0.355   3.077 -0.1092  0.3410 -0.4973
 1886SOL     OW 7660   3.870   0.490   2.961  0.3161  0.0368  0.3865
 1886SOL    HW2 7661   3.941   0.459   3.016  1.2528  1.3547 -0.0378
 1886SOL    HW3 7662   3.862   0.583   2.983  0.1186  0.3712 -1.0532
 1886SOL    MW4 7663   3.878   0.498   2.971  0.4137  0.2548  0.1407
 1887SOL     OW 7664   3.827   0.754   3.054  0.3181 -0.6389 -0.5158
 1887SOL    HW2 7665   3.833   0.740   3.148 -1.2792 -3.0071 -0.7162
 1887SOL    HW3 7666   3.901   0.811   3.033  0.3424  0.4335  2.2445
 1887SOL    MW4 7667   3.837   0.760   3.063  0.1106 -0.8098 -0.1779
 1888SOL     OW 7668   3.591   0.867   2.959 -0.4405  0.0503 -0.4635
 1888SOL    HW2 7669   3.672   0.824   2.989  0.4216  1.5162 -0.6341
 1888SOL    HW3 7670   3.521   0.807   2.984  0.3784  0.3891  2.8916
 1888SOL    MW4 7671   3.593   0.853   2.966 -0.2189  0.2884 -0.0434
 1889SOL     OW 7672   3.587   1.150   3.027  0.2642 -0.4395  0.1915
 1889SOL    HW2 7673   3.676   1.182   3.018 -0.1760  0.5509 -0.8653
 1889SOL    HW3 7674   3.595   1.055   3.019  1.4070 -0.4989  1.8259
 1889SOL    MW4 7675   3.600   1.141   3.025  0.3567 -0.3166  0.2675
 1890SOL     OW 7676   3.853   1.301   2.982 -0.0677 -0.1389  0.1414
 1890SOL    HW2 7677   3.852   1.393   3.007  0.6195  0.4548 -1.8999
 1890SOL    HW3 7678   3.849   1.302   2.887 -1.6568 -2.2849  0.1628
 1890SOL    MW4 7679   3.852   1.313   2.973 -0.1864 -0.3438 -0.1254
 1891SOL     OW 7680   3.827   1.561   3.102  0.5451 -0.1107  0.1370
 1891SOL    HW2 7681   3.809   1.555   3.196  0.7350  4.4358  0.5671
 1891SOL    HW3 7682   3.746   1.592   3.064  0.5288 -1.7681 -1.2506
 1891SOL    MW4 7683   3.814   1.564   3.110  0.5679  0.2704  0.0105
 1892SOL     OW 7684   3.608   1.639   2.984 -0.0735  0.1969 -0.3456
 1892SOL    HW2 7685   3.587   1.728   3.013  0.0828 -0.3478  1.4903
 1892SOL    HW3 7686   3.603   1.643   2.888 -2.2409  1.6376 -0.1929
 1892SOL    MW4 7687   3.605   1.651   2.975 -0.3386  0.3152 -0.0832
 1893SOL     OW 7688   3.567   1.891   3.077 -0.2480  0.1427 -0.0239
 1893SOL    HW2 7689   3.548   1.914   3.168 -0.6043 -1.1521  0.2331
 1893SOL    HW3 7690   3.641   1.947   3.053 -1.6426  2.1767  0.3095
 1893SOL    MW4 7691   3.575   1.902   3.086 -0.4792  0.2401  0.0539
 1894SOL     OW 7692   3.806   2.021   2.998  0.1062  0.1436 -0.4359
 1894SOL    HW2 7693   3.825   2.102   3.044  0.7785 -0.0546 -0.3513
 1894SOL    HW3 7694   3.825   2.039   2.906 -0.9168  0.4399 -0.5979
 1894SOL    MW4 7695   3.811   2.034   2.992  0.0598  0.1564 -0.4461
 1895SOL     OW 7696   3.815   2.288   3.077 -0.4359  0.2621 -0.3758
 1895SOL    HW2 7697   3.807   2.299   3.171 -0.3555  0.3794 -0.3824
 1895SOL    HW3 7698   3.735   2.326   3.041 -0.5663  0.0213 -0.3415
 1895SOL    MW4 7699   3.803   2.294   3.084 -0.4425  0.2458 -0.3724
 1896SOL     OW 7700   3.589   2.399   2.978  0.2062 -0.1283 -0.1032
 1896SOL    HW2 7701   3.604   2.488   3.009 -0.9404 -0.4507  1.4061
 1896SOL    HW3 7702   3.505   2.373   3.016 -0.3954 -1.1884 -2.0508
 1896SOL    MW4 7703   3.580   2.407   2.987 -0.0248 -0.3107 -0.1607
 1897SOL     OW 7704   3.584   2.670   3.093  0.1428  0.0441 -0.0123
 1897SOL    HW2 7705   3.665   2.721   3.084 -0.4185  1.2395  1.4383
 1897SOL    HW3 7706   3.519   2.720   3.044  0.8027 -2.3023 -3.4714
 1897SOL    MW4 7707   3.586   2.684   3.085  0.1559 -0.1075 -0.2770
 1898SOL     OW 7708   3.816   2.843   3.026  0.5709 -0.1383 -0.0572
 1898SOL    HW2 7709   3.816   2.937   3.044 -0.2058 -0.1365 -0.0497
 1898SOL    HW3 7710   3.791   2.836   2.934  0.8551 -0.3260 -0.1192
 1898SOL    MW4 7711   3.813   2.855   3.016  0.5059 -0.1631 -0.0646
 1899SOL     OW 7712   3.842   3.119   3.085 -0.1116 -0.2814  0.2337
 1899SOL    HW2 7713   3.913   3.169   3.044 -0.1827  0.8660  1.4711
 1899SOL    HW3 7714   3.765   3.175   3.076 -0.2724 -0.3112  1.3051
 1899SOL    MW4 7715   3.841   3.133   3.079 -0.1421 -0.1340  0.5383
 1900SOL     OW 7716   3.620   3.241   2.998  0.0161 -0.3233 -0.0107
 1900SOL    HW2 7717   3.542   3.188   3.016 -0.3723 -0.1352 -1.0560
 1900SOL    HW3 7718   3.620   3.249   2.902  0.6045  0.7703  0.0850
 1900SOL    MW4 7719   3.610   3.235   2.988  0.0424 -0.1543 -0.1361
 1901SOL     OW 7720   3.615   3.487   3.121  0.3367 -0.3974 -0.1581
 1901SOL    HW2 7721   3.685   3.537   3.077  1.7051 -1.4344  0.7824
 1901SOL    HW3 7722   3.617   3.401   3.079  0.1783 -0.6920  0.4275
 1901SOL    MW4 7723   3.625   3.482   3.110  0.4964 -0.5729  0.0434
 1902SOL     OW 7724   3.809   3.653   3.015 -0.3825 -0.0352  0.1210
 1902SOL    HW2 7725   3.830   3.742   3.044 -1.2006  0.3761 -0.5203
 1902SOL    HW3 7726   3.827   3.654   2.921  1.3278 -1.0759  0.4333
 1902SOL    MW4 7727   3.814   3.665   3.006 -0.2646 -0.1183  0.0777
 1903SOL     OW 7728   3.849   3.913   3.064  0.2642 -0.1374  0.1041
 1903SOL    HW2 7729   3.838   3.900   3.158  0.6789  0.4226  0.2339
 1903SOL    HW3 7730   3.761   3.931   3.031 -0.0274 -1.3555  0.2222
 1903SOL    MW4 7731   3.836   3.914   3.072  0.2801 -0.2241  0.1369
 1904SOL     OW 7732   3.578   3.991   3.017  0.5240  0.5973 -0.1023
 1904SOL    HW2 7733   3.518   3.924   3.050  0.6120  1.0900  1.0782
 1904SOL    HW3 7734   3.579   3.978   2.922 -0.2873 -0.3783  0.0180
 1904SOL    MW4 7735   3.570   3.980   3.009  0.4284  0.5336  0.0696
 1905SOL     OW 7736   3.615   4.243   3.125 -0.2888  0.0563 -0.0573
 1905SOL    HW2 7737   3.679   4.285   3.067  0.4570 -0.4353  0.4057
 1905SOL    HW3 7738   3.598   4.158   3.085 -0.1649 -0.0732  0.1621
 1905SOL    MW4 7739   3.621   4.238   3.112 -0.1738 -0.0257  0.0327
 1906SOL     OW 7740   3.813   4.372   2.970 -0.1222 -0.7760  0.2053
 1906SOL    HW2 7741   3.895   4.336   3.005  0.8558  0.9680 -0.2269
 1906SOL    HW3 7742   3.826   4.373   2.875 -1.0175 -1.3312  0.0721
 1906SOL    MW4 7743   3.826   4.367   2.962 -0.1116 -0.6194  0.1307
 1907SOL     OW 7744   4.285   0.010   3.051 -0.4122  0.4700  0.0166
 1907SOL    HW2 7745   4.292   0.018   3.146  0.6804 -0.2871  0.0042
 1907SOL    HW3 7746   4.273  -0.084   3.036  1.4180  0.3347 -0.7068
 1907SOL    MW4 7747   4.284  -0.002   3.062 -0.0267  0.3524 -0.0806
 1908SOL     OW 7748   4.032   0.100   2.956  0.0441  0.3164 -0.6291
 1908SOL    HW2 7749   4.110   0.064   2.997  0.1702  0.8531 -0.3966
 1908SOL    HW3 7750   3.960   0.043   2.984  0.1965  0.4243 -0.0178
 1908SOL    MW4 7751   4.032   0.088   2.965  0.0806  0.4014 -0.5176
 1909SOL     OW 7752   4.052   0.336   3.108  0.4284 -0.1495 -0.2303
 1909SOL    HW2 7753   4.059   0.254   3.058 -0.9972 -0.4619  0.0757
 1909SOL    HW3 7754   4.127   0.388   3.078  1.3356 -1.5432 -0.4492
 1909SOL    MW4 7755   4.063   0.332   3.097  0.3595 -0.3746 -0.2189
 1910SOL     OW 7756   4.227   0.478   2.711  0.5372  0.4123 -0.4320
 1910SOL    HW2 7757   4.207   0.469   2.804  1.4814  0.6171 -0.1975
 1910SOL    HW3 7758   4.149   0.447   2.666  0.0362  0.4076  0.4331
 1910SOL    MW4 7759   4.214   0.473   2.718  0.5951  0.4387 -0.2871
 1911SOL     OW 7760   4.251   0.762   3.132 -0.3023  0.3911 -0.2357
 1911SOL    HW2 7761   4.176   0.806   3.092  0.1629  1.4290  0.0119
 1911SOL    HW3 7762   4.327   0.806   3.095  0.2137 -1.1720 -1.0586
 1911SOL    MW4 7763   4.251   0.774   3.122 -0.1726  0.3218 -0.3116
 1912SOL     OW 7764   4.049   0.906   2.984 -0.2384 -0.0970 -0.5105
 1912SOL    HW2 7765   4.040   0.993   3.022  0.1774 -0.2377 -0.0818
 1912SOL    HW3 7766   4.028   0.917   2.892 -0.5922  0.3788 -0.3721
 1912SOL    MW4 7767   4.045   0.919   2.977 -0.2298 -0.0528 -0.4354
 1913SOL     OW 7768   4.043   1.153   3.098  0.1865 -0.2813 -0.2542
 1913SOL    HW2 7769   4.022   1.144   3.191  0.1702 -1.3940 -0.3648
 1913SOL    HW3 7770   3.966   1.194   3.060 -0.7676 -2.0063 -0.2049
 1913SOL    MW4 7771   4.030   1.157   3.106  0.0587 -0.6557 -0.2623
 1914SOL     OW 7772   4.284   1.285   3.047 -0.3357 -0.1432  0.7484
 1914SOL    HW2 7773   4.209   1.238   3.083 -2.8645  3.0310 -0.0269
 1914SOL    HW3 7774   4.274   1.277   2.952 -0.4623  1.3694  0.6166
 1914SOL    MW4 7775   4.273   1.278   3.039 -0.6857  0.4753  0.6287
 1915SOL     OW 7776   4.268   1.546   3.094 -0.0346  0.2297 -0.1951
 1915SOL    HW2 7777   4.186   1.584   3.063  0.9689  2.3111 -0.3826
 1915SOL    HW3 7778   4.264   1.454   3.069 -3.1995 -0.1748  1.6121
 1915SOL    MW4 7779   4.257   1.539   3.087 -0.3200  0.4511  0.0184
 1916SOL     OW 7780   4.046   1.674   3.006  0.5818  0.4265  0.1281
 1916SOL    HW2 7781   4.044   1.766   3.032 -0.8072  0.9542 -1.7034
 1916SOL    HW3 7782   3.959   1.640   3.029 -0.4822  0.7556 -3.0309
 1916SOL    MW4 7783   4.034   1.682   3.012  0.2589  0.5395 -0.5302
 1917SOL     OW 7784   4.063   1.931   3.125  0.2587 -0.2770 -0.0332
 1917SOL    HW2 7785   4.135   1.971   3.077 -0.8967  0.3930 -1.2588
 1917SOL    HW3 7786   3.984   1.968   3.084 -0.7637 -0.2771  1.8781
 1917SOL    MW4 7787   4.062   1.941   3.113 -0.0286 -0.1886  0.0572
 1918SOL     OW 7788   4.289   2.047   2.997 -0.0660  0.2357  0.0354
 1918SOL    HW2 7789   4.267   2.137   3.022  1.0394  0.6628 -0.4638
 1918SOL    HW3 7790   4.288   2.048   2.902 -0.6308 -0.4415  0.0315
 1918SOL    MW4 7791   4.286   2.059   2.988  0.0052  0.2029 -0.0310
 1919SOL     OW 7792   4.264   2.312   3.083 -0.1276  0.1372 -0.0374
 1919SOL    HW2 7793   4.187   2.355   3.046 -0.2835  0.1807  0.3336
 1919SOL    HW3 7794   4.339   2.354   3.041 -0.2572  1.2263  0.8164
 1919SOL    MW4 7795   4.264   2.323   3.073 -0.1655  0.2866  0.1245
 1920SOL     OW 7796   4.033   2.441   2.997  0.2600  0.0179 -0.3972
 1920SOL    HW2 7797   4.023   2.525   3.040 -1.5924  0.8410 -2.3192
 1920SOL    HW3 7798   3.959   2.389   3.029  2.6286 -1.7132  2.4979
 1920SOL    MW4 7799   4.022   2.445   3.007  0.3281 -0.1020 -0.2689
 1921SOL     OW 7800   4.029   2.695   3.101 -0.6630  0.1121 -0.3084
 1921SOL    HW2 7801   4.032   2.695   3.197  0.4968  1.6146 -0.3162
 1921SOL    HW3 7802   3.949   2.742   3.080 -1.3018 -0.8674 -0.0801
 1921SOL    MW4 7803   4.019   2.702   3.111 -0.5941  0.1810 -0.2792
 1922SOL     OW 7804   4.244   2.861   2.983 -0.2291  0.4060  0.2002
 1922SOL    HW2 7805   4.177   2.815   3.034 -0.3231 -0.7892 -0.9581
 1922SOL    HW3 7806   4.326   2.818   3.008 -0.2146  0.1666 -0.2400
 1922SOL    MW4 7807   4.246   2.849   2.993 -0.2394  0.2165 -0.0107
 1923SOL     OW 7808   4.283   3.116   3.091 -0.1788 -0.1571 -0.4922
 1923SOL    HW2 7809   4.205   3.157   3.055 -1.0331 -2.0790 -0.9202
 1923SOL    HW3 7810   4.276   3.024   3.064  2.5062 -0.2488 -0.9894
 1923SOL    MW4 7811   4.272   3.109   3.083  0.0625 -0.4227 -0.6142
 1924SOL     OW 7812   4.060   3.232   2.973 -0.1523  0.3427 -0.2421
 1924SOL    HW2 7813   4.055   3.326   2.988  0.1133  0.3105  0.0682
 1924SOL    HW3 7814   4.064   3.223   2.878 -0.8002  0.6097 -0.2961
 1924SOL    MW4 7815   4.060   3.243   2.962 -0.2027  0.3738 -0.2081
 1925SOL     OW 7816   4.029   3.500   3.043  0.5053 -0.1951 -0.1808
 1925SOL    HW2 7817   4.039   3.489   3.137  1.0146 -3.0515 -0.5189
 1925SOL    HW3 7818   3.948   3.550   3.032  0.5343  0.3016  1.7601
 1925SOL    MW4 7819   4.020   3.505   3.054  0.5760 -0.5064  0.0305
 1926SOL     OW 7820   4.251   3.632   2.934 -0.1401  0.0371  0.1673
 1926SOL    HW2 7821   4.246   3.721   2.970 -1.2489 -0.4516  1.2546
 1926SOL    HW3 7822   4.170   3.590   2.962 -0.3096 -0.8601 -1.6243
 1926SOL    MW4 7823   4.240   3.639   2.943 -0.3085 -0.1457  0.0744
 1927SOL     OW 7824   4.237   3.874   3.077  0.3014  0.1661  0.1028
 1927SOL    HW2 7825   4.184   3.933   3.024 -0.0951  0.4971  0.8629
 1927SOL    HW3 7826   4.328   3.896   3.054  0.1399  0.5536 -0.1719
 1927SOL    MW4 7827   4.242   3.885   3.067  0.2275  0.2606  0.1667
 1928SOL     OW 7828   4.053   4.032   2.922  0.0165  0.1625 -0.1821
 1928SOL    HW2 7829   4.058   4.115   2.969 -0.1257  0.6281 -0.9748
 1928SOL    HW3 7830   3.995   3.977   2.975  0.4918  0.4044  0.5848
 1928SOL    MW4 7831   4.046   4.036   2.935  0.0610  0.2561 -0.1855
 1929SOL     OW 7832   4.066   4.265   3.066  0.2618 -0.4715 -0.0118
 1929SOL    HW2 7833   4.060   4.262   3.161 -0.6130 -0.2026 -0.0542
 1929SOL    HW3 7834   4.126   4.338   3.048  1.5508 -1.4133  0.3567
 1929SOL    MW4 7835   4.073   4.274   3.076  0.3166 -0.5608  0.0310
 1930SOL     OW 7836   4.276   4.426   2.970 -0.5168  0.0096  0.2169
 1930SOL    HW2 7837   4.353   4.376   2.998 -0.8832  0.1376  1.4970
 1930SOL    HW3 7838   4.264   4.403   2.878 -0.2670 -1.7324  0.6107
 1930SOL    MW4 7839   4.285   4.416   2.962 -0.5326 -0.2036  0.4375
 1931SOL     OW 7840   0.188   0.010   3.369 -0.0150 -0.5111 -0.1173
 1931SOL    HW2 7841   0.271   0.048   3.398 -0.0904 -0.6129  0.2295
 1931SOL    HW3 7842   0.183  -0.074   3.414  0.0127 -0.8051 -0.6619
 1931SOL    MW4 7843   0.198   0.004   3.379 -0.0213 -0.5631 -0.1433
 1932SOL     OW 7844   4.481   0.152   3.463 -0.3012  0.0531  0.1353
 1932SOL    HW2 7845   4.479   0.238   3.422 -1.3013  0.1131  0.2945
 1932SOL    HW3 7846   4.557   0.108   3.425 -2.1726 -0.5558 -3.0942
 1932SOL    MW4 7847   4.491   0.157   3.453 -0.6801 -0.0193 -0.2699
 1933SOL     OW 7848   4.488   0.398   3.333  0.2798  0.3202 -0.1594
 1933SOL    HW2 7849   4.403   0.410   3.376  0.7337 -1.7332  1.4592
 1933SOL    HW3 7850   4.549   0.448   3.387  0.7654 -1.8268  1.3648
 1933SOL    MW4 7851   4.485   0.406   3.346  0.4039 -0.2340  0.2553
 1934SOL     OW 7852   0.215   0.776   3.349  0.0223 -0.1629  0.1641
 1934SOL    HW2 7853   0.294   0.812   3.389  0.1468 -0.0658 -0.1704
 1934SOL    HW3 7854   0.145   0.836   3.375  0.2857  0.5091 -0.6757
 1934SOL    MW4 7855   0.216   0.789   3.357  0.0735 -0.0614  0.0093
 1935SOL     OW 7856   0.431   0.885   3.487 -0.1935 -0.1234  0.1988
 1935SOL    HW2 7857   0.424   0.980   3.473  1.5091 -0.0644 -0.3523
 1935SOL    HW3 7858   0.438   0.876   3.582 -1.2617  0.2202  0.3251
 1935SOL    MW4 7859   0.431   0.897   3.498 -0.1098 -0.0703  0.1428
 1936SOL     OW 7860   4.482   0.900   3.455 -0.6558 -0.3311 -0.1806
 1936SOL    HW2 7861   4.467   0.892   3.550 -0.0111  0.3408 -0.0180
 1936SOL    HW3 7862   4.474   0.993   3.437  0.2988 -0.3312 -0.6031
 1936SOL    MW4 7863   4.479   0.911   3.465 -0.4449 -0.2424 -0.2148
 1937SOL     OW 7864   4.478   1.165   3.400  0.3596 -0.3581 -0.0006
 1937SOL    HW2 7865   4.392   1.203   3.419 -0.0164 -1.5676  0.7777
 1937SOL    HW3 7866   4.539   1.219   3.449 -0.0990 -0.3637  0.5815
 1937SOL    MW4 7867   4.474   1.177   3.409  0.2494 -0.5183  0.1791
 1938SOL     OW 7868   0.208   1.313   3.485  0.1322 -0.0506 -0.3544
 1938SOL    HW2 7869   0.225   1.314   3.580 -2.3182 -0.3302  0.1099
 1938SOL    HW3 7870   0.203   1.405   3.461 -1.4217  0.0375  0.2256
 1938SOL    MW4 7871   0.210   1.325   3.495 -0.3961 -0.0757 -0.2167
 1939SOL     OW 7872   0.235   1.594   3.391  0.0018 -0.4923  0.4676
 1939SOL    HW2 7873   0.317   1.633   3.423 -0.1930 -0.6455  1.1621
 1939SOL    HW3 7874   0.240   1.603   3.296  1.1256 -1.0992  0.4584
 1939SOL    MW4 7875   0.246   1.601   3.383  0.1244 -0.5925  0.5579
 1940SOL     OW 7876   4.473   1.698   3.495  0.0084  0.3905  0.2341
 1940SOL    HW2 7877   4.404   1.639   3.465 -0.8613  1.6333 -0.2182
 1940SOL    HW3 7878   4.554   1.658   3.462 -0.6272 -0.1812 -0.6562
 1940SOL    MW4 7879   4.475   1.685   3.486 -0.1902  0.4791  0.0570
 1941SOL     OW 7880   4.474   1.960   3.386  0.4971 -0.3659 -0.3205
 1941SOL    HW2 7881   4.477   1.872   3.424 -1.1788 -0.3241 -0.0437
 1941SOL    HW3 7882   4.496   1.946   3.294 -0.1074 -1.1361 -0.3581
 1941SOL    MW4 7883   4.477   1.946   3.379  0.1960 -0.4621 -0.2887
 1942SOL     OW 7884   0.227   2.073   3.448 -0.2630 -0.4576  0.0127
 1942SOL    HW2 7885   0.242   2.047   3.538 -0.3355  0.2303  0.2249
 1942SOL    HW3 7886   0.140   2.039   3.427 -0.4657 -0.1673  0.3733
 1942SOL    MW4 7887   0.218   2.065   3.457 -0.2993 -0.3290  0.0882
 1943SOL     OW 7888   0.220   2.337   3.360  0.1209  0.1256  0.0162
 1943SOL    HW2 7889   0.143   2.378   3.397 -1.2519 -1.7089 -0.7200
 1943SOL    HW3 7890   0.222   2.249   3.399  1.0190 -0.3511 -1.0676
 1943SOL    MW4 7891   0.210   2.331   3.370  0.0583 -0.1795 -0.2239
 1944SOL     OW 7892   4.486   2.430   3.479  0.6948  0.0679  0.0260
 1944SOL    HW2 7893   4.483   2.433   3.575  1.5275 -1.5668  0.1270
 1944SOL    HW3 7894   4.412   2.373   3.455  1.4059 -0.7672 -0.2065
 1944SOL    MW4 7895   4.476   2.423   3.488  0.8988 -0.2577  0.0083
 1945SOL     OW 7896   0.001   2.663   3.318 -0.9606 -0.1232  0.2877
 1945SOL    HW2 7897   0.081   2.709   3.344 -0.8441 -0.2637  0.1806
 1945SOL    HW3 7898  -0.001   2.584   3.374 -1.3439  0.1886  0.7195
 1945SOL    MW4 7899   0.011   2.658   3.329 -0.9958 -0.1006  0.3307
 1946SOL     OW 7900   0.218   2.803   3.442 -0.5274  0.5752  0.4162
 1946SOL    HW2 7901   0.306   2.766   3.433  0.0554  1.3357  2.5324
 1946SOL    HW3 7902   0.231   2.898   3.435 -1.1263  0.7058  0.9784
 1946SOL    MW4 7903   0.232   2.811   3.440 -0.5295  0.6928  0.7694
 1947SOL     OW 7904   0.241   3.075   3.377  0.0357 -0.0177 -0.0366
 1947SOL    HW2 7905   0.165   3.128   3.403  0.7817  0.9555  0.1930
 1947SOL    HW3 7906   0.240   3.078   3.281 -0.4713 -0.3773 -0.0456
 1947SOL    MW4 7907   0.231   3.082   3.368  0.0672  0.0634 -0.0074
 1948SOL     OW 7908   0.008   3.220   3.468  0.1206  0.1752 -0.0417
 1948SOL    HW2 7909  -0.078   3.195   3.436  0.9916 -3.2016  0.0229
 1948SOL    HW3 7910   0.029   3.301   3.422 -1.7409 -0.6783 -2.4633
 1948SOL    MW4 7911  -0.000   3.227   3.458 -0.0100 -0.3827 -0.3524
 1949SOL     OW 7912   0.013   3.474   3.324  0.0667 -0.1763 -0.1632
 1949SOL    HW2 7913  -0.066   3.521   3.352  1.8342  1.6864  1.8468
 1949SOL    HW3 7914   0.005   3.469   3.229 -2.7399 -0.5270  0.0388
 1949SOL    MW4 7915   0.002   3.479   3.316 -0.0706  0.0231  0.1287
 1950SOL     OW 7916   0.211   3.623   3.424 -0.2199  0.1222 -0.3176
 1950SOL    HW2 7917   0.210   3.591   3.515  2.2540 -0.5918 -0.4960
 1950SOL    HW3 7918   0.140   3.575   3.381  0.4884 -1.7320  0.5408
 1950SOL    MW4 7919   0.201   3.612   3.431  0.2000 -0.2165 -0.2282
 1951SOL     OW 7920   0.225   3.888   3.333  0.3869  0.1848 -0.3676
 1951SOL    HW2 7921   0.151   3.943   3.356  0.5166  0.5762 -0.8891
 1951SOL    HW3 7922   0.199   3.800   3.362  0.1486  0.5010  0.3839
 1951SOL    MW4 7923   0.212   3.884   3.340  0.3726  0.2782 -0.3369
 1952SOL     OW 7924   4.471   4.004   3.412 -0.7616  0.0156  0.4095
 1952SOL    HW2 7925   4.456   4.097   3.401  0.2709  0.3298  1.5025
 1952SOL    HW3 7926   4.492   3.994   3.505 -2.2176 -1.4929  0.5922
 1952SOL    MW4 7927   4.472   4.015   3.423 -0.8178 -0.1421  0.5779
 1953SOL     OW 7928   4.471   4.280   3.315  0.3075 -0.0407 -0.3409
 1953SOL    HW2 7929   4.406   4.343   3.346  0.7561  0.2026  0.1171
 1953SOL    HW3 7930   4.555   4.317   3.341  0.5456 -1.1284  0.4975
 1953SOL    MW4 7931   4.474   4.293   3.323  0.3982 -0.1516 -0.1698
 1954SOL     OW 7932   0.207   4.406   3.441 -0.1210 -0.1368 -0.4362
 1954SOL    HW2 7933   0.190   4.387   3.533  0.2852  0.2727 -0.2753
 1954SOL    HW3 7934   0.293   4.366   3.423  0.1803  0.5023 -0.4162
 1954SOL    MW4 7935   0.216   4.398   3.450 -0.0277  0.0019 -0.4122
 1955SOL     OW 7936   0.634   0.013   3.348  0.3117  0.1677 -0.2520
 1955SOL    HW2 7937   0.627  -0.081   3.365 -0.1017  0.2749  0.1780
 1955SOL    HW3 7938   0.717   0.039   3.388  0.2639  0.0498 -0.0751
 1955SOL    MW4 7939   0.644   0.004   3.355  0.2508  0.1663 -0.1719
 1956SOL     OW 7940   0.417   0.159   3.441  0.7491  0.0232  0.0294
 1956SOL    HW2 7941   0.404   0.132   3.531  2.7837  0.4973  0.4951
 1956SOL    HW3 7942   0.487   0.102   3.408 -1.1404 -1.3275 -1.8092
 1956SOL    MW4 7943   0.425   0.148   3.448  0.7682 -0.0924 -0.1521
 1957SOL     OW 7944   0.427   0.444   3.391  0.1454 -0.2083  0.1914
 1957SOL    HW2 7945   0.509   0.478   3.425 -0.3658 -0.6403  1.9142
 1957SOL    HW3 7946   0.433   0.349   3.404 -1.0798 -0.1321  1.3886
 1957SOL    MW4 7947   0.438   0.436   3.397 -0.0837 -0.2553  0.5770
 1958SOL     OW 7948   0.686   0.497   3.478  0.5425 -0.4127 -0.0791
 1958SOL    HW2 7949   0.681   0.495   3.573 -0.0741 -1.9288 -0.1285
 1958SOL    HW3 7950   0.755   0.434   3.456 -0.1502 -0.9838 -0.6719
 1958SOL    MW4 7951   0.694   0.489   3.487  0.3697 -0.6881 -0.1638
 1959SOL     OW 7952   0.656   0.750   3.364 -0.4397 -0.4181 -0.0467
 1959SOL    HW2 7953   0.584   0.801   3.401 -0.5748 -1.5765  1.2942
 1959SOL    HW3 7954   0.649   0.664   3.405  0.2705 -1.2891 -1.6981
 1959SOL    MW4 7955   0.646   0.745   3.374 -0.3638 -0.6859 -0.0877
 1960SOL     OW 7956   0.434   1.153   3.403 -0.3517 -0.1465  0.2314
 1960SOL    HW2 7957   0.375   1.219   3.440  0.2318  0.1654  0.6178
 1960SOL    HW3 7958   0.519   1.172   3.444 -0.0431 -0.7440 -0.1350
 1960SOL    MW4 7959   0.437   1.164   3.413 -0.2340 -0.1844  0.2339
 1961SOL     OW 7960   0.473   1.171   3.132  0.1362  0.4013  0.0651
 1961SOL    HW2 7961   0.399   1.228   3.110 -0.2176  0.4067  1.2229
 1961SOL    HW3 7962   0.464   1.155   3.226  1.5708  0.3372  0.2039
 1961SOL    MW4 7963   0.462   1.176   3.141  0.2788  0.3936  0.2363
 1962SOL     OW 7964   0.688   1.218   3.505  0.2242 -0.1094  0.0473
 1962SOL    HW2 7965   0.758   1.180   3.451  1.3115 -0.2494  1.5359
 1962SOL    HW3 7966   0.682   1.308   3.475 -0.5502 -0.7061 -1.6761
 1962SOL    MW4 7967   0.697   1.225   3.494  0.2655 -0.2067  0.0165
 1963SOL     OW 7968   0.674   1.468   3.417  0.0061  0.8633 -0.0603
 1963SOL    HW2 7969   0.746   1.522   3.449  0.8173 -0.5655  0.5551
 1963SOL    HW3 7970   0.599   1.528   3.414  1.2027  2.3537 -0.6936
 1963SOL    MW4 7971   0.674   1.483   3.421  0.2710  0.8715 -0.0625
 1964SOL     OW 7972   0.488   1.672   3.457  0.2798  0.1358  0.6149
 1964SOL    HW2 7973   0.470   1.678   3.551 -1.7091 -0.4216  0.2933
 1964SOL    HW3 7974   0.506   1.762   3.431  0.5350  0.3424  1.4718
 1964SOL    MW4 7975   0.488   1.684   3.466  0.0511  0.0895  0.6855
 1965SOL     OW 7976   0.460   1.935   3.369 -0.0651 -0.1488  0.1990
 1965SOL    HW2 7977   0.381   1.981   3.396 -0.7569 -1.0487 -0.2426
 1965SOL    HW3 7978   0.460   1.942   3.273 -0.1792 -1.0412  0.1221
 1965SOL    MW4 7979   0.450   1.942   3.360 -0.1714 -0.3852  0.1307
 1966SOL     OW 7980   0.852   1.860   3.394 -0.2697 -0.3837 -0.1646
 1966SOL    HW2 7981   0.939   1.898   3.407 -0.3751 -0.5121  0.9844
 1966SOL    HW3 7982   0.792   1.923   3.435 -0.5723 -1.0365  0.4116
 1966SOL    MW4 7983   0.856   1.873   3.401 -0.3235 -0.4869  0.0629
 1967SOL     OW 7984   0.659   2.264   3.343 -0.2594 -0.2686 -0.3096
 1967SOL    HW2 7985   0.743   2.307   3.361  0.1521 -0.3205 -1.9906
 1967SOL    HW3 7986   0.665   2.180   3.387  0.6941 -0.3840 -0.6444
 1967SOL    MW4 7987   0.671   2.259   3.351 -0.0793 -0.2906 -0.5755
 1968SOL     OW 7988   0.453   2.441   3.461  0.4165  0.4148  0.0261
 1968SOL    HW2 7989   0.527   2.396   3.421  0.7476  0.3136  0.7511
 1968SOL    HW3 7990   0.379   2.420   3.404  0.8834  0.2828 -0.5381
 1968SOL    MW4 7991   0.453   2.432   3.448  0.5218  0.3841  0.0472
 1969SOL     OW 7992   0.474   2.702   3.403 -0.1212 -0.1502 -0.1719
 1969SOL    HW2 7993   0.482   2.609   3.425 -0.3807 -0.1689 -0.1609
 1969SOL    HW3 7994   0.474   2.703   3.307 -1.7386 -0.3030 -0.1917
 1969SOL    MW4 7995   0.475   2.690   3.393 -0.3689 -0.1733 -0.1729
 1970SOL     OW 7996   0.735   2.881   3.481 -0.1165 -0.0947 -0.0289
 1970SOL    HW2 7997   0.799   2.830   3.432 -0.2419 -0.4230  0.1453
 1970SOL    HW3 7998   0.653   2.831   3.474  0.1189 -0.7286  1.4466
 1970SOL    MW4 7999   0.732   2.867   3.474 -0.1020 -0.2217  0.1888
 1971SOL     OW 8000   0.710   3.134   3.367  0.2660  0.0394  0.0960
 1971SOL    HW2 8001   0.619   3.155   3.389  0.7804  0.8767  1.4600
 1971SOL    HW3 8002   0.726   3.050   3.410  0.8174  0.9712  1.7485
 1971SOL    MW4 8003   0.700   3.125   3.376  0.4066  0.2725  0.4942
 1972SOL     OW 8004   0.471   3.220   3.447 -0.0917  0.0118 -0.2334
 1972SOL    HW2 8005   0.507   3.189   3.531  0.1975 -0.5022 -0.5449
 1972SOL    HW3 8006   0.393   3.166   3.433 -0.3140  0.3086 -0.1475
 1972SOL    MW4 8007   0.466   3.209   3.456 -0.0829 -0.0165 -0.2635
 1973SOL     OW 8008   0.447   3.492   3.326  0.1410 -0.5028  0.4375
 1973SOL    HW2 8009   0.460   3.408   3.370  0.2836  0.1105  1.5820
 1973SOL    HW3 8010   0.364   3.525   3.362 -0.5500 -0.7196 -0.9237
 1973SOL    MW4 8011   0.438   3.486   3.337  0.0686 -0.4501  0.4086
 1974SOL     OW 8012   0.669   3.629   3.441 -0.5323  0.4333 -0.3803
 1974SOL    HW2 8013   0.731   3.565   3.407 -0.6178  0.7992 -1.2475
 1974SOL    HW3 8014   0.584   3.599   3.408 -0.6716  0.5721 -0.1496
 1974SOL    MW4 8015   0.666   3.617   3.432 -0.5620  0.4995 -0.4642
 1975SOL     OW 8016   0.686   3.863   3.317  0.5164  0.1460  0.4771
 1975SOL    HW2 8017   0.597   3.899   3.322  0.4785  0.0541  0.4636
 1975SOL    HW3 8018   0.681   3.780   3.365  1.0470  1.0300  2.1126
 1975SOL    MW4 8019   0.673   3.857   3.324  0.5813  0.2506  0.6912
 1976SOL     OW 8020   0.461   3.984   3.432 -0.4181 -0.2343 -0.4460
 1976SOL    HW2 8021   0.449   4.078   3.416 -0.9136 -0.9747 -4.9066
 1976SOL    HW3 8022   0.381   3.943   3.401 -0.9864 -2.0767  3.1824
 1976SOL    MW4 8023   0.449   3.991   3.426 -0.5584 -0.5753 -0.5560
 1977SOL     OW 8024   0.426   4.260   3.367 -0.4284  0.3287 -0.0006
 1977SOL    HW2 8025   0.505   4.305   3.397  0.5391 -1.0471 -0.4169
 1977SOL    HW3 8026   0.437   4.253   3.273 -0.4846 -0.8983  0.0796
 1977SOL    MW4 8027   0.438   4.265   3.359 -0.3082 -0.0153 -0.0448
 1978SOL     OW 8028   0.635   4.403   3.417  0.2388 -0.2694  0.2479
 1978SOL    HW2 8029   0.638   4.395   3.512  0.6982  0.6259  0.3111
 1978SOL    HW3 8030   0.705   4.345   3.386  0.3748 -0.2237  0.4736
 1978SOL    MW4 8031   0.645   4.394   3.425  0.3174 -0.1450  0.2861
 1979SOL     OW 8032   1.128   0.009   3.354  0.0042 -0.0249 -0.1614
 1979SOL    HW2 8033   1.210   0.057   3.370  1.1400 -2.1955  0.7064
 1979SOL    HW3 8034   1.120   0.008   3.259  1.1499 -0.0485 -0.2652
 1979SOL    MW4 8035   1.138   0.015   3.344  0.3052 -0.3144 -0.0608
 1980SOL     OW 8036   0.891   0.075   3.464  0.1127 -0.3273  0.0219
 1980SOL    HW2 8037   0.904   0.072   3.559 -0.9003 -1.2543  0.1441
 1980SOL    HW3 8038   0.974   0.044   3.427  0.4013 -0.2580  0.6129
 1980SOL    MW4 8039   0.904   0.071   3.471  0.0172 -0.4404  0.1161
 1981SOL     OW 8040   0.884   0.322   3.400 -0.5077  0.6440  0.0699
 1981SOL    HW2 8041   0.968   0.360   3.427 -0.4777 -0.1206  1.0714
 1981SOL    HW3 8042   0.883   0.235   3.439 -1.1514  0.1019 -1.1362
 1981SOL    MW4 8043   0.895   0.316   3.409 -0.5887  0.4716  0.0429
 1982SOL     OW 8044   1.115   0.484   3.443  0.0876 -0.3297 -0.7796
 1982SOL    HW2 8045   1.103   0.501   3.536 -0.6140 -0.3687 -0.8542
 1982SOL    HW3 8046   1.102   0.569   3.401 -1.8135 -0.7040 -1.0161
 1982SOL    MW4 8047   1.111   0.497   3.449 -0.2557 -0.3842 -0.8206
 1983SOL     OW 8048   1.124   0.762   3.361 -0.6030 -0.6804 -0.5825
 1983SOL    HW2 8049   1.206   0.795   3.398 -0.8203  0.6348 -1.2707
 1983SOL    HW3 8050   1.056   0.798   3.418 -0.6401 -3.5487  1.3342
 1983SOL    MW4 8051   1.126   0.771   3.373 -0.6367 -0.8854 -0.4206
 1984SOL     OW 8052   0.884   0.882   3.459 -0.6096  0.0077 -0.2592
 1984SOL    HW2 8053   0.885   0.973   3.432 -1.4907 -0.2271 -1.1112
 1984SOL    HW3 8054   0.813   0.843   3.409 -0.4906 -1.0587  0.3869
 1984SOL    MW4 8055   0.875   0.889   3.449 -0.7101 -0.1640 -0.2866
 1985SOL     OW 8056   0.898   1.143   3.368  0.4916  0.1503 -0.3357
 1985SOL    HW2 8057   0.971   1.192   3.405  0.5847  1.0321 -1.6433
 1985SOL    HW3 8058   0.906   1.156   3.273 -0.6050 -0.8101 -0.5762
 1985SOL    MW4 8059   0.908   1.151   3.360  0.3592  0.1398 -0.5398
 1986SOL     OW 8060   1.104   1.253   3.481  0.3106 -0.2460 -0.4071
 1986SOL    HW2 8061   1.127   1.262   3.574  0.2893  0.4210 -0.4604
 1986SOL    HW3 8062   1.111   1.342   3.447  0.8292 -0.5784 -1.1637
 1986SOL    MW4 8063   1.108   1.266   3.489  0.3763 -0.2018 -0.5140
 1987SOL     OW 8064   1.104   1.532   3.373 -0.0214  0.1824  0.1272
 1987SOL    HW2 8065   1.191   1.570   3.385  0.6678 -1.6608  1.2211
 1987SOL    HW3 8066   1.095   1.522   3.278  0.3319  1.7697 -0.0874
 1987SOL    MW4 8067   1.115   1.536   3.362  0.1161  0.1487  0.2432
 1988SOL     OW 8068   0.879   1.615   3.506  0.6720  0.5053  0.8273
 1988SOL    HW2 8069   0.863   1.706   3.480 -0.2939  0.2276  0.4374
 1988SOL    HW3 8070   0.962   1.592   3.464  0.0718  0.6604 -0.4350
 1988SOL    MW4 8071   0.888   1.624   3.497  0.4653  0.4891  0.6094
 1989SOL     OW 8072   0.670   2.032   3.502 -0.1509 -0.3368 -0.0507
 1989SOL    HW2 8073   0.648   2.039   3.595 -0.2891 -1.6587  0.0224
 1989SOL    HW3 8074   0.589   2.002   3.460 -0.3778  1.2190 -0.7501
 1989SOL    MW4 8075   0.656   2.029   3.509 -0.1991 -0.3061 -0.1333
 1990SOL     OW 8076   1.069   2.001   3.479 -0.3651  0.0194  0.0083
 1990SOL    HW2 8077   1.146   1.949   3.455  0.2842 -0.2101  2.4477
 1990SOL    HW3 8078   1.085   2.086   3.440  0.4181 -0.4697 -0.7700
 1990SOL    MW4 8079   1.081   2.005   3.471 -0.1762 -0.0753  0.2275
 1991SOL     OW 8080   1.112   2.255   3.375  0.0390 -0.0136 -0.5603
 1991SOL    HW2 8081   1.177   2.313   3.416 -1.0926  1.0044 -0.1930
 1991SOL    HW3 8082   1.134   2.257   3.282  0.4870  0.3714 -0.4485
 1991SOL    MW4 8083   1.124   2.263   3.368 -0.0511  0.1717 -0.4971
 1992SOL     OW 8084   0.884   2.413   3.410 -0.7359  0.0948 -0.2921
 1992SOL    HW2 8085   0.875   2.435   3.503 -0.3757  3.7513 -1.0314
 1992SOL    HW3 8086   0.967   2.367   3.405 -0.7313 -0.1004  1.2130
 1992SOL    MW4 8087   0.894   2.410   3.422 -0.6877  0.5517 -0.1912
 1993SOL     OW 8088   0.906   2.703   3.360 -0.0011 -0.1714 -0.1566
 1993SOL    HW2 8089   0.987   2.717   3.408 -0.3133  0.2240  0.2551
 1993SOL    HW3 8090   0.880   2.614   3.383 -1.5506  0.9249  2.5304
 1993SOL    MW4 8091   0.913   2.693   3.369 -0.2467  0.0253  0.2520
 1994SOL     OW 8092   1.079   2.867   3.867  0.0249  0.2022 -0.1663
 1994SOL    HW2 8093   1.100   2.961   3.871 -0.2376  0.2239  0.9255
 1994SOL    HW3 8094   1.154   2.827   3.825  0.5245  0.7974  0.1509
 1994SOL    MW4 8095   1.091   2.874   3.862  0.0561  0.2837  0.0198
 1995SOL     OW 8096   1.135   3.070   3.378  0.2104 -0.0936  0.3337
 1995SOL    HW2 8097   1.137   2.979   3.407  1.9029 -0.5484 -1.0813
 1995SOL    HW3 8098   1.113   3.065   3.285  1.5267  0.8353 -0.0440
 1995SOL    MW4 8099   1.133   3.057   3.370  0.6074 -0.0310  0.0973
 1996SOL     OW 8100   0.950   3.243   3.451  0.0994 -0.2013 -0.5723
 1996SOL    HW2 8101   1.020   3.180   3.432 -0.2217  0.0715 -2.8774
 1996SOL    HW3 8102   0.869   3.197   3.427 -0.3502  0.1421  0.2823
 1996SOL    MW4 8103   0.949   3.229   3.445 -0.0023 -0.1202 -0.7637
 1997SOL     OW 8104   0.882   3.493   3.343  0.3514  0.1050 -0.4416
 1997SOL    HW2 8105   0.907   3.406   3.374 -0.2964  0.1202  0.1388
 1997SOL    HW3 8106   0.882   3.485   3.248  0.3886 -0.5037 -0.3950
 1997SOL    MW4 8107   0.885   3.480   3.335  0.2708  0.0262 -0.3588
 1998SOL     OW 8108   1.121   3.629   3.435  0.4616 -0.3353  0.5999
 1998SOL    HW2 8109   1.118   3.624   3.531  0.6821 -1.5162  0.5437
 1998SOL    HW3 8110   1.043   3.583   3.406  0.4599 -0.0800  0.1987
 1998SOL    MW4 8111   1.110   3.622   3.444  0.4904 -0.4575  0.5398
 1999SOL     OW 8112   1.096   3.897   3.398  0.3112 -0.7792  0.1990
 1999SOL    HW2 8113   1.175   3.943   3.426  0.4443 -1.1418  0.4261
 1999SOL    HW3 8114   1.120   3.805   3.400 -0.4292 -0.9484  1.2358
 1999SOL    MW4 8115   1.110   3.891   3.402  0.2311 -0.8492  0.3660
 2000SOL     OW 8116   0.877   4.020   3.485 -0.1873 -0.0080  0.0017
 2000SOL    HW2 8117   0.956   3.979   3.450  0.5467  2.1390 -0.9544
 2000SOL    HW3 8118   0.806   3.985   3.432  0.4904  0.4095 -1.1938
 2000SOL    MW4 8119   0.878   4.010   3.474 -0.0010  0.3309 -0.2823
 2001SOL     OW 8120   0.857   4.260   3.357 -0.6687 -0.0552 -0.3810
 2001SOL    HW2 8121   0.934   4.308   3.387 -0.2698 -0.2557 -1.0907
 2001SOL    HW3 8122   0.862   4.176   3.403  0.8823 -1.0454 -2.3050
 2001SOL    MW4 8123   0.868   4.255   3.367 -0.4115 -0.2122 -0.7284
 2002SOL     OW 8124   1.099   4.408   3.386  0.7329 -0.3995 -0.0128
 2002SOL    HW2 8125   1.101   4.503   3.379  0.7093 -0.3666  0.3767
 2002SOL    HW3 8126   1.189   4.380   3.369  0.5220 -0.3886 -1.1574
 2002SOL    MW4 8127   1.111   4.417   3.383  0.7019 -0.3934 -0.1123
 2003SOL     OW 8128   1.578   4.631   3.430 -0.2122 -0.1889  0.3914
 2003SOL    HW2 8129   1.556   4.549   3.476 -0.6125 -0.1499  0.2682
 2003SOL    HW3 8130   1.500   4.685   3.439  0.3608  0.5145  1.2106
 2003SOL    MW4 8131   1.565   4.627   3.437 -0.1894 -0.0911  0.4833
 2004SOL     OW 8132   1.356   0.131   3.467  0.0930  0.0393 -0.0661
 2004SOL    HW2 8133   1.343   0.127   3.562 -0.0170 -0.6700 -0.1085
 2004SOL    HW3 8134   1.350   0.224   3.446  1.4022  0.3380  0.8085
 2004SOL    MW4 8135   1.354   0.143   3.477  0.2512 -0.0149  0.0436
 2005SOL     OW 8136   1.357   0.394   3.371 -0.1130 -0.1953 -0.1252
 2005SOL    HW2 8137   1.441   0.430   3.399  0.2816 -1.0932 -0.1310
 2005SOL    HW3 8138   1.292   0.447   3.418  0.4714  0.0674  0.4020
 2005SOL    MW4 8139   1.359   0.406   3.381  0.0162 -0.2791 -0.0565
 2006SOL     OW 8140   1.579   0.493   3.500 -0.0711  0.0855  0.2640
 2006SOL    HW2 8141   1.588   0.471   3.593  1.4599 -1.3196 -0.2082
 2006SOL    HW3 8142   1.661   0.464   3.460 -2.0377 -2.4134 -2.1125
 2006SOL    MW4 8143   1.591   0.486   3.507 -0.1285 -0.4297 -0.1121
 2007SOL     OW 8144   1.556   0.727   3.328  0.0320  0.1688 -0.1074
 2007SOL    HW2 8145   1.489   0.780   3.371  0.7429  1.8364 -1.0078
 2007SOL    HW3 8146   1.572   0.655   3.389 -0.0384  1.6889  1.7500
 2007SOL    MW4 8147   1.549   0.724   3.342  0.1166  0.5895  0.0188
 2008SOL     OW 8148   1.357   0.889   3.454  0.1742 -0.4665  0.3231
 2008SOL    HW2 8149   1.356   0.893   3.549  2.7480  0.1392  0.3585
 2008SOL    HW3 8150   1.356   0.981   3.427  0.4103 -0.6159 -0.2023
 2008SOL    MW4 8151   1.357   0.902   3.463  0.5449 -0.4063  0.2584
 2009SOL     OW 8152   1.341   1.154   3.359 -0.0817 -0.3403  0.6879
 2009SOL    HW2 8153   1.421   1.201   3.385 -0.3026 -0.3546  1.4175
 2009SOL    HW3 8154   1.270   1.204   3.401 -0.4266 -0.5424  0.3448
 2009SOL    MW4 8155   1.342   1.167   3.368 -0.1564 -0.3688  0.7389
 2010SOL     OW 8156   1.557   1.266   3.456  0.0890  0.0261 -0.0056
 2010SOL    HW2 8157   1.553   1.253   3.551  1.5376  0.3619  0.1051
 2010SOL    HW3 8158   1.634   1.217   3.428 -1.0488 -1.1071 -1.1930
 2010SOL    MW4 8159   1.567   1.258   3.465  0.1299 -0.0792 -0.1476
 2011SOL     OW 8160   1.568   1.532   3.331 -0.2659  0.0762  0.0430
 2011SOL    HW2 8161   1.557   1.445   3.369  0.7301 -0.8861 -1.7940
 2011SOL    HW3 8162   1.646   1.567   3.373 -1.5074  0.7057  1.8723
 2011SOL    MW4 8163   1.577   1.525   3.342 -0.2984  0.0322  0.0417
 2012SOL     OW 8164   1.351   1.660   3.423 -0.0483  0.2120 -0.2417
 2012SOL    HW2 8165   1.345   1.639   3.517 -0.3994 -0.0900 -0.3324
 2012SOL    HW3 8166   1.425   1.607   3.393  1.2655  1.7200  0.2520
 2012SOL    MW4 8167   1.360   1.650   3.432  0.0787  0.3710 -0.1886
 2013SOL     OW 8168   1.339   1.951   3.393  0.6174  0.3821 -0.3720
 2013SOL    HW2 8169   1.419   2.001   3.410  1.3458 -0.8854  0.0033
 2013SOL    HW3 8170   1.365   1.859   3.403 -1.0530 -0.0305  0.5555
 2013SOL    MW4 8171   1.353   1.945   3.397  0.4930  0.1606 -0.2003
 2014SOL     OW 8172   1.969   2.063   3.472  0.1266 -0.4851  0.1611
 2014SOL    HW2 8173   2.055   2.023   3.463 -0.1303 -1.3646  1.5275
 2014SOL    HW3 8174   1.953   2.065   3.566 -1.7723 -1.2410 -0.1339
 2014SOL    MW4 8175   1.978   2.058   3.483 -0.1577 -0.7010  0.3026
 2015SOL     OW 8176   1.581   2.280   3.086 -0.1732  0.5065 -0.0832
 2015SOL    HW2 8177   1.568   2.291   3.180 -0.0527 -0.0504  0.0050
 2015SOL    HW3 8178   1.568   2.186   3.072  1.1268  0.3706 -0.4039
 2015SOL    MW4 8179   1.577   2.269   3.097  0.0143  0.4151 -0.1140
 2016SOL     OW 8180   1.579   2.805   3.437  0.5907 -0.3713 -0.4451
 2016SOL    HW2 8181   1.580   2.899   3.418  1.1499 -0.1012  0.8579
 2016SOL    HW3 8182   1.553   2.800   3.529 -1.0260 -1.5805 -0.9312
 2016SOL    MW4 8183   1.575   2.817   3.447  0.4512 -0.4952 -0.3374
 2017SOL     OW 8184   1.348   2.671   3.302 -0.5111 -0.1716  0.1986
 2017SOL    HW2 8185   1.346   2.651   3.209  0.6308 -0.2371  0.1851
 2017SOL    HW3 8186   1.440   2.689   3.321 -0.9138  0.9716  1.0824
 2017SOL    MW4 8187   1.360   2.670   3.292 -0.4138 -0.0291  0.3133
 2018SOL     OW 8188   1.790   2.722   3.052 -0.0857  0.0086 -0.1830
 2018SOL    HW2 8189   1.804   2.703   3.144  1.0504  0.6807 -0.1976
 2018SOL    HW3 8190   1.784   2.636   3.010 -0.8899 -0.2961  0.5498
 2018SOL    MW4 8191   1.791   2.708   3.058 -0.0420  0.0572 -0.0885
 2019SOL     OW 8192   1.589   3.062   3.355  0.7457  0.4825 -0.1360
 2019SOL    HW2 8193   1.666   3.115   3.378  0.2272  0.9758  0.4804
 2019SOL    HW3 8194   1.514   3.116   3.382  0.2273 -1.3110  2.0899
 2019SOL    MW4 8195   1.589   3.076   3.361  0.6089  0.3111  0.2394
 2020SOL     OW 8196   1.711   3.241   3.714  0.1887  0.4867 -0.3425
 2020SOL    HW2 8197   1.623   3.205   3.723 -0.9218  3.4766  1.7039
 2020SOL    HW3 8198   1.766   3.184   3.767 -1.2976  0.9362  1.7762
 2020SOL    MW4 8199   1.706   3.229   3.723 -0.1539  0.9403  0.2072
 2021SOL     OW 8200   1.374   3.479   3.341  0.6420 -0.0657 -0.5926
 2021SOL    HW2 8201   1.365   3.388   3.371  1.1580  0.0395 -0.1083
 2021SOL    HW3 8202   1.289   3.518   3.358  0.6362 -0.2692 -0.1468
 2021SOL    MW4 8203   1.362   3.472   3.347  0.7094 -0.0787 -0.4699
 2022SOL     OW 8204   1.595   3.585   3.475 -0.0677  0.0032  0.2234
 2022SOL    HW2 8205   1.592   3.588   3.571 -0.3550 -1.2491  0.2663
 2022SOL    HW3 8206   1.511   3.547   3.450  0.4332 -0.6620 -0.4642
 2022SOL    MW4 8207   1.583   3.580   3.485 -0.0397 -0.2496  0.1388
 2023SOL     OW 8208   1.537   3.841   3.373 -0.4876  0.5779  0.2511
 2023SOL    HW2 8209   1.559   3.751   3.399  2.4015  0.9649 -0.6731
 2023SOL    HW3 8210   1.537   3.839   3.278 -0.7713  1.4676  0.2304
 2023SOL    MW4 8211   1.540   3.829   3.364 -0.1438  0.7463  0.1261
 2024SOL     OW 8212   1.324   4.021   3.478  0.1842 -0.7801  0.2407
 2024SOL    HW2 8213   1.399   3.966   3.454  1.1771  0.4529  0.4538
 2024SOL    HW3 8214   1.337   4.041   3.570  0.5583  0.8811 -0.1513
 2024SOL    MW4 8215   1.335   4.016   3.487  0.3645 -0.3982  0.2172
 2025SOL     OW 8216   1.340   4.275   3.362  0.4130 -0.3137 -0.1317
 2025SOL    HW2 8217   1.338   4.265   3.267  0.3600 -0.2478 -0.1369
 2025SOL    HW3 8218   1.311   4.190   3.396  0.0822 -0.2215 -0.1788
 2025SOL    MW4 8219   1.336   4.262   3.354  0.3624 -0.2928 -0.1385
 2026SOL     OW 8220   1.544   4.369   3.517 -0.4299 -0.6542  0.1554
 2026SOL    HW2 8221   1.487   4.320   3.458 -0.6657 -1.7542  1.2865
 2026SOL    HW3 8222   1.632   4.351   3.486 -0.5769 -0.8644 -0.1422
 2026SOL    MW4 8223   1.548   4.360   3.506 -0.4804 -0.8268  0.2654
 2027SOL     OW 8224   1.999   4.623   3.404 -0.0204  0.3216 -0.6254
 2027SOL    HW2 8225   2.079   4.670   3.427  1.5374 -1.1655 -2.7675
 2027SOL    HW3 8226   1.929   4.684   3.424  1.6663  1.7984  0.9681
 2027SOL    MW4 8227   2.001   4.637   3.410  0.4077  0.3204 -0.6979
 2028SOL     OW 8228   1.799   0.116   3.483 -0.3514  0.1557 -0.5143
 2028SOL    HW2 8229   1.803   0.124   3.578  1.2258  1.9313 -0.6978
 2028SOL    HW3 8230   1.716   0.071   3.466 -1.6938  1.7368  1.6036
 2028SOL    MW4 8231   1.788   0.111   3.493 -0.3206  0.5986 -0.2592
 2029SOL     OW 8232   1.803   0.363   3.370  0.1043 -0.1763 -0.2567
 2029SOL    HW2 8233   1.792   0.270   3.393  1.0642 -0.4472 -0.8529
 2029SOL    HW3 8234   1.817   0.362   3.275  1.1204  0.4854 -0.1225
 2029SOL    MW4 8235   1.804   0.350   3.360  0.3650 -0.1247 -0.3176
 2030SOL     OW 8236   2.023   0.480   3.481  0.0354  0.2690  0.2162
 2030SOL    HW2 8237   2.027   0.566   3.439 -0.4283  0.4382  0.5189
 2030SOL    HW3 8238   1.955   0.433   3.434 -1.2506  0.8460  1.4888
 2030SOL    MW4 8239   2.015   0.485   3.469 -0.1955  0.3675  0.4237
 2031SOL     OW 8240   2.013   0.736   3.367  0.0621  0.0413  0.3871
 2031SOL    HW2 8241   2.089   0.780   3.404 -0.3497  1.3823 -0.2874
 2031SOL    HW3 8242   2.015   0.760   3.274  0.2587 -2.0377 -0.1767
 2031SOL    MW4 8243   2.023   0.745   3.359  0.0339 -0.0560  0.2239
 2032SOL     OW 8244   1.765   0.857   3.437 -0.3175  0.6300  0.1383
 2032SOL    HW2 8245   1.840   0.807   3.406 -0.6270  0.9706 -1.1978
 2032SOL    HW3 8246   1.689   0.810   3.401 -0.6920  0.9301  0.5310
 2032SOL    MW4 8247   1.765   0.844   3.428 -0.4079  0.7145  0.0138
 2033SOL     OW 8248   1.772   1.128   3.389  0.0291 -0.1140  0.3555
 2033SOL    HW2 8249   1.852   1.164   3.427 -0.5088 -0.1188  1.5210
 2033SOL    HW3 8250   1.777   1.034   3.408  0.2780 -0.2861 -0.5540
 2033SOL    MW4 8251   1.783   1.120   3.396 -0.0091 -0.1373  0.3893
 2034SOL     OW 8252   2.004   1.249   3.474 -0.5667  0.6378 -0.6736
 2034SOL    HW2 8253   2.017   1.247   3.568 -0.1359 -0.8428 -0.7561
 2034SOL    HW3 8254   1.998   1.342   3.452  0.6672  1.0263  0.6285
 2034SOL    MW4 8255   2.005   1.261   3.483 -0.3471  0.4938 -0.5131
 2035SOL     OW 8256   2.042   1.506   3.378  0.0033 -0.4418 -0.2361
 2035SOL    HW2 8257   2.109   1.572   3.395  0.3880 -0.4237 -1.7534
 2035SOL    HW3 8258   1.962   1.543   3.416  0.3902  0.5426 -0.3761
 2035SOL    MW4 8259   2.040   1.520   3.386  0.1049 -0.3096 -0.4544
 2036SOL     OW 8260   0.859   0.588   4.145 -0.5379  0.1295 -0.0409
 2036SOL    HW2 8261   0.884   0.496   4.140 -1.3898 -0.1386  0.5816
 2036SOL    HW3 8262   0.763   0.587   4.146 -0.5733  1.0756 -1.0877
 2036SOL    MW4 8263   0.850   0.576   4.145 -0.6551  0.2190 -0.0968
 2037SOL     OW 8264   0.384   2.960   4.871  0.0166 -0.0807  0.4393
 2037SOL    HW2 8265   0.455   2.897   4.859  0.5357  0.4287  0.7872
 2037SOL    HW3 8266   0.366   2.959   4.965 -0.8966 -0.6953  0.2605
 2037SOL    MW4 8267   0.391   2.952   4.881 -0.0354 -0.0949  0.4611
 2038SOL     OW 8268   2.002   2.342   3.072  0.2145  0.4064  0.0180
 2038SOL    HW2 8269   2.096   2.361   3.065  0.2725  0.5173  1.0546
 2038SOL    HW3 8270   1.986   2.336   3.166 -1.0821  1.7135 -0.1201
 2038SOL    MW4 8271   2.013   2.344   3.084  0.0513  0.5934  0.1364
 2039SOL     OW 8272   2.470   2.321   3.340 -0.2659 -0.1447 -0.5452
 2039SOL    HW2 8273   2.403   2.373   3.383  0.6665  0.8069 -0.2179
 2039SOL    HW3 8274   2.552   2.369   3.355  0.2638 -0.4521 -2.2981
 2039SOL    MW4 8275   2.472   2.334   3.348 -0.0732 -0.0598 -0.7334
 2040SOL     OW 8276   2.011   2.785   3.473  0.0713 -0.6150 -0.0734
 2040SOL    HW2 8277   2.014   2.876   3.445 -0.2201 -0.1608  1.3252
 2040SOL    HW3 8278   2.079   2.742   3.421 -0.5293  0.1600 -1.5258
 2040SOL    MW4 8279   2.021   2.791   3.463 -0.0463 -0.4528 -0.0808
 2041SOL     OW 8280   0.704   1.991   4.272 -0.0378  0.3082  0.1813
 2041SOL    HW2 8281   0.640   1.966   4.206 -0.7195 -2.2275  1.7179
 2041SOL    HW3 8282   0.789   1.969   4.232 -0.4405 -1.1957  0.1234
 2041SOL    MW4 8283   0.707   1.985   4.258 -0.1808 -0.2248  0.3762
 2042SOL     OW 8284   1.160   2.802   3.465 -0.0953 -0.0702 -0.1144
 2042SOL    HW2 8285   1.224   2.776   3.398 -0.1883 -0.7060  0.0415
 2042SOL    HW3 8286   1.200   2.775   3.548  0.0165  0.7091  0.0955
 2042SOL    MW4 8287   1.174   2.795   3.467 -0.0927 -0.0510 -0.0663
 2043SOL     OW 8288   2.008   3.083   3.387 -0.3158  0.0993 -0.1597
 2043SOL    HW2 8289   2.082   3.140   3.409  0.7370 -1.1698 -0.3565
 2043SOL    HW3 8290   1.931   3.136   3.405  0.6493  1.6569 -0.5198
 2043SOL    MW4 8291   2.008   3.098   3.392 -0.0494  0.1376 -0.2332
 2044SOL     OW 8292   1.783   3.234   3.452  0.2813  0.1395  0.0088
 2044SOL    HW2 8293   1.760   3.243   3.544 -2.1313  2.1497 -0.7393
 2044SOL    HW3 8294   1.804   3.323   3.423  0.4656 -0.3752 -1.5099
 2044SOL    MW4 8295   1.782   3.247   3.460 -0.0128  0.3366 -0.2904
 2045SOL     OW 8296   1.833   3.481   3.384 -0.2723  0.1994  0.0630
 2045SOL    HW2 8297   1.744   3.509   3.406  0.4038  2.7320 -0.3447
 2045SOL    HW3 8298   1.831   3.468   3.289 -0.0780  0.7443 -0.0164
 2045SOL    MW4 8299   1.821   3.483   3.374 -0.1575  0.6056 -0.0012
 2046SOL     OW 8300   2.001   3.619   3.547  0.8042  0.6504  0.6495
 2046SOL    HW2 8301   2.078   3.583   3.505  0.2471  0.2626 -0.0481
 2046SOL    HW3 8302   1.928   3.566   3.515  0.0989  1.7383  0.3955
 2046SOL    MW4 8303   2.001   3.607   3.537  0.6375  0.7429  0.5238
 2047SOL     OW 8304   1.967   3.843   3.389  0.3008 -0.0888 -0.1910
 2047SOL    HW2 8305   1.894   3.901   3.408  1.9233  1.8751  0.1495
 2047SOL    HW3 8306   1.953   3.767   3.446 -1.5483  0.1744 -0.2695
 2047SOL    MW4 8307   1.956   3.840   3.399  0.2710  0.2050 -0.1566
 2048SOL     OW 8308   1.758   3.999   3.484  0.1089  0.2521  0.3069
 2048SOL    HW2 8309   1.759   3.981   3.578  0.3542  0.0037  0.2579
 2048SOL    HW3 8310   1.681   3.952   3.452 -0.1509  0.5912  0.4332
 2048SOL    MW4 8311   1.748   3.990   3.492  0.1072  0.2639  0.3171
 2049SOL     OW 8312   1.771   4.270   3.369 -0.0123  0.2353  0.2391
 2049SOL    HW2 8313   1.767   4.183   3.407 -1.5743  0.4787  0.6639
 2049SOL    HW3 8314   1.756   4.257   3.275 -1.0599  0.1095  0.4127
 2049SOL    MW4 8315   1.768   4.257   3.361 -0.3566  0.2508  0.3178
 2050SOL     OW 8316   2.031   4.348   3.489 -0.3182  0.0208  0.5303
 2050SOL    HW2 8317   1.955   4.320   3.440 -0.6290  1.6528  0.0558
 2050SOL    HW3 8318   2.035   4.443   3.476  2.0172 -0.0968  0.2196
 2050SOL    MW4 8319   2.022   4.357   3.481 -0.0510  0.2203  0.4265
 2051SOL     OW 8320   2.475   4.645   3.395  0.1880  0.4352 -0.1263
 2051SOL    HW2 8321   2.471   4.556   3.430 -0.3738  0.1665 -0.8674
 2051SOL    HW3 8322   2.464   4.634   3.301  1.0222  1.2156 -0.3115
 2051SOL    MW4 8323   2.473   4.632   3.387  0.2239  0.5031 -0.2484
 2052SOL     OW 8324   2.226   0.104   3.477  0.3754  0.4121 -0.1784
 2052SOL    HW2 8325   2.212   0.181   3.422 -0.8267 -0.0409 -0.5263
 2052SOL    HW3 8326   2.307   0.066   3.444  0.2698  0.7896 -0.8946
 2052SOL    MW4 8327   2.235   0.109   3.465  0.2027  0.4022 -0.3185
 2053SOL     OW 8328   2.226   0.346   3.355 -0.1832 -0.4700 -0.2076
 2053SOL    HW2 8329   2.311   0.382   3.380 -0.6042  1.2115 -1.0732
 2053SOL    HW3 8330   2.163   0.389   3.413 -0.5533 -0.8902 -0.2939
 2053SOL    MW4 8331   2.229   0.357   3.366 -0.2875 -0.3036 -0.3331
 2054SOL     OW 8332   2.455   0.464   3.438 -0.1318 -0.3746 -0.0587
 2054SOL    HW2 8333   2.540   0.422   3.424 -0.3914 -0.5551 -1.1835
 2054SOL    HW3 8334   2.466   0.553   3.403 -0.2004 -0.1705  0.4342
 2054SOL    MW4 8335   2.468   0.470   3.431 -0.1752 -0.3715 -0.1419
 2055SOL     OW 8336   2.485   0.723   3.343  0.2355  0.9634  0.1255
 2055SOL    HW2 8337   2.561   0.763   3.385  0.5717 -0.1779  0.6104
 2055SOL    HW3 8338   2.496   0.743   3.250  1.2244  0.6335  0.1690
 2055SOL    MW4 8339   2.497   0.731   3.336  0.4101  0.7693  0.1950
 2056SOL     OW 8340   2.253   0.843   3.460  0.4052 -0.0377 -0.3434
 2056SOL    HW2 8341   2.245   0.932   3.424 -1.1869  0.1655  0.4275
 2056SOL    HW3 8342   2.326   0.804   3.413  0.0195  1.0960 -1.9445
 2056SOL    MW4 8343   2.261   0.850   3.449  0.1445  0.1388 -0.4530
 2057SOL     OW 8344   2.203   1.106   3.342 -0.1866 -0.1754 -0.2663
 2057SOL    HW2 8345   2.279   1.153   3.377 -0.2309 -0.7208  0.5867
 2057SOL    HW3 8346   2.128   1.159   3.369 -0.0877  0.5971 -1.4894
 2057SOL    MW4 8347   2.203   1.119   3.350 -0.1798 -0.1456 -0.3152
 2058SOL     OW 8348   2.453   1.240   3.445 -0.0766 -0.2356  0.0519
 2058SOL    HW2 8349   2.459   1.238   3.540 -2.8766 -2.3578  0.2599
 2058SOL    HW3 8350   2.535   1.202   3.414  1.3149  1.4771  1.5628
 2058SOL    MW4 8351   2.464   1.235   3.454 -0.2625 -0.2896  0.2787
 2059SOL     OW 8352   2.464   1.544   3.435 -0.3481  0.1690  0.7161
 2059SOL    HW2 8353   2.450   1.450   3.442  0.2657  0.0125 -0.0734
 2059SOL    HW3 8354   2.460   1.563   3.341 -0.0918  0.8618  0.8352
 2059SOL    MW4 8355   2.462   1.534   3.424 -0.2334  0.2397  0.6278
 2060SOL     OW 8356   2.238   1.972   3.383 -0.0489 -0.2339 -0.0859
 2060SOL    HW2 8357   2.323   2.011   3.400  0.5357 -1.1417 -0.8537
 2060SOL    HW3 8358   2.254   1.877   3.389 -0.8720 -0.4254 -0.7778
 2060SOL    MW4 8359   2.251   1.964   3.386 -0.0801 -0.3790 -0.2785
 2061SOL     OW 8360   2.488   2.065   3.436  0.4358  0.0530  0.1312
 2061SOL    HW2 8361   2.487   2.072   3.532 -0.3266  1.4095  0.0298
 2061SOL    HW3 8362   2.481   2.155   3.405  1.4106 -0.3140 -1.2083
 2061SOL    MW4 8363   2.487   2.078   3.445  0.4637  0.1836 -0.0591
 2062SOL     OW 8364   2.557   2.365   4.249 -0.3526  0.5667  0.2333
 2062SOL    HW2 8365   2.513   2.409   4.322 -1.9557 -0.3989 -0.1197
 2062SOL    HW3 8366   2.588   2.282   4.287  1.5969  1.4316  0.5936
 2062SOL    MW4 8367   2.555   2.360   4.264 -0.3068  0.5534  0.2346
 2063SOL     OW 8368   2.243   1.683   3.721 -0.4424  0.5506 -0.3485
 2063SOL    HW2 8369   2.242   1.772   3.755  2.2205  0.5793 -0.2541
 2063SOL    HW3 8370   2.317   1.641   3.765 -0.9749 -1.3689 -1.2258
 2063SOL    MW4 8371   2.252   1.689   3.731 -0.1614  0.3012 -0.4516
 2064SOL     OW 8372   2.223   2.715   3.043  0.3336 -0.4952 -0.2087
 2064SOL    HW2 8373   2.204   2.704   3.136  0.2531 -1.1653 -0.3043
 2064SOL    HW3 8374   2.155   2.775   3.012 -0.5776 -1.4935 -0.1673
 2064SOL    MW4 8375   2.211   2.722   3.051  0.2027 -0.7153 -0.2158
 2065SOL     OW 8376   2.442   2.825   3.428  0.1266  0.0467  0.2292
 2065SOL    HW2 8377   2.439   2.822   3.523  0.7512 -1.0607  0.2196
 2065SOL    HW3 8378   2.443   2.919   3.407  0.1064  0.2904  1.3110
 2065SOL    MW4 8379   2.442   2.837   3.438  0.2065 -0.0672  0.3705
 2066SOL     OW 8380   2.455   2.838   3.709 -0.2436  0.5617  0.3975
 2066SOL    HW2 8381   2.376   2.805   3.752 -0.4220 -0.7167 -0.8945
 2066SOL    HW3 8382   2.528   2.796   3.755 -0.4456 -1.0504 -0.7207
 2066SOL    MW4 8383   2.454   2.828   3.721 -0.2940  0.1805  0.0796
 2067SOL     OW 8384   2.483   3.092   3.363 -0.1630 -0.6142 -0.1637
 2067SOL    HW2 8385   2.466   3.144   3.284 -1.4417  1.1082  1.2131
 2067SOL    HW3 8386   2.560   3.133   3.403 -1.1804  0.2702  0.9288
 2067SOL    MW4 8387   2.491   3.104   3.358 -0.4659 -0.2704  0.1621
 2068SOL     OW 8388   2.253   3.219   3.462 -0.7364 -0.1775 -0.0951
 2068SOL    HW2 8389   2.275   3.244   3.551 -1.2244  0.0475 -0.0355
 2068SOL    HW3 8390   2.329   3.171   3.431  0.0127  0.9515 -0.0407
 2068SOL    MW4 8391   2.266   3.216   3.469 -0.7019  0.0012 -0.0799
 2069SOL     OW 8392   2.200   3.514   3.371  0.3193 -0.3132 -0.2821
 2069SOL    HW2 8393   2.194   3.422   3.399 -0.2780 -0.3252 -0.4468
 2069SOL    HW3 8394   2.191   3.510   3.276 -1.7837  0.0898 -0.1288
 2069SOL    MW4 8395   2.198   3.501   3.362 -0.0370 -0.2615 -0.2835
 2070SOL     OW 8396   2.477   3.598   3.424  0.1401 -0.1262 -0.2667
 2070SOL    HW2 8397   2.490   3.689   3.395 -0.4069  0.5292  1.4557
 2070SOL    HW3 8398   2.395   3.571   3.382 -0.6997  0.8444  0.7175
 2070SOL    MW4 8399   2.468   3.607   3.414 -0.0429  0.0882  0.0906
 2071SOL     OW 8400   2.434   3.866   3.331  0.0714  0.3150 -0.5767
 2071SOL    HW2 8401   2.503   3.916   3.375  0.3460 -0.3865 -0.1979
 2071SOL    HW3 8402   2.359   3.873   3.390  0.6545 -1.2287  0.3845
 2071SOL    MW4 8403   2.433   3.874   3.345  0.1845  0.0188 -0.3998
 2072SOL     OW 8404   2.208   3.954   3.491  0.4260  0.1419  0.1329
 2072SOL    HW2 8405   2.208   4.040   3.450 -0.5519  0.0819  0.0021
 2072SOL    HW3 8406   2.122   3.917   3.471  0.9929 -1.0454 -0.1845
 2072SOL    MW4 8407   2.197   3.960   3.483  0.3717 -0.0224  0.0737
 2073SOL     OW 8408   2.246   4.220   3.367 -0.5311 -0.9497  0.3016
 2073SOL    HW2 8409   2.166   4.258   3.403 -0.2703 -0.4625  0.3715
 2073SOL    HW3 8410   2.237   4.229   3.272  0.6875  1.7057  0.3819
 2073SOL    MW4 8411   2.235   4.226   3.359 -0.3362 -0.5350  0.3216
 2074SOL     OW 8412   2.480   4.373   3.439  0.4262  0.3203 -0.2109
 2074SOL    HW2 8413   2.472   4.355   3.532  1.3356 -0.1498 -0.2152
 2074SOL    HW3 8414   2.407   4.327   3.399  1.4116 -1.5058  0.0249
 2074SOL    MW4 8415   2.469   4.365   3.446  0.6762  0.0172 -0.1802
 2075SOL     OW 8416   2.930   4.664   3.340 -0.0890 -0.4763  0.2182
 2075SOL    HW2 8417   2.849   4.699   3.377 -0.0295  0.8559 -0.8844
 2075SOL    HW3 8418   2.917   4.668   3.246  0.5105 -2.0691  0.0624
 2075SOL    MW4 8419   2.918   4.669   3.333 -0.0021 -0.5108  0.0522
 2076SOL     OW 8420   2.711   0.097   3.488 -0.0830  0.0147  0.3661
 2076SOL    HW2 8421   2.701   0.186   3.453  1.3985  0.4098  0.9553
 2076SOL    HW3 8422   2.627   0.054   3.467 -0.9055  1.6140  0.3094
 2076SOL    MW4 8423   2.698   0.103   3.480  0.0041  0.2778  0.4365
 2077SOL     OW 8424   2.694   0.354   3.366 -0.3707  0.3700 -0.2771
 2077SOL    HW2 8425   2.761   0.402   3.415  0.7096  0.7267 -2.0504
 2077SOL    HW3 8426   2.709   0.380   3.274 -2.4879 -0.0982 -0.7671
 2077SOL    MW4 8427   2.705   0.364   3.360 -0.5076  0.3553 -0.5760
 2078SOL     OW 8428   2.926   0.483   3.490 -0.0177  0.0943  0.1659
 2078SOL    HW2 8429   2.957   0.506   3.578  0.9921  1.7453 -0.5971
 2078SOL    HW3 8430   2.917   0.567   3.445 -0.2114 -0.7519 -1.4038
 2078SOL    MW4 8431   2.929   0.497   3.496  0.0899  0.2005 -0.1419
 2079SOL     OW 8432   2.936   0.737   3.354  0.0478  0.7518  0.3982
 2079SOL    HW2 8433   3.014   0.776   3.394 -0.0007  1.5032 -0.2333
 2079SOL    HW3 8434   2.864   0.789   3.389  0.0933  2.2017 -1.5854
 2079SOL    MW4 8435   2.937   0.749   3.364  0.0474  1.0422  0.0532
 2080SOL     OW 8436   2.704   0.848   3.456  0.0642  0.4280  0.4349
 2080SOL    HW2 8437   2.721   0.851   3.551  0.4699 -0.5069  0.3899
 2080SOL    HW3 8438   2.687   0.939   3.433 -0.4367  0.6147  1.4837
 2080SOL    MW4 8439   2.704   0.861   3.466  0.0517  0.3293  0.5672
 2081SOL     OW 8440   2.688   1.145   3.366  0.3725 -0.2554 -0.5183
 2081SOL    HW2 8441   2.776   1.171   3.393 -0.2315  1.4030 -0.1060
 2081SOL    HW3 8442   2.687   1.156   3.271 -0.1235  2.0286 -0.2657
 2081SOL    MW4 8443   2.700   1.150   3.357  0.2275  0.2648 -0.4306
 2082SOL     OW 8444   2.933   1.264   3.425 -0.0129  0.2747 -0.3632
 2082SOL    HW2 8445   2.920   1.268   3.519 -0.7214  0.2668 -0.4567
 2082SOL    HW3 8446   3.005   1.202   3.413 -0.9289 -0.8901  0.0984
 2082SOL    MW4 8447   2.940   1.256   3.436 -0.2272  0.1200 -0.3145
 2083SOL     OW 8448   2.919   1.530   3.362 -0.2794 -0.0488 -0.4919
 2083SOL    HW2 8449   2.839   1.564   3.402 -0.0451 -0.5849  0.4446
 2083SOL    HW3 8450   2.925   1.440   3.393  0.6680 -0.0163 -0.5703
 2083SOL    MW4 8451   2.909   1.523   3.372 -0.1233 -0.1153 -0.3784
 2084SOL     OW 8452   2.705   1.656   3.503  0.0547  0.2742 -0.3810
 2084SOL    HW2 8453   2.698   1.734   3.447 -1.4413  1.6644  1.6493
 2084SOL    HW3 8454   2.622   1.610   3.490  0.0786  0.1253 -0.0017
 2084SOL    MW4 8455   2.693   1.661   3.494 -0.1397  0.4380 -0.0632
 2085SOL     OW 8456   2.697   1.907   3.359 -0.6841 -0.1368 -0.0397
 2085SOL    HW2 8457   2.630   1.972   3.376  0.2800  0.7145  0.5873
 2085SOL    HW3 8458   2.702   1.901   3.264 -1.3464  0.1063 -0.0861
 2085SOL    MW4 8459   2.689   1.915   3.349 -0.6442  0.0076  0.0370
 2086SOL     OW 8460   2.909   2.309   3.326  0.5170  0.2720 -0.2113
 2086SOL    HW2 8461   2.994   2.339   3.357  0.5866 -0.7274  0.5998
 2086SOL    HW3 8462   2.891   2.231   3.378  0.1409 -0.8246 -1.9450
 2086SOL    MW4 8463   2.918   2.303   3.337  0.4766 -0.0043 -0.3331
 2087SOL     OW 8464   2.914   2.302   3.034 -0.2442  0.5045 -0.0592
 2087SOL    HW2 8465   2.911   2.295   3.130  0.4139  0.9954  0.0001
 2087SOL    HW3 8466   2.840   2.360   3.013 -1.9288 -1.6028 -0.0653
 2087SOL    MW4 8467   2.903   2.309   3.044 -0.3798  0.2913 -0.0520
 2088SOL     OW 8468   3.146   2.423   3.423 -0.0777  0.0465 -0.1469
 2088SOL    HW2 8469   3.151   2.504   3.372 -0.8372  0.2101  0.0328
 2088SOL    HW3 8470   3.128   2.452   3.512  0.7656 -0.2647  0.1331
 2088SOL    MW4 8471   3.144   2.438   3.428 -0.0668  0.0269 -0.0863
 2089SOL     OW 8472   2.698   2.744   3.344  0.2667 -0.3338  0.0953
 2089SOL    HW2 8473   2.704   2.651   3.364  1.1674  0.0344  1.6559
 2089SOL    HW3 8474   2.607   2.766   3.362  0.0945 -0.8673 -0.1042
 2089SOL    MW4 8475   2.687   2.735   3.349  0.3626 -0.3557  0.2747
 2090SOL     OW 8476   2.949   2.834   3.406 -0.2647  0.2327 -0.1285
 2090SOL    HW2 8477   2.946   2.848   3.500 -0.2489  0.5371 -0.1726
 2090SOL    HW3 8478   2.857   2.826   3.380 -0.2008 -1.3541  0.1336
 2090SOL    MW4 8479   2.937   2.835   3.415 -0.2539  0.0634 -0.0999
 2091SOL     OW 8480   2.955   3.105   3.340  0.4901  0.3432  0.4706
 2091SOL    HW2 8481   2.946   3.011   3.349 -1.0731  0.5769  1.3871
 2091SOL    HW3 8482   2.961   3.119   3.245 -0.1694 -0.5847  0.2897
 2091SOL    MW4 8483   2.955   3.095   3.328  0.1969  0.2515  0.5677
 2092SOL     OW 8484   2.700   3.228   3.458  0.3063  0.2216  0.5637
 2092SOL    HW2 8485   2.718   3.254   3.549  1.1858  1.0241  0.1605
 2092SOL    HW3 8486   2.779   3.184   3.429  0.4931  1.0967 -0.2362
 2092SOL    MW4 8487   2.713   3.226   3.466  0.4468  0.4427  0.4048
 2093SOL     OW 8488   2.732   3.485   3.358 -0.1152  0.3168  0.0859
 2093SOL    HW2 8489   2.721   3.401   3.402 -0.2724  0.4602  0.3225
 2093SOL    HW3 8490   2.644   3.521   3.351 -0.2069 -0.1557 -1.2603
 2093SOL    MW4 8491   2.719   3.479   3.363 -0.1481  0.2737 -0.0606
 2094SOL     OW 8492   2.962   3.619   3.426 -0.1481 -0.2715  0.4301
 2094SOL    HW2 8493   2.959   3.710   3.396 -0.4663 -0.1095  0.9463
 2094SOL    HW3 8494   2.876   3.583   3.401 -0.2755 -0.2386  0.8176
 2094SOL    MW4 8495   2.950   3.626   3.419 -0.2069 -0.2456  0.5493
 2095SOL     OW 8496   2.914   3.897   3.351 -0.5544 -0.1535  0.2586
 2095SOL    HW2 8497   2.987   3.940   3.395 -0.1236  0.6004 -1.1595
 2095SOL    HW3 8498   2.836   3.926   3.400 -0.0207  0.0278  1.0038
 2095SOL    MW4 8499   2.913   3.907   3.364 -0.4272 -0.0300  0.1698
 2096SOL     OW 8500   2.656   3.993   3.449 -0.1597  0.1970  0.1071
 2096SOL    HW2 8501   2.660   4.009   3.543 -3.4306 -0.1586  0.3755
 2096SOL    HW3 8502   2.678   4.077   3.409  0.6676  0.5073  1.2081
 2096SOL    MW4 8503   2.659   4.006   3.456 -0.4821  0.1912  0.2875
 2097SOL     OW 8504   2.710   4.249   3.341 -0.1238  0.4179 -0.2826
 2097SOL    HW2 8505   2.770   4.307   3.386 -0.6671 -1.4291  2.9408
 2097SOL    HW3 8506   2.623   4.284   3.359 -0.3960 -0.8060  0.8764
 2097SOL    MW4 8507   2.706   4.261   3.349 -0.2315  0.0129  0.2954
 2098SOL     OW 8508   2.935   4.399   3.429 -0.3799 -0.2734 -0.2761
 2098SOL    HW2 8509   2.932   4.406   3.525 -1.1340 -0.7409 -0.2609
 2098SOL    HW3 8510   2.937   4.490   3.399 -2.5085 -0.0656  0.1300
 2098SOL    MW4 8511   2.934   4.412   3.438 -0.7603 -0.3071 -0.2208
 2099SOL     OW 8512   3.412   4.628   3.369  0.1109 -0.0477 -0.2319
 2099SOL    HW2 8513   3.335   4.664   3.413 -1.5970 -2.0666 -1.5198
 2099SOL    HW3 8514   3.388   4.624   3.276  1.9629 -0.2252 -0.7320
 2099SOL    MW4 8515   3.399   4.632   3.363  0.1297 -0.3381 -0.4678
 2100SOL     OW 8516   3.165   0.107   3.472 -0.2696  0.3695 -0.6294
 2100SOL    HW2 8517   3.149   0.198   3.447 -0.2815  0.2304 -1.1281
 2100SOL    HW3 8518   3.091   0.059   3.435 -0.8027  0.3011  0.5093
 2100SOL    MW4 8519   3.153   0.113   3.464 -0.3414  0.3421 -0.5450
 2101SOL     OW 8520   3.144   0.368   3.373 -0.0665  0.2131 -0.0549
 2101SOL    HW2 8521   3.057   0.401   3.398 -0.1535  0.2942 -0.4613
 2101SOL    HW3 8522   3.133   0.340   3.282  0.6147  1.2423 -0.4670
 2101SOL    MW4 8523   3.131   0.369   3.365  0.0117  0.3596 -0.1631
 2102SOL     OW 8524   3.347   0.506   3.513 -0.0467 -0.6576  0.3498
 2102SOL    HW2 8525   3.340   0.496   3.608 -1.6422 -0.5771  0.2487
 2102SOL    HW3 8526   3.275   0.453   3.478  0.2075 -0.2535 -0.7940
 2102SOL    MW4 8527   3.337   0.497   3.521 -0.2239 -0.5937  0.1855
 2103SOL     OW 8528   3.378   0.725   3.337 -0.3453  0.0105 -0.0721
 2103SOL    HW2 8529   3.458   0.765   3.370 -0.0258  0.2612 -1.1434
 2103SOL    HW3 8530   3.368   0.645   3.390  0.5857 -0.0049  0.0809
 2103SOL    MW4 8531   3.387   0.720   3.349 -0.1802  0.0415 -0.1931
 2104SOL     OW 8532   3.166   0.835   3.464 -0.4033  0.4997 -0.7319
 2104SOL    HW2 8533   3.163   0.921   3.423 -1.2073  0.0936 -1.5489
 2104SOL    HW3 8534   3.246   0.795   3.431 -0.9885  0.2212 -1.8249
 2104SOL    MW4 8535   3.176   0.841   3.454 -0.5867  0.4094 -0.9840
 2105SOL     OW 8536   3.142   1.100   3.392  0.1168  0.4131  0.5372
 2105SOL    HW2 8537   3.216   1.143   3.434  0.1597  0.9828 -0.1034
 2105SOL    HW3 8538   3.159   1.109   3.298 -0.2822 -0.3007  0.3885
 2105SOL    MW4 8539   3.154   1.107   3.385  0.0696  0.3941  0.4327
 2106SOL     OW 8540   3.354   1.259   3.475 -0.0403 -0.2225 -0.4592
 2106SOL    HW2 8541   3.411   1.221   3.408  1.1828  0.1731  0.3343
 2106SOL    HW3 8542   3.343   1.350   3.448 -0.9553 -0.4959 -1.0346
 2106SOL    MW4 8543   3.360   1.266   3.463  0.0005 -0.2064 -0.4303
 2107SOL     OW 8544   3.359   1.526   3.396  0.2056  0.4317  0.0435
 2107SOL    HW2 8545   3.429   1.583   3.428  1.0530 -0.4399 -0.2323
 2107SOL    HW3 8546   3.279   1.575   3.414  0.7599  0.6677  2.0134
 2107SOL    MW4 8547   3.358   1.540   3.403  0.3908  0.3479  0.2673
 2108SOL     OW 8548   3.144   1.689   3.497 -0.2233  0.1316  0.6228
 2108SOL    HW2 8549   3.122   1.771   3.453 -1.0404 -0.2625  0.2891
 2108SOL    HW3 8550   3.072   1.630   3.476 -0.5846 -0.0983  2.4011
 2108SOL    MW4 8551   3.132   1.692   3.489 -0.3791  0.0494  0.8135
 2109SOL     OW 8552   3.081   1.920   3.346 -0.0484  0.0370  0.2883
 2109SOL    HW2 8553   3.039   1.994   3.389  0.9907  0.8780 -0.1388
 2109SOL    HW3 8554   3.042   1.919   3.258 -0.9489 -0.6732  0.6824
 2109SOL    MW4 8555   3.070   1.930   3.340 -0.0303  0.0541  0.2840
 2110SOL     OW 8556   3.311   2.004   3.476 -0.4771  0.3527  0.0535
 2110SOL    HW2 8557   3.326   2.093   3.444 -1.6571 -0.2072 -2.1405
 2110SOL    HW3 8558   3.240   1.970   3.421 -0.9206 -1.5038  1.7062
 2110SOL    MW4 8559   3.304   2.011   3.465 -0.6917  0.0336 -0.0181
 2111SOL     OW 8560   3.357   2.251   3.367 -0.1362 -0.1250 -0.3723
 2111SOL    HW2 8561   3.434   2.291   3.405  0.5686 -2.4110  0.7276
 2111SOL    HW3 8562   3.283   2.298   3.404  0.6933  1.1352 -0.3188
 2111SOL    MW4 8563   3.357   2.262   3.377  0.0663 -0.2604 -0.2198
 2112SOL     OW 8564   2.884   2.083   3.487 -0.0435 -0.0679  0.3366
 2112SOL    HW2 8565   2.876   2.072   3.582 -1.6161 -0.6972  0.1519
 2112SOL    HW3 8566   2.827   2.016   3.451 -0.4952  1.0394 -1.0364
 2112SOL    MW4 8567   2.875   2.073   3.495 -0.3104 -0.0048  0.1309
 2113SOL     OW 8568   3.162   2.673   3.292 -0.2907  0.7235 -0.4882
 2113SOL    HW2 8569   3.095   2.729   3.331  0.1013  1.7136 -1.2121
 2113SOL    HW3 8570   3.245   2.705   3.328 -0.1755 -0.3828  0.2707
 2113SOL    MW4 8571   3.164   2.684   3.301 -0.2236  0.7081 -0.4835
 2114SOL     OW 8572   3.379   2.803   3.436 -0.0721  0.6082  0.4852
 2114SOL    HW2 8573   3.459   2.751   3.425 -0.2723  0.1072  1.3641
 2114SOL    HW3 8574   3.397   2.884   3.388  0.4704 -0.0190 -0.4088
 2114SOL    MW4 8575   3.392   2.806   3.428 -0.0269  0.4592  0.4830
 2115SOL     OW 8576   3.419   3.089   3.332  0.2771  0.3800 -0.2995
 2115SOL    HW2 8577   3.488   3.128   3.385 -0.1614  1.5490 -0.5864
 2115SOL    HW3 8578   3.339   3.134   3.359 -0.0534  0.5037 -1.4582
 2115SOL    MW4 8579   3.418   3.100   3.343  0.1757  0.5505 -0.4904
 2116SOL     OW 8580   3.189   3.218   3.427  0.1247  0.2500 -0.5883
 2116SOL    HW2 8581   3.203   3.304   3.387  0.7231 -0.4079 -1.8085
 2116SOL    HW3 8582   3.103   3.190   3.394 -1.6645  1.8178  2.4643
 2116SOL    MW4 8583   3.179   3.226   3.418 -0.0322  0.3700 -0.3467
 2117SOL     OW 8584   3.176   3.478   3.321 -0.5070 -0.5023 -0.1347
 2117SOL    HW2 8585   3.100   3.526   3.355 -0.7202 -0.4270 -0.7207
 2117SOL    HW3 8586   3.169   3.485   3.226  0.5764  0.0231 -0.1820
 2117SOL    MW4 8587   3.165   3.485   3.313 -0.3922 -0.4230 -0.2182
 2118SOL     OW 8588   3.371   3.607   3.460 -0.0930 -0.1431 -0.3118
 2118SOL    HW2 8589   3.379   3.693   3.417 -0.3881  0.4167  0.7318
 2118SOL    HW3 8590   3.304   3.561   3.409 -0.4956  0.5379 -0.4035
 2118SOL    MW4 8591   3.363   3.612   3.447 -0.1853  0.0210 -0.1862
 2119SOL     OW 8592   3.390   3.869   3.378 -0.4496  0.1568  0.3373
 2119SOL    HW2 8593   3.458   3.933   3.400  0.0064  0.5621 -2.0436
 2119SOL    HW3 8594   3.308   3.912   3.402 -0.1012  1.4006 -0.6336
 2119SOL    MW4 8595   3.389   3.883   3.384 -0.3433  0.3748 -0.1051
 2120SOL     OW 8596   3.154   3.986   3.460 -0.2774 -0.2433  0.5285
 2120SOL    HW2 8597   3.160   3.995   3.555 -2.4437 -0.2302  0.7001
 2120SOL    HW3 8598   3.152   4.076   3.427  1.2184 -0.2533  0.4130
 2120SOL    MW4 8599   3.154   3.999   3.468 -0.3660 -0.2427  0.5357
 2121SOL     OW 8600   3.147   4.236   3.372 -0.1740 -0.3538 -0.2014
 2121SOL    HW2 8601   3.230   4.268   3.407 -0.7401  0.9913 -0.0195
 2121SOL    HW3 8602   3.085   4.308   3.390 -0.8459 -0.3295 -2.4808
 2121SOL    MW4 8603   3.150   4.250   3.379 -0.3374 -0.1726 -0.4783
 2122SOL     OW 8604   3.379   4.357   3.460 -0.0177  0.3257 -0.8203
 2122SOL    HW2 8605   3.382   4.372   3.555  0.6906 -1.9729 -0.4404
 2122SOL    HW3 8606   3.380   4.444   3.422 -0.8353  1.3016  1.3083
 2122SOL    MW4 8607   3.380   4.370   3.468 -0.0322  0.1512 -0.4892
 2123SOL     OW 8608   3.831   4.642   3.367 -0.2649 -0.0441 -0.4348
 2123SOL    HW2 8609   3.769   4.705   3.405 -0.2453  0.0964 -0.6328
 2123SOL    HW3 8610   3.826   4.659   3.273  0.4993  0.3479 -0.4029
 2123SOL    MW4 8611   3.822   4.653   3.359 -0.1614  0.0262 -0.4563
 2124SOL     OW 8612   3.617   0.127   3.459 -0.0273 -0.1473 -0.0018
 2124SOL    HW2 8613   3.601   0.212   3.420 -0.1044 -0.5204 -0.7972
 2124SOL    HW3 8614   3.539   0.076   3.438 -0.5654 -0.0188  1.6019
 2124SOL    MW4 8615   3.605   0.131   3.451 -0.1085 -0.1796  0.1049
 2125SOL     OW 8616   3.571   0.384   3.352  0.1304  0.1984  0.1257
 2125SOL    HW2 8617   3.655   0.411   3.390 -0.2654 -0.3587  1.4509
 2125SOL    HW3 8618   3.506   0.428   3.407 -0.4555 -0.5861  0.0564
 2125SOL    MW4 8619   3.574   0.394   3.364  0.0007  0.0214  0.2918
 2126SOL     OW 8620   3.810   0.481   3.460  0.2811 -0.0602 -0.2833
 2126SOL    HW2 8621   3.807   0.503   3.553  0.7888  1.4701 -0.6052
 2126SOL    HW3 8622   3.887   0.425   3.451  1.4634  1.4741 -0.0814
 2126SOL    MW4 8623   3.820   0.477   3.471  0.5040  0.3442 -0.2995
 2127SOL     OW 8624   3.861   0.725   3.325  0.0142 -0.1358  0.8356
 2127SOL    HW2 8625   3.918   0.779   3.381  2.0004 -0.1418 -1.0786
 2127SOL    HW3 8626   3.860   0.639   3.367  1.4398 -0.1248  0.9266
 2127SOL    MW4 8627   3.869   0.721   3.338  0.4644 -0.1351  0.5949
 2128SOL     OW 8628   3.592   0.856   3.433 -0.5850 -0.1029 -0.0115
 2128SOL    HW2 8629   3.592   0.828   3.524 -1.3666 -1.1088 -0.3054
 2128SOL    HW3 8630   3.678   0.829   3.400 -1.0546 -1.5545 -0.0905
 2128SOL    MW4 8631   3.603   0.849   3.440 -0.7501 -0.4272 -0.0608
 2129SOL     OW 8632   3.551   1.118   3.321  0.2902  0.2933 -0.3369
 2129SOL    HW2 8633   3.566   1.030   3.356  0.7512  0.4043 -0.2569
 2129SOL    HW3 8634   3.537   1.104   3.227 -0.7012  0.0228 -0.1575
 2129SOL    MW4 8635   3.551   1.105   3.313  0.2201  0.2724 -0.3028
 2130SOL     OW 8636   3.786   1.262   3.429  0.2561 -0.1287  0.6193
 2130SOL    HW2 8637   3.777   1.255   3.524 -1.3125  1.4998  0.6126
 2130SOL    HW3 8638   3.707   1.221   3.394 -0.1014  0.9845  0.0933
 2130SOL    MW4 8639   3.775   1.256   3.437  0.0021  0.2329  0.5491
 2131SOL     OW 8640   3.792   1.546   3.389  0.2584  0.3478  0.3296
 2131SOL    HW2 8641   3.878   1.572   3.422  0.3124  0.2890  0.2358
 2131SOL    HW3 8642   3.773   1.465   3.435  0.4116  0.1742  0.0885
 2131SOL    MW4 8643   3.801   1.539   3.399  0.2859  0.3171  0.2854
 2132SOL     OW 8644   3.605   1.687   3.521  0.6687  0.5847 -0.0364
 2132SOL    HW2 8645   3.597   1.764   3.464  1.1222  2.3974  2.2822
 2132SOL    HW3 8646   3.679   1.638   3.486  0.5166  1.2963 -1.3918
 2132SOL    MW4 8647   3.613   1.691   3.509  0.7086  0.9177  0.0906
 2133SOL     OW 8648   3.549   1.899   3.358  0.5316  0.0188  0.8099
 2133SOL    HW2 8649   3.624   1.953   3.383  0.4591  0.1082  0.8367
 2133SOL    HW3 8650   3.475   1.938   3.406  0.0361  1.3643 -0.9987
 2133SOL    MW4 8651   3.549   1.911   3.368  0.4568  0.2080  0.5748
 2134SOL     OW 8652   3.784   2.046   3.429  0.1065 -0.4835  0.1886
 2134SOL    HW2 8653   3.784   2.052   3.525 -1.0524  1.0177  0.1282
 2134SOL    HW3 8654   3.870   2.012   3.407  0.9474  0.5696  1.6991
 2134SOL    MW4 8655   3.795   2.043   3.439  0.0646 -0.1466  0.3800
 2135SOL     OW 8656   3.818   2.298   3.356 -0.0871  0.5088  0.0497
 2135SOL    HW2 8657   3.896   2.344   3.388 -0.0043  1.8855 -2.0126
 2135SOL    HW3 8658   3.833   2.206   3.379  1.7631  0.8739  0.3892
 2135SOL    MW4 8659   3.830   2.292   3.363  0.1681  0.7384 -0.1776
 2136SOL     OW 8660   3.587   2.407   3.470  0.1431  0.4510  0.1341
 2136SOL    HW2 8661   3.597   2.498   3.440  0.5519  0.2112 -0.4625
 2136SOL    HW3 8662   3.668   2.364   3.442 -0.0569 -0.0980  0.4118
 2136SOL    MW4 8663   3.599   2.413   3.462  0.1705  0.3469  0.0923
 2137SOL     OW 8664   3.615   2.685   3.374 -0.5267  0.0530 -0.9595
 2137SOL    HW2 8665   3.679   2.753   3.394  0.7342 -1.5902  0.8262
 2137SOL    HW3 8666   3.605   2.688   3.279  1.2413  1.1886 -1.1285
 2137SOL    MW4 8667   3.622   2.694   3.364 -0.1271 -0.0138 -0.7463
 2138SOL     OW 8668   3.819   2.849   3.450 -0.2773 -0.1625  0.1037
 2138SOL    HW2 8669   3.831   2.850   3.545 -2.1154  1.1024  0.3503
 2138SOL    HW3 8670   3.823   2.941   3.424 -0.5990 -0.4311 -0.9413
 2138SOL    MW4 8671   3.821   2.861   3.459 -0.5624 -0.0312 -0.0019
 2139SOL     OW 8672   3.828   3.109   3.364  0.1870 -0.2891  0.1023
 2139SOL    HW2 8673   3.909   3.143   3.402  2.0208 -4.0320 -0.1969
 2139SOL    HW3 8674   3.842   3.113   3.269  0.5029 -1.9290  0.0630
 2139SOL    MW4 8675   3.840   3.114   3.356  0.4709 -0.9990  0.0577
 2140SOL     OW 8676   3.620   3.226   3.501  0.4467 -0.4284  0.1742
 2140SOL    HW2 8677   3.615   3.321   3.487 -0.4278 -0.3554  0.9204
 2140SOL    HW3 8678   3.685   3.196   3.438 -0.3966  0.4588 -1.1561
 2140SOL    MW4 8679   3.628   3.235   3.491  0.2203 -0.3018  0.0973
 2141SOL     OW 8680   3.604   3.484   3.411  0.0461 -0.2081  0.2588
 2141SOL    HW2 8681   3.525   3.526   3.446  1.6227  1.6339  1.7219
 2141SOL    HW3 8682   3.600   3.499   3.317 -0.2601  1.7813  0.5758
 2141SOL    MW4 8683   3.593   3.491   3.404  0.2139  0.2973  0.4938
 2142SOL     OW 8684   3.835   3.616   3.464  0.1826  0.2123  0.1094
 2142SOL    HW2 8685   3.843   3.634   3.558  0.2674  1.0184 -0.0476
 2142SOL    HW3 8686   3.751   3.571   3.455  0.3334 -0.1791  0.6135
 2142SOL    MW4 8687   3.825   3.612   3.475  0.2134  0.2670  0.1552
 2143SOL     OW 8688   3.786   3.856   3.329  0.1256  0.1248  0.1717
 2143SOL    HW2 8689   3.731   3.911   3.386  0.2873  0.0722  0.3802
 2143SOL    HW3 8690   3.791   3.772   3.374 -0.2131 -0.0952 -0.2051
 2143SOL    MW4 8691   3.780   3.852   3.343  0.1020  0.0889  0.1500
 2144SOL     OW 8692   3.617   4.008   3.487 -0.5366  0.7784  0.5138
 2144SOL    HW2 8693   3.630   3.998   3.581 -0.5524 -0.6457  0.3843
 2144SOL    HW3 8694   3.626   4.101   3.471 -0.4752  1.0254  1.9210
 2144SOL    MW4 8695   3.620   4.019   3.497 -0.5305  0.6227  0.6826
 2145SOL     OW 8696   3.632   4.260   3.406  0.1418  0.2465 -0.1516
 2145SOL    HW2 8697   3.540   4.277   3.425 -0.1505 -1.3648 -0.0273
 2145SOL    HW3 8698   3.635   4.249   3.311  0.2136  0.3558 -0.1617
 2145SOL    MW4 8699   3.620   4.261   3.396  0.1128  0.0482 -0.1369
 2146SOL     OW 8700   3.879   4.392   3.472 -0.4233  0.1395  0.5152
 2146SOL    HW2 8701   3.793   4.355   3.454 -0.3285 -0.3516  1.0405
 2146SOL    HW3 8702   3.873   4.483   3.442 -1.3006  0.2609  1.0430
 2146SOL    MW4 8703   3.867   4.399   3.466 -0.5264  0.0906  0.6542
 2147SOL     OW 8704   4.266   0.025   3.325 -0.6274  0.0825 -0.0349
 2147SOL    HW2 8705   4.258  -0.070   3.340 -0.2834  0.2471  1.2738
 2147SOL    HW3 8706   4.349   0.048   3.368 -0.6303  0.9487 -0.4960
 2147SOL    MW4 8707   4.276   0.015   3.333 -0.5822  0.2185  0.0770
 2148SOL     OW 8708   4.044   0.086   3.474  0.1573 -0.2101 -0.4235
 2148SOL    HW2 8709   4.125   0.070   3.426  0.2686  0.6484 -0.5357
 2148SOL    HW3 8710   3.976   0.042   3.423  0.5642 -0.9965 -0.2898
 2148SOL    MW4 8711   4.046   0.078   3.461  0.2260 -0.2006 -0.4206
 2149SOL     OW 8712   4.032   0.340   3.386  0.3292 -0.5844  0.2711
 2149SOL    HW2 8713   4.045   0.250   3.415  2.1827 -0.5462 -0.3382
 2149SOL    HW3 8714   4.030   0.335   3.291  0.2387 -0.0146  0.2415
 2149SOL    MW4 8715   4.034   0.328   3.377  0.5617 -0.5042  0.1869
 2150SOL     OW 8716   4.262   0.479   3.474  0.5487 -0.1356  0.3468
 2150SOL    HW2 8717   4.250   0.567   3.437 -1.3441 -0.3963  0.3398
 2150SOL    HW3 8718   4.183   0.432   3.451  1.1099 -1.5515  1.2560
 2150SOL    MW4 8719   4.250   0.484   3.466  0.3724 -0.3569  0.4656
 2151SOL     OW 8720   4.237   0.758   3.418  0.2708  0.0409 -0.2213
 2151SOL    HW2 8721   4.307   0.817   3.447  0.4307  0.1643 -0.8614
 2151SOL    HW3 8722   4.237   0.765   3.323  0.6452 -1.3774 -0.3442
 2151SOL    MW4 8723   4.246   0.767   3.409  0.3409 -0.1299 -0.3219
 2152SOL     OW 8724   4.002   0.884   3.498  0.4794  0.1156  0.1589
 2152SOL    HW2 8725   4.015   0.972   3.462  1.3259  0.6452  1.7250
 2152SOL    HW3 8726   4.086   0.840   3.483  0.3238 -0.1687  0.1087
 2152SOL    MW4 8727   4.015   0.889   3.491  0.5703  0.1479  0.3588
 2153SOL     OW 8728   4.036   1.127   3.377 -0.1171 -0.3415  0.0639
 2153SOL    HW2 8729   4.108   1.179   3.413 -0.4462  0.6579 -0.7028
 2153SOL    HW3 8730   3.958   1.180   3.394 -0.3890 -0.3162 -1.2273
 2153SOL    MW4 8731   4.035   1.141   3.384 -0.1965 -0.2062 -0.2079
 2154SOL     OW 8732   4.249   1.297   3.488  0.2016 -0.2260  0.0497
 2154SOL    HW2 8733   4.264   1.380   3.443  3.2185 -0.8272 -0.1666
 2154SOL    HW3 8734   4.260   1.318   3.581  2.1115 -0.5861 -0.0817
 2154SOL    MW4 8735   4.252   1.311   3.495  0.8516 -0.3530  0.0041
 2155SOL     OW 8736   4.276   1.534   3.382 -0.5158  0.6114  0.8080
 2155SOL    HW2 8737   4.189   1.569   3.405 -0.9799 -0.1690  0.2723
 2155SOL    HW3 8738   4.283   1.548   3.288 -1.4706 -2.3177  0.2401
 2155SOL    MW4 8739   4.265   1.540   3.373 -0.7029  0.1222  0.6623
 2156SOL     OW 8740   4.022   1.661   3.489 -0.3324  0.2172 -0.4817
 2156SOL    HW2 8741   4.025   1.672   3.584 -0.5423 -0.8154 -0.3405
 2156SOL    HW3 8742   4.017   1.749   3.454  0.4470  0.6373  0.4447
 2156SOL    MW4 8743   4.022   1.674   3.497 -0.2575  0.1363 -0.3407
 2157SOL     OW 8744   4.045   1.938   3.402 -0.3521  0.6828  0.1533
 2157SOL    HW2 8745   4.123   1.973   3.445  0.3452 -0.4912 -0.1564
 2157SOL    HW3 8746   4.059   1.956   3.309 -0.7490  1.0368  0.1581
 2157SOL    MW4 8747   4.057   1.945   3.395 -0.3128  0.5747  0.1132
 2158SOL     OW 8748   4.256   2.053   3.524 -0.1095 -0.4649  0.3092
 2158SOL    HW2 8749   4.250   2.133   3.472  1.6125  0.7079  1.8655
 2158SOL    HW3 8750   4.321   1.999   3.479  0.6102  0.1129  0.6370
 2158SOL    MW4 8751   4.264   2.056   3.511  0.2127 -0.2344  0.5577
 2159SOL     OW 8752   4.279   2.280   3.360  0.2480 -0.0080  0.2003
 2159SOL    HW2 8753   4.196   2.322   3.386  0.3860 -0.3877  1.2551
 2159SOL    HW3 8754   4.281   2.289   3.265 -0.3378  1.2620  0.2954
 2159SOL    MW4 8755   4.268   2.287   3.351  0.1884  0.1094  0.3521
 2160SOL     OW 8756   4.056   2.393   3.488 -0.3807  0.4032  0.2346
 2160SOL    HW2 8757   4.063   2.388   3.583  0.8690  0.5651  0.1621
 2160SOL    HW3 8758   4.050   2.486   3.468  1.2326  0.4877  0.0548
 2160SOL    MW4 8759   4.056   2.404   3.498 -0.0029  0.4358  0.2010
 2161SOL     OW 8760   4.041   2.659   3.429 -0.2353 -0.1221  0.2006
 2161SOL    HW2 8761   4.112   2.722   3.443  0.4378 -0.5190 -1.2656
 2161SOL    HW3 8762   3.961   2.712   3.433  0.1885  0.4690  1.0436
 2161SOL    MW4 8763   4.040   2.674   3.431 -0.0906 -0.0961  0.1185
 2162SOL     OW 8764   4.285   2.810   3.452  0.0367  0.1229 -0.2131
 2162SOL    HW2 8765   4.321   2.813   3.541  0.5694  1.2511 -0.4510
 2162SOL    HW3 8766   4.347   2.757   3.403 -0.5260 -0.9253  0.2049
 2162SOL    MW4 8767   4.298   2.804   3.457  0.0324  0.1333 -0.1893
 2163SOL     OW 8768   4.260   3.104   3.370 -0.1324  0.0338 -0.0110
 2163SOL    HW2 8769   4.289   3.016   3.393 -0.1829  0.0490  0.1089
 2163SOL    HW3 8770   4.273   3.109   3.275  3.0085  1.0380  0.4112
 2163SOL    MW4 8771   4.266   3.093   3.361  0.2751  0.1683  0.0606
 2164SOL     OW 8772   4.036   3.232   3.466 -0.4969  0.2405  0.0079
 2164SOL    HW2 8773   4.030   3.307   3.407 -0.5114  0.6657  0.5501
 2164SOL    HW3 8774   4.102   3.176   3.427  0.5060  1.1873  0.3298
 2164SOL    MW4 8775   4.044   3.235   3.453 -0.3667  0.4215  0.1218
 2165SOL     OW 8776   4.032   3.485   3.329 -0.0472  0.5704 -0.3179
 2165SOL    HW2 8777   4.110   3.512   3.377  0.0238  0.8016 -0.5584
 2165SOL    HW3 8778   3.960   3.533   3.369 -0.2392 -0.5020  0.6518
 2165SOL    MW4 8779   4.033   3.495   3.340 -0.0625  0.4594 -0.2217
 2166SOL     OW 8780   4.259   3.562   3.440 -0.3810 -0.4068 -0.6300
 2166SOL    HW2 8781   4.256   3.568   3.535  0.0176 -0.7473 -0.5956
 2166SOL    HW3 8782   4.258   3.653   3.410  0.5061 -0.2753 -0.2662
 2166SOL    MW4 8783   4.258   3.575   3.449 -0.2112 -0.4346 -0.5772
 2167SOL     OW 8784   4.245   3.843   3.370  0.4900 -0.3498  0.2089
 2167SOL    HW2 8785   4.319   3.898   3.396  1.0014 -1.2417  0.6312
 2167SOL    HW3 8786   4.250   3.840   3.274  2.1170 -1.9596  0.3321
 2167SOL    MW4 8787   4.255   3.850   3.361  0.7725 -0.6800  0.2809
 2168SOL     OW 8788   3.997   3.991   3.411  0.1125  0.1502  0.3424
 2168SOL    HW2 8789   4.083   3.949   3.403 -0.0756 -0.0876 -0.4845
 2168SOL    HW3 8790   3.936   3.929   3.372 -0.1799  1.1219 -0.8005
 2168SOL    MW4 8791   4.000   3.977   3.405  0.0491  0.2470  0.0825
 2169SOL     OW 8792   4.063   4.240   3.345 -0.0288 -0.3516 -0.5133
 2169SOL    HW2 8793   4.055   4.147   3.367 -2.1915 -0.3339 -1.0776
 2169SOL    HW3 8794   4.003   4.284   3.405  2.8750  1.0105  1.5108
 2169SOL    MW4 8795   4.054   4.233   3.355  0.0696 -0.1693 -0.3209
 2170SOL     OW 8796   4.268   4.431   3.405  0.5837 -0.2090  0.2586
 2170SOL    HW2 8797   4.270   4.427   3.500  0.8180  0.5206  0.2875
 2170SOL    HW3 8798   4.194   4.375   3.380  0.0789  0.1675  0.8994
 2170SOL    MW4 8799   4.258   4.423   3.414  0.5484 -0.0629  0.3471
 2171SOL     OW 8800   0.210   4.638   3.801  0.0708 -0.3038  0.1183
 2171SOL    HW2 8801   0.222   4.656   3.895  1.2345  0.0904 -0.1008
 2171SOL    HW3 8802   0.121   4.666   3.783  0.2031  0.6559  0.8773
 2171SOL    MW4 8803   0.200   4.644   3.811  0.2418 -0.1254  0.1895
 2172SOL     OW 8804   4.473   0.103   3.739 -0.1705 -1.0440  0.2075
 2172SOL    HW2 8805   4.482   0.194   3.769  0.8418 -1.0086 -0.1862
 2172SOL    HW3 8806   4.473   0.109   3.644 -0.3927 -1.4299  0.1816
 2172SOL    MW4 8807   4.474   0.116   3.730 -0.0663 -1.0902  0.1521
 2173SOL     OW 8808   0.025   0.360   3.811  0.0594 -0.2832  0.1375
 2173SOL    HW2 8809  -0.047   0.422   3.800  0.2804 -0.3354 -1.7807
 2173SOL    HW3 8810   0.102   0.406   3.780  0.3454 -1.2558 -0.6186
 2173SOL    MW4 8811   0.025   0.374   3.806  0.1264 -0.4184 -0.2155
 2174SOL     OW 8812   0.181   0.534   3.488 -0.2817  0.1380  0.0046
 2174SOL    HW2 8813   0.185   0.615   3.438 -1.3236 -0.1798 -0.6143
 2174SOL    HW3 8814   0.264   0.490   3.470 -0.2704  0.4508 -0.7186
 2174SOL    MW4 8815   0.192   0.539   3.479 -0.4177  0.1373 -0.1724
 2175SOL     OW 8816   0.249   0.491   3.739 -0.3494  0.0141 -0.6401
 2175SOL    HW2 8817   0.240   0.572   3.789 -0.6391 -0.4201  0.0220
 2175SOL    HW3 8818   0.224   0.514   3.650  0.2925  0.8277 -0.6128
 2175SOL    MW4 8819   0.245   0.505   3.734 -0.3030  0.0642 -0.5491
 2176SOL     OW 8820   4.480   0.876   3.732 -0.0320 -0.7918 -0.1582
 2176SOL    HW2 8821   4.406   0.849   3.787  1.6948 -0.7343  2.2982
 2176SOL    HW3 8822   4.500   0.965   3.761  2.0742 -1.4257  0.4598
 2176SOL    MW4 8823   4.473   0.884   3.743  0.4740 -0.8678  0.2475
 2177SOL     OW 8824   0.017   1.147   3.838  0.1031 -0.2635 -0.4803
 2177SOL    HW2 8825  -0.053   1.205   3.808 -0.4012  0.4693  2.0177
 2177SOL    HW3 8826   0.098   1.191   3.811 -0.3510 -0.5492 -2.3763
 2177SOL    MW4 8827   0.018   1.161   3.831 -0.0234 -0.2044 -0.4008
 2178SOL     OW 8828   0.244   1.284   3.752 -0.3476  0.1830 -0.6626
 2178SOL    HW2 8829   0.258   1.369   3.793 -1.6903  0.3921 -0.6139
 2178SOL    HW3 8830   0.317   1.230   3.783 -0.1197  0.9848  0.2257
 2178SOL    MW4 8831   0.256   1.288   3.762 -0.4947  0.3164 -0.5391
 2179SOL     OW 8832   0.271   1.527   3.892 -0.0635  0.1362 -0.2320
 2179SOL    HW2 8833   0.233   1.492   3.972  0.7531 -0.1704  0.0266
 2179SOL    HW3 8834   0.199   1.575   3.850 -0.2676  1.0051  1.0913
 2179SOL    MW4 8835   0.256   1.528   3.897  0.0173  0.2104 -0.0234
 2180SOL     OW 8836   0.039   1.624   3.774 -0.3337 -0.1804 -0.0325
 2180SOL    HW2 8837   0.037   1.699   3.834 -2.6811  0.1095 -0.4375
 2180SOL    HW3 8838   0.046   1.663   3.687 -0.2689 -0.4701 -0.1581
 2180SOL    MW4 8839   0.040   1.639   3.770 -0.6349 -0.1804 -0.1023
 2181SOL     OW 8840   0.034   1.866   3.902 -0.0520  0.2664 -0.1077
 2181SOL    HW2 8841   0.027   1.854   3.996 -0.6011 -2.5103 -0.4491
 2181SOL    HW3 8842  -0.054   1.890   3.873 -0.2601 -0.4870 -0.1055
 2181SOL    MW4 8843   0.022   1.868   3.910 -0.1521 -0.1993 -0.1523
 2182SOL     OW 8844   0.186   2.018   3.713  0.8040 -0.0519  0.0730
 2182SOL    HW2 8845   0.201   2.107   3.745 -0.2832  0.7910 -1.7175
 2182SOL    HW3 8846   0.116   1.984   3.769 -0.6600  1.1952 -0.9700
 2182SOL    MW4 8847   0.179   2.025   3.725  0.4674  0.2239 -0.3006
 2183SOL     OW 8848   0.269   2.248   3.824 -0.3441  0.1531  0.1783
 2183SOL    HW2 8849   0.273   2.238   3.919 -1.5789 -2.0139  0.0549
 2183SOL    HW3 8850   0.199   2.312   3.810  0.9932  1.7899  0.7419
 2183SOL    MW4 8851   0.260   2.255   3.835 -0.3306  0.0832  0.2363
 2184SOL     OW 8852   0.036   2.396   3.767  0.1092  0.1752 -0.3866
 2184SOL    HW2 8853  -0.043   2.356   3.802  0.8760 -0.6218  0.4474
 2184SOL    HW3 8854   0.037   2.484   3.805  0.0853 -0.1219  0.3088
 2184SOL    MW4 8855   0.026   2.403   3.777  0.2072  0.0308 -0.1848
 2185SOL     OW 8856   0.026   2.657   3.857  0.0492 -0.3631  0.5573
 2185SOL    HW2 8857   0.064   2.652   3.945  0.3167 -2.1121  0.3663
 2185SOL    HW3 8858   0.096   2.692   3.802  0.1506 -0.0264  0.9029
 2185SOL    MW4 8859   0.040   2.661   3.862  0.0979 -0.5496  0.5779
 2186SOL     OW 8860   0.231   2.786   3.723  0.4885 -0.0985 -0.1667
 2186SOL    HW2 8861   0.304   2.730   3.751 -0.6961 -1.2088  0.7385
 2186SOL    HW3 8862   0.227   2.774   3.628  1.1512 -0.4377 -0.1558
 2186SOL    MW4 8863   0.240   2.777   3.714  0.4196 -0.2892 -0.0460
 2187SOL     OW 8864   0.281   3.061   3.764 -0.2067 -0.1053 -0.2775
 2187SOL    HW2 8865   0.296   3.074   3.858  2.0837  1.2949 -0.8127
 2187SOL    HW3 8866   0.276   2.966   3.754  0.3194 -0.2988  1.1346
 2187SOL    MW4 8867   0.282   3.050   3.775  0.1649  0.0539 -0.1616
 2188SOL     OW 8868   0.061   3.198   3.733  0.6037  0.0954 -0.0024
 2188SOL    HW2 8869   0.140   3.144   3.741  0.0216 -0.7793 -0.0274
 2188SOL    HW3 8870   0.051   3.212   3.639  1.2114  0.9523  0.0507
 2188SOL    MW4 8871   0.070   3.192   3.722  0.6071  0.0930  0.0014
 2189SOL     OW 8872   0.007   3.476   3.832 -0.1759 -0.2207 -0.0516
 2189SOL    HW2 8873   0.078   3.495   3.771 -1.8291 -0.6281 -2.1678
 2189SOL    HW3 8874   0.011   3.380   3.842 -1.1873 -0.3870 -1.1587
 2189SOL    MW4 8875   0.017   3.466   3.825 -0.5275 -0.2966 -0.4768
 2190SOL     OW 8876   0.226   3.584   3.697  0.2063 -0.6840 -0.2726
 2190SOL    HW2 8877   0.302   3.538   3.733  0.3182 -0.5792 -0.3802
 2190SOL    HW3 8878   0.234   3.674   3.729 -0.4371 -0.9300  0.6068
 2190SOL    MW4 8879   0.237   3.590   3.706  0.1362 -0.7026 -0.1709
 2191SOL     OW 8880   0.251   3.842   3.793  0.1123  0.2059  0.1871
 2191SOL    HW2 8881   0.258   3.823   3.887  0.3225 -2.0236 -0.2578
 2191SOL    HW3 8882   0.318   3.908   3.777 -0.2037  0.9305  1.6683
 2191SOL    MW4 8883   0.261   3.848   3.804  0.0983  0.0072  0.3240
 2192SOL     OW 8884   4.294   4.394   3.680  0.0947  0.6288  0.4585
 2192SOL    HW2 8885   4.224   4.344   3.722 -0.8145 -0.3522 -2.1303
 2192SOL    HW3 8886   4.374   4.359   3.718 -0.7506  1.3217  2.9900
 2192SOL    MW4 8887   4.295   4.383   3.691 -0.1369  0.5913  0.4511
 2193SOL     OW 8888   2.441   0.556   4.486  0.0696 -0.0559 -0.1507
 2193SOL    HW2 8889   2.403   0.488   4.542  2.7323 -0.2009  1.5904
 2193SOL    HW3 8890   2.443   0.517   4.399 -0.4818 -1.3553  0.4043
 2193SOL    MW4 8891   2.436   0.542   4.482  0.3481 -0.2464  0.1526
 2194SOL     OW 8892   0.267   4.367   3.723  0.2621  0.1429 -0.0977
 2194SOL    HW2 8893   0.344   4.347   3.776  0.7520  1.2994 -0.3541
 2194SOL    HW3 8894   0.240   4.454   3.753 -0.7210 -0.1067 -0.2662
 2194SOL    MW4 8895   0.274   4.376   3.734  0.1970  0.2627 -0.1538
 2195SOL     OW 8896   0.671   4.663   3.860  0.0291  0.0009 -0.0615
 2195SOL    HW2 8897   0.663   4.577   3.817 -2.0678 -0.0791  0.4199
 2195SOL    HW3 8898   0.609   4.719   3.814  0.4200  0.9068  0.4949
 2195SOL    MW4 8899   0.661   4.659   3.848 -0.1960  0.1087  0.0753
 2196SOL     OW 8900   0.459   0.095   3.722  0.0625  0.1127 -0.1958
 2196SOL    HW2 8901   0.443   0.174   3.773  0.5183 -0.7185  1.2681
 2196SOL    HW3 8902   0.385   0.038   3.741  0.7114 -0.5779  0.3059
 2196SOL    MW4 8903   0.447   0.098   3.732  0.2083 -0.0881  0.0637
 2197SOL     OW 8904   0.452   0.350   3.854  0.0781 -0.1526  0.1842
 2197SOL    HW2 8905   0.527   0.399   3.821 -0.1813 -0.3435 -0.7072
 2197SOL    HW3 8906   0.376   0.392   3.812 -0.2388 -0.5002  0.4083
 2197SOL    MW4 8907   0.452   0.362   3.844  0.0021 -0.2237  0.0961
 2198SOL     OW 8908   0.687   0.469   3.769  0.5058 -0.0958  0.1292
 2198SOL    HW2 8909   0.761   0.421   3.806  1.2183  0.2647 -0.8109
 2198SOL    HW3 8910   0.691   0.555   3.809  1.9287  0.6571 -1.5730
 2198SOL    MW4 8911   0.697   0.474   3.779  0.7875  0.0511 -0.2191
 2199SOL     OW 8912   0.673   0.722   3.880 -0.1575  0.7084  0.0020
 2199SOL    HW2 8913   0.738   0.774   3.832 -0.1673  1.7887  1.1166
 2199SOL    HW3 8914   0.589   0.757   3.853 -0.2873 -0.5892 -1.3249
 2199SOL    MW4 8915   0.671   0.733   3.870 -0.1759  0.6797 -0.0260
 2200SOL     OW 8916   0.464   0.847   3.760 -0.2381  0.3668  0.2117
 2200SOL    HW2 8917   0.462   0.937   3.794  0.6464  0.5494 -0.2024
 2200SOL    HW3 8918   0.377   0.813   3.777 -0.5176  1.2424  0.5573
 2200SOL    MW4 8919   0.453   0.854   3.767 -0.1583  0.5065  0.2027
 2201SOL     OW 8920   0.460   1.112   3.834 -0.2812 -0.8424  0.5622
 2201SOL    HW2 8921   0.544   1.155   3.817 -0.9504  0.5672  0.7168
 2201SOL    HW3 8922   0.441   1.134   3.926 -1.1977 -0.4672  0.2850
 2201SOL    MW4 8923   0.469   1.121   3.844 -0.4904 -0.6070  0.5457
 2202SOL     OW 8924   0.696   1.231   3.778  0.2888  0.0741  0.0815
 2202SOL    HW2 8925   0.791   1.220   3.792  0.1555 -0.2957  0.7021
 2202SOL    HW3 8926   0.684   1.219   3.684  0.8688  0.1832 -0.0095
 2202SOL    MW4 8927   0.707   1.228   3.768  0.3478  0.0397  0.1514
 2203SOL     OW 8928   0.650   1.511   3.821  0.0571 -0.2799  0.1326
 2203SOL    HW2 8929   0.658   1.419   3.796 -0.5640 -0.4153  0.4237
 2203SOL    HW3 8930   0.737   1.548   3.807  0.5321 -1.1192  0.8532
 2203SOL    MW4 8931   0.662   1.504   3.816  0.0378 -0.4086  0.2661
 2204SOL     OW 8932   0.452   1.680   3.736  0.0176 -0.4138 -0.1752
 2204SOL    HW2 8933   0.534   1.631   3.746 -0.4460 -0.6213  2.9883
 2204SOL    HW3 8934   0.386   1.627   3.779 -1.3753  0.8669 -0.6626
 2204SOL    MW4 8935   0.454   1.667   3.743 -0.2274 -0.2722  0.1781
 2205SOL     OW 8936   0.408   1.916   3.861  0.3612 -0.2597  0.2573
 2205SOL    HW2 8937   0.410   1.833   3.813  0.1592 -0.3650  0.4285
 2205SOL    HW3 8938   0.337   1.965   3.819  0.2421 -0.3172  0.3926
 2205SOL    MW4 8939   0.399   1.912   3.849  0.3188 -0.2813  0.2978
 2206SOL     OW 8940   0.648   2.031   3.768  0.3127 -0.1789  0.1407
 2206SOL    HW2 8941   0.660   2.124   3.787  1.0625 -0.3304  0.4363
 2206SOL    HW3 8942   0.576   2.004   3.824  2.0821 -0.4774  2.3601
 2206SOL    MW4 8943   0.640   2.040   3.778  0.6451 -0.2384  0.4728
 2207SOL     OW 8944   0.728   2.303   3.810 -0.1457  0.0105  0.1298
 2207SOL    HW2 8945   0.647   2.346   3.783  0.2823 -0.7637 -2.4782
 2207SOL    HW3 8946   0.796   2.343   3.756  0.9266 -0.7484  0.9015
 2207SOL    MW4 8947   0.726   2.314   3.799  0.0523 -0.1919 -0.1123
 2208SOL     OW 8948   0.489   2.387   3.718 -0.1575 -0.0569 -0.5941
 2208SOL    HW2 8949   0.414   2.341   3.757 -0.2668 -0.2408 -1.0179
 2208SOL    HW3 8950   0.464   2.400   3.627  0.0335  0.5129 -0.5637
 2208SOL    MW4 8951   0.476   2.383   3.711 -0.1467 -0.0060 -0.6461
 2209SOL     OW 8952   0.449   2.660   3.821  0.2883 -0.1296 -0.2619
 2209SOL    HW2 8953   0.510   2.718   3.776  0.5220 -0.5152 -0.4460
 2209SOL    HW3 8954   0.463   2.574   3.780 -0.3590 -0.2218 -0.2966
 2209SOL    MW4 8955   0.459   2.656   3.809  0.2337 -0.1924 -0.2909
 2210SOL     OW 8956   0.667   2.847   3.754  0.0196 -0.4727  0.9375
 2210SOL    HW2 8957   0.734   2.786   3.784  0.6098  0.0170  0.6356
 2210SOL    HW3 8958   0.690   2.864   3.662 -1.3422 -1.4041  0.4040
 2210SOL    MW4 8959   0.679   2.841   3.746 -0.0822 -0.5312  0.8273
 2211SOL     OW 8960   0.771   3.080   3.882  0.7069 -0.4240 -0.1936
 2211SOL    HW2 8961   0.741   2.997   3.843  0.6116 -0.1440 -0.7106
 2211SOL    HW3 8962   0.747   3.072   3.974  0.4783 -0.8780 -0.2892
 2211SOL    MW4 8963   0.764   3.068   3.889  0.6642 -0.4466 -0.2747
 2212SOL     OW 8964   0.537   3.161   3.723  0.0528 -0.0729 -0.3258
 2212SOL    HW2 8965   0.595   3.132   3.793 -0.7548  1.3591  0.9790
 2212SOL    HW3 8966   0.452   3.124   3.746 -0.3391  0.8791 -0.2314
 2212SOL    MW4 8967   0.533   3.152   3.735 -0.1055  0.2415 -0.1411
 2213SOL     OW 8968   4.083   1.129   4.744  0.4185  0.0671  0.0282
 2213SOL    HW2 8969   4.158   1.116   4.686  0.1577 -1.5061  0.0202
 2213SOL    HW3 8970   4.104   1.079   4.822 -0.6765 -0.4754 -0.0212
 2213SOL    MW4 8971   4.096   1.121   4.746  0.2398 -0.2120  0.0210
 2214SOL     OW 8972   0.648   3.588   3.743  0.2358 -0.1903 -0.2703
 2214SOL    HW2 8973   0.583   3.524   3.770 -0.6526 -0.0239 -1.9928
 2214SOL    HW3 8974   0.644   3.590   3.648 -0.2431  2.8950 -0.2542
 2214SOL    MW4 8975   0.639   3.580   3.734  0.0554  0.2389 -0.4954
 2215SOL     OW 8976   0.689   3.836   3.853 -0.3964  0.2029  0.2249
 2215SOL    HW2 8977   0.682   3.749   3.813  1.7427  0.9223 -1.7854
 2215SOL    HW3 8978   0.708   3.818   3.945 -0.1171 -1.4715 -0.1413
 2215SOL    MW4 8979   0.691   3.822   3.860 -0.0773  0.0770 -0.0887
 2216SOL     OW 8980   0.484   3.994   3.740  0.0310  0.6279 -0.5611
 2216SOL    HW2 8981   0.556   3.946   3.780 -1.2073 -0.6001  0.2444
 2216SOL    HW3 8982   0.498   3.983   3.645  1.0663  0.6669 -0.4151
 2216SOL    MW4 8983   0.495   3.986   3.732  0.0042  0.4709 -0.4354
 2217SOL     OW 8984   0.470   4.248   3.861  0.2053 -0.1253 -0.1605
 2217SOL    HW2 8985   0.481   4.249   3.956 -1.1084  0.5163  0.0060
 2217SOL    HW3 8986   0.477   4.156   3.837  0.3811 -0.3078  0.5778
 2217SOL    MW4 8987   0.472   4.236   3.870  0.0551 -0.0639 -0.0408
 2218SOL     OW 8988   0.672   4.389   3.735  0.1435 -0.2450  0.4085
 2218SOL    HW2 8989   0.756   4.347   3.755  0.4366  0.2005  0.1518
 2218SOL    HW3 8990   0.607   4.336   3.779  0.7700  0.7025  2.5393
 2218SOL    MW4 8991   0.675   4.377   3.743  0.2648 -0.0610  0.6557
 2219SOL     OW 8992   1.138   4.659   3.838 -0.1360 -0.0396 -0.2738
 2219SOL    HW2 8993   1.204   4.724   3.812 -0.1419  0.0176 -0.1498
 2219SOL    HW3 8994   1.150   4.586   3.778  1.8398 -1.1758  1.4313
 2219SOL    MW4 8995   1.148   4.658   3.827  0.1239 -0.1817 -0.0322
 2220SOL     OW 8996   0.896   0.091   3.735  0.0808  0.0707 -0.4176
 2220SOL    HW2 8997   0.971   0.048   3.776  0.1678  0.1254 -0.5201
 2220SOL    HW3 8998   0.820   0.051   3.776  0.1706  0.2990 -0.0231
 2220SOL    MW4 8999   0.896   0.080   3.746  0.1041  0.1080 -0.3791
 2221SOL     OW 9000   0.936   0.352   3.833 -0.0116 -0.1279  0.1571
 2221SOL    HW2 9001   0.945   0.353   3.928 -0.8636 -1.0799  0.2525
 2221SOL    HW3 9002   0.931   0.260   3.810  0.1355  0.0980 -0.8125
 2221SOL    MW4 9003   0.936   0.340   3.842 -0.1047 -0.2237  0.0420
 2222SOL     OW 9004   1.126   0.499   3.709 -0.2581  0.7177  0.9520
 2222SOL    HW2 9005   1.204   0.464   3.750 -0.0471  0.2926  0.1949
 2222SOL    HW3 9006   1.053   0.452   3.750 -0.0427  0.2191  0.7553
 2222SOL    MW4 9007   1.126   0.488   3.720 -0.2021  0.5958  0.8261
 2223SOL     OW 9008   1.132   0.746   3.826 -0.2154  0.2817 -0.2871
 2223SOL    HW2 9009   1.141   0.736   3.921 -0.1500  1.0991 -0.1991
 2223SOL    HW3 9010   1.125   0.657   3.793 -0.9419  0.0183  0.5571
 2223SOL    MW4 9011   1.132   0.733   3.834 -0.3027  0.3548 -0.1643
 2224SOL     OW 9012   0.886   0.875   3.732 -0.2961  0.1165 -0.3444
 2224SOL    HW2 9013   0.975   0.841   3.734 -0.0603  0.6497 -1.5130
 2224SOL    HW3 9014   0.858   0.865   3.641 -0.8637  1.4057 -0.3234
 2224SOL    MW4 9015   0.894   0.869   3.720 -0.3399  0.3569 -0.4957
 2225SOL     OW 9016   0.933   1.144   3.901  0.2622  0.1565 -0.4796
 2225SOL    HW2 9017   0.893   1.134   3.988 -0.7160  1.6088 -0.7435
 2225SOL    HW3 9018   0.932   1.056   3.864  0.1418 -0.3707  0.7489
 2225SOL    MW4 9019   0.927   1.132   3.908  0.1172  0.2785 -0.3521
 2226SOL     OW 9020   1.120   1.313   3.772 -0.1954  0.1795 -0.5352
 2226SOL    HW2 9021   1.127   1.397   3.819  1.9114  0.3157 -1.0308
 2226SOL    HW3 9022   1.044   1.270   3.812 -0.2816  1.5896  0.9080
 2226SOL    MW4 9023   1.111   1.319   3.784  0.0712  0.3835 -0.4103
 2227SOL     OW 9024   1.130   1.570   3.868 -0.4914  0.0353 -0.4377
 2227SOL    HW2 9025   1.151   1.591   3.959  0.1886 -1.4810 -0.2364
 2227SOL    HW3 9026   1.198   1.615   3.817  0.4092 -0.9093 -0.0698
 2227SOL    MW4 9027   1.141   1.579   3.873 -0.2829 -0.2893 -0.3626
 2228SOL     OW 9028   0.879   1.665   3.804  0.0977 -0.3634  0.1168
 2228SOL    HW2 9029   0.966   1.637   3.832 -0.1886 -0.9754  0.4074
 2228SOL    HW3 9030   0.875   1.641   3.711 -0.3695 -1.8983  0.5044
 2228SOL    MW4 9031   0.890   1.658   3.795 -0.0017 -0.6467  0.2058
 2229SOL     OW 9032   0.887   1.927   3.877  0.2077 -0.2870 -0.1148
 2229SOL    HW2 9033   0.883   1.836   3.847  0.7713  0.0787 -1.3305
 2229SOL    HW3 9034   0.809   1.968   3.841  1.6200  0.5134 -2.3385
 2229SOL    MW4 9035   0.876   1.920   3.869  0.4684 -0.1332 -0.5686
 2230SOL     OW 9036   1.098   2.048   3.746 -0.1317  0.4073  0.1903
 2230SOL    HW2 9037   1.029   2.000   3.792 -1.1598  1.4355 -0.2606
 2230SOL    HW3 9038   1.079   2.032   3.653 -0.9494  2.3127  0.0134
 2230SOL    MW4 9039   1.087   2.040   3.740 -0.3752  0.7942  0.1073
 2231SOL     OW 9040   1.121   2.309   3.822 -0.8170  0.3470  0.4696
 2231SOL    HW2 9041   1.119   2.216   3.798  0.7126  0.4013  0.1108
 2231SOL    HW3 9042   1.137   2.309   3.917  0.3855  0.2543  0.2747
 2231SOL    MW4 9043   1.123   2.297   3.831 -0.4566  0.3417  0.3965
 2232SOL     OW 9044   0.936   2.457   3.680  0.5364 -0.0390  0.0551
 2232SOL    HW2 9045   0.923   2.541   3.724 -0.4768  0.2882 -0.8411
 2232SOL    HW3 9046   1.002   2.412   3.733  2.0946  1.8554 -0.2122
 2232SOL    MW4 9047   0.943   2.462   3.693  0.6083  0.2542 -0.0985
 2233SOL     OW 9048   0.882   2.698   3.810 -0.1339  0.3070 -0.2478
 2233SOL    HW2 9049   0.956   2.749   3.841  1.1277 -0.9336 -1.1861
 2233SOL    HW3 9050   0.851   2.651   3.888  1.9153 -1.4287 -0.4385
 2233SOL    MW4 9051   0.887   2.698   3.824  0.3029 -0.0861 -0.3970
 2234SOL     OW 9052   1.561   2.847   3.758  0.0511 -0.2794  0.0573
 2234SOL    HW2 9053   1.531   2.887   3.840 -0.1563  1.0106 -0.6441
 2234SOL    HW3 9054   1.612   2.771   3.786  0.0578  0.2021  1.3846
 2234SOL    MW4 9055   1.563   2.842   3.773  0.0247 -0.0455  0.1397
 2235SOL     OW 9056   1.343   3.476   3.818  0.3303  0.0606 -0.1712
 2235SOL    HW2 9057   1.416   3.537   3.800  0.2394 -0.4763 -2.5542
 2235SOL    HW3 9058   1.267   3.518   3.778 -0.5334  0.2183  1.5960
 2235SOL    MW4 9059   1.343   3.490   3.810  0.2044  0.0107 -0.2525
 2236SOL     OW 9060   0.946   3.256   3.740 -0.1932  0.1467 -0.4881
 2236SOL    HW2 9061   0.871   3.200   3.758  0.0539 -0.5301 -1.5294
 2236SOL    HW3 9062   0.946   3.267   3.645  1.3855 -0.3891 -0.5697
 2236SOL    MW4 9063   0.936   3.250   3.730  0.0477 -0.0134 -0.6361
 2237SOL     OW 9064   0.318   2.390   4.509 -0.2222 -0.3150 -0.5476
 2237SOL    HW2 9065   0.344   2.305   4.543 -0.6016 -0.6687 -1.1241
 2237SOL    HW3 9066   0.355   2.393   4.421  0.0587  0.2510 -0.4133
 2237SOL    MW4 9067   0.326   2.379   4.502 -0.2353 -0.2873 -0.6061
 2238SOL     OW 9068   1.152   3.871   3.809  0.0232  0.1668  0.2854
 2238SOL    HW2 9069   1.141   3.866   3.904 -0.6496  0.8243  0.2430
 2238SOL    HW3 9070   1.081   3.926   3.779 -0.4484 -0.9748 -0.7456
 2238SOL    MW4 9071   1.141   3.877   3.817 -0.1278  0.1028  0.1440
 2239SOL     OW 9072   1.122   3.606   3.713 -0.9560  0.1745  0.1137
 2239SOL    HW2 9073   1.047   3.569   3.760 -1.5135  1.0354 -0.0809
 2239SOL    HW3 9074   1.122   3.699   3.737 -0.3855  0.3305 -0.4640
 2239SOL    MW4 9075   1.112   3.614   3.723 -0.9544  0.3088  0.0117
 2240SOL     OW 9076   0.899   3.986   3.754 -0.0633 -0.0997  0.1813
 2240SOL    HW2 9077   0.831   3.933   3.796 -1.5570  0.8477 -0.9746
 2240SOL    HW3 9078   0.871   3.993   3.663  1.5124  0.4578 -0.2801
 2240SOL    MW4 9079   0.886   3.980   3.748 -0.0524  0.0987 -0.0322
 2241SOL     OW 9080   0.936   4.284   3.785  0.6516 -0.1186  0.6053
 2241SOL    HW2 9081   0.905   4.302   3.874  1.8926 -0.9311  1.2162
 2241SOL    HW3 9082   0.932   4.188   3.777  1.2564 -0.1037  0.0530
 2241SOL    MW4 9083   0.931   4.274   3.796  0.8951 -0.2241  0.6132
 2242SOL     OW 9084   1.126   4.443   3.668  0.1909 -0.4818 -0.1635
 2242SOL    HW2 9085   1.052   4.394   3.704 -0.9132  0.4402 -1.1110
 2242SOL    HW3 9086   1.119   4.432   3.573  1.5298 -0.7370 -0.2439
 2242SOL    MW4 9087   1.115   4.435   3.660  0.2218 -0.3934 -0.2990
 2243SOL     OW 9088   1.448   4.370   4.328 -0.1859 -0.0905 -0.0699
 2243SOL    HW2 9089   1.520   4.308   4.338  0.1667  0.3246 -0.0470
 2243SOL    HW3 9090   1.405   4.371   4.413 -0.8331 -1.0971 -0.3775
 2243SOL    MW4 9091   1.452   4.362   4.340 -0.2248 -0.1683 -0.1068
 2244SOL     OW 9092   1.358   0.146   3.740 -0.1807 -0.2288 -0.1553
 2244SOL    HW2 9093   1.340   0.235   3.771 -1.0528 -0.9566  1.4613
 2244SOL    HW3 9094   1.445   0.125   3.775 -0.0052 -0.0485 -0.4779
 2244SOL    MW4 9095   1.367   0.155   3.748 -0.2725 -0.3010  0.0153
 2245SOL     OW 9096   1.329   0.411   3.855 -0.0101  0.5923  0.1644
 2245SOL    HW2 9097   1.416   0.445   3.837  0.6643 -1.3154 -0.2802
 2245SOL    HW3 9098   1.329   0.392   3.949  0.5441 -0.6951 -0.0811
 2245SOL    MW4 9099   1.340   0.413   3.865  0.1520  0.1708  0.0732
 2246SOL     OW 9100   1.582   0.491   3.795 -0.5762 -0.4287 -0.3415
 2246SOL    HW2 9101   1.665   0.450   3.821 -1.2724 -1.4285  0.3009
 2246SOL    HW3 9102   1.600   0.585   3.802  0.0043 -0.6512  1.4214
 2246SOL    MW4 9103   1.596   0.498   3.799 -0.5915 -0.5899 -0.0241
 2247SOL     OW 9104   1.821   0.883   3.696 -0.2717  0.5421 -0.1226
 2247SOL    HW2 9105   1.892   0.821   3.713 -0.6510  0.4389  1.1704
 2247SOL    HW3 9106   1.800   0.871   3.603 -0.6147 -1.5816  0.1986
 2247SOL    MW4 9107   1.828   0.873   3.686 -0.3669  0.2483  0.0901
 2248SOL     OW 9108   1.361   0.878   3.735 -0.2320  0.6028 -0.3357
 2248SOL    HW2 9109   1.333   0.962   3.772  2.0293  0.4662  1.8749
 2248SOL    HW3 9110   1.306   0.813   3.778  0.3507  0.7025  0.5885
 2248SOL    MW4 9111   1.350   0.881   3.745  0.1432  0.5980  0.0780
 2249SOL     OW 9112   1.331   1.114   3.849  0.0891 -0.1697  0.5579
 2249SOL    HW2 9113   1.410   1.166   3.831 -0.0921 -0.0062  0.2369
 2249SOL    HW3 9114   1.261   1.159   3.801 -0.4387  0.3978  1.8456
 2249SOL    MW4 9115   1.332   1.127   3.840 -0.0045 -0.0733  0.6857
 2250SOL     OW 9116   3.797   1.878   4.231 -0.0461  0.6006  0.2487
 2250SOL    HW2 9117   3.815   1.789   4.261 -1.2133 -0.3309 -1.7350
 2250SOL    HW3 9118   3.879   1.908   4.192  0.2682  0.3235  0.6842
 2250SOL    MW4 9119   3.810   1.870   4.230 -0.1588  0.4411  0.0443
 2251SOL     OW 9120   1.556   1.518   3.848 -0.2315  0.8214 -0.5484
 2251SOL    HW2 9121   1.560   1.568   3.929  0.4007  1.3806 -0.9173
 2251SOL    HW3 9122   1.632   1.548   3.798 -0.1068 -0.1777 -0.9672
 2251SOL    MW4 9123   1.566   1.529   3.852 -0.1317  0.7633 -0.6523
 2252SOL     OW 9124   4.309   1.048   4.583 -0.1545  0.6983  0.0506
 2252SOL    HW2 9125   4.346   1.122   4.534 -0.8011  0.4542 -0.8342
 2252SOL    HW3 9126   4.383   0.992   4.602  0.0970  0.7334 -0.7867
 2252SOL    MW4 9127   4.323   1.050   4.579 -0.2069  0.6707 -0.1764
 2253SOL     OW 9128   0.807   3.805   4.134  0.0605 -0.2168  0.0397
 2253SOL    HW2 9129   0.809   3.711   4.119  2.1460  0.0948 -1.9713
 2253SOL    HW3 9130   0.900   3.831   4.136 -0.5049  1.9833 -0.9173
 2253SOL    MW4 9131   0.820   3.796   4.132  0.2612  0.1144 -0.3519
 2254SOL     OW 9132   1.355   1.655   3.691 -0.3884 -0.2039 -0.0541
 2254SOL    HW2 9133   1.342   1.746   3.719  0.6753  0.1894 -0.8171
 2254SOL    HW3 9134   1.417   1.619   3.755 -0.9079 -0.4351  0.3224
 2254SOL    MW4 9135   1.361   1.662   3.703 -0.3166 -0.1826 -0.1054
 2255SOL     OW 9136   1.771   2.420   3.454 -0.6113 -0.1437 -0.5486
 2255SOL    HW2 9137   1.771   2.418   3.550  0.8814 -0.4506 -0.5464
 2255SOL    HW3 9138   1.777   2.513   3.432  2.2201 -0.2293 -0.3095
 2255SOL    MW4 9139   1.772   2.432   3.464 -0.0407 -0.1953 -0.5167
 2256SOL     OW 9140   1.340   2.452   3.708 -0.3497 -1.0763  0.0505
 2256SOL    HW2 9141   1.266   2.403   3.744 -0.7420 -0.0009  0.7129
 2256SOL    HW3 9142   1.416   2.416   3.754 -0.6929 -0.7148  0.9144
 2256SOL    MW4 9143   1.340   2.441   3.719 -0.4469 -0.8864  0.2520
 2257SOL     OW 9144   1.802   2.669   3.335 -0.2120  0.2463 -0.1404
 2257SOL    HW2 9145   1.719   2.701   3.368 -0.4087  0.2569 -0.6432
 2257SOL    HW3 9146   1.868   2.725   3.377 -0.3884 -0.4382  1.0666
 2257SOL    MW4 9147   1.800   2.680   3.345 -0.2612  0.1576 -0.0474
 2258SOL     OW 9148   1.174   3.152   3.860  0.2418  0.1465 -0.0102
 2258SOL    HW2 9149   1.100   3.196   3.818  0.7244  0.1846 -0.8289
 2258SOL    HW3 9150   1.153   3.155   3.953  0.3962  2.3880 -0.0104
 2258SOL    MW4 9151   1.161   3.158   3.867  0.3259  0.4473 -0.1183
 2259SOL     OW 9152   1.586   3.612   3.743  0.2440  0.2397  0.0260
 2259SOL    HW2 9153   1.637   3.554   3.799 -1.6958 -0.7059  0.8867
 2259SOL    HW3 9154   1.580   3.694   3.792 -2.1189 -0.8427  1.6357
 2259SOL    MW4 9155   1.592   3.615   3.757 -0.3237 -0.0279  0.3519
 2260SOL     OW 9156   1.946   3.412   3.971  0.0821  0.2343 -0.5830
 2260SOL    HW2 9157   1.968   3.473   3.901 -1.4067  0.2855 -1.0209
 2260SOL    HW3 9158   2.010   3.341   3.963  0.5253  0.7232 -1.3704
 2260SOL    MW4 9159   1.957   3.410   3.961 -0.0559  0.3057 -0.7446
 2261SOL     OW 9160   1.451   2.997   4.018 -0.2943 -0.2550  0.2395
 2261SOL    HW2 9161   1.459   3.092   4.019 -1.4713 -0.1259 -0.8845
 2261SOL    HW3 9162   1.369   2.979   4.065 -0.6472 -0.6215 -0.4977
 2261SOL    MW4 9163   1.441   3.007   4.024 -0.4961 -0.2866 -0.0057
 2262SOL     OW 9164   1.028   4.141   4.189 -0.0309 -0.3953 -0.1038
 2262SOL    HW2 9165   1.018   4.123   4.283 -0.1783  0.5383  0.0641
 2262SOL    HW3 9166   1.089   4.214   4.185  1.2721 -1.5146 -0.8245
 2262SOL    MW4 9167   1.035   4.148   4.201  0.1215 -0.4196 -0.1774
 2263SOL     OW 9168   1.535   3.871   3.884 -0.0124 -0.2430 -0.0120
 2263SOL    HW2 9169   1.534   3.888   3.978 -0.0346 -1.8306  0.2957
 2263SOL    HW3 9170   1.477   3.937   3.847 -0.7767 -0.2119  1.1958
 2263SOL    MW4 9171   1.527   3.882   3.892 -0.1161 -0.4485  0.1879
 2264SOL     OW 9172   1.355   4.061   3.752 -0.1143 -0.2675  0.4553
 2264SOL    HW2 9173   1.319   4.126   3.813  1.3101 -0.2235  1.2781
 2264SOL    HW3 9174   1.290   3.991   3.751 -2.6648  2.0124 -1.9840
 2264SOL    MW4 9175   1.342   4.060   3.760 -0.2629  0.0391  0.2418
 2265SOL     OW 9176   1.276   4.278   3.883 -0.4266  0.0494  0.0146
 2265SOL    HW2 9177   1.220   4.311   3.812  0.0701  0.9298  0.0194
 2265SOL    HW3 9178   1.362   4.314   3.864 -0.0246 -0.6826  0.4242
 2265SOL    MW4 9179   1.280   4.287   3.871 -0.3082  0.0687  0.0694
 2266SOL     OW 9180   1.570   0.024   3.862 -0.0753 -0.5403  0.1776
 2266SOL    HW2 9181   1.541   0.066   3.943 -0.4454 -0.5276  0.0407
 2266SOL    HW3 9182   1.539  -0.066   3.869  2.4730 -1.3758  1.3796
 2266SOL    MW4 9183   1.562   0.018   3.874  0.2120 -0.6489  0.3181
 2267SOL     OW 9184   2.036   4.635   3.858  0.1641 -0.2074 -0.4397
 2267SOL    HW2 9185   2.106   4.677   3.808  0.7219 -0.8421 -0.2083
 2267SOL    HW3 9186   2.033   4.546   3.822 -0.2614 -0.2937 -0.1825
 2267SOL    MW4 9187   2.045   4.629   3.847  0.1817 -0.3028 -0.3755
 2268SOL     OW 9188   1.822   0.126   3.747  0.3418  0.8914 -0.2942
 2268SOL    HW2 9189   1.894   0.065   3.759  0.7623  1.1915 -1.2924
 2268SOL    HW3 9190   1.745   0.078   3.778  0.2813 -1.0112 -3.1891
 2268SOL    MW4 9191   1.821   0.112   3.753  0.3892  0.6799 -0.8078
 2269SOL     OW 9192   1.819   0.372   3.887 -0.6381 -0.4058 -0.0348
 2269SOL    HW2 9193   1.801   0.357   3.980 -4.8631 -1.1030 -0.8773
 2269SOL    HW3 9194   1.820   0.284   3.849  0.0200 -0.0512 -0.8387
 2269SOL    MW4 9195   1.817   0.358   3.894 -1.1088 -0.4510 -0.2518
 2270SOL     OW 9196   2.057   0.472   3.758 -0.0651 -0.0444  0.0291
 2270SOL    HW2 9197   1.971   0.443   3.788  0.3824 -0.0535  1.3492
 2270SOL    HW3 9198   2.049   0.477   3.663 -1.4429 -0.2933  0.1217
 2270SOL    MW4 9199   2.045   0.469   3.749 -0.1881 -0.0784  0.2155
 2271SOL     OW 9200   2.040   0.769   3.825 -0.3204  0.3711  0.2754
 2271SOL    HW2 9201   1.991   0.781   3.907  0.4493  0.1973  0.7736
 2271SOL    HW3 9202   2.042   0.674   3.812  0.6273  0.3216  0.7295
 2271SOL    MW4 9203   2.034   0.758   3.834 -0.0939  0.3416  0.4010
 2272SOL     OW 9204   1.825   1.124   3.819 -0.5387  0.2244  0.2027
 2272SOL    HW2 9205   1.840   1.038   3.780  0.1849  0.8911 -1.0098
 2272SOL    HW3 9206   1.812   1.106   3.913  0.2675 -1.1261  0.0616
 2272SOL    MW4 9207   1.825   1.110   3.827 -0.3369  0.1341  0.0241
 2273SOL     OW 9208   1.568   1.228   3.753 -0.1538  0.4713 -0.1888
 2273SOL    HW2 9209   1.559   1.309   3.805  1.2738 -0.6530  1.8475
 2273SOL    HW3 9210   1.659   1.201   3.766 -0.4401 -1.1180 -1.4114
 2273SOL    MW4 9211   1.579   1.235   3.761 -0.0033  0.1132 -0.0813
 2274SOL     OW 9212   2.063   1.261   3.741  0.2479  0.4321 -0.0797
 2274SOL    HW2 9213   1.984   1.220   3.774  0.5145 -0.7263 -0.8533
 2274SOL    HW3 9214   2.135   1.212   3.781  0.5646  0.1582 -0.9608
 2274SOL    MW4 9215   2.062   1.249   3.751  0.3247  0.2431 -0.2978
 2275SOL     OW 9216   1.792   1.619   3.478  0.2163 -0.2390 -0.2702
 2275SOL    HW2 9217   1.795   1.704   3.433 -0.7355 -0.5524 -0.9224
 2275SOL    HW3 9218   1.768   1.641   3.568 -0.7043  0.1177 -0.6046
 2275SOL    MW4 9219   1.789   1.633   3.484 -0.0309 -0.2333 -0.4005
 2276SOL     OW 9220   2.224   2.417   3.468 -0.4167  0.3934 -0.0817
 2276SOL    HW2 9221   2.197   2.428   3.560 -0.4665  1.1773 -0.1875
 2276SOL    HW3 9222   2.146   2.385   3.424 -0.0422 -1.1847  0.3934
 2276SOL    MW4 9223   2.210   2.415   3.475 -0.3736  0.2885 -0.0329
 2277SOL     OW 9224   1.802   1.870   3.352 -0.7666  0.1830 -0.0397
 2277SOL    HW2 9225   1.729   1.918   3.392  0.4939  0.4363  2.0043
 2277SOL    HW3 9226   1.878   1.927   3.362  0.2027 -1.0774 -0.0523
 2277SOL    MW4 9227   1.802   1.884   3.358 -0.4723  0.0501  0.2282
 2278SOL     OW 9228   2.645   1.912   3.826 -0.1212 -0.5688  0.1721
 2278SOL    HW2 9229   2.660   1.821   3.803  0.3251 -0.4705  0.0666
 2278SOL    HW3 9230   2.611   1.909   3.915 -0.6495 -0.8714 -0.0389
 2278SOL    MW4 9231   2.643   1.900   3.835 -0.1321 -0.5957  0.1302
 2279SOL     OW 9232   2.691   2.731   3.812  0.2875  0.0316 -0.5433
 2279SOL    HW2 9233   2.713   2.734   3.905 -0.9482  0.7458 -0.2711
 2279SOL    HW3 9234   2.683   2.637   3.793 -0.2489 -0.0901  0.2620
 2279SOL    MW4 9235   2.693   2.719   3.822  0.0539  0.1097 -0.4008
 2280SOL     OW 9236   1.616   2.018   3.478 -0.0888 -0.0255  0.4421
 2280SOL    HW2 9237   1.609   2.110   3.453  0.9475  0.0490  0.4124
 2280SOL    HW3 9238   1.613   2.019   3.574  1.7783  0.2244  0.5231
 2280SOL    MW4 9239   1.615   2.030   3.488  0.2943  0.0172  0.4489
 2281SOL     OW 9240   1.995   2.821   3.755  0.6226  0.1923  0.3053
 2281SOL    HW2 9241   2.007   2.802   3.662  0.7309  0.2500  0.3071
 2281SOL    HW3 9242   1.928   2.758   3.784  0.9266 -0.1417  0.2941
 2281SOL    MW4 9243   1.988   2.810   3.746  0.6771  0.1559  0.3040
 2282SOL     OW 9244   4.016   1.251   4.099 -0.2192 -0.0711  0.0105
 2282SOL    HW2 9245   3.980   1.339   4.086  0.3334  0.2288  0.5191
 2282SOL    HW3 9246   3.955   1.209   4.159 -1.1400 -0.4512 -1.1503
 2282SOL    MW4 9247   4.003   1.257   4.105 -0.2675 -0.0817 -0.0753
 2283SOL     OW 9248   0.921   1.847   4.153  0.2232  0.0321 -0.2375
 2283SOL    HW2 9249   1.014   1.852   4.173  0.3154  0.3712 -0.7455
 2283SOL    HW3 9250   0.914   1.880   4.063 -0.5557  1.2996  0.2682
 2283SOL    MW4 9251   0.932   1.852   4.144  0.1326  0.2441 -0.2384
 2284SOL     OW 9252   2.279   3.632   4.420  0.2159 -0.6432 -0.1202
 2284SOL    HW2 9253   2.311   3.637   4.330 -0.8572 -1.4392 -0.5658
 2284SOL    HW3 9254   2.301   3.543   4.449  0.3570 -0.4667  0.3295
 2284SOL    MW4 9255   2.286   3.621   4.412  0.0932 -0.7250 -0.1192
 2285SOL     OW 9256   1.674   3.411   3.925 -0.2168 -0.2357  0.0412
 2285SOL    HW2 9257   1.765   3.408   3.955 -0.3253 -0.3527  0.3608
 2285SOL    HW3 9258   1.676   3.367   3.840  0.2393  0.8613 -0.5239
 2285SOL    MW4 9259   1.687   3.405   3.918 -0.1711 -0.1063  0.0086
 2286SOL     OW 9260   2.047   3.625   3.827  0.5927  0.2279 -0.1621
 2286SOL    HW2 9261   2.008   3.709   3.851  1.3753  0.1119  1.6334
 2286SOL    HW3 9262   2.038   3.620   3.732 -1.3827  1.3682 -0.0568
 2286SOL    MW4 9263   2.041   3.635   3.818  0.4354  0.3629  0.0887
 2287SOL     OW 9264   0.119   0.231   4.394 -0.2688 -0.4256  0.1267
 2287SOL    HW2 9265   0.083   0.143   4.403  1.6188 -1.2891 -0.5269
 2287SOL    HW3 9266   0.157   0.233   4.306 -0.3313  1.0572  0.1135
 2287SOL    MW4 9267   0.119   0.220   4.384 -0.0280 -0.3439  0.0381
 2288SOL     OW 9268   1.757   3.970   3.756  0.1295  0.0511 -0.1130
 2288SOL    HW2 9269   1.828   3.923   3.799  0.5558  1.9223  1.3086
 2288SOL    HW3 9270   1.677   3.934   3.794  0.3905 -0.5422 -0.1215
 2288SOL    MW4 9271   1.756   3.959   3.766  0.2202  0.2201  0.0734
 2289SOL     OW 9272   1.510   4.399   3.798  0.3226 -0.1731  0.5411
 2289SOL    HW2 9273   1.593   4.362   3.830  0.8178  0.2005 -0.2853
 2289SOL    HW3 9274   1.510   4.381   3.704 -0.8374 -0.7307  0.6459
 2289SOL    MW4 9275   1.521   4.392   3.790  0.2348 -0.1974  0.4458
 2290SOL     OW 9276   1.964   4.379   3.760 -0.3393 -0.1198 -0.1409
 2290SOL    HW2 9277   1.973   4.385   3.665  0.5625  1.3556  0.0256
 2290SOL    HW3 9278   2.040   4.329   3.789  0.7656  1.6479  0.0476
 2290SOL    MW4 9279   1.975   4.373   3.751 -0.0746  0.3076 -0.0942
 2291SOL     OW 9280   2.465   4.614   3.809 -0.0969  0.2469  0.3739
 2291SOL    HW2 9281   2.436   4.632   3.899 -0.9886  0.9772 -0.0560
 2291SOL    HW3 9282   2.543   4.669   3.798 -0.0464  0.2347  0.6689
 2291SOL    MW4 9283   2.471   4.624   3.820 -0.2077  0.3419  0.3564
 2292SOL     OW 9284   2.238   0.087   3.746  0.2285 -0.5837  0.0779
 2292SOL    HW2 9285   2.307   0.032   3.784  0.3018 -1.0913 -0.7786
 2292SOL    HW3 9286   2.255   0.085   3.652 -0.0798  0.4919 -0.0131
 2292SOL    MW4 9287   2.250   0.080   3.739  0.1974 -0.5087 -0.0470
 2293SOL     OW 9288   2.287   0.349   3.859  0.3089  0.4345 -0.2092
 2293SOL    HW2 9289   2.291   0.259   3.827 -0.5230  0.1792  0.3615
 2293SOL    HW3 9290   2.204   0.383   3.825  0.9193  1.2010 -0.9534
 2293SOL    MW4 9291   2.276   0.342   3.850  0.2797  0.5020 -0.2320
 2294SOL     OW 9292   2.478   0.505   3.723  0.4515  0.0258 -0.1279
 2294SOL    HW2 9293   2.408   0.457   3.767 -0.4030  0.8810 -0.5337
 2294SOL    HW3 9294   2.470   0.480   3.631  0.6051  0.2178 -0.1944
 2294SOL    MW4 9295   2.468   0.495   3.716  0.3591  0.1640 -0.1900
 2295SOL     OW 9296   2.500   0.751   3.856 -0.3453 -0.0419  0.0555
 2295SOL    HW2 9297   2.419   0.793   3.827 -0.8207 -0.8966  0.1228
 2295SOL    HW3 9298   2.490   0.659   3.829 -0.3908 -0.6513  2.0930
 2295SOL    MW4 9299   2.488   0.744   3.848 -0.4139 -0.2351  0.3333
 2296SOL     OW 9300   2.282   0.863   3.735  0.0467  0.0859 -0.0968
 2296SOL    HW2 9301   2.207   0.813   3.767  0.8615 -1.6409 -0.8002
 2296SOL    HW3 9302   2.287   0.841   3.641  1.4653  0.0975 -0.0422
 2296SOL    MW4 9303   2.273   0.853   3.727  0.3412 -0.1403 -0.1824
 2297SOL     OW 9304   3.812   1.673   4.658 -0.1709  0.4261  0.1242
 2297SOL    HW2 9305   3.870   1.601   4.683 -0.8983 -0.1013  0.2966
 2297SOL    HW3 9306   3.724   1.635   4.657 -0.4893  1.1483 -0.4162
 2297SOL    MW4 9307   3.808   1.659   4.661 -0.3090  0.4517  0.0758
 2298SOL     OW 9308   2.473   1.225   3.739  0.0460  0.5276  0.1421
 2298SOL    HW2 9309   2.405   1.173   3.780  1.3179 -1.2702  0.0449
 2298SOL    HW3 9310   2.555   1.192   3.777  0.9485  1.6920 -0.7323
 2298SOL    MW4 9311   2.475   1.214   3.749  0.3328  0.4442  0.0138
 2299SOL     OW 9312   1.789   2.366   3.758  0.2671  0.2188 -0.2056
 2299SOL    HW2 9313   1.706   2.345   3.803 -0.0396 -0.4700 -1.0918
 2299SOL    HW3 9314   1.854   2.312   3.803 -0.2003 -1.2026 -1.2156
 2299SOL    MW4 9315   1.786   2.356   3.770  0.1650 -0.0598 -0.4556
 2300SOL     OW 9316   1.786   1.646   3.761 -0.4696 -0.0698  0.2688
 2300SOL    HW2 9317   1.870   1.605   3.783 -1.2392 -1.4329  0.7284
 2300SOL    HW3 9318   1.786   1.728   3.810  0.6920  0.0554  0.0832
 2300SOL    MW4 9319   1.797   1.652   3.770 -0.4179 -0.2332  0.3049
 2301SOL     OW 9320   2.039   1.515   3.841  0.5223 -0.0780 -0.5697
 2301SOL    HW2 9321   2.105   1.559   3.787  0.4062 -0.7508 -1.2681
 2301SOL    HW3 9322   2.044   1.423   3.815  2.1268 -0.8321  2.3133
 2301SOL    MW4 9323   2.048   1.509   3.830  0.7186 -0.2663 -0.2813
 2302SOL     OW 9324   3.643   2.869   4.069 -0.2964 -0.0431 -0.5660
 2302SOL    HW2 9325   3.598   2.953   4.061  0.3828  0.4714  0.8560
 2302SOL    HW3 9326   3.639   2.831   3.981 -1.9311  0.7890 -0.8789
 2302SOL    MW4 9327   3.636   2.875   4.056 -0.4225  0.1345 -0.4196
 2303SOL     OW 9328   2.697   2.465   3.701 -0.0103  0.2415 -0.0601
 2303SOL    HW2 9329   2.769   2.415   3.739  0.2395  0.8549  0.2857
 2303SOL    HW3 9330   2.618   2.426   3.738  0.1864  0.1592  0.2738
 2303SOL    MW4 9331   2.696   2.453   3.711  0.0486  0.3114  0.0296
 2304SOL     OW 9332   0.790   3.533   4.118  0.4802 -0.0784  0.5198
 2304SOL    HW2 9333   0.830   3.511   4.034  0.2477  1.6056 -0.0662
 2304SOL    HW3 9334   0.722   3.467   4.131  1.4958 -1.2241  0.1134
 2304SOL    MW4 9335   0.787   3.522   4.109  0.5835 -0.0074  0.3891
 2305SOL     OW 9336   2.014   0.459   4.408 -0.3126  0.1683  0.0172
 2305SOL    HW2 9337   2.081   0.527   4.404  0.7094 -0.9003 -1.8524
 2305SOL    HW3 9338   2.041   0.403   4.481  2.1835 -1.5630 -2.1316
 2305SOL    MW4 9339   2.027   0.461   4.417  0.1519 -0.2011 -0.5126
 2306SOL     OW 9340   3.026   1.513   4.665  0.1866 -0.1346 -0.3989
 2306SOL    HW2 9341   2.979   1.583   4.620 -1.8873 -1.0758  0.2512
 2306SOL    HW3 9342   2.992   1.432   4.627  0.8293 -0.8445  0.5159
 2306SOL    MW4 9343   3.015   1.512   4.654 -0.0019 -0.3525 -0.1922
 2307SOL     OW 9344   2.504   3.120   3.769 -0.2963  0.2785  0.0205
 2307SOL    HW2 9345   2.507   3.035   3.726 -1.4895  0.0129  0.4435
 2307SOL    HW3 9346   2.505   3.100   3.862  1.5963  0.8273  0.1505
 2307SOL    MW4 9347   2.505   3.106   3.775 -0.2038  0.3159  0.0932
 2308SOL     OW 9348   2.300   3.287   3.731 -0.0201 -0.1695 -0.1396
 2308SOL    HW2 9349   2.345   3.369   3.718  0.5797 -0.5023 -0.1591
 2308SOL    HW3 9350   2.369   3.221   3.739 -0.4005 -0.3601  2.1463
 2308SOL    MW4 9351   2.315   3.289   3.731  0.0091 -0.2389  0.1593
 2309SOL     OW 9352   2.305   3.662   3.920  0.0507  0.0805  0.9470
 2309SOL    HW2 9353   2.330   3.598   3.854 -0.1856  0.9604 -0.0158
 2309SOL    HW3 9354   2.210   3.673   3.909  0.4003  2.1288 -0.3199
 2309SOL    MW4 9355   2.295   3.655   3.910  0.0656  0.4671  0.6526
 2310SOL     OW 9356   2.436   3.536   3.702  0.1064 -0.2860  0.6946
 2310SOL    HW2 9357   2.524   3.544   3.737  0.3743 -0.1628  0.0063
 2310SOL    HW3 9358   2.444   3.561   3.610 -0.8000  0.5503  0.8229
 2310SOL    MW4 9359   2.449   3.540   3.694  0.0224 -0.1593  0.6208
 2311SOL     OW 9360   2.420   3.914   3.919  0.5090  0.4168  0.1297
 2311SOL    HW2 9361   2.487   3.915   3.850 -0.2124  0.3468 -0.5820
 2311SOL    HW3 9362   2.405   3.821   3.936 -0.3224  0.4030 -0.6257
 2311SOL    MW4 9363   2.427   3.902   3.912  0.3042  0.4060 -0.0641
 2312SOL     OW 9364   2.211   3.999   3.771  0.4716 -0.3659 -0.1093
 2312SOL    HW2 9365   2.289   3.960   3.811  0.5210 -0.5166 -0.3531
 2312SOL    HW3 9366   2.222   3.985   3.677  0.1395 -0.4086 -0.1430
 2312SOL    MW4 9367   2.223   3.992   3.764  0.4344 -0.3920 -0.1459
 2313SOL     OW 9368   2.210   4.276   3.804 -0.3868  0.4435 -0.1757
 2313SOL    HW2 9369   2.292   4.304   3.762 -0.2368  0.6968  0.2830
 2313SOL    HW3 9370   2.214   4.181   3.805  0.1508  0.4673  0.3299
 2313SOL    MW4 9371   2.222   4.267   3.799 -0.2959  0.4802 -0.0486
 2314SOL     OW 9372   2.441   4.363   3.709  0.0802  0.0838 -0.3186
 2314SOL    HW2 9373   2.509   4.312   3.752  0.2956 -0.7350 -1.6027
 2314SOL    HW3 9374   2.450   4.451   3.747  1.6173 -0.1046 -0.2001
 2314SOL    MW4 9375   2.451   4.368   3.719  0.3116 -0.0491 -0.4721
 2315SOL     OW 9376   2.933   4.420   3.719  0.1304  0.1435 -0.4219
 2315SOL    HW2 9377   3.005   4.371   3.759  1.2603  1.6733 -0.5452
 2315SOL    HW3 9378   2.923   4.497   3.775 -1.5809 -0.1587 -0.2700
 2315SOL    MW4 9379   2.941   4.424   3.732  0.0536  0.3057 -0.4182
 2316SOL     OW 9380   2.690   0.084   3.753  0.0948  0.0196  0.2865
 2316SOL    HW2 9381   2.762   0.039   3.796 -0.1163 -0.4464  0.1545
 2316SOL    HW3 9382   2.719   0.093   3.662  0.5060  0.9311  0.4941
 2316SOL    MW4 9383   2.704   0.080   3.746  0.1211  0.0784  0.2966
 2317SOL     OW 9384   2.702   0.362   3.807 -0.3669 -0.0488 -0.0353
 2317SOL    HW2 9385   2.698   0.275   3.767  2.4177  0.3234 -1.1775
 2317SOL    HW3 9386   2.626   0.408   3.771 -2.1638 -2.1297  0.9614
 2317SOL    MW4 9387   2.691   0.357   3.797 -0.2363 -0.2743 -0.0546
 2318SOL     OW 9388   2.943   0.497   3.787  0.2834  0.3898 -0.0005
 2318SOL    HW2 9389   2.992   0.437   3.844  0.5256  0.7814  0.2067
 2318SOL    HW3 9390   2.855   0.459   3.782  0.6987 -0.4955 -0.6411
 2318SOL    MW4 9391   2.938   0.484   3.794  0.3700  0.3246 -0.0579
 2319SOL     OW 9392   2.928   0.741   3.903 -0.1184 -0.1820  0.5742
 2319SOL    HW2 9393   2.995   0.790   3.856 -1.2195  0.1166 -0.7250
 2319SOL    HW3 9394   2.936   0.652   3.869 -0.8117  0.0005 -0.0870
 2319SOL    MW4 9395   2.938   0.736   3.892 -0.3552 -0.1186  0.3157
 2320SOL     OW 9396   2.735   0.840   3.746 -0.5561  0.2723  0.8270
 2320SOL    HW2 9397   2.790   0.787   3.805  0.8131  0.7671  0.0022
 2320SOL    HW3 9398   2.646   0.811   3.765  0.0825 -1.4771  1.2579
 2320SOL    MW4 9399   2.731   0.829   3.756 -0.2911  0.1068  0.7751
 2321SOL     OW 9400   2.249   1.110   3.889 -0.2430 -0.0565  0.2919
 2321SOL    HW2 9401   2.240   1.022   3.851  0.6810 -0.1521  0.2719
 2321SOL    HW3 9402   2.256   1.094   3.984 -0.8429  0.0577  0.3595
 2321SOL    MW4 9403   2.249   1.096   3.897 -0.2003 -0.0539  0.2983
 2322SOL     OW 9404   2.929   1.277   3.708  0.4431  0.2142 -0.2137
 2322SOL    HW2 9405   2.937   1.354   3.765 -0.7105  0.6596 -0.6384
 2322SOL    HW3 9406   2.855   1.228   3.743  0.1833  0.1190 -0.8881
 2322SOL    MW4 9407   2.920   1.281   3.720  0.2568  0.2604 -0.3591
 2323SOL     OW 9408   2.920   1.501   3.858 -0.1793 -0.4527 -0.1491
 2323SOL    HW2 9409   2.844   1.555   3.834 -0.0338 -0.0384  0.3132
 2323SOL    HW3 9410   2.996   1.554   3.834 -0.0332 -0.0969  1.0692
 2323SOL    MW4 9411   2.920   1.515   3.852 -0.1409 -0.3513  0.0725
 2324SOL     OW 9412   2.687   1.650   3.772  0.3518 -0.0814 -0.7274
 2324SOL    HW2 9413   2.704   1.666   3.679  0.8015  1.8955 -0.3310
 2324SOL    HW3 9414   2.612   1.590   3.772  1.2138 -1.1910 -2.3673
 2324SOL    MW4 9415   2.679   1.644   3.760  0.5250  0.0329 -0.8914
 2325SOL     OW 9416   2.181   3.130   4.812 -0.2687 -0.0551 -0.1338
 2325SOL    HW2 9417   2.170   3.205   4.754 -0.5146 -0.1207 -0.1743
 2325SOL    HW3 9418   2.097   3.122   4.857 -0.4387 -0.6439 -0.5368
 2325SOL    MW4 9419   2.168   3.139   4.810 -0.3235 -0.1414 -0.1926
 2326SOL     OW 9420   2.883   2.045   3.765 -0.0924  0.4501  0.1064
 2326SOL    HW2 9421   2.957   1.995   3.799 -0.3736  0.8416  1.3224
 2326SOL    HW3 9422   2.807   1.990   3.783 -0.0515 -0.2636 -1.7575
 2326SOL    MW4 9423   2.883   2.031   3.772 -0.1242  0.4075  0.0210
 2327SOL     OW 9424   2.907   2.325   3.827  0.0371 -0.1120  0.1523
 2327SOL    HW2 9425   2.925   2.326   3.921 -1.2159  1.5846  0.3862
 2327SOL    HW3 9426   2.890   2.233   3.807  0.4258 -0.4958  1.5633
 2327SOL    MW4 9427   2.907   2.313   3.837 -0.0770  0.0610  0.3695
 2328SOL     OW 9428   2.703   2.452   3.398 -0.0447 -0.2261  0.0388
 2328SOL    HW2 9429   2.783   2.406   3.376 -0.0135 -0.4231  0.5660
 2328SOL    HW3 9430   2.709   2.468   3.492  0.4515  1.8200 -0.3219
 2328SOL    MW4 9431   2.714   2.448   3.408  0.0246  0.0179  0.0608
 2329SOL     OW 9432   0.250   0.649   4.315 -0.1712  0.0895 -0.2031
 2329SOL    HW2 9433   0.200   0.618   4.390 -1.4663  0.1405 -1.0375
 2329SOL    HW3 9434   0.282   0.736   4.341 -2.4506  1.0529 -0.5065
 2329SOL    MW4 9435   0.248   0.657   4.328 -0.6428  0.2233 -0.3533
 2330SOL     OW 9436   2.935   2.864   3.685 -0.1779 -0.0769 -0.0273
 2330SOL    HW2 9437   2.934   2.953   3.720  0.0281 -0.0515 -0.0812
 2330SOL    HW3 9438   2.860   2.821   3.725 -0.4232  0.1948 -0.1921
 2330SOL    MW4 9439   2.925   2.870   3.694 -0.1831 -0.0377 -0.0560
 2331SOL     OW 9440   2.968   3.114   3.773 -0.0408 -0.1946  0.0622
 2331SOL    HW2 9441   3.045   3.160   3.740 -0.1107  1.6422  2.3683
 2331SOL    HW3 9442   2.896   3.176   3.762 -0.6745 -0.8439  0.4851
 2331SOL    MW4 9443   2.968   3.128   3.767 -0.1340 -0.0379  0.4225
 2332SOL     OW 9444   2.737   3.270   3.720  0.1395 -0.0043  0.4917
 2332SOL    HW2 9445   2.715   3.360   3.745  0.3646  0.1142  0.2637
 2332SOL    HW3 9446   2.656   3.221   3.736  0.3139  0.0428  1.5696
 2332SOL    MW4 9447   2.723   3.276   3.725  0.1924  0.0174  0.6039
 2333SOL     OW 9448   2.688   3.537   3.783 -0.0247 -0.3724  0.5256
 2333SOL    HW2 9449   2.694   3.532   3.879  0.3915  0.1835  0.5271
 2333SOL    HW3 9450   2.766   3.584   3.756 -1.1189  1.2361  0.0562
 2333SOL    MW4 9451   2.699   3.542   3.792 -0.1140 -0.0868  0.4642
 2334SOL     OW 9452   2.931   3.636   3.741 -0.0748 -0.1927 -0.0060
 2334SOL    HW2 9453   2.996   3.581   3.784  0.5293 -0.5033 -1.2798
 2334SOL    HW3 9454   2.947   3.623   3.647 -1.4786  0.3197 -0.3271
 2334SOL    MW4 9455   2.942   3.627   3.734 -0.1800 -0.1662 -0.2165
 2335SOL     OW 9456   2.907   3.891   3.833 -0.5405 -0.2969  0.2568
 2335SOL    HW2 9457   2.925   3.909   3.925  0.3376 -0.6306  0.1506
 2335SOL    HW3 9458   2.921   3.797   3.823 -2.5832 -0.6223  0.2167
 2335SOL    MW4 9459   2.911   3.881   3.844 -0.6940 -0.3839  0.2372
 2336SOL     OW 9460   2.637   3.979   3.753 -0.3924  0.0351 -0.4463
 2336SOL    HW2 9461   2.649   4.070   3.780 -2.6240  0.2058  0.0920
 2336SOL    HW3 9462   2.711   3.932   3.790  0.0807  1.4212  0.3853
 2336SOL    MW4 9463   2.648   3.985   3.761 -0.6244  0.2403 -0.2656
 2337SOL     OW 9464   2.710   4.253   3.810 -0.1196 -0.6696  0.0120
 2337SOL    HW2 9465   2.777   4.313   3.778 -1.4235  0.8047  0.0282
 2337SOL    HW3 9466   2.723   4.250   3.904  0.4008 -0.9818 -0.0657
 2337SOL    MW4 9467   2.720   4.260   3.818 -0.2232 -0.5164  0.0038
 2338SOL     OW 9468   3.147   4.283   3.845 -0.1896 -0.0183 -0.4241
 2338SOL    HW2 9469   3.149   4.193   3.811 -0.5408 -0.4667  0.7223
 2338SOL    HW3 9470   3.167   4.274   3.938  0.0214  1.1236 -0.3517
 2338SOL    MW4 9471   3.150   4.270   3.853 -0.2081  0.0730 -0.2635
 2339SOL     OW 9472   3.123   0.087   3.754 -0.2052 -0.2378  0.3655
 2339SOL    HW2 9473   3.208   0.052   3.781 -0.0130 -0.6396 -0.7366
 2339SOL    HW3 9474   3.129   0.095   3.659 -1.6885 -1.0604  0.1803
 2339SOL    MW4 9475   3.135   0.084   3.745 -0.3755 -0.3993  0.1960
 2340SOL     OW 9476   3.120   0.316   3.922 -0.0948  0.4087  0.4686
 2340SOL    HW2 9477   3.162   0.284   4.002  1.5712  0.8881 -0.2038
 2340SOL    HW3 9478   3.121   0.241   3.862 -0.9315  0.1879  0.7143
 2340SOL    MW4 9479   3.125   0.302   3.925  0.0145  0.4428  0.4122
 2341SOL     OW 9480   3.908   0.032   4.137 -0.4032 -0.0775  0.0165
 2341SOL    HW2 9481   3.876   0.016   4.048  0.7674 -0.3687 -0.3713
 2341SOL    HW3 9482   3.861   0.110   4.166 -0.9144 -0.0779 -0.8042
 2341SOL    MW4 9483   3.898   0.040   4.129 -0.3161 -0.1159 -0.1431
 2342SOL     OW 9484   3.328   0.462   3.794  0.0361  0.5966  0.0889
 2342SOL    HW2 9485   3.413   0.442   3.832 -0.3478  1.3627  1.3900
 2342SOL    HW3 9486   3.265   0.416   3.850 -0.4553  0.5687 -0.4727
 2342SOL    MW4 9487   3.331   0.453   3.806 -0.0794  0.6940  0.1864
 2343SOL     OW 9488   3.361   0.736   3.847 -0.2875  0.3366 -0.1053
 2343SOL    HW2 9489   3.371   0.728   3.941  2.0950 -0.4415 -0.4055
 2343SOL    HW3 9490   3.336   0.648   3.817  1.3413 -0.0017 -0.4804
 2343SOL    MW4 9491   3.359   0.724   3.855  0.2415  0.1893 -0.1945
 2344SOL     OW 9492   3.132   0.850   3.764 -0.7372 -0.4687  0.2407
 2344SOL    HW2 9493   3.215   0.817   3.797 -0.2167  0.5741  0.0014
 2344SOL    HW3 9494   3.140   0.846   3.669 -0.4968  0.7352  0.2006
 2344SOL    MW4 9495   3.144   0.845   3.756 -0.6368 -0.1724  0.2036
 2345SOL     OW 9496   3.140   1.125   3.817  0.1037 -0.1381  0.1706
 2345SOL    HW2 9497   3.124   1.031   3.812  0.1255 -0.0227 -3.5063
 2345SOL    HW3 9498   3.063   1.165   3.776  0.9926  1.3425 -0.1046
 2345SOL    MW4 9499   3.128   1.118   3.811  0.2239  0.0724 -0.3507
 2346SOL     OW 9500   3.563   1.061   3.837  0.0532 -0.1109 -0.3513
 2346SOL    HW2 9501   3.570   1.062   3.933  0.1486  1.4179 -0.3587
 2346SOL    HW3 9502   3.492   1.122   3.818  0.2187 -0.2014 -1.2801
 2346SOL    MW4 9503   3.554   1.069   3.847  0.0875  0.0788 -0.4747
 2347SOL     OW 9504   3.369   1.259   3.758 -0.5768 -0.4182  0.0939
 2347SOL    HW2 9505   3.296   1.210   3.795 -1.7353  0.5915 -0.8202
 2347SOL    HW3 9506   3.358   1.251   3.663  0.0513  0.4095 -0.0540
 2347SOL    MW4 9507   3.358   1.251   3.750 -0.6466 -0.1757 -0.0463
 2348SOL     OW 9508   3.132   1.663   3.782  0.0461 -0.5141  0.5213
 2348SOL    HW2 9509   3.140   1.751   3.818 -0.6005 -0.1461 -0.2198
 2348SOL    HW3 9510   3.145   1.674   3.688  0.5680 -1.3000  0.5015
 2348SOL    MW4 9511   3.134   1.676   3.774  0.0298 -0.5692  0.4208
 2349SOL     OW 9512   3.126   1.934   3.877  0.4383  0.6960  0.4621
 2349SOL    HW2 9513   3.202   1.988   3.857  0.0218  1.3069  0.5361
 2349SOL    HW3 9514   3.127   1.925   3.972  0.2527  0.9392  0.4857
 2349SOL    MW4 9515   3.136   1.940   3.887  0.3588  0.8087  0.4747
 2350SOL     OW 9516   3.338   2.065   3.753  0.5444  0.0752  0.1692
 2350SOL    HW2 9517   3.340   2.160   3.766 -2.5127  0.2202 -0.1123
 2350SOL    HW3 9518   3.318   2.054   3.660 -1.4563 -0.7993  0.6759
 2350SOL    MW4 9519   3.335   2.076   3.743 -0.1228 -0.0212  0.1988
 2351SOL     OW 9520   3.352   2.339   3.815 -0.2657  0.1651 -0.5046
 2351SOL    HW2 9521   3.282   2.394   3.778 -0.7326  0.1262  0.2939
 2351SOL    HW3 9522   3.332   2.336   3.909  0.2597 -0.6531 -0.4171
 2351SOL    MW4 9523   3.340   2.346   3.822 -0.2577  0.0520 -0.3877
 2352SOL     OW 9524   3.134   2.478   3.709  0.2764  0.3533  0.2783
 2352SOL    HW2 9525   3.058   2.449   3.760  1.9144 -1.1378  1.8967
 2352SOL    HW3 9526   3.135   2.573   3.721 -2.2424  0.6213 -1.0846
 2352SOL    MW4 9527   3.124   2.487   3.717  0.1600  0.1919  0.3121
 2353SOL     OW 9528   3.156   2.747   3.800  0.1879  0.0942  0.1332
 2353SOL    HW2 9529   3.080   2.794   3.766  0.2767 -0.4349 -0.8056
 2353SOL    HW3 9530   3.131   2.723   3.890 -0.9304 -0.4438 -0.3041
 2353SOL    MW4 9531   3.142   2.750   3.808  0.0520 -0.0465 -0.0484
 2354SOL     OW 9532   3.393   2.862   3.711 -0.4773  0.1088  0.0796
 2354SOL    HW2 9533   3.320   2.809   3.745 -0.0099 -0.0706  0.8101
 2354SOL    HW3 9534   3.377   2.867   3.617 -0.4945 -1.3697 -0.0033
 2354SOL    MW4 9535   3.381   2.856   3.703 -0.4179 -0.1099  0.1652
 2355SOL     OW 9536   3.377   3.144   3.800  0.1415  0.2296 -0.2330
 2355SOL    HW2 9537   3.360   3.052   3.777 -0.4417  0.3997 -0.5018
 2355SOL    HW3 9538   3.467   3.159   3.774 -0.1814  0.1145 -1.4695
 2355SOL    MW4 9539   3.386   3.134   3.794  0.0224  0.2367 -0.4318
 2356SOL     OW 9540   3.171   3.274   3.693  0.2399 -0.6657 -0.1866
 2356SOL    HW2 9541   3.254   3.239   3.727  0.1361 -1.8621 -1.1395
 2356SOL    HW3 9542   3.178   3.264   3.598 -0.8933 -0.5218 -0.2882
 2356SOL    MW4 9543   3.183   3.268   3.685  0.0765 -0.8047 -0.3254
 2357SOL     OW 9544   3.178   3.520   3.838 -0.4442  0.2917  0.0098
 2357SOL    HW2 9545   3.252   3.568   3.799 -0.6965  0.7267  0.0611
 2357SOL    HW3 9546   3.178   3.436   3.793  0.9358 -0.2442  0.9773
 2357SOL    MW4 9547   3.188   3.515   3.827 -0.2954  0.2782  0.1442
 2358SOL     OW 9548   3.412   3.642   3.735 -0.0673  0.1296 -0.3451
 2358SOL    HW2 9549   3.466   3.566   3.755  0.6157  0.3307 -1.3706
 2358SOL    HW3 9550   3.386   3.630   3.643 -0.0565  1.0583 -0.4746
 2358SOL    MW4 9551   3.416   3.631   3.725  0.0243  0.2787 -0.4976
 2359SOL     OW 9552   3.829   3.593   3.741 -0.5571 -0.2661  0.2476
 2359SOL    HW2 9553   3.908   3.545   3.767 -1.0884 -1.4647 -0.3400
 2359SOL    HW3 9554   3.846   3.683   3.769  0.8150 -0.6117  0.5650
 2359SOL    MW4 9555   3.841   3.598   3.748 -0.4463 -0.4697  0.2120
 2360SOL     OW 9556   3.150   4.019   3.757  0.6392  0.3428 -0.6835
 2360SOL    HW2 9557   3.219   3.975   3.807  1.5058 -0.1035 -2.2199
 2360SOL    HW3 9558   3.075   3.960   3.762  1.3681 -0.6817 -1.5960
 2360SOL    MW4 9559   3.150   4.005   3.764  0.8495  0.1483 -1.0066
 2361SOL     OW 9560   3.383   4.388   3.727 -0.3579  0.1562 -0.0713
 2361SOL    HW2 9561   3.307   4.356   3.776 -0.6138  1.3077  0.3060
 2361SOL    HW3 9562   3.399   4.475   3.763  1.8382 -0.5083  0.6531
 2361SOL    MW4 9563   3.375   4.395   3.738 -0.1018  0.2203  0.0739
 2362SOL     OW 9564   3.617   3.991   3.767  0.0476  0.2225  0.0632
 2362SOL    HW2 9565   3.528   3.961   3.787  0.3956 -0.5340  0.4778
 2362SOL    HW3 9566   3.614   4.086   3.779 -0.5911  0.1456  0.4963
 2362SOL    MW4 9567   3.605   3.999   3.771  0.0088  0.1123  0.1750
 2363SOL     OW 9568   0.188   3.383   4.580 -0.2359 -0.4910  0.1164
 2363SOL    HW2 9569   0.230   3.342   4.656 -0.8396 -0.2825  0.5629
 2363SOL    HW3 9570   0.155   3.309   4.529  1.3149 -0.6962 -0.6211
 2363SOL    MW4 9571   0.189   3.367   4.583 -0.1109 -0.4904  0.0782
 2364SOL     OW 9572   3.597   0.108   3.747 -0.1642  0.2309  0.1449
 2364SOL    HW2 9573   3.604   0.103   3.652 -0.9017 -0.0470  0.1041
 2364SOL    HW3 9574   3.670   0.054   3.779  0.1185  0.3701 -0.2619
 2364SOL    MW4 9575   3.607   0.100   3.739 -0.2241  0.2126  0.0858
 2365SOL     OW 9576   3.577   0.401   3.870 -0.2516  0.0852  0.1697
 2365SOL    HW2 9577   3.656   0.439   3.831 -1.8191  1.8036 -1.4273
 2365SOL    HW3 9578   3.578   0.309   3.842  0.5422  0.3998 -0.8683
 2365SOL    MW4 9579   3.588   0.394   3.861 -0.3536  0.3534 -0.1776
 2366SOL     OW 9580   3.838   0.524   3.745 -0.1076  0.1801  0.1928
 2366SOL    HW2 9581   3.920   0.484   3.776  0.4765  0.7786 -0.5463
 2366SOL    HW3 9582   3.839   0.612   3.782 -0.9493 -0.1617  1.0626
 2366SOL    MW4 9583   3.849   0.530   3.754 -0.1416  0.2140  0.2100
 2367SOL     OW 9584   3.863   0.713   4.141 -0.1664  0.2400 -0.1918
 2367SOL    HW2 9585   3.853   0.719   4.046 -0.1469 -0.0017 -0.2120
 2367SOL    HW3 9586   3.863   0.618   4.159  1.3390  0.2436 -0.1180
 2367SOL    MW4 9587   3.862   0.701   4.131  0.0348  0.2086 -0.1850
 2368SOL     OW 9588   3.581   0.823   3.710 -0.2493  0.3260  0.3180
 2368SOL    HW2 9589   3.503   0.789   3.755 -2.0607  0.2971 -2.6572
 2368SOL    HW3 9590   3.594   0.910   3.747 -0.8234 -0.2420  1.8806
 2368SOL    MW4 9591   3.572   0.830   3.721 -0.5643  0.2472  0.1318
 2369SOL     OW 9592   3.018   4.221   4.427  0.4304 -0.4262  0.5872
 2369SOL    HW2 9593   2.990   4.272   4.503 -0.8975  0.9496 -0.8013
 2369SOL    HW3 9594   2.996   4.131   4.449 -3.8612  0.4429  0.1446
 2369SOL    MW4 9595   3.012   4.216   4.440 -0.3109 -0.1297  0.3462
 2370SOL     OW 9596   3.784   1.229   3.724  0.4235  0.4378  0.5573
 2370SOL    HW2 9597   3.718   1.183   3.776  0.7961 -0.4362  0.2623
 2370SOL    HW3 9598   3.779   1.320   3.755 -0.8384  0.3616  0.6057
 2370SOL    MW4 9599   3.775   1.235   3.735  0.3061  0.3124  0.5248
 2371SOL     OW 9600   3.794   1.508   3.813 -0.0945  0.2154  0.5299
 2371SOL    HW2 9601   3.808   1.505   3.908  1.3606  0.6017  0.3459
 2371SOL    HW3 9602   3.711   1.554   3.803  0.8752  2.2658  1.5558
 2371SOL    MW4 9603   3.785   1.514   3.824  0.2253  0.5369  0.6409
 2372SOL     OW 9604   3.581   1.690   3.795  0.7672  0.4328  0.4266
 2372SOL    HW2 9605   3.495   1.652   3.814  0.1405  2.1224  1.0887
 2372SOL    HW3 9606   3.584   1.698   3.700  0.2221  0.3122  0.4011
 2372SOL    MW4 9607   3.570   1.686   3.785  0.6127  0.6399  0.5109
 2373SOL     OW 9608   3.572   1.968   3.874 -0.4440  0.1666 -0.4477
 2373SOL    HW2 9609   3.578   1.873   3.861 -0.4583 -0.3278  2.8169
 2373SOL    HW3 9610   3.493   1.994   3.826  1.0559 -0.9637 -3.6931
 2373SOL    MW4 9611   3.562   1.959   3.866 -0.2480 -0.0478 -0.4451
 2374SOL     OW 9612   3.785   2.071   3.729  0.3136  0.3053  0.8600
 2374SOL    HW2 9613   3.868   2.043   3.768  0.4467  0.3860  0.6368
 2374SOL    HW3 9614   3.718   2.028   3.782  0.4885  0.4985  1.2415
 2374SOL    MW4 9615   3.787   2.061   3.741  0.3538  0.3412  0.8805
 2375SOL     OW 9616   3.794   2.328   3.863  0.0163  0.3484 -0.2376
 2375SOL    HW2 9617   3.729   2.391   3.833 -0.4476  0.9870  1.9858
 2375SOL    HW3 9618   3.762   2.244   3.830 -1.5759  0.7516  0.2052
 2375SOL    MW4 9619   3.781   2.325   3.855 -0.2551  0.4859  0.1142
 2376SOL     OW 9620   3.582   2.477   3.756  0.0879  0.3402 -0.1183
 2376SOL    HW2 9621   3.504   2.426   3.779  0.6155 -0.1217  0.6787
 2376SOL    HW3 9622   3.607   2.445   3.669  0.2783 -0.6074  0.2767
 2376SOL    MW4 9623   3.575   2.466   3.748  0.1826  0.1543  0.0389
 2377SOL     OW 9624   3.631   2.756   3.806  0.0029 -0.1701  0.0616
 2377SOL    HW2 9625   3.540   2.779   3.785  0.1626 -0.6556 -1.1874
 2377SOL    HW3 9626   3.632   2.660   3.804  0.5684 -0.1604  0.0111
 2377SOL    MW4 9627   3.619   2.746   3.803  0.0985 -0.2329 -0.1099
 2378SOL     OW 9628   3.882   2.828   3.709  0.1175 -0.5325 -0.2414
 2378SOL    HW2 9629   3.941   2.759   3.739  1.5625  0.4218 -0.8421
 2378SOL    HW3 9630   3.798   2.806   3.749  1.2459 -1.0147  1.9440
 2378SOL    MW4 9631   3.879   2.816   3.718  0.4573 -0.4704 -0.0322
 2379SOL     OW 9632   3.885   3.084   3.856 -0.1855  0.2123  0.1291
 2379SOL    HW2 9633   3.795   3.113   3.844  0.2741  1.1370 -1.2078
 2379SOL    HW3 9634   3.894   3.010   3.796  0.4063  1.1480 -0.9581
 2379SOL    MW4 9635   3.874   3.078   3.847 -0.0467  0.4578 -0.1907
 2380SOL     OW 9636   3.644   3.208   3.787  0.0394 -0.2638 -0.5627
 2380SOL    HW2 9637   3.661   3.297   3.815  0.2182 -0.3059 -0.5330
 2380SOL    HW3 9638   3.628   3.214   3.693 -1.4014 -0.0125 -0.3123
 2380SOL    MW4 9639   3.644   3.220   3.778 -0.1271 -0.2363 -0.5257
 2381SOL     OW 9640   3.589   3.477   3.861  0.2788 -0.8083 -0.3362
 2381SOL    HW2 9641   3.660   3.521   3.814  0.4221 -0.3607  0.2921
 2381SOL    HW3 9642   3.612   3.486   3.953 -1.0360  0.1394 -0.0782
 2381SOL    MW4 9643   3.601   3.484   3.867  0.1245 -0.6242 -0.2189
 2382SOL     OW 9644   3.973   3.491   4.089  0.0269  0.0874 -0.0086
 2382SOL    HW2 9645   3.962   3.581   4.119  0.6290  0.4824 -0.9556
 2382SOL    HW3 9646   4.022   3.448   4.159 -0.5155  0.4079  0.5791
 2382SOL    MW4 9647   3.978   3.497   4.102  0.0348  0.1819 -0.0563
 2383SOL     OW 9648   3.868   3.846   3.861 -0.2707  0.1449  0.1699
 2383SOL    HW2 9649   3.788   3.894   3.839 -0.2126  0.3612  0.4210
 2383SOL    HW3 9650   3.933   3.878   3.799 -0.4610 -0.2720 -0.2488
 2383SOL    MW4 9651   3.866   3.857   3.850 -0.2880  0.1185  0.1476
 2384SOL     OW 9652   3.891   3.761   4.131  0.5032  0.5949  0.1663
 2384SOL    HW2 9653   3.880   3.770   4.036  0.0372  0.4502  0.2043
 2384SOL    HW3 9654   3.916   3.848   4.161  0.8524  0.5933 -0.1160
 2384SOL    MW4 9655   3.893   3.773   4.123  0.4883  0.5755  0.1340
 2385SOL     OW 9656   3.863   4.433   3.753 -0.3498 -0.4538 -0.1721
 2385SOL    HW2 9657   3.787   4.380   3.777 -0.6274 -0.4219 -0.9788
 2385SOL    HW3 9658   3.865   4.430   3.658  1.4636 -1.5810 -0.1223
 2385SOL    MW4 9659   3.853   4.426   3.744 -0.1471 -0.5984 -0.2718
 2386SOL     OW 9660   3.808   4.662   3.882 -0.1314 -0.0872  0.4759
 2386SOL    HW2 9661   3.886   4.705   3.845  0.4433  0.4387  2.2626
 2386SOL    HW3 9662   3.819   4.570   3.859  1.5800 -0.1987  1.6075
 2386SOL    MW4 9663   3.820   4.655   3.874  0.1700 -0.0326  0.8612
 2387SOL     OW 9664   4.271   4.637   3.865 -0.1273 -0.1581  0.1996
 2387SOL    HW2 9665   4.288   4.549   3.830 -1.0876 -0.6210  0.8835
 2387SOL    HW3 9666   4.333   4.693   3.818 -1.3219 -0.7717 -2.2102
 2387SOL    MW4 9667   4.281   4.633   3.854 -0.4110 -0.3004 -0.0281
 2388SOL     OW 9668   4.047   0.130   3.762 -0.1720  0.1486  0.1713
 2388SOL    HW2 9669   4.119   0.083   3.804  0.9162  0.6432 -1.1215
 2388SOL    HW3 9670   4.054   0.108   3.669 -2.5260 -0.9040  0.1908
 2388SOL    MW4 9671   4.057   0.121   3.755 -0.3390  0.0749  0.0033
 2389SOL     OW 9672   4.069   0.400   3.842 -0.2496 -0.0252  0.1517
 2389SOL    HW2 9673   4.085   0.387   3.935  0.9838 -0.6839 -0.1381
 2389SOL    HW3 9674   4.061   0.311   3.806 -0.9548  0.2280 -0.3268
 2389SOL    MW4 9675   4.070   0.386   3.849 -0.1798 -0.0787  0.0503
 2390SOL     OW 9676   4.294   0.530   3.752  0.6924 -0.4817  0.5928
 2390SOL    HW2 9677   4.215   0.481   3.775  0.2437 -0.1104 -0.1447
 2390SOL    HW3 9678   4.312   0.504   3.662 -1.1605  2.7786 -0.8144
 2390SOL    MW4 9679   4.286   0.520   3.743  0.3891 -0.0026  0.3097
 2391SOL     OW 9680   4.254   0.785   3.883  0.1447 -0.0154 -0.2106
 2391SOL    HW2 9681   4.173   0.820   3.848 -1.1928 -0.6336  2.1608
 2391SOL    HW3 9682   4.258   0.695   3.851  1.1331  0.7138 -2.2679
 2391SOL    MW4 9683   4.244   0.778   3.874  0.0987 -0.0008 -0.1695
 2392SOL     OW 9684   4.025   0.920   3.772  0.4932 -0.1325 -0.5158
 2392SOL    HW2 9685   4.071   1.003   3.787  2.6735 -1.1708 -1.4491
 2392SOL    HW3 9686   4.018   0.913   3.677 -2.0482  0.2149 -0.4040
 2392SOL    MW4 9687   4.030   0.930   3.762  0.4458 -0.2237 -0.6244
 2393SOL     OW 9688   4.034   1.192   3.814 -0.6204 -0.3320 -0.5545
 2393SOL    HW2 9689   3.949   1.183   3.772 -0.7159 -1.9053 -0.0720
 2393SOL    HW3 9690   4.014   1.208   3.906 -0.4569 -3.3325  0.0829
 2393SOL    MW4 9691   4.020   1.193   3.821 -0.6113 -0.9356 -0.4067
 2394SOL     OW 9692   4.282   1.314   3.779 -0.3690 -0.1132  0.0420
 2394SOL    HW2 9693   4.279   1.407   3.799 -1.2453 -0.3464  1.0564
 2394SOL    HW3 9694   4.194   1.282   3.801  0.5291 -1.5615  1.5979
 2394SOL    MW4 9695   4.270   1.322   3.784 -0.3657 -0.3351  0.3812
 2395SOL     OW 9696   4.258   1.587   3.867  0.1050 -0.0069  0.4172
 2395SOL    HW2 9697   4.176   1.618   3.828 -0.2758 -0.9334  0.4761
 2395SOL    HW3 9698   4.326   1.637   3.821 -0.4782  0.7044  0.3048
 2395SOL    MW4 9699   4.256   1.598   3.855 -0.0224 -0.0353  0.4101
 2396SOL     OW 9700   4.024   1.682   3.761  0.1021  0.0607  0.1768
 2396SOL    HW2 9701   3.997   1.772   3.779 -1.5873 -0.1952 -0.8781
 2396SOL    HW3 9702   3.951   1.628   3.792  1.4437 -1.0160  1.5319
 2396SOL    MW4 9703   4.011   1.686   3.767  0.0563 -0.1152  0.2162
 2397SOL     OW 9704   4.022   1.961   3.846 -0.3003  0.5944 -0.1536
 2397SOL    HW2 9705   4.017   1.958   3.942  0.2273 -0.9635 -0.1613
 2397SOL    HW3 9706   4.115   1.975   3.828 -0.2753  0.0369 -0.4503
 2397SOL    MW4 9707   4.034   1.962   3.856 -0.2275  0.3153 -0.1936
 2398SOL     OW 9708   4.294   1.988   3.800  0.1286  0.2936 -0.0704
 2398SOL    HW2 9709   4.306   2.079   3.827 -2.0131  0.3026  0.9257
 2398SOL    HW3 9710   4.276   1.993   3.706  1.1102  0.7922 -0.2374
 2398SOL    MW4 9711   4.293   2.001   3.791 -0.0248  0.3607  0.0389
 2399SOL     OW 9712   0.463   2.914   4.201 -0.2875 -0.0574  0.3207
 2399SOL    HW2 9713   0.474   2.831   4.155 -0.7558 -0.2415  0.5312
 2399SOL    HW3 9714   0.410   2.968   4.142 -0.8070 -0.2597  0.5924
 2399SOL    MW4 9715   0.457   2.910   4.187 -0.4179 -0.1082  0.3839
 2400SOL     OW 9716   4.044   2.365   3.757  0.3499 -0.3965 -0.3448
 2400SOL    HW2 9717   4.049   2.455   3.789  1.0074  0.0051 -1.5357
 2400SOL    HW3 9718   3.961   2.331   3.791  0.2156  0.5762  0.3069
 2400SOL    MW4 9719   4.034   2.372   3.766  0.4191 -0.2151 -0.4158
 2401SOL     OW 9720   4.090   2.639   3.815  0.4138 -0.2925  0.1149
 2401SOL    HW2 9721   4.090   2.663   3.908 -2.5259 -0.2556  0.1427
 2401SOL    HW3 9722   4.164   2.687   3.778  3.1196 -2.1231  2.8606
 2401SOL    MW4 9723   4.100   2.648   3.823  0.3819 -0.5293  0.4807
 2402SOL     OW 9724   4.323   2.800   3.734 -0.2651  0.0954  0.0066
 2402SOL    HW2 9725   4.338   2.890   3.763 -0.8465 -0.1876  1.2293
 2402SOL    HW3 9726   4.390   2.749   3.780  0.2683 -0.0681 -0.9268
 2402SOL    MW4 9727   4.334   2.805   3.744 -0.2713  0.0362  0.0443
 2403SOL     OW 9728   4.343   3.050   3.834 -0.1029 -0.0279 -0.6326
 2403SOL    HW2 9729   4.268   3.107   3.818 -0.6001 -0.4155  0.2601
 2403SOL    HW3 9730   4.416   3.091   3.787 -1.2305 -0.4903 -2.8418
 2403SOL    MW4 9731   4.343   3.063   3.826 -0.3176 -0.1402 -0.8061
 2404SOL     OW 9732   4.126   3.218   3.773 -0.4097  0.2491  0.1290
 2404SOL    HW2 9733   4.043   3.176   3.799 -0.8427  1.5018  0.7946
 2404SOL    HW3 9734   4.116   3.233   3.679 -1.1267  0.7844  0.2815
 2404SOL    MW4 9735   4.113   3.214   3.764 -0.5617  0.4854  0.2370
 2405SOL     OW 9736   4.077   3.482   3.816  0.1555 -0.2599  0.1978
 2405SOL    HW2 9737   4.120   3.397   3.809  1.1896  0.3105 -0.5988
 2405SOL    HW3 9738   4.060   3.493   3.909 -0.1495 -1.4101  0.2904
 2405SOL    MW4 9739   4.080   3.472   3.827  0.2518 -0.3362  0.1051
 2406SOL     OW 9740   4.292   3.607   3.706  0.2774 -0.0994  0.3918
 2406SOL    HW2 9741   4.218   3.557   3.738 -0.0702 -0.4267 -0.8911
 2406SOL    HW3 9742   4.369   3.567   3.747  0.0804 -2.1907 -1.2040
 2406SOL    MW4 9743   4.293   3.595   3.715  0.2055 -0.4187  0.0117
 2407SOL     OW 9744   4.480   3.995   3.699 -0.5002 -0.2052 -0.0836
 2407SOL    HW2 9745   4.553   3.937   3.721 -0.6055  0.2184  1.4498
 2407SOL    HW3 9746   4.403   3.949   3.730 -0.7671 -0.0604 -0.5222
 2407SOL    MW4 9747   4.480   3.981   3.706 -0.5493 -0.1299  0.0610
 2408SOL     OW 9748   4.075   4.264   3.797  0.0929  0.2618 -0.5004
 2408SOL    HW2 9749   4.075   4.261   3.893  0.3098 -0.1128 -0.5104
 2408SOL    HW3 9750   4.011   4.332   3.775 -0.9603 -0.5912 -0.1161
 2408SOL    MW4 9751   4.067   4.273   3.807 -0.0181  0.0997 -0.4508
 2409SOL     OW 9752   4.341   4.618   4.132 -0.2377  0.1695 -0.5873
 2409SOL    HW2 9753   4.325   4.613   4.038 -1.0146  0.1919 -0.4606
 2409SOL    HW3 9754   4.293   4.695   4.161 -1.3386 -0.7538  0.0908
 2409SOL    MW4 9755   4.333   4.628   4.123 -0.4854  0.0505 -0.4811
 2410SOL     OW 9756   3.894   4.426   4.186 -0.2040 -0.0698  0.1195
 2410SOL    HW2 9757   3.858   4.439   4.273 -2.9012  1.3379 -1.1202
 2410SOL    HW3 9758   3.906   4.515   4.151  1.2430 -0.6029 -0.7857
 2410SOL    MW4 9759   3.891   4.439   4.193 -0.3688  0.0453 -0.1640
 2411SOL     OW 9760   1.124   0.704   4.099  0.3056 -0.2930 -0.0691
 2411SOL    HW2 9761   1.114   0.794   4.129 -0.9175  0.0762 -1.5515
 2411SOL    HW3 9762   1.037   0.665   4.107  0.6275 -1.0797 -0.2722
 2411SOL    MW4 9763   1.111   0.710   4.104  0.1867 -0.3481 -0.2913
 2412SOL     OW 9764   0.312   2.063   4.297 -0.3776  0.1792  0.2175
 2412SOL    HW2 9765   0.259   1.984   4.301 -0.4203  0.2128  0.3109
 2412SOL    HW3 9766   0.320   2.092   4.388 -0.0363  0.0643  0.2251
 2412SOL    MW4 9767   0.306   2.056   4.309 -0.3382  0.1681  0.2303
 2413SOL     OW 9768   3.794   0.757   3.873  0.3771 -0.0462 -0.4657
 2413SOL    HW2 9769   3.712   0.769   3.825  1.8689 -2.6779 -3.9642
 2413SOL    HW3 9770   3.854   0.820   3.832  0.6605  0.4020  0.6385
 2413SOL    MW4 9771   3.791   0.767   3.861  0.6111 -0.3343 -0.7818
 2414SOL     OW 9772   3.636   4.280   3.814  0.1693  0.4577 -0.4905
 2414SOL    HW2 9773   3.544   4.299   3.792 -0.3575 -1.9853 -0.5343
 2414SOL    HW3 9774   3.637   4.271   3.909  0.5125  1.1704 -0.4233
 2414SOL    MW4 9775   3.624   4.282   3.823  0.1450  0.2294 -0.4873
 2415SOL     OW 9776   0.209   0.751   3.827 -0.6329 -0.3313 -0.1490
 2415SOL    HW2 9777   0.128   0.787   3.791 -0.8596  0.2421  0.9379
 2415SOL    HW3 9778   0.193   0.743   3.921  1.1446  1.3079  0.3175
 2415SOL    MW4 9779   0.196   0.754   3.834 -0.4283 -0.0393  0.0558
 2416SOL     OW 9780   1.528   1.651   4.071  0.1629  0.1625 -0.3026
 2416SOL    HW2 9781   1.564   1.618   4.153 -1.1059 -0.4673  0.0238
 2416SOL    HW3 9782   1.563   1.739   4.062  1.2564 -0.2075  0.3074
 2416SOL    MW4 9783   1.537   1.658   4.080  0.1397  0.0305 -0.1793
 2417SOL     OW 9784   1.875   2.540   4.768 -0.0219 -0.0188 -0.0353
 2417SOL    HW2 9785   1.812   2.470   4.787 -0.6419  0.3116 -0.8344
 2417SOL    HW3 9786   1.888   2.535   4.673  0.4568  0.5052  0.0039
 2417SOL    MW4 9787   1.868   2.530   4.758 -0.0405  0.0939 -0.1354
 2418SOL     OW 9788   2.880   1.710   4.553 -0.1415  0.0961  0.1978
 2418SOL    HW2 9789   2.873   1.791   4.602  0.1136  0.2096  0.0488
 2418SOL    HW3 9790   2.918   1.735   4.469  1.0937 -0.3360  0.6025
 2418SOL    MW4 9791   2.884   1.724   4.548  0.0553  0.0540  0.2313
 2419SOL     OW 9792   1.580   1.918   4.374  0.2535  0.5089 -0.0535
 2419SOL    HW2 9793   1.598   1.909   4.280 -0.5396 -0.4827 -0.1189
 2419SOL    HW3 9794   1.493   1.881   4.385  0.6129  0.0101  1.1833
 2419SOL    MW4 9795   1.571   1.912   4.363  0.1963  0.3122  0.1011
 2420SOL     OW 9796   3.859   1.921   4.513 -0.1785  0.5127 -0.3181
 2420SOL    HW2 9797   3.834   1.841   4.558  1.0673  0.0333 -0.4552
 2420SOL    HW3 9798   3.826   1.910   4.424  0.1616  0.0581 -0.3898
 2420SOL    MW4 9799   3.852   1.909   4.507  0.0305  0.3896 -0.3457
 2421SOL     OW 9800   0.467   0.067   4.663  0.1720 -0.2654  0.1166
 2421SOL    HW2 9801   0.549   0.077   4.616  0.2982 -1.5951  0.0384
 2421SOL    HW3 9802   0.447  -0.027   4.658 -1.7539  0.1624 -0.5549
 2421SOL    MW4 9803   0.475   0.056   4.656 -0.0654 -0.3843  0.0181
 2422SOL     OW 9804   4.257   2.018   4.281  0.4398 -0.2337  0.5988
 2422SOL    HW2 9805   4.320   1.954   4.249 -0.5540 -1.0330  0.2294
 2422SOL    HW3 9806   4.269   2.094   4.224  1.2465 -0.2822  0.6947
 2422SOL    MW4 9807   4.267   2.020   4.269  0.4148 -0.3452  0.5627
 2423SOL     OW 9808   3.795   1.217   4.522 -0.1269  0.0399  0.0633
 2423SOL    HW2 9809   3.811   1.145   4.583 -0.6504 -0.3468 -0.2515
 2423SOL    HW3 9810   3.806   1.178   4.435 -1.7085  0.0107 -0.1352
 2423SOL    MW4 9811   3.799   1.202   4.519 -0.4044 -0.0149 -0.0043
 2424SOL     OW 9812   2.503   0.722   4.142  0.0789 -0.8271 -0.0222
 2424SOL    HW2 9813   2.533   0.729   4.051  0.3612 -1.6172  0.0070
 2424SOL    HW3 9814   2.414   0.757   4.140  1.4957  3.0534  0.1941
 2424SOL    MW4 9815   2.495   0.727   4.129  0.3030 -0.4194  0.0105
 2425SOL     OW 9816   1.267   3.043   4.864 -0.3434  0.2052  0.0733
 2425SOL    HW2 9817   1.222   3.119   4.903 -0.6801 -0.2613  0.6017
 2425SOL    HW3 9818   1.221   3.028   4.782 -1.8306 -0.9083  1.0970
 2425SOL    MW4 9819   1.255   3.051   4.858 -0.5840 -0.0033  0.2780
 2426SOL     OW 9820   2.352   3.974   4.635  0.3939  0.2606 -0.0836
 2426SOL    HW2 9821   2.285   3.928   4.685 -1.2075  1.3101 -1.1969
 2426SOL    HW3 9822   2.406   3.905   4.597 -1.0526 -0.6534 -0.5075
 2426SOL    MW4 9823   2.350   3.959   4.637 -0.0083  0.2785 -0.2866
 2427SOL     OW 9824   3.645   3.807   4.271  0.4962  0.4606  0.0870
 2427SOL    HW2 9825   3.663   3.901   4.270 -0.0304  0.5559 -1.3539
 2427SOL    HW3 9826   3.718   3.768   4.223  0.4366  0.1806  0.2248
 2427SOL    MW4 9827   3.657   3.814   4.265  0.4191  0.4361 -0.0849
 2428SOL     OW 9828   0.967   1.393   4.637 -0.0010  0.4674  0.3959
 2428SOL    HW2 9829   0.899   1.340   4.678  0.0041 -1.3313 -1.8010
 2428SOL    HW3 9830   0.920   1.451   4.577  0.1003  2.1705  1.9072
 2428SOL    MW4 9831   0.952   1.394   4.635  0.0131  0.4548  0.3057
 2429SOL     OW 9832   0.110   2.960   4.689 -0.2767  0.2423  0.3114
 2429SOL    HW2 9833   0.138   3.033   4.634 -0.1936  0.6230  0.8577
 2429SOL    HW3 9834   0.190   2.912   4.709 -0.0470  1.1542  1.6165
 2429SOL    MW4 9835   0.124   2.963   4.685 -0.2354  0.4129  0.5550
 2430SOL     OW 9836   1.892   1.393   4.416 -0.8351  0.0686 -0.7546
 2430SOL    HW2 9837   1.819   1.454   4.404 -2.1753 -1.2834  0.4372
 2430SOL    HW3 9838   1.892   1.373   4.509  1.4774  0.5461 -0.6219
 2430SOL    MW4 9839   1.883   1.398   4.426 -0.7068 -0.0470 -0.5803
 2431SOL     OW 9840   1.744   3.965   4.318  0.2665  0.0508  0.1065
 2431SOL    HW2 9841   1.825   3.942   4.272  0.3623 -0.0114  0.3043
 2431SOL    HW3 9842   1.744   3.909   4.396 -0.6834 -0.9951 -0.6272
 2431SOL    MW4 9843   1.755   3.955   4.322  0.1537 -0.0951  0.0358
 2432SOL     OW 9844   4.327   2.996   4.100  0.7332  0.5039  0.2323
 2432SOL    HW2 9845   4.330   3.021   4.008  1.5859 -0.1723  0.0714
 2432SOL    HW3 9846   4.319   2.901   4.099  2.5569  0.3123  0.8433
 2432SOL    MW4 9847   4.326   2.987   4.088  1.0862  0.3893  0.2913
 2433SOL     OW 9848   2.983   3.951   4.478 -0.4203 -0.2325 -0.1542
 2433SOL    HW2 9849   2.996   3.896   4.400  1.7494  0.6464 -0.4228
 2433SOL    HW3 9850   2.892   3.934   4.504 -0.1620 -3.0153 -0.9497
 2433SOL    MW4 9851   2.973   3.941   4.471 -0.0999 -0.4838 -0.2947
 2434SOL     OW 9852   0.164   4.427   4.246  0.0164 -0.4331  0.0506
 2434SOL    HW2 9853   0.159   4.363   4.175  0.4790  0.5187 -0.8496
 2434SOL    HW3 9854   0.211   4.381   4.316  2.2397 -0.3916 -1.3651
 2434SOL    MW4 9855   0.170   4.413   4.246  0.3708 -0.3014 -0.2546
 2435SOL     OW 9856   2.342   3.535   4.158  0.1743  0.2753  0.3037
 2435SOL    HW2 9857   2.314   3.447   4.133 -2.4566  0.8883  0.8761
 2435SOL    HW3 9858   2.325   3.588   4.080  0.3395  0.5515  0.4559
 2435SOL    MW4 9859   2.336   3.530   4.145 -0.1509  0.3927  0.4001
 2436SOL     OW 9860   0.344   0.310   4.560  0.0125 -0.0629  0.2441
 2436SOL    HW2 9861   0.270   0.281   4.508 -0.3287 -0.2548  0.8290
 2436SOL    HW3 9862   0.379   0.229   4.598  0.4443  0.0410  0.0689
 2436SOL    MW4 9863   0.339   0.295   4.558  0.0245 -0.0745  0.2985
 2437SOL     OW 9864   2.948   4.366   4.208 -0.1561 -0.2876  0.3100
 2437SOL    HW2 9865   2.968   4.315   4.287  2.5731 -2.3554 -1.6006
 2437SOL    HW3 9866   2.880   4.316   4.164 -2.3650  1.3621  1.7460
 2437SOL    MW4 9867   2.942   4.353   4.213 -0.0875 -0.3424  0.2475
 2438SOL     OW 9868   3.184   0.497   4.218  0.4432  0.0533 -0.1673
 2438SOL    HW2 9869   3.200   0.405   4.200 -1.7753 -0.5392  0.7407
 2438SOL    HW3 9870   3.192   0.506   4.312 -1.5269  0.2944  0.0141
 2438SOL    MW4 9871   3.187   0.486   4.228 -0.1092  0.0069 -0.0234
 2439SOL     OW 9872   3.335   0.722   4.117 -0.5282 -0.0485  0.1691
 2439SOL    HW2 9873   3.294   0.640   4.146 -1.9178  0.7253  0.4293
 2439SOL    HW3 9874   3.408   0.734   4.177 -0.1421 -1.2456 -0.0474
 2439SOL    MW4 9875   3.339   0.713   4.129 -0.6609 -0.1043  0.1750
 2440SOL     OW 9876   0.645   3.918   4.341  0.4941 -0.0498 -0.0183
 2440SOL    HW2 9877   0.707   3.892   4.273 -0.2991  3.4950 -2.2078
 2440SOL    HW3 9878   0.566   3.867   4.322  1.6396 -2.2588  0.9147
 2440SOL    MW4 9879   0.643   3.907   4.329  0.5406  0.1264 -0.1841
 2441SOL     OW 9880   0.280   4.289   4.467 -0.0209  0.3512 -0.2284
 2441SOL    HW2 9881   0.366   4.256   4.439  0.0851  0.3522  0.0925
 2441SOL    HW3 9882   0.300   4.352   4.537 -0.2073  1.2810 -1.0048
 2441SOL    MW4 9883   0.294   4.293   4.473 -0.0314  0.4740 -0.2875
 2442SOL     OW 9884   4.300   2.278   3.844 -0.2299  0.2525 -0.0010
 2442SOL    HW2 9885   4.298   2.290   3.939  1.4604 -0.3483  0.1178
 2442SOL    HW3 9886   4.211   2.299   3.815 -0.2747  2.1736  1.5005
 2442SOL    MW4 9887   4.288   2.282   3.853 -0.0134  0.4268  0.2127
 2443SOL     OW 9888   1.773   0.091   4.630  0.2172 -0.0574  0.6343
 2443SOL    HW2 9889   1.795   0.036   4.555  0.1515  1.8045 -0.7943
 2443SOL    HW3 9890   1.686   0.062   4.656  0.2224 -0.6830 -0.0231
 2443SOL    MW4 9891   1.765   0.080   4.624  0.2091  0.1057  0.3586
 2444SOL     OW 9892   2.178   2.777   4.494 -0.0876 -0.2371  0.0206
 2444SOL    HW2 9893   2.085   2.794   4.507 -0.2017 -1.2231  0.5559
 2444SOL    HW3 9894   2.182   2.691   4.453  0.5498  0.2583 -0.9683
 2444SOL    MW4 9895   2.166   2.768   4.491 -0.0186 -0.3018 -0.0386
 2445SOL     OW 9896   2.120   4.313   4.081 -0.2680 -0.4875  0.3403
 2445SOL    HW2 9897   2.025   4.315   4.076 -0.1974  1.2513 -0.5286
 2445SOL    HW3 9898   2.149   4.322   3.990  0.7313 -1.8790  0.4943
 2445SOL    MW4 9899   2.111   4.314   4.068 -0.1268 -0.4416  0.2465
 2446SOL     OW 9900   2.475   2.824   4.197 -0.2895  0.1851  0.8603
 2446SOL    HW2 9901   2.455   2.857   4.285 -1.2097  0.6337  0.4905
 2446SOL    HW3 9902   2.563   2.786   4.205  0.4837  2.0595  1.4787
 2446SOL    MW4 9903   2.484   2.823   4.210 -0.3090  0.4919  0.8931
 2447SOL     OW 9904   0.028   2.370   4.188  0.3256 -0.1641 -0.0435
 2447SOL    HW2 9905   0.112   2.348   4.148  1.4353  1.4663  1.3188
 2447SOL    HW3 9906   0.044   2.361   4.282 -1.1259 -0.1402  0.2091
 2447SOL    MW4 9907   0.041   2.366   4.195  0.2805  0.0544  0.1698
 2448SOL     OW 9908   1.288   2.099   4.932 -0.1358 -0.5527  0.2840
 2448SOL    HW2 9909   1.310   2.051   5.012  0.6836  0.6068  0.7666
 2448SOL    HW3 9910   1.335   2.052   4.863  1.1187 -0.1550  0.8340
 2448SOL    MW4 9911   1.297   2.086   4.934  0.1378 -0.3474  0.4210
 2449SOL     OW 9912   1.403   2.377   4.786  0.0011  0.0158  0.1514
 2449SOL    HW2 9913   1.381   2.295   4.830 -0.0303  0.3654  0.7950
 2449SOL    HW3 9914   1.439   2.350   4.701 -0.2228 -0.6528  0.2668
 2449SOL    MW4 9915   1.405   2.363   4.780 -0.0327 -0.0265  0.2518
 2450SOL     OW 9916   1.118   2.740   4.762 -0.0966 -0.6318  0.1944
 2450SOL    HW2 9917   1.121   2.780   4.849 -0.3936 -0.4898  0.1402
 2450SOL    HW3 9918   1.141   2.811   4.702 -2.8868  0.0851 -0.0997
 2450SOL    MW4 9919   1.121   2.754   4.765 -0.5038 -0.5183  0.1488
 2451SOL     OW 9920   1.895   3.064   3.850  0.4889 -0.1036  0.0537
 2451SOL    HW2 9921   1.930   2.988   3.803 -1.4569 -0.1574 -1.3434
 2451SOL    HW3 9922   1.874   3.030   3.937  0.8926 -0.8269 -0.1252
 2451SOL    MW4 9923   1.897   3.049   3.856  0.2855 -0.2060 -0.1540
 2452SOL     OW 9924   0.904   3.286   4.443 -0.3870 -0.3027 -0.0705
 2452SOL    HW2 9925   0.945   3.362   4.403 -1.3909  0.2594 -0.0437
 2452SOL    HW3 9926   0.814   3.314   4.461 -0.7021 -1.4229  0.1246
 2452SOL    MW4 9927   0.897   3.299   4.440 -0.5611 -0.3765 -0.0415
 2453SOL     OW 9928   0.435   3.424   3.792 -0.1147 -0.6259  0.3115
 2453SOL    HW2 9929   0.479   3.353   3.746  1.4614  0.0439  0.7266
 2453SOL    HW3 9930   0.421   3.390   3.880 -0.0403 -0.6967  0.2960
 2453SOL    MW4 9931   0.439   3.411   3.798  0.1030 -0.5469  0.3643
 2454SOL     OW 9932   2.235   0.823   4.187  0.2791 -0.6094 -0.9972
 2454SOL    HW2 9933   2.258   0.916   4.190  0.0848 -0.5659 -0.8725
 2454SOL    HW3 9934   2.142   0.822   4.166  0.0322 -0.7501  0.0837
 2454SOL    MW4 9935   2.226   0.835   4.184  0.2210 -0.6222 -0.8383
 2455SOL     OW 9936   4.069   4.469   4.588  0.8500 -0.0537  0.2004
 2455SOL    HW2 9937   4.098   4.474   4.679  1.1367  0.0351  0.1072
 2455SOL    HW3 9938   4.131   4.409   4.546  0.5935 -0.2582  0.1119
 2455SOL    MW4 9939   4.081   4.462   4.594  0.8545 -0.0691  0.1764
 2456SOL     OW 9940   0.669   4.347   4.558  0.0757 -0.2200 -0.4051
 2456SOL    HW2 9941   0.718   4.292   4.619 -2.4296  0.5679  2.4113
 2456SOL    HW3 9942   0.617   4.285   4.507 -1.1381 -0.6549  1.3129
 2456SOL    MW4 9943   0.669   4.332   4.559 -0.4150 -0.1740  0.1931
 2457SOL     OW 9944   0.375   3.350   4.050  0.6628 -0.5449  0.3505
 2457SOL    HW2 9945   0.450   3.348   4.110  1.3932  1.7250 -0.4410
 2457SOL    HW3 9946   0.328   3.430   4.074  0.3161 -0.2346 -1.3064
 2457SOL    MW4 9947   0.379   3.361   4.061  0.7134 -0.2043  0.0277
 2458SOL     OW 9948   2.446   4.052   4.166  0.0824  0.2412 -0.0061
 2458SOL    HW2 9949   2.450   4.000   4.086  0.4026  0.5713 -0.2090
 2458SOL    HW3 9950   2.353   4.060   4.186 -0.0456  0.9246 -0.8513
 2458SOL    MW4 9951   2.434   4.046   4.158  0.1078  0.3748 -0.1440
 2459SOL     OW 9952   0.553   1.491   4.108  0.2202 -0.1423  0.0659
 2459SOL    HW2 9953   0.636   1.515   4.150 -0.7532  0.9959  1.3646
 2459SOL    HW3 9954   0.574   1.487   4.014  1.9568 -0.8188  0.4522
 2459SOL    MW4 9955   0.567   1.493   4.101  0.3209 -0.0814  0.2880
 2460SOL     OW 9956   0.696   0.110   4.486 -0.1903 -0.0826  0.1499
 2460SOL    HW2 9957   0.670   0.195   4.451 -1.1500 -0.0094  1.0169
 2460SOL    HW3 9958   0.792   0.114   4.489 -0.1655  0.4311 -1.1178
 2460SOL    MW4 9959   0.705   0.122   4.482 -0.3138 -0.0052  0.0973
 2461SOL     OW 9960   0.490   1.917   4.125 -0.4413 -0.1921 -0.3943
 2461SOL    HW2 9961   0.423   1.960   4.179  0.6303  0.0366  0.7941
 2461SOL    HW3 9962   0.463   1.933   4.035 -2.1566 -0.3856  0.0812
 2461SOL    MW4 9963   0.478   1.925   4.121 -0.5262 -0.1873 -0.1755
 2462SOL     OW 9964   1.923   0.805   4.087 -0.6074  0.0929 -0.1368
 2462SOL    HW2 9965   1.889   0.745   4.154 -0.8725 -0.1246 -0.4649
 2462SOL    HW3 9966   1.869   0.883   4.095  0.3246  0.6381  0.8983
 2462SOL    MW4 9967   1.911   0.807   4.097 -0.5193  0.1362 -0.0434
 2463SOL     OW 9968   1.636   1.083   4.805  0.3706 -0.1840 -0.0032
 2463SOL    HW2 9969   1.573   1.025   4.764 -0.3525  0.2882  0.4369
 2463SOL    HW3 9970   1.593   1.113   4.885  0.7051  1.0086 -0.2623
 2463SOL    MW4 9971   1.622   1.079   4.810  0.3194  0.0356  0.0205
 2464SOL     OW 9972   1.199   2.984   4.133  0.2617  0.1260  0.1259
 2464SOL    HW2 9973   1.138   3.057   4.129  0.2831  0.1138 -0.4213
 2464SOL    HW3 9974   1.197   2.957   4.225 -1.2170 -0.4315 -0.0490
 2464SOL    MW4 9975   1.190   2.990   4.145  0.0694  0.0510  0.0310
 2465SOL     OW 9976   1.829   1.095   4.089 -0.5382  0.0263 -0.3096
 2465SOL    HW2 9977   1.772   1.141   4.151 -0.5175  1.8917 -1.6433
 2465SOL    HW3 9978   1.918   1.125   4.112 -0.5355  0.7597 -1.2450
 2465SOL    MW4 9979   1.833   1.105   4.100 -0.5350  0.3693 -0.6089
 2466SOL     OW 9980   0.041   0.441   4.075 -0.1002 -0.1143  0.2717
 2466SOL    HW2 9981   0.076   0.529   4.061  0.6448 -0.2719  1.1138
 2466SOL    HW3 9982   0.042   0.401   3.987  1.2609  0.0980  0.1792
 2466SOL    MW4 9983   0.046   0.447   4.061  0.1777 -0.1071  0.3710
 2467SOL     OW 9984   0.785   2.074   4.643 -0.1825 -0.2071  0.4833
 2467SOL    HW2 9985   0.858   2.086   4.703 -0.3467  1.5618  0.3531
 2467SOL    HW3 9986   0.788   2.151   4.586  0.2816 -2.0890 -2.1120
 2467SOL    MW4 9987   0.795   2.086   4.643 -0.1429 -0.2217  0.1235
 2468SOL     OW 9988   0.432   4.446   4.658  0.0052 -0.2906  0.4426
 2468SOL    HW2 9989   0.515   4.414   4.621  0.7590  1.4986  0.5478
 2468SOL    HW3 9990   0.443   4.437   4.753  0.2304  0.2997  0.4736
 2468SOL    MW4 9991   0.444   4.441   4.666  0.1344  0.0229  0.4611
 2469SOL     OW 9992   0.043   3.645   4.521 -0.2887 -0.3367 -0.0581
 2469SOL    HW2 9993   0.090   3.564   4.543  0.5565  0.1391 -0.1105
 2469SOL    HW3 9994   0.005   3.628   4.435  0.6747 -0.3397 -0.4903
 2469SOL    MW4 9995   0.044   3.632   4.513 -0.0500 -0.2744 -0.1216
 2470SOL     OW 9996   1.341   1.886   3.807 -0.1990  0.0104 -0.2035
 2470SOL    HW2 9997   1.258   1.930   3.789 -0.2617 -0.0962 -0.1788
 2470SOL    HW3 9998   1.366   1.918   3.894 -0.6483 -0.6126  0.1574
 2470SOL    MW4 9999   1.333   1.896   3.816 -0.2667 -0.0857 -0.1526
 2471SOL     OW10000   0.814   1.583   4.212 -0.2914  0.0088 -0.7186
 2471SOL    HW210001   0.792   1.590   4.304  1.2605  0.1410 -0.3380
 2471SOL    HW310002   0.829   1.673   4.183 -0.3923 -0.0633 -1.0032
 2471SOL    MW410003   0.813   1.596   4.220 -0.1000  0.0167 -0.7052
 2472SOL     OW10004   2.629   2.690   4.463 -0.5513 -0.6912 -0.0244
 2472SOL    HW210005   2.576   2.611   4.455  0.8965 -1.6461 -0.4530
 2472SOL    HW310006   2.702   2.665   4.520  0.6392 -0.0603 -1.2220
 2472SOL    MW410007   2.632   2.677   4.470 -0.2034 -0.7343 -0.2389
 2473SOL     OW10008   0.255   4.655   4.079 -0.0646 -0.2340 -0.2744
 2473SOL    HW210009   0.226   4.587   4.140  0.8709  0.6086  1.1435
 2473SOL    HW310010   0.230   4.737   4.122 -0.9135  0.3480 -1.8257
 2473SOL    MW410011   0.248   4.657   4.093 -0.0532 -0.0458 -0.2923
 2474SOL     OW10012   3.390   4.381   4.530 -0.2180 -0.1453 -0.1038
 2474SOL    HW210013   3.357   4.309   4.476  2.5222 -2.2482  0.8922
 2474SOL    HW310014   3.321   4.398   4.593 -1.5625 -0.7713 -1.3828
 2474SOL    MW410015   3.377   4.374   4.531 -0.0339 -0.5050 -0.1411
 2475SOL     OW10016   1.396   2.610   4.121 -0.3178  0.1334  0.0886
 2475SOL    HW210017   1.314   2.659   4.113  0.4019  1.4509  0.7068
 2475SOL    HW310018   1.374   2.539   4.181 -1.3951 -0.3942 -0.8945
 2475SOL    MW410019   1.382   2.607   4.128 -0.3651  0.2377  0.0405
 2476SOL     OW10020   1.688   2.331   4.812  0.4188 -0.2412  0.2782
 2476SOL    HW210021   1.687   2.237   4.799  0.3970 -0.3203  0.8228
 2476SOL    HW310022   1.597   2.359   4.800  0.6954 -0.0667 -1.4246
 2476SOL    MW410023   1.676   2.322   4.809  0.4524 -0.2282  0.1249
 2477SOL     OW10024   3.839   1.624   4.333  0.2232 -0.4888  0.2625
 2477SOL    HW210025   3.816   1.631   4.425 -1.2887  0.2907 -0.1459
 2477SOL    HW310026   3.934   1.610   4.332  0.7264  2.5520  1.8223
 2477SOL    MW410027   3.848   1.623   4.345  0.0901  0.0153  0.4144
 2478SOL     OW10028   1.769   3.807   4.560  0.0755 -0.0434 -0.3463
 2478SOL    HW210029   1.852   3.762   4.547 -0.9547 -2.3135  0.7605
 2478SOL    HW310030   1.702   3.739   4.554 -1.6838  1.6302 -0.5354
 2478SOL    MW410031   1.771   3.792   4.557 -0.2927 -0.1221 -0.2251
 2479SOL     OW10032   2.204   2.442   3.758 -0.0651 -0.4235  0.5941
 2479SOL    HW210033   2.289   2.401   3.770 -0.7233 -2.0056  0.0864
 2479SOL    HW310034   2.216   2.533   3.784  2.0391 -0.3739 -0.4939
 2479SOL    MW410035   2.217   2.449   3.763  0.1256 -0.6256  0.3836
 2480SOL     OW10036   2.155   2.505   4.376 -0.2013  0.3525 -0.1774
 2480SOL    HW210037   2.071   2.478   4.413 -1.4862  2.1892 -1.6857
 2480SOL    HW310038   2.150   2.478   4.284  0.4295  1.4154 -0.5253
 2480SOL    MW410039   2.143   2.498   4.369 -0.2875  0.7348 -0.4230
 2481SOL     OW10040   1.516   3.887   4.199 -0.6195 -0.3547 -0.3705
 2481SOL    HW210041   1.461   3.934   4.261  0.4924  0.5469 -0.0415
 2481SOL    HW310042   1.606   3.901   4.231 -0.2285 -2.2341 -0.5924
 2481SOL    MW410043   1.521   3.895   4.211 -0.4212 -0.4838 -0.3562
 2482SOL     OW10044   1.174   4.615   4.118  0.1603 -0.2356 -0.6505
 2482SOL    HW210045   1.186   4.628   4.024  0.5350 -2.4495 -0.9396
 2482SOL    HW310046   1.172   4.520   4.129  0.2579 -0.0069  1.6018
 2482SOL    MW410047   1.175   4.604   4.107  0.2227 -0.4983 -0.3915
 2483SOL     OW10048   2.723   0.347   4.105 -0.1134 -0.5726 -0.1442
 2483SOL    HW210049   2.792   0.396   4.148 -0.1826 -1.3483  0.9011
 2483SOL    HW310050   2.735   0.362   4.012  0.8316  0.1165  0.0932
 2483SOL    MW410051   2.733   0.355   4.099  0.0024 -0.5840  0.0253
 2484SOL     OW10052   4.170   1.850   4.507  0.2651 -0.3074 -0.0371
 2484SOL    HW210053   4.202   1.925   4.458 -1.3530  0.8667  0.6560
 2484SOL    HW310054   4.084   1.877   4.539  0.8255 -1.4129  2.5336
 2484SOL    MW410055   4.163   1.863   4.505  0.1259 -0.2983  0.3934
 2485SOL     OW10056   2.595   3.581   4.262 -0.1001  0.5737  0.1624
 2485SOL    HW210057   2.607   3.676   4.263  1.9033  0.3505  1.2429
 2485SOL    HW310058   2.505   3.568   4.233  0.6275  2.6901 -3.2747
 2485SOL    MW410059   2.585   3.592   4.258  0.2604  0.8235 -0.1488
 2486SOL     OW10060   2.696   1.145   4.096  0.1264 -0.3977  0.3568
 2486SOL    HW210061   2.683   1.063   4.142 -0.1544 -0.0961  0.8209
 2486SOL    HW310062   2.760   1.192   4.149  2.0756 -1.2749 -1.1396
 2486SOL    MW410063   2.703   1.141   4.109  0.3467 -0.4737  0.2203
 2487SOL     OW10064   1.609   0.779   3.854 -0.0466 -0.0445  0.0272
 2487SOL    HW210065   1.674   0.821   3.798  0.2296 -0.3305  0.1314
 2487SOL    HW310066   1.525   0.814   3.824  0.1914  0.7235  0.2279
 2487SOL    MW410067   1.607   0.789   3.843  0.0212  0.0191  0.0675
 2488SOL     OW10068   4.134   3.664   4.473  0.2106  0.2150 -0.3334
 2488SOL    HW210069   4.047   3.625   4.471  0.5410 -0.5159 -0.6991
 2488SOL    HW310070   4.187   3.607   4.417  0.9162  0.6717 -0.1379
 2488SOL    MW410071   4.129   3.651   4.465  0.3471  0.1788 -0.3562
 2489SOL     OW10072   3.591   0.753   4.491 -0.0111 -0.2987  0.3713
 2489SOL    HW210073   3.562   0.836   4.527 -0.2594  0.0182 -0.5354
 2489SOL    HW310074   3.675   0.736   4.533 -0.7482 -0.4285  1.8208
 2489SOL    MW410075   3.598   0.761   4.501 -0.1414 -0.2739  0.4430
 2490SOL     OW10076   1.198   1.897   4.191  0.0589  0.2576  0.1446
 2490SOL    HW210077   1.277   1.924   4.143 -0.4200 -0.5022 -1.1078
 2490SOL    HW310078   1.225   1.898   4.283  1.3427  0.6298 -0.2143
 2490SOL    MW410079   1.212   1.901   4.196  0.1650  0.2065 -0.0677
 2491SOL     OW10080   3.377   3.558   4.491  0.0471  0.3839 -0.3033
 2491SOL    HW210081   3.317   3.619   4.532  0.4610  0.1920  0.6011
 2491SOL    HW310082   3.464   3.585   4.521  0.2199 -0.7409  0.2446
 2491SOL    MW410083   3.380   3.569   4.500  0.1245  0.2100 -0.1116
 2492SOL     OW10084   4.404   2.815   4.509 -0.0055  0.1064 -0.4486
 2492SOL    HW210085   4.448   2.862   4.579  0.3326 -0.7982 -0.0416
 2492SOL    HW310086   4.325   2.866   4.490 -0.8387 -0.3979  1.5760
 2492SOL    MW410087   4.399   2.828   4.515 -0.0715 -0.0796 -0.1278
 2493SOL     OW10088   3.669   2.622   4.560 -0.1987 -0.0727 -0.2260
 2493SOL    HW210089   3.751   2.670   4.555  0.1453 -0.1872  3.4240
 2493SOL    HW310090   3.604   2.687   4.584 -0.4886 -0.6720  0.6206
 2493SOL    MW410091   3.671   2.637   4.562 -0.1917 -0.1671  0.3676
 2494SOL     OW10092   0.825   1.617   4.490  0.7004 -0.2021  0.0539
 2494SOL    HW210093   0.883   1.693   4.480  1.6010 -1.1693 -2.3672
 2494SOL    HW310094   0.737   1.654   4.491  1.0971  0.8361 -1.7519
 2494SOL    MW410095   0.821   1.632   4.489  0.8716 -0.1928 -0.5040
 2495SOL     OW10096   1.413   2.005   4.038 -0.0000 -0.6105 -0.3605
 2495SOL    HW210097   1.411   2.096   4.068  0.9782 -0.6996 -0.0351
 2495SOL    HW310098   1.503   1.976   4.052 -0.1224 -1.4032 -1.1538
 2495SOL    MW410099   1.424   2.013   4.044  0.1128 -0.7265 -0.4230
 2496SOL     OW10100   1.974   0.742   4.602  0.0404 -0.2210 -0.1263
 2496SOL    HW210101   1.992   0.741   4.696  1.5343  1.1497 -0.3681
 2496SOL    HW310102   2.059   0.724   4.562  0.3471  3.4105 -1.2848
 2496SOL    MW410103   1.988   0.739   4.609  0.2780  0.4389 -0.3114
 2497SOL     OW10104   1.013   1.835   4.535 -0.2143 -0.4150  0.4774
 2497SOL    HW210105   0.944   1.901   4.540 -0.3148 -0.4249 -0.6273
 2497SOL    HW310106   1.094   1.885   4.542 -0.2807 -0.1223 -0.7912
 2497SOL    MW410107   1.015   1.850   4.536 -0.2364 -0.3778  0.1640
 2498SOL     OW10108   1.399   1.053   4.128 -0.0986  0.5158 -0.0791
 2498SOL    HW210109   1.366   1.075   4.041 -0.8317  0.0450  0.0777
 2498SOL    HW310110   1.438   0.966   4.119 -0.5765  0.2739  0.1614
 2498SOL    MW410111   1.400   1.045   4.115 -0.2583  0.4219 -0.0267
 2499SOL     OW10112   4.295   4.354   4.194 -0.4727 -0.0816  0.6359
 2499SOL    HW210113   4.294   4.450   4.192 -1.5707 -0.0673  1.4903
 2499SOL    HW310114   4.381   4.331   4.158 -0.7950  1.1703 -0.9732
 2499SOL    MW410115   4.306   4.364   4.189 -0.6599  0.0854  0.5360
 2500SOL     OW10116   1.054   3.239   4.145  0.0487 -0.3955 -0.0437
 2500SOL    HW210117   0.981   3.280   4.193  1.3404  0.6790  1.0546
 2500SOL    HW310118   1.113   3.312   4.126 -0.1624 -0.8974 -2.8244
 2500SOL    MW410119   1.052   3.254   4.149  0.1913 -0.3202 -0.2656
 2501SOL     OW10120   1.366   3.213   3.448  0.3813 -0.1478  0.1973
 2501SOL    HW210121   1.279   3.175   3.442  0.6238 -0.5774 -0.8098
 2501SOL    HW310122   1.382   3.222   3.542 -0.8329  0.1532  0.3858
 2501SOL    MW410123   1.357   3.209   3.460  0.2531 -0.1650  0.0889
 2502SOL     OW10124   4.312   3.806   4.652 -0.0482  0.0206  0.3337
 2502SOL    HW210125   4.249   3.751   4.607  0.8289  1.3535 -2.6723
 2502SOL    HW310126   4.397   3.762   4.639  0.4684  1.3611 -0.9540
 2502SOL    MW410127   4.315   3.793   4.644  0.1359  0.3734 -0.2332
 2503SOL     OW10128   3.014   2.139   4.821  0.2782 -0.5711 -0.4942
 2503SOL    HW210129   3.031   2.168   4.910 -0.6166  0.5333 -0.6729
 2503SOL    HW310130   3.083   2.181   4.769  0.5850 -0.9254 -0.3735
 2503SOL    MW410131   3.025   2.148   4.826  0.2007 -0.4718 -0.5016
 2504SOL     OW10132   3.285   2.822   4.412 -0.1254 -0.0796  0.1513
 2504SOL    HW210133   3.306   2.793   4.323  1.0961  0.0455  0.3871
 2504SOL    HW310134   3.244   2.907   4.401 -0.4283 -0.2884 -0.3246
 2504SOL    MW410135   3.283   2.829   4.399 -0.0043 -0.0906  0.1197
 2505SOL     OW10136   1.551   0.814   4.133 -0.4076  0.0817  0.5962
 2505SOL    HW210137   1.569   0.813   4.039  0.2580 -2.1358  0.7261
 2505SOL    HW310138   1.504   0.732   4.150 -1.7250  1.0842  1.9783
 2505SOL    MW410139   1.547   0.803   4.123 -0.4936 -0.0786  0.7963
 2506SOL     OW10140   4.384   1.267   4.429  0.1302  0.1265  0.3587
 2506SOL    HW210141   4.347   1.341   4.478 -1.2534 -0.2827 -0.0746
 2506SOL    HW310142   4.479   1.283   4.431 -0.1599  2.0265  0.0964
 2506SOL    MW410143   4.392   1.279   4.436 -0.0901  0.3232  0.2666
 2507SOL     OW10144   3.848   1.001   4.689  0.0946  0.4337 -0.7208
 2507SOL    HW210145   3.847   0.907   4.672 -2.5041  0.3719 -0.4111
 2507SOL    HW310146   3.941   1.022   4.702  0.5044 -2.5147  1.6130
 2507SOL    MW410147   3.861   0.992   4.688 -0.1943  0.0365 -0.3719
 2508SOL     OW10148   2.624   3.859   4.258  0.3589 -0.0520  0.3432
 2508SOL    HW210149   2.651   3.879   4.347 -0.4901  1.2824  0.3245
 2508SOL    HW310150   2.569   3.933   4.232  1.9172  0.3719 -1.8805
 2508SOL    MW410151   2.620   3.871   4.266  0.4525  0.1798  0.0477
 2509SOL     OW10152   0.712   0.786   4.547  0.1052 -0.4408  0.3039
 2509SOL    HW210153   0.653   0.716   4.517  0.2132 -0.4073  0.0143
 2509SOL    HW310154   0.791   0.775   4.495  0.8982 -1.3550  1.6588
 2509SOL    MW410155   0.714   0.775   4.536  0.2241 -0.5569  0.4444
 2510SOL     OW10156   1.906   0.976   4.465  0.0146 -0.0056  0.1304
 2510SOL    HW210157   1.830   0.948   4.415  0.7142  0.2177 -1.0805
 2510SOL    HW310158   1.934   0.897   4.512 -0.6583 -0.2159  0.1767
 2510SOL    MW410159   1.900   0.962   4.465  0.0181 -0.0038 -0.0229
 2511SOL     OW10160   1.165   0.858   4.516 -0.3655 -0.1947  0.3235
 2511SOL    HW210161   1.168   0.933   4.456 -0.5541  0.1764  0.7711
 2511SOL    HW310162   1.080   0.817   4.499 -0.7658  0.3797  0.8878
 2511SOL    MW410163   1.154   0.862   4.506 -0.4432 -0.0699  0.4568
 2512SOL     OW10164   4.392   0.406   4.473  0.4717 -0.2930 -0.2048
 2512SOL    HW210165   4.453   0.472   4.504  1.0195 -0.8612 -0.0571
 2512SOL    HW310166   4.447   0.339   4.433 -0.1167 -0.3627 -0.9229
 2512SOL    MW410167   4.407   0.406   4.472  0.4668 -0.3771 -0.2799
 2513SOL     OW10168   2.840   1.969   4.674  0.2190  0.0762  0.2974
 2513SOL    HW210169   2.888   2.011   4.745 -0.2457 -1.4869  1.5717
 2513SOL    HW310170   2.748   1.990   4.692  0.1553  0.3302 -0.3005
 2513SOL    MW410171   2.834   1.977   4.686  0.1493 -0.0964  0.3867
 2514SOL     OW10172   0.865   3.022   4.348  0.4111 -0.3742  0.7698
 2514SOL    HW210173   0.949   2.976   4.347  0.8290  0.4020 -0.6591
 2514SOL    HW310174   0.887   3.112   4.370  0.2170  0.2925 -1.6390
 2514SOL    MW410175   0.879   3.028   4.351  0.4407 -0.1836  0.2637
 2515SOL     OW10176   2.884   0.737   4.185  0.0850  0.2891 -0.8268
 2515SOL    HW210177   2.864   0.726   4.092  0.7205  1.8104 -1.1561
 2515SOL    HW310178   2.965   0.788   4.186 -0.2144  0.7477  0.5813
 2515SOL    MW410179   2.892   0.742   4.172  0.1295  0.5503 -0.6847
 2516SOL     OW10180   0.679   3.049   4.139 -0.2656 -0.1070  0.1171
 2516SOL    HW210181   0.603   3.002   4.174  0.0656  0.6715  1.9337
 2516SOL    HW310182   0.748   3.031   4.202  0.2494  1.6368  0.0528
 2516SOL    MW410183   0.678   3.040   4.151 -0.1540  0.2258  0.3481
 2517SOL     OW10184   1.635   2.083   4.608  0.6665 -0.4097 -0.0565
 2517SOL    HW210185   1.633   2.019   4.538  0.8282 -0.4633 -0.0108
 2517SOL    HW310186   1.581   2.156   4.576 -0.6178 -1.1240  0.4373
 2517SOL    MW410187   1.628   2.084   4.595  0.5184 -0.5109  0.0143
 2518SOL     OW10188   1.552   2.288   3.358 -0.1291 -0.1170  0.2531
 2518SOL    HW210189   1.624   2.337   3.398  0.6908 -1.1372  0.0731
 2518SOL    HW310190   1.473   2.332   3.388  0.5498  0.5134  1.1448
 2518SOL    MW410191   1.551   2.300   3.367  0.0687 -0.1681  0.3471
 2519SOL     OW10192   4.116   1.621   4.342  0.1319  0.3366  0.6219
 2519SOL    HW210193   4.135   1.693   4.401 -4.2876  2.0277  0.1645
 2519SOL    HW310194   4.173   1.636   4.266  1.5025  1.5536  1.8697
 2519SOL    MW410195   4.126   1.632   4.339 -0.2704  0.7204  0.7257
 2520SOL     OW10196   1.131   2.679   4.062 -0.1610  0.4249 -0.0651
 2520SOL    HW210197   1.075   2.686   4.139  1.5692  0.2851  1.2571
 2520SOL    HW310198   1.107   2.754   4.007 -1.3345  0.5987  0.6754
 2520SOL    MW410199   1.121   2.690   4.065 -0.0875  0.4294  0.2069
 2521SOL     OW10200   0.096   2.626   4.113 -0.2286  0.2050  0.4513
 2521SOL    HW210201   0.084   2.542   4.158 -2.5318 -0.6591 -1.7074
 2521SOL    HW310202   0.134   2.683   4.180  0.8772 -2.3791  2.1116
 2521SOL    MW410203   0.100   2.622   4.128 -0.3866 -0.2499  0.3858
 2522SOL     OW10204   3.938   1.380   4.690 -0.1968 -0.7253  0.0486
 2522SOL    HW210205   3.885   1.336   4.624  0.4270 -0.3286 -0.7126
 2522SOL    HW310206   3.981   1.309   4.737  0.5997 -0.9456 -1.0022
 2522SOL    MW410207   3.937   1.365   4.688 -0.0093 -0.7020 -0.1903
 2523SOL     OW10208   2.237   2.728   3.825 -0.1249 -0.0996  0.3228
 2523SOL    HW210209   2.239   2.714   3.920 -0.4148  1.5241  0.5728
 2523SOL    HW310210   2.151   2.764   3.807  0.0646 -0.0448 -0.5117
 2523SOL    MW410211   2.226   2.731   3.835 -0.1380  0.1216  0.2456
 2524SOL     OW10212   2.724   3.159   4.386  0.0567 -0.5408  0.1980
 2524SOL    HW210213   2.660   3.200   4.444  0.6359 -0.2381  0.6414
 2524SOL    HW310214   2.729   3.068   4.416 -0.0830 -0.5353  0.2364
 2524SOL    MW410215   2.716   3.152   4.398  0.1144 -0.5000  0.2618
 2525SOL     OW10216   1.731   4.237   3.852  0.0913  0.3047  0.3491
 2525SOL    HW210217   1.733   4.148   3.817  0.2565 -0.4034  2.1108
 2525SOL    HW310218   1.806   4.280   3.813 -1.2045  0.3323 -2.1849
 2525SOL    MW410219   1.741   4.231   3.843 -0.0579  0.2151  0.2470
 2526SOL     OW10220   2.728   0.088   4.236  0.5558  0.2586  0.6120
 2526SOL    HW210221   2.737   0.159   4.172 -0.4760 -2.0633 -2.2171
 2526SOL    HW310222   2.813   0.046   4.237 -0.7759 -2.8185 -3.1672
 2526SOL    MW410223   2.740   0.092   4.227  0.2441 -0.4537 -0.2599
 2527SOL     OW10224   1.090   2.187   4.735  0.2664 -0.1804  0.2482
 2527SOL    HW210225   1.107   2.281   4.727 -0.0115 -0.2135 -0.7936
 2527SOL    HW310226   1.148   2.159   4.806  0.0152  0.8562  0.8840
 2527SOL    MW410227   1.100   2.196   4.744  0.1966 -0.0479  0.1950
 2528SOL     OW10228   1.425   3.211   3.724 -0.7304  0.0076  0.2423
 2528SOL    HW210229   1.416   3.296   3.768 -1.6864  0.0780 -0.0731
 2528SOL    HW310230   1.372   3.152   3.776 -1.3597 -0.0455 -0.4457
 2528SOL    MW410231   1.417   3.215   3.737 -0.9395  0.0098  0.1101
 2529SOL     OW10232   2.379   2.978   4.462 -0.3056  0.2600  0.4527
 2529SOL    HW210233   2.312   2.912   4.476 -1.1160  1.4476  2.3064
 2529SOL    HW310234   2.405   3.006   4.549  0.4479  1.9469 -0.2781
 2529SOL    MW410235   2.373   2.973   4.475 -0.3133  0.6394  0.6013
 2530SOL     OW10236   4.071   3.181   4.631 -0.0404  0.9138 -0.4493
 2530SOL    HW210237   4.067   3.247   4.701 -1.3951  0.4883 -0.1019
 2530SOL    HW310238   3.989   3.194   4.582 -0.1944 -0.3452 -0.5216
 2530SOL    MW410239   4.059   3.192   4.634 -0.2398  0.6914 -0.4134
 2531SOL     OW10240   0.841   2.754   4.711 -0.0352  0.2866 -0.0872
 2531SOL    HW210241   0.932   2.723   4.723 -0.0971 -0.1781 -0.7514
 2531SOL    HW310242   0.850   2.839   4.668  0.1012  0.5793  0.5096
 2531SOL    MW410243   0.855   2.761   4.707 -0.0255  0.2639 -0.0963
 2532SOL     OW10244   3.236   2.366   4.073  0.0839 -0.0422 -0.1793
 2532SOL    HW210245   3.289   2.361   4.153 -1.2350  2.4894  0.8864
 2532SOL    HW310246   3.161   2.309   4.091  1.7660 -2.7211 -1.2528
 2532SOL    MW410247   3.233   2.358   4.086  0.1321 -0.0618 -0.1802
 2533SOL     OW10248   3.683   4.095   4.300  0.0542  0.0876  0.1796
 2533SOL    HW210249   3.675   4.164   4.233 -1.8888 -2.2385 -2.0693
 2533SOL    HW310250   3.776   4.071   4.298  0.5266  1.7770  0.1772
 2533SOL    MW410251   3.694   4.101   4.291 -0.1400  0.0038 -0.1178
 2534SOL     OW10252   1.995   3.698   4.398 -0.2954 -0.3092  0.1296
 2534SOL    HW210253   2.085   3.675   4.422 -0.1554 -0.2204 -0.3006
 2534SOL    HW310254   1.958   3.617   4.361 -0.9950 -0.8655  2.0208
 2534SOL    MW410255   2.002   3.684   4.396 -0.3691 -0.3710  0.3223
 2535SOL     OW10256   3.997   2.002   4.118 -0.3868 -0.0898 -0.4219
 2535SOL    HW210257   4.077   2.014   4.169 -0.3758  0.4373 -0.5558
 2535SOL    HW310258   3.961   2.091   4.109 -2.6833 -0.6591  2.3965
 2535SOL    MW410259   4.003   2.015   4.123 -0.6890 -0.0951 -0.0677
 2536SOL     OW10260   2.774   4.646   4.655 -0.5936 -0.0670 -0.0046
 2536SOL    HW210261   2.707   4.600   4.705 -0.2030 -1.2628 -0.5673
 2536SOL    HW310262   2.724   4.705   4.597 -1.0497  1.2873  1.6990
 2536SOL    MW410263   2.758   4.648   4.654 -0.6022 -0.0463  0.1464
 2537SOL     OW10264   2.455   1.502   3.817  0.1665 -0.2698  0.0625
 2537SOL    HW210265   2.460   1.486   3.911  1.6995 -0.0335  0.0261
 2537SOL    HW310266   2.455   1.415   3.778 -0.4097 -0.3663  0.2705
 2537SOL    MW410267   2.456   1.489   3.824  0.2928 -0.2512  0.0851
 2538SOL     OW10268   2.725   1.110   3.821  0.0114 -0.2746 -0.3555
 2538SOL    HW210269   2.717   1.117   3.916 -2.1457 -0.5479 -0.4762
 2538SOL    HW310270   2.720   1.016   3.804 -1.2287 -0.1441 -0.8229
 2538SOL    MW410271   2.723   1.098   3.831 -0.4365 -0.2935 -0.4332
 2539SOL     OW10272   4.323   2.708   4.160  0.0909 -0.1880 -0.1257
 2539SOL    HW210273   4.314   2.662   4.244  0.4467  1.8656  1.0545
 2539SOL    HW310274   4.409   2.683   4.128 -0.0319 -0.9542  0.1169
 2539SOL    MW410275   4.333   2.698   4.167  0.1216 -0.0179  0.0615
 2540SOL     OW10276   1.627   1.207   4.218  0.2433 -0.2020 -0.4083
 2540SOL    HW210277   1.595   1.206   4.308 -0.7944  0.4148 -0.7536
 2540SOL    HW310278   1.565   1.152   4.170  0.2282  0.2563 -0.9187
 2540SOL    MW410279   1.614   1.200   4.224  0.1043 -0.0602 -0.5207
 2541SOL     OW10280   2.280   3.261   4.149 -0.3664  0.0484 -0.1733
 2541SOL    HW210281   2.220   3.244   4.076 -0.1968  0.5755 -0.4376
 2541SOL    HW310282   2.358   3.209   4.128 -1.6210 -2.5494  1.3648
 2541SOL    MW410283   2.282   3.252   4.136 -0.5095 -0.2248 -0.0048
 2542SOL     OW10284   1.661   2.695   4.090 -0.3007 -0.2046  0.7185
 2542SOL    HW210285   1.653   2.790   4.084 -0.1575 -0.2512 -0.2107
 2542SOL    HW310286   1.572   2.663   4.103 -0.4776 -0.0238 -0.0606
 2542SOL    MW410287   1.648   2.703   4.091 -0.3052 -0.1872  0.4935
 2543SOL     OW10288   1.434   0.978   4.565  0.2040  0.5577  0.9568
 2543SOL    HW210289   1.347   0.967   4.526  1.0200  1.4018 -1.1722
 2543SOL    HW310290   1.478   0.895   4.547 -0.1194  0.1616  1.9627
 2543SOL    MW410291   1.428   0.966   4.557  0.2691  0.6168  0.8087
 2544SOL     OW10292   2.523   4.518   4.680 -0.0181 -0.1972  0.2344
 2544SOL    HW210293   2.463   4.542   4.609  0.9831  0.1314 -0.5032
 2544SOL    HW310294   2.508   4.425   4.693  0.7717 -0.5542 -1.3431
 2544SOL    MW410295   2.513   4.509   4.672  0.2182 -0.2012 -0.0710
 2545SOL     OW10296   3.427   4.503   4.097 -0.1036 -0.2563 -0.2394
 2545SOL    HW210297   3.355   4.441   4.106  0.6969 -1.0058  1.1962
 2545SOL    HW310298   3.444   4.534   4.186 -0.0472  1.5194 -0.8503
 2545SOL    MW410299   3.420   4.499   4.110  0.0095 -0.1211 -0.1307
 2546SOL     OW10300   3.406   3.246   4.484  0.3414  0.1901  0.3179
 2546SOL    HW210301   3.476   3.240   4.419  0.7527  0.1115  0.7560
 2546SOL    HW310302   3.394   3.340   4.497  1.4943  0.2122  1.4104
 2546SOL    MW410303   3.414   3.258   4.477  0.5476  0.1829  0.5202
 2547SOL     OW10304   2.006   3.899   4.192  0.2886 -0.5720  0.1458
 2547SOL    HW210305   2.057   3.975   4.219  0.4277 -0.3308 -0.7723
 2547SOL    HW310306   2.033   3.829   4.252  0.4894 -0.0208  0.7038
 2547SOL    MW410307   2.016   3.900   4.204  0.3333 -0.4675  0.0987
 2548SOL     OW10308   4.260   2.258   4.139  0.3619 -0.4857  0.3180
 2548SOL    HW210309   4.343   2.300   4.164 -0.6158  1.3163  0.5952
 2548SOL    HW310310   4.194   2.325   4.154 -1.0000 -1.4547 -1.2403
 2548SOL    MW410311   4.262   2.273   4.144  0.0529 -0.3757  0.1488
 2549SOL     OW10312   2.052   2.867   4.143  0.2477 -0.6391 -0.1530
 2549SOL    HW210313   1.978   2.830   4.190  0.4092 -1.5918 -0.6394
 2549SOL    HW310314   2.079   2.943   4.196  0.2821 -1.5532  1.1636
 2549SOL    MW410315   2.046   2.872   4.156  0.2732 -0.8857 -0.0439
 2550SOL     OW10316   3.212   1.566   4.399 -0.4267  0.0472 -0.0626
 2550SOL    HW210317   3.228   1.471   4.400  1.0346  0.2627 -0.7531
 2550SOL    HW310318   3.234   1.595   4.487 -0.1426 -0.1472 -0.0683
 2550SOL    MW410319   3.217   1.557   4.411 -0.1962  0.0501 -0.1545
 2551SOL     OW10320   2.513   3.723   4.606  0.1293  0.3710  0.3758
 2551SOL    HW210321   2.442   3.691   4.551  0.5080 -0.6107  0.4627
 2551SOL    HW310322   2.590   3.673   4.578  1.1267  2.3941 -0.7030
 2551SOL    MW410323   2.514   3.712   4.595  0.3109  0.5083  0.2451
 2552SOL     OW10324   3.169   2.642   4.093  0.5230 -0.2683  0.7035
 2552SOL    HW210325   3.198   2.553   4.076 -0.9385 -0.8818  1.3569
 2552SOL    HW310326   3.248   2.688   4.123  1.2769 -1.3390  0.3740
 2552SOL    MW410327   3.183   2.636   4.095  0.4299 -0.4909  0.7463
 2553SOL     OW10328   2.751   3.477   4.047  0.3062  0.2212 -0.0053
 2553SOL    HW210329   2.686   3.508   4.109 -0.4233 -0.6022 -0.3415
 2553SOL    HW310330   2.754   3.382   4.062  1.3547  0.2454 -0.0587
 2553SOL    MW410331   2.743   3.468   4.057  0.3483  0.1156 -0.0567
 2554SOL     OW10332   1.452   3.627   4.148 -0.2772 -0.3038 -0.0438
 2554SOL    HW210333   1.522   3.582   4.196 -0.6229 -0.7271  0.0678
 2554SOL    HW310334   1.468   3.720   4.163  0.9999 -0.3578 -1.0470
 2554SOL    MW410335   1.463   3.633   4.156 -0.1543 -0.3667 -0.1612
 2555SOL     OW10336   1.892   2.521   4.482 -0.1370 -0.1353  0.2476
 2555SOL    HW210337   1.817   2.466   4.460  0.2005 -0.7435  0.6068
 2555SOL    HW310338   1.897   2.584   4.410  0.8135 -1.9549 -1.3407
 2555SOL    MW410339   1.883   2.522   4.469  0.0328 -0.4556  0.0858
 2556SOL     OW10340   2.888   4.385   4.598  0.3103  0.2912 -0.1404
 2556SOL    HW210341   2.844   4.466   4.574  0.5930  0.6365  0.5070
 2556SOL    HW310342   2.818   4.326   4.624  0.1008  0.3082 -0.6601
 2556SOL    MW410343   2.873   4.388   4.598  0.3200  0.3395 -0.1235
 2557SOL     OW10344   2.980   4.633   4.185  0.4161 -0.0450  0.0898
 2557SOL    HW210345   3.040   4.661   4.254  0.9302 -0.8869 -0.0142
 2557SOL    HW310346   2.969   4.539   4.200  0.3560 -0.1857 -0.8384
 2557SOL    MW410347   2.987   4.624   4.196  0.4756 -0.1746 -0.0467
 2558SOL     OW10348   1.524   4.102   4.594  0.0622  0.3496 -0.1101
 2558SOL    HW210349   1.552   4.051   4.670  0.1940  1.2093  0.4328
 2558SOL    HW310350   1.606   4.134   4.556 -0.0170  0.1351 -0.4623
 2558SOL    MW410351   1.539   4.100   4.599  0.0693  0.4344 -0.0844
 2559SOL     OW10352   0.914   3.511   3.855  0.1182  0.2332 -0.6112
 2559SOL    HW210353   0.832   3.541   3.815  0.7621  0.6516 -1.6438
 2559SOL    HW310354   0.926   3.422   3.822 -1.1069 -0.7155  1.3989
 2559SOL    MW410355   0.905   3.503   3.845  0.0415  0.1633 -0.4821
 2560SOL     OW10356   0.718   0.053   4.217 -0.0742 -0.0204  0.1543
 2560SOL    HW210357   0.652   0.005   4.167  0.8391  0.7945 -1.8668
 2560SOL    HW310358   0.680   0.061   4.305 -1.8245 -1.2195 -0.4656
 2560SOL    MW410359   0.704   0.048   4.222 -0.1845 -0.0711 -0.1936
 2561SOL     OW10360   3.579   3.141   4.685 -0.0227  0.1232 -0.2999
 2561SOL    HW210361   3.666   3.168   4.658 -0.0181  0.5190  0.0969
 2561SOL    HW310362   3.520   3.182   4.622  0.0394  0.4123 -0.1749
 2561SOL    MW410363   3.582   3.150   4.673 -0.0141  0.2136 -0.2313
 2562SOL     OW10364   0.982   0.088   4.482  0.5137  0.1947 -0.3381
 2562SOL    HW210365   1.067   0.097   4.525  0.3466  2.3457 -0.4103
 2562SOL    HW310366   0.966  -0.007   4.480  2.1915 -0.1403  1.0427
 2562SOL    MW410367   0.991   0.076   4.487  0.7131  0.4343 -0.1655
 2563SOL     OW10368   1.970   3.869   3.919 -1.1216 -0.5257  1.0979
 2563SOL    HW210369   1.984   3.872   4.014  1.9868 -0.3877  0.6595
 2563SOL    HW310370   2.037   3.927   3.883 -0.8434 -2.3123 -1.3371
 2563SOL    MW410371   1.980   3.877   3.927 -0.6747 -0.7434  0.7188
 2564SOL     OW10372   4.452   2.066   4.472 -0.2668  0.3830  0.0304
 2564SOL    HW210373   4.384   2.069   4.405  0.5698  0.6274 -0.8125
 2564SOL    HW310374   4.485   2.155   4.476  1.8623 -0.3013 -1.4980
 2564SOL    MW410375   4.447   2.078   4.464  0.1245  0.3247 -0.2823
 2565SOL     OW10376   1.540   2.292   3.856 -0.2111 -0.2170 -0.4819
 2565SOL    HW210377   1.552   2.202   3.825  0.2762 -0.0484 -0.7850
 2565SOL    HW310378   1.482   2.283   3.932 -0.0539 -0.7991 -0.4247
 2565SOL    MW410379   1.534   2.279   3.862 -0.1260 -0.2716 -0.5143
 2566SOL     OW10380   4.335   1.587   4.146 -0.3022 -0.1587 -0.2480
 2566SOL    HW210381   4.307   1.499   4.168  0.9219 -0.9023 -1.5367
 2566SOL    HW310382   4.324   1.593   4.051  0.2825  0.8343 -0.2644
 2566SOL    MW410383   4.330   1.576   4.136 -0.0634 -0.1259 -0.4201
 2567SOL     OW10384   1.291   2.742   3.732 -0.3708  0.1559 -0.1264
 2567SOL    HW210385   1.323   2.653   3.748 -1.4546 -0.1286  0.4909
 2567SOL    HW310386   1.370   2.796   3.733  0.3358 -0.8419 -0.8876
 2567SOL    MW410387   1.306   2.737   3.734 -0.4206 -0.0131 -0.1454
 2568SOL     OW10388   3.208   0.234   4.156 -0.2034  0.3259  0.0492
 2568SOL    HW210389   3.302   0.223   4.171 -0.1266 -0.4646 -0.9616
 2568SOL    HW310390   3.167   0.169   4.215  0.0118 -1.2873 -1.5368
 2568SOL    MW410391   3.215   0.224   4.166 -0.1650  0.0088 -0.2933
 2569SOL     OW10392   3.210   3.165   4.160 -0.5849 -0.3259  0.0967
 2569SOL    HW210393   3.213   3.261   4.155  1.5441 -0.2762  1.7427
 2569SOL    HW310394   3.204   3.147   4.254  0.6065 -1.8293 -0.1088
 2569SOL    MW410395   3.209   3.175   4.172 -0.1469 -0.5178  0.2866
 2570SOL     OW10396   2.455   3.066   4.718 -0.0847 -0.0455 -0.1387
 2570SOL    HW210397   2.477   2.982   4.759 -0.6527 -0.2488 -0.2379
 2570SOL    HW310398   2.371   3.090   4.758 -0.2207  0.1783 -0.5584
 2570SOL    MW410399   2.447   3.058   4.729 -0.1776 -0.0427 -0.2074
 2571SOL     OW10400   2.060   4.593   4.123 -0.5689  0.1269 -0.3642
 2571SOL    HW210401   2.052   4.500   4.141 -0.6938  0.2664  0.3118
 2571SOL    HW310402   2.040   4.602   4.030 -1.6078 -0.3856 -0.1965
 2571SOL    MW410403   2.056   4.582   4.113 -0.7224  0.0777 -0.2527
 2572SOL     OW10404   0.007   4.634   4.385 -0.2787 -0.9968 -0.4662
 2572SOL    HW210405   0.066   4.559   4.383  0.1954 -0.6113 -1.0493
 2572SOL    HW310406  -0.035   4.635   4.299  0.3944 -0.0568 -0.7934
 2572SOL    MW410407   0.009   4.624   4.373 -0.1273 -0.8218 -0.5860
 2573SOL     OW10408   4.445   1.840   4.186 -0.8738  0.2924  0.1006
 2573SOL    HW210409   4.402   1.755   4.191 -0.0672 -0.1289 -0.1165
 2573SOL    HW310410   4.510   1.839   4.256 -0.4020  0.4698 -0.3330
 2573SOL    MW410411   4.448   1.829   4.196 -0.7048  0.2602  0.0148
 2574SOL     OW10412   0.766   2.604   4.471 -0.1143  0.1104 -0.6400
 2574SOL    HW210413   0.764   2.661   4.548  0.8241 -0.0081 -0.5229
 2574SOL    HW310414   0.840   2.636   4.420 -0.7871  0.2454 -1.5491
 2574SOL    MW410415   0.776   2.616   4.474 -0.0792  0.1130 -0.7443
 2575SOL     OW10416   1.555   0.693   4.592 -0.0503 -0.1622 -0.1761
 2575SOL    HW210417   1.610   0.649   4.655  0.2998 -0.7413 -0.8789
 2575SOL    HW310418   1.615   0.750   4.543 -0.2865  0.1399 -0.1181
 2575SOL    MW410419   1.570   0.695   4.594 -0.0354 -0.1988 -0.2608
 2576SOL     OW10420   1.528   0.166   4.130 -0.1682 -0.0276 -0.1061
 2576SOL    HW210421   1.457   0.227   4.145  0.2015  0.5357 -0.6384
 2576SOL    HW310422   1.523   0.104   4.204  0.2040  1.3474  1.0992
 2576SOL    MW410423   1.518   0.166   4.142 -0.0703  0.2282 -0.0176
 2577SOL     OW10424   1.999   0.304   4.658  0.1593 -0.6407  0.3725
 2577SOL    HW210425   1.968   0.214   4.645  0.2008 -0.7626  1.0726
 2577SOL    HW310426   1.920   0.357   4.656 -0.0417 -0.8830  1.5596
 2577SOL    MW410427   1.985   0.299   4.656  0.1383 -0.6887  0.6218
 2578SOL     OW10428   1.259   2.139   4.523 -0.5821  0.0569  0.2239
 2578SOL    HW210429   1.339   2.192   4.530 -1.1833  1.2457 -1.5647
 2578SOL    HW310430   1.209   2.160   4.602 -0.7306  2.0645 -0.3720
 2578SOL    MW410431   1.263   2.149   4.535 -0.6812  0.4787 -0.0911
 2579SOL     OW10432   2.448   0.136   4.711  0.2813 -0.2248  0.1639
 2579SOL    HW210433   2.501   0.163   4.636 -0.2913  0.8589  0.1440
 2579SOL    HW310434   2.477   0.047   4.730 -0.9035 -1.2729 -2.5700
 2579SOL    MW410435   2.458   0.128   4.704  0.0494 -0.2201 -0.1993
 2580SOL     OW10436   4.241   0.780   4.149 -0.6020  0.1153 -0.3620
 2580SOL    HW210437   4.252   0.688   4.172  2.0842  0.7220  1.0494
 2580SOL    HW310438   4.268   0.785   4.057  0.7533 -0.2879 -0.0062
 2580SOL    MW410439   4.246   0.769   4.140 -0.0691  0.1422 -0.1287
 2581SOL     OW10440   4.121   3.077   4.281 -0.4156  0.6754  0.3774
 2581SOL    HW210441   4.048   3.102   4.224 -0.1353  0.5502 -0.0423
 2581SOL    HW310442   4.191   3.052   4.220 -0.5413 -0.7053  0.7742
 2581SOL    MW410443   4.121   3.077   4.265 -0.3948  0.4768  0.3748
 2582SOL     OW10444   3.861   2.410   4.647 -0.6578 -0.4088  0.0458
 2582SOL    HW210445   3.782   2.464   4.652 -0.4900 -0.2328  0.7930
 2582SOL    HW310446   3.828   2.323   4.622 -0.8752  0.1389 -1.6437
 2582SOL    MW410447   3.846   2.406   4.644 -0.6645 -0.3133 -0.0782
 2583SOL     OW10448   0.132   1.864   4.397 -0.2747  0.1769 -0.4713
 2583SOL    HW210449   0.127   1.799   4.467 -0.7721 -0.1909 -0.8480
 2583SOL    HW310450   0.091   1.942   4.434  0.3469  0.2924 -0.0097
 2583SOL    MW410451   0.126   1.866   4.411 -0.2583  0.1436 -0.4601
 2584SOL     OW10452   0.067   2.332   4.446 -0.1121  0.4251 -0.2102
 2584SOL    HW210453   0.009   2.408   4.446  0.6355  1.0057 -1.4276
 2584SOL    HW310454   0.149   2.365   4.485  0.0803  0.1424 -0.3748
 2584SOL    MW410455   0.070   2.346   4.451  0.0119  0.4642 -0.3929
 2585SOL     OW10456   2.720   2.536   4.688  0.1365  0.4926 -0.1399
 2585SOL    HW210457   2.627   2.517   4.705  0.7485 -1.5445  1.1192
 2585SOL    HW310458   2.741   2.607   4.748 -0.0793 -0.4828  1.1200
 2585SOL    MW410459   2.710   2.543   4.698  0.1891  0.0954  0.1922
 2586SOL     OW10460   3.816   4.468   4.456 -0.1897 -0.3933 -0.0626
 2586SOL    HW210461   3.898   4.461   4.505 -0.8005 -0.2275  1.0095
 2586SOL    HW310462   3.763   4.394   4.486  0.0515 -1.2525 -1.7049
 2586SOL    MW410463   3.820   4.457   4.467 -0.2382 -0.4845 -0.1383
 2587SOL     OW10464   2.945   2.262   4.096 -0.0400  0.0027  0.5336
 2587SOL    HW210465   2.913   2.180   4.133  0.9691 -0.2387  0.8540
 2587SOL    HW310466   2.912   2.330   4.156 -1.2729 -0.1137  0.0144
 2587SOL    MW410467   2.936   2.260   4.109 -0.0694 -0.0446  0.5074
 2588SOL     OW10468   1.768   2.651   3.820  0.5718  0.2984 -0.2004
 2588SOL    HW210469   1.762   2.661   3.915  0.8119  0.4869 -0.2042
 2588SOL    HW310470   1.776   2.557   3.806 -0.6873  0.1626 -0.1026
 2588SOL    MW410471   1.768   2.640   3.831  0.4374  0.3049 -0.1876
 2589SOL     OW10472   2.673   0.903   4.239  0.0047  0.2303 -0.5553
 2589SOL    HW210473   2.753   0.852   4.237  0.5007  0.8132  2.0301
 2589SOL    HW310474   2.603   0.840   4.223  0.8673 -0.5938 -1.0883
 2589SOL    MW410475   2.674   0.888   4.237  0.1838  0.1985 -0.2847
 2590SOL     OW10476   1.305   1.876   4.441 -0.2656  0.0630 -0.0141
 2590SOL    HW210477   1.307   1.966   4.476  2.4951 -0.0286  0.1605
 2590SOL    HW310478   1.327   1.821   4.516 -0.1070 -0.6323 -0.5673
 2590SOL    MW410479   1.308   1.881   4.456  0.1197 -0.0408 -0.0634
 2591SOL     OW10480   2.194   4.352   4.457 -0.2528  0.2160 -0.1029
 2591SOL    HW210481   2.232   4.439   4.443 -0.1009  0.2068  0.2421
 2591SOL    HW310482   2.102   4.369   4.478 -0.0669  0.3410  0.6357
 2591SOL    MW410483   2.187   4.366   4.458 -0.2081  0.2313  0.0401
 2592SOL     OW10484   2.680   3.519   4.518  0.2317 -0.1665  0.0301
 2592SOL    HW210485   2.634   3.438   4.540 -0.2781  0.2363  0.4650
 2592SOL    HW310486   2.664   3.530   4.425  0.5085 -0.6993 -0.0818
 2592SOL    MW410487   2.672   3.510   4.509  0.2010 -0.1833  0.0725
 2593SOL     OW10488   2.593   2.160   4.444  0.0535  0.4624  0.3764
 2593SOL    HW210489   2.650   2.103   4.391  0.8955  2.5417 -1.0135
 2593SOL    HW310490   2.651   2.195   4.511  0.0958  1.4992 -0.1978
 2593SOL    MW410491   2.608   2.157   4.446  0.1700  0.8736  0.1173
 2594SOL     OW10492   2.756   2.710   4.103  0.1805  0.1894 -0.9999
 2594SOL    HW210493   2.767   2.623   4.140 -0.7776 -0.2415 -1.6927
 2594SOL    HW310494   2.820   2.764   4.148  1.5422 -1.1040 -1.3578
 2594SOL    MW410495   2.766   2.706   4.114  0.2337 -0.0381 -1.1387
 2595SOL     OW10496   2.971   3.032   4.044 -0.1955  0.0552  0.0538
 2595SOL    HW210497   3.034   3.098   4.072 -0.5908  0.8426 -0.8976
 2595SOL    HW310498   2.979   3.030   3.949 -1.4972  0.0482 -0.0666
 2595SOL    MW410499   2.981   3.040   4.035 -0.4194  0.1581 -0.0877
 2596SOL     OW10500   2.255   2.677   4.748 -0.4981 -0.3561  0.2004
 2596SOL    HW210501   2.183   2.673   4.810 -1.8634  0.5366 -1.2841
 2596SOL    HW310502   2.217   2.718   4.670  1.9950  1.6026 -0.0612
 2596SOL    MW410503   2.241   2.682   4.746 -0.3490  0.0200 -0.0300
 2597SOL     OW10504   0.642   3.363   4.465 -0.2107 -0.4013 -0.3553
 2597SOL    HW210505   0.601   3.280   4.491  0.9098  0.1040  3.3301
 2597SOL    HW310506   0.571   3.427   4.467  0.0367 -0.1514  2.8065
 2597SOL    MW410507   0.627   3.360   4.469 -0.0303 -0.3016  0.5479
 2598SOL     OW10508   1.815   0.605   4.286 -0.0348 -0.1871  0.3561
 2598SOL    HW210509   1.894   0.555   4.306  1.1509  1.1856 -0.8438
 2598SOL    HW310510   1.753   0.539   4.253  1.1134 -1.0447 -0.1258
 2598SOL    MW410511   1.817   0.590   4.284  0.2731 -0.1191  0.1335
 2599SOL     OW10512   1.704   4.246   4.371  0.3031 -0.0809  0.3830
 2599SOL    HW210513   1.741   4.161   4.350 -0.0828  0.1906 -1.4966
 2599SOL    HW310514   1.773   4.292   4.419  0.4253 -1.5154  1.6081
 2599SOL    MW410515   1.718   4.241   4.375  0.2685 -0.2341  0.2966
 2600SOL     OW10516   2.816   2.907   4.437  0.4930 -0.1629  0.1363
 2600SOL    HW210517   2.893   2.875   4.389 -1.0048 -1.1827 -1.6464
 2600SOL    HW310518   2.751   2.837   4.426 -1.0398  1.1542  0.7394
 2600SOL    MW410519   2.818   2.893   4.429  0.0930 -0.1235 -0.0191
 2601SOL     OW10520   0.490   2.629   4.527 -0.0865  0.1403  0.2213
 2601SOL    HW210521   0.454   2.541   4.536  0.7341 -0.1987  0.1934
 2601SOL    HW310522   0.579   2.616   4.493 -0.0625  0.9894 -0.0567
 2601SOL    MW410523   0.497   2.616   4.524  0.0249  0.2077  0.1807
 2602SOL     OW10524   3.441   3.570   4.197  0.2768 -0.2871  0.0957
 2602SOL    HW210525   3.439   3.572   4.293 -2.0410 -3.0464  0.1512
 2602SOL    HW310526   3.533   3.551   4.176  1.0044  1.2543  1.6934
 2602SOL    MW410527   3.453   3.568   4.207  0.0670 -0.4480  0.3138
 2603SOL     OW10528   2.718   0.876   4.512 -0.1471 -0.1371 -0.0305
 2603SOL    HW210529   2.662   0.940   4.557 -1.0884 -1.0901  0.1795
 2603SOL    HW310530   2.703   0.892   4.419 -0.4273 -0.0884  0.0230
 2603SOL    MW410531   2.708   0.886   4.505 -0.3083 -0.2564  0.0038
 2604SOL     OW10532   1.574   3.883   4.771  0.4326  0.0013 -0.1269
 2604SOL    HW210533   1.528   3.800   4.784  0.3400  0.1726  0.6692
 2604SOL    HW310534   1.646   3.862   4.710  1.5335 -1.0751  1.5039
 2604SOL    MW410535   1.578   3.869   4.764  0.5656 -0.1180  0.1931
 2605SOL     OW10536   3.208   0.560   4.482 -0.0719 -0.4809  0.4839
 2605SOL    HW210537   3.153   0.499   4.532 -0.2541  0.3346  1.2988
 2605SOL    HW310538   3.297   0.525   4.492 -0.3653 -1.5686 -0.4905
 2605SOL    MW410539   3.213   0.547   4.490 -0.1347 -0.5168  0.4630
 2606SOL     OW10540   0.682   2.275   4.267  0.0343  0.0474 -0.1467
 2606SOL    HW210541   0.675   2.182   4.245 -0.3669  0.4203 -1.5984
 2606SOL    HW310542   0.727   2.275   4.352 -1.5411 -1.5396  0.7371
 2606SOL    MW410543   0.687   2.263   4.275 -0.2265 -0.1128 -0.2213
 2607SOL     OW10544   0.083   4.256   4.055  0.0751 -0.3182  0.1837
 2607SOL    HW210545   0.082   4.165   4.085 -0.1625 -0.2856  0.2725
 2607SOL    HW310546   0.050   4.253   3.966 -0.9416 -0.1834  0.5520
 2607SOL    MW410547   0.079   4.244   4.047 -0.0904 -0.2956  0.2441
 2608SOL     OW10548   0.911   0.782   4.359  0.7168  0.1176 -0.2892
 2608SOL    HW210549   0.897   0.711   4.296 -0.6562  0.8891 -0.8720
 2608SOL    HW310550   0.945   0.854   4.307 -0.6101  0.8229 -0.1947
 2608SOL    MW410551   0.913   0.782   4.344  0.3605  0.3124 -0.3538
 2609SOL     OW10552   1.085   4.034   4.457 -0.0293 -0.0804 -0.4090
 2609SOL    HW210553   1.174   3.999   4.453  0.2696  0.6147 -0.0235
 2609SOL    HW310554   1.029   3.957   4.459  0.4997 -0.5204 -1.8766
 2609SOL    MW410555   1.089   4.020   4.457  0.0799 -0.0467 -0.5517
 2610SOL     OW10556   3.674   3.011   4.380 -0.2569  0.2977  0.2496
 2610SOL    HW210557   3.726   2.941   4.342  0.1677 -0.0358  1.4295
 2610SOL    HW310558   3.618   2.967   4.444  0.7623  1.1600  1.7650
 2610SOL    MW410559   3.673   2.996   4.383 -0.0665  0.3674  0.6051
 2611SOL     OW10560   3.156   0.064   4.381 -0.0794 -0.3645  0.2439
 2611SOL    HW210561   3.243   0.023   4.382 -0.4653 -1.2447 -0.6451
 2611SOL    HW310562   3.131   0.069   4.473 -0.3594 -2.9460  0.3645
 2611SOL    MW410563   3.164   0.059   4.393 -0.1671 -0.8212  0.1426
 2612SOL     OW10564   3.337   2.330   4.332  0.5937 -0.3133  0.7373
 2612SOL    HW210565   3.385   2.263   4.381 -1.3176 -0.4123  2.5366
 2612SOL    HW310566   3.394   2.407   4.333  2.8733 -1.8865 -1.4530
 2612SOL    MW410567   3.351   2.331   4.338  0.6423 -0.5338  0.6857
 2613SOL     OW10568   2.534   2.027   4.730  0.4234  0.1580  0.4440
 2613SOL    HW210569   2.500   2.098   4.675 -0.1999  0.4332  1.1844
 2613SOL    HW310570   2.497   2.044   4.816  1.9110  0.0839  1.1028
 2613SOL    MW410571   2.525   2.039   4.734  0.5374  0.1848  0.6289
 2614SOL     OW10572   3.487   0.351   4.162 -0.0584 -0.1597 -0.3055
 2614SOL    HW210573   3.502   0.406   4.085 -0.4086  1.0077  0.4318
 2614SOL    HW310574   3.483   0.414   4.235 -3.3669 -0.8958  0.2089
 2614SOL    MW410575   3.489   0.367   4.161 -0.5412 -0.1028 -0.1407
 2615SOL     OW10576   3.175   1.157   4.643 -0.3475  0.4008  0.4311
 2615SOL    HW210577   3.152   1.196   4.727  1.3815 -0.9294  1.5405
 2615SOL    HW310578   3.112   1.086   4.632  1.1040 -1.1355  1.8919
 2615SOL    MW410579   3.163   1.153   4.653  0.0722  0.0225  0.7701
 2616SOL     OW10580   2.960   3.531   4.495 -0.4965 -0.3440  0.1139
 2616SOL    HW210581   2.866   3.529   4.509 -0.4184  0.4101  0.7691
 2616SOL    HW310582   2.970   3.532   4.400 -1.1886  1.0993  0.0472
 2616SOL    MW410583   2.949   3.530   4.484 -0.5777 -0.0544  0.1912
 2617SOL     OW10584   3.603   0.785   4.222 -0.0888  0.5440 -0.3534
 2617SOL    HW210585   3.692   0.766   4.192  0.4647  1.7458  0.4427
 2617SOL    HW310586   3.608   0.775   4.317 -0.5104  1.6943 -0.1991
 2617SOL    MW410587   3.615   0.781   4.231 -0.0713  0.8544 -0.2279
 2618SOL     OW10588   2.643   4.202   4.574 -0.0493  0.0062 -0.3527
 2618SOL    HW210589   2.629   4.222   4.481  0.7351 -0.4830 -0.5785
 2618SOL    HW310590   2.556   4.208   4.613 -0.2114  1.3427 -0.9010
 2618SOL    MW410591   2.629   4.205   4.567  0.0329  0.1178 -0.4549
 2619SOL     OW10592   2.337   1.969   4.064 -0.5113  0.1340 -0.3743
 2619SOL    HW210593   2.297   2.008   4.142  0.6854  3.5974 -1.3956
 2619SOL    HW310594   2.422   1.937   4.094  0.5526  2.7466 -0.5169
 2619SOL    MW410595   2.343   1.970   4.078 -0.2131  0.9358 -0.5283
 2620SOL     OW10596   2.796   2.756   4.835  0.0364 -0.5331  0.3977
 2620SOL    HW210597   2.855   2.824   4.802  1.2411 -1.2313  1.1293
 2620SOL    HW310598   2.712   2.802   4.846  0.4388  0.4739 -0.5631
 2620SOL    MW410599   2.792   2.771   4.832  0.2482 -0.4923  0.3672
 2621SOL     OW10600   1.641   1.521   4.296 -0.0490  0.1220 -0.3438
 2621SOL    HW210601   1.591   1.497   4.375  0.0686 -0.9474 -0.5924
 2621SOL    HW310602   1.651   1.439   4.248 -1.4123  1.0133 -2.2366
 2621SOL    MW410603   1.635   1.507   4.300 -0.2134  0.0985 -0.6266
 2622SOL     OW10604   0.969   3.184   4.701  0.1339  0.2846 -0.3380
 2622SOL    HW210605   0.955   3.233   4.620  0.8168  0.7174 -0.1997
 2622SOL    HW310606   1.021   3.108   4.675 -0.5899 -0.1542 -0.4898
 2622SOL    MW410607   0.974   3.180   4.687  0.1284  0.2842 -0.3400
 2623SOL     OW10608   3.422   4.607   4.355  0.0067  0.0186  0.0127
 2623SOL    HW210609   3.423   4.535   4.418 -1.3348  0.9696  1.1616
 2623SOL    HW310610   3.501   4.657   4.373  0.2299 -0.3869  0.1464
 2623SOL    MW410611   3.432   4.604   4.366 -0.1407  0.0911  0.1822
 2624SOL     OW10612   3.696   3.474   4.116 -0.1174 -0.2596 -0.2631
 2624SOL    HW210613   3.791   3.478   4.109 -0.2223  1.2276 -1.0058
 2624SOL    HW310614   3.678   3.385   4.145  1.4822 -0.6316 -0.3644
 2624SOL    MW410615   3.706   3.463   4.119  0.0799 -0.1128 -0.3743
 2625SOL     OW10616   2.963   0.607   4.712  0.3724  0.2593  0.2157
 2625SOL    HW210617   2.970   0.702   4.720  0.8676  0.2333  0.0918
 2625SOL    HW310618   2.869   0.589   4.722  0.2543  0.7757  0.0638
 2625SOL    MW410619   2.951   0.617   4.714  0.4222  0.3240  0.1793
 2626SOL     OW10620   2.491   1.249   4.261  0.2231 -0.7179  0.0679
 2626SOL    HW210621   2.567   1.206   4.223 -0.0906 -1.2080 -0.0068
 2626SOL    HW310622   2.518   1.271   4.350  0.3022 -1.2728  0.1785
 2626SOL    MW410623   2.504   1.246   4.268  0.1924 -0.8558  0.0730
 2627SOL     OW10624   4.057   2.432   4.188  0.1587 -0.2951 -0.1249
 2627SOL    HW210625   4.001   2.357   4.166  0.0244 -0.8411  1.9494
 2627SOL    HW310626   4.050   2.439   4.284  0.3741  2.2189 -0.2749
 2627SOL    MW410627   4.048   2.423   4.198  0.1698 -0.0355  0.1292
 2628SOL     OW10628   2.027   2.702   4.916 -0.0405  0.1107 -0.5632
 2628SOL    HW210629   1.973   2.731   4.990  1.3594  0.3022  0.4129
 2628SOL    HW310630   1.971   2.644   4.866 -0.2907 -1.9325  1.9663
 2628SOL    MW410631   2.013   2.698   4.919  0.1111 -0.1335 -0.1006
 2629SOL     OW10632   1.824   4.604   4.409  0.0481 -0.1008  0.1572
 2629SOL    HW210633   1.878   4.651   4.345  0.0618  1.6473  1.4204
 2629SOL    HW310634   1.734   4.622   4.382  0.0554  0.5188  0.5339
 2629SOL    MW410635   1.819   4.613   4.397  0.0509  0.2117  0.3738
 2630SOL     OW10636   0.346   3.202   4.702 -0.5183  0.0361  0.3376
 2630SOL    HW210637   0.401   3.173   4.629  0.7641  0.3697  1.1605
 2630SOL    HW310638   0.366   3.141   4.773 -0.2476  0.9424  1.0429
 2630SOL    MW410639   0.356   3.190   4.702 -0.3134  0.1998  0.5393
 2631SOL     OW10640   3.880   0.444   4.565  0.0067  0.2319  0.2224
 2631SOL    HW210641   3.822   0.369   4.575  0.3391  0.0191  0.5677
 2631SOL    HW310642   3.968   0.407   4.565  0.1508  0.5770 -0.0611
 2631SOL    MW410643   3.884   0.429   4.566  0.0691  0.2493  0.2308
 2632SOL     OW10644   4.331   3.853   4.119  0.0511 -0.4322 -0.0407
 2632SOL    HW210645   4.251   3.863   4.170 -0.5780 -1.3595 -0.8023
 2632SOL    HW310646   4.309   3.888   4.032  1.1174  1.1797  0.3261
 2632SOL    MW410647   4.317   3.859   4.114  0.1087 -0.3419 -0.0925
 2633SOL     OW10648   1.303   0.624   4.481 -0.1475  0.0457  0.2457
 2633SOL    HW210649   1.244   0.697   4.499 -0.3897  0.2257 -1.1655
 2633SOL    HW310650   1.388   0.653   4.513 -0.2062  1.0300 -0.4801
 2633SOL    MW410651   1.306   0.638   4.487 -0.1872  0.1993 -0.0362
 2634SOL     OW10652   0.146   1.989   4.696  0.1156 -0.4200  0.1551
 2634SOL    HW210653   0.160   1.894   4.690 -0.1256 -0.4892  0.6018
 2634SOL    HW310654   0.061   2.003   4.655  0.6482 -0.2485 -0.8949
 2634SOL    MW410655   0.137   1.978   4.690  0.1541 -0.4064  0.0758
 2635SOL     OW10656   4.265   1.322   4.176  0.2394 -0.2270  0.6903
 2635SOL    HW210657   4.185   1.278   4.148  0.2534  0.0461  0.2017
 2635SOL    HW310658   4.290   1.278   4.257 -0.0869 -0.7004  0.5392
 2635SOL    MW410659   4.258   1.310   4.183  0.1979 -0.2534  0.6061
 2636SOL     OW10660   3.310   2.571   4.739 -0.2450  0.3065  0.5962
 2636SOL    HW210661   3.380   2.631   4.764  0.6420 -0.1999 -0.6556
 2636SOL    HW310662   3.235   2.628   4.722  0.1269  0.9258  0.9944
 2636SOL    MW410663   3.309   2.586   4.740 -0.0792  0.3214  0.4840
 2637SOL     OW10664   0.109   4.045   4.418  0.2025  0.5186 -0.1583
 2637SOL    HW210665   0.163   4.121   4.441 -0.3922  0.3108  2.0506
 2637SOL    HW310666   0.155   3.971   4.458  1.1051 -0.3909 -2.8086
 2637SOL    MW410667   0.123   4.045   4.426  0.2431  0.3705 -0.2170
 2638SOL     OW10668   3.861   0.736   4.589 -0.0599 -0.2694 -0.3905
 2638SOL    HW210669   3.887   0.644   4.594 -0.9399 -0.5463 -0.7880
 2638SOL    HW310670   3.934   0.779   4.545 -0.3153 -1.0506 -1.5799
 2638SOL    MW410671   3.874   0.729   4.584 -0.2098 -0.4090 -0.6003
 2639SOL     OW10672   0.237   0.266   4.155  0.3688  0.5471 -0.3829
 2639SOL    HW210673   0.169   0.332   4.139  0.6854  1.0621  0.4364
 2639SOL    HW310674   0.319   0.313   4.144  0.5913  0.3851  0.6349
 2639SOL    MW410675   0.239   0.281   4.151  0.4399  0.5936 -0.1407
 2640SOL     OW10676   4.046   2.703   4.118 -0.5891 -0.2585  0.0498
 2640SOL    HW210677   4.137   2.724   4.137 -0.3329 -0.5175 -0.8296
 2640SOL    HW310678   4.038   2.610   4.137 -0.2514 -0.5856 -1.3615
 2640SOL    MW410679   4.057   2.694   4.123 -0.5102 -0.3359 -0.2522
 2641SOL     OW10680   2.839   2.023   4.198  0.4372  0.1446 -0.4125
 2641SOL    HW210681   2.912   1.993   4.144 -0.0138 -0.5712 -0.6285
 2641SOL    HW310682   2.877   2.037   4.285  0.5633 -1.4631 -0.2060
 2641SOL    MW410683   2.853   2.021   4.202  0.3941 -0.1619 -0.4139
 2642SOL     OW10684   0.364   0.791   4.765 -0.2911 -0.2444 -0.3956
 2642SOL    HW210685   0.315   0.711   4.747 -0.2295 -0.5748  0.8822
 2642SOL    HW310686   0.347   0.810   4.857  2.3454 -0.6182  0.1903
 2642SOL    MW410687   0.355   0.783   4.774  0.0649 -0.3372 -0.1493
 2643SOL     OW10688   2.448   1.451   4.075  0.4807  0.2535 -0.2041
 2643SOL    HW210689   2.444   1.384   4.143 -0.5651  1.0372  0.5139
 2643SOL    HW310690   2.362   1.493   4.076  0.8935  1.1582 -1.1108
 2643SOL    MW410691   2.436   1.448   4.084  0.3972  0.4764 -0.2289
 2644SOL     OW10692   1.683   0.826   4.379 -0.0445 -0.4879 -0.3737
 2644SOL    HW210693   1.616   0.816   4.312  0.3200 -1.3692 -0.6046
 2644SOL    HW310694   1.739   0.749   4.370 -1.2108 -1.7043  2.3057
 2644SOL    MW410695   1.682   0.815   4.369 -0.1503 -0.7647 -0.0501
 2645SOL     OW10696   4.032   3.985   3.694 -0.2261 -0.3268 -0.8820
 2645SOL    HW210697   4.038   4.074   3.728 -1.9173 -0.3291 -0.5159
 2645SOL    HW310698   3.996   3.996   3.605  0.4435 -0.5846 -1.1861
 2645SOL    MW410699   4.028   3.998   3.686 -0.3610 -0.3610 -0.8738
 2646SOL     OW10700   0.310   3.079   4.035 -0.3227  0.2156 -0.2787
 2646SOL    HW210701   0.324   3.173   4.052 -0.5717  0.0632  0.7960
 2646SOL    HW310702   0.224   3.061   4.072  0.4224 -0.7984  0.9884
 2646SOL    MW410703   0.300   3.089   4.042 -0.2573  0.0615  0.0305
 2647SOL     OW10704   3.807   3.233   4.526 -0.5814 -0.1899 -0.3324
 2647SOL    HW210705   3.803   3.324   4.497  0.2796  0.1401  0.5415
 2647SOL    HW310706   3.802   3.181   4.446  0.3965  0.6730 -0.9538
 2647SOL    MW410707   3.806   3.238   4.512 -0.3388 -0.0327 -0.2995
 2648SOL     OW10708   3.119   2.732   4.616 -0.5148 -0.4691  0.4504
 2648SOL    HW210709   3.068   2.811   4.637 -0.9476 -0.3806 -0.9209
 2648SOL    HW310710   3.183   2.761   4.552  0.0023 -1.0155  0.7161
 2648SOL    MW410711   3.121   2.746   4.610 -0.5038 -0.5298  0.3042
 2649SOL     OW10712   4.164   3.903   4.330 -0.8367  0.2525  0.3683
 2649SOL    HW210713   4.152   3.829   4.389  0.6941 -1.1347 -1.0245
 2649SOL    HW310714   4.224   3.962   4.376  1.2989 -1.3784 -0.2560
 2649SOL    MW410715   4.170   3.901   4.344 -0.3533 -0.1454  0.1025
 2650SOL     OW10716   2.607   1.914   4.116  0.2733  0.2143 -0.6846
 2650SOL    HW210717   2.622   1.825   4.150  0.5744  0.4050 -0.3107
 2650SOL    HW310718   2.683   1.964   4.147 -0.8708  1.0772  0.8150
 2650SOL    MW410719   2.619   1.909   4.125  0.1621  0.3532 -0.4373
 2651SOL     OW10720   3.939   2.728   4.467  0.1508  0.2882 -0.0983
 2651SOL    HW210721   3.910   2.769   4.385 -0.8718  0.8704  0.5363
 2651SOL    HW310722   3.997   2.793   4.507 -2.2127  1.5855  1.3634
 2651SOL    MW410723   3.943   2.742   4.461 -0.2961  0.5362  0.1783
 2652SOL     OW10724   3.885   3.140   4.155 -0.6546  0.1067  0.0535
 2652SOL    HW210725   3.873   3.046   4.169 -0.6331  0.2334  0.9474
 2652SOL    HW310726   3.873   3.152   4.061  0.6809 -0.9964 -0.2781
 2652SOL    MW410727   3.882   3.129   4.144 -0.4756 -0.0224  0.1273
 2653SOL     OW10728   0.899   1.185   4.193 -0.1100 -0.1130  0.2854
 2653SOL    HW210729   0.941   1.266   4.221  0.7658  0.1808 -1.7786
 2653SOL    HW310730   0.816   1.183   4.242  0.8867  0.8557  2.0506
 2653SOL    MW410731   0.893   1.196   4.203  0.1372  0.0535  0.2460
 2654SOL     OW10732   3.564   2.538   4.310  0.4152  0.1085  0.0662
 2654SOL    HW210733   3.596   2.564   4.396 -1.7959  0.0708  0.9365
 2654SOL    HW310734   3.592   2.447   4.300  2.0884  0.6095  0.0205
 2654SOL    MW410735   3.572   2.530   4.320  0.3443  0.1698  0.1745
 2655SOL     OW10736   0.536   1.647   4.475 -0.0211  0.3328  0.2048
 2655SOL    HW210737   0.539   1.743   4.482 -1.1631  0.3001  1.3652
 2655SOL    HW310738   0.478   1.631   4.401 -1.1932  0.5484  1.0454
 2655SOL    MW410739   0.529   1.658   4.466 -0.3264  0.3569  0.4687
 2656SOL     OW10740   2.573   1.076   4.654 -0.1740  0.2876 -0.3103
 2656SOL    HW210741   2.482   1.062   4.682 -0.3001 -0.0268 -0.8657
 2656SOL    HW310742   2.571   1.159   4.607 -0.0702  0.5482  0.1516
 2656SOL    MW410743   2.561   1.085   4.651 -0.1769  0.2805 -0.3228
 2657SOL     OW10744   3.652   4.238   4.535 -0.0272 -0.0756  0.5282
 2657SOL    HW210745   3.569   4.285   4.538 -0.0146 -0.0805  1.1513
 2657SOL    HW310746   3.653   4.195   4.450 -0.1233  0.9006  0.0271
 2657SOL    MW410747   3.641   4.239   4.524 -0.0384  0.0529  0.5445
 2658SOL     OW10748   0.473   1.266   4.522 -0.2728  0.3343  0.3901
 2658SOL    HW210749   0.490   1.181   4.561  0.2597 -0.4747 -1.5491
 2658SOL    HW310750   0.540   1.275   4.454 -1.0768  1.7706 -0.2387
 2658SOL    MW410751   0.484   1.256   4.518 -0.3086  0.4171  0.0515
 2659SOL     OW10752   3.372   1.881   4.245 -0.0867 -0.5366  0.5331
 2659SOL    HW210753   3.439   1.930   4.197  0.9968 -0.4085  2.1562
 2659SOL    HW310754   3.415   1.798   4.268 -0.7897 -0.8375  0.7791
 2659SOL    MW410755   3.387   1.876   4.242 -0.0367 -0.5593  0.7796
 2660SOL     OW10756   0.372   2.111   4.568 -0.1621 -0.1101 -0.0238
 2660SOL    HW210757   0.439   2.044   4.556 -1.3993 -1.2239 -0.8774
 2660SOL    HW310758   0.312   2.073   4.632  0.0834  0.9473  0.8543
 2660SOL    MW410759   0.373   2.097   4.575 -0.2929 -0.1175 -0.0205
 2661SOL     OW10760   0.131   1.710   4.633  0.2721  0.1284  0.1235
 2661SOL    HW210761   0.040   1.683   4.623  0.5107 -0.5925 -0.0712
 2661SOL    HW310762   0.182   1.629   4.633  0.7963  0.4399  1.5793
 2661SOL    MW410763   0.126   1.696   4.631  0.3727  0.0743  0.2899
 2662SOL     OW10764   2.886   1.275   4.528  0.1622 -0.4952 -0.3809
 2662SOL    HW210765   2.933   1.193   4.541  0.7883 -0.2415 -1.0024
 2662SOL    HW310766   2.890   1.291   4.434 -0.9967 -0.3613 -0.4175
 2662SOL    MW410767   2.893   1.267   4.517  0.0916 -0.4441 -0.4683
 2663SOL     OW10768   2.032   1.189   4.284 -0.6463  0.1690  0.4457
 2663SOL    HW210769   1.989   1.266   4.322 -0.7018  0.0640  0.5951
 2663SOL    HW310770   1.996   1.115   4.333 -0.3806  0.0720  0.4930
 2663SOL    MW410771   2.022   1.189   4.295 -0.6187  0.1422  0.4711
 2664SOL     OW10772   1.057   0.964   4.189  0.0967 -0.1953  0.0134
 2664SOL    HW210773   1.124   0.989   4.252 -0.2046 -0.2368  0.3489
 2664SOL    HW310774   1.007   1.044   4.174  1.0992  0.2109 -1.3243
 2664SOL    MW410775   1.059   0.978   4.195  0.1892 -0.1473 -0.1187
 2665SOL     OW10776   4.190   0.041   4.500  0.2977  0.1118 -0.1930
 2665SOL    HW210777   4.127  -0.026   4.525  0.1243  0.8663  1.4820
 2665SOL    HW310778   4.273  -0.007   4.490 -0.2013 -0.6288 -0.8756
 2665SOL    MW410779   4.193   0.026   4.502  0.2089  0.1137 -0.0615
 2666SOL     OW10780   0.438   1.215   4.100  0.4044 -0.0407  0.0166
 2666SOL    HW210781   0.448   1.306   4.128 -0.6216 -0.0301  0.4039
 2666SOL    HW310782   0.361   1.184   4.148  0.7648 -1.1256 -0.0861
 2666SOL    MW410783   0.429   1.223   4.110  0.3166 -0.1824  0.0548
 2667SOL     OW10784   3.466   1.634   4.289 -0.0873  0.5783 -0.0789
 2667SOL    HW210785   3.509   1.577   4.225  0.8941  1.2121  0.0131
 2667SOL    HW310786   3.384   1.589   4.309  0.3943 -0.5004 -0.4754
 2667SOL    MW410787   3.461   1.620   4.283  0.1059  0.5195 -0.1192
 2668SOL     OW10788   3.171   3.746   4.552  0.2590 -0.4753  0.4032
 2668SOL    HW210789   3.127   3.830   4.539  0.4591 -0.2276  1.3058
 2668SOL    HW310790   3.100   3.682   4.555  0.0324 -0.2107  0.7758
 2668SOL    MW410791   3.156   3.749   4.550  0.2551 -0.4077  0.5717
 2669SOL     OW10792   3.063   0.365   4.627  0.0744 -0.4281 -0.4113
 2669SOL    HW210793   2.981   0.354   4.578  0.5249  0.3074 -1.3313
 2669SOL    HW310794   3.050   0.444   4.679  0.2854 -0.2020 -0.7081
 2669SOL    MW410795   3.051   0.374   4.627  0.1616 -0.3012 -0.5722
 2670SOL     OW10796   1.779   0.332   4.157 -0.4533 -0.5641 -0.3210
 2670SOL    HW210797   1.845   0.268   4.186 -0.8950 -0.7565  0.2620
 2670SOL    HW310798   1.699   0.281   4.146 -0.5677 -0.2829 -0.7870
 2670SOL    MW410799   1.777   0.317   4.159 -0.5268 -0.5524 -0.3061
 2671SOL     OW10800   1.472   4.617   4.588 -0.8541 -0.3419 -0.0914
 2671SOL    HW210801   1.401   4.680   4.573 -1.9022 -1.7054 -0.9335
 2671SOL    HW310802   1.428   4.536   4.612  0.5369 -0.4705  2.1189
 2671SOL    MW410803   1.457   4.615   4.589 -0.8088 -0.5387  0.0892
 2672SOL     OW10804   3.508   2.870   4.565 -0.5044 -0.3137 -0.4601
 2672SOL    HW210805   3.504   2.949   4.618 -0.4464  0.9804 -2.3331
 2672SOL    HW310806   3.431   2.875   4.508 -0.1112 -1.2341 -1.0935
 2672SOL    MW410807   3.497   2.881   4.564 -0.4447 -0.2644 -0.7901
 2673SOL     OW10808   1.067   3.880   4.113  0.2737 -0.0456 -0.3873
 2673SOL    HW210809   1.073   3.972   4.138 -0.8004  0.1326 -0.7410
 2673SOL    HW310810   1.111   3.833   4.183  1.7018  0.8119 -0.7017
 2673SOL    MW410811   1.073   3.886   4.126  0.3204  0.0911 -0.4759
 2674SOL     OW10812   2.247   2.682   4.095 -0.1956  0.4044 -0.2021
 2674SOL    HW210813   2.182   2.749   4.119 -0.2096 -0.4143  2.1409
 2674SOL    HW310814   2.329   2.716   4.130  0.2392  0.3354 -1.1489
 2674SOL    MW410815   2.249   2.695   4.103 -0.1400  0.2868 -0.0176
 2675SOL     OW10816   3.368   1.211   4.185  0.1393 -0.8674  0.4765
 2675SOL    HW210817   3.279   1.214   4.148  0.3534 -2.9775 -0.2716
 2675SOL    HW310818   3.354   1.218   4.280 -0.8162 -1.1012  0.3615
 2675SOL    MW410819   3.354   1.213   4.193  0.0417 -1.1766  0.3619
 2676SOL     OW10820   3.350   3.839   4.163 -0.0017 -0.2660 -0.1520
 2676SOL    HW210821   3.391   3.752   4.164  0.4372 -0.0574  0.6024
 2676SOL    HW310822   3.395   3.887   4.233 -1.0693  0.1791  0.2362
 2676SOL    MW410823   3.362   3.834   4.173 -0.0849 -0.1798 -0.0010
 2677SOL     OW10824   3.476   0.510   4.392  0.4688  0.5854  0.1376
 2677SOL    HW210825   3.514   0.434   4.436 -0.8814 -0.7788 -0.9454
 2677SOL    HW310826   3.517   0.586   4.433  1.0849 -0.7074  1.9733
 2677SOL    MW410827   3.486   0.510   4.403  0.3719  0.2349  0.2365
 2678SOL     OW10828   0.063   0.904   4.491  0.1049 -0.0501  0.1585
 2678SOL    HW210829   0.021   0.879   4.409  1.1372 -1.2105 -0.0408
 2678SOL    HW310830   0.155   0.915   4.468  0.1593  1.0571  0.8765
 2678SOL    MW410831   0.069   0.902   4.477  0.2483 -0.0571  0.2265
 2679SOL     OW10832   2.383   2.133   4.932  0.4381  0.1804  0.2584
 2679SOL    HW210833   2.312   2.071   4.950 -0.0646  0.5945 -0.2595
 2679SOL    HW310834   2.341   2.204   4.883  0.6500  1.7625  2.2669
 2679SOL    MW410835   2.368   2.135   4.928  0.3996  0.4442  0.4554
 2680SOL     OW10836   1.355   4.338   4.594  0.3772  0.1896 -0.0625
 2680SOL    HW210837   1.266   4.312   4.619  0.5509  0.3110  0.7184
 2680SOL    HW310838   1.408   4.260   4.609  0.7069  0.6376  1.2294
 2680SOL    MW410839   1.350   4.324   4.599  0.4438  0.2646  0.2108
 2681SOL     OW10840   2.427   2.503   4.469  0.3797 -0.2384  0.2849
 2681SOL    HW210841   2.336   2.508   4.438  0.0461 -0.4755  1.2178
 2681SOL    HW310842   2.420   2.498   4.564  1.3680 -0.4003  0.3541
 2681SOL    MW410843   2.414   2.503   4.477  0.4661 -0.2911  0.4168
 2682SOL     OW10844   1.865   2.721   4.293 -0.1445  0.3237  0.0264
 2682SOL    HW210845   1.819   2.693   4.214 -0.7460  0.8163  0.2070
 2682SOL    HW310846   1.814   2.794   4.327 -1.0158 -1.1299  1.9864
 2682SOL    MW410847   1.852   2.727   4.287 -0.3386  0.1967  0.3090
 2683SOL     OW10848   0.504   0.980   4.617 -0.0978 -0.3142 -0.0246
 2683SOL    HW210849   0.454   0.915   4.667  0.3068  0.4090  1.3537
 2683SOL    HW310850   0.592   0.943   4.611  0.3411  0.4761  1.4739
 2683SOL    MW410851   0.509   0.966   4.623  0.0135 -0.1146  0.3548
 2684SOL     OW10852   3.291   4.171   4.379  0.1654 -0.0669 -0.5998
 2684SOL    HW210853   3.314   4.084   4.411 -1.4336 -1.0091 -1.9799
 2684SOL    HW310854   3.201   4.185   4.409 -0.2634  0.3067 -2.0308
 2684SOL    MW410855   3.282   4.161   4.387 -0.1020 -0.1421 -0.9708
 2685SOL     OW10856   3.414   2.151   4.526 -0.4652  0.3064  0.0057
 2685SOL    HW210857   3.361   2.192   4.595 -1.2762  0.4667 -0.6979
 2685SOL    HW310858   3.378   2.063   4.518  0.4027 -0.0978  0.6013
 2685SOL    MW410859   3.402   2.145   4.534 -0.4578  0.2744 -0.0086
 2686SOL     OW10860   1.266   3.419   4.092 -0.1367  0.1624  0.4099
 2686SOL    HW210861   1.264   3.406   3.997  0.9010 -1.1661  0.5449
 2686SOL    HW310862   1.318   3.498   4.105  1.7143 -0.9448 -0.0462
 2686SOL    MW410863   1.273   3.427   4.081  0.2446 -0.1590  0.3672
 2687SOL     OW10864   0.863   2.325   4.064 -0.0264 -0.4999 -0.0456
 2687SOL    HW210865   0.803   2.316   4.138 -0.4266 -1.9312 -0.5200
 2687SOL    HW310866   0.810   2.302   3.988  1.0047 -1.3854 -0.5123
 2687SOL    MW410867   0.848   2.320   4.064  0.0568 -0.8056 -0.1698
 2688SOL     OW10868   0.239   3.838   4.527 -0.5397  0.3768 -0.5890
 2688SOL    HW210869   0.178   3.764   4.532 -1.0869  0.8819  0.3255
 2688SOL    HW310870   0.281   3.839   4.613 -0.5028  1.1035 -0.6154
 2688SOL    MW410871   0.236   3.828   4.539 -0.6071  0.5391 -0.4716
 2689SOL     OW10872   4.359   1.657   4.581 -0.5085 -0.0993  0.2178
 2689SOL    HW210873   4.297   1.584   4.582  0.1475 -0.6667 -0.2819
 2689SOL    HW310874   4.304   1.735   4.594 -1.0802 -0.7576  1.8739
 2689SOL    MW410875   4.344   1.658   4.583 -0.4969 -0.2609  0.3700
 2690SOL     OW10876   3.650   2.260   4.296 -0.0509  0.5968 -0.1371
 2690SOL    HW210877   3.675   2.221   4.380 -0.0498  0.1872 -0.3241
 2690SOL    HW310878   3.612   2.187   4.247  0.4219  0.7149 -0.6818
 2690SOL    MW410879   3.649   2.245   4.301  0.0114  0.5586 -0.2337
 2691SOL     OW10880   1.729   2.970   4.101  0.0520 -0.4761 -0.0205
 2691SOL    HW210881   1.646   3.011   4.078  0.1129 -0.2404  0.1836
 2691SOL    HW310882   1.748   3.000   4.190  1.3882  1.1593 -0.8119
 2691SOL    MW410883   1.721   2.980   4.110  0.2363 -0.2294 -0.0982
 2692SOL     OW10884   0.809   2.319   4.509  0.5237 -0.0973 -0.4691
 2692SOL    HW210885   0.791   2.411   4.525 -0.7648 -0.5781  0.9564
 2692SOL    HW310886   0.902   2.317   4.486  0.4745  1.5873 -0.9071
 2692SOL    MW410887   0.819   2.331   4.508  0.3472  0.0618 -0.3386
 2693SOL     OW10888   1.318   0.362   4.125  0.2274  0.2541 -0.4472
 2693SOL    HW210889   1.330   0.436   4.185 -0.9823  0.9666 -1.0555
 2693SOL    HW310890   1.237   0.321   4.155  0.1839 -0.0186 -0.9384
 2693SOL    MW410891   1.309   0.367   4.137  0.0621  0.3121 -0.5927
 2694SOL     OW10892   2.925   2.548   4.482  0.1319  0.3046  0.5597
 2694SOL    HW210893   3.000   2.599   4.513  0.3490  0.3357 -0.0079
 2694SOL    HW310894   2.872   2.534   4.560  0.3573  0.9123  0.8292
 2694SOL    MW410895   2.928   2.553   4.496  0.1903  0.3886  0.5207
 2695SOL     OW10896   0.523   0.605   4.430  0.1438  0.2679  0.3827
 2695SOL    HW210897   0.437   0.607   4.387 -0.5032 -1.1805  1.5421
 2695SOL    HW310898   0.551   0.514   4.424  1.4197  0.6497  0.3798
 2695SOL    MW410899   0.515   0.593   4.424  0.2268  0.1272  0.5360
 2696SOL     OW10900   1.398   2.267   4.103  0.8405 -0.1302 -0.2195
 2696SOL    HW210901   1.443   2.291   4.184  0.3554 -0.8955  0.2804
 2696SOL    HW310902   1.313   2.310   4.110  0.8814 -0.0191 -0.4184
 2696SOL    MW410903   1.393   2.276   4.115  0.7819 -0.2165 -0.1798
 2697SOL     OW10904   4.427   3.600   4.247 -0.3150  0.0098 -0.1683
 2697SOL    HW210905   4.485   3.567   4.178 -0.5491 -0.6563 -0.0544
 2697SOL    HW310906   4.398   3.685   4.215  0.6719  0.3248 -0.2563
 2697SOL    MW410907   4.431   3.606   4.233 -0.2155 -0.0367 -0.1645
 2698SOL     OW10908   3.643   4.309   4.096  0.1183 -0.3083 -0.0816
 2698SOL    HW210909   3.721   4.358   4.121  0.2787 -0.2318 -0.7440
 2698SOL    HW310910   3.571   4.371   4.106  0.1691 -0.3035  0.2710
 2698SOL    MW410911   3.644   4.323   4.101  0.1462 -0.2971 -0.1221
 2699SOL     OW10912   2.544   3.276   4.563 -0.3252  0.3920  0.1556
 2699SOL    HW210913   2.513   3.214   4.630 -0.1774 -0.9511 -0.9888
 2699SOL    HW310914   2.464   3.308   4.521 -0.4780  2.0621  1.6705
 2699SOL    MW410915   2.530   3.272   4.566 -0.3259  0.4351  0.2041
 2700SOL     OW10916   3.938   4.028   4.220 -0.7144  0.5612 -0.5673
 2700SOL    HW210917   3.972   4.093   4.159  0.3051 -1.4468 -2.2102
 2700SOL    HW310918   4.016   3.989   4.260 -1.3629  1.5027  1.6884
 2700SOL    MW410919   3.953   4.031   4.217 -0.6654  0.4201 -0.4864
 2701SOL     OW10920   3.690   0.062   4.409 -0.0422  0.5082 -0.2258
 2701SOL    HW210921   3.722   0.102   4.328 -0.7952 -0.1634 -0.8657
 2701SOL    HW310922   3.736  -0.022   4.413 -0.9897 -0.0357 -0.6436
 2701SOL    MW410923   3.700   0.056   4.399 -0.2668  0.3478 -0.3653
 2702SOL     OW10924   3.861   0.468   4.271  0.4236  0.1810 -0.4654
 2702SOL    HW210925   3.946   0.449   4.230 -0.8206 -1.2448 -2.4599
 2702SOL    HW310926   3.880   0.468   4.365  2.5885 -0.3704 -0.8620
 2702SOL    MW410927   3.875   0.466   4.278  0.5450 -0.0799 -0.7806
 2703SOL     OW10928   3.734   0.240   4.212  0.1514 -0.0380  0.1783
 2703SOL    HW210929   3.781   0.319   4.242 -1.0122  1.1094 -0.9822
 2703SOL    HW310930   3.648   0.272   4.187 -0.6610 -1.8592  0.5962
 2703SOL    MW410931   3.729   0.255   4.213 -0.1090 -0.1269  0.0806
 2704SOL     OW10932   2.275   0.312   4.595 -0.0187  0.3297 -0.3378
 2704SOL    HW210933   2.336   0.261   4.648 -0.5245 -1.8285 -1.7683
 2704SOL    HW310934   2.193   0.309   4.644 -0.6957 -2.3190 -1.5696
 2704SOL    MW410935   2.273   0.305   4.609 -0.1748 -0.3045 -0.6895
 2705SOL     OW10936   0.125   0.714   4.087  0.7296 -0.0842  0.2223
 2705SOL    HW210937   0.171   0.699   4.169 -0.1957 -1.0032  0.5825
 2705SOL    HW310938   0.071   0.792   4.103 -1.5159 -1.8262  1.3997
 2705SOL    MW410939   0.124   0.723   4.100  0.3112 -0.4353  0.4253
 2706SOL     OW10940   0.593   0.883   4.279 -0.0770  0.0421  0.0201
 2706SOL    HW210941   0.636   0.852   4.358  0.5846  1.3624  0.1850
 2706SOL    HW310942   0.502   0.901   4.306  0.2418  0.8466  0.5729
 2706SOL    MW410943   0.586   0.881   4.293  0.0525  0.3225  0.1149
 2707SOL     OW10944   1.395   0.365   4.421  0.1438  0.4581 -0.8261
 2707SOL    HW210945   1.486   0.368   4.451 -0.5349  1.2551  1.2678
 2707SOL    HW310946   1.365   0.456   4.427 -0.8231  0.1895 -1.4223
 2707SOL    MW410947   1.403   0.378   4.426 -0.0732  0.5278 -0.6289
 2708SOL     OW10948   2.605   4.273   4.291  0.4445  0.2644 -0.2386
 2708SOL    HW210949   2.563   4.358   4.276 -0.3513 -0.3219 -1.4014
 2708SOL    HW310950   2.543   4.209   4.255  1.6078 -0.7294 -0.5014
 2708SOL    MW410951   2.591   4.275   4.285  0.4930  0.0563 -0.4263
 2709SOL     OW10952   1.492   3.271   4.057 -0.4762  0.5926  0.2898
 2709SOL    HW210953   1.551   3.337   4.023  0.1033 -1.0440 -1.9864
 2709SOL    HW310954   1.416   3.320   4.088  0.3198  2.3784 -0.5373
 2709SOL    MW410955   1.489   3.286   4.057 -0.2948  0.6123 -0.1202
 2710SOL     OW10956   0.980   2.670   4.304 -0.4205 -0.0408 -0.3532
 2710SOL    HW210957   1.012   2.751   4.344 -1.0446  0.3314 -0.6023
 2710SOL    HW310958   1.039   2.602   4.336 -0.3347  0.4047  0.4400
 2710SOL    MW410959   0.992   2.672   4.314 -0.4914  0.0672 -0.2818
 2711SOL     OW10960   0.641   1.168   4.299  0.0838 -0.4953  0.1369
 2711SOL    HW210961   0.580   1.201   4.233  0.0400 -0.7953  0.0224
 2711SOL    HW310962   0.635   1.072   4.291  0.0020 -0.5325  0.6480
 2711SOL    MW410963   0.632   1.159   4.289  0.0672 -0.5398  0.1893
 2712SOL     OW10964   3.211   3.438   4.096  0.1650 -0.2767 -0.4684
 2712SOL    HW210965   3.208   3.463   4.004  0.0875  1.2995 -0.0485
 2712SOL    HW310966   3.287   3.485   4.131 -0.2880 -0.2360  0.4661
 2712SOL    MW410967   3.221   3.447   4.089  0.0951 -0.0632 -0.2899
 2713SOL     OW10968   3.602   3.244   4.251 -0.0252  0.2801 -0.5677
 2713SOL    HW210969   3.552   3.210   4.177  1.0662 -2.6224 -0.0201
 2713SOL    HW310970   3.659   3.172   4.278  2.9438  2.7783  0.2027
 2713SOL    MW410971   3.603   3.230   4.245  0.5105  0.2270 -0.3943
 2714SOL     OW10972   0.574   0.335   4.409  0.4719  0.1831  0.1483
 2714SOL    HW210973   0.557   0.337   4.315  0.7650  0.1106  0.0935
 2714SOL    HW310974   0.490   0.314   4.448  0.5077 -0.5600 -0.1480
 2714SOL    MW410975   0.561   0.332   4.402  0.5153  0.0755  0.1020
 2715SOL     OW10976   4.273   4.328   4.477  0.3746 -0.2269  0.6924
 2715SOL    HW210977   4.280   4.344   4.383  1.9669  2.3313  1.1852
 2715SOL    HW310978   4.286   4.234   4.487 -1.1612 -0.7369 -1.7453
 2715SOL    MW410979   4.275   4.318   4.466  0.3819  0.0429  0.4363
 2716SOL     OW10980   3.814   1.122   4.254 -0.0856 -0.2317  0.0939
 2716SOL    HW210981   3.733   1.085   4.219  0.2891  0.4643 -1.5595
 2716SOL    HW310982   3.879   1.052   4.242 -0.2905 -0.5537  0.8287
 2716SOL    MW410983   3.812   1.108   4.248 -0.0634 -0.1823 -0.0272
 2717SOL     OW10984   1.553   4.617   4.328 -0.3072  0.4084  0.0465
 2717SOL    HW210985   1.519   4.531   4.305  1.2512  0.0326 -0.9030
 2717SOL    HW310986   1.535   4.625   4.422 -0.5142 -0.9198  0.1334
 2717SOL    MW410987   1.546   4.607   4.338 -0.1289  0.1836 -0.0677
 2718SOL     OW10988   1.852   1.184   4.657  0.0804 -0.0045  0.1193
 2718SOL    HW210989   1.872   1.107   4.603 -0.1122 -0.6328  0.9395
 2718SOL    HW310990   1.798   1.150   4.728  0.1507  0.8658  0.5898
 2718SOL    MW410991   1.847   1.169   4.659  0.0644  0.0275  0.2894
 2719SOL     OW10992   3.551   1.457   4.073 -0.3419 -0.6135 -0.3362
 2719SOL    HW210993   3.508   1.376   4.101 -0.8672  0.0204  0.7216
 2719SOL    HW310994   3.491   1.494   4.007 -0.6189 -0.5500 -0.0488
 2719SOL    MW410995   3.538   1.451   4.068 -0.4480 -0.5217 -0.1588
 2720SOL     OW10996   1.273   0.151   4.529 -0.0036 -1.0040 -0.0779
 2720SOL    HW210997   1.246   0.194   4.611 -1.5755 -2.0476 -0.0244
 2720SOL    HW310998   1.324   0.217   4.483  0.8792 -0.3914  1.7407
 2720SOL    MW410999   1.276   0.165   4.534 -0.0945 -1.0609  0.1688
 2721SOL     OW11000   1.116   0.198   4.216 -0.0699  0.3623  0.2033
 2721SOL    HW211001   1.080   0.173   4.301  0.8237 -0.2653  0.3976
 2721SOL    HW311002   1.156   0.118   4.182 -1.6238  0.2542 -1.4371
 2721SOL    MW411003   1.116   0.184   4.223 -0.1570  0.2652  0.0129
 2722SOL     OW11004   0.509   0.370   4.127 -0.0004  0.4261  0.3957
 2722SOL    HW211005   0.530   0.463   4.127  0.2176  0.3850  1.3968
 2722SOL    HW311006   0.503   0.346   4.035  1.0539  1.1791  0.1268
 2722SOL    MW411007   0.511   0.379   4.115  0.1675  0.5200  0.4926
 2723SOL     OW11008   1.689   0.316   4.461 -0.0983 -0.3666 -0.2675
 2723SOL    HW211009   1.730   0.249   4.516 -1.5867 -0.9893  0.1174
 2723SOL    HW311010   1.724   0.299   4.373  0.7637 -0.6290  0.1154
 2723SOL    MW411011   1.699   0.305   4.457 -0.1810 -0.4834 -0.1659
 2724SOL     OW11012   1.246   1.614   4.120 -0.3534  0.0773  0.5588
 2724SOL    HW211013   1.339   1.600   4.103 -0.7648 -0.0153 -1.7755
 2724SOL    HW311014   1.243   1.700   4.162  0.8151 -0.0164  0.8522
 2724SOL    MW411015   1.258   1.624   4.123 -0.2536  0.0528  0.2904
 2725SOL     OW11016   3.361   1.509   3.851  0.0620 -0.0300 -0.2612
 2725SOL    HW211017   3.280   1.557   3.839  0.3958  0.2980 -1.2387
 2725SOL    HW311018   3.347   1.425   3.806 -0.8736 -1.2717  2.2664
 2725SOL    MW411019   3.349   1.504   3.843 -0.0174 -0.1506 -0.0567
 2726SOL     OW11020   2.903   1.278   4.255 -0.0720 -0.2769 -0.1095
 2726SOL    HW211021   2.980   1.256   4.202  1.0850 -0.0238  1.4427
 2726SOL    HW311022   2.882   1.368   4.229 -0.8230 -0.8886 -1.6830
 2726SOL    MW411023   2.910   1.287   4.244 -0.0184 -0.3242 -0.1125
 2727SOL     OW11024   2.772   4.194   4.080 -0.5257 -0.4028  0.1312
 2727SOL    HW211025   2.711   4.214   4.152  0.5771 -0.2881  1.0514
 2727SOL    HW311026   2.794   4.102   4.094  0.3090 -0.1601  0.4099
 2727SOL    MW411027   2.767   4.184   4.092 -0.2704 -0.3552  0.2894
 2728SOL     OW11028   1.244   3.448   0.336 -0.5624  0.3500 -0.0245
 2728SOL    HW211029   1.196   3.370   0.307  0.2732 -0.7897  1.5716
 2728SOL    HW311030   1.179   3.501   0.382 -1.1591  0.6548 -1.2045
 2728SOL    MW411031   1.229   3.445   0.338 -0.5308  0.2401  0.0304
 2729SOL     OW11032   1.359   0.646   4.227  0.0027  0.1115  0.3981
 2729SOL    HW211033   1.277   0.658   4.179  0.6615 -0.6812 -0.9418
 2729SOL    HW311034   1.332   0.638   4.318 -1.3715  0.3554  0.0268
 2729SOL    MW411035   1.344   0.647   4.233 -0.0918  0.0391  0.1726
 2730SOL     OW11036   1.461   1.434   4.511  0.1749  0.1301  0.2552
 2730SOL    HW211037   1.372   1.413   4.481 -0.8469  0.8216  2.7344
 2730SOL    HW311038   1.503   1.349   4.521 -0.4647 -0.2438 -0.1395
 2730SOL    MW411039   1.454   1.420   4.508 -0.0443  0.1720  0.5302
 2731SOL     OW11040   3.223   1.916   4.491  0.0287 -0.0639  0.1624
 2731SOL    HW211041   3.139   1.952   4.461 -0.6109 -1.3718  0.3761
 2731SOL    HW311042   3.273   1.903   4.410  0.8594  2.7169  0.1761
 2731SOL    MW411043   3.218   1.919   4.476  0.0539  0.1304  0.1922
 2732SOL     OW11044   0.530   4.559   4.077  0.2352  0.7710 -0.4948
 2732SOL    HW211045   0.438   4.587   4.072 -0.2108 -0.8738 -1.9040
 2732SOL    HW311046   0.574   4.609   4.007  0.3811  1.4111  0.0503
 2732SOL    MW411047   0.524   4.569   4.067  0.1956  0.6385 -0.6089
 2733SOL     OW11048   4.347   2.557   4.412 -0.3615  0.3959 -0.2689
 2733SOL    HW211049   4.376   2.632   4.463  0.5404 -0.4975  0.5823
 2733SOL    HW311050   4.257   2.542   4.440 -0.6632  1.3840 -0.7144
 2733SOL    MW411051   4.339   2.565   4.423 -0.2818  0.4084 -0.2155
 2734SOL     OW11052   2.462   2.084   3.713 -0.1656  0.1735 -0.1587
 2734SOL    HW211053   2.520   2.011   3.734  1.3501  1.0300 -1.3031
 2734SOL    HW311054   2.375   2.054   3.740  0.4415 -2.0366 -0.5714
 2734SOL    MW411055   2.458   2.070   3.719  0.1144 -0.0052 -0.3641
 2735SOL     OW11056   3.197   0.855   4.476  0.0996  0.5229 -0.0745
 2735SOL    HW211057   3.276   0.884   4.523 -0.0084 -0.1194  0.5129
 2735SOL    HW311058   3.204   0.759   4.475 -0.8052  0.4546  0.1922
 2735SOL    MW411059   3.209   0.846   4.482 -0.0341  0.4292  0.0381
 2736SOL     OW11060   3.162   4.470   4.679  0.1313 -0.6334  0.3997
 2736SOL    HW211061   3.070   4.442   4.682  0.3233 -1.1870  1.7944
 2736SOL    HW311062   3.158   4.565   4.668 -0.5777 -0.8267 -1.1089
 2736SOL    MW411063   3.149   4.479   4.678  0.0629 -0.7324  0.3848
 2737SOL     OW11064   3.098   1.169   4.088  0.0411 -0.0335 -0.1569
 2737SOL    HW211065   3.115   1.161   3.994 -0.0052 -1.1415 -0.0711
 2737SOL    HW311066   3.108   1.081   4.123  0.8486  0.4943  1.0240
 2737SOL    MW411067   3.102   1.157   4.080  0.1414 -0.1100  0.0105
 2738SOL     OW11068   3.382   3.919   4.443  0.1337 -0.3595  0.2782
 2738SOL    HW211069   3.311   3.868   4.481  0.5048 -0.1513  1.2715
 2738SOL    HW311070   3.461   3.887   4.486  0.5253  0.1305 -0.0549
 2738SOL    MW411071   3.383   3.908   4.454  0.2344 -0.2673  0.3653
 2739SOL     OW11072   1.170   2.503   4.405  0.2105 -0.2635  0.4763
 2739SOL    HW211073   1.169   2.489   4.500  1.4094  0.1575  0.5618
 2739SOL    HW311074   1.261   2.486   4.379 -0.0036  0.0778 -0.5297
 2739SOL    MW411075   1.182   2.499   4.414  0.3403 -0.1628  0.3548
 2740SOL     OW11076   2.530   4.550   4.240  0.2616 -0.6632  0.0270
 2740SOL    HW211077   2.470   4.593   4.179  0.5817  1.8592  1.4163
 2740SOL    HW311078   2.611   4.602   4.235  0.1705 -0.1829  2.8263
 2740SOL    MW411079   2.533   4.562   4.231  0.2918 -0.2670  0.5794
 2741SOL     OW11080   0.091   3.039   4.204 -0.4665  0.1081  0.1068
 2741SOL    HW211081  -0.002   3.038   4.183 -0.5032 -0.7963  0.2897
 2741SOL    HW311082   0.110   2.950   4.233  0.3931  0.3633  0.3460
 2741SOL    MW411083   0.081   3.027   4.205 -0.3579  0.0226  0.1631
 2742SOL     OW11084   2.316   0.263   4.125 -0.2947 -0.0833 -0.4378
 2742SOL    HW211085   2.279   0.325   4.062 -2.1381 -0.7121  0.0042
 2742SOL    HW311086   2.393   0.309   4.161 -0.4854  1.1356 -1.5561
 2742SOL    MW411087   2.321   0.278   4.122 -0.5631 -0.0055 -0.5269
 2743SOL     OW11088   2.329   4.654   4.066 -0.2207 -0.3349  0.4110
 2743SOL    HW211089   2.241   4.621   4.078 -0.2435 -0.3679  0.1531
 2743SOL    HW311090   2.320   4.749   4.067 -0.2334 -0.3373  0.5693
 2743SOL    MW411091   2.316   4.662   4.068 -0.2255 -0.3395  0.3977
 2744SOL     OW11092   2.380   4.240   4.667  0.1420 -0.3125 -0.0274
 2744SOL    HW211093   2.301   4.274   4.625 -0.0807 -1.1328 -0.2643
 2744SOL    HW311094   2.369   4.145   4.667  1.3127 -0.4534 -0.4297
 2744SOL    MW411095   2.368   4.232   4.661  0.2670 -0.4392 -0.1116
 2745SOL     OW11096   0.381   2.861   4.457  0.0875  0.2125  0.1216
 2745SOL    HW211097   0.417   2.867   4.368  0.2107  0.7094  0.2063
 2745SOL    HW311098   0.419   2.781   4.493 -1.4702 -1.0693 -0.9620
 2745SOL    MW411099   0.391   2.851   4.450 -0.1017  0.1092 -0.0105
 2746SOL     OW11100   2.801   2.461   4.238 -0.7229  0.1948 -0.2666
 2746SOL    HW211101   2.709   2.444   4.256 -0.6074 -0.5577 -0.3961
 2746SOL    HW311102   2.834   2.499   4.319 -0.6230 -1.5702  0.5364
 2746SOL    MW411103   2.793   2.464   4.251 -0.6948 -0.1376 -0.1779
 2747SOL     OW11104   2.910   0.477   4.261  0.0829 -0.0350  0.0809
 2747SOL    HW211105   2.999   0.467   4.227 -0.1027 -0.9789 -0.1573
 2747SOL    HW311106   2.892   0.571   4.256  1.1112  0.1702  0.2502
 2747SOL    MW411107   2.919   0.488   4.256  0.1938 -0.1324  0.0720
 2748SOL     OW11108   0.133   2.799   4.352 -0.6488  0.0840  0.2210
 2748SOL    HW211109   0.216   2.817   4.396 -1.0359 -0.5422  1.2425
 2748SOL    HW311110   0.066   2.826   4.415 -1.2108 -1.0787  0.1387
 2748SOL    MW411111   0.135   2.805   4.366 -0.7740 -0.1521  0.3457
 2749SOL     OW11112   0.585   0.627   4.123  0.4477 -0.4758 -0.0309
 2749SOL    HW211113   0.583   0.698   4.187 -0.2562  0.2651 -0.8432
 2749SOL    HW311114   0.613   0.669   4.042  2.7489 -1.6857  0.1097
 2749SOL    MW411115   0.588   0.642   4.120  0.6585 -0.5376 -0.1197
 2750SOL     OW11116   2.263   1.103   4.171 -0.2640 -0.1634 -0.3427
 2750SOL    HW211117   2.193   1.148   4.219 -0.0025  0.8528 -0.9012
 2750SOL    HW311118   2.343   1.146   4.199  0.0589 -0.7449 -0.3653
 2750SOL    MW411119   2.264   1.114   4.181 -0.1869 -0.1060 -0.4191
 2751SOL     OW11120   0.919   4.460   4.473 -0.0770  0.2592  0.3679
 2751SOL    HW211121   0.833   4.426   4.497  0.4546 -1.2058  0.2706
 2751SOL    HW311122   0.914   4.475   4.379  0.3490 -1.6398  0.0190
 2751SOL    MW411123   0.907   4.457   4.464  0.0494 -0.1850  0.3090
 2752SOL     OW11124   4.289   3.224   4.435  0.1243  0.2606 -0.0185
 2752SOL    HW211125   4.249   3.202   4.519 -0.9674  1.6627 -0.1588
 2752SOL    HW311126   4.238   3.176   4.370 -2.2255  3.0175 -0.3208
 2752SOL    MW411127   4.277   3.215   4.437 -0.3304  0.8092 -0.0768
 2753SOL     OW11128   1.336   2.422   3.441  0.2369  0.2323 -0.2323
 2753SOL    HW211129   1.344   2.435   3.536 -1.0300 -0.7530  0.0208
 2753SOL    HW311130   1.335   2.511   3.406  0.4286  0.6156  0.7008
 2753SOL    MW411131   1.337   2.436   3.449  0.0950  0.1528 -0.0756
 2754SOL     OW11132   0.574   1.920   4.516  0.2298  0.2734 -0.4086
 2754SOL    HW211133   0.639   1.947   4.581  0.3886  0.6051 -0.6998
 2754SOL    HW311134   0.609   1.953   4.433 -0.8218  1.3548 -0.4320
 2754SOL    MW411135   0.587   1.928   4.513  0.1120  0.4599 -0.4501
 2755SOL     OW11136   3.690   3.947   4.630 -0.5386 -0.3509  0.5161
 2755SOL    HW211137   3.680   4.035   4.591 -0.8555 -0.5914  0.0440
 2755SOL    HW311138   3.763   3.956   4.691 -0.0079  0.0307 -0.1638
 2755SOL    MW411139   3.698   3.960   4.633 -0.5102 -0.3319  0.3638
 2756SOL     OW11140   0.807   2.595   4.068 -0.0467  0.0202  0.2829
 2756SOL    HW211141   0.831   2.503   4.077  1.1832  0.3279  0.1998
 2756SOL    HW311142   0.828   2.633   4.153 -0.3388  0.2797  0.2401
 2756SOL    MW411143   0.813   2.588   4.080  0.0770  0.0949  0.2666
 2757SOL     OW11144   0.451   2.419   4.249  0.4498  0.2175  0.0884
 2757SOL    HW211145   0.491   2.500   4.218 -1.0461  0.7717 -0.4089
 2757SOL    HW311146   0.525   2.361   4.264  1.4506  1.1926 -0.9319
 2757SOL    MW411147   0.466   2.422   4.247  0.3845  0.4194 -0.1111
 2758SOL     OW11148   2.125   3.189   3.942  0.0833  0.4414 -0.6743
 2758SOL    HW211149   2.051   3.138   3.908 -0.8256  1.3463 -0.0618
 2758SOL    HW311150   2.177   3.210   3.864 -0.9582  0.8449 -1.2593
 2758SOL    MW411151   2.122   3.185   3.927 -0.1740  0.6139 -0.6707
 2759SOL     OW11152   0.560   2.712   4.792 -0.3016  0.0212  0.0918
 2759SOL    HW211153   0.530   2.685   4.705  1.0335 -1.6140  0.1060
 2759SOL    HW311154   0.656   2.714   4.785 -0.1584 -0.4970  1.6162
 2759SOL    MW411155   0.569   2.709   4.780 -0.1066 -0.2632  0.2947
 2760SOL     OW11156   1.192   1.356   4.467  0.0101  0.1967 -0.3372
 2760SOL    HW211157   1.141   1.405   4.402 -0.8599 -1.6331 -1.0536
 2760SOL    HW311158   1.143   1.368   4.549  0.1200  0.9872 -0.3789
 2760SOL    MW411159   1.178   1.364   4.469 -0.0902  0.0596 -0.4373
 2761SOL     OW11160   3.728   2.173   4.569  0.0186  0.0972  0.1146
 2761SOL    HW211161   3.766   2.086   4.561 -0.9268 -0.1679 -1.9159
 2761SOL    HW311162   3.634   2.157   4.578 -0.1618  0.9165 -0.3173
 2761SOL    MW411163   3.721   2.159   4.569 -0.1299  0.1705 -0.2108
 2762SOL     OW11164   0.158   1.366   4.398  0.6555  0.7423 -0.2374
 2762SOL    HW211165   0.151   1.425   4.323  1.1702  0.6473 -0.3558
 2762SOL    HW311166   0.185   1.422   4.471  1.2417  0.6319 -0.3728
 2762SOL    MW411167   0.160   1.381   4.398  0.8007  0.7154 -0.2704
 2763SOL     OW11168   2.306   3.360   4.426  0.1125  0.0994 -0.2144
 2763SOL    HW211169   2.239   3.325   4.486  0.9202 -1.8498 -0.4230
 2763SOL    HW311170   2.276   3.334   4.339  1.1134 -0.7437 -0.3110
 2763SOL    MW411171   2.293   3.352   4.423  0.3514 -0.2689 -0.2546
 2764SOL     OW11172   4.264   3.884   3.804  0.0722 -0.2921  0.2067
 2764SOL    HW211173   4.277   3.797   3.767  2.4802  1.1086 -2.4822
 2764SOL    HW311174   4.186   3.917   3.760  1.0852  0.1502 -1.2831
 2764SOL    MW411175   4.255   3.877   3.793  0.5236 -0.0489 -0.3448
 2765SOL     OW11176   2.371   4.584   4.449  0.7491  0.3681  0.2534
 2765SOL    HW211177   2.434   4.563   4.381  0.8132  0.8718  0.1591
 2765SOL    HW311178   2.321   4.657   4.414 -1.5227 -1.5762 -0.7106
 2765SOL    MW411179   2.373   4.591   4.435  0.4578  0.1779  0.1140
 2766SOL     OW11180   3.428   0.993   4.598  0.1347 -0.2276 -0.4788
 2766SOL    HW211181   3.485   1.011   4.673 -0.2990  1.2565 -0.4866
 2766SOL    HW311182   3.359   1.058   4.604 -0.7095 -1.0283 -1.3571
 2766SOL    MW411183   3.427   1.004   4.608 -0.0339 -0.1373 -0.5960
 2767SOL     OW11184   2.972   3.223   4.515  0.2124 -0.0168  0.2743
 2767SOL    HW211185   2.981   3.319   4.517  0.2953  0.0286 -1.2885
 2767SOL    HW311186   2.883   3.208   4.482  0.4969 -0.4726 -0.2970
 2767SOL    MW411187   2.962   3.234   4.511  0.2606 -0.0708 -0.0072
 2768SOL     OW11188   4.318   0.518   4.227 -0.0557 -0.0074  0.0533
 2768SOL    HW211189   4.384   0.491   4.163 -0.6852 -0.2425 -0.5038
 2768SOL    HW311190   4.348   0.481   4.310  0.3278 -0.4122 -0.2666
 2768SOL    MW411191   4.331   0.510   4.230 -0.0877 -0.0918 -0.0625
 2769SOL     OW11192   1.156   2.464   4.688  0.5486 -0.2308  0.2148
 2769SOL    HW211193   1.239   2.438   4.729  0.6969 -0.5266 -0.2649
 2769SOL    HW311194   1.145   2.556   4.712 -0.0650 -0.7618  2.0868
 2769SOL    MW411195   1.166   2.473   4.697  0.4871 -0.3400  0.3986
 2770SOL     OW11196   4.337   4.057   4.500  0.2881  0.0306 -0.3757
 2770SOL    HW211197   4.431   4.057   4.485  0.2458  1.6291 -0.7108
 2770SOL    HW311198   4.323   3.986   4.563  1.8415  0.4479  0.4732
 2770SOL    MW411199   4.348   4.048   4.507  0.4878  0.2966 -0.3085
 2771SOL     OW11200   3.219   2.278   4.707  0.0388  0.0075  0.5966
 2771SOL    HW211201   3.164   2.294   4.629  0.5502 -0.1468  0.2044
 2771SOL    HW311202   3.257   2.363   4.727 -0.1035  0.0499  0.6840
 2771SOL    MW411203   3.216   2.291   4.699  0.0875 -0.0074  0.5565
 2772SOL     OW11204   0.896   0.323   4.112  0.5693 -0.2037  0.0597
 2772SOL    HW211205   0.976   0.276   4.137  1.1541  0.1454 -1.1399
 2772SOL    HW311206   0.825   0.262   4.134  1.2649 -1.2588 -0.5443
 2772SOL    MW411207   0.897   0.309   4.118  0.7382 -0.2969 -0.1783
 2773SOL     OW11208   0.336   0.909   4.395 -0.1771  0.1039  0.2480
 2773SOL    HW211209   0.316   0.994   4.356  3.1491  0.2546 -1.3094
 2773SOL    HW311210   0.378   0.931   4.478 -0.1257 -0.0465  0.2619
 2773SOL    MW411211   0.339   0.923   4.401  0.2685  0.1039  0.0448
 2774SOL     OW11212   2.235   1.940   3.801 -0.0354  0.3386 -0.1194
 2774SOL    HW211213   2.244   1.962   3.893 -0.1855 -0.0923  0.0012
 2774SOL    HW311214   2.145   1.967   3.779 -0.2635 -0.2520  0.0615
 2774SOL    MW411215   2.224   1.946   3.810 -0.0851  0.2037 -0.0799
 2775SOL     OW11216   3.012   1.731   4.294  0.7360  0.3892 -0.0828
 2775SOL    HW211217   2.970   1.659   4.247 -0.0166 -0.5974  2.0341
 2775SOL    HW311218   3.100   1.699   4.312  0.7842  0.4764 -0.1621
 2775SOL    MW411219   3.018   1.717   4.290  0.6430  0.2705  0.1864
 2776SOL     OW11220   1.840   4.320   4.095  0.2652  0.2884 -0.0393
 2776SOL    HW211221   1.805   4.285   4.013  0.5488  0.3916 -0.2078
 2776SOL    HW311222   1.772   4.304   4.160  1.1022 -2.2066  0.2710
 2776SOL    MW411223   1.827   4.314   4.092  0.4131 -0.0267 -0.0205
 2777SOL     OW11224   0.545   4.174   4.388 -0.0389  0.2531  0.2073
 2777SOL    HW211225   0.565   4.210   4.301  0.2520  1.5255  0.7913
 2777SOL    HW311226   0.594   4.092   4.392 -1.9659 -1.0427 -1.7608
 2777SOL    MW411227   0.554   4.168   4.377 -0.2548  0.2499  0.0238
 2778SOL     OW11228   2.988   3.527   4.215  0.4435 -0.3221 -0.1534
 2778SOL    HW211229   3.065   3.488   4.173  0.9765 -0.6938  1.1474
 2778SOL    HW311230   2.918   3.517   4.151  1.5073  0.1379 -1.4128
 2778SOL    MW411231   2.989   3.521   4.201  0.6542 -0.3102 -0.1483
 2779SOL     OW11232   1.907   4.374   4.525 -0.0581  0.1466 -0.5039
 2779SOL    HW211233   1.882   4.455   4.480  0.8089 -0.6017 -2.4054
 2779SOL    HW311234   1.885   4.390   4.617  1.3997  3.0730 -0.5876
 2779SOL    MW411235   1.901   4.387   4.531  0.2488  0.4339 -0.7653
 2780SOL     OW11236   2.174   2.408   4.101  0.1761  0.0828 -0.2422
 2780SOL    HW211237   2.197   2.495   4.069 -0.5897 -0.0100 -1.0673
 2780SOL    HW311238   2.254   2.357   4.092  1.0347  1.0646  1.5832
 2780SOL    MW411239   2.188   2.412   4.095  0.1884  0.2003 -0.1106
 2781SOL     OW11240   1.128   2.404   4.095  0.2297  0.4290 -0.3951
 2781SOL    HW211241   1.040   2.370   4.108  0.5229 -0.0115  0.4830
 2781SOL    HW311242   1.116   2.498   4.079 -0.1802  1.0243  3.0897
 2781SOL    MW411243   1.115   2.412   4.095  0.2142  0.4494  0.1802
 2782SOL     OW11244   0.244   0.518   4.722 -0.2021 -0.6425 -0.0733
 2782SOL    HW211245   0.276   0.453   4.660  0.7781 -0.6433  0.4062
 2782SOL    HW311246   0.271   0.484   4.808  0.5427  0.4924  0.1660
 2782SOL    MW411247   0.252   0.505   4.725  0.0255 -0.4929  0.0219
 2783SOL     OW11248   3.114   1.933   4.147  0.0294 -0.0878 -0.3071
 2783SOL    HW211249   3.070   1.864   4.196 -0.4209 -1.5829 -2.7438
 2783SOL    HW311250   3.207   1.917   4.160 -0.0828 -0.6352 -0.1726
 2783SOL    MW411251   3.120   1.922   4.156 -0.0448 -0.3573 -0.6108
 2784SOL     OW11252   3.544   1.567   4.556  0.0978 -0.0549  0.1001
 2784SOL    HW211253   3.457   1.579   4.594  0.0626  1.4095 -0.4208
 2784SOL    HW311254   3.536   1.598   4.466  1.2681  0.4928  0.1683
 2784SOL    MW411255   3.532   1.573   4.549  0.2480  0.2105  0.0410
 2785SOL     OW11256   2.022   2.265   3.892 -0.0755  0.5768 -0.3095
 2785SOL    HW211257   2.051   2.281   3.982  0.3515 -1.5894 -0.0243
 2785SOL    HW311258   2.067   2.330   3.839  1.0999  0.6892  0.8245
 2785SOL    MW411259   2.031   2.275   3.897  0.1361  0.3059 -0.1223
 2786SOL     OW11260   3.001   2.826   4.239  0.2062  0.0873  0.1392
 2786SOL    HW211261   2.991   2.883   4.163 -0.5646 -0.2609 -0.0265
 2786SOL    HW311262   3.056   2.754   4.208 -0.0521 -0.0203 -0.0679
 2786SOL    MW411263   3.007   2.824   4.225  0.0703  0.0269  0.0901
 2787SOL     OW11264   3.070   2.299   4.454  0.0194  0.0397  0.0685
 2787SOL    HW211265   3.158   2.324   4.424 -1.0716  1.2523 -2.1906
 2787SOL    HW311266   3.026   2.382   4.470 -1.3716 -0.5404 -0.7079
 2787SOL    MW411267   3.076   2.313   4.452 -0.3083  0.1233 -0.3319
 2788SOL     OW11268   2.234   1.682   3.447  0.2247  0.2501  0.3471
 2788SOL    HW211269   2.220   1.712   3.537  0.6448  0.7515  0.2475
 2788SOL    HW311270   2.314   1.629   3.452  0.2483  0.2787  0.2678
 2788SOL    MW411271   2.243   1.679   3.460  0.2832  0.3200  0.3233
 2789SOL     OW11272   1.911   3.464   4.249  0.0390  0.1611 -0.4154
 2789SOL    HW211273   1.818   3.449   4.261 -0.1064  0.7653 -0.8056
 2789SOL    HW311274   1.929   3.441   4.158  0.2799  0.0051 -0.3312
 2789SOL    MW411275   1.901   3.459   4.239  0.0516  0.2203 -0.4559
 2790SOL     OW11276   0.409   3.774   4.302  0.5282 -0.3099 -0.1042
 2790SOL    HW211277   0.351   3.820   4.362 -0.2332 -0.8438 -0.4285
 2790SOL    HW311278   0.426   3.690   4.345  0.5225 -0.4240 -0.3263
 2790SOL    MW411279   0.404   3.769   4.316  0.4270 -0.3955 -0.1760
 2791SOL     OW11280   0.077   4.003   4.131  0.6024 -0.3236 -0.2553
 2791SOL    HW211281  -0.008   3.958   4.129  0.4358 -0.0120 -0.2879
 2791SOL    HW311282   0.090   4.023   4.224  1.1644 -1.3450 -0.1026
 2791SOL    MW411283   0.067   4.000   4.143  0.6546 -0.4177 -0.2394
 2792SOL     OW11284   3.861   2.249   4.109 -0.1348 -0.5441  0.0260
 2792SOL    HW211285   3.790   2.255   4.173  0.4373 -1.4189  0.7515
 2792SOL    HW311286   3.821   2.277   4.027 -1.6818 -2.3078  0.1454
 2792SOL    MW411287   3.846   2.254   4.107 -0.2632 -0.8924  0.1373
 2793SOL     OW11288   4.049   4.242   4.070  0.0238 -0.0576  0.1282
 2793SOL    HW211289   4.130   4.271   4.113  0.1316  1.2099 -0.8722
 2793SOL    HW311290   3.983   4.305   4.099 -0.2313 -0.0933 -0.3750
 2793SOL    MW411291   4.051   4.254   4.080  0.0048  0.1049 -0.0701
 2794SOL     OW11292   0.319   1.487   4.591  0.5783 -0.0654 -0.3389
 2794SOL    HW211293   0.365   1.404   4.601  1.9044  0.9393  2.8898
 2794SOL    HW311294   0.389   1.552   4.580 -0.3043  0.8850 -0.4530
 2794SOL    MW411295   0.334   1.485   4.591  0.6368  0.1926  0.0725
 2795SOL     OW11296   3.601   1.051   4.807  0.1275 -0.3344 -0.2743
 2795SOL    HW211297   3.593   1.147   4.804 -2.1600 -0.5387 -2.9939
 2795SOL    HW311298   3.694   1.034   4.793  0.3097  1.4659 -1.4225
 2795SOL    MW411299   3.612   1.062   4.805 -0.1504 -0.1239 -0.7844
 2796SOL     OW11300   4.158   2.938   4.511 -0.1802 -0.2398  0.3312
 2796SOL    HW211301   4.124   2.974   4.429  1.4195  0.6084  0.0120
 2796SOL    HW311302   4.126   2.998   4.578 -0.0789  0.0409  0.1323
 2796SOL    MW411303   4.149   2.950   4.509  0.0443 -0.0906  0.2627
 2797SOL     OW11304   0.061   0.634   4.545  0.3214  0.5680 -0.1747
 2797SOL    HW211305   0.125   0.616   4.614 -0.8541  1.0243  1.0506
 2797SOL    HW311306   0.051   0.729   4.545  1.2061  0.6753 -1.8037
 2797SOL    MW411307   0.068   0.644   4.554  0.2830  0.6424 -0.2279
 2798SOL     OW11308   4.014   0.924   4.219 -0.0898 -0.2778  0.3486
 2798SOL    HW211309   4.101   0.898   4.191 -0.3996 -1.9101  0.8509
 2798SOL    HW311310   3.958   0.849   4.199 -1.4122  0.7919 -0.0932
 2798SOL    MW411311   4.018   0.911   4.213 -0.3052 -0.3520  0.3572
 2799SOL     OW11312   3.279   1.628   4.641 -0.5354  0.0689  0.4849
 2799SOL    HW211313   3.191   1.594   4.656 -1.1024  1.4387  0.3818
 2799SOL    HW311314   3.270   1.723   4.650  0.7432  0.2981 -0.4271
 2799SOL    MW411315   3.266   1.636   4.644 -0.4418  0.2799  0.3510
 2800SOL     OW11316   0.765   3.006   4.601  0.5322  0.4617 -0.0863
 2800SOL    HW211317   0.808   3.009   4.516 -0.2923  1.9633 -0.4600
 2800SOL    HW311318   0.819   3.063   4.657 -0.5932  1.8352 -0.3869
 2800SOL    MW411319   0.778   3.014   4.597  0.2749  0.8409 -0.1745
 2801SOL     OW11320   0.986   3.527   4.330 -0.3070 -0.6716 -0.0736
 2801SOL    HW211321   1.056   3.590   4.317 -1.9784  1.4514  0.8942
 2801SOL    HW311322   0.923   3.545   4.261 -0.7188 -1.3915  0.0999
 2801SOL    MW411323   0.987   3.537   4.319 -0.5818 -0.4866  0.0763
 2802SOL     OW11324   3.468   3.105   4.050  0.1428  0.5794  0.2305
 2802SOL    HW211325   3.464   3.134   3.959 -1.1383  1.0217  0.4189
 2802SOL    HW311326   3.377   3.099   4.078  0.5224  0.4806  1.4999
 2802SOL    MW411327   3.456   3.108   4.042  0.0238  0.6247  0.4230
 2803SOL     OW11328   0.206   1.144   4.254 -0.0902  0.0115 -0.3747
 2803SOL    HW211329   0.128   1.127   4.202 -0.9596 -0.4565  1.0338
 2803SOL    HW311330   0.180   1.214   4.314  0.3501 -0.6126  0.5619
 2803SOL    MW411331   0.192   1.151   4.255 -0.1468 -0.1326 -0.0653
 2804SOL     OW11332   3.568   2.040   4.148  0.0406  0.0658  0.1055
 2804SOL    HW211333   3.567   2.047   4.052 -0.4435  0.9029  0.1712
 2804SOL    HW311334   3.639   1.977   4.166 -0.0277 -0.2869 -0.8083
 2804SOL    MW411335   3.577   2.033   4.138 -0.0322  0.1297 -0.0057
 2805SOL     OW11336   2.216   0.145   4.375 -0.0137  0.3839 -0.4526
 2805SOL    HW211337   2.247   0.184   4.293  1.4155 -2.4205 -1.3012
 2805SOL    HW311338   2.242   0.208   4.443  0.1620  2.0008 -1.9912
 2805SOL    MW411339   2.223   0.159   4.373  0.1979  0.2272 -0.7677
 2806SOL     OW11340   3.359   4.634   3.839  0.6549  0.0198  0.2082
 2806SOL    HW211341   3.384   4.600   3.924 -0.3441  0.3071  0.6269
 2806SOL    HW311342   3.433   4.687   3.811  0.2339  1.4551  1.7415
 2806SOL    MW411343   3.372   4.636   3.846  0.4675  0.2470  0.4659
 2807SOL     OW11344   3.034   0.058   4.656 -0.2142 -0.2031 -0.0571
 2807SOL    HW211345   2.942   0.033   4.647 -0.0541 -0.5296 -0.9130
 2807SOL    HW311346   3.032   0.149   4.686 -0.8176 -0.2147 -0.0603
 2807SOL    MW411347   3.022   0.067   4.659 -0.2725 -0.2477 -0.1702
 2808SOL     OW11348   2.780   3.213   4.123  0.2012 -0.1873  0.6845
 2808SOL    HW211349   2.779   3.211   4.219  0.6217 -0.1333  0.6896
 2808SOL    HW311350   2.842   3.144   4.099  0.1999 -0.1070  0.4530
 2808SOL    MW411351   2.788   3.203   4.133  0.2563 -0.1693  0.6547
 2809SOL     OW11352   2.458   2.479   4.746  0.0202 -0.3435  0.4755
 2809SOL    HW211353   2.389   2.540   4.770 -0.0324 -0.0063 -0.5281
 2809SOL    HW311354   2.415   2.394   4.743 -0.3001 -0.1671  0.0684
 2809SOL    MW411355   2.444   2.476   4.749 -0.0288 -0.2761  0.2890
 2810SOL     OW11356   3.192   3.084   4.453 -0.1404 -0.3441 -0.2808
 2810SOL    HW211357   3.121   3.143   4.478 -1.0736 -1.4886 -0.2195
 2810SOL    HW311358   3.272   3.131   4.478 -0.8991  0.5749  0.4494
 2810SOL    MW411359   3.194   3.098   4.460 -0.3636 -0.3736 -0.1764
 2811SOL     OW11360   0.581   4.276   4.122 -0.3408 -0.0527  0.1244
 2811SOL    HW211361   0.572   4.370   4.111  0.5296  0.1035  0.7188
 2811SOL    HW311362   0.674   4.259   4.106 -0.6677 -0.9329 -0.9025
 2811SOL    MW411363   0.592   4.286   4.118 -0.2691 -0.1478  0.0672
 2812SOL     OW11364   1.237   1.061   4.347 -0.8702  0.3361  0.0419
 2812SOL    HW211365   1.306   1.066   4.282  0.6760 -0.4278  1.5718
 2812SOL    HW311366   1.210   1.152   4.361 -0.1834  0.6390 -0.5863
 2812SOL    MW411367   1.242   1.074   4.341 -0.5755  0.2753  0.1612
 2813SOL     OW11368   1.136   1.616   4.718 -0.0841 -0.1721  0.1829
 2813SOL    HW211369   1.077   1.685   4.688 -1.0582 -0.3532  1.5974
 2813SOL    HW311370   1.085   1.536   4.714  1.1243 -0.8835 -1.6870
 2813SOL    MW411371   1.122   1.615   4.714 -0.0532 -0.2898  0.1235
 2814SOL     OW11372   4.079   2.480   4.484  0.1028  0.0033  0.0005
 2814SOL    HW211373   4.026   2.431   4.547  0.9729  0.7596  1.3401
 2814SOL    HW311374   4.032   2.563   4.472  0.9652  0.6917  1.2203
 2814SOL    MW411375   4.066   2.485   4.491  0.3314  0.1941  0.3386
 2815SOL     OW11376   2.909   4.632   3.898 -0.5032  0.6405  0.3032
 2815SOL    HW211377   2.979   4.677   3.852 -1.2089  1.5506  0.1064
 2815SOL    HW311378   2.940   4.626   3.989 -1.1360  3.0773  0.6946
 2815SOL    MW411379   2.922   4.637   3.904 -0.6795  1.0815  0.3290
 2816SOL     OW11380   0.259   2.261   4.101 -0.5545  0.2582  0.4115
 2816SOL    HW211381   0.332   2.321   4.117  0.1577 -0.6013  0.4038
 2816SOL    HW311382   0.256   2.205   4.178 -0.0922 -0.8394 -0.3565
 2816SOL    MW411383   0.268   2.262   4.113 -0.3995  0.0000  0.3090
 2817SOL     OW11384   3.299   1.305   4.441  0.0718 -0.3449  0.0615
 2817SOL    HW211385   3.232   1.258   4.491 -0.1219 -0.3021 -0.1539
 2817SOL    HW311386   3.378   1.299   4.494 -0.1110 -0.3763  0.3296
 2817SOL    MW411387   3.300   1.298   4.455  0.0219 -0.3433  0.0687
 2818SOL     OW11388   2.613   1.628   4.445 -0.0750  0.5241 -0.2855
 2818SOL    HW211389   2.695   1.638   4.492  0.7519 -1.5480 -1.2670
 2818SOL    HW311390   2.560   1.702   4.474  1.5298  0.9648  1.5834
 2818SOL    MW411391   2.617   1.639   4.455  0.2463  0.3089 -0.1683
 2819SOL     OW11392   4.066   0.861   4.492 -0.0882  0.5130 -0.2907
 2819SOL    HW211393   4.067   0.871   4.397 -1.3742  1.4089 -0.2083
 2819SOL    HW311394   4.138   0.917   4.523  0.0425  0.5681 -0.6980
 2819SOL    MW411395   4.076   0.870   4.484 -0.2403  0.6385 -0.3338
 2820SOL     OW11396   3.671   3.667   4.495  0.5557  0.4151  0.5109
 2820SOL    HW211397   3.691   3.740   4.555 -0.6156  0.4912  0.8134
 2820SOL    HW311398   3.661   3.709   4.410  0.9522  0.4643  0.4844
 2820SOL    MW411399   3.672   3.682   4.492  0.4532  0.4315  0.5474
 2821SOL     OW11400   2.771   2.268   4.629 -0.3422  0.0185 -0.2507
 2821SOL    HW211401   2.749   2.359   4.652 -0.9775 -0.3644  0.7148
 2821SOL    HW311402   2.807   2.232   4.710 -0.6934 -0.7777 -0.4503
 2821SOL    MW411403   2.773   2.276   4.643 -0.4718 -0.1373 -0.1493
 2822SOL     OW11404   1.963   0.146   4.264 -0.1240 -0.0482  0.4759
 2822SOL    HW211405   1.981   0.081   4.197  0.8811  1.1351 -0.4193
 2822SOL    HW311406   2.044   0.152   4.315 -0.6368 -0.4128  1.3489
 2822SOL    MW411407   1.976   0.139   4.262 -0.0590  0.0598  0.4730
 2823SOL     OW11408   1.225   4.324   4.150  0.0857 -0.1236 -0.4505
 2823SOL    HW211409   1.309   4.324   4.197 -0.5437 -3.9695  0.8720
 2823SOL    HW311410   1.248   4.303   4.059  0.7068  0.6913 -0.4865
 2823SOL    MW411411   1.239   4.322   4.144  0.0846 -0.5231 -0.2809
 2824SOL     OW11412   0.141   1.505   4.168  0.3677 -0.2544  0.3175
 2824SOL    HW211413   0.051   1.537   4.155 -0.4094 -0.9777  3.5886
 2824SOL    HW311414   0.190   1.584   4.192  0.1109 -0.2246  0.7582
 2824SOL    MW411415   0.135   1.520   4.169  0.2313 -0.3461  0.8073
 2825SOL     OW11416   2.454   2.360   3.783 -0.0551  0.2282 -0.2780
 2825SOL    HW211417   2.467   2.269   3.758  0.1254  0.2980 -0.4368
 2825SOL    HW311418   2.442   2.357   3.878  2.1344  0.2611  0.0261
 2825SOL    MW411419   2.454   2.348   3.792  0.2575  0.2418 -0.2589
 2826SOL     OW11420   2.412   2.268   4.037  0.4974 -0.1416  0.1765
 2826SOL    HW211421   2.479   2.308   4.093 -0.1324 -0.7030  1.3528
 2826SOL    HW311422   2.398   2.181   4.074 -0.7389 -0.1075 -0.1808
 2826SOL    MW411423   2.419   2.262   4.049  0.2513 -0.2112  0.2847
 2827SOL     OW11424   3.138   0.921   4.198 -0.1027  0.4748  0.0684
 2827SOL    HW211425   3.197   0.855   4.161 -1.8809 -0.9129 -0.3363
 2827SOL    HW311426   3.164   0.927   4.290 -0.5741 -1.5535  0.3648
 2827SOL    MW411427   3.149   0.913   4.205 -0.3996  0.0241  0.0539
 2828SOL     OW11428   0.521   2.660   4.086 -0.5013  0.3971  0.0448
 2828SOL    HW211429   0.487   2.653   3.996 -2.1740 -0.9842  0.7538
 2828SOL    HW311430   0.613   2.636   4.078 -0.6246  0.3372 -1.3247
 2828SOL    MW411431   0.529   2.656   4.073 -0.7383  0.2069 -0.0424
 2829SOL     OW11432   3.535   1.290   4.585  0.4388  0.4557  0.2252
 2829SOL    HW211433   3.620   1.249   4.566 -0.3652 -0.6638 -0.9745
 2829SOL    HW311434   3.552   1.384   4.579  1.0691  0.2036 -2.2929
 2829SOL    MW411435   3.549   1.297   4.582  0.4158  0.2748 -0.2651
 2830SOL     OW11436   0.911   4.517   4.199  0.7329  0.1881  0.0911
 2830SOL    HW211437   0.847   4.587   4.209 -0.7782 -1.3583  1.4006
 2830SOL    HW311438   0.995   4.564   4.187 -0.3746  2.1987 -0.0705
 2830SOL    MW411439   0.914   4.533   4.199  0.3874  0.2494  0.2422
 2831SOL     OW11440   3.082   3.797   4.237  0.0567  0.2769 -0.3385
 2831SOL    HW211441   3.069   3.703   4.233  0.7618  0.0836  1.2887
 2831SOL    HW311442   3.173   3.810   4.212 -0.0696  0.5411 -0.6713
 2831SOL    MW411443   3.092   3.787   4.233  0.1330  0.2863 -0.1678
 2832SOL     OW11444   3.854   3.483   4.413 -0.2019 -0.7074 -0.1202
 2832SOL    HW211445   3.810   3.468   4.330 -1.3465 -1.1550  0.5555
 2832SOL    HW311446   3.794   3.538   4.463  0.8547  0.2798  0.0983
 2832SOL    MW411447   3.840   3.488   4.409 -0.2136 -0.6361 -0.0024
 2833SOL     OW11448   1.048   1.437   4.247  0.3674 -0.3272 -0.6161
 2833SOL    HW211449   0.964   1.483   4.250 -0.0537 -1.1399  0.2862
 2833SOL    HW311450   1.108   1.498   4.204  0.1942  1.6487  1.8510
 2833SOL    MW411451   1.045   1.451   4.241  0.2891 -0.1737 -0.1712
 2834SOL     OW11452   3.380   3.902   3.855 -0.0702  0.0701  0.6556
 2834SOL    HW211453   3.383   3.810   3.829 -0.4011  0.3848 -0.5068
 2834SOL    HW311454   3.392   3.900   3.950 -0.7534 -1.2167  0.7279
 2834SOL    MW411455   3.382   3.890   3.864 -0.2038 -0.0582  0.5119
 2835SOL     OW11456   4.431   1.126   4.095  0.0038  0.3414  0.5479
 2835SOL    HW211457   4.369   1.199   4.105 -0.4691 -0.1275  1.0104
 2835SOL    HW311458   4.456   1.129   4.002  1.1261  2.0045  0.8758
 2835SOL    MW411459   4.426   1.136   4.084  0.0896  0.4989  0.6523
 2836SOL     OW11460   4.102   0.375   4.138 -0.2509  0.1774 -0.4556
 2836SOL    HW211461   4.115   0.288   4.176 -0.0325  0.4146  0.0202
 2836SOL    HW311462   4.179   0.425   4.165  0.2041  0.1756 -1.7416
 2836SOL    MW411463   4.113   0.370   4.147 -0.1626  0.2084 -0.5631
 2837SOL     OW11464   4.139   0.313   4.547 -0.5057  0.2649 -0.1183
 2837SOL    HW211465   4.221   0.355   4.522 -0.3852  0.8053  1.1132
 2837SOL    HW311466   4.162   0.222   4.564 -0.5078  0.0051 -1.5268
 2837SOL    MW411467   4.153   0.307   4.546 -0.4897  0.3019 -0.1416
 2838SOL     OW11468   2.965   2.041   4.436  0.0254 -0.0032  0.3613
 2838SOL    HW211469   3.011   2.125   4.446 -0.6664  0.3247  0.7895
 2838SOL    HW311470   2.929   2.023   4.523  1.3554 -1.4464  0.6396
 2838SOL    MW411471   2.967   2.050   4.449  0.1097 -0.1504  0.4544
 2839SOL     OW11472   4.173   1.427   4.519  0.0219  0.0009 -0.7866
 2839SOL    HW211473   4.156   1.480   4.442  1.1863 -0.4579 -1.3804
 2839SOL    HW311474   4.087   1.415   4.560 -0.1831  2.8161 -0.2994
 2839SOL    MW411475   4.160   1.432   4.515  0.1488  0.3119 -0.8011
 2840SOL     OW11476   3.857   2.855   4.240  0.1070  0.0257  0.2860
 2840SOL    HW211477   3.919   2.798   4.194  0.1238  0.7449 -0.5984
 2840SOL    HW311478   3.780   2.858   4.183  0.4101  1.5103 -0.0795
 2840SOL    MW411479   3.855   2.848   4.226  0.1493  0.3164  0.1211
 2841SOL     OW11480   1.600   1.198   4.493  0.0874  0.7326 -0.4232
 2841SOL    HW211481   1.546   1.121   4.509 -0.8813  1.2346 -1.1937
 2841SOL    HW311482   1.679   1.183   4.544  0.1997 -1.0799 -1.1146
 2841SOL    MW411483   1.603   1.186   4.502 -0.0256  0.5597 -0.6161
 2842SOL     OW11484   2.205   0.681   4.437  0.5316 -0.2328 -0.1044
 2842SOL    HW211485   2.292   0.650   4.462  0.9698  1.7868  0.9229
 2842SOL    HW311486   2.218   0.725   4.353  0.1396 -1.5456 -0.8843
 2842SOL    MW411487   2.218   0.682   4.429  0.5381 -0.1395 -0.0720
 2843SOL     OW11488   0.015   4.260   3.785 -0.3955  0.3078 -0.1748
 2843SOL    HW211489   0.019   4.165   3.770  0.1752  0.5233 -1.4315
 2843SOL    HW311490   0.107   4.287   3.790 -0.5603  0.7423  0.5954
 2843SOL    MW411491   0.028   4.251   3.784 -0.3420  0.3939 -0.2389
 2844SOL     OW11492   2.878   1.514   4.130  0.4045  0.6325 -0.2114
 2844SOL    HW211493   2.797   1.561   4.148 -0.2309 -0.1347 -1.0530
 2844SOL    HW311494   2.886   1.515   4.035  0.4210 -0.8880 -0.2394
 2844SOL    MW411495   2.868   1.521   4.120  0.3226  0.3307 -0.3262
 2845SOL     OW11496   2.182   4.114   4.257 -0.3810  0.0325 -0.3607
 2845SOL    HW211497   2.159   4.185   4.197  2.4134  0.6088 -0.8508
 2845SOL    HW311498   2.196   4.156   4.341  1.3898  0.1089 -0.6757
 2845SOL    MW411499   2.181   4.129   4.260  0.2213  0.1192 -0.4668
 2846SOL     OW11500   1.640   3.501   4.299  0.0229 -0.3945  0.1394
 2846SOL    HW211501   1.624   3.551   4.380  0.2680 -0.4644  0.2306
 2846SOL    HW311502   1.601   3.415   4.316  0.9710 -0.7455  0.5684
 2846SOL    MW411503   1.633   3.496   4.312  0.1804 -0.4501  0.2084
 2847SOL     OW11504   0.843   4.293   4.044 -0.4008  0.0287  0.2549
 2847SOL    HW211505   0.859   4.376   4.089 -0.1954  0.2120 -0.1568
 2847SOL    HW311506   0.886   4.227   4.099  0.5482  0.3498 -0.1023
 2847SOL    MW411507   0.851   4.295   4.057 -0.2486  0.0954  0.1531
 2848SOL     OW11508   0.619   3.317   4.191  0.1724  0.5149  0.0057
 2848SOL    HW211509   0.621   3.341   4.284 -1.8237  0.6649  0.0445
 2848SOL    HW311510   0.651   3.227   4.188 -1.1675 -0.0232  1.0512
 2848SOL    MW411511   0.623   3.309   4.203 -0.2677  0.4635  0.1483
 2849SOL     OW11512   3.841   1.480   4.080 -0.1332  0.6075  0.3001
 2849SOL    HW211513   3.759   1.434   4.094  0.3752  0.2180  2.0235
 2849SOL    HW311514   3.845   1.545   4.150  0.3788  1.5721 -0.5914
 2849SOL    MW411515   3.830   1.483   4.091  0.0017  0.6833  0.4096
 2850SOL     OW11516   2.513   2.798   4.727  0.3107 -0.1843  0.0386
 2850SOL    HW211517   2.423   2.768   4.737 -0.2599  1.0317 -1.2969
 2850SOL    HW311518   2.523   2.809   4.632  1.0411  2.2014  0.3773
 2850SOL    MW411519   2.502   2.795   4.715  0.3319  0.2909 -0.0930
 2851SOL     OW11520   0.402   1.673   4.230 -0.2597  0.7549  0.0875
 2851SOL    HW211521   0.426   1.752   4.180 -2.4328  0.7574 -1.0131
 2851SOL    HW311522   0.439   1.601   4.180  0.0037  0.9414  0.0106
 2851SOL    MW411523   0.410   1.674   4.217 -0.5116  0.7800 -0.0677
 2852SOL     OW11524   1.440   1.957   4.755 -0.0186 -0.2030  0.4057
 2852SOL    HW211525   1.497   2.014   4.703 -2.2177  0.5716 -1.1973
 2852SOL    HW311526   1.458   1.869   4.722  0.3550  0.0102  0.0260
 2852SOL    MW411527   1.450   1.953   4.744 -0.2595 -0.0726  0.1440
 2853SOL     OW11528   2.878   3.923   4.118 -0.2786 -0.5401  0.3900
 2853SOL    HW211529   2.799   3.885   4.155 -0.4664 -0.6694 -0.1360
 2853SOL    HW311530   2.950   3.879   4.165 -0.5200 -0.3194  0.9628
 2853SOL    MW411531   2.877   3.912   4.129 -0.3352 -0.5281  0.3963
 2854SOL     OW11532   0.258   3.806   4.063  0.0347 -0.3945  0.2032
 2854SOL    HW211533   0.321   3.790   4.133  0.7260  0.5412 -0.1947
 2854SOL    HW311534   0.205   3.879   4.094 -0.5501 -0.8782  0.3392
 2854SOL    MW411535   0.259   3.813   4.076  0.0487 -0.3350  0.1683
 2855SOL     OW11536   3.210   4.310   4.118  0.0207 -0.1927  0.1067
 2855SOL    HW211537   3.251   4.246   4.177  2.0092  0.7680 -0.1667
 2855SOL    HW311538   3.130   4.336   4.163  0.1668 -1.4466  1.1300
 2855SOL    MW411539   3.205   4.305   4.132  0.3023 -0.2317  0.2055
 2856SOL     OW11540   0.847   4.198   4.715 -0.3492  0.1819  0.2835
 2856SOL    HW211541   0.857   4.159   4.802 -0.3846 -0.7097 -0.1049
 2856SOL    HW311542   0.935   4.197   4.678 -0.4038  0.1869  0.1523
 2856SOL    MW411543   0.860   4.193   4.721 -0.3610  0.0653  0.2155
 2857SOL     OW11544   2.937   2.957   4.683 -0.2297 -0.1968  0.0867
 2857SOL    HW211545   2.977   3.044   4.689  0.5256 -0.6433  2.2430
 2857SOL    HW311546   2.892   2.956   4.599  0.2619  2.0631 -0.2267
 2857SOL    MW411547   2.936   2.968   4.673 -0.0653  0.0424  0.3295
 2858SOL     OW11548   0.086   3.156   4.467  0.8603 -0.1265 -0.1067
 2858SOL    HW211549  -0.006   3.182   4.457  0.6748  0.0049  1.7995
 2858SOL    HW311550   0.109   3.119   4.382 -1.6145 -2.1466  0.0282
 2858SOL    MW411551   0.077   3.154   4.455  0.5093 -0.3757  0.1626
 2859SOL     OW11552   4.153   0.126   4.244 -0.1919  0.2112  0.5854
 2859SOL    HW211553   4.163   0.090   4.332 -0.0296 -1.0046  0.0770
 2859SOL    HW311554   4.071   0.089   4.211 -0.9813  1.7927  0.7588
 2859SOL    MW411555   4.144   0.116   4.251 -0.2742  0.2594  0.5412
 2860SOL     OW11556   2.965   0.994   4.556 -0.3542 -0.5848 -0.1110
 2860SOL    HW211557   3.025   0.952   4.495 -1.0578 -0.7718 -0.6812
 2860SOL    HW311558   2.880   0.951   4.540 -0.6648 -0.2544  0.6068
 2860SOL    MW411559   2.961   0.983   4.546 -0.4880 -0.5658 -0.0916
 2861SOL     OW11560   2.596   1.349   4.521  0.0778  0.2059 -0.4005
 2861SOL    HW211561   2.584   1.442   4.502 -0.6159  0.3057  0.4878
 2861SOL    HW311562   2.691   1.338   4.525  0.1651  1.3168  1.5023
 2861SOL    MW411563   2.607   1.360   4.519 -0.0021  0.3655 -0.0324
 2862SOL     OW11564   2.158   3.068   4.302  0.4895  0.1297  0.0627
 2862SOL    HW211565   2.192   3.130   4.237  0.1960  2.0091  1.6411
 2862SOL    HW311566   2.235   3.033   4.345  0.6037  1.6628  1.1699
 2862SOL    MW411567   2.172   3.072   4.299  0.4661  0.5801  0.4172
 2863SOL     OW11568   1.351   3.962   4.415 -0.0384  0.3192 -0.7397
 2863SOL    HW211569   1.348   3.869   4.439  2.0733 -0.2127 -2.2722
 2863SOL    HW311570   1.405   4.003   4.483  0.8557 -0.0177 -1.2331
 2863SOL    MW411571   1.358   3.955   4.427  0.3582  0.2043 -1.0071
 2864SOL     OW11572   3.410   2.727   4.183  0.2187  0.3018  0.6285
 2864SOL    HW211573   3.468   2.790   4.141  0.0957 -0.7393 -1.1287
 2864SOL    HW311574   3.469   2.667   4.229  0.4814 -0.1802 -0.3401
 2864SOL    MW411575   3.425   2.728   4.184  0.2372  0.1009  0.2685
 2865SOL     OW11576   0.409   3.528   4.447 -0.1447 -0.4092 -0.1574
 2865SOL    HW211577   0.428   3.576   4.528 -0.4134  0.8808 -0.8477
 2865SOL    HW311578   0.341   3.465   4.472  0.1514 -0.3802  0.7415
 2865SOL    MW411579   0.403   3.526   4.461 -0.1411 -0.2353 -0.1302
 2866SOL     OW11580   2.631   1.648   4.178 -0.3035 -0.6453 -0.0603
 2866SOL    HW211581   2.568   1.585   4.142 -2.2408  0.7531  0.7874
 2866SOL    HW311582   2.626   1.636   4.273  0.6024 -0.3966  0.0230
 2866SOL    MW411583   2.622   1.638   4.186 -0.4394 -0.4280  0.0625
 2867SOL     OW11584   2.630   0.179   4.511  0.4271 -0.1427 -0.1082
 2867SOL    HW211585   2.624   0.145   4.421  1.8737 -0.4347 -0.0993
 2867SOL    HW311586   2.692   0.252   4.505  1.5746 -1.0178  0.8854
 2867SOL    MW411587   2.637   0.184   4.498  0.7694 -0.2967  0.0234
 2868SOL     OW11588   1.039   2.255   4.356 -0.1206 -0.0491  0.1991
 2868SOL    HW211589   1.107   2.195   4.386 -0.2232 -0.1976  0.1325
 2868SOL    HW311590   1.086   2.336   4.335  0.1389 -0.4028 -0.5991
 2868SOL    MW411591   1.054   2.258   4.357 -0.0999 -0.1154  0.0849
 2869SOL     OW11592   1.401   1.688   4.623 -0.1769 -0.4887  0.1977
 2869SOL    HW211593   1.319   1.669   4.668 -1.1330  0.3082 -1.1661
 2869SOL    HW311594   1.423   1.605   4.579 -1.2806 -0.1644 -1.0050
 2869SOL    MW411595   1.393   1.674   4.623 -0.4488 -0.3408 -0.1411
 2870SOL     OW11596   2.506   0.455   4.226  0.6736 -0.1134  0.2985
 2870SOL    HW211597   2.505   0.537   4.177  2.2863 -0.1052  0.2661
 2870SOL    HW311598   2.591   0.416   4.207  0.1938 -1.4777  0.8539
 2870SOL    MW411599   2.517   0.461   4.217  0.8230 -0.2923  0.3676
 2871SOL     OW11600   4.471   0.893   4.230 -0.0957  0.3559  0.2204
 2871SOL    HW211601   4.449   0.981   4.200 -0.0680  0.5360  0.7376
 2871SOL    HW311602   4.389   0.843   4.220 -0.5084  0.8041  1.3041
 2871SOL    MW411603   4.457   0.898   4.224 -0.1469  0.4388  0.4315
 2872SOL     OW11604   1.797   0.511   4.627  0.3917  0.1486  0.2573
 2872SOL    HW211605   1.772   0.449   4.559  0.0161 -1.8585  2.1927
 2872SOL    HW311606   1.845   0.580   4.580 -1.6644 -0.1012 -2.3207
 2872SOL    MW411607   1.800   0.512   4.612  0.0709 -0.1492  0.1726
 2873SOL     OW11608   0.532   3.109   4.510 -0.1230  0.0359 -0.2890
 2873SOL    HW211609   0.611   3.072   4.550 -0.5456  0.8434  1.3468
 2873SOL    HW311610   0.481   3.033   4.482  0.0687 -0.5648  0.9459
 2873SOL    MW411611   0.536   3.094   4.511 -0.1535  0.0632  0.0896
 2874SOL     OW11612   2.683   0.610   4.597 -0.1462  0.1706  0.4324
 2874SOL    HW211613   2.597   0.599   4.557  0.3781 -0.9876 -0.3954
 2874SOL    HW311614   2.706   0.702   4.582 -1.9919  0.9674  2.2199
 2874SOL    MW411615   2.675   0.621   4.590 -0.3207  0.1229  0.5589
 2875SOL     OW11616   1.090   4.288   4.613 -0.1919 -0.3976 -0.1100
 2875SOL    HW211617   1.106   4.231   4.538  1.1146  0.7599 -0.7297
 2875SOL    HW311618   1.037   4.360   4.577  0.5108  0.2051  0.0611
 2875SOL    MW411619   1.085   4.290   4.598  0.0732 -0.1655 -0.1693
 2876SOL     OW11620   1.199   3.712   4.281  0.3533  0.2386 -0.0836
 2876SOL    HW211621   1.271   3.690   4.223  0.5595  2.1226 -0.5730
 2876SOL    HW311622   1.234   3.699   4.369 -0.3273 -3.7804 -0.3130
 2876SOL    MW411623   1.213   3.708   4.285  0.2908 -0.0432 -0.1788
 2877SOL     OW11624   3.570   1.026   4.098 -0.2278  0.2020  0.2837
 2877SOL    HW211625   3.483   1.064   4.102 -0.0547  0.5167  1.1794
 2877SOL    HW311626   3.562   0.942   4.142 -0.1164  0.1548  0.2166
 2877SOL    MW411627   3.557   1.020   4.104 -0.1903  0.2372  0.3934
 2878SOL     OW11628   4.168   3.445   4.290 -0.2282 -0.1816 -0.3643
 2878SOL    HW211629   4.193   3.375   4.351 -0.4985 -1.4180 -1.6575
 2878SOL    HW311630   4.249   3.466   4.243 -0.3341 -0.1764 -0.5424
 2878SOL    MW411631   4.182   3.439   4.292 -0.2775 -0.3440 -0.5584
 2879SOL     OW11632   2.823   0.377   4.489 -0.0310  0.1966  0.2530
 2879SOL    HW211633   2.850   0.407   4.402 -1.4986  1.1615  0.1143
 2879SOL    HW311634   2.776   0.452   4.527  2.0716  0.4343  2.5822
 2879SOL    MW411635   2.821   0.391   4.483  0.0525  0.3553  0.5426
 2880SOL     OW11636   0.134   3.561   4.069  0.1188  0.0641 -0.0909
 2880SOL    HW211637   0.158   3.652   4.050 -0.5369  0.3680  0.4776
 2880SOL    HW311638   0.101   3.527   3.986  0.7283  0.2293 -0.3998
 2880SOL    MW411639   0.132   3.569   4.055  0.1127  0.1259 -0.0563
 2881SOL     OW11640   2.501   3.089   4.084 -0.0803 -0.1499 -0.3160
 2881SOL    HW211641   2.592   3.112   4.106 -0.5328  1.3871  0.0028
 2881SOL    HW311642   2.490   3.000   4.118  0.8629  0.2065  0.9879
 2881SOL    MW411643   2.512   3.081   4.092 -0.0160  0.0997 -0.1020
 2882SOL     OW11644   2.695   3.928   4.522 -0.4372  0.2990 -0.1526
 2882SOL    HW211645   2.623   3.870   4.548  1.1361 -0.3607  2.8978
 2882SOL    HW311646   2.665   4.016   4.545 -0.9959  0.2394 -0.6309
 2882SOL    MW411647   2.681   3.932   4.528 -0.3033  0.2041  0.1869
 2883SOL     OW11648   3.575   0.288   4.552 -0.0796  0.8207 -0.1356
 2883SOL    HW211649   3.597   0.201   4.518  0.6633  0.8344  0.2946
 2883SOL    HW311650   3.538   0.271   4.638 -0.1072  0.9133 -0.1291
 2883SOL    MW411651   3.573   0.274   4.559  0.0145  0.8348 -0.0782
 2884NA      NA11652   4.130   3.500   0.490 -0.2956 -0.0781 -0.0789
 2885NA      NA11653   1.138   4.089   0.442  0.1080 -0.1879  0.2491
 2886NA      NA11654   3.099   2.786   0.869 -0.9475  0.3606 -0.3357
 2887NA      NA11655   0.731   1.574   0.865 -0.1239 -0.2027  0.2926
   4.49070   4.66690  10.00000
