Gromacs Runs On Most of All Computer Systems in water
11619
    1RU5    O5'    1   1.619   2.221   4.946 -0.3609 -0.6427 -0.0053
    1RU5    H5T    2   1.639   2.315   4.953 -1.5044 -0.4767  1.1747
    1RU5    C5'    3   1.583   2.191   4.813  0.3998  0.0452 -0.2488
    1RU5   H5'1    4   1.613   2.276   4.751 -1.3973  0.7405 -0.2021
    1RU5   H5'2    5   1.477   2.170   4.800 -0.2207  1.0746  2.8165
    1RU5    C4'    6   1.656   2.065   4.771  0.7437 -0.5816 -0.0110
    1RU5    H4'    7   1.756   2.072   4.813  0.1036  3.1978  1.1238
    1RU5    O4'    8   1.594   1.955   4.832 -0.1291 -0.1798  0.0573
    1RU5    C1'    9   1.604   1.840   4.754 -0.2701 -0.0927 -0.1538
    1RU5    H1'   10   1.706   1.802   4.757  0.2291  1.1020 -1.2460
    1RU5     N1   11   1.499   1.740   4.794  0.0218 -0.4983  0.2474
    1RU5     C6   12   1.376   1.780   4.829  0.1437 -0.7852  0.2549
    1RU5     H6   13   1.355   1.886   4.833  0.9648 -0.6404  0.9238
    1RU5     C5   14   1.279   1.689   4.862 -0.2533  0.1129  0.1456
    1RU5     H5   15   1.187   1.727   4.903 -0.4026 -0.8697  0.7283
    1RU5     C4   16   1.305   1.545   4.847  0.4415 -0.0800 -0.5713
    1RU5     O4   17   1.221   1.459   4.859 -0.3147 -0.5352  0.8648
    1RU5     N3   18   1.435   1.516   4.813  0.0447  0.2318  0.9207
    1RU5     H3   19   1.460   1.419   4.805  0.6705  0.5343 -1.0399
    1RU5     C2   20   1.533   1.604   4.783  0.0239 -0.2748  0.3123
    1RU5     O2   21   1.643   1.562   4.756  0.2290  0.0370  0.2772
    1RU5    C3'   22   1.653   2.040   4.624  0.4882  0.0327  0.1451
    1RU5    H3'   23   1.588   2.113   4.575  0.2120 -0.0468  0.3922
    1RU5    C2'   24   1.578   1.901   4.619 -0.5228  0.0386  0.4650
    1RU5   H2'1   25   1.473   1.929   4.606 -0.3469  0.1866 -0.7672
    1RU5    O2'   26   1.602   1.812   4.509 -0.4156  0.1983 -0.4638
    1RU5   HO'2   27   1.695   1.790   4.502 -0.5283 -0.2364 -0.5869
    1RU5    O3'   28   1.783   2.028   4.574 -0.0947 -0.1087 -0.1487
    2RG       P   29   1.867   2.156   4.533  0.0655 -0.1406  0.0124
    2RG     O1P   30   1.774   2.244   4.454 -0.1415  0.3439 -0.0026
    2RG     O2P   31   1.994   2.107   4.476  0.0942  0.0220 -0.0324
    2RG     O5'   32   1.892   2.230   4.666 -0.6345 -0.0903  0.5389
    2RG     C5'   33   1.923   2.365   4.671 -0.5062  0.4866 -0.1350
    2RG    H5'1   34   1.837   2.425   4.641  0.1822  0.7017 -1.7605
    2RG    H5'2   35   2.005   2.394   4.605 -0.5025  0.8878  0.0431
    2RG     C4'   36   1.964   2.423   4.813  0.1731 -0.0405  0.1559
    2RG     H4'   37   1.902   2.374   4.888  1.8540  0.5688  1.9753
    2RG     O4'   38   2.101   2.391   4.848  0.1007 -0.1784 -0.4196
    2RG     C1'   39   2.178   2.507   4.858 -0.4289 -0.3037  0.2761
    2RG     H1'   40   2.230   2.503   4.953  0.1160 -0.4010 -0.0275
    2RG      N9   41   2.264   2.523   4.740 -0.2247  0.1992  0.5312
    2RG      C8   42   2.261   2.614   4.638  0.5057 -0.2685 -0.0245
    2RG      H8   43   2.179   2.679   4.610  0.0703 -1.3020 -1.1928
    2RG      N7   44   2.365   2.616   4.558 -0.0180  0.9530 -0.5973
    2RG      C5   45   2.449   2.517   4.618 -0.9518  0.2202  0.3384
    2RG      C6   46   2.579   2.470   4.585 -0.4364 -0.1668 -0.7171
    2RG      O6   47   2.660   2.489   4.487  0.1801 -0.0747  0.2220
    2RG      N1   48   2.624   2.367   4.665  0.5784 -0.1476  0.3076
    2RG      H1   49   2.713   2.324   4.640  1.2174  1.2215  0.1584
    2RG      C2   50   2.558   2.326   4.773 -0.6935  0.4457 -0.0735
    2RG      N2   51   2.610   2.232   4.842 -0.0054 -0.2671  0.3793
    2RG     H21   52   2.702   2.200   4.814 -0.0746  1.3272 -1.7934
    2RG     H22   53   2.559   2.200   4.923  0.3677 -0.7844  0.4133
    2RG      N3   54   2.437   2.368   4.814 -0.1567 -0.1747 -0.5899
    2RG      C4   55   2.388   2.465   4.730  0.3674  0.0518 -0.0113
    2RG     C3'   56   1.946   2.573   4.814 -0.3418 -0.2613  0.3888
    2RG     H3'   57   1.942   2.611   4.712 -2.9125 -1.2859  0.0526
    2RG     C2'   58   2.075   2.625   4.874 -0.7165  0.1037 -0.4718
    2RG    H2'1   59   2.108   2.718   4.830 -1.6676  0.3617 -0.6418
    2RG     O2'   60   2.060   2.648   5.011  0.0871  0.1771  0.3115
    2RG    HO'2   61   1.965   2.643   5.026 -0.3490  1.0785 -1.9672
    2RG     O3'   62   1.829   2.617   4.877 -0.2827 -0.3117  0.3810
    3RG3      P   63   1.683   2.612   4.812 -0.1622  0.0894 -0.5641
    3RG3    O1P   64   1.628   2.487   4.866  0.3961  0.0598  0.1109
    3RG3    O2P   65   1.690   2.630   4.665 -0.9116  0.0036  0.2445
    3RG3    O5'   66   1.596   2.729   4.865 -0.0968  0.2436  0.3761
    3RG3    C5'   67   1.526   2.723   4.993  0.4876  0.1314 -0.3933
    3RG3   H5'1   68   1.601   2.676   5.058  1.4704 -2.2671 -3.1596
    3RG3   H5'2   69   1.440   2.656   4.988 -0.2313  1.1200 -1.5403
    3RG3    C4'   70   1.473   2.857   5.053 -1.0954  0.1375  0.0402
    3RG3    H4'   71   1.424   2.836   5.148  0.6124 -0.1595  0.8717
    3RG3    O4'   72   1.585   2.947   5.066  0.0316  0.0792 -0.0222
    3RG3    C1'   73   1.578   3.052   4.975  0.2497  0.2769  0.3937
    3RG3    H1'   74   1.554   3.144   5.028  1.1456  1.1771 -0.7240
    3RG3     N9   75   1.710   3.074   4.903  0.7991  0.1376  0.5044
    3RG3     C8   76   1.805   2.979   4.870  0.2767  0.4367 -0.8141
    3RG3     H8   77   1.800   2.883   4.920 -1.5596  0.9731  0.1050
    3RG3     N7   78   1.884   3.017   4.774  0.3271  0.2109 -0.3841
    3RG3     C5   79   1.851   3.153   4.753  0.1922 -0.5078 -0.4515
    3RG3     C6   80   1.907   3.250   4.666 -0.1471  0.3244 -0.1388
    3RG3     O6   81   2.010   3.241   4.597 -0.1590  0.2100 -0.2647
    3RG3     N1   82   1.845   3.369   4.666 -0.3615  0.1082  0.2635
    3RG3     H1   83   1.886   3.450   4.622 -1.6248  0.5159 -0.1822
    3RG3     C2   84   1.735   3.392   4.749 -0.1119  0.1481 -0.1041
    3RG3     N2   85   1.678   3.511   4.746  0.0761  0.2221 -0.0694
    3RG3    H21   86   1.596   3.525   4.804  1.2164  3.1768  0.9349
    3RG3    H22   87   1.707   3.589   4.689 -1.7519  0.0407 -1.2987
    3RG3     N3   88   1.678   3.303   4.829 -0.4830  0.0696  0.3443
    3RG3     C4   89   1.744   3.187   4.828  0.5649 -0.2382 -0.1112
    3RG3    C3'   90   1.381   2.929   4.955  0.0842 -0.1843 -0.1051
    3RG3    H3'   91   1.335   2.851   4.894 -1.7474 -0.2076  1.2501
    3RG3    C2'   92   1.466   3.024   4.875  0.0514  0.3439 -0.0879
    3RG3   H2'1   93   1.501   2.977   4.783 -0.6276 -0.0360 -0.1581
    3RG3    O2'   94   1.405   3.146   4.835  0.3231 -0.3810  0.6556
    3RG3   HO'2   95   1.476   3.202   4.803  1.2221 -1.5866  0.5010
    3RG3    O3'   96   1.285   3.004   5.022 -0.2283  0.7427  0.3503
    3RG3    H3T   97   1.287   3.088   4.975  1.3845 -0.3065 -1.5257
    7SOL     OW   98   2.050   1.246   0.443 -0.1890 -0.1555  0.0633
    7SOL    HW2   99   2.030   1.251   0.536  0.0131  2.2614  0.0111
    7SOL    HW3  100   1.967   1.223   0.401 -0.6778  0.4835  0.6840
    7SOL    MW4  101   2.037   1.243   0.449 -0.2270  0.2476  0.1383
    8SOL     OW  102   4.291   0.089   0.743 -0.2198 -0.3446  0.0228
    8SOL    HW2  103   4.356   0.134   0.797  0.9916 -0.8648 -0.9748
    8SOL    HW3  104   4.330   0.004   0.725 -1.0432 -0.5384 -0.8659
    8SOL    MW4  105   4.305   0.084   0.748 -0.1688 -0.4388 -0.2261
    9SOL     OW  106   2.197   1.483   0.392  0.2966  0.2492 -0.3315
    9SOL    HW2  107   2.165   1.393   0.385 -0.3087  0.4895 -0.6797
    9SOL    HW3  108   2.292   1.476   0.383  0.1525 -0.2337 -1.4663
    9SOL    MW4  109   2.205   1.470   0.390  0.1979  0.2172 -0.5271
   10SOL     OW  110   3.836   0.482   0.776  0.1965  0.1420  0.2565
   10SOL    HW2  111   3.749   0.461   0.809  0.0667 -0.5739 -0.5325
   10SOL    HW3  112   3.843   0.577   0.788 -0.9319  0.2972 -0.2497
   10SOL    MW4  113   3.825   0.492   0.782  0.0303  0.0680  0.0857
   11SOL     OW  114   3.875   1.270   0.472 -0.1228 -0.4657 -0.0664
   11SOL    HW2  115   3.789   1.249   0.436 -0.6619  0.4355  0.6652
   11SOL    HW3  116   3.858   1.290   0.564  0.5290  1.8810 -0.4230
   11SOL    MW4  117   3.862   1.270   0.479 -0.1078 -0.0371 -0.0169
   12SOL     OW  118   4.338   3.948   0.755 -0.1924  0.6068  0.0468
   12SOL    HW2  119   4.378   3.955   0.842 -0.0382 -1.5178  0.1851
   12SOL    HW3  120   4.257   3.998   0.762  0.1459  1.0102  1.2119
   12SOL    MW4  121   4.333   3.955   0.768 -0.1268  0.3798  0.2187
   13SOL     OW  122   2.010   0.530   0.749 -0.6486 -0.0789 -0.1089
   13SOL    HW2  123   2.016   0.543   0.654 -0.0458 -0.2684 -0.1038
   13SOL    HW3  124   1.944   0.462   0.759  0.5890 -1.3835 -0.5268
   13SOL    MW4  125   2.002   0.522   0.738 -0.4058 -0.2760 -0.1634
   14SOL     OW  126   0.690   0.796   1.222  0.0235 -0.7579 -0.3460
   14SOL    HW2  127   0.710   0.792   1.128  1.2642 -0.7155 -0.0930
   14SOL    HW3  128   0.602   0.834   1.226  0.7890  1.1540 -1.3950
   14SOL    MW4  129   0.681   0.800   1.210  0.2881 -0.5000 -0.4511
   15SOL     OW  130   1.328   1.152   0.894  0.0899  0.4358  0.2170
   15SOL    HW2  131   1.405   1.188   0.848  0.7315  0.5241  1.3347
   15SOL    HW3  132   1.255   1.206   0.864  0.4258  0.2376 -1.0035
   15SOL    MW4  133   1.329   1.164   0.884  0.2189  0.4213  0.2034
   16SOL     OW  134   1.354   0.087   0.753  0.1310 -0.5208 -0.3351
   16SOL    HW2  135   1.437   0.048   0.780  0.1806 -0.3353 -0.2155
   16SOL    HW3  136   1.361   0.179   0.780 -0.8056 -0.8926  1.2619
   16SOL    MW4  137   1.366   0.094   0.760  0.0139 -0.5453 -0.1087
   17SOL     OW  138   3.525   0.768   0.353  0.0161  0.6177  0.0362
   17SOL    HW2  139   3.443   0.746   0.398  0.2880 -1.1749 -0.3022
   17SOL    HW3  140   3.498   0.803   0.268 -0.4149  0.3496  0.0615
   17SOL    MW4  141   3.511   0.770   0.348 -0.0048  0.3458 -0.0051
   18SOL     OW  142   4.264   2.299   1.121  0.0236 -0.0215  0.5595
   18SOL    HW2  143   4.258   2.334   1.032  1.7834 -0.5896  0.1963
   18SOL    HW3  144   4.192   2.340   1.168 -1.7066 -0.6645 -1.4510
   18SOL    MW4  145   4.254   2.309   1.115  0.0277 -0.1812  0.2463
   19SOL     OW  146   3.124   2.205   0.196 -0.1057 -0.2203 -0.3789
   19SOL    HW2  147   3.198   2.226   0.253 -1.0072  0.3017  0.6240
   19SOL    HW3  148   3.127   2.272   0.127 -0.5460  0.7449  0.5213
   19SOL    MW4  149   3.134   2.217   0.194 -0.2828 -0.0241 -0.1278
   20SOL     OW  150   3.543   3.204   0.682  0.2454 -0.4040  0.1185
   20SOL    HW2  151   3.483   3.158   0.742 -0.2402  0.0707  0.0038
   20SOL    HW3  152   3.629   3.195   0.723 -0.1059  0.0764  0.9952
   20SOL    MW4  153   3.546   3.197   0.695  0.1352 -0.2782  0.2190
   21SOL     OW  154   0.565   2.704   0.519  0.3005 -0.2256  0.2659
   21SOL    HW2  155   0.630   2.637   0.499  1.1622  0.9647 -1.0025
   21SOL    HW3  156   0.614   2.787   0.516 -1.2642  0.6861 -0.7731
   21SOL    MW4  157   0.580   2.706   0.516  0.2077  0.0517 -0.0386
   22SOL     OW  158   2.275   3.510   0.381  0.2245 -0.0717  0.6754
   22SOL    HW2  159   2.192   3.510   0.333 -0.6605  1.5291  2.1609
   22SOL    HW3  160   2.283   3.421   0.414 -0.1134 -0.6677 -0.8266
   22SOL    MW4  161   2.265   3.499   0.379  0.0632  0.0610  0.6733
   23SOL     OW  162   1.545   4.301   0.497 -0.1331 -0.0027 -0.1138
   23SOL    HW2  163   1.454   4.320   0.522  0.0109 -1.4823  1.6412
   23SOL    HW3  164   1.537   4.225   0.439 -0.1152  0.7484 -1.1112
   23SOL    MW4  165   1.532   4.293   0.493 -0.1118 -0.0987 -0.0138
   24SOL     OW  166   3.897   3.850   0.878  0.3196  0.0810 -0.3664
   24SOL    HW2  167   3.873   3.881   0.965  1.2715  0.7080 -0.3191
   24SOL    HW3  168   3.820   3.866   0.824  0.0936  0.6608  0.1210
   24SOL    MW4  169   3.884   3.856   0.883  0.4153  0.2401 -0.2958
   25SOL     OW  170   1.147   2.094   0.467 -0.7745  0.4837  0.2123
   25SOL    HW2  171   1.115   2.175   0.426 -0.8888 -0.4535 -1.5982
   25SOL    HW3  172   1.240   2.093   0.448 -0.7820  0.1608  0.1888
   25SOL    MW4  173   1.155   2.105   0.459 -0.7905  0.3176 -0.0296
   26SOL     OW  174   3.368   2.113   0.530  0.5960 -0.1312 -0.2308
   26SOL    HW2  175   3.439   2.055   0.502  0.6925  0.2072 -0.6811
   26SOL    HW3  176   3.370   2.186   0.469  0.6773  0.5154  0.5281
   26SOL    MW4  177   3.377   2.115   0.518  0.6192 -0.0010 -0.1901
   27SOL     OW  178   4.317   3.686   0.671  0.2789 -0.3155 -0.3217
   27SOL    HW2  179   4.328   3.774   0.708  0.9446 -0.5715  0.1102
   27SOL    HW3  180   4.335   3.697   0.578  0.6807 -0.0520 -0.2142
   27SOL    MW4  181   4.321   3.699   0.664  0.4196 -0.3147 -0.2506
   28SOL     OW  182   0.976   0.618   0.569 -0.1253  0.2240  0.3360
   28SOL    HW2  183   0.985   0.586   0.479  0.4602 -0.5942  0.6760
   28SOL    HW3  184   1.023   0.702   0.570 -0.7586  0.5920 -0.2949
   28SOL    MW4  185   0.983   0.625   0.557 -0.1316  0.1646  0.2976
   29SOL     OW  186   0.563   2.401   0.878 -0.1394 -0.3720 -0.0756
   29SOL    HW2  187   0.546   2.495   0.874 -0.1481 -0.3565  0.3342
   29SOL    HW3  188   0.611   2.388   0.960 -0.1887 -0.7327 -0.1003
   29SOL    MW4  189   0.567   2.412   0.888 -0.1470 -0.4175 -0.0248
   30SOL     OW  190   3.704   0.928   0.492 -0.0367  0.0507  0.1519
   30SOL    HW2  191   3.671   0.908   0.579  0.1703 -0.5434  0.0954
   30SOL    HW3  192   3.646   0.880   0.433 -0.4863  0.8509 -0.0675
   30SOL    MW4  193   3.692   0.919   0.496 -0.0689  0.0779  0.1155
   31SOL     OW  194   4.028   1.161   0.858  0.3185 -0.2142  0.0268
   31SOL    HW2  195   4.019   1.145   0.951  0.0703  0.3248  0.0960
   31SOL    HW3  196   4.108   1.213   0.849  0.2140 -0.0629 -0.0372
   31SOL    MW4  197   4.037   1.166   0.869  0.2723 -0.1231  0.0275
   32SOL     OW  198   2.545   0.186   0.490  0.2962  0.2313  0.1405
   32SOL    HW2  199   2.640   0.184   0.498  0.2168 -0.4304  0.9796
   32SOL    HW3  200   2.527   0.261   0.433  1.2543  1.1138  0.9706
   32SOL    MW4  201   2.555   0.196   0.484  0.4120  0.2604  0.3607
   33SOL     OW  202   1.549   1.279   0.768  0.3363  0.5446  0.2043
   33SOL    HW2  203   1.523   1.261   0.677 -0.6900  0.5100  0.4974
   33SOL    HW3  204   1.526   1.371   0.782 -1.5928 -0.0572  1.1237
   33SOL    MW4  205   1.542   1.288   0.758 -0.0536  0.4606  0.3643
   34SOL     OW  206   1.373   0.363   0.842 -0.1721  0.2155  0.3459
   34SOL    HW2  207   1.290   0.399   0.810 -0.9155 -0.7139  1.2057
   34SOL    HW3  208   1.375   0.384   0.935  0.6452  0.3683  0.3046
   34SOL    MW4  209   1.363   0.371   0.850 -0.1622  0.1131  0.4539
   35SOL     OW  210   2.406   2.836   0.707  0.0777 -0.0428  0.0830
   35SOL    HW2  211   2.330   2.804   0.755 -0.2582  1.5483  0.6529
   35SOL    HW3  212   2.478   2.779   0.735 -0.7450 -1.0712  0.1142
   35SOL    MW4  213   2.406   2.825   0.717 -0.0751  0.0317  0.1624
   36SOL     OW  214   3.346   3.093   0.838 -0.0477 -0.9084  0.6164
   36SOL    HW2  215   3.271   3.147   0.812  1.0875  1.0500  1.3667
   36SOL    HW3  216   3.358   3.112   0.931  1.7401 -0.7580  0.3710
   36SOL    MW4  217   3.337   3.103   0.847  0.3381 -0.6301  0.6830
   37SOL     OW  218   0.036   0.883   0.752  0.1914 -0.3314  0.2149
   37SOL    HW2  219  -0.047   0.861   0.793 -0.3767 -0.2983 -0.9082
   37SOL    HW3  220   0.052   0.813   0.690  0.2000  0.4907 -0.7261
   37SOL    MW4  221   0.027   0.871   0.749  0.1183 -0.2185 -0.0575
   38SOL     OW  222   2.868   1.719   0.552 -0.2777  0.1781 -0.1788
   38SOL    HW2  223   2.842   1.811   0.539  1.5374  0.8906  0.9785
   38SOL    HW3  224   2.819   1.692   0.629  0.0518  0.5251  0.1523
   38SOL    MW4  225   2.858   1.728   0.560  0.0055  0.3177  0.0176
   39SOL     OW  226   1.317   0.050   0.479  0.3820 -0.1256 -0.2341
   39SOL    HW2  227   1.406   0.057   0.444  0.2881 -0.5371 -0.5604
   39SOL    HW3  228   1.329   0.049   0.574  0.8117 -1.2401 -0.2872
   39SOL    MW4  229   1.330   0.051   0.487  0.4264 -0.3269 -0.2842
   40SOL     OW  230   2.304   3.966   0.531 -0.5889 -0.1366  0.0443
   40SOL    HW2  231   2.256   3.888   0.505 -0.1425 -0.4248  0.0920
   40SOL    HW3  232   2.394   3.950   0.503 -0.5282  0.4312 -0.1039
   40SOL    MW4  233   2.310   3.954   0.524 -0.5219 -0.0994  0.0311
   41SOL     OW  234   0.259   3.209   0.808  0.0670  0.1532  0.0128
   41SOL    HW2  235   0.178   3.194   0.759 -0.0865  0.7214  0.0907
   41SOL    HW3  236   0.229   3.219   0.899  0.4834 -2.4852  0.4933
   41SOL    MW4  237   0.244   3.208   0.814  0.1017 -0.1202  0.0864
   42SOL     OW  238   4.209   2.558   0.356  1.0458  0.2260  0.0279
   42SOL    HW2  239   4.263   2.634   0.378  1.3541  0.0989 -0.2705
   42SOL    HW3  240   4.224   2.546   0.262  0.2026  0.4155 -0.1325
   42SOL    MW4  241   4.218   2.567   0.346  0.9751  0.2339 -0.0326
   43SOL     OW  242   0.506   3.179   0.492  0.1495  0.1335  0.2379
   43SOL    HW2  243   0.478   3.105   0.546 -1.3289  1.4756  1.3595
   43SOL    HW3  244   0.585   3.148   0.448  0.0258 -1.8168  1.3223
   43SOL    MW4  245   0.512   3.165   0.493 -0.0619  0.0534  0.5290
   44SOL     OW  246   2.914   4.644   0.850 -0.2917 -0.1882  0.2619
   44SOL    HW2  247   2.835   4.693   0.830  0.1063  1.1859  1.9194
   44SOL    HW3  248   2.985   4.697   0.815 -0.0489 -1.1184 -0.6866
   44SOL    MW4  249   2.913   4.657   0.843 -0.2072 -0.1292  0.3554
   45SOL     OW  250   0.606   4.650   0.838 -0.2664 -0.1500 -0.0745
   45SOL    HW2  251   0.621   4.646   0.932 -0.6571  1.9771  0.0954
   45SOL    HW3  252   0.687   4.688   0.802 -0.9879  1.1768 -0.3288
   45SOL    MW4  253   0.619   4.655   0.846 -0.4132  0.3057 -0.0856
   46SOL     OW  254   4.236   2.908   0.806  0.2361 -0.5707  0.2903
   46SOL    HW2  255   4.315   2.863   0.776  1.2207  0.2370  1.6394
   46SOL    HW3  256   4.267   2.970   0.872 -1.3844  0.5957 -0.0256
   46SOL    MW4  257   4.250   2.910   0.811  0.1521 -0.3104  0.4267
   47SOL     OW  258   2.904   3.644   0.728  0.0943  0.1952  0.1712
   47SOL    HW2  259   2.979   3.603   0.771  1.3783  0.7757 -1.4596
   47SOL    HW3  260   2.900   3.732   0.765 -0.7604 -0.3469  1.4018
   47SOL    MW4  261   2.913   3.650   0.739  0.1509  0.2005  0.1184
   48SOL     OW  262   4.257   2.096   0.786  0.5162  0.5415 -0.1135
   48SOL    HW2  263   4.253   2.110   0.691 -1.1121 -0.7902 -0.2711
   48SOL    HW3  264   4.342   2.054   0.801  0.6062  0.3895 -1.0448
   48SOL    MW4  265   4.267   2.092   0.775  0.3133  0.3457 -0.2572
   49SOL     OW  266   3.123   0.905   0.481  0.2251 -0.1667 -0.4026
   49SOL    HW2  267   3.174   0.978   0.446  0.7300 -0.3717 -0.0992
   49SOL    HW3  268   3.171   0.826   0.453 -0.4326 -0.3897 -0.9093
   49SOL    MW4  269   3.136   0.904   0.472  0.2046 -0.2232 -0.4294
   50SOL     OW  270   3.586   1.909   0.898  0.0651  0.1776 -0.3090
   50SOL    HW2  271   3.587   1.835   0.837 -1.6611 -0.6793  0.6533
   50SOL    HW3  272   3.508   1.959   0.873  0.5349  1.0046 -0.1535
   50SOL    MW4  273   3.576   1.906   0.887 -0.1009  0.1738 -0.1615
   51SOL     OW  274   1.107   4.334   0.744 -0.0352  0.0091  0.4620
   51SOL    HW2  275   1.182   4.293   0.787 -0.3112  0.5274  1.4549
   51SOL    HW3  276   1.128   4.330   0.650 -0.2190 -2.6932  0.4988
   51SOL    MW4  277   1.119   4.328   0.737 -0.0957 -0.2789  0.5978
   52SOL     OW  278   3.395   2.089   0.808 -0.5275  0.5062  1.0847
   52SOL    HW2  279   3.379   2.170   0.857 -1.3979  0.4468  0.9169
   52SOL    HW3  280   3.365   2.109   0.719  2.0278  0.9606  0.2943
   52SOL    MW4  281   3.389   2.103   0.803 -0.3054  0.5581  0.9583
   53SOL     OW  282   3.934   3.948   0.468 -0.5063  0.0898  0.0683
   53SOL    HW2  283   3.855   3.897   0.485 -1.3545  0.6735 -2.0073
   53SOL    HW3  284   3.904   4.038   0.467  0.4842  0.4346  0.8284
   53SOL    MW4  285   3.920   3.953   0.470 -0.4876  0.2124 -0.1053
   54SOL     OW  286   4.406   3.803   0.433 -0.2315 -0.4266 -0.5973
   54SOL    HW2  287   4.326   3.818   0.382 -0.2375  1.7472  0.0073
   54SOL    HW3  288   4.425   3.888   0.472  1.2073 -1.4561  0.9681
   54SOL    MW4  289   4.398   3.816   0.431 -0.0424 -0.2756 -0.3110
   55SOL     OW  290   2.511   1.918   0.714 -0.0894  0.3632 -0.3981
   55SOL    HW2  291   2.555   1.904   0.798 -0.8162 -1.0786 -0.2361
   55SOL    HW3  292   2.433   1.970   0.737 -1.5466 -1.9957  0.2172
   55SOL    MW4  293   2.506   1.923   0.728 -0.3774 -0.1380 -0.2956
   56SOL     OW  294   3.754   4.594   0.638 -0.1772  0.3780 -0.0101
   56SOL    HW2  295   3.767   4.541   0.717 -0.2088  1.5393  0.7957
   56SOL    HW3  296   3.703   4.669   0.668 -0.8783  0.4393 -1.3071
   56SOL    MW4  297   3.749   4.597   0.652 -0.2739  0.5393 -0.0750
   57SOL     OW  298   0.545   0.885   0.572 -0.4025 -0.5830 -0.1345
   57SOL    HW2  299   0.600   0.960   0.550  0.8598 -1.5726 -0.3843
   57SOL    HW3  300   0.606   0.815   0.592 -1.5694 -1.3047  0.9861
   57SOL    MW4  301   0.560   0.886   0.571 -0.3899 -0.8088 -0.0197
   58SOL     OW  302   0.868   0.353   0.858  0.1086  0.2124 -0.4815
   58SOL    HW2  303   0.844   0.367   0.949 -2.1093 -0.1232 -0.9884
   58SOL    HW3  304   0.953   0.397   0.849  0.3086  0.3352  1.6949
   58SOL    MW4  305   0.876   0.361   0.869 -0.1576  0.1843 -0.2611
   59SOL     OW  306   2.491   1.197   0.517  0.1834 -0.0471  0.0857
   59SOL    HW2  307   2.580   1.169   0.492 -0.2765  0.7430 -2.5950
   59SOL    HW3  308   2.484   1.286   0.482 -1.1407  0.4787  1.6511
   59SOL    MW4  309   2.502   1.205   0.509 -0.0520  0.1267 -0.0615
   60SOL     OW  310   1.500   1.505   0.382  0.0838 -1.1893 -0.2301
   60SOL    HW2  311   1.447   1.565   0.434  0.9152 -0.3917 -0.2980
   60SOL    HW3  312   1.441   1.476   0.313  0.0476  0.5785 -0.9746
   60SOL    MW4  313   1.485   1.509   0.380  0.1887 -0.8507 -0.3372
   61SOL     OW  314   0.428   3.019   0.721 -0.4150  0.0726  0.5863
   61SOL    HW2  315   0.506   3.048   0.768 -0.8398  2.4476 -0.1012
   61SOL    HW3  316   0.355   3.062   0.766 -1.2320 -1.2341  0.5292
   61SOL    MW4  317   0.428   3.028   0.733 -0.5789  0.2136  0.4881
   62SOL     OW  318   1.324   3.504   0.792 -0.4480 -0.2632 -0.2895
   62SOL    HW2  319   1.344   3.411   0.782 -1.0488 -0.4399  0.1138
   62SOL    HW3  320   1.407   3.549   0.775 -0.4367 -0.7943 -1.7305
   62SOL    MW4  321   1.338   3.498   0.788 -0.5260 -0.3562 -0.4265
   63SOL     OW  322   4.123   1.125   0.407 -0.1078  0.1342 -0.2226
   63SOL    HW2  323   4.048   1.183   0.403 -0.1153  0.1976  0.5951
   63SOL    HW3  324   4.182   1.166   0.471  0.7575  0.2434 -1.0783
   63SOL    MW4  325   4.121   1.138   0.415  0.0048  0.1569 -0.2276
   64SOL     OW  326   3.100   4.232   0.858 -0.0645  0.1588  0.4856
   64SOL    HW2  327   3.173   4.293   0.845 -0.2012  0.2169  0.0048
   64SOL    HW3  328   3.125   4.153   0.810 -1.3270  0.9811 -1.5974
   64SOL    MW4  329   3.113   4.230   0.850 -0.2491  0.2756  0.1473
   65SOL     OW  330   3.897   2.819   0.505  0.2584  0.0147 -0.1229
   65SOL    HW2  331   3.909   2.727   0.481  1.0703 -0.3405  1.5501
   65SOL    HW3  332   3.985   2.854   0.514 -0.0224  0.5402  0.7158
   65SOL    MW4  333   3.910   2.811   0.503  0.3285  0.0372  0.2085
   66SOL     OW  334   1.371   0.856   0.391 -0.4098  0.4110  0.6924
   66SOL    HW2  335   1.333   0.940   0.366  0.8992  0.2914 -1.8631
   66SOL    HW3  336   1.458   0.878   0.425  0.5114  0.0020 -1.3436
   66SOL    MW4  337   1.378   0.870   0.393 -0.1156  0.3412  0.0866
   67SOL     OW  338   1.049   3.863   0.792 -0.0351 -0.1879  0.0873
   67SOL    HW2  339   1.088   3.858   0.879 -2.5701 -0.3145  1.2656
   67SOL    HW3  340   1.073   3.780   0.750  0.0844 -0.7058  1.1644
   67SOL    MW4  341   1.058   3.851   0.798 -0.3537 -0.2730  0.3849
   68SOL     OW  342   0.649   3.827   0.496 -0.0206 -0.2656 -0.0111
   68SOL    HW2  343   0.559   3.851   0.522 -0.5427 -0.8930 -1.2049
   68SOL    HW3  344   0.637   3.760   0.428  1.3563 -0.1357 -0.3874
   68SOL    MW4  345   0.635   3.821   0.491  0.0921 -0.3314 -0.2183
   69SOL     OW  346   0.898   3.240   0.715  0.1109 -0.5877  0.9099
   69SOL    HW2  347   0.934   3.243   0.626  0.5040 -2.0097  1.0080
   69SOL    HW3  348   0.902   3.330   0.746 -0.7938  0.0652 -0.8157
   69SOL    MW4  349   0.903   3.252   0.707  0.0434 -0.6890  0.6952
   70SOL     OW  350   0.045   1.930   1.095  0.2360  0.1083  0.1688
   70SOL    HW2  351  -0.036   1.970   1.126 -0.7382 -2.6764  1.2717
   70SOL    HW3  352   0.036   1.931   0.999 -0.6874  0.6030  0.2492
   70SOL    MW4  353   0.033   1.936   1.086 -0.0144 -0.1940  0.3248
   71SOL     OW  354   1.112   0.238   0.413  0.2638  0.3105  0.3289
   71SOL    HW2  355   1.037   0.180   0.424 -0.2526  0.7965 -0.4835
   71SOL    HW3  356   1.187   0.190   0.448 -0.0592 -1.0575 -0.8388
   71SOL    MW4  357   1.112   0.224   0.419  0.1531  0.1941  0.0677
   72SOL     OW  358   1.825   3.968   0.422  0.4414 -0.0486 -0.1187
   72SOL    HW2  359   1.860   3.890   0.379  0.9072 -0.2525  0.6289
   72SOL    HW3  360   1.817   3.944   0.514 -1.3414  0.1087 -0.2188
   72SOL    MW4  361   1.829   3.955   0.428  0.2676 -0.0546 -0.0333
   73SOL     OW  362   2.486   1.491   0.415  0.3975 -0.4295  0.3256
   73SOL    HW2  363   2.477   1.553   0.487 -0.8107  1.3849 -1.3388
   73SOL    HW3  364   2.580   1.487   0.399  0.5880 -0.0112  1.2821
   73SOL    MW4  365   2.497   1.499   0.423  0.2632 -0.1349  0.2322
   74SOL     OW  366   0.843   4.005   0.481 -0.2357 -0.5730  0.1189
   74SOL    HW2  367   0.764   3.951   0.483 -0.0541 -0.9449 -1.7869
   74SOL    HW3  368   0.816   4.085   0.435  0.4720 -0.6751 -0.4855
   74SOL    MW4  369   0.829   4.009   0.475 -0.1183 -0.6356 -0.2124
   75SOL     OW  370   0.244   2.482   0.604  0.2662  0.3752  0.4204
   75SOL    HW2  371   0.249   2.578   0.598  1.1677  0.2415 -1.3556
   75SOL    HW3  372   0.151   2.464   0.618  0.0279  1.4888  0.3694
   75SOL    MW4  373   0.233   2.492   0.605  0.3537  0.5045  0.1794
   76SOL     OW  374   2.146   3.721   0.537 -0.1876 -0.0216  0.2265
   76SOL    HW2  375   2.194   3.652   0.491 -0.1198 -0.0599  0.3550
   76SOL    HW3  376   2.114   3.679   0.616  0.4607  0.2840  0.6555
   76SOL    MW4  377   2.148   3.706   0.541 -0.0930  0.0138  0.3000
   77SOL     OW  378   3.744   4.429   0.270  0.4238  0.2906  0.6250
   77SOL    HW2  379   3.747   4.430   0.174 -0.1536  1.3578  0.6076
   77SOL    HW3  380   3.805   4.497   0.297 -0.7742  1.2615  0.9562
   77SOL    MW4  381   3.752   4.438   0.261  0.1898  0.5598  0.6664
   78SOL     OW  382   1.609   2.792   0.770 -0.2109 -0.4766  0.4164
   78SOL    HW2  383   1.613   2.885   0.790  0.1042 -0.0901 -1.3658
   78SOL    HW3  384   1.692   2.757   0.803 -0.2217 -0.0789  0.8698
   78SOL    MW4  385   1.621   2.800   0.777 -0.1707 -0.3734  0.2411
   79SOL     OW  386   0.737   3.819   0.037 -0.0446 -0.6034  0.4683
   79SOL    HW2  387   0.818   3.869   0.047 -0.1345 -0.3559 -0.0480
   79SOL    HW3  388   0.707   3.839  -0.051 -1.6787  0.8316  1.3134
   79SOL    MW4  389   0.744   3.828   0.027 -0.2720 -0.3815  0.5117
   80SOL     OW  390   1.432   2.537   0.419  0.3696 -0.3616  0.0051
   80SOL    HW2  391   1.385   2.503   0.496  1.1461  1.2929  1.2268
   80SOL    HW3  392   1.367   2.536   0.349 -1.3535  1.3376  1.5325
   80SOL    MW4  393   1.417   2.532   0.420  0.2446  0.0808  0.3678
   81SOL     OW  394   1.494   1.558   0.823 -0.3533  0.1676  0.3196
   81SOL    HW2  395   1.494   1.542   0.918  0.8778 -1.2275  0.1120
   81SOL    HW3  396   1.583   1.586   0.804 -1.1402  2.3895 -0.1394
   81SOL    MW4  397   1.505   1.559   0.833 -0.2947  0.2767  0.2316
   82SOL     OW  398   1.064   0.756   0.932  0.0807  0.3106 -0.0717
   82SOL    HW2  399   1.097   0.745   1.022  1.8391  2.2473 -0.4358
   82SOL    HW3  400   0.976   0.793   0.942 -0.2590 -0.7391  0.8664
   82SOL    MW4  401   1.057   0.760   0.945  0.2679  0.4276  0.0041
   83SOL     OW  402   2.023   1.281   0.718 -0.5291  0.4950  0.0797
   83SOL    HW2  403   1.936   1.246   0.738 -0.7971 -0.0569 -1.9498
   83SOL    HW3  404   2.082   1.236   0.778 -1.1065 -2.1558 -1.2671
   83SOL    MW4  405   2.019   1.271   0.728 -0.6409  0.0725 -0.3658
   84SOL     OW  406   3.553   3.473   0.808  0.3469  0.5485  0.2448
   84SOL    HW2  407   3.476   3.525   0.784  0.0298  0.0728  0.2301
   84SOL    HW3  408   3.536   3.386   0.772  1.0033  0.5069  0.0356
   84SOL    MW4  409   3.541   3.469   0.800  0.3917  0.4802  0.2152
   85SOL     OW  410   1.614   0.109   0.465 -0.5001 -0.5893 -0.0454
   85SOL    HW2  411   1.656   0.027   0.439  1.9552  0.0543  1.6887
   85SOL    HW3  412   1.628   0.168   0.390  0.1741 -0.9291 -0.1964
   85SOL    MW4  413   1.622   0.106   0.452 -0.0873 -0.5492  0.1635
   86SOL     OW  414   2.461   3.663   0.745 -0.3972 -0.0264 -0.2429
   86SOL    HW2  415   2.459   3.650   0.650 -1.4575 -0.7705 -0.1324
   86SOL    HW3  416   2.533   3.607   0.775  1.0297  1.4765 -0.7686
   86SOL    MW4  417   2.470   3.654   0.736 -0.3490  0.0737 -0.2977
   87SOL     OW  418   2.231   4.571   0.443  0.5476 -0.1512 -0.1741
   87SOL    HW2  419   2.234   4.664   0.466  0.1544 -0.5656  1.6552
   87SOL    HW3  420   2.138   4.549   0.443  0.6852 -0.7678  0.4099
   87SOL    MW4  421   2.219   4.580   0.446  0.5138 -0.2875  0.1443
   88SOL     OW  422   1.062   1.840   0.383 -0.0708  0.1215  0.2564
   88SOL    HW2  423   1.070   1.925   0.426 -0.3039  0.1504  0.2450
   88SOL    HW3  424   0.986   1.850   0.325 -0.0960 -0.0917  0.2524
   88SOL    MW4  425   1.053   1.852   0.381 -0.1049  0.0972  0.2544
   89SOL     OW  426   2.468   0.750   0.856  0.1976 -0.5704 -0.1892
   89SOL    HW2  427   2.553   0.787   0.833 -0.1097 -0.0293 -0.4918
   89SOL    HW3  428   2.459   0.674   0.799 -0.2979  0.4218 -1.4733
   89SOL    MW4  429   2.478   0.745   0.845  0.0918 -0.3681 -0.3985
   90SOL     OW  430   2.737   3.235   0.482  0.0424  0.0934 -0.0171
   90SOL    HW2  431   2.713   3.144   0.464  1.5342 -0.5699  1.2264
   90SOL    HW3  432   2.706   3.251   0.571  0.2789  0.6239 -0.0266
   90SOL    MW4  433   2.730   3.225   0.491  0.2708  0.0758  0.1457
   91SOL     OW  434   1.080   1.579   0.872  0.2845  0.3301  0.4172
   91SOL    HW2  435   1.004   1.637   0.871 -0.0435 -0.0752  1.1009
   91SOL    HW3  436   1.153   1.635   0.845 -0.4239  0.4584 -1.3018
   91SOL    MW4  437   1.080   1.594   0.868  0.1478  0.2936  0.2806
   92SOL     OW  438   4.465   2.740   0.827 -0.2096 -0.4003  0.0781
   92SOL    HW2  439   4.461   2.645   0.814  0.2607 -0.3905 -0.1339
   92SOL    HW3  440   4.475   2.751   0.922 -0.4901 -0.5528  0.1269
   92SOL    MW4  441   4.466   2.729   0.838 -0.1841 -0.4191  0.0566
   93SOL     OW  442   0.538   3.948   0.826 -0.1371  0.1201  0.1492
   93SOL    HW2  443   0.627   3.961   0.793  0.2239 -1.5904  0.4256
   93SOL    HW3  444   0.501   4.037   0.830  1.3425  0.7857 -0.5314
   93SOL    MW4  445   0.545   3.962   0.822  0.1057 -0.0174  0.0958
   94SOL     OW  446   3.578   1.964   0.425 -0.7796  0.2156 -0.4031
   94SOL    HW2  447   3.653   2.011   0.461 -1.1938  0.9096 -0.4298
   94SOL    HW3  448   3.573   1.993   0.334  0.5951 -1.9530 -1.1869
   94SOL    MW4  449   3.587   1.974   0.418 -0.6530  0.0211 -0.5101
   95SOL     OW  450   0.960   3.053   0.419  0.1201 -0.2656  0.4651
   95SOL    HW2  451   1.012   2.977   0.396  1.0814  0.4142  0.3750
   95SOL    HW3  452   1.024   3.120   0.442 -0.6880  0.8010 -0.3362
   95SOL    MW4  453   0.975   3.052   0.419  0.1404 -0.0350  0.3475
   96SOL     OW  454   4.007   0.079   0.737  0.2298 -0.2041 -0.1556
   96SOL    HW2  455   4.097   0.046   0.743 -0.1319 -1.2478 -0.5053
   96SOL    HW3  456   3.956   0.004   0.707 -1.0141 -0.0272  1.4752
   96SOL    MW4  457   4.012   0.065   0.734  0.0181 -0.3185  0.0134
   97SOL     OW  458   4.098   0.620   0.484 -0.1362 -0.4435 -0.1135
   97SOL    HW2  459   4.059   0.707   0.472 -0.4629 -0.6249 -0.3696
   97SOL    HW3  460   4.024   0.560   0.482 -0.0077 -0.6446  1.0870
   97SOL    MW4  461   4.084   0.624   0.482 -0.1621 -0.4940  0.0111
   98SOL     OW  462   0.822   4.023   0.751 -0.6506  0.3943  0.0359
   98SOL    HW2  463   0.894   3.978   0.795 -1.1829  0.8228  1.3674
   98SOL    HW3  464   0.841   4.013   0.658  1.2017  0.6199  0.3705
   98SOL    MW4  465   0.834   4.015   0.745 -0.4765  0.4802  0.2557
   99SOL     OW  466   1.940   4.506   0.449 -0.2900 -0.3928 -0.3349
   99SOL    HW2  467   1.854   4.530   0.414 -0.2296  0.8910  0.3716
   99SOL    HW3  468   1.952   4.415   0.423 -1.6204 -0.4060 -0.9251
   99SOL    MW4  469   1.930   4.497   0.441 -0.4576 -0.2251 -0.3195
  100SOL     OW  470   2.224   4.025   0.784 -0.4081  0.2906 -0.1784
  100SOL    HW2  471   2.141   3.980   0.794 -1.1741  1.4230 -1.2588
  100SOL    HW3  472   2.252   4.007   0.694  0.4911 -0.0385  0.1545
  100SOL    MW4  473   2.217   4.017   0.774 -0.3905  0.3967 -0.2770
  101SOL     OW  474   4.397   4.346   0.495  0.2586 -0.1652 -0.2462
  101SOL    HW2  475   4.430   4.257   0.499 -0.3515 -0.3342  1.3620
  101SOL    HW3  476   4.306   4.338   0.468  0.1034 -0.0583  0.2363
  101SOL    MW4  477   4.389   4.333   0.492  0.1574 -0.1736  0.0297
  102SOL     OW  478   1.234   4.379   0.229  0.3060  0.3444  0.1102
  102SOL    HW2  479   1.238   4.283   0.229 -0.6446  0.2827 -0.9898
  102SOL    HW3  480   1.162   4.399   0.169  0.5095  1.7512  0.3264
  102SOL    MW4  481   1.225   4.369   0.221  0.2074  0.5217 -0.0064
  103SOL     OW  482   0.717   0.679   0.614 -0.1909  0.0768  0.0350
  103SOL    HW2  483   0.803   0.646   0.592 -0.6007 -0.8211 -0.2205
  103SOL    HW3  484   0.701   0.648   0.703 -0.2451  0.2540  0.0878
  103SOL    MW4  485   0.726   0.671   0.623 -0.2522 -0.0182  0.0083
  104SOL     OW  486   1.571   3.617   0.715  0.4633  0.0096 -0.5559
  104SOL    HW2  487   1.588   3.645   0.625 -3.0086  0.0886 -1.2605
  104SOL    HW3  488   1.540   3.696   0.759  2.5817  0.0710  0.8630
  104SOL    MW4  489   1.569   3.631   0.709  0.2848  0.0281 -0.4618
  105SOL     OW  490   1.392   2.157   0.308 -0.5402  0.2432  0.1067
  105SOL    HW2  491   1.469   2.213   0.313  0.0454 -0.5974  0.5993
  105SOL    HW3  492   1.320   2.217   0.287 -0.0302  1.2631  1.2055
  105SOL    MW4  493   1.392   2.172   0.306 -0.3957  0.2666  0.3166
  106SOL     OW  494   1.607   2.757   0.494 -0.7567 -0.2449  0.1675
  106SOL    HW2  495   1.535   2.694   0.483 -0.5510 -0.6628  1.1542
  106SOL    HW3  496   1.609   2.774   0.588  0.2089  0.0373  0.0990
  106SOL    MW4  497   1.597   2.751   0.505 -0.6022 -0.2627  0.2887
  107SOL     OW  498   2.638   2.143   0.612  0.2792  0.0669  0.2133
  107SOL    HW2  499   2.719   2.104   0.576  0.4938 -0.1172  0.8901
  107SOL    HW3  500   2.594   2.070   0.655 -0.8036 -0.0763 -1.1124
  107SOL    MW4  501   2.643   2.128   0.613  0.1645  0.0236  0.1277
  108SOL     OW  502   1.855   2.975   0.248  0.1511 -0.0425 -0.0221
  108SOL    HW2  503   1.930   2.948   0.195 -0.2544 -0.8708 -0.1860
  108SOL    HW3  504   1.851   2.910   0.319  0.5841  0.9545  0.9237
  108SOL    MW4  505   1.864   2.963   0.251  0.1547 -0.0203  0.0811
  109SOL     OW  506   1.734   0.139   0.719  0.4386 -0.2742  0.3186
  109SOL    HW2  507   1.809   0.082   0.729 -0.5909 -1.6760  0.1703
  109SOL    HW3  508   1.714   0.138   0.625 -0.0871 -0.3427  0.4260
  109SOL    MW4  509   1.741   0.132   0.708  0.2334 -0.4682  0.3132
  110SOL     OW  510   2.919   2.301   0.868  0.0247 -0.0201  0.5588
  110SOL    HW2  511   2.920   2.309   0.964 -0.4786  1.3286  0.4524
  110SOL    HW3  512   2.841   2.348   0.841  0.7878  0.5892 -0.6149
  110SOL    MW4  513   2.909   2.308   0.877  0.0589  0.2382  0.3900
  111SOL     OW  514   1.802   1.163   0.823  0.4324 -0.0140 -0.0915
  111SOL    HW2  515   1.793   1.068   0.819  0.6924 -0.0245 -0.4371
  111SOL    HW3  516   1.718   1.197   0.794  0.1144 -0.1446  0.6739
  111SOL    MW4  517   1.790   1.155   0.819  0.4247 -0.0325 -0.0361
  112SOL     OW  518   0.244   2.090   0.785 -0.1647 -0.1978  0.0579
  112SOL    HW2  519   0.270   2.181   0.802  0.6213 -0.4116  0.0302
  112SOL    HW3  520   0.314   2.038   0.824  0.3441 -0.7528 -1.5581
  112SOL    MW4  521   0.257   2.095   0.793  0.0061 -0.2992 -0.1590
  113SOL     OW  522   2.416   3.121   0.803  0.0491  0.2349 -0.2498
  113SOL    HW2  523   2.417   3.120   0.899  1.1768 -1.4471 -0.2568
  113SOL    HW3  524   2.436   3.030   0.778 -0.1902  0.6653 -2.0756
  113SOL    MW4  525   2.419   3.109   0.813  0.1664  0.0696 -0.4917
  114SOL     OW  526   4.023   2.720   0.841 -0.6065 -0.3706  0.0586
  114SOL    HW2  527   3.955   2.786   0.828 -0.5896 -0.5624 -1.0211
  114SOL    HW3  528   4.104   2.762   0.813 -0.3077 -0.2280  1.1092
  114SOL    MW4  529   4.025   2.734   0.836 -0.5651 -0.3772  0.0548
  115SOL     OW  530   2.190   3.267   0.737  0.3122 -0.7315  0.0155
  115SOL    HW2  531   2.111   3.219   0.763  0.0105 -0.0112  0.4475
  115SOL    HW3  532   2.262   3.212   0.767  0.0057 -2.2953 -2.0301
  115SOL    MW4  533   2.189   3.253   0.745  0.2320 -0.8430 -0.1974
  116SOL     OW  534   3.799   2.123   0.499  0.1831  0.0560  0.3813
  116SOL    HW2  535   3.786   2.123   0.594  0.3971 -0.2914  0.4106
  116SOL    HW3  536   3.779   2.213   0.472  0.5999  0.2831  0.8180
  116SOL    MW4  537   3.795   2.135   0.508  0.2663  0.0401  0.4428
  117SOL     OW  538   2.556   4.212   0.421 -0.2580  0.0653 -0.2243
  117SOL    HW2  539   2.551   4.117   0.417  1.5619 -0.0622  0.2669
  117SOL    HW3  540   2.605   4.237   0.343  0.9902  0.4402  0.6625
  117SOL    MW4  541   2.562   4.203   0.410  0.1466  0.0982 -0.0425
  118SOL     OW  542   2.706   0.889   0.798 -0.2301 -0.0688  0.0628
  118SOL    HW2  543   2.701   0.977   0.834  0.6371 -0.2536  0.6704
  118SOL    HW3  544   2.789   0.854   0.832 -0.3168 -0.9283 -0.5875
  118SOL    MW4  545   2.717   0.896   0.807 -0.1271 -0.2066  0.0571
  119SOL     OW  546   3.127   3.538   0.861  0.5298 -0.0155  0.1655
  119SOL    HW2  547   3.203   3.584   0.825 -0.0690 -0.6623 -2.0061
  119SOL    HW3  548   3.139   3.447   0.833 -2.4742  0.3803 -2.7390
  119SOL    MW4  549   3.139   3.532   0.853  0.0546 -0.0486 -0.5043
  120SOL     OW  550   2.001   1.804   0.404 -0.2327 -0.0558  0.1643
  120SOL    HW2  551   2.036   1.777   0.319  0.4118  1.4669 -0.0715
  120SOL    HW3  552   1.928   1.745   0.420 -0.9653  0.2710 -1.9073
  120SOL    MW4  553   1.996   1.793   0.395 -0.2440  0.1881 -0.1401
  121SOL     OW  554   1.487   1.892   0.388  0.0432  0.2255 -0.0772
  121SOL    HW2  555   1.449   1.968   0.345  1.1505  0.2474 -1.0554
  121SOL    HW3  556   1.412   1.836   0.409 -0.6040  0.6788 -1.1488
  121SOL    MW4  557   1.472   1.894   0.385  0.1041  0.2881 -0.3476
  122SOL     OW  558   4.098   4.380   0.496 -0.0994  0.0312 -0.6026
  122SOL    HW2  559   4.052   4.373   0.580 -0.7288 -1.0479 -1.0208
  122SOL    HW3  560   4.053   4.450   0.450 -0.1041  0.2637 -0.2449
  122SOL    MW4  561   4.086   4.388   0.501 -0.1836 -0.0806 -0.6106
  123SOL     OW  562   1.129   2.128   0.738  0.6480 -0.2076  0.1053
  123SOL    HW2  563   1.122   2.117   0.643  0.4010 -0.7381  0.1876
  123SOL    HW3  564   1.210   2.084   0.761  1.0952  0.5701  0.0367
  123SOL    MW4  565   1.139   2.121   0.728  0.6745 -0.1752  0.1071
  124SOL     OW  566   0.087   1.273   0.505 -0.2176 -0.1557  0.2958
  124SOL    HW2  567   0.085   1.177   0.501 -0.5683 -0.1680  0.7421
  124SOL    HW3  568   0.111   1.292   0.595  0.6468  0.1762  0.0055
  124SOL    MW4  569   0.090   1.263   0.516 -0.1499 -0.1136  0.3164
  125SOL     OW  570   1.350   2.749   0.821 -0.0491  0.2322 -0.2546
  125SOL    HW2  571   1.442   2.772   0.812 -0.3627  1.1054 -1.2859
  125SOL    HW3  572   1.336   2.744   0.916  1.1645 -0.3614 -0.1030
  125SOL    MW4  573   1.360   2.751   0.832  0.0696  0.2692 -0.3707
  126SOL     OW  574   2.919   1.280   0.743  0.3387  0.0388 -0.1081
  126SOL    HW2  575   2.938   1.369   0.772 -0.9440 -0.1613  1.4907
  126SOL    HW3  576   2.983   1.226   0.789 -0.9835 -0.1661  1.5514
  126SOL    MW4  577   2.930   1.285   0.753 -0.0050 -0.0145  0.3218
  127SOL     OW  578   0.040   1.703   0.322  0.4047  0.5266  0.2287
  127SOL    HW2  579   0.056   1.670   0.233  0.8285  0.7332  0.2275
  127SOL    HW3  580  -0.029   1.646   0.356  0.7396 -0.0144  0.0212
  127SOL    MW4  581   0.033   1.691   0.315  0.5050  0.4824  0.2011
  128SOL     OW  582   2.681   3.514   0.827  0.0630  0.3133  0.0478
  128SOL    HW2  583   2.692   3.504   0.922 -0.6389 -0.2353  0.0758
  128SOL    HW3  584   2.752   3.573   0.801  1.2754 -0.8306  0.6700
  128SOL    MW4  585   2.692   3.520   0.836  0.1304  0.0901  0.1336
  129SOL     OW  586   1.625   2.080   0.753  0.2255 -0.0371  0.3719
  129SOL    HW2  587   1.634   2.072   0.658  1.4680 -0.0123  0.4866
  129SOL    HW3  588   1.697   2.029   0.789 -0.5228 -0.4448  1.3214
  129SOL    MW4  589   1.635   2.072   0.745  0.2906 -0.0880  0.5124
  130SOL     OW  590   3.289   3.612   0.489  0.1444 -0.0726  0.0302
  130SOL    HW2  591   3.325   3.523   0.480 -0.3291 -0.2820  0.1941
  130SOL    HW3  592   3.195   3.600   0.477 -0.1363  0.1362  1.9707
  130SOL    MW4  593   3.281   3.599   0.486  0.0451 -0.0727  0.3078
  131SOL     OW  594   1.864   2.462   0.442  0.4744 -0.7575 -0.7143
  131SOL    HW2  595   1.951   2.433   0.413  0.7729  0.9074 -1.5726
  131SOL    HW3  596   1.863   2.556   0.423 -0.5709 -0.2502  1.6428
  131SOL    MW4  597   1.875   2.470   0.436  0.3759 -0.4706 -0.5166
  132SOL     OW  598   2.161   0.804   0.362 -0.1553  0.4153 -0.5416
  132SOL    HW2  599   2.183   0.879   0.418 -0.9520 -0.0985  0.4869
  132SOL    HW3  600   2.241   0.751   0.361  0.5192  1.4499 -1.5529
  132SOL    MW4  601   2.175   0.806   0.370 -0.1712  0.4840 -0.5393
  133SOL     OW  602   0.878   1.571   0.469  0.1033  0.0320  0.0020
  133SOL    HW2  603   0.835   1.627   0.405 -0.9816 -0.1001  0.6046
  133SOL    HW3  604   0.866   1.616   0.553 -0.6269 -1.0142  0.4660
  133SOL    MW4  605   0.871   1.584   0.472 -0.1361 -0.1233  0.1428
  134SOL     OW  606   3.884   4.227   0.431 -0.6035  0.0236  0.3455
  134SOL    HW2  607   3.843   4.290   0.372 -0.2999  0.5214  0.6651
  134SOL    HW3  608   3.973   4.258   0.442 -0.4231 -0.5136  0.4317
  134SOL    MW4  609   3.890   4.239   0.425 -0.5398  0.0181  0.3990
  135SOL     OW  610   2.587   3.924   0.485  0.2556 -0.0246 -0.5808
  135SOL    HW2  611   2.586   3.828   0.490 -1.8718  0.0350  0.6066
  135SOL    HW3  612   2.615   3.951   0.573 -0.1020  0.4397 -0.6112
  135SOL    MW4  613   2.591   3.915   0.498 -0.0722  0.0446 -0.4281
  136SOL     OW  614   3.574   1.672   0.461  0.0420 -0.2381 -0.0418
  136SOL    HW2  615   3.589   1.664   0.556  0.4101 -0.6536 -0.1314
  136SOL    HW3  616   3.575   1.766   0.445 -1.2630 -0.1080  0.5593
  136SOL    MW4  617   3.577   1.683   0.472 -0.0815 -0.2757  0.0257
  137SOL     OW  618   1.787   3.481   0.826 -0.0414 -0.4719 -0.5244
  137SOL    HW2  619   1.716   3.519   0.774  0.0997  0.1977 -0.2262
  137SOL    HW3  620   1.767   3.507   0.916  1.2675  0.7781 -0.5918
  137SOL    MW4  621   1.775   3.489   0.831  0.1498 -0.2184 -0.4939
  138SOL     OW  622   1.009   3.952   0.093 -0.1268 -0.3002  0.0167
  138SOL    HW2  623   0.984   4.038   0.128  0.3016  0.1910 -0.8528
  138SOL    HW3  624   1.103   3.959   0.077 -0.2712 -0.5692 -1.0206
  138SOL    MW4  625   1.018   3.964   0.095 -0.0893 -0.2711 -0.2349
  139SOL     OW  626   0.865   2.319   0.303  0.4121 -0.0731 -0.0445
  139SOL    HW2  627   0.831   2.392   0.355  0.4508 -1.7340  2.3354
  139SOL    HW3  628   0.787   2.271   0.275  0.5309 -0.9002  1.0284
  139SOL    MW4  629   0.850   2.322   0.306  0.4328 -0.4013  0.4110
  140SOL     OW  630   1.298   1.371   0.216 -0.0418 -0.3430 -0.1487
  140SOL    HW2  631   1.236   1.428   0.261 -0.3848 -1.0057  0.2134
  140SOL    HW3  632   1.304   1.408   0.128 -0.5850  0.0066 -0.0424
  140SOL    MW4  633   1.291   1.384   0.210 -0.1589 -0.3842 -0.0869
  141SOL     OW  634   1.577   0.506   0.476  0.1381 -0.3996 -0.3759
  141SOL    HW2  635   1.609   0.431   0.425 -0.6329 -0.4685 -0.7571
  141SOL    HW3  636   1.492   0.527   0.438  0.5936  1.0336 -0.6360
  141SOL    MW4  637   1.570   0.499   0.464  0.0967 -0.2196 -0.4605
  142SOL     OW  638   2.689   1.907   0.925 -0.5645 -0.1170 -0.3046
  142SOL    HW2  639   2.767   1.940   0.880 -0.7809  0.4969 -0.2375
  142SOL    HW3  640   2.701   1.932   1.016 -0.3269 -0.9850 -0.1021
  142SOL    MW4  641   2.701   1.915   0.931 -0.5617 -0.1504 -0.2691
  143SOL     OW  642   3.065   0.465   0.525  0.3568  0.3346  0.5788
  143SOL    HW2  643   3.002   0.511   0.469  1.0510  0.3798 -0.1773
  143SOL    HW3  644   3.034   0.480   0.614 -1.3055 -0.5326  0.1591
  143SOL    MW4  645   3.052   0.473   0.529  0.2291  0.2262  0.4237
  144SOL     OW  646   3.675   3.946   0.744 -0.1215  0.0369  0.0897
  144SOL    HW2  647   3.594   3.945   0.795  0.4840 -0.5260  1.0441
  144SOL    HW3  648   3.655   3.895   0.666 -0.4632 -0.7564  0.6887
  144SOL    MW4  649   3.662   3.939   0.740 -0.0868 -0.1421  0.2946
  145SOL     OW  650   0.299   4.184   0.483  0.3251  0.5066 -0.0840
  145SOL    HW2  651   0.294   4.091   0.503  0.1027  0.6235  0.4205
  145SOL    HW3  652   0.255   4.227   0.557 -1.4385  0.9006 -1.3221
  145SOL    MW4  653   0.292   4.178   0.496  0.0631  0.5736 -0.1808
  146SOL     OW  654   3.209   4.054   0.440  0.1282  0.1794 -0.0231
  146SOL    HW2  655   3.198   4.041   0.346  3.1612 -0.8563 -0.2566
  146SOL    HW3  656   3.222   4.149   0.449  0.9144  0.1427 -0.7482
  146SOL    MW4  657   3.209   4.065   0.429  0.6320  0.0381 -0.1496
  147SOL     OW  658   1.739   0.914   0.160  0.3684  0.4748  0.5479
  147SOL    HW2  659   1.809   0.874   0.107  1.0075 -0.2419  1.9211
  147SOL    HW3  660   1.692   0.839   0.197  0.2728  0.9798  1.4538
  147SOL    MW4  661   1.742   0.899   0.158  0.4401  0.4469  0.8486
  148SOL     OW  662   2.284   3.498   0.857  0.3029  0.2059  0.0701
  148SOL    HW2  663   2.269   3.420   0.803  2.3243 -0.1555 -0.0274
  148SOL    HW3  664   2.342   3.553   0.804 -1.5200  2.0337 -0.0792
  148SOL    MW4  665   2.290   3.495   0.843  0.3293  0.3994  0.0376
  149SOL     OW  666   0.610   0.104   0.193 -0.0613  0.4674  0.1700
  149SOL    HW2  667   0.546   0.112   0.122  0.7271  0.8331 -0.4988
  149SOL    HW3  668   0.562   0.058   0.263 -0.2169 -1.8227 -1.3981
  149SOL    MW4  669   0.595   0.099   0.193  0.0222  0.2135 -0.1251
  150SOL     OW  670   3.543   4.526   0.433  0.4235 -0.4890 -0.9871
  150SOL    HW2  671   3.599   4.490   0.363  2.2179 -1.0566  0.6926
  150SOL    HW3  672   3.596   4.516   0.512 -0.6176  2.3631  0.0884
  150SOL    MW4  673   3.557   4.520   0.434  0.5229 -0.1869 -0.6236
  151SOL     OW  674   1.793   0.381   0.825  0.2813 -0.7283 -0.5612
  151SOL    HW2  675   1.769   0.295   0.790 -0.9682 -0.6957  0.2025
  151SOL    HW3  676   1.715   0.434   0.815  0.1250 -0.5036  1.5776
  151SOL    MW4  677   1.780   0.377   0.819  0.0957 -0.6944 -0.1783
  152SOL     OW  678   2.248   2.514   0.786 -0.1642  0.0433 -0.8052
  152SOL    HW2  679   2.174   2.465   0.823 -0.3233  1.0136  0.2081
  152SOL    HW3  680   2.260   2.477   0.699 -0.7821 -1.2530 -0.3546
  152SOL    MW4  681   2.240   2.503   0.780 -0.2666  0.0000 -0.6121
  153SOL     OW  682   4.489   1.973   0.813 -0.3686 -0.3522 -0.7338
  153SOL    HW2  683   4.504   1.898   0.755 -0.2259  0.3160 -1.5786
  153SOL    HW3  684   4.571   2.021   0.811 -0.1968 -0.5800  0.4242
  153SOL    MW4  685   4.502   1.969   0.805 -0.3271 -0.2941 -0.6925
  154SOL     OW  686   0.845   0.107   0.498 -0.5528 -0.3587 -0.3625
  154SOL    HW2  687   0.853   0.095   0.592  0.8097 -1.7798 -0.6373
  154SOL    HW3  688   0.834   0.019   0.463  0.1873  0.0417 -1.6308
  154SOL    MW4  689   0.845   0.094   0.506 -0.2754 -0.4933 -0.5660
  155SOL     OW  690   1.632   3.308   0.459  0.3501 -0.7403  0.2292
  155SOL    HW2  691   1.637   3.263   0.375 -1.0939 -1.3052  0.4396
  155SOL    HW3  692   1.546   3.286   0.493  0.0501  1.2797  0.8410
  155SOL    MW4  693   1.621   3.299   0.452  0.1199 -0.5481  0.3377
  156SOL     OW  694   4.111   1.705   0.757  0.0733 -0.2051 -0.2613
  156SOL    HW2  695   4.034   1.653   0.780  0.2239 -0.4516 -0.3192
  156SOL    HW3  696   4.108   1.711   0.661 -1.0403  1.5590 -0.1442
  156SOL    MW4  697   4.100   1.699   0.747 -0.0534 -0.0049 -0.2534
  157SOL     OW  698   2.875   4.505   0.488 -0.0534  0.2021  0.4139
  157SOL    HW2  699   2.898   4.460   0.569  0.4042 -2.2452 -1.0520
  157SOL    HW3  700   2.958   4.533   0.451  0.0084 -1.5648 -0.8335
  157SOL    MW4  701   2.889   4.503   0.494  0.0155 -0.3543  0.0559
  158SOL     OW  702   2.779   1.230   0.472  0.3453 -0.1407 -0.2258
  158SOL    HW2  703   2.834   1.233   0.551 -0.4703 -1.1204  0.3989
  158SOL    HW3  704   2.768   1.321   0.446  0.1458  0.2331  1.1316
  158SOL    MW4  705   2.785   1.242   0.479  0.2110 -0.2207  0.0357
  159SOL     OW  706   1.119   1.532   0.361 -0.2257  0.1757  0.0185
  159SOL    HW2  707   1.165   1.605   0.403 -0.1932  0.1699 -0.0075
  159SOL    HW3  708   1.028   1.542   0.390 -0.3867  0.7158 -0.6532
  159SOL    MW4  709   1.113   1.543   0.370 -0.2427  0.2463 -0.0735
  160SOL     OW  710   0.706   1.101   0.503  0.2366 -0.8046 -0.3708
  160SOL    HW2  711   0.677   1.192   0.495  0.7749 -0.7254 -1.5082
  160SOL    HW3  712   0.795   1.107   0.537 -1.1778 -1.0664  3.7358
  160SOL    MW4  713   0.714   1.114   0.506  0.1211 -0.8285  0.0209
  161SOL     OW  714   3.805   2.359   1.137  0.0855  0.2271  0.4640
  161SOL    HW2  715   3.825   2.272   1.170  1.4115  0.3339 -0.0249
  161SOL    HW3  716   3.884   2.410   1.154 -0.4623  1.1878  0.2091
  161SOL    MW4  717   3.818   2.355   1.144  0.1881  0.3681  0.3659
  162SOL     OW  718   0.871   1.720   0.709 -0.2626 -0.4672  0.0970
  162SOL    HW2  719   0.806   1.687   0.771 -1.2895  0.7151 -0.3221
  162SOL    HW3  720   0.897   1.805   0.743 -1.6229  0.6698 -1.6043
  162SOL    MW4  721   0.866   1.726   0.721 -0.5776 -0.1613 -0.1828
  163SOL     OW  722   3.122   0.140   0.791  0.2744 -0.3094  0.0793
  163SOL    HW2  723   3.128   0.157   0.697  2.3946 -0.6352  0.1280
  163SOL    HW3  724   3.139   0.225   0.832 -0.3152 -0.2359  0.1735
  163SOL    MW4  725   3.125   0.153   0.784  0.4764 -0.3427  0.0982
  164SOL     OW  726   1.421   0.401   0.118  0.1545 -0.2180  0.1426
  164SOL    HW2  727   1.376   0.450   0.186  0.3868 -2.1454  1.7027
  164SOL    HW3  728   1.424   0.462   0.044 -0.7702  1.6297  1.5715
  164SOL    MW4  729   1.416   0.415   0.117  0.0632 -0.2285  0.5370
  165SOL     OW  730   2.309   2.386   0.551 -0.1812  0.2232  0.1149
  165SOL    HW2  731   2.373   2.432   0.498 -0.9391 -0.5702 -1.5353
  165SOL    HW3  732   2.359   2.319   0.597  0.3182  0.1660 -0.5014
  165SOL    MW4  733   2.324   2.383   0.550 -0.2153  0.1106 -0.1842
  166SOL     OW  734   0.021   3.241   0.415 -0.7843  0.1473 -0.0342
  166SOL    HW2  735  -0.008   3.166   0.362  0.7853 -1.2024  0.9640
  166SOL    HW3  736   0.113   3.253   0.390 -0.6555  0.8854  0.7926
  166SOL    MW4  737   0.029   3.233   0.405 -0.5603  0.0668  0.2066
  167SOL     OW  738   0.390   4.249   1.135 -0.0872  0.4345  0.0330
  167SOL    HW2  739   0.473   4.287   1.163 -0.2766  0.5025  0.5066
  167SOL    HW3  740   0.403   4.227   1.043  0.8666 -0.6902  0.4268
  167SOL    MW4  741   0.403   4.251   1.126  0.0136  0.2952  0.1473
  168SOL     OW  742   1.116   0.847   0.560  0.1733 -0.3455 -0.2634
  168SOL    HW2  743   1.155   0.891   0.636 -0.9023  0.0123  0.0837
  168SOL    HW3  744   1.187   0.844   0.496  1.2176 -1.0178  0.9040
  168SOL    MW4  745   1.131   0.853   0.561  0.1692 -0.3871 -0.0636
  169SOL     OW  746   2.966   1.512   0.856 -0.4732 -0.1094 -0.4097
  169SOL    HW2  747   2.965   1.490   0.949  0.6443  0.0652 -0.3495
  169SOL    HW3  748   2.890   1.568   0.844 -0.8035 -0.3969  0.3363
  169SOL    MW4  749   2.956   1.517   0.867 -0.3691 -0.1243 -0.3033
  170SOL     OW  750   4.488   0.400   0.420  0.1428  0.4437  0.0886
  170SOL    HW2  751   4.446   0.473   0.374  0.0368 -0.4640 -1.2956
  170SOL    HW3  752   4.415   0.342   0.444  0.2207  0.8138  1.2475
  170SOL    MW4  753   4.473   0.402   0.417  0.1397  0.3728  0.0588
  171SOL     OW  754   4.235   4.382   0.889 -0.0548 -0.2060  0.2803
  171SOL    HW2  755   4.311   4.330   0.915 -0.0987  0.5593  2.0064
  171SOL    HW3  756   4.216   4.436   0.966 -0.3439  1.9805 -1.2930
  171SOL    MW4  757   4.242   4.382   0.903 -0.0987  0.1836  0.3004
  172SOL     OW  758   0.013   1.718   0.684 -0.2036  0.0420  0.3661
  172SOL    HW2  759  -0.015   1.687   0.598 -1.3622  0.2623  0.6454
  172SOL    HW3  760  -0.046   1.673   0.745  0.2695  0.2813  1.0003
  172SOL    MW4  761   0.001   1.708   0.681 -0.2940  0.1026  0.4867
  173SOL     OW  762   3.621   0.505   0.366  0.4948 -0.1151  0.4070
  173SOL    HW2  763   3.708   0.491   0.404 -0.5507  1.6490  3.6248
  173SOL    HW3  764   3.613   0.600   0.358 -1.2063 -0.2576  0.2908
  173SOL    MW4  765   3.632   0.516   0.370  0.1328  0.0988  0.8162
  174SOL     OW  766   2.590   4.544   0.465  0.1230 -0.0474  0.0001
  174SOL    HW2  767   2.682   4.534   0.439  0.5814 -0.2912  1.6494
  174SOL    HW3  768   2.584   4.633   0.499  0.1274 -0.5352  1.3156
  174SOL    MW4  769   2.601   4.554   0.466  0.1838 -0.1445  0.3913
  175SOL     OW  770   1.102   4.627   0.840 -0.6105 -0.5310 -0.3658
  175SOL    HW2  771   1.192   4.646   0.810 -0.6896 -0.1522 -0.3632
  175SOL    HW3  772   1.089   4.535   0.817  0.2805 -0.9813  0.9063
  175SOL    MW4  773   1.112   4.618   0.833 -0.5034 -0.5403 -0.1976
  176SOL     OW  774   3.468   0.339   0.531  0.0171 -0.5161 -0.1196
  176SOL    HW2  775   3.502   0.398   0.464  0.1985  0.7750  1.0841
  176SOL    HW3  776   3.415   0.395   0.587 -0.4787 -1.6678  0.5825
  176SOL    MW4  777   3.465   0.354   0.529 -0.0243 -0.4977  0.1318
  177SOL     OW  778   2.229   0.424   0.880  0.1804  0.2714 -0.0159
  177SOL    HW2  779   2.215   0.335   0.850  0.5537  0.0314  0.5062
  177SOL    HW3  780   2.154   0.473   0.847  0.7081  0.0757 -1.5358
  177SOL    MW4  781   2.217   0.419   0.872  0.2992  0.2139 -0.1476
  178SOL     OW  782   0.703   2.950   0.539 -0.1190 -0.7808 -0.2320
  178SOL    HW2  783   0.708   2.959   0.635 -0.3199  1.8185 -0.4308
  178SOL    HW3  784   0.788   2.979   0.507 -0.3331 -0.8625 -0.8841
  178SOL    MW4  785   0.715   2.955   0.548 -0.1739 -0.4489 -0.3442
  179SOL     OW  786   2.113   2.724   0.256  0.0309 -0.1385 -0.2945
  179SOL    HW2  787   2.027   2.698   0.289  0.6601 -1.3581  0.4292
  179SOL    HW3  788   2.156   2.641   0.234  1.2013  0.4271 -0.1672
  179SOL    MW4  789   2.107   2.709   0.257  0.2682 -0.2248 -0.1822
  180SOL     OW  790   1.732   0.911   0.769 -0.1099  0.2333 -0.1492
  180SOL    HW2  791   1.804   0.850   0.788 -0.8568 -0.6927 -0.2211
  180SOL    HW3  792   1.655   0.869   0.808 -0.5702  1.3501  0.1660
  180SOL    MW4  793   1.732   0.897   0.777 -0.2692  0.2584 -0.1172
  181SOL     OW  794   3.327   2.343   0.864  0.2394 -0.1257 -0.0556
  181SOL    HW2  795   3.328   2.333   0.959 -1.0625  1.4942  0.1513
  181SOL    HW3  796   3.407   2.391   0.844  0.2851 -0.0676  0.2627
  181SOL    MW4  797   3.337   2.348   0.874  0.0734  0.0956  0.0137
  182SOL     OW  798   1.706   0.711   0.338 -0.0215 -0.4352 -0.1515
  182SOL    HW2  799   1.687   0.780   0.402  1.0175 -0.5005  0.2390
  182SOL    HW3  800   1.672   0.631   0.378 -2.9228  0.1007 -1.4238
  182SOL    MW4  801   1.699   0.710   0.352 -0.2671 -0.3731 -0.2679
  183SOL     OW  802   1.151   2.304   0.277  0.0586 -0.0760 -0.1908
  183SOL    HW2  803   1.055   2.309   0.287  0.1800 -0.3803  1.2660
  183SOL    HW3  804   1.178   2.396   0.267 -0.2328  0.1729  1.1192
  183SOL    MW4  805   1.142   2.317   0.277  0.0362 -0.0837  0.1742
  184SOL     OW  806   3.616   1.671   0.732 -0.5206 -0.3566 -0.1220
  184SOL    HW2  807   3.552   1.629   0.790 -0.8629  1.6496  0.9969
  184SOL    HW3  808   3.700   1.636   0.760 -0.7317  0.1949  1.2757
  184SOL    MW4  809   3.618   1.661   0.744 -0.5939 -0.0192  0.2100
  185SOL     OW  810   2.698   2.399   0.520  0.4626  0.2600 -0.3321
  185SOL    HW2  811   2.771   2.376   0.462  1.8389 -0.0077  1.4972
  185SOL    HW3  812   2.660   2.315   0.544  0.6926  0.3069  0.1875
  185SOL    MW4  813   2.703   2.385   0.515  0.6745  0.2310 -0.0222
  186SOL     OW  814   0.068   0.987   0.465 -0.1019 -0.1026  0.0494
  186SOL    HW2  815   0.024   0.988   0.550 -1.6996 -0.2151 -0.7501
  186SOL    HW3  816   0.003   0.951   0.405  1.6164 -1.6401 -0.9125
  186SOL    MW4  817   0.054   0.983   0.468 -0.0860 -0.3203 -0.1830
  187SOL     OW  818   3.701   3.539   0.586 -0.1355  0.1122  0.1178
  187SOL    HW2  819   3.651   3.515   0.665  0.2315 -0.3908  0.1982
  187SOL    HW3  820   3.765   3.469   0.576 -0.6985 -0.2470 -1.0938
  187SOL    MW4  821   3.703   3.526   0.595 -0.1612 -0.0019 -0.0315
  188SOL     OW  822   4.299   1.293   0.561  0.6994 -0.2463 -0.1990
  188SOL    HW2  823   4.298   1.312   0.655 -1.3060  0.1003 -0.2689
  188SOL    HW3  824   4.390   1.271   0.542  1.3431  0.7659  1.6023
  188SOL    MW4  825   4.311   1.292   0.571  0.5198 -0.0669  0.0294
  189SOL     OW  826   3.112   4.603   0.367  0.1770  0.1578  0.2344
  189SOL    HW2  827   3.204   4.627   0.375  0.4572 -0.5291 -0.8481
  189SOL    HW3  828   3.072   4.676   0.321  0.4204 -0.0417 -0.3087
  189SOL    MW4  829   3.119   4.616   0.362  0.2460  0.0410  0.0199
  190SOL     OW  830   3.365   2.291   0.313 -0.0433 -0.2573  0.0548
  190SOL    HW2  831   3.405   2.370   0.349 -0.0376 -0.3898  0.3413
  190SOL    HW3  832   3.434   2.250   0.261 -0.3239  0.4112 -0.8545
  190SOL    MW4  833   3.379   2.296   0.311 -0.0796 -0.1864 -0.0273
  191SOL     OW  834   1.129   3.079   0.810  0.2557 -0.1410 -0.7620
  191SOL    HW2  835   1.137   3.003   0.753  0.8408  1.0803 -2.3515
  191SOL    HW3  836   1.057   3.130   0.773  0.8363  0.8073 -0.6215
  191SOL    MW4  837   1.121   3.076   0.798  0.4094  0.1452 -0.9531
  192SOL     OW  838   3.354   0.514   0.748 -0.4129 -0.0376 -0.2753
  192SOL    HW2  839   3.427   0.478   0.799  0.7436  0.4552 -1.5407
  192SOL    HW3  840   3.276   0.485   0.794  0.6047  0.3810  1.7518
  192SOL    MW4  841   3.353   0.505   0.761 -0.1261  0.0827 -0.1748
  193SOL     OW  842   1.288   4.004   0.718 -0.0137 -0.3782  0.0354
  193SOL    HW2  843   1.210   3.955   0.743 -0.2968 -0.4241 -0.9271
  193SOL    HW3  844   1.289   4.001   0.622  0.4632  0.7068 -0.0044
  193SOL    MW4  845   1.278   3.997   0.709  0.0118 -0.2408 -0.0969
  194SOL     OW  846   3.632   4.211   0.620 -0.1429  0.2012  0.3483
  194SOL    HW2  847   3.636   4.117   0.637 -1.9906  0.0252 -0.0621
  194SOL    HW3  848   3.717   4.232   0.580  0.9571 -0.9389  2.0354
  194SOL    MW4  849   3.644   4.201   0.617 -0.2413  0.0277  0.5168
  195SOL     OW  850   2.910   4.388   0.729  0.2247 -0.2489  0.1969
  195SOL    HW2  851   2.924   4.461   0.789 -1.9034 -1.1759  1.8889
  195SOL    HW3  852   2.967   4.319   0.761  0.3526 -0.1748  0.1290
  195SOL    MW4  853   2.919   4.389   0.741 -0.0391 -0.3619  0.4112
  196SOL     OW  854   0.993   3.804   0.337  0.0563 -0.2469 -0.3724
  196SOL    HW2  855   0.991   3.854   0.255  0.8349  1.9799  0.9252
  196SOL    HW3  856   0.928   3.847   0.392  1.2480 -0.2190  1.0330
  196SOL    MW4  857   0.984   3.816   0.333  0.3163  0.0505 -0.0158
  197SOL     OW  858   1.663   4.519   0.365  0.0370  0.4288 -0.3642
  197SOL    HW2  859   1.641   4.430   0.394  0.0194  0.5346 -0.0514
  197SOL    HW3  860   1.598   4.539   0.298 -0.8614  0.7551  0.5823
  197SOL    MW4  861   1.651   4.510   0.360 -0.0839  0.4854 -0.1980
  198SOL     OW  862   4.325   2.779   0.445 -0.0025  0.1616 -0.1481
  198SOL    HW2  863   4.279   2.858   0.473 -0.7102 -0.3678  0.1961
  198SOL    HW3  864   4.416   2.793   0.471  0.3229  1.8177 -2.0811
  198SOL    MW4  865   4.331   2.791   0.452 -0.0534  0.3102 -0.3577
  199SOL     OW  866   2.409   0.640   0.411 -0.1468 -0.0096  0.4883
  199SOL    HW2  867   2.390   0.611   0.500  0.9921 -0.6681  0.5310
  199SOL    HW3  868   2.488   0.694   0.420 -1.0977  1.4635  0.1285
  199SOL    MW4  869   2.417   0.643   0.424 -0.1218  0.0979  0.4465
  200SOL     OW  870   3.917   4.603   0.391  0.1663 -0.0790 -0.0084
  200SOL    HW2  871   3.967   4.684   0.387 -0.3253  0.1666 -2.3692
  200SOL    HW3  872   3.851   4.619   0.459  0.8789  1.0240  0.4358
  200SOL    MW4  873   3.915   4.616   0.399  0.1955  0.0992 -0.2612
  201SOL     OW  874   0.803   0.320   0.303  0.2043 -0.3656  0.3995
  201SOL    HW2  875   0.826   0.267   0.379 -1.9950 -0.4769  1.0302
  201SOL    HW3  876   0.728   0.275   0.264  0.2937  0.5664 -0.9025
  201SOL    MW4  877   0.796   0.307   0.308 -0.0740 -0.2573  0.3110
  202SOL     OW  878   3.346   0.072   0.481 -0.0805 -0.0962  0.3390
  202SOL    HW2  879   3.412   0.004   0.496 -0.0711 -0.1110  0.2347
  202SOL    HW3  880   3.395   0.154   0.481 -0.0766 -0.0986  0.3613
  202SOL    MW4  881   3.361   0.074   0.483 -0.0789 -0.0985  0.3282
  203SOL     OW  882   4.026   0.191   0.480 -0.5090  0.0651 -0.3474
  203SOL    HW2  883   4.119   0.212   0.479 -0.8127  1.4280 -0.7888
  203SOL    HW3  884   4.012   0.146   0.563  0.6883 -0.8311 -0.6255
  203SOL    MW4  885   4.036   0.188   0.491 -0.3910  0.1267 -0.4423
  204SOL     OW  886   0.513   4.371   0.454  0.0293 -0.0475 -0.4586
  204SOL    HW2  887   0.444   4.304   0.456 -1.7133  1.7020  0.7334
  204SOL    HW3  888   0.538   4.382   0.545  0.3318  0.8790 -0.6492
  204SOL    MW4  889   0.507   4.364   0.466 -0.1608  0.3057 -0.3265
  205SOL     OW  890   0.324   0.795   0.419  0.0599  0.0038 -0.0090
  205SOL    HW2  891   0.402   0.829   0.462  1.9855  0.2253 -3.5074
  205SOL    HW3  892   0.295   0.866   0.361 -0.9939 -1.1356 -0.9202
  205SOL    MW4  893   0.330   0.809   0.417  0.1749 -0.1173 -0.5908
  206SOL     OW  894   0.213   1.569   0.844 -0.2520 -0.4857 -0.4520
  206SOL    HW2  895   0.154   1.617   0.787 -1.1754  0.5484  1.3447
  206SOL    HW3  896   0.300   1.604   0.824 -0.8999  1.8517  0.7371
  206SOL    MW4  897   0.217   1.580   0.834 -0.4593 -0.0410 -0.0581
  207SOL     OW  898   1.838   1.942   0.834  0.3273 -0.3997  0.0460
  207SOL    HW2  899   1.830   1.854   0.796 -0.2963 -1.1103  1.7540
  207SOL    HW3  900   1.919   1.977   0.797  0.1148 -1.3499 -1.3467
  207SOL    MW4  901   1.848   1.935   0.824  0.2170 -0.6186  0.0876
  208SOL     OW  902   2.148   1.668   0.590 -0.0611  0.9474  0.0871
  208SOL    HW2  903   2.099   1.732   0.538 -3.4537  0.2351  2.2451
  208SOL    HW3  904   2.162   1.594   0.531 -0.2872  1.7484 -0.9839
  208SOL    MW4  905   2.144   1.667   0.575 -0.5386  0.9590  0.2305
  209SOL     OW  906   2.652   0.363   0.883 -0.5184  0.5551 -0.2726
  209SOL    HW2  907   2.666   0.364   0.978 -3.1756  0.1059  0.1780
  209SOL    HW3  908   2.666   0.272   0.858 -1.1697  0.3917 -0.0621
  209SOL    MW4  909   2.655   0.351   0.892 -0.9549  0.4743 -0.1854
  210SOL     OW  910   3.551   2.465   0.691  0.3640 -0.2368 -0.6354
  210SOL    HW2  911   3.565   2.547   0.737  0.4361 -1.3850  1.4584
  210SOL    HW3  912   3.634   2.417   0.702 -0.0893 -1.0737 -0.7823
  210SOL    MW4  913   3.564   2.469   0.698  0.3135 -0.4985 -0.3785
  211SOL     OW  914   1.338   2.725   1.085  0.1900  0.3415 -0.2932
  211SOL    HW2  915   1.394   2.782   1.138 -0.2358 -0.0388  0.5792
  211SOL    HW3  916   1.250   2.762   1.095 -0.3070 -1.2263  1.3630
  211SOL    MW4  917   1.334   2.738   1.093  0.0683  0.0846  0.0404
  212SOL     OW  918   1.329   2.509   0.702 -0.0540 -0.1217 -0.5308
  212SOL    HW2  919   1.345   2.595   0.742  0.6460 -0.4860 -0.0280
  212SOL    HW3  920   1.245   2.481   0.738 -1.0309  1.0274 -1.8631
  212SOL    MW4  921   1.320   2.517   0.712 -0.0905 -0.0181 -0.6402
  213SOL     OW  922   1.627   0.927   0.495 -0.4003  0.1263  0.5015
  213SOL    HW2  923   1.680   0.995   0.454 -0.3737  0.0142  0.3519
  213SOL    HW3  924   1.652   0.930   0.588 -0.8103  0.7055  0.5939
  213SOL    MW4  925   1.637   0.936   0.502 -0.4507  0.1879  0.4939
  214SOL     OW  926   4.067   4.012   0.711  0.0570 -0.2873 -0.2749
  214SOL    HW2  927   4.010   3.974   0.779  0.2309 -0.1718 -0.0625
  214SOL    HW3  928   4.027   3.986   0.629  0.7831 -1.8554 -0.1375
  214SOL    MW4  929   4.054   4.004   0.709  0.1760 -0.4792 -0.2287
  215SOL     OW  930   4.050   0.903   0.769  1.0351  0.0287 -0.4197
  215SOL    HW2  931   4.036   0.995   0.790  2.9735  0.3765 -0.5200
  215SOL    HW3  932   4.030   0.897   0.675 -0.6331  0.0072 -0.0631
  215SOL    MW4  933   4.046   0.915   0.759  1.0705  0.0718 -0.3859
  216SOL     OW  934   1.854   2.684   0.864  0.0770  0.1133  0.0052
  216SOL    HW2  935   1.850   2.592   0.839 -0.1048  0.2880 -0.6154
  216SOL    HW3  936   1.947   2.703   0.871  0.1264  0.0892 -0.6267
  216SOL    MW4  937   1.865   2.675   0.862  0.0594  0.1333 -0.1600
  217SOL     OW  938   3.135   0.403   0.884  0.1926 -0.0450 -0.2733
  217SOL    HW2  939   3.046   0.427   0.855  0.4400  0.7460 -0.3890
  217SOL    HW3  940   3.128   0.395   0.979  0.2828  1.2386 -0.1582
  217SOL    MW4  941   3.122   0.405   0.892  0.2372  0.2287 -0.2733
  218SOL     OW  942   1.336   4.242   0.865  0.3730 -0.2539  0.5012
  218SOL    HW2  943   1.423   4.281   0.852  0.4729 -0.9270 -0.9290
  218SOL    HW3  944   1.339   4.160   0.816 -0.9377 -0.4768  0.7810
  218SOL    MW4  945   1.348   4.236   0.857  0.2131 -0.3719  0.3494
  219SOL     OW  946   1.855   2.440   0.728  0.1125  0.3419  0.4296
  219SOL    HW2  947   1.763   2.416   0.734  0.4827 -1.3525 -0.1682
  219SOL    HW3  948   1.870   2.454   0.634  1.0344 -1.9981  0.1764
  219SOL    MW4  949   1.845   2.439   0.716  0.2829 -0.1903  0.3173
  220SOL     OW  950   0.783   2.513   0.508  0.1582  0.2092  0.0458
  220SOL    HW2  951   0.736   2.451   0.563 -1.1744  1.9091  0.8800
  220SOL    HW3  952   0.857   2.542   0.562 -0.1829  0.5998  0.3093
  220SOL    MW4  953   0.787   2.509   0.522 -0.0627  0.4849  0.1907
  221SOL     OW  954   1.135   3.254   0.488 -0.0177 -0.6423  0.2663
  221SOL    HW2  955   1.133   3.344   0.454 -0.3690 -0.1790  1.4981
  221SOL    HW3  956   1.227   3.238   0.509  0.0013 -0.4718  0.3114
  221SOL    MW4  957   1.147   3.264   0.486 -0.0615 -0.5586  0.4348
  222SOL     OW  958   3.813   4.449   0.875 -0.2470 -0.0694  0.4258
  222SOL    HW2  959   3.731   4.404   0.893  0.3331 -0.7314  1.4633
  222SOL    HW3  960   3.872   4.380   0.844 -0.4842  0.6347 -1.6912
  222SOL    MW4  961   3.810   4.434   0.873 -0.2019 -0.0639  0.2834
  223SOL     OW  962   0.762   3.171   0.283  0.0190  0.4080 -0.2883
  223SOL    HW2  963   0.729   3.128   0.204 -2.7113  0.5288  0.7201
  223SOL    HW3  964   0.834   3.116   0.312  0.2700 -0.3093 -2.1851
  223SOL    MW4  965   0.767   3.158   0.276 -0.3082  0.3293 -0.4056
  224SOL     OW  966   0.711   1.603   0.897  0.2690 -0.4265 -0.3400
  224SOL    HW2  967   0.717   1.511   0.870  2.5882 -0.6698  0.8561
  224SOL    HW3  968   0.697   1.599   0.992  2.1811  0.4285  0.0086
  224SOL    MW4  969   0.710   1.590   0.906  0.8273 -0.3457 -0.1363
  225SOL     OW  970   3.589   0.878   0.751 -0.1010 -0.0641  0.2457
  225SOL    HW2  971   3.600   0.971   0.771  0.7312  0.2886 -1.6321
  225SOL    HW3  972   3.660   0.834   0.799 -0.6513  0.2365  1.3353
  225SOL    MW4  973   3.600   0.884   0.760 -0.0639  0.0221  0.1417
  226SOL     OW  974   3.949   2.537   0.464 -0.4274 -0.3739 -0.0447
  226SOL    HW2  975   3.990   2.507   0.546  0.2296 -2.9052 -1.2576
  226SOL    HW3  976   4.022   2.568   0.410 -0.8553  1.2258  0.2504
  226SOL    MW4  977   3.964   2.537   0.468 -0.3972 -0.4969 -0.1658
  227SOL     OW  978   2.038   2.906   0.619  0.1338  0.4255 -0.5376
  227SOL    HW2  979   2.112   2.917   0.559  0.4263 -0.6725 -0.3874
  227SOL    HW3  980   2.070   2.845   0.686 -0.7543  0.2994 -0.2248
  227SOL    MW4  981   2.052   2.899   0.620  0.0553  0.2639 -0.4765
  228SOL     OW  982   1.574   0.523   0.750 -0.4102  0.3326 -0.5410
  228SOL    HW2  983   1.507   0.462   0.781  0.4968 -0.3065  0.1752
  228SOL    HW3  984   1.584   0.502   0.657 -0.0797 -0.6287 -0.2916
  228SOL    MW4  985   1.567   0.512   0.742 -0.2470  0.1215 -0.4136
  229SOL     OW  986   1.624   2.320   0.392  0.2751 -0.0836  0.0778
  229SOL    HW2  987   1.706   2.368   0.380 -0.1502  0.2853 -1.4421
  229SOL    HW3  988   1.559   2.388   0.410 -0.0413 -0.2286 -0.5302
  229SOL    MW4  989   1.626   2.335   0.393  0.1771 -0.0541 -0.2030
  230SOL     OW  990   0.664   1.398   0.498  0.4861 -0.1852  0.0461
  230SOL    HW2  991   0.739   1.454   0.481  0.1272  0.1373 -0.4769
  230SOL    HW3  992   0.588   1.456   0.496  0.1578 -0.6064 -0.0472
  230SOL    MW4  993   0.664   1.413   0.495  0.3954 -0.1984 -0.0353
  231SOL     OW  994   3.174   3.051   0.484  0.3471  0.1566 -0.3183
  231SOL    HW2  995   3.252   3.002   0.461  0.6080 -0.2361  1.3200
  231SOL    HW3  996   3.108   2.985   0.501 -0.7390  0.5094 -2.9237
  231SOL    MW4  997   3.175   3.036   0.483  0.2384  0.1514 -0.4459
  232SOL     OW  998   1.136   1.278   0.501 -0.4559 -0.2571  0.2220
  232SOL    HW2  999   1.156   1.300   0.592  0.1001 -1.6386  0.4537
  232SOL    HW3 1000   1.112   1.361   0.460  0.3971  0.5511  1.3397
  232SOL    MW4 1001   1.135   1.292   0.507 -0.2700 -0.3327  0.4000
  233SOL     OW 1002   2.022   3.237   0.277  0.1714  0.1947 -0.0791
  233SOL    HW2 1003   2.088   3.226   0.345 -0.2998  0.2538  0.3871
  233SOL    HW3 1004   1.981   3.151   0.269 -0.1460  0.3273  0.0990
  233SOL    MW4 1005   2.025   3.224   0.285  0.0675  0.2201  0.0059
  234SOL     OW 1006   3.876   1.575   0.839  0.2382  0.5826  0.1460
  234SOL    HW2 1007   3.847   1.575   0.930  0.7400  2.9225  0.3149
  234SOL    HW3 1008   3.878   1.482   0.816  1.0033 -0.1207  2.7994
  234SOL    MW4 1009   3.872   1.562   0.848  0.4053  0.7986  0.5184
  235SOL     OW 1010   4.486   4.272   1.427  0.2093  0.0723 -0.2126
  235SOL    HW2 1011   4.491   4.179   1.449  0.1575  0.0326 -0.3663
  235SOL    HW3 1012   4.397   4.297   1.450  0.1172  0.0016 -0.4906
  235SOL    MW4 1013   4.475   4.263   1.433  0.1903  0.0582 -0.2697
  236SOL     OW 1014   0.262   3.845   1.019  0.3753  0.3435 -0.1829
  236SOL    HW2 1015   0.244   3.774   1.080  0.7252  0.0054 -0.4725
  236SOL    HW3 1016   0.316   3.805   0.950  1.9164  1.2323  0.4713
  236SOL    MW4 1017   0.267   3.831   1.018  0.6248  0.4163 -0.1347
  237SOL     OW 1018   2.056   2.082   0.746 -0.2131 -0.0556 -0.3310
  237SOL    HW2 1019   2.046   2.173   0.772  1.0693 -0.1331  0.4473
  237SOL    HW3 1020   2.037   2.082   0.652  1.2174  1.2615 -0.6343
  237SOL    MW4 1021   2.052   2.094   0.737  0.1450  0.1080 -0.2683
  238SOL     OW 1022   3.798   3.169   0.789  0.2582 -0.0346  0.0409
  238SOL    HW2 1023   3.818   3.169   0.883 -2.0828  0.1897  0.5491
  238SOL    HW3 1024   3.840   3.248   0.756 -0.7092  1.0029  1.2859
  238SOL    MW4 1025   3.806   3.179   0.797 -0.1781  0.1318  0.2722
  239SOL     OW 1026   2.991   1.183   0.256  0.2008  0.0206  0.1227
  239SOL    HW2 1027   3.015   1.270   0.226 -1.3478  0.5362  0.3364
  239SOL    HW3 1028   2.939   1.198   0.335 -0.3092 -1.0671  0.0086
  239SOL    MW4 1029   2.987   1.196   0.262 -0.0708 -0.0547  0.1358
  240SOL     OW 1030   3.370   3.344   0.487  0.3811 -0.3493 -0.0774
  240SOL    HW2 1031   3.442   3.312   0.541  1.3553 -0.0339 -1.1653
  240SOL    HW3 1032   3.316   3.268   0.471  0.4432 -0.5815  0.7871
  240SOL    MW4 1033   3.372   3.330   0.492  0.5178 -0.3383 -0.1069
  241SOL     OW 1034   2.091   2.320   0.403 -0.6562 -0.1066  0.2128
  241SOL    HW2 1035   2.068   2.228   0.415  0.9410 -0.6608 -0.9451
  241SOL    HW3 1036   2.174   2.331   0.449  0.3769  0.1631 -1.6649
  241SOL    MW4 1037   2.099   2.309   0.411 -0.3092 -0.1442 -0.1877
  242SOL     OW 1038   4.292   2.078   0.492  0.2696  0.2867 -0.1628
  242SOL    HW2 1039   4.373   2.032   0.473 -0.4105 -1.0234  0.0404
  242SOL    HW3 1040   4.311   2.170   0.473  1.5840 -0.1023 -0.7544
  242SOL    MW4 1041   4.305   2.084   0.487  0.3533  0.0625 -0.2140
  243SOL     OW 1042   2.622   2.723   0.837  0.2967 -0.5584 -0.3810
  243SOL    HW2 1043   2.635   2.747   0.929  1.3381 -0.0157 -0.6547
  243SOL    HW3 1044   2.629   2.628   0.836 -0.6765 -0.6486  0.2403
  243SOL    MW4 1045   2.625   2.714   0.849  0.3057 -0.4988 -0.3351
  244SOL     OW 1046   2.061   2.339   0.871  0.3396  0.0147  0.2335
  244SOL    HW2 1047   1.983   2.375   0.829  0.0475 -0.2432  0.5424
  244SOL    HW3 1048   2.033   2.322   0.961  0.1922 -1.8253 -0.1429
  244SOL    MW4 1049   2.047   2.341   0.877  0.2816 -0.2623  0.2246
  245SOL     OW 1050   2.398   0.529   0.676  0.0825  0.0292 -0.1632
  245SOL    HW2 1051   2.348   0.505   0.754 -0.0508  2.7392  0.6461
  245SOL    HW3 1052   2.484   0.490   0.690 -0.7127 -1.6619  0.1154
  245SOL    MW4 1053   2.403   0.521   0.689 -0.0401  0.1636 -0.0196
  246SOL     OW 1054   0.769   0.803   0.965  0.5753 -0.0643 -0.3808
  246SOL    HW2 1055   0.745   0.721   0.924  0.2608 -0.0078 -0.3078
  246SOL    HW3 1056   0.703   0.866   0.935 -0.1347 -0.2072  0.8659
  246SOL    MW4 1057   0.757   0.801   0.955  0.4402 -0.0757 -0.2068
  247SOL     OW 1058   4.351   0.665   0.388 -0.2004  0.1813  0.3818
  247SOL    HW2 1059   4.270   0.645   0.434 -0.5872 -2.2681 -1.2809
  247SOL    HW3 1060   4.327   0.732   0.324 -0.6072  0.4129  0.7745
  247SOL    MW4 1061   4.337   0.671   0.386 -0.3052 -0.1113  0.2142
  248SOL     OW 1062   4.440   3.480   0.854 -0.0523 -0.2744 -0.6958
  248SOL    HW2 1063   4.406   3.544   0.792  0.0490 -2.1755 -2.7736
  248SOL    HW3 1064   4.527   3.459   0.821  0.0290 -1.2678  0.1266
  248SOL    MW4 1065   4.447   3.486   0.841 -0.0281 -0.6564 -0.8613
  249SOL     OW 1066   2.746   3.524   0.441 -0.0278 -0.2079 -0.1560
  249SOL    HW2 1067   2.837   3.549   0.426  0.5176 -1.5325  0.7409
  249SOL    HW3 1068   2.749   3.428   0.445 -1.5318 -0.2768 -0.5221
  249SOL    MW4 1069   2.759   3.514   0.440 -0.1540 -0.3915 -0.0859
  250SOL     OW 1070   0.393   0.145   0.915  0.3373 -0.1691 -0.0356
  250SOL    HW2 1071   0.315   0.094   0.894 -0.2651  0.7624 -0.0848
  250SOL    HW3 1072   0.466   0.085   0.898 -0.2572 -0.3016 -2.2317
  250SOL    MW4 1073   0.392   0.130   0.910  0.1794 -0.0637 -0.3319
  251SOL     OW 1074   1.049   3.537   0.397  0.3838  0.3495  0.2897
  251SOL    HW2 1075   1.020   3.625   0.375  1.3591  0.0722 -2.3467
  251SOL    HW3 1076   0.972   3.482   0.385  0.6149  0.3791 -1.4708
  251SOL    MW4 1077   1.035   3.541   0.393  0.5431  0.3169 -0.2904
  252SOL     OW 1078   1.444   4.586   0.219 -0.1240  0.0805  0.0953
  252SOL    HW2 1079   1.391   4.662   0.195  0.5953  0.0218 -1.7188
  252SOL    HW3 1080   1.382   4.514   0.227 -0.4696  0.2858 -0.7865
  252SOL    MW4 1081   1.429   4.587   0.217 -0.0747  0.1001 -0.2604
  253SOL     OW 1082   3.090   2.673   0.851  0.0822  0.5319 -0.1775
  253SOL    HW2 1083   3.087   2.586   0.812  0.4835 -0.1877  1.3794
  253SOL    HW3 1084   3.172   2.710   0.818  0.2155  0.0870 -0.3562
  253SOL    MW4 1085   3.101   2.666   0.841  0.1531  0.3784  0.0044
  254SOL     OW 1086   4.325   3.241   0.799  0.3022  0.5496 -0.0101
  254SOL    HW2 1087   4.352   3.328   0.828  0.7278  0.7730 -1.0630
  254SOL    HW3 1088   4.399   3.209   0.746  0.6679 -0.9326  1.3394
  254SOL    MW4 1089   4.339   3.248   0.796  0.4067  0.3836  0.0291
  255SOL     OW 1090   1.763   1.691   0.726 -0.1880  0.2379  0.2324
  255SOL    HW2 1091   1.757   1.699   0.631 -0.0977 -0.7810  0.1360
  255SOL    HW3 1092   1.838   1.633   0.741 -1.1655 -0.8785  0.8669
  255SOL    MW4 1093   1.772   1.685   0.716 -0.3051 -0.0440  0.3034
  256SOL     OW 1094   1.199   4.454   0.490  0.2708 -0.7436  0.1430
  256SOL    HW2 1095   1.211   4.417   0.403  0.8488 -0.5046  0.1247
  256SOL    HW3 1096   1.230   4.544   0.483 -0.8646 -0.3348  0.2672
  256SOL    MW4 1097   1.205   4.461   0.478  0.1973 -0.6580  0.1570
  257SOL     OW 1098   3.010   3.294   0.529  0.0599  0.3971 -0.0529
  257SOL    HW2 1099   3.060   3.216   0.505 -0.2365  0.4599 -0.9048
  257SOL    HW3 1100   2.918   3.267   0.520 -0.0828  0.1011  2.0843
  257SOL    MW4 1101   3.004   3.280   0.524  0.0019  0.3664  0.1167
  258SOL     OW 1102   3.903   1.559   0.459  0.0829  0.7202 -0.3022
  258SOL    HW2 1103   3.813   1.589   0.446  0.3703  1.1084 -1.3947
  258SOL    HW3 1104   3.899   1.464   0.448 -0.2791  0.6817  0.1394
  258SOL    MW4 1105   3.891   1.550   0.456  0.0730  0.7663 -0.3881
  259SOL     OW 1106   0.444   1.942   0.888 -0.3484 -0.0096  0.0693
  259SOL    HW2 1107   0.443   1.849   0.864 -0.3974  0.0055  0.0139
  259SOL    HW3 1108   0.443   1.941   0.984 -0.1654 -0.0693  0.0716
  259SOL    MW4 1109   0.444   1.929   0.898 -0.3307 -0.0155  0.0623
  260SOL     OW 1110   2.866   2.007   0.533  0.1456  0.2778  0.0680
  260SOL    HW2 1111   2.896   2.018   0.624  1.3442  2.1747 -0.5190
  260SOL    HW3 1112   2.946   1.993   0.483 -0.5173 -0.7651 -0.7016
  260SOL    MW4 1113   2.880   2.007   0.539  0.2160  0.3905 -0.1110
  261SOL     OW 1114   0.601   2.211   0.357  0.2701 -0.7779  0.1640
  261SOL    HW2 1115   0.565   2.128   0.388 -0.1462 -1.1653 -1.3136
  261SOL    HW3 1116   0.618   2.261   0.436 -0.2392 -1.9622  1.0311
  261SOL    MW4 1117   0.599   2.207   0.371  0.1481 -0.9854  0.0834
  262SOL     OW 1118   2.483   0.405   0.326  0.3542 -0.2758 -0.2372
  262SOL    HW2 1119   2.484   0.435   0.235 -1.0524 -0.1487 -0.2274
  262SOL    HW3 1120   2.467   0.485   0.376  0.8924 -0.3830  0.1012
  262SOL    MW4 1121   2.481   0.420   0.320  0.2394 -0.2731 -0.1913
  263SOL     OW 1122   0.800   3.429   0.359  0.2109  0.4998 -0.3421
  263SOL    HW2 1123   0.730   3.431   0.424  1.2764  0.6274  0.8315
  263SOL    HW3 1124   0.790   3.345   0.315 -0.3106  0.2588  0.2322
  263SOL    MW4 1125   0.790   3.418   0.361  0.2826  0.4849 -0.1115
  264SOL     OW 1126   2.659   4.275   0.799  0.0568  0.0583 -0.1859
  264SOL    HW2 1127   2.730   4.322   0.755 -1.1116  0.9486 -1.1612
  264SOL    HW3 1128   2.683   4.276   0.891  0.9216  1.0420 -0.4103
  264SOL    MW4 1129   2.671   4.281   0.805  0.0167  0.3052 -0.3442
  265SOL     OW 1130   3.097   0.182   0.528 -0.1611 -0.0068  0.3040
  265SOL    HW2 1131   3.110   0.277   0.523 -1.1336  0.0480 -1.5194
  265SOL    HW3 1132   3.183   0.145   0.504 -0.3169  0.4132 -0.9533
  265SOL    MW4 1133   3.110   0.190   0.524 -0.3102  0.0559 -0.1025
  266SOL     OW 1134   0.083   0.693   0.549  0.1815 -0.3560 -0.4347
  266SOL    HW2 1135   0.006   0.686   0.492 -1.5058  0.0982  1.7293
  266SOL    HW3 1136   0.144   0.748   0.500 -1.0627 -0.2889 -1.9646
  266SOL    MW4 1137   0.081   0.699   0.535 -0.2052 -0.2872 -0.3511
  267SOL     OW 1138   0.466   1.200   0.862 -0.3192 -0.1302 -0.0844
  267SOL    HW2 1139   0.382   1.229   0.827  0.1174 -0.3357 -1.3144
  267SOL    HW3 1140   0.468   1.106   0.846  0.5115  0.0100 -0.8684
  267SOL    MW4 1141   0.455   1.192   0.855 -0.1520 -0.1388 -0.3501
  268SOL     OW 1142   3.273   0.670   0.507 -0.1179  0.5635  0.0794
  268SOL    HW2 1143   3.327   0.650   0.583 -0.5701 -1.1238 -0.0276
  268SOL    HW3 1144   3.209   0.599   0.504 -0.3474  0.8391 -1.6592
  268SOL    MW4 1145   3.271   0.658   0.517 -0.2079  0.3773 -0.1641
  269SOL     OW 1146   2.488   2.804   0.433 -0.2077 -0.0406  0.9381
  269SOL    HW2 1147   2.470   2.800   0.527  0.5579 -1.1702  1.0539
  269SOL    HW3 1148   2.549   2.877   0.424 -4.1668  3.3838  0.6170
  269SOL    MW4 1149   2.494   2.813   0.445 -0.6292  0.2620  0.9110
  270SOL     OW 1150   1.281   4.070   0.224 -0.3392  0.6358 -0.2535
  270SOL    HW2 1151   1.260   4.020   0.303  0.2850  0.8117  0.0323
  270SOL    HW3 1152   1.376   4.057   0.213 -0.3328  1.0428 -0.6737
  270SOL    MW4 1153   1.291   4.062   0.233 -0.2561  0.7129 -0.2712
  271SOL     OW 1154   0.458   4.629   0.363  0.0453  0.0325 -0.0995
  271SOL    HW2 1155   0.492   4.666   0.444 -1.1604  0.6599  0.1331
  271SOL    HW3 1156   0.461   4.534   0.376  2.3714  0.0323 -0.3815
  271SOL    MW4 1157   0.463   4.621   0.375  0.1932  0.1154 -0.1060
  272SOL     OW 1158   2.404   2.299   0.864  0.1187  0.1561 -0.2205
  272SOL    HW2 1159   2.425   2.322   0.954 -0.2589  0.8533 -0.3022
  272SOL    HW3 1160   2.353   2.374   0.831  0.1914 -0.1187 -0.9855
  272SOL    MW4 1161   2.400   2.312   0.871  0.0784  0.2120 -0.3322
  273SOL     OW 1162   1.383   3.191   0.529 -0.1719 -0.1983  0.3724
  273SOL    HW2 1163   1.372   3.191   0.624 -1.4139 -1.5995  0.2461
  273SOL    HW3 1164   1.406   3.101   0.507  1.2257  0.3573 -0.5566
  273SOL    MW4 1165   1.385   3.179   0.538 -0.1515 -0.3097  0.2332
  274SOL     OW 1166   0.495   2.685   0.845 -0.3608 -0.2647 -0.2542
  274SOL    HW2 1167   0.451   2.717   0.924 -0.1339  0.2433 -0.3327
  274SOL    HW3 1168   0.436   2.710   0.773 -0.1022  0.1259 -0.3307
  274SOL    MW4 1169   0.481   2.693   0.846 -0.2967 -0.1464 -0.2747
  275SOL     OW 1170   0.178   0.041   0.367  0.2592 -0.4913 -0.0366
  275SOL    HW2 1171   0.185   0.127   0.324  1.2187 -0.5140  0.0647
  275SOL    HW3 1172   0.268   0.014   0.380 -0.0445 -1.2640  0.4552
  275SOL    MW4 1173   0.191   0.049   0.363  0.3457 -0.5962  0.0416
  276SOL     OW 1174   1.947   4.235   0.441  0.3518 -0.3514 -0.3915
  276SOL    HW2 1175   1.925   4.142   0.430  2.0852 -0.7271 -0.8381
  276SOL    HW3 1176   1.897   4.262   0.518  0.8348 -2.0009  0.5333
  276SOL    MW4 1177   1.937   4.226   0.450  0.6442 -0.6185 -0.3284
  277SOL     OW 1178   4.472   3.983   0.994 -0.2217  0.5206 -0.7362
  277SOL    HW2 1179   4.562   3.951   1.005 -0.1016  1.0627 -0.0952
  277SOL    HW3 1180   4.429   3.963   1.077 -0.8004 -0.0508 -1.1679
  277SOL    MW4 1181   4.479   3.976   1.006 -0.2823  0.5171 -0.7086
  278SOL     OW 1182   3.157   3.992   0.728 -0.6825  0.3379 -0.1862
  278SOL    HW2 1183   3.172   3.980   0.634  0.0244 -2.7782  0.2672
  278SOL    HW3 1184   3.071   3.954   0.744  0.2328 -1.3966  0.7963
  278SOL    MW4 1185   3.148   3.985   0.718 -0.4687 -0.3023  0.0032
  279SOL     OW 1186   0.508   0.139   0.608  0.4466 -0.2428 -0.4369
  279SOL    HW2 1187   0.543   0.089   0.681 -2.1466 -0.1212  0.9300
  279SOL    HW3 1188   0.517   0.230   0.634 -0.4040 -0.1954 -0.3007
  279SOL    MW4 1189   0.514   0.144   0.621 -0.0077 -0.2205 -0.2387
  280SOL     OW 1190   3.922   3.367   0.639 -0.6278  0.5248  0.2116
  280SOL    HW2 1191   3.988   3.317   0.591 -0.2263  2.1205 -0.9169
  280SOL    HW3 1192   3.969   3.445   0.669 -1.4921  0.6888  1.1375
  280SOL    MW4 1193   3.937   3.371   0.637 -0.6888  0.7567  0.1848
  281SOL     OW 1194   1.783   1.135   0.340 -0.0800  0.0770 -0.1448
  281SOL    HW2 1195   1.708   1.169   0.388  0.2072  0.1758  0.2390
  281SOL    HW3 1196   1.746   1.077   0.274 -0.5514  0.8087 -0.5283
  281SOL    MW4 1197   1.768   1.132   0.338 -0.1043  0.1864 -0.1447
  282SOL     OW 1198   1.785   3.976   0.723 -0.0363  0.3924 -0.5312
  282SOL    HW2 1199   1.704   3.941   0.760  0.1470  0.1047 -0.4028
  282SOL    HW3 1200   1.854   3.938   0.777  0.2008  0.3937 -0.8367
  282SOL    MW4 1201   1.783   3.966   0.735  0.0193  0.3548 -0.5546
  283SOL     OW 1202   1.897   0.382   0.170 -0.2968 -0.2511 -0.4405
  283SOL    HW2 1203   1.974   0.350   0.218 -0.5425 -0.6464 -0.3038
  283SOL    HW3 1204   1.918   0.473   0.149  0.4597 -0.5269 -0.9253
  283SOL    MW4 1205   1.910   0.390   0.174 -0.2295 -0.3396 -0.4864
  284SOL     OW 1206   0.058   2.253   0.289 -0.0741  0.0020 -0.5430
  284SOL    HW2 1207   0.057   2.160   0.312 -0.2844  0.2520  0.5051
  284SOL    HW3 1208   0.145   2.283   0.313 -1.0859  0.8155  2.2810
  284SOL    MW4 1209   0.069   2.245   0.295 -0.2354  0.1423 -0.0321
  285SOL     OW 1210   0.064   2.842   0.574 -0.4883  0.1258 -0.2541
  285SOL    HW2 1211   0.157   2.825   0.557 -0.3060  0.4669  0.4097
  285SOL    HW3 1212   0.051   2.816   0.665 -0.2584  3.2555  0.7203
  285SOL    MW4 1213   0.075   2.836   0.584 -0.4339  0.5839 -0.0380
  286SOL     OW 1214   0.311   2.350   0.827  0.5723 -0.2292 -0.6107
  286SOL    HW2 1215   0.302   2.387   0.739  0.6622 -0.8100 -0.8649
  286SOL    HW3 1216   0.403   2.363   0.850  0.5361 -0.0275 -0.5771
  286SOL    MW4 1217   0.322   2.356   0.818  0.5794 -0.2789 -0.6398
  287SOL     OW 1218   1.196   2.575   0.265 -0.5611 -0.1381  0.7039
  287SOL    HW2 1219   1.169   2.658   0.306 -1.1943 -0.1072  0.2493
  287SOL    HW3 1220   1.155   2.578   0.178  0.8293 -0.1605  0.0305
  287SOL    MW4 1221   1.187   2.586   0.259 -0.4613 -0.1369  0.5551
  288SOL     OW 1222   4.310   0.192   0.490  0.2035 -0.1039  0.3859
  288SOL    HW2 1223   4.332   0.113   0.440  2.6323  0.5730  0.2822
  288SOL    HW3 1224   4.299   0.162   0.580  1.0080 -0.6038  0.3267
  288SOL    MW4 1225   4.312   0.178   0.495  0.6304 -0.0806  0.3644
  289SOL     OW 1226   0.431   4.229   0.866 -0.4305 -0.0983 -0.0955
  289SOL    HW2 1227   0.348   4.232   0.818 -0.8870  0.7914  0.7418
  289SOL    HW3 1228   0.486   4.293   0.822 -0.3591 -0.3070 -0.3148
  289SOL    MW4 1229   0.427   4.237   0.854 -0.4813 -0.0081 -0.0138
  290SOL     OW 1230   0.656   3.667   0.268  0.2585  0.2081 -0.6066
  290SOL    HW2 1231   0.692   3.726   0.201 -0.3300 -0.4059 -1.4740
  290SOL    HW3 1232   0.717   3.593   0.270 -0.6678 -0.6189 -1.7547
  290SOL    MW4 1233   0.669   3.665   0.259  0.0586  0.0179 -0.8725
  291SOL     OW 1234   2.908   2.348   0.349  0.2094  0.5626 -0.0074
  291SOL    HW2 1235   2.965   2.299   0.289 -1.2613  0.4886 -1.3665
  291SOL    HW3 1236   2.950   2.434   0.356  0.4657  0.5251 -1.0392
  291SOL    MW4 1237   2.921   2.353   0.342  0.0494  0.5479 -0.3229
  292SOL     OW 1238   3.613   1.147   0.826  0.1754  0.6412 -0.4689
  292SOL    HW2 1239   3.615   1.145   0.921 -0.4307  1.1384 -0.4439
  292SOL    HW3 1240   3.532   1.194   0.804 -0.8908 -1.4908 -1.2383
  292SOL    MW4 1241   3.603   1.153   0.835 -0.0455  0.4255 -0.5671
  293SOL     OW 1242   0.099   0.056   0.822  0.2109 -0.1036  0.2150
  293SOL    HW2 1243   0.134   0.106   0.748  1.0282 -0.6418  0.2314
  293SOL    HW3 1244   0.062  -0.023   0.783 -1.6373  0.7738  0.1237
  293SOL    MW4 1245   0.099   0.052   0.807  0.0749 -0.0588  0.2051
  294SOL     OW 1246   3.619   4.292   1.167  0.1105 -0.3070 -0.4811
  294SOL    HW2 1247   3.624   4.201   1.199 -1.3770 -0.0556  0.4814
  294SOL    HW3 1248   3.603   4.283   1.073 -1.0198 -1.0479 -0.2261
  294SOL    MW4 1249   3.618   4.279   1.159 -0.2346 -0.3715 -0.3206
  295SOL     OW 1250   1.345   0.577   0.327 -0.1468  0.1774  0.6240
  295SOL    HW2 1251   1.353   0.672   0.337  1.3411  0.3527 -1.9022
  295SOL    HW3 1252   1.252   0.561   0.315 -0.5329  1.1817  2.1790
  295SOL    MW4 1253   1.334   0.587   0.327 -0.0013  0.3331  0.4959
  296SOL     OW 1254   0.689   0.555   0.873 -0.0274  0.4176 -0.0863
  296SOL    HW2 1255   0.611   0.511   0.905  1.2900 -0.4672  1.9920
  296SOL    HW3 1256   0.747   0.485   0.845  0.9041  0.9686  0.4416
  296SOL    MW4 1257   0.687   0.540   0.874  0.2693  0.3735  0.2576
  297SOL     OW 1258   0.268   0.798   0.880 -0.2038  0.3247 -0.1668
  297SOL    HW2 1259   0.187   0.838   0.849 -0.2706  1.2686  1.2106
  297SOL    HW3 1260   0.253   0.780   0.973  0.6098 -0.9173 -0.2609
  297SOL    MW4 1261   0.255   0.801   0.888 -0.1052  0.2854  0.0025
  298SOL     OW 1262   0.049   1.987   0.416 -0.6860 -0.0927  0.5213
  298SOL    HW2 1263   0.056   1.903   0.371 -0.4875  0.7895 -1.1205
  298SOL    HW3 1264   0.136   2.002   0.453 -0.7197 -0.5911  0.8067
  298SOL    MW4 1265   0.061   1.978   0.415 -0.6642 -0.0420  0.3423
  299SOL     OW 1266   2.904   3.917   0.835  0.8139  0.0944  0.0811
  299SOL    HW2 1267   2.898   3.906   0.930  1.8108  1.2546  0.2853
  299SOL    HW3 1268   2.819   3.952   0.810  0.1226 -1.3415  0.3759
  299SOL    MW4 1269   2.892   3.920   0.844  0.8543  0.0579  0.1468
  300SOL     OW 1270   0.856   0.094   0.770  0.4556  0.0136  0.1816
  300SOL    HW2 1271   0.938   0.050   0.789  0.6660 -0.3680 -1.5507
  300SOL    HW3 1272   0.866   0.181   0.809  0.9683 -0.6238  1.5097
  300SOL    MW4 1273   0.868   0.100   0.778  0.5510 -0.1208  0.1283
  301SOL     OW 1274   2.427   1.668   0.638 -0.0798 -0.3158 -0.4931
  301SOL    HW2 1275   2.471   1.750   0.658  0.2328 -0.6469  0.1786
  301SOL    HW3 1276   2.336   1.693   0.621 -0.3022  0.0034  1.1135
  301SOL    MW4 1277   2.421   1.682   0.638 -0.0679 -0.3175 -0.1925
  302SOL     OW 1278   2.882   0.577   0.337 -0.2768  0.2146 -0.2405
  302SOL    HW2 1279   2.880   0.670   0.318 -1.4212  0.1809 -0.3170
  302SOL    HW3 1280   2.810   0.563   0.399  0.4060 -0.4779  0.4153
  302SOL    MW4 1281   2.872   0.587   0.343 -0.3378  0.1188 -0.1641
  303SOL     OW 1282   4.480   1.152   0.849 -0.0680 -0.2527  0.0847
  303SOL    HW2 1283   4.497   1.066   0.810  0.1086  0.1315 -0.6855
  303SOL    HW3 1284   4.475   1.134   0.943 -1.2360 -1.2973 -0.1674
  303SOL    MW4 1285   4.482   1.138   0.856 -0.1988 -0.3400 -0.0501
  304SOL     OW 1286   1.103   3.632   0.662  0.1535 -0.1708  0.3614
  304SOL    HW2 1287   1.167   3.581   0.711  0.0842 -0.9959 -0.3950
  304SOL    HW3 1288   1.102   3.593   0.575 -0.9670  0.1919  0.1964
  304SOL    MW4 1289   1.111   3.620   0.657 -0.0036 -0.2317  0.2398
  305SOL     OW 1290   0.677   2.030   0.709 -0.3355 -0.2656  0.1307
  305SOL    HW2 1291   0.611   1.993   0.768  1.0771 -1.9738  0.6936
  305SOL    HW3 1292   0.760   2.007   0.750  0.6193  0.8901 -1.1427
  305SOL    MW4 1293   0.679   2.022   0.722 -0.0232 -0.3383  0.0370
  306SOL     OW 1294   0.977   2.634   0.715  0.2553 -0.5895 -0.2703
  306SOL    HW2 1295   0.892   2.673   0.735 -0.5549 -2.6403  0.4325
  306SOL    HW3 1296   0.994   2.574   0.788  1.1181 -2.0882 -1.6761
  306SOL    MW4 1297   0.968   2.631   0.727  0.2622 -1.0576 -0.3630
  307SOL     OW 1298   1.111   2.398   0.841  0.4458 -0.0401  0.2629
  307SOL    HW2 1299   1.123   2.309   0.809 -0.6052 -0.3961  0.7926
  307SOL    HW3 1300   1.099   2.387   0.936  0.4458  0.6767  0.3466
  307SOL    MW4 1301   1.111   2.385   0.849  0.3071  0.0074  0.3437
  308SOL     OW 1302   0.929   1.960   0.829  0.0331  0.2698 -0.6706
  308SOL    HW2 1303   0.928   1.955   0.925  0.1746 -0.0069 -0.6836
  308SOL    HW3 1304   1.000   2.022   0.810 -0.5864  1.0260 -0.5708
  308SOL    MW4 1305   0.939   1.968   0.839 -0.0300  0.3331 -0.6591
  309SOL     OW 1306   0.643   2.299   0.623 -0.3394 -0.3699 -0.4017
  309SOL    HW2 1307   0.611   2.343   0.702 -0.6764 -1.3959  0.0354
  309SOL    HW3 1308   0.667   2.211   0.652  0.8966 -0.2922 -1.1599
  309SOL    MW4 1309   0.642   2.293   0.637 -0.2208 -0.4950 -0.4441
  310SOL     OW 1310   3.140   1.736   0.523  0.5323  0.2467 -0.2094
  310SOL    HW2 1311   3.047   1.719   0.536  0.5570 -0.6280 -1.1169
  310SOL    HW3 1312   3.144   1.827   0.496 -0.1383  0.0565 -0.9609
  310SOL    MW4 1313   3.128   1.746   0.521  0.4470  0.1063 -0.4282
  311SOL     OW 1314   2.836   0.113   0.516  0.4067 -0.1057 -0.7627
  311SOL    HW2 1315   2.851   0.020   0.534 -0.1825 -0.0980 -0.2223
  311SOL    HW3 1316   2.923   0.150   0.506  0.7098 -0.3386  0.9203
  311SOL    MW4 1317   2.849   0.105   0.517  0.3691 -0.1354 -0.4693
  312SOL     OW 1318   0.201   0.298   0.255  0.2734 -0.0565  0.3176
  312SOL    HW2 1319   0.263   0.354   0.302  0.0932  0.1516  0.3078
  312SOL    HW3 1320   0.115   0.331   0.280  0.1694 -0.2431  0.2056
  312SOL    MW4 1321   0.198   0.309   0.264  0.2359 -0.0536  0.3016
  313SOL     OW 1322   0.863   3.490   0.805 -0.0905  0.6016 -0.0237
  313SOL    HW2 1323   0.922   3.550   0.760  0.4784  1.4106  1.7360
  313SOL    HW3 1324   0.776   3.529   0.795  0.1092  1.0689  0.0776
  313SOL    MW4 1325   0.859   3.503   0.798  0.0110  0.7701  0.2218
  314SOL     OW 1326   0.566   3.447   0.508  0.2262 -0.5651 -0.7176
  314SOL    HW2 1327   0.537   3.360   0.533  0.5849 -0.5851 -0.3832
  314SOL    HW3 1328   0.501   3.475   0.443 -0.2571 -0.8230 -0.3577
  314SOL    MW4 1329   0.553   3.440   0.503  0.2097 -0.6015 -0.6260
  315SOL     OW 1330   1.445   3.788   0.315  0.4794 -0.2909  0.0069
  315SOL    HW2 1331   1.405   3.751   0.237  0.7713  0.1101 -0.3384
  315SOL    HW3 1332   1.500   3.717   0.349  0.9149 -0.2314 -0.5607
  315SOL    MW4 1333   1.447   3.774   0.309  0.5754 -0.2306 -0.1135
  316SOL     OW 1334   3.240   1.087   0.318  0.2013 -0.6012 -0.1400
  316SOL    HW2 1335   3.148   1.103   0.294  0.0731 -2.3452 -0.8515
  316SOL    HW3 1336   3.268   1.169   0.360 -1.4353  0.2408 -0.6395
  316SOL    MW4 1337   3.231   1.100   0.320 -0.0317 -0.7204 -0.2998
  317SOL     OW 1338   2.036   3.512   0.239 -0.3314 -0.2853  0.5690
  317SOL    HW2 1339   2.069   3.512   0.149  0.0983  0.2353  0.7239
  317SOL    HW3 1340   2.006   3.422   0.253 -1.8541  0.0020 -0.6233
  317SOL    MW4 1341   2.036   3.500   0.229 -0.4756 -0.1786  0.4321
  318SOL     OW 1342   3.565   4.300   0.874  0.0349  0.4310 -0.0006
  318SOL    HW2 1343   3.580   4.242   0.798  1.6006  0.2155  0.4433
  318SOL    HW3 1344   3.476   4.332   0.862 -0.3220 -0.8782 -1.0778
  318SOL    MW4 1345   3.556   4.297   0.862  0.1945  0.2303 -0.0842
  319SOL     OW 1346   1.757   4.247   0.668  0.4172 -0.0668 -0.3665
  319SOL    HW2 1347   1.763   4.153   0.687 -0.0648 -0.0965 -0.3595
  319SOL    HW3 1348   1.693   4.253   0.597  0.3225  0.2731 -0.2513
  319SOL    MW4 1349   1.749   4.235   0.661  0.3411 -0.0262 -0.3504
  320SOL     OW 1350   0.845   4.284   0.828 -1.0391  0.5735 -0.3625
  320SOL    HW2 1351   0.939   4.284   0.809 -0.1347 -0.8180  3.6011
  320SOL    HW3 1352   0.818   4.194   0.811 -1.0306  0.2839  1.0954
  320SOL    MW4 1353   0.854   4.272   0.823 -0.9186  0.3514  0.3528
  321SOL     OW 1354   1.939   0.673   0.171  0.2682 -0.7339 -0.1150
  321SOL    HW2 1355   1.862   0.688   0.226  0.3316 -1.7643  0.2555
  321SOL    HW3 1356   2.012   0.711   0.221  0.2815 -1.4067  0.3800
  321SOL    MW4 1357   1.939   0.680   0.185  0.2784 -0.9586 -0.0008
  322SOL     OW 1358   2.701   2.976   0.398  0.3341 -0.1894 -0.2822
  322SOL    HW2 1359   2.706   2.964   0.303  0.2225 -0.0075 -0.3112
  322SOL    HW3 1360   2.784   2.939   0.431  0.5640  0.1352 -0.4898
  322SOL    MW4 1361   2.713   2.969   0.390  0.3495 -0.1228 -0.3134
  323SOL     OW 1362   1.366   1.967   0.803  0.0781  0.3136 -0.0616
  323SOL    HW2 1363   1.456   1.978   0.774  0.4815 -1.6387  0.3977
  323SOL    HW3 1364   1.371   1.970   0.899 -0.5275  1.3855 -0.0475
  323SOL    MW4 1365   1.378   1.969   0.812  0.0513  0.1974  0.0009
  324SOL     OW 1366   3.475   1.023   0.181 -0.2196 -0.2809 -0.4690
  324SOL    HW2 1367   3.394   1.045   0.226  0.1942 -1.5135  0.9172
  324SOL    HW3 1368   3.464   1.059   0.093 -1.1797  1.8713  0.4903
  324SOL    MW4 1369   3.463   1.031   0.175 -0.2916 -0.1596 -0.1596
  325SOL     OW 1370   0.909   1.198   0.846  0.5028  0.1838 -0.2665
  325SOL    HW2 1371   0.922   1.131   0.779  0.5162  0.3345 -0.4134
  325SOL    HW3 1372   0.837   1.252   0.814 -0.4298 -0.5799  0.4922
  325SOL    MW4 1373   0.902   1.196   0.833  0.3815  0.1029 -0.1857
  326SOL     OW 1374   3.333   1.545   0.388  0.2068 -0.2796  0.0897
  326SOL    HW2 1375   3.419   1.587   0.385 -0.4596  1.3740  2.2146
  326SOL    HW3 1376   3.273   1.615   0.415 -1.6088 -1.6855 -0.1737
  326SOL    MW4 1377   3.336   1.560   0.391 -0.1206 -0.2469  0.3353
  327SOL     OW 1378   2.779   1.481   0.395  0.1406  0.0214  0.9977
  327SOL    HW2 1379   2.836   1.470   0.318 -0.6073 -1.4559  0.6339
  327SOL    HW3 1380   2.817   1.555   0.442  0.2966  1.3138 -1.0686
  327SOL    MW4 1381   2.792   1.489   0.391  0.0627 -0.0029  0.6771
  328SOL     OW 1382   2.697   1.154   0.900  0.1420  0.1048 -0.1544
  328SOL    HW2 1383   2.755   1.220   0.860  0.4507 -0.1107 -0.0669
  328SOL    HW3 1384   2.610   1.177   0.869 -0.0476  1.8695  1.6392
  328SOL    MW4 1385   2.693   1.166   0.890  0.1578  0.3093  0.0938
  329SOL     OW 1386   0.769   2.752   0.874  0.2275  0.3781  0.2028
  329SOL    HW2 1387   0.787   2.742   0.968 -0.2197 -1.4907  0.1098
  329SOL    HW3 1388   0.675   2.733   0.865  0.3940 -0.0566 -0.6933
  329SOL    MW4 1389   0.759   2.748   0.885  0.1904  0.0746  0.0723
  330SOL     OW 1390   1.980   1.543   0.811 -0.1627  0.3030 -0.0470
  330SOL    HW2 1391   1.998   1.456   0.775 -0.2804  0.0122  0.5993
  330SOL    HW3 1392   2.044   1.600   0.768  0.8415 -0.3410  0.5675
  330SOL    MW4 1393   1.991   1.539   0.800 -0.0457  0.1796  0.1194
  331SOL     OW 1394   1.161   2.836   0.382  0.3992 -0.2059  0.8071
  331SOL    HW2 1395   1.248   2.864   0.353  0.5293 -1.1620  0.2555
  331SOL    HW3 1396   1.163   2.849   0.477  0.6054  1.2140  0.6217
  331SOL    MW4 1397   1.173   2.841   0.391  0.4436 -0.1450  0.7099
  332SOL     OW 1398   2.645   3.257   0.748  0.3381  0.3790  0.7624
  332SOL    HW2 1399   2.642   3.347   0.780  2.2784  0.9190 -0.5076
  332SOL    HW3 1400   2.560   3.220   0.773  0.1200  2.0770  2.6579
  332SOL    MW4 1401   2.633   3.264   0.756  0.5653  0.6740  0.8450
  333SOL     OW 1402   2.140   2.774   0.850 -0.2538 -0.1524 -0.1122
  333SOL    HW2 1403   2.168   2.805   0.936  0.7821 -0.8212 -0.1928
  333SOL    HW3 1404   2.172   2.683   0.847 -0.6377 -0.2535 -1.0412
  333SOL    MW4 1405   2.148   2.766   0.861 -0.1678 -0.2539 -0.2455
  334SOL     OW 1406   1.593   3.096   1.118 -0.4220  0.0838 -0.1470
  334SOL    HW2 1407   1.512   3.146   1.119 -0.1723  0.4922  0.6160
  334SOL    HW3 1408   1.660   3.159   1.145  0.2484 -0.0775 -1.4120
  334SOL    MW4 1409   1.591   3.111   1.122 -0.3006  0.1163 -0.2133
  335SOL     OW 1410   1.442   2.960   0.389 -0.0305  0.4885  0.0995
  335SOL    HW2 1411   1.523   2.912   0.408 -0.7299 -0.0574  1.7533
  335SOL    HW3 1412   1.467   3.021   0.320  1.5686 -0.3176 -0.0662
  335SOL    MW4 1413   1.456   2.962   0.383  0.0883  0.3102  0.2958
  336SOL     OW 1414   1.045   0.507   0.325  0.1578 -0.2633 -0.1236
  336SOL    HW2 1415   1.045   0.420   0.365  1.0818 -0.6104 -0.8254
  336SOL    HW3 1416   0.965   0.510   0.273 -0.6841 -0.0772  1.1800
  336SOL    MW4 1417   1.035   0.496   0.323  0.1688 -0.2845 -0.0442
  337SOL     OW 1418   0.327   2.769   0.616 -0.2248 -0.2625  0.3028
  337SOL    HW2 1419   0.360   2.851   0.651 -0.7788  0.5378 -0.9890
  337SOL    HW3 1420   0.400   2.733   0.565 -0.4833  0.2356 -0.4389
  337SOL    MW4 1421   0.341   2.775   0.614 -0.3320 -0.0911  0.0346
  338SOL     OW 1422   1.994   3.131   1.073 -0.0453  0.1556  0.1251
  338SOL    HW2 1423   1.926   3.184   1.113 -0.5336  0.1634 -0.7084
  338SOL    HW3 1424   1.981   3.141   0.979  1.3248  0.4361 -0.0527
  338SOL    MW4 1425   1.983   3.139   1.066  0.0712  0.1938 -0.0081
  339SOL     OW 1426   1.247   3.936   0.457  0.6352 -0.7021  0.1610
  339SOL    HW2 1427   1.159   3.901   0.474  0.3558 -1.3144 -2.2939
  339SOL    HW3 1428   1.301   3.858   0.441  1.4662 -0.2889  0.9321
  339SOL    MW4 1429   1.242   3.921   0.457  0.7079 -0.7284 -0.0612
  340SOL     OW 1430   2.655   3.985   0.748 -0.0689 -0.0015 -0.1437
  340SOL    HW2 1431   2.581   3.961   0.803 -0.4993  0.9713 -0.2948
  340SOL    HW3 1432   2.667   4.079   0.762  1.4208 -0.2273  0.2262
  340SOL    MW4 1433   2.647   3.994   0.757  0.0706  0.0968 -0.1149
  341SOL     OW 1434   2.888   0.864   0.335 -0.2916  0.5191  0.2093
  341SOL    HW2 1435   2.894   0.941   0.278 -0.3029  0.8229  0.6132
  341SOL    HW3 1436   2.960   0.875   0.397  0.4071 -0.3883 -0.4369
  341SOL    MW4 1437   2.898   0.876   0.335 -0.2010  0.4395  0.1773
  342SOL     OW 1438   0.936   4.511   0.396  0.5186  0.1486  0.1294
  342SOL    HW2 1439   1.019   4.488   0.437  0.9216 -0.0778 -0.8034
  342SOL    HW3 1440   0.960   4.547   0.311 -0.3030  0.6863  0.1202
  342SOL    MW4 1441   0.950   4.513   0.390  0.4634  0.1898  0.0051
  343SOL     OW 1442   1.652   3.588   0.443  0.0469 -0.3678 -0.3334
  343SOL    HW2 1443   1.743   3.616   0.437  0.2693 -0.6026  1.5856
  343SOL    HW3 1444   1.656   3.492   0.441 -0.4266 -0.3714 -3.2950
  343SOL    MW4 1445   1.664   3.579   0.442  0.0137 -0.3991 -0.4710
  344SOL     OW 1446   1.749   4.296   1.122  0.3522  0.0882 -0.3218
  344SOL    HW2 1447   1.695   4.303   1.044  0.3603  3.1757 -0.1149
  344SOL    HW3 1448   1.695   4.334   1.192  0.9564 -1.1964  0.8803
  344SOL    MW4 1449   1.735   4.302   1.121  0.4330  0.3266 -0.1359
  345SOL     OW 1450   1.585   4.601   0.812  0.6094 -0.5230  0.3169
  345SOL    HW2 1451   1.602   4.615   0.905 -0.6966 -0.8739  0.6133
  345SOL    HW3 1452   1.637   4.670   0.768  1.2527 -0.3748  1.2831
  345SOL    MW4 1453   1.594   4.612   0.818  0.5219 -0.5498  0.4835
  346SOL     OW 1454   1.138   1.316   0.790 -0.5177  0.4842 -0.2854
  346SOL    HW2 1455   1.127   1.410   0.800 -0.7521  0.3292  0.9053
  346SOL    HW3 1456   1.053   1.279   0.814  0.3268 -0.1981  1.6952
  346SOL    MW4 1457   1.125   1.324   0.794 -0.4370  0.3738  0.1330
  347SOL     OW 1458   0.976   1.087   0.611 -0.0384  0.2786 -0.7573
  347SOL    HW2 1459   1.004   1.002   0.577  0.9092  0.4372 -0.3778
  347SOL    HW3 1460   1.024   1.151   0.558  0.7302  0.5404  0.2324
  347SOL    MW4 1461   0.986   1.084   0.600  0.1880  0.3341 -0.5767
  348SOL     OW 1462   2.218   1.156   0.884  0.3638  0.2767  0.3061
  348SOL    HW2 1463   2.204   1.065   0.859  0.5520  0.5821 -0.9178
  348SOL    HW3 1464   2.212   1.156   0.980  1.1306 -1.1514  0.3585
  348SOL    MW4 1465   2.215   1.144   0.894  0.4900  0.1285  0.1516
  349SOL     OW 1466   0.199   1.308   0.756  0.3146 -0.1171  0.0520
  349SOL    HW2 1467   0.208   1.395   0.796  0.3201  0.7685 -1.8038
  349SOL    HW3 1468   0.131   1.265   0.807  1.1133  0.5423  1.7150
  349SOL    MW4 1469   0.191   1.314   0.768  0.4207  0.0867  0.0265
  350SOL     OW 1470   2.449   1.262   0.795 -0.3260 -0.2942 -0.0510
  350SOL    HW2 1471   2.452   1.245   0.701  0.0148 -0.7801  0.0474
  350SOL    HW3 1472   2.361   1.237   0.821 -0.2528 -0.6498 -0.1470
  350SOL    MW4 1473   2.438   1.257   0.786 -0.2708 -0.4052 -0.0507
  351SOL     OW 1474   0.507   0.934   0.830 -0.3159 -0.1978  0.3052
  351SOL    HW2 1475   0.425   0.891   0.855 -0.7869 -0.5123 -1.6895
  351SOL    HW3 1476   0.510   0.926   0.734  1.1905  1.3506  0.1991
  351SOL    MW4 1477   0.497   0.927   0.820 -0.1793 -0.0350  0.0280
  352SOL     OW 1478   1.572   2.362   0.770  0.5395 -0.0940 -0.2936
  352SOL    HW2 1479   1.486   2.390   0.738 -0.0135 -1.1962  0.2270
  352SOL    HW3 1480   1.579   2.271   0.744  1.2900 -0.1831  0.2168
  352SOL    MW4 1481   1.561   2.354   0.762  0.5655 -0.2511 -0.1575
  353SOL     OW 1482   2.232   3.222   0.483  0.1702  0.3001  0.1645
  353SOL    HW2 1483   2.248   3.128   0.485 -1.4594 -0.0041 -0.0649
  353SOL    HW3 1484   2.224   3.247   0.575  0.4398  0.1861  0.2189
  353SOL    MW4 1485   2.233   3.213   0.495 -0.0093  0.2451  0.1415
  354SOL     OW 1486   1.558   4.054   0.366  0.4011 -0.0636  0.5615
  354SOL    HW2 1487   1.521   3.967   0.355  0.2859  0.0161  0.3286
  354SOL    HW3 1488   1.651   4.038   0.384  0.5030 -0.2074 -0.0853
  354SOL    MW4 1489   1.566   4.040   0.367  0.3994 -0.0720  0.4454
  355SOL     OW 1490   4.111   1.738   0.492 -0.1972  0.0157  0.1939
  355SOL    HW2 1491   4.088   1.816   0.441  0.6095 -0.6906 -1.2942
  355SOL    HW3 1492   4.039   1.677   0.476  0.0695 -0.2165 -0.1338
  355SOL    MW4 1493   4.098   1.740   0.483 -0.0553 -0.1082 -0.0457
  356SOL     OW 1494   2.956   2.847   0.517 -0.0263  0.0330  0.0930
  356SOL    HW2 1495   2.984   2.756   0.506  0.4785  0.2941 -0.8275
  356SOL    HW3 1496   2.921   2.851   0.606  1.0738 -0.7657  0.5662
  356SOL    MW4 1497   2.955   2.835   0.527  0.1855 -0.0379  0.0340
  357SOL     OW 1498   2.053   3.608   0.793 -0.4751 -0.2657 -0.0068
  357SOL    HW2 1499   1.977   3.561   0.827 -0.4040  1.2038  2.2491
  357SOL    HW3 1500   2.128   3.566   0.834 -0.2973  0.6367  0.5979
  357SOL    MW4 1501   2.053   3.596   0.803 -0.4423  0.0472  0.3706
  358SOL     OW 1502   0.213   3.468   0.728  0.1155  0.0881 -0.0962
  358SOL    HW2 1503   0.245   3.383   0.757  0.1793 -0.0012 -0.4242
  358SOL    HW3 1504   0.271   3.531   0.769 -0.1851 -0.0062  0.4842
  358SOL    MW4 1505   0.225   3.465   0.737  0.0843  0.0639 -0.0629
  359SOL     OW 1506   2.661   2.435   0.799  0.5835 -0.2437 -0.1633
  359SOL    HW2 1507   2.593   2.368   0.812 -0.2643  0.8289  1.0368
  359SOL    HW3 1508   2.686   2.425   0.708 -1.3655 -0.5074 -0.7018
  359SOL    MW4 1509   2.655   2.425   0.789  0.2143 -0.1366 -0.0759
  360SOL     OW 1510   2.463   2.524   0.369  0.4305  0.2250 -0.3693
  360SOL    HW2 1511   2.552   2.491   0.379  0.7014  1.3416  0.9234
  360SOL    HW3 1512   2.471   2.618   0.380 -0.9324  0.3191 -0.1251
  360SOL    MW4 1513   2.476   2.532   0.372  0.2863  0.3846 -0.1665
  361SOL     OW 1514   1.721   3.233   0.716  0.1254  0.5288 -0.4066
  361SOL    HW2 1515   1.704   3.264   0.627 -2.4590  0.2066 -0.0805
  361SOL    HW3 1516   1.737   3.313   0.766  0.3488  0.8122 -0.9215
  361SOL    MW4 1517   1.721   3.248   0.710 -0.1862  0.5238 -0.4315
  362SOL     OW 1518   3.407   3.858   0.489  0.2982  0.0276 -0.3500
  362SOL    HW2 1519   3.373   3.771   0.467 -0.0226 -0.1078  0.6608
  362SOL    HW3 1520   3.339   3.919   0.460  0.6992 -0.0273 -1.4266
  362SOL    MW4 1521   3.394   3.854   0.483  0.3088  0.0026 -0.3587
  363SOL     OW 1522   3.585   0.108   0.720 -0.1988  0.1010  0.5157
  363SOL    HW2 1523   3.502   0.065   0.742 -0.3068 -0.5082 -1.0307
  363SOL    HW3 1524   3.565   0.160   0.643  1.3667 -1.7473 -1.1742
  363SOL    MW4 1525   3.571   0.110   0.713 -0.0064 -0.2233  0.0888
  364SOL     OW 1526   1.993   2.078   0.475 -0.4788  0.1289 -0.1111
  364SOL    HW2 1527   1.902   2.087   0.449 -0.6853 -1.1066  0.1920
  364SOL    HW3 1528   2.018   1.990   0.448  1.0953  1.0168 -1.6371
  364SOL    MW4 1529   1.985   2.068   0.468 -0.2984  0.0832 -0.2725
  365SOL     OW 1530   0.439   0.400   1.256  0.2592  0.1225 -0.2473
  365SOL    HW2 1531   0.355   0.445   1.246  0.2972  0.1403 -0.4901
  365SOL    HW3 1532   0.417   0.307   1.255  0.2343  0.1278 -0.2191
  365SOL    MW4 1533   0.425   0.394   1.255  0.2609  0.1255 -0.2757
  366SOL     OW 1534   3.407   3.913   0.832  0.0762  0.7802  0.3965
  366SOL    HW2 1535   3.390   3.918   0.926  0.2575 -0.0624  0.4791
  366SOL    HW3 1536   3.326   3.941   0.791  0.5084  2.6911  0.8064
  366SOL    MW4 1537   3.394   3.917   0.839  0.1571  0.9212  0.4615
  367SOL     OW 1538   4.001   0.873   0.499 -0.4808  0.1000 -0.1308
  367SOL    HW2 1539   4.041   0.947   0.454  1.4130 -0.2306  0.9521
  367SOL    HW3 1540   3.909   0.877   0.474 -0.3835  2.7039 -0.2604
  367SOL    MW4 1541   3.994   0.884   0.490 -0.2179  0.3999 -0.0050
  368SOL     OW 1542   0.303   2.058   0.520  0.1125 -0.2856  0.0830
  368SOL    HW2 1543   0.278   2.074   0.611  1.4497  1.9245  0.0942
  368SOL    HW3 1544   0.304   2.145   0.480  3.5005 -0.7679 -1.0032
  368SOL    MW4 1545   0.300   2.072   0.527  0.7359 -0.0577 -0.0588
  369SOL     OW 1546   2.222   2.487   0.209 -0.5825  0.1514  0.3483
  369SOL    HW2 1547   2.309   2.494   0.247  0.4204 -1.7462 -1.5341
  369SOL    HW3 1548   2.177   2.422   0.263  0.5781 -1.9509 -1.1442
  369SOL    MW4 1549   2.227   2.479   0.221 -0.2968 -0.3765 -0.0970
  370SOL     OW 1550   0.475   1.620   0.522  0.4064 -0.1416 -0.3495
  370SOL    HW2 1551   0.388   1.598   0.488 -0.1448  0.9574  0.3352
  370SOL    HW3 1552   0.499   1.701   0.476 -0.2351  1.2192  1.6752
  370SOL    MW4 1553   0.467   1.628   0.511  0.2490  0.1829  0.0079
  371SOL     OW 1554   1.703   2.060   0.468  0.3854  0.1019 -0.2475
  371SOL    HW2 1555   1.628   2.010   0.436  0.3690  0.2746 -0.4828
  371SOL    HW3 1556   1.689   2.149   0.434  0.5505  0.2010 -0.0576
  371SOL    MW4 1557   1.691   2.065   0.459  0.4050  0.1378 -0.2535
  372SOL     OW 1558   2.212   0.904   0.760 -0.4917 -0.2865  0.2346
  372SOL    HW2 1559   2.290   0.852   0.780  0.4444  1.0941  0.1953
  372SOL    HW3 1560   2.233   0.949   0.678  0.0860  2.8770  2.0690
  372SOL    MW4 1561   2.225   0.903   0.752 -0.2921  0.3131  0.4714
  373SOL     OW 1562   4.067   0.349   0.829 -0.5270  0.2618  0.1385
  373SOL    HW2 1563   4.047   0.257   0.814 -1.0755  0.4955 -0.5949
  373SOL    HW3 1564   3.991   0.396   0.793 -0.2181  0.9952  0.4429
  373SOL    MW4 1565   4.054   0.343   0.822 -0.5593  0.3894  0.0820
  374SOL     OW 1566   1.557   3.060   0.852  0.0787  0.0568 -0.4234
  374SOL    HW2 1567   1.569   3.067   0.947 -1.4800  0.2500 -0.2308
  374SOL    HW3 1568   1.612   3.129   0.816  0.3600  0.2543  0.3714
  374SOL    MW4 1569   1.566   3.070   0.860 -0.0899  0.1085 -0.2931
  375SOL     OW 1570   3.603   1.178   0.405  0.0041 -0.7019 -0.7798
  375SOL    HW2 1571   3.660   1.107   0.434  0.3533 -0.3281 -0.5304
  375SOL    HW3 1572   3.576   1.154   0.317  0.4039 -0.9684 -0.8283
  375SOL    MW4 1573   3.607   1.166   0.397  0.1028 -0.6877 -0.7533
  376SOL     OW 1574   3.518   2.978   0.544 -0.2986  0.2114 -0.0099
  376SOL    HW2 1575   3.538   3.059   0.593  1.5869 -1.2077  1.6795
  376SOL    HW3 1576   3.489   2.916   0.611 -1.6579 -0.5533 -1.2854
  376SOL    MW4 1577   3.517   2.981   0.559 -0.2291 -0.0770  0.0446
  377SOL     OW 1578   1.269   0.175   0.146  0.0890 -0.2788  0.3017
  377SOL    HW2 1579   1.328   0.250   0.141  0.4992 -0.4670  2.2217
  377SOL    HW3 1580   1.236   0.175   0.235 -1.2352 -1.3924 -0.1588
  377SOL    MW4 1581   1.273   0.185   0.157 -0.0317 -0.4506  0.4943
  378SOL     OW 1582   3.123   1.992   0.435  0.3367 -0.2058  0.2250
  378SOL    HW2 1583   3.189   2.052   0.470  0.2302  0.5744 -0.8803
  378SOL    HW3 1584   3.128   2.004   0.340 -0.6336 -0.9493  0.0744
  378SOL    MW4 1585   3.132   2.002   0.427  0.1945 -0.2010  0.0593
  379SOL     OW 1586   0.243   1.539   0.414 -0.0759  0.0691  0.2900
  379SOL    HW2 1587   0.170   1.598   0.395 -0.2776 -0.3540 -0.2710
  379SOL    HW3 1588   0.202   1.453   0.425  0.3220 -0.1562  0.0388
  379SOL    MW4 1589   0.228   1.536   0.413 -0.0500 -0.0163  0.1828
  380SOL     OW 1590   2.432   4.656   0.827 -0.3187  0.3822  0.0927
  380SOL    HW2 1591   2.442   4.569   0.789  1.6440  1.3286 -1.7074
  380SOL    HW3 1592   2.433   4.642   0.921 -1.3578 -1.6551 -0.1741
  380SOL    MW4 1593   2.433   4.643   0.834 -0.1967  0.2379 -0.1800
  381SOL     OW 1594   1.883   2.747   0.444  0.1310 -0.4781 -0.1115
  381SOL    HW2 1595   1.930   2.805   0.503 -0.3632 -2.2476  2.0908
  381SOL    HW3 1596   1.791   2.759   0.466 -0.2414  0.4037 -2.0181
  381SOL    MW4 1597   1.877   2.756   0.455  0.0167 -0.5951 -0.0725
  382SOL     OW 1598   3.185   1.677   0.807  0.0848  0.2653 -0.1079
  382SOL    HW2 1599   3.113   1.617   0.829  0.5057 -0.3726 -0.4793
  382SOL    HW3 1600   3.191   1.673   0.712  1.4868 -0.7072  0.0034
  382SOL    MW4 1601   3.176   1.668   0.798  0.3252  0.0529 -0.1422
  383SOL     OW 1602   3.133   1.164   0.877 -0.0035 -0.5446 -0.0703
  383SOL    HW2 1603   3.131   1.080   0.830 -1.7100 -0.5072 -0.1102
  383SOL    HW3 1604   3.210   1.209   0.843 -0.0117 -1.4083 -1.2831
  383SOL    MW4 1605   3.143   1.159   0.866 -0.2296 -0.6535 -0.2356
  384SOL     OW 1606   1.345   3.227   0.796 -0.0176 -0.8610  0.1949
  384SOL    HW2 1607   1.423   3.189   0.836 -0.1166 -1.3690 -0.0880
  384SOL    HW3 1608   1.277   3.161   0.810 -0.2205 -0.7357 -0.2006
  384SOL    MW4 1609   1.346   3.213   0.803 -0.0576 -0.9117  0.1053
  385SOL     OW 1610   4.191   3.224   0.553 -0.0709  0.1922 -0.0385
  385SOL    HW2 1611   4.252   3.271   0.497  0.6203 -0.4536  0.1692
  385SOL    HW3 1612   4.210   3.253   0.641  1.1193 -1.2923  0.2135
  385SOL    MW4 1613   4.201   3.234   0.557  0.1774 -0.0887  0.0222
  386SOL     OW 1614   2.680   0.106   0.784 -0.2465 -0.0992  0.3973
  386SOL    HW2 1615   2.680   0.113   0.689  0.5641 -2.1651  0.2133
  386SOL    HW3 1616   2.596   0.064   0.804  0.1677 -0.9066  0.4683
  386SOL    MW4 1617   2.669   0.101   0.774 -0.0849 -0.4783  0.3824
  387SOL     OW 1618   1.948   4.656   0.796  0.5905 -0.4443 -0.4156
  387SOL    HW2 1619   1.951   4.561   0.781 -0.5552 -0.4843 -0.4226
  387SOL    HW3 1620   2.040   4.684   0.789  1.0328 -1.6542  0.3053
  387SOL    MW4 1621   1.961   4.647   0.793  0.4978 -0.6092 -0.3214
  388SOL     OW 1622   2.444   3.903   0.906 -0.0715 -0.1585  0.2873
  388SOL    HW2 1623   2.366   3.941   0.866  0.1055  0.2741  0.3461
  388SOL    HW3 1624   2.468   3.830   0.849  0.5277  0.8225 -0.7223
  388SOL    MW4 1625   2.437   3.898   0.893  0.0310  0.0281  0.1619
  389SOL     OW 1626   4.279   0.737   0.859  0.1411  0.4206 -0.6028
  389SOL    HW2 1627   4.203   0.787   0.829 -0.5802  0.1190  0.6760
  389SOL    HW3 1628   4.275   0.655   0.810 -0.9940 -0.0507  0.2418
  389SOL    MW4 1629   4.268   0.733   0.849 -0.1035  0.3186 -0.3226
  390SOL     OW 1630   1.621   3.129   0.227 -0.0121 -0.0606 -0.3528
  390SOL    HW2 1631   1.618   3.176   0.143 -0.7044 -1.4676 -1.1465
  390SOL    HW3 1632   1.700   3.076   0.222 -0.4891 -0.7590 -0.4498
  390SOL    MW4 1633   1.631   3.128   0.215 -0.1664 -0.3386 -0.4703
  391SOL     OW 1634   1.638   0.317   0.283  0.0547  0.2495  0.3790
  391SOL    HW2 1635   1.582   0.327   0.207  0.2989 -0.2377  0.1344
  391SOL    HW3 1636   1.727   0.314   0.248  0.1214 -0.7392  0.6095
  391SOL    MW4 1637   1.642   0.318   0.269  0.0958  0.0547  0.3771
  392SOL     OW 1638   1.956   0.772   0.848 -0.1375  0.4334 -0.0425
  392SOL    HW2 1639   1.961   0.685   0.807 -1.4901  0.6923 -0.7983
  392SOL    HW3 1640   2.038   0.814   0.825  0.1461 -0.3199 -0.4451
  392SOL    MW4 1641   1.967   0.766   0.840 -0.2786  0.3681 -0.1953
  393SOL     OW 1642   3.362   1.295   0.489 -0.0926 -0.1866 -0.3423
  393SOL    HW2 1643   3.448   1.261   0.464 -0.2597 -1.2232  0.4508
  393SOL    HW3 1644   3.362   1.386   0.458  1.1735 -0.2673 -0.6029
  393SOL    MW4 1645   3.373   1.302   0.482  0.0522 -0.3340 -0.2720
  394SOL     OW 1646   1.544   1.245   0.464 -0.1053 -0.2731 -0.5330
  394SOL    HW2 1647   1.471   1.201   0.420 -0.7139  0.7840 -0.5883
  394SOL    HW3 1648   1.536   1.337   0.438 -0.5619  0.4023  1.8777
  394SOL    MW4 1649   1.533   1.251   0.455 -0.2458 -0.0445 -0.2223
  395SOL     OW 1650   2.522   1.518   0.859 -0.3184  0.2302 -0.0031
  395SOL    HW2 1651   2.486   1.578   0.793 -0.1358  0.4252  0.0737
  395SOL    HW3 1652   2.499   1.431   0.827 -2.7864  0.4071  1.1645
  395SOL    MW4 1653   2.514   1.514   0.846 -0.6199  0.2792  0.1611
  396SOL     OW 1654   4.035   3.585   0.775 -0.0740 -0.0514 -1.0083
  396SOL    HW2 1655   3.963   3.648   0.784 -1.4822 -1.4389 -2.2968
  396SOL    HW3 1656   4.108   3.638   0.743 -0.8690  1.1698 -0.8587
  396SOL    MW4 1657   4.035   3.600   0.772 -0.3643 -0.0734 -1.1585
  397SOL     OW 1658   1.907   3.699   0.390  0.2276  0.2866 -0.3775
  397SOL    HW2 1659   1.946   3.639   0.327 -1.2447 -1.5830  0.4555
  397SOL    HW3 1660   1.981   3.726   0.445  0.8411 -1.0694 -0.5183
  397SOL    MW4 1661   1.922   3.695   0.389  0.1142 -0.1388 -0.2861
  398SOL     OW 1662   3.122   1.437   0.225  0.4361 -0.1886 -0.2250
  398SOL    HW2 1663   3.143   1.471   0.138  1.4835 -0.7372 -0.2008
  398SOL    HW3 1664   3.198   1.459   0.278 -0.8414  1.5061  0.9611
  398SOL    MW4 1665   3.135   1.444   0.220  0.4055 -0.0374 -0.0653
  399SOL     OW 1666   2.311   2.037   0.871 -0.0479  0.6989 -0.2070
  399SOL    HW2 1667   2.350   2.125   0.874  0.2178  0.6104 -0.9241
  399SOL    HW3 1668   2.227   2.050   0.825  0.1045  0.5356 -0.5296
  399SOL    MW4 1669   2.305   2.051   0.865  0.0074  0.6657 -0.3443
  400SOL     OW 1670   4.045   1.969   0.382  0.5077 -0.0946  0.0377
  400SOL    HW2 1671   4.123   2.000   0.428  0.6046 -0.2180 -0.0448
  400SOL    HW3 1672   3.972   2.004   0.433  0.6072 -0.9491  0.7829
  400SOL    MW4 1673   4.046   1.978   0.395  0.5341 -0.2236  0.1252
  401SOL     OW 1674   1.983   4.403   0.709 -0.1833  0.2175 -0.0823
  401SOL    HW2 1675   1.898   4.360   0.703 -0.3059  0.4220  0.1694
  401SOL    HW3 1676   1.992   4.450   0.626  0.3557 -1.0233 -0.7484
  401SOL    MW4 1677   1.973   4.403   0.697 -0.1285  0.0811 -0.1370
  402SOL     OW 1678   1.592   4.332   0.877 -0.2898  0.4001  0.0371
  402SOL    HW2 1679   1.573   4.423   0.856  0.5577  0.5731  0.0331
  402SOL    HW3 1680   1.658   4.306   0.813  0.4999  0.1973  0.9410
  402SOL    MW4 1681   1.598   4.340   0.866 -0.0737  0.3967  0.1559
  403SOL     OW 1682   4.246   0.511   0.694  0.3974  0.3731  0.7409
  403SOL    HW2 1683   4.195   0.544   0.621  1.4397 -1.1527 -0.7040
  403SOL    HW3 1684   4.186   0.455   0.743  0.0930  0.3026  0.2826
  403SOL    MW4 1685   4.231   0.508   0.691  0.4945  0.1625  0.4897
  404SOL     OW 1686   2.871   3.124   0.858  0.3723 -0.0590 -0.0291
  404SOL    HW2 1687   2.791   3.171   0.834 -0.4304 -0.6015  1.5590
  404SOL    HW3 1688   2.852   3.032   0.841 -0.2372 -0.4676  2.6846
  404SOL    MW4 1689   2.858   3.118   0.852  0.1860 -0.1843  0.5385
  405SOL     OW 1690   0.311   2.306   0.375  0.2351  0.0765  0.1763
  405SOL    HW2 1691   0.405   2.285   0.374  0.4115  0.9055 -1.3332
  405SOL    HW3 1692   0.304   2.378   0.438  0.3440 -1.0786  1.5595
  405SOL    MW4 1693   0.323   2.313   0.383  0.2727  0.0334  0.1597
  406SOL     OW 1694   2.422   4.401   0.728 -0.7247  0.2765 -0.2328
  406SOL    HW2 1695   2.353   4.363   0.782 -1.8387  0.8730 -1.2359
  406SOL    HW3 1696   2.500   4.350   0.751 -1.5864 -0.7195  0.5436
  406SOL    MW4 1697   2.423   4.389   0.739 -0.9856  0.2236 -0.2627
  407SOL     OW 1698   0.596   4.659   1.121  0.0013  0.3212  0.2977
  407SOL    HW2 1699   0.601   4.568   1.151 -0.8558  0.2738  0.3154
  407SOL    HW3 1700   0.677   4.699   1.151  1.5780 -1.0884 -1.8678
  407SOL    MW4 1701   0.607   4.652   1.129  0.0962  0.1287  0.0144
  408SOL     OW 1702   3.367   4.302   0.505  0.3665 -0.3439 -0.0095
  408SOL    HW2 1703   3.399   4.377   0.455 -0.0395 -0.2502 -0.1299
  408SOL    HW3 1704   3.446   4.254   0.530  0.7738  1.0898  1.5976
  408SOL    MW4 1705   3.382   4.306   0.502  0.3662 -0.1421  0.1867
  409SOL     OW 1706   0.280   3.280   0.365 -0.1747 -0.3097  0.1281
  409SOL    HW2 1707   0.368   3.244   0.377  0.0642 -0.8871 -2.9008
  409SOL    HW3 1708   0.295   3.373   0.349 -0.1398 -0.3137  0.1383
  409SOL    MW4 1709   0.294   3.287   0.364 -0.1386 -0.3862 -0.2702
  410SOL     OW 1710   3.124   3.264   0.786  0.1293 -0.3884 -0.0796
  410SOL    HW2 1711   3.099   3.270   0.694  2.6095 -0.8960 -0.8009
  410SOL    HW3 1712   3.056   3.208   0.824 -0.6758 -0.5507 -1.6872
  410SOL    MW4 1713   3.111   3.257   0.779  0.3502 -0.4766 -0.3870
  411SOL     OW 1714   1.000   4.442   0.054  0.1422 -0.0321  0.2715
  411SOL    HW2 1715   0.945   4.513   0.087  1.3030  1.5887 -1.2045
  411SOL    HW3 1716   1.022   4.468  -0.035  1.2800 -1.8548 -0.0023
  411SOL    MW4 1717   0.996   4.455   0.047  0.4454 -0.0587  0.0407
  412SOL     OW 1718   4.085   4.045   1.244 -0.3513 -0.2071  0.0541
  412SOL    HW2 1719   4.172   4.007   1.233 -0.7318 -1.4029  1.0874
  412SOL    HW3 1720   4.101   4.137   1.266  0.6317 -0.3438 -0.0865
  412SOL    MW4 1721   4.098   4.052   1.246 -0.2718 -0.3834  0.1720
  413SOL     OW 1722   3.655   2.771   0.375 -0.3530 -0.0077  0.2438
  413SOL    HW2 1723   3.621   2.858   0.396  0.5376  0.0881  1.3269
  413SOL    HW3 1724   3.745   2.773   0.405  0.1717 -0.7650 -1.2389
  413SOL    MW4 1725   3.662   2.783   0.382 -0.1664 -0.0949  0.1911
  414SOL     OW 1726   2.507   3.652   0.423  0.2451 -0.1082 -0.2280
  414SOL    HW2 1727   2.588   3.600   0.426  0.3973  0.2054  1.4120
  414SOL    HW3 1728   2.439   3.589   0.399  0.7044 -0.7289  0.0727
  414SOL    MW4 1729   2.509   3.636   0.420  0.3259 -0.1488  0.0281
  415SOL     OW 1730   2.172   0.377   0.375 -0.2147  0.0830 -0.0669
  415SOL    HW2 1731   2.131   0.441   0.433 -1.0672 -1.0640  0.6251
  415SOL    HW3 1732   2.262   0.408   0.365 -0.5083  1.1717  0.5681
  415SOL    MW4 1733   2.179   0.389   0.381 -0.3657  0.0753  0.1082
  416SOL     OW 1734   2.208   4.296   0.861 -0.0695 -0.0433  0.1993
  416SOL    HW2 1735   2.216   4.203   0.841 -0.7015 -0.1689  0.5172
  416SOL    HW3 1736   2.146   4.329   0.796  1.7026  0.5921 -1.2290
  416SOL    MW4 1737   2.201   4.288   0.850  0.0811  0.0243  0.0528
  417SOL     OW 1738   2.209   0.145   0.808  0.5602  0.2468  0.2451
  417SOL    HW2 1739   2.283   0.092   0.838  1.3278  1.2547  0.1566
  417SOL    HW3 1740   2.222   0.153   0.713 -0.2915 -0.5381  0.0639
  417SOL    MW4 1741   2.220   0.139   0.800  0.5491  0.2762  0.2096
  418SOL     OW 1742   3.530   2.514   0.409  0.0492 -0.5132 -0.3004
  418SOL    HW2 1743   3.566   2.600   0.385 -1.0607 -0.1758 -0.7910
  418SOL    HW3 1744   3.539   2.509   0.504  2.4580 -0.9270 -0.5062
  418SOL    MW4 1745   3.536   2.525   0.418  0.2205 -0.5231 -0.3923
  419SOL     OW 1746   3.349   0.017   0.822 -0.2585 -0.2668  0.8862
  419SOL    HW2 1747   3.358   0.020   0.917 -0.7339  0.3346  0.9214
  419SOL    HW3 1748   3.262   0.055   0.806 -0.3904 -0.8290  0.2456
  419SOL    MW4 1749   3.338   0.023   0.833 -0.3386 -0.2616  0.8063
  420SOL     OW 1750   2.750   1.668   0.803 -0.4538 -0.1546 -0.6664
  420SOL    HW2 1751   2.674   1.616   0.829  0.3255 -0.2448  1.5073
  420SOL    HW3 1752   2.732   1.756   0.836  0.4770 -0.2280  0.0466
  420SOL    MW4 1753   2.738   1.672   0.811 -0.2282 -0.1762 -0.2855
  421SOL     OW 1754   3.107   0.899   0.754 -0.2541 -0.1096 -0.4254
  421SOL    HW2 1755   3.112   0.893   0.658  1.0968 -1.8112 -0.2752
  421SOL    HW3 1756   3.189   0.860   0.784 -1.1755 -0.6253  1.4721
  421SOL    MW4 1757   3.119   0.893   0.745 -0.1976 -0.4021 -0.1553
  422SOL     OW 1758   3.864   0.444   0.487  0.0917 -0.2809  0.6385
  422SOL    HW2 1759   3.910   0.360   0.487 -0.4835 -0.5979 -0.0342
  422SOL    HW3 1760   3.841   0.459   0.578  1.7335 -0.0152  1.0230
  422SOL    MW4 1761   3.867   0.435   0.499  0.2327 -0.2877  0.6005
  423SOL     OW 1762   1.140   2.857   0.643 -0.4418  0.0189  0.1601
  423SOL    HW2 1763   1.220   2.831   0.688 -0.0698  0.7401 -0.0943
  423SOL    HW3 1764   1.075   2.792   0.671  0.6478 -1.6060 -0.9757
  423SOL    MW4 1765   1.142   2.845   0.652 -0.2489 -0.1004 -0.0234
  424SOL     OW 1766   0.455   1.684   0.802  0.0845  0.0892 -0.2136
  424SOL    HW2 1767   0.538   1.656   0.841 -0.2326  1.3020  1.3584
  424SOL    HW3 1768   0.467   1.670   0.708  1.3654 -1.5609  0.1702
  424SOL    MW4 1769   0.468   1.678   0.795  0.2117  0.0316  0.0444
  425SOL     OW 1770   3.790   2.063   0.777  0.4350  0.0352 -0.2439
  425SOL    HW2 1771   3.867   2.018   0.813 -0.2600  0.8628  2.3898
  425SOL    HW3 1772   3.715   2.014   0.813 -0.3084 -0.3212 -2.1929
  425SOL    MW4 1773   3.790   2.050   0.787  0.2453  0.0973 -0.1535
  426SOL     OW 1774   0.214   0.173   0.604 -0.4105 -0.1164  0.0731
  426SOL    HW2 1775   0.309   0.185   0.595 -0.7297  2.4530 -0.3348
  426SOL    HW3 1776   0.189   0.123   0.527  0.7372 -1.5739  0.6255
  426SOL    MW4 1777   0.223   0.168   0.593 -0.3012  0.0303  0.0922
  427SOL     OW 1778   4.021   1.947   0.859  0.3598  0.2745 -0.1055
  427SOL    HW2 1779   4.100   1.999   0.847  0.1663  0.7452  0.5954
  427SOL    HW3 1780   4.040   1.864   0.816  1.7083 -0.0715  1.1124
  427SOL    MW4 1781   4.034   1.943   0.852  0.5126  0.2910  0.1476
  428SOL     OW 1782   3.173   1.953   0.885  0.1333  0.5298  0.1982
  428SOL    HW2 1783   3.260   1.988   0.864  0.1892  0.1868 -0.1579
  428SOL    HW3 1784   3.179   1.860   0.864 -0.4399  0.5800 -0.1944
  428SOL    MW4 1785   3.185   1.945   0.880  0.0651  0.4911  0.0995
  429SOL     OW 1786   3.055   2.585   0.485 -0.3468  0.1871 -0.0606
  429SOL    HW2 1787   3.139   2.624   0.462 -0.8693  1.5044  0.2093
  429SOL    HW3 1788   3.075   2.524   0.556  0.5572 -0.4267 -0.8284
  429SOL    MW4 1789   3.068   2.582   0.492 -0.2966  0.2797 -0.1263
  430SOL     OW 1790   3.298   2.680   0.499  0.1949 -0.0482  0.2081
  430SOL    HW2 1791   3.383   2.638   0.487  0.0619 -0.4145  0.5286
  430SOL    HW3 1792   3.304   2.723   0.584 -0.1052 -0.4787  0.4489
  430SOL    MW4 1793   3.310   2.680   0.508  0.1378 -0.1535  0.2822
  431SOL     OW 1794   0.780   1.791   0.312  0.5800  0.2579 -0.0356
  431SOL    HW2 1795   0.704   1.808   0.257  1.1881  0.3690 -0.8389
  431SOL    HW3 1796   0.763   1.842   0.392  1.5993  3.3754 -1.7411
  431SOL    MW4 1797   0.767   1.800   0.316  0.7947  0.6839 -0.3666
  432SOL     OW 1798   3.593   2.700   0.843  0.7683  0.0480 -0.1707
  432SOL    HW2 1799   3.597   2.705   0.938  0.5583 -0.7489 -0.1186
  432SOL    HW3 1800   3.672   2.745   0.813  0.5803  0.7411  0.3629
  432SOL    MW4 1801   3.604   2.707   0.852  0.7157  0.0343 -0.0934
  433SOL     OW 1802   3.357   2.828   0.760  0.3098 -0.0826 -0.2235
  433SOL    HW2 1803   3.437   2.801   0.806 -0.5655 -0.3813  1.1564
  433SOL    HW3 1804   3.346   2.920   0.782  0.2067 -0.0740 -0.3097
  433SOL    MW4 1805   3.366   2.837   0.769  0.1807 -0.1209 -0.0528
  434SOL     OW 1806   4.482   4.073   0.547  0.5339 -0.6460 -0.4393
  434SOL    HW2 1807   4.443   4.036   0.627  0.8037  1.3520  0.6574
  434SOL    HW3 1808   4.563   4.114   0.577  0.6504  0.0986 -1.7519
  434SOL    MW4 1809   4.488   4.074   0.562  0.5846 -0.2842 -0.4677
  435SOL     OW 1810   0.166   4.249   0.749 -0.2692  0.3143 -0.6900
  435SOL    HW2 1811   0.148   4.342   0.766  1.2249  0.5614 -0.3821
  435SOL    HW3 1812   0.106   4.202   0.807 -1.1688  1.0726 -0.9836
  435SOL    MW4 1813   0.156   4.255   0.759 -0.1908  0.4468 -0.6881
  436SOL     OW 1814   1.324   1.131   0.358 -0.3129 -0.4435 -0.2283
  436SOL    HW2 1815   1.323   1.195   0.286 -2.3746 -0.7985 -0.5376
  436SOL    HW3 1816   1.256   1.161   0.418 -0.3694 -1.5998  0.2985
  436SOL    MW4 1817   1.315   1.143   0.356 -0.5924 -0.6429 -0.1996
  437SOL     OW 1818   3.113   2.424   0.725  0.3800  0.4651 -0.2432
  437SOL    HW2 1819   3.197   2.388   0.751  0.5318 -1.2390 -2.9361
  437SOL    HW3 1820   3.048   2.371   0.771  0.7382  0.8360  0.6903
  437SOL    MW4 1821   3.115   2.413   0.735  0.4475  0.2892 -0.4752
  438SOL     OW 1822   0.898   4.193   0.150  0.1146 -0.2195  0.2075
  438SOL    HW2 1823   0.869   4.219   0.237  0.0335 -0.6522  0.3088
  438SOL    HW3 1824   0.921   4.276   0.107 -0.5270  0.0583  0.3896
  438SOL    MW4 1825   0.897   4.208   0.156  0.0193 -0.2398  0.2449
  439SOL     OW 1826   3.376   1.282   0.791 -0.3787 -0.4828 -0.1556
  439SOL    HW2 1827   3.380   1.287   0.696  0.5257 -1.7574 -0.1961
  439SOL    HW3 1828   3.390   1.373   0.820 -1.4901  0.0519 -1.2423
  439SOL    MW4 1829   3.378   1.295   0.783 -0.4058 -0.5803 -0.3043
  440SOL     OW 1830   2.701   0.547   0.545 -0.0078 -0.1188 -0.6261
  440SOL    HW2 1831   2.769   0.518   0.606  0.6564 -0.9245 -1.7359
  440SOL    HW3 1832   2.697   0.642   0.557  1.0679 -0.1063 -0.3035
  440SOL    MW4 1833   2.709   0.556   0.555  0.2217 -0.2235 -0.7300
  441SOL     OW 1834   3.352   0.782   0.840  0.5941  0.2443  0.0264
  441SOL    HW2 1835   3.354   0.689   0.818  1.6220  0.6186 -1.5542
  441SOL    HW3 1836   3.441   0.813   0.823 -0.5374  2.2112 -2.7012
  441SOL    MW4 1837   3.364   0.774   0.835  0.5803  0.5531 -0.5420
  442SOL     OW 1838   0.582   0.425   0.518  0.5139 -0.4581  0.2284
  442SOL    HW2 1839   0.632   0.377   0.452  0.5736 -0.2254  0.1030
  442SOL    HW3 1840   0.633   0.505   0.532 -0.5454  0.4253 -0.9194
  442SOL    MW4 1841   0.596   0.429   0.511  0.3820 -0.3108  0.0604
  443SOL     OW 1842   3.833   0.742   1.114  0.2890 -0.0462  0.2067
  443SOL    HW2 1843   3.901   0.780   1.169  1.4856 -2.1061  0.1766
  443SOL    HW3 1844   3.754   0.790   1.137  1.5796  1.8748  0.7753
  443SOL    MW4 1845   3.832   0.754   1.124  0.6173 -0.0646  0.2776
  444SOL     OW 1846   4.370   2.355   0.467 -0.4281 -0.0812 -0.2558
  444SOL    HW2 1847   4.429   2.353   0.392 -1.6055 -0.4721 -1.1828
  444SOL    HW3 1848   4.306   2.423   0.446 -0.1206  0.5944  0.9045
  444SOL    MW4 1849   4.370   2.364   0.454 -0.5431 -0.0436 -0.2249
  445SOL     OW 1850   3.826   1.317   0.742 -0.2721  0.1594 -0.1821
  445SOL    HW2 1851   3.753   1.261   0.770 -0.3305  0.4467  0.2438
  445SOL    HW3 1852   3.904   1.268   0.767 -0.2971 -0.8198 -1.9525
  445SOL    MW4 1853   3.826   1.303   0.749 -0.2830  0.0681 -0.3595
  446SOL     OW 1854   4.259   1.311   0.833  0.1324 -0.1991 -0.6048
  446SOL    HW2 1855   4.338   1.261   0.854  0.3991  0.0001 -1.1521
  446SOL    HW3 1856   4.285   1.403   0.845 -0.7888 -0.2229  1.9511
  446SOL    MW4 1857   4.273   1.317   0.838  0.0458 -0.1760 -0.3398
  447SOL     OW 1858   0.341   3.932   0.593  0.2449 -0.2596  0.3004
  447SOL    HW2 1859   0.397   3.906   0.666  2.2909 -1.8058 -1.7021
  447SOL    HW3 1860   0.298   3.851   0.566  0.2787  0.0755 -0.8004
  447SOL    MW4 1861   0.343   3.918   0.599  0.5193 -0.4191 -0.1091
  448SOL     OW 1862   2.899   2.037   0.815  0.4180  0.3743 -0.4832
  448SOL    HW2 1863   2.988   2.011   0.840  0.2487  0.9898  0.7980
  448SOL    HW3 1864   2.898   2.132   0.825 -0.1866  0.4423 -1.1461
  448SOL    MW4 1865   2.911   2.046   0.820  0.3159  0.4644 -0.4016
  449SOL     OW 1866   4.450   2.485   0.701  0.5284 -0.8358 -0.2404
  449SOL    HW2 1867   4.417   2.444   0.621 -1.2167  1.1943 -0.6079
  449SOL    HW3 1868   4.403   2.442   0.772 -0.3337 -0.3952 -0.5388
  449SOL    MW4 1869   4.440   2.474   0.699  0.1845 -0.5097 -0.3282
  450SOL     OW 1870   0.387   3.649   0.840  0.1864  0.2698  0.2896
  450SOL    HW2 1871   0.423   3.606   0.918  1.4463 -0.2997 -0.5758
  450SOL    HW3 1872   0.464   3.668   0.786 -0.7597 -0.3353 -1.3151
  450SOL    MW4 1873   0.402   3.646   0.843  0.2278  0.1147 -0.0363
  451SOL     OW 1874   4.239   2.363   0.854  0.2186 -0.1698 -0.9522
  451SOL    HW2 1875   4.174   2.401   0.795  0.2693 -0.6054 -1.2969
  451SOL    HW3 1876   4.227   2.268   0.845  1.1352 -0.2636 -1.2935
  451SOL    MW4 1877   4.229   2.355   0.845  0.3462 -0.2396 -1.0427
  452SOL     OW 1878   3.815   2.874   0.760 -0.2263 -0.5329 -0.3455
  452SOL    HW2 1879   3.828   2.866   0.665  3.1259 -0.8891  0.0870
  452SOL    HW3 1880   3.811   2.969   0.775  0.2079 -0.4537 -0.7229
  452SOL    MW4 1881   3.816   2.886   0.749  0.2735 -0.5693 -0.3381
  453SOL     OW 1882   2.231   2.907   0.413  0.3620 -0.7494  0.1195
  453SOL    HW2 1883   2.316   2.865   0.426 -0.2078 -1.6785  0.9211
  453SOL    HW3 1884   2.184   2.848   0.354 -0.2973 -1.0573  0.9358
  453SOL    MW4 1885   2.236   2.893   0.407  0.1998 -0.9124  0.3329
  454SOL     OW 1886   2.877   0.490   0.761 -0.3778 -0.0500  0.1291
  454SOL    HW2 1887   2.801   0.449   0.802 -1.6274  1.5851 -0.5106
  454SOL    HW3 1888   2.883   0.576   0.803  0.3737  0.3005 -0.6907
  454SOL    MW4 1889   2.868   0.496   0.772 -0.4435  0.2120 -0.0634
  455SOL     OW 1890   2.246   1.049   0.511 -0.3710  0.3465 -0.0668
  455SOL    HW2 1891   2.185   1.118   0.487 -0.4518 -0.0595 -1.0179
  455SOL    HW3 1892   2.331   1.079   0.478 -0.2499  0.3858  0.2724
  455SOL    MW4 1893   2.249   1.062   0.504 -0.3657  0.2981 -0.1476
  456SOL     OW 1894   2.852   2.853   0.780 -0.0774  0.1052  0.4640
  456SOL    HW2 1895   2.923   2.792   0.801 -1.3126 -1.0607  1.4463
  456SOL    HW3 1896   2.773   2.798   0.781 -1.0831  1.5113  0.1891
  456SOL    MW4 1897   2.851   2.837   0.783 -0.3731  0.1366  0.5574
  457SOL     OW 1898   2.029   0.591   0.488  0.0201 -0.4586  0.0676
  457SOL    HW2 1899   2.065   0.674   0.458  0.7146 -1.2625 -1.3756
  457SOL    HW3 1900   1.943   0.584   0.445  0.4129 -0.9666 -0.6416
  457SOL    MW4 1901   2.022   0.601   0.479  0.1636 -0.6317 -0.2164
  458SOL     OW 1902   4.145   2.956   0.547  0.1774 -0.0362 -0.0812
  458SOL    HW2 1903   4.145   3.050   0.532  1.0031  0.0002  0.0995
  458SOL    HW3 1904   4.171   2.946   0.639  0.0314 -0.4373 -0.0820
  458SOL    MW4 1905   4.149   2.967   0.557  0.2670 -0.0842 -0.0575
  459SOL     OW 1906   4.322   1.568   0.445  0.6569  0.2151  0.0773
  459SOL    HW2 1907   4.241   1.619   0.449 -0.1202 -0.9855  0.0351
  459SOL    HW3 1908   4.295   1.479   0.467  1.9404 -0.2269 -0.1041
  459SOL    MW4 1909   4.308   1.563   0.448  0.7234 -0.0017  0.0478
  460SOL     OW 1910   4.476   0.357   0.748  0.3404  0.4477  0.0982
  460SOL    HW2 1911   4.494   0.372   0.841 -0.9161 -0.5461  0.5194
  460SOL    HW3 1912   4.403   0.415   0.728  0.1049  0.0969 -0.0688
  460SOL    MW4 1913   4.469   0.366   0.758  0.1431  0.2703  0.1317
  461SOL     OW 1914   1.290   1.717   0.729 -0.1468 -0.3845 -0.2795
  461SOL    HW2 1915   1.364   1.661   0.752 -0.5973 -0.6635  0.4784
  461SOL    HW3 1916   1.317   1.804   0.758  0.9957  0.0151 -2.3954
  461SOL    MW4 1917   1.304   1.721   0.736 -0.0554 -0.3686 -0.4587
  462SOL     OW 1918   3.615   2.211   0.196  0.0089 -0.3311 -0.2703
  462SOL    HW2 1919   3.669   2.188   0.121 -0.0828 -0.6851 -0.2249
  462SOL    HW3 1920   3.674   2.260   0.254  0.9378 -2.7390  0.8766
  462SOL    MW4 1921   3.630   2.215   0.194  0.1192 -0.6955 -0.1130
  463SOL     OW 1922   0.262   0.528   0.776 -0.2091  0.3722  0.1281
  463SOL    HW2 1923   0.317   0.482   0.840  1.2197  1.3198 -0.4049
  463SOL    HW3 1924   0.257   0.617   0.809 -0.4768  0.5720 -0.4500
  463SOL    MW4 1925   0.268   0.533   0.789 -0.0559  0.5236 -0.0184
  464SOL     OW 1926   1.263   0.918   0.804 -0.0098  0.1189 -0.2197
  464SOL    HW2 1927   1.291   0.996   0.851 -0.0914  0.1712 -0.2579
  464SOL    HW3 1928   1.203   0.874   0.864 -0.9340  0.7238 -0.6767
  464SOL    MW4 1929   1.258   0.922   0.818 -0.1426  0.2056 -0.2851
  465SOL     OW 1930   3.411   1.546   0.876 -0.0625  0.7901  0.5455
  465SOL    HW2 1931   3.335   1.603   0.864 -1.2930 -0.9673 -0.2767
  465SOL    HW3 1932   3.407   1.520   0.968 -0.5405  0.5744  0.4636
  465SOL    MW4 1933   3.400   1.550   0.886 -0.2880  0.5298  0.4262
  466SOL     OW 1934   3.314   4.417   0.784 -0.7801  0.1801 -0.6392
  466SOL    HW2 1935   3.335   4.412   0.691 -1.1325 -0.0693 -0.7039
  466SOL    HW3 1936   3.303   4.511   0.801  0.5878  0.3326 -0.5613
  466SOL    MW4 1937   3.315   4.429   0.774 -0.6461  0.1674 -0.6375
  467SOL     OW 1938   3.831   0.745   0.847  0.0432 -0.2050 -0.1109
  467SOL    HW2 1939   3.897   0.810   0.825 -1.6299  0.8674 -2.2367
  467SOL    HW3 1940   3.833   0.739   0.942  0.3138  2.9191  0.1371
  467SOL    MW4 1941   3.840   0.753   0.857 -0.1421  0.3486 -0.3586
  468SOL     OW 1942   4.027   2.481   0.722  0.0630  0.4742  0.0366
  468SOL    HW2 1943   3.945   2.449   0.760  0.3888 -0.1493  0.2213
  468SOL    HW3 1944   4.038   2.569   0.760 -0.0726  0.2117  0.6908
  468SOL    MW4 1945   4.017   2.489   0.732  0.0882  0.3572  0.1473
  469SOL     OW 1946   0.998   0.226   0.073 -0.0378  0.0583 -0.0532
  469SOL    HW2 1947   0.974   0.274   0.152 -1.4323 -1.1254  0.2481
  469SOL    HW3 1948   1.093   0.217   0.078 -0.1687 -0.3688  1.6796
  469SOL    MW4 1949   1.007   0.231   0.084 -0.2390 -0.1543  0.2152
  470SOL     OW 1950   2.243   4.235   0.472 -0.1781  0.5319  0.1344
  470SOL    HW2 1951   2.271   4.144   0.485  0.1575  0.7173  0.7726
  470SOL    HW3 1952   2.150   4.229   0.450 -0.8769  0.1704  2.9106
  470SOL    MW4 1953   2.235   4.222   0.471 -0.2260  0.5088  0.5849
  471SOL     OW 1954   1.499   0.792   0.855  0.2490 -0.3140  0.1005
  471SOL    HW2 1955   1.511   0.713   0.802  0.4144 -1.6488  2.0723
  471SOL    HW3 1956   1.414   0.826   0.827 -1.1533 -2.7637  1.1923
  471SOL    MW4 1957   1.489   0.786   0.844  0.0857 -0.8133  0.5047
  472SOL     OW 1958   0.555   1.922   0.462 -0.5856 -0.2200  0.0677
  472SOL    HW2 1959   0.603   1.936   0.544 -2.8233 -1.5781  1.6588
  472SOL    HW3 1960   0.467   1.955   0.480 -1.6982 -2.4580 -1.0707
  472SOL    MW4 1961   0.550   1.928   0.475 -1.0276 -0.6944  0.1274
  473SOL     OW 1962   4.335   1.563   0.845 -0.0668  0.6150 -0.2070
  473SOL    HW2 1963   4.261   1.611   0.808 -1.3545 -0.5541  0.7976
  473SOL    HW3 1964   4.325   1.573   0.940 -0.2925 -1.5139  0.0255
  473SOL    MW4 1965   4.324   1.571   0.853 -0.2661  0.1799 -0.0437
  474SOL     OW 1966   0.766   4.270   0.407  0.0495  0.4499  0.7043
  474SOL    HW2 1967   0.675   4.297   0.399  0.0721  0.4902  0.5858
  474SOL    HW3 1968   0.814   4.351   0.426 -0.0118  0.3467  1.3191
  474SOL    MW4 1969   0.761   4.284   0.409  0.0444  0.4411  0.7698
  475SOL     OW 1970   0.693   1.361   0.768 -0.2559 -0.2311 -0.6149
  475SOL    HW2 1971   0.619   1.308   0.798 -1.0267  1.2127  0.0730
  475SOL    HW3 1972   0.688   1.358   0.673 -1.2878 -0.0047 -0.5664
  475SOL    MW4 1973   0.683   1.353   0.760 -0.4938 -0.0107 -0.5178
  476SOL     OW 1974   0.703   3.021   0.817 -0.1493  0.2347  0.0071
  476SOL    HW2 1975   0.780   3.071   0.793 -0.3843  0.8910  0.6323
  476SOL    HW3 1976   0.734   2.930   0.824  0.2900  0.3056 -1.0110
  476SOL    MW4 1977   0.717   3.015   0.815 -0.1224  0.3307 -0.0447
  477SOL     OW 1978   1.728   1.720   0.445 -0.1217 -0.1735  0.1662
  477SOL    HW2 1979   1.663   1.778   0.404  1.2775  0.8981 -0.5944
  477SOL    HW3 1980   1.690   1.633   0.438 -0.9076  0.2726 -1.4390
  477SOL    MW4 1981   1.715   1.716   0.439 -0.0408  0.0268 -0.1459
  478SOL     OW 1982   0.051   3.129   0.657 -0.1688  0.5950 -0.0069
  478SOL    HW2 1983   0.039   3.180   0.577 -0.3862 -0.0096 -0.3650
  478SOL    HW3 1984   0.058   3.038   0.627 -0.1007  0.3796  0.6458
  478SOL    MW4 1985   0.050   3.124   0.643 -0.1885  0.4869  0.0319
  479SOL     OW 1986   3.355   3.655   0.758  0.2567 -0.0182 -0.0254
  479SOL    HW2 1987   3.347   3.652   0.662  3.1157  1.0536 -0.3490
  479SOL    HW3 1988   3.378   3.746   0.777 -4.0999  0.7546  2.0767
  479SOL    MW4 1989   3.357   3.667   0.748  0.0591  0.2253  0.2093
  480SOL     OW 1990   3.841   3.126   1.066  0.3458 -0.2531  0.0811
  480SOL    HW2 1991   3.839   3.037   1.099  0.6249  0.1368  1.1499
  480SOL    HW3 1992   3.916   3.167   1.108  1.0313  0.0968 -1.4406
  480SOL    MW4 1993   3.850   3.120   1.076  0.4728 -0.1552  0.0213
  481SOL     OW 1994   0.640   3.624   0.714  0.5767 -0.4763 -0.2123
  481SOL    HW2 1995   0.614   3.553   0.655 -0.1455 -0.8199  0.5152
  481SOL    HW3 1996   0.673   3.692   0.656  1.6437 -1.5556 -0.9063
  481SOL    MW4 1997   0.641   3.623   0.699  0.6222 -0.6642 -0.2079
  482SOL     OW 1998   2.254   0.168   0.528  0.2515  0.3607  0.2163
  482SOL    HW2 1999   2.345   0.189   0.504  0.0565  0.3813 -0.5114
  482SOL    HW3 2000   2.202   0.232   0.480 -0.2943 -1.1834 -1.2876
  482SOL    MW4 2001   2.259   0.179   0.518  0.1535  0.1597 -0.0781
  483SOL     OW 2002   0.611   4.395   0.727 -0.0355 -0.0792  0.2713
  483SOL    HW2 2003   0.698   4.364   0.750  0.3763  0.8391 -0.0259
  483SOL    HW3 2004   0.607   4.484   0.762 -0.8426 -0.1055  0.2594
  483SOL    MW4 2005   0.622   4.403   0.735 -0.0876  0.0386  0.2305
  484SOL     OW 2006   2.662   0.822   0.526  0.0885 -0.3783  0.1953
  484SOL    HW2 2007   2.726   0.849   0.459 -0.5199  0.2471 -0.1482
  484SOL    HW3 2008   2.691   0.865   0.606 -0.1173  0.2224 -0.0499
  484SOL    MW4 2009   2.674   0.831   0.527 -0.0191 -0.2165  0.1177
  485SOL     OW 2010   1.287   1.724   0.466  0.2185  0.2258  0.1922
  485SOL    HW2 2011   1.285   1.715   0.561  0.7164  0.8849  0.2768
  485SOL    HW3 2012   1.214   1.782   0.446  0.2276  0.2406  0.2012
  485SOL    MW4 2013   1.277   1.731   0.476  0.2854  0.3146  0.2045
  486SOL     OW 2014   4.223   4.543   1.122 -0.3343  0.1699 -0.0459
  486SOL    HW2 2015   4.312   4.563   1.150  0.1046 -0.0118 -1.2787
  486SOL    HW3 2016   4.170   4.614   1.159  0.4464  0.7574 -0.0331
  486SOL    MW4 2017   4.228   4.555   1.131 -0.1731  0.2232 -0.2069
  487SOL     OW 2018   4.475   4.615   1.212 -0.2243 -0.1921  0.3279
  487SOL    HW2 2019   4.532   4.683   1.176  0.3027  0.5158  2.4151
  487SOL    HW3 2020   4.528   4.536   1.211  0.4711  0.2532  1.3478
  487SOL    MW4 2021   4.489   4.614   1.207 -0.0634 -0.0396  0.7379
  488SOL     OW 2022   0.115   0.143   1.090  0.1401 -0.1168 -0.2929
  488SOL    HW2 2023   0.207   0.153   1.113  0.0062  2.2122 -0.6276
  488SOL    HW3 2024   0.114   0.135   0.995  0.0534 -0.7997 -0.2324
  488SOL    MW4 2025   0.127   0.143   1.081  0.1110  0.1004 -0.3290
  489SOL     OW 2026   4.491   0.394   1.047 -0.1079  0.0463 -0.5831
  489SOL    HW2 2027   4.492   0.302   1.074 -1.5523 -0.3210 -1.6674
  489SOL    HW3 2028   4.420   0.433   1.099  0.7835  0.6510  0.1837
  489SOL    MW4 2029   4.481   0.387   1.057 -0.1807  0.0776 -0.6250
  490SOL     OW 2030   0.207   0.532   1.204 -0.1843  0.2397 -0.6473
  490SOL    HW2 2031   0.228   0.624   1.191  2.3167 -0.3185 -0.8313
  490SOL    HW3 2032   0.126   0.519   1.155 -0.2687  2.2112 -1.0724
  490SOL    MW4 2033   0.199   0.542   1.195  0.1345  0.4262 -0.7277
  491SOL     OW 2034   0.213   0.789   1.152 -0.4384 -0.2340  0.1553
  491SOL    HW2 2035   0.279   0.849   1.187  0.4808 -1.4609  0.5561
  491SOL    HW3 2036   0.133   0.812   1.199 -0.1906  0.9387  0.0156
  491SOL    MW4 2037   0.211   0.800   1.163 -0.2844 -0.2412  0.1898
  492SOL     OW 2038   4.466   0.885   1.281  0.1757  0.0444  0.2988
  492SOL    HW2 2039   4.457   0.872   1.376  0.2836 -3.0821 -0.0712
  492SOL    HW3 2040   4.386   0.847   1.244  1.6250 -1.8349 -1.0456
  492SOL    MW4 2041   4.454   0.878   1.289  0.3815 -0.6160  0.0726
  493SOL     OW 2042   4.477   1.123   1.121 -0.3563 -0.0219  0.0963
  493SOL    HW2 2043   4.416   1.183   1.164 -0.3841 -1.1198  1.6074
  493SOL    HW3 2044   4.484   1.048   1.180  0.4980 -1.0481 -1.2669
  493SOL    MW4 2045   4.470   1.121   1.134 -0.2470 -0.3022  0.1159
  494SOL     OW 2046   0.201   1.280   1.219 -0.0815  0.5341  0.2170
  494SOL    HW2 2047   0.275   1.231   1.183 -0.3437 -0.9414  1.6390
  494SOL    HW3 2048   0.124   1.229   1.195 -0.2513 -0.5263  2.8791
  494SOL    MW4 2049   0.201   1.267   1.211 -0.1385  0.1994  0.7559
  495SOL     OW 2050   0.222   1.542   1.139  0.9198 -0.0309 -0.1094
  495SOL    HW2 2051   0.215   1.449   1.156  1.2616 -0.4113 -1.9115
  495SOL    HW3 2052   0.258   1.548   1.050  1.2112  1.8081  0.1020
  495SOL    MW4 2053   0.226   1.531   1.129  1.0034  0.1615 -0.3194
  496SOL     OW 2054   4.267   1.541   1.137 -0.0772 -0.1311 -0.0838
  496SOL    HW2 2055   4.340   1.591   1.172  0.6829  0.2143 -2.0664
  496SOL    HW3 2056   4.266   1.460   1.188  1.6493 -0.1185  0.0084
  496SOL    MW4 2057   4.276   1.537   1.148  0.2508 -0.0838 -0.3332
  497SOL     OW 2058   3.759   2.367   0.386  0.0555 -0.0644  0.1239
  497SOL    HW2 2059   3.833   2.427   0.399  0.5806 -0.6436 -0.1572
  497SOL    HW3 2060   3.682   2.421   0.401  0.5245  0.6659 -0.0325
  497SOL    MW4 2061   3.759   2.382   0.389  0.1869 -0.0443  0.0662
  498SOL     OW 2062   0.224   2.074   1.249 -0.2668  0.2947 -0.1020
  498SOL    HW2 2063   0.208   2.166   1.231  1.0680  0.7250  0.8317
  498SOL    HW3 2064   0.143   2.030   1.225 -0.9991  1.7404 -0.3018
  498SOL    MW4 2065   0.212   2.080   1.243 -0.1873  0.5424 -0.0051
  499SOL     OW 2066   0.178   2.317   1.116 -0.3345  0.1792 -0.4488
  499SOL    HW2 2067   0.195   2.337   1.024  0.3686 -1.0985 -0.5926
  499SOL    HW3 2068   0.104   2.375   1.139 -0.3367  0.7015 -1.7246
  499SOL    MW4 2069   0.170   2.327   1.107 -0.2420  0.0796 -0.6361
  500SOL     OW 2070   4.475   2.500   1.208 -0.0392 -0.2827 -0.1771
  500SOL    HW2 2071   4.491   2.480   1.300 -0.0125  0.5341 -0.0063
  500SOL    HW3 2072   4.392   2.457   1.189 -0.1712 -0.2418  0.2960
  500SOL    MW4 2073   4.466   2.491   1.218 -0.0529 -0.1698 -0.0921
  501SOL     OW 2074   4.457   2.756   1.106 -0.1889  0.4781  0.4567
  501SOL    HW2 2075   4.379   2.791   1.148 -0.3484 -0.2948  0.8225
  501SOL    HW3 2076   4.475   2.674   1.153  0.9304  0.7298  0.4903
  501SOL    MW4 2077   4.449   2.750   1.118 -0.0620  0.4096  0.5095
  502SOL     OW 2078   0.192   2.932   1.167 -0.3093 -0.1175  0.1653
  502SOL    HW2 2079   0.189   2.925   1.263 -0.0333 -0.4606  0.1508
  502SOL    HW3 2080   0.120   2.877   1.137 -0.4895  0.1092  0.1804
  502SOL    MW4 2081   0.182   2.924   1.176 -0.2966 -0.1333  0.1656
  503SOL     OW 2082   0.214   3.207   1.077 -0.1974  0.3641  0.1201
  503SOL    HW2 2083   0.293   3.228   1.127  0.0486 -0.7934  0.2144
  503SOL    HW3 2084   0.205   3.112   1.084 -0.8199  0.3307 -1.0544
  503SOL    MW4 2085   0.223   3.198   1.085 -0.2471  0.2067 -0.0223
  504SOL     OW 2086   4.459   3.257   1.219 -0.2093 -0.2131 -0.0310
  504SOL    HW2 2087   4.384   3.228   1.168 -0.4741 -2.4123  1.5637
  504SOL    HW3 2088   4.534   3.246   1.161 -0.7512 -0.8418 -0.6130
  504SOL    MW4 2089   4.459   3.252   1.205 -0.3157 -0.5865  0.1025
  505SOL     OW 2090   4.466   3.518   1.140  0.0874 -0.1360  0.4586
  505SOL    HW2 2091   4.453   3.433   1.182  1.2221 -0.0027  1.0941
  505SOL    HW3 2092   4.449   3.502   1.048  0.3681 -1.0718  0.5650
  505SOL    MW4 2093   4.462   3.505   1.134  0.2742 -0.2418  0.5565
  506SOL     OW 2094   0.224   3.621   1.207 -0.5171  0.0414 -0.7749
  506SOL    HW2 2095   0.234   3.614   1.302 -1.5206 -0.7252 -0.7125
  506SOL    HW3 2096   0.147   3.568   1.188 -0.0961 -0.1077 -2.0691
  506SOL    MW4 2097   0.215   3.613   1.217 -0.5940 -0.0794 -0.9375
  507SOL     OW 2098   3.020   3.566   0.442 -0.3566  0.2939 -0.5671
  507SOL    HW2 2099   2.988   3.599   0.526  0.1099 -0.0364 -0.2548
  507SOL    HW3 2100   3.027   3.471   0.455 -0.8908  0.1640 -1.1886
  507SOL    MW4 2101   3.017   3.558   0.455 -0.3655  0.2332 -0.6078
  508SOL     OW 2102   4.344   3.944   1.242 -0.1138  0.1221  0.4779
  508SOL    HW2 2103   4.322   3.851   1.251 -0.1648  0.1537  0.6968
  508SOL    HW3 2104   4.396   3.963   1.320  2.8534 -0.5748 -1.2640
  508SOL    MW4 2105   4.348   3.934   1.254  0.2708  0.0346  0.2770
  509SOL     OW 2106   0.200   3.701   0.502 -0.0233 -0.1926  0.3389
  509SOL    HW2 2107   0.115   3.738   0.478 -0.0748 -0.4999  0.0404
  509SOL    HW3 2108   0.180   3.633   0.566  0.1391  0.8219  1.4914
  509SOL    MW4 2109   0.186   3.697   0.507 -0.0087 -0.0994  0.4515
  510SOL     OW 2110   0.322   0.475   0.431 -0.2033 -0.2597  0.2332
  510SOL    HW2 2111   0.336   0.567   0.412  0.4936 -0.4887 -0.4096
  510SOL    HW3 2112   0.407   0.444   0.463 -0.2504 -0.8260 -0.1745
  510SOL    MW4 2113   0.335   0.483   0.433 -0.1175 -0.3646  0.0946
  511SOL     OW 2114   0.856   0.100   1.202 -0.2212 -0.3283 -0.3659
  511SOL    HW2 2115   0.875   0.116   1.295  1.4310  2.4526 -1.1458
  511SOL    HW3 2116   0.935   0.056   1.169 -0.7371 -1.1587 -0.5136
  511SOL    MW4 2117   0.869   0.096   1.210 -0.0712 -0.0710 -0.4882
  512SOL     OW 2118   0.377   0.140   1.226 -0.0076 -0.0833  0.0503
  512SOL    HW2 2119   0.399   0.129   1.319  1.5352  0.4781 -0.2273
  512SOL    HW3 2120   0.448   0.095   1.180 -0.3404  0.3254 -0.8627
  512SOL    MW4 2121   0.389   0.132   1.232  0.1521  0.0446 -0.1069
  513SOL     OW 2122   0.663   0.010   1.578  0.0998 -0.1512  0.4757
  513SOL    HW2 2123   0.587   0.066   1.564  0.1362 -0.1645  0.2242
  513SOL    HW3 2124   0.738   0.064   1.556  0.1135 -0.4211 -0.1618
  513SOL    MW4 2125   0.663   0.024   1.573  0.1064 -0.1886  0.3585
  514SOL     OW 2126   0.681   0.525   1.305 -0.2260  0.3901  0.0876
  514SOL    HW2 2127   0.681   0.614   1.270 -0.8281  0.4453  0.2139
  514SOL    HW3 2128   0.595   0.491   1.282  0.4618 -0.6122 -1.0837
  514SOL    MW4 2129   0.670   0.533   1.297 -0.2147  0.2652 -0.0503
  515SOL     OW 2130   0.429   0.916   1.265  0.1671  0.3191 -0.2678
  515SOL    HW2 2131   0.431   0.907   1.360 -0.5469  1.3676 -0.1388
  515SOL    HW3 2132   0.454   1.007   1.250  1.3878 -0.1587 -1.1484
  515SOL    MW4 2133   0.432   0.927   1.276  0.2339  0.3944 -0.3668
  516SOL     OW 2134   0.935   0.899   1.279 -0.1186 -0.3865  0.0067
  516SOL    HW2 2135   0.942   0.986   1.240 -1.1562 -0.7803 -1.0809
  516SOL    HW3 2136   0.849   0.867   1.253  0.0232 -1.5158  0.8645
  516SOL    MW4 2137   0.925   0.906   1.270 -0.2367 -0.5875 -0.0237
  517SOL     OW 2138   0.453   1.190   1.153  0.3416  0.3318 -0.1642
  517SOL    HW2 2139   0.482   1.183   1.062  0.2122  0.7690 -0.2411
  517SOL    HW3 2140   0.527   1.228   1.199  0.3693  0.2106 -0.1108
  517SOL    MW4 2141   0.466   1.194   1.147  0.3282  0.3735 -0.1673
  518SOL     OW 2142   0.679   1.293   1.256 -0.2788  0.4330  0.2245
  518SOL    HW2 2143   0.732   1.241   1.196  1.1585  0.1806  1.6763
  518SOL    HW3 2144   0.680   1.381   1.219  1.5880  0.5455  0.4789
  518SOL    MW4 2145   0.686   1.298   1.243  0.1571  0.4144  0.4494
  519SOL     OW 2146   0.695   1.555   1.154  0.1194 -0.3018  0.3631
  519SOL    HW2 2147   0.771   1.598   1.194  0.5545 -0.5812 -0.1595
  519SOL    HW3 2148   0.620   1.600   1.193  0.5556  0.2959  0.5376
  519SOL    MW4 2149   0.695   1.567   1.164  0.2344 -0.2598  0.3172
  520SOL     OW 2150   0.452   1.658   1.239  0.6141  0.0065 -0.0285
  520SOL    HW2 2151   0.459   1.645   1.334 -0.8464 -0.0140  0.0866
  520SOL    HW3 2152   0.373   1.610   1.214 -0.0217  1.5030 -0.9660
  520SOL    MW4 2153   0.442   1.650   1.248  0.3375  0.2013 -0.1370
  521SOL     OW 2154   0.466   1.939   1.164 -0.3419 -0.1274 -0.0789
  521SOL    HW2 2155   0.392   1.997   1.184  0.9582  1.7548 -0.5226
  521SOL    HW3 2156   0.442   1.855   1.203 -1.9924  0.8880  1.1855
  521SOL    MW4 2157   0.453   1.936   1.171 -0.3881  0.2549  0.0296
  522SOL     OW 2158   0.691   2.088   1.221 -0.4908 -0.4204 -0.0102
  522SOL    HW2 2159   0.706   2.101   1.315 -0.1121 -0.9441  0.0075
  522SOL    HW3 2160   0.603   2.051   1.215 -1.4605  1.8284 -0.0444
  522SOL    MW4 2161   0.681   2.085   1.233 -0.5688 -0.1929 -0.0124
  523SOL     OW 2162   0.658   2.354   1.144 -0.0627  0.0297 -0.1360
  523SOL    HW2 2163   0.568   2.381   1.164 -0.0341  0.8109 -0.9949
  523SOL    HW3 2164   0.663   2.263   1.173 -0.6945  0.4173  1.2263
  523SOL    MW4 2165   0.647   2.346   1.150 -0.1422  0.1843 -0.0696
  524SOL     OW 2166   0.400   2.471   1.178  0.0321 -0.0653  0.4179
  524SOL    HW2 2167   0.397   2.465   1.274 -0.1410 -0.4061  0.3914
  524SOL    HW3 2168   0.328   2.415   1.148  0.3159 -0.2468  0.0760
  524SOL    MW4 2169   0.390   2.463   1.187  0.0467 -0.1345  0.3693
  525SOL     OW 2170   0.406   2.738   1.105 -0.4272  0.0937 -0.1386
  525SOL    HW2 2171   0.333   2.796   1.127  0.6721  1.6935 -0.5908
  525SOL    HW3 2172   0.379   2.652   1.137 -2.7325  0.5464 -0.7883
  525SOL    MW4 2173   0.393   2.734   1.112 -0.5863  0.3643 -0.2838
  526SOL     OW 2174   0.631   2.878   1.215 -0.1527 -0.0250  0.6482
  526SOL    HW2 2175   0.612   2.967   1.184  0.6286  0.2820  1.0164
  526SOL    HW3 2176   0.560   2.824   1.180  0.4247  0.3909 -1.2237
  526SOL    MW4 2177   0.619   2.883   1.206  0.0266  0.0706  0.4499
  527SOL     OW 2178   0.617   3.100   1.074  0.0159  0.2994  0.1550
  527SOL    HW2 2179   0.691   3.143   1.117 -0.4720 -0.6349  2.0245
  527SOL    HW3 2180   0.647   3.082   0.985  1.4554  1.3706  0.4074
  527SOL    MW4 2181   0.631   3.103   1.068  0.1415  0.3176  0.4350
  528SOL     OW 2182   0.449   3.280   1.185 -0.0833 -0.2489 -0.1893
  528SOL    HW2 2183   0.441   3.357   1.129  1.3294 -0.0339 -0.0983
  528SOL    HW3 2184   0.506   3.220   1.137  0.2203 -0.5330  0.5179
  528SOL    MW4 2185   0.455   3.282   1.172  0.1432 -0.2580 -0.0840
  529SOL     OW 2186   0.460   3.547   1.086 -0.0855  0.5713  0.1003
  529SOL    HW2 2187   0.527   3.573   1.150  0.9219 -1.2588 -0.1948
  529SOL    HW3 2188   0.378   3.574   1.127  0.5301 -0.6390  2.2369
  529SOL    MW4 2189   0.458   3.554   1.100  0.1286  0.1705  0.3433
  530SOL     OW 2190   0.699   3.639   1.215 -0.4374  0.0158  0.0339
  530SOL    HW2 2191   0.698   3.642   1.310  0.5168 -1.6482  0.1236
  530SOL    HW3 2192   0.681   3.729   1.187  0.7230  0.8050  1.7806
  530SOL    MW4 2193   0.696   3.651   1.224 -0.1584 -0.0994  0.2762
  531SOL     OW 2194   0.655   3.885   1.103 -0.5014 -0.1560 -0.3649
  531SOL    HW2 2195   0.583   3.920   1.156  0.3225  0.4076  0.3921
  531SOL    HW3 2196   0.631   3.907   1.013 -1.1690  0.2138 -0.1043
  531SOL    MW4 2197   0.642   3.892   1.098 -0.4807 -0.0327 -0.2306
  532SOL     OW 2198   0.409   3.984   1.218 -0.5043 -0.0145 -0.0569
  532SOL    HW2 2199   0.401   4.076   1.191 -0.6075  0.0346  0.1453
  532SOL    HW3 2200   0.363   3.936   1.150  0.3080  0.0140 -0.6421
  532SOL    MW4 2201   0.402   3.990   1.205 -0.4107 -0.0043 -0.1074
  533SOL     OW 2202   0.134   4.365   1.183 -0.5718 -0.2907 -0.2262
  533SOL    HW2 2203   0.213   4.312   1.174  0.3697  1.1702 -0.7906
  533SOL    HW3 2204   0.097   4.339   1.267  0.2791 -1.2883 -0.1506
  533SOL    MW4 2205   0.140   4.354   1.193 -0.3353 -0.2294 -0.2905
  534SOL     OW 2206   0.608   4.395   1.235  0.1653  0.0913 -0.5990
  534SOL    HW2 2207   0.630   4.424   1.323  0.7258  0.2703 -0.7932
  534SOL    HW3 2208   0.692   4.366   1.198 -0.1409 -0.3846 -0.9192
  534SOL    MW4 2209   0.622   4.395   1.242  0.1988  0.0520 -0.6669
  535SOL     OW 2210   1.094   4.651   1.108 -0.0305 -0.0526  0.4125
  535SOL    HW2 2211   1.103   4.560   1.138  1.5198 -0.1267 -0.2306
  535SOL    HW3 2212   1.082   4.643   1.013 -1.5371  0.3460  0.5593
  535SOL    MW4 2213   1.093   4.638   1.100 -0.0247 -0.0095  0.3471
  536SOL     OW 2214   0.859   0.364   1.159 -0.2524 -0.2488  0.2914
  536SOL    HW2 2215   0.782   0.401   1.203 -0.0972 -1.7675  1.8774
  536SOL    HW3 2216   0.854   0.270   1.176  2.1155 -0.3308  0.6570
  536SOL    MW4 2217   0.848   0.357   1.167  0.0804 -0.4600  0.5490
  537SOL     OW 2218   1.091   0.495   0.798  0.4142  0.0231 -0.3038
  537SOL    HW2 2219   1.059   0.529   0.714 -0.9027 -0.9277 -0.2142
  537SOL    HW3 2220   1.093   0.572   0.855  0.4809  0.5220 -0.9659
  537SOL    MW4 2221   1.087   0.510   0.794  0.2493 -0.0365 -0.3794
  538SOL     OW 2222   1.109   0.471   1.248  0.0451 -0.0401  0.5817
  538SOL    HW2 2223   1.094   0.456   1.341 -0.7119  0.1228  0.4928
  538SOL    HW3 2224   1.028   0.442   1.205  0.5729 -0.5769 -0.0756
  538SOL    MW4 2225   1.096   0.465   1.254  0.0149 -0.0894  0.4832
  539SOL     OW 2226   1.162   0.743   1.197  0.2360 -0.3270 -0.3602
  539SOL    HW2 2227   1.088   0.791   1.234 -0.9120 -0.7360 -2.0668
  539SOL    HW3 2228   1.143   0.651   1.216  0.2257 -0.4453 -0.9363
  539SOL    MW4 2229   1.150   0.737   1.204  0.0832 -0.3965 -0.6614
  540SOL     OW 2230   1.352   0.919   1.272  0.0161  0.3865  0.3252
  540SOL    HW2 2231   1.434   0.878   1.245 -0.4452  0.0598 -0.6226
  540SOL    HW3 2232   1.284   0.857   1.245 -0.6621  1.5462 -0.6915
  540SOL    MW4 2233   1.354   0.906   1.265 -0.1342  0.4964  0.0662
  541SOL     OW 2234   0.870   1.124   1.131 -0.2552  0.0619  0.4263
  541SOL    HW2 2235   0.942   1.179   1.164 -0.0731  0.3401 -0.4172
  541SOL    HW3 2236   0.875   1.134   1.036 -0.5601 -1.0028  0.2979
  541SOL    MW4 2237   0.880   1.133   1.123 -0.2714 -0.0420  0.2980
  542SOL     OW 2238   1.062   1.273   1.245  0.2357 -0.5313 -0.6773
  542SOL    HW2 2239   1.068   1.276   1.341 -0.6252  0.1854 -0.6347
  542SOL    HW3 2240   1.149   1.248   1.216  1.1563  1.4988  0.1993
  542SOL    MW4 2241   1.074   1.270   1.254  0.2435 -0.1688 -0.5561
  543SOL     OW 2242   1.113   1.546   1.151  0.1875  0.3929 -0.0363
  543SOL    HW2 2243   1.072   1.461   1.164  0.9236  0.0863  0.3130
  543SOL    HW3 2244   1.111   1.559   1.056  0.0386  0.0021 -0.0862
  543SOL    MW4 2245   1.107   1.536   1.140  0.2650  0.3008  0.0033
  544SOL     OW 2246   0.904   1.708   1.255  0.5240  0.1555  0.3031
  544SOL    HW2 2247   0.902   1.789   1.205  1.4579  0.7588  1.2068
  544SOL    HW3 2248   0.976   1.657   1.217 -0.5649 -0.5839 -0.7669
  544SOL    MW4 2249   0.913   1.712   1.244  0.5035  0.1376  0.2811
  545SOL     OW 2250   0.906   1.960   1.121 -0.7563 -0.7140  0.4379
  545SOL    HW2 2251   0.986   1.998   1.158 -0.1137 -2.1559  0.5659
  545SOL    HW3 2252   0.836   2.017   1.153  0.1684  0.3114  0.6879
  545SOL    MW4 2253   0.907   1.973   1.130 -0.5495 -0.7690  0.4877
  546SOL     OW 2254   1.157   2.073   1.189  0.0343 -0.0184 -0.4024
  546SOL    HW2 2255   1.163   2.073   1.285  1.9552 -1.1344 -0.4904
  546SOL    HW3 2256   1.113   2.156   1.168 -0.1753  0.3674  1.4196
  546SOL    MW4 2257   1.152   2.084   1.199  0.2601 -0.1144 -0.1737
  547SOL     OW 2258   1.064   2.348   1.116 -0.1736  0.3123 -0.1070
  547SOL    HW2 2259   1.151   2.383   1.137  0.3276 -0.7756 -0.3099
  547SOL    HW3 2260   1.003   2.402   1.167  0.6784  0.5991  0.6240
  547SOL    MW4 2261   1.067   2.360   1.126  0.0050  0.2067 -0.0373
  548SOL     OW 2262   0.895   2.505   1.254  0.1586  0.4906 -0.0670
  548SOL    HW2 2263   0.889   2.478   1.346 -0.2206 -1.4253 -0.6285
  548SOL    HW3 2264   0.817   2.468   1.213  0.0815  1.7478 -1.0740
  548SOL    MW4 2265   0.884   2.496   1.261  0.0985  0.4036 -0.2738
  549SOL     OW 2266   0.879   2.754   1.125  0.1547 -0.3547  0.2300
  549SOL    HW2 2267   0.906   2.683   1.182 -0.4391 -0.3873  0.4776
  549SOL    HW3 2268   0.813   2.802   1.176  0.7430  0.5226  0.1695
  549SOL    MW4 2269   0.874   2.751   1.139  0.1540 -0.2432  0.2546
  550SOL     OW 2270   1.101   2.894   1.171 -0.0834 -0.0205 -0.2872
  550SOL    HW2 2271   1.113   2.891   1.266  0.9306 -2.2820 -0.4475
  550SOL    HW3 2272   1.024   2.839   1.155 -0.2512  0.3543 -0.7746
  550SOL    MW4 2273   1.092   2.886   1.181  0.0281 -0.2694 -0.3728
  551SOL     OW 2274   1.127   3.147   1.082  0.2397  0.2560  0.6118
  551SOL    HW2 2275   1.124   3.058   1.116 -0.0746 -0.0660 -0.2400
  551SOL    HW3 2276   1.128   3.136   0.987 -0.2092  1.1656  0.4940
  551SOL    MW4 2277   1.126   3.134   1.074  0.1389  0.3335  0.4838
  552SOL     OW 2278   0.873   3.216   1.165 -0.0480  0.2724 -0.4061
  552SOL    HW2 2279   0.891   3.310   1.153  1.8692  0.0610  0.5905
  552SOL    HW3 2280   0.948   3.172   1.125 -0.5725 -0.8099 -0.2157
  552SOL    MW4 2281   0.885   3.223   1.158  0.1358  0.1018 -0.2495
  553SOL     OW 2282   0.883   3.467   1.084  0.0135  0.0402 -0.5177
  553SOL    HW2 2283   0.812   3.519   1.122  0.4288  0.5507 -0.4314
  553SOL    HW3 2284   0.871   3.474   0.990 -1.0511 -1.2718 -0.4924
  553SOL    MW4 2285   0.872   3.475   1.077 -0.0722 -0.0656 -0.5029
  554SOL     OW 2286   1.119   3.608   1.208 -0.4492 -0.3696  0.1635
  554SOL    HW2 2287   1.201   3.581   1.167 -1.0118 -2.1620  0.1608
  554SOL    HW3 2288   1.051   3.560   1.159 -1.5305  1.2881 -0.0220
  554SOL    MW4 2289   1.121   3.598   1.196 -0.6661 -0.3872  0.1386
  555SOL     OW 2290   1.116   3.861   1.077  0.0548 -0.3737 -0.1385
  555SOL    HW2 2291   1.039   3.913   1.100  0.0251 -0.0728 -0.8739
  555SOL    HW3 2292   1.115   3.786   1.137 -0.1248  0.2682  0.6630
  555SOL    MW4 2293   1.106   3.858   1.088  0.0271 -0.2494 -0.1298
  556SOL     OW 2294   0.890   4.014   1.173  0.0419 -0.0290 -0.2005
  556SOL    HW2 2295   0.892   3.993   1.267 -0.0951  0.6931 -0.0346
  556SOL    HW3 2296   0.808   3.977   1.142  1.0780 -2.1559 -0.4868
  556SOL    MW4 2297   0.879   4.007   1.181  0.1605 -0.2146 -0.2162
  557SOL     OW 2298   0.835   4.281   1.112 -0.1538 -0.4746  0.2767
  557SOL    HW2 2299   0.846   4.283   1.017  0.6595 -0.4071  0.3703
  557SOL    HW3 2300   0.862   4.192   1.137  0.4874 -0.2074  0.5439
  557SOL    MW4 2301   0.840   4.269   1.102  0.0381 -0.4301  0.3245
  558SOL     OW 2302   1.071   4.388   1.167 -0.5041  0.3521  0.0245
  558SOL    HW2 2303   1.079   4.404   1.261 -0.1163  0.0853  0.0367
  558SOL    HW3 2304   0.988   4.341   1.158  0.0276 -0.6687  0.3672
  558SOL    MW4 2305   1.061   4.384   1.178 -0.3827  0.1817  0.0713
  559SOL     OW 2306   1.568   4.661   1.097  0.3288 -0.0215  0.0007
  559SOL    HW2 2307   1.644   4.689   1.147  0.3526  0.4180 -0.2790
  559SOL    HW3 2308   1.550   4.572   1.128  1.4797 -0.4542 -0.5382
  559SOL    MW4 2309   1.576   4.653   1.108  0.4836 -0.0205 -0.1073
  560SOL     OW 2310   1.330   0.120   1.193 -0.5594  0.5192 -0.0750
  560SOL    HW2 2311   1.410   0.085   1.154 -0.6543  1.6739 -1.3405
  560SOL    HW3 2312   1.259   0.069   1.153 -0.4741 -0.4891  1.0300
  560SOL    MW4 2313   1.331   0.109   1.183 -0.5605  0.5385 -0.0962
  561SOL     OW 2314   1.340   0.394   1.108 -0.3326 -0.0923  0.5963
  561SOL    HW2 2315   1.344   0.303   1.136 -0.4968 -0.2340  0.1627
  561SOL    HW3 2316   1.266   0.431   1.156  0.3901  0.0930  1.5799
  561SOL    MW4 2317   1.331   0.387   1.118 -0.2589 -0.0865  0.6689
  562SOL     OW 2318   1.571   0.529   1.243 -0.1173 -0.3354  0.0121
  562SOL    HW2 2319   1.570   0.623   1.224 -0.9440 -0.3811 -0.1868
  562SOL    HW3 2320   1.506   0.492   1.183 -0.4279 -0.9181  0.7093
  562SOL    MW4 2321   1.562   0.536   1.232 -0.2674 -0.4182  0.0778
  563SOL     OW 2322   1.582   0.789   1.177 -0.6955  0.3955 -0.2202
  563SOL    HW2 2323   1.644   0.861   1.178 -0.3652  0.1017  0.8458
  563SOL    HW3 2324   1.568   0.770   1.084  1.9962 -0.5546 -0.4772
  563SOL    MW4 2325   1.588   0.796   1.165 -0.2967  0.2314 -0.1134
  564SOL     OW 2326   0.873   4.664   0.144 -0.2866  0.2922  0.1666
  564SOL    HW2 2327   0.784   4.693   0.162  0.3046  1.3607  1.4424
  564SOL    HW3 2328   0.917   4.741   0.108  0.1729 -0.1803 -0.2963
  564SOL    MW4 2329   0.867   4.678   0.141 -0.1480  0.3715  0.2738
  565SOL     OW 2330   1.326   1.182   1.169  0.0433  0.1270 -0.0280
  565SOL    HW2 2331   1.323   1.175   1.074  0.1234 -0.5469  0.0168
  565SOL    HW3 2332   1.347   1.094   1.199  1.8685  0.7447  0.5356
  565SOL    MW4 2333   1.328   1.169   1.161  0.2946  0.1196  0.0523
  566SOL     OW 2334   1.539   1.339   1.219 -0.2871 -0.2233 -0.4353
  566SOL    HW2 2335   1.614   1.288   1.188  0.2950 -1.4598  2.7895
  566SOL    HW3 2336   1.464   1.283   1.202 -0.1405 -0.2991 -0.8434
  566SOL    MW4 2337   1.539   1.325   1.213 -0.1910 -0.3965 -0.0635
  567SOL     OW 2338   1.564   1.581   1.080  0.3697  0.4067 -0.1911
  567SOL    HW2 2339   1.640   1.619   1.125  0.8739 -0.5369 -0.2479
  567SOL    HW3 2340   1.547   1.499   1.126  0.3127 -0.1149 -1.1323
  567SOL    MW4 2341   1.571   1.575   1.092  0.4287  0.2134 -0.3228
  568SOL     OW 2342   1.336   1.715   1.180  0.1195  0.9268  0.1355
  568SOL    HW2 2343   1.408   1.663   1.146 -0.1145 -0.0068  1.0652
  568SOL    HW3 2344   1.261   1.656   1.179 -0.8697  2.1643 -1.7230
  568SOL    MW4 2345   1.336   1.701   1.175 -0.0418  0.9668  0.0129
  569SOL     OW 2346   1.421   1.964   1.091  0.2483 -0.2605  0.0474
  569SOL    HW2 2347   1.395   1.875   1.114  0.4746 -0.3719 -0.1170
  569SOL    HW3 2348   1.345   2.018   1.111  0.0408 -0.5202 -0.0396
  569SOL    MW4 2349   1.408   1.960   1.097  0.2508 -0.3095  0.0143
  570SOL     OW 2350   1.621   2.121   1.217 -0.1009 -0.3207  0.4067
  570SOL    HW2 2351   1.621   2.203   1.167 -0.0703  0.6976  2.0460
  570SOL    HW3 2352   1.556   2.066   1.173  0.1474  0.4403 -0.9311
  570SOL    MW4 2353   1.612   2.124   1.205 -0.0641 -0.0861  0.4467
  571SOL     OW 2354   1.573   2.368   1.055 -0.0464  0.1695 -0.2423
  571SOL    HW2 2355   1.479   2.377   1.074 -0.4148 -2.1203 -0.8490
  571SOL    HW3 2356   1.578   2.368   0.959  0.4932 -0.4883 -0.2165
  571SOL    MW4 2357   1.561   2.369   1.045 -0.0237 -0.2193 -0.3189
  572SOL     OW 2358   1.315   2.464   1.162 -0.0079  0.7489  0.0687
  572SOL    HW2 2359   1.339   2.459   1.254  1.4956  0.6517 -0.3224
  572SOL    HW3 2360   1.328   2.556   1.139 -2.7934  1.3021  0.5856
  572SOL    MW4 2361   1.320   2.475   1.171 -0.1771  0.8090  0.0854
  573SOL     OW 2362   1.546   2.854   1.240  0.0550 -0.4486  0.1266
  573SOL    HW2 2363   1.621   2.797   1.224 -0.7188 -0.9237 -1.8892
  573SOL    HW3 2364   1.564   2.934   1.192 -1.1018 -0.8870 -1.0654
  573SOL    MW4 2365   1.558   2.857   1.232 -0.1997 -0.5693 -0.2967
  574SOL     OW 2366   1.793   3.274   1.196  0.1796  0.3962 -0.1164
  574SOL    HW2 2367   1.827   3.275   1.286  0.6315 -0.4034 -0.2754
  574SOL    HW3 2368   1.773   3.366   1.178  0.0102  0.5544  0.8291
  574SOL    MW4 2369   1.795   3.286   1.206  0.2170  0.3114 -0.0125
  575SOL     OW 2370   1.953   3.121   0.778 -0.0841 -0.2950  0.1001
  575SOL    HW2 2371   1.874   3.164   0.745  0.6605  0.5961 -0.5457
  575SOL    HW3 2372   1.974   3.056   0.711 -0.2822 -0.5722  0.2996
  575SOL    MW4 2373   1.945   3.118   0.765 -0.0120 -0.2141  0.0412
  576SOL     OW 2374   1.359   3.252   1.175  0.3312  0.2005  0.0360
  576SOL    HW2 2375   1.369   3.264   1.269  0.5348 -1.2186  0.2043
  576SOL    HW3 2376   1.274   3.210   1.165  0.0679  0.8516 -0.4537
  576SOL    MW4 2377   1.349   3.248   1.186  0.3234  0.0992 -0.0064
  577SOL     OW 2378   1.352   3.514   1.080  0.0467 -0.1814 -0.4859
  577SOL    HW2 2379   1.347   3.420   1.099  0.1183  0.0361  0.6321
  577SOL    HW3 2380   1.338   3.520   0.985 -1.5423 -1.1843 -0.3345
  577SOL    MW4 2381   1.350   3.502   1.070 -0.1535 -0.2851 -0.3183
  578SOL     OW 2382   1.512   3.672   1.241  0.0683  0.1369 -0.4583
  578SOL    HW2 2383   1.525   3.750   1.187 -1.5172 -0.3543 -1.5908
  578SOL    HW3 2384   1.448   3.620   1.192  1.2330 -1.9537  0.1807
  578SOL    MW4 2385   1.505   3.675   1.227  0.0126 -0.2036 -0.5233
  579SOL     OW 2386   1.560   3.913   1.110  0.5718  0.0120 -0.0627
  579SOL    HW2 2387   1.485   3.939   1.164  1.0795 -0.2105  0.7574
  579SOL    HW3 2388   1.637   3.944   1.159  1.0149  0.4866 -1.0275
  579SOL    MW4 2389   1.561   3.921   1.123  0.6974  0.0453 -0.0818
  580SOL     OW 2390   1.321   4.012   1.214 -0.2311 -0.0426  0.2154
  580SOL    HW2 2391   1.316   4.101   1.178 -1.6448  0.3406  1.2951
  580SOL    HW3 2392   1.247   3.966   1.176 -0.6651 -0.1658  1.1798
  580SOL    MW4 2393   1.310   4.018   1.204 -0.4749 -0.0086  0.4851
  581SOL     OW 2394   1.325   4.267   1.139  0.2854  0.3802 -0.0657
  581SOL    HW2 2395   1.239   4.306   1.158  0.9482  2.1709 -0.5966
  581SOL    HW3 2396   1.327   4.258   1.044  0.6895  0.3624 -0.0570
  581SOL    MW4 2397   1.314   4.271   1.129  0.4261  0.6142 -0.1346
  582SOL     OW 2398   1.518   4.429   1.248 -0.0063  0.3404 -0.4342
  582SOL    HW2 2399   1.503   4.427   1.342 -0.0460 -0.4222 -0.4591
  582SOL    HW3 2400   1.447   4.379   1.210 -1.0443  2.1938 -1.0191
  582SOL    MW4 2401   1.507   4.422   1.255 -0.1485  0.4845 -0.5146
  583SOL     OW 2402   1.953   0.014   1.062  0.2266 -0.2379 -0.0076
  583SOL    HW2 2403   1.967  -0.074   1.097  0.6049 -0.0270  0.3831
  583SOL    HW3 2404   1.956   0.003   0.967  0.0975 -0.6728  0.0360
  583SOL    MW4 2405   1.955   0.001   1.054  0.2594 -0.2675  0.0497
  584SOL     OW 2406   1.756   0.143   1.223 -0.0752 -0.6248 -0.4347
  584SOL    HW2 2407   1.762   0.234   1.192  0.1849 -0.8141 -0.9288
  584SOL    HW3 2408   1.833   0.100   1.188 -0.2366 -1.0602 -0.2553
  584SOL    MW4 2409   1.767   0.150   1.215 -0.0621 -0.7072 -0.4764
  585SOL     OW 2410   1.799   0.410   1.121  0.4663  0.1577  0.1030
  585SOL    HW2 2411   1.716   0.454   1.142  1.3970  2.0879 -0.0882
  585SOL    HW3 2412   1.790   0.385   1.029  0.0143  0.1567  0.1419
  585SOL    MW4 2413   1.787   0.413   1.112  0.5295  0.4122  0.0829
  586SOL     OW 2414   2.024   0.526   1.235 -0.0367 -0.4339 -0.3142
  586SOL    HW2 2415   2.014   0.528   1.330  1.5940 -2.4820 -0.0516
  586SOL    HW3 2416   1.943   0.487   1.202 -0.5849  0.2425  0.2404
  586SOL    MW4 2417   2.012   0.521   1.243  0.1061 -0.6149 -0.2062
  587SOL     OW 2418   1.992   0.777   1.140  0.2559 -0.5151  0.0415
  587SOL    HW2 2419   2.016   0.687   1.162 -1.3375 -1.1984 -0.9664
  587SOL    HW3 2420   1.982   0.777   1.045 -1.8536  0.1779  0.2246
  587SOL    MW4 2421   1.994   0.765   1.131 -0.2326 -0.5138 -0.0674
  588SOL     OW 2422   1.802   0.960   1.228 -0.5286 -0.0948  0.4367
  588SOL    HW2 2423   1.796   0.929   1.318  0.4494  0.5497  0.7267
  588SOL    HW3 2424   1.872   0.907   1.189 -0.9885 -0.4131  0.0395
  588SOL    MW4 2425   1.811   0.949   1.234 -0.4603 -0.0517  0.4224
  589SOL     OW 2426   1.782   1.204   1.099  0.8284 -0.0259 -0.0950
  589SOL    HW2 2427   1.790   1.116   1.137 -0.3890  0.1953  0.7015
  589SOL    HW3 2428   1.775   1.189   1.005  1.6111 -0.7167 -0.0533
  589SOL    MW4 2429   1.782   1.190   1.092  0.7712 -0.0880  0.0156
  590SOL     OW 2430   1.999   1.296   1.243 -0.2137 -0.2201 -0.0664
  590SOL    HW2 2431   2.077   1.245   1.224 -0.7607 -0.7986 -0.8288
  590SOL    HW3 2432   1.927   1.244   1.206 -0.8698  0.6762 -0.0720
  590SOL    MW4 2433   2.000   1.283   1.236 -0.3725 -0.1780 -0.1677
  591SOL     OW 2434   1.993   1.547   1.095 -0.3732  0.2389  0.0789
  591SOL    HW2 2435   1.997   1.455   1.118 -1.0243  0.0651 -0.5054
  591SOL    HW3 2436   1.988   1.548   0.999 -0.3234  0.8768  0.0797
  591SOL    MW4 2437   1.993   1.535   1.085 -0.4525  0.3000  0.0019
  592SOL     OW 2438   1.790   1.683   1.218  0.5839 -0.0881  0.4113
  592SOL    HW2 2439   1.802   1.771   1.180  0.1206  0.0346  0.5547
  592SOL    HW3 2440   1.862   1.632   1.181 -0.0028 -0.0331 -0.8303
  592SOL    MW4 2441   1.801   1.688   1.208  0.4454 -0.0646  0.2663
  593SOL     OW 2442   1.819   1.929   1.125  0.4281 -0.1912 -0.2785
  593SOL    HW2 2443   1.749   1.992   1.142 -0.1363 -0.9550  0.2045
  593SOL    HW3 2444   1.837   1.938   1.031  2.0840  2.4963  0.2160
  593SOL    MW4 2445   1.812   1.939   1.115  0.5721  0.0626 -0.1497
  594SOL     OW 2446   2.059   2.060   1.206 -0.4265 -0.3737 -0.5287
  594SOL    HW2 2447   2.053   2.064   1.302 -0.0408  0.3947 -0.5264
  594SOL    HW3 2448   1.975   2.025   1.178 -0.8233  0.0957  0.0523
  594SOL    MW4 2449   2.047   2.056   1.215 -0.4282 -0.2103 -0.4519
  595SOL     OW 2450   2.020   2.326   1.135  0.7338  0.1104 -0.1260
  595SOL    HW2 2451   2.096   2.378   1.160  0.9424 -0.1299 -0.2449
  595SOL    HW3 2452   2.043   2.237   1.162  0.6671 -0.0302 -0.5299
  595SOL    MW4 2453   2.033   2.321   1.142  0.7524  0.0601 -0.1950
  596SOL     OW 2454   1.791   2.466   1.206 -0.4701 -0.1196 -0.2060
  596SOL    HW2 2455   1.870   2.421   1.177 -0.3812 -0.2795  0.2783
  596SOL    HW3 2456   1.723   2.435   1.147 -0.2683 -0.3587 -0.3136
  596SOL    MW4 2457   1.792   2.456   1.194 -0.4318 -0.1719 -0.1563
  597SOL     OW 2458   1.779   2.729   1.128  0.1888  0.3643  0.3642
  597SOL    HW2 2459   1.806   2.721   1.037 -0.6644  0.8086  0.0644
  597SOL    HW3 2460   1.789   2.640   1.163  0.4681  0.1791 -0.1728
  597SOL    MW4 2461   1.784   2.716   1.121  0.1131  0.3989  0.2538
  598SOL     OW 2462   2.004   2.887   1.199  0.1631 -0.4886 -0.5015
  598SOL    HW2 2463   1.996   2.974   1.160 -0.1126  0.5410  1.7605
  598SOL    HW3 2464   1.923   2.842   1.176 -0.6230  0.6126  0.1031
  598SOL    MW4 2465   1.992   2.892   1.191  0.0231 -0.2072 -0.1231
  599SOL     OW 2466   4.008   4.286   0.745 -0.2534  0.3485 -0.0640
  599SOL    HW2 2467   4.085   4.321   0.790 -0.2007  0.0380  0.0843
  599SOL    HW3 2468   4.027   4.193   0.733 -1.0692  0.0397  0.9487
  599SOL    MW4 2469   4.021   4.279   0.749 -0.3548  0.2675  0.0892
  600SOL     OW 2470   1.511   3.866   0.820  0.0400 -0.2231 -0.1100
  600SOL    HW2 2471   1.424   3.896   0.794 -0.5500 -1.2129  0.6983
  600SOL    HW3 2472   1.521   3.896   0.910  0.6005  0.0350 -0.2600
  600SOL    MW4 2473   1.501   3.874   0.828  0.0360 -0.3195 -0.0232
  601SOL     OW 2474   1.747   3.531   1.105 -0.0203  0.9179 -0.0776
  601SOL    HW2 2475   1.817   3.581   1.147  0.1696  0.9443 -0.4302
  601SOL    HW3 2476   1.666   3.566   1.144  0.2301 -0.1633  1.4575
  601SOL    MW4 2477   1.745   3.542   1.116  0.0378  0.7787  0.0783
  602SOL     OW 2478   1.969   3.643   1.229  0.0458 -0.3193  0.1724
  602SOL    HW2 2479   1.967   3.636   1.324  0.4705  1.2485  0.3072
  602SOL    HW3 2480   2.047   3.594   1.202  0.6067  0.2693  0.7295
  602SOL    MW4 2481   1.979   3.636   1.238  0.1758 -0.0348  0.2636
  603SOL     OW 2482   2.001   3.906   1.156  0.0485  0.0436  0.2300
  603SOL    HW2 2483   1.997   3.814   1.184 -0.0780  0.1414  0.5351
  603SOL    HW3 2484   1.914   3.940   1.175  0.3653  0.4634  0.9270
  603SOL    MW4 2485   1.989   3.898   1.162  0.0738  0.1118  0.3623
  604SOL     OW 2486   2.249   4.040   1.255  0.0685  0.1169 -0.0830
  604SOL    HW2 2487   2.239   4.130   1.222 -2.8158 -0.0245  0.3274
  604SOL    HW3 2488   2.176   3.992   1.217  0.1620 -1.4817  1.7200
  604SOL    MW4 2489   2.238   4.046   1.245 -0.2997 -0.1121  0.2091
  605SOL     OW 2490   1.759   4.030   1.233  0.3340 -0.2940  0.0276
  605SOL    HW2 2491   1.767   4.030   1.328  1.0113 -0.4247 -0.0311
  605SOL    HW3 2492   1.769   4.121   1.207 -1.2151 -0.0616  0.1936
  605SOL    MW4 2493   1.761   4.042   1.242  0.2190 -0.2809  0.0418
  606SOL     OW 2494   1.981   4.446   1.192  0.1116 -0.1295 -0.1709
  606SOL    HW2 2495   1.969   4.442   1.287  1.2073  0.1469 -0.0218
  606SOL    HW3 2496   1.915   4.385   1.157  1.0277 -1.7720  0.8696
  606SOL    MW4 2497   1.970   4.437   1.200  0.3771 -0.3099 -0.0139
  607SOL     OW 2498   2.424   4.632   1.105  0.0544 -0.1816  0.3826
  607SOL    HW2 2499   2.495   4.692   1.126 -0.3362  0.7798 -0.9577
  607SOL    HW3 2500   2.349   4.666   1.154  0.0250  0.0020  0.2148
  607SOL    MW4 2501   2.423   4.645   1.114 -0.0012 -0.0310  0.1837
  608SOL     OW 2502   2.185   0.107   1.191 -0.2771 -0.5345 -0.0626
  608SOL    HW2 2503   2.199   0.201   1.183  1.1224 -0.7585 -0.3954
  608SOL    HW3 2504   2.108   0.089   1.138 -0.6604  0.4475  0.1559
  608SOL    MW4 2505   2.177   0.117   1.183 -0.1431 -0.4345 -0.0776
  609SOL     OW 2506   2.230   0.370   1.148  1.0343  0.0012 -0.1758
  609SOL    HW2 2507   2.149   0.415   1.173  1.3647  0.6183 -0.2053
  609SOL    HW3 2508   2.235   0.380   1.053  0.5328 -1.0720 -0.3152
  609SOL    MW4 2509   2.220   0.377   1.139  1.0118 -0.0589 -0.1980
  610SOL     OW 2510   2.440   0.531   1.252  0.1510  0.2776  0.7199
  610SOL    HW2 2511   2.432   0.522   1.347 -1.4029  0.0982  0.5819
  610SOL    HW3 2512   2.368   0.478   1.217  0.4524  0.6946 -0.5487
  610SOL    MW4 2513   2.430   0.522   1.260 -0.0141  0.3090  0.5343
  611SOL     OW 2514   2.421   0.786   1.129 -0.0557 -0.0528  0.4537
  611SOL    HW2 2515   2.402   0.699   1.163 -0.7363 -0.2494 -0.4009
  611SOL    HW3 2516   2.444   0.772   1.037 -0.0783  0.6524  0.3325
  611SOL    MW4 2517   2.422   0.773   1.121 -0.1488  0.0142  0.3248
  612SOL     OW 2518   2.213   0.912   1.268  0.0197  0.5702  0.1650
  612SOL    HW2 2519   2.281   0.874   1.213  0.9512  2.8445 -0.3110
  612SOL    HW3 2520   2.131   0.878   1.232  0.7931 -0.5479 -0.5566
  612SOL    MW4 2521   2.211   0.902   1.256  0.2446  0.7228  0.0069
  613SOL     OW 2522   2.242   1.164   1.163 -0.0112 -0.0002  0.7525
  613SOL    HW2 2523   2.325   1.195   1.197  0.3859  0.9710 -1.0366
  613SOL    HW3 2524   2.234   1.074   1.197  0.3126  0.9169  3.3781
  613SOL    MW4 2525   2.252   1.156   1.172  0.0837  0.2489  0.8628
  614SOL     OW 2526   2.462   1.298   1.270 -0.5081  0.0421 -0.0921
  614SOL    HW2 2527   2.529   1.236   1.242 -1.9851 -0.7236 -2.0590
  614SOL    HW3 2528   2.493   1.383   1.240 -0.3574 -0.2877 -0.8727
  614SOL    MW4 2529   2.475   1.301   1.263 -0.6831 -0.1024 -0.4547
  615SOL     OW 2530   2.521   1.540   1.138  0.2365 -0.0217  0.0369
  615SOL    HW2 2531   2.448   1.590   1.176 -0.3887 -1.0688  0.2312
  615SOL    HW3 2532   2.498   1.531   1.046  1.4630  1.9992 -0.5026
  615SOL    MW4 2533   2.508   1.545   1.131  0.3159  0.1067 -0.0087
  616SOL     OW 2534   2.254   1.637   1.188 -0.0875 -0.0032 -0.1330
  616SOL    HW2 2535   2.248   1.730   1.168 -1.7453 -0.1061 -0.1817
  616SOL    HW3 2536   2.169   1.601   1.163  0.6573 -1.5989 -0.4444
  616SOL    MW4 2537   2.242   1.645   1.182 -0.2079 -0.2275 -0.1806
  617SOL     OW 2538   2.284   1.918   1.125  0.0325  0.2384  0.3575
  617SOL    HW2 2539   2.204   1.960   1.154 -0.4292  0.4944 -1.2733
  617SOL    HW3 2540   2.297   1.948   1.035  1.3987 -0.5997  0.2516
  617SOL    MW4 2541   2.275   1.927   1.117  0.1516  0.1618  0.1285
  618SOL     OW 2542   2.489   2.089   1.200  0.0997 -0.6633  0.2031
  618SOL    HW2 2543   2.571   2.042   1.214  0.0148 -0.8490  0.0843
  618SOL    HW3 2544   2.425   2.021   1.179 -0.0283 -0.4963  0.0427
  618SOL    MW4 2545   2.491   2.074   1.199  0.0715 -0.6657  0.1663
  619SOL     OW 2546   2.469   2.347   1.121  0.3553 -0.4352  0.4415
  619SOL    HW2 2547   2.469   2.263   1.166 -0.0707 -0.5067  0.3151
  619SOL    HW3 2548   2.554   2.386   1.141  0.9118 -1.2833 -0.2230
  619SOL    MW4 2549   2.480   2.341   1.129  0.3724 -0.5565  0.3370
  620SOL     OW 2550   2.249   2.480   1.219  0.1866  0.2044 -0.2168
  620SOL    HW2 2551   2.253   2.473   1.315 -0.0057  0.2512 -0.2049
  620SOL    HW3 2552   2.330   2.439   1.189  0.5334  0.7206 -0.0091
  620SOL    MW4 2553   2.260   2.474   1.228  0.2072  0.2785 -0.1879
  621SOL     OW 2554   2.257   2.737   1.124  0.4983 -0.1752 -0.0187
  621SOL    HW2 2555   2.253   2.643   1.145  0.5152 -0.2452 -0.3277
  621SOL    HW3 2556   2.189   2.776   1.178  0.1125 -0.4468 -0.3001
  621SOL    MW4 2557   2.247   2.730   1.134  0.4497 -0.2198 -0.0967
  622SOL     OW 2558   2.468   2.892   1.204  0.3056 -0.5166 -0.7136
  622SOL    HW2 2559   2.476   2.879   1.298 -0.0726 -1.0443 -0.7524
  622SOL    HW3 2560   2.389   2.845   1.179  0.4552 -0.4652 -1.3129
  622SOL    MW4 2561   2.459   2.884   1.213  0.2756 -0.5796 -0.7977
  623SOL     OW 2562   2.435   3.134   1.077  0.5838 -0.0021 -0.3358
  623SOL    HW2 2563   2.366   3.183   1.121 -0.5783 -0.7786 -1.2739
  623SOL    HW3 2564   2.443   3.053   1.126  1.9564  0.7613  0.7358
  623SOL    MW4 2565   2.427   3.130   1.089  0.6115 -0.0038 -0.3182
  624SOL     OW 2566   2.225   3.261   1.212  0.4962  0.3067  0.6336
  624SOL    HW2 2567   2.220   3.345   1.167  0.9119 -0.1065 -0.2048
  624SOL    HW3 2568   2.167   3.203   1.162  0.0748  0.1394  1.3092
  624SOL    MW4 2569   2.217   3.264   1.200  0.4957  0.2301  0.6121
  625SOL     OW 2570   2.218   3.542   1.127 -0.7633 -0.2687  0.0167
  625SOL    HW2 2571   2.292   3.568   1.181 -1.9294  0.7853  1.1674
  625SOL    HW3 2572   2.256   3.522   1.041  1.1183 -1.9466  1.1956
  625SOL    MW4 2573   2.233   3.543   1.123 -0.6690 -0.3512  0.3240
  626SOL     OW 2574   2.469   3.634   1.229 -0.7827 -0.5175  0.4504
  626SOL    HW2 2575   2.463   3.629   1.325  1.5086  0.1012  0.6523
  626SOL    HW3 2576   2.467   3.728   1.211 -1.5634 -0.6453 -0.1494
  626SOL    MW4 2577   2.468   3.646   1.239 -0.5836 -0.4528  0.3979
  627SOL     OW 2578   2.475   3.918   1.184 -0.4219 -0.0738  0.3974
  627SOL    HW2 2579   2.392   3.957   1.212 -0.3949 -0.2505  0.7219
  627SOL    HW3 2580   2.470   3.918   1.088 -0.8499 -0.1949  0.4180
  627SOL    MW4 2581   2.463   3.923   1.175 -0.4749 -0.1130  0.4429
  628SOL     OW 2582   1.993   3.869   0.868 -0.2781 -0.0310  0.1809
  628SOL    HW2 2583   2.028   3.785   0.837  0.1145  0.2940 -0.2840
  628SOL    HW3 2584   2.010   3.869   0.962 -0.9703 -0.7987  0.3055
  628SOL    MW4 2585   2.000   3.858   0.876 -0.3176 -0.0892  0.1360
  629SOL     OW 2586   2.229   4.287   1.133  0.5388 -0.8286 -0.3408
  629SOL    HW2 2587   2.154   4.339   1.163  0.1503 -0.9080 -1.1551
  629SOL    HW3 2588   2.229   4.298   1.038  1.3288 -1.1503 -0.3800
  629SOL    MW4 2589   2.219   4.296   1.124  0.5915 -0.8817 -0.4535
  630SOL     OW 2590   2.477   4.390   1.230 -0.0455  0.2776  0.0336
  630SOL    HW2 2591   2.393   4.348   1.212  0.0307 -0.5300  1.4783
  630SOL    HW3 2592   2.469   4.478   1.192 -1.3450  0.0238 -0.2907
  630SOL    MW4 2593   2.465   4.396   1.223 -0.2069  0.1369  0.1814
  631SOL     OW 2594   2.901   4.664   1.125 -0.7981  0.2450 -0.4571
  631SOL    HW2 2595   2.922   4.574   1.152  0.4409  1.1680  1.8184
  631SOL    HW3 2596   2.898   4.660   1.030  0.4903 -1.9574 -0.4559
  631SOL    MW4 2597   2.904   4.652   1.116 -0.4649  0.0763 -0.1566
  632SOL     OW 2598   2.642   0.103   1.165  0.5984  0.4059 -0.9116
  632SOL    HW2 2599   2.627   0.114   1.259  1.2308  1.0975 -0.8850
  632SOL    HW3 2600   2.733   0.073   1.159  0.3559 -0.2651 -1.2691
  632SOL    MW4 2601   2.652   0.100   1.177  0.6497  0.4086 -0.9553
  633SOL     OW 2602   2.671   0.376   1.156 -0.3533 -0.2525  0.2230
  633SOL    HW2 2603   2.657   0.281   1.155  0.2356 -0.3377 -1.5496
  633SOL    HW3 2604   2.590   0.412   1.191 -1.0007 -1.3446 -0.1313
  633SOL    MW4 2605   2.658   0.368   1.160 -0.3610 -0.4078 -0.0577
  634SOL     OW 2606   2.904   0.464   1.279 -0.2407 -0.0765  0.5007
  634SOL    HW2 2607   2.909   0.546   1.230  0.0405  0.1055  0.8301
  634SOL    HW3 2608   2.837   0.413   1.234 -0.2868  0.2607  0.1850
  634SOL    MW4 2609   2.896   0.468   1.267 -0.2098 -0.0080  0.5026
  635SOL     OW 2610   2.905   0.704   1.143 -0.4126  0.1097  0.4074
  635SOL    HW2 2611   2.987   0.734   1.183  0.1255  1.3171 -1.5384
  635SOL    HW3 2612   2.837   0.757   1.184  0.3669  3.0257 -1.8547
  635SOL    MW4 2613   2.907   0.715   1.154 -0.2389  0.6537 -0.1476
  636SOL     OW 2614   2.681   0.855   1.228 -0.2808 -0.6861 -0.0782
  636SOL    HW2 2615   2.691   0.949   1.215  0.9024 -0.8574 -0.4023
  636SOL    HW3 2616   2.590   0.837   1.203 -0.0891  0.1432 -1.3968
  636SOL    MW4 2617   2.670   0.865   1.223 -0.0992 -0.5992 -0.2949
  637SOL     OW 2618   2.685   1.158   1.182 -0.2639  0.1736  0.2005
  637SOL    HW2 2619   2.763   1.212   1.197  0.5847 -1.0709  0.3229
  637SOL    HW3 2620   2.685   1.143   1.087  1.5845 -2.6336  0.5665
  637SOL    MW4 2621   2.696   1.163   1.171  0.0920 -0.3611  0.2649
  638SOL     OW 2622   2.944   1.247   1.262 -0.2547  0.3808  0.1384
  638SOL    HW2 2623   2.942   1.256   1.358  1.6923  2.4460  0.0334
  638SOL    HW3 2624   3.020   1.191   1.245 -1.7015 -1.5260 -0.1266
  638SOL    MW4 2625   2.954   1.241   1.273 -0.1888  0.4017  0.0898
  639SOL     OW 2626   2.951   1.485   1.131  0.0808 -0.0089 -0.1502
  639SOL    HW2 2627   3.031   1.529   1.159  1.6151 -1.7310 -1.7044
  639SOL    HW3 2628   2.948   1.405   1.183 -0.2960 -0.2509 -0.5431
  639SOL    MW4 2629   2.961   1.481   1.141  0.2334 -0.2680 -0.4071
  640SOL     OW 2630   2.761   1.665   1.225 -0.0910  0.3003  0.4153
  640SOL    HW2 2631   2.838   1.613   1.202  0.4003  0.5378  1.4762
  640SOL    HW3 2632   2.690   1.628   1.173  0.5988 -0.3756 -0.0534
  640SOL    MW4 2633   2.762   1.653   1.215  0.0648  0.2424  0.4935
  641SOL     OW 2634   2.736   1.972   1.201 -0.1140  0.0521  0.1891
  641SOL    HW2 2635   2.819   2.018   1.216  0.0254 -0.1954  0.1754
  641SOL    HW3 2636   2.758   1.880   1.213 -0.4981  0.0227  0.6876
  641SOL    MW4 2637   2.750   1.966   1.205 -0.1464  0.0155  0.2531
  642SOL     OW 2638   2.973   2.098   1.270 -0.6132 -0.4162 -0.0516
  642SOL    HW2 2639   2.973   2.094   1.365 -1.7583 -1.2693 -0.0900
  642SOL    HW3 2640   3.048   2.045   1.243  0.1046  0.3652  0.3849
  642SOL    MW4 2641   2.983   2.091   1.279 -0.6695 -0.4256  0.0008
  643SOL     OW 2642   2.915   2.336   1.169 -0.1822  0.2777 -0.3142
  643SOL    HW2 2643   2.935   2.252   1.210  0.4648  1.6532  2.2822
  643SOL    HW3 2644   2.993   2.390   1.185 -1.8647  2.4154  0.9768
  643SOL    MW4 2645   2.928   2.332   1.176 -0.3188  0.7412  0.1986
  644SOL     OW 2646   2.692   2.486   1.214  0.0781  0.6271 -0.6216
  644SOL    HW2 2647   2.684   2.493   1.309 -1.6301  1.2788 -0.7946
  644SOL    HW3 2648   2.768   2.429   1.200 -0.0798 -0.0338  1.1389
  644SOL    MW4 2649   2.701   2.479   1.224 -0.1681  0.6261 -0.4122
  645SOL     OW 2650   2.698   2.743   1.095  0.5024  0.7830  0.7323
  645SOL    HW2 2651   2.692   2.658   1.138  0.6156  0.6906  0.5655
  645SOL    HW3 2652   2.624   2.793   1.130  0.4072  0.5999  0.7932
  645SOL    MW4 2653   2.687   2.739   1.105  0.5050  0.7465  0.7184
  646SOL     OW 2654   2.916   2.852   1.206  0.0278  0.2164 -0.0365
  646SOL    HW2 2655   2.912   2.835   1.300 -1.2918 -0.0810 -0.1282
  646SOL    HW3 2656   2.843   2.802   1.169 -0.1410  1.1824 -1.0764
  646SOL    MW4 2657   2.906   2.844   1.213 -0.1690  0.3042 -0.1857
  647SOL     OW 2658   2.892   3.119   1.139  0.5230 -0.0066 -0.4040
  647SOL    HW2 2659   2.884   3.113   1.044 -1.2796 -0.6001 -0.2417
  647SOL    HW3 2660   2.883   3.029   1.170 -2.5684  0.5462  0.5211
  647SOL    MW4 2661   2.890   3.106   1.130 -0.1228 -0.0122 -0.2606
  648SOL     OW 2662   2.653   3.248   1.215  0.0552  0.0064 -0.1740
  648SOL    HW2 2663   2.742   3.224   1.192  0.8973  2.8320 -0.1255
  648SOL    HW3 2664   2.598   3.201   1.152  1.6685 -0.7464 -1.0409
  648SOL    MW4 2665   2.657   3.239   1.203  0.3791  0.2799 -0.2819
  649SOL     OW 2666   2.669   3.493   1.103 -0.0645 -0.1183  0.0699
  649SOL    HW2 2667   2.659   3.406   1.142 -1.2194  0.1257  0.3569
  649SOL    HW3 2668   2.592   3.541   1.133 -0.4058  0.4230 -1.6272
  649SOL    MW4 2669   2.657   3.488   1.112 -0.2618 -0.0148 -0.1160
  650SOL     OW 2670   2.889   3.634   1.222 -0.1950  0.0821  0.9338
  650SOL    HW2 2671   2.969   3.587   1.199 -0.8948 -1.1340  0.9352
  650SOL    HW3 2672   2.820   3.569   1.213 -1.0916  0.9154  1.6870
  650SOL    MW4 2673   2.891   3.619   1.218 -0.4060  0.0317  1.0334
  651SOL     OW 2674   2.914   3.877   1.102 -0.2734 -0.0262  0.3560
  651SOL    HW2 2675   2.987   3.910   1.154  1.2555 -1.5574 -0.7713
  651SOL    HW3 2676   2.897   3.789   1.136 -0.3284 -0.4093 -0.6334
  651SOL    MW4 2677   2.921   3.870   1.114 -0.0789 -0.2789  0.0768
  652SOL     OW 2678   2.708   4.053   1.241  0.5564 -0.1369 -0.1757
  652SOL    HW2 2679   2.775   4.000   1.197  0.4544  0.5684 -1.1901
  652SOL    HW3 2680   2.626   4.009   1.221  0.6978 -0.9895  1.0510
  652SOL    MW4 2681   2.706   4.040   1.232  0.5615 -0.1559 -0.1476
  653SOL     OW 2682   2.701   4.285   1.088  0.2129  0.3585  0.0620
  653SOL    HW2 2683   2.719   4.211   1.146  0.2983  1.0018  0.8703
  653SOL    HW3 2684   2.615   4.317   1.116  0.8190  1.4626  0.6817
  653SOL    MW4 2685   2.692   4.280   1.099  0.3040  0.5889  0.2505
  654SOL     OW 2686   2.925   4.400   1.208  0.2317  0.1468  0.2883
  654SOL    HW2 2687   2.986   4.330   1.184 -1.3642 -0.8965 -0.8559
  654SOL    HW3 2688   2.844   4.376   1.164 -0.6515  2.1651  0.7835
  654SOL    MW4 2689   2.923   4.388   1.199 -0.0951  0.2766  0.2027
  655SOL     OW 2690   3.365   4.608   1.088  0.2918 -0.3764  0.2482
  655SOL    HW2 2691   3.439   4.649   1.133 -0.0431 -0.0299  0.4812
  655SOL    HW3 2692   3.287   4.645   1.129 -0.0230 -1.6638  0.8386
  655SOL    MW4 2693   3.365   4.618   1.099  0.2062 -0.5006  0.3568
  656SOL     OW 2694   3.168   0.092   1.237  0.2022 -0.3811  0.3429
  656SOL    HW2 2695   3.157   0.093   1.332  1.1654  0.7435  0.4582
  656SOL    HW3 2696   3.083   0.066   1.203 -0.9373  1.7798  1.4176
  656SOL    MW4 2697   3.155   0.089   1.245  0.1791  0.0524  0.4997
  657SOL     OW 2698   3.142   0.368   1.169 -0.0599 -0.0235 -0.0836
  657SOL    HW2 2699   3.163   0.277   1.191 -0.6891  0.1485  1.2553
  657SOL    HW3 2700   3.053   0.381   1.203  1.2143  2.0477  2.6096
  657SOL    MW4 2701   3.133   0.358   1.176  0.0253  0.2725  0.4483
  658SOL     OW 2702   3.385   0.489   1.231 -0.7747 -0.3019 -0.0937
  658SOL    HW2 2703   3.387   0.581   1.203 -1.0165 -0.0355  0.7697
  658SOL    HW3 2704   3.306   0.453   1.191 -0.8584 -0.0498 -0.1553
  658SOL    MW4 2705   3.375   0.497   1.222 -0.8175 -0.2335  0.0120
  659SOL     OW 2706   3.364   0.749   1.122 -0.1483 -0.2828  0.4508
  659SOL    HW2 2707   3.287   0.770   1.174 -0.8512 -0.1428 -0.6502
  659SOL    HW3 2708   3.336   0.756   1.031  1.6373  1.6338 -0.0031
  659SOL    MW4 2709   3.350   0.753   1.117 -0.0055 -0.0115  0.2458
  660SOL     OW 2710   3.128   0.836   1.244 -0.3720 -0.0184  0.4719
  660SOL    HW2 2711   3.124   0.853   1.339 -0.8353 -0.5928  0.5567
  660SOL    HW3 2712   3.139   0.922   1.205  0.8891  0.1258  1.1156
  660SOL    MW4 2713   3.129   0.849   1.252 -0.2666 -0.0752  0.5680
  661SOL     OW 2714   3.155   1.105   1.158 -0.0307  0.2134 -0.2908
  661SOL    HW2 2715   3.237   1.152   1.173 -0.8664  1.5675  0.0834
  661SOL    HW3 2716   3.134   1.123   1.067  0.0968 -0.1691 -0.3982
  661SOL    MW4 2717   3.163   1.114   1.148 -0.1245  0.3417 -0.2557
  662SOL     OW 2718   3.402   1.236   1.233 -0.1049 -0.6376  0.1904
  662SOL    HW2 2719   3.389   1.235   1.328 -0.1351  0.4571  0.2120
  662SOL    HW3 2720   3.404   1.329   1.211 -0.5677 -0.8867 -0.9428
  662SOL    MW4 2721   3.400   1.248   1.243 -0.1698 -0.5260  0.0437
  663SOL     OW 2722   3.397   1.510   1.158 -0.0942  0.2161  0.4979
  663SOL    HW2 2723   3.453   1.583   1.185 -0.0545  0.4855 -0.2968
  663SOL    HW3 2724   3.308   1.545   1.164 -0.1113  0.1393  0.6951
  663SOL    MW4 2725   3.393   1.524   1.163 -0.0911  0.2415  0.4189
  664SOL     OW 2726   3.161   1.650   1.223  0.1887  0.5339 -0.6197
  664SOL    HW2 2727   3.156   1.661   1.318  4.3317 -0.6237 -0.1335
  664SOL    HW3 2728   3.155   1.739   1.188 -1.9020  0.9261  0.6725
  664SOL    MW4 2729   3.160   1.663   1.231  0.4592  0.4328 -0.3850
  665SOL     OW 2730   3.169   1.916   1.159 -0.6955  0.0553  0.5216
  665SOL    HW2 2731   3.173   1.935   1.065  0.2591 -0.7398  0.3931
  665SOL    HW3 2732   3.243   1.965   1.196 -0.4258 -0.4783  0.6970
  665SOL    MW4 2733   3.180   1.925   1.152 -0.5341 -0.1200  0.5279
  666SOL     OW 2734   3.388   2.061   1.253 -0.0084  0.1439 -0.0306
  666SOL    HW2 2735   3.459   2.007   1.218 -0.9350 -1.0640 -0.0789
  666SOL    HW3 2736   3.394   2.143   1.204  2.1921  0.5825  0.9048
  666SOL    MW4 2737   3.398   2.065   1.242  0.1595  0.0427  0.0863
  667SOL     OW 2738   3.369   2.304   1.140  0.0285 -0.0164 -0.1611
  667SOL    HW2 2739   3.448   2.350   1.168  0.0654 -0.4626  0.4731
  667SOL    HW3 2740   3.297   2.357   1.174  0.0720 -0.4471  0.6166
  667SOL    MW4 2741   3.370   2.317   1.148  0.0391 -0.1323  0.0252
  668SOL     OW 2742   3.162   2.463   1.238 -0.2527  0.0313  0.3449
  668SOL    HW2 2743   3.161   2.555   1.213  2.8297 -0.0236 -0.1534
  668SOL    HW3 2744   3.165   2.464   1.334 -2.7518  0.3721  0.4508
  668SOL    MW4 2745   3.162   2.475   1.247 -0.1757  0.0691  0.2931
  669SOL     OW 2746   3.148   2.741   1.154  0.0542  0.3408  0.3719
  669SOL    HW2 2747   3.069   2.785   1.185  0.1857  0.4872  0.4982
  669SOL    HW3 2748   3.135   2.731   1.060 -0.8821 -1.1791  0.6480
  669SOL    MW4 2749   3.136   2.745   1.146 -0.0520  0.1595  0.4250
  670SOL     OW 2750   3.363   2.899   1.249 -0.1852  0.4994 -0.0866
  670SOL    HW2 2751   3.370   2.977   1.194  0.8505  0.8757  0.5677
  670SOL    HW3 2752   3.284   2.854   1.218 -0.0841  1.1546 -1.2953
  670SOL    MW4 2753   3.354   2.903   1.238 -0.0353  0.6356 -0.1597
  671SOL     OW 2754   3.388   3.149   1.113 -0.3423 -0.2694 -0.2264
  671SOL    HW2 2755   3.456   3.208   1.146  0.4225 -1.7390  0.8864
  671SOL    HW3 2756   3.307   3.198   1.124  0.2070  0.3319  1.3129
  671SOL    MW4 2757   3.387   3.163   1.119 -0.1688 -0.3839  0.1235
  672SOL     OW 2758   3.149   3.246   1.151 -0.3564  0.2054  0.1033
  672SOL    HW2 2759   3.141   3.342   1.149 -0.4413  0.1683 -2.7191
  672SOL    HW3 2760   3.064   3.214   1.122  0.2912 -0.6918 -0.8412
  672SOL    MW4 2761   3.137   3.255   1.147 -0.2823  0.0820 -0.3937
  673SOL     OW 2762   3.129   3.513   1.140 -0.5079 -0.1748  0.1606
  673SOL    HW2 2763   3.206   3.563   1.167  1.3433 -2.6064 -0.3558
  673SOL    HW3 2764   3.129   3.517   1.045 -0.9087 -0.3081  0.1529
  673SOL    MW4 2765   3.139   3.520   1.131 -0.3164 -0.5133  0.0916
  674SOL     OW 2766   3.375   3.618   1.202 -0.4233 -0.5082  0.0141
  674SOL    HW2 2767   3.394   3.636   1.294 -0.7520 -0.2283  0.0313
  674SOL    HW3 2768   3.453   3.574   1.169  0.5830  1.2959 -0.1173
  674SOL    MW4 2769   3.388   3.615   1.210 -0.3340 -0.2332 -0.0008
  675SOL     OW 2770   3.369   3.885   1.116 -0.4930  0.2543  0.1171
  675SOL    HW2 2771   3.294   3.911   1.170 -0.2641  0.3192  0.4024
  675SOL    HW3 2772   3.380   3.792   1.135 -0.5311  0.2334  0.0370
  675SOL    MW4 2773   3.360   3.876   1.126 -0.4675  0.2604  0.1442
  676SOL     OW 2774   3.112   4.020   1.504 -0.1767 -0.0807 -0.0399
  676SOL    HW2 2775   3.036   3.969   1.531  0.6406 -0.0786  2.3510
  676SOL    HW3 2776   3.095   4.109   1.535  0.8622 -0.1147  0.6466
  676SOL    MW4 2777   3.100   4.025   1.512  0.0682 -0.0849  0.3661
  677SOL     OW 2778   3.112   4.221   1.129 -0.2013 -0.3276 -0.3642
  677SOL    HW2 2779   3.197   4.260   1.150 -0.1275 -0.2199 -0.8619
  677SOL    HW3 2780   3.102   4.233   1.035 -0.7527 -0.3750 -0.3160
  677SOL    MW4 2781   3.122   4.227   1.119 -0.2644 -0.3200 -0.4237
  678SOL     OW 2782   3.345   4.353   1.201  0.0817 -0.2428  0.5066
  678SOL    HW2 2783   3.439   4.335   1.209  0.1185  0.0682  0.8078
  678SOL    HW3 2784   3.341   4.439   1.158 -0.0494  0.0836  1.1591
  678SOL    MW4 2785   3.357   4.362   1.196  0.0694 -0.1588  0.6323
  679SOL     OW 2786   3.761   4.624   1.091  0.1305 -0.3999 -0.0675
  679SOL    HW2 2787   3.811   4.560   1.141  0.1102 -1.3632 -1.2559
  679SOL    HW3 2788   3.762   4.590   1.001 -0.9795  0.5915 -0.4611
  679SOL    MW4 2789   3.768   4.611   1.086 -0.0184 -0.3958 -0.2761
  680SOL     OW 2790   3.563   0.087   1.228  0.2163  0.1362  0.2089
  680SOL    HW2 2791   3.572   0.173   1.187  0.1948 -0.3692 -0.8815
  680SOL    HW3 2792   3.628   0.032   1.183 -0.5808 -0.7064  0.0752
  680SOL    MW4 2793   3.573   0.091   1.217  0.1082 -0.0416  0.0474
  681SOL     OW 2794   3.792   2.346   0.835  0.2123 -0.0426  0.2411
  681SOL    HW2 2795   3.765   2.359   0.926  0.8116 -0.5568  0.4941
  681SOL    HW3 2796   3.808   2.252   0.828  0.9186  0.1097 -0.1905
  681SOL    MW4 2797   3.791   2.335   0.846  0.3843 -0.0901  0.2175
  682SOL     OW 2798   3.608   0.345   1.120  0.0704 -0.2981 -0.1420
  682SOL    HW2 2799   3.534   0.385   1.166 -0.3941 -1.6394  0.2810
  682SOL    HW3 2800   3.685   0.392   1.154 -0.2852 -1.0975  1.8386
  682SOL    MW4 2801   3.609   0.357   1.131 -0.0379 -0.5805  0.1751
  683SOL     OW 2802   3.799   0.507   1.241  0.1299  0.2936  0.2360
  683SOL    HW2 2803   3.888   0.485   1.215  0.0632  0.5673 -0.2225
  683SOL    HW3 2804   3.787   0.598   1.214 -0.0998  0.4346  0.7918
  683SOL    MW4 2805   3.809   0.516   1.234  0.0908  0.3483  0.2489
  684SOL     OW 2806   3.611   0.845   1.217 -0.2564  0.1433 -0.3005
  684SOL    HW2 2807   3.619   0.937   1.193 -1.3586  0.0845 -0.8935
  684SOL    HW3 2808   3.541   0.811   1.162  0.5388 -1.2044 -0.5159
  684SOL    MW4 2809   3.603   0.852   1.207 -0.2968 -0.0423 -0.4073
  685SOL     OW 2810   3.634   1.098   1.122 -0.4807 -0.1236  0.2350
  685SOL    HW2 2811   3.704   1.160   1.142 -0.3812  0.0150 -0.5249
  685SOL    HW3 2812   3.555   1.137   1.160 -0.0386 -0.6068  1.6835
  685SOL    MW4 2813   3.633   1.111   1.130 -0.4091 -0.1690  0.3258
  686SOL     OW 2814   3.823   1.284   1.217 -0.4492  0.5263 -0.5714
  686SOL    HW2 2815   3.807   1.287   1.311 -1.3196 -1.0369 -0.6409
  686SOL    HW3 2816   3.816   1.375   1.188  1.4334  1.2384  1.1103
  686SOL    MW4 2817   3.820   1.296   1.225 -0.3157  0.4141 -0.3586
  687SOL     OW 2818   3.825   1.548   1.140 -0.2620  0.6811  0.5815
  687SOL    HW2 2819   3.740   1.572   1.177 -0.3213  0.7526  0.3997
  687SOL    HW3 2820   3.888   1.602   1.187 -0.3737  1.0349  0.3255
  687SOL    MW4 2821   3.822   1.558   1.151 -0.2847  0.7372  0.5238
  688SOL     OW 2822   3.588   1.693   1.219 -0.4460  0.1636 -0.1369
  688SOL    HW2 2823   3.586   1.786   1.198 -1.2914  0.1971  0.0794
  688SOL    HW3 2824   3.601   1.690   1.313 -0.1567  0.0584 -0.1803
  688SOL    MW4 2825   3.589   1.705   1.229 -0.5193  0.1541 -0.1142
  689SOL     OW 2826   3.623   1.953   1.166  0.0452  0.2075  0.0097
  689SOL    HW2 2827   3.708   1.986   1.195 -0.2420  1.3512 -0.4280
  689SOL    HW3 2828   3.635   1.934   1.073 -0.2900  0.7568 -0.1469
  689SOL    MW4 2829   3.636   1.955   1.158 -0.0370  0.4308 -0.0687
  690SOL     OW 2830   3.840   2.111   1.223  0.3988 -0.2368 -0.1050
  690SOL    HW2 2831   3.841   2.111   1.318 -0.4026  0.2908 -0.0833
  690SOL    HW3 2832   3.926   2.078   1.197  1.2071  1.1006  0.8012
  690SOL    MW4 2833   3.851   2.107   1.232  0.3998  0.0093  0.0175
  691SOL     OW 2834   0.457   0.418   0.963  0.2086  0.0053  0.2224
  691SOL    HW2 2835   0.434   0.327   0.942  4.1499 -0.8152 -0.8090
  691SOL    HW3 2836   0.445   0.423   1.058 -0.4304 -1.4461  0.2496
  691SOL    MW4 2837   0.452   0.406   0.973  0.6442 -0.2944  0.0899
  692SOL     OW 2838   3.576   2.471   1.247  0.1251  0.1744 -0.4296
  692SOL    HW2 2839   3.574   2.463   1.343 -0.3377  0.6156 -0.3987
  692SOL    HW3 2840   3.661   2.435   1.222  0.3460  0.2695  0.1672
  692SOL    MW4 2841   3.587   2.465   1.256  0.0930  0.2451 -0.3467
  693SOL     OW 2842   4.150   3.892   0.285  0.0605 -0.2948  0.5061
  693SOL    HW2 2843   4.066   3.902   0.331  0.5363 -0.0158  1.3352
  693SOL    HW3 2844   4.130   3.912   0.194 -1.0698 -1.5798  0.4405
  693SOL    MW4 2845   4.136   3.896   0.279 -0.0262 -0.4277  0.6068
  694SOL     OW 2846   3.582   2.731   1.126 -0.0237  0.3497 -0.0717
  694SOL    HW2 2847   3.589   2.648   1.172  1.5257  0.7054  0.3793
  694SOL    HW3 2848   3.501   2.771   1.159  0.5805  0.1843  1.6738
  694SOL    MW4 2849   3.572   2.726   1.136  0.2601  0.3748  0.2182
  695SOL     OW 2850   3.814   2.876   1.199  0.8543 -0.1311 -0.4113
  695SOL    HW2 2851   3.819   2.868   1.294  0.8304 -1.3830 -0.5107
  695SOL    HW3 2852   3.724   2.850   1.177  0.8516  0.1787 -0.7735
  695SOL    MW4 2853   3.802   2.871   1.209  0.8507 -0.2553 -0.4722
  696SOL     OW 2854   3.632   3.247   1.224 -0.4484 -0.2415 -0.1906
  696SOL    HW2 2855   3.639   3.338   1.194 -0.0168 -0.2978 -0.2552
  696SOL    HW3 2856   3.700   3.201   1.176 -0.4319 -0.5308  0.1139
  696SOL    MW4 2857   3.642   3.253   1.214 -0.3891 -0.2871 -0.1589
  697SOL     OW 2858   3.603   3.490   1.082  0.1184  0.5788  0.0137
  697SOL    HW2 2859   3.692   3.519   1.100  0.8831 -2.3486  1.2177
  697SOL    HW3 2860   3.593   3.497   0.988  1.3977  1.5457 -0.0556
  697SOL    MW4 2861   3.613   3.495   1.072  0.3879  0.3200  0.1634
  698SOL     OW 2862   3.812   3.636   1.188 -0.4959 -0.5465  0.0335
  698SOL    HW2 2863   3.826   3.646   1.282  2.9213  0.5855 -0.5173
  698SOL    HW3 2864   3.785   3.722   1.158  2.4843  0.2139 -0.6053
  698SOL    MW4 2865   3.810   3.648   1.196  0.3481 -0.2971 -0.1234
  699SOL     OW 2866   3.835   3.917   1.146 -0.2221  0.2277 -0.4616
  699SOL    HW2 2867   3.911   3.960   1.184  0.3422 -0.2332 -1.0729
  699SOL    HW3 2868   3.760   3.966   1.181  0.3038  0.0151  0.9679
  699SOL    MW4 2869   3.835   3.929   1.155 -0.0784  0.1385 -0.3537
  700SOL     OW 2870   3.600   4.024   1.242  0.3092 -0.0974  1.0698
  700SOL    HW2 2871   3.525   3.984   1.198 -0.6529  1.8956  0.8310
  700SOL    HW3 2872   3.587   4.003   1.335  0.1095 -0.7638  0.8953
  700SOL    MW4 2873   3.588   4.016   1.249  0.1557  0.0782  1.0153
  701SOL     OW 2874   3.695   3.801   0.504 -0.3028 -0.1559 -0.1133
  701SOL    HW2 2875   3.689   3.711   0.534  0.5469 -0.0269  0.4746
  701SOL    HW3 2876   3.605   3.825   0.482 -1.0196 -0.2246  2.4995
  701SOL    MW4 2877   3.683   3.793   0.505 -0.2854 -0.1481  0.3090
  702SOL     OW 2878   3.845   4.413   1.253 -0.1021  0.7713  0.0875
  702SOL    HW2 2879   3.820   4.433   1.344  0.9756 -0.9762  0.7939
  702SOL    HW3 2880   3.770   4.364   1.218 -0.8216  2.0558 -0.2147
  702SOL    MW4 2881   3.832   4.409   1.261 -0.0548  0.7105  0.1408
  703SOL     OW 2882   4.406   4.519   0.723 -0.1214  0.0541 -0.0414
  703SOL    HW2 2883   4.389   4.476   0.639  2.0235 -0.7748 -0.0929
  703SOL    HW3 2884   4.342   4.481   0.782 -1.7479  0.7466 -1.3228
  703SOL    MW4 2885   4.395   4.508   0.720 -0.0529  0.0362 -0.2173
  704SOL     OW 2886   4.012   0.086   1.187  0.2291  0.2909  0.2281
  704SOL    HW2 2887   4.008   0.107   1.280  0.5093 -0.5903  0.4433
  704SOL    HW3 2888   3.920   0.076   1.161  0.0759  2.0707  0.0420
  704SOL    MW4 2889   3.999   0.087   1.196  0.2463  0.4094  0.2320
  705SOL     OW 2890   4.031   0.362   1.124 -0.2065  0.4410  0.0368
  705SOL    HW2 2891   4.049   0.367   1.031  2.7300  0.8203  0.5796
  705SOL    HW3 2892   4.029   0.268   1.143 -0.8458  0.3627 -0.4054
  705SOL    MW4 2893   4.033   0.350   1.115  0.0963  0.4807  0.0502
  706SOL     OW 2894   4.272   0.484   1.212  0.0029  0.5832  0.2091
  706SOL    HW2 2895   4.283   0.460   1.304 -0.0934  0.8582  0.2923
  706SOL    HW3 2896   4.193   0.437   1.184 -0.3488  1.0338  0.4518
  706SOL    MW4 2897   4.263   0.474   1.220 -0.0563  0.6789  0.2521
  707SOL     OW 2898   4.259   0.764   1.143  0.0169  0.4167 -0.3416
  707SOL    HW2 2899   4.256   0.670   1.160 -1.2330  0.2863 -1.2509
  707SOL    HW3 2900   4.269   0.770   1.048 -0.9134  1.2074 -0.3947
  707SOL    MW4 2901   4.260   0.752   1.133 -0.2699  0.5039 -0.4684
  708SOL     OW 2902   4.046   0.891   1.252  0.2780 -0.2770 -0.4548
  708SOL    HW2 2903   4.048   0.880   1.347  1.1140  0.5152 -0.3732
  708SOL    HW3 2904   4.117   0.836   1.220  0.2721 -0.2082 -0.5869
  708SOL    MW4 2905   4.055   0.882   1.260  0.3872 -0.1634 -0.4613
  709SOL     OW 2906   4.046   1.132   1.135 -0.2783  0.0167  0.1089
  709SOL    HW2 2907   4.038   1.053   1.188  0.2411  0.4986  0.9178
  709SOL    HW3 2908   3.967   1.183   1.155  0.2252  0.4889  0.9133
  709SOL    MW4 2909   4.035   1.129   1.145 -0.1431  0.1427  0.3216
  710SOL     OW 2910   4.281   1.270   1.237 -0.3617 -0.2058  0.2721
  710SOL    HW2 2911   4.266   1.282   1.331  0.2722 -1.0163  0.4830
  710SOL    HW3 2912   4.210   1.213   1.208 -0.0553 -0.6718  0.4369
  710SOL    MW4 2913   4.270   1.264   1.246 -0.2375 -0.3741  0.3216
  711SOL     OW 2914   2.937   0.735   0.868  0.1143 -0.1076 -0.0236
  711SOL    HW2 2915   2.943   0.747   0.963 -0.5417  0.2146 -0.0144
  711SOL    HW3 2916   3.004   0.794   0.832  0.7165 -0.6185  0.2614
  711SOL    MW4 2917   2.946   0.745   0.875  0.1070 -0.1324  0.0152
  712SOL     OW 2918   4.042   1.690   1.242  0.1367  0.1836  0.2247
  712SOL    HW2 2919   4.053   1.685   1.337 -0.1591 -0.4429  0.2280
  712SOL    HW3 2920   4.120   1.647   1.206  0.0269  0.0085  0.1929
  712SOL    MW4 2921   4.053   1.683   1.249  0.0830  0.0777  0.2210
  713SOL     OW 2922   0.003   1.686   1.225  0.6331 -0.4065  0.2369
  713SOL    HW2 2923   0.027   1.764   1.174 -0.4657 -0.4373 -0.3404
  713SOL    HW3 2924   0.079   1.629   1.218  0.9597  0.0939 -0.3955
  713SOL    MW4 2925   0.016   1.689   1.217  0.5307 -0.3445  0.0772
  714SOL     OW 2926   4.313   2.040   1.197 -0.4504  0.0692 -0.0665
  714SOL    HW2 2927   4.310   2.131   1.167  0.9109  0.5333  1.1638
  714SOL    HW3 2928   4.227   2.004   1.173 -0.8821  1.5899 -0.8376
  714SOL    MW4 2929   4.301   2.047   1.190 -0.3281  0.3312 -0.0060
  715SOL     OW 2930   4.049   1.961   1.130 -0.1045 -0.2312 -0.3810
  715SOL    HW2 2931   4.031   1.871   1.158 -1.3198  0.1129 -0.0128
  715SOL    HW3 2932   4.027   1.962   1.037  1.5150 -0.7365 -0.7740
  715SOL    MW4 2933   4.043   1.949   1.122 -0.0515 -0.2526 -0.3842
  716SOL     OW 2934   4.058   2.439   1.225  0.3936  0.1156  0.1032
  716SOL    HW2 2935   4.037   2.441   1.319 -2.6662 -0.7611 -0.5063
  716SOL    HW3 2936   4.068   2.531   1.201  0.1856  0.3994  1.0596
  716SOL    MW4 2937   4.057   2.451   1.235 -0.0377  0.0374  0.1489
  717SOL     OW 2938   4.022   2.709   1.124  0.1587  0.0603 -0.0931
  717SOL    HW2 2939   3.948   2.760   1.156  0.0981 -0.3167  0.3626
  717SOL    HW3 2940   4.021   2.722   1.029  0.3080  1.1389  0.0402
  717SOL    MW4 2941   4.012   2.718   1.116  0.1712  0.1528 -0.0154
  718SOL     OW 2942   4.240   2.868   1.230  0.0280 -0.8375 -0.2520
  718SOL    HW2 2943   4.213   2.953   1.195 -0.0757  0.3142  2.5335
  718SOL    HW3 2944   4.180   2.806   1.189 -0.0571  0.4261 -2.1290
  718SOL    MW4 2945   4.228   2.871   1.220  0.0029 -0.5190 -0.1322
  719SOL     OW 2946   4.239   3.111   1.033  0.2312  0.3995  0.3238
  719SOL    HW2 2947   4.264   3.150   0.949  1.4987 -1.1940 -0.0637
  719SOL    HW3 2948   4.175   3.172   1.070  1.3098  2.2513 -0.7797
  719SOL    MW4 2949   4.234   3.125   1.027  0.5412  0.4337  0.1271
  720SOL     OW 2950   4.053   3.265   1.164 -0.2964 -0.2124  0.0777
  720SOL    HW2 2951   4.054   3.357   1.138 -3.3607 -0.2506 -0.3984
  720SOL    HW3 2952   4.061   3.267   1.259 -0.2807  0.5688  0.0679
  720SOL    MW4 2953   4.054   3.278   1.173 -0.6990 -0.1142  0.0136
  721SOL     OW 2954   4.048   3.527   1.062 -0.4405 -0.1296  0.0411
  721SOL    HW2 2955   4.046   3.531   0.966  2.8513 -0.3393 -0.0752
  721SOL    HW3 2956   3.969   3.574   1.089 -0.9285  0.7624 -2.7560
  721SOL    MW4 2957   4.037   3.534   1.053 -0.0706 -0.0393 -0.3434
  722SOL     OW 2958   4.262   3.671   1.211  0.3345 -0.0577 -0.0158
  722SOL    HW2 2959   4.184   3.629   1.175 -0.2970  1.4121 -0.4064
  722SOL    HW3 2960   4.335   3.618   1.180 -0.3176  0.1778 -1.9806
  722SOL    MW4 2961   4.261   3.658   1.202  0.1650  0.1671 -0.3265
  723SOL     OW 2962   3.586   0.371   0.855 -0.0404  0.2499 -0.2619
  723SOL    HW2 2963   3.596   0.354   0.949 -1.5902  0.1850 -0.0972
  723SOL    HW3 2964   3.585   0.284   0.815 -0.9820  0.2018 -0.1550
  723SOL    MW4 2965   3.587   0.357   0.862 -0.3693  0.2350 -0.2260
  724SOL     OW 2966   0.387   3.535   0.325 -0.1159 -0.1693 -0.2133
  724SOL    HW2 2967   0.323   3.602   0.350 -0.0485 -0.4359  0.7103
  724SOL    HW3 2968   0.451   3.581   0.270 -0.5976  0.3054 -0.3739
  724SOL    MW4 2969   0.387   3.550   0.321 -0.1706 -0.1416 -0.1127
  725SOL     OW 2970   4.325   0.944   0.306 -0.1101  0.0178  0.1731
  725SOL    HW2 2971   4.252   0.999   0.334 -0.3286 -0.2243  0.0825
  725SOL    HW3 2972   4.353   0.981   0.222 -0.8408 -0.5484 -0.3322
  725SOL    MW4 2973   4.319   0.956   0.299 -0.2360 -0.0889  0.0945
  726SOL     OW 2974   4.122   4.329   1.239  0.1087  0.3593  0.4683
  726SOL    HW2 2975   4.151   4.405   1.189  0.4178 -0.0685  0.0022
  726SOL    HW3 2976   4.027   4.342   1.249 -0.0340  0.2043 -0.6333
  726SOL    MW4 2977   4.113   4.341   1.234  0.1307  0.2823  0.2614
  727SOL     OW 2978   4.461   4.260   0.975 -0.1955 -0.1137  0.1270
  727SOL    HW2 2979   4.492   4.297   1.057 -0.7871 -0.7992  0.6743
  727SOL    HW3 2980   4.458   4.165   0.991 -0.3628 -0.2463 -0.6619
  727SOL    MW4 2981   4.465   4.252   0.988 -0.2956 -0.2217  0.0951
  728SOL     OW 2982   4.470   0.042   1.483 -0.2041  0.6141  0.8552
  728SOL    HW2 2983   4.377   0.037   1.505 -0.5007  0.1922 -0.4339
  728SOL    HW3 2984   4.476   0.003   1.395  1.1886  0.6201  0.9333
  728SOL    MW4 2985   4.459   0.036   1.474 -0.0591  0.5592  0.6955
  729SOL     OW 2986   4.476   0.326   1.584 -0.3395 -0.4120  0.7568
  729SOL    HW2 2987   4.484   0.342   1.678  0.3031  0.7169  0.5275
  729SOL    HW3 2988   4.488   0.231   1.574 -0.0711 -0.4911  1.7806
  729SOL    MW4 2989   4.479   0.316   1.595 -0.2189 -0.2735  0.8618
  730SOL     OW 2990   0.175   0.498   1.479  0.2161 -0.0215 -0.1103
  730SOL    HW2 2991   0.105   0.436   1.501  0.3377  0.1765  0.8323
  730SOL    HW3 2992   0.171   0.504   1.383  0.4064 -1.7219 -0.2475
  730SOL    MW4 2993   0.165   0.490   1.469  0.2573 -0.2197 -0.0039
  731SOL     OW 2994   0.193   0.742   1.616 -0.1357  0.0743 -0.3143
  731SOL    HW2 2995   0.270   0.784   1.577 -0.5443  1.0727 -0.0559
  731SOL    HW3 2996   0.183   0.660   1.566  1.8949 -0.7327  0.5529
  731SOL    MW4 2997   0.202   0.737   1.604  0.0783  0.0995 -0.1657
  732SOL     OW 2998   4.444   0.860   1.553 -0.0886  0.3953 -0.0670
  732SOL    HW2 2999   4.447   0.950   1.585  0.7960 -0.0762  1.2062
  732SOL    HW3 3000   4.524   0.820   1.586  0.0750 -0.5563 -1.5558
  732SOL    MW4 3001   4.455   0.866   1.561  0.0496  0.2076 -0.0952
  733SOL     OW 3002   4.452   1.125   1.607 -0.2008  0.0252 -0.2972
  733SOL    HW2 3003   4.446   1.127   1.702  0.7208 -1.7829 -0.1807
  733SOL    HW3 3004   4.541   1.155   1.588  0.0621 -0.8512 -0.5024
  733SOL    MW4 3005   4.463   1.129   1.617 -0.0443 -0.3290 -0.3088
  734SOL     OW 3006   0.231   1.260   1.508  0.1592 -0.0226 -0.1416
  734SOL    HW2 3007   0.219   1.352   1.534 -0.8432 -0.1843 -0.0058
  734SOL    HW3 3008   0.218   1.261   1.413  1.2478  0.1543 -0.2871
  734SOL    MW4 3009   0.227   1.273   1.499  0.1706 -0.0205 -0.1429
  735SOL     OW 3010   0.219   1.527   1.580  0.3468 -0.2337  0.2754
  735SOL    HW2 3011   0.222   1.524   1.676 -0.3066 -0.7021  0.2872
  735SOL    HW3 3012   0.149   1.589   1.560  0.2358 -0.4113  0.1072
  735SOL    MW4 3013   0.210   1.534   1.590  0.2459 -0.3189  0.2548
  736SOL     OW 3014   4.476   1.660   1.503  0.2453  0.2073 -0.1237
  736SOL    HW2 3015   4.463   1.746   1.542  1.8530  0.1562  0.5520
  736SOL    HW3 3016   4.482   1.677   1.409 -0.9071  0.6451 -0.1280
  736SOL    MW4 3017   4.475   1.673   1.496  0.3052  0.2584 -0.0350
  737SOL     OW 3018   4.489   1.937   1.604 -0.0616 -0.0838  0.1186
  737SOL    HW2 3019   4.472   1.949   1.697 -0.1440  1.0545 -0.0382
  737SOL    HW3 3020   4.415   1.980   1.560  0.5657  0.3830 -0.4921
  737SOL    MW4 3021   4.477   1.944   1.610  0.0105  0.1280  0.0173
  738SOL     OW 3022   0.247   2.016   1.527 -0.1694  0.4074  0.0553
  738SOL    HW2 3023   0.162   1.975   1.545  0.4020 -0.6992  0.2936
  738SOL    HW3 3024   0.245   2.036   1.433 -1.0024  1.1219  0.2198
  738SOL    MW4 3025   0.236   2.013   1.517 -0.2040  0.3560  0.1085
  739SOL     OW 3026   0.231   2.292   1.593 -0.1925  0.2910  0.0221
  739SOL    HW2 3027   0.248   2.289   1.687  0.2365 -1.2904 -0.0920
  739SOL    HW3 3028   0.244   2.202   1.563  1.1682  1.0435 -1.7968
  739SOL    MW4 3029   0.235   2.280   1.601  0.0436  0.1814 -0.2329
  740SOL     OW 3030   0.043   2.455   1.465  0.4868  0.0148 -0.1868
  740SOL    HW2 3031  -0.029   2.434   1.523 -0.4476  0.6594 -1.0976
  740SOL    HW3 3032   0.116   2.402   1.497 -0.5405 -1.0782  0.3828
  740SOL    MW4 3033   0.043   2.445   1.477  0.2279 -0.0446 -0.2319
  741SOL     OW 3034   0.020   2.704   1.577 -0.1899  0.1517  0.2399
  741SOL    HW2 3035  -0.062   2.734   1.539  0.7525  2.0994 -0.3694
  741SOL    HW3 3036   0.041   2.623   1.531 -1.5547 -0.1421  0.1233
  741SOL    MW4 3037   0.012   2.697   1.566 -0.2456  0.3700  0.1441
  742SOL     OW 3038   0.218   2.839   1.448  0.4975 -0.0051 -0.1926
  742SOL    HW2 3039   0.289   2.786   1.486  0.8868 -0.0433 -0.9680
  742SOL    HW3 3040   0.138   2.800   1.483  0.9003  1.0582  2.0126
  742SOL    MW4 3041   0.217   2.827   1.458  0.6020  0.1304 -0.0042
  743SOL     OW 3042   0.227   3.084   1.557  0.5413  0.2599  0.3958
  743SOL    HW2 3043   0.145   3.129   1.535  0.3273 -0.3133  0.0027
  743SOL    HW3 3044   0.218   2.998   1.516  0.3402 -0.6541  2.3347
  743SOL    MW4 3045   0.215   3.079   1.548  0.4865  0.0637  0.5999
  744SOL     OW 3046   4.486   3.218   1.491 -0.3797  0.1664  1.1580
  744SOL    HW2 3047   4.489   3.301   1.538 -2.2899  0.2457  1.1638
  744SOL    HW3 3048   4.474   3.243   1.399 -2.0163 -0.1149  1.2843
  744SOL    MW4 3049   4.485   3.232   1.485 -0.8473  0.1397  1.1754
  745SOL     OW 3050   4.454   3.472   1.586 -0.7485 -0.2194  0.0446
  745SOL    HW2 3051   4.459   3.466   1.681 -0.8484  1.2979  0.1643
  745SOL    HW3 3052   4.395   3.546   1.570  0.6303  0.6466 -1.1798
  745SOL    MW4 3053   4.447   3.481   1.596 -0.5798  0.0949 -0.1012
  746SOL     OW 3054   0.205   3.594   1.513 -0.0729  0.5691 -0.5245
  746SOL    HW2 3055   0.190   3.688   1.526  0.7101  0.6598 -0.2214
  746SOL    HW3 3056   0.122   3.553   1.539  0.2602  1.0335  1.3547
  746SOL    MW4 3057   0.192   3.601   1.518  0.0744  0.6421 -0.2367
  747SOL     OW 3058   0.196   3.860   1.576  0.1493  0.0944 -0.6682
  747SOL    HW2 3059   0.185   3.860   1.671  0.3414 -2.0012 -0.6083
  747SOL    HW3 3060   0.275   3.913   1.561  1.0726 -0.9055  0.4944
  747SOL    MW4 3061   0.205   3.867   1.586  0.2964 -0.3140 -0.5068
  748SOL     OW 3062   4.405   4.608   0.384  0.3811 -0.0719  0.3239
  748SOL    HW2 3063   4.491   4.628   0.348 -0.3310 -0.9450 -1.9801
  748SOL    HW3 3064   4.400   4.513   0.383 -0.5536 -0.0311  0.5752
  748SOL    MW4 3065   4.415   4.598   0.379  0.1640 -0.1822  0.0531
  749SOL     OW 3066   4.490   4.005   1.467  0.1042  0.0559  0.1615
  749SOL    HW2 3067   4.554   3.939   1.491 -0.7263 -0.8854 -0.2023
  749SOL    HW3 3068   4.410   3.978   1.513 -0.1128  1.0708  0.3988
  749SOL    MW4 3069   4.488   3.993   1.477 -0.0343  0.0653  0.1447
  750SOL     OW 3070   0.188   4.389   1.601  0.5373 -0.2991 -0.3441
  750SOL    HW2 3071   0.152   4.348   1.679  0.2416  0.1276 -0.2495
  750SOL    HW3 3072   0.130   4.361   1.530 -0.0955  0.5188 -0.1659
  750SOL    MW4 3073   0.176   4.380   1.602  0.4148 -0.1349 -0.3082
  751SOL     OW 3074   0.447   0.166   1.498 -0.1548 -0.1923  0.0647
  751SOL    HW2 3075   0.432   0.255   1.527  1.5679 -0.0334  0.5132
  751SOL    HW3 3076   0.379   0.114   1.541 -1.5849  0.9966 -0.7535
  751SOL    MW4 3077   0.436   0.171   1.507 -0.1162 -0.0145  0.0160
  752SOL     OW 3078   0.244   4.655   1.577  0.4080  0.4348 -0.0019
  752SOL    HW2 3079   0.157   4.683   1.549  1.0020 -0.2720 -2.6989
  752SOL    HW3 3080   0.233   4.565   1.606  0.1075  0.6304  0.5145
  752SOL    MW4 3081   0.231   4.647   1.577  0.4467  0.3676 -0.2896
  753SOL     OW 3082   0.402   0.424   1.626 -0.3684 -0.1182  0.2631
  753SOL    HW2 3083   0.479   0.471   1.592 -0.8797  1.9214  1.8069
  753SOL    HW3 3084   0.329   0.459   1.575 -0.5327 -0.6484  0.1288
  753SOL    MW4 3085   0.403   0.435   1.615 -0.4576  0.0809  0.4489
  754SOL     OW 3086   0.645   0.524   1.571 -0.1136  0.0116 -0.1504
  754SOL    HW2 3087   0.675   0.605   1.611  1.2384 -1.0065  0.9785
  754SOL    HW3 3088   0.677   0.528   1.481 -1.3245  1.3727 -0.5301
  754SOL    MW4 3089   0.654   0.535   1.564 -0.0950  0.0568 -0.0516
  755SOL     OW 3090   0.662   0.813   1.649  0.3290  0.2163  0.4461
  755SOL    HW2 3091   0.674   0.828   1.742  0.7647  0.9603  0.2754
  755SOL    HW3 3092   0.725   0.872   1.607 -0.3550  0.4041 -0.3330
  755SOL    MW4 3093   0.672   0.823   1.655  0.2962  0.3392  0.3207
  756SOL     OW 3094   0.411   0.888   1.541 -0.4836  0.3528  0.9229
  756SOL    HW2 3095   0.420   0.976   1.580  0.4693  0.9628 -0.6441
  756SOL    HW3 3096   0.490   0.842   1.568  1.2514  1.4702 -1.9636
  756SOL    MW4 3097   0.423   0.894   1.550 -0.1289  0.5807  0.3352
  757SOL     OW 3098   0.444   1.140   1.655 -0.1850  0.2706  0.1759
  757SOL    HW2 3099   0.522   1.190   1.632 -0.2611  0.3816  0.1571
  757SOL    HW3 3100   0.373   1.183   1.608 -0.5425  1.2867  1.5999
  757SOL    MW4 3101   0.445   1.152   1.646 -0.2422  0.4193  0.3612
  758SOL     OW 3102   0.651   1.275   1.547 -0.3514  0.5469 -0.0463
  758SOL    HW2 3103   0.664   1.367   1.571 -1.0209  0.6446 -0.0406
  758SOL    HW3 3104   0.644   1.275   1.452 -0.0367  0.4637 -0.0683
  758SOL    MW4 3105   0.652   1.287   1.538 -0.3982  0.5487 -0.0485
  759SOL     OW 3106   0.712   1.530   1.610 -0.2118 -0.0928  0.1609
  759SOL    HW2 3107   0.769   1.597   1.574  0.5855 -0.7165  0.2387
  759SOL    HW3 3108   0.623   1.563   1.597  0.0625 -0.2450 -2.2184
  759SOL    MW4 3109   0.708   1.543   1.604 -0.0704 -0.1951 -0.1428
  760SOL     OW 3110   0.469   1.626   1.529 -0.1204 -0.0386  0.6522
  760SOL    HW2 3111   0.460   1.721   1.530  0.3594  0.0100  2.0989
  760SOL    HW3 3112   0.379   1.594   1.535 -0.4158  0.2895 -1.5889
  760SOL    MW4 3113   0.456   1.634   1.530 -0.0961  0.0111  0.5474
  761SOL     OW 3114   0.481   1.894   1.594 -0.5308 -0.0682  0.4393
  761SOL    HW2 3115   0.396   1.937   1.582 -0.2885  0.2608 -0.1083
  761SOL    HW3 3116   0.490   1.886   1.689 -0.7585  0.7334  0.5336
  761SOL    MW4 3117   0.471   1.898   1.605 -0.5289  0.0809  0.3796
  762SOL     OW 3118   0.695   2.079   1.498 -0.0829  0.0797  0.3398
  762SOL    HW2 3119   0.777   2.042   1.532 -1.0515 -0.4581  2.1136
  762SOL    HW3 3120   0.627   2.019   1.529 -1.2579  1.1024 -0.2528
  762SOL    MW4 3121   0.697   2.066   1.506 -0.3657  0.1438  0.4958
  763SOL     OW 3122   0.680   2.338   1.602  0.1027  0.0092  0.5331
  763SOL    HW2 3123   0.592   2.368   1.580  0.2265 -0.4892 -0.6808
  763SOL    HW3 3124   0.684   2.248   1.567  1.2951  0.2551  0.0220
  763SOL    MW4 3125   0.669   2.330   1.594  0.2764 -0.0238  0.3054
  764SOL     OW 3126   0.450   2.426   1.461 -0.1180 -0.2325  0.5344
  764SOL    HW2 3127   0.438   2.511   1.502 -1.6652  0.1459 -0.6476
  764SOL    HW3 3128   0.377   2.373   1.493 -0.1100 -0.5970 -0.0472
  764SOL    MW4 3129   0.439   2.430   1.471 -0.3211 -0.2306  0.3016
  765SOL     OW 3130   0.434   2.684   1.562  0.6917 -0.5157 -0.1294
  765SOL    HW2 3131   0.430   2.689   1.658  1.1514  0.7340 -0.1580
  765SOL    HW3 3132   0.518   2.725   1.540  0.4863 -0.5947 -1.0770
  765SOL    MW4 3133   0.445   2.690   1.572  0.7253 -0.3610 -0.2583
  766SOL     OW 3134   0.678   2.812   1.495 -0.0938 -0.3422  0.1103
  766SOL    HW2 3135   0.682   2.906   1.510 -0.8363 -0.2503 -0.2362
  766SOL    HW3 3136   0.668   2.803   1.400 -0.7780 -0.7379  0.2104
  766SOL    MW4 3137   0.677   2.823   1.484 -0.2820 -0.3822  0.0777
  767SOL     OW 3138   0.682   3.086   1.562  0.2217 -0.0974  0.1523
  767SOL    HW2 3139   0.752   3.143   1.530  0.7841 -1.1224 -0.5004
  767SOL    HW3 3140   0.604   3.116   1.515  0.3358  0.6874  0.4587
  767SOL    MW4 3141   0.681   3.097   1.551  0.3109 -0.1290  0.1066
  768SOL     OW 3142   0.451   3.221   1.456 -0.4378 -0.1413  0.1018
  768SOL    HW2 3143   0.377   3.160   1.466  0.0369 -0.7649 -0.1769
  768SOL    HW3 3144   0.451   3.243   1.363 -0.1525 -0.2958  0.0652
  768SOL    MW4 3145   0.441   3.216   1.445 -0.3375 -0.2439  0.0603
  769SOL     OW 3146   0.443   3.471   1.599 -0.6561  0.1426 -0.2824
  769SOL    HW2 3147   0.434   3.389   1.550 -2.8938  0.3575 -0.2891
  769SOL    HW3 3148   0.357   3.512   1.592  0.2595  2.2002  0.2653
  769SOL    MW4 3149   0.430   3.465   1.592 -0.8305  0.4425 -0.2110
  770SOL     OW 3150   0.667   3.597   1.494 -0.8009  0.0144 -0.1078
  770SOL    HW2 3151   0.743   3.553   1.532  0.1107  0.6959 -1.1080
  770SOL    HW3 3152   0.591   3.554   1.534  0.1161 -0.4756  1.1103
  770SOL    MW4 3153   0.667   3.586   1.504 -0.5596  0.0396 -0.0790
  771SOL     OW 3154   0.660   3.865   1.565 -0.0853  0.2946  0.2559
  771SOL    HW2 3155   0.737   3.898   1.520 -0.1641  0.6406  0.3691
  771SOL    HW3 3156   0.658   3.772   1.545 -0.7405  0.6446 -1.3747
  771SOL    MW4 3157   0.670   3.857   1.556 -0.1821  0.3867  0.0557
  772SOL     OW 3158   0.415   4.026   1.502  0.0996  0.1268 -0.2978
  772SOL    HW2 3159   0.486   3.964   1.518 -0.0018  0.1598  0.2896
  772SOL    HW3 3160   0.398   4.019   1.408  0.1815 -0.6350 -0.2606
  772SOL    MW4 3161   0.422   4.017   1.492  0.0970  0.0305 -0.2154
  773SOL     OW 3162   0.438   4.285   1.627 -0.2677  0.0729  0.3380
  773SOL    HW2 3163   0.435   4.202   1.579  2.3254 -0.0816  0.3907
  773SOL    HW3 3164   0.351   4.323   1.614 -0.5106 -1.2508 -2.2295
  773SOL    MW4 3165   0.426   4.279   1.619  0.0424 -0.1221  0.0064
  774SOL     OW 3166   0.658   4.404   1.511 -0.4979 -0.4620 -0.1487
  774SOL    HW2 3167   0.656   4.496   1.536 -1.3614 -0.2196 -1.1159
  774SOL    HW3 3168   0.568   4.373   1.521 -0.6979 -0.5847 -2.0778
  774SOL    MW4 3169   0.646   4.412   1.516 -0.6382 -0.4458 -0.5310
  775SOL     OW 3170   1.103   4.616   1.572  0.5214  0.5448 -0.2897
  775SOL    HW2 3171   1.112   4.619   1.667 -0.3662  1.9838 -0.2301
  775SOL    HW3 3172   1.168   4.678   1.540  0.3870  0.5274 -0.5932
  775SOL    MW4 3173   1.113   4.624   1.580  0.3866  0.7319 -0.3219
  776SOL     OW 3174   0.891   0.124   1.488 -0.3118  0.2138 -0.0904
  776SOL    HW2 3175   0.883   0.198   1.548  0.9169  0.9858 -0.8720
  776SOL    HW3 3176   0.943   0.059   1.536  0.4830  0.7402 -0.2516
  776SOL    MW4 3177   0.897   0.125   1.503 -0.0448  0.3851 -0.2148
  777SOL     OW 3178   0.851   0.342   1.635  0.0094  0.1009  0.6307
  777SOL    HW2 3179   0.859   0.356   1.730 -0.6028  0.6863  0.5993
  777SOL    HW3 3180   0.784   0.404   1.608  0.8167  0.5528 -0.3382
  777SOL    MW4 3181   0.843   0.352   1.644  0.0351  0.2378  0.4987
  778SOL     OW 3182   1.072   0.463   1.524 -0.2551  0.2079 -0.2745
  778SOL    HW2 3183   1.061   0.554   1.550 -0.0262  0.1443  0.0426
  778SOL    HW3 3184   0.997   0.418   1.563 -0.4540  0.2874 -0.5633
  778SOL    MW4 3185   1.061   0.469   1.532 -0.2512  0.2100 -0.2707
  779SOL     OW 3186   1.100   0.737   1.603  0.3339  0.0867  0.0954
  779SOL    HW2 3187   1.094   0.748   1.698  1.0398 -2.5932  0.4672
  779SOL    HW3 3188   1.174   0.791   1.577  0.7400  0.0728  1.2004
  779SOL    MW4 3189   1.109   0.746   1.612  0.4805 -0.2687  0.2903
  780SOL     OW 3190   0.894   0.939   1.551  0.0696 -0.2301 -0.1334
  780SOL    HW2 3191   0.930   0.860   1.590  0.1170 -0.3491 -0.4165
  780SOL    HW3 3192   0.897   0.923   1.456  0.3429  0.2217 -0.2044
  780SOL    MW4 3193   0.899   0.927   1.543  0.1119 -0.1861 -0.1801
  781SOL     OW 3194   0.897   1.206   1.644  0.1539  0.0312 -0.1354
  781SOL    HW2 3195   0.909   1.115   1.618  0.4038 -0.0137  0.1279
  781SOL    HW3 3196   0.808   1.228   1.616  0.0396 -0.3390 -0.0636
  781SOL    MW4 3197   0.887   1.197   1.637  0.1717 -0.0234 -0.0911
  782SOL     OW 3198   1.109   1.308   1.504 -0.0425 -0.6233  0.0233
  782SOL    HW2 3199   1.188   1.258   1.524 -0.0903 -0.5698  0.3489
  782SOL    HW3 3200   1.041   1.269   1.560 -0.1444 -0.3859  0.0656
  782SOL    MW4 3201   1.110   1.297   1.514 -0.0622 -0.5850  0.0718
  783SOL     OW 3202   1.099   1.585   1.620 -0.1262  0.3143 -0.6417
  783SOL    HW2 3203   1.159   1.634   1.564  0.1032 -0.2928 -0.9366
  783SOL    HW3 3204   1.099   1.496   1.583 -0.8186  0.1865 -0.3410
  783SOL    MW4 3205   1.107   1.580   1.607 -0.1874  0.2173 -0.6409
  784SOL     OW 3206   0.894   1.731   1.538  0.1392  0.2699  0.0839
  784SOL    HW2 3207   0.967   1.680   1.571  1.2954  1.2377 -0.9392
  784SOL    HW3 3208   0.899   1.724   1.443 -0.3245  1.3865 -0.0414
  784SOL    MW4 3209   0.904   1.724   1.530  0.2305  0.5448 -0.0677
  785SOL     OW 3210   0.940   1.987   1.604  0.1392  0.2044 -0.4001
  785SOL    HW2 3211   1.014   2.016   1.551  1.6385 -0.2143  1.3853
  785SOL    HW3 3212   0.928   1.895   1.580 -0.5368  0.5806 -1.5092
  785SOL    MW4 3213   0.948   1.979   1.594  0.2478  0.1988 -0.3109
  786SOL     OW 3214   1.168   2.070   1.458  0.3424  0.6225 -0.2983
  786SOL    HW2 3215   1.254   2.042   1.490  1.0832  0.0966 -2.6714
  786SOL    HW3 3216   1.161   2.161   1.485  1.2417  0.3982  0.7223
  786SOL    MW4 3217   1.179   2.078   1.466  0.5589  0.5233 -0.4770
  787SOL     OW 3218   1.160   2.335   1.567 -0.1909  0.0335 -0.2294
  787SOL    HW2 3219   1.228   2.385   1.523  0.9346 -0.8227  0.5311
  787SOL    HW3 3220   1.080   2.387   1.553  0.4707  0.6952 -1.6950
  787SOL    MW4 3221   1.158   2.348   1.559  0.0448  0.0079 -0.3225
  788SOL     OW 3222   0.916   2.461   1.539  0.1160  0.1174  0.0117
  788SOL    HW2 3223   0.902   2.555   1.552 -0.6274  0.0936 -0.5663
  788SOL    HW3 3224   0.835   2.420   1.569  0.3293 -0.3171  0.0015
  788SOL    MW4 3225   0.903   2.468   1.545  0.0461  0.0567 -0.0659
  789SOL     OW 3226   0.926   2.738   1.590  0.1300  0.3526  0.3859
  789SOL    HW2 3227   0.913   2.738   1.685 -2.0129  0.5299  0.1019
  789SOL    HW3 3228   0.841   2.760   1.553  0.8302 -0.1430 -1.6160
  789SOL    MW4 3229   0.913   2.741   1.598 -0.0604  0.3104  0.0844
  790SOL     OW 3230   1.150   2.849   1.449  0.1254 -0.2911  0.1954
  790SOL    HW2 3231   1.139   2.935   1.490  0.0511 -0.4812  0.5660
  790SOL    HW3 3232   1.082   2.795   1.488 -0.1593 -0.3791 -0.4215
  790SOL    MW4 3233   1.140   2.854   1.459  0.0780 -0.3281  0.1630
  791SOL     OW 3234   1.144   3.104   1.547 -0.3787 -0.1960  0.1029
  791SOL    HW2 3235   1.138   3.113   1.642 -1.1476  1.6716 -0.1018
  791SOL    HW3 3236   1.233   3.134   1.526 -0.6372  0.5902  0.1134
  791SOL    MW4 3237   1.155   3.109   1.557 -0.5143  0.1540  0.0772
  792SOL     OW 3238   0.908   3.225   1.477 -0.3595 -0.1277 -0.7492
  792SOL    HW2 3239   0.997   3.200   1.502 -0.1122  0.6480 -0.8350
  792SOL    HW3 3240   0.906   3.215   1.382 -0.4678 -0.4532 -0.7149
  792SOL    MW4 3241   0.920   3.220   1.468 -0.3412 -0.0682 -0.7560
  793SOL     OW 3242   0.882   3.467   1.608 -0.4803 -0.4310  0.6638
  793SOL    HW2 3243   0.962   3.512   1.582 -0.4807 -0.8380 -0.0727
  793SOL    HW3 3244   0.896   3.376   1.578 -1.4582 -0.3637 -0.0078
  793SOL    MW4 3245   0.895   3.461   1.601 -0.6094 -0.4759  0.4779
  794SOL     OW 3246   1.095   3.625   1.517 -0.0609 -0.5481  0.2428
  794SOL    HW2 3247   1.166   3.571   1.551  0.6153 -0.0608 -0.4052
  794SOL    HW3 3248   1.096   3.611   1.423 -0.9511 -0.6878  0.2424
  794SOL    MW4 3249   1.104   3.616   1.509 -0.0892 -0.5026  0.1574
  795SOL     OW 3250   1.090   3.903   1.578  0.0477  0.0909 -0.6026
  795SOL    HW2 3251   1.172   3.937   1.542 -0.5776 -0.2392 -2.4382
  795SOL    HW3 3252   1.092   3.809   1.560 -0.9240  0.1517 -1.1093
  795SOL    MW4 3253   1.101   3.895   1.571 -0.1630  0.0553 -0.9116
  796SOL     OW 3254   0.873   4.010   1.450 -0.0882  0.3073 -0.1323
  796SOL    HW2 3255   0.863   4.100   1.480 -1.4314  0.5285 -1.1607
  796SOL    HW3 3256   0.949   3.976   1.497 -1.1028  1.1613  2.1873
  796SOL    MW4 3257   0.882   4.017   1.460 -0.3993  0.4492  0.0380
  797SOL     OW 3258   0.892   4.267   1.552  0.4259 -0.6838  0.1611
  797SOL    HW2 3259   0.901   4.268   1.647  0.2511  0.6119  0.1701
  797SOL    HW3 3260   0.817   4.323   1.534  1.2468  0.1358 -0.8064
  797SOL    MW4 3261   0.884   4.275   1.562  0.5112 -0.4048  0.0348
  798SOL     OW 3262   1.114   4.374   1.440  0.2614 -0.1256  0.2657
  798SOL    HW2 3263   1.027   4.342   1.461  0.5042 -0.6579  0.4602
  798SOL    HW3 3264   1.114   4.465   1.472 -0.3811  0.0379 -0.1889
  798SOL    MW4 3265   1.103   4.382   1.447  0.2085 -0.1745  0.2314
  799SOL     OW 3266   1.517   0.046   1.622 -0.0014  0.2059 -0.2776
  799SOL    HW2 3267   1.499   0.046   1.716 -0.0302 -0.7631 -0.2830
  799SOL    HW3 3268   1.431   0.056   1.581  0.0004  0.5202 -0.2112
  799SOL    MW4 3269   1.503   0.048   1.629 -0.0050  0.1195 -0.2695
  800SOL     OW 3270   1.291   0.116   1.478  0.5130 -0.0697  0.1460
  800SOL    HW2 3271   1.312   0.202   1.514 -0.4860 -0.1096  0.8420
  800SOL    HW3 3272   1.292   0.128   1.383  0.0119  0.7898  0.2508
  800SOL    MW4 3273   1.294   0.129   1.470  0.3152  0.0384  0.2517
  801SOL     OW 3274   1.312   0.355   1.595  0.3983  0.4163  0.2122
  801SOL    HW2 3275   1.384   0.415   1.581  0.6917  0.2612  1.0372
  801SOL    HW3 3276   1.235   0.400   1.559  1.2179 -0.2401 -2.4810
  801SOL    MW4 3277   1.311   0.368   1.588  0.5450  0.3092 -0.0343
  802SOL     OW 3278   1.554   0.508   1.543  0.1704  0.3655  0.0834
  802SOL    HW2 3279   1.640   0.484   1.578  0.0039  1.5390  1.3429
  802SOL    HW3 3280   1.560   0.490   1.450  1.3076 -0.9246  0.3839
  802SOL    MW4 3281   1.566   0.502   1.536  0.2984  0.3501  0.2892
  803SOL     OW 3282   1.574   0.785   1.613 -0.0906 -0.0339 -0.2704
  803SOL    HW2 3283   1.574   0.781   1.709 -1.3907  0.0378 -0.2518
  803SOL    HW3 3284   1.553   0.695   1.586  2.4910 -0.5879 -0.5496
  803SOL    MW4 3285   1.571   0.773   1.622  0.0784 -0.0976 -0.3048
  804SOL     OW 3286   1.334   0.909   1.543  0.2250  0.6080 -0.0771
  804SOL    HW2 3287   1.418   0.871   1.570  0.2595  1.2420  0.7587
  804SOL    HW3 3288   1.339   0.916   1.448  0.6553 -0.4334 -0.1318
  804SOL    MW4 3289   1.346   0.905   1.534  0.2862  0.5542  0.0259
  805SOL     OW 3290   1.345   1.176   1.597  0.2295  0.1366 -0.2432
  805SOL    HW2 3291   1.334   1.194   1.691 -1.0725  1.9825 -0.7309
  805SOL    HW3 3292   1.337   1.081   1.591  0.2551 -0.0010  1.5178
  805SOL    MW4 3293   1.342   1.166   1.609  0.0609  0.3620 -0.0752
  806SOL     OW 3294   1.590   1.317   1.503  0.2527 -0.0711  0.2592
  806SOL    HW2 3295   1.514   1.265   1.529 -0.2785 -0.0912 -1.2931
  806SOL    HW3 3296   1.594   1.308   1.408  2.5931 -0.5961  0.3803
  806SOL    MW4 3297   1.580   1.309   1.494  0.4913 -0.1431  0.0703
  807SOL     OW 3298   1.568   1.583   1.565 -0.3383 -0.7603  0.1018
  807SOL    HW2 3299   1.559   1.585   1.660  0.9791  0.3232  0.2156
  807SOL    HW3 3300   1.576   1.490   1.544 -1.3976 -1.0502  0.9710
  807SOL    MW4 3301   1.568   1.571   1.575 -0.3041 -0.6557  0.2316
  808SOL     OW 3302   1.332   1.709   1.471 -0.2844 -0.2660 -0.4375
  808SOL    HW2 3303   1.408   1.656   1.495 -0.4220 -0.4695 -0.4485
  808SOL    HW3 3304   1.342   1.723   1.377  0.6221  1.1146 -0.1600
  808SOL    MW4 3305   1.343   1.704   1.462 -0.1829 -0.1106 -0.4023
  809SOL     OW 3306   1.385   1.956   1.574  0.1172 -0.1441  0.3743
  809SOL    HW2 3307   1.362   1.957   1.667  1.0633  0.4635  0.6059
  809SOL    HW3 3308   1.354   1.871   1.543 -1.5480  0.2495  0.8983
  809SOL    MW4 3309   1.378   1.945   1.582  0.0223 -0.0119  0.4741
  810SOL     OW 3310   1.621   2.094   1.506 -0.2033  0.1190 -0.6118
  810SOL    HW2 3311   1.536   2.051   1.512 -0.6377  1.0494  0.1316
  810SOL    HW3 3312   1.642   2.094   1.413 -0.3509 -1.3851 -0.6485
  810SOL    MW4 3313   1.612   2.088   1.495 -0.2800  0.0434 -0.5184
  811SOL     OW 3314   1.584   2.357   1.566 -0.4220  0.4145 -0.4662
  811SOL    HW2 3315   1.671   2.392   1.550 -0.7158  0.5523 -1.7612
  811SOL    HW3 3316   1.588   2.267   1.534  0.2019 -0.6757  2.4405
  811SOL    MW4 3317   1.596   2.349   1.560 -0.3784  0.2890 -0.2536
  812SOL     OW 3318   1.364   2.470   1.427 -0.1633 -0.3916  0.1085
  812SOL    HW2 3319   1.355   2.550   1.478  0.7063 -0.6970  0.7591
  812SOL    HW3 3320   1.446   2.431   1.458 -0.2909 -1.2409 -0.6011
  812SOL    MW4 3321   1.374   2.475   1.438 -0.0653 -0.5441  0.1007
  813SOL     OW 3322   1.334   2.709   1.591  0.2969  0.2312 -0.3168
  813SOL    HW2 3323   1.417   2.749   1.568  0.1816 -1.0014 -3.0808
  813SOL    HW3 3324   1.268   2.763   1.548 -0.2612  0.4386  0.7727
  813SOL    MW4 3325   1.336   2.721   1.582  0.2081  0.0958 -0.5378
  814SOL     OW 3326   1.567   2.859   1.534 -0.2942 -0.0882  0.1208
  814SOL    HW2 3327   1.652   2.830   1.566  0.9482  0.7339 -2.2630
  814SOL    HW3 3328   1.574   2.853   1.438 -2.9730 -0.1374 -0.1210
  814SOL    MW4 3329   1.579   2.854   1.525 -0.4838  0.0138 -0.2255
  815SOL     OW 3330   1.597   3.131   1.605 -0.0259  0.4343 -0.2297
  815SOL    HW2 3331   1.665   3.176   1.556  0.4953  0.9565  0.9498
  815SOL    HW3 3332   1.604   3.039   1.578  0.8189  0.5677 -0.4732
  815SOL    MW4 3333   1.607   3.125   1.595  0.1543  0.5207 -0.1062
  816SOL     OW 3334   1.370   3.246   1.462  0.1524 -0.3587  0.2159
  816SOL    HW2 3335   1.368   3.324   1.517 -0.4795  0.3479 -0.7993
  816SOL    HW3 3336   1.438   3.191   1.502  1.0916  0.9969  0.5418
  816SOL    MW4 3337   1.379   3.249   1.475  0.1930 -0.0865  0.1248
  817SOL     OW 3338   1.312   3.487   1.616 -0.8700 -0.4344 -0.0564
  817SOL    HW2 3339   1.323   3.472   1.710 -2.2467 -0.8771  0.0540
  817SOL    HW3 3340   1.391   3.534   1.589 -0.5597 -0.1318  1.3575
  817SOL    MW4 3341   1.324   3.491   1.625 -1.0107 -0.4530  0.1447
  818SOL     OW 3342   1.545   3.608   1.523 -0.0565 -0.1898  0.3457
  818SOL    HW2 3343   1.562   3.699   1.548 -1.5907 -0.1867  1.4366
  818SOL    HW3 3344   1.536   3.610   1.428  0.7290  0.6552  0.2800
  818SOL    MW4 3345   1.546   3.620   1.514 -0.1551 -0.0780  0.4810
  819SOL     OW 3346   1.561   3.879   1.622  0.2500  0.0646  0.3000
  819SOL    HW2 3347   1.547   3.901   1.714 -0.5782  1.5568 -0.1719
  819SOL    HW3 3348   1.483   3.909   1.577 -0.5941 -3.1696 -0.5367
  819SOL    MW4 3349   1.549   3.886   1.629  0.0292 -0.1650  0.1273
  820SOL     OW 3350   1.337   3.993   1.483 -0.1162  0.1830  0.1165
  820SOL    HW2 3351   1.321   4.081   1.517  1.1221  0.3669  0.2733
  820SOL    HW3 3352   1.337   4.004   1.388  0.3035  0.4104  0.1398
  820SOL    MW4 3353   1.335   4.006   1.475  0.1025  0.2370  0.1404
  821SOL     OW 3354   1.319   4.237   1.607 -0.0536 -0.2308 -0.2131
  821SOL    HW2 3355   1.392   4.297   1.586  0.0248 -0.0728  0.4875
  821SOL    HW3 3356   1.241   4.283   1.576  0.0805 -0.1061 -0.3689
  821SOL    MW4 3357   1.319   4.251   1.600 -0.0256 -0.1936 -0.1413
  822SOL     OW 3358   1.502   4.436   1.531 -0.6356 -0.1363  0.1985
  822SOL    HW2 3359   1.591   4.402   1.534 -1.0820 -1.3527 -0.1246
  822SOL    HW3 3360   1.510   4.527   1.559  0.9070  0.1551 -1.1176
  822SOL    MW4 3361   1.515   4.444   1.535 -0.4909 -0.2580 -0.0176
  823SOL     OW 3362   1.993   0.001   1.614 -0.0437  0.1190  0.2443
  823SOL    HW2 3363   1.978   0.006   1.709 -0.1186  0.0385  0.2363
  823SOL    HW3 3364   1.931   0.064   1.577 -2.0352 -1.9106  0.0276
  823SOL    MW4 3365   1.983   0.010   1.622 -0.3164 -0.1593  0.2147
  824SOL     OW 3366   1.785   0.128   1.493 -0.5086 -0.0988 -0.1128
  824SOL    HW2 3367   1.705   0.089   1.528 -1.6877  1.6154 -0.7921
  824SOL    HW3 3368   1.768   0.137   1.399  1.1725 -1.3042 -0.5491
  824SOL    MW4 3369   1.772   0.124   1.485 -0.4423 -0.0317 -0.2600
  825SOL     OW 3370   1.800   0.397   1.613  0.1488 -0.0459  0.6070
  825SOL    HW2 3371   1.878   0.440   1.577 -0.5389  0.2097 -0.6339
  825SOL    HW3 3372   1.789   0.318   1.560 -0.8812  0.3309  0.2353
  825SOL    MW4 3373   1.809   0.393   1.601 -0.0778  0.0375  0.3943
  826SOL     OW 3374   2.032   0.517   1.505  0.0522  0.0790  0.0828
  826SOL    HW2 3375   2.116   0.475   1.521  0.3697  0.5317 -0.3685
  826SOL    HW3 3376   2.039   0.603   1.546 -0.1515  0.1585 -0.0451
  826SOL    MW4 3377   2.044   0.523   1.513  0.0672  0.1493  0.0064
  827SOL     OW 3378   1.995   0.772   1.630 -0.9015  0.0805  0.2590
  827SOL    HW2 3379   2.070   0.825   1.603  0.5715 -1.8438  0.4813
  827SOL    HW3 3380   1.919   0.820   1.598  0.4572  1.7123 -0.5861
  827SOL    MW4 3381   1.995   0.785   1.622 -0.5279  0.0418  0.1768
  828SOL     OW 3382   1.778   0.908   1.493 -0.1913  0.6681  0.6107
  828SOL    HW2 3383   1.784   0.999   1.523 -0.9026  0.8166  0.2974
  828SOL    HW3 3384   1.699   0.874   1.534 -0.5053  0.5087 -0.1277
  828SOL    MW4 3385   1.769   0.916   1.503 -0.3266  0.6667  0.4719
  829SOL     OW 3386   1.804   1.174   1.600  0.0213  0.4930  0.1214
  829SOL    HW2 3387   1.883   1.227   1.592 -0.0103  0.3631 -1.0938
  829SOL    HW3 3388   1.733   1.235   1.580 -0.0730  0.2132 -0.4096
  829SOL    MW4 3389   1.805   1.189   1.597  0.0048  0.4390 -0.1091
  830SOL     OW 3390   2.026   1.311   1.512 -0.4658 -0.3093  0.2204
  830SOL    HW2 3391   2.016   1.401   1.544  0.8994 -0.0443 -0.0381
  830SOL    HW3 3392   2.018   1.319   1.417  0.8188 -0.2750  0.1069
  830SOL    MW4 3393   2.024   1.324   1.504 -0.1166 -0.2698  0.1714
  831SOL     OW 3394   2.031   1.560   1.616  0.8613  0.0211  0.2537
  831SOL    HW2 3395   2.104   1.578   1.556 -0.5670  2.1582 -0.8796
  831SOL    HW3 3396   1.960   1.615   1.585 -1.0452 -1.5203  1.7793
  831SOL    MW4 3397   2.031   1.570   1.604  0.4215  0.0998  0.3055
  832SOL     OW 3398   1.821   1.677   1.486  0.7135 -0.4386 -0.6677
  832SOL    HW2 3399   1.737   1.642   1.517  1.2585 -1.5760 -0.4520
  832SOL    HW3 3400   1.810   1.685   1.392  0.2606 -0.2935 -0.6067
  832SOL    MW4 3401   1.808   1.674   1.478  0.7255 -0.5696 -0.6311
  833SOL     OW 3402   1.823   1.925   1.602  0.0997 -0.2204  0.8659
  833SOL    HW2 3403   1.832   1.841   1.556 -0.3753  0.3071 -0.1826
  833SOL    HW3 3404   1.771   1.979   1.544  2.1773  1.5242  0.5797
  833SOL    MW4 3405   1.818   1.921   1.588  0.3113  0.0794  0.6899
  834SOL     OW 3406   2.048   2.050   1.475  0.1206 -0.0294 -0.2426
  834SOL    HW2 3407   2.131   2.011   1.500  0.3671  0.7072  0.0899
  834SOL    HW3 3408   1.983   2.007   1.530  0.1855 -1.1225 -1.0105
  834SOL    MW4 3409   2.050   2.039   1.485  0.1616 -0.0765 -0.2999
  835SOL     OW 3410   2.030   2.317   1.575 -0.0814 -0.0807 -0.3630
  835SOL    HW2 3411   2.018   2.294   1.667 -1.2404 -1.3715 -0.8122
  835SOL    HW3 3412   2.041   2.233   1.530 -0.7825  0.4458 -1.5633
  835SOL    MW4 3413   2.030   2.303   1.581 -0.3266 -0.1814 -0.5807
  836SOL     OW 3414   1.818   2.491   1.501 -0.3644  0.2952 -0.2016
  836SOL    HW2 3415   1.884   2.429   1.534 -0.5294  0.3894  0.3152
  836SOL    HW3 3416   1.829   2.490   1.406 -1.3234 -1.5950 -0.3199
  836SOL    MW4 3417   1.828   2.482   1.493 -0.5127  0.0584 -0.1490
  837SOL     OW 3418   1.809   2.750   1.600  0.5676 -0.2587  0.2483
  837SOL    HW2 3419   1.888   2.788   1.562  0.0009 -0.3829 -1.0670
  837SOL    HW3 3420   1.804   2.663   1.561 -0.5127 -0.0507 -0.0835
  837SOL    MW4 3421   1.819   2.743   1.590  0.3504 -0.2477  0.0310
  838SOL     OW 3422   2.022   2.862   1.474  0.0835 -0.1280  0.0634
  838SOL    HW2 3423   2.044   2.949   1.508  0.3311  0.3848 -1.3621
  838SOL    HW3 3424   2.017   2.874   1.379 -2.6879 -1.0622  0.0552
  838SOL    MW4 3425   2.024   2.875   1.466 -0.2496 -0.1833 -0.1258
  839SOL     OW 3426   2.042   3.098   1.607  0.0450 -0.1660  0.6203
  839SOL    HW2 3427   2.032   3.111   1.701  0.1713  1.5110  0.4150
  839SOL    HW3 3428   2.117   3.153   1.583 -0.1762 -0.3368 -0.5072
  839SOL    MW4 3429   2.051   3.107   1.616  0.0322  0.0327  0.4443
  840SOL     OW 3430   1.846   3.242   1.476 -0.3764  0.0296  0.5827
  840SOL    HW2 3431   1.837   3.327   1.520  2.7120  0.9665 -0.4507
  840SOL    HW3 3432   1.911   3.195   1.527 -0.3095 -0.7821 -0.2465
  840SOL    MW4 3433   1.853   3.247   1.488  0.0399  0.0463  0.3369
  841SOL     OW 3434   1.766   3.484   1.590 -0.2376 -0.4567 -0.2508
  841SOL    HW2 3435   1.763   3.495   1.685 -0.7918 -0.8665 -0.2175
  841SOL    HW3 3436   1.682   3.519   1.560 -0.4691 -1.2213 -0.5000
  841SOL    MW4 3437   1.754   3.490   1.599 -0.3412 -0.6118 -0.2793
  842SOL     OW 3438   2.014   3.630   1.494  0.2219  0.8256  0.6794
  842SOL    HW2 3439   2.095   3.584   1.515  0.1514  0.6393  0.5462
  842SOL    HW3 3440   1.946   3.582   1.543  0.0880  0.5271  0.1986
  842SOL    MW4 3441   2.015   3.618   1.504  0.1950  0.7617  0.5984
  843SOL     OW 3442   2.007   3.893   1.616 -0.0494  0.0662  0.0946
  843SOL    HW2 3443   2.084   3.940   1.582  0.1793 -1.4284 -1.4791
  843SOL    HW3 3444   2.027   3.801   1.603 -1.1682 -0.4377  1.7669
  843SOL    MW4 3445   2.020   3.887   1.610 -0.1667 -0.1974  0.1075
  844SOL     OW 3446   1.794   4.044   1.522 -0.0292  0.2221 -0.3765
  844SOL    HW2 3447   1.874   4.003   1.554 -0.2053  0.7623  0.7799
  844SOL    HW3 3448   1.724   3.987   1.553 -0.0640 -0.8666 -2.3349
  844SOL    MW4 3449   1.795   4.031   1.530 -0.0570  0.1502 -0.4823
  845SOL     OW 3450   1.744   4.317   1.570 -0.0843  0.4495  0.7960
  845SOL    HW2 3451   1.831   4.344   1.540 -0.5093  0.6356 -0.3095
  845SOL    HW3 3452   1.742   4.223   1.555 -0.0531  0.4357  0.8764
  845SOL    MW4 3453   1.755   4.309   1.564 -0.1363  0.4730  0.6609
  846SOL     OW 3454   1.976   4.421   1.463  0.0471 -0.2427  0.2010
  846SOL    HW2 3455   2.046   4.377   1.511  0.7890  0.9437  0.2308
  846SOL    HW3 3456   1.974   4.510   1.500 -0.5720  0.1333 -0.7200
  846SOL    MW4 3457   1.985   4.427   1.474  0.0633 -0.0367  0.0833
  847SOL     OW 3458   2.475   4.648   1.604  0.5150 -0.3197  0.3568
  847SOL    HW2 3459   2.461   4.634   1.697  0.6549  1.7059  0.7148
  847SOL    HW3 3460   2.397   4.696   1.575  1.1124  0.3062 -0.2453
  847SOL    MW4 3461   2.463   4.652   1.612  0.6125  0.0300  0.3246
  848SOL     OW 3462   2.231   0.073   1.481  0.0955  0.3891  0.3237
  848SOL    HW2 3463   2.150   0.039   1.517  0.9983 -1.3169  0.8191
  848SOL    HW3 3464   2.212   0.088   1.388 -0.5694 -0.7486  0.2642
  848SOL    MW4 3465   2.218   0.070   1.473  0.1271  0.0139  0.3811
  849SOL     OW 3466   2.226   0.321   1.563  0.0193 -0.4055 -0.2219
  849SOL    HW2 3467   2.196   0.315   1.653  0.0333 -1.2182 -0.2706
  849SOL    HW3 3468   2.240   0.231   1.535  1.6542 -0.0977 -0.4828
  849SOL    MW4 3469   2.224   0.309   1.571  0.2370 -0.4721 -0.2629
  850SOL     OW 3470   2.466   0.481   1.538  0.5093  0.0367  0.3892
  850SOL    HW2 3471   2.533   0.422   1.572  0.1843 -0.8352 -0.4671
  850SOL    HW3 3472   2.385   0.430   1.543  0.2561  0.3521 -0.5097
  850SOL    MW4 3473   2.464   0.467   1.543  0.4330 -0.0367  0.1576
  851SOL     OW 3474   2.468   0.746   1.645 -0.2172  0.0182 -0.2393
  851SOL    HW2 3475   2.388   0.789   1.617  0.8759  0.9211 -2.1242
  851SOL    HW3 3476   2.459   0.656   1.613 -1.2779 -0.4064  1.2201
  851SOL    MW4 3477   2.457   0.740   1.637 -0.2129  0.0814 -0.2954
  852SOL     OW 3478   2.234   0.880   1.551 -0.1277 -0.1739  0.2207
  852SOL    HW2 3479   2.227   0.968   1.586 -0.0339 -0.0167 -0.1482
  852SOL    HW3 3480   2.230   0.892   1.456 -0.5171 -0.6028  0.1843
  852SOL    MW4 3481   2.233   0.893   1.543 -0.1667 -0.2098  0.1671
  853SOL     OW 3482   2.226   1.165   1.619  0.2499 -0.0141 -0.2849
  853SOL    HW2 3483   2.224   1.165   1.715 -0.0822 -0.8552 -0.2868
  853SOL    HW3 3484   2.158   1.228   1.594  0.1322 -0.0134  0.0297
  853SOL    MW4 3485   2.216   1.173   1.629  0.1907 -0.1249 -0.2437
  854SOL     OW 3486   2.466   1.266   1.538  0.2195 -0.0114 -0.1790
  854SOL    HW2 3487   2.380   1.233   1.564  0.1636 -0.3551 -0.7756
  854SOL    HW3 3488   2.460   1.278   1.443  0.7553  0.1805 -0.1951
  854SOL    MW4 3489   2.454   1.263   1.529  0.2832 -0.0312 -0.2599
  855SOL     OW 3490   2.492   1.541   1.590 -0.0201 -0.4781  0.1921
  855SOL    HW2 3491   2.577   1.574   1.561 -0.2852 -0.5279 -0.6583
  855SOL    HW3 3492   2.498   1.446   1.580  0.7394 -0.7091  2.6343
  855SOL    MW4 3493   2.504   1.533   1.585  0.0451 -0.5152  0.4021
  856SOL     OW 3494   2.247   1.636   1.458 -0.1999 -0.1456 -0.3530
  856SOL    HW2 3495   2.332   1.610   1.493 -0.2432  1.4652  0.9375
  856SOL    HW3 3496   2.256   1.621   1.363  2.2607  2.0720 -0.5163
  856SOL    MW4 3497   2.260   1.630   1.450  0.1192  0.3597 -0.2044
  857SOL     OW 3498   2.255   1.887   1.560  0.3270  0.2592 -0.1696
  857SOL    HW2 3499   2.241   1.886   1.655  0.8419 -0.8868 -0.1010
  857SOL    HW3 3500   2.261   1.795   1.536  2.8315  0.5893 -0.9454
  857SOL    MW4 3501   2.254   1.875   1.569  0.7255  0.1516 -0.2630
  858SOL     OW 3502   2.460   2.051   1.484 -0.4381  0.3742  0.1332
  858SOL    HW2 3503   2.391   1.989   1.508 -2.0068  2.2622  0.5956
  858SOL    HW3 3504   2.460   2.050   1.388 -1.5319  0.8094  0.1215
  858SOL    MW4 3505   2.451   2.042   1.474 -0.7892  0.6807  0.1928
  859SOL     OW 3506   2.477   2.311   1.598 -0.3213 -0.2258  1.0257
  859SOL    HW2 3507   2.483   2.295   1.692  1.1278 -1.8490  0.6825
  859SOL    HW3 3508   2.476   2.224   1.559 -0.1741  0.4475 -0.5059
  859SOL    MW4 3509   2.477   2.297   1.605 -0.1109 -0.3514  0.7783
  860SOL     OW 3510   2.261   2.460   1.501  0.0972 -0.1667  0.2000
  860SOL    HW2 3511   2.325   2.404   1.544  0.3221 -0.2419 -0.2289
  860SOL    HW3 3512   2.176   2.419   1.521  0.1606  0.0382  0.9216
  860SOL    MW4 3513   2.258   2.447   1.509  0.1352 -0.1493  0.2385
  861SOL     OW 3514   2.248   2.726   1.593  0.5357  0.5282 -0.0842
  861SOL    HW2 3515   2.246   2.636   1.559  0.4190  0.1526  0.9062
  861SOL    HW3 3516   2.166   2.765   1.564 -0.3970 -0.3693  1.3117
  861SOL    MW4 3517   2.237   2.719   1.584  0.3974  0.3605  0.2307
  862SOL     OW 3518   2.493   2.822   1.488  0.1383  0.0295  0.0740
  862SOL    HW2 3519   2.492   2.909   1.529  2.2331 -0.4632  1.2070
  862SOL    HW3 3520   2.413   2.779   1.521 -0.3883  1.1507  0.2915
  862SOL    MW4 3521   2.482   2.828   1.498  0.3450  0.1125  0.2520
  863SOL     OW 3522   2.492   3.073   1.622  0.5878  0.4475  0.1728
  863SOL    HW2 3523   2.570   3.111   1.582  0.1051  0.4444 -0.7986
  863SOL    HW3 3524   2.420   3.129   1.591  0.0161 -0.5384 -0.3002
  863SOL    MW4 3525   2.493   3.086   1.612  0.4487  0.3166 -0.0179
  864SOL     OW 3526   2.266   3.210   1.502 -0.1164 -0.4868 -0.4668
  864SOL    HW2 3527   2.259   3.299   1.536 -1.9636 -0.9269  0.3884
  864SOL    HW3 3528   2.241   3.218   1.410  0.3656 -0.0271 -0.5605
  864SOL    MW4 3529   2.262   3.223   1.494 -0.2966 -0.4842 -0.3662
  865SOL     OW 3530   2.221   3.479   1.587 -0.2906 -0.0728  0.1269
  865SOL    HW2 3531   2.223   3.475   1.683 -0.2594 -0.0272  0.1280
  865SOL    HW3 3532   2.297   3.533   1.563 -0.2386 -0.1678  0.0723
  865SOL    MW4 3533   2.232   3.485   1.596 -0.2797 -0.0794  0.1198
  866SOL     OW 3534   2.452   3.598   1.501  0.1006 -0.0466  0.0976
  866SOL    HW2 3535   2.524   3.549   1.540  0.0181  0.2065  0.5735
  866SOL    HW3 3536   2.463   3.688   1.534 -0.5856 -0.0680  0.3996
  866SOL    MW4 3537   2.463   3.604   1.511 -0.0010 -0.0162  0.2002
  867SOL     OW 3538   2.441   3.860   1.585 -0.0781  0.9592 -0.2429
  867SOL    HW2 3539   2.454   3.866   1.679  0.2145 -0.5000 -0.1817
  867SOL    HW3 3540   2.517   3.904   1.547  0.1916  0.8649  0.1859
  867SOL    MW4 3541   2.453   3.867   1.592 -0.0038  0.7541 -0.1782
  868SOL     OW 3542   2.225   4.038   1.525  0.2100 -0.5331 -1.1967
  868SOL    HW2 3543   2.314   4.014   1.549  0.2284  0.8317  0.1654
  868SOL    HW3 3544   2.218   4.015   1.432  1.3655 -2.3630 -0.8686
  868SOL    MW4 3545   2.236   4.032   1.516  0.3648 -0.5946 -0.9738
  869SOL     OW 3546   2.197   4.292   1.599 -0.3733  0.2338 -0.0934
  869SOL    HW2 3547   2.283   4.322   1.571 -0.6824  1.1248 -0.1060
  869SOL    HW3 3548   2.198   4.197   1.584  0.9672  0.0752  0.8747
  869SOL    MW4 3549   2.209   4.283   1.594 -0.2372  0.3304  0.0327
  870SOL     OW 3550   2.451   4.386   1.511 -0.1921  0.1749  0.0029
  870SOL    HW2 3551   2.469   4.478   1.533  0.5644 -0.1067  0.5809
  870SOL    HW3 3552   2.464   4.381   1.417  1.8902  0.1945  0.2661
  870SOL    MW4 3553   2.455   4.398   1.502  0.1824  0.1402  0.1138
  871SOL     OW 3554   2.872   0.004   1.574  0.2252  0.3961  0.0544
  871SOL    HW2 3555   2.843   0.009   1.665  0.7063 -0.8459  0.2854
  871SOL    HW3 3556   2.803   0.047   1.524 -0.1267  0.9224  0.9837
  871SOL    MW4 3557   2.859   0.010   1.580  0.2422  0.3018  0.2075
  872SOL     OW 3558   2.649   0.118   1.441 -0.3041  0.1646  0.2116
  872SOL    HW2 3559   2.653   0.185   1.509 -1.5082  0.5174 -0.0476
  872SOL    HW3 3560   2.594   0.049   1.478  1.6131 -1.0733  0.7979
  872SOL    MW4 3561   2.642   0.118   1.455 -0.2098  0.0478  0.2549
  873SOL     OW 3562   2.677   0.321   1.631 -0.0783 -0.0441  0.4039
  873SOL    HW2 3563   2.656   0.354   1.718  0.7507  0.4300  0.4230
  873SOL    HW3 3564   2.754   0.370   1.604 -0.3115 -0.2063 -0.5915
  873SOL    MW4 3565   2.684   0.332   1.639  0.0002 -0.0030  0.2750
  874SOL     OW 3566   2.890   0.467   1.551  0.0312 -0.9033 -0.2406
  874SOL    HW2 3567   2.891   0.556   1.585  0.4050 -0.7664 -0.6128
  874SOL    HW3 3568   2.912   0.476   1.459  1.9613 -1.5589  0.1323
  874SOL    MW4 3569   2.893   0.480   1.544  0.3352 -0.9718 -0.2406
  875SOL     OW 3570   2.897   0.726   1.640 -0.4142 -0.1607 -0.4787
  875SOL    HW2 3571   2.910   0.755   1.730 -1.1123  0.2861 -0.5240
  875SOL    HW3 3572   2.823   0.777   1.608 -0.0820 -0.2180 -1.3537
  875SOL    MW4 3573   2.889   0.736   1.648 -0.4625 -0.1093 -0.6000
  876SOL     OW 3574   2.696   0.863   1.516 -0.1184  0.7073 -0.1191
  876SOL    HW2 3575   2.616   0.816   1.538 -0.0203  0.2103 -0.8157
  876SOL    HW3 3576   2.696   0.869   1.421  0.8864  0.3107 -0.1545
  876SOL    MW4 3577   2.686   0.858   1.506  0.0272  0.5893 -0.2158
  877SOL     OW 3578   2.689   1.134   1.624  0.0965 -0.0120  0.2851
  877SOL    HW2 3579   2.706   1.050   1.582 -0.5334 -0.9693  1.9111
  877SOL    HW3 3580   2.602   1.159   1.592  0.3972  0.1646 -0.4089
  877SOL    MW4 3581   2.680   1.126   1.614  0.0529 -0.1152  0.4081
  878SOL     OW 3582   2.904   1.286   1.547  0.3660  0.4753  0.4397
  878SOL    HW2 3583   2.987   1.242   1.561 -0.0306  0.0056  1.3524
  878SOL    HW3 3584   2.839   1.229   1.588 -0.3484  1.0944  0.1926
  878SOL    MW4 3585   2.906   1.273   1.554  0.2193  0.4950  0.5274
  879SOL     OW 3586   2.924   1.540   1.625  0.0366  0.1139  0.0430
  879SOL    HW2 3587   2.848   1.579   1.583  0.7454  1.0642 -0.3667
  879SOL    HW3 3588   2.909   1.445   1.619 -1.2883  0.2994  0.3094
  879SOL    MW4 3589   2.912   1.533   1.619 -0.0446  0.2637  0.0242
  880SOL     OW 3590   2.715   1.679   1.498 -0.1518 -0.4785  0.1871
  880SOL    HW2 3591   2.719   1.774   1.513 -1.1945 -0.3136 -0.5049
  880SOL    HW3 3592   2.723   1.669   1.404 -1.3893 -0.9815  0.1231
  880SOL    MW4 3593   2.716   1.690   1.488 -0.4525 -0.5231  0.0874
  881SOL     OW 3594   2.710   1.943   1.595  0.3375  0.8190 -0.1733
  881SOL    HW2 3595   2.684   1.923   1.685  0.1773 -1.5837 -0.7235
  881SOL    HW3 3596   2.633   1.984   1.556 -0.4693 -0.4476  0.0662
  881SOL    MW4 3597   2.697   1.945   1.602  0.2098  0.3349 -0.2143
  882SOL     OW 3598   2.926   2.100   1.541 -0.0921 -0.1217 -0.0452
  882SOL    HW2 3599   2.923   2.192   1.567  2.8885 -0.3543  1.3874
  882SOL    HW3 3600   2.837   2.068   1.552 -0.8303  2.1872  0.9830
  882SOL    MW4 3601   2.914   2.108   1.546  0.2034  0.1523  0.2794
  883SOL     OW 3602   2.921   2.370   1.599 -0.3094 -0.3126  0.0558
  883SOL    HW2 3603   2.907   2.369   1.694 -0.8188  0.1060 -0.0077
  883SOL    HW3 3604   2.838   2.403   1.564  0.5732  1.4327 -0.4117
  883SOL    MW4 3605   2.908   2.374   1.607 -0.2604 -0.0269 -0.0142
  884SOL     OW 3606   2.684   2.472   1.513 -0.1425 -0.0008  0.0640
  884SOL    HW2 3607   2.688   2.557   1.558 -0.7002 -1.1982  2.4314
  884SOL    HW3 3608   2.611   2.426   1.554  2.4734 -3.0895  1.4639
  884SOL    MW4 3609   2.675   2.477   1.524  0.1292 -0.5665  0.5610
  885SOL     OW 3610   2.723   2.708   1.613 -0.6481 -0.2581  0.2067
  885SOL    HW2 3611   2.796   2.754   1.572 -0.3505 -0.2108  0.7770
  885SOL    HW3 3612   2.645   2.741   1.568 -0.4269  0.7041  0.5005
  885SOL    MW4 3613   2.722   2.719   1.602 -0.5796 -0.1252  0.3208
  886SOL     OW 3614   2.937   2.826   1.488 -0.2476 -0.5423  0.1738
  886SOL    HW2 3615   3.008   2.783   1.535 -0.0406  0.4045  0.7241
  886SOL    HW3 3616   2.941   2.918   1.514 -1.2095 -0.3310 -0.3573
  886SOL    MW4 3617   2.947   2.832   1.497 -0.3474 -0.3896  0.1763
  887SOL     OW 3618   2.935   3.092   1.563  0.5092  0.1860  0.1883
  887SOL    HW2 3619   2.932   3.097   1.659 -0.1918 -0.7581  0.2295
  887SOL    HW3 3620   3.002   3.155   1.538  1.2523 -0.1196  1.3512
  887SOL    MW4 3621   2.943   3.101   1.573  0.5147  0.0210  0.3470
  888SOL     OW 3622   2.694   3.202   1.503 -0.0969  0.3610  1.0967
  888SOL    HW2 3623   2.779   3.160   1.515 -1.4937 -1.9830  3.4190
  888SOL    HW3 3624   2.680   3.201   1.408  1.9304 -0.2918  0.7841
  888SOL    MW4 3625   2.704   3.196   1.492 -0.0136 -0.0343  1.3620
  889SOL     OW 3626   2.676   3.462   1.592  0.6600 -0.0854  0.0567
  889SOL    HW2 3627   2.681   3.373   1.556  0.7175  0.4161 -1.2065
  889SOL    HW3 3628   2.662   3.449   1.685 -1.8691 -1.4114 -0.4605
  889SOL    MW4 3629   2.675   3.449   1.599  0.3338 -0.1938 -0.1782
  890SOL     OW 3630   2.925   3.615   1.499 -0.0031 -0.1752 -0.1712
  890SOL    HW2 3631   2.855   3.554   1.526 -1.2079  1.0449 -0.4893
  890SOL    HW3 3632   2.909   3.629   1.406  1.4019 -0.8077 -0.5179
  890SOL    MW4 3633   2.913   3.609   1.490  0.0234 -0.0978 -0.2589
  891SOL     OW 3634   2.901   3.856   1.611 -0.2319  0.2332  0.1385
  891SOL    HW2 3635   2.820   3.896   1.578 -0.6554 -0.1621  0.6967
  891SOL    HW3 3636   2.903   3.769   1.572 -0.2969  0.0822  0.4688
  891SOL    MW4 3637   2.891   3.850   1.602 -0.2966  0.1612  0.2556
  892SOL     OW 3638   2.676   3.980   1.512  0.1217 -0.2854 -0.4819
  892SOL    HW2 3639   2.673   4.062   1.561 -0.8498  0.3617 -1.6156
  892SOL    HW3 3640   2.682   4.006   1.420  0.0996 -1.4770 -0.8361
  892SOL    MW4 3641   2.676   3.994   1.506 -0.0091 -0.3572 -0.6783
  893SOL     OW 3642   2.661   4.238   1.617  0.0398 -0.4594  0.3372
  893SOL    HW2 3643   2.731   4.281   1.568  1.0003 -0.4351  1.6820
  893SOL    HW3 3644   2.582   4.287   1.594  0.4977 -0.3452 -1.0219
  893SOL    MW4 3645   2.660   4.250   1.608  0.2270 -0.4416  0.3353
  894SOL     OW 3646   2.861   4.396   1.494 -0.2635 -0.0202 -0.1742
  894SOL    HW2 3647   2.852   4.486   1.525 -0.5862 -0.6763  1.6860
  894SOL    HW3 3648   2.863   4.403   1.398 -1.0815  1.8871 -0.0565
  894SOL    MW4 3649   2.860   4.409   1.485 -0.4141  0.1450  0.0868
  895SOL     OW 3650   3.332   4.639   1.612 -0.0963  0.4948  0.6593
  895SOL    HW2 3651   3.407   4.692   1.586 -1.0331  1.4407 -0.1799
  895SOL    HW3 3652   3.335   4.563   1.555 -0.2106  0.9181  0.0752
  895SOL    MW4 3653   3.342   4.636   1.601 -0.2351  0.6752  0.4715
  896SOL     OW 3654   3.124   0.112   1.522  0.3111  0.1732 -0.1110
  896SOL    HW2 3655   3.190   0.059   1.567 -0.5373 -1.8497 -1.1937
  896SOL    HW3 3656   3.040   0.078   1.551 -0.2548  0.3338 -1.4875
  896SOL    MW4 3657   3.122   0.101   1.532  0.1245 -0.0725 -0.4356
  897SOL     OW 3658   3.151   0.388   1.610  0.0341  0.0490  0.3202
  897SOL    HW2 3659   3.149   0.300   1.573  0.6750 -0.1703  0.7948
  897SOL    HW3 3660   3.060   0.419   1.606 -0.4939 -1.2705  1.6835
  897SOL    MW4 3661   3.139   0.381   1.605  0.0489 -0.1540  0.5628
  898SOL     OW 3662   3.372   0.508   1.501  0.5135  0.0269  0.3498
  898SOL    HW2 3663   3.305   0.448   1.536  1.2659 -0.4132  1.0510
  898SOL    HW3 3664   3.360   0.504   1.406  1.5612 -2.4659  0.2710
  898SOL    MW4 3665   3.362   0.499   1.493  0.7513 -0.3601  0.4320
  899SOL     OW 3666   3.343   0.769   1.590  0.1203  0.0425 -0.1538
  899SOL    HW2 3667   3.367   0.762   1.682 -0.3192  0.3289 -0.0186
  899SOL    HW3 3668   3.351   0.679   1.556 -1.2636 -0.3463  0.5393
  899SOL    MW4 3669   3.347   0.756   1.597 -0.1204  0.0290 -0.0445
  900SOL     OW 3670   3.096   0.885   1.518  0.0463  0.1112 -0.1249
  900SOL    HW2 3671   3.176   0.854   1.561  0.2196  2.0841  1.0502
  900SOL    HW3 3672   3.027   0.826   1.548  0.9433 -1.2387 -0.6693
  900SOL    MW4 3673   3.098   0.873   1.527  0.1874  0.1934 -0.0415
  901SOL     OW 3674   3.128   1.153   1.592  0.3958 -0.1432 -0.4382
  901SOL    HW2 3675   3.147   1.154   1.686  0.1350  0.0448 -0.3858
  901SOL    HW3 3676   3.116   1.060   1.571 -2.1452 -0.0097  0.2526
  901SOL    MW4 3677   3.129   1.141   1.602  0.0260 -0.1009 -0.3401
  902SOL     OW 3678   3.359   1.257   1.507  0.2297 -0.0452  0.0422
  902SOL    HW2 3679   3.427   1.209   1.554  0.1170  0.7259  1.0079
  902SOL    HW3 3680   3.277   1.215   1.534  0.1798  0.2599  0.3563
  902SOL    MW4 3681   3.357   1.245   1.517  0.2081  0.0968  0.2112
  903SOL     OW 3682   3.366   1.540   1.592  0.0835  0.1625 -0.0286
  903SOL    HW2 3683   3.398   1.527   1.682 -0.4974  1.3659  0.3617
  903SOL    HW3 3684   3.360   1.452   1.556 -2.1644 -0.5401  1.9812
  903SOL    MW4 3685   3.370   1.527   1.599 -0.2899  0.2286  0.2881
  904SOL     OW 3686   3.134   1.675   1.511 -0.0925  0.1804 -0.1957
  904SOL    HW2 3687   3.213   1.635   1.546 -0.5684  0.0326  0.7431
  904SOL    HW3 3688   3.062   1.627   1.554 -0.6708  1.5513  0.3819
  904SOL    MW4 3689   3.135   1.663   1.521 -0.2315  0.3417  0.0044
  905SOL     OW 3690   3.134   1.944   1.592  0.2861  0.6561 -0.1534
  905SOL    HW2 3691   3.123   1.855   1.558  0.0772  1.0619 -1.1509
  905SOL    HW3 3692   3.046   1.982   1.588  0.7122  1.5043 -1.3952
  905SOL    MW4 3693   3.121   1.937   1.587  0.3145  0.8216 -0.4488
  906SOL     OW 3694   3.393   2.014   1.530  0.3078  0.5554  0.3981
  906SOL    HW2 3695   3.303   1.996   1.558 -0.0812  1.0026 -0.5560
  906SOL    HW3 3696   3.385   2.039   1.438  1.2008  2.2935  0.7709
  906SOL    MW4 3697   3.380   2.015   1.522  0.3743  0.8438  0.3214
  907SOL     OW 3698   3.356   2.272   1.634 -0.0089 -0.1873  0.2187
  907SOL    HW2 3699   3.436   2.320   1.612  1.3011 -1.1294  2.6745
  907SOL    HW3 3700   3.371   2.185   1.597  0.2992 -0.4779  1.0076
  907SOL    MW4 3701   3.369   2.267   1.626  0.2043 -0.3500  0.6468
  908SOL     OW 3702   3.164   2.447   1.502  0.0582  0.1869  0.2601
  908SOL    HW2 3703   3.235   2.400   1.545 -0.1860 -2.2854 -1.9477
  908SOL    HW3 3704   3.086   2.425   1.553  0.1084 -1.0073 -0.1736
  908SOL    MW4 3705   3.163   2.438   1.515  0.0327 -0.2968 -0.0883
  909SOL     OW 3706   3.158   2.693   1.619 -0.5192  0.3947 -0.3643
  909SOL    HW2 3707   3.239   2.729   1.585 -1.1842  1.5985 -0.6957
  909SOL    HW3 3708   3.151   2.607   1.578 -0.3459  1.0506 -1.7746
  909SOL    MW4 3709   3.167   2.686   1.609 -0.5841  0.6402 -0.5941
  910SOL     OW 3710   3.380   2.836   1.519  0.5806 -0.1446 -0.1282
  910SOL    HW2 3711   3.355   2.923   1.549 -1.8309 -0.6570 -0.5479
  910SOL    HW3 3712   3.392   2.846   1.425 -2.8101 -0.8868 -0.7004
  910SOL    MW4 3713   3.378   2.848   1.511 -0.1850 -0.3102 -0.2592
  911SOL     OW 3714   3.346   3.116   1.605  0.3431 -0.1450  0.7185
  911SOL    HW2 3715   3.373   3.122   1.697  0.5542  1.6288  0.5465
  911SOL    HW3 3716   3.417   3.158   1.556 -2.3784  4.2009  0.2278
  911SOL    MW4 3717   3.359   3.122   1.611  0.0117  0.6626  0.6312
  912SOL     OW 3718   3.135   3.245   1.431 -0.3392 -0.5355 -0.3008
  912SOL    HW2 3719   3.213   3.216   1.478 -0.6980  0.4412  0.9537
  912SOL    HW3 3720   3.156   3.231   1.339  0.9720 -1.1139  0.0644
  912SOL    MW4 3721   3.148   3.240   1.425 -0.2136 -0.4830 -0.0870
  913SOL     OW 3722   3.171   3.477   1.545  0.3086 -0.2947 -0.3066
  913SOL    HW2 3723   3.151   3.389   1.513 -1.2669 -0.5851  1.3869
  913SOL    HW3 3724   3.096   3.530   1.518  1.2660  0.5623 -1.3436
  913SOL    MW4 3725   3.159   3.473   1.537  0.2270 -0.2198 -0.2201
  914SOL     OW 3726   3.381   3.650   1.474  0.5659 -0.2522  0.3621
  914SOL    HW2 3727   3.455   3.613   1.521 -0.1660 -1.5943  0.4719
  914SOL    HW3 3728   3.306   3.596   1.499 -0.3989  0.8903  0.0111
  914SOL    MW4 3729   3.381   3.638   1.483  0.3421 -0.2785  0.3302
  915SOL     OW 3730   3.320   3.882   1.609 -0.3330  0.2589 -0.2023
  915SOL    HW2 3731   3.248   3.931   1.568  0.1308  1.1320  0.0203
  915SOL    HW3 3732   3.325   3.800   1.559 -1.0459  0.4792 -0.6438
  915SOL    MW4 3733   3.311   3.878   1.597 -0.3657  0.4032 -0.2311
  916SOL     OW 3734   3.130   3.965   1.233  0.2829  0.0394 -0.3805
  916SOL    HW2 3735   3.120   4.054   1.200  1.7814  0.2919 -0.1633
  916SOL    HW3 3736   3.140   3.975   1.328  0.7153 -0.3334 -0.3845
  916SOL    MW4 3737   3.130   3.978   1.241  0.5376  0.0234 -0.3525
  917SOL     OW 3738   3.096   4.276   1.588 -0.2696  0.3738  0.1684
  917SOL    HW2 3739   3.093   4.253   1.681  1.3258  1.4590  0.5016
  917SOL    HW3 3740   3.012   4.319   1.572 -0.8440 -0.4511  0.9362
  917SOL    MW4 3741   3.084   4.279   1.598 -0.1347  0.4082  0.3136
  918SOL     OW 3742   3.363   4.400   1.482  0.0163  0.3978 -0.2867
  918SOL    HW2 3743   3.291   4.359   1.530 -0.0176  1.3886  0.5175
  918SOL    HW3 3744   3.345   4.378   1.390 -0.6187 -0.4191  0.0162
  918SOL    MW4 3745   3.351   4.391   1.476 -0.0720  0.4210 -0.1407
  919SOL     OW 3746   3.792   0.019   1.614 -0.1087 -0.1022 -0.0651
  919SOL    HW2 3747   3.799   0.041   1.707 -0.6946  0.3532 -0.1260
  919SOL    HW3 3748   3.870   0.059   1.575 -0.0667  0.0430  0.1633
  919SOL    MW4 3749   3.803   0.027   1.621 -0.1805 -0.0230 -0.0430
  920SOL     OW 3750   3.542   0.107   1.520 -0.1971 -0.1225 -0.0010
  920SOL    HW2 3751   3.630   0.080   1.546  0.0252 -0.1594 -0.7592
  920SOL    HW3 3752   3.543   0.101   1.424 -1.0450 -0.1933 -0.0123
  920SOL    MW4 3753   3.554   0.102   1.510 -0.2794 -0.1367 -0.1026
  921SOL     OW 3754   3.571   0.353   1.615  0.3574  0.6817  0.1384
  921SOL    HW2 3755   3.556   0.264   1.584  1.5110 -0.0056  1.4978
  921SOL    HW3 3756   3.505   0.406   1.570 -0.6523 -0.9320 -0.3025
  921SOL    MW4 3757   3.560   0.348   1.605  0.3762  0.3781  0.2596
  922SOL     OW 3758   3.773   0.516   1.515 -0.0715  0.6707 -0.1159
  922SOL    HW2 3759   3.712   0.445   1.533  3.5820 -2.6437 -0.3384
  922SOL    HW3 3760   3.773   0.524   1.420  1.5286 -0.9139 -0.2641
  922SOL    MW4 3761   3.765   0.508   1.505  0.6218  0.0243 -0.1647
  923SOL     OW 3762   3.772   0.770   1.649  0.5848 -0.0102  0.2771
  923SOL    HW2 3763   3.691   0.804   1.610  0.8258 -0.6763 -0.8276
  923SOL    HW3 3764   3.777   0.680   1.619  1.5301 -0.0970  0.6895
  923SOL    MW4 3765   3.762   0.763   1.640  0.7410 -0.1096  0.1858
  924SOL     OW 3766   3.570   0.865   1.485 -0.0952  0.1295  0.0058
  924SOL    HW2 3767   3.485   0.827   1.508 -0.0374  0.7299  1.2442
  924SOL    HW3 3768   3.575   0.856   1.390 -0.8870 -1.2702  0.0846
  924SOL    MW4 3769   3.559   0.859   1.475 -0.1922  0.0241  0.1798
  925SOL     OW 3770   3.588   1.111   1.613  0.5791 -0.3703 -0.1928
  925SOL    HW2 3771   3.658   1.160   1.569  0.0206 -0.8964 -1.6656
  925SOL    HW3 3772   3.589   1.025   1.572 -0.3492 -0.6813  0.4151
  925SOL    MW4 3773   3.598   1.106   1.602  0.3831 -0.4807 -0.3070
  926SOL     OW 3774   3.790   1.272   1.507  0.0333 -0.2621 -0.2201
  926SOL    HW2 3775   3.867   1.223   1.533  0.6456  0.4508 -0.6768
  926SOL    HW3 3776   3.809   1.363   1.532 -1.4640 -0.3760  1.4838
  926SOL    MW4 3777   3.802   1.278   1.513 -0.0834 -0.1831 -0.0556
  927SOL     OW 3778   3.821   1.549   1.556  0.2387 -0.0954  0.3992
  927SOL    HW2 3779   3.825   1.575   1.648 -0.5773  0.2898  0.3221
  927SOL    HW3 3780   3.745   1.595   1.521 -0.4622 -1.5849 -0.0492
  927SOL    MW4 3781   3.812   1.559   1.564  0.0384 -0.2412  0.3300
  928SOL     OW 3782   3.588   1.666   1.491  0.0303 -0.0122 -0.5216
  928SOL    HW2 3783   3.512   1.618   1.523 -1.4332  0.8247 -2.6337
  928SOL    HW3 3784   3.593   1.744   1.545  0.1725 -0.6861  0.4534
  928SOL    MW4 3785   3.579   1.670   1.502 -0.1438  0.0093 -0.6716
  929SOL     OW 3786   3.636   1.916   1.603 -0.3960 -0.3368  0.4449
  929SOL    HW2 3787   3.555   1.949   1.564 -0.8663 -1.2077  0.6584
  929SOL    HW3 3788   3.625   1.932   1.697 -0.5470 -0.9042  0.5292
  929SOL    MW4 3789   3.624   1.922   1.610 -0.4780 -0.5264  0.4842
  930SOL     OW 3790   3.838   2.068   1.501 -0.1907  0.2701  0.2150
  930SOL    HW2 3791   3.837   2.154   1.543  0.9382 -0.1471  1.1293
  930SOL    HW3 3792   3.769   2.019   1.547  0.2482  0.1877  0.7977
  930SOL    MW4 3793   3.829   2.073   1.513  0.0162  0.2043  0.4125
  931SOL     OW 3794   3.811   2.334   1.602  0.1326  0.0749 -0.4686
  931SOL    HW2 3795   3.822   2.338   1.697  0.8680 -0.1205 -0.5381
  931SOL    HW3 3796   3.895   2.363   1.567  0.4604 -1.5435 -1.0436
  931SOL    MW4 3797   3.824   2.338   1.610  0.2728 -0.1643 -0.5536
  932SOL     OW 3798   3.560   2.425   1.517  0.0802  0.3837  0.1620
  932SOL    HW2 3799   3.560   2.509   1.563 -0.3568  0.1320  0.6304
  932SOL    HW3 3800   3.644   2.385   1.541  0.3655  0.7666 -0.2079
  932SOL    MW4 3801   3.571   2.430   1.527  0.0603  0.4013  0.1751
  933SOL     OW 3802   3.593   2.688   1.620 -0.2091  0.0251 -0.2172
  933SOL    HW2 3803   3.575   2.665   1.712 -1.1782 -0.0243 -0.4234
  933SOL    HW3 3804   3.528   2.754   1.598  0.9652  1.1506 -0.4222
  933SOL    MW4 3805   3.582   2.694   1.630 -0.1819  0.1671 -0.2716
  934SOL     OW 3806   3.825   2.840   1.515  0.1886 -0.2523 -0.2798
  934SOL    HW2 3807   3.893   2.794   1.565 -0.1355  1.0731  1.4414
  934SOL    HW3 3808   3.745   2.789   1.531  0.4887 -1.0154 -1.1670
  934SOL    MW4 3809   3.823   2.827   1.524  0.1853 -0.1779 -0.1699
  935SOL     OW 3810   3.810   3.130   1.563 -0.3710  0.2095  0.3146
  935SOL    HW2 3811   3.880   3.175   1.516 -0.6367  1.0624  0.7085
  935SOL    HW3 3812   3.822   3.037   1.543  0.9534  0.3371  0.4902
  935SOL    MW4 3813   3.821   3.124   1.554 -0.2313  0.3390  0.3898
  936SOL     OW 3814   3.566   3.245   1.480  0.0378 -0.1426  0.2974
  936SOL    HW2 3815   3.643   3.207   1.521  1.1664  2.0607  0.2804
  936SOL    HW3 3816   3.585   3.244   1.387  0.0938  0.5270  0.3017
  936SOL    MW4 3817   3.578   3.240   1.473  0.1941  0.2363  0.2958
  937SOL     OW 3818   3.597   3.489   1.590  0.1895  0.1139  0.0994
  937SOL    HW2 3819   3.683   3.501   1.551 -0.0766  0.0424 -0.5241
  937SOL    HW3 3820   3.562   3.410   1.548 -1.0680  1.3725 -1.2921
  937SOL    MW4 3821   3.604   3.480   1.580 -0.0117  0.2704 -0.1664
  938SOL     OW 3822   3.818   3.605   1.473 -0.0072 -0.0343 -0.2279
  938SOL    HW2 3823   3.901   3.577   1.511 -1.0281 -0.0734  2.1252
  938SOL    HW3 3824   3.803   3.691   1.511 -0.8055  0.1839 -1.0272
  938SOL    MW4 3825   3.827   3.613   1.483 -0.2475 -0.0105 -0.0229
  939SOL     OW 3826   3.781   3.842   1.607  0.3801 -0.3044 -0.3150
  939SOL    HW2 3827   3.844   3.888   1.552  0.0336  0.5987  0.0309
  939SOL    HW3 3828   3.696   3.872   1.576  0.1428 -0.9903 -0.3242
  939SOL    MW4 3829   3.778   3.852   1.596  0.3030 -0.2756 -0.2705
  940SOL     OW 3830   3.568   3.990   1.516  0.1827  0.3217 -0.0611
  940SOL    HW2 3831   3.590   4.079   1.543  0.0641  0.6022 -0.8501
  940SOL    HW3 3832   3.485   3.971   1.559  0.7266  0.2016  0.9355
  940SOL    MW4 3833   3.560   3.999   1.525  0.2387  0.3431 -0.0337
  941SOL     OW 3834   3.590   4.277   1.572  0.7161  0.4236  0.4732
  941SOL    HW2 3835   3.579   4.283   1.666  0.1079  0.0587  0.4296
  941SOL    HW3 3836   3.503   4.299   1.536  0.1579 -2.1800  0.1041
  941SOL    MW4 3837   3.577   4.281   1.579  0.5622  0.0319  0.4187
  942SOL     OW 3838   3.820   4.438   1.529  0.2321 -0.0469  0.3710
  942SOL    HW2 3839   3.738   4.389   1.537 -0.9926  1.6042 -1.5413
  942SOL    HW3 3840   3.800   4.525   1.562  0.4880  1.0792 -2.2967
  942SOL    MW4 3841   3.806   4.443   1.534  0.1042  0.3195 -0.2334
  943SOL     OW 3842   4.213   4.642   1.584  0.1840 -0.0966  0.3663
  943SOL    HW2 3843   4.230   4.642   1.678  2.6647 -0.0042 -0.0434
  943SOL    HW3 3844   4.224   4.551   1.558  0.9691  0.1260 -0.0790
  943SOL    MW4 3845   4.216   4.630   1.593  0.6151 -0.0553  0.2536
  944SOL     OW 3846   3.992   0.127   1.468 -0.6230 -0.0076 -0.0837
  944SOL    HW2 3847   3.991   0.214   1.509 -1.5239 -0.4574  0.8443
  944SOL    HW3 3848   4.073   0.087   1.500 -1.8880 -0.8047  2.2359
  944SOL    MW4 3849   4.003   0.134   1.477 -0.9089 -0.1721  0.3449
  945SOL     OW 3850   4.007   0.378   1.587  0.1919 -0.2541 -0.2133
  945SOL    HW2 3851   4.001   0.367   1.682 -0.2404  0.0411 -0.2036
  945SOL    HW3 3852   3.930   0.431   1.565 -0.5394 -1.5854 -0.9358
  945SOL    MW4 3853   3.996   0.384   1.597  0.0379 -0.3908 -0.3073
  946SOL     OW 3854   4.249   0.456   1.490 -0.0254  0.3121  0.6024
  946SOL    HW2 3855   4.165   0.429   1.526 -0.7156 -1.3366 -2.0743
  946SOL    HW3 3856   4.311   0.391   1.525 -0.5678 -0.8522 -0.5425
  946SOL    MW4 3857   4.246   0.444   1.500 -0.1884 -0.0590  0.0982
  947SOL     OW 3858   4.223   0.708   1.638 -0.2641  0.1448  0.1969
  947SOL    HW2 3859   4.233   0.623   1.596 -0.2681  0.9630 -1.4907
  947SOL    HW3 3860   4.298   0.759   1.607 -0.7318  1.0301  0.5097
  947SOL    MW4 3861   4.234   0.704   1.628 -0.3266  0.3695  0.0155
  948SOL     OW 3862   4.005   0.861   1.535  0.2480  0.3693 -0.7467
  948SOL    HW2 3863   4.072   0.799   1.563  0.4952  0.4083 -1.2385
  948SOL    HW3 3864   3.923   0.826   1.570  0.1729 -1.0690 -2.3089
  948SOL    MW4 3865   4.003   0.848   1.543  0.2704  0.1846 -1.0178
  949SOL     OW 3866   4.020   1.144   1.588 -0.1231  0.0331 -0.3797
  949SOL    HW2 3867   3.994   1.153   1.679 -1.5724  1.0310 -0.8678
  949SOL    HW3 3868   4.020   1.050   1.572  1.2777 -0.2205  0.9379
  949SOL    MW4 3869   4.017   1.133   1.598 -0.1297  0.1314 -0.2702
  950SOL     OW 3870   4.246   1.273   1.498  0.2625 -0.0707  0.1463
  950SOL    HW2 3871   4.159   1.244   1.526  0.4376 -0.2330  0.5130
  950SOL    HW3 3872   4.306   1.207   1.532  0.4123 -0.6249 -1.1604
  950SOL    MW4 3873   4.242   1.261   1.506  0.3061 -0.1652  0.0222
  951SOL     OW 3874   4.270   1.513   1.624 -0.5587 -0.2446 -0.1063
  951SOL    HW2 3875   4.277   1.420   1.601 -1.8691 -0.2847 -0.3806
  951SOL    HW3 3876   4.345   1.554   1.581  0.4069 -1.2757  0.5712
  951SOL    MW4 3877   4.281   1.506   1.615 -0.6037 -0.3860 -0.0532
  952SOL     OW 3878   4.076   1.678   1.513  0.0331  0.1480 -0.3005
  952SOL    HW2 3879   4.140   1.610   1.532 -0.2961 -0.4544 -1.3475
  952SOL    HW3 3880   3.994   1.646   1.552  0.1193  0.4210  0.1040
  952SOL    MW4 3881   4.074   1.665   1.521  0.0014  0.1047 -0.3853
  953SOL     OW 3882   4.084   1.951   1.595  0.0041  0.1091  0.4508
  953SOL    HW2 3883   4.074   1.856   1.589  0.7005  0.1310 -1.3387
  953SOL    HW3 3884   4.006   1.987   1.551 -0.1521  0.3717  0.9342
  953SOL    MW4 3885   4.072   1.943   1.588  0.0753  0.1466  0.2786
  954SOL     OW 3886   4.268   2.111   1.476  0.0838  0.0450 -0.4429
  954SOL    HW2 3887   4.200   2.063   1.523  0.7533 -0.4223  0.0555
  954SOL    HW3 3888   4.277   2.066   1.393 -0.1839  0.0825 -0.4931
  954SOL    MW4 3889   4.260   2.099   1.471  0.1364 -0.0117 -0.3839
  955SOL     OW 3890   4.292   2.363   1.615  0.2429 -0.4166 -0.4016
  955SOL    HW2 3891   4.282   2.347   1.709 -0.7484  0.4252 -0.3442
  955SOL    HW3 3892   4.285   2.276   1.575  1.6789 -0.9016  0.3675
  955SOL    MW4 3893   4.290   2.349   1.622  0.3018 -0.3695 -0.2927
  956SOL     OW 3894   4.051   2.466   1.504 -0.1145  0.3399  0.3431
  956SOL    HW2 3895   4.016   2.536   1.558 -0.6696  0.8913 -0.7038
  956SOL    HW3 3896   4.134   2.442   1.545  0.2965  1.9347  0.4533
  956SOL    MW4 3897   4.057   2.472   1.516 -0.1335  0.6227  0.2196
  957SOL     OW 3898   4.030   2.724   1.644  0.3756 -0.2618  0.1217
  957SOL    HW2 3899   4.040   2.728   1.739  0.3362  0.9631  0.0783
  957SOL    HW3 3900   4.114   2.754   1.609  0.2766 -0.3878 -0.2270
  957SOL    MW4 3901   4.042   2.728   1.652  0.3572 -0.1168  0.0700
  958SOL     OW 3902   4.272   2.800   1.501 -0.1357  0.3437 -0.2570
  958SOL    HW2 3903   4.273   2.893   1.522 -0.2065  0.2753  0.0560
  958SOL    HW3 3904   4.250   2.796   1.408 -0.3607  0.6309 -0.2163
  958SOL    MW4 3905   4.269   2.812   1.491 -0.1740  0.3726 -0.2104
  959SOL     OW 3906   4.265   3.076   1.560 -0.3543 -0.1069  0.2992
  959SOL    HW2 3907   4.259   3.081   1.655  0.3843 -2.2736  0.4906
  959SOL    HW3 3908   4.347   3.121   1.539  0.1804 -0.8081  0.8310
  959SOL    MW4 3909   4.275   3.083   1.570 -0.1864 -0.4857  0.3947
  960SOL     OW 3910   4.050   3.231   1.463 -0.4288 -0.0820  0.9357
  960SOL    HW2 3911   4.078   3.316   1.496 -1.3217  0.1499  1.0991
  960SOL    HW3 3912   4.119   3.171   1.491  0.6513  0.7250  0.0643
  960SOL    MW4 3913   4.063   3.234   1.471 -0.4039  0.0548  0.8423
  961SOL     OW 3914   4.053   3.484   1.588 -0.1816 -0.1544 -0.2210
  961SOL    HW2 3915   4.047   3.481   1.684 -0.0897  1.1273 -0.1630
  961SOL    HW3 3916   4.119   3.551   1.570  1.0902 -1.6189 -1.1616
  961SOL    MW4 3917   4.061   3.493   1.598 -0.0019 -0.1783 -0.3375
  962SOL     OW 3918   4.252   3.660   1.484  0.0184  0.1796  0.0560
  962SOL    HW2 3919   4.259   3.751   1.513 -1.5771  0.4657 -0.4216
  962SOL    HW3 3920   4.239   3.665   1.389  0.4087 -0.5570 -0.0398
  962SOL    MW4 3921   4.251   3.673   1.475 -0.1407  0.1204 -0.0198
  963SOL     OW 3922   4.241   3.934   1.578  0.0660  0.6581  0.6970
  963SOL    HW2 3923   4.236   3.937   1.674 -0.1915 -1.0333  0.7566
  963SOL    HW3 3924   4.150   3.939   1.549  0.0429 -0.1193  0.6096
  963SOL    MW4 3925   4.229   3.935   1.587  0.0286  0.3324  0.6934
  964SOL     OW 3926   3.988   3.990   1.485 -0.4248  0.3910 -0.3025
  964SOL    HW2 3927   4.015   4.071   1.529  2.9029 -1.0819  0.4889
  964SOL    HW3 3928   4.007   4.005   1.393  0.2984  0.4557 -0.1420
  964SOL    MW4 3929   3.994   4.003   1.479  0.1099  0.2055 -0.1769
  965SOL     OW 3930   4.027   4.232   1.605  0.1126  0.0091 -0.2264
  965SOL    HW2 3931   4.031   4.245   1.699  0.1697  0.4440 -0.2864
  965SOL    HW3 3932   3.954   4.287   1.576  1.2685  1.3320 -0.6769
  965SOL    MW4 3933   4.018   4.241   1.613  0.2718  0.2413 -0.2939
  966SOL     OW 3934   4.239   4.370   1.494 -0.5558 -0.3335 -0.2162
  966SOL    HW2 3935   4.211   4.371   1.402 -0.9621  0.2471 -0.0904
  966SOL    HW3 3936   4.176   4.314   1.538  0.0469 -1.1716 -0.4168
  966SOL    MW4 3937   4.227   4.363   1.487 -0.5302 -0.3676 -0.2260
  967SOL     OW 3938   0.233   4.662   1.865 -0.4701 -0.2297 -0.0983
  967SOL    HW2 3939   0.311   4.706   1.896 -1.3659  1.8460 -0.7107
  967SOL    HW3 3940   0.245   4.655   1.770 -1.3694  0.8299 -0.3010
  967SOL    MW4 3941   0.245   4.667   1.856 -0.7070  0.1840 -0.2058
  968SOL     OW 3942   0.005   0.121   1.982 -0.0048 -0.4529 -0.1170
  968SOL    HW2 3943  -0.009   0.204   1.937  1.0783  0.3713  1.0311
  968SOL    HW3 3944   0.088   0.089   1.947 -0.1489 -0.7892 -0.1522
  968SOL    MW4 3945   0.014   0.128   1.971  0.1187 -0.3885  0.0298
  969SOL     OW 3946   4.458   0.377   1.857  0.0702 -0.2071  0.5636
  969SOL    HW2 3947   4.385   0.434   1.879 -0.9027 -1.3183  0.3058
  969SOL    HW3 3948   4.532   0.411   1.907 -0.3094  1.6998 -0.1582
  969SOL    MW4 3949   4.458   0.389   1.867 -0.1082 -0.1021  0.4343
  970SOL     OW 3950   0.189   0.488   1.988  0.2493 -0.2640  0.2516
  970SOL    HW2 3951   0.272   0.452   1.956  1.5130  1.6563  1.2562
  970SOL    HW3 3952   0.193   0.581   1.967 -1.7021 -0.1543  0.2488
  970SOL    MW4 3953   0.200   0.496   1.981  0.1585  0.0039  0.3839
  971SOL     OW 3954   0.197   0.744   1.903  0.1949 -0.0311  0.1526
  971SOL    HW2 3955   0.273   0.797   1.927 -1.0659  1.9355 -0.0266
  971SOL    HW3 3956   0.199   0.741   1.808  0.0512  0.0250  0.1474
  971SOL    MW4 3957   0.207   0.751   1.894  0.0096  0.2359  0.1281
  972SOL     OW 3958   4.432   0.871   1.985  0.1995 -0.4301 -0.1180
  972SOL    HW2 3959   4.355   0.818   1.966 -0.3348 -0.5984  2.3575
  972SOL    HW3 3960   4.507   0.814   1.964 -0.3620 -1.2405  0.0649
  972SOL    MW4 3961   4.432   0.857   1.980  0.0548 -0.5593  0.2327
  973SOL     OW 3962   4.453   1.130   1.882  0.0741  0.4969 -0.3344
  973SOL    HW2 3963   4.365   1.159   1.903  0.0707  0.2109  0.0468
  973SOL    HW3 3964   4.459   1.041   1.918  1.0316  1.0895  1.0167
  973SOL    MW4 3965   4.442   1.122   1.890  0.1998  0.5373 -0.1059
  974SOL     OW 3966   0.173   1.276   2.013 -0.2532  0.4505 -0.2540
  974SOL    HW2 3967   0.182   1.352   1.957  0.5384 -0.9475 -2.0588
  974SOL    HW3 3968   0.097   1.229   1.978  0.7233 -0.8384 -0.6713
  974SOL    MW4 3969   0.164   1.280   2.001 -0.0199  0.0958 -0.5469
  975SOL     OW 3970   0.223   1.512   1.853  0.4667 -0.1517 -0.2466
  975SOL    HW2 3971   0.296   1.543   1.906  1.3034 -1.1384 -0.7967
  975SOL    HW3 3972   0.145   1.553   1.892  1.0748 -0.7524  1.6507
  975SOL    MW4 3973   0.222   1.521   1.865  0.6573 -0.3611 -0.0688
  976SOL     OW 3974   0.010   1.628   1.993 -0.4577 -0.1062 -0.2013
  976SOL    HW2 3975   0.005   1.642   2.088 -0.0347 -0.8947 -0.0545
  976SOL    HW3 3976  -0.071   1.581   1.972  0.3301 -1.6027  0.0832
  976SOL    MW4 3977  -0.002   1.624   2.003 -0.2975 -0.4078 -0.1445
  977SOL     OW 3978   4.480   1.892   1.904 -0.3123 -0.3959 -0.3240
  977SOL    HW2 3979   4.408   1.929   1.955 -0.2315 -0.5322 -0.1098
  977SOL    HW3 3980   4.476   1.798   1.922  1.1435 -0.1779  1.2556
  977SOL    MW4 3981   4.470   1.884   1.913 -0.1092 -0.3852 -0.0874
  978SOL     OW 3982   0.230   1.996   1.972  0.1062  0.7333 -0.5113
  978SOL    HW2 3983   0.233   2.080   1.927 -0.1896  0.5493 -0.8718
  978SOL    HW3 3984   0.142   1.962   1.954  0.1317  0.4703 -0.1456
  978SOL    MW4 3985   0.219   2.002   1.964  0.0705  0.6742 -0.5106
  979SOL     OW 3986   0.236   2.266   1.864  0.2356  0.2085  0.0962
  979SOL    HW2 3987   0.170   2.331   1.886  0.0474 -0.0103  0.1781
  979SOL    HW3 3988   0.318   2.303   1.898  0.0796  0.2634  0.4143
  979SOL    MW4 3989   0.238   2.279   1.872  0.1902  0.1867  0.1490
  980SOL     OW 3990   4.260   2.888   1.989 -0.0486  0.0231  0.3827
  980SOL    HW2 3991   4.319   2.823   1.952  0.2267 -0.2933  1.3929
  980SOL    HW3 3992   4.269   2.879   2.083 -1.4999  0.1585  0.5463
  980SOL    MW4 3993   4.269   2.878   1.996 -0.2036 -0.0007  0.5375
  981SOL     OW 3994   4.444   2.721   1.864  0.3020 -0.4776  0.3873
  981SOL    HW2 3995   4.456   2.629   1.887 -1.7641 -0.8790 -0.0895
  981SOL    HW3 3996   4.457   2.724   1.769  1.1256 -0.1233  0.4996
  981SOL    MW4 3997   4.448   2.710   1.854  0.1378 -0.4838  0.3393
  982SOL     OW 3998   0.196   2.832   1.975 -0.0567  0.0578 -0.2744
  982SOL    HW2 3999   0.194   2.915   1.928  0.1045 -0.6299 -1.4956
  982SOL    HW3 4000   0.109   2.795   1.964  0.1427 -0.3542 -0.4651
  982SOL    MW4 4001   0.184   2.838   1.968 -0.0091 -0.0875 -0.4607
  983SOL     OW 4002   0.192   3.059   1.838 -0.3391 -0.2618  0.1963
  983SOL    HW2 4003   0.264   3.115   1.866 -2.0333  1.9685  0.2417
  983SOL    HW3 4004   0.198   3.058   1.742  0.2231 -0.7179  0.2385
  983SOL    MW4 4005   0.202   3.067   1.829 -0.4885 -0.0277  0.2078
  984SOL     OW 4006   4.484   3.207   1.920  0.2124 -0.0827  0.0356
  984SOL    HW2 4007   4.404   3.162   1.894  0.9106 -1.4233  0.1440
  984SOL    HW3 4008   4.555   3.154   1.883  1.0824  0.5227  0.7939
  984SOL    MW4 4009   4.483   3.194   1.912  0.4191 -0.1798  0.1500
  985SOL     OW 4010   4.483   3.482   1.866 -0.1057 -0.0781  0.0075
  985SOL    HW2 4011   4.560   3.525   1.902  0.2790  1.2533 -2.3467
  985SOL    HW3 4012   4.494   3.390   1.890  1.2011  0.4093  1.3717
  985SOL    MW4 4013   4.494   3.475   1.874  0.1183  0.1616 -0.1231
  986SOL     OW 4014   0.207   3.630   1.979  0.0105 -0.3650  0.0147
  986SOL    HW2 4015   0.209   3.598   2.069  1.0749 -0.8166 -0.1551
  986SOL    HW3 4016   0.281   3.586   1.936  0.7522  1.3797 -0.5527
  986SOL    MW4 4017   0.217   3.620   1.985  0.2488 -0.1945 -0.0825
  987SOL     OW 4018   0.198   3.886   1.849  0.0869  0.0608 -0.0881
  987SOL    HW2 4019   0.278   3.928   1.878  0.2500 -0.1926 -0.1669
  987SOL    HW3 4020   0.197   3.802   1.895  0.3890 -0.3775 -0.8715
  987SOL    MW4 4021   0.208   3.880   1.859  0.1483 -0.0305 -0.2018
  988SOL     OW 4022   4.479   4.023   1.958 -0.2651 -0.0460 -0.2467
  988SOL    HW2 4023   4.492   4.116   1.938 -0.4773  0.3004  1.1443
  988SOL    HW3 4024   4.544   3.977   1.906  0.0123  0.9132 -0.7525
  988SOL    MW4 4025   4.489   4.029   1.949 -0.2565  0.1264 -0.1299
  989SOL     OW 4026   0.025   4.269   1.823 -0.3014 -0.2333  0.2479
  989SOL    HW2 4027  -0.049   4.318   1.859 -0.0871  0.1100  0.2270
  989SOL    HW3 4028   0.097   4.286   1.885  0.0995  0.4420 -0.3893
  989SOL    MW4 4029   0.025   4.277   1.836 -0.2202 -0.0987  0.1612
  990SOL     OW 4030   0.223   4.396   1.960  0.1495  0.1148 -0.0280
  990SOL    HW2 4031   0.209   4.408   2.053  1.3231 -0.1315  0.1951
  990SOL    HW3 4032   0.202   4.481   1.921 -1.3545 -0.0896  0.3266
  990SOL    MW4 4033   0.218   4.409   1.967  0.1059  0.0548  0.0484
  991SOL     OW 4034   0.683   0.013   1.871  0.1280 -0.3453  0.1858
  991SOL    HW2 4035   0.664  -0.069   1.917 -0.9943  0.1987  0.7189
  991SOL    HW3 4036   0.706  -0.014   1.782 -1.0019 -1.2011  0.1433
  991SOL    MW4 4037   0.683  -0.002   1.866 -0.1692 -0.3864  0.2505
  992SOL     OW 4038   0.451   0.121   1.966  0.2176 -0.0203 -0.1408
  992SOL    HW2 4039   0.434   0.212   1.940 -1.9072 -0.1349  0.7576
  992SOL    HW3 4040   0.535   0.100   1.925  0.5673  2.2293 -0.6558
  992SOL    MW4 4041   0.460   0.131   1.957 -0.0166  0.2614 -0.0901
  993SOL     OW 4042   0.430   0.375   1.891  0.0683  0.1167 -0.2694
  993SOL    HW2 4043   0.507   0.424   1.917 -0.5237  0.4703  0.8699
  993SOL    HW3 4044   0.418   0.396   1.799 -0.5017  2.5794  0.3264
  993SOL    MW4 4045   0.438   0.384   1.883 -0.0851  0.4883 -0.0405
  994SOL     OW 4046   0.664   0.520   1.978  0.2104 -0.6501 -0.5203
  994SOL    HW2 4047   0.670   0.522   2.074  0.2387 -1.4963 -0.4951
  994SOL    HW3 4048   0.740   0.468   1.951  0.5233  0.0780 -1.0389
  994SOL    MW4 4049   0.675   0.513   1.987  0.2554 -0.6657 -0.5853
  995SOL     OW 4050   0.672   0.809   1.924 -0.2076 -0.2755 -0.0348
  995SOL    HW2 4051   0.756   0.840   1.956  0.4670 -0.3033 -1.7389
  995SOL    HW3 4052   0.681   0.714   1.920 -0.0026 -0.2282 -1.0113
  995SOL    MW4 4053   0.684   0.801   1.927 -0.0916 -0.2729 -0.3885
  996SOL     OW 4054   0.405   0.906   2.033 -0.0900 -0.3372  0.3959
  996SOL    HW2 4055   0.402   0.998   2.006 -1.2393 -0.1629  1.0548
  996SOL    HW3 4056   0.484   0.871   1.992  0.3620  0.9470  0.1447
  996SOL    MW4 4057   0.415   0.913   2.024 -0.1820 -0.1448  0.4499
  997SOL     OW 4058   0.416   1.204   1.938  0.6181 -0.4655 -0.2285
  997SOL    HW2 4059   0.335   1.244   1.967  1.5130  0.7648  0.6042
  997SOL    HW3 4060   0.399   1.178   1.847 -0.8272 -0.6058  0.0689
  997SOL    MW4 4061   0.403   1.206   1.930  0.5455 -0.3217 -0.0795
  998SOL     OW 4062   0.654   1.301   2.012  0.2088 -0.0509  0.0128
  998SOL    HW2 4063   0.651   1.307   2.107  1.3749  1.0256 -0.0105
  998SOL    HW3 4064   0.571   1.260   1.988 -0.4133  0.3506  1.4431
  998SOL    MW4 4065   0.642   1.296   2.021  0.2806  0.1442  0.1986
  999SOL     OW 4066   0.719   1.558   1.888 -1.2031  0.4467  0.0221
  999SOL    HW2 4067   0.716   1.466   1.915 -1.0284  0.3990 -0.1195
  999SOL    HW3 4068   0.731   1.554   1.793  0.6668  0.6174  0.2309
  999SOL    MW4 4069   0.720   1.545   1.879 -0.9333  0.4629  0.0309
 1000SOL     OW 4070   0.461   1.610   1.984 -0.2399  0.2814  0.4692
 1000SOL    HW2 4071   0.451   1.617   2.079  0.1831 -1.1587  0.6340
 1000SOL    HW3 4072   0.555   1.592   1.972 -0.2704  0.5825 -0.2295
 1000SOL    MW4 4073   0.472   1.609   1.995 -0.1881  0.1311  0.3989
 1001SOL     OW 4074   0.464   1.864   1.876 -0.4351  0.2005 -0.6991
 1001SOL    HW2 4075   0.382   1.897   1.914  0.3284  0.0760  1.1029
 1001SOL    HW3 4076   0.469   1.773   1.904 -0.1615 -0.0857 -1.6513
 1001SOL    MW4 4077   0.453   1.857   1.884 -0.2983  0.1463 -0.5870
 1002SOL     OW 4078   0.675   2.065   1.951  0.5897  0.2268  0.0403
 1002SOL    HW2 4079   0.682   2.064   2.046  0.9770  1.0128  0.0247
 1002SOL    HW3 4080   0.610   1.997   1.931 -0.2350  0.7377  0.9304
 1002SOL    MW4 4081   0.667   2.056   1.961  0.5320  0.3979  0.1557
 1003SOL     OW 4082   0.688   2.334   1.862 -0.3259  0.6565 -0.2755
 1003SOL    HW2 4083   0.656   2.249   1.891 -0.6347  0.6029 -0.7687
 1003SOL    HW3 4084   0.685   2.329   1.766 -0.0455  1.1064 -0.3077
 1003SOL    MW4 4085   0.684   2.322   1.853 -0.3297  0.7086 -0.3448
 1004SOL     OW 4086   0.442   2.422   1.965  0.1824  0.1019 -0.2882
 1004SOL    HW2 4087   0.459   2.421   2.059  0.4185 -0.3969 -0.3365
 1004SOL    HW3 4088   0.527   2.407   1.925 -0.2284 -1.6891 -0.5384
 1004SOL    MW4 4089   0.455   2.420   1.972  0.1594 -0.2003 -0.3275
 1005SOL     OW 4090   0.407   2.672   1.851 -0.0070 -0.5510 -0.5951
 1005SOL    HW2 4091   0.415   2.596   1.910 -0.8426 -0.0113  0.2355
 1005SOL    HW3 4092   0.336   2.724   1.889  2.0020  1.7776  0.1011
 1005SOL    MW4 4093   0.398   2.669   1.864  0.1478 -0.1726 -0.3936
 1006SOL     OW 4094   0.650   2.846   1.952  0.1548  0.1688  0.3702
 1006SOL    HW2 4095   0.651   2.853   2.047  0.6850  1.6793  0.2617
 1006SOL    HW3 4096   0.568   2.801   1.932  0.5435 -1.1370  1.5883
 1006SOL    MW4 4097   0.639   2.841   1.961  0.2760  0.1960  0.5168
 1007SOL     OW 4098   0.664   3.113   1.838 -0.3394 -0.2504 -0.0132
 1007SOL    HW2 4099   0.664   3.025   1.876 -0.8692  0.6438  2.1245
 1007SOL    HW3 4100   0.704   3.102   1.751  1.1619 -2.3200  0.8993
 1007SOL    MW4 4101   0.669   3.100   1.831 -0.2112 -0.4053  0.3892
 1008SOL     OW 4102   0.428   3.238   1.951  0.0052  0.2117  0.5190
 1008SOL    HW2 4103   0.439   3.332   1.935  1.3086 -0.1218 -0.6125
 1008SOL    HW3 4104   0.505   3.197   1.910 -0.7323 -1.3799  0.6844
 1008SOL    MW4 4105   0.440   3.245   1.943  0.0799 -0.0422  0.3915
 1009SOL     OW 4106   0.423   3.502   1.875 -0.1000  0.0392  0.0703
 1009SOL    HW2 4107   0.506   3.543   1.902 -0.2246  0.2886  0.0719
 1009SOL    HW3 4108   0.431   3.491   1.780 -0.1453  0.2407  0.0438
 1009SOL    MW4 4109   0.435   3.506   1.866 -0.1224  0.0987  0.0670
 1010SOL     OW 4110   0.643   3.651   1.971 -0.5349 -0.1834 -0.3039
 1010SOL    HW2 4111   0.720   3.600   1.949 -0.7953 -0.0982 -1.4396
 1010SOL    HW3 4112   0.656   3.736   1.928 -0.6271  0.3164  0.6295
 1010SOL    MW4 4113   0.655   3.656   1.962 -0.5814 -0.1061 -0.3307
 1011SOL     OW 4114   0.641   3.894   1.844 -0.5416 -0.3078 -0.0676
 1011SOL    HW2 4115   0.716   3.935   1.887 -0.0408  0.2121 -1.4444
 1011SOL    HW3 4116   0.662   3.894   1.751 -1.8935 -0.8992 -0.3948
 1011SOL    MW4 4117   0.654   3.899   1.838 -0.6539 -0.3171 -0.2923
 1012SOL     OW 4118   0.425   4.024   1.955  0.0348 -0.1269  0.0943
 1012SOL    HW2 4119   0.449   4.116   1.945 -0.1662 -0.3091 -2.2842
 1012SOL    HW3 4120   0.500   3.976   1.918 -0.3271 -0.8938  0.3520
 1012SOL    MW4 4121   0.438   4.030   1.949 -0.0395 -0.2522 -0.1854
 1013SOL     OW 4122   0.461   4.300   1.911 -0.3818  0.2876  0.0429
 1013SOL    HW2 4123   0.374   4.337   1.928 -0.1876  1.0259 -0.5485
 1013SOL    HW3 4124   0.465   4.289   1.816 -0.6762 -1.8739  0.2462
 1013SOL    MW4 4125   0.450   4.303   1.900 -0.3951  0.0997 -0.0082
 1014SOL     OW 4126   0.696   4.419   1.977  0.5780 -0.0832 -0.2667
 1014SOL    HW2 4127   0.758   4.358   1.937 -0.4089 -0.7158 -0.8460
 1014SOL    HW3 4128   0.610   4.382   1.958  0.0547  0.0936  1.6626
 1014SOL    MW4 4129   0.693   4.406   1.969  0.3787 -0.1435 -0.0886
 1015SOL     OW 4130   1.106   4.663   1.854 -0.3238  0.5700  0.0162
 1015SOL    HW2 4131   1.182   4.712   1.886 -0.7215  1.3099 -0.1755
 1015SOL    HW3 4132   1.117   4.575   1.891 -1.2014  1.6215  2.8894
 1015SOL    MW4 4133   1.118   4.657   1.863 -0.4920  0.8063  0.3700
 1016SOL     OW 4134   0.904   0.116   1.994  0.0442  0.0971  0.1529
 1016SOL    HW2 4135   0.981   0.083   1.948 -0.3634  0.7002 -0.9798
 1016SOL    HW3 4136   0.831   0.067   1.957 -0.4310  1.4666 -0.7272
 1016SOL    MW4 4137   0.905   0.105   1.983 -0.0723  0.3574 -0.1127
 1017SOL     OW 4138   0.894   0.374   1.902 -0.4121 -0.2910  0.8111
 1017SOL    HW2 4139   0.975   0.412   1.936 -0.4712  1.0922 -0.5156
 1017SOL    HW3 4140   0.900   0.281   1.921  1.3837 -0.1545  0.9461
 1017SOL    MW4 4141   0.905   0.367   1.909 -0.1830 -0.0905  0.6537
 1018SOL     OW 4142   1.123   0.502   1.995  0.0625 -0.5055 -0.6605
 1018SOL    HW2 4143   1.193   0.458   1.947 -0.9602 -0.1931 -2.4837
 1018SOL    HW3 4144   1.120   0.590   1.957  0.8462  0.5506  1.6678
 1018SOL    MW4 4145   1.131   0.508   1.983  0.0310 -0.3250 -0.5938
 1019SOL     OW 4146   1.113   0.743   1.875  0.2264  0.3793 -0.0777
 1019SOL    HW2 4147   1.198   0.779   1.901  0.2770  0.1134  0.1254
 1019SOL    HW3 4148   1.049   0.789   1.930  0.2961  0.1163  0.2228
 1019SOL    MW4 4149   1.116   0.754   1.886  0.2422  0.3095 -0.0112
 1020SOL     OW 4150   0.923   0.893   2.005  0.2795 -0.0914 -0.1665
 1020SOL    HW2 4151   0.927   0.876   2.099 -1.2795 -0.9833 -0.2566
 1020SOL    HW3 4152   0.909   0.988   1.999  1.5258  0.1437  0.4674
 1020SOL    MW4 4153   0.922   0.903   2.017  0.2382 -0.1780 -0.0949
 1021SOL     OW 4154   0.881   1.166   1.937  0.0725  0.5472  0.1131
 1021SOL    HW2 4155   0.798   1.210   1.952 -0.7259 -1.0548  0.5069
 1021SOL    HW3 4156   0.898   1.179   1.844  0.0129  1.9264  0.2777
 1021SOL    MW4 4157   0.872   1.174   1.927 -0.0407  0.5178  0.1868
 1022SOL     OW 4158   1.125   1.294   1.996 -0.4751 -0.0859  0.2615
 1022SOL    HW2 4159   1.138   1.383   1.963  0.0292 -0.7316 -1.3204
 1022SOL    HW3 4160   1.036   1.272   1.971 -1.1761  0.5576  2.0984
 1022SOL    MW4 4161   1.115   1.303   1.988 -0.5009 -0.0862  0.2952
 1023SOL     OW 4162   1.125   1.552   1.894 -0.0168  0.4019  0.1590
 1023SOL    HW2 4163   1.045   1.596   1.923 -1.0424 -0.4922 -1.2365
 1023SOL    HW3 4164   1.127   1.564   1.799  1.9584  1.1123  0.2533
 1023SOL    MW4 4165   1.115   1.559   1.885  0.1085  0.3777 -0.0125
 1024SOL     OW 4166   0.919   1.708   2.012 -0.0122  0.1397  0.3852
 1024SOL    HW2 4167   0.916   1.800   1.986 -1.5631  0.4853  1.7339
 1024SOL    HW3 4168   0.841   1.669   1.972  0.5834 -0.5745 -0.0985
 1024SOL    MW4 4169   0.908   1.715   2.003 -0.1383  0.0911  0.4997
 1025SOL     OW 4170   0.926   1.960   1.880  0.0020  0.1565 -0.0273
 1025SOL    HW2 4171   0.847   2.012   1.894  1.1857  1.4453  2.1619
 1025SOL    HW3 4172   0.947   1.972   1.788 -1.2406  1.3799 -0.1618
 1025SOL    MW4 4173   0.918   1.968   1.870 -0.0058  0.4880  0.2438
 1026SOL     OW 4174   1.136   2.089   2.006 -0.2392  0.0673 -0.3936
 1026SOL    HW2 4175   1.145   2.172   1.959 -1.0043 -0.0838 -0.8038
 1026SOL    HW3 4176   1.065   2.044   1.962 -0.6006 -0.3134  0.5728
 1026SOL    MW4 4177   1.128   2.094   1.994 -0.3877 -0.0026 -0.3204
 1027SOL     OW 4178   1.111   2.337   1.853 -0.1870  0.0161 -0.2633
 1027SOL    HW2 4179   1.196   2.373   1.877 -0.7245  1.2184 -0.1580
 1027SOL    HW3 4180   1.114   2.331   1.757  0.3168 -0.7179 -0.2084
 1027SOL    MW4 4181   1.122   2.341   1.844 -0.1915  0.0780 -0.2421
 1028SOL     OW 4182   0.898   2.486   1.973 -0.2904  0.5556 -0.1125
 1028SOL    HW2 4183   0.965   2.433   1.929 -1.8445 -0.2137 -1.6486
 1028SOL    HW3 4184   0.817   2.436   1.960 -1.3651  2.0721  0.6429
 1028SOL    MW4 4185   0.896   2.472   1.965 -0.6372  0.6540 -0.2155
 1029SOL     OW 4186   0.887   2.729   1.860  0.4455  0.0002  0.1914
 1029SOL    HW2 4187   0.904   2.646   1.904 -1.1582 -0.4067  0.0523
 1029SOL    HW3 4188   0.816   2.769   1.910 -0.4184  0.1829 -1.1550
 1029SOL    MW4 4189   0.880   2.723   1.872  0.1199 -0.0296 -0.0045
 1030SOL     OW 4190   1.112   2.864   1.909 -0.1209  0.4853  0.1935
 1030SOL    HW2 4191   1.110   2.867   2.005 -1.7563  0.6338  0.1830
 1030SOL    HW3 4192   1.040   2.804   1.887  0.4482  0.2135 -0.9357
 1030SOL    MW4 4193   1.102   2.856   1.919 -0.2614  0.4690  0.0430
 1031SOL     OW 4194   1.121   3.130   1.832  0.3188  0.3885 -0.5262
 1031SOL    HW2 4195   1.042   3.170   1.868  1.4399 -0.1609  2.6955
 1031SOL    HW3 4196   1.120   3.040   1.865  2.3928  0.4438 -0.2211
 1031SOL    MW4 4197   1.111   3.123   1.841  0.7404  0.3233 -0.0608
 1032SOL     OW 4198   0.891   3.241   1.936 -0.0938  0.4475 -0.0389
 1032SOL    HW2 4199   0.890   3.240   2.031  1.9455  1.7934  0.0319
 1032SOL    HW3 4200   0.813   3.192   1.910 -0.3659 -0.3987  2.3021
 1032SOL    MW4 4201   0.881   3.235   1.945  0.1394  0.5136  0.2794
 1033SOL     OW 4202   0.864   3.510   1.893  0.2101 -1.0138 -0.0095
 1033SOL    HW2 4203   0.877   3.419   1.920  0.4396 -1.0798 -0.3390
 1033SOL    HW3 4204   0.867   3.507   1.797 -0.5013 -0.7656 -0.0387
 1033SOL    MW4 4205   0.866   3.498   1.884  0.1465 -0.9899 -0.0569
 1034SOL     OW 4206   1.086   3.653   1.958  0.0246 -0.4979 -0.6661
 1034SOL    HW2 4207   1.078   3.642   2.053  0.2789  0.5246 -0.5212
 1034SOL    HW3 4208   1.011   3.606   1.922  0.3058 -1.4791 -0.0006
 1034SOL    MW4 4209   1.075   3.645   1.966  0.0952 -0.4923 -0.5593
 1035SOL     OW 4210   1.082   3.919   1.850  0.0171 -0.0338 -0.1474
 1035SOL    HW2 4211   1.098   3.829   1.878  3.2124  0.0640 -1.3779
 1035SOL    HW3 4212   1.070   3.912   1.755  0.8066  0.8595 -0.3239
 1035SOL    MW4 4213   1.082   3.906   1.841  0.5428  0.0968 -0.3331
 1036SOL     OW 4214   0.859   4.005   1.963 -0.1732  0.1497  0.1536
 1036SOL    HW2 4215   0.871   4.014   2.058  1.4693  1.9001 -0.1903
 1036SOL    HW3 4216   0.938   3.960   1.933 -0.9471 -0.9103 -0.3404
 1036SOL    MW4 4217   0.871   4.000   1.972 -0.0587  0.2408  0.0430
 1037SOL     OW 4218   0.893   4.251   1.836 -0.5274 -0.5418  0.3790
 1037SOL    HW2 4219   0.966   4.301   1.873  1.5767 -2.3700 -1.2202
 1037SOL    HW3 4220   0.888   4.172   1.889  0.1528 -1.4823 -0.9346
 1037SOL    MW4 4221   0.902   4.247   1.848 -0.1601 -0.9069 -0.0052
 1038SOL     OW 4222   1.091   4.391   1.961  0.3980  0.4167 -0.1205
 1038SOL    HW2 4223   1.103   4.400   2.055  0.0116 -2.3812  0.2397
 1038SOL    HW3 4224   1.175   4.357   1.929  0.0376 -0.0923 -0.5420
 1038SOL    MW4 4225   1.104   4.388   1.969  0.2995 -0.0200 -0.1287
 1039SOL     OW 4226   1.558   0.011   1.900  0.5155  0.0512 -0.3875
 1039SOL    HW2 4227   1.633   0.057   1.937 -0.7068  0.3772  1.7545
 1039SOL    HW3 4228   1.563  -0.078   1.935 -1.7646  0.9093  2.3250
 1039SOL    MW4 4229   1.568   0.006   1.909  0.0534  0.2074  0.2530
 1040SOL     OW 4230   1.329   0.110   2.007 -0.3718  0.4852  0.0360
 1040SOL    HW2 4231   1.325   0.102   2.102  0.3828  0.9983  0.1154
 1040SOL    HW3 4232   1.415   0.077   1.984 -1.1050 -0.9850 -0.6192
 1040SOL    MW4 4233   1.340   0.105   2.017 -0.3690  0.3589 -0.0401
 1041SOL     OW 4234   1.353   0.371   1.877 -0.0733  0.0347 -0.7290
 1041SOL    HW2 4235   1.348   0.282   1.911 -0.7082  0.2051 -0.3521
 1041SOL    HW3 4236   1.321   0.365   1.787 -0.3906 -0.0702 -0.6091
 1041SOL    MW4 4237   1.348   0.359   1.870 -0.1990  0.0433 -0.6635
 1042SOL     OW 4238   1.574   0.520   1.964  0.5067  0.0920 -0.6244
 1042SOL    HW2 4239   1.649   0.479   1.923 -0.3367 -0.3840 -1.7197
 1042SOL    HW3 4240   1.498   0.474   1.927 -0.3322  0.7372  0.2579
 1042SOL    MW4 4241   1.574   0.508   1.954  0.2848  0.1144 -0.6524
 1043SOL     OW 4242   1.563   0.792   1.912 -0.0123  0.0548  0.1011
 1043SOL    HW2 4243   1.636   0.831   1.960 -0.8571  2.1142 -0.2322
 1043SOL    HW3 4244   1.563   0.700   1.938  2.5941  0.0527  0.2342
 1043SOL    MW4 4245   1.572   0.785   1.922  0.2203  0.3263  0.0747
 1044SOL     OW 4246   1.318   0.887   2.003 -0.5094  0.0008 -0.5548
 1044SOL    HW2 4247   1.323   0.900   2.098 -0.4695 -0.2528 -0.5205
 1044SOL    HW3 4248   1.404   0.851   1.980  0.0216  1.4817 -0.9195
 1044SOL    MW4 4249   1.330   0.884   2.013 -0.4340  0.1627 -0.5984
 1045SOL     OW 4250   1.325   1.141   1.877  0.0837  0.1177 -0.2243
 1045SOL    HW2 4251   1.312   1.053   1.914  0.5065 -0.2441 -0.9416
 1045SOL    HW3 4252   1.255   1.193   1.917 -0.0260 -0.4822  0.3924
 1045SOL    MW4 4253   1.314   1.136   1.887  0.1251 -0.0092 -0.2376
 1046SOL     OW 4254   1.557   1.267   1.953 -0.3819 -0.1637 -0.0489
 1046SOL    HW2 4255   1.542   1.359   1.930 -0.2261  0.2585  1.4921
 1046SOL    HW3 4256   1.474   1.224   1.932 -1.2029  0.7432  1.2697
 1046SOL    MW4 4257   1.544   1.274   1.947 -0.4697  0.0117  0.3283
 1047SOL     OW 4258   1.518   1.527   1.860 -0.0630  0.3277 -0.4123
 1047SOL    HW2 4259   1.605   1.553   1.890  0.6852 -0.8542 -1.5045
 1047SOL    HW3 4260   1.458   1.583   1.909  1.2280  0.0485  1.5701
 1047SOL    MW4 4261   1.521   1.538   1.871  0.2060  0.1348 -0.2948
 1048SOL     OW 4262   1.360   1.718   1.988  0.3608 -0.3453  0.1666
 1048SOL    HW2 4263   1.388   1.677   2.070  0.2127  0.1958  0.4916
 1048SOL    HW3 4264   1.276   1.677   1.969  0.2220 -0.2081  0.4796
 1048SOL    MW4 4265   1.353   1.707   1.997  0.3229 -0.2558  0.2508
 1049SOL     OW 4266   1.331   1.945   1.858 -0.2874  0.4650 -0.0265
 1049SOL    HW2 4267   1.345   1.859   1.898 -0.8496  0.9573  1.2351
 1049SOL    HW3 4268   1.276   1.992   1.920 -0.8329  1.3886 -1.1880
 1049SOL    MW4 4269   1.326   1.940   1.871 -0.4336  0.6518 -0.0135
 1050SOL     OW 4270   1.559   2.072   1.952  0.0525  0.6761 -0.3399
 1050SOL    HW2 4271   1.578   2.154   1.906  1.3805  0.8521  0.5031
 1050SOL    HW3 4272   1.477   2.041   1.912  0.5204  1.4484 -1.9525
 1050SOL    MW4 4273   1.551   2.079   1.941  0.2894  0.8011 -0.4414
 1051SOL     OW 4274   1.591   2.351   1.850  0.4107 -0.4393 -0.3285
 1051SOL    HW2 4275   1.683   2.375   1.859  0.1003  1.1172 -1.0187
 1051SOL    HW3 4276   1.577   2.346   1.755 -0.8423  2.0646 -0.3392
 1051SOL    MW4 4277   1.601   2.354   1.839  0.2043  0.0966 -0.4210
 1052SOL     OW 4278   1.358   2.454   1.949  0.2203  0.2011  0.5110
 1052SOL    HW2 4279   1.361   2.546   1.923  1.1618  0.2899  0.8911
 1052SOL    HW3 4280   1.441   2.418   1.918 -0.1881 -0.5459  0.2754
 1052SOL    MW4 4281   1.369   2.461   1.942  0.2906  0.1142  0.5300
 1053SOL     OW 4282   1.336   2.720   1.864  0.0209  0.3659  0.4145
 1053SOL    HW2 4283   1.256   2.768   1.886 -0.0392 -0.4723  2.1476
 1053SOL    HW3 4284   1.337   2.716   1.769  0.3327  4.3411  0.1406
 1053SOL    MW4 4285   1.326   2.726   1.855  0.0541  0.7799  0.6070
 1054SOL     OW 4286   1.556   2.865   1.953 -0.1507 -0.1043 -0.2111
 1054SOL    HW2 4287   1.629   2.811   1.922  0.1315  0.7635 -1.0904
 1054SOL    HW3 4288   1.479   2.826   1.912  0.1495  0.6492 -1.5650
 1054SOL    MW4 4289   1.556   2.853   1.943 -0.0739  0.1094 -0.5057
 1055SOL     OW 4290   1.566   3.142   1.878  0.0835  0.0512  0.0006
 1055SOL    HW2 4291   1.560   3.048   1.899  1.0029  0.2777  1.3865
 1055SOL    HW3 4292   1.583   3.145   1.784 -0.9980 -1.1308 -0.2556
 1055SOL    MW4 4293   1.567   3.130   1.869  0.0620 -0.0751  0.1496
 1056SOL     OW 4294   1.333   3.219   1.986  0.5847 -0.2265  0.3371
 1056SOL    HW2 4295   1.411   3.187   1.940 -0.1664 -0.6575 -0.6475
 1056SOL    HW3 4296   1.260   3.181   1.938 -0.2704  1.2342  0.4726
 1056SOL    MW4 4297   1.334   3.210   1.973  0.3728 -0.0908  0.2253
 1057SOL     OW 4298   1.319   3.487   1.883  0.1763 -0.2384  0.1633
 1057SOL    HW2 4299   1.327   3.398   1.916 -0.3689 -0.0632  0.7757
 1057SOL    HW3 4300   1.239   3.521   1.924 -1.0113 -0.3012 -1.9651
 1057SOL    MW4 4301   1.309   3.480   1.893 -0.0522 -0.2236 -0.0367
 1058SOL     OW 4302   1.540   3.630   1.966 -0.4869  0.0446 -0.5203
 1058SOL    HW2 4303   1.543   3.587   2.051 -0.3713 -0.8443 -0.9624
 1058SOL    HW3 4304   1.460   3.595   1.925  0.4411 -0.9591 -1.5054
 1058SOL    MW4 4305   1.530   3.620   1.972 -0.3492 -0.2050 -0.7086
 1059SOL     OW 4306   1.546   3.905   1.894 -0.1284  0.2268 -0.2002
 1059SOL    HW2 4307   1.628   3.943   1.927 -1.3146  1.3581  1.5708
 1059SOL    HW3 4308   1.556   3.811   1.907  0.7305  0.3928  0.3752
 1059SOL    MW4 4309   1.559   3.898   1.900 -0.1717  0.3977  0.1094
 1060SOL     OW 4310   1.329   4.046   1.962 -0.4783  0.2445 -0.2823
 1060SOL    HW2 4311   1.409   3.996   1.943  0.4800  1.8236 -0.4298
 1060SOL    HW3 4312   1.260   3.995   1.920  0.5571 -0.7158 -0.8629
 1060SOL    MW4 4313   1.331   4.032   1.954 -0.2153  0.3266 -0.3783
 1061SOL     OW 4314   1.337   4.304   1.874 -0.6979  0.1426 -0.2880
 1061SOL    HW2 4315   1.341   4.219   1.917  0.9921  0.3438 -0.0017
 1061SOL    HW3 4316   1.326   4.284   1.782 -0.1928 -0.3937 -0.2351
 1061SOL    MW4 4317   1.336   4.290   1.868 -0.4083  0.0982 -0.2432
 1062SOL     OW 4318   1.564   4.406   1.998 -0.0231 -0.1224  0.3227
 1062SOL    HW2 4319   1.570   4.382   2.090  0.5684  0.2885  0.3983
 1062SOL    HW3 4320   1.477   4.378   1.971  0.1192 -1.0327  0.7786
 1062SOL    MW4 4321   1.553   4.399   2.006  0.0736 -0.1879  0.3929
 1063SOL     OW 4322   2.018   0.001   1.899  0.0159  0.2916 -0.4975
 1063SOL    HW2 4323   2.102   0.035   1.930  1.3364 -2.5223 -0.8392
 1063SOL    HW3 4324   2.012  -0.087   1.938 -2.2142 -0.0143 -1.4614
 1063SOL    MW4 4325   2.029  -0.006   1.909 -0.1042 -0.1202 -0.6698
 1064SOL     OW 4326   1.779   0.139   1.973 -0.6155 -0.1437  0.1498
 1064SOL    HW2 4327   1.762   0.119   2.065 -1.2213 -0.2043  0.0253
 1064SOL    HW3 4328   1.858   0.088   1.952 -1.5329 -1.5917  0.1359
 1064SOL    MW4 4329   1.787   0.130   1.982 -0.8165 -0.3428  0.1316
 1065SOL     OW 4330   1.808   0.409   1.901  0.2467 -0.3501  0.0706
 1065SOL    HW2 4331   1.810   0.322   1.941 -0.2404 -0.1204  0.5848
 1065SOL    HW3 4332   1.801   0.391   1.807 -2.2901 -0.8493  0.3253
 1065SOL    MW4 4333   1.808   0.395   1.894 -0.1522 -0.3856  0.1721
 1066SOL     OW 4334   2.035   0.540   1.993  0.6598 -0.2982 -0.0500
 1066SOL    HW2 4335   2.022   0.634   1.977 -0.0693 -0.5703 -1.1318
 1066SOL    HW3 4336   1.953   0.500   1.967  1.0999 -1.2844  0.0587
 1066SOL    MW4 4337   2.023   0.547   1.987  0.6216 -0.4642 -0.1785
 1067SOL     OW 4338   2.008   0.800   1.909  0.0182 -0.2191  0.0358
 1067SOL    HW2 4339   2.096   0.828   1.935 -0.5168  1.5924  0.0028
 1067SOL    HW3 4340   2.012   0.795   1.813  0.2977 -0.9130  0.0809
 1067SOL    MW4 4341   2.020   0.803   1.900 -0.0155 -0.0717  0.0373
 1068SOL     OW 4342   1.801   0.921   2.039  0.3760  0.0593  0.4230
 1068SOL    HW2 4343   1.781   0.996   1.983 -0.6889 -0.1906  0.4565
 1068SOL    HW3 4344   1.878   0.881   2.000  0.5311  0.7683  0.0040
 1068SOL    MW4 4345   1.808   0.925   2.027  0.2558  0.1199  0.3719
 1069SOL     OW 4346   1.772   1.126   1.859  0.4984  0.0669  0.0495
 1069SOL    HW2 4347   1.698   1.182   1.880  0.5441  0.3310 -0.4757
 1069SOL    HW3 4348   1.786   1.138   1.765  0.1643 -1.2467 -0.1817
 1069SOL    MW4 4349   1.764   1.135   1.849  0.4604 -0.0716 -0.0503
 1070SOL     OW 4350   1.984   1.273   1.935 -0.3696  0.0346 -0.8790
 1070SOL    HW2 4351   2.062   1.219   1.924 -0.6495 -0.7151  0.6654
 1070SOL    HW3 4352   1.913   1.221   1.897 -0.3314  0.1238 -1.0704
 1070SOL    MW4 4353   1.985   1.259   1.929 -0.4015 -0.0527 -0.7005
 1071SOL     OW 4354   2.006   1.545   1.898  0.3689  0.0306 -0.2120
 1071SOL    HW2 4355   2.027   1.453   1.911  0.9783  0.3052  0.7651
 1071SOL    HW3 4356   2.012   1.558   1.803  1.8519 -0.5596 -0.2039
 1071SOL    MW4 4357   2.009   1.535   1.887  0.6452 -0.0111 -0.0820
 1072SOL     OW 4358   1.755   1.658   1.961  0.0516  0.1215  0.4686
 1072SOL    HW2 4359   1.760   1.746   1.922 -0.3366  1.1688  2.7275
 1072SOL    HW3 4360   1.844   1.623   1.952 -0.2323 -0.0296 -2.1424
 1072SOL    MW4 4361   1.768   1.665   1.955 -0.0370  0.2397  0.4221
 1073SOL     OW 4362   1.766   1.917   1.886 -0.1476 -0.5206  0.1101
 1073SOL    HW2 4363   1.695   1.975   1.911 -0.5259 -0.8446 -0.2115
 1073SOL    HW3 4364   1.772   1.926   1.791 -0.3028 -1.1114  0.0410
 1073SOL    MW4 4365   1.758   1.926   1.877 -0.2179 -0.6415  0.0587
 1074SOL     OW 4366   2.014   2.027   1.978 -0.5435  0.1354  0.4849
 1074SOL    HW2 4367   2.090   1.982   1.940 -1.0073 -0.2399 -0.0062
 1074SOL    HW3 4368   1.939   1.991   1.931 -0.9662  1.0328  0.4625
 1074SOL    MW4 4369   2.014   2.016   1.967 -0.6604  0.2046  0.4171
 1075SOL     OW 4370   2.052   2.258   1.833 -0.8832  0.3645 -0.2439
 1075SOL    HW2 4371   2.123   2.296   1.886  0.0399 -0.5556 -0.7923
 1075SOL    HW3 4372   2.017   2.187   1.886  1.5316 -2.0246 -1.7152
 1075SOL    MW4 4373   2.057   2.254   1.847 -0.4427 -0.0720 -0.5103
 1076SOL     OW 4374   1.846   2.452   1.944 -0.2166  0.0662 -0.3179
 1076SOL    HW2 4375   1.828   2.427   2.034 -1.0991  0.4592 -0.3706
 1076SOL    HW3 4376   1.924   2.403   1.919  0.0272 -0.0395  0.6582
 1076SOL    MW4 4377   1.854   2.442   1.952 -0.3010  0.1040 -0.1960
 1077SOL     OW 4378   1.778   2.724   1.881 -0.1861 -0.2483 -0.0408
 1077SOL    HW2 4379   1.800   2.637   1.916 -1.4733 -1.0044 -1.0741
 1077SOL    HW3 4380   1.784   2.714   1.786 -0.3130  0.8174 -0.1675
 1077SOL    MW4 4381   1.782   2.711   1.873 -0.3728 -0.2074 -0.1940
 1078SOL     OW 4382   2.006   2.882   1.941  0.0311  0.1361 -0.3401
 1078SOL    HW2 4383   2.003   2.884   2.037  0.5247 -1.0233 -0.2951
 1078SOL    HW3 4384   1.929   2.830   1.916  0.9305 -1.1480 -0.4909
 1078SOL    MW4 4385   1.995   2.875   1.950  0.2147 -0.1862 -0.3541
 1079SOL     OW 4386   2.020   3.163   1.876 -0.0376  0.2374 -0.3862
 1079SOL    HW2 4387   1.940   3.205   1.907 -0.0456  0.7691 -1.1168
 1079SOL    HW3 4388   2.011   3.071   1.902  0.3171  0.8045  1.8860
 1079SOL    MW4 4389   2.009   3.156   1.884  0.0083  0.3822 -0.1827
 1080SOL     OW 4390   1.785   3.280   1.983 -0.3022  0.2429 -0.2152
 1080SOL    HW2 4391   1.798   3.255   2.075 -0.3155 -1.6544 -0.7004
 1080SOL    HW3 4392   1.699   3.245   1.961  0.6789 -1.3750 -1.5996
 1080SOL    MW4 4393   1.776   3.272   1.992 -0.1745 -0.2210 -0.4617
 1081SOL     OW 4394   1.794   3.525   1.866 -0.3244  0.5281 -0.3666
 1081SOL    HW2 4395   1.794   3.442   1.912  0.7836  1.6668  1.7750
 1081SOL    HW3 4396   1.721   3.574   1.903 -0.6196  0.7282 -1.2031
 1081SOL    MW4 4397   1.785   3.521   1.877 -0.2172  0.7045 -0.1944
 1082SOL     OW 4398   2.019   3.632   1.962  0.3207  0.6660 -0.0544
 1082SOL    HW2 4399   1.996   3.724   1.953  0.2110  0.5050 -1.5368
 1082SOL    HW3 4400   1.941   3.585   1.933  0.6177  0.1007  0.0446
 1082SOL    MW4 4401   2.006   3.638   1.957  0.3455  0.5701 -0.2370
 1083SOL     OW 4402   1.969   3.927   1.895 -0.1519  0.5242  0.1150
 1083SOL    HW2 4403   2.057   3.956   1.919 -0.1524 -0.5640  1.4958
 1083SOL    HW3 4404   1.974   3.914   1.800  0.4299  2.9215 -0.2102
 1083SOL    MW4 4405   1.982   3.929   1.886 -0.0753  0.6969  0.2544
 1084SOL     OW 4406   1.763   4.073   2.004  0.1645  0.4753 -0.1433
 1084SOL    HW2 4407   1.763   4.156   1.956 -1.0156  0.0999 -0.8175
 1084SOL    HW3 4408   1.841   4.027   1.973  0.1409  0.8116 -0.7057
 1084SOL    MW4 4409   1.773   4.078   1.994  0.0056  0.4702 -0.3065
 1085SOL     OW 4410   1.781   4.315   1.846  0.1763  0.0552  0.6003
 1085SOL    HW2 4411   1.704   4.362   1.877 -0.2812 -0.5933  0.4521
 1085SOL    HW3 4412   1.773   4.316   1.751  0.4378  0.1239  0.5777
 1085SOL    MW4 4413   1.770   4.321   1.838  0.1504 -0.0210  0.5778
 1086SOL     OW 4414   1.987   4.410   2.003  0.6607 -0.7699 -0.1620
 1086SOL    HW2 4415   2.066   4.371   1.965  1.1082 -0.5706  0.5523
 1086SOL    HW3 4416   1.915   4.364   1.961  1.1595 -0.8489 -0.9310
 1086SOL    MW4 4417   1.988   4.399   1.993  0.7857 -0.7539 -0.1693
 1087SOL     OW 4418   2.445   4.638   1.879  0.4121 -0.5290  0.0184
 1087SOL    HW2 4419   2.517   4.690   1.916  0.0206 -1.1515  1.7165
 1087SOL    HW3 4420   2.454   4.552   1.920 -0.4281 -1.0556 -0.8818
 1087SOL    MW4 4421   2.456   4.634   1.890  0.2494 -0.6804  0.1237
 1088SOL     OW 4422   2.240   0.117   2.001 -0.0802  0.6043  0.0459
 1088SOL    HW2 4423   2.240   0.081   2.090 -2.6755 -0.4399 -0.3454
 1088SOL    HW3 4424   2.308   0.067   1.955 -0.0123 -0.1298  0.9261
 1088SOL    MW4 4425   2.249   0.106   2.007 -0.4141  0.3697  0.1104
 1089SOL     OW 4426   2.200   0.352   1.853  0.2887 -0.1286 -0.0699
 1089SOL    HW2 4427   2.217   0.287   1.922  1.6614 -0.5845 -0.8007
 1089SOL    HW3 4428   2.144   0.417   1.894  1.1686 -0.3373  1.5127
 1089SOL    MW4 4429   2.195   0.352   1.867  0.5863 -0.2163  0.0424
 1090SOL     OW 4430   2.418   0.521   1.996  0.7363  0.0801  0.0027
 1090SOL    HW2 4431   2.490   0.472   1.957  0.8336  0.5828 -0.4454
 1090SOL    HW3 4432   2.339   0.471   1.974  0.8897 -0.1855  0.0499
 1090SOL    MW4 4433   2.417   0.508   1.988  0.7689  0.1114 -0.0502
 1091SOL     OW 4434   2.495   0.775   1.920 -0.2909 -0.0644 -0.3412
 1091SOL    HW2 4435   2.473   0.685   1.942  0.3587 -0.3575 -0.8762
 1091SOL    HW3 4436   2.495   0.778   1.824 -0.9690  0.6658 -0.3243
 1091SOL    MW4 4437   2.492   0.764   1.910 -0.2944 -0.0067 -0.4096
 1092SOL     OW 4438   2.256   0.888   1.981 -0.2942  0.0538 -0.7543
 1092SOL    HW2 4439   2.253   0.886   2.076 -2.1081 -0.5704 -0.8165
 1092SOL    HW3 4440   2.340   0.847   1.959 -0.2977 -0.6707  0.5427
 1092SOL    MW4 4441   2.267   0.882   1.991 -0.5341 -0.1242 -0.5914
 1093SOL     OW 4442   2.218   1.144   1.898 -0.1360  0.0807  0.1085
 1093SOL    HW2 4443   2.282   1.204   1.936 -0.5871  0.3690  0.4250
 1093SOL    HW3 4444   2.239   1.059   1.937  0.7855 -0.0624 -0.6814
 1093SOL    MW4 4445   2.229   1.141   1.908 -0.0739  0.0998  0.0461
 1094SOL     OW 4446   2.445   1.281   1.983 -0.7096  0.4629 -0.2511
 1094SOL    HW2 4447   2.449   1.293   2.078 -1.2435  0.7572 -0.2578
 1094SOL    HW3 4448   2.472   1.365   1.947  1.3985 -0.2619 -0.3913
 1094SOL    MW4 4449   2.449   1.294   1.991 -0.5021  0.4063 -0.2705
 1095SOL     OW 4450   2.480   1.532   1.859  0.6300 -0.0517 -0.0401
 1095SOL    HW2 4451   2.393   1.566   1.879  1.0906 -0.3587  2.6091
 1095SOL    HW3 4452   2.484   1.532   1.763 -2.1253  0.3142 -0.1888
 1095SOL    MW4 4453   2.469   1.536   1.849  0.3271 -0.0440  0.2898
 1096SOL     OW 4454   2.263   1.650   1.947 -0.4938  0.5830  0.6462
 1096SOL    HW2 4455   2.259   1.672   2.040 -0.5412  0.5537  0.6514
 1096SOL    HW3 4456   2.174   1.620   1.926 -0.1077 -0.8093  0.9415
 1096SOL    MW4 4457   2.251   1.649   1.957 -0.4492  0.3955  0.6859
 1097SOL     OW 4458   2.236   1.924   1.857  0.6984  0.3972 -0.1436
 1097SOL    HW2 4459   2.318   1.957   1.892  1.1090  1.4699 -2.0449
 1097SOL    HW3 4460   2.241   1.829   1.870  2.7562  0.3222 -1.3100
 1097SOL    MW4 4461   2.247   1.916   1.863  1.0240  0.5289 -0.5484
 1098SOL     OW 4462   2.472   2.043   1.946 -0.3220 -0.3555  0.2029
 1098SOL    HW2 4463   2.554   2.005   1.914 -0.9415 -2.0498  0.5816
 1098SOL    HW3 4464   2.478   2.135   1.922  0.3249 -1.0745 -2.5571
 1098SOL    MW4 4465   2.484   2.050   1.939 -0.3183 -0.6740 -0.1115
 1099SOL     OW 4466   2.461   2.316   1.879  0.1459 -0.0718  0.1984
 1099SOL    HW2 4467   2.530   2.376   1.907  0.4488 -0.3792  0.1163
 1099SOL    HW3 4468   2.380   2.353   1.915  0.2389  0.7592 -0.4228
 1099SOL    MW4 4469   2.459   2.329   1.887  0.1984 -0.0031  0.1056
 1100SOL     OW 4470   2.225   2.410   1.971 -0.3517 -0.2552  0.0727
 1100SOL    HW2 4471   2.221   2.429   2.065  1.7204  0.5355  0.0230
 1100SOL    HW3 4472   2.219   2.495   1.929  0.9724 -0.4116 -0.4365
 1100SOL    MW4 4473   2.224   2.424   1.978  0.0963 -0.1719 -0.0011
 1101SOL     OW 4474   2.214   2.694   1.873  0.0397 -0.2101 -0.1873
 1101SOL    HW2 4475   2.145   2.749   1.909  0.8243  0.5902  0.1115
 1101SOL    HW3 4476   2.226   2.728   1.784 -1.9911 -2.2680 -1.3062
 1101SOL    MW4 4477   2.206   2.706   1.866 -0.1247 -0.3760 -0.2954
 1102SOL     OW 4478   2.480   2.820   1.977 -0.1464 -0.0977 -0.0088
 1102SOL    HW2 4479   2.463   2.906   1.937  0.5871  0.5455  1.0350
 1102SOL    HW3 4480   2.397   2.773   1.968  0.0118 -0.0002 -2.3181
 1102SOL    MW4 4481   2.467   2.825   1.970 -0.0291  0.0000 -0.1757
 1103SOL     OW 4482   2.462   3.078   1.899 -0.4307  0.1290  0.5759
 1103SOL    HW2 4483   2.391   3.137   1.924  0.6394  2.1532 -0.9922
 1103SOL    HW3 4484   2.466   3.084   1.804  0.8523 -1.1247  0.5263
 1103SOL    MW4 4485   2.453   3.086   1.890 -0.1204  0.2306  0.3625
 1104SOL     OW 4486   2.267   3.257   1.985  0.1247 -0.4455 -0.0614
 1104SOL    HW2 4487   2.259   3.239   2.079  1.5704 -0.0619  0.1458
 1104SOL    HW3 4488   2.192   3.213   1.945 -0.2680 -0.9546  1.2289
 1104SOL    MW4 4489   2.256   3.249   1.992  0.2637 -0.4621  0.1361
 1105SOL     OW 4490   2.260   3.508   1.867  0.2656 -0.1081  0.0376
 1105SOL    HW2 4491   2.273   3.437   1.930  0.3845  1.0418  1.3400
 1105SOL    HW3 4492   2.182   3.555   1.898  1.1870  1.3626  0.1974
 1105SOL    MW4 4493   2.251   3.505   1.879  0.4029  0.2377  0.2304
 1106SOL     OW 4494   2.497   3.633   1.933  0.4185 -0.6870  0.2839
 1106SOL    HW2 4495   2.496   3.631   2.028  0.1725  0.8928  0.3344
 1106SOL    HW3 4496   2.408   3.609   1.907 -0.4032  1.8134  0.5754
 1106SOL    MW4 4497   2.485   3.630   1.942  0.2778 -0.1488  0.3290
 1107SOL     OW 4498   2.468   3.908   1.867 -0.1866  0.1051 -0.3401
 1107SOL    HW2 4499   2.392   3.954   1.901  0.1001  0.3657 -0.0488
 1107SOL    HW3 4500   2.450   3.816   1.883 -1.1613  0.0410 -1.7196
 1107SOL    MW4 4501   2.456   3.902   1.873 -0.2773  0.1311 -0.4836
 1108SOL     OW 4502   2.219   3.993   1.969  0.5084 -0.0761 -0.2015
 1108SOL    HW2 4503   2.216   3.995   2.065 -1.4150  1.1893 -0.2484
 1108SOL    HW3 4504   2.224   4.085   1.943 -3.0359 -0.1091 -1.3467
 1108SOL    MW4 4505   2.219   4.005   1.978 -0.2129  0.0868 -0.3589
 1109SOL     OW 4506   2.227   4.259   1.881 -0.4216  0.3519  0.5696
 1109SOL    HW2 4507   2.316   4.287   1.901  0.3583 -1.9966  0.4668
 1109SOL    HW3 4508   2.217   4.277   1.787 -0.0270  0.5215  0.5597
 1109SOL    MW4 4509   2.237   4.265   1.871 -0.2666  0.0639  0.5547
 1110SOL     OW 4510   2.468   4.372   1.970 -0.1180 -0.5122 -0.2276
 1110SOL    HW2 4511   2.451   4.362   2.063 -0.1005 -0.0497 -0.1707
 1110SOL    HW3 4512   2.559   4.344   1.959 -0.3947 -1.3968 -0.2536
 1110SOL    MW4 4513   2.478   4.367   1.981 -0.1523 -0.5679 -0.2235
 1111SOL     OW 4514   2.866   0.016   1.862  0.0450  0.5984  0.5909
 1111SOL    HW2 4515   2.945   0.061   1.890  0.5950 -0.2966  0.4821
 1111SOL    HW3 4516   2.875  -0.073   1.897  1.1678 -0.8355 -3.1241
 1111SOL    MW4 4517   2.877   0.010   1.871  0.2661  0.2913  0.0864
 1112SOL     OW 4518   2.639   0.144   1.969 -0.1962 -0.1339  0.4377
 1112SOL    HW2 4519   2.652   0.138   2.064  0.3242  1.4539  0.4791
 1112SOL    HW3 4520   2.721   0.110   1.932 -0.1020 -0.0542  0.5693
 1112SOL    MW4 4521   2.652   0.138   1.977 -0.1152  0.0861  0.4605
 1113SOL     OW 4522   2.643   0.405   1.885  0.3068  0.1601 -0.0867
 1113SOL    HW2 4523   2.731   0.426   1.914  0.2517  0.9016 -0.4377
 1113SOL    HW3 4524   2.624   0.320   1.925 -0.0954  1.5104  2.7119
 1113SOL    MW4 4525   2.652   0.396   1.894  0.2463  0.4361  0.2363
 1114SOL     OW 4526   2.889   0.512   1.981 -0.3109 -0.5976 -0.2139
 1114SOL    HW2 4527   2.980   0.483   1.967 -0.1936 -0.0033 -0.7101
 1114SOL    HW3 4528   2.889   0.604   1.954 -0.8108 -0.2924  0.8205
 1114SOL    MW4 4529   2.901   0.521   1.976 -0.3612 -0.4789 -0.1429
 1115SOL     OW 4530   2.947   0.793   1.900  0.5289 -0.1081 -0.2917
 1115SOL    HW2 4531   3.033   0.823   1.926  0.6135  0.3793 -1.1086
 1115SOL    HW3 4532   2.886   0.859   1.933  0.5391 -0.0504 -0.3879
 1115SOL    MW4 4533   2.950   0.806   1.908  0.5414 -0.0362 -0.4122
 1116SOL     OW 4534   2.740   0.918   2.000 -0.0239 -0.1483 -0.0021
 1116SOL    HW2 4535   2.720   1.008   1.976 -1.1496 -0.2317  0.5692
 1116SOL    HW3 4536   2.664   0.868   1.969  0.1677 -0.7601  0.5027
 1116SOL    MW4 4537   2.727   0.923   1.993 -0.1471 -0.2400  0.1398
 1117SOL     OW 4538   2.703   1.172   1.909 -0.0077  0.0120  0.1798
 1117SOL    HW2 4539   2.628   1.222   1.938 -0.7253 -1.1179  0.3078
 1117SOL    HW3 4540   2.690   1.162   1.814 -0.9133 -1.6262  0.4601
 1117SOL    MW4 4541   2.692   1.177   1.900 -0.2220 -0.3533  0.2337
 1118SOL     OW 4542   2.948   1.254   1.993 -0.0641  0.0744 -0.7486
 1118SOL    HW2 4543   2.930   1.339   1.954  0.5132  0.6675  0.2606
 1118SOL    HW3 4544   2.872   1.200   1.968 -1.5948  1.5491  0.5609
 1118SOL    MW4 4545   2.935   1.258   1.985 -0.1895  0.3473 -0.4426
 1119SOL     OW 4546   2.916   1.520   1.901 -0.0408  0.1409 -0.4676
 1119SOL    HW2 4547   2.991   1.560   1.945 -0.7853  0.0894  0.8821
 1119SOL    HW3 4548   2.931   1.537   1.808  1.6989  0.0423 -0.2349
 1119SOL    MW4 4549   2.928   1.527   1.895  0.0906  0.1211 -0.2588
 1120SOL     OW 4550   2.699   1.678   1.973 -0.5071 -0.1285  0.2583
 1120SOL    HW2 4551   2.760   1.608   1.951 -0.5821  0.1370 -0.8557
 1120SOL    HW3 4552   2.617   1.653   1.930 -0.5679  0.5615 -0.0452
 1120SOL    MW4 4553   2.696   1.666   1.964 -0.5250 -0.0024  0.0712
 1121SOL     OW 4554   2.708   1.928   1.864  0.0785  0.2997 -0.0295
 1121SOL    HW2 4555   2.792   1.962   1.893 -0.3326  1.1589  0.1643
 1121SOL    HW3 4556   2.696   1.847   1.914  0.3554  0.6663  0.6224
 1121SOL    MW4 4557   2.717   1.922   1.874  0.0606  0.4615  0.0821
 1122SOL     OW 4558   2.937   2.070   1.944  0.2890 -0.3791  0.1878
 1122SOL    HW2 4559   2.937   2.077   2.040  0.3340 -0.5026  0.1966
 1122SOL    HW3 4560   3.012   2.014   1.924 -0.5369 -1.4964  0.1591
 1122SOL    MW4 4561   2.947   2.064   1.954  0.1857 -0.5431  0.1853
 1123SOL     OW 4562   2.926   2.323   1.885  0.5756  0.1087 -0.2320
 1123SOL    HW2 4563   3.013   2.353   1.913  1.0636 -0.5179 -1.0574
 1123SOL    HW3 4564   2.929   2.228   1.897 -0.1320  0.1287  0.1033
 1123SOL    MW4 4565   2.938   2.314   1.890  0.5467  0.0286 -0.2965
 1124SOL     OW 4566   2.694   2.454   2.000  0.3365 -0.4841 -0.1113
 1124SOL    HW2 4567   2.721   2.546   1.995  0.4532 -0.2555  3.3868
 1124SOL    HW3 4568   2.764   2.407   1.955  1.4393  0.9719  0.0179
 1124SOL    MW4 4569   2.707   2.460   1.994  0.4973 -0.2620  0.3673
 1125SOL     OW 4570   2.734   2.729   1.899  0.3773 -0.3728  0.5231
 1125SOL    HW2 4571   2.651   2.766   1.930  0.6866 -0.6719  1.7467
 1125SOL    HW3 4572   2.720   2.713   1.806 -0.6347  0.4153  0.5287
 1125SOL    MW4 4573   2.722   2.732   1.891  0.2847 -0.3083  0.6855
 1126SOL     OW 4574   2.972   2.882   1.958  0.1173  0.1696  0.2288
 1126SOL    HW2 4575   2.963   2.972   1.928  0.7603  0.0991 -0.1982
 1126SOL    HW3 4576   2.894   2.837   1.926 -1.0825  0.9757  1.9736
 1126SOL    MW4 4577   2.960   2.888   1.950  0.0441  0.2668  0.4027
 1127SOL     OW 4578   2.932   3.124   1.847  0.2750 -0.4409 -0.1982
 1127SOL    HW2 4579   3.011   3.167   1.880  0.9234 -1.7034 -0.0794
 1127SOL    HW3 4580   2.860   3.166   1.894  0.7599  1.5900 -1.2246
 1127SOL    MW4 4581   2.933   3.135   1.857  0.4246 -0.3395 -0.3178
 1128SOL     OW 4582   2.700   3.182   1.989 -0.2625 -0.4704 -0.0908
 1128SOL    HW2 4583   2.700   3.263   1.938  1.2679 -1.4393 -1.6919
 1128SOL    HW3 4584   2.624   3.133   1.957  0.2002 -0.7058 -0.8246
 1128SOL    MW4 4585   2.690   3.186   1.978  0.0002 -0.6294 -0.3989
 1129SOL     OW 4586   2.668   3.427   1.864 -0.3161 -0.2481 -0.1712
 1129SOL    HW2 4587   2.745   3.476   1.893 -0.1193 -1.9304  2.3591
 1129SOL    HW3 4588   2.594   3.484   1.884  0.0448 -0.1601  0.9907
 1129SOL    MW4 4589   2.669   3.441   1.871 -0.2427 -0.4585  0.3160
 1130SOL     OW 4590   2.891   3.564   1.953 -0.3107  0.2226  0.3610
 1130SOL    HW2 4591   2.905   3.583   2.046  0.7366 -1.1587  0.4997
 1130SOL    HW3 4592   2.976   3.536   1.921 -0.6505  0.7715 -1.0510
 1130SOL    MW4 4593   2.904   3.563   1.961 -0.2172  0.1125  0.1932
 1131SOL     OW 4594   2.924   3.840   1.911 -0.0142  0.3834 -0.1607
 1131SOL    HW2 4595   2.938   3.750   1.940  0.5083  0.5528  0.1154
 1131SOL    HW3 4596   2.928   3.836   1.815  1.1177  0.2989 -0.1107
 1131SOL    MW4 4597   2.926   3.827   1.902  0.2043  0.3946 -0.1175
 1132SOL     OW 4598   2.697   3.959   2.007  0.0296 -0.2420  0.5639
 1132SOL    HW2 4599   2.771   3.921   1.960  0.1460  2.1046 -1.2889
 1132SOL    HW3 4600   2.620   3.931   1.957 -0.0366  0.2398  0.3874
 1132SOL    MW4 4601   2.696   3.950   1.994  0.0362  0.1314  0.2962
 1133SOL     OW 4602   2.712   4.229   1.900  0.3601  0.2796  0.0358
 1133SOL    HW2 4603   2.691   4.146   1.941 -0.5798  0.5886  0.1971
 1133SOL    HW3 4604   2.690   4.217   1.808 -1.7290  0.9850  0.4122
 1133SOL    MW4 4605   2.706   4.217   1.893 -0.0398  0.4134  0.1069
 1134SOL     OW 4606   2.901   4.412   1.969  0.0866  0.1211 -0.3983
 1134SOL    HW2 4607   2.891   4.410   2.064  0.5978 -0.0693 -0.3476
 1134SOL    HW3 4608   2.830   4.357   1.936 -1.1518  1.5749 -0.2143
 1134SOL    MW4 4609   2.891   4.405   1.977 -0.0093  0.2875 -0.3674
 1135SOL     OW 4610   3.282   4.663   1.883 -0.2880  0.3058 -0.1329
 1135SOL    HW2 4611   3.306   4.579   1.923  1.6122  1.2013  0.6929
 1135SOL    HW3 4612   3.295   4.649   1.789 -0.4434 -0.4683 -0.0438
 1135SOL    MW4 4613   3.287   4.650   1.876 -0.0577  0.3219 -0.0120
 1136SOL     OW 4614   3.085   0.162   1.945  0.2307 -0.0474  0.0666
 1136SOL    HW2 4615   3.072   0.140   2.038 -0.7075 -0.1205 -0.0685
 1136SOL    HW3 4616   3.159   0.108   1.918 -0.2623 -0.9406  0.4638
 1136SOL    MW4 4617   3.093   0.152   1.954  0.0417 -0.1749  0.1011
 1137SOL     OW 4618   3.135   0.417   1.895  0.0560 -0.1551  0.0823
 1137SOL    HW2 4619   3.124   0.325   1.918  0.6170 -0.1174  0.5044
 1137SOL    HW3 4620   3.149   0.417   1.800  1.0004 -0.5830  0.2166
 1137SOL    MW4 4621   3.135   0.405   1.886  0.2549 -0.2066  0.1557
 1138SOL     OW 4622   3.375   0.521   1.995 -0.3008 -0.1896  0.1208
 1138SOL    HW2 4623   3.437   0.460   1.955  0.3444 -0.6104  1.7096
 1138SOL    HW3 4624   3.290   0.494   1.962 -0.0841 -2.3030  1.1692
 1138SOL    MW4 4625   3.372   0.509   1.986 -0.1872 -0.5240  0.4686
 1139SOL     OW 4626   3.414   0.758   1.858 -0.0712  0.2244  0.0214
 1139SOL    HW2 4627   3.329   0.789   1.889 -1.0847 -1.5722 -0.8420
 1139SOL    HW3 4628   3.424   0.671   1.898  0.3598 -0.4918 -1.5834
 1139SOL    MW4 4629   3.404   0.750   1.868 -0.1481 -0.1072 -0.3042
 1140SOL     OW 4630   3.192   0.888   1.986  0.2851 -0.1381  0.1657
 1140SOL    HW2 4631   3.190   0.899   2.082  0.8567  0.5840  0.0950
 1140SOL    HW3 4632   3.200   0.977   1.952 -0.7384 -0.3204 -0.5883
 1140SOL    MW4 4633   3.193   0.901   1.994  0.2253 -0.0669  0.0569
 1141SOL     OW 4634   3.184   1.152   1.881 -0.0100 -0.0727 -0.0843
 1141SOL    HW2 4635   3.251   1.201   1.929  0.1664  0.2729 -0.6918
 1141SOL    HW3 4636   3.101   1.180   1.920  0.1169  0.4026 -0.1543
 1141SOL    MW4 4637   3.182   1.162   1.893  0.0300  0.0356 -0.1737
 1142SOL     OW 4638   3.407   1.279   1.993  0.3197  0.1530 -0.7585
 1142SOL    HW2 4639   3.371   1.296   2.081 -0.9670 -0.7146 -1.1057
 1142SOL    HW3 4640   3.398   1.363   1.948  1.7097  0.8236  0.1771
 1142SOL    MW4 4641   3.401   1.292   1.999  0.3338  0.1270 -0.6809
 1143SOL     OW 4642   3.404   1.536   1.853  0.4096  0.0752 -0.3744
 1143SOL    HW2 4643   3.471   1.593   1.890  1.1174 -0.5288 -0.7117
 1143SOL    HW3 4644   3.321   1.577   1.879  0.8886  0.2667  0.9323
 1143SOL    MW4 4645   3.402   1.549   1.862  0.5658  0.0209 -0.2465
 1144SOL     OW 4646   3.165   1.633   1.949 -0.3307  0.4429  0.3013
 1144SOL    HW2 4647   3.186   1.634   2.042  0.7381 -1.0379  0.1057
 1144SOL    HW3 4648   3.150   1.724   1.927 -0.5184  0.8160  1.9085
 1144SOL    MW4 4649   3.166   1.645   1.958 -0.2143  0.2968  0.4876
 1145SOL     OW 4650   3.137   1.898   1.873 -0.2055  0.0903  0.0026
 1145SOL    HW2 4651   3.209   1.956   1.898 -0.2457  0.3342 -0.4572
 1145SOL    HW3 4652   3.127   1.911   1.779 -0.1435 -0.7324 -0.1264
 1145SOL    MW4 4653   3.145   1.907   1.864 -0.2027  0.0139 -0.0751
 1146SOL     OW 4654   3.385   2.040   1.970  0.1020 -0.4540  0.3847
 1146SOL    HW2 4655   3.466   2.005   1.932  1.1055 -0.6281  2.6093
 1146SOL    HW3 4656   3.385   2.133   1.948 -0.5686 -0.9797 -2.0837
 1146SOL    MW4 4657   3.395   2.047   1.962  0.1459 -0.5462  0.3525
 1147SOL     OW 4658   3.392   2.332   1.900 -0.5198 -0.0969  0.2579
 1147SOL    HW2 4659   3.313   2.372   1.936 -0.6919  0.6381 -0.9153
 1147SOL    HW3 4660   3.369   2.309   1.810  0.8267  0.7737 -0.3259
 1147SOL    MW4 4661   3.379   2.334   1.893 -0.3650  0.1149  0.0261
 1148SOL     OW 4662   3.168   2.435   1.973 -0.1517 -0.1387 -0.1581
 1148SOL    HW2 4663   3.173   2.437   2.069  2.4922  0.0031 -0.2421
 1148SOL    HW3 4664   3.168   2.527   1.947  2.3151 -0.1509 -0.3486
 1148SOL    MW4 4665   3.169   2.447   1.982  0.5224 -0.1214 -0.1943
 1149SOL     OW 4666   3.147   2.691   1.903  0.3394 -0.0367  0.2389
 1149SOL    HW2 4667   3.086   2.763   1.920 -0.7513 -1.0248  0.6086
 1149SOL    HW3 4668   3.150   2.685   1.807 -1.1117 -0.7485  0.2128
 1149SOL    MW4 4669   3.139   2.699   1.892  0.0041 -0.2608  0.2841
 1150SOL     OW 4670   3.380   2.857   1.944  0.0992 -0.5067 -0.4496
 1150SOL    HW2 4671   3.388   2.866   2.038  0.1926 -1.1564 -0.3962
 1150SOL    HW3 4672   3.302   2.803   1.931  0.0432 -0.3606 -0.7501
 1150SOL    MW4 4673   3.371   2.851   1.954  0.1042 -0.5729 -0.4823
 1151SOL     OW 4674   3.432   3.128   1.860  0.2905  0.2939  0.0537
 1151SOL    HW2 4675   3.505   3.168   1.908 -0.5160  0.0802  1.4810
 1151SOL    HW3 4676   3.422   3.041   1.899 -1.4766  0.7564  0.6812
 1151SOL    MW4 4677   3.441   3.122   1.872 -0.0491  0.3264  0.3247
 1152SOL     OW 4678   3.195   3.235   1.973 -0.3620  0.1824 -0.0304
 1152SOL    HW2 4679   3.180   3.317   1.926  0.7806  0.7853  0.6036
 1152SOL    HW3 4680   3.270   3.196   1.929 -0.3095 -0.0496  0.2672
 1152SOL    MW4 4681   3.203   3.241   1.961 -0.2043  0.2313  0.0926
 1153SOL     OW 4682   3.150   3.476   1.835 -0.0671  0.3951 -0.2212
 1153SOL    HW2 4683   3.229   3.517   1.869  0.4994 -1.8345  1.2802
 1153SOL    HW3 4684   3.164   3.471   1.740  1.3639  0.5167 -0.0280
 1153SOL    MW4 4685   3.162   3.481   1.827  0.1965  0.1168  0.0024
 1154SOL     OW 4686   3.364   3.620   1.958 -0.5965 -0.5058 -0.4921
 1154SOL    HW2 4687   3.447   3.580   1.932 -0.6698 -1.1919  0.3126
 1154SOL    HW3 4688   3.369   3.710   1.926 -0.0976 -0.9293 -1.6247
 1154SOL    MW4 4689   3.375   3.626   1.950 -0.5405 -0.6523 -0.5352
 1155SOL     OW 4690   3.345   3.875   1.880 -0.0036 -0.0641  0.1059
 1155SOL    HW2 4691   3.261   3.906   1.913  0.0823  0.0687  0.2000
 1155SOL    HW3 4692   3.340   3.884   1.785  0.8434  2.2824  0.2647
 1155SOL    MW4 4693   3.333   3.880   1.872  0.1194  0.2632  0.1394
 1156SOL     OW 4694   3.126   4.011   1.976  0.1337 -0.0466  0.4331
 1156SOL    HW2 4695   3.140   4.011   2.071  1.0615 -1.3839  0.3218
 1156SOL    HW3 4696   3.059   3.944   1.962  0.9129 -0.7583  0.0430
 1156SOL    MW4 4697   3.119   4.002   1.987  0.3591 -0.3171  0.3669
 1157SOL     OW 4698   3.113   4.259   1.869 -0.1394  0.3257  0.6059
 1157SOL    HW2 4699   3.105   4.174   1.913 -0.4618  0.8151  1.5128
 1157SOL    HW3 4700   3.042   4.311   1.907 -1.3351  0.3202 -1.5360
 1157SOL    MW4 4701   3.102   4.254   1.880 -0.3397  0.3891  0.4429
 1158SOL     OW 4702   3.345   4.409   1.940  0.0225  0.2438 -0.2927
 1158SOL    HW2 4703   3.410   4.348   1.906 -0.7373 -1.2603  0.8758
 1158SOL    HW3 4704   3.260   4.368   1.919 -0.5282  1.7056 -0.9590
 1158SOL    MW4 4705   3.342   4.395   1.933 -0.1504  0.2384 -0.2265
 1159SOL     OW 4706   3.785   4.665   1.896  0.5691 -0.0011  0.0159
 1159SOL    HW2 4707   3.781   4.570   1.900  0.9462 -0.0167  0.1309
 1159SOL    HW3 4708   3.697   4.694   1.918  0.3731 -0.3305 -0.3306
 1159SOL    MW4 4709   3.773   4.656   1.900  0.5929 -0.0467 -0.0145
 1160SOL     OW 4710   3.539   0.096   1.950  0.4038  0.8077  0.4768
 1160SOL    HW2 4711   3.544   0.082   2.045  0.1714  0.4646  0.4389
 1160SOL    HW3 4712   3.449   0.072   1.928  0.9122 -0.6510 -0.0825
 1160SOL    MW4 4713   3.528   0.091   1.960  0.4399  0.5699  0.3980
 1161SOL     OW 4714   3.569   0.346   1.893  0.0995  0.2528  0.3567
 1161SOL    HW2 4715   3.568   0.258   1.930  0.1270 -0.2383 -0.7937
 1161SOL    HW3 4716   3.560   0.333   1.799  0.5414  1.4598  0.1333
 1161SOL    MW4 4717   3.568   0.333   1.885  0.1616  0.3473  0.1755
 1162SOL     OW 4718   3.812   0.482   2.005  0.3162  0.5066 -0.3477
 1162SOL    HW2 4719   3.804   0.574   1.980  0.8757  1.0021  1.1992
 1162SOL    HW3 4720   3.737   0.439   1.965  1.3757  1.1568 -3.1539
 1162SOL    MW4 4721   3.801   0.489   1.997  0.5300  0.6578 -0.5138
 1163SOL     OW 4722   3.790   0.745   1.921 -0.7109  0.0743 -0.0405
 1163SOL    HW2 4723   3.714   0.792   1.955 -0.3527  0.9348 -0.4239
 1163SOL    HW3 4724   3.786   0.760   1.826  0.8545  1.5035  0.1009
 1163SOL    MW4 4725   3.779   0.753   1.913 -0.4573  0.3765 -0.0725
 1164SOL     OW 4726   3.578   0.885   2.057  0.4589 -0.0879 -0.0733
 1164SOL    HW2 4727   3.604   0.974   2.036 -1.8095  1.2531  2.4661
 1164SOL    HW3 4728   3.508   0.865   1.994  0.4025  0.2408 -0.1145
 1164SOL    MW4 4729   3.572   0.894   2.046  0.1521  0.1324  0.2565
 1165SOL     OW 4730   3.617   1.125   1.901  0.0504 -0.5709 -0.5153
 1165SOL    HW2 4731   3.541   1.177   1.924 -0.1170 -1.0959  0.1521
 1165SOL    HW3 4732   3.611   1.113   1.806  1.1945  2.3206 -0.9798
 1165SOL    MW4 4733   3.606   1.130   1.892  0.1795 -0.2587 -0.4886
 1166SOL     OW 4734   3.792   1.321   1.979 -0.7809 -0.4306 -0.1105
 1166SOL    HW2 4735   3.788   1.325   2.074 -0.4839 -0.3410 -0.1036
 1166SOL    HW3 4736   3.720   1.261   1.955 -0.6095 -0.7575  0.1883
 1166SOL    MW4 4737   3.782   1.314   1.988 -0.7193 -0.4618 -0.0701
 1167SOL     OW 4738   3.802   1.575   1.843  0.1993  0.2307 -0.1180
 1167SOL    HW2 4739   3.886   1.608   1.872  0.1948  0.7810 -0.7277
 1167SOL    HW3 4740   3.786   1.498   1.897  1.0252  0.2104  0.0923
 1167SOL    MW4 4741   3.811   1.569   1.854  0.3076  0.3008 -0.1706
 1168SOL     OW 4742   3.601   1.694   1.990  0.1488  0.2861 -0.3535
 1168SOL    HW2 4743   3.620   1.673   2.082  0.3186  1.1083 -0.2032
 1168SOL    HW3 4744   3.674   1.657   1.941 -0.4418 -1.0586 -0.2686
 1168SOL    MW4 4745   3.613   1.686   1.996  0.0932  0.2170 -0.3226
 1169SOL     OW 4746   3.626   1.953   1.868 -0.1536 -0.0717 -0.1922
 1169SOL    HW2 4747   3.708   1.999   1.887 -0.2572  0.4214 -0.9223
 1169SOL    HW3 4748   3.635   1.870   1.914  0.1176  0.5948  0.9678
 1169SOL    MW4 4749   3.638   1.948   1.876 -0.1316  0.0812 -0.1355
 1170SOL     OW 4750   3.850   2.081   1.957  0.2886 -0.1050  0.2913
 1170SOL    HW2 4751   3.934   2.045   1.928  0.0378  0.3075 -0.9735
 1170SOL    HW3 4752   3.854   2.173   1.931  0.1240  0.3180  1.7304
 1170SOL    MW4 4753   3.862   2.089   1.950  0.2339  0.0052  0.3144
 1171SOL     OW 4754   3.854   2.341   1.887  0.0135 -0.4874  0.1264
 1171SOL    HW2 4755   3.934   2.383   1.920 -0.0398  0.6701 -1.1592
 1171SOL    HW3 4756   3.785   2.370   1.947  0.0678  0.8964 -0.4557
 1171SOL    MW4 4757   3.855   2.350   1.899  0.0136 -0.1521 -0.1200
 1172SOL     OW 4758   3.620   2.422   2.036  0.6361 -0.4715  0.1320
 1172SOL    HW2 4759   3.608   2.514   2.013 -0.3636 -0.4811  0.5674
 1172SOL    HW3 4760   3.550   2.377   1.988  0.8043 -0.9364  0.3249
 1172SOL    MW4 4761   3.609   2.428   2.026  0.5262 -0.5341  0.2148
 1173SOL     OW 4762   3.581   2.681   1.919 -0.0920  0.3513 -0.1080
 1173SOL    HW2 4763   3.653   2.743   1.929 -0.5066  0.4050  2.9891
 1173SOL    HW3 4764   3.503   2.737   1.920 -0.2640  0.1784 -2.1788
 1173SOL    MW4 4765   3.580   2.697   1.921 -0.1695  0.3355  0.0275
 1174SOL     OW 4766   3.808   2.828   1.944  0.1754  0.3981  0.1287
 1174SOL    HW2 4767   3.816   2.850   2.037  1.9531 -0.2884  0.1470
 1174SOL    HW3 4768   3.838   2.906   1.898 -2.4694  1.4376  0.0801
 1174SOL    MW4 4769   3.813   2.841   1.950  0.0610  0.4447  0.1247
 1175SOL     OW 4770   3.864   3.100   1.836 -0.3993  0.1926 -0.3251
 1175SOL    HW2 4771   3.781   3.130   1.873 -0.7996 -1.4249  0.1296
 1175SOL    HW3 4772   3.858   3.121   1.743  0.1310  3.2325  0.2984
 1175SOL    MW4 4773   3.852   3.106   1.829 -0.3819  0.3803 -0.1827
 1176SOL     OW 4774   3.659   3.222   1.978  0.0722 -0.1739  0.4011
 1176SOL    HW2 4775   3.658   3.236   2.073  1.1983 -0.1074  0.4169
 1176SOL    HW3 4776   3.640   3.308   1.941 -0.0520 -0.1314  0.5648
 1176SOL    MW4 4777   3.657   3.235   1.986  0.2043 -0.1593  0.4247
 1177SOL     OW 4778   3.595   3.464   1.861 -0.2474 -0.1865 -0.2250
 1177SOL    HW2 4779   3.653   3.537   1.882 -0.7767  0.2334 -0.2440
 1177SOL    HW3 4780   3.596   3.460   1.765 -1.1397  0.5363 -0.2713
 1177SOL    MW4 4781   3.603   3.473   1.851 -0.4351 -0.0358 -0.2337
 1178SOL     OW 4782   3.777   3.636   1.964 -0.4961 -0.4107 -0.7028
 1178SOL    HW2 4783   3.858   3.606   1.922 -0.6622  0.1172 -1.4208
 1178SOL    HW3 4784   3.777   3.731   1.951 -0.9535 -0.3407 -0.2108
 1178SOL    MW4 4785   3.788   3.644   1.957 -0.5784 -0.3319 -0.7325
 1179SOL     OW 4786   3.777   3.888   1.875  0.3444 -0.2218  0.0243
 1179SOL    HW2 4787   3.692   3.931   1.890  0.4634  0.0815 -0.1511
 1179SOL    HW3 4788   3.783   3.879   1.780  1.0064  0.7939 -0.0412
 1179SOL    MW4 4789   3.767   3.893   1.864  0.4475 -0.0479 -0.0075
 1180SOL     OW 4790   3.551   4.025   1.968 -0.1646  0.2793  0.2649
 1180SOL    HW2 4791   3.549   4.020   2.064  0.1268  1.5654  0.3454
 1180SOL    HW3 4792   3.469   3.985   1.940  1.3003 -3.3608  0.8968
 1180SOL    MW4 4793   3.540   4.019   1.977  0.0670 -0.0319  0.3588
 1181SOL     OW 4794   3.543   4.265   1.837 -0.0620 -0.1342 -0.1696
 1181SOL    HW2 4795   3.626   4.310   1.855  0.3165  0.1298 -2.3777
 1181SOL    HW3 4796   3.547   4.186   1.890  1.4616  0.0552  0.0420
 1181SOL    MW4 4797   3.555   4.261   1.846  0.1891 -0.0739 -0.4331
 1182SOL     OW 4798   3.765   4.383   1.949  0.5541  0.0485 -0.2618
 1182SOL    HW2 4799   3.768   4.393   2.044  0.5527 -0.3741 -0.2164
 1182SOL    HW3 4800   3.854   4.362   1.923  1.0747  2.4916 -0.6327
 1182SOL    MW4 4801   3.777   4.382   1.958  0.6225  0.3147 -0.3047
 1183SOL     OW 4802   4.245   4.655   1.872 -0.6367 -0.2488 -0.5404
 1183SOL    HW2 4803   4.167   4.695   1.909 -0.4575  0.8694 -1.3291
 1183SOL    HW3 4804   4.317   4.689   1.926 -0.6442 -0.9212 -0.0985
 1183SOL    MW4 4805   4.244   4.665   1.884 -0.6137 -0.1903 -0.5860
 1184SOL     OW 4806   4.006   0.132   1.991  0.2557 -0.0318 -0.0575
 1184SOL    HW2 4807   4.012   0.137   2.086  0.9166 -1.3507 -0.0219
 1184SOL    HW3 4808   3.921   0.091   1.975  0.3584 -0.2651 -0.0145
 1184SOL    MW4 4809   3.995   0.127   2.001  0.3562 -0.2366 -0.0472
 1185SOL     OW 4810   4.023   0.376   1.875 -0.7401  0.1265 -0.2610
 1185SOL    HW2 4811   4.018   0.285   1.904 -1.0341  0.3247  0.2982
 1185SOL    HW3 4812   3.960   0.423   1.929 -0.9354  0.5799 -0.8755
 1185SOL    MW4 4813   4.014   0.370   1.886 -0.8049  0.2125 -0.2682
 1186SOL     OW 4814   4.238   0.488   2.011 -0.5193 -0.0252  0.3434
 1186SOL    HW2 4815   4.232   0.471   2.105  0.9565 -0.8914  0.2887
 1186SOL    HW3 4816   4.162   0.443   1.974 -1.0243  0.1929  1.0961
 1186SOL    MW4 4817   4.227   0.480   2.018 -0.3915 -0.1107  0.4356
 1187SOL     OW 4818   4.191   0.739   1.908 -0.1623 -0.2869 -0.2475
 1187SOL    HW2 4819   4.174   0.653   1.945  1.1527  0.0071  1.0744
 1187SOL    HW3 4820   4.213   0.722   1.816  1.1361 -1.4638  0.2708
 1187SOL    MW4 4821   4.192   0.726   1.901  0.1822 -0.4034 -0.0048
 1188SOL     OW 4822   3.984   0.917   1.997 -0.0538  0.7778  0.0317
 1188SOL    HW2 4823   4.054   0.854   1.983 -0.5295  0.2005  0.2336
 1188SOL    HW3 4824   3.904   0.871   1.973 -0.3857  1.3780 -0.0362
 1188SOL    MW4 4825   3.983   0.903   1.992 -0.1605  0.7808  0.0494
 1189SOL     OW 4826   3.974   1.164   1.842  0.5373  0.3910  0.3343
 1189SOL    HW2 4827   3.962   1.077   1.881  0.8792  0.5082  0.7101
 1189SOL    HW3 4828   3.924   1.223   1.899  0.3821  0.4523  0.1332
 1189SOL    MW4 4829   3.966   1.160   1.855  0.5620  0.4147  0.3574
 1190SOL     OW 4830   4.219   1.242   1.971  0.6498  0.1712  0.3587
 1190SOL    HW2 4831   4.221   1.251   2.067  0.1590 -0.5363  0.4389
 1190SOL    HW3 4832   4.140   1.192   1.953  0.3423  0.9523 -0.4841
 1190SOL    MW4 4833   4.209   1.236   1.982  0.5441  0.1810  0.2581
 1191SOL     OW 4834   4.253   1.516   1.900 -0.2163  0.0541  0.0172
 1191SOL    HW2 4835   4.225   1.428   1.923 -1.5496  0.4648 -0.0044
 1191SOL    HW3 4836   4.245   1.521   1.805 -0.6686  0.3593  0.0653
 1191SOL    MW4 4837   4.248   1.505   1.891 -0.4520  0.1485  0.0207
 1192SOL     OW 4838   4.017   1.658   1.982 -0.5671 -0.1127 -0.4462
 1192SOL    HW2 4839   4.006   1.681   2.074  1.6810  1.3979 -0.5193
 1192SOL    HW3 4840   4.091   1.598   1.981 -0.2346  0.3041 -1.3356
 1192SOL    MW4 4841   4.025   1.653   1.994 -0.2265  0.1416 -0.5733
 1193SOL     OW 4842   4.080   1.940   1.898 -0.2818  1.0569 -0.3951
 1193SOL    HW2 4843   4.077   1.846   1.916 -0.0493  1.4318  1.7269
 1193SOL    HW3 4844   4.084   1.946   1.803  1.7758 -1.1376 -0.4904
 1193SOL    MW4 4845   4.080   1.928   1.888  0.0200  0.8168 -0.1277
 1194SOL     OW 4846   4.306   2.064   2.027  0.0720 -0.2798 -0.4029
 1194SOL    HW2 4847   4.313   2.050   2.122 -0.9186 -2.3620 -0.6201
 1194SOL    HW3 4848   4.224   2.023   2.003  0.4898 -0.0527 -2.2390
 1194SOL    MW4 4849   4.296   2.057   2.037 -0.0038 -0.5245 -0.6740
 1195SOL     OW 4850   0.031   2.437   1.936  0.1224  0.0210 -0.4607
 1195SOL    HW2 4851  -0.042   2.391   1.896  0.8835 -2.0483  0.4824
 1195SOL    HW3 4852   0.010   2.440   2.029  0.0027  1.7578 -0.5237
 1195SOL    MW4 4853   0.019   2.432   1.943  0.2070 -0.0229 -0.3446
 1196SOL     OW 4854   4.280   2.291   1.884 -0.5253 -0.0650  0.0891
 1196SOL    HW2 4855   4.212   2.342   1.928 -0.2490 -0.6395  1.2044
 1196SOL    HW3 4856   4.301   2.221   1.946  0.7563 -0.1570 -0.4394
 1196SOL    MW4 4857   4.273   2.289   1.898 -0.3200 -0.1526  0.1664
 1197SOL     OW 4858   4.073   2.451   1.976 -0.1377 -0.5241 -0.3343
 1197SOL    HW2 4859   4.091   2.452   2.070 -1.5391 -2.0476 -0.0238
 1197SOL    HW3 4860   4.062   2.544   1.953 -1.5535 -0.2287  1.3885
 1197SOL    MW4 4861   4.074   2.463   1.986 -0.5093 -0.6859 -0.0660
 1198SOL     OW 4862   4.062   2.720   1.908 -0.0733 -0.3608 -0.4952
 1198SOL    HW2 4863   4.134   2.780   1.931 -0.3171 -0.6278  1.0165
 1198SOL    HW3 4864   3.984   2.761   1.944 -0.2547 -1.5276  0.4905
 1198SOL    MW4 4865   4.061   2.733   1.916 -0.1292 -0.5503 -0.1658
 1199SOL     OW 4866   4.239   3.114   1.833 -0.0539  0.3488 -0.1620
 1199SOL    HW2 4867   4.171   3.167   1.874 -1.3381 -0.0533 -1.7194
 1199SOL    HW3 4868   4.248   3.038   1.891 -0.0294  1.0091  0.7092
 1199SOL    MW4 4869   4.231   3.111   1.846 -0.2203  0.3829 -0.2525
 1200SOL     OW 4870   4.059   3.271   2.002  0.3062 -0.9116 -0.2238
 1200SOL    HW2 4871   4.064   3.259   2.097  0.2470 -0.2158 -0.1310
 1200SOL    HW3 4872   3.983   3.219   1.975  1.7281 -3.0879 -0.2306
 1200SOL    MW4 4873   4.049   3.262   2.011  0.4859 -1.1067 -0.2124
 1201SOL     OW 4874   4.023   3.517   1.871  0.2958  0.7748 -0.0405
 1201SOL    HW2 4875   4.111   3.546   1.898  1.1120  0.2425 -2.0890
 1201SOL    HW3 4876   4.006   3.441   1.926  1.3030  0.6164  0.0668
 1201SOL    MW4 4877   4.033   3.511   1.882  0.5364  0.6835 -0.2965
 1202SOL     OW 4878   4.250   3.662   1.960  0.4235  0.2989 -0.5488
 1202SOL    HW2 4879   4.312   3.593   1.937  0.3852  0.0420  0.1027
 1202SOL    HW3 4880   4.254   3.666   2.056 -0.1272  0.6889 -0.5434
 1202SOL    MW4 4881   4.259   3.654   1.970  0.3457  0.3166 -0.4622
 1203SOL     OW 4882   4.233   3.928   1.862 -0.3202  0.6033  0.5055
 1203SOL    HW2 4883   4.319   3.965   1.881 -0.1461  0.5981 -0.2541
 1203SOL    HW3 4884   4.239   3.837   1.889  0.1101  0.4451 -0.1355
 1203SOL    MW4 4885   4.245   3.921   1.868 -0.2408  0.5815  0.3208
 1204SOL     OW 4886   4.003   4.038   1.974 -0.4346 -0.0839 -0.3974
 1204SOL    HW2 4887   4.084   4.001   1.939 -0.4961  0.7006 -1.4033
 1204SOL    HW3 4888   3.934   3.983   1.935 -0.5151  0.9322 -1.7176
 1204SOL    MW4 4889   4.004   4.026   1.964 -0.4530  0.1535 -0.7044
 1205SOL     OW 4890   4.028   4.291   1.877  0.4070 -0.4082  0.4439
 1205SOL    HW2 4891   4.112   4.330   1.902  0.7770  0.7094 -2.3442
 1205SOL    HW3 4892   4.029   4.204   1.916  2.2701  0.1069  1.5910
 1205SOL    MW4 4893   4.039   4.284   1.885  0.7014 -0.1931  0.2275
 1206SOL     OW 4894   4.290   4.390   1.952 -0.0486  0.1788  0.3365
 1206SOL    HW2 4895   4.277   4.384   2.046 -0.9775  0.3771  0.2307
 1206SOL    HW3 4896   4.283   4.484   1.933  0.2264  0.1488  0.0868
 1206SOL    MW4 4897   4.287   4.402   1.962 -0.1349  0.2012  0.2897
 1207SOL     OW 4898   0.173   4.657   2.332  0.2460 -0.1251  0.4373
 1207SOL    HW2 4899   0.176   4.632   2.424  1.4743  1.1164  0.7381
 1207SOL    HW3 4900   0.251   4.710   2.318  0.1822 -0.4638 -1.3764
 1207SOL    MW4 4901   0.183   4.661   2.342  0.3997 -0.0057  0.2375
 1208SOL     OW 4902   4.458   0.129   2.251 -0.2881  0.3745  0.8987
 1208SOL    HW2 4903   4.534   0.080   2.282 -1.4210 -1.9097  0.1452
 1208SOL    HW3 4904   4.472   0.141   2.157 -0.8756 -0.0785  0.7511
 1208SOL    MW4 4905   4.469   0.124   2.243 -0.5155  0.0133  0.7799
 1209SOL     OW 4906   4.460   0.387   2.401 -0.0524  0.1200  0.1072
 1209SOL    HW2 4907   4.526   0.446   2.363 -0.1786  0.6717  0.7281
 1209SOL    HW3 4908   4.476   0.303   2.359 -0.2900  0.7613 -1.2763
 1209SOL    MW4 4909   4.471   0.384   2.391 -0.1004  0.2774  0.0064
 1210SOL     OW 4910   0.175   0.503   2.265 -0.3647  0.1975 -0.1584
 1210SOL    HW2 4911   0.263   0.476   2.291 -0.1601  0.4075 -0.6325
 1210SOL    HW3 4912   0.178   0.504   2.169 -0.6057  1.1500 -0.1558
 1210SOL    MW4 4913   0.187   0.499   2.255 -0.3695  0.3509 -0.2205
 1211SOL     OW 4914   0.160   0.767   2.351  0.1142 -0.1688  0.4229
 1211SOL    HW2 4915   0.163   0.743   2.444  2.5234 -1.1247  0.1570
 1211SOL    HW3 4916   0.155   0.683   2.306 -1.1934  0.3027 -0.3347
 1211SOL    MW4 4917   0.160   0.753   2.358  0.2596 -0.2327  0.2880
 1212SOL     OW 4918   4.428   0.880   2.256  0.2720 -0.1311 -0.1293
 1212SOL    HW2 4919   4.506   0.844   2.297  0.5153  0.0888 -0.3957
 1212SOL    HW3 4920   4.448   0.880   2.162  0.8317  2.0109 -0.0274
 1212SOL    MW4 4921   4.441   0.875   2.249  0.3777  0.1804 -0.1509
 1213SOL     OW 4922   4.478   1.139   2.364 -0.4761 -0.1146  0.2746
 1213SOL    HW2 4923   4.475   1.135   2.460 -1.0700 -0.0478  0.2634
 1213SOL    HW3 4924   4.448   1.052   2.336  0.9597 -0.5801  0.1581
 1213SOL    MW4 4925   4.474   1.127   2.373 -0.3648 -0.1673  0.2577
 1214SOL     OW 4926   0.228   1.255   2.295  0.0094  0.1222 -0.0656
 1214SOL    HW2 4927   0.157   1.201   2.330  0.4748 -0.1523  0.4734
 1214SOL    HW3 4928   0.216   1.252   2.200 -0.4359 -0.2803  0.0000
 1214SOL    MW4 4929   0.217   1.247   2.287  0.0121  0.0328  0.0143
 1215SOL     OW 4930   0.263   1.524   2.359 -0.0581  0.0113  0.0790
 1215SOL    HW2 4931   0.270   1.527   2.454  0.6109 -0.9427  0.0652
 1215SOL    HW3 4932   0.251   1.431   2.338  0.2320  0.1635 -0.7936
 1215SOL    MW4 4933   0.262   1.512   2.369  0.0685 -0.0945 -0.0381
 1216SOL     OW 4934   0.030   1.641   2.283 -0.1067  0.2042  0.2620
 1216SOL    HW2 4935   0.041   1.733   2.308  1.5934 -0.0869  0.6788
 1216SOL    HW3 4936   0.117   1.602   2.295 -0.5939 -1.2667 -0.7242
 1216SOL    MW4 4937   0.043   1.648   2.288  0.0533 -0.0283  0.1869
 1217SOL     OW 4938   0.009   1.901   2.376  0.0347  0.4261 -0.5279
 1217SOL    HW2 4939  -0.078   1.941   2.372  0.1059  0.5245 -1.2078
 1217SOL    HW3 4940   0.060   1.948   2.310  0.6908  0.5729  0.0770
 1217SOL    MW4 4941   0.004   1.913   2.366  0.1307  0.4586 -0.5381
 1218SOL     OW 4942   0.220   2.029   2.232  0.0866 -0.0547  0.2543
 1218SOL    HW2 4943   0.292   1.979   2.270  0.7844  1.1200  0.4909
 1218SOL    HW3 4944   0.230   2.018   2.137 -0.0940 -0.8159  0.3229
 1218SOL    MW4 4945   0.231   2.021   2.224  0.1548  0.0000  0.2944
 1219SOL     OW 4946   0.206   2.302   2.338  0.0753 -0.3125 -0.0414
 1219SOL    HW2 4947   0.212   2.311   2.433  0.1389 -0.5339 -0.0241
 1219SOL    HW3 4948   0.222   2.209   2.322  0.9593 -0.1105 -0.3455
 1219SOL    MW4 4949   0.209   2.291   2.349  0.2003 -0.3152 -0.0792
 1220SOL     OW 4950   4.489   2.440   2.221  0.2194 -0.0322  0.0432
 1220SOL    HW2 4951   4.547   2.375   2.261 -1.2327 -1.9331 -0.9137
 1220SOL    HW3 4952   4.512   2.522   2.266  0.2642 -1.6447  3.1262
 1220SOL    MW4 4953   4.500   2.443   2.232  0.0339 -0.4957  0.3235
 1221SOL     OW 4954   4.490   2.698   2.336 -0.2044  0.0767 -0.6055
 1221SOL    HW2 4955   4.481   2.708   2.431  0.6377 -0.1825 -0.4958
 1221SOL    HW3 4956   4.574   2.740   2.315 -0.1168 -0.3651 -1.1508
 1221SOL    MW4 4957   4.500   2.705   2.346 -0.0818 -0.0155 -0.6630
 1222SOL     OW 4958   0.245   2.842   2.266  0.1377 -0.7184 -0.5056
 1222SOL    HW2 4959   0.336   2.813   2.279  0.6358  0.7345 -0.7096
 1222SOL    HW3 4960   0.238   2.855   2.172  0.0550  0.2748 -0.3611
 1222SOL    MW4 4961   0.256   2.840   2.256  0.1925 -0.3958 -0.5133
 1223SOL     OW 4962   0.232   3.112   2.341 -0.4402  0.1463 -0.2167
 1223SOL    HW2 4963   0.158   3.142   2.289 -1.3616 -1.1951  0.2802
 1223SOL    HW3 4964   0.233   3.017   2.329  0.6869  0.0541  0.4651
 1223SOL    MW4 4965   0.223   3.103   2.333 -0.4131 -0.0427 -0.0613
 1224SOL     OW 4966   0.027   3.210   2.205 -0.2362  0.3282  0.2689
 1224SOL    HW2 4967   0.006   3.301   2.225 -1.3805  0.2449 -0.4962
 1224SOL    HW3 4968   0.032   3.207   2.109  0.4337 -0.2853  0.3122
 1224SOL    MW4 4969   0.025   3.222   2.195 -0.2988  0.2363  0.1736
 1225SOL     OW 4970   4.457   3.467   2.322  0.0273 -0.0630 -0.4457
 1225SOL    HW2 4971   4.467   3.478   2.417  0.3690  0.3061 -0.5272
 1225SOL    HW3 4972   4.378   3.517   2.300 -0.7093 -1.0670 -0.1846
 1225SOL    MW4 4973   4.448   3.475   2.332 -0.0253 -0.1469 -0.4220
 1226SOL     OW 4974   0.224   3.561   2.245  0.1246  0.5297  0.0682
 1226SOL    HW2 4975   0.292   3.515   2.293  0.3624  0.0818 -0.6891
 1226SOL    HW3 4976   0.142   3.523   2.276  0.2002  1.2371  1.1567
 1226SOL    MW4 4977   0.222   3.550   2.255  0.1660  0.5639  0.1121
 1227SOL     OW 4978   0.258   3.840   2.284 -0.0492  0.3604 -0.5251
 1227SOL    HW2 4979   0.173   3.878   2.260  0.2043  0.3745 -1.4042
 1227SOL    HW3 4980   0.256   3.752   2.246  0.3285  0.3600 -0.5381
 1227SOL    MW4 4981   0.246   3.834   2.276  0.0341  0.3624 -0.6430
 1228SOL     OW 4982   4.490   3.989   2.240 -0.8051 -0.3120  0.2831
 1228SOL    HW2 4983   4.471   4.077   2.271 -2.6522 -0.5049 -0.2197
 1228SOL    HW3 4984   4.487   3.995   2.145 -0.1350 -0.7510  0.2303
 1228SOL    MW4 4985   4.487   4.001   2.232 -0.9604 -0.3953  0.2098
 1229SOL     OW 4986   4.481   4.246   2.345  0.2396  0.2275 -0.0736
 1229SOL    HW2 4987   4.492   4.268   2.437  1.5257 -1.0470  0.0992
 1229SOL    HW3 4988   4.547   4.298   2.300  1.1720 -0.9052 -0.0147
 1229SOL    MW4 4989   4.491   4.256   2.351  0.5326 -0.0896 -0.0429
 1230SOL     OW 4990   0.188   4.395   2.235  0.2012 -0.1568  0.4452
 1230SOL    HW2 4991   0.267   4.366   2.281  1.5703  2.7374  0.0205
 1230SOL    HW3 4992   0.175   4.486   2.264 -0.5496  0.7987 -2.6725
 1230SOL    MW4 4993   0.197   4.403   2.245  0.2828  0.3505 -0.0222
 1231SOL     OW 4994   0.656   4.666   2.329 -0.3614  0.7999  0.3169
 1231SOL    HW2 4995   0.660   4.646   2.423  0.2124 -1.9985 -0.2397
 1231SOL    HW3 4996   0.745   4.690   2.305 -0.0845 -0.3508  0.1457
 1231SOL    MW4 4997   0.668   4.666   2.338 -0.2492  0.2794  0.2208
 1232SOL     OW 4998   0.395   0.139   2.252  0.0166  0.2063 -0.0853
 1232SOL    HW2 4999   0.478   0.107   2.288 -0.6573 -0.0237  1.2990
 1232SOL    HW3 5000   0.411   0.144   2.158  1.3180 -0.6847  0.0601
 1232SOL    MW4 5001   0.408   0.135   2.244  0.0994  0.0584  0.1166
 1233SOL     OW 5002   0.431   0.397   2.355 -0.2432 -0.4284  0.1315
 1233SOL    HW2 5003   0.441   0.379   2.448  0.0320 -1.3671 -0.0735
 1233SOL    HW3 5004   0.416   0.311   2.315  2.3164 -0.4000 -1.0389
 1233SOL    MW4 5005   0.430   0.383   2.362  0.1309 -0.5485 -0.0498
 1234SOL     OW 5006   0.698   0.470   2.263 -0.1757  0.0893 -0.2216
 1234SOL    HW2 5007   0.692   0.560   2.296 -0.7157  1.1200 -2.9750
 1234SOL    HW3 5008   0.615   0.430   2.290 -0.9214  1.1324 -0.9033
 1234SOL    MW4 5009   0.686   0.477   2.271 -0.3453  0.3629 -0.6750
 1235SOL     OW 5010   0.647   0.744   2.363  0.0143 -0.2392 -0.5350
 1235SOL    HW2 5011   0.663   0.747   2.457  0.6301  1.4200 -0.6635
 1235SOL    HW3 5012   0.562   0.786   2.351  0.5316  0.7565 -0.8171
 1235SOL    MW4 5013   0.638   0.750   2.374  0.1638  0.1111 -0.5891
 1236SOL     OW 5014   0.407   0.897   2.309  0.6240  0.4787  0.0318
 1236SOL    HW2 5015   0.320   0.868   2.340  0.3805  0.0504 -1.0203
 1236SOL    HW3 5016   0.398   0.901   2.214  2.0518 -0.5374 -0.1622
 1236SOL    MW4 5017   0.394   0.894   2.301  0.7803  0.2881 -0.1330
 1237SOL     OW 5018   0.462   1.148   2.396 -0.7577  0.1132 -0.0667
 1237SOL    HW2 5019   0.457   1.056   2.369 -0.7402  0.6058 -1.7527
 1237SOL    HW3 5020   0.381   1.187   2.362 -0.0146  1.0806 -0.7327
 1237SOL    MW4 5021   0.451   1.141   2.388 -0.6574  0.3059 -0.3769
 1238SOL     OW 5022   0.668   1.291   2.300 -0.5079 -0.8611  0.6334
 1238SOL    HW2 5023   0.652   1.375   2.342  0.8865 -1.2729  1.9886
 1238SOL    HW3 5024   0.596   1.236   2.330 -0.2028 -0.7955  1.4844
 1238SOL    MW4 5025   0.656   1.295   2.309 -0.2837 -0.9066  0.9243
 1239SOL     OW 5026   0.699   1.543   2.388 -0.6565 -0.2041  0.0970
 1239SOL    HW2 5027   0.714   1.560   2.481 -0.5236 -2.2627  0.4820
 1239SOL    HW3 5028   0.776   1.579   2.345 -1.7151  2.6610  0.5517
 1239SOL    MW4 5029   0.711   1.550   2.395 -0.7787 -0.0978  0.2074
 1240SOL     OW 5030   0.488   1.668   2.271  0.0388 -0.1802  0.2610
 1240SOL    HW2 5031   0.566   1.631   2.311  0.4770 -0.2200 -0.6230
 1240SOL    HW3 5032   0.415   1.623   2.314  0.5329 -1.0971  0.1496
 1240SOL    MW4 5033   0.488   1.658   2.282  0.1618 -0.3065  0.1299
 1241SOL     OW 5034   0.474   1.953   2.338  0.3284 -0.1414 -0.1590
 1241SOL    HW2 5035   0.538   2.012   2.297  1.7050 -1.1211  0.5384
 1241SOL    HW3 5036   0.488   1.869   2.293 -0.3676 -0.3998  0.1108
 1241SOL    MW4 5037   0.485   1.950   2.326  0.4182 -0.3048 -0.0315
 1242SOL     OW 5038   0.678   2.076   2.225  0.7598 -0.3806 -0.5439
 1242SOL    HW2 5039   0.741   2.009   2.252 -0.4162 -0.4907  2.0136
 1242SOL    HW3 5040   0.706   2.155   2.270 -1.2951 -0.5961  1.1621
 1242SOL    MW4 5041   0.690   2.078   2.234  0.3335 -0.4237  0.0188
 1243SOL     OW 5042   0.680   2.323   2.372  0.4462  0.0218 -0.0312
 1243SOL    HW2 5043   0.679   2.334   2.467  0.1415  0.5083 -0.0890
 1243SOL    HW3 5044   0.745   2.386   2.342 -0.8591  1.2607 -0.3096
 1243SOL    MW4 5045   0.688   2.332   2.381  0.2338  0.2496 -0.0756
 1244SOL     OW 5046   0.432   2.435   2.255  0.2334 -0.2944  0.0246
 1244SOL    HW2 5047   0.498   2.395   2.311  0.2481  0.7302  0.7529
 1244SOL    HW3 5048   0.350   2.395   2.283  0.5061 -1.4011 -0.7277
 1244SOL    MW4 5049   0.430   2.424   2.266  0.2714 -0.3054  0.0212
 1245SOL     OW 5050   0.489   2.701   2.334  0.3057  0.0581 -0.2629
 1245SOL    HW2 5051   0.474   2.705   2.429  2.9525  1.4947  0.1370
 1245SOL    HW3 5052   0.477   2.609   2.313 -0.0566 -0.3359  1.5068
 1245SOL    MW4 5053   0.485   2.689   2.344  0.6071  0.1957  0.0234
 1246SOL     OW 5054   0.680   2.856   2.222 -0.5457 -0.0626 -0.3820
 1246SOL    HW2 5055   0.756   2.805   2.248 -1.4857 -1.6018 -0.6221
 1246SOL    HW3 5056   0.605   2.807   2.255 -1.4451  1.4160 -0.1736
 1246SOL    MW4 5057   0.680   2.843   2.229 -0.7884 -0.0706 -0.3862
 1247SOL     OW 5058   0.701   3.104   2.350  0.1639  0.7798 -0.1849
 1247SOL    HW2 5059   0.624   3.147   2.312 -0.9746 -2.2099 -1.3987
 1247SOL    HW3 5060   0.696   3.013   2.319  3.3717  0.1388  0.9472
 1247SOL    MW4 5061   0.690   3.098   2.341  0.4370  0.3004 -0.1955
 1248SOL     OW 5062   0.467   3.208   2.229 -0.2387  0.6412  0.3104
 1248SOL    HW2 5063   0.381   3.180   2.260 -0.0203  0.3449  0.6413
 1248SOL    HW3 5064   0.456   3.216   2.134 -0.2343 -0.7749  0.1847
 1248SOL    MW4 5065   0.454   3.206   2.221 -0.2093  0.4153  0.3374
 1249SOL     OW 5066   0.436   3.447   2.370  0.2208  0.1475  0.3111
 1249SOL    HW2 5067   0.502   3.510   2.339  1.6585 -0.5476  1.9052
 1249SOL    HW3 5068   0.469   3.362   2.342 -0.0202 -0.2001  1.0748
 1249SOL    MW4 5069   0.449   3.444   2.362  0.3787  0.0098  0.6223
 1250SOL     OW 5070   0.619   3.620   2.256  0.3054  0.0936  0.4551
 1250SOL    HW2 5071   0.608   3.710   2.288 -2.5308 -0.2277  0.5557
 1250SOL    HW3 5072   0.626   3.629   2.161  1.2970  0.5122  0.5673
 1250SOL    MW4 5073   0.618   3.633   2.247  0.0620  0.1066  0.4833
 1251SOL     OW 5074   0.626   3.866   2.361  0.0590 -0.3819  0.0448
 1251SOL    HW2 5075   0.637   3.886   2.453  2.1771  0.2199 -0.3229
 1251SOL    HW3 5076   0.570   3.937   2.328  1.5453  0.9344  0.2989
 1251SOL    MW4 5077   0.620   3.878   2.368  0.5345 -0.1285  0.0296
 1252SOL     OW 5078   0.452   4.042   2.229 -0.8669  0.7288  0.2835
 1252SOL    HW2 5079   0.377   3.990   2.258 -0.9027  1.8539  2.2659
 1252SOL    HW3 5080   0.450   4.035   2.133 -1.8101 -1.5872  0.4302
 1252SOL    MW4 5081   0.442   4.034   2.220 -0.9960  0.5713  0.5641
 1253SOL     OW 5082   0.435   4.295   2.336 -0.1828  0.3398  0.0944
 1253SOL    HW2 5083   0.517   4.339   2.315  0.1814 -0.1994  0.3902
 1253SOL    HW3 5084   0.442   4.209   2.294 -0.0948 -0.1595  1.0952
 1253SOL    MW4 5085   0.447   4.289   2.328 -0.1231  0.2031  0.2656
 1254SOL     OW 5086   0.666   4.401   2.263 -0.4460  0.1908 -0.2128
 1254SOL    HW2 5087   0.661   4.491   2.295 -2.2852  0.4398 -1.1376
 1254SOL    HW3 5088   0.699   4.409   2.173  0.1559 -0.1293 -0.0248
 1254SOL    MW4 5089   0.669   4.414   2.255 -0.6093  0.1812 -0.3102
 1255SOL     OW 5090   1.125   4.653   2.378  0.3003  0.5643  0.2201
 1255SOL    HW2 5091   1.108   4.661   2.472  1.1409  0.2470  0.4022
 1255SOL    HW3 5092   1.042   4.678   2.337 -0.5370 -0.7144  1.0777
 1255SOL    MW4 5093   1.111   4.658   2.385  0.3006  0.3538  0.3572
 1256SOL     OW 5094   0.900   0.102   2.280  0.0573  0.0798 -0.1198
 1256SOL    HW2 5095   0.917   0.194   2.301 -2.1050  0.6984 -0.9436
 1256SOL    HW3 5096   0.901   0.099   2.184 -0.3698 -0.6593 -0.1007
 1256SOL    MW4 5097   0.903   0.114   2.270 -0.2843  0.0639 -0.2263
 1257SOL     OW 5098   0.923   0.367   2.386  0.2797 -0.3031  0.1539
 1257SOL    HW2 5099   0.994   0.412   2.339 -0.1855 -1.2737 -1.5067
 1257SOL    HW3 5100   0.843   0.403   2.347 -0.1034 -1.9194 -0.5692
 1257SOL    MW4 5101   0.921   0.378   2.375  0.1677 -0.6444 -0.1607
 1258SOL     OW 5102   1.118   0.534   2.268 -0.0911 -0.1630  0.0065
 1258SOL    HW2 5103   1.194   0.487   2.302  0.5805  1.5250  0.8732
 1258SOL    HW3 5104   1.124   0.524   2.173  0.6866 -0.8192  0.1241
 1258SOL    MW4 5105   1.128   0.526   2.260  0.1003 -0.0269  0.1366
 1259SOL     OW 5106   1.113   0.771   2.379  0.8533 -0.1180 -0.3608
 1259SOL    HW2 5107   1.026   0.808   2.361  0.1860 -0.9237  1.0295
 1259SOL    HW3 5108   1.109   0.682   2.343  1.1717 -0.0848 -0.4786
 1259SOL    MW4 5109   1.101   0.764   2.372  0.8073 -0.2199 -0.1931
 1260SOL     OW 5110   0.877   0.873   2.291 -0.1811  0.0314  0.1655
 1260SOL    HW2 5111   0.874   0.963   2.324  0.9755  0.0891  0.1398
 1260SOL    HW3 5112   0.796   0.833   2.322  0.0985  0.5837  1.6536
 1260SOL    MW4 5113   0.866   0.879   2.299  0.0084  0.1118  0.3586
 1261SOL     OW 5114   0.888   1.118   2.401  0.3193 -0.1871 -0.0564
 1261SOL    HW2 5115   0.968   1.158   2.365  0.2596  0.1611  0.1985
 1261SOL    HW3 5116   0.817   1.170   2.364  0.2114 -0.4503 -0.2222
 1261SOL    MW4 5117   0.889   1.130   2.391  0.2971 -0.1760 -0.0448
 1262SOL     OW 5118   1.110   1.245   2.270 -0.1106  0.3418 -0.2288
 1262SOL    HW2 5119   1.175   1.187   2.309 -0.7076 -0.6212 -0.6766
 1262SOL    HW3 5120   1.136   1.252   2.178  0.0885  0.9762 -0.1325
 1262SOL    MW4 5121   1.122   1.239   2.263 -0.1631  0.2985 -0.2751
 1263SOL     OW 5122   1.174   1.503   2.343  0.0410 -0.1482  0.2526
 1263SOL    HW2 5123   1.099   1.560   2.322 -0.0537  0.4905  2.2581
 1263SOL    HW3 5124   1.147   1.417   2.312 -0.5402  0.5364 -1.2161
 1263SOL    MW4 5125   1.160   1.499   2.336 -0.0482  0.0263  0.3235
 1264SOL     OW 5126   0.934   1.653   2.274  0.6758 -0.2587  0.0328
 1264SOL    HW2 5127   0.926   1.737   2.318 -0.2336  0.0930 -0.7991
 1264SOL    HW3 5128   0.923   1.673   2.181 -1.8091 -1.5883  0.0036
 1264SOL    MW4 5129   0.932   1.667   2.268  0.2279 -0.3877 -0.0808
 1265SOL     OW 5130   0.864   1.909   2.377 -0.1217  0.0959  0.1733
 1265SOL    HW2 5131   0.857   1.918   2.472  0.1580  0.6031  0.1467
 1265SOL    HW3 5132   0.949   1.948   2.355  0.1247 -0.6486 -0.2040
 1265SOL    MW4 5133   0.874   1.915   2.387 -0.0523  0.0645  0.1199
 1266SOL     OW 5134   1.099   2.013   2.278  0.3395 -0.0129  0.1612
 1266SOL    HW2 5135   1.185   1.976   2.296  0.8494  0.5283 -1.1721
 1266SOL    HW3 5136   1.104   2.046   2.189 -0.9946  0.7554  0.3524
 1266SOL    MW4 5137   1.111   2.013   2.269  0.2308  0.1600  0.0105
 1267SOL     OW 5138   1.102   2.286   2.308 -0.2018 -0.0231  0.0152
 1267SOL    HW2 5139   1.183   2.324   2.272  0.4650 -1.2008  0.2633
 1267SOL    HW3 5140   1.105   2.194   2.283 -0.4511 -0.5369  1.8115
 1267SOL    MW4 5141   1.113   2.279   2.299 -0.1467 -0.2460  0.2849
 1268SOL     OW 5142   0.881   2.460   2.254 -0.0551 -0.0001  0.5759
 1268SOL    HW2 5143   0.955   2.406   2.283  0.2920 -0.0204 -0.3225
 1268SOL    HW3 5144   0.888   2.460   2.159 -1.4007 -0.2526  0.4719
 1268SOL    MW4 5145   0.892   2.453   2.245 -0.1869 -0.0360  0.4432
 1269SOL     OW 5146   0.895   2.726   2.321  0.1291  0.0692 -0.1380
 1269SOL    HW2 5147   0.863   2.737   2.411  1.0263  0.6475  0.1225
 1269SOL    HW3 5148   0.884   2.633   2.302 -0.3123 -0.0040  0.4808
 1269SOL    MW4 5149   0.890   2.715   2.330  0.1892  0.1361 -0.0219
 1270SOL     OW 5150   1.127   2.850   2.205 -0.0978 -0.2139  0.1307
 1270SOL    HW2 5151   1.196   2.806   2.255  0.0093 -0.1599  0.0304
 1270SOL    HW3 5152   1.046   2.808   2.234  0.0333 -0.6890 -0.1934
 1270SOL    MW4 5153   1.126   2.839   2.215 -0.0664 -0.2694  0.0749
 1271SOL     OW 5154   1.090   3.110   2.328 -0.1455 -0.0041  0.0086
 1271SOL    HW2 5155   1.025   3.168   2.289 -0.1572  0.5023  0.7823
 1271SOL    HW3 5156   1.072   3.025   2.289 -1.1996  0.1565  0.1295
 1271SOL    MW4 5157   1.079   3.106   2.317 -0.2861  0.0837  0.1268
 1272SOL     OW 5158   0.894   3.245   2.215 -0.1462  0.3521 -0.2067
 1272SOL    HW2 5159   0.886   3.330   2.259 -0.6541  0.1268  0.1313
 1272SOL    HW3 5160   0.831   3.188   2.259  0.1080 -0.1719 -0.5126
 1272SOL    MW4 5161   0.885   3.249   2.227 -0.1796  0.2534 -0.2024
 1273SOL     OW 5162   0.858   3.501   2.333 -0.3045 -0.0844  0.0624
 1273SOL    HW2 5163   0.858   3.500   2.429 -1.3202  0.8191  0.0817
 1273SOL    HW3 5164   0.770   3.529   2.309 -0.1606 -0.6202 -1.1473
 1273SOL    MW4 5165   0.847   3.505   2.342 -0.4196 -0.0360 -0.0944
 1274SOL     OW 5166   1.090   3.612   2.228  0.0909  0.1612 -0.2681
 1274SOL    HW2 5167   1.157   3.565   2.278  0.5036  2.2576  1.1918
 1274SOL    HW3 5168   1.007   3.583   2.267  0.2768 -0.3080 -0.2109
 1274SOL    MW4 5169   1.088   3.602   2.240  0.1699  0.3760 -0.0679
 1275SOL     OW 5170   1.093   3.874   2.329 -0.1306 -0.0372  0.2210
 1275SOL    HW2 5171   1.180   3.910   2.313 -0.4318 -0.0584 -1.5244
 1275SOL    HW3 5172   1.096   3.786   2.291 -0.6902 -0.3148  0.8022
 1275SOL    MW4 5173   1.105   3.867   2.322 -0.2441 -0.0765  0.0677
 1276SOL     OW 5174   0.846   3.991   2.244  0.0455 -0.3841  0.4066
 1276SOL    HW2 5175   0.928   3.949   2.272  0.1974 -0.7695 -0.5958
 1276SOL    HW3 5176   0.777   3.933   2.276  0.2009 -0.5803  0.3838
 1276SOL    MW4 5177   0.848   3.978   2.252  0.0861 -0.4609  0.2713
 1277SOL     OW 5178   0.896   4.261   2.340 -0.0759 -0.1482  0.4682
 1277SOL    HW2 5179   0.873   4.171   2.317  2.0812 -0.0124 -2.5959
 1277SOL    HW3 5180   0.813   4.308   2.338 -1.0839 -1.8517  1.0295
 1277SOL    MW4 5181   0.882   4.255   2.336  0.0757 -0.3552  0.1380
 1278SOL     OW 5182   1.139   4.403   2.265 -0.3038  0.2643  0.1024
 1278SOL    HW2 5183   1.053   4.379   2.301  1.5148 -0.7387  4.0785
 1278SOL    HW3 5184   1.156   4.491   2.298  1.4776 -0.7286  1.9293
 1278SOL    MW4 5185   1.130   4.411   2.274  0.1713  0.0010  0.8678
 1279SOL     OW 5186   1.579   4.615   2.341  0.3357 -0.0291 -0.0817
 1279SOL    HW2 5187   1.652   4.666   2.306 -0.0698 -0.0390 -0.9645
 1279SOL    HW3 5188   1.505   4.675   2.341 -0.2781 -0.7454 -1.6419
 1279SOL    MW4 5189   1.579   4.630   2.336  0.2011 -0.1254 -0.4041
 1280SOL     OW 5190   1.363   0.108   2.281 -0.0065  0.1185 -0.0338
 1280SOL    HW2 5191   1.363   0.200   2.309  0.1508  0.2294 -0.3950
 1280SOL    HW3 5192   1.283   0.072   2.318 -0.8881  0.8072 -1.2032
 1280SOL    MW4 5193   1.353   0.116   2.289 -0.1020  0.2240 -0.2358
 1281SOL     OW 5194   1.330   0.372   2.355 -0.4865  0.6909  0.1851
 1281SOL    HW2 5195   1.355   0.373   2.447  1.1408  1.8463 -0.2547
 1281SOL    HW3 5196   1.397   0.424   2.311  0.4256 -2.2523 -2.0882
 1281SOL    MW4 5197   1.342   0.379   2.361 -0.1515  0.4550 -0.1729
 1282SOL     OW 5198   1.539   0.508   2.240  0.4240  0.1971  0.2672
 1282SOL    HW2 5199   1.618   0.476   2.283  1.7753  1.6377 -1.0971
 1282SOL    HW3 5200   1.558   0.502   2.146 -1.1695  0.3516 -0.0862
 1282SOL    MW4 5201   1.552   0.503   2.233  0.3921  0.4076  0.0408
 1283SOL     OW 5202   1.545   0.771   2.333 -0.0705  0.5170 -0.4797
 1283SOL    HW2 5203   1.633   0.807   2.329 -0.1428  0.7077 -0.3749
 1283SOL    HW3 5204   1.553   0.683   2.298 -0.2058  1.2225 -2.3906
 1283SOL    MW4 5205   1.558   0.764   2.328 -0.0980  0.6353 -0.7179
 1284SOL     OW 5206   1.321   0.909   2.282  0.6154 -0.1403 -0.3174
 1284SOL    HW2 5207   1.402   0.862   2.300 -0.0124 -1.9676 -2.0920
 1284SOL    HW3 5208   1.252   0.850   2.313 -0.0961  0.6523 -0.3879
 1284SOL    MW4 5209   1.323   0.895   2.289  0.4388 -0.2768 -0.5610
 1285SOL     OW 5210   1.337   1.161   2.384 -0.3110 -0.7482  0.7770
 1285SOL    HW2 5211   1.351   1.159   2.479  1.1109  0.2187  0.5998
 1285SOL    HW3 5212   1.349   1.070   2.357 -0.8938 -1.0642  1.5359
 1285SOL    MW4 5213   1.340   1.148   2.393 -0.2002 -0.6623  0.8540
 1286SOL     OW 5214   1.559   1.295   2.235 -0.3458  0.1243  0.1688
 1286SOL    HW2 5215   1.481   1.262   2.281  0.4531 -0.2679  1.2476
 1286SOL    HW3 5216   1.538   1.283   2.143 -1.5941  0.0661  0.4398
 1286SOL    MW4 5217   1.546   1.289   2.229 -0.4051  0.0650  0.3471
 1287SOL     OW 5218   1.638   1.530   2.379 -0.3483 -0.1369  0.1761
 1287SOL    HW2 5219   1.683   1.597   2.326  1.4588 -1.2072  0.2965
 1287SOL    HW3 5220   1.623   1.458   2.318 -1.1499 -0.1272  0.3582
 1287SOL    MW4 5221   1.642   1.530   2.364 -0.2155 -0.2767  0.2160
 1288SOL     OW 5222   1.395   1.617   2.256  0.0868  0.4075  0.1339
 1288SOL    HW2 5223   1.458   1.584   2.320  0.2603 -0.1854 -0.3310
 1288SOL    HW3 5224   1.314   1.570   2.276  0.5076 -0.8221 -0.9442
 1288SOL    MW4 5225   1.393   1.606   2.267  0.1651  0.1670 -0.0696
 1289SOL     OW 5226   1.342   1.893   2.332  0.0948 -0.1071  0.1168
 1289SOL    HW2 5227   1.413   1.953   2.310  0.1861 -0.6200 -1.0325
 1289SOL    HW3 5228   1.378   1.806   2.314 -0.6366 -0.4002  0.0509
 1289SOL    MW4 5229   1.356   1.890   2.327  0.0104 -0.2135 -0.0436
 1290SOL     OW 5230   1.515   2.089   2.230 -0.1865 -0.7813 -0.1302
 1290SOL    HW2 5231   1.605   2.079   2.262 -0.1049 -0.1479 -0.1664
 1290SOL    HW3 5232   1.524   2.093   2.135 -0.1522  0.3846 -0.0784
 1290SOL    MW4 5233   1.528   2.088   2.221 -0.1713 -0.5436 -0.1280
 1291SOL     OW 5234   1.555   2.331   2.349 -0.0962  0.3686 -0.7455
 1291SOL    HW2 5235   1.562   2.310   2.442  0.9230 -1.1655 -1.1497
 1291SOL    HW3 5236   1.520   2.252   2.308 -0.3422  0.9541 -1.6952
 1291SOL    MW4 5237   1.551   2.318   2.356  0.0058  0.2437 -0.9241
 1292SOL     OW 5238   1.321   2.444   2.242  0.4122  0.5247 -0.2128
 1292SOL    HW2 5239   1.402   2.413   2.282  1.2432  1.4066 -1.1653
 1292SOL    HW3 5240   1.337   2.439   2.148 -1.1077 -0.4795 -0.4404
 1292SOL    MW4 5241   1.334   2.439   2.235  0.3213  0.5085 -0.3686
 1293SOL     OW 5242   1.338   2.696   2.316 -0.3702 -0.5201  0.0893
 1293SOL    HW2 5243   1.414   2.738   2.277  0.4334 -0.4774  1.6300
 1293SOL    HW3 5244   1.344   2.605   2.289  0.4835 -0.6093  0.5488
 1293SOL    MW4 5245   1.349   2.690   2.308 -0.1516 -0.5262  0.3533
 1294SOL     OW 5246   1.557   2.836   2.228 -0.3630  0.1425  0.2180
 1294SOL    HW2 5247   1.585   2.919   2.267  1.3368 -1.0158  1.5241
 1294SOL    HW3 5248   1.556   2.853   2.134 -0.9141  1.8977  0.5101
 1294SOL    MW4 5249   1.561   2.849   2.221 -0.2114  0.2213  0.4289
 1295SOL     OW 5250   1.578   3.098   2.346  0.4253 -0.4825  0.1784
 1295SOL    HW2 5251   1.579   3.104   2.441  0.0560 -0.1103  0.1612
 1295SOL    HW3 5252   1.495   3.138   2.320  1.5169  1.4380 -0.4437
 1295SOL    MW4 5253   1.567   3.104   2.355  0.5206 -0.1798  0.0942
 1296SOL     OW 5254   1.343   3.183   2.258 -0.7524 -0.2399 -0.2594
 1296SOL    HW2 5255   1.260   3.145   2.286 -0.0227 -1.8041 -0.1694
 1296SOL    HW3 5256   1.337   3.185   2.162 -1.7418  1.6555 -0.1869
 1296SOL    MW4 5257   1.331   3.179   2.249 -0.7868 -0.1962 -0.2379
 1297SOL     OW 5258   1.279   3.450   2.341  0.1408 -0.4313 -0.5141
 1297SOL    HW2 5259   1.270   3.444   2.436 -0.0776  0.3731 -0.4863
 1297SOL    HW3 5260   1.299   3.360   2.314 -1.1238 -0.9262  0.1547
 1297SOL    MW4 5261   1.280   3.437   2.350 -0.0550 -0.3905 -0.4222
 1298SOL     OW 5262   1.563   3.566   2.256 -0.1784 -0.0491  0.1273
 1298SOL    HW2 5263   1.559   3.655   2.291 -0.2076 -0.6096  1.6014
 1298SOL    HW3 5264   1.487   3.522   2.294  0.5581 -1.0597  0.4379
 1298SOL    MW4 5265   1.552   3.572   2.266 -0.0849 -0.2563  0.3626
 1299SOL     OW 5266   1.545   3.829   2.358 -0.1896 -0.2169  0.0630
 1299SOL    HW2 5267   1.550   3.846   2.452  1.0557 -0.7117  0.0832
 1299SOL    HW3 5268   1.631   3.853   2.324  0.0063 -1.8370 -0.6536
 1299SOL    MW4 5269   1.557   3.834   2.366  0.0006 -0.4959 -0.0288
 1300SOL     OW 5270   1.349   3.988   2.251  0.0806 -0.1043 -0.0836
 1300SOL    HW2 5271   1.424   3.944   2.291 -0.0067 -0.7748 -0.6564
 1300SOL    HW3 5272   1.376   4.006   2.161  0.2622  1.3818  0.2495
 1300SOL    MW4 5273   1.362   3.985   2.245  0.0932  0.0031 -0.1154
 1301SOL     OW 5274   1.337   4.248   2.365 -0.3534  0.1628 -0.0092
 1301SOL    HW2 5275   1.324   4.160   2.328  1.4617  0.4039 -1.3376
 1301SOL    HW3 5276   1.267   4.301   2.328 -0.3891 -0.3317 -0.6644
 1301SOL    MW4 5277   1.326   4.243   2.355 -0.1185  0.1287 -0.2708
 1302SOL     OW 5278   1.572   4.352   2.276  0.0674  0.2329 -0.3622
 1302SOL    HW2 5279   1.481   4.327   2.292  0.2813 -0.8921 -0.8163
 1302SOL    HW3 5280   1.576   4.445   2.298 -0.4701 -0.4125  2.7499
 1302SOL    MW4 5281   1.561   4.361   2.281  0.0246 -0.0010 -0.0117
 1303SOL     OW 5282   2.011   4.649   2.388 -0.0523  0.1042  0.2737
 1303SOL    HW2 5283   2.091   4.684   2.349 -0.4588  0.3468 -0.3504
 1303SOL    HW3 5284   2.019   4.554   2.379 -0.5201  0.1910 -1.1498
 1303SOL    MW4 5285   2.023   4.641   2.382 -0.1676  0.1478  0.0036
 1304SOL     OW 5286   1.771   0.115   2.246  0.3439  0.0968  0.1673
 1304SOL    HW2 5287   1.770   0.209   2.268  2.8316  0.4791 -1.1664
 1304SOL    HW3 5288   1.840   0.079   2.302  0.5479 -0.6165 -0.5478
 1304SOL    MW4 5289   1.780   0.123   2.256  0.6992  0.0531 -0.1030
 1305SOL     OW 5290   1.768   0.387   2.334 -0.2069 -0.0406  0.3652
 1305SOL    HW2 5291   1.783   0.387   2.428  0.1386  1.5361  0.3160
 1305SOL    HW3 5292   1.852   0.412   2.296  0.1552 -2.3771 -0.4674
 1305SOL    MW4 5293   1.781   0.390   2.341 -0.1135 -0.1408  0.2489
 1306SOL     OW 5294   2.001   0.496   2.253 -0.3251  0.3246  0.1799
 1306SOL    HW2 5295   2.007   0.574   2.308  0.0274  0.5691 -0.2042
 1306SOL    HW3 5296   2.027   0.525   2.166  1.2289 -0.5460  0.3382
 1306SOL    MW4 5297   2.005   0.510   2.248 -0.0734  0.2420  0.1500
 1307SOL     OW 5298   2.038   0.731   2.382  0.4991  0.2265 -0.4248
 1307SOL    HW2 5299   2.108   0.782   2.341  0.5340  1.3033  0.9066
 1307SOL    HW3 5300   1.959   0.783   2.368  0.4796  0.5094  0.6728
 1307SOL    MW4 5301   2.037   0.745   2.375  0.5014  0.4059 -0.1044
 1308SOL     OW 5302   1.794   0.902   2.330  0.4624  0.0334  0.1171
 1308SOL    HW2 5303   1.791   0.991   2.365 -0.2257 -0.0048  0.1632
 1308SOL    HW3 5304   1.800   0.914   2.236 -0.4894  0.1231  0.0693
 1308SOL    MW4 5305   1.795   0.915   2.322  0.2459  0.0402  0.1166
 1309SOL     OW 5306   1.784   1.177   2.396 -0.1744  0.1514  0.2307
 1309SOL    HW2 5307   1.848   1.214   2.335  0.5522 -0.2775  0.7167
 1309SOL    HW3 5308   1.699   1.204   2.362  0.1658 -0.8548 -1.4949
 1309SOL    MW4 5309   1.781   1.185   2.384 -0.0336 -0.0379  0.0672
 1310SOL     OW 5310   1.998   1.274   2.231  0.3415 -0.4310 -0.2145
 1310SOL    HW2 5311   2.001   1.369   2.244  1.3010 -0.6467  1.3685
 1310SOL    HW3 5312   1.986   1.262   2.137  1.0514  1.2551 -0.5295
 1310SOL    MW4 5313   1.997   1.285   2.221  0.5617 -0.2370 -0.0470
 1311SOL     OW 5314   2.013   1.559   2.293  0.3066 -0.3385  0.5697
 1311SOL    HW2 5315   2.040   1.564   2.385 -1.9133  0.6978  1.1861
 1311SOL    HW3 5316   1.946   1.627   2.284 -1.1887 -2.0112 -1.2289
 1311SOL    MW4 5317   2.008   1.569   2.304 -0.1836 -0.4224  0.4137
 1312SOL     OW 5318   1.780   1.719   2.221 -0.2074  0.1407 -0.0179
 1312SOL    HW2 5319   1.785   1.813   2.239  0.1946  0.0779  0.2112
 1312SOL    HW3 5320   1.767   1.713   2.127 -1.3585  0.4520  0.1073
 1312SOL    MW4 5321   1.779   1.730   2.211 -0.3061  0.1734  0.0288
 1313SOL     OW 5322   1.748   1.981   2.338 -0.0470 -0.0383 -0.3604
 1313SOL    HW2 5323   1.752   1.938   2.424  0.5495 -0.5035 -0.6204
 1313SOL    HW3 5324   1.837   2.012   2.322 -0.0594 -0.3446 -1.0181
 1313SOL    MW4 5325   1.760   1.980   2.348  0.0302 -0.1400 -0.4816
 1314SOL     OW 5326   2.028   2.072   2.255 -0.1951  0.4629  0.1004
 1314SOL    HW2 5327   2.109   2.022   2.265  0.4034  1.1741 -0.9513
 1314SOL    HW3 5328   2.006   2.063   2.162 -0.5296  1.4554  0.0762
 1314SOL    MW4 5329   2.036   2.064   2.244 -0.1600  0.6876 -0.0412
 1315SOL     OW 5330   2.033   2.350   2.362 -0.5269 -0.3149 -0.6765
 1315SOL    HW2 5331   2.100   2.412   2.333 -1.1363  0.6763 -0.0047
 1315SOL    HW3 5332   2.059   2.266   2.323  0.2739  0.3733 -1.6466
 1315SOL    MW4 5333   2.045   2.347   2.353 -0.5016 -0.0932 -0.7157
 1316SOL     OW 5334   1.791   2.403   2.219 -0.4044 -0.2970  0.2505
 1316SOL    HW2 5335   1.866   2.364   2.264  0.1382 -0.8223 -1.0799
 1316SOL    HW3 5336   1.715   2.380   2.273  0.0858 -1.9809  0.2257
 1316SOL    MW4 5337   1.791   2.395   2.232 -0.2681 -0.5884  0.0718
 1317SOL     OW 5338   1.782   2.689   2.307  0.2098  0.3455  0.1923
 1317SOL    HW2 5339   1.789   2.598   2.280 -1.2691  0.2377  0.1084
 1317SOL    HW3 5340   1.698   2.718   2.272 -0.5576  0.9532  2.4290
 1317SOL    MW4 5341   1.772   2.681   2.299 -0.0865  0.4115  0.4764
 1318SOL     OW 5342   2.035   2.832   2.229  0.3331  0.3859  0.5749
 1318SOL    HW2 5343   2.113   2.798   2.274 -0.1421  0.0886  1.1783
 1318SOL    HW3 5344   1.962   2.786   2.269 -0.2706  1.6458  0.9693
 1318SOL    MW4 5345   2.036   2.822   2.240  0.1910  0.5126  0.7069
 1319SOL     OW 5346   2.021   3.068   2.357  0.0555 -0.2432 -0.2237
 1319SOL    HW2 5347   2.099   3.114   2.324  0.0555 -0.8128 -1.0336
 1319SOL    HW3 5348   2.025   2.982   2.315 -1.9474  0.3358 -1.6252
 1319SOL    MW4 5349   2.032   3.062   2.347 -0.2086 -0.2418 -0.5155
 1320SOL     OW 5350   1.807   3.220   2.256  0.0019  0.2915 -0.2758
 1320SOL    HW2 5351   1.881   3.162   2.272  0.3902  0.9242  0.2375
 1320SOL    HW3 5352   1.731   3.170   2.284  0.3815  0.2078  0.6166
 1320SOL    MW4 5353   1.807   3.206   2.262  0.1032  0.3638 -0.0904
 1321SOL     OW 5354   1.826   3.484   2.367  0.0448 -0.2288 -0.1637
 1321SOL    HW2 5355   1.829   3.393   2.338 -0.0259  0.2568 -1.7147
 1321SOL    HW3 5356   1.744   3.519   2.331 -0.3291  0.2377  1.0872
 1321SOL    MW4 5357   1.815   3.477   2.359 -0.0138 -0.1032 -0.2034
 1322SOL     OW 5358   2.061   3.588   2.233  0.3304 -0.3915 -0.4620
 1322SOL    HW2 5359   1.985   3.551   2.278  0.5157 -0.9684 -0.6115
 1322SOL    HW3 5360   2.036   3.589   2.141  0.0773  0.4776 -0.3899
 1322SOL    MW4 5361   2.048   3.583   2.227  0.3211 -0.3529 -0.4723
 1323SOL     OW 5362   2.001   3.842   2.333 -0.1179 -0.1883 -0.0081
 1323SOL    HW2 5363   1.996   3.834   2.428  0.7960  0.2211  0.0786
 1323SOL    HW3 5364   2.034   3.757   2.304  2.3746  0.6200  0.2962
 1323SOL    MW4 5365   2.005   3.830   2.342  0.3316 -0.0277  0.0434
 1324SOL     OW 5366   1.771   3.954   2.262 -0.1474  0.1286 -0.1413
 1324SOL    HW2 5367   1.859   3.920   2.276 -0.7725 -1.0667  0.9859
 1324SOL    HW3 5368   1.777   4.002   2.180  1.5314 -0.0199 -0.1269
 1324SOL    MW4 5369   1.783   3.956   2.253 -0.0085 -0.0486  0.0088
 1325SOL     OW 5370   1.785   4.213   2.362  0.0642  0.1835 -0.3073
 1325SOL    HW2 5371   1.781   4.120   2.339 -0.4717 -0.1826  1.2054
 1325SOL    HW3 5372   1.715   4.254   2.312  0.2100 -0.2447 -0.8704
 1325SOL    MW4 5373   1.776   4.206   2.352  0.0128  0.0792 -0.1822
 1326SOL     OW 5374   2.019   4.347   2.270 -0.2411  0.1512  0.4388
 1326SOL    HW2 5375   1.936   4.309   2.299  0.7751 -2.4304  0.0808
 1326SOL    HW3 5376   2.002   4.372   2.179 -0.0513 -2.3359 -0.3297
 1326SOL    MW4 5377   2.006   4.345   2.262 -0.0823 -0.5174  0.2902
 1327SOL     OW 5378   2.488   4.618   2.375  0.0499 -0.0356 -0.0705
 1327SOL    HW2 5379   2.556   4.670   2.331 -0.4564  0.3375 -0.4139
 1327SOL    HW3 5380   2.491   4.533   2.331 -0.4822  0.3495 -0.8606
 1327SOL    MW4 5381   2.497   4.614   2.363 -0.0870  0.0644 -0.2201
 1328SOL     OW 5382   2.253   0.079   2.273 -0.3379 -0.1162 -0.7277
 1328SOL    HW2 5383   2.261   0.172   2.293 -1.8957  0.1099 -1.1453
 1328SOL    HW3 5384   2.331   0.039   2.312  0.5203  1.4105 -0.8644
 1328SOL    MW4 5385   2.265   0.086   2.280 -0.4303  0.1151 -0.8006
 1329SOL     OW 5386   2.236   0.349   2.329  0.6592  0.1037  0.1427
 1329SOL    HW2 5387   2.305   0.411   2.307  1.2728  0.1824  2.1875
 1329SOL    HW3 5388   2.155   0.391   2.301  1.2226  1.0729 -0.0335
 1329SOL    MW4 5389   2.235   0.363   2.322  0.8144  0.2420  0.3896
 1330SOL     OW 5390   2.483   0.514   2.292 -0.9188  0.5190 -0.4244
 1330SOL    HW2 5391   2.555   0.452   2.303 -0.5678  1.1724  0.9756
 1330SOL    HW3 5392   2.473   0.522   2.197  1.3301  1.0003 -0.6368
 1330SOL    MW4 5393   2.491   0.507   2.281 -0.5755  0.6687 -0.2675
 1331SOL     OW 5394   2.478   0.769   2.396  0.4381  0.1717  0.2197
 1331SOL    HW2 5395   2.561   0.801   2.362  0.5594 -0.8692 -0.4894
 1331SOL    HW3 5396   2.481   0.674   2.383  0.1023 -0.1610  2.3152
 1331SOL    MW4 5397   2.489   0.761   2.390  0.4098 -0.0095  0.4027
 1332SOL     OW 5398   2.250   0.867   2.259 -0.2491  0.2030 -0.0923
 1332SOL    HW2 5399   2.235   0.950   2.303 -1.3466 -0.3553  0.6162
 1332SOL    HW3 5400   2.329   0.832   2.299 -0.9433 -0.0551  1.0886
 1332SOL    MW4 5401   2.258   0.873   2.270 -0.4854  0.0953  0.1566
 1333SOL     OW 5402   2.220   1.142   2.336  0.2378 -0.2156 -0.0575
 1333SOL    HW2 5403   2.294   1.196   2.307  0.9209 -0.8919  0.3907
 1333SOL    HW3 5404   2.144   1.178   2.290  0.9562  0.0553 -1.0494
 1333SOL    MW4 5405   2.220   1.154   2.326  0.4225 -0.2691 -0.1292
 1334SOL     OW 5406   2.437   1.287   2.256  0.2640 -0.1371 -0.0003
 1334SOL    HW2 5407   2.518   1.245   2.283  0.5295  0.1855 -0.2851
 1334SOL    HW3 5408   2.447   1.378   2.284 -0.8191 -0.5328  1.7119
 1334SOL    MW4 5409   2.449   1.293   2.263  0.1562 -0.1467  0.1881
 1335SOL     OW 5410   2.454   1.547   2.347  0.3261 -0.4118 -0.5295
 1335SOL    HW2 5411   2.453   1.534   2.442  1.1244  0.8914 -0.3381
 1335SOL    HW3 5412   2.531   1.601   2.331 -0.0546 -0.2675 -1.8750
 1335SOL    MW4 5413   2.464   1.552   2.358  0.3812 -0.2209 -0.6819
 1336SOL     OW 5414   2.258   1.702   2.225  0.4783 -0.2038  0.2988
 1336SOL    HW2 5415   2.331   1.648   2.256  0.8492 -2.1153 -3.5972
 1336SOL    HW3 5416   2.180   1.651   2.247  0.5369 -0.0346  0.9133
 1336SOL    MW4 5417   2.257   1.688   2.232  0.5348 -0.4337 -0.1342
 1337SOL     OW 5418   2.246   1.937   2.343 -0.3864  0.0347 -0.0593
 1337SOL    HW2 5419   2.321   1.988   2.313  0.2493 -0.6987  0.2702
 1337SOL    HW3 5420   2.245   1.860   2.285 -0.7208 -0.0962  0.1192
 1337SOL    MW4 5421   2.256   1.934   2.331 -0.3464 -0.0794  0.0079
 1338SOL     OW 5422   2.458   2.083   2.231  0.1996  0.2077 -0.0016
 1338SOL    HW2 5423   2.535   2.036   2.263 -0.1519 -0.2712  0.1517
 1338SOL    HW3 5424   2.473   2.094   2.137  1.1755  1.5046  0.2900
 1338SOL    MW4 5425   2.470   2.078   2.223  0.2818  0.3157  0.0572
 1339SOL     OW 5426   2.479   2.327   2.375 -0.1638  0.0267 -0.0191
 1339SOL    HW2 5427   2.559   2.367   2.341  0.9255 -1.2288  1.0162
 1339SOL    HW3 5428   2.460   2.255   2.315  0.7242 -1.0355  0.9505
 1339SOL    MW4 5429   2.487   2.323   2.363  0.0970 -0.2792  0.2453
 1340SOL     OW 5430   2.257   2.459   2.251 -0.2164 -0.1602 -0.0293
 1340SOL    HW2 5431   2.246   2.552   2.272  1.0448  0.1194 -0.5093
 1340SOL    HW3 5432   2.322   2.428   2.315  1.1146 -0.1273 -1.3429
 1340SOL    MW4 5433   2.264   2.467   2.262  0.1256 -0.1190 -0.2658
 1341SOL     OW 5434   2.251   2.719   2.355  0.3204 -0.3204  0.3001
 1341SOL    HW2 5435   2.263   2.707   2.449  0.2633 -1.6859  0.1517
 1341SOL    HW3 5436   2.335   2.752   2.324  0.7690 -1.1148  0.6440
 1341SOL    MW4 5437   2.263   2.722   2.363  0.3719 -0.6053  0.3259
 1342SOL     OW 5438   2.503   2.822   2.244 -0.0016  0.0177 -0.0841
 1342SOL    HW2 5439   2.578   2.776   2.282  0.3862  0.8260  0.1442
 1342SOL    HW3 5440   2.524   2.829   2.151  0.0455 -0.0660 -0.0801
 1342SOL    MW4 5441   2.516   2.817   2.237  0.0558  0.1132 -0.0534
 1343SOL     OW 5442   2.462   3.080   2.310  0.1857  0.1607 -0.2135
 1343SOL    HW2 5443   2.550   3.118   2.303  0.7150 -0.8714  0.6302
 1343SOL    HW3 5444   2.476   2.986   2.305 -0.7061 -0.0807  1.3873
 1343SOL    MW4 5445   2.476   3.073   2.309  0.1378 -0.0074  0.1090
 1344SOL     OW 5446   2.226   3.202   2.259  0.0272 -0.4485 -0.1370
 1344SOL    HW2 5447   2.229   3.294   2.283  0.5272 -0.1640 -1.2735
 1344SOL    HW3 5448   2.314   3.169   2.275  0.2132 -0.3942 -1.0419
 1344SOL    MW4 5449   2.238   3.210   2.264  0.1175 -0.4041 -0.4060
 1345SOL     OW 5450   2.303   3.479   2.327  0.1691  0.3837 -0.5056
 1345SOL    HW2 5451   2.308   3.498   2.421  0.2722 -0.7501 -0.2823
 1345SOL    HW3 5452   2.225   3.527   2.298 -0.5298 -0.1832  0.3897
 1345SOL    MW4 5453   2.293   3.488   2.336  0.0904  0.1593 -0.3581
 1346SOL     OW 5454   2.500   3.629   2.233 -0.0091 -0.1614 -0.1219
 1346SOL    HW2 5455   2.497   3.707   2.289 -0.8266 -0.7054  0.5940
 1346SOL    HW3 5456   2.429   3.574   2.265 -0.2804 -0.6168 -1.4989
 1346SOL    MW4 5457   2.490   3.632   2.245 -0.1526 -0.2933 -0.2091
 1347SOL     OW 5458   2.435   3.877   2.333  0.0240 -0.0299 -0.2723
 1347SOL    HW2 5459   2.438   3.909   2.423  0.4093 -0.4083 -0.1488
 1347SOL    HW3 5460   2.353   3.912   2.298 -1.1028 -1.5306  0.8299
 1347SOL    MW4 5461   2.425   3.886   2.340 -0.0739 -0.2775 -0.1104
 1348SOL     OW 5462   2.212   3.997   2.251  0.0080 -0.1369  0.1603
 1348SOL    HW2 5463   2.222   4.081   2.295 -1.4177 -0.1034  0.4462
 1348SOL    HW3 5464   2.143   3.952   2.299  1.1210 -1.7022  0.3384
 1348SOL    MW4 5465   2.204   4.002   2.263 -0.0334 -0.3390  0.2217
 1349SOL     OW 5466   2.251   4.237   2.384  0.3276  0.1598  0.5555
 1349SOL    HW2 5467   2.244   4.253   2.478 -0.5731  1.6674  0.2403
 1349SOL    HW3 5468   2.176   4.281   2.346  0.5941 -0.5854 -0.8712
 1349SOL    MW4 5469   2.240   4.245   2.391  0.2439  0.2608  0.3257
 1350SOL     OW 5470   2.456   4.371   2.248  0.3770  0.1330 -0.2441
 1350SOL    HW2 5471   2.536   4.341   2.292 -0.9315 -0.6539  1.6357
 1350SOL    HW3 5472   2.385   4.325   2.293 -1.1606  0.9651 -1.7741
 1350SOL    MW4 5473   2.457   4.361   2.260  0.0017  0.1388 -0.1976
 1351SOL     OW 5474   2.892   4.616   2.369 -0.3421 -0.0691 -0.2691
 1351SOL    HW2 5475   2.960   4.668   2.327  1.8814 -1.7233  1.2292
 1351SOL    HW3 5476   2.903   4.528   2.334  0.5326 -1.1264  2.5416
 1351SOL    MW4 5477   2.902   4.612   2.359  0.0665 -0.4268  0.2995
 1352SOL     OW 5478   2.688   0.092   2.235 -0.2890 -0.9876  0.0172
 1352SOL    HW2 5479   2.677   0.174   2.284  1.6186 -0.0419 -1.0529
 1352SOL    HW3 5480   2.762   0.049   2.278  1.1138 -0.3553 -1.7021
 1352SOL    MW4 5481   2.696   0.097   2.247  0.1476 -0.7794 -0.3507
 1353SOL     OW 5482   2.680   0.332   2.366 -0.2763  0.2933  0.5641
 1353SOL    HW2 5483   2.696   0.341   2.460  0.5048 -1.3194  0.6152
 1353SOL    HW3 5484   2.751   0.383   2.325  1.2051 -1.4704  0.8524
 1353SOL    MW4 5485   2.692   0.340   2.373  0.0222 -0.1521  0.6092
 1354SOL     OW 5486   2.889   0.474   2.273 -0.0221 -0.0159 -0.4680
 1354SOL    HW2 5487   2.903   0.559   2.315 -0.0727 -0.2931  0.1197
 1354SOL    HW3 5488   2.911   0.488   2.181 -0.7254  0.8200 -0.5154
 1354SOL    MW4 5489   2.894   0.487   2.266 -0.1216  0.0578 -0.3970
 1355SOL     OW 5490   2.939   0.731   2.341 -0.2670 -0.1445  0.2270
 1355SOL    HW2 5491   2.935   0.733   2.437 -0.2665  2.2065  0.1942
 1355SOL    HW3 5492   2.875   0.796   2.313  0.9207  0.3699 -1.3411
 1355SOL    MW4 5493   2.930   0.740   2.350 -0.1104  0.2336  0.0155
 1356SOL     OW 5494   2.718   0.875   2.284 -0.1059 -0.3705 -0.0950
 1356SOL    HW2 5495   2.712   0.968   2.308 -0.2255 -0.2802 -0.4641
 1356SOL    HW3 5496   2.703   0.874   2.189 -0.9042 -0.8507  0.0299
 1356SOL    MW4 5497   2.715   0.887   2.274 -0.2270 -0.4219 -0.1271
 1357SOL     OW 5498   2.666   1.138   2.346 -0.3492  0.0850 -0.1857
 1357SOL    HW2 5499   2.666   1.137   2.442 -1.9468  2.1113 -0.1417
 1357SOL    HW3 5500   2.756   1.162   2.323  0.7242 -2.8638  0.7210
 1357SOL    MW4 5501   2.678   1.141   2.356 -0.4184 -0.0366 -0.0603
 1358SOL     OW 5502   2.898   1.299   2.258 -0.4577  0.1156  0.3160
 1358SOL    HW2 5503   2.979   1.266   2.297 -0.4367  0.3733  0.4936
 1358SOL    HW3 5504   2.911   1.288   2.164  0.7204  2.2239  0.1899
 1358SOL    MW4 5505   2.911   1.293   2.251 -0.2995  0.4278  0.3228
 1359SOL     OW 5506   2.933   1.563   2.315 -0.2326  0.4285 -0.4603
 1359SOL    HW2 5507   2.931   1.574   2.410  0.6450  2.4262 -0.6342
 1359SOL    HW3 5508   2.909   1.472   2.300 -0.0170  0.0006  1.6995
 1359SOL    MW4 5509   2.930   1.553   2.326 -0.0882  0.6355 -0.1981
 1360SOL     OW 5510   2.685   1.678   2.256 -0.1759 -0.3305  0.0178
 1360SOL    HW2 5511   2.775   1.653   2.278 -0.0412 -0.3043 -0.5132
 1360SOL    HW3 5512   2.679   1.666   2.161 -0.2527  1.2018 -0.1769
 1360SOL    MW4 5513   2.696   1.673   2.247 -0.1683 -0.1248 -0.0782
 1361SOL     OW 5514   2.685   1.945   2.340 -0.1490  1.0141 -0.1009
 1361SOL    HW2 5515   2.684   1.936   2.435  0.8435  1.1175 -0.0678
 1361SOL    HW3 5516   2.698   1.856   2.307 -0.7584  0.9412 -0.1558
 1361SOL    MW4 5517   2.687   1.932   2.348 -0.0985  1.0180 -0.1037
 1362SOL     OW 5518   2.939   2.053   2.226 -0.1724  0.7020 -0.2578
 1362SOL    HW2 5519   3.008   2.007   2.275 -0.1538 -0.9290 -1.7669
 1362SOL    HW3 5520   2.860   2.037   2.277  0.3416  1.6298  0.8782
 1362SOL    MW4 5521   2.938   2.045   2.239 -0.1023  0.6092 -0.3073
 1363SOL     OW 5522   2.984   2.339   2.330 -0.1476  0.3152 -0.1593
 1363SOL    HW2 5523   2.965   2.354   2.422  2.5895  1.4727  0.2386
 1363SOL    HW3 5524   2.979   2.244   2.319  1.0609  0.0543  1.5230
 1363SOL    MW4 5525   2.981   2.328   2.341  0.3731  0.4337  0.1154
 1364SOL     OW 5526   2.733   2.422   2.275  0.0236  0.1936  0.3524
 1364SOL    HW2 5527   2.826   2.403   2.287  0.2025  1.3332  0.8603
 1364SOL    HW3 5528   2.722   2.429   2.180  0.4231 -0.1297  0.2827
 1364SOL    MW4 5529   2.744   2.420   2.264  0.0999  0.3014  0.4101
 1365SOL     OW 5530   2.731   2.693   2.331  0.2938 -0.0609  0.3785
 1365SOL    HW2 5531   2.796   2.738   2.277 -0.1295 -1.8494 -1.6968
 1365SOL    HW3 5532   2.744   2.600   2.312 -2.2852 -0.5052  0.5705
 1365SOL    MW4 5533   2.741   2.687   2.321 -0.1020 -0.3555  0.1299
 1366SOL     OW 5534   2.942   2.833   2.225 -0.3229  0.0398 -0.3614
 1366SOL    HW2 5535   2.931   2.919   2.266 -1.5863 -0.0356 -0.5140
 1366SOL    HW3 5536   2.965   2.853   2.134  0.4226  0.2086 -0.1407
 1366SOL    MW4 5537   2.944   2.847   2.218 -0.3912  0.0522 -0.3526
 1367SOL     OW 5538   2.908   3.074   2.329 -0.4106  0.0733 -0.1580
 1367SOL    HW2 5539   2.986   3.117   2.295 -0.8872  0.0288 -1.3547
 1367SOL    HW3 5540   2.835   3.127   2.297 -0.8673  0.3150  1.2411
 1367SOL    MW4 5541   2.908   3.086   2.320 -0.5338  0.0992 -0.1311
 1368SOL     OW 5542   2.692   3.220   2.275  0.2566  0.3008 -0.1087
 1368SOL    HW2 5543   2.703   3.310   2.308 -0.3571 -0.0560  1.1085
 1368SOL    HW3 5544   2.696   3.229   2.180  1.4872  1.4512  0.0226
 1368SOL    MW4 5545   2.694   3.233   2.267  0.3378  0.4058  0.0691
 1369SOL     OW 5546   2.706   3.472   2.347 -0.0640 -0.1434  0.0387
 1369SOL    HW2 5547   2.782   3.511   2.302 -0.5369  0.2061 -0.4564
 1369SOL    HW3 5548   2.630   3.511   2.304 -0.5278 -0.1506  0.8385
 1369SOL    MW4 5549   2.706   3.482   2.336 -0.1872 -0.0985  0.0789
 1370SOL     OW 5550   2.922   3.598   2.221 -0.3891 -0.7189 -0.2797
 1370SOL    HW2 5551   2.993   3.548   2.261  0.9280  0.0060 -1.6764
 1370SOL    HW3 5552   2.937   3.688   2.251  0.4356 -0.2235 -2.1512
 1370SOL    MW4 5553   2.934   3.603   2.230 -0.1063 -0.5579 -0.7110
 1371SOL     OW 5554   2.914   3.863   2.366  0.0562  0.1294 -0.1410
 1371SOL    HW2 5555   2.922   3.841   2.459 -1.7214 -1.3679 -0.3128
 1371SOL    HW3 5556   2.836   3.919   2.361  0.1616  0.2245 -0.7217
 1371SOL    MW4 5557   2.905   3.867   2.377 -0.1645 -0.0556 -0.2403
 1372SOL     OW 5558   2.676   4.001   2.270  0.1839 -0.0378 -0.0295
 1372SOL    HW2 5559   2.594   3.960   2.296 -0.7183  1.7189 -0.0512
 1372SOL    HW3 5560   2.685   3.980   2.178  0.3328 -1.1811  0.2401
 1372SOL    MW4 5561   2.667   3.993   2.262  0.0844  0.0434  0.0036
 1373SOL     OW 5562   2.675   4.259   2.369 -0.5084 -0.7146  0.2179
 1373SOL    HW2 5563   2.688   4.265   2.464 -2.1964  1.5496  0.3414
 1373SOL    HW3 5564   2.678   4.165   2.351  0.5440 -1.1367  2.4028
 1373SOL    MW4 5565   2.677   4.247   2.379 -0.5922 -0.4711  0.5224
 1374SOL     OW 5566   2.902   4.365   2.252  0.2470 -0.1634  0.1142
 1374SOL    HW2 5567   2.968   4.329   2.310 -1.4727  0.3680  2.4817
 1374SOL    HW3 5568   2.822   4.316   2.273 -0.6742  0.8423 -0.9685
 1374SOL    MW4 5569   2.900   4.354   2.263 -0.1016  0.0396  0.2837
 1375SOL     OW 5570   3.334   0.001   2.329  0.6701 -0.2612 -0.2684
 1375SOL    HW2 5571   3.336  -0.010   2.424 -1.0273  1.6879  0.0170
 1375SOL    HW3 5572   3.422   0.031   2.306  0.5793  0.9370  0.9061
 1375SOL    MW4 5573   3.346   0.003   2.338  0.4339  0.1540 -0.0758
 1376SOL     OW 5574   3.080   0.083   2.250 -0.3375  0.2575  0.2891
 1376SOL    HW2 5575   3.090   0.166   2.297 -2.1052  0.9283 -0.4423
 1376SOL    HW3 5576   3.162   0.037   2.263 -0.0865  1.2751  2.3951
 1376SOL    MW4 5577   3.092   0.088   2.258 -0.5376  0.4802  0.4706
 1377SOL     OW 5578   3.125   0.345   2.377 -0.0698  0.2751  0.2698
 1377SOL    HW2 5579   3.190   0.406   2.341 -0.0108  0.9589  1.5042
 1377SOL    HW3 5580   3.043   0.369   2.334  0.1362  0.6270  0.0702
 1377SOL    MW4 5581   3.123   0.357   2.366 -0.0350  0.4118  0.4060
 1378SOL     OW 5582   3.333   0.526   2.328  0.0871  0.1062 -0.6689
 1378SOL    HW2 5583   3.402   0.469   2.362  0.5751  1.5623  0.8353
 1378SOL    HW3 5584   3.347   0.525   2.233  0.4080 -1.8381 -0.6290
 1378SOL    MW4 5585   3.344   0.518   2.320  0.1936  0.0418 -0.4654
 1379SOL     OW 5586   3.351   0.787   2.425  0.1007  0.0171  0.0639
 1379SOL    HW2 5587   3.433   0.827   2.397 -0.9347  2.1967  0.0419
 1379SOL    HW3 5588   3.351   0.701   2.383  2.0889  0.2280 -0.4203
 1379SOL    MW4 5589   3.362   0.781   2.415  0.2263  0.3325 -0.0029
 1380SOL     OW 5590   3.153   0.885   2.254  0.5647 -0.0352  0.3139
 1380SOL    HW2 5591   3.224   0.852   2.308 -0.1105  0.0738  1.2900
 1380SOL    HW3 5592   3.081   0.824   2.270  0.4453 -0.1676 -0.6953
 1380SOL    MW4 5593   3.153   0.873   2.263  0.4599 -0.0383  0.3097
 1381SOL     OW 5594   3.120   1.144   2.360 -0.0541  0.7074  0.5086
 1381SOL    HW2 5595   3.191   1.203   2.335 -0.6054  1.3383  0.4190
 1381SOL    HW3 5596   3.146   1.059   2.324  0.0972  1.1854 -0.5187
 1381SOL    MW4 5597   3.133   1.140   2.352 -0.1070  0.8538  0.3614
 1382SOL     OW 5598   3.365   1.278   2.285 -0.2577  0.3692 -0.1699
 1382SOL    HW2 5599   3.443   1.229   2.310 -0.4019 -0.0294 -0.5157
 1382SOL    HW3 5600   3.379   1.365   2.324 -0.3664 -0.1738  1.1062
 1382SOL    MW4 5601   3.377   1.283   2.294 -0.2909  0.2450 -0.0472
 1383SOL     OW 5602   3.393   1.542   2.362  0.5777  0.5942  0.2788
 1383SOL    HW2 5603   3.376   1.565   2.454 -1.6231  0.2364 -0.0315
 1383SOL    HW3 5604   3.315   1.572   2.315  1.0974 -0.4790 -1.2793
 1383SOL    MW4 5605   3.381   1.549   2.368  0.3560  0.4054  0.0322
 1384SOL     OW 5606   3.171   1.634   2.223 -0.0005 -0.2227  0.3311
 1384SOL    HW2 5607   3.162   1.727   2.243 -1.1313 -0.1542 -0.4658
 1384SOL    HW3 5608   3.091   1.594   2.255  0.6090 -0.9825  0.9469
 1384SOL    MW4 5609   3.160   1.641   2.230 -0.0694 -0.3141  0.3068
 1385SOL     OW 5610   3.150   1.895   2.328 -0.1558 -0.0843 -0.3663
 1385SOL    HW2 5611   3.162   1.889   2.423 -0.1356  0.0727 -0.3582
 1385SOL    HW3 5612   3.227   1.944   2.298 -0.1263 -0.1962 -0.4718
 1385SOL    MW4 5613   3.162   1.901   2.337 -0.1493 -0.0783 -0.3793
 1386SOL     OW 5614   3.375   2.041   2.248  0.3938 -0.2586  0.3776
 1386SOL    HW2 5615   3.451   1.991   2.277  0.5013  0.2437  0.9773
 1386SOL    HW3 5616   3.387   2.050   2.153  0.1854 -1.6663  0.2107
 1386SOL    MW4 5617   3.386   2.036   2.239  0.3805 -0.3781  0.4346
 1387SOL     OW 5618   3.373   2.308   2.360 -0.0827 -0.3132 -0.2920
 1387SOL    HW2 5619   3.296   2.341   2.314  0.0207  0.1176 -0.1573
 1387SOL    HW3 5620   3.385   2.220   2.325 -0.8483 -0.5167 -0.0526
 1387SOL    MW4 5621   3.364   2.301   2.349 -0.1700 -0.2832 -0.2427
 1388SOL     OW 5622   3.180   2.491   2.228  0.7294 -0.1717  0.0753
 1388SOL    HW2 5623   3.188   2.574   2.276  0.9556 -0.1593  0.0144
 1388SOL    HW3 5624   3.101   2.451   2.264  0.5112  0.1591 -0.0327
 1388SOL    MW4 5625   3.171   2.497   2.239  0.7305 -0.1266  0.0529
 1389SOL     OW 5626   3.178   2.745   2.353 -0.2122  0.0929 -0.7628
 1389SOL    HW2 5627   3.170   2.731   2.447 -2.1328  1.0320 -0.7587
 1389SOL    HW3 5628   3.092   2.777   2.326  0.6096  0.7894 -2.6683
 1389SOL    MW4 5629   3.166   2.747   2.362 -0.3574  0.3088 -1.0138
 1390SOL     OW 5630   3.388   2.882   2.227  0.0217 -0.0118  0.5556
 1390SOL    HW2 5631   3.385   2.959   2.284  0.1705  0.7426 -0.4359
 1390SOL    HW3 5632   3.313   2.830   2.252 -0.0837  0.4657  1.2354
 1390SOL    MW4 5633   3.378   2.886   2.238  0.0277  0.1507  0.5145
 1391SOL     OW 5634   3.389   3.106   2.377 -0.2127 -0.2587  0.0781
 1391SOL    HW2 5635   3.454   3.150   2.322 -0.1922  1.3215  1.3215
 1391SOL    HW3 5636   3.305   3.126   2.335 -0.0588 -0.6262 -0.4127
 1391SOL    MW4 5637   3.387   3.115   2.364 -0.1900 -0.0987  0.1774
 1392SOL     OW 5638   3.144   3.187   2.240 -0.0815  0.3237 -0.1980
 1392SOL    HW2 5639   3.137   3.268   2.289 -0.9449 -0.7353  1.4842
 1392SOL    HW3 5640   3.153   3.214   2.148 -0.9358  2.2748  0.2901
 1392SOL    MW4 5641   3.144   3.201   2.234 -0.3080  0.4413  0.0885
 1393SOL     OW 5642   3.119   3.445   2.337  0.4777 -0.5359  0.6798
 1393SOL    HW2 5643   3.132   3.465   2.429 -1.1271  2.4226  0.3130
 1393SOL    HW3 5644   3.201   3.472   2.294  0.3348  0.2986  0.9282
 1393SOL    MW4 5645   3.132   3.451   2.343  0.2470 -0.0353  0.6640
 1394SOL     OW 5646   3.351   3.570   2.242  0.1645  0.1400 -0.6140
 1394SOL    HW2 5647   3.438   3.547   2.275  0.1585  0.4499 -0.3769
 1394SOL    HW3 5648   3.365   3.588   2.149 -0.0413 -1.9502 -1.0531
 1394SOL    MW4 5649   3.365   3.570   2.234  0.1366 -0.0949 -0.6406
 1395SOL     OW 5650   3.340   3.845   2.363  0.2317 -0.1226 -0.1475
 1395SOL    HW2 5651   3.418   3.894   2.335  0.3917 -0.7344 -0.7641
 1395SOL    HW3 5652   3.345   3.762   2.316 -0.1850 -0.6386  0.7014
 1395SOL    MW4 5653   3.351   3.841   2.353  0.1976 -0.2716 -0.1166
 1396SOL     OW 5654   3.127   3.991   2.273 -0.0522  0.1409 -0.2061
 1396SOL    HW2 5655   3.205   3.953   2.314 -0.4298 -0.3103  0.0891
 1396SOL    HW3 5656   3.054   3.945   2.313 -0.5035  1.0221 -0.0033
 1396SOL    MW4 5657   3.128   3.980   2.284 -0.1616  0.1976 -0.1402
 1397SOL     OW 5658   3.135   4.253   2.377  0.2465 -0.0464 -0.0362
 1397SOL    HW2 5659   3.197   4.290   2.314  1.6388 -0.8966  0.7945
 1397SOL    HW3 5660   3.116   4.165   2.344 -0.9233  0.3964 -0.5558
 1397SOL    MW4 5661   3.141   4.246   2.365  0.2761 -0.1001  0.0050
 1398SOL     OW 5662   3.320   4.401   2.210 -0.3020 -0.1659 -0.4517
 1398SOL    HW2 5663   3.319   4.492   2.240  2.7157 -0.3010  0.1477
 1398SOL    HW3 5664   3.332   4.407   2.115 -1.9951  0.0599 -0.6778
 1398SOL    MW4 5665   3.321   4.414   2.201 -0.1271 -0.1545 -0.4029
 1399SOL     OW 5666   3.741   4.627   2.383  0.0213  0.4684 -0.2603
 1399SOL    HW2 5667   3.738   4.636   2.479 -1.2593  1.7724 -0.3996
 1399SOL    HW3 5668   3.822   4.671   2.357  0.2274  0.3644  0.1999
 1399SOL    MW4 5669   3.751   4.634   2.392 -0.1202  0.6266 -0.2182
 1400SOL     OW 5670   3.575   0.105   2.230  0.3563 -0.1698 -0.0468
 1400SOL    HW2 5671   3.571   0.195   2.263  1.2450  0.2024 -0.9077
 1400SOL    HW3 5672   3.623   0.057   2.297 -0.6524 -0.1417  0.7050
 1400SOL    MW4 5673   3.581   0.111   2.243  0.3407 -0.1170 -0.0610
 1401SOL     OW 5674   3.548   0.351   2.367 -0.0264 -0.4562 -0.4246
 1401SOL    HW2 5675   3.549   0.361   2.462  1.0876 -1.3601 -0.3400
 1401SOL    HW3 5676   3.631   0.388   2.337 -0.7854  0.7108 -1.1460
 1401SOL    MW4 5677   3.559   0.357   2.375  0.0207 -0.4215 -0.5085
 1402SOL     OW 5678   3.789   0.478   2.284 -0.3480  0.2954  0.5437
 1402SOL    HW2 5679   3.785   0.572   2.301 -0.0035  0.4790 -0.3805
 1402SOL    HW3 5680   3.817   0.471   2.193 -0.7630 -0.7000  0.4842
 1402SOL    MW4 5681   3.792   0.490   2.275 -0.3572  0.1883  0.4141
 1403SOL     OW 5682   3.817   0.741   2.368  0.3240 -0.0352  0.2255
 1403SOL    HW2 5683   3.833   0.736   2.462  1.1706 -1.9842 -0.0098
 1403SOL    HW3 5684   3.891   0.791   2.334 -1.7038  3.6480  0.9840
 1403SOL    MW4 5685   3.829   0.747   2.376  0.1681  0.1936  0.2944
 1404SOL     OW 5686   3.603   0.892   2.330  0.0020  0.4077 -0.0274
 1404SOL    HW2 5687   3.683   0.843   2.347 -1.2221 -1.4014  0.6729
 1404SOL    HW3 5688   3.588   0.882   2.236  0.8712  1.1966 -0.2550
 1404SOL    MW4 5689   3.612   0.884   2.320 -0.0448  0.2731  0.0350
 1405SOL     OW 5690   3.588   1.148   2.371 -0.6532 -0.1388  0.0787
 1405SOL    HW2 5691   3.579   1.150   2.467 -0.1244 -0.2542  0.1301
 1405SOL    HW3 5692   3.591   1.055   2.349  0.3994 -0.1100  0.0625
 1405SOL    MW4 5693   3.587   1.136   2.381 -0.4447 -0.1503  0.0837
 1406SOL     OW 5694   3.797   1.270   2.253 -0.0040 -0.4426  0.5655
 1406SOL    HW2 5695   3.814   1.353   2.297 -0.5208 -0.2715  0.4472
 1406SOL    HW3 5696   3.724   1.231   2.301  0.1271 -0.7566  0.5187
 1406SOL    MW4 5697   3.790   1.275   2.265 -0.0551 -0.4613  0.5438
 1407SOL     OW 5698   3.836   1.532   2.381 -0.1672  0.2481 -0.1434
 1407SOL    HW2 5699   3.822   1.538   2.476 -0.3372 -0.3724 -0.1284
 1407SOL    HW3 5700   3.764   1.581   2.342 -0.5656 -0.1995  0.0257
 1407SOL    MW4 5701   3.825   1.539   2.389 -0.2422  0.1072 -0.1190
 1408SOL     OW 5702   3.636   1.651   2.260  0.3686  0.4467  0.0637
 1408SOL    HW2 5703   3.620   1.742   2.283  0.0978  0.1116  1.2729
 1408SOL    HW3 5704   3.561   1.604   2.297 -0.3042 -0.0729 -1.9160
 1408SOL    MW4 5705   3.624   1.657   2.268  0.2441  0.3339 -0.0379
 1409SOL     OW 5706   3.593   1.907   2.351 -0.3702  0.2600 -0.3868
 1409SOL    HW2 5707   3.665   1.960   2.318  0.4492 -0.6366 -0.0762
 1409SOL    HW3 5708   3.585   1.932   2.443 -1.5634  1.5680 -0.8436
 1409SOL    MW4 5709   3.602   1.917   2.358 -0.4191  0.3144 -0.4060
 1410SOL     OW 5710   3.836   2.040   2.248 -0.0771  0.0112  0.0433
 1410SOL    HW2 5711   3.921   2.022   2.289  0.5330  1.6256 -0.4971
 1410SOL    HW3 5712   3.856   2.058   2.157 -1.1300 -0.7057 -0.3389
 1410SOL    MW4 5713   3.850   2.040   2.242 -0.1354  0.1295 -0.0787
 1411SOL     OW 5714   3.843   2.303   2.353  0.4582  0.2740 -0.2079
 1411SOL    HW2 5715   3.753   2.331   2.340 -0.0638 -0.7717  1.0495
 1411SOL    HW3 5716   3.843   2.210   2.331  1.0647  0.0925  0.5371
 1411SOL    MW4 5717   3.831   2.294   2.348  0.4692  0.1123  0.0565
 1412SOL     OW 5718   3.615   2.439   2.322  0.0704 -0.1923  0.3694
 1412SOL    HW2 5719   3.527   2.407   2.343 -0.1002  0.3738  0.5437
 1412SOL    HW3 5720   3.623   2.429   2.227 -1.0331  1.8109  0.0378
 1412SOL    MW4 5721   3.605   2.434   2.312 -0.0975  0.1466  0.3486
 1413SOL     OW 5722   3.595   2.716   2.344 -0.0689 -0.3737  0.7046
 1413SOL    HW2 5723   3.583   2.621   2.336  0.1890 -0.4909  1.7010
 1413SOL    HW3 5724   3.527   2.753   2.288 -0.8996 -1.1296  1.1929
 1413SOL    MW4 5725   3.585   2.708   2.335 -0.1445 -0.4890  0.9005
 1414SOL     OW 5726   3.818   2.859   2.217 -0.0429  0.0267 -0.0049
 1414SOL    HW2 5727   3.837   2.938   2.268  0.5576  0.7468 -1.3174
 1414SOL    HW3 5728   3.736   2.827   2.252  0.1489  0.7608  1.1267
 1414SOL    MW4 5729   3.810   2.866   2.228  0.0615  0.2184 -0.0286
 1415SOL     OW 5730   3.848   3.110   2.340 -0.4437  0.3165 -0.0077
 1415SOL    HW2 5731   3.846   3.113   2.435 -2.9789 -0.2298 -0.0159
 1415SOL    HW3 5732   3.930   3.153   2.316 -0.7185  2.2406  2.3500
 1415SOL    MW4 5733   3.858   3.116   2.349 -0.8144  0.4983  0.3028
 1416SOL     OW 5734   3.604   3.242   2.257 -0.2708 -0.0928 -0.5750
 1416SOL    HW2 5735   3.606   3.321   2.312 -0.1543  0.5547 -1.5003
 1416SOL    HW3 5736   3.682   3.193   2.283  0.6017  0.9335 -1.2136
 1416SOL    MW4 5737   3.614   3.246   2.268 -0.1404  0.1280 -0.7813
 1417SOL     OW 5738   3.601   3.524   2.367 -0.2187  0.2857 -0.6303
 1417SOL    HW2 5739   3.604   3.545   2.460  0.5981 -1.8729 -0.1349
 1417SOL    HW3 5740   3.679   3.565   2.330  0.2508 -0.1091 -0.0785
 1417SOL    MW4 5741   3.611   3.532   2.374 -0.0491 -0.0510 -0.4921
 1418SOL     OW 5742   3.813   3.649   2.227 -0.1002  0.2978  0.0312
 1418SOL    HW2 5743   3.801   3.734   2.268  3.5805  0.6000  0.6672
 1418SOL    HW3 5744   3.796   3.664   2.134  0.4299  1.7169  0.1614
 1418SOL    MW4 5745   3.809   3.662   2.220  0.4554  0.5248  0.1323
 1419SOL     OW 5746   3.769   3.866   2.384  0.1894 -0.0238  0.4582
 1419SOL    HW2 5747   3.826   3.836   2.455 -0.3781  0.7422  1.2660
 1419SOL    HW3 5748   3.822   3.928   2.335  0.6515 -0.7054  0.0891
 1419SOL    MW4 5749   3.783   3.870   2.387  0.1755 -0.0129  0.5159
 1420SOL     OW 5750   3.553   3.999   2.267  0.1107 -0.0326  0.5346
 1420SOL    HW2 5751   3.561   4.090   2.295  1.6712 -0.3589  1.1821
 1420SOL    HW3 5752   3.621   3.953   2.315 -0.3619 -1.4656 -0.1491
 1420SOL    MW4 5753   3.563   4.005   2.277  0.2542 -0.2646  0.5295
 1421SOL     OW 5754   3.558   4.286   2.328  0.1068 -0.2073 -0.0051
 1421SOL    HW2 5755   3.643   4.318   2.297  0.8890  0.7940  3.0379
 1421SOL    HW3 5756   3.494   4.347   2.290  1.1534  1.7607  1.3231
 1421SOL    MW4 5757   3.561   4.298   2.319  0.3481  0.1845  0.5715
 1422SOL     OW 5758   3.786   4.412   2.225  0.1041 -0.1966 -0.2978
 1422SOL    HW2 5759   3.867   4.373   2.258 -0.8037 -1.2797  0.6941
 1422SOL    HW3 5760   3.774   4.490   2.279  0.2624 -0.2569 -0.1730
 1422SOL    MW4 5761   3.795   4.417   2.236  0.0052 -0.3471 -0.1504
 1423SOL     OW 5762   4.230   4.655   2.358  0.0992  0.5336  0.4421
 1423SOL    HW2 5763   4.231   4.637   2.452 -1.0554 -1.6379  0.0813
 1423SOL    HW3 5764   4.294   4.725   2.346  0.5256  0.5887  2.7865
 1423SOL    MW4 5765   4.238   4.662   2.369  0.0033  0.2546  0.7038
 1424SOL     OW 5766   3.983   0.084   2.275 -0.2163  0.0001  0.3443
 1424SOL    HW2 5767   3.974   0.164   2.327  0.4756  0.3077 -0.0117
 1424SOL    HW3 5768   4.063   0.043   2.307 -0.8212 -0.8123  0.8686
 1424SOL    MW4 5769   3.992   0.089   2.286 -0.2048 -0.0665  0.3664
 1425SOL     OW 5770   4.002   0.331   2.411 -0.3535 -0.0163  0.2208
 1425SOL    HW2 5771   4.076   0.388   2.388 -0.0209 -0.9791 -1.2020
 1425SOL    HW3 5772   3.925   0.376   2.377 -0.0764 -0.4713 -1.0237
 1425SOL    MW4 5773   4.002   0.344   2.403 -0.2732 -0.2033 -0.1311
 1426SOL     OW 5774   4.219   0.460   2.299 -0.3182  0.1171 -0.4161
 1426SOL    HW2 5775   4.225   0.555   2.308 -1.8306  0.1051  0.9143
 1426SOL    HW3 5776   4.301   0.427   2.334 -0.3736  0.8629  0.4235
 1426SOL    MW4 5777   4.230   0.468   2.305 -0.5255  0.2139 -0.1297
 1427SOL     OW 5778   4.217   0.728   2.361  0.2517  0.4336 -0.3368
 1427SOL    HW2 5779   4.138   0.778   2.337 -1.3036 -2.5165 -1.6671
 1427SOL    HW3 5780   4.289   0.777   2.322 -1.1127  2.1781 -0.7514
 1427SOL    MW4 5781   4.216   0.741   2.353 -0.1335  0.2746 -0.5670
 1428SOL     OW 5782   4.020   0.891   2.262 -0.1817  0.3759 -0.0554
 1428SOL    HW2 5783   4.034   0.975   2.305  1.7649  0.7066 -1.2965
 1428SOL    HW3 5784   4.013   0.911   2.169 -0.0028 -0.7795 -0.3322
 1428SOL    MW4 5785   4.021   0.905   2.256  0.0987  0.2671 -0.2553
 1429SOL     OW 5786   4.021   1.156   2.383  0.4400  0.0179  0.4132
 1429SOL    HW2 5787   4.011   1.164   2.478  0.7216  2.9984  0.2428
 1429SOL    HW3 5788   3.935   1.180   2.348  0.5677 -0.2897 -0.1182
 1429SOL    MW4 5789   4.008   1.160   2.391  0.4940  0.3704  0.3207
 1430SOL     OW 5790   4.243   1.282   2.249 -0.6432  0.0286 -0.0678
 1430SOL    HW2 5791   4.175   1.241   2.302 -0.8251  1.6566  1.0123
 1430SOL    HW3 5792   4.323   1.235   2.272 -0.6798  0.8732  1.8591
 1430SOL    MW4 5793   4.244   1.270   2.259 -0.6723  0.3549  0.3290
 1431SOL     OW 5794   4.260   1.545   2.321  0.0822  0.1423 -0.2154
 1431SOL    HW2 5795   4.248   1.455   2.292  1.1896 -0.6316  1.6427
 1431SOL    HW3 5796   4.351   1.566   2.298 -0.2340  0.8653 -0.8347
 1431SOL    MW4 5797   4.270   1.536   2.314  0.1860  0.1354 -0.0520
 1432SOL     OW 5798   4.033   1.683   2.266  0.0853 -0.1548 -0.1173
 1432SOL    HW2 5799   4.113   1.642   2.297 -0.2824 -0.2423  0.7446
 1432SOL    HW3 5800   3.963   1.637   2.313 -0.4571 -0.0206 -0.7939
 1432SOL    MW4 5801   4.034   1.672   2.277 -0.0348 -0.1487 -0.0927
 1433SOL     OW 5802   4.055   1.933   2.371 -0.3300 -0.3759 -0.0056
 1433SOL    HW2 5803   4.052   1.930   2.467  1.3068  1.3710  0.1451
 1433SOL    HW3 5804   4.032   1.845   2.343  0.1009 -1.1738  2.0424
 1433SOL    MW4 5805   4.052   1.921   2.380 -0.0567 -0.2507  0.2844
 1434SOL     OW 5806   4.281   2.047   2.302 -0.0414  0.1546  0.3387
 1434SOL    HW2 5807   4.277   2.139   2.324  0.3181  0.4637 -0.8338
 1434SOL    HW3 5808   4.196   2.012   2.327 -0.3259  0.8897  0.3937
 1434SOL    MW4 5809   4.270   2.054   2.308 -0.0310  0.2923  0.1912
 1435SOL     OW 5810   4.255   2.310   2.357  0.1899 -0.1572 -0.3194
 1435SOL    HW2 5811   4.175   2.349   2.322 -0.1087 -0.4847 -0.0085
 1435SOL    HW3 5812   4.326   2.366   2.324 -0.3620  1.8132  1.6926
 1435SOL    MW4 5813   4.254   2.323   2.348  0.0782  0.0596 -0.0129
 1436SOL     OW 5814   4.052   2.454   2.243  0.5860  0.2372  0.1698
 1436SOL    HW2 5815   4.039   2.544   2.274 -0.0584  0.6114 -1.1601
 1436SOL    HW3 5816   3.972   2.408   2.270  0.2648  0.4302 -0.4450
 1436SOL    MW4 5817   4.039   2.460   2.251  0.4587  0.3119 -0.0868
 1437SOL     OW 5818   4.049   2.724   2.324 -0.2223  0.1622  0.0339
 1437SOL    HW2 5819   4.038   2.737   2.418 -0.4945  0.7021 -0.0705
 1437SOL    HW3 5820   3.976   2.771   2.285 -1.0952 -1.4999 -0.3731
 1437SOL    MW4 5821   4.038   2.732   2.331 -0.3738  0.0141 -0.0334
 1438SOL     OW 5822   4.274   2.870   2.288 -0.2648  0.6086  0.0751
 1438SOL    HW2 5823   4.197   2.815   2.304  0.4034 -0.7361 -1.2012
 1438SOL    HW3 5824   4.348   2.809   2.296  0.6241  1.7678  0.7315
 1438SOL    MW4 5825   4.274   2.854   2.291 -0.0591  0.5839 -0.0069
 1439SOL     OW 5826   4.318   3.127   2.402  0.3965 -0.5346  0.5167
 1439SOL    HW2 5827   4.292   3.046   2.359 -1.0730  1.1726 -1.9256
 1439SOL    HW3 5828   4.399   3.152   2.358  1.0366 -0.8520  1.5076
 1439SOL    MW4 5829   4.325   3.119   2.390  0.2871 -0.3510  0.3252
 1440SOL     OW 5830   4.090   3.236   2.275 -0.1721  0.3232  0.1211
 1440SOL    HW2 5831   4.097   3.331   2.291  0.1416  0.5917 -1.5759
 1440SOL    HW3 5832   4.168   3.200   2.316  0.7683  1.0411 -1.0100
 1440SOL    MW4 5833   4.101   3.244   2.283 -0.0072  0.4537 -0.2522
 1441SOL     OW 5834   4.038   3.519   2.320 -0.0417  0.1293  0.5608
 1441SOL    HW2 5835   4.017   3.496   2.411 -1.9798 -0.2355  0.0504
 1441SOL    HW3 5836   3.961   3.567   2.289  0.5968  0.2434 -0.8920
 1441SOL    MW4 5837   4.025   3.522   2.328 -0.2131  0.0963  0.3016
 1442SOL     OW 5838   4.255   3.641   2.247  0.0021 -0.3522 -0.3007
 1442SOL    HW2 5839   4.269   3.723   2.296 -1.6647  0.8028 -1.7182
 1442SOL    HW3 5840   4.173   3.605   2.283  0.9146 -1.6011  0.5687
 1442SOL    MW4 5841   4.246   3.647   2.259 -0.0973 -0.3645 -0.3729
 1443SOL     OW 5842   4.243   3.912   2.332 -0.0042  0.0468 -0.6340
 1443SOL    HW2 5843   4.268   3.889   2.422  1.9091  0.7425 -0.9543
 1443SOL    HW3 5844   4.322   3.952   2.295 -1.0881  0.7044 -2.3035
 1443SOL    MW4 5845   4.257   3.915   2.339  0.1059  0.2255 -0.8965
 1444SOL     OW 5846   3.989   4.014   2.270  0.0580 -0.3141  0.2893
 1444SOL    HW2 5847   4.076   3.985   2.296 -0.1791 -1.2406  0.0775
 1444SOL    HW3 5848   3.991   4.015   2.174 -0.1465 -0.2781  0.2841
 1444SOL    MW4 5849   4.001   4.010   2.260 -0.0005 -0.4315  0.2608
 1445SOL     OW 5850   4.028   4.297   2.340 -0.3999 -0.0534  0.1571
 1445SOL    HW2 5851   4.103   4.333   2.293 -0.0965  0.1294  0.7771
 1445SOL    HW3 5852   4.025   4.205   2.314  0.6870 -0.3143  0.9647
 1445SOL    MW4 5853   4.037   4.290   2.331 -0.2165 -0.0639  0.3455
 1446SOL     OW 5854   4.262   4.389   2.231 -0.2426 -0.1043 -0.2562
 1446SOL    HW2 5855   4.260   4.477   2.268 -0.7236 -0.7513  1.2775
 1446SOL    HW3 5856   4.331   4.344   2.280  1.2502 -0.0700 -2.2483
 1446SOL    MW4 5857   4.271   4.394   2.242 -0.1092 -0.1850 -0.3169
 1447SOL     OW 5858   0.197   4.656   2.609 -0.2026  0.0989 -0.1674
 1447SOL    HW2 5859   0.210   4.572   2.653 -1.1382 -0.3589 -0.7322
 1447SOL    HW3 5860   0.123   4.696   2.655  0.2977  0.6548  0.1562
 1447SOL    MW4 5861   0.189   4.650   2.620 -0.2601  0.1116 -0.1993
 1448SOL     OW 5862   4.475   0.095   2.750 -0.0219 -0.4257  0.3459
 1448SOL    HW2 5863   4.478   0.078   2.844 -0.3760  0.0504  0.4474
 1448SOL    HW3 5864   4.478   0.190   2.743 -1.1607 -0.4021 -0.0653
 1448SOL    MW4 5865   4.476   0.105   2.761 -0.2189 -0.3597  0.3052
 1449SOL     OW 5866   4.476   0.374   2.700 -0.5306 -0.0250  0.5621
 1449SOL    HW2 5867   4.556   0.419   2.729  0.1725 -1.3300  0.6746
 1449SOL    HW3 5868   4.480   0.377   2.605 -0.8156  0.7209  0.5698
 1449SOL    MW4 5869   4.487   0.380   2.692 -0.4759 -0.0988  0.5779
 1450SOL     OW 5870   0.217   0.509   2.767 -0.0037  0.4168 -0.4705
 1450SOL    HW2 5871   0.219   0.513   2.863 -0.0268  2.0361 -0.5233
 1450SOL    HW3 5872   0.291   0.452   2.744 -0.1359 -0.1620  0.5142
 1450SOL    MW4 5873   0.227   0.502   2.777 -0.0242  0.5541 -0.3476
 1451SOL     OW 5874   0.206   0.747   2.619 -0.0505  0.0872 -0.2280
 1451SOL    HW2 5875   0.291   0.780   2.649  1.0164 -0.6809 -2.2814
 1451SOL    HW3 5876   0.204   0.656   2.647 -0.8082  0.4710  1.0081
 1451SOL    MW4 5877   0.217   0.739   2.626 -0.0097  0.0365 -0.3359
 1452SOL     OW 5878   4.476   0.868   2.727  0.4069 -0.1257  0.0281
 1452SOL    HW2 5879   4.412   0.797   2.716  0.8237 -0.3278 -1.1828
 1452SOL    HW3 5880   4.559   0.829   2.701  0.7123  0.6887 -0.2176
 1452SOL    MW4 5881   4.478   0.853   2.722  0.5021 -0.0449 -0.1640
 1453SOL     OW 5882   4.487   1.147   2.644 -0.0277 -0.1381  0.7174
 1453SOL    HW2 5883   4.568   1.184   2.679  0.4552  0.2349 -0.7551
 1453SOL    HW3 5884   4.483   1.059   2.682  1.3244 -0.3364  0.4329
 1453SOL    MW4 5885   4.497   1.140   2.653  0.2144 -0.1149  0.4857
 1454SOL     OW 5886   0.234   1.235   2.763  0.0820 -0.3057  0.2215
 1454SOL    HW2 5887   0.315   1.193   2.734  0.4932 -0.3041  1.3056
 1454SOL    HW3 5888   0.238   1.323   2.726 -0.7911 -1.2032 -2.0621
 1454SOL    MW4 5889   0.245   1.241   2.754  0.0210 -0.4238  0.0634
 1455SOL     OW 5890   0.233   1.484   2.642 -0.0643 -0.2106 -0.1735
 1455SOL    HW2 5891   0.297   1.536   2.691 -0.5353 -1.5184  1.9005
 1455SOL    HW3 5892   0.151   1.532   2.651 -0.0040 -0.0971 -0.2327
 1455SOL    MW4 5893   0.231   1.497   2.650 -0.1185 -0.3681  0.0923
 1456SOL     OW 5894   0.011   1.653   2.698 -0.1358 -0.1476  0.1424
 1456SOL    HW2 5895   0.004   1.648   2.794  0.6436  0.0206  0.2032
 1456SOL    HW3 5896   0.036   1.743   2.680 -2.2834  0.3930 -0.3454
 1456SOL    MW4 5897   0.013   1.664   2.709 -0.3163 -0.0542  0.0861
 1457SOL     OW 5898   0.035   1.927   2.666 -0.2560 -0.0082  0.3249
 1457SOL    HW2 5899   0.109   1.985   2.689  0.3928 -0.7784  0.2090
 1457SOL    HW3 5900   0.041   1.919   2.571  0.1691 -0.9389  0.4255
 1457SOL    MW4 5901   0.046   1.934   2.656 -0.1143 -0.2327  0.3233
 1458SOL     OW 5902   0.246   2.104   2.730 -0.4343 -0.4899  0.1564
 1458SOL    HW2 5903   0.322   2.064   2.688 -0.9984 -1.0860 -0.3019
 1458SOL    HW3 5904   0.234   2.186   2.683 -0.2062 -0.4901  0.0929
 1458SOL    MW4 5905   0.255   2.110   2.718 -0.4787 -0.5686  0.0875
 1459SOL     OW 5906   0.236   2.350   2.605 -0.4868  0.4457 -0.1839
 1459SOL    HW2 5907   0.310   2.378   2.660 -0.4954 -1.0164  0.6035
 1459SOL    HW3 5908   0.159   2.385   2.648 -0.2349  2.3655 -1.2554
 1459SOL    MW4 5909   0.236   2.358   2.618 -0.4547  0.5062 -0.2213
 1460SOL     OW 5910   4.483   2.442   2.728  0.2554 -0.6414  0.4322
 1460SOL    HW2 5911   4.478   2.441   2.824 -0.9195 -0.7941  0.3714
 1460SOL    HW3 5912   4.402   2.400   2.699  0.4372 -0.2637 -0.6412
 1460SOL    MW4 5913   4.472   2.436   2.737  0.1244 -0.6118  0.2823
 1461SOL     OW 5914   4.479   2.702   2.607 -0.4011 -0.1620 -0.0991
 1461SOL    HW2 5915   4.410   2.740   2.662 -0.1691  1.4084 -0.8400
 1461SOL    HW3 5916   4.477   2.609   2.626 -1.2425  0.1747  1.5453
 1461SOL    MW4 5917   4.469   2.695   2.617 -0.4815  0.0896  0.0200
 1462SOL     OW 5918   0.225   2.798   2.724  0.0631 -0.3060  0.1940
 1462SOL    HW2 5919   0.234   2.886   2.688 -3.3508  0.7147  1.7059
 1462SOL    HW3 5920   0.150   2.761   2.679  0.7193 -2.0218  0.4711
 1462SOL    MW4 5921   0.216   2.805   2.713 -0.3008 -0.3979  0.4299
 1463SOL     OW 5922   0.219   3.069   2.611  0.0128 -0.4255 -0.0925
 1463SOL    HW2 5923   0.295   3.108   2.655  0.8456 -2.5709  0.4283
 1463SOL    HW3 5924   0.229   3.095   2.519  0.9300 -0.0232  0.1124
 1463SOL    MW4 5925   0.231   3.078   2.604  0.2437 -0.6557  0.0033
 1464SOL     OW 5926   4.490   3.222   2.716 -0.0816 -0.3243 -0.0713
 1464SOL    HW2 5927   4.417   3.159   2.714 -1.3500  1.1169 -0.8465
 1464SOL    HW3 5928   4.566   3.171   2.690 -0.4864 -2.2481  2.3297
 1464SOL    MW4 5929   4.490   3.207   2.712 -0.3028 -0.3879  0.1433
 1465SOL     OW 5930   4.471   3.465   2.596  0.1489  0.3259 -0.0908
 1465SOL    HW2 5931   4.544   3.508   2.641  0.8794  0.0788 -1.0085
 1465SOL    HW3 5932   4.478   3.373   2.622  1.5475 -0.1287 -1.9015
 1465SOL    MW4 5933   4.482   3.459   2.605  0.4296  0.2332 -0.4508
 1466SOL     OW 5934   0.213   3.612   2.709  0.1567  0.4016  0.5332
 1466SOL    HW2 5935   0.226   3.597   2.802  1.4234 -1.3633  0.1098
 1466SOL    HW3 5936   0.289   3.571   2.667 -0.6596  0.6805 -1.3094
 1466SOL    MW4 5937   0.225   3.605   2.715  0.2161  0.2055  0.2346
 1467SOL     OW 5938   0.210   3.861   2.565  0.4940 -0.1104 -0.1462
 1467SOL    HW2 5939   0.182   3.778   2.604 -0.1358  0.5017  0.7182
 1467SOL    HW3 5940   0.224   3.840   2.472 -1.4321 -0.7779 -0.3106
 1467SOL    MW4 5941   0.208   3.847   2.558  0.1568 -0.1180 -0.0539
 1468SOL     OW 5942   0.003   4.002   2.689  0.3990  0.1982 -0.2868
 1468SOL    HW2 5943   0.003   4.097   2.678  1.1095  0.0980 -1.2146
 1468SOL    HW3 5944   0.076   3.971   2.634  0.9377 -0.7732  0.9295
 1468SOL    MW4 5945   0.013   4.010   2.680  0.5638  0.0572 -0.2489
 1469SOL     OW 5946   0.006   4.267   2.630 -0.3754 -0.3663 -0.1725
 1469SOL    HW2 5947  -0.076   4.307   2.659 -0.4145 -0.1704 -0.5515
 1469SOL    HW3 5948   0.074   4.315   2.676 -0.5024 -0.9617  0.6522
 1469SOL    MW4 5949   0.004   4.278   2.640 -0.3973 -0.4191 -0.1137
 1470SOL     OW 5950   0.212   4.421   2.737  0.2044  0.2012 -0.2436
 1470SOL    HW2 5951   0.234   4.426   2.830  1.6226 -0.7980 -0.5117
 1470SOL    HW3 5952   0.279   4.364   2.699 -1.7381 -1.3657 -1.4431
 1470SOL    MW4 5953   0.223   4.414   2.744  0.1352 -0.1373 -0.4370
 1471SOL     OW 5954   0.665   4.651   2.639 -0.2258  0.3080  0.2524
 1471SOL    HW2 5955   0.733   4.683   2.698 -0.8055  1.0025  0.5517
 1471SOL    HW3 5956   0.583   4.686   2.675 -0.6155  0.5163 -0.8007
 1471SOL    MW4 5957   0.663   4.660   2.651 -0.3537  0.4268  0.1531
 1472SOL     OW 5958   0.428   0.104   2.720  0.5908 -0.1428  0.4357
 1472SOL    HW2 5959   0.418   0.091   2.815  1.0884 -0.0366  0.5029
 1472SOL    HW3 5960   0.352   0.060   2.682  0.4356 -0.2626  0.8798
 1472SOL    MW4 5961   0.417   0.096   2.728  0.6360 -0.1446  0.5033
 1473SOL     OW 5962   0.423   0.362   2.634  0.0207  0.4380  0.3109
 1473SOL    HW2 5963   0.505   0.407   2.655  0.3873 -0.1701  0.1938
 1473SOL    HW3 5964   0.435   0.273   2.669 -0.3128  0.1401 -0.3299
 1473SOL    MW4 5965   0.435   0.356   2.642  0.0251  0.3184  0.2108
 1474SOL     OW 5966   0.671   0.460   2.719  0.4291 -0.4194 -0.0957
 1474SOL    HW2 5967   0.677   0.476   2.814  0.4728 -1.2808  0.0456
 1474SOL    HW3 5968   0.752   0.413   2.698 -0.5425 -2.0956 -0.1801
 1474SOL    MW4 5969   0.683   0.456   2.729  0.3067 -0.7542 -0.0882
 1475SOL     OW 5970   0.660   0.736   2.632  0.2675  0.1607 -0.2759
 1475SOL    HW2 5971   0.728   0.798   2.658 -1.1265  0.8376  1.8804
 1475SOL    HW3 5972   0.682   0.656   2.679 -1.0250  0.7228  1.3358
 1475SOL    MW4 5973   0.672   0.734   2.642 -0.0870  0.3242  0.2213
 1476SOL     OW 5974   0.443   0.859   2.732  0.0034 -0.2827 -0.0614
 1476SOL    HW2 5975   0.446   0.954   2.725 -2.5727 -0.1557  0.0977
 1476SOL    HW3 5976   0.519   0.829   2.682  0.3473  1.8145 -0.8609
 1476SOL    MW4 5977   0.453   0.868   2.724 -0.2911  0.0107 -0.1459
 1477SOL     OW 5978   0.467   1.127   2.664  0.2148  0.0223 -0.1374
 1477SOL    HW2 5979   0.529   1.191   2.698  0.2939 -0.0768 -0.0912
 1477SOL    HW3 5980   0.469   1.139   2.569 -0.9257  1.1316 -0.0195
 1477SOL    MW4 5981   0.476   1.137   2.656  0.0748  0.1556 -0.1161
 1478SOL     OW 5982   0.660   1.305   2.761  0.0028 -0.5448  0.0462
 1478SOL    HW2 5983   0.662   1.278   2.853  0.1990 -1.9929 -0.3712
 1478SOL    HW3 5984   0.736   1.261   2.722  0.7426  1.1796 -0.5131
 1478SOL    MW4 5985   0.670   1.296   2.768  0.1263 -0.5084 -0.0825
 1479SOL     OW 5986   0.676   1.554   2.666 -0.3903  0.1301  0.0081
 1479SOL    HW2 5987   0.589   1.591   2.681 -0.8173 -0.6862 -0.3978
 1479SOL    HW3 5988   0.668   1.463   2.695 -0.0550 -0.3189 -1.2574
 1479SOL    MW4 5989   0.663   1.547   2.672 -0.4024 -0.0368 -0.2127
 1480SOL     OW 5990   0.421   1.655   2.735 -0.3799  0.3536 -0.2170
 1480SOL    HW2 5991   0.411   1.645   2.829  2.0969  1.0953  0.1544
 1480SOL    HW3 5992   0.398   1.747   2.719 -0.4802  0.3133 -0.3084
 1480SOL    MW4 5993   0.416   1.666   2.745 -0.0664  0.4461 -0.1800
 1481SOL     OW 5994   0.422   1.929   2.609  0.1397  0.0619 -0.3468
 1481SOL    HW2 5995   0.492   1.983   2.645 -0.7173  1.4433 -0.7106
 1481SOL    HW3 5996   0.444   1.920   2.516 -0.1942  0.5442 -0.4730
 1481SOL    MW4 5997   0.434   1.935   2.601 -0.0174  0.3079 -0.4115
 1482SOL     OW 5998   0.646   2.042   2.747 -0.3900  0.3518  0.4028
 1482SOL    HW2 5999   0.655   2.051   2.842 -1.6969  0.3627  0.5335
 1482SOL    HW3 6000   0.724   1.993   2.720 -0.0468  0.2855  1.4835
 1482SOL    MW4 6001   0.658   2.037   2.756 -0.5171  0.3443  0.5624
 1483SOL     OW 6002   0.678   2.301   2.645 -0.7427  0.2271 -0.1689
 1483SOL    HW2 6003   0.758   2.347   2.670 -1.1613  0.8275  0.0807
 1483SOL    HW3 6004   0.686   2.215   2.686 -0.3982  0.4120  0.1601
 1483SOL    MW4 6005   0.690   2.296   2.653 -0.7524  0.3307 -0.0925
 1484SOL     OW 6006   0.454   2.433   2.752  0.2572  0.1826  0.0041
 1484SOL    HW2 6007   0.471   2.505   2.692  1.5498  0.9038  1.2065
 1484SOL    HW3 6008   0.517   2.365   2.728 -1.3885 -0.8520 -1.5548
 1484SOL    MW4 6009   0.464   2.433   2.741  0.2106  0.1411 -0.0429
 1485SOL     OW 6010   0.462   2.671   2.609 -0.3817  0.1165  0.1152
 1485SOL    HW2 6011   0.522   2.732   2.651  0.4208 -1.9636  2.1038
 1485SOL    HW3 6012   0.376   2.692   2.644 -0.3153  0.9526 -0.2220
 1485SOL    MW4 6013   0.459   2.682   2.619 -0.2671 -0.0477  0.3333
 1486SOL     OW 6014   0.662   2.832   2.725 -0.2980 -0.3663  0.2387
 1486SOL    HW2 6015   0.651   2.836   2.820 -1.3405 -0.9458  0.1449
 1486SOL    HW3 6016   0.673   2.923   2.699  0.8201 -0.2624  0.9976
 1486SOL    MW4 6017   0.662   2.844   2.734 -0.2880 -0.4289  0.3264
 1487SOL     OW 6018   0.686   3.093   2.624 -0.5179  0.4975  0.0048
 1487SOL    HW2 6019   0.771   3.127   2.654 -0.7931  1.0303  0.1906
 1487SOL    HW3 6020   0.688   3.104   2.529  1.0835 -2.8589 -0.4004
 1487SOL    MW4 6021   0.698   3.099   2.616 -0.3429  0.1252 -0.0243
 1488SOL     OW 6022   0.440   3.192   2.736  0.0027 -0.8230  0.1826
 1488SOL    HW2 6023   0.458   3.197   2.830  0.1655 -1.1726  0.1734
 1488SOL    HW3 6024   0.525   3.171   2.697  0.1953  0.5868 -0.1698
 1488SOL    MW4 6025   0.454   3.190   2.743  0.0496 -0.6833  0.1349
 1489SOL     OW 6026   0.438   3.460   2.649 -0.2571  0.0967 -0.0780
 1489SOL    HW2 6027   0.419   3.380   2.699  0.4771  0.3879  0.6640
 1489SOL    HW3 6028   0.422   3.435   2.558  0.1549 -0.9589  0.1308
 1489SOL    MW4 6029   0.433   3.446   2.643 -0.1059 -0.0043  0.0472
 1490SOL     OW 6030   0.667   3.595   2.717  0.2044  0.2321 -0.0350
 1490SOL    HW2 6031   0.668   3.601   2.813  0.8672  1.4406 -0.1158
 1490SOL    HW3 6032   0.581   3.559   2.697 -0.2150  0.6483  0.9761
 1490SOL    MW4 6033   0.656   3.591   2.727  0.2365  0.4466  0.0875
 1491SOL     OW 6034   0.631   3.885   2.638 -0.0251 -0.4208  0.1575
 1491SOL    HW2 6035   0.552   3.926   2.674 -0.8823 -0.6294 -1.4564
 1491SOL    HW3 6036   0.625   3.793   2.664  0.5074 -0.1174  1.4032
 1491SOL    MW4 6037   0.620   3.879   2.646 -0.0678 -0.4084  0.1090
 1492SOL     OW 6038   0.409   4.012   2.745  0.3975 -0.3404 -0.1740
 1492SOL    HW2 6039   0.408   4.099   2.707 -0.6963 -0.1415  0.2889
 1492SOL    HW3 6040   0.335   3.967   2.704  0.3639 -0.7296  0.3046
 1492SOL    MW4 6041   0.399   4.017   2.735  0.2487 -0.3648 -0.0496
 1493SOL     OW 6042   0.396   4.259   2.611 -0.0267  0.4708 -0.1419
 1493SOL    HW2 6043   0.480   4.296   2.639  1.6030 -1.8423 -1.7418
 1493SOL    HW3 6044   0.396   4.270   2.516 -0.2933 -2.0016 -0.4478
 1493SOL    MW4 6045   0.407   4.266   2.602  0.1531 -0.1602 -0.3929
 1494SOL     OW 6046   0.636   4.381   2.708  0.4109 -0.1630  0.2522
 1494SOL    HW2 6047   0.721   4.343   2.684  0.7640  1.0021 -0.3789
 1494SOL    HW3 6048   0.649   4.476   2.699 -0.3551  0.1365  2.0995
 1494SOL    MW4 6049   0.649   4.389   2.704  0.3564  0.0300  0.4127
 1495SOL     OW 6050   1.152   4.635   2.667  0.7100  0.1079 -0.0698
 1495SOL    HW2 6051   1.230   4.674   2.705  0.7130 -0.1499  0.1965
 1495SOL    HW3 6052   1.164   4.541   2.679  0.4220  0.0599 -0.1494
 1495SOL    MW4 6053   1.164   4.628   2.674  0.6723  0.0682 -0.0453
 1496SOL     OW 6054   0.916   0.071   2.752  0.4574  0.0802  0.1033
 1496SOL    HW2 6055   0.898   0.103   2.841  0.7847 -1.6039  0.7884
 1496SOL    HW3 6056   1.009   0.048   2.753  0.3698 -0.3146 -0.5654
 1496SOL    MW4 6057   0.926   0.072   2.764  0.4891 -0.1941  0.1056
 1497SOL     OW 6058   0.909   0.336   2.654 -0.1418  0.0089 -0.4882
 1497SOL    HW2 6059   0.904   0.243   2.679  2.4763 -0.2261 -0.7217
 1497SOL    HW3 6060   0.906   0.336   2.559  2.3025 -0.0828 -0.6135
 1497SOL    MW4 6061   0.908   0.324   2.645  0.5261 -0.0343 -0.5355
 1498SOL     OW 6062   1.127   0.487   2.720 -0.1165  0.3156 -0.3673
 1498SOL    HW2 6063   1.117   0.577   2.691  0.0037  0.3419 -0.3250
 1498SOL    HW3 6064   1.049   0.442   2.686 -0.1967  0.4444 -0.3505
 1498SOL    MW4 6065   1.115   0.493   2.712 -0.1112  0.3361 -0.3593
 1499SOL     OW 6066   1.120   0.756   2.653 -0.1368 -0.5142  0.1182
 1499SOL    HW2 6067   1.210   0.780   2.678 -0.3780  1.5042 -0.8676
 1499SOL    HW3 6068   1.120   0.760   2.558 -2.1597  3.0374  0.1632
 1499SOL    MW4 6069   1.132   0.760   2.644 -0.4355  0.2208 -0.0060
 1500SOL     OW 6070   0.877   0.881   2.717 -0.1327 -0.3890 -0.0945
 1500SOL    HW2 6071   0.885   0.874   2.812 -1.3500 -1.6948 -0.0606
 1500SOL    HW3 6072   0.956   0.839   2.683 -0.4410 -1.3324  0.3346
 1500SOL    MW4 6073   0.889   0.874   2.725 -0.3339 -0.6858 -0.0334
 1501SOL     OW 6074   0.886   1.172   2.673 -1.0267 -0.1906 -0.1458
 1501SOL    HW2 6075   0.895   1.081   2.701 -1.1525 -0.3594 -0.6578
 1501SOL    HW3 6076   0.888   1.169   2.577  1.6529  0.6256 -0.1331
 1501SOL    MW4 6077   0.887   1.160   2.664 -0.6898 -0.1051 -0.2117
 1502SOL     OW 6078   1.120   1.302   2.725 -0.1875 -0.0455 -0.3913
 1502SOL    HW2 6079   1.130   1.392   2.694  0.9492  0.3323  1.0304
 1502SOL    HW3 6080   1.037   1.273   2.688 -0.5141  1.5541 -0.9384
 1502SOL    MW4 6081   1.111   1.310   2.716 -0.0807  0.2155 -0.2763
 1503SOL     OW 6082   1.147   1.567   2.617  0.1133 -0.5076  0.2927
 1503SOL    HW2 6083   1.068   1.618   2.637  0.3935 -0.6236  1.7121
 1503SOL    HW3 6084   1.146   1.559   2.521 -0.8520  0.6872  0.1851
 1503SOL    MW4 6085   1.136   1.573   2.607  0.0230 -0.3654  0.4654
 1504SOL     OW 6086   0.922   1.668   2.753  0.2619  0.3904  0.1675
 1504SOL    HW2 6087   0.923   1.659   2.848 -0.6546 -1.0508  0.0660
 1504SOL    HW3 6088   0.845   1.617   2.725 -0.3033  1.9749 -1.2295
 1504SOL    MW4 6089   0.912   1.660   2.761  0.0664  0.4092 -0.0303
 1505SOL     OW 6090   0.878   1.929   2.661  0.3876  0.0859  0.0916
 1505SOL    HW2 6091   0.949   1.989   2.681  2.2122 -1.5257 -1.3178
 1505SOL    HW3 6092   0.905   1.846   2.700 -0.9700 -0.4235 -0.0260
 1505SOL    MW4 6093   0.890   1.926   2.669  0.4492 -0.1940 -0.1099
 1506SOL     OW 6094   1.133   2.048   2.726 -0.2610  0.4773  0.1618
 1506SOL    HW2 6095   1.211   2.007   2.689  0.3295  1.1551  0.6322
 1506SOL    HW3 6096   1.129   2.134   2.684 -0.8237  0.3989  0.0486
 1506SOL    MW4 6097   1.142   2.054   2.716 -0.2573  0.5565  0.2091
 1507SOL     OW 6098   1.096   2.279   2.578 -0.0481 -0.0339 -0.2082
 1507SOL    HW2 6099   1.170   2.331   2.609 -0.3133  0.8368 -1.0176
 1507SOL    HW3 6100   1.104   2.280   2.483  0.4437 -2.2238 -0.2352
 1507SOL    MW4 6101   1.107   2.286   2.570 -0.0184 -0.2081 -0.3188
 1508SOL     OW 6102   0.925   2.435   2.737 -0.1266  0.0507  0.1785
 1508SOL    HW2 6103   0.907   2.514   2.687 -0.5040 -0.5094 -0.5678
 1508SOL    HW3 6104   0.984   2.384   2.682  0.9279  0.2586  1.0849
 1508SOL    MW4 6105   0.931   2.439   2.723 -0.0373  0.0043  0.1998
 1509SOL     OW 6106   0.866   2.688   2.610  0.1535 -0.0826  0.0156
 1509SOL    HW2 6107   0.945   2.730   2.644  0.3079  0.0672 -0.5272
 1509SOL    HW3 6108   0.794   2.733   2.654  0.2667  1.5100 -1.3772
 1509SOL    MW4 6109   0.867   2.699   2.621  0.1889  0.1473 -0.2398
 1510SOL     OW 6110   1.083   2.832   2.685  0.0000  0.0000 -0.0840
 1510SOL    HW2 6111   1.106   2.825   2.777  0.0000  0.0000 -0.0833
 1510SOL    HW3 6112   1.158   2.795   2.638  0.0000  0.0000 -0.0815
 1510SOL    MW4 6113   1.096   2.826   2.691  0.0000  0.0000 -0.0839
 1511SOL     OW 6114   1.148   3.096   2.625  0.0000  0.0000  0.1407
 1511SOL    HW2 6115   1.122   3.007   2.649  0.0000  0.0000  0.1460
 1511SOL    HW3 6116   1.136   3.101   2.531  0.0000  0.0000  0.1407
 1511SOL    MW4 6117   1.143   3.085   2.616  0.0000  0.0000  0.1414
 1512SOL     OW 6118   0.919   3.208   2.716  0.0000  0.0000  0.3383
 1512SOL    HW2 6119   0.902   3.287   2.664  0.0000  0.0000  0.3038
 1512SOL    HW3 6120   1.006   3.179   2.687  0.0000  0.0000  0.3818
 1512SOL    MW4 6121   0.928   3.215   2.705  0.0000  0.0000  0.3393
 1513SOL     OW 6122   0.887   3.462   2.604  0.0000  0.0000 -0.3692
 1513SOL    HW2 6123   0.961   3.506   2.646  0.0000  0.0000 -0.3835
 1513SOL    HW3 6124   0.810   3.511   2.635  0.0000  0.0000 -0.3581
 1513SOL    MW4 6125   0.887   3.474   2.613  0.0000  0.0000 -0.3695
 1514SOL     OW 6126   1.102   3.599   2.739  0.0000  0.0000  0.0379
 1514SOL    HW2 6127   1.101   3.626   2.831  0.0000  0.0000  0.0396
 1514SOL    HW3 6128   1.100   3.681   2.690  0.0000  0.0000  0.0432
 1514SOL    MW4 6129   1.102   3.613   2.745  0.0000  0.0000  0.0389
 1515SOL     OW 6130   1.098   3.851   2.597  0.0000  0.0000 -0.2336
 1515SOL    HW2 6131   1.178   3.889   2.634  0.0000  0.0000 -0.2308
 1515SOL    HW3 6132   1.110   3.859   2.502  0.0000  0.0000 -0.2332
 1515SOL    MW4 6133   1.110   3.857   2.589  0.0000  0.0000 -0.2334
 1516SOL     OW 6134   0.893   4.008   2.733  0.0000  0.0000  0.2148
 1516SOL    HW2 6135   0.957   3.964   2.678  0.0000  0.0000  0.2107
 1516SOL    HW3 6136   0.809   3.970   2.708  0.0000  0.0000  0.2275
 1516SOL    MW4 6137   0.890   3.997   2.723  0.0000  0.0000  0.2160
 1517SOL     OW 6138   0.888   4.266   2.636  0.0000  0.0000  0.0542
 1517SOL    HW2 6139   0.892   4.174   2.661  0.0000  0.0000  0.0526
 1517SOL    HW3 6140   0.884   4.265   2.540  0.0000  0.0000  0.0541
 1517SOL    MW4 6141   0.888   4.254   2.627  0.0000  0.0000  0.0539
 1518SOL     OW 6142   1.144   4.351   2.764  0.0000  0.0000  0.0874
 1518SOL    HW2 6143   1.137   4.378   2.856  0.0000  0.0000  0.0878
 1518SOL    HW3 6144   1.055   4.327   2.739  0.0000  0.0000  0.0905
 1518SOL    MW4 6145   1.131   4.351   2.773  0.0000  0.0000  0.0877
 1519SOL     OW 6146   1.573   4.645   2.637 -0.8405  0.0240 -0.2122
 1519SOL    HW2 6147   1.589   4.563   2.683  0.2492  0.1776 -0.2825
 1519SOL    HW3 6148   1.563   4.620   2.545 -0.7198 -0.0570 -0.2038
 1519SOL    MW4 6149   1.574   4.631   2.631 -0.6808  0.0339 -0.2203
 1520SOL     OW 6150   1.366   0.131   2.750  0.2089 -0.0604 -0.3822
 1520SOL    HW2 6151   1.364   0.222   2.722 -0.6530 -0.8562 -2.9846
 1520SOL    HW3 6152   1.439   0.092   2.703  0.0880 -0.9125  0.1098
 1520SOL    MW4 6153   1.375   0.138   2.740  0.0792 -0.2778 -0.6609
 1521SOL     OW 6154   1.360   0.376   2.633  0.1165  0.0367  0.1752
 1521SOL    HW2 6155   1.429   0.431   2.671  0.6470  1.2496 -2.4041
 1521SOL    HW3 6156   1.278   0.419   2.658  0.4933  1.3563 -0.7992
 1521SOL    MW4 6157   1.358   0.389   2.641  0.2363  0.3709 -0.2935
 1522SOL     OW 6158   1.597   0.511   2.726 -0.4253 -0.5356 -0.7630
 1522SOL    HW2 6159   1.673   0.464   2.693  0.0172 -0.3417 -0.0259
 1522SOL    HW3 6160   1.603   0.598   2.685  0.1894 -0.2545 -0.0820
 1522SOL    MW4 6161   1.608   0.516   2.716 -0.2859 -0.4730 -0.5758
 1523SOL     OW 6162   1.587   0.751   2.610 -0.5434 -0.0241  0.5138
 1523SOL    HW2 6163   1.517   0.804   2.648 -0.9343  0.7581 -1.2380
 1523SOL    HW3 6164   1.574   0.759   2.515  0.8699 -1.2862  0.1968
 1523SOL    MW4 6165   1.576   0.759   2.603 -0.4085 -0.0874  0.2406
 1524SOL     OW 6166   1.372   0.878   2.730 -0.5861  0.3984 -0.1319
 1524SOL    HW2 6167   1.367   0.879   2.825  0.1061  0.7513 -0.1018
 1524SOL    HW3 6168   1.353   0.968   2.703  0.9157  0.6921 -0.2426
 1524SOL    MW4 6169   1.369   0.890   2.739 -0.2966  0.4837 -0.1423
 1525SOL     OW 6170   1.342   1.146   2.666 -0.2296  0.1907 -0.4905
 1525SOL    HW2 6171   1.417   1.200   2.693 -0.1158  0.1209 -0.6605
 1525SOL    HW3 6172   1.266   1.190   2.703  0.0430 -0.7002  1.1859
 1525SOL    MW4 6173   1.342   1.159   2.674 -0.1786  0.0639 -0.2916
 1526SOL     OW 6174   1.584   1.277   2.733  0.2260  0.1517 -0.4641
 1526SOL    HW2 6175   1.582   1.297   2.826 -0.9604 -1.6507 -0.0638
 1526SOL    HW3 6176   1.655   1.213   2.723 -0.7864 -0.9935 -0.4807
 1526SOL    MW4 6177   1.593   1.271   2.744 -0.0640 -0.2372 -0.4134
 1527SOL     OW 6178   1.633   1.549   2.672 -0.1052 -0.2860 -0.1784
 1527SOL    HW2 6179   1.610   1.456   2.681 -1.1986 -0.0171 -0.1415
 1527SOL    HW3 6180   1.646   1.561   2.578 -0.0632 -0.4609 -0.1953
 1527SOL    MW4 6181   1.631   1.538   2.660 -0.2438 -0.2737 -0.1760
 1528SOL     OW 6182   1.402   1.684   2.720 -0.1283  0.7707 -0.3182
 1528SOL    HW2 6183   1.482   1.633   2.732 -1.4854 -0.8987  2.0558
 1528SOL    HW3 6184   1.338   1.621   2.687 -1.4651  1.1980  1.3800
 1528SOL    MW4 6185   1.404   1.669   2.717 -0.4836  0.6068  0.2191
 1529SOL     OW 6186   1.351   1.928   2.607 -0.3531 -0.0325 -0.8898
 1529SOL    HW2 6187   1.370   1.842   2.644  0.0531  0.1114 -0.7561
 1529SOL    HW3 6188   1.351   1.913   2.512  1.9266  0.2414 -0.9622
 1529SOL    MW4 6189   1.354   1.915   2.599  0.0014  0.0226 -0.8817
 1530SOL     OW 6190   1.559   2.055   2.739 -0.0952  0.3018 -0.1635
 1530SOL    HW2 6191   1.636   2.016   2.699  0.7556 -1.0188  2.6368
 1530SOL    HW3 6192   1.485   2.014   2.693  0.8326  0.2060 -1.5994
 1530SOL    MW4 6193   1.559   2.045   2.728  0.1395  0.1149  0.0167
 1531SOL     OW 6194   1.580   2.311   2.632  0.3807  0.3153 -0.1678
 1531SOL    HW2 6195   1.627   2.376   2.684 -0.3113 -0.3433  1.3314
 1531SOL    HW3 6196   1.595   2.229   2.678 -0.6500 -0.1986 -0.7435
 1531SOL    MW4 6197   1.588   2.309   2.645  0.1535  0.1607 -0.0458
 1532SOL     OW 6198   1.308   2.450   2.667  0.2458  0.2770 -0.6065
 1532SOL    HW2 6199   1.309   2.543   2.644  0.6391  0.1396 -1.1560
 1532SOL    HW3 6200   1.389   2.415   2.629  0.1809 -0.2557 -0.2592
 1532SOL    MW4 6201   1.319   2.458   2.659  0.2892  0.1886 -0.6332
 1533SOL     OW 6202   1.335   2.727   2.607  0.4260 -0.3273 -0.2705
 1533SOL    HW2 6203   1.416   2.750   2.652  0.5073 -1.7711  0.3590
 1533SOL    HW3 6204   1.357   2.730   2.514  0.5548  1.5889 -0.1938
 1533SOL    MW4 6205   1.349   2.730   2.601  0.4537 -0.2646 -0.1776
 1534SOL     OW 6206   1.571   2.826   2.713 -0.2113 -0.3840 -0.0875
 1534SOL    HW2 6207   1.568   2.830   2.809  0.4746 -0.4503 -0.0559
 1534SOL    HW3 6208   1.664   2.817   2.693 -0.2980  0.2084 -0.7820
 1534SOL    MW4 6209   1.583   2.825   2.723 -0.1322 -0.3142 -0.1752
 1535SOL     OW 6210   1.595   3.093   2.614 -0.0125  0.0855 -0.2652
 1535SOL    HW2 6211   1.673   3.139   2.646 -0.1833  0.7317 -0.7692
 1535SOL    HW3 6212   1.600   3.006   2.655  0.5547  0.3924  0.3330
 1535SOL    MW4 6213   1.606   3.088   2.624  0.0399  0.2112 -0.2527
 1536SOL     OW 6214   1.368   3.238   2.689  0.1597 -0.3321  0.0095
 1536SOL    HW2 6215   1.450   3.197   2.663  0.7564  0.2769  0.9016
 1536SOL    HW3 6216   1.300   3.184   2.648  0.9230 -2.3554  1.3321
 1536SOL    MW4 6217   1.370   3.226   2.680  0.3390 -0.5188  0.3016
 1537SOL     OW 6218   1.321   3.490   2.611 -0.0598  0.0214 -0.0697
 1537SOL    HW2 6219   1.333   3.409   2.659  0.6892  0.8697  1.2010
 1537SOL    HW3 6220   1.247   3.533   2.653 -1.3633 -0.6499 -1.6436
 1537SOL    MW4 6221   1.313   3.485   2.623 -0.1328  0.0448 -0.1097
 1538SOL     OW 6222   1.554   3.622   2.748  0.6390  0.7719 -0.1751
 1538SOL    HW2 6223   1.635   3.581   2.717 -0.2142 -0.9923 -0.1349
 1538SOL    HW3 6224   1.485   3.584   2.692 -0.3405  1.1127  0.7747
 1538SOL    MW4 6225   1.555   3.612   2.736  0.3972  0.5841 -0.0446
 1539SOL     OW 6226   1.579   3.863   2.631  0.1981  0.0732 -0.0987
 1539SOL    HW2 6227   1.492   3.897   2.649  0.1719  0.1725 -0.4024
 1539SOL    HW3 6228   1.578   3.774   2.668  0.7981  0.9517  2.0881
 1539SOL    MW4 6229   1.568   3.855   2.638  0.2738  0.2022  0.1497
 1540SOL     OW 6230   1.342   3.976   2.716 -0.0027 -0.3195  0.1434
 1540SOL    HW2 6231   1.344   3.980   2.812  2.9163  1.1336  0.0615
 1540SOL    HW3 6232   1.332   4.068   2.689  4.1332 -0.1026 -0.9719
 1540SOL    MW4 6233   1.341   3.989   2.725  0.9283 -0.0992 -0.0143
 1541SOL     OW 6234   1.358   4.237   2.648  0.2455  0.7170 -0.3033
 1541SOL    HW2 6235   1.288   4.279   2.698 -0.6231 -1.1104  0.0641
 1541SOL    HW3 6236   1.328   4.240   2.557 -0.0148  0.4895 -0.2237
 1541SOL    MW4 6237   1.345   4.243   2.643  0.0966  0.4458 -0.2446
 1542SOL     OW 6238   1.586   4.377   2.718 -0.1353 -0.1420 -0.6120
 1542SOL    HW2 6239   1.563   4.383   2.811 -0.1146 -0.0514 -0.6130
 1542SOL    HW3 6240   1.509   4.338   2.677 -1.7809  3.5694 -1.2161
 1542SOL    MW4 6241   1.573   4.372   2.725 -0.3496  0.3595 -0.6921
 1543SOL     OW 6242   2.021   4.630   2.659 -0.2333  0.0779 -0.0612
 1543SOL    HW2 6243   2.094   4.684   2.689 -1.2540  0.9843  0.8259
 1543SOL    HW3 6244   2.015   4.649   2.565 -0.0522  0.8807  0.0816
 1543SOL    MW4 6245   2.030   4.640   2.650 -0.3440  0.3037  0.0749
 1544SOL     OW 6246   1.790   0.109   2.726 -0.1019  0.2086 -0.3799
 1544SOL    HW2 6247   1.871   0.080   2.683 -0.0635 -2.7170  1.5018
 1544SOL    HW3 6248   1.721   0.061   2.680 -0.5129  0.6282 -0.2007
 1544SOL    MW4 6249   1.792   0.099   2.714 -0.1510 -0.1220 -0.1080
 1545SOL     OW 6250   1.808   0.368   2.607 -0.2035  0.1254  0.0069
 1545SOL    HW2 6251   1.891   0.402   2.641  0.3787 -0.9907 -0.2993
 1545SOL    HW3 6252   1.800   0.281   2.646 -1.5665  0.4887  0.5822
 1545SOL    MW4 6253   1.818   0.361   2.617 -0.3065  0.0260  0.0427
 1546SOL     OW 6254   2.018   0.484   2.735  0.1913  0.0749 -0.3104
 1546SOL    HW2 6255   2.105   0.457   2.704  0.2753  0.9200 -0.8369
 1546SOL    HW3 6256   2.016   0.579   2.721 -0.8343  0.0557 -0.3482
 1546SOL    MW4 6257   2.029   0.493   2.729  0.0670  0.1838 -0.3848
 1547SOL     OW 6258   2.037   0.743   2.655  0.2052 -0.0634 -0.2737
 1547SOL    HW2 6259   1.956   0.790   2.674 -1.0988 -2.3543 -0.0170
 1547SOL    HW3 6260   2.034   0.727   2.560  0.7906  0.5931 -0.4111
 1547SOL    MW4 6261   2.026   0.747   2.645  0.1104 -0.2790 -0.2577
 1548SOL     OW 6262   1.818   0.877   2.768  0.3150 -0.3888  0.2807
 1548SOL    HW2 6263   1.842   0.964   2.737  0.6891  0.4662  2.8012
 1548SOL    HW3 6264   1.735   0.858   2.725  0.8356  0.6811 -1.2316
 1548SOL    MW4 6265   1.810   0.886   2.759  0.4331 -0.1349  0.4139
 1549SOL     OW 6266   1.831   1.140   2.675  0.1396  0.3245 -0.3250
 1549SOL    HW2 6267   1.895   1.205   2.704  2.2556 -0.7436 -2.4463
 1549SOL    HW3 6268   1.833   1.145   2.580 -2.0956 -0.5894 -0.4580
 1549SOL    MW4 6269   1.840   1.149   2.667  0.1240  0.0629 -0.6225
 1550SOL     OW 6270   2.065   1.297   2.729 -0.2913 -0.2540 -0.5989
 1550SOL    HW2 6271   2.072   1.305   2.824 -1.5020 -0.6329 -0.4795
 1550SOL    HW3 6272   2.143   1.247   2.704 -0.1109 -0.3858  0.2172
 1550SOL    MW4 6273   2.076   1.292   2.738 -0.4272 -0.3211 -0.4756
 1551SOL     OW 6274   2.040   1.560   2.596  0.0718 -0.5494 -0.3708
 1551SOL    HW2 6275   1.981   1.605   2.657  0.8420  0.4545 -0.3602
 1551SOL    HW3 6276   2.032   1.467   2.618 -0.4930 -0.2922  0.5140
 1551SOL    MW4 6277   2.031   1.554   2.607  0.0989 -0.3830 -0.2525
 1552SOL     OW 6278   1.854   1.698   2.734  0.1049 -0.2243 -0.2106
 1552SOL    HW2 6279   1.859   1.708   2.829 -1.8510  0.6139 -0.1728
 1552SOL    HW3 6280   1.770   1.657   2.718  0.0462  0.4137 -1.6395
 1552SOL    MW4 6281   1.844   1.694   2.744 -0.1609 -0.0297 -0.3943
 1553SOL     OW 6282   1.786   1.948   2.627 -0.0602  0.2942 -0.3980
 1553SOL    HW2 6283   1.862   1.997   2.660 -0.5663  1.0940 -0.4180
 1553SOL    HW3 6284   1.800   1.859   2.660  1.3127  0.2348 -1.0856
 1553SOL    MW4 6285   1.798   1.943   2.636  0.0542  0.3920 -0.4914
 1554SOL     OW 6286   2.004   2.083   2.710  0.1287 -0.1641  0.2556
 1554SOL    HW2 6287   1.996   2.090   2.805  0.9350 -1.0039  0.3891
 1554SOL    HW3 6288   1.998   2.174   2.679  0.0757  0.1333  1.1281
 1554SOL    MW4 6289   2.002   2.096   2.718  0.2282 -0.2356  0.3884
 1555SOL     OW 6290   1.991   2.354   2.630  0.1354  0.0979  0.6711
 1555SOL    HW2 6291   2.068   2.400   2.664 -0.2521 -0.1437  1.8955
 1555SOL    HW3 6292   2.003   2.355   2.535  1.8225 -0.2290  0.8615
 1555SOL    MW4 6293   2.003   2.360   2.622  0.3071  0.0226  0.8576
 1556SOL     OW 6294   1.775   2.490   2.733  0.4043 -0.4782  0.3513
 1556SOL    HW2 6295   1.772   2.484   2.828  0.1582  0.4821  0.4024
 1556SOL    HW3 6296   1.852   2.438   2.708  2.2042  1.7057  1.2626
 1556SOL    MW4 6297   1.785   2.482   2.742  0.6093 -0.0634  0.4783
 1557SOL     OW 6298   1.813   2.737   2.575 -0.4183  0.6641 -0.0304
 1557SOL    HW2 6299   1.796   2.654   2.621  1.6593  0.5690  0.6281
 1557SOL    HW3 6300   1.788   2.720   2.485 -1.6983 -0.1194  0.4603
 1557SOL    MW4 6301   1.808   2.723   2.569 -0.3130  0.5481  0.1209
 1558SOL     OW 6302   2.026   2.860   2.734 -0.0668  0.4531 -0.0590
 1558SOL    HW2 6303   2.091   2.804   2.691 -0.4229 -0.4086  0.5020
 1558SOL    HW3 6304   1.944   2.841   2.689 -0.2194  0.3907  0.2407
 1558SOL    MW4 6305   2.024   2.850   2.722 -0.1338  0.3312  0.0544
 1559SOL     OW 6306   2.073   3.114   2.634  0.2467  0.0491  0.2380
 1559SOL    HW2 6307   2.068   3.028   2.675  0.7809 -0.2226 -0.2638
 1559SOL    HW3 6308   2.066   3.097   2.541  0.0496  0.5770  0.1546
 1559SOL    MW4 6309   2.071   3.100   2.627  0.2909  0.0827  0.1607
 1560SOL     OW 6310   1.830   3.218   2.684  0.3601 -0.0382  0.0309
 1560SOL    HW2 6311   1.824   3.311   2.660  0.5099 -0.4705 -1.7449
 1560SOL    HW3 6312   1.923   3.196   2.673  0.1694 -0.6238 -0.4271
 1560SOL    MW4 6313   1.842   3.227   2.679  0.3548 -0.1726 -0.2637
 1561SOL     OW 6314   1.788   3.519   2.652 -0.3750 -0.5548 -0.4426
 1561SOL    HW2 6315   1.866   3.568   2.677 -1.3179  1.0524 -0.5623
 1561SOL    HW3 6316   1.793   3.514   2.557 -1.1659  0.9103 -0.5902
 1561SOL    MW4 6317   1.799   3.525   2.643 -0.6038 -0.1493 -0.4780
 1562SOL     OW 6318   2.022   3.627   2.727 -0.1600  0.3155  0.1507
 1562SOL    HW2 6319   2.034   3.626   2.822 -1.1477 -0.9473  0.2671
 1562SOL    HW3 6320   2.090   3.570   2.693 -1.6227 -1.5777  0.3305
 1562SOL    MW4 6321   2.032   3.619   2.735 -0.4835 -0.1006  0.1898
 1563SOL     OW 6322   2.019   3.870   2.601 -0.3863 -0.3368 -0.1801
 1563SOL    HW2 6323   1.931   3.902   2.623 -0.8863 -0.2860 -2.1692
 1563SOL    HW3 6324   2.028   3.789   2.651 -1.3904 -0.1215  0.3720
 1563SOL    MW4 6325   2.009   3.864   2.610 -0.5848 -0.3014 -0.3700
 1564SOL     OW 6326   1.796   4.001   2.747  0.0432 -0.2935  0.0349
 1564SOL    HW2 6327   1.799   4.092   2.718 -1.4019 -0.1820  0.2174
 1564SOL    HW3 6328   1.712   3.968   2.716  0.3478 -1.4316  0.3817
 1564SOL    MW4 6329   1.786   4.009   2.739 -0.1073 -0.4292  0.1047
 1565SOL     OW 6330   1.810   4.247   2.630  0.0881 -0.1964 -0.1269
 1565SOL    HW2 6331   1.729   4.285   2.662 -0.1430 -1.3263  0.6440
 1565SOL    HW3 6332   1.797   4.238   2.536 -0.7813 -0.6276  0.0352
 1565SOL    MW4 6333   1.798   4.251   2.622 -0.0571 -0.4025 -0.0038
 1566SOL     OW 6334   2.024   4.381   2.761 -0.0871  0.1599  0.0294
 1566SOL    HW2 6335   1.948   4.332   2.730  1.7001 -1.6726 -1.6857
 1566SOL    HW3 6336   2.017   4.467   2.719 -1.4995  0.1949  0.3336
 1566SOL    MW4 6337   2.013   4.386   2.751 -0.0379 -0.0768 -0.1564
 1567SOL     OW 6338   2.466   4.613   2.678 -0.3443  0.2960  0.2499
 1567SOL    HW2 6339   2.536   4.669   2.711  1.6514 -1.7297 -0.3885
 1567SOL    HW3 6340   2.481   4.610   2.583 -0.1147 -1.6745  0.3279
 1567SOL    MW4 6341   2.477   4.620   2.670 -0.0505 -0.2313  0.1760
 1568SOL     OW 6342   2.245   0.116   2.732 -0.5511  0.0408 -0.2529
 1568SOL    HW2 6343   2.250   0.101   2.827  0.0161  0.2764 -0.2459
 1568SOL    HW3 6344   2.321   0.070   2.697 -0.4079  0.4923 -0.5293
 1568SOL    MW4 6345   2.256   0.108   2.740 -0.4570  0.1315 -0.2882
 1569SOL     OW 6346   2.247   0.379   2.616 -0.4230 -0.3029  0.0225
 1569SOL    HW2 6347   2.235   0.297   2.665 -0.6021 -0.9309 -1.0496
 1569SOL    HW3 6348   2.234   0.354   2.525  1.3387  0.5683 -0.4771
 1569SOL    MW4 6349   2.243   0.365   2.611 -0.2143 -0.2708 -0.1850
 1570SOL     OW 6350   2.465   0.500   2.749 -0.1305  0.0748  0.2203
 1570SOL    HW2 6351   2.464   0.592   2.723  2.1146 -0.1062 -0.6647
 1570SOL    HW3 6352   2.390   0.461   2.704 -1.9189  1.7262  1.7111
 1570SOL    MW4 6353   2.455   0.507   2.739 -0.0701  0.2688  0.3002
 1571SOL     OW 6354   2.469   0.761   2.672 -0.7295  0.2076  0.0204
 1571SOL    HW2 6355   2.387   0.801   2.702 -0.7857  0.2142 -0.1400
 1571SOL    HW3 6356   2.467   0.772   2.577 -0.3452  0.5748  0.0559
 1571SOL    MW4 6357   2.458   0.768   2.664 -0.6859  0.2570  0.0038
 1572SOL     OW 6358   2.243   0.895   2.753 -0.0530  0.4386  0.0778
 1572SOL    HW2 6359   2.248   0.874   2.846  0.4038  2.1121  0.4429
 1572SOL    HW3 6360   2.174   0.838   2.719 -1.1213  0.7460  1.6963
 1572SOL    MW4 6361   2.234   0.885   2.761 -0.1335  0.7000  0.3393
 1573SOL     OW 6362   2.274   1.146   2.631 -0.1086  0.0148 -0.2190
 1573SOL    HW2 6363   2.268   1.058   2.668 -1.7523  0.1489 -0.1433
 1573SOL    HW3 6364   2.248   1.135   2.539 -2.7136  0.7997  0.3910
 1573SOL    MW4 6365   2.270   1.133   2.624 -0.6688  0.1360 -0.1283
 1574SOL     OW 6366   2.483   1.296   2.719  0.2639 -0.0134  0.4451
 1574SOL    HW2 6367   2.559   1.241   2.700 -0.4301 -0.5344 -0.9084
 1574SOL    HW3 6368   2.408   1.240   2.699 -0.4751  0.6709  1.2756
 1574SOL    MW4 6369   2.483   1.281   2.714  0.0749  0.0083  0.3757
 1575SOL     OW 6370   2.485   1.556   2.631 -0.5428 -0.2057 -0.0420
 1575SOL    HW2 6371   2.408   1.604   2.659  0.2753  1.1703 -0.0953
 1575SOL    HW3 6372   2.473   1.468   2.666 -2.1058  0.0075 -0.0198
 1575SOL    MW4 6373   2.473   1.550   2.639 -0.6409  0.0039 -0.0460
 1576SOL     OW 6374   2.253   1.672   2.736 -0.2570  0.9180  0.1235
 1576SOL    HW2 6375   2.246   1.765   2.716  0.0284  0.8052 -0.5426
 1576SOL    HW3 6376   2.176   1.633   2.695  0.0021  0.7686 -0.2289
 1576SOL    MW4 6377   2.242   1.679   2.728 -0.1850  0.8833 -0.0110
 1577SOL     OW 6378   2.259   1.970   2.655 -0.0462 -0.3525  0.3972
 1577SOL    HW2 6379   2.182   2.018   2.687 -0.0309  0.3219 -0.5355
 1577SOL    HW3 6380   2.245   1.963   2.561  1.7217  1.0617 -0.0041
 1577SOL    MW4 6381   2.247   1.976   2.647  0.1893 -0.0769  0.2210
 1578SOL     OW 6382   2.460   2.101   2.779 -0.3026 -0.0770  0.8090
 1578SOL    HW2 6383   2.463   2.185   2.732  1.5370 -0.5451  0.0533
 1578SOL    HW3 6384   2.388   2.053   2.738 -1.9665  1.4418  1.8408
 1578SOL    MW4 6385   2.451   2.106   2.768 -0.2792  0.0615  0.8454
 1579SOL     OW 6386   2.445   2.343   2.655  0.5274 -0.3492  0.0246
 1579SOL    HW2 6387   2.531   2.381   2.672  0.7890 -0.7395 -0.4561
 1579SOL    HW3 6388   2.439   2.336   2.560  0.6356 -1.8768  0.1156
 1579SOL    MW4 6389   2.455   2.347   2.645  0.5763 -0.6022 -0.0269
 1580SOL     OW 6390   2.212   2.464   2.751 -0.2975 -0.1790 -0.4278
 1580SOL    HW2 6391   2.215   2.470   2.847 -3.1867 -1.3461 -0.1986
 1580SOL    HW3 6392   2.285   2.408   2.728  1.3622  1.3549  0.9474
 1580SOL    MW4 6393   2.222   2.457   2.761 -0.4599 -0.1307 -0.2160
 1581SOL     OW 6394   2.253   2.718   2.623  0.3125 -0.0198 -0.3181
 1581SOL    HW2 6395   2.325   2.760   2.670 -1.5146  0.5849  2.0460
 1581SOL    HW3 6396   2.242   2.633   2.667 -0.0567 -0.3453 -1.0205
 1581SOL    MW4 6397   2.261   2.712   2.635  0.0226  0.0172 -0.0985
 1582SOL     OW 6398   2.512   2.853   2.742 -0.2844  0.4846 -0.0198
 1582SOL    HW2 6399   2.575   2.802   2.690 -0.2134  0.4203  0.1300
 1582SOL    HW3 6400   2.506   2.937   2.697  1.1661  1.0986  0.9097
 1582SOL    MW4 6401   2.519   2.857   2.729 -0.0837  0.5569  0.1228
 1583SOL     OW 6402   2.495   3.112   2.597  0.2323  0.3417  0.4257
 1583SOL    HW2 6403   2.436   3.176   2.638  0.3363  0.6162  0.1514
 1583SOL    HW3 6404   2.475   3.117   2.504  0.8958  0.6528  0.2972
 1583SOL    MW4 6405   2.485   3.121   2.590  0.3338  0.4189  0.3726
 1584SOL     OW 6406   2.293   3.269   2.704 -0.1080  0.7507 -0.1537
 1584SOL    HW2 6407   2.291   3.270   2.799 -0.0506  1.7745 -0.1596
 1584SOL    HW3 6408   2.215   3.220   2.678  0.2151 -0.0836  0.4249
 1584SOL    MW4 6409   2.283   3.263   2.713 -0.0577  0.7756 -0.0782
 1585SOL     OW 6410   2.249   3.514   2.607 -0.4101 -0.3410 -0.6093
 1585SOL    HW2 6411   2.317   3.575   2.633 -0.9885  0.8777 -1.8986
 1585SOL    HW3 6412   2.272   3.432   2.652  0.3509  0.8015  1.1700
 1585SOL    MW4 6413   2.261   3.511   2.617 -0.3860 -0.0296 -0.5445
 1586SOL     OW 6414   2.474   3.666   2.697 -0.1779  0.2970  0.4523
 1586SOL    HW2 6415   2.493   3.667   2.791  0.2194 -0.0547  0.3770
 1586SOL    HW3 6416   2.476   3.758   2.671  0.3438  0.3486  0.6670
 1586SOL    MW4 6417   2.477   3.678   2.706 -0.0567  0.2573  0.4709
 1587SOL     OW 6418   2.463   3.928   2.617  0.2415  0.1307 -0.2702
 1587SOL    HW2 6419   2.544   3.960   2.656 -0.2298  1.3068 -0.2342
 1587SOL    HW3 6420   2.396   3.945   2.683  0.3048 -2.9219  0.6246
 1587SOL    MW4 6421   2.465   3.935   2.631  0.1876 -0.1168 -0.1476
 1588SOL     OW 6422   2.225   4.007   2.750 -0.1134 -0.2841 -0.2237
 1588SOL    HW2 6423   2.206   4.013   2.844 -0.2649 -0.1641 -0.2632
 1588SOL    HW3 6424   2.150   3.961   2.714 -0.2235 -0.0085 -0.3444
 1588SOL    MW4 6425   2.213   4.001   2.758 -0.1481 -0.2322 -0.2449
 1589SOL     OW 6426   2.253   4.274   2.656  0.4462  0.0019 -0.1021
 1589SOL    HW2 6427   2.238   4.184   2.687 -1.2283  0.0032 -0.8199
 1589SOL    HW3 6428   2.170   4.319   2.673  1.1956  1.3685  0.0440
 1589SOL    MW4 6429   2.240   4.268   2.663  0.3240  0.1826 -0.1776
 1590SOL     OW 6430   2.485   4.354   2.768 -0.0466 -0.4755  0.1054
 1590SOL    HW2 6431   2.412   4.302   2.735 -0.6871  0.5689 -0.1285
 1590SOL    HW3 6432   2.471   4.441   2.733  1.3848 -0.2882 -0.0339
 1590SOL    MW4 6433   2.473   4.358   2.759  0.0579 -0.3133  0.0563
 1591SOL     OW 6434   2.894   0.047   2.653  0.6544  0.1820 -0.3028
 1591SOL    HW2 6435   2.982   0.073   2.680  0.3662  0.2035  0.6253
 1591SOL    HW3 6436   2.903   0.026   2.560  1.4406  1.1102 -0.4493
 1591SOL    MW4 6437   2.907   0.048   2.644  0.7200  0.3076 -0.1998
 1592SOL     OW 6438   2.657   0.130   2.784 -0.0911 -0.4154  0.0632
 1592SOL    HW2 6439   2.671   0.138   2.878 -0.7270 -0.6952  0.1823
 1592SOL    HW3 6440   2.739   0.093   2.751 -0.6358 -2.3651  0.8077
 1592SOL    MW4 6441   2.670   0.126   2.792 -0.2468 -0.7096  0.1771
 1593SOL     OW 6442   2.686   0.358   2.629 -0.3398  0.2335 -0.0769
 1593SOL    HW2 6443   2.654   0.278   2.671 -1.7698 -0.0747 -1.7066
 1593SOL    HW3 6444   2.624   0.426   2.655 -1.1566  0.0687 -1.5299
 1593SOL    MW4 6445   2.674   0.356   2.638 -0.6361  0.1711 -0.4838
 1594SOL     OW 6446   2.924   0.490   2.765  0.0878 -0.4085 -0.2918
 1594SOL    HW2 6447   2.927   0.578   2.728 -0.6551 -0.5686 -0.7389
 1594SOL    HW3 6448   2.846   0.450   2.727 -0.0959 -0.9454  0.6197
 1594SOL    MW4 6449   2.914   0.496   2.755 -0.0343 -0.5004 -0.2306
 1595SOL     OW 6450   2.912   0.742   2.634  0.3157  0.2810 -0.1231
 1595SOL    HW2 6451   3.000   0.773   2.652  0.0497  1.9378 -1.6313
 1595SOL    HW3 6452   2.854   0.806   2.676 -0.2099 -0.4140  0.2474
 1595SOL    MW4 6453   2.916   0.754   2.642  0.2112  0.4079 -0.2735
 1596SOL     OW 6454   2.711   0.881   2.761 -0.6284  0.1041  0.0845
 1596SOL    HW2 6455   2.715   0.886   2.856 -0.9509 -0.6288  0.1412
 1596SOL    HW3 6456   2.624   0.845   2.742 -1.7856  3.1499 -0.6183
 1596SOL    MW4 6457   2.700   0.877   2.771 -0.8233  0.4092 -0.0007
 1597SOL     OW 6458   2.712   1.141   2.645  0.1664  0.1205 -0.0476
 1597SOL    HW2 6459   2.780   1.201   2.676 -0.3714  1.5356 -1.5341
 1597SOL    HW3 6460   2.731   1.059   2.690  1.5472  1.1052  1.2282
 1597SOL    MW4 6461   2.724   1.138   2.655  0.2778  0.4370 -0.0751
 1598SOL     OW 6462   2.900   1.325   2.685 -0.2131 -0.2226  0.8835
 1598SOL    HW2 6463   2.900   1.326   2.781 -0.6198  0.5422  0.8749
 1598SOL    HW3 6464   2.968   1.262   2.662  0.9918  0.7673  1.6621
 1598SOL    MW4 6465   2.909   1.317   2.695 -0.1080  0.0088  0.9851
 1599SOL     OW 6466   2.923   1.580   2.608  0.1136  0.0108 -0.5252
 1599SOL    HW2 6467   2.846   1.616   2.652 -0.2513 -0.3131 -0.8936
 1599SOL    HW3 6468   2.918   1.486   2.625 -0.4884 -0.2401 -1.9364
 1599SOL    MW4 6469   2.912   1.572   2.616 -0.0141 -0.0650 -0.7601
 1600SOL     OW 6470   2.701   1.719   2.738  0.1666  0.1706 -0.6950
 1600SOL    HW2 6471   2.700   1.702   2.832  2.5829  2.0073 -0.2823
 1600SOL    HW3 6472   2.648   1.649   2.700 -0.8080 -0.6186  2.0187
 1600SOL    MW4 6473   2.694   1.707   2.745  0.3569  0.3088 -0.2823
 1601SOL     OW 6474   2.669   1.983   2.646  0.4314  0.3090 -0.2930
 1601SOL    HW2 6475   2.667   1.895   2.684  0.0782  0.3662 -0.1832
 1601SOL    HW3 6476   2.598   2.030   2.688  1.4715  1.0734  0.6551
 1601SOL    MW4 6477   2.660   1.978   2.656  0.5224  0.4175 -0.1535
 1602SOL     OW 6478   2.927   2.078   2.705  0.5967  0.4397  0.0952
 1602SOL    HW2 6479   2.928   2.168   2.675  0.6944  0.6754  0.7960
 1602SOL    HW3 6480   2.845   2.041   2.671  1.5318  0.1833 -1.9489
 1602SOL    MW4 6481   2.916   2.085   2.696  0.7331  0.4370 -0.0820
 1603SOL     OW 6482   2.922   2.349   2.598 -0.0682 -0.0029 -0.1134
 1603SOL    HW2 6483   2.997   2.368   2.654  0.4329  0.8168 -1.0469
 1603SOL    HW3 6484   2.846   2.369   2.653  0.3956 -0.2635  0.6374
 1603SOL    MW4 6485   2.922   2.355   2.613  0.0591  0.0710 -0.1376
 1604SOL     OW 6486   2.704   2.449   2.729  0.2107  0.1981  0.1856
 1604SOL    HW2 6487   2.715   2.474   2.821 -1.5172  0.3202  0.3755
 1604SOL    HW3 6488   2.700   2.532   2.682 -0.1254  0.1652  0.1539
 1604SOL    MW4 6489   2.705   2.463   2.735 -0.0618  0.2096  0.2067
 1605SOL     OW 6490   2.712   2.695   2.631  0.0882 -0.2464  0.2163
 1605SOL    HW2 6491   2.777   2.758   2.664  0.6794 -0.4595 -0.5426
 1605SOL    HW3 6492   2.720   2.700   2.536 -0.4925 -0.8164  0.1366
 1605SOL    MW4 6493   2.722   2.704   2.623  0.0899 -0.3498  0.1056
 1606SOL     OW 6494   2.931   2.821   2.726  0.4322  0.9022 -0.5564
 1606SOL    HW2 6495   2.921   2.810   2.821 -0.4623  1.2378 -0.6001
 1606SOL    HW3 6496   2.950   2.915   2.715  0.9797  0.7767 -0.6764
 1606SOL    MW4 6497   2.932   2.832   2.737  0.3862  0.9298 -0.5779
 1607SOL     OW 6498   2.953   3.073   2.609 -0.0135  0.0365 -0.2508
 1607SOL    HW2 6499   2.890   3.136   2.644 -1.2928 -1.0430 -0.5508
 1607SOL    HW3 6500   2.940   3.076   2.514  0.6509  0.0668 -0.3449
 1607SOL    MW4 6501   2.943   3.082   2.601 -0.0947 -0.1020 -0.3028
 1608SOL     OW 6502   2.732   3.226   2.700  0.2321 -0.2167 -0.3243
 1608SOL    HW2 6503   2.722   3.321   2.700  0.8018 -0.1504 -0.2433
 1608SOL    HW3 6504   2.651   3.193   2.661  0.5467  0.3664 -1.5035
 1608SOL    MW4 6505   2.720   3.234   2.695  0.3488 -0.1311 -0.4694
 1609SOL     OW 6506   2.684   3.482   2.634  0.4198 -0.2342  0.2069
 1609SOL    HW2 6507   2.598   3.522   2.643  1.4900  1.9665  0.8623
 1609SOL    HW3 6508   2.699   3.479   2.539 -0.0031  0.1818  0.1257
 1609SOL    MW4 6509   2.675   3.487   2.623  0.5052  0.1111  0.2825
 1610SOL     OW 6510   2.933   3.606   2.730 -0.0480  0.0667  0.0435
 1610SOL    HW2 6511   2.933   3.591   2.825 -1.2547  0.5725  0.1389
 1610SOL    HW3 6512   2.848   3.572   2.701  0.8320 -1.1975 -1.0410
 1610SOL    MW4 6513   2.922   3.600   2.739 -0.0911 -0.0331 -0.0870
 1611SOL     OW 6514   2.924   3.871   2.640 -0.4115 -0.1127  0.1354
 1611SOL    HW2 6515   3.001   3.911   2.680 -1.0765  0.8601  0.4701
 1611SOL    HW3 6516   2.920   3.783   2.678 -0.8082  0.6601  1.9284
 1611SOL    MW4 6517   2.933   3.864   2.651 -0.5517  0.1173  0.4160
 1612SOL     OW 6518   2.702   3.979   2.749 -0.2881  0.3904 -0.0113
 1612SOL    HW2 6519   2.703   4.073   2.728 -1.1077  0.2681 -0.5984
 1612SOL    HW3 6520   2.784   3.946   2.712  0.1226  0.9199  0.4145
 1612SOL    MW4 6521   2.713   3.987   2.741 -0.3419  0.4439 -0.0327
 1613SOL     OW 6522   2.709   4.261   2.673 -0.1717  0.2309 -0.3979
 1613SOL    HW2 6523   2.774   4.330   2.681  0.5314 -0.7261  2.7738
 1613SOL    HW3 6524   2.627   4.302   2.700  0.3284 -0.2337  1.9377
 1613SOL    MW4 6525   2.707   4.275   2.677 -0.0131  0.0439  0.3288
 1614SOL     OW 6526   2.913   4.442   2.710 -0.2607  0.3487 -0.4226
 1614SOL    HW2 6527   2.905   4.447   2.806 -0.5807  1.1293 -0.4824
 1614SOL    HW3 6528   2.911   4.533   2.682 -1.2947  0.0697 -1.2660
 1614SOL    MW4 6529   2.912   4.455   2.719 -0.4394  0.4148 -0.5417
 1615SOL     OW 6530   3.366   4.637   2.607  0.0775  0.4246 -0.2071
 1615SOL    HW2 6531   3.379   4.558   2.658 -0.0095  1.1141  0.9044
 1615SOL    HW3 6532   3.287   4.677   2.643  1.0429  1.8778  0.4033
 1615SOL    MW4 6533   3.357   4.632   2.618  0.1936  0.7071  0.0203
 1616SOL     OW 6534   3.147   0.083   2.737  0.2731  0.4865  0.2891
 1616SOL    HW2 6535   3.140   0.077   2.833 -2.7501  1.0818  0.1673
 1616SOL    HW3 6536   3.146   0.176   2.719  0.3777  0.3633 -0.3578
 1616SOL    MW4 6537   3.146   0.094   2.748 -0.1118  0.5488  0.1876
 1617SOL     OW 6538   3.144   0.348   2.650 -0.7648  0.8593  0.6015
 1617SOL    HW2 6539   3.066   0.395   2.679 -0.8514  1.5617 -0.7490
 1617SOL    HW3 6540   3.144   0.357   2.555  0.8914  0.7417  0.5812
 1617SOL    MW4 6541   3.134   0.355   2.642 -0.5579  0.9365  0.4208
 1618SOL     OW 6542   3.364   0.441   2.774  0.9639 -0.2438 -0.1318
 1618SOL    HW2 6543   3.365   0.533   2.750  1.9238 -0.5872 -1.4839
 1618SOL    HW3 6544   3.283   0.407   2.736 -0.8655  0.6230  2.8052
 1618SOL    MW4 6545   3.354   0.448   2.766  0.8492 -0.1748  0.0772
 1619SOL     OW 6546   3.377   0.690   2.672  0.3671 -0.1369 -0.4877
 1619SOL    HW2 6547   3.463   0.719   2.704 -0.4493  1.1740  0.5571
 1619SOL    HW3 6548   3.374   0.722   2.581  0.4148  1.0666 -0.0792
 1619SOL    MW4 6549   3.388   0.698   2.664  0.2656  0.1949 -0.2959
 1620SOL     OW 6550   3.145   0.870   2.716 -0.1460 -0.1533 -0.5764
 1620SOL    HW2 6551   3.146   0.874   2.812 -0.1380 -0.3570 -0.5678
 1620SOL    HW3 6552   3.224   0.821   2.693 -0.2234 -0.2303 -0.6809
 1620SOL    MW4 6553   3.156   0.864   2.726 -0.1550 -0.1904 -0.5891
 1621SOL     OW 6554   3.108   1.135   2.626 -0.2741  0.0545  0.1657
 1621SOL    HW2 6555   3.134   1.048   2.656 -1.0630 -0.4718 -0.6830
 1621SOL    HW3 6556   3.109   1.130   2.531 -0.8623  0.8140  0.1127
 1621SOL    MW4 6557   3.112   1.123   2.618 -0.4559  0.0852  0.0467
 1622SOL     OW 6558   3.342   1.272   2.708 -0.0962  0.1025 -0.7364
 1622SOL    HW2 6559   3.336   1.274   2.803 -0.4381  2.1572 -0.7696
 1622SOL    HW3 6560   3.258   1.234   2.680 -0.1604 -0.1306 -0.2354
 1622SOL    MW4 6561   3.330   1.267   2.717 -0.1495  0.3428 -0.6745
 1623SOL     OW 6562   3.395   1.540   2.641  0.1736  0.2697 -0.1484
 1623SOL    HW2 6563   3.316   1.587   2.665 -0.7569 -0.5690 -1.5092
 1623SOL    HW3 6564   3.380   1.450   2.670  0.2774 -0.0732 -1.1198
 1623SOL    MW4 6565   3.383   1.534   2.648  0.0646  0.1140 -0.4561
 1624SOL     OW 6566   3.165   1.670   2.719  0.0813  0.8375  0.6271
 1624SOL    HW2 6567   3.166   1.761   2.693  0.0331  0.2988 -1.3198
 1624SOL    HW3 6568   3.081   1.636   2.688  0.9891 -0.3859 -0.5491
 1624SOL    MW4 6569   3.154   1.677   2.712  0.1948  0.6050  0.2151
 1625SOL     OW 6570   3.141   1.908   2.604 -0.0298 -0.1207 -0.3351
 1625SOL    HW2 6571   3.213   1.962   2.636  0.2402 -0.2468 -0.7174
 1625SOL    HW3 6572   3.062   1.949   2.638  0.2063  0.2085 -0.1868
 1625SOL    MW4 6573   3.140   1.920   2.613  0.0367 -0.0939 -0.3662
 1626SOL     OW 6574   3.345   2.026   2.745  0.5943  0.0406 -0.1958
 1626SOL    HW2 6575   3.343   2.033   2.840  0.1404  0.0403 -0.2018
 1626SOL    HW3 6576   3.362   2.114   2.714 -0.6245  0.2979 -0.1516
 1626SOL    MW4 6577   3.347   2.038   2.754  0.3736  0.0746 -0.1907
 1627SOL     OW 6578   3.369   2.272   2.631 -0.2153 -0.2331  0.5411
 1627SOL    HW2 6579   3.436   2.334   2.659 -0.4428 -0.3741  1.4145
 1627SOL    HW3 6580   3.365   2.282   2.536  1.8227 -1.0080  0.3478
 1627SOL    MW4 6581   3.377   2.282   2.623  0.0234 -0.3541  0.6309
 1628SOL     OW 6582   3.169   2.414   2.730  0.5224  0.5241 -0.5478
 1628SOL    HW2 6583   3.167   2.501   2.690  0.0481 -0.0160 -1.7267
 1628SOL    HW3 6584   3.248   2.373   2.695 -0.6174 -0.4471 -2.0118
 1628SOL    MW4 6585   3.179   2.420   2.720  0.3095  0.3247 -0.8965
 1629SOL     OW 6586   3.153   2.678   2.636 -0.0007 -0.7486  0.2509
 1629SOL    HW2 6587   3.226   2.725   2.677  0.1579 -0.5438 -0.2677
 1629SOL    HW3 6588   3.075   2.715   2.677  0.1545 -0.5116  0.3335
 1629SOL    MW4 6589   3.152   2.689   2.647  0.0405 -0.6902  0.1934
 1630SOL     OW 6590   3.360   2.829   2.744 -0.2209  0.4556  0.2083
 1630SOL    HW2 6591   3.362   2.825   2.840 -1.2070  0.9334  0.2583
 1630SOL    HW3 6592   3.441   2.787   2.717 -0.6186 -1.0302  1.2126
 1630SOL    MW4 6593   3.371   2.823   2.753 -0.4034  0.3226  0.3474
 1631SOL     OW 6594   3.369   3.092   2.641  0.2396  0.2367  0.4947
 1631SOL    HW2 6595   3.367   2.998   2.664 -2.5151 -0.0555 -0.8212
 1631SOL    HW3 6596   3.389   3.093   2.548 -0.3731  0.9464  0.3757
 1631SOL    MW4 6597   3.372   3.079   2.632 -0.2048  0.2913  0.3052
 1632SOL     OW 6598   3.140   3.241   2.696 -0.2377 -0.0957  0.2700
 1632SOL    HW2 6599   3.221   3.194   2.677  0.3630  1.5614 -1.5582
 1632SOL    HW3 6600   3.070   3.182   2.667  0.2658 -1.8210  2.5198
 1632SOL    MW4 6601   3.141   3.227   2.689 -0.0918 -0.1044  0.3257
 1633SOL     OW 6602   3.154   3.501   2.597 -0.1646 -0.0421 -0.1929
 1633SOL    HW2 6603   3.145   3.412   2.633 -0.1406 -0.3218 -0.8692
 1633SOL    HW3 6604   3.082   3.550   2.637 -0.9332 -0.6872 -0.7584
 1633SOL    MW4 6605   3.143   3.495   2.607 -0.2630 -0.1640 -0.3569
 1634SOL     OW 6606   3.366   3.625   2.731  0.0453 -0.3331  0.0021
 1634SOL    HW2 6607   3.356   3.589   2.820  0.3051 -0.8323 -0.1692
 1634SOL    HW3 6608   3.296   3.583   2.681  0.7645 -1.1306 -0.3595
 1634SOL    MW4 6609   3.355   3.614   2.736  0.1745 -0.5040 -0.0682
 1635SOL     OW 6610   3.378   3.878   2.639  0.0098 -0.1659  0.1306
 1635SOL    HW2 6611   3.378   3.790   2.676 -0.9320 -0.3996 -0.3935
 1635SOL    HW3 6612   3.370   3.864   2.544  0.2971  0.4717  0.0056
 1635SOL    MW4 6613   3.377   3.865   2.631 -0.0768 -0.1125  0.0451
 1636SOL     OW 6614   3.151   3.980   2.754 -0.0335  0.1207 -0.3447
 1636SOL    HW2 6615   3.151   4.073   2.729 -0.5860  0.0797 -0.5109
 1636SOL    HW3 6616   3.228   3.943   2.712  0.2278  0.5191 -0.2218
 1636SOL    MW4 6617   3.161   3.988   2.745 -0.0722  0.1678 -0.3505
 1637SOL     OW 6618   3.139   4.267   2.660  0.1810  0.1701 -0.2186
 1637SOL    HW2 6619   3.062   4.321   2.681 -0.6756 -1.2627  0.4262
 1637SOL    HW3 6620   3.143   4.268   2.564 -1.1343 -0.3826 -0.3007
 1637SOL    MW4 6621   3.129   4.274   2.650 -0.1056 -0.0920 -0.1445
 1638SOL     OW 6622   3.384   4.395   2.750 -0.4838 -0.4843 -0.5345
 1638SOL    HW2 6623   3.361   4.396   2.842  1.0076 -0.2159 -0.1513
 1638SOL    HW3 6624   3.306   4.361   2.706 -0.8551 -1.5644  0.9157
 1638SOL    MW4 6625   3.371   4.391   2.756 -0.3362 -0.5913 -0.2928
 1639SOL     OW 6626   3.771   4.630   2.691  0.1322 -0.0986  0.2424
 1639SOL    HW2 6627   3.770   4.538   2.716  0.8691 -0.1995 -0.1217
 1639SOL    HW3 6628   3.701   4.669   2.744  0.7089 -0.6034  1.4004
 1639SOL    MW4 6629   3.761   4.623   2.702  0.3054 -0.1783  0.3471
 1640SOL     OW 6630   3.559   0.126   2.772 -0.5146 -0.4934 -0.6095
 1640SOL    HW2 6631   3.579   0.208   2.727  0.3097 -0.8835 -0.9572
 1640SOL    HW3 6632   3.492   0.085   2.716 -1.4332  0.2442 -0.0773
 1640SOL    MW4 6633   3.553   0.131   2.758 -0.5269 -0.4475 -0.5856
 1641SOL     OW 6634   3.589   0.358   2.632  0.2722 -0.4421  0.2219
 1641SOL    HW2 6635   3.649   0.417   2.679 -1.6472  2.1610 -0.5051
 1641SOL    HW3 6636   3.502   0.391   2.652 -0.8269 -2.5610 -0.8873
 1641SOL    MW4 6637   3.586   0.370   2.641 -0.1259 -0.3783 -0.0203
 1642SOL     OW 6638   3.797   0.479   2.770 -0.2269  0.3692 -0.1714
 1642SOL    HW2 6639   3.795   0.488   2.865 -1.7087  0.4833 -0.2053
 1642SOL    HW3 6640   3.888   0.455   2.751  0.5565  2.2508  1.0788
 1642SOL    MW4 6641   3.809   0.477   2.780 -0.3190  0.6325 -0.0107
 1643SOL     OW 6642   3.827   0.714   2.645 -0.0373 -0.2448 -0.4177
 1643SOL    HW2 6643   3.758   0.761   2.691 -0.1073 -1.6306  0.9255
 1643SOL    HW3 6644   3.818   0.623   2.673  2.4613 -0.4301 -0.0623
 1643SOL    MW4 6645   3.817   0.708   2.655  0.2830 -0.4520 -0.1938
 1644SOL     OW 6646   3.619   0.865   2.754  0.0176 -0.4487  0.1183
 1644SOL    HW2 6647   3.618   0.892   2.845 -0.6543 -2.0517  0.6003
 1644SOL    HW3 6648   3.602   0.945   2.705 -1.4749  0.0901  1.4870
 1644SOL    MW4 6649   3.617   0.879   2.759 -0.2680 -0.5891  0.3622
 1645SOL     OW 6650   3.588   1.128   2.648 -0.4858 -0.5075  0.9105
 1645SOL    HW2 6651   3.656   1.184   2.684 -1.0251 -0.3236  1.6353
 1645SOL    HW3 6652   3.506   1.164   2.680 -0.9613 -0.5140 -0.2479
 1645SOL    MW4 6653   3.587   1.140   2.657 -0.6196 -0.4841  0.8533
 1646SOL     OW 6654   3.801   1.264   2.786 -0.2189  0.1848 -0.0657
 1646SOL    HW2 6655   3.874   1.218   2.744  2.5017  2.2301  2.2242
 1646SOL    HW3 6656   3.812   1.355   2.758 -1.2688  0.6993  1.1800
 1646SOL    MW4 6657   3.812   1.270   2.777  0.0014  0.5226  0.4010
 1647SOL     OW 6658   3.844   1.532   2.661 -0.3515  0.2093 -0.0115
 1647SOL    HW2 6659   3.922   1.578   2.691 -1.3581  1.8540  0.1344
 1647SOL    HW3 6660   3.771   1.586   2.691 -1.5888 -1.5964  0.3699
 1647SOL    MW4 6661   3.845   1.545   2.669 -0.6475  0.1881  0.0579
 1648SOL     OW 6662   3.601   1.702   2.738  0.4784  0.2959  0.0887
 1648SOL    HW2 6663   3.612   1.786   2.693 -0.3451 -0.1567 -0.9718
 1648SOL    HW3 6664   3.533   1.656   2.688  1.9394 -1.5989 -0.2343
 1648SOL    MW4 6665   3.594   1.707   2.725  0.5622 -0.0138 -0.0937
 1649SOL     OW 6666   3.595   1.964   2.617 -0.2593 -0.1427 -0.6850
 1649SOL    HW2 6667   3.509   1.973   2.656 -0.4336 -0.9378 -0.8852
 1649SOL    HW3 6668   3.654   2.011   2.677 -0.5545 -1.1555  0.4135
 1649SOL    MW4 6669   3.592   1.971   2.630 -0.3211 -0.3812 -0.5665
 1650SOL     OW 6670   3.807   2.095   2.752 -0.1910  0.3249 -0.6255
 1650SOL    HW2 6671   3.872   2.037   2.713 -0.0091  0.2734 -0.2468
 1650SOL    HW3 6672   3.802   2.068   2.844 -0.9271  0.1688 -0.7072
 1650SOL    MW4 6673   3.815   2.084   2.759 -0.2642  0.2973 -0.5860
 1651SOL     OW 6674   3.817   2.358   2.636 -0.1326 -0.1091  0.5690
 1651SOL    HW2 6675   3.815   2.274   2.681 -2.3420 -1.1262 -1.3163
 1651SOL    HW3 6676   3.802   2.337   2.544  1.9542  2.1257 -0.3359
 1651SOL    MW4 6677   3.814   2.344   2.629 -0.1485  0.0517  0.2010
 1652SOL     OW 6678   3.550   2.460   2.717 -0.3154 -0.5058  0.1575
 1652SOL    HW2 6679   3.561   2.487   2.808 -1.0757  0.3162  0.0121
 1652SOL    HW3 6680   3.637   2.433   2.689  0.0787  0.0084  0.8819
 1652SOL    MW4 6681   3.563   2.460   2.726 -0.3636 -0.3293  0.2339
 1653SOL     OW 6682   3.577   2.713   2.615 -0.2117 -0.4488  0.3178
 1653SOL    HW2 6683   3.545   2.626   2.640 -0.0523 -1.1260 -1.7183
 1653SOL    HW3 6684   3.585   2.709   2.519  0.4383  1.5961  0.2584
 1653SOL    MW4 6685   3.574   2.701   2.605 -0.1051 -0.2685  0.0415
 1654SOL     OW 6686   3.812   2.824   2.718  0.0317 -0.3647  0.0293
 1654SOL    HW2 6687   3.883   2.784   2.669  1.3050 -0.3724  1.8369
 1654SOL    HW3 6688   3.733   2.782   2.684  0.9689 -1.1355 -1.2443
 1654SOL    MW4 6689   3.811   2.813   2.707  0.3233 -0.4673  0.0999
 1655SOL     OW 6690   3.821   3.093   2.620 -0.3819 -0.1798  0.1794
 1655SOL    HW2 6691   3.743   3.126   2.666 -1.3956 -1.5727 -0.4971
 1655SOL    HW3 6692   3.823   2.999   2.640  1.4366 -0.0743  0.6050
 1655SOL    MW4 6693   3.811   3.085   2.628 -0.2756 -0.3498  0.1464
 1656SOL     OW 6694   3.615   3.208   2.756  0.1978  0.4819  0.0908
 1656SOL    HW2 6695   3.618   3.299   2.726  0.1245  0.7965  1.0447
 1656SOL    HW3 6696   3.534   3.174   2.718 -0.2224  1.0683  0.4462
 1656SOL    MW4 6697   3.604   3.215   2.747  0.1326  0.6011  0.2635
 1657SOL     OW 6698   3.614   3.493   2.654 -0.0206 -0.0227  0.0958
 1657SOL    HW2 6699   3.694   3.525   2.696 -0.2075 -0.3937  0.7531
 1657SOL    HW3 6700   3.543   3.539   2.699 -0.2459 -0.7598  0.5225
 1657SOL    MW4 6701   3.615   3.503   2.666 -0.0749 -0.1688  0.2387
 1658SOL     OW 6702   3.838   3.618   2.748  0.0704  0.1112 -0.0320
 1658SOL    HW2 6703   3.899   3.577   2.687 -0.4299 -0.3881 -0.1999
 1658SOL    HW3 6704   3.831   3.709   2.718 -0.8580 -0.3467 -1.2713
 1658SOL    MW4 6705   3.845   3.625   2.736 -0.1180 -0.0148 -0.2177
 1659SOL     OW 6706   3.865   3.876   2.655  0.4123 -0.2625 -0.1465
 1659SOL    HW2 6707   3.936   3.932   2.684 -0.7561  0.7895  0.7512
 1659SOL    HW3 6708   3.786   3.927   2.671 -0.6211 -1.7992 -0.2016
 1659SOL    MW4 6709   3.864   3.890   2.661  0.1218 -0.3264 -0.0353
 1660SOL     OW 6710   3.624   3.993   2.739 -0.0686 -0.0970  0.0084
 1660SOL    HW2 6711   3.623   4.079   2.697  0.0737  0.1791  0.5604
 1660SOL    HW3 6712   3.547   3.948   2.705  0.2803 -0.0336 -0.8701
 1660SOL    MW4 6713   3.614   3.998   2.729 -0.0036 -0.0527 -0.0348
 1661SOL     OW 6714   3.592   4.238   2.610  0.2323  0.2564  0.1855
 1661SOL    HW2 6715   3.514   4.278   2.648 -0.5752 -1.0447 -0.0648
 1661SOL    HW3 6716   3.586   4.259   2.517  0.3734  0.4733  0.2259
 1661SOL    MW4 6717   3.581   4.246   2.602  0.1442  0.1135  0.1581
 1662SOL     OW 6718   3.810   4.364   2.754  0.3648 -0.5564  0.1772
 1662SOL    HW2 6719   3.888   4.329   2.712  0.2498  0.9783 -1.3861
 1662SOL    HW3 6720   3.737   4.316   2.714  0.2719  0.7290 -1.2526
 1662SOL    MW4 6721   3.810   4.353   2.743  0.3371 -0.1845 -0.2179
 1663SOL     OW 6722   4.238   4.662   2.642 -0.1881  0.0589  0.3610
 1663SOL    HW2 6723   4.170   4.678   2.706 -1.7751  0.3507 -1.3562
 1663SOL    HW3 6724   4.316   4.706   2.677 -1.3862  1.3741  1.4000
 1663SOL    MW4 6725   4.240   4.670   2.655 -0.5560  0.2704  0.2716
 1664SOL     OW 6726   4.023   0.067   2.777 -0.3155 -0.8229  0.1210
 1664SOL    HW2 6727   4.008   0.074   2.872  0.1525  0.5474  0.1128
 1664SOL    HW3 6728   3.940   0.034   2.742 -1.6200  1.7156  0.6758
 1664SOL    MW4 6729   4.010   0.064   2.785 -0.4258 -0.3072  0.1929
 1665SOL     OW 6730   4.034   0.337   2.705 -0.5575 -0.2880 -0.1335
 1665SOL    HW2 6731   4.025   0.247   2.737 -0.5163 -0.4824 -0.6548
 1665SOL    HW3 6732   4.026   0.328   2.610  0.3654  0.1523 -0.2481
 1665SOL    MW4 6733   4.031   0.324   2.697 -0.4301 -0.2556 -0.2172
 1666SOL     OW 6734   4.247   0.495   2.801 -0.0948  0.0441 -1.1622
 1666SOL    HW2 6735   4.178   0.438   2.766  0.2958  0.4007 -2.5450
 1666SOL    HW3 6736   4.329   0.453   2.773  0.3160 -0.9994  1.4448
 1666SOL    MW4 6737   4.249   0.482   2.793  0.0110 -0.0466 -1.0006
 1667SOL     OW 6738   4.262   0.711   2.649 -0.0126 -0.1089  0.2803
 1667SOL    HW2 6739   4.243   0.628   2.693  0.7180 -0.4536 -0.0386
 1667SOL    HW3 6740   4.244   0.694   2.556  1.4006 -0.3198  0.0294
 1667SOL    MW4 6741   4.257   0.698   2.642  0.2704 -0.1822  0.2050
 1668SOL     OW 6742   4.022   0.872   2.739 -0.1661  0.1545 -0.3941
 1668SOL    HW2 6743   4.102   0.820   2.735 -0.6687 -0.8819  2.3139
 1668SOL    HW3 6744   3.952   0.812   2.713 -0.5065  0.0126  0.8284
 1668SOL    MW4 6745   4.023   0.858   2.735 -0.2770 -0.0010  0.1245
 1669SOL     OW 6746   4.005   1.131   2.644 -0.1623 -0.4008 -0.4512
 1669SOL    HW2 6747   4.094   1.163   2.657 -0.3081  0.6306 -1.8512
 1669SOL    HW3 6748   4.007   1.040   2.675  1.2902 -0.2806 -0.1809
 1669SOL    MW4 6749   4.017   1.123   2.650  0.0100 -0.2489 -0.6001
 1670SOL     OW 6750   4.236   1.265   2.685  0.0396  0.0460  0.2016
 1670SOL    HW2 6751   4.250   1.359   2.677 -1.2900  0.0915 -2.3411
 1670SOL    HW3 6752   4.322   1.226   2.668  0.1376  0.7497 -0.9761
 1670SOL    MW4 6753   4.249   1.272   2.681 -0.1230  0.1450 -0.2894
 1671SOL     OW 6754   4.264   1.569   2.624  0.0691  0.0951  0.3908
 1671SOL    HW2 6755   4.351   1.602   2.646  0.9303 -2.2544  0.7402
 1671SOL    HW3 6756   4.266   1.555   2.529 -0.9151  2.6619 -0.0496
 1671SOL    MW4 6757   4.276   1.571   2.615  0.0529  0.1239  0.3786
 1672SOL     OW 6758   4.050   1.682   2.732  0.3905  0.3182  0.0929
 1672SOL    HW2 6759   4.064   1.677   2.827 -0.7687 -0.4491  0.2270
 1672SOL    HW3 6760   4.123   1.631   2.695  0.6081  0.2696  0.5834
 1672SOL    MW4 6761   4.062   1.675   2.740  0.2661  0.2106  0.1752
 1673SOL     OW 6762   4.018   1.949   2.656  0.4180 -0.8620 -0.0924
 1673SOL    HW2 6763   4.103   1.985   2.681 -0.2264 -0.7956  2.1036
 1673SOL    HW3 6764   4.020   1.858   2.686  0.4164 -1.4306 -1.7579
 1673SOL    MW4 6765   4.029   1.942   2.663  0.3333 -0.9282 -0.0222
 1674SOL     OW 6766   4.266   2.056   2.727 -0.3617 -0.4746 -0.0882
 1674SOL    HW2 6767   4.272   2.141   2.685 -1.6416 -0.4371 -0.2048
 1674SOL    HW3 6768   4.351   2.015   2.711 -0.4608 -0.0409 -1.8021
 1674SOL    MW4 6769   4.278   2.062   2.720 -0.5441 -0.4122 -0.3297
 1675SOL     OW 6770   4.273   2.304   2.626 -0.2936  0.5820  0.5391
 1675SOL    HW2 6771   4.190   2.343   2.653 -1.5417 -1.6638  0.0899
 1675SOL    HW3 6772   4.265   2.297   2.531  0.9786  1.5501  0.3504
 1675SOL    MW4 6773   4.261   2.308   2.617 -0.2904  0.4137  0.4551
 1676SOL     OW 6774   4.065   2.454   2.683 -0.1435 -0.2220 -0.2146
 1676SOL    HW2 6775   4.059   2.466   2.778 -0.4379  2.0004 -0.4837
 1676SOL    HW3 6776   3.977   2.427   2.657 -0.7884  1.7364 -0.1607
 1676SOL    MW4 6777   4.052   2.452   2.693 -0.2675  0.3297 -0.2429
 1677SOL     OW 6778   4.036   2.726   2.604  0.0608  0.0578  0.6023
 1677SOL    HW2 6779   4.112   2.773   2.638 -0.8828  0.4396  2.2699
 1677SOL    HW3 6780   4.049   2.635   2.633 -0.6745  0.3552  1.8928
 1677SOL    MW4 6781   4.047   2.720   2.613 -0.1607  0.1473  0.9928
 1678SOL     OW 6782   4.271   2.802   2.763 -0.4855  0.2049  0.0034
 1678SOL    HW2 6783   4.266   2.789   2.858 -0.1407 -0.2106 -0.0366
 1678SOL    HW3 6784   4.268   2.898   2.753 -0.7542  0.2446  0.4168
 1678SOL    MW4 6785   4.270   2.813   2.774 -0.4749  0.1554  0.0527
 1679SOL     OW 6786   4.251   3.066   2.693  0.3327 -0.0373  0.1817
 1679SOL    HW2 6787   4.174   3.123   2.700  1.0030  0.6551  1.9902
 1679SOL    HW3 6788   4.283   3.081   2.604 -1.1573  0.2552 -0.3295
 1679SOL    MW4 6789   4.245   3.076   2.682  0.2246  0.0927  0.3529
 1680SOL     OW 6790   4.031   3.244   2.690  0.3257  0.3560  0.4943
 1680SOL    HW2 6791   4.030   3.238   2.786  1.5630  0.9399  0.5560
 1680SOL    HW3 6792   3.962   3.185   2.661 -0.0342  0.1539  1.7534
 1680SOL    MW4 6793   4.022   3.236   2.699  0.4416  0.4063  0.6688
 1681SOL     OW 6794   4.043   3.490   2.599 -0.6132 -0.3649 -0.5083
 1681SOL    HW2 6795   4.122   3.530   2.634 -0.5620 -0.7700 -0.1548
 1681SOL    HW3 6796   4.042   3.402   2.637 -2.0585  0.1824  0.7771
 1681SOL    MW4 6797   4.053   3.484   2.609 -0.7973 -0.3459 -0.2921
 1682SOL     OW 6798   4.261   3.605   2.708 -0.1305  0.1780 -0.2214
 1682SOL    HW2 6799   4.245   3.590   2.801 -2.0800 -2.3979 -0.9312
 1682SOL    HW3 6800   4.326   3.539   2.684 -1.7620 -1.0652 -1.3016
 1682SOL    MW4 6801   4.268   3.594   2.717 -0.6037 -0.3257 -0.4578
 1683SOL     OW 6802   4.285   3.856   2.591 -0.2802  0.0718 -0.0820
 1683SOL    HW2 6803   4.295   3.773   2.638 -0.6680  0.2348  0.2886
 1683SOL    HW3 6804   4.347   3.915   2.633 -0.6224  0.2158  0.2204
 1683SOL    MW4 6805   4.294   3.853   2.603 -0.3762  0.1123  0.0067
 1684SOL     OW 6806   4.079   4.028   2.720 -0.2451  0.2230  0.0505
 1684SOL    HW2 6807   4.092   4.021   2.814 -1.3026 -0.9190  0.1157
 1684SOL    HW3 6808   4.140   3.964   2.682  0.2030  0.7041 -0.0593
 1684SOL    MW4 6809   4.089   4.018   2.727 -0.3257  0.1359  0.0446
 1685SOL     OW 6810   4.041   4.284   2.620 -0.4494 -0.0505 -0.3094
 1685SOL    HW2 6811   4.040   4.191   2.642 -2.2935  0.1144  0.3565
 1685SOL    HW3 6812   4.043   4.286   2.525 -0.0135 -0.7767 -0.3176
 1685SOL    MW4 6813   4.041   4.272   2.611 -0.6351 -0.1240 -0.2227
 1686SOL     OW 6814   4.259   4.411   2.731 -0.2880  0.1819  0.0468
 1686SOL    HW2 6815   4.176   4.374   2.700  1.1366 -1.5661 -1.7979
 1686SOL    HW3 6816   4.258   4.502   2.700 -1.3256  0.0581 -0.3089
 1686SOL    MW4 6817   4.248   4.418   2.723 -0.2370 -0.0644 -0.2432
 1687SOL     OW 6818   0.220   4.647   3.151 -0.3465  0.0360  0.2892
 1687SOL    HW2 6819   0.219   4.643   3.246 -0.1824  0.4786  0.3087
 1687SOL    HW3 6820   0.136   4.686   3.128 -0.4457 -0.2002  0.2428
 1687SOL    MW4 6821   0.208   4.651   3.160 -0.3379  0.0629  0.2854
 1688SOL     OW 6822   0.003   0.083   3.037  0.3661 -0.3350  0.3918
 1688SOL    HW2 6823  -0.078   0.041   3.063  0.3641 -0.8148 -0.3551
 1688SOL    HW3 6824   0.002   0.168   3.081 -0.8571 -0.0616 -0.1363
 1688SOL    MW4 6825  -0.008   0.089   3.046  0.2046 -0.3622  0.2236
 1689SOL     OW 6826   0.006   0.339   3.170 -0.7497  0.1047  0.5638
 1689SOL    HW2 6827  -0.006   0.337   3.265  0.7858  2.4315  0.8440
 1689SOL    HW3 6828  -0.066   0.393   3.138 -0.2710  0.7733  0.6012
 1689SOL    MW4 6829  -0.005   0.346   3.178 -0.4840  0.5000  0.6056
 1690SOL     OW 6830   0.216   0.454   3.042 -0.0112  0.2177  0.2042
 1690SOL    HW2 6831   0.299   0.419   3.076  0.1169  0.1878 -0.1428
 1690SOL    HW3 6832   0.149   0.400   3.083  0.1748 -0.2866 -0.1557
 1690SOL    MW4 6833   0.218   0.442   3.052  0.0302  0.1473  0.1109
 1691SOL     OW 6834   0.194   0.729   3.109 -0.2803  0.3045  0.1792
 1691SOL    HW2 6835   0.219   0.736   3.201  1.7251 -1.9297 -0.1582
 1691SOL    HW3 6836   0.202   0.636   3.088 -0.5637  0.7886 -2.3145
 1691SOL    MW4 6837   0.198   0.718   3.118 -0.0531  0.0737 -0.1945
 1692SOL     OW 6838   4.465   0.869   3.015 -0.8623  0.3901 -0.0140
 1692SOL    HW2 6839   4.536   0.822   3.059 -0.9798  1.6808  1.5678
 1692SOL    HW3 6840   4.476   0.847   2.922  1.4570  0.3994  0.2370
 1692SOL    MW4 6841   4.476   0.860   3.008 -0.5718  0.5615  0.2277
 1693SOL     OW 6842   4.483   1.148   3.104 -0.4100 -0.2407 -0.2155
 1693SOL    HW2 6843   4.411   1.178   3.047  0.5233  0.7505 -0.9019
 1693SOL    HW3 6844   4.496   1.057   3.079  0.1839  0.2642 -1.8359
 1693SOL    MW4 6845   4.475   1.140   3.093 -0.2079 -0.0434 -0.5200
 1694SOL     OW 6846   0.239   1.270   3.041  0.1283  0.0741 -0.3821
 1694SOL    HW2 6847   0.146   1.252   3.056  0.4757 -1.2898  0.1767
 1694SOL    HW3 6848   0.252   1.248   2.948 -0.2941  1.0951 -0.6874
 1694SOL    MW4 6849   0.228   1.264   3.030  0.1184  0.0288 -0.3486
 1695SOL     OW 6850   0.201   1.525   3.142  0.0452 -0.0337 -0.3214
 1695SOL    HW2 6851   0.125   1.547   3.089 -0.6759 -0.3858  0.5730
 1695SOL    HW3 6852   0.238   1.447   3.099  0.3778  0.6072 -1.2239
 1695SOL    MW4 6853   0.196   1.518   3.129 -0.0060  0.0044 -0.3226
 1696SOL     OW 6854   0.002   1.642   2.990 -0.4556  0.4096 -0.2211
 1696SOL    HW2 6855  -0.078   1.602   3.025  0.1658 -1.0744 -0.4725
 1696SOL    HW3 6856  -0.003   1.733   3.019 -0.6153 -0.4497  2.5759
 1696SOL    MW4 6857  -0.009   1.649   2.998 -0.3946  0.1004  0.1147
 1697SOL     OW 6858   4.488   1.896   3.082 -0.3834  0.2394  0.2941
 1697SOL    HW2 6859   4.408   1.940   3.053 -0.0036  0.5028 -0.3591
 1697SOL    HW3 6860   4.559   1.952   3.051  0.1346 -1.4188 -1.5740
 1697SOL    MW4 6861   4.487   1.909   3.074 -0.2650  0.0552 -0.0384
 1698SOL     OW 6862   0.206   2.053   2.998  0.2638 -0.4305  0.1692
 1698SOL    HW2 6863   0.223   2.134   3.046 -1.7063 -0.0244  0.2217
 1698SOL    HW3 6864   0.227   2.074   2.907 -0.4181  0.1886  0.1539
 1698SOL    MW4 6865   0.211   2.066   2.992 -0.0861 -0.2952  0.1740
 1699SOL     OW 6866   0.248   2.290   3.117 -0.0780 -0.2577  0.0205
 1699SOL    HW2 6867   0.232   2.304   3.210 -0.3387 -0.2835 -0.0210
 1699SOL    HW3 6868   0.315   2.355   3.094 -0.5531  0.2495  0.0582
 1699SOL    MW4 6869   0.255   2.301   3.126 -0.1751 -0.1941  0.0200
 1700SOL     OW 6870   0.004   2.430   2.997 -0.1346  0.1634 -0.1153
 1700SOL    HW2 6871  -0.002   2.507   3.055  0.7812  0.0540  0.1401
 1700SOL    HW3 6872   0.078   2.380   3.032  0.1681 -0.1148 -1.1461
 1700SOL    MW4 6873   0.013   2.434   3.009  0.0267  0.1123 -0.2177
 1701SOL     OW 6874   4.487   2.662   3.142  0.4731 -0.5303  0.0452
 1701SOL    HW2 6875   4.493   2.655   3.237  0.8282 -2.6537 -0.1043
 1701SOL    HW3 6876   4.567   2.707   3.116  0.3050  0.1815  0.7702
 1701SOL    MW4 6877   4.498   2.667   3.151  0.4973 -0.7164  0.1211
 1702SOL     OW 6878   0.212   2.784   3.009  0.4387  0.2079 -0.0884
 1702SOL    HW2 6879   0.299   2.771   3.048  0.0507 -2.7154 -0.0301
 1702SOL    HW3 6880   0.223   2.756   2.918 -1.0976 -3.2277  0.7023
 1702SOL    MW4 6881   0.225   2.778   3.002  0.1848 -0.6311  0.0238
 1703SOL     OW 6882   0.222   3.057   3.080  0.6286 -0.0080  0.0851
 1703SOL    HW2 6883   0.149   3.115   3.057 -0.1900 -0.2833  1.9238
 1703SOL    HW3 6884   0.200   2.973   3.038 -0.1052 -0.0804  0.6055
 1703SOL    MW4 6885   0.209   3.053   3.071  0.4238 -0.0539  0.3965
 1704SOL     OW 6886   0.010   3.200   2.991  0.2260 -0.0590  0.2361
 1704SOL    HW2 6887  -0.067   3.156   3.027  0.6902 -0.2699  0.9802
 1704SOL    HW3 6888  -0.006   3.202   2.897 -0.9410  0.3943  0.4355
 1704SOL    MW4 6889  -0.002   3.194   2.983  0.1335 -0.0269  0.3607
 1705SOL     OW 6890   4.491   3.491   3.079 -0.3426  0.0693  0.3950
 1705SOL    HW2 6891   4.407   3.530   3.054  0.6507  1.6196 -0.6065
 1705SOL    HW3 6892   4.481   3.398   3.057 -1.7552  0.2401  0.2184
 1705SOL    MW4 6893   4.478   3.484   3.073 -0.3979  0.2966  0.2396
 1706SOL     OW 6894   0.245   3.606   3.009  0.0541  0.0886 -0.0595
 1706SOL    HW2 6895   0.234   3.698   3.034  0.6530 -0.2528  1.5098
 1706SOL    HW3 6896   0.164   3.564   3.039 -1.0942  0.4595 -2.5727
 1706SOL    MW4 6897   0.233   3.613   3.017 -0.0184  0.0923 -0.1841
 1707SOL     OW 6898   0.200   3.870   3.091 -0.4287 -0.0193 -0.2084
 1707SOL    HW2 6899   0.189   3.879   3.186 -0.3374 -1.0009 -0.1009
 1707SOL    HW3 6900   0.272   3.929   3.070  1.4341 -1.8672  0.7681
 1707SOL    MW4 6901   0.208   3.879   3.101 -0.1709 -0.3927 -0.0656
 1708SOL     OW 6902   4.461   3.963   2.988  0.1746 -0.0795 -0.0821
 1708SOL    HW2 6903   4.542   3.914   2.998  0.9823  0.9986 -1.2564
 1708SOL    HW3 6904   4.452   3.975   2.894 -0.4506  1.3096  0.1425
 1708SOL    MW4 6905   4.470   3.958   2.977  0.1993  0.2458 -0.2077
 1709SOL     OW 6906   0.010   4.223   3.092  0.1765 -0.1758  0.0484
 1709SOL    HW2 6907  -0.017   4.224   3.184 -1.0090 -1.4980 -0.2735
 1709SOL    HW3 6908   0.016   4.130   3.070  2.6433  0.0963 -0.5933
 1709SOL    MW4 6909   0.007   4.211   3.101  0.3452 -0.3138 -0.0787
 1710SOL     OW 6910   0.220   4.398   3.019  0.3862  0.3138 -0.0726
 1710SOL    HW2 6911   0.159   4.338   3.061 -1.4718  1.6431 -0.8113
 1710SOL    HW3 6912   0.208   4.481   3.065  0.5160  0.9833 -1.2153
 1710SOL    MW4 6913   0.210   4.401   3.030  0.1582  0.5779 -0.3211
 1711SOL     OW 6914   0.672   4.660   3.107 -0.4561  0.0096 -0.1016
 1711SOL    HW2 6915   0.665   4.567   3.083 -1.0315  0.0155  0.0357
 1711SOL    HW3 6916   0.591   4.700   3.074 -0.4306  0.3654  0.2587
 1711SOL    MW4 6917   0.660   4.653   3.100 -0.5287  0.0577 -0.0360
 1712SOL     OW 6918   0.428   0.083   3.006 -0.0422  0.0457 -0.4382
 1712SOL    HW2 6919   0.423   0.176   3.026  0.9126 -0.0431  0.3012
 1712SOL    HW3 6920   0.357   0.043   3.056  0.5461  0.1873  0.5192
 1712SOL    MW4 6921   0.418   0.090   3.015  0.1613  0.0527 -0.2143
 1713SOL     OW 6922   0.461   0.333   3.120 -0.2154  0.0362 -0.4032
 1713SOL    HW2 6923   0.457   0.313   3.214  0.2490 -0.5744 -0.5067
 1713SOL    HW3 6924   0.549   0.369   3.107 -0.0609 -0.4380 -0.7012
 1713SOL    MW4 6925   0.472   0.335   3.131 -0.1338 -0.1069 -0.4563
 1714SOL     OW 6926   0.667   0.502   3.002  0.0257 -0.0729  0.1999
 1714SOL    HW2 6927   0.755   0.481   3.031  0.3009 -0.7460 -1.0819
 1714SOL    HW3 6928   0.657   0.596   3.021  0.3243 -0.4023  2.0571
 1714SOL    MW4 6929   0.677   0.512   3.008  0.1013 -0.2052  0.2756
 1715SOL     OW 6930   0.682   0.758   3.125  0.0050 -0.0564 -0.1762
 1715SOL    HW2 6931   0.670   0.742   3.218 -1.5771 -1.0562 -0.5261
 1715SOL    HW3 6932   0.595   0.784   3.094 -0.1466 -2.4520 -1.8811
 1715SOL    MW4 6933   0.669   0.759   3.133 -0.2236 -0.5043 -0.4475
 1716SOL     OW 6934   0.433   0.841   3.008 -0.5915  0.3922 -0.0682
 1716SOL    HW2 6935   0.351   0.795   3.028 -1.5033  1.4005 -1.4186
 1716SOL    HW3 6936   0.442   0.835   2.913  1.4293 -0.5555  0.1631
 1716SOL    MW4 6937   0.423   0.835   2.998 -0.4452  0.4002 -0.2158
 1717SOL     OW 6938   0.465   1.092   3.150 -0.1886 -0.1902  0.3691
 1717SOL    HW2 6939   0.455   1.013   3.096 -0.2790  0.3683 -0.4426
 1717SOL    HW3 6940   0.396   1.150   3.119 -0.7237 -0.1427  1.6062
 1717SOL    MW4 6941   0.454   1.089   3.139 -0.2711 -0.1103  0.4251
 1718SOL     OW 6942   0.663   1.255   3.044  0.5885 -0.1360  0.0589
 1718SOL    HW2 6943   0.744   1.216   3.076 -0.1476 -2.2992 -0.6271
 1718SOL    HW3 6944   0.594   1.209   3.091 -0.3049  0.6910 -0.4219
 1718SOL    MW4 6945   0.665   1.244   3.054  0.3735 -0.3123 -0.0951
 1719SOL     OW 6946   0.650   1.526   3.075  0.0866  0.5703 -0.1174
 1719SOL    HW2 6947   0.648   1.541   3.169 -0.2054  1.5712 -0.2795
 1719SOL    HW3 6948   0.650   1.430   3.066 -1.4599  0.4629  0.8667
 1719SOL    MW4 6949   0.650   1.515   3.086 -0.1560  0.6883 -0.0086
 1720SOL     OW 6950   0.420   1.648   3.015  0.1572 -0.0001  0.3375
 1720SOL    HW2 6951   0.504   1.606   3.035 -0.0543 -1.2031 -1.2174
 1720SOL    HW3 6952   0.355   1.597   3.063  0.0044 -0.9246 -0.8194
 1720SOL    MW4 6953   0.422   1.636   3.024  0.1091 -0.2806 -0.0203
 1721SOL     OW 6954   0.426   1.914   3.088  0.3383  0.1048  0.1826
 1721SOL    HW2 6955   0.423   1.823   3.058 -1.9302  0.4969 -0.8363
 1721SOL    HW3 6956   0.350   1.955   3.048  0.7198  2.1929  1.5506
 1721SOL    MW4 6957   0.416   1.907   3.078  0.0893  0.4320  0.2289
 1722SOL     OW 6958   0.649   2.307   3.096  0.1188 -0.2937 -0.1982
 1722SOL    HW2 6959   0.673   2.316   3.188  0.9797  0.4125 -0.4863
 1722SOL    HW3 6960   0.642   2.213   3.082  0.0070 -0.4075  0.5791
 1722SOL    MW4 6961   0.651   2.296   3.106  0.2177 -0.2155 -0.1335
 1723SOL     OW 6962   0.904   2.402   3.013  0.0769  0.5825 -0.1832
 1723SOL    HW2 6963   0.814   2.372   3.029  0.5853 -0.9981 -0.2209
 1723SOL    HW3 6964   0.912   2.402   2.917  1.0144 -2.0790 -0.1419
 1723SOL    MW4 6965   0.893   2.398   3.002  0.2677  0.0229 -0.1826
 1724SOL     OW 6966   0.441   2.466   3.027  0.1850  0.4811 -0.0786
 1724SOL    HW2 6967   0.514   2.407   3.049 -1.0924 -0.7430  1.0033
 1724SOL    HW3 6968   0.435   2.462   2.931  0.6765 -0.4761 -0.0795
 1724SOL    MW4 6969   0.450   2.458   3.017  0.0813  0.1931  0.0639
 1725SOL     OW 6970   0.459   2.717   3.127 -0.3074 -0.4097  0.5396
 1725SOL    HW2 6971   0.538   2.759   3.093 -0.1814  0.5333  1.9454
 1725SOL    HW3 6972   0.456   2.632   3.083 -0.1295  0.7345 -1.7286
 1725SOL    MW4 6973   0.469   2.711   3.117 -0.2673 -0.1347  0.4256
 1726SOL     OW 6974   0.679   2.850   3.029  0.7257  0.6553 -0.3522
 1726SOL    HW2 6975   0.764   2.807   3.038  0.2629  0.0028  1.1129
 1726SOL    HW3 6976   0.697   2.943   3.043  1.1865  0.5094  0.0280
 1726SOL    MW4 6977   0.693   2.857   3.032  0.7254  0.5500 -0.1087
 1727SOL     OW 6978   0.715   3.098   3.111  0.2204  0.7565  0.6007
 1727SOL    HW2 6979   0.703   3.100   3.206 -0.4320  0.3312  0.5301
 1727SOL    HW3 6980   0.631   3.127   3.075 -0.0020 -0.4475  0.1294
 1727SOL    MW4 6981   0.702   3.102   3.118  0.1050  0.5414  0.5293
 1728SOL     OW 6982   0.475   3.167   3.008  0.2555  0.0461  0.2077
 1728SOL    HW2 6983   0.464   3.258   3.038 -0.9008 -0.0986  0.2405
 1728SOL    HW3 6984   0.394   3.124   3.034  1.6988 -1.5512  2.1905
 1728SOL    MW4 6985   0.463   3.173   3.015  0.2934 -0.1836  0.4740
 1729SOL     OW 6986   0.488   3.440   3.041 -0.2817  0.3491  0.2620
 1729SOL    HW2 6987   0.481   3.444   3.136 -0.5255 -2.3150  0.3968
 1729SOL    HW3 6988   0.421   3.501   3.009  1.1123  2.7624  1.7592
 1729SOL    MW4 6989   0.479   3.449   3.049 -0.1300  0.3159  0.4773
 1730SOL     OW 6990   0.689   3.613   2.988 -0.5514  0.0973  0.4321
 1730SOL    HW2 6991   0.772   3.584   3.027 -0.9965 -1.2393  0.4103
 1730SOL    HW3 6992   0.624   3.553   3.024 -0.8972 -1.5359 -2.7544
 1730SOL    MW4 6993   0.692   3.602   2.998 -0.6558 -0.2944  0.0088
 1731SOL     OW 6994   0.634   3.869   3.071 -0.1440  0.2410  0.0303
 1731SOL    HW2 6995   0.652   3.862   3.164 -0.2511  0.5680  0.0766
 1731SOL    HW3 6996   0.640   3.780   3.038 -1.2483 -0.0411  0.5592
 1731SOL    MW4 6997   0.637   3.857   3.079 -0.3038  0.2470  0.1063
 1732SOL     OW 6998   0.419   4.032   3.019  0.5068  0.2819 -0.3688
 1732SOL    HW2 6999   0.492   3.973   3.038 -0.4790 -1.2203 -1.1182
 1732SOL    HW3 7000   0.409   4.027   2.923 -0.4709  0.6077 -0.2895
 1732SOL    MW4 7001   0.427   4.023   3.009  0.2478  0.1268 -0.4573
 1733SOL     OW 7002   0.462   4.282   3.123  0.1131 -0.3491  0.1280
 1733SOL    HW2 7003   0.460   4.194   3.086  2.0929 -0.7101  0.8531
 1733SOL    HW3 7004   0.384   4.325   3.087 -0.4247 -2.1282 -0.8627
 1733SOL    MW4 7005   0.451   4.276   3.114  0.3033 -0.6318  0.0930
 1734SOL     OW 7006   0.655   4.403   2.988  0.0766 -0.1660  0.0484
 1734SOL    HW2 7007   0.589   4.351   3.034 -1.3885  1.3959 -0.2385
 1734SOL    HW3 7008   0.637   4.388   2.895  1.2351 -1.0803 -0.0433
 1734SOL    MW4 7009   0.644   4.394   2.981  0.0361 -0.0806 -0.0017
 1735SOL     OW 7010   1.114   0.010   3.160  0.2336 -0.4475  0.5628
 1735SOL    HW2 7011   1.192   0.040   3.113  0.1331  0.0188  0.6927
 1735SOL    HW3 7012   1.041   0.051   3.113  0.0557 -0.9639  0.3785
 1735SOL    MW4 7013   1.114   0.019   3.148  0.1968 -0.4541  0.5555
 1736SOL     OW 7014   0.898   0.133   3.016  0.1133 -0.1623  0.1158
 1736SOL    HW2 7015   0.886   0.221   3.053  0.0688  0.0201 -0.3197
 1736SOL    HW3 7016   0.819   0.086   3.040  0.6733 -0.4569  1.3880
 1736SOL    MW4 7017   0.886   0.139   3.024  0.1813 -0.1771  0.2263
 1737SOL     OW 7018   0.909   0.389   3.123  0.2120  0.2189  0.5110
 1737SOL    HW2 7019   0.901   0.399   3.218  0.1258 -0.1341  0.5435
 1737SOL    HW3 7020   0.986   0.440   3.099  0.5932 -0.1967  0.8557
 1737SOL    MW4 7021   0.918   0.397   3.133  0.2509  0.1175  0.5608
 1738SOL     OW 7022   1.138   0.520   3.002  0.3594  0.0210 -0.4488
 1738SOL    HW2 7023   1.203   0.460   3.037  0.3491 -0.1490 -0.7144
 1738SOL    HW3 7024   1.131   0.496   2.909  0.4139  0.4821 -0.5753
 1738SOL    MW4 7025   1.145   0.509   2.994  0.3654  0.0594 -0.5004
 1739SOL     OW 7026   1.132   0.771   3.093  0.0671  0.0555 -0.1916
 1739SOL    HW2 7027   1.120   0.746   3.185 -1.2425 -0.1675 -0.4195
 1739SOL    HW3 7028   1.135   0.687   3.046 -2.1162  0.2295 -0.6884
 1739SOL    MW4 7029   1.131   0.756   3.099 -0.3939  0.0491 -0.2871
 1740SOL     OW 7030   0.902   0.885   2.996  0.4312  0.6511  0.2917
 1740SOL    HW2 7031   0.982   0.850   3.036 -0.1370 -0.1564  0.7263
 1740SOL    HW3 7032   0.831   0.853   3.051 -0.1547  2.0572  0.3973
 1740SOL    MW4 7033   0.903   0.877   3.008  0.2789  0.7301  0.3629
 1741SOL     OW 7034   0.899   1.154   3.121 -0.5617 -0.0619 -0.1568
 1741SOL    HW2 7035   0.979   1.190   3.083 -0.5872  1.6958  1.3877
 1741SOL    HW3 7036   0.902   1.061   3.098  0.6255  0.4838 -2.3023
 1741SOL    MW4 7037   0.910   1.146   3.113 -0.4084  0.2420 -0.2360
 1742SOL     OW 7038   1.122   1.276   3.001  0.2259  0.1640 -0.3637
 1742SOL    HW2 7039   1.203   1.231   3.028  0.3626  0.4931 -0.2207
 1742SOL    HW3 7040   1.131   1.286   2.906  0.0314 -0.4333 -0.4449
 1742SOL    MW4 7041   1.134   1.272   2.992  0.2183  0.1287 -0.3555
 1743SOL     OW 7042   1.157   1.523   3.122  0.1085  0.0017  0.2768
 1743SOL    HW2 7043   1.231   1.574   3.088  1.1416 -1.1595  0.7262
 1743SOL    HW3 7044   1.147   1.450   3.060  0.2957 -0.6532  1.0044
 1743SOL    MW4 7045   1.166   1.520   3.109  0.2697 -0.2378  0.4320
 1744SOL     OW 7046   0.906   1.637   3.025 -0.0423 -0.2784 -0.4247
 1744SOL    HW2 7047   0.971   1.584   3.071 -0.8596 -1.7169 -0.8753
 1744SOL    HW3 7048   0.822   1.594   3.044 -0.8238  1.3111 -0.1718
 1744SOL    MW4 7049   0.903   1.624   3.033 -0.2533 -0.2584 -0.4511
 1745SOL     OW 7050   0.673   2.048   3.014 -0.0084 -0.0687  0.1688
 1745SOL    HW2 7051   0.607   1.979   3.022 -0.4031  0.4846  1.8229
 1745SOL    HW3 7052   0.754   2.007   3.046  0.1905 -0.3725 -0.7176
 1745SOL    MW4 7053   0.675   2.033   3.019 -0.0342 -0.0355  0.2699
 1746SOL     OW 7054   1.357   1.921   3.100  0.4106  0.8352  0.2404
 1746SOL    HW2 7055   1.354   1.917   3.195 -1.2090  0.2952  0.1823
 1746SOL    HW3 7056   1.272   1.959   3.075 -0.5025 -1.9676 -1.1090
 1746SOL    MW4 7057   1.345   1.926   3.109  0.0764  0.3941  0.0546
 1747SOL     OW 7058   1.140   2.066   2.991  0.3977  0.2076 -0.1325
 1747SOL    HW2 7059   1.145   2.057   2.896  0.6212  2.4257 -0.3455
 1747SOL    HW3 7060   1.060   2.019   3.015  1.4278 -2.1573 -1.1487
 1747SOL    MW4 7061   1.130   2.058   2.982  0.5631  0.1884 -0.2944
 1748SOL     OW 7062   1.151   2.325   3.098  0.3272  0.2858 -0.5510
 1748SOL    HW2 7063   1.153   2.236   3.062 -3.1114  0.4728 -1.3529
 1748SOL    HW3 7064   1.062   2.356   3.081  1.0825  3.4241  0.8708
 1748SOL    MW4 7065   1.139   2.317   3.091 -0.0268  0.7246 -0.4697
 1749SOL     OW 7066   0.915   2.692   3.071 -0.1033 -0.0576  0.5015
 1749SOL    HW2 7067   0.916   2.683   3.166  1.9088  1.0834  0.6264
 1749SOL    HW3 7068   0.922   2.602   3.038 -0.1336 -0.4015  1.4331
 1749SOL    MW4 7069   0.916   2.679   3.079  0.1582  0.0477  0.6409
 1750SOL     OW 7070   1.147   2.812   2.957 -0.0203  0.6988  0.3137
 1750SOL    HW2 7071   1.130   2.899   2.993  0.3850 -0.1229  2.6122
 1750SOL    HW3 7072   1.080   2.756   2.996  1.1596 -0.4470  0.7538
 1750SOL    MW4 7073   1.136   2.816   2.967  0.1888  0.4392  0.6750
 1751SOL     OW 7074   1.132   3.058   3.086 -0.3178  0.4382  0.2018
 1751SOL    HW2 7075   1.204   3.102   3.040  0.3104 -0.1938  0.5780
 1751SOL    HW3 7076   1.057   3.116   3.072  0.7309  2.1852  1.5599
 1751SOL    MW4 7077   1.132   3.072   3.078 -0.0966  0.5853  0.4308
 1752SOL     OW 7078   0.927   3.236   2.986 -0.0828 -0.4318 -0.0504
 1752SOL    HW2 7079   0.845   3.195   3.012  0.4065 -1.6972 -0.4851
 1752SOL    HW3 7080   0.923   3.240   2.890 -0.4464  1.2171  0.0186
 1752SOL    MW4 7081   0.915   3.231   2.977 -0.0663 -0.3812 -0.0987
 1753SOL     OW 7082   0.906   3.475   3.106 -0.6874  0.5227 -0.1156
 1753SOL    HW2 7083   0.979   3.532   3.081 -0.0844 -0.4881 -0.7141
 1753SOL    HW3 7084   0.922   3.394   3.057 -2.2730  0.3286 -0.3348
 1753SOL    MW4 7085   0.918   3.472   3.096 -0.8170  0.3641 -0.2234
 1754SOL     OW 7086   1.118   3.657   3.021 -0.1387 -0.4260  0.0215
 1754SOL    HW2 7087   1.190   3.603   3.052  1.6910  0.5980 -2.2668
 1754SOL    HW3 7088   1.123   3.736   3.076  0.4933 -0.3629 -0.1150
 1754SOL    MW4 7089   1.128   3.660   3.033  0.1860 -0.2825 -0.2985
 1755SOL     OW 7090   1.136   3.907   3.148 -0.1539  0.1260  0.7001
 1755SOL    HW2 7091   1.120   3.893   3.241  0.1736  2.1098  1.0850
 1755SOL    HW3 7092   1.058   3.955   3.118  0.2474  0.4663  0.2035
 1755SOL    MW4 7093   1.123   3.912   3.156 -0.0578  0.4327  0.6855
 1756SOL     OW 7094   0.907   4.008   3.032 -0.2130  0.2264  0.4381
 1756SOL    HW2 7095   0.825   3.966   3.058 -1.0747  1.5294 -0.1373
 1756SOL    HW3 7096   0.909   4.001   2.937 -0.3591  1.4611  0.3358
 1756SOL    MW4 7097   0.897   4.001   3.023 -0.3460  0.5612  0.3488
 1757SOL     OW 7098   0.872   4.281   3.091  0.0063  0.3935 -0.2205
 1757SOL    HW2 7099   0.879   4.191   3.060  0.6848  0.5605 -0.5738
 1757SOL    HW3 7100   0.798   4.318   3.042 -0.3553 -0.0063  0.0220
 1757SOL    MW4 7101   0.863   4.274   3.081  0.0482  0.3629 -0.2353
 1758SOL     OW 7102   1.114   4.424   3.029  0.0099  0.1507 -0.3703
 1758SOL    HW2 7103   1.035   4.384   3.064  0.6188 -0.5014  0.2760
 1758SOL    HW3 7104   1.117   4.511   3.069 -1.2201  0.8149 -1.6405
 1758SOL    MW4 7105   1.104   4.430   3.039 -0.0720  0.1526 -0.4528
 1759SOL     OW 7106   1.559   4.641   3.103 -0.1302 -0.2597  0.2182
 1759SOL    HW2 7107   1.561   4.651   3.198 -0.0962  0.8295  0.1033
 1759SOL    HW3 7108   1.479   4.687   3.076 -0.4949 -1.1286 -0.2187
 1759SOL    MW4 7109   1.549   4.648   3.112 -0.1739 -0.2313  0.1454
 1760SOL     OW 7110   1.327   0.103   3.018 -0.1686  0.0975  0.3267
 1760SOL    HW2 7111   1.327   0.194   3.049 -1.2405 -0.1315  0.9873
 1760SOL    HW3 7112   1.318   0.110   2.923 -0.8128  0.6629  0.4288
 1760SOL    MW4 7113   1.326   0.116   3.010 -0.3949  0.1419  0.4275
 1761SOL     OW 7114   1.351   0.365   3.108 -0.4310 -0.3696 -0.4644
 1761SOL    HW2 7115   1.361   0.372   3.203  0.3318 -3.0259 -0.2961
 1761SOL    HW3 7116   1.435   0.394   3.072 -0.4573 -0.0721 -0.2806
 1761SOL    MW4 7117   1.363   0.369   3.115 -0.3339 -0.6808 -0.4182
 1762SOL     OW 7118   1.576   0.480   2.996 -0.3826  0.3307 -0.4722
 1762SOL    HW2 7119   1.562   0.565   3.038  0.8655 -0.2256  1.0972
 1762SOL    HW3 7120   1.575   0.500   2.902 -2.4494  1.7058 -0.2073
 1762SOL    MW4 7121   1.574   0.494   2.989 -0.4908  0.4387 -0.2298
 1763SOL     OW 7122   1.547   0.736   3.122  0.2153  0.3141 -0.2177
 1763SOL    HW2 7123   1.561   0.757   3.214  0.4420  2.3879 -0.6915
 1763SOL    HW3 7124   1.471   0.789   3.096  0.6185  0.3289 -1.4139
 1763SOL    MW4 7125   1.539   0.746   3.130  0.2984  0.5897 -0.4382
 1764SOL     OW 7126   1.347   0.906   3.006  0.0027 -0.3310 -0.7024
 1764SOL    HW2 7127   1.333   0.991   3.048  1.5660 -0.4434  0.1137
 1764SOL    HW3 7128   1.270   0.855   3.029  0.9539 -0.4933  2.4097
 1764SOL    MW4 7129   1.335   0.910   3.015  0.3344 -0.3672 -0.1841
 1765SOL     OW 7130   1.363   1.167   3.119 -0.0583  0.2450  0.7613
 1765SOL    HW2 7131   1.362   1.157   3.214 -0.9981  0.6839  0.8120
 1765SOL    HW3 7132   1.438   1.224   3.101 -0.0827  0.4382  1.2750
 1765SOL    MW4 7133   1.373   1.174   3.129 -0.1855  0.3284  0.8357
 1766SOL     OW 7134   1.569   1.313   3.003 -0.5138  0.1169 -0.2614
 1766SOL    HW2 7135   1.645   1.267   3.039 -0.4049 -0.2315 -0.9342
 1766SOL    HW3 7136   1.583   1.404   3.029 -0.5316 -0.1508  0.7360
 1766SOL    MW4 7137   1.581   1.319   3.011 -0.5016  0.0355 -0.2184
 1767SOL     OW 7138   1.620   1.565   3.089 -0.4736 -0.1957 -0.2262
 1767SOL    HW2 7139   1.535   1.601   3.067 -0.6236 -0.3461  0.1080
 1767SOL    HW3 7140   1.616   1.549   3.183 -0.0881 -0.2288 -0.2148
 1767SOL    MW4 7141   1.609   1.568   3.098 -0.4425 -0.2198 -0.1807
 1768SOL     OW 7142   1.373   1.669   3.005  0.2367 -0.6483  0.7115
 1768SOL    HW2 7143   1.375   1.758   3.040  2.3756 -0.4447  0.1350
 1768SOL    HW3 7144   1.360   1.681   2.911  1.9291 -0.8621  0.4341
 1768SOL    MW4 7145   1.372   1.683   2.997  0.7422 -0.6497  0.5989
 1769SOL     OW 7146   1.554   2.093   3.016 -0.2032 -0.3063 -0.2884
 1769SOL    HW2 7147   1.485   2.030   3.038  1.0293 -1.2029  1.0458
 1769SOL    HW3 7148   1.567   2.081   2.922 -0.8413 -1.1662 -0.2788
 1769SOL    MW4 7149   1.547   2.083   3.006 -0.1248 -0.5381 -0.1111
 1770SOL     OW 7150   1.558   2.351   3.103  0.2016 -0.2160  0.2519
 1770SOL    HW2 7151   1.499   2.411   3.057 -0.0214  0.3096  1.2025
 1770SOL    HW3 7152   1.538   2.265   3.067  1.0523  0.3533 -1.6894
 1770SOL    MW4 7153   1.548   2.348   3.092  0.2843 -0.0718  0.1211
 1771SOL     OW 7154   1.521   2.287   3.359  0.1475  0.1965  0.0063
 1771SOL    HW2 7155   1.467   2.355   3.398 -0.6168  0.8866 -2.1871
 1771SOL    HW3 7156   1.525   2.310   3.266  2.0995 -1.2708 -0.2916
 1771SOL    MW4 7157   1.514   2.299   3.352  0.3041  0.0939 -0.3223
 1772SOL     OW 7158   1.342   2.464   2.948 -0.4440 -0.3353  0.4764
 1772SOL    HW2 7159   1.268   2.412   2.979 -1.1526  0.4310  0.0967
 1772SOL    HW3 7160   1.336   2.461   2.852 -0.3606  0.2338  0.4460
 1772SOL    MW4 7161   1.332   2.457   2.939 -0.5265 -0.1590  0.4222
 1773SOL     OW 7162   1.364   2.717   3.106 -0.3563 -0.2272 -0.0502
 1773SOL    HW2 7163   1.373   2.647   3.040 -1.4541 -0.8615  0.4716
 1773SOL    HW3 7164   1.296   2.774   3.071 -0.3537 -0.1067  0.1430
 1773SOL    MW4 7165   1.356   2.715   3.093 -0.5009 -0.2954  0.0441
 1774SOL     OW 7166   1.577   2.843   3.003  0.4487 -0.6588 -0.0591
 1774SOL    HW2 7167   1.653   2.803   3.044  1.9864  0.5945 -1.5875
 1774SOL    HW3 7168   1.502   2.802   3.045  1.9222  0.5206  3.9776
 1774SOL    MW4 7169   1.577   2.833   3.014  0.8460 -0.3378  0.2718
 1775SOL     OW 7170   1.559   3.121   3.062  0.3089  0.3581  0.0675
 1775SOL    HW2 7171   1.557   3.119   3.158  5.2516  0.9371  0.3078
 1775SOL    HW3 7172   1.562   3.029   3.036  0.4527  0.2260  0.5372
 1775SOL    MW4 7173   1.559   3.109   3.071  0.9801  0.4170  0.1614
 1776SOL     OW 7174   1.334   3.238   2.964  0.1532 -0.1448 -1.2555
 1776SOL    HW2 7175   1.416   3.193   2.987  0.2384 -0.1143 -1.4920
 1776SOL    HW3 7176   1.338   3.247   2.869 -0.5691 -1.0111 -1.3775
 1776SOL    MW4 7177   1.345   3.233   2.955  0.0693 -0.2551 -1.3030
 1777SOL     OW 7178   1.337   3.500   3.082 -0.1576 -0.0995 -0.1156
 1777SOL    HW2 7179   1.348   3.474   3.173 -1.4371  0.7698  0.3027
 1777SOL    HW3 7180   1.337   3.418   3.033  1.2648 -0.5259  0.5724
 1777SOL    MW4 7181   1.338   3.486   3.087 -0.1388 -0.0412  0.0308
 1778SOL     OW 7182   1.585   3.615   3.018 -0.6079 -0.0044  0.1830
 1778SOL    HW2 7183   1.499   3.576   3.033 -0.2270 -0.8954  0.0598
 1778SOL    HW3 7184   1.588   3.627   2.923 -0.0277 -1.3177  0.0223
 1778SOL    MW4 7185   1.574   3.611   3.007 -0.4811 -0.2952  0.1454
 1779SOL     OW 7186   1.629   3.871   3.109  0.1490 -0.4297 -0.1663
 1779SOL    HW2 7187   1.716   3.888   3.071  0.5379 -0.7675  0.5620
 1779SOL    HW3 7188   1.603   3.787   3.073 -0.0250 -0.1758 -0.6429
 1779SOL    MW4 7189   1.637   3.862   3.099  0.1773 -0.4406 -0.1328
 1780SOL     OW 7190   1.357   4.004   2.991  0.5972 -0.1187  0.2537
 1780SOL    HW2 7191   1.435   3.974   3.037  0.6014 -0.1243  0.2427
 1780SOL    HW3 7192   1.284   3.965   3.039  0.6640 -1.7095 -0.8723
 1780SOL    MW4 7193   1.358   3.995   3.003  0.6067 -0.3290  0.1037
 1781SOL     OW 7194   1.322   4.252   3.112 -0.0999 -0.4372 -0.6171
 1781SOL    HW2 7195   1.327   4.167   3.069  0.2147 -1.4153  1.2642
 1781SOL    HW3 7196   1.249   4.297   3.070 -1.6338 -2.4835 -0.2195
 1781SOL    MW4 7197   1.313   4.247   3.101 -0.2608 -0.8364 -0.3164
 1782SOL     OW 7198   1.555   4.387   2.994  0.5930  0.4202  0.1074
 1782SOL    HW2 7199   1.485   4.333   3.029  1.2033  0.2777  1.1115
 1782SOL    HW3 7200   1.542   4.473   3.033  0.3303  0.6935 -0.5636
 1782SOL    MW4 7201   1.544   4.391   3.004  0.6390  0.4377  0.1514
 1783SOL     OW 7202   1.998   4.653   3.117  0.1538  0.2125 -0.2578
 1783SOL    HW2 7203   1.995   4.685   3.207 -0.7489  0.4430 -0.3644
 1783SOL    HW3 7204   1.926   4.699   3.073 -0.7167 -1.4593 -0.5972
 1783SOL    MW4 7205   1.988   4.664   3.123 -0.0802  0.0229 -0.3164
 1784SOL     OW 7206   1.795   0.128   3.001 -0.1944 -0.0502 -0.4209
 1784SOL    HW2 7207   1.731   0.063   3.031 -0.1145  0.1700  0.2332
 1784SOL    HW3 7208   1.793   0.122   2.906 -1.9558  0.7085 -0.4362
 1784SOL    MW4 7209   1.786   0.118   2.993 -0.4163  0.0789 -0.3364
 1785SOL     OW 7210   1.792   0.374   3.138 -0.1538  0.1209  0.5446
 1785SOL    HW2 7211   1.795   0.287   3.100 -0.5008  0.7512 -0.9601
 1785SOL    HW3 7212   1.722   0.419   3.090  0.5653  1.4821  0.7549
 1785SOL    MW4 7213   1.783   0.369   3.127 -0.1045  0.3837  0.3738
 1786SOL     OW 7214   2.020   0.488   3.017 -0.0333  0.2720 -0.2051
 1786SOL    HW2 7215   1.944   0.438   3.049  0.9873 -0.1366  1.6730
 1786SOL    HW3 7216   2.016   0.480   2.922 -1.3361 -1.2644 -0.0433
 1786SOL    MW4 7217   2.009   0.480   3.009 -0.0708  0.0154  0.0639
 1787SOL     OW 7218   2.018   0.757   3.122 -0.0255 -0.2804 -0.2195
 1787SOL    HW2 7219   1.928   0.786   3.108 -0.0507 -0.4945 -0.5032
 1787SOL    HW3 7220   2.017   0.664   3.099  0.1183 -0.4376  0.4130
 1787SOL    MW4 7221   2.006   0.749   3.117 -0.0098 -0.3294 -0.1736
 1788SOL     OW 7222   1.787   0.868   3.051  0.0153  0.2064 -0.2478
 1788SOL    HW2 7223   1.702   0.834   3.078  0.5850 -1.6612 -0.6966
 1788SOL    HW3 7224   1.781   0.875   2.955  0.6149 -0.6910 -0.3615
 1788SOL    MW4 7225   1.775   0.864   3.042  0.1695 -0.1584 -0.3219
 1789SOL     OW 7226   1.800   1.159   3.095 -0.1168 -0.4158  0.1989
 1789SOL    HW2 7227   1.781   1.174   3.187  0.0964  0.7647  0.0502
 1789SOL    HW3 7228   1.814   1.064   3.089  0.5006 -0.4167  1.4926
 1789SOL    MW4 7229   1.799   1.148   3.106 -0.0070 -0.2602  0.3500
 1790SOL     OW 7230   2.017   1.300   3.000  0.0164 -0.2746 -0.4109
 1790SOL    HW2 7231   2.001   1.383   3.046 -0.0971  0.0362 -0.9980
 1790SOL    HW3 7232   1.942   1.245   3.023 -1.5948  0.9176 -2.5433
 1790SOL    MW4 7233   2.005   1.304   3.009 -0.2112 -0.0762 -0.7699
 1791SOL     OW 7234   2.058   1.576   3.118 -0.4896  0.2585 -0.8538
 1791SOL    HW2 7235   2.043   1.572   3.212  0.4945  0.9570 -0.6653
 1791SOL    HW3 7236   1.985   1.628   3.084 -0.7807  0.1016 -0.4770
 1791SOL    MW4 7237   2.046   1.582   3.126 -0.3984  0.3300 -0.7794
 1792SOL     OW 7238   1.830   1.719   2.994  0.0549  0.3173 -0.1111
 1792SOL    HW2 7239   1.806   1.799   3.041  0.2756 -0.4324  1.3045
 1792SOL    HW3 7240   1.756   1.660   3.007  0.7015 -0.3847  0.4782
 1792SOL    MW4 7241   1.817   1.722   3.002  0.1694  0.1258  0.1531
 1793SOL     OW 7242   1.785   1.966   3.117  0.1841  0.5375 -0.3374
 1793SOL    HW2 7243   1.860   2.009   3.076 -0.1096  0.4782 -0.9392
 1793SOL    HW3 7244   1.710   2.020   3.092 -0.2751 -0.6895 -1.6275
 1793SOL    MW4 7245   1.785   1.979   3.108  0.0848  0.3680 -0.5870
 1794SOL     OW 7246   2.002   2.093   3.001  0.2598 -0.9596  0.4926
 1794SOL    HW2 7247   2.083   2.050   3.029  0.4704 -0.0494  1.3070
 1794SOL    HW3 7248   1.989   2.165   3.064 -2.0812 -2.1137  1.4185
 1794SOL    MW4 7249   2.011   2.097   3.013 -0.0215 -0.9918  0.7219
 1795SOL     OW 7250   1.986   2.348   3.154  0.3330 -0.3363 -0.3372
 1795SOL    HW2 7251   2.069   2.379   3.116  0.5471 -0.6278 -0.1106
 1795SOL    HW3 7252   1.919   2.396   3.105  0.6853  1.3577  0.7781
 1795SOL    MW4 7253   1.988   2.359   3.142  0.4077 -0.1514 -0.1602
 1796SOL     OW 7254   1.794   2.466   2.996  0.1465 -0.0579  0.4958
 1796SOL    HW2 7255   1.800   2.552   3.037 -0.5391 -0.2088  0.8998
 1796SOL    HW3 7256   1.720   2.424   3.038 -0.4069 -0.3052 -0.7204
 1796SOL    MW4 7257   1.785   2.472   3.007 -0.0169 -0.1104  0.3889
 1797SOL     OW 7258   1.801   2.728   3.111  0.3901 -0.5223  0.2401
 1797SOL    HW2 7259   1.816   2.703   3.202 -1.4036 -2.8264 -0.0507
 1797SOL    HW3 7260   1.880   2.777   3.086  1.3475 -0.7592  2.7066
 1797SOL    MW4 7261   1.814   2.731   3.120  0.2798 -0.8576  0.5274
 1798SOL     OW 7262   2.045   2.847   3.016  0.0589  0.2611  0.0379
 1798SOL    HW2 7263   2.031   2.939   3.038 -0.4167 -0.0492  1.0841
 1798SOL    HW3 7264   2.053   2.845   2.921 -3.7443  0.8929 -0.3597
 1798SOL    MW4 7265   2.044   2.859   3.006 -0.5057  0.3035  0.1237
 1799SOL     OW 7266   2.035   3.131   3.091 -0.4360 -0.1200  0.2777
 1799SOL    HW2 7267   2.018   3.124   3.185 -1.6634  1.0858  0.1426
 1799SOL    HW3 7268   1.957   3.170   3.054  0.2699 -0.0398 -1.1848
 1799SOL    MW4 7269   2.023   3.135   3.099 -0.5045  0.0498  0.0668
 1800SOL     OW 7270   1.824   3.208   2.959  0.5921  0.0078  0.4287
 1800SOL    HW2 7271   1.734   3.192   2.989 -0.0206  0.9029 -0.8977
 1800SOL    HW3 7272   1.820   3.196   2.864  1.2044  2.9248 -0.0126
 1800SOL    MW4 7273   1.811   3.204   2.951  0.5921  0.5105  0.1955
 1801SOL     OW 7274   1.816   3.475   3.092 -0.4538 -0.0279  0.1361
 1801SOL    HW2 7275   1.808   3.397   3.036 -0.3845 -0.2385  0.4168
 1801SOL    HW3 7276   1.741   3.529   3.069  0.9136  1.0440 -1.9634
 1801SOL    MW4 7277   1.805   3.472   3.081 -0.2644  0.0856 -0.1040
 1802SOL     OW 7278   2.033   3.619   2.993  0.2221 -0.5277  0.0730
 1802SOL    HW2 7279   2.034   3.706   3.033 -0.9601  0.2595 -1.5027
 1802SOL    HW3 7280   1.968   3.570   3.043  0.5246 -0.3417  0.6475
 1802SOL    MW4 7281   2.024   3.624   3.005  0.1059 -0.3994 -0.0591
 1803SOL     OW 7282   2.057   3.851   3.130 -0.0993  0.4084 -0.5453
 1803SOL    HW2 7283   2.059   3.848   3.225 -1.5733 -2.1143 -0.5443
 1803SOL    HW3 7284   1.988   3.914   3.109 -0.0089  0.7042  0.0478
 1803SOL    MW4 7285   2.048   3.859   3.140 -0.2818  0.1144 -0.4671
 1804SOL     OW 7286   1.852   4.013   3.011  0.2561  0.6623 -0.0069
 1804SOL    HW2 7287   1.833   4.104   3.035 -0.6675  0.6969 -0.8270
 1804SOL    HW3 7288   1.817   4.004   2.922 -1.8549 -1.1918  0.9708
 1804SOL    MW4 7289   1.845   4.024   3.002 -0.1442  0.4225  0.0138
 1805SOL     OW 7290   1.778   4.260   3.093 -0.7681 -0.1117  0.0604
 1805SOL    HW2 7291   1.856   4.312   3.075  0.4923 -1.3738  1.7008
 1805SOL    HW3 7292   1.706   4.314   3.062  0.4606  2.7244  1.9031
 1805SOL    MW4 7293   1.779   4.274   3.087 -0.4398  0.0954  0.5200
 1806SOL     OW 7294   2.010   4.390   3.034 -0.5703  0.0546 -0.4026
 1806SOL    HW2 7295   2.000   4.483   3.056 -0.0681  0.5189 -2.0408
 1806SOL    HW3 7296   2.025   4.390   2.939  0.2028 -1.6493 -0.2889
 1806SOL    MW4 7297   2.011   4.402   3.024 -0.4020 -0.1092 -0.6037
 1807SOL     OW 7298   2.478   4.644   3.083  0.0515  0.6284 -0.1515
 1807SOL    HW2 7299   2.467   4.551   3.064  0.0659  0.3983  0.9082
 1807SOL    HW3 7300   2.394   4.683   3.059 -0.8202 -0.0521  1.6135
 1807SOL    MW4 7301   2.465   4.637   3.078 -0.0615  0.5083  0.2210
 1808SOL     OW 7302   2.236   0.087   2.999 -0.2306  0.2431 -0.5255
 1808SOL    HW2 7303   2.236   0.173   3.041  0.2941 -0.4378  0.9199
 1808SOL    HW3 7304   2.163   0.041   3.040  1.5566 -1.1528  1.2299
 1808SOL    MW4 7305   2.226   0.092   3.010  0.0741 -0.0309 -0.1030
 1809SOL     OW 7306   2.250   0.371   3.121  0.0188  0.1101 -0.1660
 1809SOL    HW2 7307   2.241   0.379   3.216  0.8784  1.4240 -0.1811
 1809SOL    HW3 7308   2.163   0.395   3.087  0.0663  0.8629  0.2325
 1809SOL    MW4 7309   2.237   0.375   3.129  0.1383  0.3828 -0.1154
 1810SOL     OW 7310   2.488   0.488   3.019  0.4850 -0.4509  0.6518
 1810SOL    HW2 7311   2.398   0.463   3.036  0.4906 -0.9122  0.0031
 1810SOL    HW3 7312   2.495   0.492   2.924  0.6373  1.4631  0.7237
 1810SOL    MW4 7313   2.477   0.485   3.009  0.5059 -0.2593  0.5758
 1811SOL     OW 7314   2.491   0.749   3.124 -0.2666 -0.9374 -0.1607
 1811SOL    HW2 7315   2.410   0.792   3.095  0.6878  0.1907 -1.1965
 1811SOL    HW3 7316   2.492   0.667   3.075 -0.3021 -0.5036 -0.9147
 1811SOL    MW4 7317   2.480   0.744   3.113 -0.1454 -0.7314 -0.3967
 1812SOL     OW 7318   2.270   0.878   3.028  0.8190  0.0219  0.1641
 1812SOL    HW2 7319   2.270   0.968   3.061 -0.1016  0.2390 -0.4054
 1812SOL    HW3 7320   2.192   0.839   3.067  0.7491 -0.2732 -0.2695
 1812SOL    MW4 7321   2.260   0.885   3.037  0.6886  0.0116  0.0319
 1813SOL     OW 7322   2.250   1.146   3.102  0.1782 -0.0440  0.2904
 1813SOL    HW2 7323   2.256   1.143   3.198 -0.7571  0.5201  0.3643
 1813SOL    HW3 7324   2.182   1.210   3.083  1.5970  1.1927 -0.8072
 1813SOL    MW4 7325   2.242   1.154   3.112  0.2422  0.1937  0.1552
 1814SOL     OW 7326   2.481   1.266   3.012  0.4160  0.1087  0.6090
 1814SOL    HW2 7327   2.410   1.207   3.035  0.9097 -0.4603  0.6863
 1814SOL    HW3 7328   2.481   1.269   2.916  0.9319 -0.6925  0.5785
 1814SOL    MW4 7329   2.472   1.259   3.002  0.5491 -0.0721  0.6151
 1815SOL     OW 7330   2.476   1.517   3.133 -0.5715 -0.1026 -0.5552
 1815SOL    HW2 7331   2.398   1.551   3.089  0.9567  0.7570 -2.6779
 1815SOL    HW3 7332   2.479   1.425   3.107 -1.5815 -0.4913  0.6216
 1815SOL    MW4 7333   2.466   1.509   3.124 -0.5035 -0.0405 -0.6802
 1816SOL     OW 7334   2.283   1.670   2.998 -0.0957 -0.3112 -0.1095
 1816SOL    HW2 7335   2.213   1.624   3.044  0.7535 -2.1682 -0.6370
 1816SOL    HW3 7336   2.261   1.660   2.906 -0.5785  1.4646 -0.2051
 1816SOL    MW4 7337   2.271   1.663   2.992 -0.0474 -0.3219 -0.1915
 1817SOL     OW 7338   2.221   1.938   3.094  0.0076  0.1894 -0.2336
 1817SOL    HW2 7339   2.306   1.970   3.063 -0.7125  0.8834 -1.5587
 1817SOL    HW3 7340   2.221   1.845   3.073  0.6440  0.0740  0.2594
 1817SOL    MW4 7341   2.232   1.930   3.087 -0.0031  0.2657 -0.3436
 1818SOL     OW 7342   2.482   2.048   3.051 -0.2816  0.0103 -0.0611
 1818SOL    HW2 7343   2.548   1.988   3.086  0.1963 -0.2036 -1.3100
 1818SOL    HW3 7344   2.494   2.045   2.957 -0.5974  1.6781 -0.1736
 1818SOL    MW4 7345   2.492   2.040   3.043 -0.2604  0.2022 -0.2406
 1819SOL     OW 7346   2.457   2.312   3.127  0.3763  0.0079 -0.0572
 1819SOL    HW2 7347   2.451   2.316   3.222 -0.3641 -1.0288 -0.0505
 1819SOL    HW3 7348   2.470   2.219   3.107  2.2633  0.4270 -0.8926
 1819SOL    MW4 7349   2.458   2.300   3.137  0.5276 -0.0737 -0.1669
 1820SOL     OW 7350   2.219   2.445   3.032  0.0272 -0.0576  0.3182
 1820SOL    HW2 7351   2.248   2.528   3.070 -1.4020  0.6687 -0.1551
 1820SOL    HW3 7352   2.290   2.384   3.051  0.6771  1.0440  1.4813
 1820SOL    MW4 7353   2.232   2.448   3.040 -0.0758  0.1836  0.4094
 1821SOL     OW 7354   2.259   2.694   3.137 -0.7025 -0.1915  0.0030
 1821SOL    HW2 7355   2.342   2.737   3.114 -1.1260 -0.1787 -1.5359
 1821SOL    HW3 7356   2.192   2.752   3.101 -1.3526 -0.7235  0.3671
 1821SOL    MW4 7357   2.261   2.707   3.129 -0.8442 -0.2596 -0.1523
 1822SOL     OW 7358   2.487   2.809   3.029  0.3889  0.1336 -0.4512
 1822SOL    HW2 7359   2.466   2.901   3.045 -1.1679 -0.2776 -0.0598
 1822SOL    HW3 7360   2.471   2.796   2.936  0.2040  0.1591 -0.4236
 1822SOL    MW4 7361   2.482   2.819   3.019  0.1593  0.0827 -0.3958
 1823SOL     OW 7362   2.473   3.080   3.066 -0.2191 -0.5151  0.0480
 1823SOL    HW2 7363   2.553   3.120   3.030  0.0129 -0.8315  0.2118
 1823SOL    HW3 7364   2.403   3.137   3.035 -0.0047 -0.6755 -0.7598
 1823SOL    MW4 7365   2.475   3.093   3.057 -0.1600 -0.5779 -0.0370
 1824SOL     OW 7366   2.273   3.237   2.982 -0.3131 -0.0099 -0.4887
 1824SOL    HW2 7367   2.258   3.321   3.025  0.8758  0.0659 -0.2195
 1824SOL    HW3 7368   2.196   3.184   3.007 -0.2592  0.4416  0.6973
 1824SOL    MW4 7369   2.261   3.241   2.991 -0.1493  0.0598 -0.2968
 1825SOL     OW 7370   2.253   3.493   3.103 -0.1830 -0.3825  0.1094
 1825SOL    HW2 7371   2.330   3.527   3.057 -0.2772 -0.4398 -0.0951
 1825SOL    HW3 7372   2.180   3.539   3.063 -0.3822 -1.3887 -0.7206
 1825SOL    MW4 7373   2.254   3.503   3.091 -0.2217 -0.5229 -0.0274
 1826SOL     OW 7374   2.483   3.611   2.994 -0.1654 -0.5720 -0.6792
 1826SOL    HW2 7375   2.573   3.577   3.002 -0.4262 -0.8058  1.6426
 1826SOL    HW3 7376   2.486   3.695   3.039 -0.7484  0.1641 -2.0028
 1826SOL    MW4 7377   2.495   3.617   3.001 -0.2768 -0.5059 -0.5476
 1827SOL     OW 7378   2.485   3.875   3.099  0.1409  0.1250  0.0526
 1827SOL    HW2 7379   2.485   3.865   3.194 -1.2632  1.9015  0.2547
 1827SOL    HW3 7380   2.575   3.901   3.077  0.7395 -1.2556  0.7466
 1827SOL    MW4 7381   2.497   3.877   3.109  0.0343  0.1771  0.1709
 1828SOL     OW 7382   2.261   4.014   3.028  0.0480 -0.0169  0.0604
 1828SOL    HW2 7383   2.342   3.963   3.031 -0.0997 -0.3322 -1.0414
 1828SOL    HW3 7384   2.193   3.954   3.060  0.2243  0.2181  0.8929
 1828SOL    MW4 7385   2.263   3.999   3.033  0.0517 -0.0272  0.0246
 1829SOL     OW 7386   2.234   4.262   3.128 -0.4607 -0.2047  0.1866
 1829SOL    HW2 7387   2.243   4.178   3.082 -1.8829 -1.1690  1.6229
 1829SOL    HW3 7388   2.149   4.296   3.099 -0.5860 -0.0051  0.7833
 1829SOL    MW4 7389   2.224   4.255   3.118 -0.6647 -0.3057  0.4547
 1830SOL     OW 7390   2.479   4.377   3.045 -0.0172  0.4072 -0.0909
 1830SOL    HW2 7391   2.390   4.353   3.071  0.1534  1.0870  1.1886
 1830SOL    HW3 7392   2.484   4.357   2.952 -0.9539 -1.2678  0.1976
 1830SOL    MW4 7393   2.468   4.371   3.036 -0.1180  0.2761  0.1161
 1831SOL     OW 7394   2.936   4.647   3.117  0.2124  0.0364 -0.1987
 1831SOL    HW2 7395   3.020   4.679   3.083 -0.7765  0.9362 -1.8540
 1831SOL    HW3 7396   2.917   4.569   3.065  0.1544 -0.3268  0.3657
 1831SOL    MW4 7397   2.945   4.641   3.106  0.0744  0.1073 -0.3428
 1832SOL     OW 7398   2.708   0.126   3.072 -0.4863  0.0923  0.0052
 1832SOL    HW2 7399   2.782   0.074   3.105  0.1358  1.4940  0.8789
 1832SOL    HW3 7400   2.632   0.069   3.083  0.1724 -0.6153  1.0144
 1832SOL    MW4 7401   2.708   0.111   3.078 -0.3176  0.1839  0.2537
 1833SOL     OW 7402   2.709   0.395   3.150 -0.2925  0.1070  0.0208
 1833SOL    HW2 7403   2.709   0.302   3.130  2.0105  0.1084 -0.1041
 1833SOL    HW3 7404   2.629   0.429   3.109 -0.7171 -1.6491 -0.6256
 1833SOL    MW4 7405   2.698   0.388   3.142 -0.0448 -0.1245 -0.0811
 1834SOL     OW 7406   2.950   0.507   3.038  0.0197 -0.2969 -0.0283
 1834SOL    HW2 7407   2.863   0.486   3.074  0.1060 -0.6803 -0.0387
 1834SOL    HW3 7408   2.937   0.511   2.944  0.0414 -0.5026 -0.0413
 1834SOL    MW4 7409   2.936   0.505   3.031  0.0339 -0.3746 -0.0315
 1835SOL     OW 7410   2.925   0.754   3.155  0.0392 -0.1307  0.1703
 1835SOL    HW2 7411   2.929   0.753   3.250  0.1070  0.3196  0.1716
 1835SOL    HW3 7412   2.947   0.665   3.129 -0.4496 -0.3766  0.5938
 1835SOL    MW4 7413   2.928   0.742   3.164 -0.0162 -0.1037  0.2263
 1836SOL     OW 7414   2.716   0.885   3.032  0.0244  0.3322  0.0572
 1836SOL    HW2 7415   2.789   0.837   3.071  0.1081  0.9409  0.6543
 1836SOL    HW3 7416   2.638   0.843   3.069  0.0740 -0.1719 -0.4075
 1836SOL    MW4 7417   2.715   0.873   3.042  0.0420  0.3459  0.0746
 1837SOL     OW 7418   2.721   1.147   3.111 -0.1765 -0.0003  0.0275
 1837SOL    HW2 7419   2.717   1.052   3.096 -0.9580  0.2255 -1.1934
 1837SOL    HW3 7420   2.633   1.178   3.091 -0.4505  0.7255  2.2835
 1837SOL    MW4 7421   2.709   1.138   3.106 -0.3159  0.1252  0.1640
 1838SOL     OW 7422   2.925   1.247   2.956  0.1680  0.1138 -0.0676
 1838SOL    HW2 7423   2.926   1.324   3.012  1.1689 -0.6739  1.0450
 1838SOL    HW3 7424   2.856   1.192   2.992  0.5737 -0.2355  0.1914
 1838SOL    MW4 7425   2.916   1.250   2.968  0.3536 -0.0360  0.1132
 1839SOL     OW 7426   2.943   1.494   3.110 -0.3598 -0.4534  0.1927
 1839SOL    HW2 7427   2.950   1.511   3.204 -0.0853 -0.3619  0.1573
 1839SOL    HW3 7428   3.003   1.557   3.070 -1.2246  0.1939 -0.1141
 1839SOL    MW4 7429   2.952   1.505   3.117 -0.4377 -0.3560  0.1476
 1840SOL     OW 7430   2.708   1.633   3.011 -0.0084 -0.4364  0.5184
 1840SOL    HW2 7431   2.787   1.596   3.049 -0.0779 -1.6664 -0.5081
 1840SOL    HW3 7432   2.636   1.586   3.053 -0.1691  0.0998  0.8456
 1840SOL    MW4 7433   2.709   1.622   3.022 -0.0389 -0.5279  0.4263
 1841SOL     OW 7434   2.707   1.875   3.127  0.1685  0.0349 -0.4767
 1841SOL    HW2 7435   2.764   1.930   3.072 -0.0924  1.3378  0.5318
 1841SOL    HW3 7436   2.697   1.794   3.077  0.4588  0.9535 -2.0606
 1841SOL    MW4 7437   2.713   1.872   3.113  0.1726  0.3279 -0.5527
 1842SOL     OW 7438   2.875   2.025   2.972  0.1288 -0.3780  0.6057
 1842SOL    HW2 7439   2.860   2.114   3.004 -0.2279 -0.5466  0.9019
 1842SOL    HW3 7440   2.895   2.036   2.879 -1.5978 -0.1372  0.2550
 1842SOL    MW4 7441   2.876   2.038   2.964 -0.1459 -0.3684  0.5984
 1843SOL     OW 7442   2.877   2.288   3.088  0.4234  0.4892 -0.1828
 1843SOL    HW2 7443   2.959   2.318   3.048  0.6639  1.0391  0.7082
 1843SOL    HW3 7444   2.809   2.340   3.046  0.5920  0.4518 -0.4991
 1843SOL    MW4 7445   2.879   2.299   3.077  0.4773  0.5567 -0.1070
 1844SOL     OW 7446   2.677   2.456   3.015 -0.0907  0.5070  0.4051
 1844SOL    HW2 7447   2.689   2.542   3.056  0.4889  0.2061  0.8786
 1844SOL    HW3 7448   2.607   2.415   3.065 -1.1237  1.1241 -0.5122
 1844SOL    MW4 7449   2.670   2.462   3.027 -0.1504  0.5488  0.3467
 1845SOL     OW 7450   2.726   2.697   3.141 -0.6440  0.3003 -0.0708
 1845SOL    HW2 7451   2.695   2.690   3.231  1.0706  1.2173  0.6027
 1845SOL    HW3 7452   2.650   2.729   3.092 -1.4857  0.1232  1.1078
 1845SOL    MW4 7453   2.712   2.701   3.146 -0.5288  0.3979  0.1731
 1846SOL     OW 7454   2.940   2.789   3.014  0.4087  0.2308 -0.2341
 1846SOL    HW2 7455   3.019   2.740   3.038  0.4521  0.2761 -0.2833
 1846SOL    HW3 7456   2.871   2.753   3.070  0.6118  0.6666  0.2989
 1846SOL    MW4 7457   2.941   2.778   3.025  0.4413  0.2944 -0.1700
 1847SOL     OW 7458   2.932   3.077   3.073 -0.4272  0.3276 -0.2336
 1847SOL    HW2 7459   2.851   3.106   3.031  0.4858  0.4620 -1.9370
 1847SOL    HW3 7460   2.931   2.982   3.066  0.7753  0.4534 -2.6173
 1847SOL    MW4 7461   2.921   3.068   3.067 -0.1478  0.3622 -0.7730
 1848SOL     OW 7462   2.695   3.210   2.978  0.5145  0.3124  0.1135
 1848SOL    HW2 7463   2.683   3.299   3.011  0.1981  0.0706  0.6575
 1848SOL    HW3 7464   2.714   3.221   2.885  2.0493  1.0341  0.5005
 1848SOL    MW4 7465   2.696   3.223   2.970  0.6750  0.3757  0.2363
 1849SOL     OW 7466   2.701   3.453   3.094  0.2873 -0.5102  0.4417
 1849SOL    HW2 7467   2.693   3.449   3.189  0.4484 -1.7536  0.4030
 1849SOL    HW3 7468   2.788   3.491   3.079  0.1984 -0.1661  0.7849
 1849SOL    MW4 7469   2.712   3.458   3.105  0.2966 -0.6289  0.4818
 1850SOL     OW 7470   2.940   3.582   2.995 -0.1157 -0.3081  0.2087
 1850SOL    HW2 7471   3.003   3.523   3.036  0.3947 -0.0693 -0.2256
 1850SOL    HW3 7472   2.941   3.660   3.050 -1.5395 -1.0873  1.3625
 1850SOL    MW4 7473   2.948   3.585   3.008 -0.2363 -0.3793  0.3035
 1851SOL     OW 7474   2.937   3.810   3.132  0.2368 -0.2907  0.2691
 1851SOL    HW2 7475   2.929   3.821   3.226 -1.3053  0.9614  0.0111
 1851SOL    HW3 7476   2.872   3.869   3.095  2.0353  0.5794 -1.6366
 1851SOL    MW4 7477   2.927   3.819   3.139  0.2706 -0.0105 -0.0162
 1852SOL     OW 7478   2.744   3.966   3.016  0.1691  0.2756  0.0122
 1852SOL    HW2 7479   2.737   4.057   3.046 -0.2666  0.7059 -1.3700
 1852SOL    HW3 7480   2.737   3.972   2.921  0.0323 -1.2256 -0.0725
 1852SOL    MW4 7481   2.742   3.979   3.008  0.0937  0.1342 -0.1814
 1853SOL     OW 7482   2.717   4.253   3.097  0.1549 -0.1306  0.2263
 1853SOL    HW2 7483   2.723   4.244   3.193  1.3946  0.9748  0.2484
 1853SOL    HW3 7484   2.633   4.298   3.083  0.1133 -0.0238  0.8015
 1853SOL    MW4 7485   2.706   4.258   3.108  0.3128  0.0296  0.3054
 1854SOL     OW 7486   2.922   4.394   3.001 -0.6351 -0.2373 -0.0181
 1854SOL    HW2 7487   2.990   4.330   3.022 -0.4859 -0.1924 -0.3683
 1854SOL    HW3 7488   2.841   4.354   3.034 -0.3122  0.1300  1.2521
 1854SOL    MW4 7489   2.921   4.380   3.008 -0.5727 -0.1831  0.1035
 1855SOL     OW 7490   3.370   4.650   3.154 -0.3046 -0.2425  0.0444
 1855SOL    HW2 7491   3.450   4.688   3.117 -0.0682  0.2819  1.0913
 1855SOL    HW3 7492   3.364   4.563   3.114  0.8287 -0.3175  0.0398
 1855SOL    MW4 7493   3.380   4.643   3.144 -0.1237 -0.1831  0.1819
 1856SOL     OW 7494   3.166   0.096   3.007 -0.4649  0.1891 -0.0370
 1856SOL    HW2 7495   3.147   0.170   3.065  1.6022  1.0055 -0.3466
 1856SOL    HW3 7496   3.243   0.054   3.047  0.6022  0.3882 -1.8427
 1856SOL    MW4 7497   3.174   0.100   3.020 -0.0515  0.3231 -0.3159
 1857SOL     OW 7498   3.123   0.351   3.169  0.3067 -0.2709 -0.3375
 1857SOL    HW2 7499   3.201   0.402   3.147 -0.2987  0.9147  0.1981
 1857SOL    HW3 7500   3.052   0.396   3.124 -0.3446 -0.2174  0.7296
 1857SOL    MW4 7501   3.124   0.364   3.160  0.1409 -0.1075 -0.1261
 1858SOL     OW 7502   3.343   0.471   3.062 -0.0672  0.2609 -0.5247
 1858SOL    HW2 7503   3.423   0.425   3.085 -0.8189 -1.2845 -0.9077
 1858SOL    HW3 7504   3.340   0.468   2.966 -0.3650  0.6918 -0.5332
 1858SOL    MW4 7505   3.353   0.464   3.052 -0.2055  0.1138 -0.5763
 1859SOL     OW 7506   3.353   0.741   3.122  0.0821 -0.0751  0.4006
 1859SOL    HW2 7507   3.354   0.725   3.216  0.4229  0.0300  0.4182
 1859SOL    HW3 7508   3.341   0.654   3.083  2.0677 -0.4163  0.4920
 1859SOL    MW4 7509   3.352   0.727   3.129  0.3889 -0.1062  0.4151
 1860SOL     OW 7510   3.135   0.881   3.003 -0.0361 -0.6168  0.0681
 1860SOL    HW2 7511   3.213   0.845   3.046 -0.2890  1.1196  2.0537
 1860SOL    HW3 7512   3.061   0.840   3.048 -0.3005 -0.3967 -0.1614
 1860SOL    MW4 7513   3.135   0.871   3.014 -0.1042 -0.3586  0.2999
 1861SOL     OW 7514   3.157   1.145   3.116  0.3386  0.1415 -0.3415
 1861SOL    HW2 7515   3.149   1.056   3.081 -1.3943  0.4396 -0.7344
 1861SOL    HW3 7516   3.093   1.196   3.067 -1.8634  0.6611  2.9272
 1861SOL    MW4 7517   3.148   1.140   3.105 -0.1805  0.2495  0.0379
 1862SOL     OW 7518   3.357   1.277   3.001 -0.4113 -0.0813 -0.4659
 1862SOL    HW2 7519   3.442   1.243   3.029 -0.4599  0.6495  0.6348
 1862SOL    HW3 7520   3.293   1.224   3.049 -0.5073  0.8430  0.4576
 1862SOL    MW4 7521   3.360   1.266   3.011 -0.4303  0.1370 -0.1988
 1863SOL     OW 7522   3.368   1.533   3.109  0.7386 -0.7359  0.4703
 1863SOL    HW2 7523   3.375   1.528   3.204 -1.7185 -1.8805  0.6406
 1863SOL    HW3 7524   3.357   1.441   3.082  0.2212 -0.3075 -0.7965
 1863SOL    MW4 7525   3.367   1.520   3.118  0.3462 -0.8304  0.3254
 1864SOL     OW 7526   3.156   1.684   2.999  0.3079  0.0982  0.3972
 1864SOL    HW2 7527   3.228   1.630   3.033  1.7269  1.7979  0.1551
 1864SOL    HW3 7528   3.174   1.692   2.905 -0.1147  0.6684  0.3618
 1864SOL    MW4 7529   3.168   1.678   2.991  0.4392  0.3978  0.3607
 1865SOL     OW 7530   3.114   1.929   3.095  0.0896  0.3711 -0.1990
 1865SOL    HW2 7531   3.133   1.842   3.058  1.6140  1.3287 -1.7409
 1865SOL    HW3 7532   3.045   1.964   3.038  0.7270  0.8759 -0.6633
 1865SOL    MW4 7533   3.107   1.922   3.083  0.3748  0.5640 -0.4640
 1866SOL     OW 7534   3.345   2.072   3.028  0.1360 -0.0845 -0.2906
 1866SOL    HW2 7535   3.420   2.030   3.070  0.4370 -0.9774 -1.6628
 1866SOL    HW3 7536   3.269   2.024   3.062  0.4466 -1.4770 -1.4885
 1866SOL    MW4 7537   3.345   2.060   3.038  0.2170 -0.3860 -0.6297
 1867SOL     OW 7538   3.351   2.327   3.120  0.1299  0.4173 -0.1984
 1867SOL    HW2 7539   3.348   2.324   3.215  0.3276  1.1230 -0.1637
 1867SOL    HW3 7540   3.347   2.235   3.092 -0.3947  0.2363  0.4708
 1867SOL    MW4 7541   3.350   2.314   3.129  0.0865  0.4866 -0.1054
 1868SOL     OW 7542   3.114   2.394   2.995  0.5598 -0.1017  0.3323
 1868SOL    HW2 7543   3.192   2.381   3.049  0.7703  0.5859  0.2019
 1868SOL    HW3 7544   3.148   2.392   2.905  0.5369  0.8955  0.2968
 1868SOL    MW4 7545   3.129   2.392   2.990  0.5848  0.1206  0.3107
 1869SOL     OW 7546   3.166   2.652   3.067  0.6803  0.3579  0.0197
 1869SOL    HW2 7547   3.165   2.645   3.163 -0.6808  0.7717  0.0596
 1869SOL    HW3 7548   3.136   2.567   3.036  0.8940  0.2998 -0.0248
 1869SOL    MW4 7549   3.162   2.640   3.076  0.5291  0.4048  0.0188
 1870SOL     OW 7550   3.386   2.799   3.018  0.0568 -0.3355 -0.1193
 1870SOL    HW2 7551   3.375   2.893   3.037 -0.8018 -0.5801  0.6619
 1870SOL    HW3 7552   3.301   2.761   3.039  0.2246 -1.2118 -0.9946
 1870SOL    MW4 7553   3.373   2.807   3.023 -0.0343 -0.4833 -0.1318
 1871SOL     OW 7554   3.372   3.090   3.116  0.4583 -0.2615  0.7743
 1871SOL    HW2 7555   3.366   3.098   3.211 -0.7217 -0.0828  0.6991
 1871SOL    HW3 7556   3.290   3.128   3.084  0.3314 -1.3657 -0.2510
 1871SOL    MW4 7557   3.360   3.096   3.124  0.2859 -0.3836  0.6292
 1872SOL     OW 7558   3.164   3.206   2.974  0.0884 -0.3549  0.5106
 1872SOL    HW2 7559   3.084   3.154   2.977 -0.1049 -0.0459  0.6676
 1872SOL    HW3 7560   3.178   3.223   2.881 -0.8231  0.8277  0.5857
 1872SOL    MW4 7561   3.155   3.201   2.962 -0.0575 -0.1581  0.5414
 1873SOL     OW 7562   3.148   3.448   3.122  0.3815  0.5132  0.1435
 1873SOL    HW2 7563   3.223   3.489   3.077  0.2667 -0.6695 -1.1705
 1873SOL    HW3 7564   3.153   3.356   3.097 -1.2135  0.3219  0.4864
 1873SOL    MW4 7565   3.159   3.442   3.112  0.1562  0.3319  0.0150
 1874SOL     OW 7566   3.368   3.555   3.001  0.5370 -0.3496 -0.1777
 1874SOL    HW2 7567   3.433   3.503   3.047  0.1912  0.1852  0.9199
 1874SOL    HW3 7568   3.374   3.642   3.040 -0.1027 -0.0164 -0.7976
 1874SOL    MW4 7569   3.377   3.560   3.012  0.4070 -0.2351 -0.1147
 1875SOL     OW 7570   3.403   3.830   3.112 -0.0522  0.4959  0.4819
 1875SOL    HW2 7571   3.401   3.847   3.206 -1.0814  1.8519  0.2254
 1875SOL    HW3 7572   3.325   3.873   3.078  0.4652  0.2633 -1.0372
 1875SOL    MW4 7573   3.393   3.838   3.120 -0.1199  0.6440  0.2477
 1876SOL     OW 7574   3.165   3.971   3.047  0.5879 -0.2624  0.0898
 1876SOL    HW2 7575   3.107   3.906   3.086 -1.1012  1.0594 -0.1333
 1876SOL    HW3 7576   3.152   3.962   2.953 -0.1736  0.8438  0.0812
 1876SOL    MW4 7577   3.156   3.962   3.040  0.2644  0.0582  0.0591
 1877SOL     OW 7578   3.116   4.228   3.106  0.4280 -0.2071 -0.0921
 1877SOL    HW2 7579   3.121   4.231   3.201  0.4632 -0.1962 -0.0941
 1877SOL    HW3 7580   3.119   4.135   3.084 -0.8042 -0.2702 -0.0180
 1877SOL    MW4 7581   3.117   4.216   3.115  0.2699 -0.2141 -0.0827
 1878SOL     OW 7582   3.336   4.382   3.033 -0.2460  0.2053  0.2069
 1878SOL    HW2 7583   3.416   4.352   3.076 -0.3182 -1.0353 -0.5131
 1878SOL    HW3 7584   3.268   4.322   3.063 -0.5469  0.1258 -0.6131
 1878SOL    MW4 7585   3.338   4.370   3.042 -0.2954  0.0310  0.0038
 1879SOL     OW 7586   3.811   4.651   3.158 -0.0308  0.2122  0.2488
 1879SOL    HW2 7587   3.807   4.565   3.116 -0.7130  0.8826 -1.0846
 1879SOL    HW3 7588   3.730   4.695   3.132  0.8475  1.7009 -0.0884
 1879SOL    MW4 7589   3.800   4.646   3.149 -0.0050  0.4964  0.0284
 1880SOL     OW 7590   3.577   0.117   3.042  0.1762  0.0591 -0.3273
 1880SOL    HW2 7591   3.583   0.207   3.074  0.0679  0.4655 -1.4366
 1880SOL    HW3 7592   3.569   0.125   2.947  2.9260 -1.2410 -0.6961
 1880SOL    MW4 7593   3.576   0.130   3.034  0.5248 -0.0588 -0.5224
 1881SOL     OW 7594   3.574   0.370   3.161  0.3080  0.1094 -0.2659
 1881SOL    HW2 7595   3.585   0.363   3.256 -1.9658  0.2404  0.0389
 1881SOL    HW3 7596   3.653   0.414   3.131  1.4604 -0.7223  1.4550
 1881SOL    MW4 7597   3.586   0.375   3.170  0.1600  0.0169  0.0014
 1882SOL     OW 7598   3.797   0.503   3.031  0.3410  0.0545 -0.0906
 1882SOL    HW2 7599   3.861   0.461   3.089 -0.0289  1.5492  1.4370
 1882SOL    HW3 7600   3.798   0.595   3.057 -1.9463  0.2229 -0.5013
 1882SOL    MW4 7601   3.806   0.510   3.042 -0.0095  0.2739  0.0567
 1883SOL     OW 7602   3.783   0.756   3.129  0.1527 -0.2225  0.6220
 1883SOL    HW2 7603   3.798   0.736   3.221  1.8635 -0.7857  0.2264
 1883SOL    HW3 7604   3.857   0.811   3.103 -0.8821  0.8404 -0.1452
 1883SOL    MW4 7605   3.794   0.761   3.137  0.2420 -0.1565  0.4685
 1884SOL     OW 7606   3.561   0.893   3.029 -0.5124 -0.2442  0.0137
 1884SOL    HW2 7607   3.631   0.841   3.067 -0.1098  1.0410  1.0601
 1884SOL    HW3 7608   3.482   0.864   3.074 -0.4590 -0.7728 -0.2361
 1884SOL    MW4 7609   3.560   0.882   3.040 -0.4525 -0.1444  0.1187
 1885SOL     OW 7610   3.574   1.169   3.123 -0.1554  0.7077  0.8154
 1885SOL    HW2 7611   3.654   1.215   3.100  0.8226 -1.0548  0.5785
 1885SOL    HW3 7612   3.592   1.077   3.101 -1.7082  0.0700  2.0924
 1885SOL    MW4 7613   3.587   1.163   3.117 -0.2315  0.3910  0.9527
 1886SOL     OW 7614   3.805   1.305   3.069  0.0974 -0.1479  0.1566
 1886SOL    HW2 7615   3.823   1.397   3.088  0.2383 -0.2331  0.4374
 1886SOL    HW3 7616   3.795   1.301   2.974 -0.0343  0.1795  0.1587
 1886SOL    MW4 7617   3.806   1.316   3.059  0.0987 -0.1160  0.1941
 1887SOL     OW 7618   3.840   1.573   3.115  0.7317  0.1270  0.5079
 1887SOL    HW2 7619   3.846   1.575   3.211 -0.1224 -1.4333  0.6140
 1887SOL    HW3 7620   3.757   1.618   3.096  1.6752  1.8537  0.3896
 1887SOL    MW4 7621   3.830   1.579   3.125  0.7434  0.1489  0.5066
 1888SOL     OW 7622   3.580   1.695   3.023  0.2864 -0.4897 -0.0312
 1888SOL    HW2 7623   3.516   1.634   3.059  0.7972 -0.8378  0.2858
 1888SOL    HW3 7624   3.575   1.682   2.928  1.1589 -1.7980  0.0900
 1888SOL    MW4 7625   3.571   1.685   3.015  0.4690 -0.7081  0.0267
 1889SOL     OW 7626   3.569   1.947   3.148 -0.1029  0.3703  0.5062
 1889SOL    HW2 7627   3.549   1.938   3.242 -2.2738 -0.5966 -0.0052
 1889SOL    HW3 7628   3.566   1.858   3.115  0.5712  0.7203 -0.4972
 1889SOL    MW4 7629   3.566   1.934   3.156 -0.3006  0.2888  0.3066
 1890SOL     OW 7630   3.815   2.052   3.018  0.0649 -0.4219  0.0394
 1890SOL    HW2 7631   3.811   2.146   3.037  1.0636 -0.3451 -0.1358
 1890SOL    HW3 7632   3.741   2.015   3.066 -2.5062  0.9273 -2.6855
 1890SOL    MW4 7633   3.805   2.060   3.027 -0.1423 -0.2339 -0.3433
 1891SOL     OW 7634   3.805   2.311   3.093  0.0473 -0.9047  0.0623
 1891SOL    HW2 7635   3.768   2.307   3.181 -2.6627 -0.3716 -1.0083
 1891SOL    HW3 7636   3.742   2.362   3.043  0.8166 -2.4137 -2.5396
 1891SOL    MW4 7637   3.792   2.317   3.098 -0.2089 -1.0335 -0.4222
 1892SOL     OW 7638   3.587   2.450   2.992  0.1695 -0.3083 -0.3174
 1892SOL    HW2 7639   3.593   2.530   3.045  1.3397 -0.3427 -0.3782
 1892SOL    HW3 7640   3.505   2.409   3.020 -0.6643  1.1297 -0.6016
 1892SOL    MW4 7641   3.577   2.455   3.003  0.2136 -0.1230 -0.3629
 1893SOL     OW 7642   3.592   2.687   3.144  0.1268 -0.3084 -0.0951
 1893SOL    HW2 7643   3.671   2.709   3.095  0.3588  0.1006  0.4582
 1893SOL    HW3 7644   3.522   2.736   3.101  0.3237  0.0235 -0.0391
 1893SOL    MW4 7645   3.593   2.696   3.132  0.1836 -0.2108 -0.0148
 1894SOL     OW 7646   3.832   2.764   3.017  0.2767 -0.7088 -0.3669
 1894SOL    HW2 7647   3.842   2.854   3.046  2.1135 -0.8567 -0.4971
 1894SOL    HW3 7648   3.825   2.770   2.922  0.1975 -0.6892 -0.3599
 1894SOL    MW4 7649   3.832   2.776   3.009  0.5085 -0.7257 -0.3834
 1895SOL     OW 7650   3.848   3.033   3.097  0.4349 -0.3988 -0.7387
 1895SOL    HW2 7651   3.910   3.078   3.039  0.5191 -1.5702 -1.5840
 1895SOL    HW3 7652   3.762   3.068   3.072  0.5819 -0.1015 -0.8285
 1895SOL    MW4 7653   3.845   3.044   3.086  0.4654 -0.5140 -0.8621
 1896SOL     OW 7654   3.618   3.170   3.032 -0.1550 -0.6605  0.0753
 1896SOL    HW2 7655   3.530   3.147   3.064 -0.7700  0.6360 -0.6533
 1896SOL    HW3 7656   3.605   3.192   2.940  0.7225  0.6905  0.2584
 1896SOL    MW4 7657   3.605   3.170   3.024 -0.1204 -0.3111  0.0033
 1897SOL     OW 7658   3.594   3.432   3.134  0.1783 -0.2409  0.2241
 1897SOL    HW2 7659   3.674   3.478   3.109  0.2754 -1.3542 -1.6117
 1897SOL    HW3 7660   3.609   3.341   3.108 -1.1905 -0.7113  1.0103
 1897SOL    MW4 7661   3.606   3.426   3.127  0.0105 -0.4499  0.0858
 1898SOL     OW 7662   3.811   3.615   3.032 -0.1347 -0.2535  0.5462
 1898SOL    HW2 7663   3.805   3.691   3.089 -2.0544 -0.1268  0.2106
 1898SOL    HW3 7664   3.834   3.651   2.946 -1.0551 -0.0402  0.3842
 1898SOL    MW4 7665   3.813   3.630   3.028 -0.5095 -0.2084  0.4804
 1899SOL     OW 7666   3.836   3.879   3.121 -0.0927  0.3470 -0.4728
 1899SOL    HW2 7667   3.807   3.882   3.213 -0.4462  1.1601 -0.6083
 1899SOL    HW3 7668   3.777   3.940   3.076  1.1306  1.1851 -0.9431
 1899SOL    MW4 7669   3.824   3.888   3.127  0.0222  0.5648 -0.5529
 1900SOL     OW 7670   3.625   3.996   3.018  0.2354  0.2255 -0.3126
 1900SOL    HW2 7671   3.568   3.934   3.063 -0.0231 -0.0197 -0.9659
 1900SOL    HW3 7672   3.623   3.967   2.926  1.9010 -0.1569 -0.2314
 1900SOL    MW4 7673   3.617   3.984   3.012  0.4210  0.1423 -0.3879
 1901SOL     OW 7674   3.570   4.264   3.107  0.1233  0.4922  0.2075
 1901SOL    HW2 7675   3.652   4.301   3.072 -0.1067  0.6915 -0.1234
 1901SOL    HW3 7676   3.575   4.171   3.088  0.5362  0.4087  0.7059
 1901SOL    MW4 7677   3.582   4.257   3.100  0.1478  0.5078  0.2296
 1902SOL     OW 7678   3.804   4.390   3.022  0.2517  0.0157 -0.0938
 1902SOL    HW2 7679   3.887   4.356   3.053 -0.4350 -1.3281  0.3237
 1902SOL    HW3 7680   3.803   4.369   2.929  0.5721  0.4342 -0.1923
 1902SOL    MW4 7681   3.814   4.383   3.014  0.2034 -0.1068 -0.0517
 1903SOL     OW 7682   4.254   4.647   3.122  0.1322 -0.4298  0.3583
 1903SOL    HW2 7683   4.264   4.638   3.217  0.1308 -2.5207  0.1883
 1903SOL    HW3 7684   4.239   4.557   3.091  0.5809  0.1708 -1.6668
 1903SOL    MW4 7685   4.254   4.634   3.131  0.1907 -0.6266  0.0689
 1904SOL     OW 7686   4.030   0.130   3.046 -0.1967  0.2900  0.1850
 1904SOL    HW2 7687   4.112   0.090   3.072 -0.2473 -0.9102 -1.3834
 1904SOL    HW3 7688   3.962   0.070   3.078 -0.3668  0.2854 -0.1732
 1904SOL    MW4 7689   4.032   0.117   3.053 -0.2255  0.1310 -0.0691
 1905SOL     OW 7690   4.003   0.395   3.163 -0.3500  0.6206 -0.1125
 1905SOL    HW2 7691   4.087   0.437   3.145 -0.2165  0.2385 -0.3907
 1905SOL    HW3 7692   4.016   0.304   3.136 -0.5447  0.3302  0.7714
 1905SOL    MW4 7693   4.016   0.388   3.157 -0.3586  0.5318 -0.0327
 1906SOL     OW 7694   4.271   0.465   3.084  0.3476 -0.1584  0.1469
 1906SOL    HW2 7695   4.276   0.560   3.090  0.7221 -0.2293  1.1618
 1906SOL    HW3 7696   4.231   0.447   2.999  0.3561  0.9014 -0.0788
 1906SOL    MW4 7697   4.267   0.475   3.073  0.3982 -0.0280  0.2513
 1907SOL     OW 7698   4.247   0.742   3.137 -0.5477  0.0246 -0.1890
 1907SOL    HW2 7699   4.162   0.776   3.108 -0.9146 -0.9298 -0.2739
 1907SOL    HW3 7700   4.311   0.801   3.098 -1.1677  0.6071 -0.3344
 1907SOL    MW4 7701   4.244   0.754   3.128 -0.6781 -0.0244 -0.2193
 1908SOL     OW 7702   4.022   0.884   3.038 -0.6958  0.1219 -0.2924
 1908SOL    HW2 7703   4.027   0.974   3.070 -1.7631  0.2219 -0.3799
 1908SOL    HW3 7704   4.025   0.892   2.943  0.6079 -0.0405 -0.2693
 1908SOL    MW4 7705   4.023   0.897   3.030 -0.6652  0.1136 -0.3009
 1909SOL     OW 7706   4.057   1.160   3.125  0.3603  0.4284 -0.2162
 1909SOL    HW2 7707   4.043   1.157   3.219 -0.5431 -2.1805 -0.3848
 1909SOL    HW3 7708   3.978   1.202   3.090 -0.2000 -0.3706  0.0620
 1909SOL    MW4 7709   4.044   1.165   3.132  0.1669 -0.0212 -0.2017
 1910SOL     OW 7710   4.255   1.267   2.963 -0.1791 -0.0500  0.3983
 1910SOL    HW2 7711   4.173   1.238   3.005 -0.7585  1.6431  0.4860
 1910SOL    HW3 7712   4.238   1.258   2.869 -0.1292 -0.6041  0.4445
 1910SOL    MW4 7713   4.242   1.262   2.956 -0.2489  0.1003  0.4160
 1911SOL     OW 7714   4.267   1.524   3.120 -0.1052  0.2575 -0.3216
 1911SOL    HW2 7715   4.218   1.584   3.064 -0.2842  0.7871  0.3971
 1911SOL    HW3 7716   4.262   1.440   3.074  1.9529  1.2171 -2.4229
 1911SOL    MW4 7717   4.259   1.521   3.106  0.1426  0.4539 -0.5038
 1912SOL     OW 7718   4.071   1.671   2.997 -0.2938 -0.1470 -0.0244
 1912SOL    HW2 7719   4.081   1.762   3.026 -0.3509  0.9702 -3.3550
 1912SOL    HW3 7720   3.989   1.642   3.036 -0.8514  1.6077  0.1280
 1912SOL    MW4 7721   4.062   1.679   3.006 -0.3748  0.2317 -0.4437
 1913SOL     OW 7722   4.039   1.934   3.110  0.1316 -0.1483  0.3575
 1913SOL    HW2 7723   4.106   1.980   3.060 -0.0076  0.5987  0.8485
 1913SOL    HW3 7724   3.956   1.968   3.076  0.0076 -0.7512  0.0515
 1913SOL    MW4 7725   4.037   1.945   3.099  0.0968 -0.1293  0.3822
 1914SOL     OW 7726   4.264   2.056   3.009 -0.5370  0.1456 -0.2765
 1914SOL    HW2 7727   4.258   2.145   3.043  2.1020  0.2648 -0.0022
 1914SOL    HW3 7728   4.262   2.066   2.914 -1.7849  0.3539 -0.2313
 1914SOL    MW4 7729   4.263   2.069   3.001 -0.3529  0.1888 -0.2344
 1915SOL     OW 7730   4.248   2.313   3.121  0.6097 -0.2103  0.1718
 1915SOL    HW2 7731   4.174   2.350   3.073  0.5318 -0.5162  0.0546
 1915SOL    HW3 7732   4.325   2.350   3.078  0.5318 -0.1909  0.0471
 1915SOL    MW4 7733   4.248   2.322   3.109  0.5894 -0.2480  0.1397
 1916SOL     OW 7734   4.043   2.428   2.988  0.0339  0.0848 -0.0542
 1916SOL    HW2 7735   4.050   2.495   3.056  0.1183  0.6132 -0.5837
 1916SOL    HW3 7736   3.958   2.387   3.004  0.8005 -0.9549  1.4293
 1916SOL    MW4 7737   4.033   2.431   2.999  0.1459  0.0174  0.0715
 1917SOL     OW 7738   4.048   2.650   3.153 -0.0168  0.8236 -0.2454
 1917SOL    HW2 7739   4.056   2.647   3.248 -0.5277 -2.6994 -0.2687
 1917SOL    HW3 7740   3.972   2.706   3.137 -0.0336  1.2997  1.3819
 1917SOL    MW4 7741   4.039   2.657   3.163 -0.0863  0.4213 -0.0339
 1918SOL     OW 7742   4.249   2.799   3.045  0.2687  0.6673  0.3835
 1918SOL    HW2 7743   4.173   2.753   3.080  0.5934 -0.9027 -0.9090
 1918SOL    HW3 7744   4.325   2.755   3.084  0.5418  1.7379  1.0843
 1918SOL    MW4 7745   4.249   2.787   3.055  0.3476  0.6015  0.3054
 1919SOL     OW 7746   4.275   3.067   3.083 -0.6890  0.4623  0.0588
 1919SOL    HW2 7747   4.251   3.064   3.176 -0.0257  0.0705  0.2169
 1919SOL    HW3 7748   4.279   2.975   3.056 -0.2531  0.5566 -0.1987
 1919SOL    MW4 7749   4.272   3.055   3.092 -0.5441  0.4230  0.0458
 1920SOL     OW 7750   4.036   3.180   2.966  0.3825 -0.1463 -0.0929
 1920SOL    HW2 7751   4.026   3.270   2.998  1.4681  0.1182 -0.4487
 1920SOL    HW3 7752   4.126   3.157   2.988  0.3905 -0.8215 -0.8135
 1920SOL    MW4 7753   4.047   3.189   2.973  0.5269 -0.2007 -0.2351
 1921SOL     OW 7754   4.015   3.434   3.080 -0.1541  0.4166 -0.2112
 1921SOL    HW2 7755   4.038   3.440   3.173 -2.2370 -3.1576  0.5969
 1921SOL    HW3 7756   3.934   3.485   3.072  0.7231  1.8107 -0.3628
 1921SOL    MW4 7757   4.007   3.442   3.092 -0.3133  0.1290 -0.1249
 1922SOL     OW 7758   4.245   3.573   2.995  0.0046 -0.1471 -0.2672
 1922SOL    HW2 7759   4.236   3.659   3.036 -0.0134  0.5213 -1.6093
 1922SOL    HW3 7760   4.160   3.532   3.005 -0.3551  0.4859 -0.6422
 1922SOL    MW4 7761   4.233   3.579   3.002 -0.0453  0.0243 -0.4938
 1923SOL     OW 7762   4.248   3.821   3.135 -0.3170 -0.3296 -0.0053
 1923SOL    HW2 7763   4.183   3.878   3.094  1.3616  1.3705 -0.4079
 1923SOL    HW3 7764   4.332   3.860   3.110  0.8446 -2.3793  0.6314
 1923SOL    MW4 7765   4.251   3.834   3.126  0.0582 -0.3755  0.0257
 1924SOL     OW 7766   4.066   3.994   2.999  0.3007 -0.1508  0.0470
 1924SOL    HW2 7767   4.081   4.079   3.040 -1.2519  0.2704 -0.2574
 1924SOL    HW3 7768   3.987   3.960   3.041  0.7254 -1.3099 -0.0540
 1924SOL    MW4 7769   4.058   4.000   3.010  0.1521 -0.2484 -0.0067
 1925SOL     OW 7770   4.045   4.277   3.113 -0.0870  0.2777 -0.0599
 1925SOL    HW2 7771   4.052   4.290   3.208  2.7072 -0.1201 -0.1805
 1925SOL    HW3 7772   4.122   4.320   3.077 -1.3758  0.8281 -2.2099
 1925SOL    MW4 7773   4.056   4.284   3.121  0.1111  0.2980 -0.3598
 1926SOL     OW 7774   4.267   4.366   3.003  0.1653  0.1377  0.3084
 1926SOL    HW2 7775   4.352   4.324   3.016 -0.3339 -0.9979 -0.1148
 1926SOL    HW3 7776   4.253   4.366   2.909 -0.3486  0.2559  0.3811
 1926SOL    MW4 7777   4.276   4.361   2.992  0.0310  0.0033  0.2620
 1927SOL     OW 7778   0.215   4.632   3.428  0.2610  0.1821 -0.0867
 1927SOL    HW2 7779   0.293   4.668   3.470  0.0659 -0.2194  0.6088
 1927SOL    HW3 7780   0.221   4.538   3.442 -2.4259  0.4597  3.5432
 1927SOL    MW4 7781   0.226   4.625   3.435 -0.1193  0.1659  0.4840
 1928SOL     OW 7782   4.460   0.054   3.577 -0.1046 -0.2097 -0.3451
 1928SOL    HW2 7783   4.463   0.131   3.521 -1.8261  0.3529  0.3114
 1928SOL    HW3 7784   4.533   0.000   3.547  0.9085  1.5123 -1.0351
 1928SOL    MW4 7785   4.470   0.057   3.566 -0.1980  0.0918 -0.3495
 1929SOL     OW 7786   4.486   0.300   3.463  0.4572 -0.3312 -0.2038
 1929SOL    HW2 7787   4.407   0.346   3.489  0.0061 -1.0869 -0.2385
 1929SOL    HW3 7788   4.557   0.360   3.485 -0.1000  0.1908  0.1702
 1929SOL    MW4 7789   4.485   0.314   3.469  0.3242 -0.3620 -0.1590
 1930SOL     OW 7790   0.220   0.461   3.502  0.0698  0.1026 -0.5594
 1930SOL    HW2 7791   0.285   0.414   3.451  1.1010  2.1467 -1.1807
 1930SOL    HW3 7792   0.217   0.548   3.463 -0.7270  1.0250  1.4680
 1930SOL    MW4 7793   0.228   0.466   3.490  0.1007  0.4940 -0.3738
 1931SOL     OW 7794   0.226   0.710   3.389 -0.6454  0.1535 -0.5630
 1931SOL    HW2 7795   0.304   0.755   3.419 -0.4141  0.4345 -1.5570
 1931SOL    HW3 7796   0.154   0.748   3.440 -0.4463  1.5889 -1.3257
 1931SOL    MW4 7797   0.226   0.721   3.399 -0.5886  0.3800 -0.7946
 1932SOL     OW 7798   0.013   0.850   3.492  0.7478  0.5558 -0.8281
 1932SOL    HW2 7799   0.013   0.845   3.588 -1.1562 -0.6982 -0.8483
 1932SOL    HW3 7800  -0.001   0.943   3.473 -0.6009  0.5765  0.1563
 1932SOL    MW4 7801   0.011   0.862   3.502  0.3190  0.3931 -0.7007
 1933SOL     OW 7802   4.470   1.111   3.401  0.0443  0.4589  0.2003
 1933SOL    HW2 7803   4.555   1.140   3.435  0.2665 -0.7635  0.7267
 1933SOL    HW3 7804   4.477   1.123   3.306  0.5402  1.0527  0.3121
 1933SOL    MW4 7805   4.482   1.116   3.393  0.1388  0.3760  0.2844
 1934SOL     OW 7806   0.217   1.262   3.465  0.4686  0.0311 -0.4925
 1934SOL    HW2 7807   0.306   1.226   3.458  1.0935  1.4091  0.2180
 1934SOL    HW3 7808   0.229   1.357   3.465 -0.9294  0.2308  0.5836
 1934SOL    MW4 7809   0.230   1.270   3.464  0.3666  0.2391 -0.2570
 1935SOL     OW 7810   0.214   1.533   3.423 -0.0579 -0.3037 -0.4076
 1935SOL    HW2 7811   0.286   1.593   3.442 -0.4452 -0.0750  0.3933
 1935SOL    HW3 7812   0.213   1.525   3.328  1.0542 -0.3488 -0.4184
 1935SOL    MW4 7813   0.223   1.540   3.413  0.0377 -0.2794 -0.3033
 1936SOL     OW 7814   4.481   1.711   3.497  0.2083 -0.0061  0.3316
 1936SOL    HW2 7815   4.406   1.656   3.475 -0.2247  0.7529 -0.1070
 1936SOL    HW3 7816   4.557   1.660   3.469 -0.1810 -0.4080 -0.0038
 1936SOL    MW4 7817   4.481   1.697   3.490  0.0997  0.0410  0.2296
 1937SOL     OW 7818   4.474   1.967   3.367 -0.2070  0.1949 -0.4678
 1937SOL    HW2 7819   4.479   1.884   3.414 -1.5529 -0.1304 -0.8949
 1937SOL    HW3 7820   4.472   1.942   3.274 -0.8700  0.6926 -0.5889
 1937SOL    MW4 7821   4.475   1.953   3.361 -0.4721  0.2177 -0.5400
 1938SOL     OW 7822   0.238   2.027   3.445  0.6141  0.6247 -0.0330
 1938SOL    HW2 7823   0.228   2.014   3.539  0.2174  0.9191 -0.0338
 1938SOL    HW3 7824   0.154   2.000   3.408  0.6470  0.8496 -0.2685
 1938SOL    MW4 7825   0.225   2.022   3.453  0.5661  0.6933 -0.0641
 1939SOL     OW 7826   0.214   2.307   3.381  0.2154  0.0384  0.3410
 1939SOL    HW2 7827   0.136   2.325   3.434 -1.3185 -0.2372 -1.7450
 1939SOL    HW3 7828   0.228   2.213   3.392 -0.2319 -0.0608  0.0959
 1939SOL    MW4 7829   0.205   2.297   3.390 -0.0460 -0.0112  0.0334
 1940SOL     OW 7830   0.015   2.425   3.528  0.3220 -0.1279 -0.6214
 1940SOL    HW2 7831  -0.002   2.404   3.619  1.1544  1.6735 -0.0279
 1940SOL    HW3 7832  -0.063   2.396   3.481  0.0308 -1.3739  0.6017
 1940SOL    MW4 7833   0.003   2.418   3.533  0.3934 -0.0548 -0.3815
 1941SOL     OW 7834   0.027   2.659   3.409  0.2562 -0.2852 -0.0728
 1941SOL    HW2 7835   0.099   2.713   3.440  0.7434 -0.3238 -1.1325
 1941SOL    HW3 7836   0.021   2.588   3.473  0.5463  0.2296  0.5309
 1941SOL    MW4 7837   0.036   2.657   3.422  0.3586 -0.2222 -0.1330
 1942SOL     OW 7838   0.223   2.833   3.517 -0.2283  0.8126  0.2252
 1942SOL    HW2 7839   0.299   2.784   3.485  0.0810  1.8319 -0.6673
 1942SOL    HW3 7840   0.223   2.913   3.463 -1.8509  0.8817  0.3135
 1942SOL    MW4 7841   0.233   2.837   3.505 -0.4016  0.9561  0.1190
 1943SOL     OW 7842   0.247   3.077   3.367  0.7936  0.0203 -0.1778
 1943SOL    HW2 7843   0.162   3.113   3.395  0.0662 -1.8902  0.1664
 1943SOL    HW3 7844   0.233   3.051   3.276  0.9758 -0.3977 -0.0865
 1943SOL    MW4 7845   0.234   3.078   3.359  0.7217 -0.2868 -0.1206
 1944SOL     OW 7846   0.004   3.198   3.455  0.3376 -0.3000 -0.5250
 1944SOL    HW2 7847  -0.014   3.185   3.548  1.0347  0.5352 -0.2650
 1944SOL    HW3 7848   0.014   3.293   3.446  1.5844 -0.4828 -1.1943
 1944SOL    MW4 7849   0.003   3.209   3.466  0.5941 -0.2136 -0.5791
 1945SOL     OW 7850   4.485   3.476   3.384 -0.0482 -0.2033 -0.5127
 1945SOL    HW2 7851   4.418   3.531   3.423 -1.5985 -1.1295 -1.8302
 1945SOL    HW3 7852   4.483   3.498   3.291  1.4227 -0.2950 -0.5775
 1945SOL    MW4 7853   4.476   3.486   3.377 -0.0586 -0.3378 -0.6952
 1946SOL     OW 7854   0.247   3.595   3.439 -0.4286  0.2935 -0.6357
 1946SOL    HW2 7855   0.224   3.600   3.532 -0.5038 -2.0098 -0.4923
 1946SOL    HW3 7856   0.171   3.555   3.398 -0.8034  2.2221 -1.8958
 1946SOL    MW4 7857   0.234   3.590   3.446 -0.4880  0.2439 -0.7832
 1947SOL     OW 7858   0.214   3.876   3.370  0.0697 -0.0832 -0.3119
 1947SOL    HW2 7859   0.140   3.895   3.427 -1.5940 -1.9524 -1.7909
 1947SOL    HW3 7860   0.228   3.782   3.379  1.9669  0.1590 -0.4333
 1947SOL    MW4 7861   0.206   3.866   3.379  0.1005 -0.2978 -0.5231
 1948SOL     OW 7862   4.487   3.993   3.503 -0.1803 -0.5170  0.4012
 1948SOL    HW2 7863   4.476   4.001   3.597 -0.2992 -0.4505  0.3812
 1948SOL    HW3 7864   4.483   4.082   3.470  0.1146 -0.5178  0.3595
 1948SOL    MW4 7865   4.485   4.006   3.511 -0.1574 -0.5083  0.3929
 1949SOL     OW 7866   4.467   4.239   3.381  0.1320  0.6428  0.3410
 1949SOL    HW2 7867   4.404   4.276   3.443 -0.5805  1.2201 -0.6982
 1949SOL    HW3 7868   4.552   4.267   3.414 -0.2921  1.6889  0.5864
 1949SOL    MW4 7869   4.470   4.248   3.393 -0.0181  0.8569  0.2360
 1950SOL     OW 7870   0.231   4.361   3.478 -0.4664  0.0136  0.3536
 1950SOL    HW2 7871   0.233   4.386   3.570 -0.8578 -0.0587  0.3796
 1950SOL    HW3 7872   0.318   4.323   3.462 -0.4671 -0.1514  0.7361
 1950SOL    MW4 7873   0.243   4.360   3.488 -0.5182 -0.0176  0.4072
 1951SOL     OW 7874   0.690   0.007   3.396  0.0811 -0.4478 -0.4934
 1951SOL    HW2 7875   0.768   0.051   3.431  0.1792 -1.1536  0.1859
 1951SOL    HW3 7876   0.703   0.008   3.301  0.3734  0.4489 -0.4536
 1951SOL    MW4 7877   0.702   0.013   3.388  0.1326 -0.4220 -0.3986
 1952SOL     OW 7878   0.453   0.067   3.526  0.6695  0.2307  0.2880
 1952SOL    HW2 7879   0.471   0.079   3.619  1.2548  1.2541  0.0543
 1952SOL    HW3 7880   0.533   0.030   3.490  1.1565  1.6897 -0.1588
 1952SOL    MW4 7881   0.466   0.064   3.533  0.8110  0.5582  0.1981
 1953SOL     OW 7882   0.452   0.335   3.407 -0.2685 -0.4434 -0.1154
 1953SOL    HW2 7883   0.527   0.378   3.447 -0.0308 -1.1939  0.2537
 1953SOL    HW3 7884   0.452   0.247   3.444 -0.7119 -0.7848 -0.9081
 1953SOL    MW4 7885   0.462   0.329   3.417 -0.2957 -0.5875 -0.1714
 1954SOL     OW 7886   0.642   0.507   3.526 -0.2544  0.7140  0.1985
 1954SOL    HW2 7887   0.658   0.493   3.619 -0.3509  0.5297  0.1891
 1954SOL    HW3 7888   0.723   0.480   3.482  0.0263  1.4320  0.2785
 1954SOL    MW4 7889   0.655   0.501   3.532 -0.2301  0.7844  0.2074
 1955SOL     OW 7890   0.639   0.746   3.401 -0.1704 -0.2523  0.1554
 1955SOL    HW2 7891   0.562   0.792   3.435  0.1236  0.7532 -0.4921
 1955SOL    HW3 7892   0.639   0.662   3.446 -0.2209  0.7428  2.0545
 1955SOL    MW4 7893   0.629   0.741   3.411 -0.1382  0.0117  0.3204
 1956SOL     OW 7894   0.407   0.881   3.512 -0.5693  0.0941 -0.3151
 1956SOL    HW2 7895   0.413   0.877   3.608 -0.4428 -0.4392 -0.3384
 1956SOL    HW3 7896   0.425   0.972   3.490 -0.9490  0.2938  0.1946
 1956SOL    MW4 7897   0.410   0.892   3.522 -0.6027  0.0502 -0.2508
 1957SOL     OW 7898   0.471   1.120   3.443  0.2036 -0.1030 -0.2480
 1957SOL    HW2 7899   0.553   1.164   3.466  1.0065 -1.7737  0.2300
 1957SOL    HW3 7900   0.479   1.101   3.350  0.2940 -0.1409 -0.2325
 1957SOL    MW4 7901   0.483   1.123   3.434  0.3215 -0.3285 -0.1829
 1958SOL     OW 7902   0.682   1.308   3.513 -0.0983 -0.3151  0.0703
 1958SOL    HW2 7903   0.753   1.262   3.470  0.6421  1.7999 -1.0382
 1958SOL    HW3 7904   0.672   1.389   3.463 -2.8218 -0.2595  0.6323
 1958SOL    MW4 7905   0.690   1.313   3.501 -0.3600 -0.0288 -0.0019
 1959SOL     OW 7906   0.664   1.534   3.350  0.0506 -0.1605 -0.2161
 1959SOL    HW2 7907   0.743   1.569   3.392  0.1847 -1.3900  0.5959
 1959SOL    HW3 7908   0.593   1.586   3.386  0.4683  0.8086 -0.7807
 1959SOL    MW4 7909   0.665   1.545   3.360  0.1233 -0.1948 -0.1833
 1960SOL     OW 7910   0.443   1.685   3.472 -0.3734 -0.1737 -0.1277
 1960SOL    HW2 7911   0.444   1.703   3.566 -0.5114 -1.1680  0.0746
 1960SOL    HW3 7912   0.438   1.771   3.431  2.0217  0.4360  0.7229
 1960SOL    MW4 7913   0.443   1.699   3.479 -0.0756 -0.2245  0.0110
 1961SOL     OW 7914   0.477   1.926   3.357 -0.2851 -0.0130 -0.0056
 1961SOL    HW2 7915   0.400   1.975   3.384 -1.0045 -0.8302 -0.5754
 1961SOL    HW3 7916   0.459   1.901   3.266 -0.2603 -1.9991  0.5209
 1961SOL    MW4 7917   0.465   1.930   3.348 -0.3767 -0.3828 -0.0114
 1962SOL     OW 7918   0.673   2.075   3.480 -0.1522 -0.3152  0.0670
 1962SOL    HW2 7919   0.660   2.042   3.569  0.7258 -1.1497 -0.1053
 1962SOL    HW3 7920   0.609   2.028   3.427 -0.5654  0.0641  0.2224
 1962SOL    MW4 7921   0.663   2.065   3.485 -0.0908 -0.3753  0.0651
 1963SOL     OW 7922   0.670   2.331   3.367 -0.1557  0.3408  0.3608
 1963SOL    HW2 7923   0.737   2.392   3.397  1.6238 -1.3617 -0.0234
 1963SOL    HW3 7924   0.693   2.248   3.410 -0.4861 -0.8979 -1.7877
 1963SOL    MW4 7925   0.682   2.328   3.377  0.0355 -0.0474  0.0265
 1964SOL     OW 7926   0.456   2.447   3.480  0.1547 -0.0940 -0.0261
 1964SOL    HW2 7927   0.523   2.387   3.447 -0.2246 -0.6980  0.2796
 1964SOL    HW3 7928   0.373   2.407   3.453 -0.1150  0.1096  0.4841
 1964SOL    MW4 7929   0.454   2.434   3.472  0.0691 -0.1469  0.0815
 1965SOL     OW 7930   0.435   2.713   3.391  0.0457  0.4641  0.3476
 1965SOL    HW2 7931   0.445   2.622   3.422 -0.6638  1.0172  2.2677
 1965SOL    HW3 7932   0.424   2.704   3.297 -1.0685 -1.5397  0.6298
 1965SOL    MW4 7933   0.435   2.700   3.383 -0.1949  0.2730  0.6380
 1966SOL     OW 7934   0.669   2.844   3.449  0.0718 -0.1470 -0.3350
 1966SOL    HW2 7935   0.744   2.808   3.403 -1.5636 -0.8117 -2.5719
 1966SOL    HW3 7936   0.595   2.791   3.419 -1.5809  1.7061  0.3749
 1966SOL    MW4 7937   0.669   2.832   3.439 -0.3621  0.0098 -0.5364
 1967SOL     OW 7938   0.662   3.111   3.377  0.1586 -0.0412  0.4623
 1967SOL    HW2 7939   0.588   3.149   3.424  0.6377  0.4888  0.7875
 1967SOL    HW3 7940   0.652   3.016   3.390 -0.1559  0.0598  0.9572
 1967SOL    MW4 7941   0.651   3.103   3.385  0.1802  0.0422  0.5703
 1968SOL     OW 7942   0.438   3.246   3.456  0.6077  0.6776 -0.3680
 1968SOL    HW2 7943   0.438   3.222   3.549  1.6945  2.3906  0.0829
 1968SOL    HW3 7944   0.369   3.191   3.418 -0.2296  0.3546  1.5400
 1968SOL    MW4 7945   0.429   3.235   3.463  0.6406  0.8607 -0.0567
 1969SOL     OW 7946   0.468   3.488   3.325 -0.5058  0.8251  0.2760
 1969SOL    HW2 7947   0.459   3.401   3.363 -0.7935  0.4271 -0.6855
 1969SOL    HW3 7948   0.398   3.540   3.366 -0.8636  0.3839  0.2242
 1969SOL    MW4 7949   0.458   3.483   3.335 -0.5910  0.7145  0.1421
 1970SOL     OW 7950   0.680   3.608   3.465 -0.1432  0.4644 -0.2834
 1970SOL    HW2 7951   0.758   3.557   3.442 -0.3407  0.2314 -0.4396
 1970SOL    HW3 7952   0.608   3.562   3.423 -0.8141 -1.2181  2.5520
 1970SOL    MW4 7953   0.681   3.595   3.457 -0.2578  0.2117  0.0699
 1971SOL     OW 7954   0.668   3.878   3.362 -0.3972 -0.2354  0.1121
 1971SOL    HW2 7955   0.594   3.921   3.405 -2.1491 -2.0240 -1.0723
 1971SOL    HW3 7956   0.681   3.797   3.412  0.9278  0.1542  0.4389
 1971SOL    MW4 7957   0.660   3.873   3.374 -0.4535 -0.4201 -0.0010
 1972SOL     OW 7958   0.443   3.978   3.494  0.4672 -0.3886  0.2386
 1972SOL    HW2 7959   0.432   4.068   3.462  2.6419 -0.5902 -1.1899
 1972SOL    HW3 7960   0.365   3.932   3.462 -0.0537  0.7017 -0.0892
 1972SOL    MW4 7961   0.431   3.984   3.486  0.6854 -0.2713  0.0069
 1973SOL     OW 7962   0.486   4.281   3.412  0.2131 -0.1683  0.0338
 1973SOL    HW2 7963   0.568   4.322   3.441  0.2003 -0.0686 -0.0762
 1973SOL    HW3 7964   0.492   4.279   3.317  0.3735 -0.7439  0.0515
 1973SOL    MW4 7965   0.498   4.286   3.404  0.2326 -0.2308  0.0215
 1974SOL     OW 7966   0.705   4.399   3.513 -0.2255 -0.0121 -0.0362
 1974SOL    HW2 7967   0.783   4.361   3.472  1.0828  1.9944  0.4727
 1974SOL    HW3 7968   0.695   4.484   3.470 -2.2217 -0.3119 -0.1782
 1974SOL    MW4 7969   0.714   4.405   3.502 -0.3163  0.2127  0.0119
 1975SOL     OW 7970   1.122   0.024   3.451 -0.2445 -0.2984  0.5325
 1975SOL    HW2 7971   1.212   0.049   3.471 -0.2256  0.2030 -0.1480
 1975SOL    HW3 7972   1.117   0.025   3.355 -0.9524 -0.3974  0.5591
 1975SOL    MW4 7973   1.133   0.027   3.441 -0.3355 -0.2453  0.4463
 1976SOL     OW 7974   0.907   0.159   3.524  0.2883  0.0232 -0.0647
 1976SOL    HW2 7975   0.889   0.137   3.616  1.4645 -0.0105  0.1631
 1976SOL    HW3 7976   0.990   0.116   3.505 -0.3440 -0.6356 -1.4016
 1976SOL    MW4 7977   0.916   0.150   3.534  0.3600 -0.0682 -0.2112
 1977SOL     OW 7978   0.867   0.410   3.399 -0.0058 -0.2738  0.1513
 1977SOL    HW2 7979   0.948   0.448   3.434 -0.2876  0.7516 -0.3082
 1977SOL    HW3 7980   0.865   0.322   3.437  0.1934  0.4573  1.9330
 1977SOL    MW4 7981   0.878   0.403   3.409 -0.0167 -0.0420  0.3257
 1978SOL     OW 7982   1.121   0.493   3.504 -0.3693  0.0726  0.0654
 1978SOL    HW2 7983   1.118   0.506   3.598 -1.6846 -0.0077  0.0525
 1978SOL    HW3 7984   1.113   0.581   3.468 -2.3380 -0.0974  0.0266
 1978SOL    MW4 7985   1.119   0.506   3.511 -0.8026  0.0396  0.0587
 1979SOL     OW 7986   1.115   0.747   3.380  0.2833 -0.0933 -0.3340
 1979SOL    HW2 7987   1.187   0.798   3.416 -0.4687 -0.4172  1.7420
 1979SOL    HW3 7988   1.036   0.790   3.413 -0.3974 -1.3926 -0.2130
 1979SOL    MW4 7989   1.114   0.759   3.389  0.0942 -0.3074 -0.0443
 1980SOL     OW 7990   0.878   0.863   3.461 -0.2449  0.6145  0.4231
 1980SOL    HW2 7991   0.869   0.953   3.431  0.6364  0.5855  0.0406
 1980SOL    HW3 7992   0.793   0.822   3.443 -1.1184  1.7394  1.9120
 1980SOL    MW4 7993   0.866   0.869   3.455 -0.2438  0.7591  0.5689
 1981SOL     OW 7994   0.887   1.140   3.394 -0.0598 -0.3414  0.1741
 1981SOL    HW2 7995   0.972   1.181   3.406 -0.9695  1.7281 -0.2543
 1981SOL    HW3 7996   0.874   1.139   3.299  0.6760 -3.2094  0.0525
 1981SOL    MW4 7997   0.896   1.145   3.383 -0.0828 -0.4467  0.1013
 1982SOL     OW 7998   1.137   1.277   3.441 -0.4794  0.2298 -0.0921
 1982SOL    HW2 7999   1.131   1.275   3.536 -1.4346 -1.3477 -0.1689
 1982SOL    HW3 8000   1.132   1.370   3.418  0.1921  0.6454  1.4074
 1982SOL    MW4 8001   1.136   1.289   3.450 -0.5170  0.0765  0.0954
 1983SOL     OW 8002   0.888   1.920   3.382  0.5104 -0.0024 -0.3479
 1983SOL    HW2 8003   0.823   1.971   3.431  1.0036  0.3982 -0.1029
 1983SOL    HW3 8004   0.972   1.957   3.409  0.8432 -0.5907 -0.5855
 1983SOL    MW4 8005   0.890   1.932   3.392  0.6194 -0.0272 -0.3467
 1984SOL     OW 8006   0.886   1.646   3.485  0.2143  0.5596 -0.8981
 1984SOL    HW2 8007   0.895   1.736   3.454  0.9461  0.2728 -1.5421
 1984SOL    HW3 8008   0.960   1.600   3.444  0.6872 -0.0118  0.5864
 1984SOL    MW4 8009   0.897   1.652   3.475  0.3732  0.4463 -0.7873
 1985SOL     OW 8010   0.915   1.913   3.092  0.1092 -0.1883  0.6109
 1985SOL    HW2 8011   0.924   1.818   3.080  0.8042  0.0395 -0.6302
 1985SOL    HW3 8012   0.889   1.922   3.184  2.9459 -1.4043  1.5952
 1985SOL    MW4 8013   0.913   1.901   3.103  0.5752 -0.3185  0.5770
 1986SOL     OW 8014   1.124   2.051   3.460 -0.0732  0.1320  0.0231
 1986SOL    HW2 8015   1.199   2.016   3.413 -0.3352  0.2587 -0.4903
 1986SOL    HW3 8016   1.115   2.142   3.429  0.7370  0.7301  1.5071
 1986SOL    MW4 8017   1.132   2.059   3.450 -0.0008  0.2279  0.1512
 1987SOL     OW 8018   1.118   2.311   3.379  0.2622 -0.1258  0.0858
 1987SOL    HW2 8019   1.198   2.343   3.420  0.2335 -0.7857  0.6675
 1987SOL    HW3 8020   1.131   2.327   3.285  0.8788  0.1865  0.2215
 1987SOL    MW4 8021   1.130   2.317   3.372  0.3397 -0.1717  0.1805
 1988SOL     OW 8022   0.904   2.471   3.453 -0.1659 -0.3497 -0.3572
 1988SOL    HW2 8023   0.911   2.457   3.547 -1.4180  1.2880  0.0036
 1988SOL    HW3 8024   0.979   2.426   3.416 -0.3295 -2.0269  1.3173
 1988SOL    MW4 8025   0.915   2.463   3.461 -0.3527 -0.3552 -0.0887
 1989SOL     OW 8026   0.896   2.723   3.335  0.1132 -0.2563 -0.0422
 1989SOL    HW2 8027   0.974   2.761   3.375 -0.3296 -0.9460  1.5336
 1989SOL    HW3 8028   0.886   2.637   3.378 -0.5007 -0.9362 -1.5014
 1989SOL    MW4 8029   0.905   2.716   3.346 -0.0262 -0.4368 -0.0269
 1990SOL     OW 8030   1.112   2.815   3.480 -0.1755  0.4721  0.0647
 1990SOL    HW2 8031   1.100   2.813   3.575 -0.4084  1.3945  0.0574
 1990SOL    HW3 8032   1.198   2.774   3.466  0.1981  1.0055  0.7390
 1990SOL    MW4 8033   1.122   2.810   3.491 -0.1570  0.6640  0.1528
 1991SOL     OW 8034   1.128   3.057   3.359  0.1689  0.2534 -0.2337
 1991SOL    HW2 8035   1.122   2.968   3.394  0.4666 -0.1150 -1.1004
 1991SOL    HW3 8036   1.124   3.046   3.264 -2.0169  1.3613 -0.2987
 1991SOL    MW4 8037   1.127   3.044   3.351 -0.0802  0.3510 -0.3564
 1992SOL     OW 8038   0.923   3.215   3.468  0.0796  0.3294  0.1160
 1992SOL    HW2 8039   0.993   3.157   3.436  0.3530  0.3245  0.7235
 1992SOL    HW3 8040   0.843   3.179   3.431  0.6277  1.7298 -2.6160
 1992SOL    MW4 8041   0.922   3.203   3.459  0.1880  0.5136 -0.1643
 1993SOL     OW 8042   0.914   3.479   3.385  0.0024 -0.1095 -0.1682
 1993SOL    HW2 8043   0.927   3.387   3.406  0.2771  0.0173  0.2203
 1993SOL    HW3 8044   0.888   3.479   3.293 -0.3628 -0.6003 -0.0630
 1993SOL    MW4 8045   0.912   3.467   3.375 -0.0095 -0.1574 -0.1030
 1994SOL     OW 8046   1.152   3.579   3.470 -0.2167  0.2467  0.1801
 1994SOL    HW2 8047   1.150   3.588   3.565 -3.0188  0.8667  0.1134
 1994SOL    HW3 8048   1.063   3.553   3.447  0.8272 -1.4432 -2.1524
 1994SOL    MW4 8049   1.140   3.576   3.480 -0.4488  0.1056 -0.1366
 1995SOL     OW 8050   1.113   3.849   3.412  0.0072 -0.5374 -0.1735
 1995SOL    HW2 8051   1.191   3.897   3.440  0.0190 -0.3240 -0.5751
 1995SOL    HW3 8052   1.124   3.761   3.449  0.0226 -0.2534  0.4970
 1995SOL    MW4 8053   1.124   3.843   3.421  0.0107 -0.4718 -0.1380
 1996SOL     OW 8054   0.910   4.006   3.494  0.0422 -0.4090 -0.1301
 1996SOL    HW2 8055   0.972   3.944   3.456  0.4729 -0.0936  0.0484
 1996SOL    HW3 8056   0.826   3.982   3.457  0.3619 -0.4947 -0.8147
 1996SOL    MW4 8057   0.907   3.995   3.484  0.1411 -0.3786 -0.1972
 1997SOL     OW 8058   0.934   4.287   3.382 -0.0964  0.3893  0.0388
 1997SOL    HW2 8059   0.937   4.193   3.400 -0.3075  0.3056 -0.3674
 1997SOL    HW3 8060   0.939   4.294   3.287 -0.6954  0.7601  0.0323
 1997SOL    MW4 8061   0.935   4.275   3.372 -0.2033  0.4272 -0.0160
 1998SOL     OW 8062   1.156   4.420   3.477 -0.1326 -0.1123 -0.0319
 1998SOL    HW2 8063   1.084   4.374   3.436  0.9312 -0.9225 -1.0114
 1998SOL    HW3 8064   1.139   4.512   3.460 -0.6929 -0.3296 -0.6460
 1998SOL    MW4 8065   1.145   4.426   3.470 -0.0663 -0.2480 -0.2420
 1999SOL     OW 8066   1.570   4.656   3.374  0.2992  0.1702 -0.3841
 1999SOL    HW2 8067   1.549   4.570   3.411  1.3583 -0.2809 -0.8117
 1999SOL    HW3 8068   1.500   4.713   3.406 -0.6002 -0.9167 -0.3752
 1999SOL    MW4 8069   1.558   4.652   3.383  0.3203 -0.0324 -0.4394
 2000SOL     OW 8070   1.360   0.123   3.487  0.0638 -0.0564  0.1609
 2000SOL    HW2 8071   1.360   0.119   3.582  1.8789  0.5612  0.2098
 2000SOL    HW3 8072   1.350   0.216   3.467  0.8267 -0.0558 -0.2297
 2000SOL    MW4 8073   1.359   0.135   3.497  0.4040  0.0252  0.1159
 2001SOL     OW 8074   1.345   0.376   3.392 -0.0223  0.2303  0.3261
 2001SOL    HW2 8075   1.415   0.428   3.432  0.1124  0.9469 -0.8272
 2001SOL    HW3 8076   1.264   0.416   3.426  0.1025 -0.0268  0.9416
 2001SOL    MW4 8077   1.343   0.388   3.402  0.0119  0.2909  0.2553
 2002SOL     OW 8078   1.577   0.514   3.485 -0.1964 -0.0640 -0.1256
 2002SOL    HW2 8079   1.573   0.494   3.579 -0.9334 -0.5437 -0.2584
 2002SOL    HW3 8080   1.661   0.478   3.457  0.2215  0.4572  0.4382
 2002SOL    MW4 8081   1.587   0.506   3.494 -0.2384 -0.0586 -0.0687
 2003SOL     OW 8082   1.567   0.775   3.393  0.1159  0.0622  0.3839
 2003SOL    HW2 8083   1.489   0.821   3.424  0.7528  0.2355  1.7417
 2003SOL    HW3 8084   1.563   0.690   3.435 -0.0226 -0.4235 -0.5889
 2003SOL    MW4 8085   1.556   0.770   3.403  0.1816  0.0210  0.4346
 2004SOL     OW 8086   1.330   0.881   3.509  0.6498  0.1477 -0.4238
 2004SOL    HW2 8087   1.351   0.892   3.601  1.6028 -1.8041 -0.3913
 2004SOL    HW3 8088   1.328   0.970   3.474  2.3207  0.7727  1.0267
 2004SOL    MW4 8089   1.333   0.894   3.516  0.9961 -0.0273 -0.2282
 2005SOL     OW 8090   1.368   1.141   3.398  0.6529  0.2433  0.0772
 2005SOL    HW2 8091   1.442   1.193   3.431  0.3130 -0.1754  1.5226
 2005SOL    HW3 8092   1.291   1.195   3.417  0.4426 -0.0635  0.0936
 2005SOL    MW4 8093   1.368   1.155   3.405  0.5804  0.1476  0.2701
 2006SOL     OW 8094   1.587   1.280   3.495 -0.3094 -0.2479 -0.0670
 2006SOL    HW2 8095   1.605   1.287   3.589 -1.1915  0.3281  0.0670
 2006SOL    HW3 8096   1.666   1.242   3.458  0.1168 -0.3049  0.8867
 2006SOL    MW4 8097   1.600   1.276   3.502 -0.3694 -0.1793  0.0768
 2007SOL     OW 8098   1.590   1.535   3.368  0.3730  0.0548 -0.4452
 2007SOL    HW2 8099   1.578   1.449   3.409  0.1470 -0.1257 -0.8832
 2007SOL    HW3 8100   1.652   1.581   3.425  1.6353 -0.9331 -0.9824
 2007SOL    MW4 8101   1.597   1.529   3.381  0.5096 -0.0995 -0.5736
 2008SOL     OW 8102   1.127   1.545   3.369 -0.0697  0.0645  0.0731
 2008SOL    HW2 8103   1.209   1.579   3.406 -0.1184  1.0421 -0.7104
 2008SOL    HW3 8104   1.145   1.531   3.277 -0.2573 -1.4334  0.2525
 2008SOL    MW4 8105   1.140   1.548   3.362 -0.1009 -0.0043 -0.0069
 2009SOL     OW 8106   1.352   1.660   3.474 -0.0362  0.2895  0.0805
 2009SOL    HW2 8107   1.366   1.690   3.564 -0.3141  2.1194 -0.4578
 2009SOL    HW3 8108   1.434   1.616   3.451  0.0163 -0.2498  1.2364
 2009SOL    MW4 8109   1.365   1.658   3.483 -0.0660  0.4598  0.1621
 2010SOL     OW 8110   1.368   1.925   3.372  0.2849  0.2144 -0.4997
 2010SOL    HW2 8111   1.354   1.836   3.403 -1.3262  0.5737 -0.1636
 2010SOL    HW3 8112   1.435   1.961   3.432 -0.3847 -0.1783  0.4908
 2010SOL    MW4 8113   1.375   1.918   3.384 -0.0161  0.2099 -0.3247
 2011SOL     OW 8114   1.572   2.050   3.497 -0.0811  0.5398  0.3991
 2011SOL    HW2 8115   1.551   2.122   3.438  0.6966  0.7307  0.3513
 2011SOL    HW3 8116   1.654   2.014   3.464 -0.9097 -0.9418 -0.1104
 2011SOL    MW4 8117   1.580   2.054   3.485 -0.0879  0.3693  0.3254
 2012SOL     OW 8118   1.333   2.456   3.473 -0.3083  0.2588 -0.2570
 2012SOL    HW2 8119   1.353   2.451   3.567 -0.3815 -0.7734 -0.2959
 2012SOL    HW3 8120   1.344   2.549   3.452 -1.0438  0.6356  0.9418
 2012SOL    MW4 8121   1.337   2.468   3.483 -0.4150  0.1726 -0.1037
 2013SOL     OW 8122   1.356   2.717   3.390  0.1380  0.1010  0.2248
 2013SOL    HW2 8123   1.441   2.741   3.427  0.4322 -0.7963  0.1464
 2013SOL    HW3 8124   1.372   2.712   3.296  0.1976 -0.8208  0.2746
 2013SOL    MW4 8125   1.370   2.719   3.383  0.1848 -0.1390  0.2210
 2014SOL     OW 8126   1.587   2.854   3.478 -0.2009  0.2532  0.1292
 2014SOL    HW2 8127   1.664   2.806   3.448 -0.9237 -0.7160 -0.1805
 2014SOL    HW3 8128   1.589   2.935   3.427  0.2225 -0.0801 -0.3947
 2014SOL    MW4 8129   1.597   2.859   3.468 -0.2404  0.0813  0.0191
 2015SOL     OW 8130   1.582   3.107   3.348 -0.1413  0.4963  0.4675
 2015SOL    HW2 8131   1.645   3.135   3.415 -0.9518 -1.9432  2.3245
 2015SOL    HW3 8132   1.498   3.142   3.378 -0.4446 -0.2801  0.5224
 2015SOL    MW4 8133   1.580   3.116   3.361 -0.2882  0.0720  0.7198
 2016SOL     OW 8134   1.350   3.196   3.473 -0.2667  0.4053  0.2508
 2016SOL    HW2 8135   1.349   3.170   3.566 -0.6362 -1.6740 -0.3182
 2016SOL    HW3 8136   1.272   3.155   3.436  0.3237  0.5353 -1.1731
 2016SOL    MW4 8137   1.340   3.187   3.481 -0.2376  0.1483 -0.0124
 2017SOL     OW 8138   1.356   3.440   3.342  0.2890  0.1208  0.4808
 2017SOL    HW2 8139   1.352   3.353   3.384  1.1861 -0.3388 -0.3566
 2017SOL    HW3 8140   1.293   3.493   3.391  0.2249 -0.8192  1.4419
 2017SOL    MW4 8141   1.347   3.435   3.354  0.3990 -0.0637  0.4971
 2018SOL     OW 8142   1.584   3.555   3.459 -0.2116 -0.0926 -0.0128
 2018SOL    HW2 8143   1.576   3.566   3.553  0.6871  1.9661 -0.1557
 2018SOL    HW3 8144   1.495   3.532   3.430 -0.9104  1.1618  1.0850
 2018SOL    MW4 8145   1.571   3.553   3.467 -0.1851  0.3448  0.1132
 2019SOL     OW 8146   1.553   3.841   3.372 -0.2836 -0.1487 -0.4137
 2019SOL    HW2 8147   1.557   3.746   3.382  0.4212 -0.2376 -1.4056
 2019SOL    HW3 8148   1.576   3.856   3.280 -3.5729  0.7711 -1.1479
 2019SOL    MW4 8149   1.557   3.830   3.361 -0.6245 -0.0391 -0.6416
 2020SOL     OW 8150   1.332   3.975   3.498  0.0133  0.5893 -0.3061
 2020SOL    HW2 8151   1.339   4.060   3.454  1.8404  1.3012  1.2697
 2020SOL    HW3 8152   1.417   3.933   3.482  0.5442  0.6625  2.0567
 2020SOL    MW4 8153   1.344   3.981   3.490  0.3242  0.6926  0.2136
 2021SOL     OW 8154   1.323   4.230   3.396 -0.3754 -0.3469 -0.5250
 2021SOL    HW2 8155   1.278   4.311   3.421  0.9558  0.9207 -2.0699
 2021SOL    HW3 8156   1.316   4.229   3.300 -0.7886 -2.3141 -0.4781
 2021SOL    MW4 8157   1.316   4.241   3.386 -0.2542 -0.4392 -0.7226
 2022SOL     OW 8158   1.533   4.382   3.509  0.0011  0.1638  0.0619
 2022SOL    HW2 8159   1.611   4.333   3.484 -0.1369 -0.0217 -0.0110
 2022SOL    HW3 8160   1.460   4.327   3.480 -0.1556  0.4947 -0.1851
 2022SOL    MW4 8161   1.534   4.368   3.502 -0.0378  0.1826  0.0198
 2023SOL     OW 8162   2.026   4.633   3.418  0.0598  0.2121 -0.0958
 2023SOL    HW2 8163   2.094   4.696   3.439 -0.6360  1.1193 -0.5640
 2023SOL    HW3 8164   1.945   4.672   3.449 -0.4000 -0.3705 -0.5277
 2023SOL    MW4 8165   2.024   4.646   3.424 -0.0930  0.2546 -0.2146
 2024SOL     OW 8166   1.799   0.114   3.510  0.3466 -0.0608  0.4429
 2024SOL    HW2 8167   1.802   0.111   3.606 -1.3267 -0.0595  0.5045
 2024SOL    HW3 8168   1.714   0.078   3.488  0.8587 -0.3443 -1.0694
 2024SOL    MW4 8169   1.788   0.109   3.520  0.1934 -0.0980  0.2515
 2025SOL     OW 8170   1.823   0.386   3.406  0.2022  0.1141  0.6654
 2025SOL    HW2 8171   1.808   0.297   3.437  0.1036  0.3768  1.3937
 2025SOL    HW3 8172   1.805   0.383   3.312  0.2063 -0.6316  0.6905
 2025SOL    MW4 8173   1.818   0.374   3.398  0.1898  0.0504  0.7646
 2026SOL     OW 8174   2.041   0.536   3.489  0.0158  0.2354  0.0851
 2026SOL    HW2 8175   2.035   0.631   3.477  0.3566  0.1459 -0.8285
 2026SOL    HW3 8176   1.960   0.501   3.452  0.1445  0.1289 -0.1010
 2026SOL    MW4 8177   2.030   0.544   3.483  0.0777  0.2095 -0.0598
 2027SOL     OW 8178   2.021   0.803   3.397 -0.5956  0.3960 -0.4129
 2027SOL    HW2 8179   2.110   0.827   3.425 -0.4389 -0.3405 -0.2699
 2027SOL    HW3 8180   2.029   0.786   3.303 -0.1274 -1.7446 -0.0147
 2027SOL    MW4 8181   2.034   0.804   3.389 -0.5131  0.0165 -0.3414
 2028SOL     OW 8182   1.779   0.909   3.500  0.4639 -0.1161 -0.5565
 2028SOL    HW2 8183   1.859   0.868   3.467  0.1466 -1.6413  0.5080
 2028SOL    HW3 8184   1.708   0.867   3.451  0.3214  1.7064 -1.9777
 2028SOL    MW4 8185   1.780   0.898   3.489  0.4032 -0.0769 -0.6037
 2029SOL     OW 8186   1.795   1.161   3.371 -0.2032 -0.5190 -0.3273
 2029SOL    HW2 8187   1.883   1.192   3.393  0.1936 -0.4436 -1.9208
 2029SOL    HW3 8188   1.784   1.081   3.422  0.5075 -0.1375  0.4344
 2029SOL    MW4 8189   1.805   1.155   3.380 -0.0569 -0.4588 -0.4370
 2030SOL     OW 8190   2.057   1.249   3.462 -0.1668 -0.2669  0.3961
 2030SOL    HW2 8191   2.039   1.257   3.556  1.7056  0.8014  0.6846
 2030SOL    HW3 8192   2.060   1.339   3.431  3.2822 -0.4374  0.1218
 2030SOL    MW4 8193   2.055   1.262   3.470  0.5350 -0.1483  0.3984
 2031SOL     OW 8194   2.037   1.540   3.406  0.2759  0.0569  0.4324
 2031SOL    HW2 8195   2.097   1.609   3.434  1.7036 -1.8510  2.3043
 2031SOL    HW3 8196   1.951   1.570   3.433  0.3900  2.6927 -1.9811
 2031SOL    MW4 8197   2.034   1.553   3.413  0.4792  0.1528  0.3610
 2032SOL     OW 8198   1.797   1.673   3.506 -0.0834  0.0529 -0.2592
 2032SOL    HW2 8199   1.794   1.672   3.602  0.3492 -0.4226 -0.2443
 2032SOL    HW3 8200   1.803   1.765   3.482 -0.2835  0.1766  0.1680
 2032SOL    MW4 8201   1.797   1.685   3.515 -0.0527  0.0066 -0.2007
 2033SOL     OW 8202   1.812   1.940   3.413  0.6268 -0.2806  0.0509
 2033SOL    HW2 8203   1.884   1.979   3.462 -0.6171  1.1836  0.7443
 2033SOL    HW3 8204   1.839   1.947   3.321  1.7713 -0.5924  0.3596
 2033SOL    MW4 8205   1.825   1.946   3.407  0.6138 -0.1286  0.1831
 2034SOL     OW 8206   2.027   2.062   3.555 -0.2482  0.0833 -0.3593
 2034SOL    HW2 8207   2.095   2.020   3.501 -0.8590 -0.4603 -0.7034
 2034SOL    HW3 8208   2.008   2.144   3.510  0.1643  0.2274 -0.2751
 2034SOL    MW4 8209   2.034   2.067   3.542 -0.2744  0.0308 -0.3934
 2035SOL     OW 8210   1.970   2.323   3.431 -0.0855 -0.2406  0.2453
 2035SOL    HW2 8211   2.045   2.366   3.472 -0.4666  0.1045  0.5848
 2035SOL    HW3 8212   1.972   2.351   3.340 -0.3867  0.5745  0.4855
 2035SOL    MW4 8213   1.980   2.332   3.424 -0.1755 -0.0875  0.3216
 2036SOL     OW 8214   1.737   2.444   3.495  0.2121 -0.1753 -0.3606
 2036SOL    HW2 8215   1.825   2.408   3.484  0.3961  0.5735 -1.4291
 2036SOL    HW3 8216   1.680   2.384   3.448  0.1692 -0.5960  0.2301
 2036SOL    MW4 8217   1.741   2.432   3.487  0.2306 -0.1318 -0.4237
 2037SOL     OW 8218   1.804   2.687   3.392 -0.5642 -0.1610 -0.1893
 2037SOL    HW2 8219   1.891   2.707   3.427 -0.4552  0.0290 -0.5699
 2037SOL    HW3 8220   1.783   2.602   3.429 -0.3564 -0.0582  0.1722
 2037SOL    MW4 8221   1.813   2.679   3.402 -0.5225 -0.1223 -0.1919
 2038SOL     OW 8222   2.025   2.849   3.476  0.5275 -0.1160  0.2832
 2038SOL    HW2 8223   2.048   2.874   3.566 -0.8915 -1.2647  0.9848
 2038SOL    HW3 8224   2.015   2.933   3.430  0.5377  0.5003  1.3759
 2038SOL    MW4 8225   2.027   2.864   3.482  0.3417 -0.1864  0.5198
 2039SOL     OW 8226   2.025   3.100   3.370  0.1460  0.0101  0.0597
 2039SOL    HW2 8227   2.108   3.133   3.406 -0.0791  0.5580  0.0780
 2039SOL    HW3 8228   1.958   3.139   3.425 -0.1775  0.4657 -0.6516
 2039SOL    MW4 8229   2.027   3.109   3.382  0.0734  0.1423 -0.0317
 2040SOL     OW 8230   1.793   3.197   3.509  0.0709 -0.2739  0.6369
 2040SOL    HW2 8231   1.809   3.208   3.603  0.1943 -0.8958  0.6869
 2040SOL    HW3 8232   1.791   3.287   3.475 -0.7558 -0.0123  1.3604
 2040SOL    MW4 8233   1.795   3.210   3.517 -0.0219 -0.3214  0.7391
 2041SOL     OW 8234   1.832   3.442   3.364 -0.0193 -0.1892  0.6274
 2041SOL    HW2 8235   1.743   3.468   3.385 -1.1282 -4.1314  1.2141
 2041SOL    HW3 8236   1.833   3.435   3.268  0.1625  1.4639  0.5013
 2041SOL    MW4 8237   1.820   3.444   3.354 -0.1416 -0.4914  0.6881
 2042SOL     OW 8238   2.027   3.589   3.495 -0.0455  0.1586  0.3373
 2042SOL    HW2 8239   2.109   3.559   3.455 -0.6254 -0.0399 -0.7149
 2042SOL    HW3 8240   1.960   3.534   3.457 -0.8267  1.1490  0.2517
 2042SOL    MW4 8241   2.029   3.578   3.485 -0.2251  0.2632  0.1872
 2043SOL     OW 8242   2.051   3.849   3.415  0.4434  0.6820 -0.0941
 2043SOL    HW2 8243   1.986   3.900   3.464  1.3926  1.0702  0.7652
 2043SOL    HW3 8244   2.037   3.759   3.444  1.1332  0.9357  1.0556
 2043SOL    MW4 8245   2.040   3.844   3.425  0.6597  0.7665  0.1712
 2044SOL     OW 8246   1.795   3.959   3.494 -0.0764 -0.1948  0.8545
 2044SOL    HW2 8247   1.777   3.985   3.585 -1.0113  0.1586  0.5638
 2044SOL    HW3 8248   1.722   3.903   3.470  0.3910 -0.6292  0.4560
 2044SOL    MW4 8249   1.783   3.955   3.503 -0.1382 -0.2055  0.7634
 2045SOL     OW 8250   1.747   4.210   3.387  0.0638 -0.4076 -0.3403
 2045SOL    HW2 8251   1.760   4.115   3.395 -0.1735 -0.6211 -2.3166
 2045SOL    HW3 8252   1.744   4.226   3.293 -1.7708  1.3131 -0.0309
 2045SOL    MW4 8253   1.748   4.199   3.376 -0.2095 -0.2084 -0.5605
 2046SOL     OW 8254   2.014   4.378   3.510  0.4266  0.2030  0.3769
 2046SOL    HW2 8255   1.934   4.337   3.477  0.0993  0.3082  1.0336
 2046SOL    HW3 8256   2.016   4.464   3.469  1.1749 -0.4976 -1.1014
 2046SOL    MW4 8257   2.004   4.384   3.500  0.4823  0.1245  0.2687
 2047SOL     OW 8258   2.460   4.651   3.386 -0.1127  0.2662 -0.3183
 2047SOL    HW2 8259   2.445   4.567   3.430  0.3113 -0.3789 -1.3814
 2047SOL    HW3 8260   2.482   4.627   3.296  1.8414  1.4370 -0.1811
 2047SOL    MW4 8261   2.461   4.637   3.380  0.2012  0.3357 -0.4404
 2048SOL     OW 8262   2.244   0.136   3.483  0.1018 -0.3430 -0.1371
 2048SOL    HW2 8263   2.236   0.226   3.450  0.2599 -0.3230 -0.1186
 2048SOL    HW3 8264   2.320   0.101   3.437 -0.4772 -0.7467 -0.7975
 2048SOL    MW4 8265   2.253   0.143   3.472  0.0465 -0.3937 -0.2220
 2049SOL     OW 8266   2.255   0.396   3.391  0.2482 -0.2788  0.1168
 2049SOL    HW2 8267   2.332   0.433   3.434  0.0144  0.4013 -0.0438
 2049SOL    HW3 8268   2.182   0.447   3.425  0.0274  0.0542 -0.8255
 2049SOL    MW4 8269   2.256   0.408   3.401  0.1881 -0.1451 -0.0286
 2050SOL     OW 8270   2.475   0.526   3.541  0.2598 -0.4215  0.0532
 2050SOL    HW2 8271   2.548   0.469   3.516  0.3723  0.3608 -1.4774
 2050SOL    HW3 8272   2.489   0.606   3.492 -1.5272 -0.1875 -0.1212
 2050SOL    MW4 8273   2.486   0.529   3.531  0.0389 -0.2874 -0.1717
 2051SOL     OW 8274   2.475   0.763   3.424  0.0791 -0.5042  0.1550
 2051SOL    HW2 8275   2.556   0.807   3.452 -0.7347  1.1576 -0.0501
 2051SOL    HW3 8276   2.482   0.759   3.328 -0.7192  0.9376  0.0250
 2051SOL    MW4 8277   2.487   0.768   3.415 -0.1335 -0.0947  0.1106
 2052SOL     OW 8278   2.256   0.890   3.528  0.2186  0.3704 -0.6510
 2052SOL    HW2 8279   2.254   0.975   3.485 -0.8965  0.4234 -0.5016
 2052SOL    HW3 8280   2.331   0.845   3.490  0.5063  1.2351 -1.0901
 2052SOL    MW4 8281   2.265   0.895   3.517  0.1094  0.4915 -0.6893
 2053SOL     OW 8282   2.278   1.120   3.373  0.3649  0.4859 -0.2900
 2053SOL    HW2 8283   2.343   1.173   3.420 -0.1544  1.1729 -0.3331
 2053SOL    HW3 8284   2.194   1.156   3.400 -0.0204 -0.7331  0.1530
 2053SOL    MW4 8285   2.275   1.132   3.383  0.2453  0.4158 -0.2372
 2054SOL     OW 8286   2.479   1.292   3.499  0.0217  0.3398  0.6074
 2054SOL    HW2 8287   2.482   1.266   3.591  0.4436  0.7942  0.7233
 2054SOL    HW3 8288   2.560   1.257   3.461 -0.1047  0.2372  0.4278
 2054SOL    MW4 8289   2.490   1.284   3.506  0.0606  0.3861  0.5991
 2055SOL     OW 8290   2.464   1.554   3.411  0.4163 -0.0010 -0.3496
 2055SOL    HW2 8291   2.459   1.470   3.456 -0.2668  0.0738 -0.2837
 2055SOL    HW3 8292   2.469   1.531   3.318 -0.9793 -0.0978 -0.4168
 2055SOL    MW4 8293   2.464   1.540   3.405  0.1421 -0.0039 -0.3498
 2056SOL     OW 8294   2.245   1.704   3.484 -0.0279  0.0626  0.1983
 2056SOL    HW2 8295   2.243   1.682   3.577  0.8605  0.3675  0.2978
 2056SOL    HW3 8296   2.319   1.655   3.449  0.8524  1.4430  0.0640
 2056SOL    MW4 8297   2.254   1.695   3.492  0.2055  0.2850  0.1938
 2057SOL     OW 8298   2.211   1.953   3.372  0.4089 -0.2373  0.7629
 2057SOL    HW2 8299   2.230   1.862   3.395  0.0906 -0.8683 -1.3589
 2057SOL    HW3 8300   2.218   1.955   3.276  0.3844  1.9658  0.7983
 2057SOL    MW4 8301   2.215   1.941   3.362  0.3636 -0.0299  0.4878
 2058SOL     OW 8302   2.458   2.049   3.481  0.7476 -0.1017 -0.1494
 2058SOL    HW2 8303   2.458   2.038   3.577  1.2501 -0.1986 -0.1582
 2058SOL    HW3 8304   2.372   2.018   3.454  0.1552  1.0512  0.4010
 2058SOL    MW4 8305   2.447   2.043   3.490  0.7355  0.0374 -0.0780
 2059SOL     OW 8306   2.462   2.316   3.398 -0.4254  0.0056  0.3729
 2059SOL    HW2 8307   2.551   2.348   3.416 -0.5732  0.5830  0.0744
 2059SOL    HW3 8308   2.468   2.221   3.412  0.4793 -0.0913 -0.6039
 2059SOL    MW4 8309   2.474   2.308   3.402 -0.3257  0.0691  0.2046
 2060SOL     OW 8310   2.232   2.418   3.522 -0.2920  0.2276 -0.0404
 2060SOL    HW2 8311   2.221   2.503   3.481  0.0391  0.4041  0.2404
 2060SOL    HW3 8312   2.307   2.378   3.478  0.4632  0.6804  0.8310
 2060SOL    MW4 8313   2.240   2.424   3.511 -0.1485  0.3107  0.1116
 2061SOL     OW 8314   2.216   2.673   3.414 -0.0002  0.4159  0.3755
 2061SOL    HW2 8315   2.151   2.737   3.441 -0.5331  0.1302 -0.2456
 2061SOL    HW3 8316   2.227   2.686   3.320  0.8106  0.4383  0.4655
 2061SOL    MW4 8317   2.209   2.683   3.405  0.0365  0.3810  0.3052
 2062SOL     OW 8318   2.434   2.825   3.501  0.0809  0.4595  0.4724
 2062SOL    HW2 8319   2.426   2.913   3.463  0.2745  0.8504  1.3430
 2062SOL    HW3 8320   2.358   2.778   3.466  1.1724  0.3019 -1.7896
 2062SOL    MW4 8321   2.423   2.830   3.491  0.2508  0.4904  0.2887
 2063SOL     OW 8322   2.462   3.080   3.353  0.1987 -0.1613  0.2308
 2063SOL    HW2 8323   2.544   3.117   3.387  0.4138 -0.9430  0.5858
 2063SOL    HW3 8324   2.469   3.089   3.258  0.1226  0.9590  0.3244
 2063SOL    MW4 8325   2.474   3.086   3.345  0.2172 -0.1166  0.2904
 2064SOL     OW 8326   2.256   3.214   3.486  0.0637  0.1652  0.9801
 2064SOL    HW2 8327   2.278   3.228   3.578  0.5724 -0.7470  1.0059
 2064SOL    HW3 8328   2.333   3.170   3.449 -0.9159 -1.2413  0.5891
 2064SOL    MW4 8329   2.269   3.210   3.493  0.0017 -0.1409  0.9317
 2065SOL     OW 8330   2.258   3.490   3.394  0.5424 -0.0030 -0.0536
 2065SOL    HW2 8331   2.250   3.399   3.423  1.6069  0.1475  0.7261
 2065SOL    HW3 8332   2.256   3.484   3.298  0.4389 -0.8292 -0.0089
 2065SOL    MW4 8333   2.256   3.477   3.385  0.6692 -0.0923  0.0553
 2066SOL     OW 8334   2.514   3.604   3.481  0.2142 -0.1473  0.5180
 2066SOL    HW2 8335   2.499   3.694   3.455 -1.1589 -0.3224  0.6587
 2066SOL    HW3 8336   2.432   3.559   3.459  1.6446 -1.8400 -1.6541
 2066SOL    MW4 8337   2.502   3.610   3.475  0.2215 -0.3939  0.2499
 2067SOL     OW 8338   2.493   3.858   3.375  0.2691  0.4593 -0.2817
 2067SOL    HW2 8339   2.568   3.903   3.414 -0.3597  1.0242  0.2866
 2067SOL    HW3 8340   2.417   3.906   3.408 -0.3088  0.3695 -1.4712
 2067SOL    MW4 8341   2.493   3.870   3.384  0.1099  0.5221 -0.3636
 2068SOL     OW 8342   2.279   3.980   3.497  0.1271  0.0237  0.2143
 2068SOL    HW2 8343   2.256   4.071   3.478  0.4661  0.2189  0.7434
 2068SOL    HW3 8344   2.201   3.930   3.472  0.0301  0.4299 -0.3086
 2068SOL    MW4 8345   2.266   3.985   3.491  0.1590  0.1032  0.2151
 2069SOL     OW 8346   2.249   4.232   3.438  0.1681  0.1273 -0.0632
 2069SOL    HW2 8347   2.167   4.274   3.463  0.2222 -0.3091  0.8510
 2069SOL    HW3 8348   2.253   4.243   3.342 -0.0596  1.7723  0.0932
 2069SOL    MW4 8349   2.239   4.239   3.428  0.1452  0.2866  0.0777
 2070SOL     OW 8350   2.455   4.402   3.492  0.0377  0.2024  0.0420
 2070SOL    HW2 8351   2.460   4.403   3.588 -1.1957  0.2730  0.1130
 2070SOL    HW3 8352   2.388   4.337   3.472 -0.9336  1.4116 -0.7112
 2070SOL    MW4 8353   2.447   4.393   3.502 -0.2534  0.3715 -0.0484
 2071SOL     OW 8354   2.943   4.628   3.393 -0.4301 -0.0073  0.1668
 2071SOL    HW2 8355   2.883   4.687   3.439 -2.4698 -2.2395  0.4614
 2071SOL    HW3 8356   2.917   4.633   3.301  0.8750  1.2046 -0.1683
 2071SOL    MW4 8357   2.932   4.637   3.387 -0.5269 -0.1421  0.1614
 2072SOL     OW 8358   2.734   0.080   3.509  0.5592 -0.6161 -0.1491
 2072SOL    HW2 8359   2.707   0.171   3.495  0.3753 -0.8685 -1.4831
 2072SOL    HW3 8360   2.657   0.028   3.487 -0.0093 -1.0256  2.6172
 2072SOL    MW4 8361   2.720   0.085   3.504  0.4601 -0.7034  0.0398
 2073SOL     OW 8362   2.677   0.350   3.454 -0.2724 -0.0951  0.4280
 2073SOL    HW2 8363   2.767   0.377   3.470 -0.8039  1.7787  0.3686
 2073SOL    HW3 8364   2.671   0.340   3.359 -0.0858 -0.3124  0.4419
 2073SOL    MW4 8365   2.688   0.352   3.443 -0.3178  0.1235  0.4222
 2074SOL     OW 8366   2.917   0.462   3.541  0.2287 -0.1354 -0.1510
 2074SOL    HW2 8367   2.906   0.462   3.636  0.4474  0.7603 -0.1158
 2074SOL    HW3 8368   2.915   0.555   3.517  1.1889 -0.2968 -0.8955
 2074SOL    MW4 8369   2.915   0.474   3.550  0.3843 -0.0385 -0.2444
 2075SOL     OW 8370   2.908   0.717   3.425  0.2316  0.1147  0.0538
 2075SOL    HW2 8371   2.985   0.765   3.456  0.3677 -0.4962  0.6733
 2075SOL    HW3 8372   2.833   0.768   3.455  0.3383 -0.9194  2.1813
 2075SOL    MW4 8373   2.908   0.730   3.433  0.2635 -0.1024  0.4165
 2076SOL     OW 8374   2.707   0.901   3.508  0.0372  0.2733 -0.1434
 2076SOL    HW2 8375   2.709   0.906   3.603  0.6760  2.8363 -0.2583
 2076SOL    HW3 8376   2.693   0.992   3.479  1.4552 -0.2240 -2.5326
 2076SOL    MW4 8377   2.705   0.914   3.516  0.3088  0.5457 -0.4737
 2077SOL     OW 8378   2.700   1.168   3.404  0.1644 -0.3635 -0.4880
 2077SOL    HW2 8379   2.781   1.203   3.440  0.0194 -0.0112 -0.4997
 2077SOL    HW3 8380   2.715   1.162   3.310  0.7841 -1.9186 -0.3032
 2077SOL    MW4 8381   2.712   1.172   3.397  0.2272 -0.5223 -0.4649
 2078SOL     OW 8382   2.935   1.297   3.551  0.1363 -0.0399 -0.0975
 2078SOL    HW2 8383   2.937   1.276   3.644 -1.3401 -1.4367 -0.3647
 2078SOL    HW3 8384   3.003   1.242   3.512 -0.2321 -0.5291 -0.0501
 2078SOL    MW4 8385   2.944   1.287   3.558 -0.1070 -0.2887 -0.1266
 2079SOL     OW 8386   2.939   1.529   3.397  0.1987  0.2115  0.2659
 2079SOL    HW2 8387   2.858   1.575   3.421 -0.5357  0.4181 -2.4423
 2079SOL    HW3 8388   2.935   1.447   3.446 -1.3689  0.4904  0.6314
 2079SOL    MW4 8389   2.927   1.524   3.406 -0.1049  0.2756 -0.0432
 2080SOL     OW 8390   2.708   1.642   3.513 -0.0282 -0.1137  0.0107
 2080SOL    HW2 8391   2.716   1.734   3.487 -2.3164  0.7810  2.2574
 2080SOL    HW3 8392   2.623   1.615   3.477  0.6092 -1.3609 -0.5864
 2080SOL    MW4 8393   2.697   1.651   3.505 -0.2463 -0.1602  0.2284
 2081SOL     OW 8394   2.685   1.903   3.427  0.0589 -0.2894 -0.0482
 2081SOL    HW2 8395   2.601   1.945   3.445 -0.5130 -1.6206  0.4015
 2081SOL    HW3 8396   2.683   1.884   3.333 -0.0761 -0.1770 -0.0675
 2081SOL    MW4 8397   2.674   1.906   3.417 -0.0343 -0.4500  0.0086
 2082SOL     OW 8398   2.942   2.040   3.465 -0.0631 -0.0128  0.4697
 2082SOL    HW2 8399   2.939   2.043   3.561 -0.4249  2.7294  0.4052
 2082SOL    HW3 8400   2.856   2.005   3.440 -0.5295  0.6674  1.1100
 2082SOL    MW4 8401   2.930   2.036   3.475 -0.1724  0.4389  0.5453
 2083SOL     OW 8402   2.919   2.308   3.370 -0.0850 -0.2592 -0.4218
 2083SOL    HW2 8403   2.915   2.214   3.389  0.2187 -0.4081 -1.0748
 2083SOL    HW3 8404   2.903   2.314   3.276  0.1681  0.3232 -0.4289
 2083SOL    MW4 8405   2.916   2.296   3.361 -0.0117 -0.2019 -0.5088
 2084SOL     OW 8406   2.708   2.439   3.483  0.3990  0.2223  0.0470
 2084SOL    HW2 8407   2.716   2.423   3.577  0.7052 -0.9564 -0.1666
 2084SOL    HW3 8408   2.785   2.395   3.445 -0.1743 -0.0285 -0.8301
 2084SOL    MW4 8409   2.720   2.431   3.490  0.3641  0.0339 -0.0968
 2085SOL     OW 8410   2.683   2.707   3.406  0.0972 -0.8260 -0.4004
 2085SOL    HW2 8411   2.685   2.615   3.430 -1.0508 -0.6433  0.4717
 2085SOL    HW3 8412   2.598   2.738   3.438  0.5174  0.5501 -0.5829
 2085SOL    MW4 8413   2.672   2.699   3.414  0.0014 -0.6204 -0.3092
 2086SOL     OW 8414   2.922   2.845   3.439 -0.0543  0.3423  0.1652
 2086SOL    HW2 8415   2.932   2.827   3.533  1.5804 -3.2044 -0.6139
 2086SOL    HW3 8416   2.844   2.795   3.414 -0.3390  1.0842 -0.4187
 2086SOL    MW4 8417   2.913   2.836   3.448  0.1237 -0.0279 -0.0148
 2087SOL     OW 8418   2.909   3.103   3.352 -0.3378 -0.2839  0.8138
 2087SOL    HW2 8419   2.920   3.012   3.382 -0.5899  0.0835  2.0377
 2087SOL    HW3 8420   2.929   3.100   3.258 -1.0563 -1.7492  0.6899
 2087SOL    MW4 8421   2.913   3.090   3.343 -0.4661 -0.4287  0.9589
 2088SOL     OW 8422   2.678   3.219   3.461 -0.5192  0.1223 -0.0464
 2088SOL    HW2 8423   2.691   3.204   3.555 -1.3866 -0.2491  0.0151
 2088SOL    HW3 8424   2.753   3.177   3.419 -0.3717 -0.1053  0.4465
 2088SOL    MW4 8425   2.690   3.212   3.468 -0.6144  0.0432  0.0267
 2089SOL     OW 8426   2.712   3.463   3.363  0.3474 -0.0771  0.0120
 2089SOL    HW2 8427   2.696   3.379   3.408 -0.1942 -0.0159 -0.0718
 2089SOL    HW3 8428   2.644   3.521   3.396  1.5237  0.7269  1.0912
 2089SOL    MW4 8429   2.701   3.459   3.374  0.4311  0.0370  0.1435
 2090SOL     OW 8430   2.945   3.575   3.509 -0.1545 -0.0154 -0.1020
 2090SOL    HW2 8431   2.940   3.668   3.488  2.3926 -0.1610 -1.4285
 2090SOL    HW3 8432   2.866   3.537   3.471  0.2862  1.1135 -2.1602
 2090SOL    MW4 8433   2.934   3.582   3.501  0.2398  0.1144 -0.5486
 2091SOL     OW 8434   2.907   3.828   3.407  0.1754  0.2636 -0.0580
 2091SOL    HW2 8435   2.978   3.888   3.428  0.5017  0.1095 -0.7211
 2091SOL    HW3 8436   2.828   3.875   3.433  0.3569  1.4084 -1.5222
 2091SOL    MW4 8437   2.906   3.842   3.414  0.2422  0.3943 -0.3390
 2092SOL     OW 8438   2.704   3.989   3.504  0.3909  0.2275 -0.1866
 2092SOL    HW2 8439   2.698   3.995   3.599 -0.0823 -1.7957 -0.0803
 2092SOL    HW3 8440   2.684   4.078   3.474  0.3328  0.8376  1.5791
 2092SOL    MW4 8441   2.700   4.002   3.512  0.3209  0.0410  0.0603
 2093SOL     OW 8442   2.665   4.259   3.381 -0.0421 -0.6309 -0.2195
 2093SOL    HW2 8443   2.735   4.316   3.413 -0.5677  0.6843 -1.3456
 2093SOL    HW3 8444   2.587   4.288   3.428  0.0906 -1.8570  0.7706
 2093SOL    MW4 8445   2.664   4.270   3.392 -0.0942 -0.6189 -0.2377
 2094SOL     OW 8446   2.900   4.382   3.489  0.5455 -0.0979  0.1079
 2094SOL    HW2 8447   2.888   4.384   3.584  1.2780  0.9672  0.1848
 2094SOL    HW3 8448   2.896   4.474   3.462 -2.8480 -0.5535 -1.3164
 2094SOL    MW4 8449   2.898   4.395   3.498  0.1943 -0.0172 -0.0699
 2095SOL     OW 8450   3.418   4.631   3.442  0.4342  0.3370  0.1975
 2095SOL    HW2 8451   3.350   4.675   3.494  0.5822 -0.1138  0.7732
 2095SOL    HW3 8452   3.393   4.648   3.352 -0.1956  0.5620  0.4100
 2095SOL    MW4 8453   3.406   4.639   3.437  0.3707  0.3071  0.3016
 2096SOL     OW 8454   3.156   0.051   3.534 -0.1329  0.3061  0.6781
 2096SOL    HW2 8455   3.152   0.144   3.512  0.0530  0.7460  2.4165
 2096SOL    HW3 8456   3.098   0.009   3.471 -0.2110  1.5996 -0.1326
 2096SOL    MW4 8457   3.148   0.058   3.523 -0.1183  0.5348  0.8006
 2097SOL     OW 8458   3.133   0.314   3.453 -0.1463  0.1348  0.2902
 2097SOL    HW2 8459   3.051   0.356   3.478 -0.4303  0.8211 -1.6811
 2097SOL    HW3 8460   3.132   0.315   3.357  1.9359 -0.2966  0.2371
 2097SOL    MW4 8461   3.122   0.320   3.444  0.0911  0.1684  0.0229
 2098SOL     OW 8462   3.341   0.487   3.530  0.0169 -0.2785  0.1956
 2098SOL    HW2 8463   3.360   0.494   3.623  0.3596  0.5781  0.0628
 2098SOL    HW3 8464   3.257   0.441   3.526 -0.4154  0.4487  0.9493
 2098SOL    MW4 8465   3.332   0.482   3.542  0.0050 -0.0695  0.2775
 2099SOL     OW 8466   3.350   0.725   3.397 -0.0608  0.2721  0.2711
 2099SOL    HW2 8467   3.433   0.766   3.421 -1.2700  1.4269  2.5903
 2099SOL    HW3 8468   3.346   0.646   3.450  1.2463 -1.8042 -2.5990
 2099SOL    MW4 8469   3.361   0.720   3.407 -0.0482  0.1506  0.1984
 2100SOL     OW 8470   3.132   0.865   3.480 -0.8430  0.3215  0.3271
 2100SOL    HW2 8471   3.148   0.952   3.443 -0.1749  0.0839  0.0342
 2100SOL    HW3 8472   3.210   0.814   3.455 -0.3646  0.1554  2.0748
 2100SOL    MW4 8473   3.145   0.870   3.471 -0.6919  0.2682  0.5188
 2101SOL     OW 8474   3.117   1.135   3.406 -0.0380 -0.4786  0.3551
 2101SOL    HW2 8475   3.200   1.167   3.440 -0.6488  0.4678  0.9988
 2101SOL    HW3 8476   3.125   1.142   3.311 -0.0357  1.3463  0.4672
 2101SOL    MW4 8477   3.129   1.140   3.398 -0.1185 -0.1131  0.4549
 2102SOL     OW 8478   3.369   1.242   3.470 -0.0017 -0.5085  0.0160
 2102SOL    HW2 8479   3.460   1.217   3.456 -0.1124 -1.1445  0.3932
 2102SOL    HW3 8480   3.364   1.333   3.441  1.0500 -0.0581  1.1993
 2102SOL    MW4 8481   3.380   1.251   3.464  0.1225 -0.5330  0.2220
 2103SOL     OW 8482   3.381   1.514   3.407  0.2281  0.4887 -0.3898
 2103SOL    HW2 8483   3.456   1.558   3.445 -0.7202  1.9667 -0.1755
 2103SOL    HW3 8484   3.307   1.573   3.425 -0.9311 -0.8180 -0.7945
 2103SOL    MW4 8485   3.381   1.528   3.414 -0.0503  0.5112 -0.4151
 2104SOL     OW 8486   3.157   1.659   3.504  0.1392 -0.1447 -0.4354
 2104SOL    HW2 8487   3.168   1.745   3.465  1.9590 -0.7510 -1.2865
 2104SOL    HW3 8488   3.077   1.624   3.464 -0.2256  0.8420 -0.5892
 2104SOL    MW4 8489   3.148   1.666   3.494  0.3312 -0.0944 -0.5679
 2105SOL     OW 8490   3.140   1.889   3.375 -0.0935  0.3722  0.1487
 2105SOL    HW2 8491   3.070   1.946   3.408 -0.9887 -0.6507  0.0202
 2105SOL    HW3 8492   3.135   1.898   3.280 -0.2945  0.0088  0.1248
 2105SOL    MW4 8493   3.130   1.898   3.367 -0.2382  0.1893  0.1283
 2106SOL     OW 8494   3.320   2.044   3.522 -0.2047 -0.1251  0.2655
 2106SOL    HW2 8495   3.322   2.128   3.477 -1.3556  0.1527  0.7052
 2106SOL    HW3 8496   3.255   1.993   3.473 -1.3468  0.1230  1.4775
 2106SOL    MW4 8497   3.312   2.048   3.509 -0.5071 -0.0558  0.4833
 2107SOL     OW 8498   3.332   2.276   3.395  0.0390 -0.1786  0.1788
 2107SOL    HW2 8499   3.413   2.315   3.428 -0.2631 -0.2951  1.0880
 2107SOL    HW3 8500   3.262   2.324   3.440 -0.4427  0.6969 -1.4618
 2107SOL    MW4 8501   3.333   2.287   3.406 -0.0644 -0.0782  0.0820
 2108SOL     OW 8502   3.140   2.420   3.513  0.2862  0.2979 -0.0140
 2108SOL    HW2 8503   3.145   2.508   3.476 -1.0479  0.9607  1.3508
 2108SOL    HW3 8504   3.067   2.379   3.467  0.0501  0.3571  0.3121
 2108SOL    MW4 8505   3.131   2.426   3.502  0.0792  0.3934  0.2091
 2109SOL     OW 8506   3.131   2.647   3.335 -0.1677 -0.0244 -0.1287
 2109SOL    HW2 8507   3.208   2.700   3.356 -0.4961  0.6220 -0.5510
 2109SOL    HW3 8508   3.057   2.706   3.350 -0.5176 -0.2619 -0.9065
 2109SOL    MW4 8509   3.131   2.662   3.340 -0.2570  0.0298 -0.2866
 2110SOL     OW 8510   3.328   2.821   3.427  0.1250 -0.1738  0.3895
 2110SOL    HW2 8511   3.410   2.773   3.433  0.5840  0.6772  1.0341
 2110SOL    HW3 8512   3.354   2.913   3.432 -0.9329  0.0857  1.3619
 2110SOL    MW4 8513   3.342   2.827   3.428  0.0460 -0.0272  0.6027
 2111SOL     OW 8514   3.376   3.094   3.404 -0.4556  0.2524  0.5293
 2111SOL    HW2 8515   3.450   3.136   3.448  0.4500  1.5829 -2.1575
 2111SOL    HW3 8516   3.298   3.131   3.445  0.3631 -0.0179  2.3459
 2111SOL    MW4 8517   3.375   3.104   3.415 -0.2282  0.3922  0.4141
 2112SOL     OW 8518   3.126   3.188   3.499 -0.1488  0.2647 -0.0467
 2112SOL    HW2 8519   3.135   3.278   3.469  0.0989  0.1679 -0.2690
 2112SOL    HW3 8520   3.049   3.154   3.453 -0.3531  0.4204  0.1800
 2112SOL    MW4 8521   3.117   3.195   3.489 -0.1428  0.2723 -0.0463
 2113SOL     OW 8522   3.173   3.444   3.404 -0.6384 -0.3929  0.3000
 2113SOL    HW2 8523   3.090   3.479   3.435 -1.1423 -1.2959 -0.0131
 2113SOL    HW3 8524   3.167   3.447   3.308 -0.6986 -1.3279  0.2645
 2113SOL    MW4 8525   3.161   3.449   3.395 -0.7129 -0.6351  0.2542
 2114SOL     OW 8526   3.411   3.562   3.485 -0.7988  0.5794 -0.4257
 2114SOL    HW2 8527   3.385   3.651   3.461 -3.1021  0.0946  0.1176
 2114SOL    HW3 8528   3.331   3.510   3.474  0.8094 -1.6592 -1.8471
 2114SOL    MW4 8529   3.397   3.567   3.481 -0.8905  0.2201 -0.5414
 2115SOL     OW 8530   3.361   3.838   3.397 -0.3414 -0.1536  0.3329
 2115SOL    HW2 8531   3.438   3.878   3.437  0.6854 -2.6510  0.9621
 2115SOL    HW3 8532   3.287   3.885   3.434  0.7683  0.2145  2.1310
 2115SOL    MW4 8533   3.361   3.849   3.407 -0.0596 -0.4346  0.6530
 2116SOL     OW 8534   3.116   3.996   3.470 -0.1274  0.1490  0.0836
 2116SOL    HW2 8535   3.097   3.995   3.564 -1.2881  0.0726 -0.1450
 2116SOL    HW3 8536   3.114   4.089   3.446 -1.1915  0.0840 -0.1221
 2116SOL    MW4 8537   3.113   4.008   3.479 -0.4210  0.1302  0.0262
 2117SOL     OW 8538   3.127   4.270   3.380  0.2906 -0.0418  0.6749
 2117SOL    HW2 8539   3.202   4.309   3.425  0.3444 -0.0474  0.5894
 2117SOL    HW3 8540   3.050   4.311   3.422  0.3458  0.1248  0.6145
 2117SOL    MW4 8541   3.126   4.281   3.392  0.3049 -0.0210  0.6552
 2118SOL     OW 8542   3.373   4.358   3.525  0.1329  0.0935 -0.2338
 2118SOL    HW2 8543   3.359   4.359   3.620 -0.5644 -0.3594 -0.3262
 2118SOL    HW3 8544   3.390   4.450   3.503 -0.0065  0.2493  0.2894
 2118SOL    MW4 8545   3.373   4.370   3.534  0.0226  0.0544 -0.1769
 2119SOL     OW 8546   3.867   4.613   3.453 -0.2353 -0.0681  0.0650
 2119SOL    HW2 8547   3.804   4.679   3.484 -0.1534  0.1075 -0.1412
 2119SOL    HW3 8548   3.851   4.607   3.359  0.0930  0.0152  0.0050
 2119SOL    MW4 8549   3.856   4.621   3.445 -0.1812 -0.0339  0.0298
 2120SOL     OW 8550   3.652   0.110   3.518  0.6058 -0.3225  0.2949
 2120SOL    HW2 8551   3.641   0.204   3.502 -1.1896 -0.3565  1.1861
 2120SOL    HW3 8552   3.570   0.071   3.488  1.1633 -1.5680  0.3567
 2120SOL    MW4 8553   3.640   0.117   3.512  0.4425 -0.4913  0.4206
 2121SOL     OW 8554   3.591   0.380   3.443  0.0818 -0.0327  0.1871
 2121SOL    HW2 8555   3.659   0.445   3.460  0.3823 -0.2960  0.0038
 2121SOL    HW3 8556   3.510   0.420   3.477  0.2195  0.5346 -0.1412
 2121SOL    MW4 8557   3.589   0.394   3.450  0.1392  0.0075  0.1192
 2122SOL     OW 8558   3.800   0.532   3.578  0.0253 -0.0534  0.1413
 2122SOL    HW2 8559   3.781   0.497   3.665  0.7988 -1.3359 -0.1994
 2122SOL    HW3 8560   3.871   0.477   3.545  0.1036  0.7689 -1.0911
 2122SOL    MW4 8561   3.807   0.520   3.585  0.1376 -0.1141 -0.0660
 2123SOL     OW 8562   3.816   0.745   3.396  0.3889 -0.4201 -0.0785
 2123SOL    HW2 8563   3.882   0.806   3.428 -0.4298  0.0752  0.6751
 2123SOL    HW3 8564   3.816   0.674   3.460  0.7157 -0.7796 -0.4765
 2123SOL    MW4 8565   3.824   0.744   3.409  0.3238 -0.4021 -0.0315
 2124SOL     OW 8566   3.589   0.883   3.458 -0.1760  0.0856  0.4880
 2124SOL    HW2 8567   3.598   0.916   3.548  1.2804  0.2007  0.3054
 2124SOL    HW3 8568   3.666   0.827   3.445 -0.5890 -0.2455 -0.5541
 2124SOL    MW4 8569   3.600   0.880   3.468 -0.0384  0.0571  0.3264
 2125SOL     OW 8570   3.642   1.155   3.386  0.4497  0.0835  0.0680
 2125SOL    HW2 8571   3.630   1.065   3.417 -1.5691  0.0514 -0.7608
 2125SOL    HW3 8572   3.616   1.154   3.294 -2.8389  2.1741  0.8855
 2125SOL    MW4 8573   3.637   1.143   3.378 -0.2506  0.3551  0.0668
 2126SOL     OW 8574   3.852   1.314   3.493 -0.0106 -0.2012  0.1817
 2126SOL    HW2 8575   3.853   1.310   3.589  1.1528 -0.0113  0.1858
 2126SOL    HW3 8576   3.780   1.258   3.467  0.0317 -0.7094  1.1551
 2126SOL    MW4 8577   3.843   1.306   3.502  0.1485 -0.2431  0.3107
 2127SOL     OW 8578   3.848   1.581   3.412  0.0838  0.0246  0.3294
 2127SOL    HW2 8579   3.929   1.621   3.445  0.2785  0.4712 -0.6797
 2127SOL    HW3 8580   3.855   1.489   3.436  1.3445 -0.1356 -0.6270
 2127SOL    MW4 8581   3.859   1.574   3.420  0.2759  0.0622  0.0699
 2128SOL     OW 8582   3.596   1.657   3.502  0.4618 -0.0062  0.1014
 2128SOL    HW2 8583   3.575   1.744   3.466 -0.0877  0.1165  0.6985
 2128SOL    HW3 8584   3.675   1.630   3.456 -1.9245 -1.1965 -3.4608
 2128SOL    MW4 8585   3.604   1.665   3.491  0.0746 -0.1470 -0.2897
 2129SOL     OW 8586   3.546   1.923   3.421 -0.5510  0.6676 -0.1694
 2129SOL    HW2 8587   3.621   1.968   3.460  0.3389  0.1777 -1.2861
 2129SOL    HW3 8588   3.470   1.967   3.458  0.2657  0.5065  1.7598
 2129SOL    MW4 8589   3.546   1.935   3.431 -0.3259  0.5816 -0.0622
 2130SOL     OW 8590   3.797   2.061   3.487  0.1435  0.3203  0.3097
 2130SOL    HW2 8591   3.817   2.055   3.580  1.7262 -0.9244 -0.0804
 2130SOL    HW3 8592   3.877   2.034   3.444 -0.5970  0.8274 -1.4269
 2130SOL    MW4 8593   3.810   2.057   3.494  0.2546  0.2232  0.0291
 2131SOL     OW 8594   3.779   2.323   3.376  0.3864  0.0446 -0.1423
 2131SOL    HW2 8595   3.852   2.377   3.406  0.3091 -0.2847  0.6510
 2131SOL    HW3 8596   3.793   2.238   3.418 -1.4752  0.5394  1.5675
 2131SOL    MW4 8597   3.790   2.319   3.386  0.1304  0.0665  0.1876
 2132SOL     OW 8598   3.549   2.430   3.489  0.2006  0.0130  0.2504
 2132SOL    HW2 8599   3.556   2.525   3.483 -1.6744  0.1727  0.4688
 2132SOL    HW3 8600   3.618   2.397   3.432  0.2325  1.5083 -0.5816
 2132SOL    MW4 8601   3.559   2.438   3.481 -0.0427  0.2315  0.1693
 2133SOL     OW 8602   3.593   2.692   3.422  0.2939  0.1198  0.0176
 2133SOL    HW2 8603   3.676   2.719   3.460  0.7295 -0.2204 -0.6884
 2133SOL    HW3 8604   3.610   2.684   3.328 -0.4601 -0.2134 -0.0988
 2133SOL    MW4 8605   3.606   2.694   3.415  0.2518  0.0312 -0.0911
 2134SOL     OW 8606   3.846   2.809   3.504 -0.3630  0.4300  0.0630
 2134SOL    HW2 8607   3.858   2.825   3.598  2.1113 -0.0474 -0.1449
 2134SOL    HW3 8608   3.845   2.896   3.465  0.3108  0.5755  0.3559
 2134SOL    MW4 8609   3.848   2.822   3.511  0.0525  0.3865  0.0741
 2135SOL     OW 8610   3.843   3.049   3.370  0.0836  0.0750 -0.0671
 2135SOL    HW2 8611   3.925   3.089   3.399 -0.1303  0.2697  0.2731
 2135SOL    HW3 8612   3.839   3.067   3.276  0.5249 -0.1068 -0.1198
 2135SOL    MW4 8613   3.853   3.057   3.361  0.1137  0.0768 -0.0291
 2136SOL     OW 8614   3.628   3.187   3.527 -0.2786 -0.3090 -0.6477
 2136SOL    HW2 8615   3.642   3.281   3.514 -0.9939  0.1581  1.7920
 2136SOL    HW3 8616   3.698   3.145   3.477  0.3919  1.5205 -1.2834
 2136SOL    MW4 8617   3.639   3.194   3.519 -0.2847 -0.0062 -0.4098
 2137SOL     OW 8618   3.659   3.427   3.412  0.3391  0.7368 -0.2392
 2137SOL    HW2 8619   3.589   3.486   3.441  0.9953  1.1337  0.5706
 2137SOL    HW3 8620   3.642   3.413   3.319 -1.8432 -0.5731  0.3252
 2137SOL    MW4 8621   3.647   3.433   3.404  0.1380  0.6161 -0.0579
 2138SOL     OW 8622   3.851   3.618   3.461 -0.1344 -0.2758  0.7072
 2138SOL    HW2 8623   3.863   3.612   3.556  1.1896  1.7273  0.6944
 2138SOL    HW3 8624   3.779   3.558   3.442  2.1278 -3.7050  2.4555
 2138SOL    MW4 8625   3.843   3.609   3.471  0.3388 -0.4640  0.9360
 2139SOL     OW 8626   3.769   3.868   3.393 -0.2189 -0.2050  0.2012
 2139SOL    HW2 8627   3.693   3.891   3.445  0.3358  0.2678  0.8179
 2139SOL    HW3 8628   3.794   3.781   3.425 -0.8568 -0.6253 -0.4287
 2139SOL    MW4 8629   3.763   3.859   3.404 -0.2296 -0.1981  0.1996
 2140SOL     OW 8630   3.550   3.959   3.543 -0.1024  0.1422  0.1383
 2140SOL    HW2 8631   3.548   3.969   3.638  0.5560 -1.5449  0.3523
 2140SOL    HW3 8632   3.554   4.049   3.509 -0.3883  0.7580  1.6893
 2140SOL    MW4 8633   3.550   3.972   3.551 -0.0534  0.0007  0.3717
 2141SOL     OW 8634   3.591   4.231   3.430  0.6645 -0.0526 -0.2900
 2141SOL    HW2 8635   3.512   4.275   3.462  0.4344 -1.5566  1.2884
 2141SOL    HW3 8636   3.578   4.224   3.336 -1.0743 -0.2418 -0.0611
 2141SOL    MW4 8637   3.579   4.236   3.422  0.4048 -0.2756 -0.0513
 2142SOL     OW 8638   3.815   4.341   3.521 -0.0628 -0.4998  0.8957
 2142SOL    HW2 8639   3.734   4.305   3.485  1.1799 -1.1351 -1.3911
 2142SOL    HW3 8640   3.821   4.428   3.481  0.0285 -0.1878  1.5930
 2142SOL    MW4 8641   3.805   4.348   3.511  0.1132 -0.5426  0.6859
 2143SOL     OW 8642   4.259   4.628   3.408 -0.2637  0.0469 -0.8162
 2143SOL    HW2 8643   4.258   4.534   3.427 -1.1978  0.2266  0.1437
 2143SOL    HW3 8644   4.317   4.665   3.475  0.0430  0.1563 -1.1455
 2143SOL    MW4 8645   4.266   4.620   3.420 -0.3471  0.0849 -0.7329
 2144SOL     OW 8646   4.073   0.120   3.522  0.4107 -0.4586 -0.6263
 2144SOL    HW2 8647   4.146   0.077   3.477  0.5826  0.0546 -0.8351
 2144SOL    HW3 8648   3.998   0.063   3.503  0.7954 -1.1152 -0.2092
 2144SOL    MW4 8649   4.073   0.107   3.513  0.4840 -0.4775 -0.5987
 2145SOL     OW 8650   4.009   0.380   3.463 -0.3223  0.0163 -0.0512
 2145SOL    HW2 8651   4.021   0.285   3.469  0.5152  0.1100 -0.1793
 2145SOL    HW3 8652   3.999   0.397   3.369 -2.7607 -0.2099  0.1585
 2145SOL    MW4 8653   4.010   0.370   3.451 -0.5331 -0.0011 -0.0403
 2146SOL     OW 8654   4.271   0.481   3.505  0.0490  0.3664  0.2476
 2146SOL    HW2 8655   4.271   0.570   3.472 -0.3562  0.4440  0.4536
 2146SOL    HW3 8656   4.181   0.451   3.494 -0.1919  0.5354  1.6481
 2146SOL    MW4 8657   4.259   0.489   3.499 -0.0362  0.3989  0.4597
 2147SOL     OW 8658   4.248   0.753   3.426  0.2136  0.1837 -0.3232
 2147SOL    HW2 8659   4.336   0.782   3.449  0.0986 -0.0589  0.4184
 2147SOL    HW3 8660   4.243   0.766   3.331  1.2419 -0.3079 -0.4535
 2147SOL    MW4 8661   4.259   0.758   3.416  0.3343  0.0868 -0.2425
 2148SOL     OW 8662   4.024   0.905   3.495 -0.5126  0.3168 -0.3131
 2148SOL    HW2 8663   4.035   0.995   3.465 -1.3758  0.4906 -0.1365
 2148SOL    HW3 8664   4.099   0.858   3.459 -0.4005  0.9696 -0.9493
 2148SOL    MW4 8665   4.035   0.911   3.486 -0.6113  0.4259 -0.3736
 2149SOL     OW 8666   4.059   1.161   3.391 -0.0461 -0.5678 -0.4987
 2149SOL    HW2 8667   4.139   1.185   3.437 -0.4080 -2.6197  1.2603
 2149SOL    HW3 8668   3.995   1.227   3.419  0.7071  0.3754 -0.9843
 2149SOL    MW4 8669   4.061   1.173   3.401  0.0057 -0.7141 -0.3309
 2150SOL     OW 8670   4.275   1.296   3.524 -0.5257 -0.2478 -0.5839
 2150SOL    HW2 8671   4.274   1.374   3.468  1.9643  1.9469  2.2793
 2150SOL    HW3 8672   4.340   1.239   3.483 -1.9463 -0.6267 -2.3790
 2150SOL    MW4 8673   4.283   1.299   3.511 -0.3843 -0.0083 -0.4430
 2151SOL     OW 8674   4.281   1.534   3.393  0.3938 -0.0238 -0.1870
 2151SOL    HW2 8675   4.207   1.573   3.441  0.0509 -0.5379 -0.2959
 2151SOL    HW3 8676   4.257   1.541   3.301  0.3184 -0.5110 -0.2069
 2151SOL    MW4 8677   4.268   1.540   3.387  0.3386 -0.1559 -0.2041
 2152SOL     OW 8678   4.080   1.692   3.508 -0.2846  0.4326  0.2515
 2152SOL    HW2 8679   4.091   1.682   3.603  1.0931  0.5326  0.1155
 2152SOL    HW3 8680   4.086   1.787   3.493  1.4785  0.2810 -0.1434
 2152SOL    MW4 8681   4.082   1.703   3.519  0.1297  0.4259  0.1814
 2153SOL     OW 8682   4.033   1.962   3.385 -0.6120 -0.0029  0.5123
 2153SOL    HW2 8683   4.104   2.017   3.418 -1.4489  0.7445  1.0990
 2153SOL    HW3 8684   4.048   1.958   3.291 -0.8503  1.7094  0.3757
 2153SOL    MW4 8685   4.044   1.969   3.377 -0.7534  0.3217  0.5715
 2154SOL     OW 8686   4.266   2.074   3.520 -0.4979  0.1526  0.5980
 2154SOL    HW2 8687   4.252   2.162   3.483  1.6689  0.0822 -0.4775
 2154SOL    HW3 8688   4.340   2.039   3.470 -1.1852 -2.2096  1.1838
 2154SOL    MW4 8689   4.274   2.081   3.508 -0.3028 -0.1688  0.5333
 2155SOL     OW 8690   4.254   2.323   3.411  0.0670  0.3540  0.3664
 2155SOL    HW2 8691   4.163   2.345   3.433  0.0376 -0.0131  0.6097
 2155SOL    HW3 8692   4.252   2.304   3.317  0.0213  1.0069  0.2308
 2155SOL    MW4 8693   4.242   2.324   3.402  0.0567  0.3915  0.3808
 2156SOL     OW 8694   4.010   2.398   3.513 -0.1000  0.7433 -0.0532
 2156SOL    HW2 8695   4.002   2.393   3.609 -0.2279  0.4786 -0.0776
 2156SOL    HW3 8696   4.047   2.484   3.497 -0.9447  1.1597  0.1878
 2156SOL    MW4 8697   4.014   2.409   3.524 -0.2294  0.7637 -0.0246
 2157SOL     OW 8698   4.064   2.659   3.453  0.0597  0.1934  0.3549
 2157SOL    HW2 8699   4.136   2.718   3.478  0.0795 -0.4284  1.8303
 2157SOL    HW3 8700   3.985   2.714   3.461  0.1978  0.3679  0.5403
 2157SOL    MW4 8701   4.063   2.674   3.457  0.0806  0.1342  0.5741
 2158SOL     OW 8702   4.303   2.809   3.490 -0.4625 -0.3753  0.6563
 2158SOL    HW2 8703   4.309   2.813   3.585 -0.3013 -1.6086  0.7028
 2158SOL    HW3 8704   4.372   2.748   3.463  0.6763  1.3197 -0.3960
 2158SOL    MW4 8705   4.313   2.802   3.499 -0.2913 -0.3142  0.5236
 2159SOL     OW 8706   4.280   3.042   3.350  0.1320 -0.9848 -0.1710
 2159SOL    HW2 8707   4.291   2.950   3.372  0.7579 -0.9775 -0.4364
 2159SOL    HW3 8708   4.365   3.082   3.368 -0.4069 -0.2604  0.8749
 2159SOL    MW4 8709   4.293   3.035   3.356  0.1435 -0.8881 -0.0682
 2160SOL     OW 8710   4.062   3.175   3.474 -0.2128 -0.0915 -0.4028
 2160SOL    HW2 8711   4.039   3.264   3.449  0.6283  0.2385 -0.0235
 2160SOL    HW3 8712   4.129   3.149   3.410  0.9423  0.2541  0.6590
 2160SOL    MW4 8713   4.068   3.183   3.462  0.0505 -0.0021 -0.2129
 2161SOL     OW 8714   4.032   3.447   3.357  0.1383  0.4257  0.5627
 2161SOL    HW2 8715   4.115   3.484   3.387 -0.3483  1.6978  0.3669
 2161SOL    HW3 8716   3.966   3.511   3.384 -0.5440  0.5504 -1.3141
 2161SOL    MW4 8717   4.034   3.460   3.365 -0.0157  0.6101  0.2890
 2162SOL     OW 8718   4.245   3.604   3.448 -0.0579 -0.0575 -0.5535
 2162SOL    HW2 8719   4.240   3.590   3.542 -0.5759 -1.1935 -0.7473
 2162SOL    HW3 8720   4.242   3.700   3.438  1.4022  0.1252  0.6448
 2162SOL    MW4 8721   4.244   3.615   3.459  0.0663 -0.1831 -0.4208
 2163SOL     OW 8722   4.242   3.893   3.401  0.0570  0.4286  0.6057
 2163SOL    HW2 8723   4.323   3.929   3.439  0.9706 -1.5269  0.5609
 2163SOL    HW3 8724   4.256   3.899   3.307 -0.1709  0.7690  0.5914
 2163SOL    MW4 8725   4.255   3.899   3.394  0.1478  0.2155  0.5980
 2164SOL     OW 8726   4.019   4.011   3.505  0.1810 -0.0715  0.6032
 2164SOL    HW2 8727   4.096   3.965   3.471  0.7702  0.3299  1.3560
 2164SOL    HW3 8728   3.944   3.962   3.471  0.7735 -0.4650 -0.1457
 2164SOL    MW4 8729   4.020   3.998   3.496  0.3371 -0.0706  0.6037
 2165SOL     OW 8730   4.067   4.269   3.401 -0.0645  0.0533 -0.2365
 2165SOL    HW2 8731   4.074   4.176   3.421 -0.9643  0.0162 -0.0625
 2165SOL    HW3 8732   3.989   4.298   3.448  0.8132  1.1352  0.5849
 2165SOL    MW4 8733   4.057   4.261   3.409 -0.0677  0.1917 -0.1051
 2166SOL     OW 8734   4.291   4.373   3.538 -0.0931 -0.0696 -0.1824
 2166SOL    HW2 8735   4.300   4.384   3.633  2.3608 -2.6141 -0.0539
 2166SOL    HW3 8736   4.203   4.338   3.526 -0.6709  0.9024  1.0822
 2166SOL    MW4 8737   4.281   4.370   3.549  0.1540 -0.2770  0.0014
 2167SOL     OW 8738   0.248   4.619   3.930  0.0954 -0.6339 -0.2278
 2167SOL    HW2 8739   0.246   4.618   4.026  0.2691 -0.1673 -0.2170
 2167SOL    HW3 8740   0.190   4.691   3.906 -1.1332 -1.7022 -0.5189
 2167SOL    MW4 8741   0.240   4.628   3.940 -0.0438 -0.7133 -0.2649
 2168SOL     OW 8742   0.059   0.135   3.837 -0.1092  0.0127 -0.5236
 2168SOL    HW2 8743   0.027   0.217   3.873 -0.9294 -0.4633 -0.1505
 2168SOL    HW3 8744  -0.005   0.112   3.769  0.8468  0.3617 -1.5562
 2168SOL    MW4 8745   0.046   0.143   3.832 -0.0913 -0.0040 -0.6108
 2169SOL     OW 8746   0.005   0.385   3.934  0.4430  0.3597  0.1714
 2169SOL    HW2 8747  -0.061   0.420   3.874  0.1412 -0.0566  0.2587
 2169SOL    HW3 8748   0.089   0.403   3.890  0.3382  1.7653  0.5231
 2169SOL    MW4 8749   0.008   0.392   3.920  0.3893  0.4902  0.2294
 2170SOL     OW 8750   0.228   0.499   3.795 -0.5209  0.1048 -0.0189
 2170SOL    HW2 8751   0.241   0.590   3.822  0.6433  0.0338 -0.2979
 2170SOL    HW3 8752   0.213   0.504   3.701  0.1199 -0.0304 -0.1329
 2170SOL    MW4 8753   0.228   0.512   3.786 -0.2828  0.0777 -0.0708
 2171SOL     OW 8754   0.239   0.751   3.924 -0.3735 -0.0716 -0.0169
 2171SOL    HW2 8755   0.240   0.756   4.019 -1.5375  0.7879 -0.0382
 2171SOL    HW3 8756   0.152   0.783   3.899 -0.3323 -0.9528 -1.3297
 2171SOL    MW4 8757   0.228   0.756   3.933 -0.5217 -0.0744 -0.1926
 2172SOL     OW 8758   4.486   0.867   3.790  0.4054  0.7805 -0.1228
 2172SOL    HW2 8759   4.403   0.825   3.813 -0.4826  2.2343 -0.6052
 2172SOL    HW3 8760   4.472   0.960   3.808  2.2717  0.9143  0.7451
 2172SOL    MW4 8761   4.473   0.874   3.795  0.5345  0.9900 -0.0718
 2173SOL     OW 8762   0.017   1.150   3.878 -0.2137  0.0023  0.0030
 2173SOL    HW2 8763  -0.055   1.207   3.852  0.5344  0.3935 -1.2440
 2173SOL    HW3 8764   0.095   1.192   3.841  0.7244 -0.1007  1.8463
 2173SOL    MW4 8765   0.017   1.163   3.869  0.0088  0.0403  0.0815
 2174SOL     OW 8766   0.236   1.250   3.751 -0.5652 -0.3021  0.3483
 2174SOL    HW2 8767   0.259   1.326   3.804 -2.1311 -0.5177  1.3628
 2174SOL    HW3 8768   0.211   1.287   3.666 -1.6449  0.3372  0.9430
 2174SOL    MW4 8769   0.236   1.265   3.746 -0.9143 -0.2463  0.5605
 2175SOL     OW 8770   0.235   1.498   3.863 -0.4905 -0.6731  0.2910
 2175SOL    HW2 8771   0.238   1.510   3.958  0.7123 -0.0150  0.1782
 2175SOL    HW3 8772   0.165   1.557   3.834  1.4321  1.7912  0.4116
 2175SOL    MW4 8773   0.226   1.508   3.872 -0.0781 -0.2609  0.2921
 2176SOL     OW 8774   0.043   1.696   3.786 -0.6591 -0.1081 -0.2317
 2176SOL    HW2 8775   0.054   1.783   3.825 -1.3080 -0.7217  1.3857
 2176SOL    HW3 8776   0.023   1.713   3.694  0.5926  1.4043 -0.2471
 2176SOL    MW4 8777   0.042   1.710   3.779 -0.5796  0.0105 -0.0205
 2177SOL     OW 8778   0.022   1.923   3.923 -0.0703 -0.6378  0.0298
 2177SOL    HW2 8779   0.020   1.919   4.018 -0.4138 -0.2839  0.0380
 2177SOL    HW3 8780  -0.048   1.984   3.900  1.8346  1.4704 -0.3363
 2177SOL    MW4 8781   0.012   1.930   3.932  0.1359 -0.3130 -0.0169
 2178SOL     OW 8782   0.197   2.026   3.709  0.2429  0.1341  0.1467
 2178SOL    HW2 8783   0.211   2.119   3.724  0.9869 -0.1121  1.0503
 2178SOL    HW3 8784   0.139   1.999   3.780  1.6914 -0.5086  1.1070
 2178SOL    MW4 8785   0.191   2.035   3.720  0.5322  0.0169  0.3927
 2179SOL     OW 8786   0.254   2.279   3.836  0.2366 -0.1012 -0.5920
 2179SOL    HW2 8787   0.261   2.258   3.929  0.7158  0.5328 -0.4866
 2179SOL    HW3 8788   0.171   2.326   3.828  1.0796  1.4702 -0.1853
 2179SOL    MW4 8789   0.244   2.282   3.847  0.4111  0.1895 -0.5243
 2180SOL     OW 8790   0.000   2.416   3.797  0.3322 -0.0560  0.1552
 2180SOL    HW2 8791  -0.060   2.381   3.862 -0.8436 -0.7842 -1.2879
 2180SOL    HW3 8792   0.022   2.504   3.829 -1.5389  0.2323  0.6956
 2180SOL    MW4 8793  -0.005   2.423   3.810 -0.0696 -0.1140  0.0360
 2181SOL     OW 8794   0.043   2.678   3.891 -0.2716  0.2344 -0.5006
 2181SOL    HW2 8795   0.064   2.676   3.984 -1.5427  1.5504 -0.1637
 2181SOL    HW3 8796   0.115   2.725   3.850  0.1690 -0.1380 -0.1499
 2181SOL    MW4 8797   0.055   2.684   3.897 -0.3812  0.3588 -0.4096
 2182SOL     OW 8798   0.243   2.840   3.787  0.6835 -0.2008  0.5452
 2182SOL    HW2 8799   0.323   2.790   3.806  0.4075 -0.9620 -0.2378
 2182SOL    HW3 8800   0.238   2.842   3.692  1.2421  2.2522  0.5418
 2182SOL    MW4 8801   0.253   2.834   3.777  0.7208  0.0226  0.4416
 2183SOL     OW 8802   0.240   3.095   3.892 -0.4990  0.8253  0.0055
 2183SOL    HW2 8803   0.233   3.004   3.864  0.6337  0.8180 -0.2443
 2183SOL    HW3 8804   0.159   3.136   3.861 -1.6116 -0.3935  1.2418
 2183SOL    MW4 8805   0.228   3.088   3.885 -0.4964  0.6638  0.1357
 2184SOL     OW 8806   4.467   3.161   3.743 -0.1445  0.3704 -0.0137
 2184SOL    HW2 8807   4.452   3.255   3.759 -1.7029 -0.0607  1.1768
 2184SOL    HW3 8808   4.390   3.118   3.780  0.1833 -1.3322 -1.2572
 2184SOL    MW4 8809   4.455   3.168   3.750 -0.3076  0.0887 -0.0207
 2185SOL     OW 8810   4.459   3.441   3.798  0.5578 -0.5837 -0.4233
 2185SOL    HW2 8811   4.540   3.489   3.781  0.3068 -0.3815 -1.0750
 2185SOL    HW3 8812   4.450   3.442   3.893  1.8013 -1.4045 -0.2875
 2185SOL    MW4 8813   4.468   3.448   3.808  0.6890 -0.6652 -0.4911
 2186SOL     OW 8814   0.188   3.597   3.722 -0.0274 -0.3638 -0.0643
 2186SOL    HW2 8815   0.264   3.546   3.748 -0.2838  0.1935  1.8766
 2186SOL    HW3 8816   0.198   3.681   3.768 -0.4153  0.7600 -1.9539
 2186SOL    MW4 8817   0.199   3.602   3.731 -0.1124 -0.1419 -0.0575
 2187SOL     OW 8818   0.202   3.850   3.829 -0.3627  0.1469 -0.4542
 2187SOL    HW2 8819   0.204   3.868   3.923  0.4680 -0.3707 -0.3676
 2187SOL    HW3 8820   0.277   3.897   3.793 -0.5858  0.2164 -0.8383
 2187SOL    MW4 8821   0.212   3.859   3.836 -0.2825  0.0880 -0.4933
 2188SOL     OW 8822   4.484   4.035   3.777  0.2666  0.4535  0.0924
 2188SOL    HW2 8823   4.405   3.992   3.808  0.4105  0.2633  0.2007
 2188SOL    HW3 8824   4.554   3.972   3.797  0.6285  1.2354  1.3110
 2188SOL    MW4 8825   4.483   4.021   3.784  0.3333  0.5312  0.2675
 2189SOL     OW 8826   0.032   4.277   3.908 -0.1952 -0.4397 -0.0342
 2189SOL    HW2 8827   0.096   4.332   3.863 -2.6286  0.8577 -2.0460
 2189SOL    HW3 8828   0.032   4.195   3.858 -0.8361 -0.0589 -0.6649
 2189SOL    MW4 8829   0.041   4.274   3.895 -0.6008 -0.2184 -0.3827
 2190SOL     OW 8830   0.221   4.395   3.751  0.1092 -0.1300  0.3852
 2190SOL    HW2 8831   0.296   4.350   3.789  1.1582 -0.0104 -1.4893
 2190SOL    HW3 8832   0.226   4.484   3.786  2.0621  0.4778 -1.3304
 2190SOL    MW4 8833   0.231   4.401   3.761  0.5053 -0.0339 -0.0885
 2191SOL     OW 8834   0.696   4.621   3.930 -0.0725  0.3249 -0.5039
 2191SOL    HW2 8835   0.675   4.535   3.895 -2.2331  0.3519  0.6528
 2191SOL    HW3 8836   0.632   4.680   3.888  1.9920  1.5445 -2.0343
 2191SOL    MW4 8837   0.685   4.618   3.920 -0.0852  0.4892 -0.5531
 2192SOL     OW 8838   0.471   0.064   3.810 -0.4414  0.4635 -0.2995
 2192SOL    HW2 8839   0.454   0.153   3.841  0.5537  0.3702  0.5189
 2192SOL    HW3 8840   0.394   0.014   3.839 -1.5215  1.2692 -1.7065
 2192SOL    MW4 8841   0.458   0.069   3.818 -0.4526  0.5575 -0.3769
 2193SOL     OW 8842   0.451   0.351   3.875  0.0261 -0.3501 -0.0003
 2193SOL    HW2 8843   0.524   0.405   3.845  0.5624 -0.7293  0.6039
 2193SOL    HW3 8844   0.373   0.400   3.849  0.5014  0.3494 -0.1330
 2193SOL    MW4 8845   0.450   0.365   3.868  0.1595 -0.3078  0.0620
 2194SOL     OW 8846   0.683   0.509   3.835  0.3564 -0.0513  0.5184
 2194SOL    HW2 8847   0.764   0.463   3.859 -0.1865 -0.8096  0.9307
 2194SOL    HW3 8848   0.702   0.601   3.852  1.5170 -0.0932 -0.4721
 2194SOL    MW4 8849   0.696   0.515   3.840  0.4379 -0.1569  0.4423
 2195SOL     OW 8850   0.708   0.779   3.897 -0.2129  0.0915 -0.2982
 2195SOL    HW2 8851   0.760   0.840   3.845  0.8663 -1.3978 -0.9977
 2195SOL    HW3 8852   0.617   0.795   3.869 -0.1224  2.4241  0.6569
 2195SOL    MW4 8853   0.703   0.789   3.886 -0.0585  0.2028 -0.2646
 2196SOL     OW 8854   0.475   0.873   3.797 -0.0037  0.4915  0.1036
 2196SOL    HW2 8855   0.475   0.960   3.835  1.3150  0.3347  0.4794
 2196SOL    HW3 8856   0.395   0.832   3.830 -0.8452  1.7056 -0.4260
 2196SOL    MW4 8857   0.465   0.879   3.806  0.0593  0.6309  0.0832
 2197SOL     OW 8858   0.463   1.145   3.902  0.1534 -0.1130  0.2107
 2197SOL    HW2 8859   0.534   1.188   3.855  1.2809 -2.6289 -0.5084
 2197SOL    HW3 8860   0.384   1.169   3.855  0.8720  0.3938 -0.7513
 2197SOL    MW4 8861   0.462   1.154   3.890  0.3970 -0.3780 -0.0114
 2198SOL     OW 8862   0.687   1.289   3.815 -0.6857 -0.0450  0.2418
 2198SOL    HW2 8863   0.777   1.256   3.827 -0.7127 -0.1435  0.1772
 2198SOL    HW3 8864   0.677   1.297   3.721  0.0056  2.0865  0.3151
 2198SOL    MW4 8865   0.698   1.285   3.804 -0.5981  0.2232  0.2432
 2199SOL     OW 8866   0.894   1.666   3.764  0.0496 -0.1162  0.5243
 2199SOL    HW2 8867   0.979   1.625   3.780  0.7308  0.9645 -0.2186
 2199SOL    HW3 8868   0.888   1.670   3.668 -0.8049 -0.1248  0.5781
 2199SOL    MW4 8869   0.905   1.661   3.753  0.0268  0.0253  0.4334
 2200SOL     OW 8870   0.658   1.552   3.879  0.1075  0.4852  0.2547
 2200SOL    HW2 8871   0.736   1.592   3.841 -0.7709  1.9259 -0.0749
 2200SOL    HW3 8872   0.664   1.460   3.855  1.4838  0.6689 -0.1286
 2200SOL    MW4 8873   0.669   1.545   3.871  0.1732  0.6996  0.1605
 2201SOL     OW 8874   0.435   1.666   3.768  0.0651 -0.3889 -0.0369
 2201SOL    HW2 8875   0.514   1.627   3.808  0.5899 -1.1519 -1.7524
 2201SOL    HW3 8876   0.365   1.605   3.791  0.6964 -1.8204 -1.8037
 2201SOL    MW4 8877   0.436   1.653   3.777  0.2176 -0.6783 -0.4961
 2202SOL     OW 8878   0.677   2.015   3.765  0.6091 -0.3035 -1.2342
 2202SOL    HW2 8879   0.675   2.109   3.784 -0.9116 -0.3444 -1.1111
 2202SOL    HW3 8880   0.607   1.978   3.819  1.0445 -1.4769 -1.4545
 2202SOL    MW4 8881   0.667   2.022   3.775  0.4660 -0.4635 -1.2469
 2203SOL     OW 8882   0.688   2.276   3.862  0.1182 -0.0621  0.1983
 2203SOL    HW2 8883   0.764   2.318   3.821  0.2526 -0.1217  0.3856
 2203SOL    HW3 8884   0.613   2.325   3.828  0.2288 -0.1167 -0.1243
 2203SOL    MW4 8885   0.688   2.288   3.852  0.1506 -0.0770  0.1805
 2204SOL     OW 8886   0.470   2.421   3.745  0.5445  0.1755 -0.1792
 2204SOL    HW2 8887   0.398   2.364   3.774  0.1740  0.8552  0.2575
 2204SOL    HW3 8888   0.469   2.415   3.650  1.0117 -1.1589 -0.1202
 2204SOL    MW4 8889   0.460   2.413   3.736  0.5572  0.0889 -0.1137
 2205SOL     OW 8890   0.453   2.687   3.828  0.0567  0.3181 -0.0028
 2205SOL    HW2 8891   0.533   2.724   3.791  0.2635 -0.6665 -0.5583
 2205SOL    HW3 8892   0.448   2.598   3.791 -0.7508  0.0127  0.8232
 2205SOL    MW4 8893   0.463   2.680   3.818 -0.0225  0.1478  0.0331
 2206SOL     OW 8894   0.681   2.811   3.729 -0.1316 -0.2494  0.0006
 2206SOL    HW2 8895   0.763   2.777   3.765  0.5604 -0.2538 -1.5757
 2206SOL    HW3 8896   0.698   2.826   3.636 -1.9900 -0.4841 -0.4123
 2206SOL    MW4 8897   0.694   2.809   3.722 -0.2855 -0.2811 -0.2620
 2207SOL     OW 8898   0.665   3.070   3.827  0.5871  0.1126  0.5755
 2207SOL    HW2 8899   0.674   3.051   3.920  2.6418 -1.2901  0.1230
 2207SOL    HW3 8900   0.673   2.985   3.784 -0.2694  0.7515 -0.9027
 2207SOL    MW4 8901   0.667   3.056   3.833  0.7452  0.0117  0.3207
 2208SOL     OW 8902   0.435   3.217   3.731  0.2822 -0.1412  0.0521
 2208SOL    HW2 8903   0.518   3.172   3.747  0.6499 -0.0589 -1.5116
 2208SOL    HW3 8904   0.371   3.169   3.783  1.0562 -1.1167  0.1299
 2208SOL    MW4 8905   0.438   3.205   3.740  0.4328 -0.2592 -0.1438
 2209SOL     OW 8906   0.411   3.473   3.818 -0.7779 -0.3430  0.2160
 2209SOL    HW2 8907   0.486   3.524   3.787 -0.3352 -0.7718  0.5594
 2209SOL    HW3 8908   0.427   3.385   3.784 -0.9504 -0.5109  0.5667
 2209SOL    MW4 8909   0.423   3.468   3.810 -0.7423 -0.4218  0.3073
 2210SOL     OW 8910   0.663   3.603   3.730  0.0440  0.1224 -0.0614
 2210SOL    HW2 8911   0.656   3.691   3.767 -1.2932  0.5782 -1.3171
 2210SOL    HW3 8912   0.673   3.618   3.636  1.6948 -1.0407 -0.0972
 2210SOL    MW4 8913   0.663   3.617   3.722  0.0854  0.0291 -0.2320
 2211SOL     OW 8914   0.675   3.841   3.845  0.3866  0.3512 -0.2849
 2211SOL    HW2 8915   0.668   3.830   3.940 -0.2691  2.5331 -0.0374
 2211SOL    HW3 8916   0.744   3.907   3.834  1.0160 -0.4711 -1.3700
 2211SOL    MW4 8917   0.683   3.849   3.856  0.3831  0.5307 -0.3955
 2212SOL     OW 8918   0.453   3.971   3.766  0.1369 -0.4092  0.8755
 2212SOL    HW2 8919   0.532   3.924   3.793  0.3632 -0.5947 -0.0649
 2212SOL    HW3 8920   0.459   3.973   3.670 -0.9656 -0.3697  0.8023
 2212SOL    MW4 8921   0.465   3.965   3.757  0.0213 -0.4284  0.7420
 2213SOL     OW 8922   0.424   4.256   3.849 -0.2354  0.3098  0.5702
 2213SOL    HW2 8923   0.514   4.288   3.842 -0.4611  1.1061  1.1523
 2213SOL    HW3 8924   0.424   4.173   3.802  0.8808  0.1584  0.8206
 2213SOL    MW4 8925   0.436   4.249   3.842 -0.1179  0.3948  0.6802
 2214SOL     OW 8926   0.675   4.356   3.801  0.3315 -0.4401 -0.2306
 2214SOL    HW2 8927   0.756   4.318   3.836  0.5106  0.4824  0.3729
 2214SOL    HW3 8928   0.696   4.375   3.709  0.8005 -0.2209 -0.0806
 2214SOL    MW4 8929   0.689   4.354   3.793  0.4171 -0.2894 -0.1311
 2215SOL     OW 8930   1.108   0.016   3.905  0.3076  0.0867 -0.7095
 2215SOL    HW2 8931   1.190   0.049   3.867  0.7068 -0.7524 -0.5917
 2215SOL    HW3 8932   1.100  -0.073   3.871 -0.0992 -0.1465 -0.0198
 2215SOL    MW4 8933   1.118   0.009   3.896  0.3066 -0.0548 -0.6030
 2216SOL     OW 8934   0.877   0.126   3.796  0.2198 -0.2815  0.3829
 2216SOL    HW2 8935   0.963   0.093   3.823  0.5287  0.3703  0.2276
 2216SOL    HW3 8936   0.815   0.062   3.830  0.7517 -0.6267  0.7230
 2216SOL    MW4 8937   0.880   0.113   3.804  0.3307 -0.2410  0.4075
 2217SOL     OW 8938   0.929   0.389   3.881 -0.2970 -0.5856  0.0531
 2217SOL    HW2 8939   0.933   0.390   3.977 -0.3578 -0.2925  0.0548
 2217SOL    HW3 8940   0.936   0.297   3.857  0.0329 -0.6317  0.3263
 2217SOL    MW4 8941   0.930   0.377   3.890 -0.2614 -0.5530  0.0894
 2218SOL     OW 8942   1.115   0.569   3.776 -0.1614  0.0283  0.3995
 2218SOL    HW2 8943   1.189   0.517   3.807  0.2489 -1.1806 -2.5089
 2218SOL    HW3 8944   1.039   0.529   3.817  0.5584 -0.1251  1.6128
 2218SOL    MW4 8945   1.115   0.557   3.786 -0.0123 -0.1515  0.1757
 2219SOL     OW 8946   1.123   0.826   3.868 -0.0757 -0.2209  0.4471
 2219SOL    HW2 8947   1.137   0.810   3.961  1.5161 -1.5557  0.0070
 2219SOL    HW3 8948   1.123   0.739   3.828 -2.5283  0.2315 -0.5906
 2219SOL    MW4 8949   1.125   0.813   3.875 -0.1892 -0.3374  0.2520
 2220SOL     OW 8950   0.878   0.931   3.746 -0.3458 -0.1019 -0.3611
 2220SOL    HW2 8951   0.944   0.873   3.782 -0.6272 -0.2757 -0.1197
 2220SOL    HW3 8952   0.877   0.911   3.652  0.7305  0.6981 -0.5478
 2220SOL    MW4 8953   0.886   0.921   3.738 -0.2409 -0.0194 -0.3541
 2221SOL     OW 8954   0.939   1.184   3.870  0.1736  0.4158  0.2349
 2221SOL    HW2 8955   0.954   1.157   3.961 -1.1581 -0.7135  0.1443
 2221SOL    HW3 8956   0.928   1.102   3.823 -0.9055  1.0534 -0.6328
 2221SOL    MW4 8957   0.940   1.170   3.876 -0.1445  0.3510  0.1085
 2222SOL     OW 8958   1.175   1.292   3.746  0.2668  0.2361  0.1301
 2222SOL    HW2 8959   1.181   1.383   3.777 -0.2313  0.5711 -0.7378
 2222SOL    HW3 8960   1.099   1.256   3.790 -2.1247  1.5565 -2.7671
 2222SOL    MW4 8961   1.166   1.300   3.756 -0.1143  0.4545 -0.3664
 2223SOL     OW 8962   1.153   1.556   3.825 -0.1998  0.2154 -0.0072
 2223SOL    HW2 8963   1.157   1.570   3.920 -1.1622  0.4088  0.0090
 2223SOL    HW3 8964   1.218   1.616   3.789 -0.0288  0.3418  0.5087
 2223SOL    MW4 8965   1.162   1.566   3.833 -0.3042  0.2577  0.0632
 2224SOL     OW 8966   0.940   1.945   3.862  0.0821  0.7064 -0.2340
 2224SOL    HW2 8967   0.935   1.852   3.839 -1.0648  1.1241 -1.7624
 2224SOL    HW3 8968   0.855   1.981   3.835  0.1277  1.9975  1.2667
 2224SOL    MW4 8969   0.928   1.937   3.855 -0.0632  0.9320 -0.2377
 2225SOL     OW 8970   0.948   1.953   4.142  0.0868 -0.0117  0.3662
 2225SOL    HW2 8971   0.936   1.860   4.161  0.5369  0.0076  0.7520
 2225SOL    HW3 8972   0.959   1.957   4.047  2.4080 -0.6224  0.5663
 2225SOL    MW4 8973   0.948   1.941   4.132  0.4525 -0.0898  0.4435
 2226SOL     OW 8974   1.146   2.075   3.752 -0.2503  0.2136 -0.1435
 2226SOL    HW2 8975   1.067   2.027   3.778 -0.7100  0.3010 -1.3483
 2226SOL    HW3 8976   1.142   2.078   3.657  1.8253 -0.8072 -0.2908
 2226SOL    MW4 8977   1.135   2.069   3.743 -0.0372  0.0904 -0.3219
 2227SOL     OW 8978   1.143   2.338   3.857 -0.0798  0.1686 -0.1760
 2227SOL    HW2 8979   1.162   2.354   3.950  1.9560 -0.0790 -0.5191
 2227SOL    HW3 8980   1.139   2.243   3.849 -0.9896  0.2115 -0.2011
 2227SOL    MW4 8981   1.145   2.328   3.869  0.0688  0.1416 -0.2246
 2228SOL     OW 8982   0.915   2.421   3.732 -0.5001  0.1277  0.0052
 2228SOL    HW2 8983   0.911   2.510   3.767  0.0123  0.0623  0.2244
 2228SOL    HW3 8984   1.001   2.389   3.757 -0.8573 -0.5937  0.3070
 2228SOL    MW4 8985   0.926   2.429   3.740 -0.4797  0.0238  0.0739
 2229SOL     OW 8986   0.902   2.669   3.829 -0.3306 -0.2007  0.3764
 2229SOL    HW2 8987   0.892   2.640   3.920  0.2359 -0.3092  0.4012
 2229SOL    HW3 8988   0.980   2.724   3.829  0.9020 -1.9207 -0.4600
 2229SOL    MW4 8989   0.911   2.673   3.841 -0.0932 -0.4420  0.2689
 2230SOL     OW 8990   1.131   2.815   3.775 -0.0865  0.0952  0.2199
 2230SOL    HW2 8991   1.216   2.776   3.795 -0.3579  0.2846  1.8127
 2230SOL    HW3 8992   1.131   2.899   3.822 -1.4114 -0.2127  0.8053
 2230SOL    MW4 8993   1.142   2.821   3.784 -0.2971  0.0796  0.5074
 2231SOL     OW 8994   1.136   3.072   3.883 -0.0747 -0.1832 -0.3644
 2231SOL    HW2 8995   1.221   3.107   3.856 -0.6278  0.2109 -1.6044
 2231SOL    HW3 8996   1.072   3.126   3.837 -1.0022 -0.4161  0.6444
 2231SOL    MW4 8997   1.139   3.084   3.873 -0.2701 -0.1619 -0.3948
 2232SOL     OW 8998   0.916   3.207   3.753  0.2375 -0.0940  0.2685
 2232SOL    HW2 8999   0.925   3.204   3.658  0.8441  1.3882  0.2730
 2232SOL    HW3 9000   0.834   3.161   3.771  0.1497 -0.4213 -0.9616
 2232SOL    MW4 9001   0.907   3.201   3.743  0.3059  0.0584  0.1068
 2233SOL     OW 9002   0.897   3.465   3.836  0.6204  0.0380 -0.5129
 2233SOL    HW2 9003   0.902   3.374   3.806 -0.2881 -0.1150 -0.2241
 2233SOL    HW3 9004   0.819   3.500   3.792  1.4792  0.9559 -1.3463
 2233SOL    MW4 9005   0.887   3.457   3.826  0.6139  0.1388 -0.5846
 2234SOL     OW 9006   1.125   3.595   3.761  0.2993  0.6984 -0.0203
 2234SOL    HW2 9007   1.117   3.684   3.796 -0.5715  0.3949  0.5818
 2234SOL    HW3 9008   1.047   3.550   3.794  1.6432 -0.8074  1.2030
 2234SOL    MW4 9009   1.114   3.600   3.770  0.3618  0.4597  0.2205
 2235SOL     OW 9010   1.129   3.846   3.861  0.4095 -0.1077  0.1815
 2235SOL    HW2 9011   1.130   3.869   3.954 -1.9409  2.0493 -0.2658
 2235SOL    HW3 9012   1.200   3.896   3.823 -0.8047  1.7364  0.2731
 2235SOL    MW4 9013   1.138   3.855   3.868 -0.0609  0.4201  0.1347
 2236SOL     OW 9014   0.907   4.010   3.774  0.4987 -0.2619 -0.4636
 2236SOL    HW2 9015   0.971   3.948   3.809  0.5237  0.2275  0.3554
 2236SOL    HW3 9016   0.933   4.022   3.682  0.0055 -2.0980 -0.8728
 2236SOL    MW4 9017   0.918   4.003   3.766  0.4369 -0.4396 -0.4096
 2237SOL     OW 9018   0.921   4.253   3.881 -0.3942 -0.2200  0.0822
 2237SOL    HW2 9019   0.946   4.238   3.972 -1.7033  2.7433  0.9754
 2237SOL    HW3 9020   0.923   4.165   3.841  0.2013 -1.5604  2.9285
 2237SOL    MW4 9021   0.925   4.239   3.887 -0.4884 -0.0057  0.5755
 2238SOL     OW 9022   1.120   4.438   3.790 -0.2555 -0.5062 -0.0028
 2238SOL    HW2 9023   1.046   4.391   3.829 -0.0414 -0.5967  0.2954
 2238SOL    HW3 9024   1.111   4.423   3.696 -1.6486  0.9734 -0.1307
 2238SOL    MW4 9025   1.109   4.430   3.783 -0.4110 -0.3228  0.0196
 2239SOL     OW 9026   1.546   4.661   3.853  0.4148 -0.1391 -0.3950
 2239SOL    HW2 9027   1.549   4.660   3.949  0.5099 -0.8034 -0.4087
 2239SOL    HW3 9028   1.536   4.570   3.828  0.5488  0.0193 -1.0278
 2239SOL    MW4 9029   1.545   4.649   3.862  0.4450 -0.2060 -0.4802
 2240SOL     OW 9030   1.318   0.145   3.771 -0.5296 -0.5904  0.0399
 2240SOL    HW2 9031   1.323   0.231   3.813 -0.9782 -0.6492  0.2234
 2240SOL    HW3 9032   1.399   0.101   3.795 -1.1615 -0.9580  1.5849
 2240SOL    MW4 9033   1.329   0.151   3.780 -0.6721 -0.6467  0.2682
 2241SOL     OW 9034   1.346   0.411   3.850 -0.1504 -0.2620  0.5388
 2241SOL    HW2 9035   1.347   0.398   3.945 -0.9548  1.6491  0.8124
 2241SOL    HW3 9036   1.437   0.432   3.828  0.3390 -2.1606  0.6611
 2241SOL    MW4 9037   1.358   0.412   3.860 -0.1920 -0.2603  0.5910
 2242SOL     OW 9038   1.597   0.473   3.747  0.2949 -0.2104  0.0818
 2242SOL    HW2 9039   1.681   0.438   3.775  0.8060  0.5893 -0.4162
 2242SOL    HW3 9040   1.588   0.557   3.794  0.6991  0.6528 -1.3481
 2242SOL    MW4 9041   1.607   0.480   3.757  0.4158  0.0090 -0.1724
 2243SOL     OW 9042   1.564   0.722   3.871  0.0784 -0.3165 -0.1820
 2243SOL    HW2 9043   1.635   0.782   3.850 -1.3552  0.9953 -1.4131
 2243SOL    HW3 9044   1.484   0.768   3.843 -1.3558 -1.3024  2.1342
 2243SOL    MW4 9045   1.562   0.736   3.865 -0.2999 -0.2735 -0.0386
 2244SOL     OW 9046   1.371   0.886   3.788  0.3817 -0.2835  0.1307
 2244SOL    HW2 9047   1.389   0.974   3.820  0.9841 -0.4272  0.2018
 2244SOL    HW3 9048   1.279   0.870   3.812  0.1451  0.4755 -0.2598
 2244SOL    MW4 9049   1.361   0.895   3.795  0.4300 -0.2024  0.0885
 2245SOL     OW 9050   1.386   1.154   3.868  0.3877 -0.2802 -0.1680
 2245SOL    HW2 9051   1.359   1.148   3.959 -0.5797 -0.4176 -0.4567
 2245SOL    HW3 9052   1.314   1.201   3.824 -0.6447 -2.9033 -1.4379
 2245SOL    MW4 9053   1.373   1.160   3.874  0.1237 -0.6444 -0.3734
 2246SOL     OW 9054   1.619   1.293   3.768  0.0341 -0.0179 -0.0782
 2246SOL    HW2 9055   1.691   1.238   3.798  0.4476  0.7078  0.2870
 2246SOL    HW3 9056   1.540   1.248   3.798  0.3553 -0.5281  0.0073
 2246SOL    MW4 9057   1.618   1.280   3.776  0.1310  0.0105 -0.0188
 2247SOL     OW 9058   1.554   1.574   3.885  0.2211 -0.3362 -0.4083
 2247SOL    HW2 9059   1.621   1.630   3.847  0.2219  0.7334  1.1356
 2247SOL    HW3 9060   1.579   1.485   3.859  1.9196  0.1047 -0.3111
 2247SOL    MW4 9061   1.566   1.570   3.876  0.4454 -0.1370 -0.1919
 2248SOL     OW 9062   1.362   1.719   3.747 -0.0203 -0.3620  0.1627
 2248SOL    HW2 9063   1.357   1.800   3.797  0.1093 -0.6553  0.6558
 2248SOL    HW3 9064   1.412   1.659   3.803 -0.4564 -0.9109 -0.0231
 2248SOL    MW4 9065   1.368   1.721   3.761 -0.0607 -0.4731  0.2031
 2249SOL     OW 9066   1.371   1.965   3.881  0.1854  0.6148 -0.1092
 2249SOL    HW2 9067   1.350   1.984   3.973  0.2750  2.2735 -0.4104
 2249SOL    HW3 9068   1.293   1.994   3.833  1.2740  2.4825 -0.8030
 2249SOL    MW4 9069   1.358   1.971   3.887  0.3408  1.0802 -0.2403
 2250SOL     OW 9070   1.597   2.342   3.858 -0.0289 -0.4277 -0.0807
 2250SOL    HW2 9071   1.600   2.253   3.823 -0.5449 -0.9790  1.2273
 2250SOL    HW3 9072   1.684   2.378   3.841  0.4160 -1.4440  0.0387
 2250SOL    MW4 9073   1.609   2.335   3.851 -0.0381 -0.6342  0.1078
 2251SOL     OW 9074   1.538   2.334   4.128 -0.2062  0.1460  0.2359
 2251SOL    HW2 9075   1.562   2.252   4.170 -1.5889 -1.1875 -1.4562
 2251SOL    HW3 9076   1.572   2.326   4.039 -1.1701  1.0006 -0.2236
 2251SOL    MW4 9077   1.545   2.322   4.121 -0.5157  0.0827 -0.0482
 2252SOL     OW 9078   1.366   2.451   3.752  0.2401 -0.1099 -0.2467
 2252SOL    HW2 9079   1.449   2.421   3.789 -0.2140 -0.2253  0.6927
 2252SOL    HW3 9080   1.299   2.398   3.797 -0.4251  0.9050 -0.0268
 2252SOL    MW4 9081   1.368   2.440   3.763  0.0924  0.0091 -0.0937
 2253SOL     OW 9082   1.393   2.702   3.857  0.0640 -0.2221  0.2526
 2253SOL    HW2 9083   1.377   2.685   3.950  0.1032 -1.1206  0.0964
 2253SOL    HW3 9084   1.384   2.616   3.815  1.6387 -0.1065 -0.3544
 2253SOL    MW4 9085   1.389   2.688   3.863  0.2768 -0.3250  0.1519
 2254SOL     OW 9086   1.623   2.819   3.755  0.0478  0.0802 -0.0085
 2254SOL    HW2 9087   1.550   2.772   3.794 -0.4161  0.7360 -0.0668
 2254SOL    HW3 9088   1.590   2.849   3.670 -0.1085  1.5859  0.5610
 2254SOL    MW4 9089   1.609   2.817   3.749 -0.0339  0.3653  0.0589
 2255SOL     OW 9090   1.605   3.067   3.899 -0.4785  0.1902  0.2452
 2255SOL    HW2 9091   1.573   3.057   3.988 -0.8279  0.9635  0.2113
 2255SOL    HW3 9092   1.621   2.978   3.869 -0.4471 -0.0772  1.0457
 2255SOL    MW4 9093   1.603   3.054   3.907 -0.5205  0.2570  0.3464
 2256SOL     OW 9094   1.364   3.163   3.743  0.2387 -0.0980  0.3794
 2256SOL    HW2 9095   1.362   3.258   3.746  0.9936 -0.0327 -0.6566
 2256SOL    HW3 9096   1.437   3.139   3.801 -0.2105 -0.0685  0.9583
 2256SOL    MW4 9097   1.373   3.172   3.751  0.2789 -0.0856  0.3190
 2257SOL     OW 9098   1.347   3.436   3.796 -0.0554  0.2857  0.7442
 2257SOL    HW2 9099   1.417   3.497   3.772 -0.4071  0.1885 -0.5563
 2257SOL    HW3 9100   1.266   3.485   3.786 -0.3534 -0.4315 -0.4808
 2257SOL    MW4 9101   1.346   3.450   3.792 -0.1410  0.1786  0.4113
 2258SOL     OW 9102   1.558   3.590   3.744  0.3320  0.4910  0.2814
 2258SOL    HW2 9103   1.635   3.557   3.792 -0.2169  0.7848  1.3663
 2258SOL    HW3 9104   1.546   3.679   3.777 -2.0493 -0.4472  2.0533
 2258SOL    MW4 9105   1.567   3.597   3.755 -0.0546  0.4058  0.6585
 2259SOL     OW 9106   1.571   3.840   3.860  0.4138 -0.1961  0.2372
 2259SOL    HW2 9107   1.577   3.842   3.956 -0.8505 -0.8513  0.3365
 2259SOL    HW3 9108   1.504   3.904   3.838 -0.1639 -0.9089 -0.1194
 2259SOL    MW4 9109   1.563   3.848   3.870  0.1705 -0.3765  0.2034
 2260SOL     OW 9110   1.354   3.982   3.775  0.0676 -0.2166  0.1307
 2260SOL    HW2 9111   1.326   4.066   3.812  0.8847 -0.1686  0.6548
 2260SOL    HW3 9112   1.348   3.994   3.680  2.3406  1.1927  0.1352
 2260SOL    MW4 9113   1.349   3.995   3.767  0.4752 -0.0243  0.2005
 2261SOL     OW 9114   1.312   4.237   3.861  0.1071 -0.0799  0.1202
 2261SOL    HW2 9115   1.394   4.283   3.873  0.4450 -0.6915  0.1976
 2261SOL    HW3 9116   1.249   4.304   3.835  1.0483  0.1089 -1.7436
 2261SOL    MW4 9117   1.314   4.252   3.859  0.2757 -0.1354 -0.1156
 2262SOL     OW 9118   1.538   4.397   3.795 -0.2173  0.0435 -0.0381
 2262SOL    HW2 9119   1.621   4.356   3.819 -0.5656 -0.7067 -0.1329
 2262SOL    HW3 9120   1.535   4.392   3.700 -1.2091 -1.5426  0.0721
 2262SOL    MW4 9121   1.549   4.391   3.786 -0.3941 -0.2646 -0.0360
 2263SOL     OW 9122   2.030   4.639   3.875  0.4321  0.1482 -0.1556
 2263SOL    HW2 9123   2.033   4.550   3.840  1.0186 -0.0872  0.4772
 2263SOL    HW3 9124   2.106   4.683   3.837 -0.0040  0.4692 -0.6770
 2263SOL    MW4 9125   2.040   4.633   3.865  0.4516  0.1597 -0.1411
 2264SOL     OW 9126   1.810   0.116   3.795  0.1111  0.1023  0.4238
 2264SOL    HW2 9127   1.888   0.070   3.825 -0.1308 -1.0300 -0.6402
 2264SOL    HW3 9128   1.737   0.061   3.825 -0.2003  0.0612 -0.3969
 2264SOL    MW4 9129   1.810   0.103   3.803  0.0380 -0.0525  0.1752
 2265SOL     OW 9130   1.834   0.386   3.884 -0.2001  0.3119  0.7708
 2265SOL    HW2 9131   1.816   0.384   3.977 -0.6903  0.2304  0.6732
 2265SOL    HW3 9132   1.813   0.298   3.853  0.9142  0.0420  0.7611
 2265SOL    MW4 9133   1.829   0.374   3.892 -0.1178  0.2655  0.7567
 2266SOL     OW 9134   2.060   0.482   3.779 -0.0635  0.0244  0.1964
 2266SOL    HW2 9135   1.975   0.453   3.811 -0.3067 -0.5868 -0.9646
 2266SOL    HW3 9136   2.054   0.475   3.683  0.6897  1.6493  0.0092
 2266SOL    MW4 9137   2.048   0.477   3.770  0.0038  0.1582  0.0186
 2267SOL     OW 9138   2.012   0.738   3.876 -0.1298 -0.0938 -0.3518
 2267SOL    HW2 9139   2.027   0.728   3.970 -0.7062  0.0073 -0.2436
 2267SOL    HW3 9140   2.040   0.655   3.837  0.8740  0.1681 -0.1848
 2267SOL    MW4 9141   2.017   0.726   3.883 -0.0734 -0.0460 -0.3152
 2268SOL     OW 9142   1.779   0.863   3.801 -0.1232  0.5872 -0.5466
 2268SOL    HW2 9143   1.850   0.811   3.838 -0.3692  0.6446  0.0066
 2268SOL    HW3 9144   1.798   0.866   3.707  0.4868  0.4214 -0.4302
 2268SOL    MW4 9145   1.791   0.856   3.794 -0.0750  0.5729 -0.4582
 2269SOL     OW 9146   1.820   1.135   3.826 -0.4746  0.4531 -0.4108
 2269SOL    HW2 9147   1.813   1.137   3.921 -0.6100  1.5235 -0.4379
 2269SOL    HW3 9148   1.809   1.043   3.803 -1.1934  0.2916  0.5546
 2269SOL    MW4 9149   1.817   1.123   3.835 -0.5872  0.5732 -0.2871
 2270SOL     OW 9150   2.034   1.285   3.737  0.0131 -0.4189 -0.3710
 2270SOL    HW2 9151   2.110   1.234   3.765 -0.5931 -1.6794 -0.9404
 2270SOL    HW3 9152   1.959   1.237   3.773 -0.4748  1.4224  1.1159
 2270SOL    MW4 9153   2.034   1.272   3.745 -0.1316 -0.3422 -0.2499
 2271SOL     OW 9154   2.272   1.906   3.924  0.0019 -0.5502 -0.3685
 2271SOL    HW2 9155   2.204   1.964   3.890  0.2094  0.0352  0.2110
 2271SOL    HW3 9156   2.282   1.932   4.015  2.2449  0.5870 -0.9035
 2271SOL    MW4 9157   2.264   1.917   3.931  0.3252 -0.3228 -0.3631
 2272SOL     OW 9158   1.796   1.697   3.777  0.3036 -0.0666 -0.0109
 2272SOL    HW2 9159   1.811   1.781   3.819 -1.1703 -0.5081  1.4724
 2272SOL    HW3 9160   1.868   1.642   3.807  0.4019  0.2259  0.2904
 2272SOL    MW4 9161   1.807   1.701   3.787  0.1222 -0.0862  0.2244
 2273SOL     OW 9162   1.595   2.080   3.776 -0.5120  0.2930  0.0054
 2273SOL    HW2 9163   1.520   2.030   3.809 -0.1055 -1.1332 -1.1704
 2273SOL    HW3 9164   1.594   2.065   3.681  1.0989  0.4775 -0.0563
 2273SOL    MW4 9165   1.585   2.072   3.768 -0.2458  0.1292 -0.1581
 2274SOL     OW 9166   1.834   1.957   3.888  0.7457 -0.0601 -0.3101
 2274SOL    HW2 9167   1.825   1.968   3.983 -0.4300 -0.9816 -0.3138
 2274SOL    HW3 9168   1.758   2.002   3.852  0.3661 -1.0564 -0.7423
 2274SOL    MW4 9169   1.823   1.965   3.896  0.5405 -0.3130 -0.3676
 2275SOL     OW 9170   2.881   2.802   4.194 -0.4168 -0.0254 -0.1925
 2275SOL    HW2 9171   2.859   2.840   4.279 -0.2824  0.2520 -0.2821
 2275SOL    HW3 9172   2.797   2.770   4.160 -0.6370  0.7523 -0.3952
 2275SOL    MW4 9173   2.867   2.803   4.200 -0.4282  0.1140 -0.2308
 2276SOL     OW 9174   1.838   2.450   3.772  0.0550  0.1231  0.5140
 2276SOL    HW2 9175   1.853   2.538   3.806  0.8280  0.5610 -0.8864
 2276SOL    HW3 9176   1.794   2.465   3.688  1.7042 -0.7372 -0.5257
 2276SOL    MW4 9177   1.834   2.464   3.765  0.3746  0.0675  0.1922
 2277SOL     OW 9178   1.848   2.719   3.864  0.4139  0.2285 -0.1471
 2277SOL    HW2 9179   1.836   2.743   3.956 -0.4814 -1.4305  0.1904
 2277SOL    HW3 9180   1.774   2.760   3.819 -0.0837 -0.3472  0.1387
 2277SOL    MW4 9181   1.836   2.727   3.870  0.2302 -0.0663 -0.0646
 2278SOL     OW 9182   2.078   2.858   3.755  0.0158  0.3132  0.4127
 2278SOL    HW2 9183   2.150   2.807   3.795 -1.0131 -1.6954 -0.2225
 2278SOL    HW3 9184   1.999   2.820   3.793 -0.8919 -0.2842 -2.0468
 2278SOL    MW4 9185   2.077   2.846   3.766 -0.2398 -0.0310  0.0043
 2279SOL     OW 9186   2.041   3.119   3.872  0.1381 -0.3541  0.5195
 2279SOL    HW2 9187   2.107   3.184   3.848  0.0961 -0.7200 -0.6552
 2279SOL    HW3 9188   2.070   3.039   3.828 -0.8972 -0.6009  0.2652
 2279SOL    MW4 9189   2.054   3.117   3.863 -0.0041 -0.4346  0.3307
 2280SOL     OW 9190   1.798   3.232   3.797  0.0546 -0.5137 -0.1319
 2280SOL    HW2 9191   1.868   3.186   3.843  0.5875  1.1616  0.7876
 2280SOL    HW3 9192   1.718   3.188   3.826  0.6028 -1.3020  0.2007
 2280SOL    MW4 9193   1.797   3.220   3.807  0.1973 -0.3965  0.0334
 2281SOL     OW 9194   1.790   3.494   3.856 -0.0715 -0.2831 -0.1799
 2281SOL    HW2 9195   1.876   3.508   3.817  1.8759 -1.7066  3.3254
 2281SOL    HW3 9196   1.772   3.401   3.843 -0.9844 -0.0263 -0.7503
 2281SOL    MW4 9197   1.799   3.483   3.849  0.0650 -0.4370  0.2069
 2282SOL     OW 9198   2.026   3.606   3.792 -0.1115 -0.3933 -0.1066
 2282SOL    HW2 9199   2.098   3.559   3.834 -0.9499 -0.3200  1.4448
 2282SOL    HW3 9200   2.046   3.603   3.698  0.7104 -2.3715  0.1182
 2282SOL    MW4 9201   2.038   3.599   3.785 -0.1137 -0.6449  0.1276
 2283SOL     OW 9202   1.989   3.871   3.900  0.4180  0.0774  0.1197
 2283SOL    HW2 9203   2.070   3.906   3.862 -0.3712  0.7180 -0.9860
 2283SOL    HW3 9204   1.982   3.783   3.862 -0.1291  0.5431 -0.8534
 2283SOL    MW4 9205   1.999   3.864   3.890  0.2419  0.2234 -0.1550
 2284SOL     OW 9206   1.762   4.006   3.765  0.2384  0.1436  0.2931
 2284SOL    HW2 9207   1.844   3.966   3.795 -0.1692 -1.2697 -0.4322
 2284SOL    HW3 9208   1.694   3.944   3.792 -0.3374 -0.0197 -1.4968
 2284SOL    MW4 9209   1.764   3.992   3.773  0.1087 -0.0644 -0.0384
 2285SOL     OW 9210   1.755   4.253   3.874 -0.3143  0.2774 -0.6094
 2285SOL    HW2 9211   1.834   4.297   3.845  1.1114 -1.2982  0.7264
 2285SOL    HW3 9212   1.763   4.164   3.839 -1.3602  0.0134 -0.2084
 2285SOL    MW4 9213   1.766   4.247   3.865 -0.2642  0.0348 -0.3803
 2286SOL     OW 9214   1.988   4.367   3.784  0.5075 -0.1676  0.3569
 2286SOL    HW2 9215   2.075   4.328   3.786  0.3376 -0.5938 -0.2284
 2286SOL    HW3 9216   1.969   4.378   3.690 -0.6453 -1.4089  0.4204
 2286SOL    MW4 9217   1.997   4.363   3.772  0.3331 -0.3872  0.2880
 2287SOL     OW 9218   2.490   4.652   3.876 -0.2904  0.3846  0.3061
 2287SOL    HW2 9219   2.495   4.632   3.969  1.9409 -1.4378 -0.1768
 2287SOL    HW3 9220   2.567   4.707   3.859  0.1044 -0.4802 -0.7443
 2287SOL    MW4 9221   2.501   4.657   3.886  0.0563  0.0305  0.1037
 2288SOL     OW 9222   2.258   0.086   3.776  0.3191  0.3332 -0.9631
 2288SOL    HW2 9223   2.343   0.053   3.804  0.5541  1.6475 -0.0614
 2288SOL    HW3 9224   2.263   0.087   3.680  1.2089  0.1307 -0.9233
 2288SOL    MW4 9225   2.270   0.082   3.767  0.4673  0.4799 -0.8388
 2289SOL     OW 9226   2.261   0.327   3.929  0.2997  0.4449  0.1082
 2289SOL    HW2 9227   2.290   0.242   3.896  2.6663  1.0874  0.4416
 2289SOL    HW3 9228   2.196   0.357   3.866  1.2450 -0.5122 -1.3397
 2289SOL    MW4 9229   2.257   0.320   3.916  0.7365  0.4033 -0.0389
 2290SOL     OW 9230   2.481   0.491   3.832 -0.2061 -0.2908  0.2310
 2290SOL    HW2 9231   2.397   0.458   3.863  0.5590 -1.8056  0.7658
 2290SOL    HW3 9232   2.467   0.507   3.739 -0.3781 -3.0298 -0.2573
 2290SOL    MW4 9233   2.468   0.489   3.824 -0.1276 -0.8521  0.2372
 2291SOL     OW 9234   2.471   0.754   3.936 -0.3965  0.1817 -0.1053
 2291SOL    HW2 9235   2.406   0.808   3.892 -1.2123 -1.0171 -0.3921
 2291SOL    HW3 9236   2.460   0.667   3.897  1.4636 -0.0014 -0.2597
 2291SOL    MW4 9237   2.461   0.750   3.925 -0.2584 -0.0007 -0.1633
 2292SOL     OW 9238   2.248   0.868   3.801 -0.3338 -0.0256  0.0238
 2292SOL    HW2 9239   2.170   0.817   3.826 -1.2720  1.2445 -0.2483
 2292SOL    HW3 9240   2.246   0.868   3.706  0.2620 -0.3686  0.0103
 2292SOL    MW4 9241   2.237   0.861   3.792 -0.3788  0.0967 -0.0138
 2293SOL     OW 9242   2.244   1.138   3.848 -0.3042 -0.1400  0.1032
 2293SOL    HW2 9243   2.230   1.146   3.943  0.4899 -0.3994  0.2423
 2293SOL    HW3 9244   2.257   1.045   3.833  0.2849 -0.0180 -0.1607
 2293SOL    MW4 9245   2.244   1.127   3.859 -0.1216 -0.1582  0.0868
 2294SOL     OW 9246   2.481   1.245   3.766 -0.0237 -0.2022 -0.1716
 2294SOL    HW2 9247   2.492   1.336   3.793  0.5664 -0.2766 -0.1492
 2294SOL    HW3 9248   2.395   1.220   3.799  0.7777 -0.3594  1.9199
 2294SOL    MW4 9249   2.471   1.254   3.774  0.1602 -0.2328  0.1073
 2295SOL     OW 9250   2.456   1.505   3.875  0.1374  0.0502  0.2295
 2295SOL    HW2 9251   2.531   1.563   3.859  0.6032 -0.5919  0.0514
 2295SOL    HW3 9252   2.390   1.534   3.813  0.9872 -0.7178 -1.0430
 2295SOL    MW4 9253   2.457   1.517   3.865  0.3109 -0.1358  0.0379
 2296SOL     OW 9254   1.997   1.532   3.859 -0.5355 -0.3698 -0.0240
 2296SOL    HW2 9255   2.002   1.501   3.950  1.0120 -1.8547 -0.5876
 2296SOL    HW3 9256   2.007   1.452   3.807 -0.9849  0.5381 -1.5108
 2296SOL    MW4 9257   1.999   1.517   3.864 -0.3906 -0.4458 -0.2947
 2297SOL     OW 9258   2.240   1.646   3.750  0.3566  0.2256  0.3794
 2297SOL    HW2 9259   2.161   1.603   3.781  1.2538 -2.1727 -0.5442
 2297SOL    HW3 9260   2.244   1.728   3.800 -2.1411 -0.0761  1.1464
 2297SOL    MW4 9261   2.230   1.651   3.761  0.1454 -0.1305  0.3588
 2298SOL     OW 9262   2.439   2.018   3.753 -0.2895  0.3350  0.0509
 2298SOL    HW2 9263   2.434   2.110   3.779 -1.8213  0.3520 -0.2701
 2298SOL    HW3 9264   2.379   1.972   3.813  0.4813 -0.4591  0.2239
 2298SOL    MW4 9265   2.430   2.024   3.764 -0.3896  0.2325  0.0315
 2299SOL     OW 9266   2.269   2.444   3.797 -0.0481 -0.1406 -0.0637
 2299SOL    HW2 9267   2.260   2.416   3.706 -0.6312  0.3428 -0.1608
 2299SOL    HW3 9268   2.194   2.406   3.842 -0.4439  0.6503 -0.0464
 2299SOL    MW4 9269   2.258   2.435   3.791 -0.1771  0.0277 -0.0744
 2300SOL     OW 9270   2.050   2.321   3.911 -0.2144 -0.4274 -0.3679
 2300SOL    HW2 9271   2.059   2.232   3.879 -1.1361 -0.5020 -0.4348
 2300SOL    HW3 9272   1.970   2.354   3.869 -1.1338 -0.3380  1.3928
 2300SOL    MW4 9273   2.040   2.314   3.901 -0.4575 -0.4253 -0.1445
 2301SOL     OW 9274   2.260   2.704   3.881  0.5625  0.1043 -0.0502
 2301SOL    HW2 9275   2.230   2.692   3.971  0.4897  1.1719  0.0727
 2301SOL    HW3 9276   2.251   2.618   3.841  0.5578 -0.3626  0.9546
 2301SOL    MW4 9277   2.255   2.691   3.888  0.5527  0.1836  0.0987
 2302SOL     OW 9278   2.482   2.821   3.777 -0.1654 -0.3374  0.0083
 2302SOL    HW2 9279   2.407   2.777   3.817 -0.0722  0.3172  0.9356
 2302SOL    HW3 9280   2.463   2.821   3.683 -0.7279 -1.2773  0.1176
 2302SOL    MW4 9281   2.469   2.815   3.770 -0.2277 -0.3750  0.1450
 2303SOL     OW 9282   2.497   3.085   3.871  0.1517 -0.6328  0.0749
 2303SOL    HW2 9283   2.477   3.103   3.963  0.9301  0.3518  0.0587
 2303SOL    HW3 9284   2.480   2.991   3.861 -0.7191 -0.5940  1.0145
 2303SOL    MW4 9285   2.492   3.075   3.882  0.1392 -0.4978  0.1967
 2304SOL     OW 9286   2.286   3.221   3.756  0.0715  0.2716  0.3889
 2304SOL    HW2 9287   2.303   3.308   3.792 -0.5228  0.7968 -0.5724
 2304SOL    HW3 9288   2.355   3.166   3.793  0.2347  1.0639  1.3002
 2304SOL    MW4 9289   2.297   3.226   3.766  0.0145  0.4454  0.3824
 2305SOL     OW 9290   2.232   3.463   3.863 -0.2842  0.5748 -0.7038
 2305SOL    HW2 9291   2.231   3.445   3.957 -1.4713  0.7857 -0.6653
 2305SOL    HW3 9292   2.308   3.520   3.850  1.1669 -1.2134 -0.2189
 2305SOL    MW4 9293   2.242   3.468   3.874 -0.2494  0.3669 -0.6347
 2306SOL     OW 9294   2.470   3.571   3.766  0.1546  0.0639 -0.2826
 2306SOL    HW2 9295   2.540   3.524   3.812 -0.9331 -0.1247  1.2120
 2306SOL    HW3 9296   2.501   3.578   3.676  1.0549 -2.1054 -0.1707
 2306SOL    MW4 9297   2.483   3.565   3.761  0.1299 -0.2472 -0.0706
 2307SOL     OW 9298   2.416   3.828   3.881  0.5599 -0.1418 -0.3573
 2307SOL    HW2 9299   2.495   3.875   3.854 -0.0234  0.5078 -0.9407
 2307SOL    HW3 9300   2.424   3.742   3.838  1.5946 -0.5746  0.6656
 2307SOL    MW4 9301   2.427   3.823   3.871  0.6194 -0.1132 -0.2995
 2308SOL     OW 9302   2.221   3.980   3.769 -0.0122  0.1932 -0.1072
 2308SOL    HW2 9303   2.283   3.923   3.815 -0.0492  0.4563  0.2694
 2308SOL    HW3 9304   2.237   3.963   3.676  1.7286  1.4114 -0.0585
 2308SOL    MW4 9305   2.231   3.970   3.762  0.2124  0.3886 -0.0508
 2309SOL     OW 9306   2.227   4.233   3.872  0.4251 -0.1802 -0.3660
 2309SOL    HW2 9307   2.230   4.210   3.965  2.5813 -0.2331 -0.4245
 2309SOL    HW3 9308   2.230   4.149   3.826  0.6971 -0.0959 -0.5025
 2309SOL    MW4 9309   2.228   4.219   3.878  0.7453 -0.1755 -0.3917
 2310SOL     OW 9310   2.455   4.385   3.784  0.0606  0.0790  0.5105
 2310SOL    HW2 9311   2.380   4.331   3.811  0.3489 -0.6076 -0.0218
 2310SOL    HW3 9312   2.446   4.466   3.834 -1.6228  0.4298 -0.2997
 2310SOL    MW4 9313   2.444   4.388   3.794 -0.1233  0.0343  0.3333
 2311SOL     OW 9314   2.902   4.624   3.877  0.0131  0.2395  0.2145
 2311SOL    HW2 9315   2.904   4.591   3.967 -1.2253 -2.3363 -0.6332
 2311SOL    HW3 9316   2.990   4.657   3.862  0.9986 -1.6140  1.5967
 2311SOL    MW4 9317   2.914   4.624   3.887 -0.0205 -0.3448  0.2849
 2312SOL     OW 9318   2.714   0.144   3.796  0.3935 -0.2494 -0.4556
 2312SOL    HW2 9319   2.778   0.090   3.843  0.0078 -0.4679 -0.1765
 2312SOL    HW3 9320   2.722   0.117   3.705  0.4698 -0.5083 -0.3728
 2312SOL    MW4 9321   2.724   0.134   3.790  0.3526 -0.3124 -0.4077
 2313SOL     OW 9322   2.703   0.377   3.928  0.1264  0.1912  0.3477
 2313SOL    HW2 9323   2.708   0.303   3.868 -0.8127  0.4735 -0.1002
 2313SOL    HW3 9324   2.626   0.426   3.898 -0.3037  0.3745  1.7372
 2313SOL    MW4 9325   2.693   0.374   3.916 -0.0541  0.2527  0.4721
 2314SOL     OW 9326   2.926   0.484   3.814  0.3227  0.9878  0.2931
 2314SOL    HW2 9327   3.005   0.441   3.845  0.3816  1.0351  0.2079
 2314SOL    HW3 9328   2.855   0.439   3.859  0.3944  0.9060  0.3242
 2314SOL    MW4 9329   2.927   0.473   3.824  0.3402  0.9833  0.2861
 2315SOL     OW 9330   3.113   0.880   3.759 -0.2195  0.2982 -0.1134
 2315SOL    HW2 9331   3.192   0.825   3.767 -0.2791  0.2052 -0.1678
 2315SOL    HW3 9332   3.097   0.886   3.665  0.3188  1.1621 -0.1645
 2315SOL    MW4 9333   3.122   0.874   3.748 -0.1564  0.3999 -0.1273
 2316SOL     OW 9334   2.924   0.736   3.901 -0.2618 -0.4632 -0.0511
 2316SOL    HW2 9335   2.984   0.781   3.841 -1.0039  0.3672 -0.1788
 2316SOL    HW3 9336   2.918   0.647   3.867 -1.3308  0.2163 -1.7180
 2316SOL    MW4 9337   2.931   0.730   3.888 -0.5009 -0.2640 -0.2880
 2317SOL     OW 9338   2.708   0.879   3.797  0.2965  0.0178 -0.1113
 2317SOL    HW2 9339   2.784   0.841   3.840 -0.3181 -0.9991  0.1140
 2317SOL    HW3 9340   2.633   0.835   3.838 -0.3597  0.1862 -1.1031
 2317SOL    MW4 9341   2.708   0.868   3.808  0.1290 -0.0941 -0.2122
 2318SOL     OW 9342   2.922   1.261   3.823  0.4877 -0.1987 -0.6239
 2318SOL    HW2 9343   2.911   1.347   3.862 -0.0882 -0.4861 -0.1281
 2318SOL    HW3 9344   2.837   1.218   3.837  0.7391 -0.8071 -0.9439
 2318SOL    MW4 9345   2.909   1.266   3.830  0.4447 -0.3167 -0.6008
 2319SOL     OW 9346   2.884   1.531   3.928  0.4744  0.2131 -0.2877
 2319SOL    HW2 9347   2.879   1.521   4.023  0.8048  1.6127 -0.1190
 2319SOL    HW3 9348   2.963   1.583   3.913  0.0094  0.6405 -1.2864
 2319SOL    MW4 9349   2.894   1.536   3.938  0.4566  0.4542 -0.3972
 2320SOL     OW 9350   2.665   1.661   3.787 -0.5126 -0.4700 -0.4003
 2320SOL    HW2 9351   2.745   1.615   3.812 -1.9044 -2.2575  0.8829
 2320SOL    HW3 9352   2.672   1.674   3.693  1.9206  0.6520 -0.0908
 2320SOL    MW4 9353   2.676   1.657   3.778 -0.3753 -0.5579 -0.1898
 2321SOL     OW 9354   2.702   1.924   3.830  0.5224  0.1828 -0.3802
 2321SOL    HW2 9355   2.684   1.830   3.821  0.7852  0.1322 -0.3864
 2321SOL    HW3 9356   2.622   1.967   3.800 -0.4890 -0.0786  1.8011
 2321SOL    MW4 9357   2.689   1.917   3.825  0.4234  0.1417 -0.0935
 2322SOL     OW 9358   2.910   2.074   3.736 -0.0077  0.1895  0.3327
 2322SOL    HW2 9359   2.906   2.158   3.782 -1.5180  0.6307 -0.5589
 2322SOL    HW3 9360   2.834   2.025   3.769 -1.0317  0.4599 -1.5382
 2322SOL    MW4 9361   2.899   2.079   3.746 -0.3421  0.2835 -0.0319
 2323SOL     OW 9362   2.938   2.295   3.902  0.1239 -0.6987 -0.4825
 2323SOL    HW2 9363   2.948   2.278   3.996 -0.9189  0.0908 -0.2151
 2323SOL    HW3 9364   3.022   2.332   3.875  0.0019  0.2347  0.4024
 2323SOL    MW4 9365   2.950   2.297   3.911 -0.0298 -0.4714 -0.3304
 2324SOL     OW 9366   2.697   2.401   3.773 -0.0184 -0.3746  0.2334
 2324SOL    HW2 9367   2.681   2.493   3.793 -1.4247 -0.8938  1.6193
 2324SOL    HW3 9368   2.783   2.382   3.811  0.4924  0.4808 -0.4869
 2324SOL    MW4 9369   2.706   2.410   3.781 -0.1366 -0.3300  0.3211
 2325SOL     OW 9370   2.711   2.687   3.824  0.5751 -0.1231 -0.7238
 2325SOL    HW2 9371   2.712   2.680   3.920 -1.4789 -2.3078 -0.8060
 2325SOL    HW3 9372   2.644   2.754   3.806  1.7781  1.1199 -0.6157
 2325SOL    MW4 9373   2.702   2.695   3.834  0.4628 -0.2475 -0.7203
 2326SOL     OW 9374   2.971   2.773   3.725  0.3100  0.2292 -0.1753
 2326SOL    HW2 9375   2.963   2.858   3.766  1.0085  0.1952  0.0348
 2326SOL    HW3 9376   2.881   2.740   3.719 -0.0865  1.4475 -1.2629
 2326SOL    MW4 9377   2.958   2.780   3.729  0.3500  0.3855 -0.2911
 2327SOL     OW 9378   2.938   3.042   3.833  0.0670 -0.0740 -0.0365
 2327SOL    HW2 9379   3.010   3.104   3.823 -0.0426 -0.3782 -3.2367
 2327SOL    HW3 9380   2.867   3.079   3.780 -0.9927 -1.4830  0.3580
 2327SOL    MW4 9381   2.938   3.055   3.825 -0.0870 -0.3002 -0.4065
 2328SOL     OW 9382   2.728   3.186   3.723  0.1180  0.4815 -0.0805
 2328SOL    HW2 9383   2.726   3.275   3.758 -1.1974  0.2268  0.5193
 2328SOL    HW3 9384   2.656   3.141   3.767 -0.2386 -0.4335 -1.5586
 2328SOL    MW4 9385   2.718   3.192   3.733 -0.1030  0.3271 -0.1965
 2329SOL     OW 9386   2.703   3.440   3.837 -0.4540 -0.1710 -0.0537
 2329SOL    HW2 9387   2.706   3.432   3.932 -0.8441  0.9723  0.0676
 2329SOL    HW3 9388   2.782   3.488   3.814  0.1391 -1.3085 -0.4117
 2329SOL    MW4 9389   2.714   3.445   3.846 -0.4275 -0.1700 -0.0849
 2330SOL     OW 9390   2.930   3.608   3.779  0.0815 -0.8471  0.1871
 2330SOL    HW2 9391   3.005   3.562   3.816 -0.0062 -1.6137 -0.5685
 2330SOL    HW3 9392   2.942   3.601   3.684 -0.8711 -0.8537  0.0609
 2330SOL    MW4 9393   2.941   3.601   3.771 -0.0558 -0.9491  0.0708
 2331SOL     OW 9394   2.868   3.860   3.887  0.1710 -0.3525 -0.2619
 2331SOL    HW2 9395   2.891   3.851   3.980 -2.3610  1.0498  0.5397
 2331SOL    HW3 9396   2.870   3.770   3.854  1.2993 -0.8529  1.0998
 2331SOL    MW4 9397   2.871   3.847   3.895 -0.0145 -0.2334  0.0234
 2332SOL     OW 9398   2.638   3.991   3.784 -0.1414  0.6041 -0.2351
 2332SOL    HW2 9399   2.658   4.083   3.801  0.2478  0.8001 -1.6658
 2332SOL    HW3 9400   2.717   3.944   3.812 -0.8120  0.5729  1.6417
 2332SOL    MW4 9401   2.651   3.997   3.790 -0.1786  0.6258 -0.1762
 2333SOL     OW 9402   2.671   4.255   3.897 -0.5309  0.2332 -0.3113
 2333SOL    HW2 9403   2.750   4.293   3.858 -1.5735  0.5094 -2.2347
 2333SOL    HW3 9404   2.600   4.292   3.845 -2.0542  1.1959  2.3538
 2333SOL    MW4 9405   2.672   4.265   3.885 -0.8695  0.3963 -0.2134
 2334SOL     OW 9406   2.876   4.367   3.756  0.1184  0.1919  0.2206
 2334SOL    HW2 9407   2.959   4.329   3.783  0.4721 -0.1543 -1.3417
 2334SOL    HW3 9408   2.880   4.457   3.789  1.4734  0.4342 -0.5805
 2334SOL    MW4 9409   2.887   4.374   3.764  0.3438  0.1783 -0.0911
 2335SOL     OW 9410   3.373   4.633   3.910  0.1907 -0.3044 -0.5758
 2335SOL    HW2 9411   3.365   4.630   4.005  0.0752 -0.6662 -0.5966
 2335SOL    HW3 9412   3.459   4.672   3.894 -0.4078  1.1735 -0.3346
 2335SOL    MW4 9413   3.383   4.638   3.920  0.0966 -0.1569 -0.5469
 2336SOL     OW 9414   3.147   0.079   3.824  0.2859  0.1377  0.0106
 2336SOL    HW2 9415   3.225   0.032   3.853  1.4496  1.8192 -0.3268
 2336SOL    HW3 9416   3.149   0.073   3.729  0.3440  0.6780 -0.0280
 2336SOL    MW4 9417   3.158   0.072   3.816  0.4470  0.4309 -0.0389
 2337SOL     OW 9418   3.195   0.382   4.195  0.5168 -0.2077 -0.2217
 2337SOL    HW2 9419   3.120   0.436   4.221 -0.7136 -1.7881 -0.4071
 2337SOL    HW3 9420   3.268   0.416   4.246 -0.5994  0.5342  0.9106
 2337SOL    MW4 9421   3.195   0.394   4.205  0.2074 -0.3184 -0.0968
 2338SOL     OW 9422   3.154   0.340   3.905 -0.2675  0.4431  0.2888
 2338SOL    HW2 9423   3.168   0.339   4.000 -0.6757 -0.0812  0.3470
 2338SOL    HW3 9424   3.162   0.248   3.879 -0.2472  0.5737 -0.1721
 2338SOL    MW4 9425   3.157   0.328   3.914 -0.3188  0.3912  0.2356
 2339SOL     OW 9426   3.377   0.483   3.812  0.3181 -0.6610 -0.1087
 2339SOL    HW2 9427   3.446   0.425   3.845  0.4505  0.8426  2.4050
 2339SOL    HW3 9428   3.296   0.444   3.843  0.3396 -0.0952  0.6764
 2339SOL    MW4 9429   3.376   0.470   3.820  0.3383 -0.3880  0.3266
 2340SOL     OW 9430   3.363   0.782   3.843  0.4095 -0.2801 -0.0368
 2340SOL    HW2 9431   3.391   0.802   3.932  1.1972 -0.1265 -0.3111
 2340SOL    HW3 9432   3.368   0.686   3.837 -0.8379 -0.3875  0.4607
 2340SOL    MW4 9433   3.368   0.772   3.854  0.3490 -0.2740 -0.0072
 2341SOL     OW 9434   3.163   1.128   3.893  0.1191 -0.3353  0.1332
 2341SOL    HW2 9435   3.159   1.043   3.848 -2.2695 -1.8697  3.0739
 2341SOL    HW3 9436   3.086   1.175   3.863  0.3465 -0.0108  0.0554
 2341SOL    MW4 9437   3.153   1.123   3.883 -0.1659 -0.4950  0.5109
 2342SOL     OW 9438   3.372   1.295   3.750  0.1711 -0.3070  0.2289
 2342SOL    HW2 9439   3.310   1.237   3.794 -0.5868  0.2676 -0.0784
 2342SOL    HW3 9440   3.361   1.276   3.657 -0.5331  0.7832  0.0902
 2342SOL    MW4 9441   3.362   1.285   3.744 -0.0217 -0.0874  0.1702
 2343SOL     OW 9442   3.371   1.564   3.866  0.6684 -0.4449  0.0540
 2343SOL    HW2 9443   3.279   1.588   3.854  0.2205 -1.6059  1.1234
 2343SOL    HW3 9444   3.381   1.482   3.818  0.8722 -0.8775  0.8238
 2343SOL    MW4 9445   3.360   1.556   3.858  0.6361 -0.6552  0.2966
 2344SOL     OW 9446   3.111   1.651   3.809  0.1909 -0.1624  0.4594
 2344SOL    HW2 9447   3.111   1.743   3.835 -0.5327 -0.3159  1.0192
 2344SOL    HW3 9448   3.106   1.653   3.714 -1.3499  0.3708  0.5355
 2344SOL    MW4 9449   3.111   1.663   3.800 -0.1075 -0.1124  0.5434
 2345SOL     OW 9450   3.106   1.912   3.883  0.1219 -0.5416 -0.3465
 2345SOL    HW2 9451   3.108   1.915   3.978 -0.1835 -1.6220 -0.2944
 2345SOL    HW3 9452   3.052   1.987   3.857 -0.9253 -1.0316  0.3921
 2345SOL    MW4 9453   3.099   1.922   3.892 -0.0565 -0.7489 -0.2425
 2346SOL     OW 9454   3.344   2.028   3.792 -0.3382  0.6162  0.1002
 2346SOL    HW2 9455   3.272   1.979   3.832  1.0983 -0.5197  1.3631
 2346SOL    HW3 9456   3.334   2.013   3.698 -0.5506 -1.2761  0.4075
 2346SOL    MW4 9457   3.333   2.019   3.785 -0.1769  0.2165  0.3073
 2347SOL     OW 9458   3.400   2.284   3.888 -0.7224 -0.2166 -0.0759
 2347SOL    HW2 9459   3.402   2.194   3.857 -1.3358  0.1507 -1.1876
 2347SOL    HW3 9460   3.326   2.324   3.843 -1.2687  0.4885  1.4237
 2347SOL    MW4 9461   3.391   2.277   3.878 -0.8755 -0.0749 -0.0248
 2348SOL     OW 9462   3.175   2.388   3.793  0.6223 -0.0926 -0.0979
 2348SOL    HW2 9463   3.179   2.477   3.828 -0.8215 -0.2981  0.6265
 2348SOL    HW3 9464   3.144   2.400   3.703  2.1119  0.2596 -0.5754
 2348SOL    MW4 9465   3.171   2.402   3.786  0.6285 -0.0732 -0.0651
 2349SOL     OW 9466   3.170   2.635   3.860 -0.0131 -0.4007 -0.2851
 2349SOL    HW2 9467   3.155   2.635   3.954  0.0462 -0.3905 -0.2752
 2349SOL    HW3 9468   3.089   2.671   3.822  0.1536  0.0684 -0.2056
 2349SOL    MW4 9469   3.157   2.640   3.867  0.0169 -0.3374 -0.2730
 2350SOL     OW 9470   3.351   2.803   3.718 -0.0064 -0.1619 -0.3759
 2350SOL    HW2 9471   3.282   2.757   3.765  0.4342 -1.0748 -0.6198
 2350SOL    HW3 9472   3.330   2.791   3.625  1.4411 -1.9874 -0.5105
 2350SOL    MW4 9473   3.339   2.795   3.712  0.2427 -0.5231 -0.4261
 2351SOL     OW 9474   3.385   3.058   3.852  0.3291 -0.2788  0.4295
 2351SOL    HW2 9475   3.467   3.103   3.832 -0.4862  1.0344 -0.0238
 2351SOL    HW3 9476   3.389   2.977   3.801  1.4106 -0.2912  0.5339
 2351SOL    MW4 9477   3.396   3.053   3.843  0.3645 -0.1073  0.3836
 2352SOL     OW 9478   3.153   3.219   3.790  0.2493 -0.1465 -0.0197
 2352SOL    HW2 9479   3.222   3.157   3.813 -0.2828 -0.6978  0.1001
 2352SOL    HW3 9480   3.144   3.211   3.695 -0.7891 -1.2844  0.1633
 2352SOL    MW4 9481   3.161   3.209   3.780  0.0422 -0.3693  0.0203
 2353SOL     OW 9482   3.144   3.461   3.914  0.1651  0.2784 -0.6543
 2353SOL    HW2 9483   3.209   3.506   3.860  0.9144 -0.3438 -0.2731
 2353SOL    HW3 9484   3.149   3.370   3.886  0.3563  0.0037  0.2584
 2353SOL    MW4 9485   3.153   3.455   3.903  0.2892  0.1600 -0.4838
 2354SOL     OW 9486   3.363   3.593   3.771 -0.2557  0.1634  0.1106
 2354SOL    HW2 9487   3.334   3.682   3.790  1.4098  0.5244  1.0104
 2354SOL    HW3 9488   3.393   3.597   3.680  1.3856  0.9401  0.6723
 2354SOL    MW4 9489   3.363   3.605   3.761  0.1807  0.3135  0.3033
 2355SOL     OW 9490   3.303   3.857   3.830  0.0051 -0.2528 -0.7634
 2355SOL    HW2 9491   3.378   3.908   3.801 -0.1158 -0.2743 -1.1213
 2355SOL    HW3 9492   3.227   3.909   3.803 -0.0984  0.0707  0.1608
 2355SOL    MW4 9493   3.303   3.870   3.822 -0.0246 -0.2127 -0.6886
 2356SOL     OW 9494   3.051   4.016   3.753 -0.7601  0.4460  0.0546
 2356SOL    HW2 9495   3.051   4.099   3.801  0.1498 -0.2821  1.3861
 2356SOL    HW3 9496   2.991   3.960   3.802 -0.3731 -0.0861 -0.0744
 2356SOL    MW4 9497   3.043   4.019   3.766 -0.5887  0.2804  0.2131
 2357SOL     OW 9498   3.110   4.264   3.864 -0.2508 -0.4468 -0.1345
 2357SOL    HW2 9499   3.110   4.254   3.959 -1.1365 -1.1298 -0.1960
 2357SOL    HW3 9500   3.198   4.294   3.842  0.3603 -1.5686  0.7740
 2357SOL    MW4 9501   3.121   4.266   3.873 -0.2873 -0.6847 -0.0229
 2358SOL     OW 9502   3.367   4.361   3.805 -0.2238 -0.0402  0.1739
 2358SOL    HW2 9503   3.440   4.322   3.853 -0.1425 -0.3988 -0.2345
 2358SOL    HW3 9504   3.363   4.452   3.836  0.4166 -0.0094  0.1679
 2358SOL    MW4 9505   3.376   4.368   3.815 -0.1285 -0.0839  0.1190
 2359SOL     OW 9506   3.812   4.564   3.941 -0.3106  0.2346  0.5447
 2359SOL    HW2 9507   3.890   4.610   3.909 -0.3236 -0.0234  0.1392
 2359SOL    HW3 9508   3.807   4.485   3.888 -0.2895 -0.2388  1.2393
 2359SOL    MW4 9509   3.822   4.560   3.930 -0.3095  0.1378  0.5827
 2360SOL     OW 9510   3.625   0.072   3.804 -0.0419  0.4362  0.4633
 2360SOL    HW2 9511   3.696   0.009   3.817  0.9224  1.5891  0.9188
 2360SOL    HW3 9512   3.628   0.092   3.710  0.2650  0.5274  0.4929
 2360SOL    MW4 9513   3.635   0.066   3.793  0.1256  0.6003  0.5274
 2361SOL     OW 9514   3.575   0.319   3.953 -0.2261  0.3124  0.5884
 2361SOL    HW2 9515   3.657   0.368   3.945  0.3604 -0.6822  0.4516
 2361SOL    HW3 9516   3.591   0.238   3.905 -1.1141 -0.1082  0.9984
 2361SOL    MW4 9517   3.588   0.315   3.946 -0.2658  0.1257  0.6247
 2362SOL     OW 9518   3.803   0.466   3.873 -0.1210 -0.4565 -0.5854
 2362SOL    HW2 9519   3.886   0.420   3.889 -0.4119 -1.6154 -2.2953
 2362SOL    HW3 9520   3.827   0.559   3.872  1.0076 -0.7399 -0.1360
 2362SOL    MW4 9521   3.817   0.472   3.875 -0.0105 -0.6467 -0.7520
 2363SOL     OW 9522   3.810   0.762   3.857  0.6288  0.2702 -0.0666
 2363SOL    HW2 9523   3.890   0.809   3.835  0.5815  1.2229  1.7276
 2363SOL    HW3 9524   3.741   0.811   3.811  0.8436  0.5905 -0.0458
 2363SOL    MW4 9525   3.811   0.775   3.848  0.6506  0.4382  0.1731
 2364SOL     OW 9526   3.593   0.889   3.739 -0.7806 -0.9386 -0.1350
 2364SOL    HW2 9527   3.599   0.977   3.776 -0.5674 -0.3911 -1.4557
 2364SOL    HW3 9528   3.505   0.859   3.760 -1.2409  0.0351 -0.6652
 2364SOL    MW4 9529   3.582   0.897   3.747 -0.8130 -0.7379 -0.3791
 2365SOL     OW 9530   3.602   1.177   3.831 -0.1244  0.0266 -0.0128
 2365SOL    HW2 9531   3.665   1.226   3.779 -0.3478 -0.4915 -0.7848
 2365SOL    HW3 9532   3.518   1.219   3.814 -0.0419  0.5010  0.7440
 2365SOL    MW4 9533   3.600   1.189   3.822 -0.1431  0.0207 -0.0148
 2366SOL     OW 9534   3.847   1.280   3.790 -0.5340 -0.2934  0.4464
 2366SOL    HW2 9535   3.927   1.231   3.809 -0.8019 -0.8955  0.0254
 2366SOL    HW3 9536   3.868   1.370   3.815  0.1954 -0.4908  0.5596
 2366SOL    MW4 9537   3.861   1.285   3.796 -0.4728 -0.3988  0.4060
 2367SOL     OW 9538   3.848   1.562   3.844 -0.3902 -0.1470  0.1663
 2367SOL    HW2 9539   3.872   1.554   3.937 -0.5708  0.2062  0.2453
 2367SOL    HW3 9540   3.757   1.592   3.846  0.6467  3.2003 -0.1131
 2367SOL    MW4 9541   3.839   1.565   3.857 -0.2773  0.3413  0.1397
 2368SOL     OW 9542   3.611   1.664   3.776 -0.4327  0.2422 -0.6003
 2368SOL    HW2 9543   3.525   1.628   3.800 -1.3087  2.4707 -0.3042
 2368SOL    HW3 9544   3.612   1.661   3.681  0.1901 -2.0745 -0.5530
 2368SOL    MW4 9545   3.600   1.659   3.767 -0.4661  0.2307 -0.5550
 2369SOL     OW 9546   3.591   1.937   3.883  0.1230 -0.3965 -0.4244
 2369SOL    HW2 9547   3.506   1.976   3.861 -0.0893 -0.8937 -0.4987
 2369SOL    HW3 9548   3.586   1.848   3.847  0.0484 -0.9849  1.0442
 2369SOL    MW4 9549   3.579   1.930   3.875  0.0849 -0.5398 -0.2403
 2370SOL     OW 9550   3.825   2.047   3.776 -0.4894  0.1406 -0.2091
 2370SOL    HW2 9551   3.904   2.012   3.817  0.0476 -1.0421 -2.1714
 2370SOL    HW3 9552   3.753   2.001   3.819  0.0572 -0.9619 -0.4567
 2370SOL    MW4 9553   3.826   2.036   3.787 -0.3467 -0.1609 -0.5007
 2371SOL     OW 9554   3.789   2.292   3.908 -0.0008 -0.2855 -0.3332
 2371SOL    HW2 9555   3.721   2.346   3.866 -0.8960 -0.6100  0.6805
 2371SOL    HW3 9556   3.800   2.218   3.848 -0.6297 -0.2943 -0.4462
 2371SOL    MW4 9557   3.781   2.289   3.894 -0.2022 -0.3293 -0.2141
 2372SOL     OW 9558   3.596   2.444   3.777 -0.3733 -0.3113  0.3042
 2372SOL    HW2 9559   3.525   2.406   3.829 -2.1320  0.8109 -1.2388
 2372SOL    HW3 9560   3.573   2.425   3.686  1.5127 -0.2720 -0.2113
 2372SOL    MW4 9561   3.584   2.437   3.772 -0.3567 -0.1581  0.0329
 2373SOL     OW 9562   3.606   2.722   3.847  0.0317 -0.0010  0.3501
 2373SOL    HW2 9563   3.626   2.633   3.818 -0.1278  0.0239  0.1586
 2373SOL    HW3 9564   3.527   2.746   3.797 -0.6921 -0.2356  1.3588
 2373SOL    MW4 9565   3.598   2.713   3.836 -0.0849 -0.0288  0.4580
 2374SOL     OW 9566   3.852   2.860   3.781  0.6584  0.1015  0.1868
 2374SOL    HW2 9567   3.913   2.797   3.821  1.2085  0.7935  0.4450
 2374SOL    HW3 9568   3.765   2.828   3.804  0.9659  0.2534  1.5624
 2374SOL    MW4 9569   3.849   2.847   3.789  0.7713  0.2131  0.4025
 2375SOL     OW 9570   3.845   3.097   3.912 -0.3337  0.4176  0.1206
 2375SOL    HW2 9571   3.765   3.134   3.874 -0.3341 -0.3163 -0.6019
 2375SOL    HW3 9572   3.852   3.010   3.873  0.8666  0.5070  0.1174
 2375SOL    MW4 9573   3.836   3.091   3.902 -0.1755  0.3326  0.0248
 2376SOL     OW 9574   3.619   3.197   3.807  0.5502 -0.7091 -0.3806
 2376SOL    HW2 9575   3.591   3.285   3.830 -0.1651 -1.2788  1.0056
 2376SOL    HW3 9576   3.624   3.197   3.712 -2.0281  0.0621 -0.5362
 2376SOL    MW4 9577   3.616   3.208   3.798  0.1156 -0.6826 -0.2182
 2377SOL     OW 9578   3.611   3.473   3.860  0.5510 -0.4885  0.1697
 2377SOL    HW2 9579   3.618   3.459   3.955 -0.6415 -0.9160  0.2172
 2377SOL    HW3 9580   3.526   3.517   3.849  0.8944 -0.0292 -0.6593
 2377SOL    MW4 9581   3.601   3.477   3.871  0.4387 -0.4845  0.0668
 2378SOL     OW 9582   3.831   3.627   3.771 -0.3246  0.1391 -0.3759
 2378SOL    HW2 9583   3.747   3.594   3.802 -1.1973  0.5441 -2.1778
 2378SOL    HW3 9584   3.835   3.716   3.805  0.5553 -0.7004  1.8059
 2378SOL    MW4 9585   3.820   3.634   3.779 -0.3235  0.0818 -0.3259
 2379SOL     OW 9586   3.804   3.873   3.892  0.3534 -0.1583 -0.5985
 2379SOL    HW2 9587   3.796   3.877   3.987  0.2694  0.0140 -0.6132
 2379SOL    HW3 9588   3.874   3.934   3.871  1.9178 -1.8747 -0.4456
 2379SOL    MW4 9589   3.812   3.881   3.902  0.5488 -0.3622 -0.5801
 2380SOL     OW 9590   3.553   3.975   3.811 -0.2876 -0.5705  0.0992
 2380SOL    HW2 9591   3.575   4.060   3.848 -0.3167 -0.2258 -0.6796
 2380SOL    HW3 9592   3.619   3.916   3.847  0.0548 -0.1218  0.2068
 2380SOL    MW4 9593   3.564   3.978   3.821 -0.2463 -0.4659  0.0107
 2381SOL     OW 9594   3.589   4.217   3.928 -0.2276 -0.6094  0.1775
 2381SOL    HW2 9595   3.597   4.202   4.022  1.9153 -1.2178 -0.0769
 2381SOL    HW3 9596   3.673   4.254   3.902 -1.0350  0.1583 -1.3923
 2381SOL    MW4 9597   3.601   4.220   3.937 -0.0515 -0.5884 -0.0634
 2382SOL     OW 9598   3.814   4.330   3.797  0.0094  0.3943 -0.0380
 2382SOL    HW2 9599   3.906   4.302   3.801 -0.3159 -0.5979  0.4775
 2382SOL    HW3 9600   3.794   4.334   3.704  0.3279 -0.2090 -0.1352
 2382SOL    MW4 9601   3.824   4.327   3.785  0.0086  0.1836  0.0172
 2383SOL     OW 9602   4.288   0.022   3.934  0.5151 -0.4047  0.0167
 2383SOL    HW2 9603   4.287   0.029   4.029  0.1688  0.5674 -0.0507
 2383SOL    HW3 9604   4.374   0.054   3.908 -0.3894  2.0290 -0.1646
 2383SOL    MW4 9605   4.299   0.027   3.943  0.3500  0.0439 -0.0162
 2384SOL     OW 9606   4.041   0.076   3.810  0.4235 -0.0584 -0.6622
 2384SOL    HW2 9607   4.131   0.057   3.836  0.5840  0.1731 -1.0378
 2384SOL    HW3 9608   4.045   0.085   3.715  0.4038  2.0951 -0.4821
 2384SOL    MW4 9609   4.053   0.075   3.801  0.4425  0.2563 -0.6883
 2385SOL     OW 9610   4.059   0.361   3.878  0.1233  0.0295  0.4392
 2385SOL    HW2 9611   4.052   0.359   3.974 -0.9588  0.2352  0.3639
 2385SOL    HW3 9612   4.067   0.269   3.852 -1.3047 -0.1396  0.5946
 2385SOL    MW4 9613   4.059   0.349   3.887 -0.2079  0.0343  0.4497
 2386SOL     OW 9614   4.286   0.496   3.801 -0.0534  0.4988  0.2133
 2386SOL    HW2 9615   4.201   0.457   3.823 -0.3224  1.3319  0.6799
 2386SOL    HW3 9616   4.285   0.502   3.705 -0.0591 -0.5159  0.1459
 2386SOL    MW4 9617   4.274   0.492   3.791 -0.0896  0.4749  0.2658
 2387SOL     OW 9618   4.267   0.745   3.922  0.1068 -0.6111  0.0623
 2387SOL    HW2 9619   4.180   0.782   3.913  0.8087  0.6813 -1.6735
 2387SOL    HW3 9620   4.258   0.654   3.893 -0.6352 -0.4630 -0.1723
 2387SOL    MW4 9621   4.254   0.738   3.917  0.1020 -0.4210 -0.1976
 2388SOL     OW 9622   4.049   0.871   3.756  0.4207  0.3508 -0.2647
 2388SOL    HW2 9623   4.057   0.963   3.781  1.1523  0.2577 -0.1607
 2388SOL    HW3 9624   4.049   0.872   3.660 -1.1286  0.5926 -0.2763
 2388SOL    MW4 9625   4.050   0.883   3.746  0.3133  0.3704 -0.2525
 2389SOL     OW 9626   4.076   1.148   3.864  0.2650  0.1316  0.1345
 2389SOL    HW2 9627   4.082   1.131   3.958  0.8533 -1.9606 -0.2587
 2389SOL    HW3 9628   4.154   1.199   3.845  0.8436 -0.5724  0.5671
 2389SOL    MW4 9629   4.087   1.152   3.874  0.4187 -0.2372  0.1397
 2390SOL     OW 9630   4.295   1.316   3.796  0.1381 -0.2713 -0.6361
 2390SOL    HW2 9631   4.293   1.405   3.829  1.8876  0.2370 -1.7844
 2390SOL    HW3 9632   4.287   1.325   3.701 -1.6842 -1.4760 -0.6150
 2390SOL    MW4 9633   4.294   1.329   3.788  0.1283 -0.3631 -0.7849
 2391SOL     OW 9634   4.301   1.568   3.883 -0.2703  0.1242 -0.0950
 2391SOL    HW2 9635   4.230   1.623   3.850  0.5270  0.6322 -0.9888
 2391SOL    HW3 9636   4.381   1.615   3.859  0.4118 -1.2823 -0.6008
 2391SOL    MW4 9637   4.302   1.581   3.876 -0.0749  0.0056 -0.2792
 2392SOL     OW 9638   4.088   1.701   3.773 -0.3910  0.2590  0.2191
 2392SOL    HW2 9639   4.077   1.782   3.824  0.4972 -0.9218  2.3547
 2392SOL    HW3 9640   4.007   1.652   3.789 -0.7488  0.5170 -0.7405
 2392SOL    MW4 9641   4.076   1.705   3.782 -0.3209  0.1373  0.3741
 2393SOL     OW 9642   4.052   1.929   3.914  0.0607 -0.6235  0.2525
 2393SOL    HW2 9643   4.062   1.926   4.010  0.2233 -0.1736  0.2478
 2393SOL    HW3 9644   4.135   1.963   3.883  0.2753 -1.4473 -0.1003
 2393SOL    MW4 9645   4.064   1.933   3.923  0.1106 -0.6727  0.2055
 2394SOL     OW 9646   4.290   2.063   3.813  0.0663  0.1930 -0.5401
 2394SOL    HW2 9647   4.264   2.154   3.826  1.1868  0.6285 -1.3360
 2394SOL    HW3 9648   4.290   2.051   3.718  0.5166 -0.4666 -0.4639
 2394SOL    MW4 9649   4.286   2.073   3.802  0.2737  0.1633 -0.6351
 2395SOL     OW 9650   4.258   2.345   3.947 -0.3107 -0.2893 -0.0968
 2395SOL    HW2 9651   4.247   2.327   4.040 -2.1549 -0.2604 -0.2895
 2395SOL    HW3 9652   4.174   2.382   3.920 -0.3050 -1.6725 -2.1003
 2395SOL    MW4 9653   4.246   2.348   3.956 -0.5536 -0.4680 -0.3865
 2396SOL     OW 9654   4.016   2.418   3.810 -0.3589  0.2443  0.1576
 2396SOL    HW2 9655   4.010   2.511   3.831 -2.0254  0.0117  0.7841
 2396SOL    HW3 9656   3.939   2.379   3.850  0.1969 -1.3797 -0.3020
 2396SOL    MW4 9657   4.005   2.425   3.818 -0.5054 -0.0010  0.1798
 2397SOL     OW 9658   4.047   2.711   3.861  0.0055 -0.7841 -1.0578
 2397SOL    HW2 9659   4.057   2.708   3.956  0.4158 -1.8024 -1.1249
 2397SOL    HW3 9660   4.130   2.745   3.828 -0.3884  0.2398 -1.0181
 2397SOL    MW4 9661   4.059   2.715   3.869  0.0076 -0.7832 -1.0614
 2398SOL     OW 9662   4.310   2.793   3.785  0.2169  0.1031  0.0112
 2398SOL    HW2 9663   4.294   2.882   3.815  0.7777 -0.1764  1.1854
 2398SOL    HW3 9664   4.379   2.760   3.843 -0.9476 -1.5540  0.4974
 2398SOL    MW4 9665   4.317   2.800   3.797  0.1373 -0.1523  0.2303
 2399SOL     OW 9666   4.460   3.436   4.076 -0.1137 -0.4705  0.1927
 2399SOL    HW2 9667   4.514   3.383   4.135  0.8012 -0.2911 -0.4891
 2399SOL    HW3 9668   4.385   3.461   4.130  0.7397 -0.2612  1.3020
 2399SOL    MW4 9669   4.457   3.432   4.091  0.1202 -0.4194  0.2494
 2400SOL     OW 9670   4.050   3.228   3.768  0.1889  0.3947  0.2346
 2400SOL    HW2 9671   3.976   3.180   3.806  0.3601  0.2285  0.3569
 2400SOL    HW3 9672   4.043   3.212   3.674  0.8450 -0.7157  0.3660
 2400SOL    MW4 9673   4.039   3.220   3.760  0.2980  0.2263  0.2680
 2401SOL     OW 9674   4.041   3.492   3.874 -0.4878 -0.3419  0.3580
 2401SOL    HW2 9675   3.965   3.533   3.832 -0.5289 -1.6157 -0.8374
 2401SOL    HW3 9676   4.047   3.405   3.834  2.0103 -0.0119 -0.0542
 2401SOL    MW4 9677   4.032   3.486   3.863 -0.1636 -0.4663  0.1459
 2402SOL     OW 9678   4.248   3.604   3.730 -0.0535  0.1145 -0.1390
 2402SOL    HW2 9679   4.172   3.573   3.779  0.4800 -0.9954 -0.0055
 2402SOL    HW3 9680   4.318   3.544   3.754  0.6119  0.5253 -1.0409
 2402SOL    MW4 9681   4.247   3.592   3.739  0.1044  0.0224 -0.2403
 2403SOL     OW 9682   4.288   3.852   3.860 -0.1279  0.0531 -0.0756
 2403SOL    HW2 9683   4.209   3.899   3.833  0.2250  1.0560  0.6129
 2403SOL    HW3 9684   4.280   3.766   3.818 -0.2823  1.0636 -2.1899
 2403SOL    MW4 9685   4.276   3.847   3.851 -0.1016  0.3185 -0.2637
 2404SOL     OW 9686   4.040   3.988   3.815 -0.8904  0.1941 -0.2266
 2404SOL    HW2 9687   4.037   4.083   3.828 -0.5542  0.0823  0.6532
 2404SOL    HW3 9688   4.044   3.978   3.720 -0.6660  1.0679 -0.3182
 2404SOL    MW4 9689   4.040   3.999   3.804 -0.8168  0.2952 -0.1225
 2405SOL     OW 9690   4.065   4.260   3.900  0.2942 -0.5248 -0.0761
 2405SOL    HW2 9691   4.067   4.245   3.994 -0.9382  0.5934  0.1377
 2405SOL    HW3 9692   4.137   4.321   3.884 -1.3310  1.5973  0.5751
 2405SOL    MW4 9693   4.075   4.266   3.910 -0.0830 -0.0978  0.0379
 2406SOL     OW 9694   4.292   4.404   3.826  0.2548  0.2688  0.3115
 2406SOL    HW2 9695   4.300   4.495   3.853 -1.8869 -0.1394  2.4943
 2406SOL    HW3 9696   4.380   4.368   3.836  1.5737  2.5043 -2.4147
 2406SOL    MW4 9697   4.305   4.411   3.831  0.1464  0.5097  0.2398
 2407SOL     OW 9698   1.446   1.231   4.725 -0.1475 -0.0024  0.6425
 2407SOL    HW2 9699   1.489   1.145   4.730 -0.3494 -0.1301  0.2689
 2407SOL    HW3 9700   1.355   1.210   4.707 -0.2116  0.2902  0.6358
 2407SOL    MW4 9701   1.440   1.217   4.723 -0.1826  0.0194  0.5927
 2408SOL     OW 9702   0.766   3.183   4.458 -0.3804 -0.0672  0.5715
 2408SOL    HW2 9703   0.777   3.201   4.365 -3.0223 -0.2342  0.1837
 2408SOL    HW3 9704   0.777   3.089   4.466  0.0710 -0.0232  0.4653
 2408SOL    MW4 9705   0.768   3.173   4.447 -0.6694 -0.0832  0.5064
 2409SOL     OW 9706   1.288   0.770   4.536  0.1571  0.3543 -0.3589
 2409SOL    HW2 9707   1.320   0.812   4.456 -1.2626  2.0177 -0.0798
 2409SOL    HW3 9708   1.205   0.813   4.554 -0.3579 -1.1937  1.0846
 2409SOL    MW4 9709   1.281   0.781   4.528 -0.0981  0.3695 -0.1311
 2410SOL     OW 9710   0.336   0.485   4.545  0.0724 -0.0331 -0.0789
 2410SOL    HW2 9711   0.428   0.476   4.568  0.7203  0.2218 -2.3897
 2410SOL    HW3 9712   0.290   0.427   4.606  2.0058 -1.9900 -0.4207
 2410SOL    MW4 9713   0.342   0.476   4.556  0.4130 -0.2577 -0.4292
 2411SOL     OW 9714   0.018   0.871   4.261  0.1109  0.0658 -0.0266
 2411SOL    HW2 9715   0.035   0.902   4.350 -0.1459 -0.4113  0.1908
 2411SOL    HW3 9716   0.087   0.807   4.244  0.9155  1.0781 -0.6466
 2411SOL    MW4 9717   0.029   0.867   4.270  0.1832  0.1364 -0.0801
 2412SOL     OW 9718   4.279   1.279   4.257 -0.0104 -0.1884  0.0189
 2412SOL    HW2 9719   4.364   1.236   4.242  0.1461  0.0531  0.2112
 2412SOL    HW3 9720   4.215   1.215   4.228  0.1560 -1.2136  1.8171
 2412SOL    MW4 9721   4.282   1.265   4.251  0.0319 -0.2919  0.2818
 2413SOL     OW 9722   0.020   1.137   4.168  0.1454  0.2516 -0.3349
 2413SOL    HW2 9723   0.035   1.044   4.184 -2.3213 -0.0375  0.5412
 2413SOL    HW3 9724  -0.001   1.143   4.075 -2.0019 -0.4393  0.0690
 2413SOL    MW4 9725   0.019   1.126   4.158 -0.4634  0.1223 -0.1659
 2414SOL     OW 9726   0.467   1.906   4.172  0.0226 -0.3847 -0.1043
 2414SOL    HW2 9727   0.446   1.915   4.079  0.1627 -0.3415 -0.1312
 2414SOL    HW3 9728   0.547   1.957   4.184 -0.3832  0.1913  0.1820
 2414SOL    MW4 9729   0.475   1.914   4.162 -0.0125 -0.3030 -0.0701
 2415SOL     OW 9730   0.985   3.301   4.590 -0.2876 -0.1266  0.6832
 2415SOL    HW2 9731   0.993   3.257   4.675  0.4994 -1.3048 -0.0017
 2415SOL    HW3 9732   0.921   3.248   4.542 -0.3726  0.2714  0.3599
 2415SOL    MW4 9733   0.977   3.288   4.595 -0.1949 -0.2294  0.5503
 2416SOL     OW 9734   2.320   1.925   4.685  0.2142 -0.2000  0.0136
 2416SOL    HW2 9735   2.310   1.996   4.749  1.6747  0.9753 -1.0250
 2416SOL    HW3 9736   2.368   1.965   4.613 -0.6647 -1.7374 -1.4563
 2416SOL    MW4 9737   2.325   1.940   4.684  0.2909 -0.2478 -0.3171
 2417SOL     OW 9738   1.345   2.290   4.609  0.5083 -0.0166  0.1156
 2417SOL    HW2 9739   1.288   2.298   4.533  0.4069 -0.7833  0.1065
 2417SOL    HW3 9740   1.429   2.325   4.580  0.5624 -0.6120 -0.4559
 2417SOL    MW4 9741   1.349   2.295   4.595  0.5021 -0.1967  0.0391
 2418SOL     OW 9742   1.795   3.983   4.286  0.0850 -0.1478  0.1202
 2418SOL    HW2 9743   1.734   3.930   4.236 -0.2669 -0.0063  0.3986
 2418SOL    HW3 9744   1.812   4.059   4.230  0.4172 -0.4412 -0.1817
 2418SOL    MW4 9745   1.789   3.986   4.272  0.0826 -0.1676  0.1173
 2419SOL     OW 9746   4.115   2.637   4.415 -0.0987  0.2755  0.4198
 2419SOL    HW2 9747   4.102   2.545   4.396 -1.3113  0.4743  0.2328
 2419SOL    HW3 9748   4.060   2.654   4.491  1.6523  0.4050  1.7049
 2419SOL    MW4 9749   4.106   2.627   4.423 -0.0281  0.3188  0.5646
 2420SOL     OW 9750   0.374   1.880   4.649  0.0473 -0.1133 -0.7343
 2420SOL    HW2 9751   0.350   1.825   4.724  0.0092 -0.5372 -1.0549
 2420SOL    HW3 9752   0.466   1.859   4.631  0.2753  0.5317 -0.3450
 2420SOL    MW4 9753   0.383   1.870   4.656  0.0724 -0.0843 -0.7262
 2421SOL     OW 9754   0.107   2.685   4.151 -0.3837 -0.0809  0.0137
 2421SOL    HW2 9755   0.198   2.703   4.128 -0.5882 -0.1022 -0.8519
 2421SOL    HW3 9756   0.077   2.764   4.196 -0.0735  0.1178 -0.1311
 2421SOL    MW4 9757   0.115   2.698   4.154 -0.3697 -0.0575 -0.1197
 2422SOL     OW 9758   1.087   3.650   4.467 -0.5774  0.0500 -0.5218
 2422SOL    HW2 9759   1.104   3.633   4.374  0.2742 -1.3787 -0.1120
 2422SOL    HW3 9760   1.172   3.642   4.509 -1.3720 -1.9388  0.7652
 2422SOL    MW4 9761   1.100   3.646   4.460 -0.5698 -0.4013 -0.2980
 2423SOL     OW 9762   2.080   4.394   4.543  0.1533  0.4395 -0.1515
 2423SOL    HW2 9763   2.025   4.465   4.578 -0.1761  0.1250 -0.0335
 2423SOL    HW3 9764   2.054   4.385   4.452  1.2032  1.4472 -0.5703
 2423SOL    MW4 9765   2.070   4.402   4.536  0.2484  0.5312 -0.1907
 2424SOL     OW 9766   4.249   3.032   3.897  0.1934 -0.0964 -0.4272
 2424SOL    HW2 9767   4.224   3.018   3.989  0.3494  1.1114 -0.1959
 2424SOL    HW3 9768   4.178   3.086   3.862  0.1505 -0.5351 -1.0141
 2424SOL    MW4 9769   4.236   3.037   3.905  0.2084  0.0052 -0.4740
 2425SOL     OW 9770   0.201   3.906   4.097  0.0026  0.0335 -0.3627
 2425SOL    HW2 9771   0.119   3.941   4.132  0.6382  0.7055  0.4852
 2425SOL    HW3 9772   0.204   3.815   4.127 -0.1964  0.1585  0.0463
 2425SOL    MW4 9773   0.191   3.899   4.106  0.0602  0.1390 -0.1969
 2426SOL     OW 9774   4.431   0.174   4.395  0.3428 -0.3424  0.3470
 2426SOL    HW2 9775   4.462   0.242   4.336  0.2125  0.7549  1.5402
 2426SOL    HW3 9776   4.510   0.128   4.423  0.6323  0.6243  1.1383
 2426SOL    MW4 9777   4.445   0.177   4.391  0.3633 -0.0701  0.6084
 2427SOL     OW 9778   3.411   4.488   4.708  0.3278  0.0369 -0.2254
 2427SOL    HW2 9779   3.482   4.551   4.698  1.0070 -0.5544  0.7766
 2427SOL    HW3 9780   3.455   4.404   4.719 -0.5657 -0.5701 -1.2337
 2427SOL    MW4 9781   3.426   4.485   4.708  0.2995 -0.1206 -0.2260
 2428SOL     OW 9782   4.379   3.278   4.466 -0.5135  0.2981 -0.0809
 2428SOL    HW2 9783   4.300   3.236   4.433 -1.0146 -0.1914  1.7291
 2428SOL    HW3 9784   4.430   3.207   4.504  0.3505  0.7621 -0.3578
 2428SOL    MW4 9785   4.376   3.263   4.467 -0.4659  0.2947  0.1216
 2429SOL     OW 9786   4.459   3.998   4.229  0.0947 -0.3644  0.1084
 2429SOL    HW2 9787   4.387   3.939   4.206 -0.0588 -0.0098 -0.3173
 2429SOL    HW3 9788   4.438   4.028   4.317 -0.0566 -0.5986  0.1524
 2429SOL    MW4 9789   4.447   3.994   4.237  0.0544 -0.3486  0.0582
 2430SOL     OW 9790   2.689   1.996   4.557 -0.3795 -0.1726 -0.3542
 2430SOL    HW2 9791   2.596   2.009   4.535 -0.7250  0.0188  1.1276
 2430SOL    HW3 9792   2.696   1.903   4.576 -0.3720 -0.1154 -0.0650
 2430SOL    MW4 9793   2.677   1.986   4.557 -0.4239 -0.1397 -0.1206
 2431SOL     OW 9794   2.818   2.000   4.294 -0.0475  0.4770 -0.7660
 2431SOL    HW2 9795   2.748   1.986   4.230 -0.5154 -1.6649  0.1422
 2431SOL    HW3 9796   2.774   1.996   4.379  1.1993 -1.3406 -0.1583
 2431SOL    MW4 9797   2.803   1.997   4.297  0.0553 -0.0454 -0.5660
 2432SOL     OW 9798   0.560   0.912   4.609  0.0360  0.2936 -0.2247
 2432SOL    HW2 9799   0.557   0.989   4.666  0.1081 -0.7783  1.2690
 2432SOL    HW3 9800   0.654   0.891   4.603  0.0657  0.6743 -1.1195
 2432SOL    MW4 9801   0.572   0.920   4.616  0.0495  0.2024 -0.1454
 2433SOL     OW 9802   3.828   4.336   4.326  0.3999 -0.2800  0.2218
 2433SOL    HW2 9803   3.807   4.365   4.415  1.2945 -2.0341  1.0487
 2433SOL    HW3 9804   3.822   4.414   4.272 -0.8222  0.6761  1.7279
 2433SOL    MW4 9805   3.825   4.350   4.331  0.3567 -0.3853  0.5302
 2434SOL     OW 9806   4.263   3.839   4.134  0.3808  0.0559 -0.5248
 2434SOL    HW2 9807   4.187   3.893   4.156  1.1081  0.5384  0.8935
 2434SOL    HW3 9808   4.275   3.852   4.040 -1.1512  0.1424 -0.7247
 2434SOL    MW4 9809   4.255   3.848   4.124  0.2747  0.1307 -0.3643
 2435SOL     OW 9810   0.888   0.107   4.283  0.1259  0.3605 -0.2016
 2435SOL    HW2 9811   0.883   0.190   4.236  0.8759 -0.3414 -1.5312
 2435SOL    HW3 9812   0.812   0.057   4.252 -1.2567  1.1586  1.8159
 2435SOL    MW4 9813   0.877   0.111   4.273  0.0424  0.3732 -0.1111
 2436SOL     OW 9814   0.498   0.910   4.311  0.2081  0.2255 -0.2803
 2436SOL    HW2 9815   0.483   1.000   4.280  0.3535  0.2987 -0.1403
 2436SOL    HW3 9816   0.509   0.919   4.406 -0.5407 -0.0346 -0.1616
 2436SOL    MW4 9817   0.497   0.923   4.319  0.1285  0.2009 -0.2470
 2437SOL     OW 9818   0.483   1.151   4.180  0.4380 -0.1773 -0.2006
 2437SOL    HW2 9819   0.565   1.186   4.214  0.3857  0.3290 -0.5890
 2437SOL    HW3 9820   0.489   1.166   4.085  0.1402 -0.6408 -0.2918
 2437SOL    MW4 9821   0.495   1.158   4.172  0.3918 -0.1717 -0.2632
 2438SOL     OW 9822   0.709   1.503   4.143 -0.0698  0.2979 -0.2031
 2438SOL    HW2 9823   0.646   1.551   4.197  0.3581  0.4525  0.1686
 2438SOL    HW3 9824   0.692   1.532   4.054  0.7807  1.8244  0.1134
 2438SOL    MW4 9825   0.699   1.513   4.139  0.0989  0.5195 -0.1135
 2439SOL     OW 9826   0.410   1.909   3.898 -0.1981 -0.0466  0.3174
 2439SOL    HW2 9827   0.416   1.823   3.855  1.4715  0.5882 -0.7798
 2439SOL    HW3 9828   0.361   1.963   3.836  0.3838  0.2930  0.1491
 2439SOL    MW4 9829   0.405   1.905   3.884  0.0990  0.0820  0.1500
 2440SOL     OW 9830   0.251   1.277   4.266  0.1331 -0.0118  0.2136
 2440SOL    HW2 9831   0.186   1.222   4.224  0.7302  0.3203 -1.1718
 2440SOL    HW3 9832   0.335   1.238   4.242  0.4911  0.4365  0.7305
 2440SOL    MW4 9833   0.254   1.265   4.257  0.2591  0.0913  0.0987
 2441SOL     OW 9834   4.288   2.021   4.645  0.1278  0.0407 -0.0016
 2441SOL    HW2 9835   4.201   1.987   4.662  0.1192  0.6683  1.3306
 2441SOL    HW3 9836   4.347   1.959   4.689  0.2459  0.4931  0.4865
 2441SOL    MW4 9837   4.285   2.009   4.653  0.1431  0.1833  0.2389
 2442SOL     OW 9838   4.452   2.463   4.540  0.0575  0.2904  0.2433
 2442SOL    HW2 9839   4.500   2.449   4.459  1.1886  0.8933  0.7990
 2442SOL    HW3 9840   4.427   2.556   4.537 -1.0844 -0.0130 -0.0405
 2442SOL    MW4 9841   4.455   2.474   4.529  0.0558  0.3300  0.2794
 2443SOL     OW 9842   1.812   0.872   4.212  0.1378 -0.1792  0.2294
 2443SOL    HW2 9843   1.819   0.956   4.167 -2.3415  0.2199  0.5319
 2443SOL    HW3 9844   1.889   0.823   4.183  0.5674  1.4600 -1.5019
 2443SOL    MW4 9845   1.823   0.877   4.202 -0.1326  0.0898  0.0415
 2444SOL     OW 9846   0.123   3.068   4.509 -0.5822  0.2652  0.1077
 2444SOL    HW2 9847   0.089   3.035   4.592 -1.1607  1.7736  0.4887
 2444SOL    HW3 9848   0.067   3.028   4.442 -0.7600 -0.1556  0.5037
 2444SOL    MW4 9849   0.111   3.058   4.511 -0.6820  0.4089  0.2103
 2445SOL     OW 9850   0.396   2.696   4.099 -0.1611 -0.2128  0.1802
 2445SOL    HW2 9851   0.415   2.683   4.006  0.1480 -4.1587  0.7046
 2445SOL    HW3 9852   0.474   2.738   4.135 -0.6320  2.1590 -1.4372
 2445SOL    MW4 9853   0.409   2.700   4.092 -0.1825 -0.4203  0.0358
 2446SOL     OW 9854   0.477   3.029   4.268 -0.1467  0.8915 -0.1537
 2446SOL    HW2 9855   0.389   3.029   4.228 -0.4956 -0.0482  0.6098
 2446SOL    HW3 9856   0.461   3.027   4.362  0.7000  0.9104 -0.0037
 2446SOL    MW4 9857   0.463   3.029   4.275 -0.0810  0.7703 -0.0329
 2447SOL     OW 9858   2.459   4.157   4.590  0.2101 -0.1038 -0.3868
 2447SOL    HW2 9859   2.395   4.150   4.519  1.7323  1.4870 -1.9699
 2447SOL    HW3 9860   2.537   4.112   4.556  0.4650 -0.6477  0.8977
 2447SOL    MW4 9861   2.461   4.150   4.576  0.4444  0.0348 -0.4263
 2448SOL     OW 9862   1.444   0.122   4.763 -0.2042  0.4010  0.0124
 2448SOL    HW2 9863   1.458   0.109   4.857  0.2558  0.7711 -0.0037
 2448SOL    HW3 9864   1.485   0.206   4.744 -1.1730  0.8049 -0.3264
 2448SOL    MW4 9865   1.451   0.132   4.773 -0.2712  0.5031 -0.0339
 2449SOL     OW 9866   4.381   2.733   4.467 -0.2852 -0.0135  0.4538
 2449SOL    HW2 9867   4.290   2.711   4.445  0.2821 -1.0362 -0.8837
 2449SOL    HW3 9868   4.405   2.799   4.402 -0.2064  0.5919  1.0907
 2449SOL    MW4 9869   4.372   2.739   4.456 -0.1998 -0.0684  0.3610
 2450SOL     OW 9870   3.155   4.090   4.467  0.0182 -0.1634 -0.4861
 2450SOL    HW2 9871   3.173   4.184   4.470  1.0864 -0.3771  0.2325
 2450SOL    HW3 9872   3.079   4.078   4.523  1.5733 -0.0832  1.7026
 2450SOL    MW4 9873   3.147   4.101   4.475  0.3643 -0.1807 -0.1020
 2451SOL     OW 9874   0.457   0.127   4.323  0.2496  0.2465  0.3285
 2451SOL    HW2 9875   0.490   0.165   4.405  2.3651 -0.8607  0.0022
 2451SOL    HW3 9876   0.459   0.199   4.261  2.1455  0.1999  0.3026
 2451SOL    MW4 9877   0.461   0.142   4.326  0.7789  0.0942  0.2818
 2452SOL     OW 9878   0.513   3.804   4.690  0.3103  0.2335  0.2703
 2452SOL    HW2 9879   0.419   3.821   4.677  0.8058  1.1224 -2.4994
 2452SOL    HW3 9880   0.552   3.891   4.698  1.1047 -0.0725 -0.2706
 2452SOL    MW4 9881   0.506   3.818   4.689  0.4805  0.3104 -0.1664
 2453SOL     OW 9882   4.315   4.368   4.545 -0.2518  0.1208  0.0031
 2453SOL    HW2 9883   4.356   4.282   4.550 -0.7423  0.0049  2.4382
 2453SOL    HW3 9884   4.379   4.428   4.584 -1.2463  0.3462  1.3253
 2453SOL    MW4 9885   4.328   4.365   4.551 -0.4478  0.1354  0.4988
 2454SOL     OW 9886   0.031   4.269   4.188  0.0117 -0.0701  0.1601
 2454SOL    HW2 9887   0.023   4.294   4.096 -0.2722  0.5033  0.3365
 2454SOL    HW3 9888   0.013   4.175   4.189  0.1247 -0.0970 -0.3826
 2454SOL    MW4 9889   0.027   4.260   4.176 -0.0108  0.0024  0.1116
 2455SOL     OW 9890   1.934   3.079   4.364 -0.2451 -0.0957 -0.1824
 2455SOL    HW2 9891   1.959   2.986   4.362 -0.4403 -0.1374 -0.6082
 2455SOL    HW3 9892   2.006   3.122   4.411 -0.7944 -0.6602  1.2039
 2455SOL    MW4 9893   1.947   3.072   4.370 -0.3433 -0.1757 -0.0558
 2456SOL     OW 9894   4.199   2.327   4.579 -0.3579 -0.5939 -0.0504
 2456SOL    HW2 9895   4.230   2.238   4.590 -0.3037 -0.5787 -0.0800
 2456SOL    HW3 9896   4.279   2.379   4.567 -0.4832 -0.7879 -1.7774
 2456SOL    MW4 9897   4.214   2.322   4.579 -0.3676 -0.6173 -0.2823
 2457SOL     OW 9898   1.128   0.508   4.232 -0.0833  0.1783 -0.2560
 2457SOL    HW2 9899   1.200   0.445   4.227  0.2808  0.6454 -0.9501
 2457SOL    HW3 9900   1.104   0.509   4.324  0.5795 -0.2302 -0.0744
 2457SOL    MW4 9901   1.134   0.500   4.243  0.0522  0.1860 -0.3242
 2458SOL     OW 9902   1.166   0.773   4.144 -0.4969 -0.0490  0.2651
 2458SOL    HW2 9903   1.145   0.687   4.180  0.1150 -0.4282 -0.2627
 2458SOL    HW3 9904   1.229   0.810   4.206  0.9817 -0.9311 -0.6810
 2458SOL    MW4 9905   1.172   0.766   4.157 -0.2211 -0.2154  0.0706
 2459SOL     OW 9906   1.393   0.892   4.289 -0.2148 -0.0084  0.6390
 2459SOL    HW2 9907   1.446   0.827   4.243 -0.5070  0.4496 -0.3749
 2459SOL    HW3 9908   1.456   0.947   4.335  0.1401  0.0477  0.0862
 2459SOL    MW4 9909   1.408   0.890   4.289 -0.2065  0.0594  0.4325
 2460SOL     OW 9910   0.450   0.350   4.162 -0.3736 -0.7064 -0.1317
 2460SOL    HW2 9911   0.454   0.377   4.070  1.1383  1.2339  0.4695
 2460SOL    HW3 9912   0.389   0.413   4.202  0.6307 -0.2001  0.6135
 2460SOL    MW4 9913   0.443   0.362   4.155 -0.0416 -0.3836  0.0458
 2461SOL     OW 9914   0.927   0.884   4.252  0.0176 -0.1711  0.2217
 2461SOL    HW2 9915   0.846   0.835   4.238 -0.2180 -0.1324  1.4046
 2461SOL    HW3 9916   0.993   0.835   4.203 -0.5871 -0.5831 -0.1959
 2461SOL    MW4 9917   0.925   0.871   4.244 -0.0932 -0.2204  0.3223
 2462SOL     OW 9918   2.307   3.919   4.672 -0.1528  0.3882 -0.0144
 2462SOL    HW2 9919   2.228   3.973   4.664 -0.6113 -0.5857 -2.5554
 2462SOL    HW3 9920   2.379   3.980   4.652 -0.3647  0.9150  0.7937
 2462SOL    MW4 9921   2.306   3.934   4.668 -0.2413  0.3295 -0.2432
 2463SOL     OW 9922   3.985   1.876   4.635 -0.2571  0.1716  0.2749
 2463SOL    HW2 9923   3.917   1.936   4.604 -0.8873 -0.6426  0.0725
 2463SOL    HW3 9924   3.951   1.841   4.717  1.1585  1.8873  1.6622
 2463SOL    MW4 9925   3.972   1.879   4.642 -0.1533  0.2905  0.4315
 2464SOL     OW 9926   2.235   3.831   4.319 -0.6647  0.3315  0.0305
 2464SOL    HW2 9927   2.231   3.769   4.391 -0.8804  0.1808 -0.1104
 2464SOL    HW3 9928   2.144   3.845   4.294 -0.5145 -0.8076 -1.2232
 2464SOL    MW4 9929   2.223   3.825   4.325 -0.6733  0.1614 -0.1535
 2465SOL     OW 9930   1.167   1.588   4.113 -0.4853  0.2526 -0.1757
 2465SOL    HW2 9931   1.162   1.496   4.138 -1.1489  0.2081 -0.4828
 2465SOL    HW3 9932   1.242   1.622   4.162  0.3784 -0.6915 -0.8427
 2465SOL    MW4 9933   1.176   1.580   4.123 -0.4590  0.1222 -0.3037
 2466SOL     OW 9934   1.863   1.707   4.209 -0.2380 -0.3042 -0.1114
 2466SOL    HW2 9935   1.777   1.667   4.197  0.2812 -1.2800 -0.5508
 2466SOL    HW3 9936   1.925   1.639   4.187  0.6807 -0.0713  1.6632
 2466SOL    MW4 9937   1.859   1.693   4.205 -0.0483 -0.4022  0.0644
 2467SOL     OW 9938   0.699   2.042   4.246 -0.1200 -0.6135 -0.5794
 2467SOL    HW2 9939   0.786   2.008   4.225  0.8729  0.4870  1.5571
 2467SOL    HW3 9940   0.698   2.130   4.209  0.3577  0.0419  0.9350
 2467SOL    MW4 9941   0.710   2.049   4.238  0.0740 -0.3819 -0.0978
 2468SOL     OW 9942   0.696   2.284   4.137  0.2066 -0.7278  0.8271
 2468SOL    HW2 9943   0.628   2.349   4.153  0.7727 -0.0133  0.3843
 2468SOL    HW3 9944   0.704   2.280   4.042  0.6417 -0.9538  0.8720
 2468SOL    MW4 9945   0.688   2.292   4.126  0.3387 -0.6633  0.7749
 2469SOL     OW 9946   0.862   2.623   4.114 -0.4593 -0.3528 -0.1044
 2469SOL    HW2 9947   0.876   2.553   4.178 -0.9810 -0.3214  0.0513
 2469SOL    HW3 9948   0.918   2.694   4.144 -0.5730 -0.3998  0.2244
 2469SOL    MW4 9949   0.871   2.623   4.126 -0.5431 -0.3545 -0.0410
 2470SOL     OW 9950   1.059   2.794   4.195  0.4180 -0.1507 -0.0163
 2470SOL    HW2 9951   1.068   2.776   4.289  0.6119  0.0534  0.0048
 2470SOL    HW3 9952   1.068   2.889   4.188 -0.5266 -0.0671 -0.1350
 2470SOL    MW4 9953   1.061   2.804   4.207  0.3191 -0.1128 -0.0291
 2471SOL     OW 9954   4.038   2.715   4.128  0.0175 -0.1349 -0.1848
 2471SOL    HW2 9955   4.052   2.676   4.214  0.0514  0.7296  0.1968
 2471SOL    HW3 9956   3.944   2.729   4.123 -0.0497 -0.6601 -0.5018
 2471SOL    MW4 9957   4.027   2.712   4.138  0.0129 -0.0904 -0.1769
 2472SOL     OW 9958   3.150   2.551   4.486 -0.1475 -0.1545 -0.2051
 2472SOL    HW2 9959   3.177   2.506   4.405 -1.3029 -2.7315  0.7751
 2472SOL    HW3 9960   3.062   2.583   4.467  0.1516  0.5218 -0.4545
 2472SOL    MW4 9961   3.142   2.549   4.473 -0.2606 -0.4053 -0.1087
 2473SOL     OW 9962   3.127   4.547   4.634 -0.6213  0.1835  0.3961
 2473SOL    HW2 9963   3.206   4.518   4.680 -0.9495 -0.6566  0.4283
 2473SOL    HW3 9964   3.144   4.639   4.614  0.7587 -0.2261 -0.4122
 2473SOL    MW4 9965   3.140   4.555   4.638 -0.4828  0.0181  0.2933
 2474SOL     OW 9966   0.395   3.473   4.111 -0.0091  0.2580 -0.2019
 2474SOL    HW2 9967   0.481   3.469   4.153 -0.3419 -1.1174  0.3746
 2474SOL    HW3 9968   0.414   3.478   4.017  0.7102  1.1788 -0.0093
 2474SOL    MW4 9969   0.409   3.473   4.104  0.0419  0.1981 -0.1006
 2475SOL     OW 9970   1.973   3.822   4.177 -0.4332  0.0555  0.5541
 2475SOL    HW2 9971   1.909   3.884   4.213 -1.3971 -1.1173  0.8858
 2475SOL    HW3 9972   1.970   3.837   4.083  0.3426  1.4590  0.7322
 2475SOL    MW4 9973   1.964   3.832   4.170 -0.4579  0.0861  0.6213
 2476SOL     OW 9974   2.889   1.538   4.213 -0.4665 -0.8044 -0.1608
 2476SOL    HW2 9975   2.809   1.590   4.222  0.2836  0.4631 -0.7518
 2476SOL    HW3 9976   2.865   1.452   4.248 -2.1288 -0.4844 -0.4599
 2476SOL    MW4 9977   2.875   1.534   4.219 -0.5870 -0.5949 -0.2785
 2477SOL     OW 9978   0.645   3.830   4.125  0.7075  0.1659  0.2988
 2477SOL    HW2 9979   0.718   3.883   4.157  0.9153  0.3337 -0.4392
 2477SOL    HW3 9980   0.567   3.875   4.156  0.8495  1.5195 -1.2345
 2477SOL    MW4 9981   0.644   3.843   4.134  0.7537  0.3667 -0.0005
 2478SOL     OW 9982   0.860   3.987   4.185  0.4311 -0.0855 -0.0302
 2478SOL    HW2 9983   0.844   4.018   4.274  0.5046 -0.2713  0.0469
 2478SOL    HW3 9984   0.952   3.960   4.185 -0.2381 -2.4610  0.5388
 2478SOL    MW4 9985   0.870   3.988   4.197  0.3524 -0.4234  0.0544
 2479SOL     OW 9986   1.523   0.011   4.124  0.3256  0.0783  0.4582
 2479SOL    HW2 9987   1.494  -0.061   4.180 -0.8077  0.5907  0.5580
 2479SOL    HW3 9988   1.611   0.031   4.153  0.8287 -1.5807  0.1136
 2479SOL    MW4 9989   1.531   0.004   4.135  0.2425 -0.0730  0.4253
 2480SOL     OW 9990   1.549   4.209   4.281  0.5777  0.0177 -0.0771
 2480SOL    HW2 9991   1.639   4.216   4.251  1.0558  0.0131  1.3165
 2480SOL    HW3 9992   1.556   4.190   4.375 -0.8335 -2.1307 -0.3537
 2480SOL    MW4 9993   1.562   4.207   4.290  0.4545 -0.2661  0.0706
 2481SOL     OW 9994   1.341   0.371   4.138 -0.3643  0.4582  0.6793
 2481SOL    HW2 9995   1.332   0.280   4.169  0.1874  0.3436  0.5078
 2481SOL    HW3 9996   1.412   0.407   4.192  0.0885  0.4881  0.0685
 2481SOL    MW4 9997   1.349   0.364   4.149 -0.2317  0.4471  0.5765
 2482SOL     OW 9998   4.254   0.496   4.315 -0.4010 -0.0930 -0.3014
 2482SOL    HW2 9999   4.237   0.502   4.409 -1.3070 -0.2949 -0.4485
 2482SOL    HW310000   4.244   0.586   4.283 -1.3060 -0.2222 -0.4003
 2482SOL    MW410001   4.250   0.508   4.323 -0.6399 -0.1367 -0.3338
 2483SOL     OW10002   1.360   1.123   4.143  0.2981  0.2358 -0.2414
 2483SOL    HW210003   1.368   1.035   4.179 -0.4378  0.2267 -0.0804
 2483SOL    HW310004   1.445   1.164   4.159  0.6773 -0.4825 -0.4234
 2483SOL    MW410005   1.372   1.117   4.150  0.2511  0.1398 -0.2446
 2484SOL     OW10006   1.556   0.718   4.164 -0.1507  0.6854  0.3090
 2484SOL    HW210007   1.646   0.750   4.159  0.4064 -1.0037 -0.8960
 2484SOL    HW310008   1.528   0.710   4.073 -0.2317 -2.2590  0.5486
 2484SOL    MW410009   1.564   0.721   4.151 -0.0879  0.0740  0.1812
 2485SOL     OW10010   3.139   1.272   4.626 -0.0817  0.0179 -0.0301
 2485SOL    HW210011   3.107   1.234   4.544 -1.4691 -1.8833  1.3284
 2485SOL    HW310012   3.065   1.322   4.660  0.1395 -0.0625  0.5771
 2485SOL    MW410013   3.125   1.273   4.620 -0.2356 -0.2435  0.2298
 2486SOL     OW10014   3.171   0.154   4.537  0.0091  0.0821  0.2635
 2486SOL    HW210015   3.114   0.230   4.533  0.3272  0.3062 -0.0427
 2486SOL    HW310016   3.170   0.118   4.448  0.1491 -0.0546  0.3152
 2486SOL    MW410017   3.163   0.159   4.525  0.0696  0.0937  0.2294
 2487SOL     OW10018   1.592   1.334   4.478  0.0752  0.1447 -0.3973
 2487SOL    HW210019   1.681   1.351   4.509  0.5197 -0.0061 -1.5469
 2487SOL    HW310020   1.537   1.346   4.555  1.0514  0.6219  0.2429
 2487SOL    MW410021   1.597   1.338   4.492  0.2627  0.1878 -0.4644
 2488SOL     OW10022   4.319   2.039   4.374 -0.0331  0.6981  0.2047
 2488SOL    HW210023   4.241   1.994   4.341  0.3667  0.9601 -1.1325
 2488SOL    HW310024   4.317   2.024   4.469 -0.9749 -0.4393  0.0215
 2488SOL    MW410025   4.309   2.031   4.382 -0.1049  0.5827  0.0043
 2489SOL     OW10026   1.374   1.718   4.241 -0.2997  0.1252 -0.4384
 2489SOL    HW210027   1.366   1.810   4.218 -0.2587  0.3394  0.3808
 2489SOL    HW310028   1.370   1.717   4.336 -1.1711 -0.8059 -0.4772
 2489SOL    MW410029   1.372   1.730   4.250 -0.4092  0.0306 -0.3352
 2490SOL     OW10030   1.344   2.418   4.844 -0.1427  0.2372 -0.0096
 2490SOL    HW210031   1.436   2.439   4.860 -0.8081  3.3833  0.0236
 2490SOL    HW310032   1.343   2.378   4.757  1.2328  0.2028 -0.0260
 2490SOL    MW410033   1.356   2.415   4.835 -0.0490  0.6478 -0.0072
 2491SOL     OW10034   3.341   1.516   4.133  0.0359 -0.0346  0.0640
 2491SOL    HW210035   3.344   1.552   4.044 -0.4547  1.2960  0.5770
 2491SOL    HW310036   3.278   1.570   4.179  1.0163 -0.0825  1.5126
 2491SOL    MW410037   3.333   1.528   4.127  0.1001  0.1347  0.3228
 2492SOL     OW10038   0.265   2.309   4.119  0.1240 -0.5214  0.6760
 2492SOL    HW210039   0.204   2.361   4.171 -0.1231 -0.1470  0.0218
 2492SOL    HW310040   0.253   2.219   4.149 -0.4959 -0.3992  0.7963
 2492SOL    MW410041   0.256   2.304   4.130  0.0097 -0.4559  0.6056
 2493SOL     OW10042   1.151   2.310   4.368  0.0441 -0.4885 -0.2583
 2493SOL    HW210043   1.207   2.352   4.304  1.4638 -1.8678  0.0500
 2493SOL    HW310044   1.063   2.342   4.348  0.7769  0.7869 -1.4802
 2493SOL    MW410045   1.146   2.319   4.357  0.3282 -0.5021 -0.3791
 2494SOL     OW10046   1.545   3.048   4.168 -0.5033 -0.1535 -0.1077
 2494SOL    HW210047   1.614   3.111   4.187 -0.6204 -0.1855  0.4121
 2494SOL    HW310048   1.568   2.971   4.219 -1.0132 -0.1050  0.1937
 2494SOL    MW410049   1.557   3.046   4.177 -0.5859 -0.1514  0.0010
 2495SOL     OW10050   0.220   4.276   4.527  0.0645  0.2060  0.0470
 2495SOL    HW210051   0.253   4.187   4.526  0.0703  0.2052  0.3629
 2495SOL    HW310052   0.244   4.312   4.441  1.5193  0.4483  0.5411
 2495SOL    MW410053   0.227   4.269   4.515  0.2572  0.2379  0.1535
 2496SOL     OW10054   0.643   2.779   4.207 -0.1686 -0.1046  0.1799
 2496SOL    HW210055   0.678   2.865   4.185 -0.5290  0.0791  0.3241
 2496SOL    HW310056   0.707   2.718   4.172 -1.1813  0.1526 -2.1739
 2496SOL    MW410057   0.656   2.782   4.200 -0.3497 -0.0465 -0.1116
 2497SOL     OW10058   1.551   3.599   4.255 -0.1719  0.1484 -0.2249
 2497SOL    HW210059   1.628   3.547   4.233  0.2007  0.6127 -0.0276
 2497SOL    HW310060   1.481   3.564   4.199  0.0960 -0.4953 -0.1620
 2497SOL    MW410061   1.552   3.588   4.245 -0.0875  0.1247 -0.1898
 2498SOL     OW10062   1.359   3.498   4.081 -0.1630  0.1790 -0.0270
 2498SOL    HW210063   1.343   3.409   4.114  2.5454 -0.2064  0.4411
 2498SOL    HW310064   1.376   3.486   3.987  2.1800 -0.1242  0.3942
 2498SOL    MW410065   1.359   3.485   4.073  0.5034  0.0880  0.0906
 2499SOL     OW10066   2.912   1.380   4.728  0.0201 -0.4962 -0.3730
 2499SOL    HW210067   2.904   1.316   4.799 -0.4705 -1.2787 -1.1228
 2499SOL    HW310068   2.860   1.343   4.657 -0.2682  0.7516 -0.8133
 2499SOL    MW410069   2.904   1.367   4.728 -0.0825 -0.4346 -0.5302
 2500SOL     OW10070   2.906   1.677   4.662 -0.2004  0.1430  0.0667
 2500SOL    HW210071   2.908   1.582   4.677 -1.3091 -0.0464 -0.9191
 2500SOL    HW310072   2.989   1.696   4.619 -0.4715 -0.5765 -0.7918
 2500SOL    MW410073   2.917   1.667   4.658 -0.3824  0.0230 -0.1769
 2501SOL     OW10074   0.844   3.538   4.535  0.2013 -0.4034  0.1306
 2501SOL    HW210075   0.885   3.461   4.575  0.8102 -1.7805 -2.9800
 2501SOL    HW310076   0.918   3.592   4.507 -0.1769 -0.2891 -0.6543
 2501SOL    MW410077   0.859   3.535   4.536  0.2317 -0.5701 -0.3834
 2502SOL     OW10078   0.940   1.447   4.523 -0.3010  0.0955 -0.0275
 2502SOL    HW210079   0.922   1.540   4.514 -1.2753  0.0223  1.0626
 2502SOL    HW310080   1.034   1.439   4.505 -0.5489  1.0342 -1.8348
 2502SOL    MW410081   0.950   1.458   4.519 -0.4622  0.2097 -0.1225
 2503SOL     OW10082   2.030   4.611   4.154 -0.6536 -0.1923  0.2517
 2503SOL    HW210083   2.100   4.658   4.200 -0.0858 -1.0333  0.2718
 2503SOL    HW310084   2.055   4.616   4.061  0.4362 -2.0642  0.4116
 2503SOL    MW410085   2.043   4.618   4.148 -0.4349 -0.5503  0.2761
 2504SOL     OW10086   1.781   0.344   4.154  0.0017  0.2798 -0.0658
 2504SOL    HW210087   1.706   0.376   4.203 -2.2829 -1.9393 -2.0104
 2504SOL    HW310088   1.785   0.250   4.173  0.2946 -0.2424 -2.4835
 2504SOL    MW410089   1.772   0.335   4.163 -0.2611 -0.0819 -0.6409
 2505SOL     OW10090   1.549   0.474   4.277  0.4338  0.1020 -0.0316
 2505SOL    HW210091   1.536   0.489   4.371  0.7222  0.6046 -0.0714
 2505SOL    HW310092   1.545   0.562   4.238 -1.7452 -0.2828 -0.7503
 2505SOL    MW410093   1.546   0.488   4.284  0.1844  0.1176 -0.1316
 2506SOL     OW10094   2.510   4.612   4.137  0.4578 -0.1678 -0.0198
 2506SOL    HW210095   2.500   4.522   4.170  1.2829 -0.2547  0.0188
 2506SOL    HW310096   2.576   4.651   4.195 -0.5839  0.7607  0.5438
 2506SOL    MW410097   2.517   4.605   4.149  0.4289 -0.0567  0.0596
 2507SOL     OW10098   0.420   3.027   4.534 -0.2116 -0.7343  0.3650
 2507SOL    HW210099   0.326   3.040   4.544 -0.5127  0.2304 -3.2030
 2507SOL    HW310100   0.459   3.108   4.567 -0.7529 -0.3271  0.0200
 2507SOL    MW410101   0.413   3.039   4.540 -0.3227 -0.5534 -0.1507
 2508SOL     OW10102   2.000   0.495   4.245  0.2237 -0.2705 -0.1588
 2508SOL    HW210103   1.918   0.455   4.217 -0.5010  1.6207 -0.8054
 2508SOL    HW310104   2.068   0.430   4.223 -0.9877 -1.4481 -0.4591
 2508SOL    MW410105   1.998   0.481   4.239 -0.0318 -0.1764 -0.2837
 2509SOL     OW10106   1.613   2.100   4.260  0.0219 -0.1035 -0.0054
 2509SOL    HW210107   1.691   2.059   4.223  1.4649  1.8982  0.7058
 2509SOL    HW310108   1.644   2.143   4.340 -1.8366  0.5862  0.3830
 2509SOL    MW410109   1.627   2.101   4.266 -0.0329  0.2513  0.1392
 2510SOL     OW10110   2.083   1.860   4.566  0.2086 -0.1491  0.0016
 2510SOL    HW210111   2.049   1.943   4.533 -0.0468 -0.3168 -0.1622
 2510SOL    HW310112   2.160   1.884   4.617 -0.8370  0.3600  1.3958
 2510SOL    MW410113   2.088   1.874   4.568  0.0370 -0.1041  0.1640
 2511SOL     OW10114   2.061   2.105   4.218  0.3507  0.3017  0.0604
 2511SOL    HW210115   2.108   2.188   4.209 -0.6178  0.7239 -1.4685
 2511SOL    HW310116   2.029   2.105   4.308 -0.6275  2.1587 -0.2546
 2511SOL    MW410117   2.063   2.116   4.228  0.0939  0.6025 -0.1831
 2512SOL     OW10118   2.035   1.512   4.131  0.1569 -0.0452 -0.1089
 2512SOL    HW210119   2.110   1.565   4.158 -0.2263  0.2283  0.4338
 2512SOL    HW310120   2.042   1.432   4.184  0.8477 -0.6393 -1.0701
 2512SOL    MW410121   2.046   1.508   4.142  0.1976 -0.0876 -0.1640
 2513SOL     OW10122   0.707   4.368   4.235  0.6042  0.1148  0.1011
 2513SOL    HW210123   0.657   4.307   4.182  2.1299  1.0443 -2.5170
 2513SOL    HW310124   0.675   4.455   4.208  1.8131  0.6157  0.2425
 2513SOL    MW410125   0.696   4.372   4.224  0.9649  0.3033 -0.2255
 2514SOL     OW10126   2.085   1.342   4.522  0.1719  0.2857  0.3337
 2514SOL    HW210127   1.999   1.346   4.565  1.2332  0.2591  2.4949
 2514SOL    HW310128   2.118   1.432   4.527  0.1328  0.3697 -0.8149
 2514SOL    MW410129   2.078   1.355   4.528  0.3066  0.2934  0.4668
 2515SOL     OW10130   0.984   1.311   4.772  0.0339 -0.0196  0.7462
 2515SOL    HW210131   0.950   1.369   4.704  1.1894 -0.8532 -0.5828
 2515SOL    HW310132   1.063   1.355   4.804 -0.2820  0.1746  1.2626
 2515SOL    MW410133   0.990   1.324   4.767  0.1446 -0.1041  0.6390
 2516SOL     OW10134   2.677   1.714   4.531 -0.2285  0.0428 -0.2323
 2516SOL    HW210135   2.766   1.698   4.561  0.1043 -0.0945 -1.2724
 2516SOL    HW310136   2.682   1.709   4.436 -1.4355 -0.4525 -0.2860
 2516SOL    MW410137   2.689   1.711   4.523 -0.3438 -0.0408 -0.3767
 2517SOL     OW10138   1.671   2.926   4.591  0.3496  0.0691  0.1988
 2517SOL    HW210139   1.645   2.839   4.622 -1.4478  0.6822  0.4776
 2517SOL    HW310140   1.762   2.936   4.619  0.9924 -2.2273 -0.9277
 2517SOL    MW410141   1.679   2.916   4.599  0.1972 -0.1533  0.0868
 2518SOL     OW10142   0.685   1.328   4.527  0.3388 -0.1481 -0.2219
 2518SOL    HW210143   0.776   1.355   4.538  0.6243 -0.4978 -1.6848
 2518SOL    HW310144   0.635   1.409   4.536  0.8203  0.1163  0.1366
 2518SOL    MW410145   0.690   1.342   4.530  0.4400 -0.1593 -0.3681
 2519SOL     OW10146   2.163   2.727   4.176 -0.2587 -0.0209  0.0035
 2519SOL    HW210147   2.116   2.802   4.140  0.7999  1.0429  0.7813
 2519SOL    HW310148   2.106   2.652   4.159 -1.7554  1.0893  0.0464
 2519SOL    MW410149   2.149   2.727   4.169 -0.3161  0.2661  0.1116
 2520SOL     OW10150   1.705   3.234   4.327  0.0322  0.4569  0.0769
 2520SOL    HW210151   1.786   3.186   4.345 -0.4240 -0.3217  0.0659
 2520SOL    HW310152   1.729   3.299   4.261  0.3013 -0.7968 -1.0785
 2520SOL    MW410153   1.719   3.236   4.321  0.0076  0.1888 -0.0772
 2521SOL     OW10154   1.758   3.434   4.137  0.0164  0.2947  0.1302
 2521SOL    HW210155   1.752   3.437   4.042  0.7665  0.8677  0.0949
 2521SOL    HW310156   1.835   3.487   4.158 -0.2154  0.2725  1.0645
 2521SOL    MW410157   1.768   3.441   4.127  0.0849  0.3674  0.2489
 2522SOL     OW10158   1.430   3.725   4.526 -0.6462  0.2792  0.4568
 2522SOL    HW210159   1.435   3.713   4.431 -0.4797  0.6913  0.4106
 2522SOL    HW310160   1.433   3.637   4.562 -1.4703  0.0881  0.0438
 2522SOL    MW410161   1.431   3.712   4.518 -0.7330  0.3085  0.3963
 2523SOL     OW10162   1.715   3.755   4.603 -0.4071  0.3593  0.3536
 2523SOL    HW210163   1.747   3.845   4.602 -0.4592  0.3852  1.0134
 2523SOL    HW310164   1.625   3.760   4.570  0.0073  0.3855 -0.7817
 2523SOL    MW410165   1.707   3.767   4.598 -0.3593  0.3664  0.2909
 2524SOL     OW10166   1.793   4.220   4.164  0.2096 -0.5330  0.1732
 2524SOL    HW210167   1.872   4.269   4.188 -0.2276  0.2050  0.1095
 2524SOL    HW310168   1.786   4.231   4.069 -0.4578  0.1470  0.2936
 2524SOL    MW410169   1.803   4.228   4.154  0.0639 -0.3462  0.1807
 2525SOL     OW10170   2.038   4.360   4.262 -0.7169 -0.3553 -0.4853
 2525SOL    HW210171   2.102   4.310   4.212  0.7187 -0.2549  1.2286
 2525SOL    HW310172   2.042   4.448   4.225  0.4229 -0.2530 -0.1390
 2525SOL    MW410173   2.047   4.365   4.251 -0.3769 -0.3281 -0.2136
 2526SOL     OW10174   2.219   3.686   4.564  0.0647  0.7276 -0.4607
 2526SOL    HW210175   2.288   3.622   4.545  0.1054  0.7845 -0.5058
 2526SOL    HW310176   2.263   3.754   4.615  0.7416  2.2456 -2.9651
 2526SOL    MW410177   2.234   3.687   4.568  0.1590  0.9351 -0.7973
 2527SOL     OW10178   2.269   0.061   4.261  0.6701 -0.1432  0.4616
 2527SOL    HW210179   2.348   0.051   4.207 -0.9191 -0.2438 -1.9509
 2527SOL    HW310180   2.240   0.151   4.243 -0.6196 -0.6268  0.1009
 2527SOL    MW410181   2.276   0.072   4.251  0.2906 -0.2203  0.0963
 2528SOL     OW10182   2.881   0.766   4.176  0.0656  0.5825  0.1446
 2528SOL    HW210183   2.916   0.778   4.088 -0.3771 -1.4381 -0.3367
 2528SOL    HW310184   2.786   0.770   4.165 -0.0632 -1.5435  0.1865
 2528SOL    MW410185   2.873   0.768   4.163 -0.0098  0.0355  0.0858
 2529SOL     OW10186   2.451   0.862   4.618 -0.0751 -0.1944  0.3200
 2529SOL    HW210187   2.403   0.944   4.606 -0.1013 -0.4763 -1.7210
 2529SOL    HW310188   2.543   0.886   4.608 -0.0632 -0.3378  0.0635
 2529SOL    MW410189   2.457   0.876   4.615 -0.0768 -0.2505  0.0167
 2530SOL     OW10190   0.901   0.366   4.154  0.7362  0.0589 -0.5517
 2530SOL    HW210191   0.824   0.402   4.197 -0.3906 -1.7891 -0.9500
 2530SOL    HW310192   0.974   0.420   4.184 -0.3673  0.3003  1.7852
 2530SOL    MW410193   0.901   0.378   4.164  0.4419 -0.1531 -0.2956
 2531SOL     OW10194   2.981   0.520   4.272  0.3056  0.2115 -0.2078
 2531SOL    HW210195   2.898   0.475   4.262  0.7997 -0.5023 -1.1597
 2531SOL    HW310196   2.962   0.612   4.256 -0.6696  0.3308  1.5198
 2531SOL    MW410197   2.968   0.526   4.269  0.2422  0.1331 -0.1059
 2532SOL     OW10198   2.725   0.276   4.570  0.0082  0.3356  0.2792
 2532SOL    HW210199   2.813   0.309   4.558  0.7107 -0.9986  1.5660
 2532SOL    HW310200   2.732   0.182   4.551 -2.0655  0.9436 -4.0088
 2532SOL    MW410201   2.737   0.268   4.566 -0.1729  0.2398 -0.1168
 2533SOL     OW10202   2.043   0.748   4.145 -0.0105  0.4332  0.0939
 2533SOL    HW210203   2.031   0.657   4.172  0.1767  0.0176 -1.2255
 2533SOL    HW310204   2.122   0.777   4.191  0.4402 -0.3417 -0.2053
 2533SOL    MW410205   2.052   0.740   4.155  0.0737  0.2761 -0.1197
 2534SOL     OW10206   3.090   0.627   4.624  0.4725  0.3092  0.2917
 2534SOL    HW210207   3.159   0.601   4.685 -0.0886  2.8384  2.0633
 2534SOL    HW310208   3.135   0.675   4.555  0.8767 -0.9350 -0.3217
 2534SOL    MW410209   3.105   0.630   4.623  0.4518  0.4787  0.4444
 2535SOL     OW10210   2.886   3.869   4.175  0.0307  0.1663  0.0808
 2535SOL    HW210211   2.817   3.912   4.224 -0.4229  0.9796 -1.2282
 2535SOL    HW310212   2.884   3.778   4.205  0.9756  1.0200  2.8444
 2535SOL    MW410213   2.876   3.862   4.185  0.0954  0.3862  0.2728
 2536SOL     OW10214   2.079   2.074   3.821 -0.1034 -0.2098 -0.1999
 2536SOL    HW210215   1.995   2.044   3.854 -0.3262  0.4319 -0.1625
 2536SOL    HW310216   2.068   2.077   3.726 -0.8029  1.8190 -0.0761
 2536SOL    MW410217   2.066   2.071   3.813 -0.2253  0.1426 -0.1786
 2537SOL     OW10218   3.768   3.261   4.561  0.3462 -0.2874  0.1484
 2537SOL    HW210219   3.815   3.267   4.478 -0.0631 -1.0501 -0.1481
 2537SOL    HW310220   3.819   3.199   4.613  0.8359  0.5153  0.6293
 2537SOL    MW410221   3.781   3.253   4.557  0.3567 -0.2823  0.1731
 2538SOL     OW10222   2.601   1.944   4.105 -0.4074  0.1591  0.1672
 2538SOL    HW210223   2.560   2.030   4.116  0.5759  0.5658  0.6736
 2538SOL    HW310224   2.636   1.946   4.016 -1.3312 -0.1308 -0.2115
 2538SOL    MW410225   2.600   1.955   4.094 -0.3996  0.1744  0.1841
 2539SOL     OW10226   2.467   2.260   3.851 -0.0321  0.0987  0.0611
 2539SOL    HW210227   2.548   2.304   3.823 -0.2194  0.3773 -0.0389
 2539SOL    HW310228   2.399   2.327   3.844 -0.3688 -0.2871 -0.3497
 2539SOL    MW410229   2.469   2.275   3.847 -0.1013  0.0844 -0.0062
 2540SOL     OW10230   0.880   2.422   4.309  0.2280  0.0311 -0.0374
 2540SOL    HW210231   0.814   2.366   4.269  0.2003 -0.0943  0.1794
 2540SOL    HW310232   0.843   2.444   4.395  1.1866 -1.3722  0.7585
 2540SOL    MW410233   0.866   2.418   4.315  0.3508 -0.1707  0.0958
 2541SOL     OW10234   2.492   2.839   4.440 -0.0350  0.1347  0.4184
 2541SOL    HW210235   2.479   2.842   4.345  0.4054 -0.3249  0.3417
 2541SOL    HW310236   2.458   2.753   4.465  0.5079 -0.0290  0.5808
 2541SOL    MW410237   2.486   2.828   4.431  0.0944  0.0522  0.4296
 2542SOL     OW10238   3.097   2.625   4.146  0.1304 -0.1040  0.0905
 2542SOL    HW210239   3.019   2.669   4.177  0.1074 -0.3903  0.4412
 2542SOL    HW310240   3.170   2.676   4.182  0.1044  0.0162 -0.0275
 2542SOL    MW410241   3.097   2.637   4.155  0.1245 -0.1261  0.1211
 2543SOL     OW10242   2.184   3.199   4.310  0.0090 -0.5008  0.0294
 2543SOL    HW210243   2.145   3.276   4.268  1.2526 -1.1850 -2.4574
 2543SOL    HW310244   2.220   3.231   4.392  1.3130  1.7683 -1.3976
 2543SOL    MW410245   2.183   3.213   4.315  0.3452 -0.2916 -0.4869
 2544SOL     OW10246   1.098   3.078   4.165  0.0928  0.2677 -0.1622
 2544SOL    HW210247   1.099   3.068   4.070 -0.2111  1.4211 -0.2839
 2544SOL    HW310248   1.174   3.133   4.185  0.5699 -0.5545  0.3330
 2544SOL    MW410249   1.108   3.084   4.155  0.1156  0.3114 -0.1125
 2545SOL     OW10250   1.980   3.566   4.266 -0.4480 -0.0452  0.2566
 2545SOL    HW210251   1.960   3.569   4.360 -1.6090 -0.8238  0.0481
 2545SOL    HW310252   1.979   3.658   4.239 -0.4253  0.1654  0.9412
 2545SOL    MW410253   1.977   3.579   4.275 -0.5982 -0.1204  0.3200
 2546SOL     OW10254   3.261   4.345   4.484  0.2942 -0.3145  0.1678
 2546SOL    HW210255   3.329   4.319   4.546 -0.3637 -0.6663  0.7568
 2546SOL    HW310256   3.226   4.427   4.520 -0.9029 -1.1419  0.9206
 2546SOL    MW410257   3.265   4.352   4.497  0.0494 -0.4702  0.3452
 2547SOL     OW10258   2.467   3.827   4.169  0.0048 -0.4809 -0.0685
 2547SOL    HW210259   2.379   3.821   4.206 -0.1685  1.1052 -0.1866
 2547SOL    HW310260   2.453   3.837   4.075  0.3597 -1.2708 -0.2148
 2547SOL    MW410261   2.454   3.827   4.161  0.0286 -0.3760 -0.1035
 2548SOL     OW10262   2.217   2.238   4.545  0.1214  0.3931 -0.6131
 2548SOL    HW210263   2.129   2.203   4.534 -1.3275  3.4165  0.9163
 2548SOL    HW310264   2.236   2.228   4.638  1.8122 -1.0477 -1.0658
 2548SOL    MW410265   2.208   2.232   4.556  0.1535  0.6018 -0.4711
 2549SOL     OW10266   3.696   0.307   4.638 -0.5366  0.1531  0.2618
 2549SOL    HW210267   3.604   0.281   4.628 -0.3212 -1.3709  1.8860
 2549SOL    HW310268   3.741   0.225   4.661  0.7385  1.3835  2.3075
 2549SOL    MW410269   3.690   0.293   4.640 -0.3402  0.1144  0.7463
 2550SOL     OW10270   3.526   2.047   4.588  0.3932  0.0514 -0.3690
 2550SOL    HW210271   3.502   2.030   4.497 -0.4761 -0.3906 -0.0620
 2550SOL    HW310272   3.464   2.114   4.618 -0.7483 -1.3759  0.5387
 2550SOL    MW410273   3.515   2.054   4.580  0.1278 -0.1953 -0.2084
 2551SOL     OW10274   3.186   1.012   4.767  0.1912  0.0442  0.2359
 2551SOL    HW210275   3.266   1.022   4.819 -1.1116 -0.2812  2.3643
 2551SOL    HW310276   3.164   1.101   4.739  1.1933  0.1547 -0.2128
 2551SOL    MW410277   3.194   1.025   4.770  0.1519  0.0160  0.4573
 2552SOL     OW10278   1.537   4.131   4.568 -0.0466 -0.7360 -0.1653
 2552SOL    HW210279   1.507   4.217   4.597  0.4903 -1.1991  1.8272
 2552SOL    HW310280   1.456   4.079   4.560 -0.3319 -0.1761 -0.9764
 2552SOL    MW410281   1.522   4.135   4.571 -0.0135 -0.7229 -0.0095
 2553SOL     OW10282   2.713   0.079   4.264 -0.6237 -0.1509 -0.3956
 2553SOL    HW210283   2.790   0.039   4.223 -0.5442 -0.3328 -0.0736
 2553SOL    HW310284   2.716   0.048   4.355 -2.0619 -1.6336 -0.8230
 2553SOL    MW410285   2.724   0.069   4.271 -0.8030 -0.3705 -0.4096
 2554SOL     OW10286   3.144   1.783   4.507 -0.1011 -0.2224  0.1824
 2554SOL    HW210287   3.125   1.876   4.495 -0.3008 -0.6770 -3.7976
 2554SOL    HW310288   3.224   1.781   4.560 -0.4738  2.1850  0.8650
 2554SOL    MW410289   3.152   1.795   4.512 -0.1767  0.0352 -0.2527
 2555SOL     OW10290   3.236   1.081   4.170 -0.1041  0.3772 -0.1266
 2555SOL    HW210291   3.289   1.157   4.197 -0.5622  0.4034  0.7201
 2555SOL    HW310292   3.209   1.101   4.080 -1.0173  1.6605  0.4246
 2555SOL    MW410293   3.239   1.094   4.162 -0.2849  0.5500  0.0577
 2556SOL     OW10294   2.929   4.345   4.296 -0.1060  0.1173 -0.0094
 2556SOL    HW210295   2.845   4.325   4.255  0.8761 -0.5691 -1.7721
 2556SOL    HW310296   2.994   4.306   4.237  1.4247  0.1013  1.6344
 2556SOL    MW410297   2.926   4.337   4.282  0.2255  0.0243 -0.0248
 2557SOL     OW10298   2.685   1.146   3.936  0.4026 -0.6787 -0.0998
 2557SOL    HW210299   2.678   1.053   3.915 -1.0610 -0.9543  1.5304
 2557SOL    HW310300   2.622   1.188   3.877 -0.6019 -0.9857  0.7366
 2557SOL    MW410301   2.676   1.139   3.925  0.0770 -0.7555  0.2258
 2558SOL     OW10302   1.570   1.314   4.204  0.1244  0.2561 -0.2845
 2558SOL    HW210303   1.558   1.312   4.299 -0.6297  0.5829 -0.3716
 2558SOL    HW310304   1.578   1.407   4.183 -0.7704  0.2498 -0.6697
 2558SOL    MW410305   1.569   1.326   4.214 -0.0932  0.2983 -0.3467
 2559SOL     OW10306   1.489   0.898   4.678 -0.2183  0.2122  0.1179
 2559SOL    HW210307   1.407   0.862   4.645  0.0140  0.9650 -1.3082
 2559SOL    HW310308   1.543   0.821   4.698 -0.5785 -0.2676 -0.7229
 2559SOL    MW410309   1.485   0.883   4.676 -0.2352  0.2482 -0.1812
 2560SOL     OW10310   2.665   1.080   4.209  0.1325 -0.0892  0.3186
 2560SOL    HW210311   2.655   1.095   4.115 -1.5166 -0.0388  0.4907
 2560SOL    HW310312   2.619   0.997   4.225  0.5563 -0.1856  1.0533
 2560SOL    MW410313   2.658   1.071   4.199 -0.0293 -0.0954  0.4387
 2561SOL     OW10314   1.494   0.530   4.547 -0.0454 -0.3563  0.2193
 2561SOL    HW210315   1.414   0.568   4.583  0.4144 -0.8990  1.8652
 2561SOL    HW310316   1.563   0.593   4.569 -0.0009  0.0779 -1.1339
 2561SOL    MW410317   1.493   0.543   4.555  0.0211 -0.3706  0.2570
 2562SOL     OW10318   1.055   3.920   4.574  0.1748 -0.0974  0.0107
 2562SOL    HW210319   1.023   3.928   4.664  0.4810  0.9856  0.0299
 2562SOL    HW310320   1.077   3.828   4.565  1.3091  0.0063  1.4480
 2562SOL    MW410321   1.054   3.909   4.585  0.3650  0.0591  0.2027
 2563SOL     OW10322   2.768   2.890   4.439  0.0494 -0.5072  0.1127
 2563SOL    HW210323   2.674   2.879   4.445 -0.1272 -0.2125 -1.8865
 2563SOL    HW310324   2.784   2.981   4.465 -0.1121 -0.7879  1.2308
 2563SOL    MW410325   2.758   2.900   4.444  0.0045 -0.5054 -0.0043
 2564SOL     OW10326   3.081   1.928   4.181 -0.0233  0.6384  0.3491
 2564SOL    HW210327   3.102   1.836   4.197 -0.3306  0.4081 -0.5719
 2564SOL    HW310328   2.991   1.938   4.212  0.2784  0.8334  1.1987
 2564SOL    MW410329   3.072   1.917   4.187 -0.0241  0.6337  0.3400
 2565SOL     OW10330   2.656   2.692   4.102 -0.1088  0.3438  0.1349
 2565SOL    HW210331   2.580   2.732   4.145  2.2991  2.2730  2.7324
 2565SOL    HW310332   2.664   2.606   4.142 -0.7800  0.2231  0.0184
 2565SOL    MW410333   2.647   2.686   4.113  0.1204  0.5825  0.4625
 2566SOL     OW10334   3.302   2.818   4.230  0.1433 -0.1380 -0.1479
 2566SOL    HW210335   3.295   2.907   4.195 -0.8645 -0.4890 -0.8556
 2566SOL    HW310336   3.381   2.782   4.191  1.7496  1.1620  1.7784
 2566SOL    MW410337   3.311   2.825   4.220  0.2224 -0.0129  0.0129
 2567SOL     OW10338   2.847   3.054   4.097 -0.1803  0.2931  0.4966
 2567SOL    HW210339   2.868   3.044   4.004  1.4418  1.3665  0.7220
 2567SOL    HW310340   2.860   2.967   4.134  1.7106  0.4133  0.1721
 2567SOL    MW410341   2.852   3.041   4.090  0.2830  0.4506  0.4835
 2568SOL     OW10342   1.165   1.867   4.574  0.2425 -0.0470  0.6911
 2568SOL    HW210343   1.179   1.934   4.641 -0.3088  0.0377  0.7277
 2568SOL    HW310344   1.143   1.915   4.495  0.7716 -0.1527  0.4799
 2568SOL    MW410345   1.164   1.882   4.573  0.2396 -0.0497  0.6676
 2569SOL     OW10346   2.696   3.432   4.122  0.4635  0.1306 -0.2730
 2569SOL    HW210347   2.630   3.489   4.161 -0.3863 -0.4654 -0.8433
 2569SOL    HW310348   2.689   3.350   4.171  0.8817  0.1112 -0.2381
 2569SOL    MW410349   2.686   3.429   4.134  0.4067  0.0494 -0.3433
 2570SOL     OW10350   2.632   1.697   4.252 -0.3433  0.0486  0.1759
 2570SOL    HW210351   2.637   1.774   4.195 -0.5395  1.4032  1.9528
 2570SOL    HW310352   2.570   1.639   4.208 -0.8271  1.2524 -0.7592
 2570SOL    MW410353   2.625   1.699   4.238 -0.4332  0.3860  0.2871
 2571SOL     OW10354   2.196   3.436   4.134 -0.2161  0.1829 -0.1954
 2571SOL    HW210355   2.281   3.467   4.164 -0.6560 -0.9796  2.4126
 2571SOL    HW310356   2.134   3.501   4.165 -0.2970  1.0973 -2.2075
 2571SOL    MW410357   2.199   3.449   4.142 -0.2851  0.1502 -0.1168
 2572SOL     OW10358   2.902   3.593   4.244  0.6934 -0.0141  0.3515
 2572SOL    HW210359   2.841   3.534   4.200  0.0172  1.5671 -0.8989
 2572SOL    HW310360   2.989   3.560   4.223  0.3400 -0.0125 -1.1317
 2572SOL    MW410361   2.905   3.581   4.236  0.5574  0.1948 -0.0086
 2573SOL     OW10362   2.696   4.266   4.172  0.3555  0.3572 -0.0314
 2573SOL    HW210363   2.681   4.177   4.205 -1.5713  1.1128  1.2063
 2573SOL    HW310364   2.692   4.257   4.077  3.1925 -1.3607 -0.0747
 2573SOL    MW410365   2.694   4.253   4.164  0.4756  0.2308  0.1259
 2574SOL     OW10366   0.254   4.472   4.763  0.7116  0.4372  0.0371
 2574SOL    HW210367   0.235   4.435   4.677 -0.1626  0.3685  0.2540
 2574SOL    HW310368   0.274   4.564   4.745  1.0043  0.3130 -0.2883
 2574SOL    MW410369   0.254   4.480   4.749  0.6349  0.4110  0.0229
 2575SOL     OW10370   4.471   4.126   4.486 -0.0131  0.1439 -0.4533
 2575SOL    HW210371   4.546   4.186   4.491 -0.7520  0.9672  0.8997
 2575SOL    HW310372   4.482   4.069   4.562  0.6734 -1.4690 -1.7160
 2575SOL    MW410373   4.483   4.126   4.496 -0.0205  0.0396 -0.4411
 2576SOL     OW10374   0.094   1.704   4.504  0.3800 -0.3117 -0.1160
 2576SOL    HW210375   0.166   1.647   4.532  1.1083  0.0607 -1.2103
 2576SOL    HW310376   0.076   1.679   4.414  0.1225  0.5879 -0.3262
 2576SOL    MW410377   0.101   1.693   4.496  0.4421 -0.1439 -0.2885
 2577SOL     OW10378   3.414   0.460   4.411 -0.0118 -0.2624  0.1891
 2577SOL    HW210379   3.426   0.552   4.387 -0.9767  0.3428  1.9215
 2577SOL    HW310380   3.482   0.414   4.363 -1.2195  0.9965 -2.8761
 2577SOL    MW410381   3.425   0.466   4.401 -0.2983 -0.0165  0.0124
 2578SOL     OW10382   0.042   0.901   4.519 -0.1255 -0.1605  0.4688
 2578SOL    HW210383   0.130   0.877   4.550 -0.4322 -0.8587  0.8095
 2578SOL    HW310384   0.030   0.991   4.549 -0.0144 -0.4802  1.5197
 2578SOL    MW410385   0.052   0.910   4.527 -0.1513 -0.2948  0.6523
 2579SOL     OW10386   0.242   2.055   4.228 -0.1436  0.2036  0.6134
 2579SOL    HW210387   0.230   2.072   4.322 -1.3445  0.5331  0.4073
 2579SOL    HW310388   0.326   2.010   4.223  0.2942  0.8502  1.7805
 2579SOL    MW410389   0.252   2.051   4.240 -0.2443  0.3326  0.7401
 2580SOL     OW10390   4.298   1.343   4.540 -0.3011  0.0563  0.1561
 2580SOL    HW210391   4.314   1.438   4.542  3.1573 -0.4514  1.0287
 2580SOL    HW310392   4.294   1.321   4.447 -0.4872  0.9656 -0.0575
 2580SOL    MW410393   4.300   1.353   4.528  0.1307  0.1093  0.2432
 2581SOL     OW10394   2.836   1.284   4.280 -0.4627 -0.8818 -0.0898
 2581SOL    HW210395   2.789   1.206   4.250 -1.3965 -0.5760  0.5739
 2581SOL    HW310396   2.918   1.250   4.315 -0.2982 -1.4447 -0.9786
 2581SOL    MW410397   2.840   1.269   4.280 -0.5641 -0.9158 -0.1192
 2582SOL     OW10398   1.784   1.153   4.110  0.0012 -0.0728 -0.1201
 2582SOL    HW210399   1.703   1.198   4.134  0.0507 -0.2137  0.3191
 2582SOL    HW310400   1.851   1.189   4.169  0.0987 -0.5123  0.0470
 2582SOL    MW410401   1.782   1.163   4.121  0.0205 -0.1495 -0.0396
 2583SOL     OW10402   2.946   0.882   4.699  0.1686 -0.2844  0.2599
 2583SOL    HW210403   2.971   0.793   4.673 -0.1654  0.2611 -2.0493
 2583SOL    HW310404   3.027   0.921   4.729  0.9324 -0.4559 -1.5047
 2583SOL    MW410405   2.960   0.875   4.699  0.2251 -0.2350 -0.2775
 2584SOL     OW10406   3.391   1.784   4.642  0.2814  0.3415 -0.1861
 2584SOL    HW210407   3.457   1.722   4.612 -0.0994 -0.1097 -0.0923
 2584SOL    HW310408   3.439   1.866   4.655  0.7841  0.0648 -0.3012
 2584SOL    MW410409   3.406   1.787   4.640  0.2973  0.2455 -0.1888
 2585SOL     OW10410   2.927   2.251   4.187 -0.1263 -0.1302  0.3901
 2585SOL    HW210411   2.893   2.168   4.218 -0.7764  0.1573  0.4625
 2585SOL    HW310412   2.852   2.311   4.192  0.2512  0.3772  0.0417
 2585SOL    MW410413   2.913   2.248   4.192 -0.1624 -0.0253  0.3538
 2586SOL     OW10414   2.645   3.455   4.634 -0.1832 -0.3498  0.1989
 2586SOL    HW210415   2.640   3.372   4.682  0.5007  0.1920  1.2352
 2586SOL    HW310416   2.733   3.455   4.596 -1.3331 -1.5909 -2.6150
 2586SOL    MW410417   2.656   3.444   4.636 -0.2449 -0.4423 -0.0353
 2587SOL     OW10418   2.512   2.203   4.143  0.3161 -0.8256  0.4034
 2587SOL    HW210419   2.498   2.214   4.048  1.0783 -1.7614  0.1741
 2587SOL    HW310420   2.426   2.216   4.181  0.0516 -0.1699 -0.4028
 2587SOL    MW410421   2.499   2.206   4.135  0.3819 -0.8626  0.2670
 2588SOL     OW10422   0.339   4.038   4.502 -0.5619  0.3242  0.0129
 2588SOL    HW210423   0.295   3.963   4.542 -0.1025  0.7728  1.3793
 2588SOL    HW310424   0.425   4.040   4.543  0.6013 -0.2490 -2.2794
 2588SOL    MW410425   0.345   4.028   4.513 -0.3479  0.3080 -0.1092
 2589SOL     OW10426   3.795   3.590   4.240  0.0626  0.1296  0.4488
 2589SOL    HW210427   3.790   3.587   4.335  1.0909 -1.5620  0.4643
 2589SOL    HW310428   3.874   3.541   4.218  0.8459  1.9998 -1.1822
 2589SOL    MW410429   3.805   3.583   4.249  0.3016  0.1531  0.2356
 2590SOL     OW10430   3.529   2.724   4.118  0.0279 -0.2965 -0.5310
 2590SOL    HW210431   3.531   2.720   4.022 -1.2944  0.1033 -0.5939
 2590SOL    HW310432   3.540   2.633   4.146  0.8813 -0.3565 -1.0460
 2590SOL    MW410433   3.530   2.711   4.109 -0.0341 -0.2518 -0.6075
 2591SOL     OW10434   4.114   2.982   4.667 -0.1443 -0.3749 -0.1651
 2591SOL    HW210435   4.114   2.888   4.650 -1.3324 -0.4663  0.3102
 2591SOL    HW310436   4.030   2.999   4.709  1.1970  0.4499  2.2680
 2591SOL    MW410437   4.103   2.972   4.670 -0.1240 -0.2782  0.2184
 2592SOL     OW10438   2.098   0.916   4.530  0.0415  0.0137  0.2151
 2592SOL    HW210439   2.101   0.821   4.546  0.9689  0.0800  0.4780
 2592SOL    HW310440   2.007   0.934   4.507 -0.1981 -0.9025  0.4353
 2592SOL    MW410441   2.087   0.906   4.529  0.1323 -0.0985  0.2789
 2593SOL     OW10442   3.105   2.288   4.565  0.3961  0.0281 -0.4212
 2593SOL    HW210443   3.103   2.380   4.539  1.1557  0.0679 -0.3484
 2593SOL    HW310444   3.100   2.240   4.482  1.3613  0.1442 -0.5465
 2593SOL    MW410445   3.104   2.294   4.551  0.6235  0.0486 -0.4282
 2594SOL     OW10446   2.420   3.024   4.644  0.0784 -0.1391 -0.0539
 2594SOL    HW210447   2.336   2.991   4.675 -0.8646  2.6396  0.5381
 2594SOL    HW310448   2.437   2.976   4.563 -2.1381 -0.6684 -0.2253
 2594SOL    MW410449   2.411   3.014   4.637 -0.3386  0.1576  0.0010
 2595SOL     OW10450   4.038   4.457   4.622 -0.0129 -0.2679  0.2806
 2595SOL    HW210451   4.129   4.429   4.623  0.3145  0.7575 -0.2433
 2595SOL    HW310452   4.041   4.548   4.594 -1.1034  0.1267  1.4196
 2595SOL    MW410453   4.050   4.465   4.618 -0.1130 -0.0806  0.3614
 2596SOL     OW10454   2.673   4.009   4.532  0.0048 -0.0295 -0.2812
 2596SOL    HW210455   2.664   3.916   4.548 -1.1633  0.2451  0.7263
 2596SOL    HW310456   2.745   4.037   4.589 -0.4779 -0.0914  0.3670
 2596SOL    MW410457   2.681   4.001   4.542 -0.2129 -0.0014 -0.0625
 2597SOL     OW10458   3.343   4.617   4.185  0.2656  0.1897 -0.4011
 2597SOL    HW210459   3.421   4.647   4.232 -0.4288  0.1142  0.7966
 2597SOL    HW310460   3.343   4.522   4.197 -1.0060  0.3739  1.1455
 2597SOL    MW410461   3.353   4.608   4.193  0.0057  0.2036 -0.0391
 2598SOL     OW10462   2.428   2.833   4.171  0.5529 -0.0599  0.1673
 2598SOL    HW210463   2.342   2.791   4.161  0.0392  0.4114  2.2794
 2598SOL    HW310464   2.412   2.924   4.145  0.1755  0.2422  1.4225
 2598SOL    MW410465   2.414   2.840   4.166  0.4354  0.0424  0.6123
 2599SOL     OW10466   3.594   4.232   4.212  0.0429 -0.3017 -0.2773
 2599SOL    HW210467   3.579   4.143   4.244  0.5774 -0.6862 -1.0940
 2599SOL    HW310468   3.678   4.257   4.251 -0.2295 -0.0576  0.1573
 2599SOL    MW410469   3.603   4.224   4.222  0.0772 -0.3200 -0.3281
 2600SOL     OW10470   0.005   3.962   4.707  0.3508  0.1821 -0.0101
 2600SOL    HW210471  -0.068   3.903   4.686  1.5738 -1.0806 -0.8328
 2600SOL    HW310472   0.032   3.937   4.795 -0.6540  1.1524  0.5961
 2600SOL    MW410473  -0.001   3.951   4.716  0.3796  0.1438 -0.0391
 2601SOL     OW10474   3.618   0.913   4.205  0.1480 -0.8136  0.6189
 2601SOL    HW210475   3.537   0.872   4.174  1.0867 -1.0095 -1.7494
 2601SOL    HW310476   3.615   1.002   4.169  0.7207 -0.6387  0.9967
 2601SOL    MW410477   3.607   0.919   4.196  0.3474 -0.8164  0.3562
 2602SOL     OW10478   3.436   1.025   4.881 -0.1300 -0.1154  0.1241
 2602SOL    HW210479   3.499   0.979   4.936  0.1663 -1.3969 -1.2627
 2602SOL    HW310480   3.484   1.047   4.802 -1.8881 -2.8511 -1.7914
 2602SOL    MW410481   3.451   1.021   4.878 -0.3228 -0.6454 -0.3114
 2603SOL     OW10482   3.409   1.342   4.520  0.1472  0.1305 -0.4015
 2603SOL    HW210483   3.320   1.349   4.555  0.4897  1.2195  0.2642
 2603SOL    HW310484   3.397   1.310   4.431 -0.8828 -0.2231 -0.1449
 2603SOL    MW410485   3.396   1.338   4.513  0.0565  0.2276 -0.2804
 2604SOL     OW10486   4.007   1.219   4.620  0.2644 -0.1152 -0.2158
 2604SOL    HW210487   4.020   1.125   4.614 -0.1516 -0.1438 -0.7223
 2604SOL    HW310488   4.096   1.255   4.619  0.4259 -0.5025  0.0377
 2604SOL    MW410489   4.020   1.212   4.619  0.2313 -0.1701 -0.2494
 2605SOL     OW10490   0.027   2.184   4.626  0.5038  0.1617 -0.3663
 2605SOL    HW210491  -0.053   2.144   4.661  0.9577  0.1308  0.6477
 2605SOL    HW310492   0.006   2.277   4.617 -0.0831 -0.0607 -1.3749
 2605SOL    MW410493   0.014   2.191   4.629  0.4862  0.1283 -0.3657
 2606SOL     OW10494   3.836   1.294   4.215 -0.1952 -0.0424  0.3809
 2606SOL    HW210495   3.854   1.375   4.166 -2.1162 -0.8014 -1.6422
 2606SOL    HW310496   3.792   1.324   4.295 -0.8132  0.9230 -0.3111
 2606SOL    MW410497   3.833   1.309   4.219 -0.5302 -0.0153  0.0229
 2607SOL     OW10498   4.054   1.700   4.247 -0.1273 -0.1063 -0.3390
 2607SOL    HW210499   4.123   1.643   4.214  0.3135  0.1512  0.1326
 2607SOL    HW310500   4.036   1.667   4.335 -0.7326 -0.2850 -0.5276
 2607SOL    MW410501   4.061   1.688   4.255 -0.1493 -0.0958 -0.3014
 2608SOL     OW10502   3.143   1.667   4.255  0.1947 -0.3277  0.4451
 2608SOL    HW210503   3.146   1.694   4.347  1.4351 -1.3777  0.7353
 2608SOL    HW310504   3.063   1.615   4.249 -1.3496  1.9898  0.2536
 2608SOL    MW410505   3.133   1.663   4.266  0.1545 -0.1605  0.4578
 2609SOL     OW10506   3.402   2.253   4.175 -0.1828  0.3006  0.1217
 2609SOL    HW210507   3.398   2.259   4.080  1.1227  0.1994  0.0551
 2609SOL    HW310508   3.315   2.281   4.205 -0.3190  1.1220 -1.0514
 2609SOL    MW410509   3.390   2.257   4.167 -0.0284  0.3955 -0.0415
 2610SOL     OW10510   3.854   1.565   4.117 -0.0840 -0.0524  0.0672
 2610SOL    HW210511   3.918   1.618   4.164 -0.7515  0.6890  0.1470
 2610SOL    HW310512   3.772   1.577   4.166 -0.3909 -0.6236 -0.2996
 2610SOL    MW410513   3.851   1.574   4.130 -0.2127 -0.0300  0.0286
 2611SOL     OW10514   4.010   2.373   4.333 -0.2724  0.1031 -0.0607
 2611SOL    HW210515   3.950   2.376   4.258 -0.0937 -2.2400 -0.3397
 2611SOL    HW310516   3.955   2.347   4.407  0.3486 -1.9963 -0.3036
 2611SOL    MW410517   3.995   2.370   4.333 -0.1669 -0.4833 -0.1297
 2612SOL     OW10518   3.461   2.033   4.329  0.0064  0.6348  0.0994
 2612SOL    HW210519   3.465   2.116   4.281 -0.3660  0.6633  0.1131
 2612SOL    HW310520   3.521   1.975   4.282 -1.1232  0.3504 -1.0210
 2612SOL    MW410521   3.470   2.036   4.317 -0.1917  0.6011 -0.0472
 2613SOL     OW10522   3.066   3.272   4.488  0.2087  0.1517  0.5975
 2613SOL    HW210523   3.072   3.234   4.400  0.8339  2.8459 -0.5483
 2613SOL    HW310524   3.157   3.291   4.512  0.2900 -2.5415  2.7865
 2613SOL    MW410525   3.079   3.269   4.480  0.3018  0.1519  0.7353
 2614SOL     OW10526   3.521   4.248   4.606 -0.1698  0.2249 -0.4046
 2614SOL    HW210527   3.525   4.156   4.580  0.8035  0.2584 -0.4008
 2614SOL    HW310528   3.598   4.287   4.565  0.4713  0.6309  1.1881
 2614SOL    MW410529   3.532   4.241   4.597  0.0432  0.2828 -0.1936
 2615SOL     OW10530   0.691   2.503   4.517 -0.4352 -0.0739 -0.4856
 2615SOL    HW210531   0.613   2.448   4.518 -0.5720  0.1304  0.3086
 2615SOL    HW310532   0.657   2.593   4.508 -0.1737 -0.1785 -2.6866
 2615SOL    MW410533   0.676   2.508   4.516 -0.4187 -0.0608 -0.6709
 2616SOL     OW10534   3.814   3.817   4.588 -0.2945 -0.8698  0.0418
 2616SOL    HW210535   3.794   3.723   4.589  0.0506 -0.9345  1.3243
 2616SOL    HW310536   3.728   3.859   4.587 -0.4530 -1.1903 -1.5783
 2616SOL    MW410537   3.800   3.810   4.588 -0.2699 -0.9208 -0.0024
 2617SOL     OW10538   3.774   2.538   4.672  0.2721  0.3558  0.4662
 2617SOL    HW210539   3.827   2.459   4.662  0.5255  0.4952  0.6965
 2617SOL    HW310540   3.694   2.519   4.624 -0.1443 -0.4760  1.4601
 2617SOL    MW410541   3.771   2.525   4.664  0.2506  0.2646  0.6275
 2618SOL     OW10542   0.750   3.676   4.780  0.7730  0.4906 -0.1945
 2618SOL    HW210543   0.654   3.670   4.778  0.7556  0.0137  1.6887
 2618SOL    HW310544   0.777   3.651   4.692 -0.7805 -0.2889 -0.4658
 2618SOL    MW410545   0.741   3.672   4.768  0.5659  0.3250  0.0181
 2619SOL     OW10546   2.179   1.614   4.519  0.3014  0.5106  0.3421
 2619SOL    HW210547   2.264   1.605   4.563  0.1891 -0.3434  0.4080
 2619SOL    HW310548   2.145   1.698   4.549  0.3903  0.1018  1.6091
 2619SOL    MW410549   2.186   1.624   4.529  0.2983  0.3440  0.5178
 2620SOL     OW10550   3.142   3.463   4.188  0.1324 -0.0613  0.0176
 2620SOL    HW210551   3.110   3.377   4.213  0.0515  0.0164  0.1814
 2620SOL    HW310552   3.152   3.458   4.092 -2.7686  0.6853 -0.3728
 2620SOL    MW410553   3.139   3.451   4.178 -0.2608  0.0472 -0.0124
 2621SOL     OW10554   0.331   0.063   4.671 -0.2207  0.4368  0.8973
 2621SOL    HW210555   0.306   0.141   4.720 -0.8095  0.8918 -0.1235
 2621SOL    HW310556   0.417   0.084   4.634 -1.3656  1.4626 -1.2286
 2621SOL    MW410557   0.339   0.076   4.673 -0.4494  0.6321  0.4821
 2622SOL     OW10558   2.909   4.132   4.632 -0.0587 -0.2455 -0.0136
 2622SOL    HW210559   2.904   4.123   4.727 -0.2727 -1.4212 -0.1365
 2622SOL    HW310560   2.896   4.226   4.617  2.5423  0.3750  1.2901
 2622SOL    MW410561   2.907   4.144   4.643  0.2565 -0.3190  0.1426
 2623SOL     OW10562   4.258   0.038   4.221 -0.9249 -0.2818 -0.1348
 2623SOL    HW210563   4.312   0.081   4.287 -2.1503 -0.4843  1.0207
 2623SOL    HW310564   4.270  -0.055   4.237 -1.0112 -0.3347 -0.3724
 2623SOL    MW410565   4.266   0.032   4.232 -1.0982 -0.3157 -0.0138
 2624SOL     OW10566   4.040   0.356   4.170  0.4163 -0.3557  0.1275
 2624SOL    HW210567   4.021   0.271   4.210  0.6379 -0.5002 -0.0809
 2624SOL    HW310568   4.111   0.392   4.223  0.6867 -0.5326 -0.1117
 2624SOL    MW410569   4.046   0.350   4.182  0.4811 -0.3980  0.0682
 2625SOL     OW10570   3.410   1.275   4.241 -0.2915  0.0816  0.0111
 2625SOL    HW210571   3.489   1.246   4.195 -0.0056  0.4368  0.2761
 2625SOL    HW310572   3.383   1.354   4.194 -2.0102 -1.4838 -1.7521
 2625SOL    MW410573   3.417   1.282   4.229 -0.4807 -0.0781 -0.1864
 2626SOL     OW10574   4.279   0.742   4.199  0.2690  0.3829 -0.1886
 2626SOL    HW210575   4.279   0.750   4.103  1.3391  0.2129 -0.2071
 2626SOL    HW310576   4.341   0.808   4.228 -0.2239  0.5852  0.4114
 2626SOL    MW410577   4.287   0.752   4.190  0.3448  0.3872 -0.1116
 2627SOL     OW10578   3.833   0.756   4.155 -0.0750 -0.1348  0.0290
 2627SOL    HW210579   3.759   0.813   4.173  0.5030  0.4309  0.6261
 2627SOL    HW310580   3.845   0.761   4.061  0.3630  1.2171  0.1498
 2627SOL    MW410581   3.825   0.764   4.145  0.0594  0.1183  0.1240
 2628SOL     OW10582   1.902   4.545   4.699 -0.5419 -0.3193  0.0999
 2628SOL    HW210583   1.814   4.548   4.660 -1.1437 -0.8166  1.3718
 2628SOL    HW310584   1.930   4.636   4.703 -0.8836 -0.1824 -0.5733
 2628SOL    MW410585   1.894   4.557   4.694 -0.6663 -0.3667  0.1788
 2629SOL     OW10586   4.061   1.113   4.131  0.4521  0.0007 -0.1753
 2629SOL    HW210587   4.070   1.041   4.193  0.6388 -0.8848 -1.1966
 2629SOL    HW310588   3.988   1.164   4.163 -0.1396 -1.0592  0.1796
 2629SOL    MW410589   4.053   1.110   4.143  0.3991 -0.2559 -0.2637
 2630SOL     OW10590   1.003   3.042   4.754  0.2056 -0.2600  0.0775
 2630SOL    HW210591   0.931   3.007   4.701 -1.1429  1.0082  1.0334
 2630SOL    HW310592   1.015   2.978   4.824 -0.6371 -0.0168  0.4516
 2630SOL    MW410593   0.995   3.029   4.756 -0.0835 -0.0608  0.2532
 2631SOL     OW10594   4.022   2.683   4.671  0.1244  0.1499  0.3986
 2631SOL    HW210595   3.935   2.660   4.703 -0.0441 -0.5429 -0.5389
 2631SOL    HW310596   4.079   2.612   4.701 -0.5179 -1.9751 -3.0652
 2631SOL    MW410597   4.018   2.671   4.679  0.0176 -0.2217 -0.1822
 2632SOL     OW10598   3.610   0.893   4.468  0.2023 -0.1950 -0.5488
 2632SOL    HW210599   3.639   0.919   4.381  0.9822  1.2534  0.1385
 2632SOL    HW310600   3.607   0.974   4.518 -0.3282 -1.0023  0.7547
 2632SOL    MW410601   3.613   0.907   4.463  0.2353 -0.1104 -0.2866
 2633SOL     OW10602   2.461   1.341   4.559  0.4732 -0.2856  0.0557
 2633SOL    HW210603   2.395   1.275   4.580 -0.4799 -0.1872 -2.4382
 2633SOL    HW310604   2.429   1.421   4.600 -0.3244 -0.5323 -0.0686
 2633SOL    MW410605   2.448   1.343   4.567  0.2420 -0.3052 -0.2894
 2634SOL     OW10606   0.002   1.910   4.210  0.3241 -0.2559  0.2268
 2634SOL    HW210607  -0.057   1.957   4.269  0.1817  0.3219 -0.3741
 2634SOL    HW310608   0.084   1.961   4.212  0.3189 -0.2369 -0.0762
 2634SOL    MW410609   0.005   1.923   4.218  0.3046 -0.1773  0.1078
 2635SOL     OW10610   2.428   2.024   4.458 -0.7526  0.1151 -0.0496
 2635SOL    HW210611   2.349   2.074   4.479 -0.3906 -0.0550  1.7948
 2635SOL    HW310612   2.404   1.974   4.380 -1.7562  1.6716 -0.7637
 2635SOL    MW410613   2.414   2.024   4.451 -0.8371  0.2980  0.0997
 2636SOL     OW10614   0.963   2.215   4.653  0.3099  0.0218  0.2738
 2636SOL    HW210615   0.991   2.153   4.720 -1.3265 -1.1794 -0.1330
 2636SOL    HW310616   0.887   2.174   4.612 -0.3868  1.9926 -0.4641
 2636SOL    MW410617   0.957   2.202   4.656  0.0020  0.1233  0.1225
 2637SOL     OW10618   4.416   2.975   4.680  0.0080 -0.2485  0.1144
 2637SOL    HW210619   4.401   2.883   4.657 -0.1655 -0.6468  1.7360
 2637SOL    HW310620   4.333   3.018   4.662 -0.1966 -0.6015  0.1982
 2637SOL    MW410621   4.403   2.968   4.675 -0.0420 -0.3476  0.3395
 2638SOL     OW10622   0.002   2.930   4.277 -0.3554 -0.1723 -0.0753
 2638SOL    HW210623  -0.081   2.945   4.230 -0.8143  2.0290  1.3475
 2638SOL    HW310624   0.065   2.984   4.230 -0.2664  0.0384  0.2845
 2638SOL    MW410625  -0.001   2.939   4.265 -0.4041  0.1459  0.1602
 2639SOL     OW10626   3.301   3.080   4.121  0.2421  0.0869 -0.6890
 2639SOL    HW210627   3.386   3.102   4.160  0.6613 -1.5081 -0.6657
 2639SOL    HW310628   3.318   3.073   4.028  0.0313  0.2328 -0.7387
 2639SOL    MW410629   3.314   3.082   4.114  0.2694 -0.1042 -0.6928
 2640SOL     OW10630   3.924   3.246   4.311 -0.4478 -0.0095 -0.2694
 2640SOL    HW210631   3.889   3.184   4.247  0.1800  0.9309 -1.5646
 2640SOL    HW310632   3.965   3.314   4.257  0.5294  0.5466  1.1488
 2640SOL    MW410633   3.925   3.247   4.295 -0.2360  0.1879 -0.2532
 2641SOL     OW10634   3.581   0.036   4.336 -0.3871  0.0854 -0.0887
 2641SOL    HW210635   3.580   0.130   4.320  4.1027  0.2284 -0.0895
 2641SOL    HW310636   3.568   0.027   4.430 -0.6871  0.6835 -0.0731
 2641SOL    MW410637   3.579   0.047   4.346  0.1655  0.1832 -0.0873
 2642SOL     OW10638   3.386   3.575   4.212  0.0247  0.1095 -0.0322
 2642SOL    HW210639   3.302   3.530   4.214 -0.2338  0.6136  1.5431
 2642SOL    HW310640   3.371   3.652   4.158 -0.2834 -0.2577 -0.4730
 2642SOL    MW410641   3.373   3.579   4.205 -0.0501  0.1276  0.1173
 2643SOL     OW10642   4.221   2.945   4.175  0.2312 -0.1404  0.4593
 2643SOL    HW210643   4.188   2.977   4.258 -0.7448  0.1668 -0.0359
 2643SOL    HW310644   4.175   2.862   4.161 -0.8052  0.5805 -0.5221
 2643SOL    MW410645   4.210   2.938   4.184 -0.0348 -0.0045  0.2646
 2644SOL     OW10646   3.614   4.656   4.647  0.0245  0.4842  0.4135
 2644SOL    HW210647   3.556   4.732   4.646 -0.4930  0.0992  0.9965
 2644SOL    HW310648   3.690   4.685   4.698 -0.1346  0.6380  0.5643
 2644SOL    MW410649   3.616   4.670   4.654 -0.0646  0.4539  0.5102
 2645SOL     OW10650   3.787   3.870   4.166  0.7381  0.4883 -0.4731
 2645SOL    HW210651   3.789   3.778   4.194 -0.2306  0.2385 -1.2028
 2645SOL    HW310652   3.872   3.905   4.193  0.7426 -0.3733  0.6487
 2645SOL    MW410653   3.798   3.862   4.173  0.6108  0.3417 -0.4215
 2646SOL     OW10654   3.928   2.320   4.601 -0.1404 -0.4564  0.1185
 2646SOL    HW210655   4.021   2.309   4.581 -0.3138  0.0403 -1.0170
 2646SOL    HW310656   3.891   2.232   4.595  0.3402 -0.7307  1.0603
 2646SOL    MW410657   3.935   2.307   4.597 -0.0999 -0.4272  0.0930
 2647SOL     OW10658   2.262   4.565   4.668 -0.2099  0.0043 -0.1575
 2647SOL    HW210659   2.226   4.481   4.641 -0.8584 -0.0026  0.7117
 2647SOL    HW310660   2.236   4.574   4.759  1.5400  0.2462  0.3315
 2647SOL    MW410661   2.254   4.555   4.676 -0.0641  0.0353  0.0219
 2648SOL     OW10662   4.350   3.573   4.496  0.1478 -0.0285 -0.2863
 2648SOL    HW210663   4.350   3.480   4.520 -0.5451 -0.4198 -1.7423
 2648SOL    HW310664   4.442   3.598   4.495  0.3364 -0.6968  0.1200
 2648SOL    MW410665   4.362   3.564   4.499  0.0811 -0.1686 -0.4244
 2649SOL     OW10666   3.586   0.318   4.245 -0.2698 -0.0224 -0.2136
 2649SOL    HW210667   3.664   0.369   4.264  0.4010 -0.7398 -1.0197
 2649SOL    HW310668   3.584   0.311   4.149 -0.3474 -1.5209 -0.1146
 2649SOL    MW410669   3.596   0.324   4.235 -0.1919 -0.3148 -0.3066
 2650SOL     OW10670   3.813   4.587   4.226 -0.2259  0.1480  0.2313
 2650SOL    HW210671   3.726   4.617   4.251 -0.0453  1.5901 -0.7588
 2650SOL    HW310672   3.811   4.585   4.130  0.5196 -0.7676  0.2290
 2650SOL    MW410673   3.801   4.591   4.216 -0.1037  0.2174  0.1006
 2651SOL     OW10674   4.004   4.185   4.655  0.5577 -0.0654  0.0563
 2651SOL    HW210675   4.038   4.275   4.658 -0.4492  0.3076  0.6301
 2651SOL    HW310676   3.912   4.194   4.680  0.4513 -1.2603  0.1021
 2651SOL    MW410677   3.997   4.198   4.659  0.4113 -0.1740  0.1378
 2652SOL     OW10678   0.009   0.383   4.221 -0.1123 -0.7162 -0.3270
 2652SOL    HW210679  -0.048   0.450   4.257 -0.1896 -0.8605 -0.1838
 2652SOL    HW310680  -0.020   0.373   4.130 -1.1627 -1.7157  0.1103
 2652SOL    MW410681  -0.002   0.390   4.214 -0.2613 -0.8671 -0.2503
 2653SOL     OW10682   0.264   4.631   4.211 -0.3761  0.0779  0.9068
 2653SOL    HW210683   0.333   4.686   4.248 -0.8540 -0.0144  1.9648
 2653SOL    HW310684   0.293   4.541   4.227 -0.4203  0.0351  0.7491
 2653SOL    MW410685   0.277   4.626   4.218 -0.4450  0.0596  1.0252
 2654SOL     OW10686   1.804   4.032   4.564  0.2036 -0.3675 -0.1391
 2654SOL    HW210687   1.718   4.069   4.583  0.0583 -0.9246  0.3192
 2654SOL    HW310688   1.802   4.009   4.472 -0.4280 -1.1427  0.0695
 2654SOL    MW410689   1.793   4.034   4.555  0.1011 -0.5436 -0.0510
 2655SOL     OW10690   1.265   2.377   4.118  0.3762  0.1971 -0.2097
 2655SOL    HW210691   1.357   2.351   4.117  0.0619 -1.0216  0.9055
 2655SOL    HW310692   1.267   2.472   4.108  1.7512  0.1651 -0.3381
 2655SOL    MW410693   1.278   2.386   4.117  0.5162  0.0319 -0.0796
 2656SOL     OW10694   0.506   1.642   4.262  0.6903 -0.1264  0.0889
 2656SOL    HW210695   0.426   1.601   4.228  1.6668 -0.7365 -1.5562
 2656SOL    HW310696   0.493   1.736   4.250 -0.2123 -0.1484  0.8342
 2656SOL    MW410697   0.494   1.649   4.256  0.7000 -0.2098 -0.0300
 2657SOL     OW10698   1.716   0.709   4.628 -0.2547 -0.3769 -0.9150
 2657SOL    HW210699   1.761   0.778   4.579  0.8896 -1.2181 -1.0661
 2657SOL    HW310700   1.786   0.650   4.656 -1.1940 -1.3338 -0.5493
 2657SOL    MW410701   1.731   0.710   4.625 -0.2278 -0.6141 -0.8869
 2658SOL     OW10702   3.843   0.780   4.636  0.1446  0.2336  0.1980
 2658SOL    HW210703   3.768   0.811   4.587  0.7908 -0.0869 -1.0065
 2658SOL    HW310704   3.844   0.685   4.622  0.3556  0.1379  0.8055
 2658SOL    MW410705   3.833   0.771   4.628  0.2575  0.1787  0.1197
 2659SOL     OW10706   4.239   0.235   4.606 -0.3709  0.4037 -0.7872
 2659SOL    HW210707   4.214   0.327   4.599 -0.0311  0.5203 -0.4991
 2659SOL    HW310708   4.319   0.228   4.553 -0.3817  0.2829 -0.7853
 2659SOL    MW410709   4.246   0.246   4.598 -0.3276  0.4032 -0.7491
 2660SOL     OW10710   1.429   3.459   4.600 -0.1638 -0.0300 -0.2082
 2660SOL    HW210711   1.368   3.407   4.548  0.3222 -0.1627 -0.6423
 2660SOL    HW310712   1.506   3.404   4.611  0.4261  0.6470 -0.8225
 2660SOL    MW410713   1.431   3.445   4.594 -0.0218  0.0420 -0.3462
 2661SOL     OW10714   0.929   1.717   4.514  0.3780  0.0385  0.3075
 2661SOL    HW210715   0.940   1.707   4.419  1.1191 -0.8132  0.4741
 2661SOL    HW310716   1.001   1.773   4.541  0.9916 -0.8653  0.5658
 2661SOL    MW410717   0.940   1.723   4.505  0.5566 -0.1932  0.3629
 2662SOL     OW10718   0.513   4.345   4.742 -0.2984  0.0981  0.1401
 2662SOL    HW210719   0.425   4.382   4.745 -1.4715 -2.4396 -1.1468
 2662SOL    HW310720   0.545   4.351   4.832 -2.0025  0.5581  0.7363
 2662SOL    MW410721   0.506   4.350   4.754 -0.6781 -0.1760  0.0486
 2663SOL     OW10722   1.357   1.655   4.533 -0.3244 -0.3313  0.0309
 2663SOL    HW210723   1.297   1.725   4.560  0.9332  0.4921  0.7070
 2663SOL    HW310724   1.444   1.694   4.538  0.2105 -1.2234 -1.8930
 2663SOL    MW410725   1.360   1.669   4.537 -0.0879 -0.3403 -0.1340
 2664SOL     OW10726   2.243   2.168   4.819  0.1361  0.3679  0.2875
 2664SOL    HW210727   2.172   2.220   4.855  0.4839 -0.0694  1.6594
 2664SOL    HW310728   2.321   2.222   4.832  0.0491  0.9035 -1.3350
 2664SOL    MW410729   2.244   2.182   4.826  0.1702  0.3808  0.2542
 2665SOL     OW10730   0.052   1.900   4.707 -0.2474  0.3220  0.1676
 2665SOL    HW210731   0.081   1.863   4.623  0.2597 -0.1771  0.5615
 2665SOL    HW310732   0.096   1.984   4.712 -0.2013  0.3105 -0.0234
 2665SOL    MW410733   0.062   1.906   4.697 -0.1744  0.2545  0.1950
 2666SOL     OW10734   0.281   1.507   4.599 -0.3097 -0.1291  0.2621
 2666SOL    HW210735   0.260   1.415   4.583 -0.4176  0.0604 -0.6737
 2666SOL    HW310736   0.372   1.516   4.570 -0.7102  0.3605 -0.8603
 2666SOL    MW410737   0.290   1.496   4.593 -0.3768 -0.0396 -0.0091
 2667SOL     OW10738   0.428   3.973   4.228  0.0738  0.3848  0.2954
 2667SOL    HW210739   0.391   3.986   4.315 -0.4699  1.0960 -0.0433
 2667SOL    HW310740   0.357   3.935   4.177  0.5910 -0.6642  0.3351
 2667SOL    MW410741   0.414   3.969   4.233  0.0703  0.3402  0.2561
 2668SOL     OW10742   0.783   1.077   4.809 -0.3617 -0.0089 -0.1797
 2668SOL    HW210743   0.854   1.135   4.834  1.1205 -1.0130 -1.8911
 2668SOL    HW310744   0.707   1.134   4.799  0.8487  1.5010 -0.9668
 2668SOL    MW410745   0.782   1.092   4.811 -0.0064  0.0579 -0.5097
 2669SOL     OW10746   1.604   4.626   4.606  0.3554  0.5252  0.0721
 2669SOL    HW210747   1.554   4.550   4.575 -0.3659  1.4035 -0.9054
 2669SOL    HW310748   1.545   4.670   4.667  1.1480 -0.2482  1.4328
 2669SOL    MW410749   1.590   4.622   4.610  0.3648  0.5388  0.1230
 2670SOL     OW10750   2.410   3.485   4.488 -0.0238 -0.2438  0.0084
 2670SOL    HW210751   2.492   3.477   4.536  0.0810  0.5904 -0.0267
 2670SOL    HW310752   2.360   3.407   4.512  0.2879 -0.1489  0.9722
 2670SOL    MW410753   2.414   3.474   4.497  0.0312 -0.1211  0.1316
 2671SOL     OW10754   3.761   4.403   4.578  0.5093  0.6729  0.4307
 2671SOL    HW210755   3.730   4.492   4.597  0.7990  0.7607  0.4960
 2671SOL    HW310756   3.855   4.406   4.597  0.3147  0.0589  1.4842
 2671SOL    MW410757   3.769   4.415   4.583  0.5219  0.6037  0.5779
 2672SOL     OW10758   1.403   4.468   4.274  0.3093 -0.0567  0.2473
 2672SOL    HW210759   1.311   4.447   4.263  0.6791 -0.4936 -2.3477
 2672SOL    HW310760   1.448   4.383   4.266  0.9196  0.1083  1.7624
 2672SOL    MW410761   1.397   4.454   4.271  0.4386 -0.0930  0.1044
 2673SOL     OW10762   2.251   0.151   4.525  0.0041 -0.2378 -1.1083
 2673SOL    HW210763   2.263   0.126   4.433  0.6200 -1.7487 -0.6228
 2673SOL    HW310764   2.252   0.069   4.573 -0.3231  0.5449  0.2670
 2673SOL    MW410765   2.252   0.137   4.519  0.0422 -0.3338 -0.8631
 2674SOL     OW10766   3.531   3.169   4.247 -0.3482 -0.2273 -0.6622
 2674SOL    HW210767   3.555   3.253   4.209  1.6523 -0.3564  0.2813
 2674SOL    HW310768   3.605   3.112   4.229 -1.6033 -1.7564 -1.1148
 2674SOL    MW410769   3.544   3.173   4.240 -0.2501 -0.4458 -0.5970
 2675SOL     OW10770   1.003   0.216   4.514 -0.0082 -0.0596 -0.0173
 2675SOL    HW210771   0.973   0.187   4.428  0.6069  2.1746 -1.0061
 2675SOL    HW310772   1.090   0.177   4.523  0.2185  0.2869 -0.7037
 2675SOL    MW410773   1.010   0.207   4.504  0.1029  0.2809 -0.2379
 2676SOL     OW10774   0.695   0.746   4.201 -0.1364 -0.3000  0.0357
 2676SOL    HW210775   0.694   0.765   4.108  0.8839 -0.9002 -0.1061
 2676SOL    HW310776   0.623   0.797   4.237 -0.7513 -0.3305 -1.1310
 2676SOL    MW410777   0.685   0.755   4.194 -0.0830 -0.3832 -0.1369
 2677SOL     OW10778   3.844   2.049   4.298 -0.8798  0.0267 -0.2926
 2677SOL    HW210779   3.822   2.130   4.252 -0.8896  0.1130 -0.1344
 2677SOL    HW310780   3.794   1.982   4.252 -0.5836  0.0530 -0.6654
 2677SOL    MW410781   3.835   2.051   4.286 -0.8421  0.0415 -0.3204
 2678SOL     OW10782   3.433   0.206   4.568  0.0762 -0.2876 -0.2591
 2678SOL    HW210783   3.341   0.182   4.561  0.1437 -0.9020  0.8434
 2678SOL    HW310784   3.437   0.296   4.537 -1.0304  0.0021  0.4131
 2678SOL    MW410785   3.421   0.214   4.563 -0.0606 -0.3305 -0.0248
 2679SOL     OW10786   0.828   0.862   4.656 -0.0612  0.1577  0.0371
 2679SOL    HW210787   0.908   0.879   4.608 -0.7230  0.2089 -1.0526
 2679SOL    HW310788   0.819   0.936   4.716  0.2324  0.5929 -0.4571
 2679SOL    MW410789   0.837   0.874   4.658 -0.1098  0.2218 -0.1717
 2680SOL     OW10790   0.190   3.316   4.231  0.3566 -0.6179 -0.7603
 2680SOL    HW210791   0.264   3.363   4.194 -0.2840  1.3367  0.3421
 2680SOL    HW310792   0.203   3.322   4.326 -1.6875  0.6333 -0.5134
 2680SOL    MW410793   0.201   3.323   4.239  0.0024 -0.1948 -0.5822
 2681SOL     OW10794   0.135   1.459   4.835 -0.1420 -0.0340  0.1949
 2681SOL    HW210795   0.188   1.492   4.762 -1.7137 -0.3672 -1.1415
 2681SOL    HW310796   0.146   1.364   4.831  1.0647  0.0427  1.4310
 2681SOL    MW410797   0.144   1.451   4.825 -0.1901 -0.0679  0.1817
 2682SOL     OW10798   1.308   2.644   4.122  0.1147 -0.3088  0.0566
 2682SOL    HW210799   1.364   2.647   4.200 -1.0753 -1.6239  0.9891
 2682SOL    HW310800   1.233   2.699   4.145 -1.0841 -2.1249  0.5350
 2682SOL    MW410801   1.306   2.652   4.135 -0.2004 -0.7219  0.2422
 2683SOL     OW10802   3.045   1.153   4.382  0.2250 -0.1194 -0.1311
 2683SOL    HW210803   2.995   1.072   4.377 -0.8951  0.5821 -0.6050
 2683SOL    HW310804   3.119   1.139   4.322  0.2910 -0.9444  0.1329
 2683SOL    MW410805   3.049   1.141   4.373  0.0858 -0.1357 -0.1588
 2684SOL     OW10806   3.129   3.972   4.206  0.0554  0.4361 -0.0394
 2684SOL    HW210807   3.039   3.942   4.198  0.3646 -0.4215 -0.3563
 2684SOL    HW310808   3.137   4.002   4.296 -0.5940  0.6952 -0.0646
 2684SOL    MW410809   3.118   3.972   4.217  0.0105  0.3572 -0.0849
 2685SOL     OW10810   1.588   2.428   4.514  0.0637  0.0091 -0.1372
 2685SOL    HW210811   1.615   2.492   4.580 -0.3389 -1.5324  1.5571
 2685SOL    HW310812   1.664   2.371   4.503 -0.2672 -0.4335 -0.1477
 2685SOL    MW410813   1.601   2.429   4.522 -0.0330 -0.2530  0.0844
 2686SOL     OW10814   0.180   3.643   4.179 -0.4642 -0.6228  0.4494
 2686SOL    HW210815   0.104   3.594   4.148 -0.9314  1.9085 -2.6686
 2686SOL    HW310816   0.255   3.593   4.147 -0.7011 -3.0642  3.4380
 2686SOL    MW410817   0.180   3.630   4.171 -0.5571 -0.6108  0.4325
 2687SOL     OW10818   0.268   0.499   4.284  0.5466 -0.4375  0.0113
 2687SOL    HW210819   0.288   0.498   4.378 -0.8789  0.2358  0.3399
 2687SOL    HW310820   0.194   0.440   4.274  1.1445 -1.0643 -0.8153
 2687SOL    MW410821   0.261   0.491   4.295  0.4374 -0.4314 -0.0544
 2688SOL     OW10822   3.584   2.893   4.584  0.3173 -0.2196 -0.2685
 2688SOL    HW210823   3.516   2.828   4.568  1.0436 -0.4851 -2.4533
 2688SOL    HW310824   3.543   2.977   4.567  0.0895 -0.2799 -0.0083
 2688SOL    MW410825   3.570   2.895   4.580  0.3831 -0.2627 -0.5221
 2689SOL     OW10826   3.546   2.474   4.505  0.1271 -0.3940  0.3759
 2689SOL    HW210827   3.488   2.403   4.532  1.1657 -0.9090  1.2973
 2689SOL    HW310828   3.491   2.552   4.505 -1.1294 -1.2565 -1.0289
 2689SOL    MW410829   3.531   2.475   4.509  0.0982 -0.5758  0.3123
 2690SOL     OW10830   0.512   4.216   4.112  0.2386 -0.0097 -0.1295
 2690SOL    HW210831   0.488   4.132   4.151  0.7585 -0.3552 -0.5438
 2690SOL    HW310832   0.466   4.217   4.028  1.1707 -0.4037 -0.6508
 2690SOL    MW410833   0.503   4.205   4.106  0.4302 -0.1073 -0.2532
 2691SOL     OW10834   1.458   4.414   4.537  0.2346  0.0654  0.6555
 2691SOL    HW210835   1.378   4.431   4.588  0.6651 -0.5348  1.5404
 2691SOL    HW310836   1.435   4.442   4.448 -0.4359  1.3750  1.2130
 2691SOL    MW410837   1.444   4.420   4.532  0.2029  0.1588  0.8454
 2692SOL     OW10838   3.554   3.965   4.262  0.1965  0.8068 -0.4040
 2692SOL    HW210839   3.493   3.909   4.215 -0.0689  1.3228 -0.6825
 2692SOL    HW310840   3.640   3.927   4.244 -0.1136 -0.4472  0.7234
 2692SOL    MW410841   3.557   3.953   4.253  0.1204  0.7095 -0.2923
 2693SOL     OW10842   0.221   3.060   4.152 -0.4829  0.4488 -0.0517
 2693SOL    HW210843   0.211   3.154   4.165  1.6449  0.7074 -0.1604
 2693SOL    HW310844   0.235   3.050   4.058  0.4701  0.1542  0.1140
 2693SOL    MW410845   0.221   3.071   4.141 -0.0765  0.4442 -0.0453
 2694SOL     OW10846   0.136   3.611   4.446 -0.0091 -0.0496  0.0297
 2694SOL    HW210847   0.155   3.620   4.353 -0.8516 -2.2007 -0.3767
 2694SOL    HW310848   0.174   3.526   4.470 -0.3417  0.2013  1.5128
 2694SOL    MW410849   0.144   3.601   4.437 -0.1642 -0.3002  0.1721
 2695SOL     OW10850   1.064   0.491   4.494 -0.1073 -0.2363  0.3014
 2695SOL    HW210851   1.037   0.399   4.502 -0.1544 -0.3704 -1.2556
 2695SOL    HW310852   1.011   0.538   4.558 -0.3811 -1.2288  0.8148
 2695SOL    MW410853   1.054   0.485   4.504 -0.1496 -0.3850  0.1636
 2696SOL     OW10854   3.123   0.115   4.252  0.2149  0.0653 -0.5589
 2696SOL    HW210855   3.132   0.207   4.225  0.4924  0.3673  0.5207
 2696SOL    HW310856   3.199   0.072   4.213 -0.1303  0.2207 -1.3983
 2696SOL    MW410857   3.134   0.122   4.244  0.2060  0.1256 -0.5274
 2697SOL     OW10858   1.114   4.652   4.188 -0.0648  0.0332  0.9330
 2697SOL    HW210859   1.119   4.682   4.097  3.0338  0.7810  1.2957
 2697SOL    HW310860   1.035   4.692   4.223 -1.8340 -1.0389 -1.6794
 2697SOL    MW410861   1.104   4.661   4.181  0.1105 -0.0095  0.6356
 2698SOL     OW10862   4.049   0.056   4.555  0.0298 -0.6235  0.1060
 2698SOL    HW210863   4.034   0.081   4.464 -0.5978 -0.9918  0.1052
 2698SOL    HW310864   4.119   0.114   4.585  1.2021 -1.4218 -1.0153
 2698SOL    MW410865   4.056   0.067   4.547  0.1020 -0.7774 -0.0424
 2699SOL     OW10866   2.466   1.262   4.261  0.0902 -0.4928 -0.3705
 2699SOL    HW210867   2.544   1.210   4.240  0.2833  0.2470 -1.4778
 2699SOL    HW310868   2.478   1.286   4.353  0.7640 -1.0859 -0.3008
 2699SOL    MW410869   2.478   1.258   4.271  0.2046 -0.4735 -0.5069
 2700SOL     OW10870   1.216   4.452   4.657 -0.1126  0.3179 -0.0163
 2700SOL    HW210871   1.189   4.534   4.618  0.8164  0.6705  0.0748
 2700SOL    HW310872   1.151   4.388   4.628 -0.2722  0.8816 -0.8943
 2700SOL    MW410873   1.204   4.454   4.648 -0.0112  0.4387 -0.1202
 2701SOL     OW10874   0.667   1.817   4.616  0.2811 -0.0611 -0.0467
 2701SOL    HW210875   0.756   1.782   4.626  0.2508  0.0697  0.7090
 2701SOL    HW310876   0.679   1.911   4.607  0.2309 -0.0610 -0.1106
 2701SOL    MW410877   0.681   1.825   4.616  0.2705 -0.0437  0.0443
 2702SOL     OW10878   0.281   1.234   4.550  0.3745 -0.1489  0.2186
 2702SOL    HW210879   0.200   1.194   4.580 -0.1582  0.2272 -0.6855
 2702SOL    HW310880   0.270   1.243   4.455  1.0627  0.8208  0.2161
 2702SOL    MW410881   0.269   1.230   4.541  0.3950  0.0287  0.0987
 2703SOL     OW10882   1.355   1.986   4.167  0.0511 -0.3062  0.1487
 2703SOL    HW210883   1.281   2.007   4.224 -0.4740 -0.2450 -0.5424
 2703SOL    HW310884   1.432   2.022   4.211 -0.2717 -0.7763  1.0979
 2703SOL    MW410885   1.356   1.994   4.180 -0.0607 -0.3601  0.1826
 2704SOL     OW10886   0.950   1.139   4.148 -0.1826 -0.5574  0.3137
 2704SOL    HW210887   0.964   1.049   4.177 -1.2508 -1.5772 -2.2531
 2704SOL    HW310888   0.866   1.164   4.186  0.0350 -0.6807  0.8868
 2704SOL    MW410889   0.941   1.131   4.157 -0.2948 -0.7081  0.0505
 2705SOL     OW10890   2.450   1.507   4.152  0.3237  0.2467  0.1370
 2705SOL    HW210891   2.438   1.498   4.058  0.4935 -1.4400  0.2517
 2705SOL    HW310892   2.449   1.417   4.185  0.4607  0.8013  1.7225
 2705SOL    MW410893   2.448   1.494   4.144  0.3641  0.0973  0.3610
 2706SOL     OW10894   2.456   3.555   4.223  0.1356  0.2509 -0.2078
 2706SOL    HW210895   2.449   3.554   4.318 -0.8029 -0.5236 -0.2842
 2706SOL    HW310896   2.465   3.648   4.201  1.2342  0.3673  0.6900
 2706SOL    MW410897   2.457   3.568   4.233  0.1566  0.1643 -0.0997
 2707SOL     OW10898   1.146   3.649   4.191 -0.3554  0.1596 -0.3286
 2707SOL    HW210899   1.068   3.597   4.171 -0.4201  0.2886 -0.4043
 2707SOL    HW310900   1.217   3.603   4.145 -0.5322  0.5587 -1.0017
 2707SOL    MW410901   1.145   3.636   4.182 -0.3874  0.2294 -0.4272
 2708SOL     OW10902   2.327   0.623   4.605 -0.7129  0.3781  0.3549
 2708SOL    HW210903   2.374   0.700   4.638 -1.2647  0.6720  0.4718
 2708SOL    HW310904   2.391   0.552   4.608  0.2098  1.1112 -0.9624
 2708SOL    MW410905   2.342   0.624   4.609 -0.6635  0.5136  0.1965
 2709SOL     OW10906   3.292   3.862   4.555  0.4235  0.2739  0.1505
 2709SOL    HW210907   3.256   3.948   4.534 -2.0133 -0.6221  0.5339
 2709SOL    HW310908   3.216   3.806   4.567  1.9647 -1.7939  0.5974
 2709SOL    MW410909   3.277   3.866   4.554  0.3054 -0.1171  0.2599
 2710SOL     OW10910   1.139   3.918   4.139 -0.4421  0.0716 -0.2719
 2710SOL    HW210911   1.207   3.966   4.186 -1.1769 -0.2123  1.0845
 2710SOL    HW310912   1.146   3.828   4.171  0.2808 -0.5608 -2.0850
 2710SOL    MW410913   1.149   3.912   4.149 -0.4437 -0.0491 -0.3319
 2711SOL     OW10914   2.729   4.629   4.521 -0.0280 -0.3836 -0.0988
 2711SOL    HW210915   2.641   4.593   4.519  0.4485 -1.5724 -0.2214
 2711SOL    HW310916   2.784   4.557   4.554  1.1405 -0.2017 -1.5707
 2711SOL    MW410917   2.725   4.614   4.525  0.1891 -0.5164 -0.3095
 2712SOL     OW10918   0.846   0.584   4.694 -0.3482  0.1288  0.5928
 2712SOL    HW210919   0.878   0.571   4.783  0.8692  0.7145  0.2577
 2712SOL    HW310920   0.829   0.679   4.688  0.8455  0.3019 -0.1997
 2712SOL    MW410921   0.848   0.595   4.705 -0.0301  0.2290  0.4439
 2713SOL     OW10922   0.327   4.363   4.272  0.0922  0.1777  0.0502
 2713SOL    HW210923   0.250   4.322   4.232 -1.0189  2.5065 -0.3199
 2713SOL    HW310924   0.401   4.311   4.241 -1.0960 -0.4321 -1.8536
 2713SOL    MW410925   0.327   4.351   4.263 -0.2111  0.4053 -0.2499
 2714SOL     OW10926   1.650   2.844   4.323 -0.6384 -0.0146  0.1404
 2714SOL    HW210927   1.685   2.864   4.410  1.2025 -1.0583 -0.3317
 2714SOL    HW310928   1.590   2.771   4.337 -1.1231  0.4863  0.6846
 2714SOL    MW410929   1.647   2.837   4.336 -0.4596 -0.0865  0.1502
 2715SOL     OW10930   4.298   4.416   4.273 -0.2360  0.4458 -0.3318
 2715SOL    HW210931   4.368   4.360   4.240 -1.3523 -0.7025 -0.8036
 2715SOL    HW310932   4.285   4.389   4.364  0.5118  1.2509  0.0177
 2715SOL    MW410933   4.305   4.405   4.280 -0.2842  0.4005 -0.3481
 2716SOL     OW10934   0.533   1.186   4.706  0.2115  0.3188  0.0676
 2716SOL    HW210935   0.443   1.200   4.675 -0.1431  1.4350  1.5580
 2716SOL    HW310936   0.587   1.232   4.642 -0.2162 -0.8075 -1.1388
 2716SOL    MW410937   0.528   1.194   4.693  0.1084  0.3175  0.1059
 2717SOL     OW10938   2.246   4.098   4.401  0.2629  0.1487  0.4013
 2717SOL    HW210939   2.252   4.003   4.404 -2.4310 -0.0707 -0.0576
 2717SOL    HW310940   2.164   4.118   4.447 -0.4603  2.0487 -1.6356
 2717SOL    MW410941   2.236   4.088   4.408 -0.1881  0.3705  0.0720
 2718SOL     OW10942   0.556   0.187   4.572 -0.1055  0.0777  0.0133
 2718SOL    HW210943   0.638   0.145   4.597  0.7884  1.4110 -0.6382
 2718SOL    HW310944   0.569   0.280   4.593 -0.9012  0.5336 -1.4317
 2718SOL    MW410945   0.569   0.194   4.578 -0.0926  0.3138 -0.2632
 2719SOL     OW10946   1.784   0.071   4.209  0.1591 -0.3929  0.4818
 2719SOL    HW210947   1.856   0.015   4.179  0.8491  0.3371  0.7789
 2719SOL    HW310948   1.790   0.070   4.304 -0.7826 -1.0495  0.5466
 2719SOL    MW410949   1.794   0.063   4.217  0.1258 -0.3832  0.5298
 2720SOL     OW10950   2.898   2.631   4.483 -0.8061  0.1287  0.1407
 2720SOL    HW210951   2.875   2.724   4.494  0.2072  0.1570  2.1230
 2720SOL    HW310952   2.813   2.586   4.484 -1.1710  0.8189  1.3988
 2720SOL    MW410953   2.884   2.638   4.484 -0.7205  0.2234  0.5679
 2721SOL     OW10954   1.300   2.200   5.017  0.1498 -0.5361  0.4072
 2721SOL    HW210955   1.387   2.179   5.051 -0.1554 -0.4976  1.2059
 2721SOL    HW310956   1.314   2.278   4.963  0.4260  0.0965  1.3921
 2721SOL    MW410957   1.314   2.208   5.014  0.1460 -0.4475  0.6423
 2722SOL     OW10958   4.480   4.555   4.670  0.1050  0.0534 -0.4712
 2722SOL    HW210959   4.550   4.533   4.732  0.5391 -0.0902 -1.0112
 2722SOL    HW310960   4.526   4.587   4.592 -0.4181 -0.4839 -1.0004
 2722SOL    MW410961   4.495   4.557   4.668  0.0939 -0.0362 -0.6127
 2723SOL     OW10962   1.860   1.693   4.482 -0.1165  0.1388  0.1604
 2723SOL    HW210963   1.928   1.752   4.515  0.5013 -0.2109 -0.4834
 2723SOL    HW310964   1.861   1.705   4.387 -2.8437  2.1834  0.3293
 2723SOL    MW410965   1.869   1.702   4.474 -0.3948  0.3624  0.0978
 2724SOL     OW10966   3.573   2.462   4.237  0.0587  0.0830  0.4729
 2724SOL    HW210967   3.502   2.399   4.224  0.6758 -0.7193  0.9169
 2724SOL    HW310968   3.581   2.470   4.332  2.2127 -1.7615  0.4921
 2724SOL    MW410969   3.565   2.455   4.248  0.4246 -0.2663  0.5341
 2725SOL     OW10970   1.234   3.265   4.464  0.0668 -0.2566 -0.4254
 2725SOL    HW210971   1.142   3.270   4.489  0.1927  1.3702 -0.2481
 2725SOL    HW310972   1.264   3.182   4.501 -1.3482 -0.8503 -0.5694
 2725SOL    MW410973   1.226   3.255   4.472 -0.1034 -0.1202 -0.4210
 2726SOL     OW10974   2.390   0.692   4.355 -0.0113 -0.0580 -0.0640
 2726SOL    HW210975   2.408   0.600   4.335 -0.6129 -0.1349 -0.2653
 2726SOL    HW310976   2.393   0.697   4.450 -0.6877 -0.4323 -0.0244
 2726SOL    MW410977   2.393   0.680   4.365 -0.1800 -0.1175 -0.0858
 2727SOL     OW10978   3.363   0.827   4.120 -0.2371 -0.2906 -0.2803
 2727SOL    HW210979   3.304   0.902   4.129 -1.1012 -0.6564 -2.5122
 2727SOL    HW310980   3.349   0.775   4.200  0.1535  1.7386  1.1390
 2727SOL    MW410981   3.353   0.830   4.132 -0.2995 -0.0711 -0.3877
 2728SOL     OW10982   2.257   4.215   4.152  0.3686  0.4285 -0.6873
 2728SOL    HW210983   2.256   4.147   4.220  0.2797  0.7103 -0.4071
 2728SOL    HW310984   2.328   4.274   4.178  0.5686  0.3405 -1.0320
 2728SOL    MW410985   2.266   4.213   4.164  0.3836  0.4539 -0.6962
 2729SOL     OW10986   2.051   2.826   4.412 -0.3295  0.0584 -0.0776
 2729SOL    HW210987   1.991   2.754   4.430  0.4376 -0.4371  0.5571
 2729SOL    HW310988   2.099   2.798   4.334  1.0347 -0.8340  1.0414
 2729SOL    MW410989   2.050   2.813   4.404 -0.0482 -0.1247  0.1545
 2730SOL     OW10990   2.895   4.396   4.587  0.1014  0.0674 -0.2817
 2730SOL    HW210991   2.900   4.381   4.493  1.4150 -0.4815 -0.1412
 2730SOL    HW310992   2.981   4.433   4.610 -0.2807  0.3863  0.6633
 2730SOL    MW410993   2.907   4.399   4.578  0.2246  0.0377 -0.1383
 2731SOL     OW10994   1.804   2.848   4.101  0.0135 -0.6407  0.3802
 2731SOL    HW210995   1.871   2.913   4.122  1.0991 -1.4671 -0.4132
 2731SOL    HW310996   1.746   2.848   4.177  0.3396  0.8084  0.6498
 2731SOL    MW410997   1.805   2.856   4.114  0.1997 -0.5584  0.3109
 2732SOL     OW10998   3.415   0.729   4.385 -0.1413  0.1382 -0.1782
 2732SOL    HW210999   3.485   0.789   4.408 -0.1220 -0.2569  0.8467
 2732SOL    HW311000   3.335   0.777   4.405 -0.1519  0.3099 -0.6272
 2732SOL    MW411001   3.413   0.743   4.391 -0.1402  0.1087 -0.1025
 2733SOL     OW11002   1.327   3.982   4.543 -0.0282  0.2632  0.3177
 2733SOL    HW211003   1.233   3.980   4.559  0.1544 -0.1216  1.4515
 2733SOL    HW311004   1.357   3.894   4.569  0.7166  0.5591  0.4707
 2733SOL    MW411005   1.319   3.970   4.549  0.0942  0.2515  0.4878
 2734SOL     OW11006   1.460   2.655   4.384 -0.0663 -0.2764  0.4750
 2734SOL    HW211007   1.506   2.574   4.405 -0.4254 -0.7204 -0.4020
 2734SOL    HW311008   1.418   2.681   4.466 -0.5156 -1.3475  0.5965
 2734SOL    MW411009   1.460   2.648   4.397 -0.1730 -0.4764  0.3753
 2735SOL     OW11010   1.125   2.005   4.352 -0.0532 -0.3900  0.3201
 2735SOL    HW211011   1.067   1.975   4.282  0.0253  0.5238 -0.1421
 2735SOL    HW311012   1.105   2.098   4.362  1.1127 -0.1348  0.3629
 2735SOL    MW411013   1.115   2.014   4.344  0.1110 -0.2358  0.2651
 2736SOL     OW11014   0.960   4.245   4.150  0.6971  0.0363 -0.0291
 2736SOL    HW211015   0.926   4.156   4.152  0.7866  0.0013 -0.0273
 2736SOL    HW311016   0.890   4.299   4.186  1.6073 -0.3376  2.3997
 2736SOL    MW411017   0.946   4.241   4.155  0.8289 -0.0176  0.2918
 2737SOL     OW11018   3.856   3.051   4.745 -0.4474  0.3847  0.3499
 2737SOL    HW211019   3.777   3.002   4.723 -0.3894  0.9109 -1.0937
 2737SOL    HW311020   3.845   3.074   4.837 -1.4384 -0.5338  0.4690
 2737SOL    MW411021   3.844   3.048   4.754 -0.5703  0.3331  0.1755
 2738SOL     OW11022   4.276   3.577   4.225  0.2768 -0.6457 -0.5917
 2738SOL    HW211023   4.287   3.667   4.197 -0.0193 -0.4900 -0.2320
 2738SOL    HW311024   4.292   3.579   4.320  0.2558 -0.9634 -0.5785
 2738SOL    MW411025   4.279   3.589   4.234  0.2351 -0.6671 -0.5422
 2739SOL     OW11026   3.606   3.418   4.151 -0.2642  0.1061  0.6989
 2739SOL    HW211027   3.523   3.465   4.153 -1.2036 -1.5829  2.7910
 2739SOL    HW311028   3.671   3.482   4.178 -0.9956  1.1609  0.0112
 2739SOL    MW411029   3.603   3.432   4.155 -0.4847  0.0226  0.8845
 2740SOL     OW11030   0.521   3.305   4.558  0.2642  0.0053  0.2864
 2740SOL    HW211031   0.607   3.277   4.525  0.3982  1.6009 -0.7467
 2740SOL    HW311032   0.525   3.400   4.557 -1.2097  0.0850  1.1141
 2740SOL    MW411033   0.533   3.314   4.554  0.0874  0.2263  0.2594
 2741SOL     OW11034   2.444   4.376   4.253  0.0431  0.8264  0.2742
 2741SOL    HW211035   2.455   4.403   4.344  0.8740 -1.2240  0.8117
 2741SOL    HW311036   2.526   4.331   4.231 -0.3077  0.9503 -1.3682
 2741SOL    MW411037   2.456   4.373   4.262  0.1066  0.5722  0.1287
 2742SOL     OW11038   0.534   1.579   4.513  0.1991 -0.1070  0.3761
 2742SOL    HW211039   0.529   1.604   4.421 -2.4959  0.1653  0.5468
 2742SOL    HW311040   0.556   1.660   4.559 -0.3436  0.1868  0.1311
 2742SOL    MW411041   0.536   1.593   4.507 -0.2280 -0.0324  0.3667
 2743SOL     OW11042   0.702   3.037   4.114  0.3509  0.3115 -0.3415
 2743SOL    HW211043   0.615   3.051   4.153 -0.2604 -1.5546 -0.9800
 2743SOL    HW311044   0.753   3.113   4.143 -1.1965  0.9348  0.8801
 2743SOL    MW411045   0.697   3.049   4.123  0.0661  0.1473 -0.2642
 2744SOL     OW11046   0.665   4.636   4.201  0.2392  0.0794  0.0103
 2744SOL    HW211047   0.665   4.649   4.106 -1.0491 -0.4137 -0.0636
 2744SOL    HW311048   0.594   4.692   4.233 -1.0905 -1.7743  0.3790
 2744SOL    MW411049   0.656   4.646   4.192 -0.1062 -0.2298  0.0486
 2745SOL     OW11050   3.806   0.479   4.286 -0.1518 -0.1202 -0.0197
 2745SOL    HW211051   3.887   0.451   4.242  0.5535 -0.6585  1.6068
 2745SOL    HW311052   3.784   0.561   4.242  1.0308 -0.1885 -0.7928
 2745SOL    MW411053   3.814   0.486   4.274  0.0975 -0.2002  0.0925
 2746SOL     OW11054   3.799   1.442   4.478  0.5553  0.0972 -0.0524
 2746SOL    HW211055   3.880   1.492   4.488  1.5241 -1.4954  0.1695
 2746SOL    HW311056   3.794   1.388   4.557 -0.4279 -0.2419 -0.3387
 2746SOL    MW411057   3.809   1.442   4.490  0.5536 -0.1576 -0.0610
 2747SOL     OW11058   3.585   1.615   4.252 -0.2732 -0.2097 -0.4978
 2747SOL    HW211059   3.499   1.586   4.220 -1.1006 -0.6127  2.0314
 2747SOL    HW311060   3.583   1.599   4.346  2.1930  0.7928 -0.2341
 2747SOL    MW411061   3.573   1.609   4.260 -0.0567 -0.1307 -0.1297
 2748SOL     OW11062   1.067   0.921   4.528  0.2172 -0.0089  0.4153
 2748SOL    HW211063   1.090   1.012   4.548 -0.6059  0.2883  0.0004
 2748SOL    HW311064   1.030   0.924   4.440  0.4982 -0.7991  0.2707
 2748SOL    MW411065   1.065   0.934   4.519  0.1457 -0.0739  0.3414
 2749SOL     OW11066   1.822   0.936   4.483  0.1873  0.0618  0.2382
 2749SOL    HW211067   1.767   1.014   4.489 -0.3851 -0.1737 -1.5863
 2749SOL    HW311068   1.820   0.912   4.390  0.6841 -1.8780  0.6987
 2749SOL    MW411069   1.814   0.943   4.472  0.1774 -0.2252  0.0587
 2750SOL     OW11070   1.156   1.177   4.608 -0.0144  0.0142  0.1249
 2750SOL    HW211071   1.090   1.206   4.671  1.2761  1.4755  0.8484
 2750SOL    HW311072   1.191   1.259   4.572  0.8001 -0.7652 -0.8660
 2750SOL    MW411073   1.152   1.192   4.611  0.2632  0.1041  0.0901
 2751SOL     OW11074   2.285   1.956   4.208 -0.0022  0.1793 -0.2470
 2751SOL    HW211075   2.204   2.004   4.226  0.5967  0.5241  1.6300
 2751SOL    HW311076   2.263   1.865   4.226  0.4192  0.4495  1.6748
 2751SOL    MW411077   2.271   1.951   4.212  0.1323  0.2605  0.2542
 2752SOL     OW11078   4.053   0.942   4.574 -0.5540 -0.2712 -0.7252
 2752SOL    HW211079   3.988   0.884   4.613  0.5120 -0.7206  0.4152
 2752SOL    HW311080   4.067   0.907   4.486  0.6446 -2.2349  0.2248
 2752SOL    MW411081   4.046   0.930   4.567 -0.2556 -0.5895 -0.4492
 2753SOL     OW11082   0.779   0.063   4.647  0.2345 -0.0438  0.2646
 2753SOL    HW211083   0.782  -0.020   4.598 -1.1813  0.1054 -0.1000
 2753SOL    HW311084   0.854   0.113   4.615  0.6244 -0.8522 -0.1044
 2753SOL    MW411085   0.789   0.058   4.636  0.0991 -0.1308  0.1678
 2754SOL     OW11086   2.235   0.905   4.294  0.2695 -0.0743  0.3781
 2754SOL    HW211087   2.178   0.912   4.371  0.7610  0.2881  0.7068
 2754SOL    HW311088   2.305   0.845   4.321 -1.0863 -2.2234 -0.7183
 2754SOL    MW411089   2.237   0.898   4.308  0.1554 -0.3101  0.2766
 2755SOL     OW11090   2.043   2.984   4.126 -0.1689 -0.4202 -0.3567
 2755SOL    HW211091   2.036   3.041   4.050 -0.3541  0.1280  0.0670
 2755SOL    HW311092   2.031   3.042   4.201 -0.5195 -1.0427  0.0757
 2755SOL    MW411093   2.041   2.999   4.126 -0.2396 -0.4299 -0.2437
 2756SOL     OW11094   1.778   2.430   4.250  0.1496  0.0631 -0.1501
 2756SOL    HW211095   1.769   2.365   4.320  0.9482  0.1593  0.0469
 2756SOL    HW311096   1.691   2.433   4.209 -0.1913 -0.3483  0.5228
 2756SOL    MW411097   1.765   2.422   4.254  0.2100  0.0215 -0.0353
 2757SOL     OW11098   3.570   1.111   4.642 -0.0497 -0.2087 -0.1430
 2757SOL    HW211099   3.513   1.181   4.611  0.7159  0.5654  0.1666
 2757SOL    HW311100   3.647   1.156   4.676 -1.0541 -0.9544  3.3361
 2757SOL    MW411101   3.572   1.126   4.643 -0.0811 -0.2050  0.3567
 2758SOL     OW11102   0.870   3.224   4.206  0.3554 -0.0898 -0.0467
 2758SOL    HW211103   0.892   3.315   4.187 -0.2931  0.2520  0.7765
 2758SOL    HW311104   0.953   3.178   4.202  0.8567  0.7406  0.6163
 2758SOL    MW411105   0.884   3.230   4.203  0.3360  0.0648  0.1493
 2759SOL     OW11106   1.231   1.407   4.454  0.0070 -0.1284  0.7833
 2759SOL    HW211107   1.277   1.490   4.439 -2.3909  1.2953  0.9940
 2759SOL    HW311108   1.209   1.375   4.367 -0.0327  0.0286  0.7355
 2759SOL    MW411109   1.234   1.414   4.441 -0.3146  0.0802  0.8044
 2760SOL     OW11110   2.458   0.373   4.570 -0.1681 -0.0734  0.0154
 2760SOL    HW211111   2.548   0.346   4.585 -0.2399 -0.2427  0.1399
 2760SOL    HW311112   2.406   0.293   4.580 -0.4093  0.1590  0.6557
 2760SOL    MW411113   2.463   0.359   4.573 -0.2093 -0.0651  0.1163
 2761SOL     OW11114   1.593   1.584   4.160  0.4321  0.2403  0.1777
 2761SOL    HW211115   1.585   1.584   4.065  0.3446  1.6748  0.1803
 2761SOL    HW311116   1.521   1.640   4.190  0.0902 -0.6853  1.1251
 2761SOL    MW411117   1.583   1.592   4.151  0.3755  0.3074  0.3028
 2762SOL     OW11118   4.079   4.256   4.201  0.0779  0.3403 -0.1242
 2762SOL    HW211119   4.008   4.280   4.260 -0.4443  1.7015 -1.2601
 2762SOL    HW311120   4.156   4.300   4.236 -0.1024  0.6371 -0.0989
 2762SOL    MW411121   4.080   4.265   4.213 -0.0148  0.5593 -0.2708
 2763SOL     OW11122   0.838   4.059   4.464  0.3385  0.0916  0.0702
 2763SOL    HW211123   0.865   4.149   4.482 -0.0294 -0.0773  1.6110
 2763SOL    HW311124   0.912   4.006   4.493  0.4772 -0.1043 -0.6523
 2763SOL    MW411125   0.851   4.064   4.470  0.3083  0.0443  0.1783
 2764SOL     OW11126   0.836   2.922   4.562  0.4710  0.1651  0.0629
 2764SOL    HW211127   0.902   2.869   4.518  0.3906  0.8307 -0.8614
 2764SOL    HW311128   0.760   2.865   4.569  0.9572 -0.4213  0.6459
 2764SOL    MW411129   0.835   2.908   4.557  0.5245  0.1755  0.0172
 2765SOL     OW11130   4.094   1.969   4.208 -0.7353 -0.1952 -0.1602
 2765SOL    HW211131   4.082   1.874   4.215 -0.2221 -0.3006 -0.6536
 2765SOL    HW311132   4.011   2.006   4.237 -0.2293 -0.7325  2.0639
 2765SOL    MW411133   4.082   1.961   4.212 -0.6008 -0.2800  0.0682
 2766SOL     OW11134   2.659   4.007   4.256 -0.1128  0.1992 -0.3486
 2766SOL    HW211135   2.656   4.010   4.352  1.8548 -1.2883 -0.2069
 2766SOL    HW311136   2.585   3.952   4.231 -0.1780 -0.0400  0.3659
 2766SOL    MW411137   2.649   4.000   4.266  0.1383 -0.0281 -0.2360
 2767SOL     OW11138   4.158   0.508   4.572  0.0128  0.0700  0.3360
 2767SOL    HW211139   4.063   0.519   4.566  0.0374 -0.5865 -1.8421
 2767SOL    HW311140   4.194   0.596   4.557 -0.2592  0.4154  1.6913
 2767SOL    MW411141   4.150   0.521   4.569 -0.0196  0.0290  0.2270
 2768SOL     OW11142   1.937   3.606   4.535  0.1743  0.3079  0.0463
 2768SOL    HW211143   1.877   3.680   4.548  0.7346  0.6950  0.4616
 2768SOL    HW311144   2.023   3.641   4.556  0.8180  0.2830 -2.3249
 2768SOL    MW411145   1.940   3.621   4.539  0.3333  0.3557 -0.2117
 2769SOL     OW11146   1.540   3.201   4.552 -0.0977  0.0178  0.3600
 2769SOL    HW211147   1.557   3.217   4.459 -0.9334 -1.8380 -0.1272
 2769SOL    HW311148   1.577   3.115   4.569 -0.5875  0.0324  1.5893
 2769SOL    MW411149   1.547   3.192   4.542 -0.2726 -0.2251  0.4578
 2770SOL     OW11150   2.719   0.352   4.199 -0.0014 -0.3255 -0.4106
 2770SOL    HW211151   2.716   0.355   4.103 -0.3339 -1.2783 -0.4376
 2770SOL    HW311152   2.716   0.259   4.220  1.2713 -0.1699  0.4963
 2770SOL    MW411153   2.718   0.340   4.189  0.1228 -0.4307 -0.2947
 2771SOL     OW11154   1.238   0.071   4.567 -0.0525 -0.3646  0.5826
 2771SOL    HW211155   1.287   0.088   4.487  0.0392 -0.8751  0.5263
 2771SOL    HW311156   1.299   0.091   4.638  1.2565 -3.7749  0.5091
 2771SOL    MW411157   1.252   0.076   4.566  0.1322 -0.8819  0.5655
 2772SOL     OW11158   0.269   1.514   4.148 -0.0014  0.2826  0.5707
 2772SOL    HW211159   0.191   1.564   4.175 -0.6689 -0.8962  0.8443
 2772SOL    HW311160   0.259   1.429   4.191  0.1075 -0.8148 -1.5302
 2772SOL    MW411161   0.258   1.510   4.157 -0.0751 -0.0178  0.3300
 2773SOL     OW11162   0.607   0.451   4.577  0.2672 -0.6600  0.3196
 2773SOL    HW211163   0.688   0.492   4.607  0.1347  0.4232 -0.7335
 2773SOL    HW311164   0.623   0.433   4.484 -0.1382 -1.8599  0.4844
 2773SOL    MW411165   0.620   0.454   4.568  0.1963 -0.6754  0.2022
 2774SOL     OW11166   1.863   2.619   4.432 -0.2007  0.1648 -0.0451
 2774SOL    HW211167   1.838   2.553   4.369 -0.5851  0.1166  0.1562
 2774SOL    HW311168   1.793   2.618   4.498  0.4839 -0.1915  0.6914
 2774SOL    MW411169   1.850   2.610   4.432 -0.1611  0.1116  0.0782
 2775SOL     OW11170   3.569   1.583   4.545 -0.4016  0.5060 -0.3418
 2775SOL    HW211171   3.505   1.513   4.555 -0.4130  0.7456  1.5825
 2775SOL    HW311172   3.653   1.538   4.539 -0.4635  0.2979  0.3092
 2775SOL    MW411173   3.572   1.568   4.546 -0.4113  0.5102 -0.0024
 2776SOL     OW11174   2.733   1.235   4.528  0.1571  0.2433  0.0513
 2776SOL    HW211175   2.646   1.272   4.540 -0.2371 -0.4822 -0.4824
 2776SOL    HW311176   2.756   1.256   4.438  0.4413  0.2400  0.1220
 2776SOL    MW411177   2.724   1.242   4.518  0.1423  0.1472 -0.0095
 2777SOL     OW11178   0.291   0.790   4.571 -0.3706 -0.2181  0.2775
 2777SOL    HW211179   0.303   0.695   4.574 -0.9921 -0.3240 -0.4035
 2777SOL    HW311180   0.370   0.825   4.612 -0.5314 -1.0496  1.3262
 2777SOL    MW411181   0.303   0.782   4.577 -0.4739 -0.3418  0.3262
 2778SOL     OW11182   2.659   3.195   4.274 -0.2459 -0.2742  0.1000
 2778SOL    HW211183   2.695   3.196   4.363  0.4478  1.6963 -0.1775
 2778SOL    HW311184   2.715   3.134   4.227 -1.3389 -2.2461  1.2776
 2778SOL    MW411185   2.671   3.187   4.280 -0.2987 -0.2744  0.2184
 2779SOL     OW11186   2.255   2.299   4.274  0.0223 -0.5610  0.1464
 2779SOL    HW211187   2.189   2.364   4.254  1.3614  1.4990  2.1325
 2779SOL    HW311188   2.246   2.284   4.368  1.2870 -1.4794  0.1366
 2779SOL    MW411189   2.245   2.305   4.284  0.3660 -0.4106  0.4072
 2780SOL     OW11190   2.862   2.185   4.696 -0.3546  0.0133 -0.0228
 2780SOL    HW211191   2.839   2.103   4.650  0.0118  0.3899 -0.8938
 2780SOL    HW311192   2.944   2.213   4.655  0.4078 -0.0560  1.4197
 2780SOL    MW411193   2.870   2.178   4.684 -0.2055  0.0536  0.0525
 2781SOL     OW11194   1.825   1.965   4.167 -0.0960 -0.1927  0.3684
 2781SOL    HW211195   1.910   2.008   4.163 -0.0180 -0.5326 -3.5563
 2781SOL    HW311196   1.845   1.871   4.173 -0.1537 -0.3086 -1.0714
 2781SOL    MW411197   1.839   1.958   4.167 -0.0932 -0.2528 -0.3390
 2782SOL     OW11198   0.738   4.483   4.511  0.0850  0.2680  0.2331
 2782SOL    HW211199   0.653   4.456   4.545 -0.6845  2.3365 -0.0081
 2782SOL    HW311200   0.734   4.462   4.417 -0.3761  0.9073  0.1098
 2782SOL    MW411201   0.726   4.476   4.503 -0.0774  0.6256  0.1850
 2783SOL     OW11202   4.014   1.633   4.509 -0.1538 -0.2574  0.0281
 2783SOL    HW211203   4.102   1.604   4.533  0.1032 -0.3075 -0.9620
 2783SOL    HW311204   4.006   1.720   4.548  1.5549  1.1415 -2.6004
 2783SOL    MW411205   4.024   1.641   4.518  0.1054 -0.0795 -0.4492
 2784SOL     OW11206   3.843   0.093   4.753  0.0292  1.0074  0.2571
 2784SOL    HW211207   3.918   0.094   4.694 -0.8282  1.3970 -0.8460
 2784SOL    HW311208   3.876   0.052   4.833  0.1438 -3.6117 -1.9589
 2784SOL    MW411209   3.857   0.087   4.755 -0.0689  0.4493 -0.1812
 2785SOL     OW11210   2.215   0.326   4.197 -0.3198 -0.0843  0.2839
 2785SOL    HW211211   2.285   0.364   4.249 -0.6877 -0.6277  1.1857
 2785SOL    HW311212   2.246   0.332   4.107  0.2064  1.1053  0.5330
 2785SOL    MW411213   2.228   0.332   4.192 -0.2992  0.0010  0.4363
 2786SOL     OW11214   0.581   3.572   4.494 -0.1917  0.0327  0.5189
 2786SOL    HW211215   0.674   3.563   4.515  0.4045  2.0249 -1.0360
 2786SOL    HW311216   0.550   3.639   4.554 -0.1994  0.5513 -0.0493
 2786SOL    MW411217   0.589   3.580   4.504 -0.1141  0.3638  0.2389
 2787SOL     OW11218   1.321   0.130   4.279 -0.3658  0.0891  0.1321
 2787SOL    HW211219   1.396   0.096   4.230 -0.7874 -1.6104  0.6402
 2787SOL    HW311220   1.248   0.076   4.251 -1.3991  1.6400 -0.2458
 2787SOL    MW411221   1.321   0.119   4.269 -0.5578  0.0695  0.1497
 2788SOL     OW11222   0.460   2.452   4.263  0.3994  0.1251 -0.7427
 2788SOL    HW211223   0.465   2.542   4.231 -0.8737  1.0363  1.5109
 2788SOL    HW311224   0.387   2.413   4.215 -2.3317  1.8740  1.8178
 2788SOL    MW411225   0.451   2.459   4.253 -0.1289  0.4761 -0.1073
 2789SOL     OW11226   1.383   3.990   4.266 -0.3440 -0.5403  0.0475
 2789SOL    HW211227   1.430   4.070   4.244 -1.1216 -0.0876  0.0411
 2789SOL    HW311228   1.362   3.999   4.359 -0.2591 -0.8251  0.0954
 2789SOL    MW411229   1.387   4.002   4.276 -0.4355 -0.5178  0.0529
 2790SOL     OW11230   4.482   0.155   4.776 -0.0318  0.6431 -0.1828
 2790SOL    HW211231   4.400   0.196   4.747 -0.3497  1.6670  2.0347
 2790SOL    HW311232   4.475   0.064   4.748 -1.3039  1.0718 -1.2745
 2790SOL    MW411233   4.470   0.148   4.769 -0.2413  0.8347 -0.0348
 2791SOL     OW11234   1.998   0.155   4.632 -0.1266  0.4868 -0.4533
 2791SOL    HW211235   1.920   0.141   4.579 -0.6512 -1.2599  0.7627
 2791SOL    HW311236   2.069   0.164   4.567 -0.7103 -1.8604 -1.4967
 2791SOL    MW411237   1.997   0.154   4.616 -0.2728 -0.0533 -0.4306
 2792SOL     OW11238   0.022   1.169   4.625  0.1211  0.1640  0.1804
 2792SOL    HW211239  -0.040   1.233   4.590  0.1487  0.1728  0.1476
 2792SOL    HW311240   0.014   1.176   4.720  1.3969  1.4613  0.2119
 2792SOL    MW411241   0.013   1.178   4.633  0.2933  0.3362  0.1802
 2793SOL     OW11242   1.330   3.228   4.195 -0.0379 -0.7346 -0.7178
 2793SOL    HW211243   1.317   3.247   4.288 -1.4816  0.0766 -1.0725
 2793SOL    HW311244   1.404   3.167   4.193 -0.8521 -1.8077  1.0457
 2793SOL    MW411245   1.338   3.222   4.207 -0.3359 -0.7691 -0.5317
 2794SOL     OW11246   3.644   1.157   4.101  0.4536 -0.6606  0.0241
 2794SOL    HW211247   3.716   1.215   4.122  0.4073 -0.2848 -0.8080
 2794SOL    HW311248   3.635   1.164   4.006 -1.6751  0.5035  0.2681
 2794SOL    MW411249   3.652   1.165   4.091  0.1664 -0.4574 -0.0534
 2795SOL     OW11250   2.036   2.477   4.139  0.5174  0.0638  0.3935
 2795SOL    HW211251   2.055   2.422   4.062  0.5373 -0.2703  0.6344
 2795SOL    HW311252   1.944   2.459   4.158  0.0363  1.4310 -0.5751
 2795SOL    MW411253   2.027   2.467   4.131  0.4566  0.2000  0.2971
 2796SOL     OW11254   3.756   3.552   4.535 -0.3480 -0.1852 -0.4793
 2796SOL    HW211255   3.662   3.564   4.523 -0.4227  1.3899  1.3730
 2796SOL    HW311256   3.763   3.469   4.584 -0.8262  0.1204  0.1125
 2796SOL    MW411257   3.744   3.542   4.540 -0.4208  0.0629 -0.1574
 2797SOL     OW11258   2.277   3.256   4.555 -0.2021 -0.1705 -0.0389
 2797SOL    HW211259   2.317   3.170   4.569  0.2924 -0.3249 -2.1826
 2797SOL    HW311260   2.190   3.248   4.592  0.1771 -1.3014  0.6337
 2797SOL    MW411261   2.271   3.243   4.561 -0.0868 -0.3402 -0.2332
 2798SOL     OW11262   0.227   0.329   4.752  0.4946 -0.0040  0.3455
 2798SOL    HW211263   0.135   0.311   4.732  1.0404 -1.4683 -0.9746
 2798SOL    HW311264   0.228   0.352   4.845 -1.3747  1.3532  0.0461
 2798SOL    MW411265   0.215   0.329   4.762  0.3200 -0.0181  0.1321
 2799SOL     OW11266   3.499   3.163   4.528 -0.2553 -0.1334  0.1461
 2799SOL    HW211267   3.590   3.188   4.547 -0.3576  1.6938 -1.6007
 2799SOL    HW311268   3.498   3.147   4.434 -1.0795 -3.2390  0.6171
 2799SOL    MW411269   3.511   3.164   4.519 -0.3777 -0.3021 -0.0219
 2800SOL     OW11270   4.318   1.609   4.552 -0.0119 -0.2214 -1.0323
 2800SOL    HW211271   4.337   1.612   4.646 -0.3389 -1.3282 -0.9320
 2800SOL    HW311272   4.386   1.664   4.513 -0.8039  1.5526 -0.0148
 2800SOL    MW411273   4.329   1.617   4.559 -0.1597 -0.1334 -0.8845
 2801SOL     OW11274   2.949   4.599   4.175  0.0101 -0.1440 -0.1294
 2801SOL    HW211275   2.962   4.530   4.240 -1.9961  1.0740  1.6170
 2801SOL    HW311276   3.011   4.668   4.199 -0.6905  0.2819  0.4832
 2801SOL    MW411277   2.959   4.599   4.186 -0.3471  0.0730  0.1826
 2802SOL     OW11278   3.779   1.297   4.727 -0.3569  0.3717  0.7950
 2802SOL    HW211279   3.857   1.258   4.689 -1.5075 -0.8977 -0.3320
 2802SOL    HW311280   3.803   1.314   4.818  1.2361  0.0493  0.4536
 2802SOL    MW411281   3.792   1.294   4.734 -0.2983  0.1616  0.6013
 2803SOL     OW11282   3.160   2.076   4.389  0.0365  0.1338  0.1673
 2803SOL    HW211283   3.136   2.018   4.317 -0.1831 -2.1041  1.9640
 2803SOL    HW311284   3.255   2.068   4.397  0.1413  0.9013 -0.3031
 2803SOL    MW411285   3.169   2.067   4.381  0.0215 -0.0603  0.3424
 2804SOL     OW11286   2.701   2.415   4.213  0.1075  0.4634 -0.0792
 2804SOL    HW211287   2.690   2.435   4.305 -0.9047 -0.4460  0.0189
 2804SOL    HW311288   2.630   2.353   4.194  1.2752 -0.5911 -1.0687
 2804SOL    MW411289   2.690   2.409   4.222  0.1278  0.2046 -0.1969
 2805SOL     OW11290   0.031   1.641   4.237  0.4447  0.2217  0.0936
 2805SOL    HW211291   0.018   1.733   4.214 -0.2319  0.1847  0.2911
 2805SOL    HW311292  -0.054   1.600   4.221  0.6085 -0.2719  0.4515
 2805SOL    MW411293   0.018   1.647   4.232  0.3771  0.1516  0.1669
 2806SOL     OW11294   3.889   0.500   4.539  0.0048  0.4033 -0.2604
 2806SOL    HW211295   3.856   0.498   4.449 -0.6372 -0.3009 -0.0128
 2806SOL    HW311296   3.837   0.435   4.585  0.9734  0.0988  0.4142
 2806SOL    MW411297   3.878   0.491   4.533  0.0479  0.2702 -0.1388
 2807SOL     OW11298   0.235   3.820   4.626 -0.2373  0.1993  0.4701
 2807SOL    HW211299   0.210   3.751   4.564 -0.2867 -0.3047  1.0484
 2807SOL    HW311300   0.152   3.851   4.662 -0.2313  0.7146  0.0630
 2807SOL    MW411301   0.221   3.815   4.622 -0.2430  0.2007  0.4926
 2808SOL     OW11302   2.252   1.143   4.587 -0.0815  0.0581  0.4843
 2808SOL    HW211303   2.190   1.215   4.574  0.3801  0.4893  0.6774
 2808SOL    HW311304   2.197   1.064   4.589 -0.5426  0.3608 -0.1855
 2808SOL    MW411305   2.237   1.142   4.585 -0.0815  0.1549  0.4220
 2809SOL     OW11306   3.399   2.709   4.478 -0.0416  0.2980  0.0449
 2809SOL    HW211307   3.382   2.770   4.406  0.4898 -0.0768 -0.3943
 2809SOL    HW311308   3.312   2.681   4.506 -0.3329  1.8483  0.7563
 2809SOL    MW411309   3.385   2.713   4.472 -0.0098  0.4532  0.0806
 2810SOL     OW11310   3.103   4.241   4.126 -0.4610  0.3087  0.0734
 2810SOL    HW211311   3.107   4.149   4.153 -1.6635  0.2569  0.1021
 2810SOL    HW311312   3.195   4.269   4.122 -0.1224 -0.6331  0.9538
 2810SOL    MW411313   3.116   4.233   4.129 -0.5748  0.1774  0.1931
 2811SOL     OW11314   3.059   3.170   4.233 -0.0120  0.2136 -0.5815
 2811SOL    HW211315   2.992   3.137   4.173  0.2377  1.4582 -1.5464
 2811SOL    HW311316   3.142   3.143   4.194  0.1909  1.8659 -1.3256
 2811SOL    MW411317   3.061   3.162   4.220  0.0477  0.5956 -0.8068
 2812SOL     OW11318   1.590   3.835   4.134  0.2079  0.0071  0.0612
 2812SOL    HW211319   1.579   3.745   4.164  0.5568 -0.3012 -0.7147
 2812SOL    HW311320   1.513   3.881   4.165 -0.2132 -0.6761  0.0285
 2812SOL    MW411321   1.579   3.829   4.142  0.1984 -0.1237 -0.0453
 2813SOL     OW11322   1.055   2.857   4.953 -0.1356 -0.5133  0.1522
 2813SOL    HW211323   1.089   2.769   4.942 -0.5025 -1.0142  2.6195
 2813SOL    HW311324   1.127   2.906   4.993  0.1749  0.3915 -1.5132
 2813SOL    MW411325   1.069   2.852   4.957 -0.1431 -0.4599  0.2575
 2814SOL     OW11326   4.047   3.935   4.534 -0.4082  0.0310  0.1428
 2814SOL    HW211327   4.051   4.008   4.597  1.3313 -0.4255  0.5925
 2814SOL    HW311328   3.958   3.901   4.543 -0.8810  1.3825  0.7491
 2814SOL    MW411329   4.036   3.940   4.544 -0.2408  0.1493  0.2823
 2815SOL     OW11330   4.162   3.096   4.406  0.2193 -0.2454  0.0628
 2815SOL    HW211331   4.139   3.067   4.494 -0.9516  0.6307  0.0533
 2815SOL    HW311332   4.084   3.142   4.374  1.1203  0.6617 -0.8940
 2815SOL    MW411333   4.149   3.098   4.413  0.1836 -0.0103 -0.0644
 2816SOL     OW11334   2.636   3.177   4.751 -0.6149  0.4049 -0.6612
 2816SOL    HW211335   2.567   3.113   4.730  1.2318 -1.2232 -1.9570
 2816SOL    HW311336   2.665   3.152   4.839  0.5740 -1.0144 -1.4359
 2816SOL    MW411337   2.631   3.165   4.760 -0.2143  0.0026 -0.9341
 2817SOL     OW11338   0.499   2.304   4.491 -0.0502  0.2101  0.2340
 2817SOL    HW211339   0.490   2.357   4.412  0.4861  0.2291  0.1824
 2817SOL    HW311340   0.419   2.251   4.493 -0.9991  1.6323  0.7607
 2817SOL    MW411341   0.487   2.304   4.481 -0.1046  0.4005  0.2975
 2818SOL     OW11342   4.008   0.111   4.278 -0.3948  0.8236  0.3965
 2818SOL    HW211343   4.094   0.073   4.257 -0.2086  2.0666 -1.2196
 2818SOL    HW311344   3.947   0.037   4.270  0.1472  0.5292 -1.3489
 2818SOL    MW411345   4.011   0.096   4.274 -0.2990  0.9488 -0.0467
 2819SOL     OW11346   0.911   3.493   4.130  0.0757  0.0057 -0.0488
 2819SOL    HW211347   0.826   3.525   4.159  0.5188  0.7325  0.4573
 2819SOL    HW311348   0.902   3.483   4.035 -1.1314 -1.6199  0.2002
 2819SOL    MW411349   0.899   3.496   4.121 -0.0252 -0.1130  0.0505
 2820SOL     OW11350   3.124   3.640   4.588 -0.3126 -0.0367 -0.1080
 2820SOL    HW211351   3.042   3.605   4.553 -0.0142 -0.1689 -0.6797
 2820SOL    HW311352   3.167   3.564   4.628 -0.2910 -0.0444 -0.1472
 2820SOL    MW411353   3.119   3.625   4.589 -0.2706 -0.0551 -0.1888
 2821SOL     OW11354   1.649   0.322   4.685  0.1787  0.1480  0.2025
 2821SOL    HW211355   1.600   0.399   4.655  1.2873  0.7112 -0.1804
 2821SOL    HW311356   1.733   0.357   4.713  0.3478 -0.8112  0.9116
 2821SOL    MW411357   1.653   0.337   4.685  0.3473  0.0958  0.2460
 2822SOL     OW11358   2.986   0.382   4.519 -0.2474 -0.0325 -0.0286
 2822SOL    HW211359   3.015   0.450   4.579  0.2374  0.1570 -0.4764
 2822SOL    HW311360   2.991   0.422   4.432  0.4038 -0.7606 -0.3262
 2822SOL    MW411361   2.990   0.396   4.515 -0.0978 -0.1036 -0.1268
 2823SOL     OW11362   0.708   2.111   4.530  0.2424  0.0034 -0.4867
 2823SOL    HW211363   0.698   2.091   4.437 -1.0248 -0.3825 -0.2771
 2823SOL    HW311364   0.645   2.182   4.547  0.1638 -0.2118  0.1644
 2823SOL    MW411365   0.698   2.118   4.520  0.0648 -0.0761 -0.3734
 2824SOL     OW11366   0.263   0.770   4.199 -0.0536 -0.1124  0.4521
 2824SOL    HW211367   0.329   0.822   4.244 -0.2117 -1.1207  1.8706
 2824SOL    HW311368   0.265   0.685   4.242 -0.7773 -0.8486 -0.9150
 2824SOL    MW411369   0.272   0.765   4.211 -0.1699 -0.3426  0.4587
 2825SOL     OW11370   2.937   0.913   4.384 -0.2508  0.0969 -0.2435
 2825SOL    HW211371   2.864   0.905   4.446 -0.9207  0.5424 -0.9536
 2825SOL    HW311372   2.908   0.864   4.307  0.4356 -0.1766 -0.3299
 2825SOL    MW411373   2.923   0.906   4.382 -0.2484  0.1197 -0.3486
 2826SOL     OW11374   3.782   2.795   4.174  0.1044 -0.0543  0.6815
 2826SOL    HW211375   3.776   2.770   4.266 -0.1445  0.5717  0.8375
 2826SOL    HW311376   3.694   2.780   4.139  0.1605 -0.1509  0.5814
 2826SOL    MW411377   3.770   2.790   4.181  0.0789  0.0153  0.6886
 2827SOL     OW11378   2.723   0.971   4.580  0.4757  0.0119  0.0643
 2827SOL    HW211379   2.732   1.064   4.562  1.2261 -0.1382 -0.3753
 2827SOL    HW311380   2.802   0.948   4.629 -0.1899 -0.1798  1.0450
 2827SOL    MW411381   2.734   0.980   4.584  0.4869 -0.0331  0.1369
 2828SOL     OW11382   3.781   3.055   4.184  0.4664 -0.1616 -0.1424
 2828SOL    HW211383   3.794   2.960   4.186 -0.7895 -0.3440 -0.3438
 2828SOL    HW311384   3.805   3.081   4.095 -0.6279 -0.5175 -0.5539
 2828SOL    MW411385   3.786   3.046   4.173  0.1564 -0.2327 -0.2232
 2829SOL     OW11386   2.627   3.754   4.677 -0.8275 -0.6650 -0.3554
 2829SOL    HW211387   2.552   3.763   4.736 -0.2389 -0.6898  0.4018
 2829SOL    HW311388   2.627   3.661   4.652 -2.3391 -0.2284 -2.0968
 2829SOL    MW411389   2.617   3.743   4.681 -0.9489 -0.6106 -0.4859
 2830SOL     OW11390   0.659   3.571   4.222  0.0147 -0.1082  0.0169
 2830SOL    HW211391   0.654   3.665   4.205  0.1957 -0.2626 -0.8831
 2830SOL    HW311392   0.638   3.563   4.315  2.3748  1.0732  0.7136
 2830SOL    MW411393   0.656   3.582   4.232  0.3501  0.0274 -0.0095
 2831SOL     OW11394   2.448   0.433   4.304 -0.2165 -0.1553  0.0970
 2831SOL    HW211395   2.531   0.417   4.260 -1.0146 -0.9774 -1.1242
 2831SOL    HW311396   2.463   0.402   4.394  0.0073 -2.6831 -0.7861
 2831SOL    MW411397   2.461   0.427   4.310 -0.2925 -0.5972 -0.1807
 2832SOL     OW11398   2.415   3.112   4.142 -0.4103 -0.2107 -0.1966
 2832SOL    HW211399   2.337   3.157   4.175 -0.4720  0.9358 -1.8071
 2832SOL    HW311400   2.487   3.149   4.192 -0.5980  0.8307 -0.6725
 2832SOL    MW411401   2.414   3.123   4.153 -0.4432  0.0777 -0.4721
 2833SOL     OW11402   4.046   3.976   4.237  0.1764 -0.9516 -0.2085
 2833SOL    HW211403   4.052   3.956   4.331 -0.5556 -0.0797  0.0305
 2833SOL    HW311404   4.065   4.070   4.231 -0.8416 -0.7712 -0.8021
 2833SOL    MW411405   4.049   3.986   4.249 -0.0544 -0.8125 -0.2551
 2834SOL     OW11406   2.423   1.638   4.637 -0.4515  0.2518 -0.0655
 2834SOL    HW211407   2.392   1.727   4.652  0.5415  0.4506  0.8490
 2834SOL    HW311408   2.508   1.649   4.595 -0.7946 -0.2791 -0.9173
 2834SOL    MW411409   2.430   1.651   4.633 -0.3655  0.2079 -0.0572
 2835SOL     OW11410   3.155   2.384   4.249  0.7871 -0.5582 -0.5606
 2835SOL    HW211411   3.082   2.324   4.238  1.6038 -1.7229  0.2614
 2835SOL    HW311412   3.129   2.463   4.201 -0.7026 -1.2055 -0.8354
 2835SOL    MW411413   3.142   2.387   4.241  0.6983 -0.7973 -0.4883
 2836SOL     OW11414   4.288   0.762   4.559  0.6750 -0.2818  0.6113
 2836SOL    HW211415   4.373   0.804   4.546 -0.5096  1.5378 -1.6676
 2836SOL    HW311416   4.232   0.833   4.590 -0.4497 -1.0710  0.3780
 2836SOL    MW411417   4.292   0.777   4.562  0.3705 -0.1458  0.2804
 2837SOL     OW11418   1.289   2.758   4.591  0.5983  0.1405  0.2867
 2837SOL    HW211419   1.286   2.853   4.603  0.5353  0.3072 -1.0088
 2837SOL    HW311420   1.248   2.723   4.671  1.5782  1.1478  1.2575
 2837SOL    MW411421   1.283   2.766   4.603  0.7192  0.2954  0.2441
 2838SOL     OW11422   1.760   0.142   4.486  0.6517 -0.0430  0.1525
 2838SOL    HW211423   1.706   0.070   4.518  0.3280 -0.1994 -0.7240
 2838SOL    HW311424   1.716   0.221   4.518 -0.1894 -0.1649 -0.6772
 2838SOL    MW411425   1.747   0.143   4.494  0.4981 -0.0797 -0.0730
 2839SOL     OW11426   3.763   2.728   4.460 -0.3384  0.1558 -0.2866
 2839SOL    HW211427   3.784   2.663   4.527  0.8867 -0.2470 -1.0477
 2839SOL    HW311428   3.744   2.808   4.510 -1.6729 -0.7217  0.6352
 2839SOL    MW411429   3.763   2.730   4.475 -0.3529 -0.0134 -0.2651
 2840SOL     OW11430   1.168   2.622   4.788  0.0763 -0.2018  0.2736
 2840SOL    HW211431   1.230   2.548   4.782  1.1318  0.8192 -2.3188
 2840SOL    HW311432   1.089   2.589   4.746  0.4027 -0.0388 -0.4894
 2840SOL    MW411433   1.166   2.608   4.782  0.2587 -0.0455 -0.1688
 2841SOL     OW11434   2.238   1.685   4.246  0.3477 -0.0358 -0.1707
 2841SOL    HW211435   2.203   1.646   4.326  0.6846  0.2821  0.1335
 2841SOL    HW311436   2.313   1.630   4.224  0.9309  0.5456  0.3587
 2841SOL    MW411437   2.243   1.673   4.254  0.4694  0.0829 -0.0606
 2842SOL     OW11438   2.590   0.814   4.186 -0.0853  0.0912 -0.1193
 2842SOL    HW211439   2.530   0.772   4.247  0.9093 -2.8435 -1.0495
 2842SOL    HW311440   2.554   0.793   4.099  2.1061 -1.4844 -0.6763
 2842SOL    MW411441   2.577   0.806   4.182  0.3350 -0.5038 -0.3161
 2843SOL     OW11442   2.906   3.493   4.500 -0.3826  0.1998  0.1931
 2843SOL    HW211443   2.890   3.521   4.409  0.2376  0.3009  0.1140
 2843SOL    HW311444   2.968   3.420   4.492 -0.4894  0.0740  0.5225
 2843SOL    MW411445   2.912   3.487   4.487 -0.3150  0.1967  0.2260
 2844SOL     OW11446   0.935   1.695   4.218  0.3824 -0.2768  0.5173
 2844SOL    HW211447   1.005   1.643   4.179  0.4866 -0.8460  1.4393
 2844SOL    HW311448   0.855   1.643   4.205  0.2886 -0.0833  0.3231
 2844SOL    MW411449   0.933   1.681   4.211  0.3837 -0.3263  0.6137
 2845SOL     OW11450   4.445   1.669   4.838  0.8680  0.0215  0.3866
 2845SOL    HW211451   4.513   1.604   4.851  0.0571 -0.9443 -0.1975
 2845SOL    HW311452   4.491   1.745   4.801  1.6957 -0.4368  0.4725
 2845SOL    MW411453   4.460   1.671   4.835  0.8702 -0.1665  0.3209
 2846SOL     OW11454   3.343   4.340   4.206 -0.1675  0.1278 -0.1221
 2846SOL    HW211455   3.423   4.287   4.213 -0.3682 -0.1877 -0.1793
 2846SOL    HW311456   3.303   4.334   4.293 -0.4407 -0.2193 -0.2698
 2846SOL    MW411457   3.348   4.332   4.219 -0.2301  0.0405 -0.1483
 2847SOL     OW11458   2.267   1.123   4.113  0.0285  0.0948  0.3126
 2847SOL    HW211459   2.247   1.036   4.147  0.0721 -0.3668 -0.8149
 2847SOL    HW311460   2.342   1.153   4.165 -1.1545  0.2657  1.9923
 2847SOL    MW411461   2.274   1.116   4.125 -0.1218  0.0565  0.3853
 2848SOL     OW11462   1.229   2.087   4.745 -0.2682  0.0931  0.1625
 2848SOL    HW211463   1.223   2.127   4.832 -1.8704  1.4921 -0.5435
 2848SOL    HW311464   1.264   2.156   4.689  1.4041 -1.0190 -0.1914
 2848SOL    MW411465   1.233   2.102   4.749 -0.2589  0.1309  0.0224
 2849SOL     OW11466   0.228   3.353   4.496  0.2154 -0.3634  0.5006
 2849SOL    HW211467   0.320   3.340   4.523  0.3158  1.3236  1.0127
 2849SOL    HW311468   0.186   3.269   4.515  1.7689 -1.3311 -0.2439
 2849SOL    MW411469   0.235   3.340   4.502  0.4337 -0.2682  0.4702
 2850SOL     OW11470   2.061   0.584   4.510  0.3711 -0.5162  0.2006
 2850SOL    HW211471   2.046   0.551   4.422  0.5601  0.4889 -0.2117
 2850SOL    HW311472   2.155   0.600   4.515  0.3629 -0.5736  0.5845
 2850SOL    MW411473   2.071   0.582   4.499  0.3951 -0.3912  0.1969
 2851SOL     OW11474   4.269   1.540   4.178  0.0526  0.4514  0.1546
 2851SOL    HW211475   4.267   1.447   4.203 -0.2154  0.1887 -0.8126
 2851SOL    HW311476   4.273   1.539   4.082  0.1427  1.4427  0.1396
 2851SOL    MW411477   4.269   1.527   4.168  0.0296  0.5474  0.0253
 2852SOL     OW11478   3.813   2.065   4.567  0.2141 -0.1408  0.2170
 2852SOL    HW211479   3.826   2.062   4.472 -0.6589  0.5646  0.0708
 2852SOL    HW311480   3.718   2.072   4.578  0.4228  1.4658  1.1090
 2852SOL    MW411481   3.802   2.065   4.556  0.1264  0.1643  0.3152
 2853SOL     OW11482   3.352   3.842   4.105  0.2369  0.3716  0.0332
 2853SOL    HW211483   3.340   3.863   4.012  2.6069  3.3961  0.2893
 2853SOL    HW311484   3.280   3.887   4.149 -1.3553 -1.7351 -0.3818
 2853SOL    MW411485   3.341   3.851   4.098  0.3395  0.4926  0.0129
 2854SOL     OW11486   3.784   2.302   4.187  0.1034 -0.0962 -0.4514
 2854SOL    HW211487   3.707   2.355   4.205  0.3998  0.7610 -1.6586
 2854SOL    HW311488   3.777   2.280   4.094  1.9401  1.0587 -0.8936
 2854SOL    MW411489   3.773   2.306   4.177  0.3848  0.1693 -0.6690
 2855SOL     OW11490   3.479   3.605   4.477 -0.3055 -0.3783 -0.3663
 2855SOL    HW211491   3.468   3.617   4.383  0.3562  0.9717 -0.2763
 2855SOL    HW311492   3.416   3.666   4.517  0.5212  0.1879  0.0774
 2855SOL    MW411493   3.469   3.615   4.470 -0.1092 -0.1252 -0.2966
 2856SOL     OW11494   2.063   4.120   4.626 -0.1682  0.3662 -0.4908
 2856SOL    HW211495   2.064   4.214   4.638 -0.2548  0.3813 -0.6006
 2856SOL    HW311496   1.972   4.099   4.606 -0.1557  0.2563 -0.4341
 2856SOL    MW411497   2.051   4.129   4.625 -0.1781  0.3533 -0.4978
 2857SOL     OW11498   2.161   2.920   4.675 -0.1859 -0.6630  0.0719
 2857SOL    HW211499   2.136   2.893   4.586 -0.3918  0.1743 -0.1227
 2857SOL    HW311500   2.078   2.945   4.716 -0.2505 -2.1664  0.8893
 2857SOL    MW411501   2.146   2.919   4.669 -0.2215 -0.7510  0.1545
 2858SOL     OW11502   2.500   4.478   4.509 -0.3133 -0.2405 -0.2758
 2858SOL    HW211503   2.435   4.520   4.565 -0.2867 -0.8094  0.1850
 2858SOL    HW311504   2.522   4.397   4.555 -0.6881 -0.9753 -1.3715
 2858SOL    MW411505   2.494   4.473   4.522 -0.3593 -0.4125 -0.3595
 2859SOL     OW11506   0.554   2.802   4.485 -0.3626  0.1945  0.3633
 2859SOL    HW211507   0.562   2.801   4.390  0.2631 -0.3292  0.4113
 2859SOL    HW311508   0.486   2.866   4.504  0.5848  1.4471 -0.3679
 2859SOL    MW411509   0.546   2.810   4.475 -0.1550  0.2909  0.2732
 2860SOL     OW11510   2.811   3.152   4.510  0.1421  0.0571 -0.1700
 2860SOL    HW211511   2.765   3.171   4.592 -1.6621 -0.6557 -0.9959
 2860SOL    HW311512   2.895   3.198   4.518 -0.3683  0.6962  1.7054
 2860SOL    MW411513   2.816   3.161   4.522 -0.1631  0.0474 -0.0319
 2861SOL     OW11514   3.568   3.936   4.535  0.0601 -0.2008 -0.4361
 2861SOL    HW211515   3.477   3.923   4.561 -0.1929  0.7941 -0.7762
 2861SOL    HW311516   3.563   3.956   4.442  0.6981 -0.8953 -0.6191
 2861SOL    MW411517   3.555   3.937   4.526  0.1109 -0.1612 -0.5050
 2862SOL     OW11518   3.314   3.365   4.558 -0.1383 -0.2821  0.1807
 2862SOL    HW211519   3.370   3.288   4.551 -1.5619 -1.3816  0.6091
 2862SOL    HW311520   3.366   3.436   4.522  1.3248 -1.3801  0.0866
 2862SOL    MW411521   3.328   3.364   4.552 -0.1330 -0.5720  0.2251
 2863SOL     OW11522   1.246   3.030   4.637 -0.3242 -0.4339  0.0134
 2863SOL    HW211523   1.155   3.036   4.667 -0.3536 -0.9338  0.0285
 2863SOL    HW311524   1.295   3.084   4.699 -0.8117  1.0318 -0.8711
 2863SOL    MW411525   1.240   3.038   4.649 -0.3923 -0.3061 -0.1016
 2864SOL     OW11526   1.559   1.071   4.436  0.0673  0.0005 -0.2856
 2864SOL    HW211527   1.560   1.166   4.445  0.8352 -0.0203 -0.0750
 2864SOL    HW311528   1.528   1.038   4.520  1.3240  0.0149  0.1910
 2864SOL    MW411529   1.555   1.079   4.448  0.3344 -0.0004 -0.1950
 2865SOL     OW11530   4.050   0.875   4.299  0.1180 -0.5458  0.0720
 2865SOL    HW211531   3.970   0.834   4.265  0.5749 -2.6402  1.4651
 2865SOL    HW311532   4.120   0.816   4.272  0.7025 -1.1070  2.7321
 2865SOL    MW411533   4.048   0.862   4.291  0.2556 -0.8962  0.6070
 2866SOL     OW11534   0.271   2.126   4.500 -0.1543 -0.2087  0.0257
 2866SOL    HW211535   0.185   2.150   4.534 -0.7210 -1.6035 -0.3652
 2866SOL    HW311536   0.301   2.057   4.559  1.4903  1.4831  1.2170
 2866SOL    MW411537   0.264   2.120   4.512 -0.0121 -0.1695  0.1311
 2867SOL     OW11538   3.198   0.894   4.518 -0.0471 -0.2570 -0.2029
 2867SOL    HW211539   3.110   0.901   4.480  0.5032 -0.4627 -1.5615
 2867SOL    HW311540   3.193   0.940   4.602 -0.9881  1.2574 -1.0783
 2867SOL    MW411541   3.186   0.901   4.524 -0.0987 -0.0843 -0.4978
 2868SOL     OW11542   1.177   1.316   4.213  0.1637  0.6335 -0.3899
 2868SOL    HW211543   1.249   1.256   4.193  1.3093  1.1798  1.8882
 2868SOL    HW311544   1.098   1.265   4.195  1.1239 -0.8882 -0.4429
 2868SOL    MW411545   1.176   1.301   4.208  0.4414  0.5049 -0.0968
 2869SOL     OW11546   4.288   3.765   4.678 -0.3847  0.2941  0.0157
 2869SOL    HW211547   4.200   3.797   4.660 -0.2002  0.9695  0.3170
 2869SOL    HW311548   4.302   3.696   4.614 -1.6632 -0.7645  0.8563
 2869SOL    MW411549   4.279   3.760   4.667 -0.5288  0.2434  0.1659
 2870SOL     OW11550   2.037   1.247   4.264  0.5152  0.2466  0.1621
 2870SOL    HW211551   2.046   1.275   4.355  0.3071  0.7783  0.0208
 2870SOL    HW311552   2.127   1.227   4.236  0.5265 -0.3273  0.6114
 2870SOL    MW411553   2.050   1.248   4.272  0.4890  0.2409  0.2027
 2871SOL     OW11554   1.930   0.419   4.719 -0.4081 -0.2469  0.0645
 2871SOL    HW211555   1.985   0.478   4.667 -1.4595  0.6139 -0.0817
 2871SOL    HW311556   1.966   0.332   4.702  0.2934  0.2048 -0.8175
 2871SOL    MW411557   1.942   0.415   4.710 -0.4543 -0.0737 -0.0710
 2872SOL     OW11558   1.837   1.434   4.601  0.2012  0.3900  0.4888
 2872SOL    HW211559   1.851   1.519   4.560  0.4890  0.5667  0.9577
 2872SOL    HW311560   1.786   1.453   4.680 -1.4263 -0.0772 -0.4170
 2872SOL    MW411561   1.832   1.448   4.606  0.0246  0.3517  0.4315
 2873SOL     OW11562   1.043   2.730   4.480  0.2471  0.5071 -0.1975
 2873SOL    HW211563   1.015   2.645   4.513  0.5672 -0.2865 -1.9523
 2873SOL    HW311564   1.137   2.734   4.498  0.7796 -0.6774 -2.5795
 2873SOL    MW411565   1.051   2.719   4.487  0.3597  0.2460 -0.7434
 2874SOL     OW11566   4.284   2.308   4.226 -0.3699 -0.5788  0.4409
 2874SOL    HW211567   4.283   2.213   4.237 -0.8829 -0.6057  0.1650
 2874SOL    HW311568   4.206   2.338   4.274 -0.7023 -0.3826 -0.2262
 2874SOL    MW411569   4.274   2.299   4.234 -0.4816 -0.5560  0.3161
 2875SOL     OW11570   0.726   1.257   4.262  0.3492  0.2549 -0.1440
 2875SOL    HW211571   0.718   1.281   4.354 -0.6241  0.5395 -0.3038
 2875SOL    HW311572   0.743   1.340   4.217 -1.8435  0.4999 -0.5486
 2875SOL    MW411573   0.727   1.271   4.268 -0.0685  0.3247 -0.2184
 2876SOL     OW11574   0.622   4.064   4.650 -0.5115  0.2573 -0.0991
 2876SOL    HW211575   0.672   4.075   4.569  0.0380 -0.2000  0.1673
 2876SOL    HW311576   0.598   4.152   4.677  0.6676  0.5322  0.0774
 2876SOL    MW411577   0.625   4.077   4.643 -0.2834  0.2327 -0.0405
 2877SOL     OW11578   3.657   1.894   4.178 -0.0397 -0.2646 -0.4251
 2877SOL    HW211579   3.635   1.906   4.085  0.0591 -0.7521 -0.5142
 2877SOL    HW311580   3.636   1.802   4.195 -0.1895 -0.1365  0.0736
 2877SOL    MW411581   3.652   1.883   4.168 -0.0463 -0.3121 -0.3715
 2878SOL     OW11582   0.048   2.425   4.265 -0.0446 -0.3717 -0.0040
 2878SOL    HW211583  -0.041   2.403   4.237 -0.9424  0.4296  2.0756
 2878SOL    HW311584   0.060   2.517   4.240 -1.0130  0.4800  2.5054
 2878SOL    MW411585   0.038   2.434   4.258 -0.2908 -0.1535  0.6013
 2879SOL     OW11586   3.374   2.288   4.616  0.9648  0.0135  0.3035
 2879SOL    HW211587   3.281   2.279   4.594  1.4486 -0.4847 -1.6179
 2879SOL    HW311588   3.377   2.283   4.712 -0.9571 -0.1678  0.3658
 2879SOL    MW411589   3.362   2.287   4.626  0.7749 -0.0763  0.0582
 2880SOL     OW11590   0.874   3.935   4.787  0.5023  0.4397  0.0332
 2880SOL    HW211591   0.802   3.993   4.762  1.1724  0.7856 -1.1685
 2880SOL    HW311592   0.833   3.850   4.800 -0.2014  0.7515 -0.1100
 2880SOL    MW411593   0.859   3.931   4.785  0.4979  0.5264 -0.1440
 2881SOL     OW11594   0.967   4.327   4.546 -0.3860  0.0248  0.0168
 2881SOL    HW211595   1.000   4.342   4.458 -0.9026 -3.0127 -0.7494
 2881SOL    HW311596   0.888   4.381   4.551  0.0358  0.7600 -1.1433
 2881SOL    MW411597   0.961   4.336   4.535 -0.3986 -0.2789 -0.2375
 2882SOL     OW11598   0.659   0.472   4.291  0.0965 -0.1033 -0.4068
 2882SOL    HW211599   0.675   0.564   4.269 -0.5268  0.1077  0.0055
 2882SOL    HW311600   0.585   0.447   4.236  0.8515 -0.6342 -1.1992
 2882SOL    MW411601   0.651   0.481   4.280  0.1139 -0.1455 -0.4568
 2883SOL     OW11602   4.039   3.448   4.152  0.0328 -0.6621 -0.1416
 2883SOL    HW211603   4.119   3.489   4.185 -0.5424  0.1623  0.2320
 2883SOL    HW311604   4.040   3.465   4.058 -0.3130  0.4210  0.0400
 2883SOL    MW411605   4.050   3.456   4.144 -0.0892 -0.4108 -0.0687
 2884SOL     OW11606   1.130   4.393   4.307  0.0311 -0.0217 -0.4520
 2884SOL    HW211607   1.095   4.342   4.234  0.3626  0.3559 -0.8824
 2884SOL    HW311608   1.132   4.483   4.275  0.2923  0.1287 -0.0221
 2884SOL    MW411609   1.126   4.398   4.293  0.1093  0.0482 -0.4520
 2885SOL     OW11610   0.150   0.007   4.473  0.3246  0.4459  0.1230
 2885SOL    HW211611   0.218   0.040   4.531  0.1410  0.6069  0.2446
 2885SOL    HW311612   0.196  -0.012   4.391  0.7944 -0.7908  0.6498
 2885SOL    MW411613   0.165   0.009   4.470  0.3623  0.3037  0.2089
 2886SOL     OW11614   0.952   2.500   4.654 -0.0084  0.2748  0.5483
 2886SOL    HW211615   0.860   2.504   4.627 -0.0805 -0.3156  0.6831
 2886SOL    HW311616   0.969   2.406   4.665  1.0973  0.2475 -1.1825
 2886SOL    MW411617   0.942   2.488   4.652  0.1280  0.1934  0.3376
 2887NA      NA11618   0.150   0.455   0.605  0.0514  0.2588  0.1415
 2888NA      NA11619   2.419   4.402   0.490 -0.2548  0.5566  0.2540
   4.49070   4.66690  10.00000
