Gromacs Runs On Most of All Computer Systems in water
11619
    1RU5    O5'    1   1.543   2.401   4.873  0.4707  0.2611 -0.4116
    1RU5    H5T    2   1.636   2.426   4.875  0.1129  1.6015  0.3829
    1RU5    C5'    3   1.511   2.388   4.733 -0.5615 -0.5457  0.1825
    1RU5   H5'1    4   1.492   2.485   4.687 -0.5056  0.4640  2.2072
    1RU5   H5'2    5   1.418   2.331   4.735 -0.5290 -0.6215 -0.4072
    1RU5    C4'    6   1.620   2.306   4.656 -0.1602  0.3186 -0.1346
    1RU5    H4'    7   1.713   2.356   4.683 -0.6143  0.5207  1.0915
    1RU5    O4'    8   1.625   2.168   4.696  0.0939 -0.3205  0.1488
    1RU5    C1'    9   1.576   2.094   4.585  0.2690  0.3162  0.3886
    1RU5    H1'   10   1.658   2.037   4.541 -0.6994 -0.4201 -0.4985
    1RU5     N1   11   1.479   1.990   4.633  0.1629  0.0915  0.4769
    1RU5     C6   12   1.405   2.012   4.747  0.2630 -0.3841 -0.3083
    1RU5     H6   13   1.433   2.091   4.815 -0.4394 -0.5084  0.1342
    1RU5     C5   14   1.299   1.936   4.778  0.3790  0.5406  0.4111
    1RU5     H5   15   1.238   1.952   4.866 -0.5746  1.2932 -0.3717
    1RU5     C4   16   1.255   1.836   4.692  1.2223  0.3807 -0.2634
    1RU5     O4   17   1.152   1.771   4.702 -0.1577 -0.0300  0.2700
    1RU5     N3   18   1.330   1.818   4.582 -0.0174  0.4900 -0.0236
    1RU5     H3   19   1.300   1.739   4.525  0.5240  0.0025  0.3623
    1RU5     C2   20   1.439   1.888   4.549  0.0645 -0.0245 -0.0448
    1RU5     O2   21   1.505   1.862   4.447  0.5155 -0.2447  0.0605
    1RU5    C3'   22   1.595   2.314   4.502 -0.1920 -0.1694  0.2399
    1RU5    H3'   23   1.537   2.402   4.475 -0.8615 -1.0091 -1.0999
    1RU5    C2'   24   1.512   2.186   4.486 -0.0192  0.6830  0.0387
    1RU5   H2'1   25   1.411   2.213   4.514  0.4687  2.1956  0.3654
    1RU5    O2'   26   1.519   2.130   4.350 -0.0434  0.5606  0.2867
    1RU5   HO'2   27   1.550   2.199   4.292  1.8338 -0.2429  0.3140
    1RU5    O3'   28   1.714   2.314   4.419  0.1345 -0.0086  0.5580
    2RG       P   29   1.786   2.447   4.362  0.1177 -0.0467  0.5224
    2RG     O1P   30   1.744   2.558   4.449  0.0472 -0.4592 -0.0179
    2RG     O2P   31   1.763   2.458   4.217 -0.4027 -0.4887  0.7824
    2RG     O5'   32   1.944   2.431   4.379 -0.4159 -0.0074 -0.5071
    2RG     C5'   33   2.009   2.438   4.502  0.1273  0.3097  0.7498
    2RG    H5'1   34   1.965   2.514   4.567  0.4689  0.1806  1.1411
    2RG    H5'2   35   2.115   2.467   4.500  0.2387 -0.1562 -0.0491
    2RG     C4'   36   1.996   2.295   4.566 -0.3107 -0.3153 -0.0934
    2RG     H4'   37   1.889   2.277   4.576 -0.2319 -0.9995 -0.4473
    2RG     O4'   38   2.049   2.191   4.479  0.1193  0.6183 -0.3416
    2RG     C1'   39   2.104   2.091   4.568  0.8990 -0.4169 -0.0584
    2RG     H1'   40   2.072   1.990   4.541 -0.6395  0.0475 -0.0221
    2RG      N9   41   2.249   2.097   4.563 -0.1591 -0.3785  0.1400
    2RG      C8   42   2.337   2.203   4.554  0.2056 -0.6982 -0.1169
    2RG      H8   43   2.309   2.307   4.541  0.7995 -0.6831 -1.4097
    2RG      N7   44   2.465   2.163   4.560  0.3568 -0.4925 -0.0971
    2RG      C5   45   2.461   2.026   4.567 -0.3354  0.7974 -0.5533
    2RG      C6   46   2.566   1.924   4.571 -0.2966 -0.1841 -0.3486
    2RG      O6   47   2.690   1.943   4.577 -0.0568  0.3415 -1.1679
    2RG      N1   48   2.517   1.796   4.571  0.0134 -0.3688 -0.0287
    2RG      H1   49   2.585   1.726   4.546  1.1656  0.9033 -0.5100
    2RG      C2   50   2.389   1.763   4.577 -0.3935 -0.2823 -0.3457
    2RG      N2   51   2.370   1.634   4.596  0.0440 -0.1925 -0.2586
    2RG     H21   52   2.454   1.579   4.606  0.2675  0.0722 -0.6528
    2RG     H22   53   2.282   1.585   4.600 -0.6058  0.8033 -1.8403
    2RG      N3   54   2.288   1.853   4.583 -0.0273 -0.1978  0.3749
    2RG      C4   55   2.329   1.984   4.572 -0.1304  0.1756 -0.2150
    2RG     C3'   56   2.048   2.279   4.711 -0.4724 -0.8409  0.2145
    2RG     H3'   57   2.150   2.316   4.719 -0.7931  0.6797 -1.9965
    2RG     C2'   58   2.059   2.128   4.709 -0.2512  0.4183  0.2566
    2RG    H2'1   59   2.131   2.091   4.782  0.2819 -0.6056 -0.7843
    2RG     O2'   60   1.931   2.062   4.727 -0.3712 -0.0488 -0.0413
    2RG    HO'2   61   1.897   2.099   4.809  1.1024  1.1849  0.0417
    2RG     O3'   62   1.965   2.319   4.818 -0.0700  0.1453 -0.4525
    3RG3      P   63   1.958   2.465   4.866  0.2906  0.5072 -0.0439
    3RG3    O1P   64   1.819   2.511   4.857  0.2495 -0.0344  0.2578
    3RG3    O2P   65   2.065   2.547   4.810 -0.1694 -0.5990  0.2289
    3RG3    O5'   66   1.984   2.428   5.017  0.2391  0.3349 -0.3899
    3RG3    C5'   67   1.878   2.385   5.104  0.2754 -0.2151 -0.2438
    3RG3   H5'1   68   1.907   2.299   5.165 -0.0217  0.1497  0.4186
    3RG3   H5'2   69   1.784   2.353   5.058  0.7618 -1.1067 -0.6250
    3RG3    C4'   70   1.843   2.492   5.213 -0.4507 -0.3109  0.2632
    3RG3    H4'   71   1.778   2.450   5.289  0.6448  2.0930  2.5899
    3RG3    O4'   72   1.961   2.534   5.277  0.2728  0.2252  0.2701
    3RG3    C1'   73   1.989   2.661   5.226  0.0346  0.0446  0.1698
    3RG3    H1'   74   1.989   2.727   5.313  0.8123  0.4787 -0.1520
    3RG3     N9   75   2.121   2.664   5.161 -0.6084  0.0883  0.3398
    3RG3     C8   76   2.211   2.562   5.164  0.2070 -0.2493  0.0887
    3RG3     H8   77   2.186   2.471   5.215 -0.7685 -0.2200 -0.3330
    3RG3     N7   78   2.324   2.583   5.116  0.0435 -0.0537 -0.5797
    3RG3     C5   79   2.319   2.715   5.081 -0.3021  0.0939  0.3271
    3RG3     C6   80   2.414   2.814   5.020 -0.5941 -0.0739 -0.4179
    3RG3     O6   81   2.528   2.791   4.976  0.2314  0.3191  0.6068
    3RG3     N1   82   2.362   2.939   5.001  0.6199 -0.1528 -0.2985
    3RG3     H1   83   2.418   3.001   4.944  1.6210 -1.5325 -0.8524
    3RG3     C2   84   2.237   2.977   5.028 -0.0385  1.0284 -0.5090
    3RG3     N2   85   2.202   3.097   4.994 -0.5127 -0.1234 -0.0705
    3RG3    H21   86   2.111   3.128   5.026 -0.2095  0.6212  0.0647
    3RG3    H22   87   2.271   3.166   4.971 -0.9536  0.1067 -0.7260
    3RG3     N3   88   2.147   2.897   5.084 -0.0934  0.4509 -0.4289
    3RG3     C4   89   2.191   2.770   5.105  0.3425  0.1758 -0.3000
    3RG3    C3'   90   1.771   2.618   5.151  0.2375 -0.3730 -0.1909
    3RG3    H3'   91   1.718   2.596   5.058  0.8364  1.0639 -0.8788
    3RG3    C2'   92   1.883   2.716   5.130  0.1974  0.1705  0.3014
    3RG3   H2'1   93   1.916   2.706   5.026 -4.6871  1.7618 -1.5422
    3RG3    O2'   94   1.857   2.851   5.165 -0.0265  0.3369  0.0122
    3RG3   HO'2   95   1.931   2.899   5.128  0.0987  0.0227 -0.1466
    3RG3    O3'   96   1.689   2.664   5.252 -0.6719 -0.5924  0.0379
    3RG3    H3T   97   1.716   2.756   5.260  0.3320 -0.6637 -2.1534
    7SOL     OW   98   2.555   0.751   0.430 -0.1849 -0.3363 -0.2381
    7SOL    HW2   99   2.469   0.792   0.424 -0.2830 -0.5413 -0.2439
    7SOL    HW3  100   2.616   0.824   0.437 -0.2426 -0.1490 -1.6510
    7SOL    MW4  101   2.552   0.766   0.430 -0.2055 -0.3386 -0.4253
    8SOL     OW  102   0.523   3.475   0.312 -0.4325  0.1828 -0.1813
    8SOL    HW2  103   0.486   3.468   0.225 -0.6126  0.6427 -0.1407
    8SOL    HW3  104   0.534   3.384   0.341  1.1598 -0.0071 -1.3279
    8SOL    MW4  105   0.520   3.462   0.305 -0.2462  0.2184 -0.3272
    9SOL     OW  106   2.659   2.372   0.726  0.6888 -0.2020 -0.0114
    9SOL    HW2  107   2.722   2.313   0.766  1.3130  0.4392 -0.0325
    9SOL    HW3  108   2.578   2.356   0.774  0.7751 -1.2719 -0.2094
    9SOL    MW4  109   2.657   2.362   0.738  0.7825 -0.2584 -0.0404
   10SOL     OW  110   4.032   0.341   0.856 -0.1885  0.0790  0.2387
   10SOL    HW2  111   4.109   0.396   0.841  0.2870 -0.9755 -1.3342
   10SOL    HW3  112   3.965   0.378   0.799  0.7593 -2.2013 -2.4341
   10SOL    MW4  113   4.033   0.353   0.847 -0.0005 -0.3611 -0.3215
   11SOL     OW  114   3.501   1.628   0.685 -0.1486  0.6766 -0.3214
   11SOL    HW2  115   3.569   1.561   0.674  0.3432  1.2281 -0.6137
   11SOL    HW3  116   3.469   1.645   0.597 -2.1152 -1.0838  0.0235
   11SOL    MW4  117   3.506   1.621   0.672 -0.3431  0.5172 -0.3145
   12SOL     OW  118   1.409   1.390   0.463 -0.2449  0.4577  0.7377
   12SOL    HW2  119   1.318   1.362   0.461 -0.3336  0.7653 -0.8145
   12SOL    HW3  120   1.406   1.483   0.484 -0.4593  0.9806 -1.4723
   12SOL    MW4  121   1.397   1.399   0.465 -0.2848  0.5673  0.2413
   13SOL     OW  122   1.304   0.130   0.454  0.1422  0.3602 -0.3384
   13SOL    HW2  123   1.266   0.044   0.437  0.8659  0.0816 -0.6103
   13SOL    HW3  124   1.324   0.130   0.547  0.7659 -0.0359 -0.4644
   13SOL    MW4  125   1.302   0.118   0.464  0.3200  0.2712 -0.3909
   14SOL     OW  126   0.687   0.715   1.108  0.3008 -0.6341  0.3473
   14SOL    HW2  127   0.660   0.746   1.022 -1.1670  0.1015  1.0629
   14SOL    HW3  128   0.630   0.760   1.170  0.7070 -1.8509  1.6546
   14SOL    MW4  129   0.676   0.725   1.105  0.1608 -0.6976  0.6142
   15SOL     OW  130   1.401   1.120   0.859  0.2114  0.1087  0.1965
   15SOL    HW2  131   1.325   1.177   0.843  0.1822 -0.4375 -1.7852
   15SOL    HW3  132   1.476   1.179   0.856 -0.1031  0.6250  1.9814
   15SOL    MW4  133   1.401   1.135   0.857  0.1661  0.1047  0.1705
   16SOL     OW  134   1.309   2.414   0.441  0.1906  0.1407  0.6784
   16SOL    HW2  135   1.331   2.507   0.433  1.8427 -0.0887  2.1462
   16SOL    HW3  136   1.387   2.369   0.407 -0.8699 -0.7201 -0.6549
   16SOL    MW4  137   1.322   2.420   0.436  0.2687 -0.0033  0.6962
   17SOL     OW  138   2.732   4.376   0.461  0.3152  0.0646  0.3897
   17SOL    HW2  139   2.788   4.303   0.434  0.6343  0.2630  0.5050
   17SOL    HW3  140   2.791   4.435   0.508 -0.0501  0.1453  0.7529
   17SOL    MW4  141   2.747   4.374   0.463  0.3092  0.1011  0.4528
   18SOL     OW  142   4.256   2.331   1.072 -0.7604 -0.2266  0.4393
   18SOL    HW2  143   4.232   2.285   0.992 -0.1090 -0.0136  0.1127
   18SOL    HW3  144   4.173   2.360   1.110 -1.0257  0.3283 -0.5536
   18SOL    MW4  145   4.242   2.329   1.067 -0.7095 -0.1252  0.2651
   19SOL     OW  146   1.361   2.730   0.450 -0.1409 -0.3302 -0.1348
   19SOL    HW2  147   1.442   2.770   0.421 -0.2216  0.5045  0.7720
   19SOL    HW3  148   1.377   2.706   0.541  0.0421 -2.7293 -0.7604
   19SOL    MW4  149   1.373   2.732   0.458 -0.1273 -0.5367 -0.0977
   20SOL     OW  150   4.443   1.653   0.493 -0.3301  0.3686  0.4854
   20SOL    HW2  151   4.356   1.628   0.462  0.0904  0.7784 -1.0771
   20SOL    HW3  152   4.470   1.723   0.434  1.5126 -0.4903  0.2873
   20SOL    MW4  153   4.435   1.659   0.481 -0.0319  0.3093  0.2531
   21SOL     OW  154   4.073   4.213   0.683  0.5550 -0.4007  0.3738
   21SOL    HW2  155   4.140   4.278   0.703  0.5276  0.2460 -1.6026
   21SOL    HW3  156   3.992   4.251   0.717  0.7697 -0.0657  0.5160
   21SOL    MW4  157   4.071   4.226   0.690  0.5794 -0.2713  0.1318
   22SOL     OW  158   1.841   1.887   0.877  0.1674  0.2697 -0.0262
   22SOL    HW2  159   1.874   1.939   0.804  1.3591  0.8395  0.8889
   22SOL    HW3  160   1.868   1.798   0.857  0.5835  0.4406 -0.2326
   22SOL    MW4  161   1.849   1.882   0.865  0.3794  0.3675  0.0672
   23SOL     OW  162   1.654   3.583   0.849  0.1388  0.1129 -0.2012
   23SOL    HW2  163   1.682   3.560   0.938 -0.6700 -1.4498 -0.3522
   23SOL    HW3  164   1.631   3.676   0.855 -0.2553 -0.0665  1.3117
   23SOL    MW4  165   1.655   3.592   0.862 -0.0199 -0.1168 -0.0215
   24SOL     OW  166   4.156   0.139   0.675  0.5513  0.3021  0.4002
   24SOL    HW2  167   4.110   0.211   0.717 -0.4341  0.9685 -1.7273
   24SOL    HW3  168   4.201   0.179   0.601 -0.6253 -1.3707 -1.2705
   24SOL    MW4  169   4.156   0.154   0.671  0.2670  0.1693 -0.1009
   25SOL     OW  170   2.259   2.322   0.460  0.2072 -0.1255  0.3449
   25SOL    HW2  171   2.243   2.343   0.552 -0.6308 -2.1806  0.7007
   25SOL    HW3  172   2.311   2.241   0.463 -1.6916 -1.4256 -0.9931
   25SOL    MW4  173   2.264   2.314   0.472 -0.1543 -0.5682  0.2153
   26SOL     OW  174   1.112   2.883   0.477  0.3102 -0.0620 -0.1082
   26SOL    HW2  175   1.112   2.910   0.569  1.6087 -0.3896 -0.0010
   26SOL    HW3  176   1.192   2.832   0.467  0.0266 -0.2776 -1.3548
   26SOL    MW4  177   1.122   2.880   0.488  0.4441 -0.1335 -0.2585
   27SOL     OW  178   3.314   3.026   0.676 -0.2581  0.0597  0.2728
   27SOL    HW2  179   3.382   3.033   0.743  0.0857  1.1721 -0.1897
   27SOL    HW3  180   3.244   3.083   0.707  0.0363  0.8338 -0.4698
   27SOL    MW4  181   3.314   3.034   0.689 -0.1740  0.3085  0.1137
   28SOL     OW  182   0.677   0.988   0.522  0.4249 -0.1227 -0.0700
   28SOL    HW2  183   0.653   0.924   0.590 -0.8642 -0.1655 -0.5574
   28SOL    HW3  184   0.594   1.022   0.490  1.0384  0.2629 -1.2921
   28SOL    MW4  185   0.663   0.984   0.527  0.3358 -0.0775 -0.2955
   29SOL     OW  186   0.682   2.308   0.813 -0.1527  0.0093  0.2322
   29SOL    HW2  187   0.679   2.307   0.909  0.1403 -0.5413  0.2391
   29SOL    HW3  188   0.685   2.215   0.788 -1.9507  0.1011 -0.3671
   29SOL    MW4  189   0.682   2.295   0.822 -0.3513 -0.0515  0.1540
   30SOL     OW  190   0.810   3.834   0.384 -0.0327  0.4522 -0.4418
   30SOL    HW2  191   0.811   3.751   0.431 -0.5759 -0.8087 -2.5795
   30SOL    HW3  192   0.722   3.838   0.346  0.4567  1.3357 -1.4964
   30SOL    MW4  193   0.798   3.823   0.385 -0.0399  0.4027 -0.8630
   31SOL     OW  194   4.052   1.120   0.826 -0.0588 -0.3290 -0.3475
   31SOL    HW2  195   4.045   1.127   0.922 -0.0426  0.4103 -0.3931
   31SOL    HW3  196   4.139   1.155   0.806  1.2183 -3.3519 -0.3670
   31SOL    MW4  197   4.063   1.126   0.836  0.1116 -0.6303 -0.3560
   32SOL     OW  198   1.184   1.272   0.767 -0.1688 -0.1536  0.0826
   32SOL    HW2  199   1.195   1.283   0.673  0.8721  1.0887  0.3416
   32SOL    HW3  200   1.165   1.360   0.799  1.4270 -0.2222  1.2874
   32SOL    MW4  201   1.183   1.285   0.759  0.1792  0.0011  0.2758
   33SOL     OW  202   2.449   1.468   0.819  0.2252 -0.2248  0.3824
   33SOL    HW2  203   2.443   1.382   0.778 -1.6046  0.5209 -1.0088
   33SOL    HW3  204   2.500   1.520   0.757  1.4697 -0.3397  1.2976
   33SOL    MW4  205   2.455   1.464   0.805  0.1481 -0.1415  0.3196
   34SOL     OW  206   0.351   4.341   0.460  0.8315  0.4657  0.0756
   34SOL    HW2  207   0.398   4.260   0.441  1.1396  0.7980 -0.6115
   34SOL    HW3  208   0.297   4.320   0.536  2.0648  0.0598  0.8680
   34SOL    MW4  209   0.350   4.328   0.467  1.0349  0.4563  0.0895
   35SOL     OW  210   1.963   2.934   0.429 -0.1480  0.1760 -0.3297
   35SOL    HW2  211   1.970   2.925   0.524  3.2941 -1.3604 -0.6566
   35SOL    HW3  212   1.895   2.871   0.404 -0.9351  0.4450  1.0843
   35SOL    MW4  213   1.955   2.925   0.439  0.2022  0.0088 -0.1863
   36SOL     OW  214   3.306   3.656   0.601  0.1354 -0.4460  0.1882
   36SOL    HW2  215   3.239   3.609   0.551 -0.4782  0.6715 -0.0629
   36SOL    HW3  216   3.338   3.723   0.540  1.2259 -0.7353  0.4341
   36SOL    MW4  217   3.301   3.659   0.586  0.1986 -0.3369  0.1875
   37SOL     OW  218   0.030   0.842   0.779  0.3760 -0.1243  0.6350
   37SOL    HW2  219   0.105   0.790   0.808  1.0251  0.7104  0.4658
   37SOL    HW3  220   0.036   0.841   0.683  2.3807  3.0662  0.6330
   37SOL    MW4  221   0.041   0.835   0.770  0.7261  0.4069  0.6123
   38SOL     OW  222   3.743   1.020   0.468 -0.3433  0.1047  0.4180
   38SOL    HW2  223   3.756   1.080   0.542 -0.8885  0.4095  0.2704
   38SOL    HW3  224   3.814   0.956   0.476  0.5210  1.0337  0.3062
   38SOL    MW4  225   3.754   1.020   0.479 -0.3011  0.2675  0.3838
   39SOL     OW  226   1.128   0.757   0.804  0.2621  0.6802 -0.0503
   39SOL    HW2  227   1.133   0.750   0.899  1.4607  0.2191 -0.1498
   39SOL    HW3  228   1.116   0.667   0.773 -0.8305  0.8988 -0.3030
   39SOL    MW4  229   1.127   0.744   0.812  0.2762  0.6482 -0.0968
   40SOL     OW  230   4.099   1.758   0.296  0.0563 -0.0423  0.1973
   40SOL    HW2  231   4.014   1.784   0.331 -0.5564 -1.2400 -0.3831
   40SOL    HW3  232   4.079   1.712   0.215  1.3416  0.9002 -0.6888
   40SOL    MW4  233   4.085   1.756   0.290  0.1450 -0.0761  0.0038
   41SOL     OW  234   4.465   3.161   0.738 -0.2538 -0.2804 -0.3576
   41SOL    HW2  235   4.411   3.083   0.725 -0.4813 -0.4498  1.3980
   41SOL    HW3  236   4.532   3.133   0.800 -0.3897  0.9437  0.3528
   41SOL    MW4  237   4.466   3.147   0.745 -0.3014 -0.1414 -0.0322
   42SOL     OW  238   0.248   1.269   0.781 -0.4918  0.2041  0.6274
   42SOL    HW2  239   0.161   1.231   0.797 -1.0636  0.8314 -0.8192
   42SOL    HW3  240   0.239   1.361   0.807 -0.3068  0.3077  0.3263
   42SOL    MW4  241   0.235   1.276   0.786 -0.5429  0.3005  0.3968
   43SOL     OW  242   3.545   4.093   0.414 -0.2653 -0.0295 -0.1709
   43SOL    HW2  243   3.556   4.176   0.460 -3.0501  1.1739 -1.5286
   43SOL    HW3  244   3.591   4.105   0.331  1.2739 -0.7084  0.5655
   43SOL    MW4  245   3.552   4.105   0.409 -0.4299  0.0401 -0.2529
   44SOL     OW  246   1.279   0.396   0.390 -0.0987 -0.1373 -0.2937
   44SOL    HW2  247   1.340   0.449   0.442  0.6148 -0.7460 -0.5061
   44SOL    HW3  248   1.306   0.306   0.405 -0.8780 -0.4075 -0.4885
   44SOL    MW4  249   1.291   0.391   0.399 -0.1073 -0.2532 -0.3474
   45SOL     OW  250   3.399   4.399   0.705 -0.3921  0.1545  0.5814
   45SOL    HW2  251   3.464   4.397   0.634 -1.3640 -0.4357 -0.3113
   45SOL    HW3  252   3.376   4.492   0.712 -0.2312  0.2308  0.1732
   45SOL    MW4  253   3.405   4.411   0.696 -0.4992  0.0868  0.4098
   46SOL     OW  254   0.004   3.923   0.746 -0.4663  0.3982 -0.1253
   46SOL    HW2  255  -0.086   3.892   0.760 -0.9099  0.5174 -2.4344
   46SOL    HW3  256   0.004   3.955   0.656  1.6396  1.3523  0.1919
   46SOL    MW4  257  -0.008   3.923   0.736 -0.2470  0.5398 -0.3880
   47SOL     OW  258   0.444   1.094   0.402  0.1320 -0.1373  0.9041
   47SOL    HW2  259   0.366   1.143   0.428  1.4372  1.8583  1.2169
   47SOL    HW3  260   0.485   1.148   0.335  0.5788 -1.7996 -0.1830
   47SOL    MW4  261   0.439   1.108   0.397  0.3632 -0.0932  0.8019
   48SOL     OW  262   4.069   1.843   0.813  0.1160  0.0883 -0.0416
   48SOL    HW2  263   3.988   1.888   0.786  0.5361  0.3325 -0.9243
   48SOL    HW3  264   4.131   1.863   0.744  0.5861 -1.1010  0.0201
   48SOL    MW4  265   4.066   1.852   0.800  0.2337 -0.0365 -0.1500
   49SOL     OW  266   3.381   0.974   0.344  0.2674  0.1359  0.1220
   49SOL    HW2  267   3.459   0.997   0.293  1.2638 -1.3989  0.9156
   49SOL    HW3  268   3.415   0.927   0.420 -1.2901  1.4301  1.6579
   49SOL    MW4  269   3.396   0.971   0.347  0.1934  0.1042  0.4294
   50SOL     OW  270   4.478   1.664   0.773  0.3995 -0.0677 -0.0717
   50SOL    HW2  271   4.464   1.656   0.678 -1.4563  1.4435  0.0305
   50SOL    HW3  272   4.404   1.618   0.812  1.6564 -1.4925  0.6821
   50SOL    MW4  273   4.466   1.657   0.765  0.3204 -0.0561  0.0412
   51SOL     OW  274   0.391   0.376   0.856  0.2609  0.3301  0.2523
   51SOL    HW2  275   0.415   0.284   0.842  0.5874  0.4958 -0.2676
   51SOL    HW3  276   0.399   0.387   0.951 -1.2933 -0.5893  0.5122
   51SOL    MW4  277   0.395   0.365   0.867  0.0989  0.2307  0.2180
   52SOL     OW  278   3.581   1.904   0.812  0.0530 -0.4018 -0.0071
   52SOL    HW2  279   3.572   1.816   0.776  1.5891 -0.8126  0.5549
   52SOL    HW3  280   3.505   1.951   0.781 -0.9215 -2.0135 -0.1111
   52SOL    MW4  281   3.570   1.898   0.803  0.1271 -0.6688  0.0533
   53SOL     OW  282   3.968   3.508   0.594  0.0369  0.1265  0.1906
   53SOL    HW2  283   4.029   3.464   0.652  0.6695 -2.2847 -2.1978
   53SOL    HW3  284   4.019   3.577   0.552  0.4289 -0.2118  0.1154
   53SOL    MW4  285   3.983   3.511   0.596  0.1719 -0.2360 -0.1344
   54SOL     OW  286   1.621   4.402   0.687  0.2898  0.1402 -0.3735
   54SOL    HW2  287   1.569   4.402   0.607  1.0173  2.2407 -0.8942
   54SOL    HW3  288   1.604   4.488   0.726  3.7108  1.1488 -0.8507
   54SOL    MW4  289   1.612   4.414   0.682  0.8372  0.5507 -0.5051
   55SOL     OW  290   2.211   1.599   0.693 -0.2874 -0.2590  0.0764
   55SOL    HW2  291   2.199   1.684   0.735 -0.3505 -1.4017  2.4550
   55SOL    HW3  292   2.294   1.566   0.730  0.0227 -0.9917 -1.2457
   55SOL    MW4  293   2.221   1.606   0.703 -0.2549 -0.5064  0.2157
   56SOL     OW  294   3.393   0.468   0.773 -0.0776  0.3062 -0.5646
   56SOL    HW2  295   3.471   0.425   0.808  0.7866  2.5720  0.3959
   56SOL    HW3  296   3.373   0.420   0.693  1.8678 -0.7881 -0.4181
   56SOL    MW4  297   3.401   0.456   0.767  0.2933  0.4608 -0.4186
   57SOL     OW  298   4.104   4.378   0.448 -0.2197  0.2750  0.3091
   57SOL    HW2  299   4.199   4.376   0.457 -0.2102 -0.3660  0.0919
   57SOL    HW3  300   4.072   4.311   0.508 -0.5672  0.7867  0.7078
   57SOL    MW4  301   4.113   4.369   0.457 -0.2642  0.2580  0.3331
   58SOL     OW  302   1.585   0.149   0.370  0.2011  0.0173 -0.0808
   58SOL    HW2  303   1.492   0.126   0.377 -0.0696  1.2755  0.5069
   58SOL    HW3  304   1.622   0.079   0.315 -1.4037  0.3836 -1.7074
   58SOL    MW4  305   1.577   0.137   0.363 -0.0463  0.2316 -0.2179
   59SOL     OW  306   1.792   0.137   0.879  0.1299  0.0139  0.2415
   59SOL    HW2  307   1.860   0.070   0.873 -0.9629 -1.1993  0.9158
   59SOL    HW3  308   1.712   0.092   0.852 -0.3248  1.5512 -1.0021
   59SOL    MW4  309   1.790   0.122   0.875 -0.0743  0.0567  0.1664
   60SOL     OW  310   3.670   1.431   0.591  0.2943  0.2343  0.1472
   60SOL    HW2  311   3.624   1.402   0.512  0.4384  1.2210 -0.3098
   60SOL    HW3  312   3.710   1.352   0.626 -0.9137 -0.4585 -0.0098
   60SOL    MW4  313   3.669   1.417   0.585  0.1538  0.2730  0.0662
   61SOL     OW  314   0.091   3.280   0.503  0.6669 -0.1564  0.2559
   61SOL    HW2  315   0.045   3.243   0.579  0.1215 -0.8300 -0.3953
   61SOL    HW3  316   0.042   3.359   0.482  0.4936 -0.2579  0.2769
   61SOL    MW4  317   0.078   3.286   0.511  0.5721 -0.2584  0.1727
   62SOL     OW  318   0.123   2.752   0.411 -0.2559 -0.5372 -0.9534
   62SOL    HW2  319   0.105   2.802   0.331  0.2751 -0.7371 -1.2004
   62SOL    HW3  320   0.200   2.795   0.449 -1.6702  0.7716  0.4864
   62SOL    MW4  321   0.131   2.764   0.405 -0.3724 -0.3910 -0.7960
   63SOL     OW  322   1.966   1.331   9.961 -0.2053 -0.0497  0.0355
   63SOL    HW2  323   1.972   1.333   9.865 -2.0627  1.7554 -0.0779
   63SOL    HW3  324   1.902   1.262   9.980 -0.4911  0.1823 -0.0768
   63SOL    MW4  325   1.958   1.322   9.951 -0.4880  0.2191  0.0057
   64SOL     OW  326   3.343   2.027   0.712  0.5756  0.2747 -0.2885
   64SOL    HW2  327   3.298   2.107   0.738 -0.3436 -0.0731 -0.7827
   64SOL    HW3  328   3.326   2.019   0.618  1.3527 -0.0669 -0.4073
   64SOL    MW4  329   3.335   2.036   0.703  0.5569  0.1841 -0.3694
   65SOL     OW  330   0.895   2.456   0.699 -0.0854  0.1484 -0.0425
   65SOL    HW2  331   0.901   2.539   0.746  0.0771  0.4797 -0.6356
   65SOL    HW3  332   0.819   2.412   0.737  0.0910  0.3783  0.5720
   65SOL    MW4  333   0.885   2.461   0.710 -0.0407  0.2224 -0.0397
   66SOL     OW  334   1.537   1.031   0.323 -0.1606  0.0040 -0.0612
   66SOL    HW2  335   1.450   1.029   0.361  0.2979  0.2371  1.0373
   66SOL    HW3  336   1.583   0.958   0.364 -0.1794 -0.8187 -1.4868
   66SOL    MW4  337   1.532   1.021   0.334 -0.1025 -0.0737 -0.1043
   67SOL     OW  338   0.859   3.297   0.438  0.3018  0.0122 -0.4813
   67SOL    HW2  339   0.765   3.279   0.434  0.1788  0.2082  1.3118
   67SOL    HW3  340   0.899   3.219   0.399 -0.5286 -0.9325  0.5128
   67SOL    MW4  341   0.852   3.285   0.432  0.1760 -0.0868 -0.1135
   68SOL     OW  342   0.370   3.685   0.420 -0.2100  0.0912 -0.3817
   68SOL    HW2  343   0.333   3.660   0.505 -0.2373  0.1976 -0.3613
   68SOL    HW3  344   0.404   3.604   0.384 -2.0130 -0.3480 -1.1731
   68SOL    MW4  345   0.369   3.671   0.427 -0.4515  0.0474 -0.4834
   69SOL     OW  346   1.391   3.482   0.866 -0.6203 -0.2820  0.5188
   69SOL    HW2  347   1.408   3.406   0.811 -1.3877  0.6043 -0.9629
   69SOL    HW3  348   1.477   3.524   0.877 -0.2798 -1.0810  0.9524
   69SOL    MW4  349   1.405   3.478   0.860 -0.6766 -0.2706  0.3806
   70SOL     OW  350   4.477   1.892   1.106 -0.0478 -0.4776  0.8368
   70SOL    HW2  351   4.419   1.959   1.143 -0.5004 -1.2984  1.6342
   70SOL    HW3  352   4.477   1.910   1.012  0.2525  0.9597  1.0980
   70SOL    MW4  353   4.469   1.903   1.099 -0.0682 -0.3963  0.9766
   71SOL     OW  354   0.249   1.949   0.469 -0.3485  0.3222 -0.4557
   71SOL    HW2  355   0.244   1.981   0.559 -1.8859  0.0086 -0.4126
   71SOL    HW3  356   0.258   2.027   0.415  3.6435  0.3732  0.1271
   71SOL    MW4  357   0.250   1.963   0.474 -0.0246  0.2875 -0.3731
   72SOL     OW  358   2.156   3.411   0.346  0.0815  0.2851 -0.0098
   72SOL    HW2  359   2.075   3.360   0.342  1.2510 -1.6043 -0.4113
   72SOL    HW3  360   2.219   3.352   0.389  2.1890  0.3365 -2.8906
   72SOL    MW4  361   2.154   3.396   0.351  0.5140  0.0422 -0.4429
   73SOL     OW  362   1.157   3.611   0.740 -0.0753  0.0603 -0.0862
   73SOL    HW2  363   1.236   3.570   0.775 -0.1198 -0.6176 -0.7593
   73SOL    HW3  364   1.166   3.704   0.762  0.9810  0.0104 -0.2926
   73SOL    MW4  365   1.169   3.618   0.747  0.0583 -0.0358 -0.2022
   74SOL     OW  366   0.483   4.004   0.732 -0.0219  0.6383  0.1081
   74SOL    HW2  367   0.478   4.085   0.782  1.1632  0.9565 -0.2571
   74SOL    HW3  368   0.408   3.952   0.762  1.4879  0.1851  3.3141
   74SOL    MW4  369   0.473   4.008   0.742  0.3336  0.6208  0.4829
   75SOL     OW  370   1.582   1.775   0.376 -0.0115 -0.0815 -0.2549
   75SOL    HW2  371   1.612   1.750   0.289  0.8841 -1.4625  0.4275
   75SOL    HW3  372   1.634   1.721   0.436 -0.9217  0.5270  1.1208
   75SOL    MW4  373   1.593   1.764   0.373 -0.0135 -0.1833  0.0166
   76SOL     OW  374   2.225   2.791   0.106  0.4926 -0.0664  0.2544
   76SOL    HW2  375   2.201   2.794   0.013  1.1302 -0.1213  0.0860
   76SOL    HW3  376   2.311   2.749   0.107  0.2834 -0.4763  0.9116
   76SOL    MW4  377   2.234   2.786   0.094  0.5493 -0.1278  0.3189
   77SOL     OW  378   2.221   0.124   0.763  0.0466 -0.0944 -0.0662
   77SOL    HW2  379   2.291   0.069   0.797 -0.2548 -0.9965 -0.8849
   77SOL    HW3  380   2.225   0.112   0.668 -1.8805 -0.9733 -0.0460
   77SOL    MW4  381   2.231   0.115   0.755 -0.2472 -0.3294 -0.1715
   78SOL     OW  382   0.850   1.681   0.514 -0.3127 -0.1219  0.2834
   78SOL    HW2  383   0.791   1.755   0.500 -0.3114 -0.3539 -1.0348
   78SOL    HW3  384   0.890   1.698   0.599 -1.3112  0.7016  0.6012
   78SOL    MW4  385   0.848   1.693   0.523 -0.4442 -0.0439  0.1515
   79SOL     OW  386   3.503   2.998   0.881  0.2867  0.4603  0.3972
   79SOL    HW2  387   3.474   3.028   0.967 -0.5238 -0.7109  0.5510
   79SOL    HW3  388   3.564   3.065   0.851 -0.4222  1.5310  1.3184
   79SOL    MW4  389   3.507   3.011   0.888  0.0861  0.4468  0.5390
   80SOL     OW  390   1.580   2.026   0.485 -0.7791  0.0568 -0.0144
   80SOL    HW2  391   1.586   2.027   0.581 -0.4433  0.8455 -0.0362
   80SOL    HW3  392   1.583   1.933   0.462 -2.3615 -0.2177  0.8305
   80SOL    MW4  393   1.581   2.014   0.495 -0.9437  0.1249  0.0941
   81SOL     OW  394   2.182   1.407   0.330 -0.1598 -0.2167  0.1660
   81SOL    HW2  395   2.088   1.395   0.342  0.0718 -1.4830  0.8281
   81SOL    HW3  396   2.196   1.502   0.335 -1.4254 -0.0072 -0.2097
   81SOL    MW4  397   2.172   1.418   0.332 -0.2959 -0.3560  0.2038
   82SOL     OW  398   0.480   0.163   0.549 -0.0698  0.4867  0.0625
   82SOL    HW2  399   0.491   0.078   0.506  0.6247  0.8738 -0.5496
   82SOL    HW3  400   0.472   0.142   0.642  0.4443 -0.2231 -0.0449
   82SOL    MW4  401   0.480   0.149   0.556  0.0897  0.4441 -0.0325
   83SOL     OW  402   1.840   1.186   0.840 -0.2917  0.5985  0.1046
   83SOL    HW2  403   1.915   1.246   0.832 -0.4336  0.8356  0.5347
   83SOL    HW3  404   1.765   1.244   0.852 -0.1700  0.2861  2.6216
   83SOL    MW4  405   1.840   1.202   0.840 -0.2943  0.5885  0.4935
   84SOL     OW  406   3.555   1.356   0.343 -0.2611 -0.0937  0.4703
   84SOL    HW2  407   3.477   1.314   0.377 -0.2141 -1.6511 -1.2337
   84SOL    HW3  408   3.607   1.284   0.307  1.9841  0.8973  1.6217
   84SOL    MW4  409   3.552   1.341   0.343  0.0412 -0.1686  0.3974
   85SOL     OW  410   2.282   3.199   0.720  0.0361 -0.4072  0.0583
   85SOL    HW2  411   2.344   3.156   0.780 -0.4432  0.0693  0.9079
   85SOL    HW3  412   2.273   3.287   0.755 -0.6925 -0.2982 -0.4001
   85SOL    MW4  413   2.289   3.205   0.733 -0.1230 -0.3300  0.1099
   86SOL     OW  414   1.718   1.190   0.028 -0.1807 -0.1649 -0.2460
   86SOL    HW2  415   1.680   1.239   0.101  0.8469 -0.1260  0.2726
   86SOL    HW3  416   1.643   1.166  -0.026 -0.8819  0.4043  0.4575
   86SOL    MW4  417   1.703   1.193   0.031 -0.1376 -0.0846 -0.0849
   87SOL     OW  418   1.930   3.218   0.367  0.0191 -0.2740  0.3075
   87SOL    HW2  419   1.897   3.228   0.457 -1.0083 -0.3379 -0.0581
   87SOL    HW3  420   1.968   3.130   0.365  1.5351  0.3406  1.1418
   87SOL    MW4  421   1.931   3.208   0.379  0.0834 -0.2012  0.3693
   88SOL     OW  422   1.133   2.054   0.704  0.2431 -0.3006 -0.3355
   88SOL    HW2  423   1.199   2.014   0.760 -0.2726 -1.2705 -0.4012
   88SOL    HW3  424   1.118   2.140   0.741  1.2272 -0.2467 -0.0633
   88SOL    MW4  425   1.140   2.060   0.716  0.3048 -0.4213 -0.3083
   89SOL     OW  426   2.478   0.760   0.822 -0.0501  0.3238 -0.5715
   89SOL    HW2  427   2.564   0.789   0.791  0.8979 -1.2616  0.4473
   89SOL    HW3  428   2.464   0.676   0.777 -0.9518  0.4602 -0.5479
   89SOL    MW4  429   2.488   0.753   0.812 -0.0439  0.1326 -0.4339
   90SOL     OW  430   1.751   2.463   0.726 -0.2263  0.0268  0.1807
   90SOL    HW2  431   1.762   2.553   0.759  1.0110  0.0652 -0.2928
   90SOL    HW3  432   1.759   2.472   0.631  0.7875 -0.6924  0.1902
   90SOL    MW4  433   1.753   2.476   0.718  0.0707 -0.0632  0.1195
   91SOL     OW  434   1.127   1.527   0.860 -0.0537  0.2513 -0.3503
   91SOL    HW2  435   1.058   1.583   0.824 -0.8436  0.0214  0.7851
   91SOL    HW3  436   1.208   1.563   0.824 -0.6204  1.5905 -0.3086
   91SOL    MW4  437   1.128   1.539   0.850 -0.2327  0.3978 -0.1950
   92SOL     OW  438   4.458   2.730   0.786 -0.0527  0.0002 -0.2416
   92SOL    HW2  439   4.422   2.646   0.758 -0.4855  0.0216  0.2482
   92SOL    HW3  440   4.446   2.730   0.881  0.3181  0.4421 -0.1942
   92SOL    MW4  441   4.452   2.719   0.795 -0.0606  0.0613 -0.1708
   93SOL     OW  442   4.135   3.412   0.802 -0.0951  0.1601 -0.0711
   93SOL    HW2  443   4.098   3.449   0.882  1.1346  0.9164  0.1768
   93SOL    HW3  444   4.230   3.413   0.818  0.2209  1.0904 -1.8422
   93SOL    MW4  445   4.143   3.417   0.814  0.1092  0.3827 -0.2720
   94SOL     OW  446   4.084   0.855   0.717  0.3752  0.2483  0.0509
   94SOL    HW2  447   4.032   0.852   0.637 -0.5364 -0.3138  0.6506
   94SOL    HW3  448   4.085   0.947   0.743 -1.7578  0.0597  0.9396
   94SOL    MW4  449   4.077   0.867   0.710 -0.0262  0.1493  0.2473
   95SOL     OW  450   4.256   2.287   0.286 -0.2647  0.5119 -0.4709
   95SOL    HW2  451   4.314   2.269   0.212 -1.8154 -0.6423 -1.4415
   95SOL    HW3  452   4.248   2.203   0.331  0.4213  1.1364  0.8480
   95SOL    MW4  453   4.263   2.273   0.282 -0.3786  0.4420 -0.4250
   96SOL     OW  454   3.854   4.341   0.829  0.0823 -0.1213  0.0830
   96SOL    HW2  455   3.848   4.437   0.829  1.1411 -0.0590 -0.6100
   96SOL    HW3  456   3.765   4.312   0.809 -0.4769  0.7005  1.3111
   96SOL    MW4  457   3.841   4.350   0.827  0.1483 -0.0048  0.1537
   97SOL     OW  458   4.363   2.674   0.461 -0.0653  0.0709  0.3521
   97SOL    HW2  459   4.374   2.580   0.447  0.1844 -0.0174  1.1603
   97SOL    HW3  460   4.451   2.710   0.449 -0.4886  0.4627 -1.9215
   97SOL    MW4  461   4.376   2.666   0.457 -0.0887  0.1106  0.1588
   98SOL     OW  462   1.000   3.077   0.304  0.3788  0.3855  0.2976
   98SOL    HW2  463   1.061   3.144   0.275  0.1656  1.2357  1.7725
   98SOL    HW3  464   1.054   3.015   0.354  0.2189  0.5732  0.7043
   98SOL    MW4  465   1.015   3.077   0.306  0.3295  0.5226  0.5458
   99SOL     OW  466   1.365   0.391   0.825  0.2627  0.5320 -0.1638
   99SOL    HW2  467   1.435   0.448   0.793  0.7400 -0.1361 -0.2995
   99SOL    HW3  468   1.361   0.408   0.919 -1.0264  2.3721 -0.5138
   99SOL    MW4  469   1.374   0.401   0.833  0.1557  0.6866 -0.2279
  100SOL     OW  470   1.849   3.229   0.639 -0.2950  0.2616 -0.0683
  100SOL    HW2  471   1.864   3.323   0.647 -3.1084  0.7293  0.1750
  100SOL    HW3  472   1.772   3.212   0.693  0.0681 -2.1582 -0.2486
  100SOL    MW4  473   1.841   3.239   0.647 -0.6183  0.0041 -0.0600
  101SOL     OW  474   2.806   2.570   0.316  0.0751  0.0977  0.2369
  101SOL    HW2  475   2.850   2.647   0.354  1.8698  0.0722 -1.7280
  101SOL    HW3  476   2.772   2.601   0.232 -0.7979 -0.7932  0.2549
  101SOL    MW4  477   2.807   2.584   0.310  0.1967 -0.0231 -0.0199
  102SOL     OW  478   1.381   4.001   0.732  0.0494  0.1362  0.0289
  102SOL    HW2  479   1.372   3.973   0.641 -0.6212  0.6923 -0.0803
  102SOL    HW3  480   1.457   3.953   0.765  0.2641 -0.1040 -0.8110
  102SOL    MW4  481   1.390   3.991   0.725 -0.0107  0.1776 -0.0964
  103SOL     OW  482   2.663   0.077   0.756  0.2444 -0.7157 -0.5451
  103SOL    HW2  483   2.685   0.061   0.665  2.1610  0.1554 -0.2566
  103SOL    HW3  484   2.660   0.172   0.764 -3.9534 -0.7525 -0.6002
  103SOL    MW4  485   2.666   0.088   0.745 -0.0565 -0.6057 -0.5143
  104SOL     OW  486   2.294   3.943   0.490  0.2913 -0.4226  0.0237
  104SOL    HW2  487   2.277   3.849   0.475 -0.0622 -0.1314 -1.4608
  104SOL    HW3  488   2.314   3.948   0.584 -1.2181 -1.7641  0.4622
  104SOL    MW4  489   2.294   3.931   0.501  0.0458 -0.5612 -0.1143
  105SOL     OW  490   0.237   3.940   0.439 -0.1179 -0.2494 -0.1198
  105SOL    HW2  491   0.277   3.856   0.462  0.3684  0.5210  1.9933
  105SOL    HW3  492   0.311   3.997   0.421 -0.3644  0.2628  0.4624
  105SOL    MW4  493   0.252   3.936   0.440 -0.0862 -0.0803  0.2358
  106SOL     OW  494   1.057   2.298   0.357  0.3377  0.0042  0.7270
  106SOL    HW2  495   1.128   2.351   0.393  0.1577  1.1768 -0.6144
  106SOL    HW3  496   1.067   2.306   0.262 -1.9107  0.6350  0.5238
  106SOL    MW4  497   1.068   2.306   0.350  0.0173  0.2422  0.5232
  107SOL     OW  498   2.693   2.080   0.379  0.1424  0.7085 -0.4312
  107SOL    HW2  499   2.781   2.043   0.374  0.6106  1.8198 -0.5176
  107SOL    HW3  500   2.705   2.168   0.415 -1.1663  0.0662  1.6913
  107SOL    MW4  501   2.706   2.087   0.383  0.0317  0.7706 -0.1625
  108SOL     OW  502   2.763   1.508   0.197  0.0350  0.0028  0.5385
  108SOL    HW2  503   2.711   1.468   0.267  0.3237 -0.4729  0.4846
  108SOL    HW3  504   2.764   1.442   0.128  1.9288 -0.5907  1.1004
  108SOL    MW4  505   2.756   1.494   0.197  0.3231 -0.1382  0.6055
  109SOL     OW  506   1.851   0.028   0.162 -0.2987 -0.2435  0.2796
  109SOL    HW2  507   1.848   0.009   0.068  1.1974 -0.1633  0.1908
  109SOL    HW3  508   1.789  -0.033   0.201 -0.8419 -0.3610 -0.7488
  109SOL    MW4  509   1.843   0.017   0.155 -0.1730 -0.2484  0.1322
  110SOL     OW  510   2.887   2.239   0.819 -0.1680  0.0454  0.1523
  110SOL    HW2  511   2.888   2.265   0.911 -1.1476 -1.2830  0.5496
  110SOL    HW3  512   2.955   2.293   0.779 -0.7926  1.7576  1.3306
  110SOL    MW4  513   2.896   2.249   0.826 -0.3798  0.0961  0.3602
  111SOL     OW  514   1.932   1.524   0.178 -0.0687 -0.5191 -0.5029
  111SOL    HW2  515   1.930   1.475   0.261 -0.6036 -0.0618 -0.2444
  111SOL    HW3  516   1.959   1.459   0.113 -1.8280 -1.4546 -0.3423
  111SOL    MW4  517   1.935   1.509   0.181 -0.3713 -0.5823 -0.4476
  112SOL     OW  518   0.210   2.058   0.733 -0.3308  0.2496  0.0706
  112SOL    HW2  519   0.297   2.039   0.768 -0.1356  2.1425  0.6689
  112SOL    HW3  520   0.195   2.150   0.755 -2.0166  0.2535 -1.0263
  112SOL    MW4  521   0.220   2.068   0.741 -0.5275  0.4997  0.0048
  113SOL     OW  522   2.506   3.092   0.848  0.4723  0.3869 -0.6495
  113SOL    HW2  523   2.484   3.076   0.940 -0.6541  0.9716 -0.8177
  113SOL    HW3  524   2.503   3.005   0.808  0.4147  0.2044 -0.2549
  113SOL    MW4  525   2.503   3.078   0.855  0.3161  0.4401 -0.6196
  114SOL     OW  526   3.840   1.786   0.380  0.3901  0.2289  0.2876
  114SOL    HW2  527   3.773   1.730   0.342  1.5778  0.2239 -1.8844
  114SOL    HW3  528   3.869   1.739   0.458 -1.5115 -0.1561  0.7976
  114SOL    MW4  529   3.835   1.773   0.385  0.2959  0.1775  0.0683
  115SOL     OW  530   0.734   3.003   0.309 -0.0041  0.4057  0.1212
  115SOL    HW2  531   0.735   2.909   0.323 -0.8259  0.2811 -0.6076
  115SOL    HW3  532   0.826   3.028   0.307  0.2009 -0.2638  1.0808
  115SOL    MW4  533   0.746   2.994   0.310 -0.0855  0.3011  0.1517
  116SOL     OW  534   0.592   2.744   0.516  0.4344  0.3517 -0.5155
  116SOL    HW2  535   0.679   2.728   0.480  1.1980  2.2563  0.4586
  116SOL    HW3  536   0.540   2.668   0.487  2.3088 -0.6303 -1.3730
  116SOL    MW4  537   0.596   2.732   0.507  0.7824  0.4733 -0.5001
  117SOL     OW  538   3.272   0.550   0.234  0.4549  0.4606  0.2467
  117SOL    HW2  539   3.208   0.493   0.275  0.9028 -0.0489  0.2448
  117SOL    HW3  540   3.279   0.517   0.144  1.3884 -0.0603  0.5074
  117SOL    MW4  541   3.265   0.538   0.227  0.6371  0.3247  0.2809
  118SOL     OW  542   2.936   0.672   0.864  0.5016  0.3584  0.1869
  118SOL    HW2  543   2.854   0.721   0.856 -0.2571 -0.8222  0.6716
  118SOL    HW3  544   2.963   0.685   0.955  1.3385  1.4904 -0.2091
  118SOL    MW4  545   2.929   0.680   0.875  0.5116  0.3520  0.1986
  119SOL     OW  546   3.541   2.209   0.444 -0.3006 -0.3090  0.4291
  119SOL    HW2  547   3.531   2.233   0.352 -0.8425  0.0906  0.5932
  119SOL    HW3  548   3.625   2.162   0.447  1.1467  2.1287  0.2157
  119SOL    MW4  549   3.551   2.206   0.432 -0.1812  0.0653  0.4226
  120SOL     OW  550   0.044   0.096   0.503  0.5375  0.5697 -0.1286
  120SOL    HW2  551   0.077   0.011   0.475 -0.8394 -0.2465  0.6507
  120SOL    HW3  552   0.062   0.099   0.597  0.1203  0.9227 -0.0550
  120SOL    MW4  553   0.050   0.085   0.512  0.3008  0.5085 -0.0162
  121SOL     OW  554   0.592   3.234   0.382 -0.5807 -0.1281  0.1978
  121SOL    HW2  555   0.617   3.151   0.342 -0.4185 -0.2286  0.5040
  121SOL    HW3  556   0.515   3.213   0.436  0.3006 -0.3745  1.3873
  121SOL    MW4  557   0.585   3.220   0.384 -0.4430 -0.1740  0.3951
  122SOL     OW  558   2.777   0.919   0.513  0.4102 -0.4907 -0.1457
  122SOL    HW2  559   2.801   1.010   0.500 -0.6616  0.0206  1.3302
  122SOL    HW3  560   2.855   0.869   0.490  1.3611  0.8557  0.1606
  122SOL    MW4  561   2.790   0.924   0.508  0.3943 -0.2456  0.0894
  123SOL     OW  562   1.596   2.914   0.425 -0.4734 -0.2171 -0.2587
  123SOL    HW2  563   1.593   2.903   0.520 -0.5659 -1.1887 -0.3670
  123SOL    HW3  564   1.666   2.855   0.397 -0.9319 -0.4690 -0.8662
  123SOL    MW4  565   1.605   2.905   0.434 -0.5461 -0.3786 -0.3532
  124SOL     OW  566   1.815   4.326   0.470 -0.0800  0.2348  0.4475
  124SOL    HW2  567   1.775   4.346   0.555  1.7653  0.2063  1.3470
  124SOL    HW3  568   1.826   4.231   0.471 -2.1196 -0.0511 -0.7908
  124SOL    MW4  569   1.811   4.316   0.482 -0.1056  0.1931  0.4028
  125SOL     OW  570   1.417   4.275   0.819 -0.3227  0.0489 -0.2107
  125SOL    HW2  571   1.416   4.183   0.793 -0.9848 -0.5453  1.8658
  125SOL    HW3  572   1.498   4.309   0.782  0.5244 -1.6611  0.0247
  125SOL    MW4  573   1.427   4.267   0.810 -0.2984 -0.2551  0.0943
  126SOL     OW  574   2.884   1.264   0.753 -0.1783 -0.4448  0.1345
  126SOL    HW2  575   2.886   1.236   0.662 -2.2514 -1.4895  0.3719
  126SOL    HW3  576   2.948   1.208   0.797 -1.5297 -2.2148 -0.0955
  126SOL    MW4  577   2.893   1.253   0.747 -0.6301 -0.8162  0.1355
  127SOL     OW  578   3.783   4.558   0.455 -0.3604  0.3163  0.4390
  127SOL    HW2  579   3.817   4.490   0.397 -1.7377 -1.9287  2.2145
  127SOL    HW3  580   3.846   4.564   0.526  0.6383  2.1280 -0.5749
  127SOL    MW4  581   3.796   4.550   0.456 -0.4103  0.2594  0.5395
  128SOL     OW  582   2.973   3.876   0.781 -0.2933  0.2248 -0.1546
  128SOL    HW2  583   2.978   3.785   0.752 -1.6122  0.3374 -0.7369
  128SOL    HW3  584   2.963   3.870   0.876  0.3978 -0.2121 -0.1026
  128SOL    MW4  585   2.973   3.863   0.790 -0.3762  0.1822 -0.2245
  129SOL     OW  586   2.652   0.479   0.383  0.1448 -0.0038 -0.1462
  129SOL    HW2  587   2.739   0.487   0.422 -0.3468 -0.1359  1.0077
  129SOL    HW3  588   2.622   0.569   0.374 -0.2377 -0.0079  0.9582
  129SOL    MW4  589   2.660   0.492   0.387  0.0296 -0.0217  0.1518
  130SOL     OW  590   2.796   3.450   0.825  0.0251  0.2201  0.0927
  130SOL    HW2  591   2.798   3.443   0.920 -0.4449 -0.4568  0.0597
  130SOL    HW3  592   2.772   3.362   0.795  0.2522  0.4057 -0.6535
  130SOL    MW4  593   2.793   3.437   0.834 -0.0069  0.1554 -0.0101
  131SOL     OW  594   0.336   2.189   0.375  0.1150 -0.3120 -0.5564
  131SOL    HW2  595   0.417   2.223   0.413 -0.6761 -0.2509  1.1264
  131SOL    HW3  596   0.289   2.267   0.346 -0.2202 -0.2008  0.2770
  131SOL    MW4  597   0.341   2.204   0.376 -0.0336 -0.2894 -0.2244
  132SOL     OW  598   2.738   0.846   0.794  0.4306 -0.3069  0.3780
  132SOL    HW2  599   2.762   0.865   0.703  1.4152 -0.9690  0.4959
  132SOL    HW3  600   2.721   0.932   0.833  1.8143  0.1141  0.0650
  132SOL    MW4  601   2.739   0.860   0.787  0.7432 -0.3387  0.3523
  133SOL     OW  602   0.210   1.242   0.499  0.1300 -0.0096 -0.0403
  133SOL    HW2  603   0.225   1.233   0.593 -0.7016  0.9361  0.1871
  133SOL    HW3  604   0.193   1.335   0.486  0.3495 -0.1231 -1.1463
  133SOL    MW4  605   0.210   1.253   0.510  0.0492  0.1003 -0.1563
  134SOL     OW  606   0.086   4.470   0.404  0.0025 -0.3660  0.2780
  134SOL    HW2  607   0.032   4.409   0.453 -0.0864  0.4665  1.2318
  134SOL    HW3  608   0.175   4.434   0.409 -0.1805 -0.8271  0.1601
  134SOL    MW4  609   0.091   4.458   0.411 -0.0334 -0.3161  0.3883
  135SOL     OW  610   1.099   3.820   0.389 -0.2882  0.2611 -0.1550
  135SOL    HW2  611   1.009   3.847   0.375  0.0132  0.7804 -1.1488
  135SOL    HW3  612   1.094   3.724   0.396 -0.8116  0.2114 -1.0968
  135SOL    MW4  613   1.087   3.811   0.388 -0.3175  0.3231 -0.4104
  136SOL     OW  614   2.709   1.949   0.752  0.4658 -0.0852 -0.1562
  136SOL    HW2  615   2.792   1.969   0.707  0.2074  1.3023 -0.0291
  136SOL    HW3  616   2.731   1.957   0.845  0.1949  0.2678 -0.1233
  136SOL    MW4  617   2.723   1.953   0.758  0.3960  0.1444 -0.1351
  137SOL     OW  618   2.084   3.843   0.865  0.3435  0.6004 -0.1011
  137SOL    HW2  619   2.003   3.888   0.840 -0.1083 -0.7559 -1.1055
  137SOL    HW3  620   2.153   3.905   0.842 -0.3876  1.7078  0.6227
  137SOL    MW4  621   2.082   3.857   0.859  0.1876  0.5674 -0.1380
  138SOL     OW  622   2.365   0.416   0.400  0.2447  0.5143 -0.3234
  138SOL    HW2  623   2.309   0.488   0.372 -0.0899  0.5771  0.4965
  138SOL    HW3  624   2.453   0.443   0.373  0.1690  1.3822  0.2479
  138SOL    MW4  625   2.369   0.429   0.393  0.1905  0.6371 -0.1398
  139SOL     OW  626   2.953   3.088   0.815 -0.2273  0.0796 -0.1455
  139SOL    HW2  627   2.951   2.999   0.782  0.2433 -0.4272  1.1372
  139SOL    HW3  628   2.869   3.126   0.788 -0.1700 -0.5511 -1.2129
  139SOL    MW4  629   2.941   3.082   0.807 -0.1576 -0.0706 -0.1171
  140SOL     OW  630   0.908   3.260   0.715 -0.2386 -0.4560 -0.0240
  140SOL    HW2  631   0.896   3.270   0.621  1.5145 -0.8693 -0.3097
  140SOL    HW3  632   0.831   3.210   0.744 -1.4783  0.8525 -0.9940
  140SOL    MW4  633   0.896   3.255   0.707 -0.1709 -0.3378 -0.1896
  141SOL     OW  634   1.577   2.889   0.721  0.9138 -0.2997 -0.2151
  141SOL    HW2  635   1.564   2.972   0.768  1.0839 -1.3055  1.6397
  141SOL    HW3  636   1.500   2.837   0.743  0.7142 -0.5914 -1.5368
  141SOL    MW4  637   1.565   2.893   0.730  0.9098 -0.4709 -0.1448
  142SOL     OW  638   3.209   2.670   0.403  0.3855 -0.3814 -0.2223
  142SOL    HW2  639   3.279   2.638   0.346 -0.2403 -1.2578 -0.5269
  142SOL    HW3  640   3.248   2.673   0.490  0.5634 -1.6880 -0.2487
  142SOL    MW4  641   3.224   2.666   0.407  0.3264 -0.6695 -0.2660
  143SOL     OW  642   3.379   0.365   0.526  0.0833 -0.1069  0.5461
  143SOL    HW2  643   3.421   0.440   0.483 -1.1099 -0.1314 -0.7044
  143SOL    HW3  644   3.435   0.291   0.504  0.8436  0.2867  1.1389
  143SOL    MW4  645   3.392   0.365   0.517  0.0262 -0.0582  0.4594
  144SOL     OW  646   3.690   2.748   0.893  0.0604 -0.1629 -0.0800
  144SOL    HW2  647   3.631   2.823   0.886 -1.1481 -1.1540 -0.7158
  144SOL    HW3  648   3.667   2.707   0.976 -0.2169 -0.6006 -0.3697
  144SOL    MW4  649   3.680   2.753   0.903 -0.1359 -0.3514 -0.2021
  145SOL     OW  650   0.939   4.011   0.733 -0.5885 -0.2349 -0.3341
  145SOL    HW2  651   1.014   3.955   0.754 -0.7177  0.1455  1.2080
  145SOL    HW3  652   0.864   3.967   0.774 -1.0192  0.0045 -0.8553
  145SOL    MW4  653   0.939   3.998   0.741 -0.6623 -0.1533 -0.1994
  146SOL     OW  654   2.127   4.157   0.423 -0.2060  0.7741 -0.1049
  146SOL    HW2  655   2.167   4.070   0.423 -1.5349  0.1498 -0.6711
  146SOL    HW3  656   2.201   4.218   0.429  0.7727 -0.3689 -0.4511
  146SOL    MW4  657   2.142   4.154   0.424 -0.2522  0.5407 -0.2252
  147SOL     OW  658   1.859   1.605   0.784  0.0546  0.3021 -0.2898
  147SOL    HW2  659   1.772   1.606   0.826  0.1758 -0.7426  0.0039
  147SOL    HW3  660   1.902   1.528   0.820  0.3996 -0.2652 -1.8794
  147SOL    MW4  661   1.853   1.595   0.794  0.1161  0.0893 -0.4607
  148SOL     OW  662   2.015   2.858   0.691 -0.0872 -0.2217 -0.0042
  148SOL    HW2  663   2.024   2.943   0.734 -0.3459  0.3699 -1.0802
  148SOL    HW3  664   2.094   2.810   0.714  0.3807  0.5720  0.0640
  148SOL    MW4  665   2.027   2.863   0.699 -0.0596 -0.0391 -0.1372
  149SOL     OW  666   2.259   3.660   0.467  0.0127 -0.0353  0.2534
  149SOL    HW2  667   2.227   3.588   0.411  0.6098 -0.5823  0.6058
  149SOL    HW3  668   2.199   3.659   0.542 -0.8035  0.7139 -0.3798
  149SOL    MW4  669   2.247   3.650   0.470 -0.0162 -0.0086  0.2164
  150SOL     OW  670   2.283   3.452   0.861 -0.4119 -0.4974  0.0917
  150SOL    HW2  671   2.370   3.489   0.845  0.1240 -1.6590  0.2286
  150SOL    HW3  672   2.224   3.506   0.809  0.4849 -0.1069 -0.5431
  150SOL    MW4  673   2.287   3.464   0.852 -0.2229 -0.5991  0.0260
  151SOL     OW  674   2.288   4.250   0.834 -0.3203 -0.3733 -0.0722
  151SOL    HW2  675   2.361   4.296   0.792 -0.3839  0.3939  0.6444
  151SOL    HW3  676   2.210   4.299   0.806 -0.3205  0.4558  1.3381
  151SOL    MW4  677   2.287   4.263   0.824 -0.3288 -0.1621  0.2084
  152SOL     OW  678   0.860   2.738   0.448  0.1112 -0.3441  0.0773
  152SOL    HW2  679   0.883   2.645   0.439  1.2208 -0.2108  1.3616
  152SOL    HW3  680   0.944   2.782   0.465 -0.2539  1.0470 -1.5380
  152SOL    MW4  681   0.874   2.732   0.449  0.2095 -0.1431  0.0336
  153SOL     OW  682   0.704   1.452   0.515 -0.5851  0.1409  0.9470
  153SOL    HW2  683   0.615   1.479   0.536 -0.6166  1.4962 -0.8142
  153SOL    HW3  684   0.753   1.534   0.508  0.2811 -0.4751 -0.3484
  153SOL    MW4  685   0.699   1.466   0.517 -0.4750  0.2384  0.5437
  154SOL     OW  686   0.207   4.318   0.707  0.1854  0.3381  0.3107
  154SOL    HW2  687   0.122   4.294   0.744  0.0766  2.1511  1.3050
  154SOL    HW3  688   0.271   4.274   0.764 -0.0229  1.6407  1.5626
  154SOL    MW4  689   0.204   4.309   0.719  0.1436  0.7486  0.6071
  155SOL     OW  690   1.352   1.653   0.776  0.6848  0.2178  0.4520
  155SOL    HW2  691   1.338   1.746   0.792 -0.6841 -0.0189  0.6790
  155SOL    HW3  692   1.348   1.644   0.681 -1.1153  0.1161  0.5135
  155SOL    MW4  693   1.349   1.664   0.766  0.2667  0.1732  0.4901
  156SOL     OW  694   3.360   1.175   0.732 -0.0585  0.4586 -0.2897
  156SOL    HW2  695   3.367   1.265   0.766 -0.0114  0.5066 -0.4287
  156SOL    HW3  696   3.354   1.185   0.637  0.5181  0.2858 -0.3458
  156SOL    MW4  697   3.360   1.188   0.724  0.0238  0.4421 -0.3154
  157SOL     OW  698   1.188   4.556   0.490  0.0644  0.1334 -0.0562
  157SOL    HW2  699   1.116   4.619   0.499  0.3045  0.5594 -1.0880
  157SOL    HW3  700   1.147   4.480   0.449  0.0735  0.1312 -0.0616
  157SOL    MW4  701   1.173   4.554   0.486  0.0973  0.1898 -0.1930
  158SOL     OW  702   1.576   1.312   0.239 -0.3543  0.1082  0.0360
  158SOL    HW2  703   1.553   1.229   0.281 -0.5649 -0.3104 -0.8987
  158SOL    HW3  704   1.554   1.378   0.304 -2.0028 -0.4332  0.0628
  158SOL    MW4  705   1.570   1.310   0.253 -0.5995 -0.0182 -0.0838
  159SOL     OW  706   3.509   2.375   0.703 -0.3390 -0.0346  0.2772
  159SOL    HW2  707   3.503   2.332   0.618  2.5687  0.5923 -0.2784
  159SOL    HW3  708   3.534   2.465   0.683  0.1463  0.1755  1.7702
  159SOL    MW4  709   3.511   2.381   0.689  0.1090  0.0758  0.4008
  160SOL     OW  710   3.013   0.793   0.488 -0.5829  0.2432  0.6729
  160SOL    HW2  711   3.062   0.810   0.407 -1.0012 -0.0587  0.3527
  160SOL    HW3  712   3.071   0.823   0.558 -0.1177  0.2858  0.2735
  160SOL    MW4  713   3.027   0.799   0.486 -0.5765  0.2091  0.5780
  161SOL     OW  714   3.777   2.285   1.084 -0.2946 -0.3120  0.0206
  161SOL    HW2  715   3.793   2.194   1.110 -0.7672 -0.5597 -0.5215
  161SOL    HW3  716   3.855   2.332   1.111  0.8504 -1.2679 -1.5160
  161SOL    MW4  717   3.789   2.279   1.091 -0.2058 -0.4709 -0.2536
  162SOL     OW  718   0.463   1.822   0.336 -0.3123  0.0831 -0.0142
  162SOL    HW2  719   0.405   1.870   0.395  0.4405  0.6263  0.2877
  162SOL    HW3  720   0.550   1.855   0.356  0.0332 -0.2854 -0.9059
  162SOL    MW4  721   0.467   1.832   0.347 -0.1674  0.1061 -0.0920
  163SOL     OW  722   2.838   3.430   0.137 -0.6770  0.0558  0.1505
  163SOL    HW2  723   2.768   3.422   0.073 -2.2941 -0.5949  1.9660
  163SOL    HW3  724   2.822   3.360   0.199  0.9401  0.6040  1.2249
  163SOL    MW4  725   2.827   3.420   0.136 -0.6769  0.0422  0.5318
  164SOL     OW  726   3.131   2.178   0.276 -0.0914  0.2266 -0.0424
  164SOL    HW2  727   3.107   2.256   0.326 -0.3195 -0.3569  0.7746
  164SOL    HW3  728   3.048   2.135   0.257  0.0665 -0.0975 -0.0146
  164SOL    MW4  729   3.117   2.183   0.280 -0.1006  0.1070  0.0691
  165SOL     OW  730   0.224   0.310   0.559  0.0960 -0.1579  0.1850
  165SOL    HW2  731   0.305   0.262   0.577  1.1920  2.2465  2.0140
  165SOL    HW3  732   0.164   0.244   0.523  3.3235 -1.6799 -2.6374
  165SOL    MW4  733   0.227   0.295   0.557  0.6664 -0.0415  0.0539
  166SOL     OW  734   4.481   4.207   0.841  0.3288  0.0154  0.2218
  166SOL    HW2  735   4.480   4.112   0.833 -0.0510 -0.0510  0.9575
  166SOL    HW3  736   4.501   4.223   0.934  0.5741  0.6516  0.0643
  166SOL    MW4  737   4.483   4.197   0.852  0.3109  0.0901  0.2981
  167SOL     OW  738   1.866   0.680   0.251  0.2006  0.1158 -0.0413
  167SOL    HW2  739   1.821   0.598   0.231  0.0717  0.5133 -1.4098
  167SOL    HW3  740   1.825   0.711   0.332 -1.3386 -0.0160 -0.7572
  167SOL    MW4  741   1.854   0.674   0.259 -0.0194  0.1509 -0.3164
  168SOL     OW  742   2.300   0.868   0.435  0.4504 -0.1224 -0.3564
  168SOL    HW2  743   2.267   0.953   0.404  0.4366  0.7688  1.9787
  168SOL    HW3  744   2.238   0.804   0.399 -1.0056  1.0929 -0.0586
  168SOL    MW4  745   2.287   0.871   0.426  0.2563  0.1554 -0.0090
  169SOL     OW  746   3.156   1.578   0.705 -0.4531 -0.1407  0.1811
  169SOL    HW2  747   3.212   1.529   0.765 -0.3482  0.2367  0.3951
  169SOL    HW3  748   3.067   1.549   0.726 -0.4668  0.4978  0.9838
  169SOL    MW4  749   3.152   1.568   0.715 -0.4413 -0.0068  0.3152
  170SOL     OW  750   3.552   2.638   0.666  0.3382  0.1026 -0.5254
  170SOL    HW2  751   3.608   2.666   0.594  0.1358 -0.1318 -0.7739
  170SOL    HW3  752   3.604   2.656   0.745  1.5175 -1.8094 -0.8285
  170SOL    MW4  753   3.566   2.644   0.667  0.4671 -0.1805 -0.5982
  171SOL     OW  754   3.483   0.587   0.402 -0.0675 -0.0304  0.2028
  171SOL    HW2  755   3.410   0.579   0.341  0.5280 -0.1536 -0.4971
  171SOL    HW3  756   3.495   0.682   0.411 -1.7348  0.0561  2.0498
  171SOL    MW4  757   3.475   0.599   0.395 -0.2091 -0.0353  0.3542
  172SOL     OW  758   2.945   1.982   0.387  0.2711  0.5129  0.6758
  172SOL    HW2  759   2.974   1.996   0.477  2.1574 -0.0986  0.1987
  172SOL    HW3  760   2.934   1.887   0.380 -1.1022  0.6661  0.6033
  172SOL    MW4  761   2.948   1.971   0.398  0.3388  0.4525  0.6033
  173SOL     OW  762   3.707   2.447   0.320 -0.3056  0.1073 -0.3993
  173SOL    HW2  763   3.791   2.408   0.344 -0.8663 -0.0405  1.3524
  173SOL    HW3  764   3.712   2.537   0.354 -0.5948  0.3120 -0.8930
  173SOL    MW4  765   3.719   2.454   0.328 -0.4177  0.1147 -0.2334
  174SOL     OW  766   2.508   4.614   0.493  0.0786  0.1746 -0.4512
  174SOL    HW2  767   2.428   4.666   0.487  0.4713  0.8788  0.4131
  174SOL    HW3  768   2.579   4.676   0.478  0.6529  0.3331  2.6886
  174SOL    MW4  769   2.506   4.629   0.490  0.2062  0.2890  0.0772
  175SOL     OW  770   0.354   3.182   0.516  0.1170 -0.8600  0.1235
  175SOL    HW2  771   0.276   3.235   0.502  1.2671  0.3335 -1.9875
  175SOL    HW3  772   0.380   3.201   0.606 -0.5567  0.6778  0.0039
  175SOL    MW4  773   0.347   3.191   0.526  0.1799 -0.4995 -0.1708
  176SOL     OW  774   3.610   0.362   0.875 -0.0812 -0.1172 -0.2307
  176SOL    HW2  775   3.639   0.351   0.966  1.1938  0.0097 -0.6169
  176SOL    HW3  776   3.606   0.272   0.841 -0.6781 -0.1742 -0.0228
  176SOL    MW4  777   3.613   0.348   0.883  0.0086 -0.1079 -0.2543
  177SOL     OW  778   1.663   4.486   0.284  0.1289 -0.1127  0.1573
  177SOL    HW2  779   1.593   4.476   0.349  0.7866 -1.3495  0.6864
  177SOL    HW3  780   1.731   4.424   0.311  1.3043  0.8437 -0.5293
  177SOL    MW4  781   1.663   4.477   0.296  0.3707 -0.1497  0.1366
  178SOL     OW  782   0.068   1.841   0.305 -0.2192 -0.7389 -0.1186
  178SOL    HW2  783   0.119   1.891   0.370 -0.3638 -0.2424 -0.3851
  178SOL    HW3  784   0.133   1.790   0.257 -0.2262 -2.0761  1.2460
  178SOL    MW4  785   0.084   1.841   0.308 -0.2392 -0.8498  0.0262
  179SOL     OW  786   1.598   1.613   0.881 -0.2509 -0.0723 -0.5934
  179SOL    HW2  787   1.577   1.605   0.974  1.5193 -0.3778 -0.1955
  179SOL    HW3  788   1.513   1.626   0.838 -1.0264  0.7058  1.1180
  179SOL    MW4  789   1.584   1.613   0.888 -0.1197 -0.0098 -0.3151
  180SOL     OW  790   2.227   1.673   0.378  0.2364 -0.0797  0.0791
  180SOL    HW2  791   2.243   1.658   0.472  0.3321 -1.3803 -0.1250
  180SOL    HW3  792   2.309   1.709   0.346 -0.3416  1.9695  0.8023
  180SOL    MW4  793   2.240   1.675   0.386  0.1729  0.0190  0.1476
  181SOL     OW  794   3.263   2.277   0.814  0.0627 -0.0253  0.4422
  181SOL    HW2  795   3.283   2.268   0.907  1.1151 -1.6839  0.0646
  181SOL    HW3  796   3.345   2.306   0.774 -0.6331  1.5983  0.1560
  181SOL    MW4  797   3.277   2.280   0.821  0.1099 -0.0300  0.3546
  182SOL     OW  798   1.569   0.541   0.747 -0.6179 -0.2162 -0.2412
  182SOL    HW2  799   1.642   0.489   0.781 -0.5893 -1.1625 -1.6965
  182SOL    HW3  800   1.584   0.629   0.782  1.0289 -0.4800 -0.2461
  182SOL    MW4  801   1.581   0.546   0.756 -0.3967 -0.3759 -0.4338
  183SOL     OW  802   0.618   2.285   0.430 -0.4557 -0.1233 -0.1857
  183SOL    HW2  803   0.686   2.351   0.417 -0.0696 -0.4995 -0.1138
  183SOL    HW3  804   0.652   2.229   0.500 -0.6952 -0.5039 -0.3712
  183SOL    MW4  805   0.632   2.286   0.437 -0.4363 -0.2229 -0.2007
  184SOL     OW  806   4.003   1.557   0.826 -0.4301 -0.2113 -0.1319
  184SOL    HW2  807   4.012   1.653   0.827 -0.7718 -0.1827  0.6098
  184SOL    HW3  808   3.947   1.538   0.901  0.8222 -1.1085  0.5898
  184SOL    MW4  809   3.997   1.567   0.836 -0.3102 -0.3259  0.0612
  185SOL     OW  810   2.226   1.860   0.766  0.1503  0.7708  0.4356
  185SOL    HW2  811   2.160   1.910   0.719  0.2838  0.1228 -0.4591
  185SOL    HW3  812   2.309   1.903   0.745  0.4077 -0.4638 -1.2801
  185SOL    MW4  813   2.228   1.872   0.757  0.2022  0.5225  0.0912
  186SOL     OW  814   4.476   1.123   0.371  0.6581  0.4405 -0.8159
  186SOL    HW2  815   4.414   1.183   0.412  1.7848  1.8803 -1.1918
  186SOL    HW3  816   4.561   1.148   0.406  0.9492 -2.2148  0.5085
  186SOL    MW4  817   4.479   1.134   0.381  0.8450  0.2801 -0.6908
  187SOL     OW  818   3.143   2.946   0.450 -0.4265 -0.1285  0.3317
  187SOL    HW2  819   3.204   2.955   0.523 -0.0357  0.4309 -0.0596
  187SOL    HW3  820   3.173   2.868   0.403 -0.1358  0.0169  0.2690
  187SOL    MW4  821   3.155   2.937   0.453 -0.3364 -0.0353  0.2718
  188SOL     OW  822   1.083   1.750   0.373  0.2343 -0.0628  0.2393
  188SOL    HW2  823   1.054   1.841   0.368  2.6619  0.7431  0.3860
  188SOL    HW3  824   1.007   1.703   0.407 -0.7486  2.0722  1.0849
  188SOL    MW4  825   1.069   1.756   0.377  0.4250  0.3252  0.3702
  189SOL     OW  826   2.509   4.144   0.433  0.8212  0.0418  0.1962
  189SOL    HW2  827   2.457   4.064   0.443  2.6068 -0.9390  1.9417
  189SOL    HW3  828   2.598   4.118   0.453  1.3857  2.5763  1.1875
  189SOL    MW4  829   2.514   4.130   0.437  1.1313  0.2470  0.5573
  190SOL     OW  830   3.865   4.343   0.283  0.3182 -0.0690 -0.3163
  190SOL    HW2  831   3.960   4.343   0.296  0.1260 -2.0078  1.4613
  190SOL    HW3  832   3.840   4.251   0.293 -1.8250  0.5206 -0.0519
  190SOL    MW4  833   3.874   4.331   0.286  0.0098 -0.2475 -0.0469
  191SOL     OW  834   2.894   2.817   0.748 -0.2699  0.0903 -0.1410
  191SOL    HW2  835   2.818   2.762   0.766  1.1363 -1.2901  1.7856
  191SOL    HW3  836   2.969   2.765   0.776  1.1914  2.5105  0.6014
  191SOL    MW4  837   2.894   2.803   0.754  0.1082  0.2277  0.2111
  192SOL     OW  838   3.766   0.462   0.463 -0.5623 -0.4970  0.1644
  192SOL    HW2  839   3.788   0.470   0.556  0.8309  0.6191 -0.2525
  192SOL    HW3  840   3.683   0.509   0.454 -0.1313  0.3734  0.6428
  192SOL    MW4  841   3.758   0.469   0.474 -0.3216 -0.2349  0.1726
  193SOL     OW  842   1.309   4.208   0.407  0.2923 -0.2894 -0.0755
  193SOL    HW2  843   1.335   4.116   0.415  0.8502 -0.2037 -0.8418
  193SOL    HW3  844   1.226   4.205   0.359 -0.6365 -0.5003  1.5079
  193SOL    MW4  845   1.301   4.196   0.402  0.2433 -0.3066  0.0323
  194SOL     OW  846   3.687   2.971   0.365 -0.2097 -0.1445 -0.1274
  194SOL    HW2  847   3.645   3.025   0.432  0.7890 -0.1423  0.5010
  194SOL    HW3  848   3.655   3.007   0.282  1.0698  1.9512  0.2488
  194SOL    MW4  849   3.677   2.983   0.363  0.0908  0.1323  0.0051
  195SOL     OW  850   3.280   3.455   0.819 -0.4573  0.0567  0.2041
  195SOL    HW2  851   3.294   3.518   0.749 -1.3979  0.0783  0.0361
  195SOL    HW3  852   3.242   3.379   0.776  1.3024 -0.8999  0.3000
  195SOL    MW4  853   3.277   3.453   0.804 -0.3490 -0.0668  0.1945
  196SOL     OW  854   2.762   3.731   0.458 -0.1296  0.0172  0.1430
  196SOL    HW2  855   2.822   3.699   0.526  1.6476  0.7477 -1.0483
  196SOL    HW3  856   2.756   3.825   0.475 -0.3267  0.0693 -0.2150
  196SOL    MW4  857   2.769   3.739   0.469  0.0787  0.1204 -0.0614
  197SOL     OW  858   1.454   3.521   0.502 -0.9003  0.0481 -0.5016
  197SOL    HW2  859   1.549   3.516   0.494 -0.4708  1.4266  3.1036
  197SOL    HW3  860   1.425   3.430   0.495  0.8271 -0.5571 -0.0688
  197SOL    MW4  861   1.463   3.508   0.500 -0.6156  0.1502  0.0312
  198SOL     OW  862   2.732   2.765   0.119 -0.0120  0.1616 -0.0466
  198SOL    HW2  863   2.764   2.824   0.051  1.2906  0.9674  1.2400
  198SOL    HW3  864   2.713   2.822   0.193 -0.7876 -0.7825  0.4867
  198SOL    MW4  865   2.734   2.780   0.120  0.0575  0.1433  0.1935
  199SOL     OW  866   3.181   0.355   0.883 -0.5353 -0.1746 -0.2083
  199SOL    HW2  867   3.254   0.400   0.843 -0.2828  0.1279  0.5793
  199SOL    HW3  868   3.180   0.385   0.974 -0.0921 -2.0569  0.4572
  199SOL    MW4  869   3.190   0.365   0.890 -0.4435 -0.3830 -0.0166
  200SOL     OW  870   2.679   2.943   0.332 -0.0298  0.3489  0.1065
  200SOL    HW2  871   2.744   2.904   0.389  0.6226  0.1373 -0.7668
  200SOL    HW3  872   2.595   2.913   0.367  0.3451  0.4768  1.1247
  200SOL    MW4  873   2.676   2.934   0.344  0.1056  0.3378  0.1256
  201SOL     OW  874   3.159   0.836   0.255 -0.0788  0.1117 -0.2726
  201SOL    HW2  875   3.199   0.749   0.243  0.8910  0.5867 -0.4977
  201SOL    HW3  876   3.231   0.891   0.286 -1.2232  0.2759  2.2075
  201SOL    MW4  877   3.174   0.832   0.258 -0.1016  0.1960  0.0249
  202SOL     OW  878   1.693   0.405   0.394  0.1867  0.0428 -0.4750
  202SOL    HW2  879   1.668   0.315   0.372  2.0408 -0.1504 -1.8579
  202SOL    HW3  880   1.609   0.452   0.399 -0.6227 -1.0756 -2.8646
  202SOL    MW4  881   1.678   0.399   0.392  0.3246 -0.1302 -0.9727
  203SOL     OW  882   4.264   1.285   0.491  0.3192  0.2512  0.5372
  203SOL    HW2  883   4.225   1.367   0.463 -0.7663  0.1436  1.7145
  203SOL    HW3  884   4.266   1.290   0.587 -0.9101 -1.5859  0.6901
  203SOL    MW4  885   4.259   1.296   0.500  0.0143 -0.0054  0.7127
  204SOL     OW  886   0.762   3.570   0.469  0.1885 -0.1231 -0.3734
  204SOL    HW2  887   0.698   3.564   0.398  0.3648 -0.4679 -0.5037
  204SOL    HW3  888   0.824   3.499   0.452  1.0336  0.6814 -0.6742
  204SOL    MW4  889   0.762   3.560   0.457  0.3233 -0.0625 -0.4303
  205SOL     OW  890   3.673   0.170   0.496 -0.0798  0.1910  0.3462
  205SOL    HW2  891   3.725   0.244   0.463 -1.0087  0.5133 -0.4121
  205SOL    HW3  892   3.714   0.093   0.456  0.7340  0.3178  0.9339
  205SOL    MW4  893   3.685   0.169   0.486 -0.0949  0.2503  0.3237
  206SOL     OW  894   0.239   1.528   0.852  0.1488  0.1445 -0.0204
  206SOL    HW2  895   0.157   1.573   0.834 -0.1819 -0.5125 -0.1793
  206SOL    HW3  896   0.306   1.596   0.846 -0.4967  0.9002  1.2174
  206SOL    MW4  897   0.237   1.543   0.849  0.0200  0.1576  0.1220
  207SOL     OW  898   2.631   1.553   0.634 -0.3383 -0.2249  0.2113
  207SOL    HW2  899   2.628   1.637   0.589 -0.2957  0.8866  2.2600
  207SOL    HW3  900   2.711   1.556   0.687 -0.2980 -1.5799  0.2549
  207SOL    MW4  901   2.641   1.564   0.635 -0.3271 -0.2571  0.4874
  208SOL     OW  902   0.684   4.301   0.527 -0.1966  0.0544  0.3069
  208SOL    HW2  903   0.706   4.390   0.497 -0.6926  0.0609 -0.0491
  208SOL    HW3  904   0.764   4.251   0.516  0.0556  0.4375  0.4074
  208SOL    MW4  905   0.697   4.306   0.522 -0.2289  0.1059  0.2732
  209SOL     OW  906   2.649   1.383   0.423 -0.8058  0.0066 -0.0366
  209SOL    HW2  907   2.557   1.356   0.419 -0.9563 -0.0652  2.5661
  209SOL    HW3  908   2.651   1.448   0.494  1.4958 -1.6201  1.4593
  209SOL    MW4  909   2.637   1.388   0.432 -0.5224 -0.2176  0.5041
  210SOL     OW  910   3.092   2.655   0.838  0.3087  0.8677 -0.4302
  210SOL    HW2  911   3.055   2.579   0.794  1.1048 -0.1668  0.6744
  210SOL    HW3  912   3.177   2.668   0.796  1.1647 -0.2543  0.9231
  210SOL    MW4  913   3.098   2.647   0.826  0.5267  0.5834 -0.1059
  211SOL     OW  914   1.354   2.721   0.799 -0.1935 -0.4686  0.0071
  211SOL    HW2  915   1.373   2.628   0.782  0.1574 -0.5164  0.6140
  211SOL    HW3  916   1.355   2.727   0.895  0.3741  0.2807 -0.0424
  211SOL    MW4  917   1.357   2.709   0.809 -0.0724 -0.3760  0.0806
  212SOL     OW  918   2.039   3.106   0.812  0.0002  0.0316 -0.0258
  212SOL    HW2  919   1.983   3.139   0.741  0.1089  1.7321  0.6445
  212SOL    HW3  920   2.127   3.139   0.790  0.2221 -0.2843  0.3808
  212SOL    MW4  921   2.044   3.115   0.800  0.0436  0.2143  0.1163
  213SOL     OW  922   2.326   3.984   0.759 -0.4194 -0.0859  0.1956
  213SOL    HW2  923   2.396   3.947   0.813 -1.1434 -0.8128  0.6435
  213SOL    HW3  924   2.318   4.074   0.789  1.2834  0.4258 -0.8246
  213SOL    MW4  925   2.334   3.991   0.770 -0.2906 -0.1144  0.1201
  214SOL     OW  926   2.891   2.825   0.454 -0.2304  0.3881 -0.2933
  214SOL    HW2  927   2.971   2.875   0.439  0.1782 -0.2448 -0.2485
  214SOL    HW3  928   2.882   2.823   0.549  0.0980 -0.1634 -0.2745
  214SOL    MW4  929   2.901   2.831   0.464 -0.1330  0.2320 -0.2849
  215SOL     OW  930   1.165   3.566   0.474  0.4105  0.4882  0.2779
  215SOL    HW2  931   1.260   3.577   0.473  0.3352  1.0669 -1.1577
  215SOL    HW3  932   1.140   3.581   0.565  1.8591 -1.1876  0.9911
  215SOL    MW4  933   1.174   3.569   0.486  0.5918  0.3440  0.1826
  216SOL     OW  934   3.127   3.247   0.704 -0.2738 -0.1215  0.1436
  216SOL    HW2  935   3.058   3.197   0.748 -0.1727 -0.7957 -0.4558
  216SOL    HW3  936   3.097   3.254   0.613  0.5668 -0.6386 -0.1731
  216SOL    MW4  937   3.114   3.241   0.698 -0.1497 -0.2789  0.0228
  217SOL     OW  938   4.372   3.769   0.425  0.4191  0.3068 -0.1676
  217SOL    HW2  939   4.409   3.739   0.342 -1.5794 -1.6977 -0.3881
  217SOL    HW3  940   4.417   3.718   0.492  0.3838  0.2491 -0.1880
  217SOL    MW4  941   4.383   3.759   0.423  0.1512  0.0346 -0.1994
  218SOL     OW  942   3.417   2.499   0.310 -0.1222 -0.0959 -0.0787
  218SOL    HW2  943   3.506   2.466   0.318 -0.5605 -0.9942  1.3394
  218SOL    HW3  944   3.370   2.430   0.264  0.0843  0.7253 -1.5510
  218SOL    MW4  945   3.422   2.486   0.305 -0.1531 -0.1061 -0.0858
  219SOL     OW  946   2.216   2.398   0.726  0.1981 -0.4963  0.0680
  219SOL    HW2  947   2.124   2.372   0.719 -0.3415  1.3954 -0.1271
  219SOL    HW3  948   2.213   2.483   0.770  1.7662  0.1784 -1.1011
  219SOL    MW4  949   2.203   2.406   0.731  0.3335 -0.1574 -0.1119
  220SOL     OW  950   1.340   3.904   0.468 -0.0836 -0.4925  0.2207
  220SOL    HW2  951   1.414   3.848   0.447 -0.6472 -1.4644  0.8110
  220SOL    HW3  952   1.264   3.858   0.432 -0.3989  0.5569 -0.4890
  220SOL    MW4  953   1.340   3.891   0.460 -0.1996 -0.4823  0.2050
  221SOL     OW  954   2.321   3.197   0.444  0.0286  0.6014  0.0691
  221SOL    HW2  955   2.298   3.108   0.417 -0.4513  0.4289  1.0317
  221SOL    HW3  956   2.311   3.197   0.539 -1.1589  2.0148 -0.0341
  221SOL    MW4  957   2.317   3.185   0.453 -0.1915  0.7651  0.1825
  222SOL     OW  958   3.785   4.065   0.227  0.0261  0.1369  0.1058
  222SOL    HW2  959   3.830   4.063   0.143 -0.7572  1.3479 -0.3629
  222SOL    HW3  960   3.804   3.980   0.267  2.6320  0.6031 -0.1031
  222SOL    MW4  961   3.793   4.054   0.222  0.2668  0.3576  0.0164
  223SOL     OW  962   0.896   0.087   0.799 -0.3885  0.1775 -0.1024
  223SOL    HW2  963   0.817   0.038   0.820 -1.0055 -0.6731 -3.8803
  223SOL    HW3  964   0.876   0.177   0.821 -2.4211 -0.0462 -0.8814
  223SOL    MW4  965   0.883   0.092   0.804 -0.7381  0.0358 -0.7036
  224SOL     OW  966   0.675   1.560   0.876 -0.3823  0.2501 -0.7155
  224SOL    HW2  967   0.689   1.473   0.839  0.6172  0.1613 -0.1679
  224SOL    HW3  968   0.683   1.547   0.971 -0.3058  0.9173 -0.6263
  224SOL    MW4  969   0.678   1.547   0.884 -0.2404  0.3264 -0.6314
  225SOL     OW  970   3.599   0.838   0.781  0.1845 -0.5692  0.2672
  225SOL    HW2  971   3.612   0.918   0.832  0.4586 -1.0411  0.9459
  225SOL    HW3  972   3.671   0.780   0.808  0.4249 -0.7698 -0.7719
  225SOL    MW4  973   3.610   0.841   0.791  0.2525 -0.6579  0.2196
  226SOL     OW  974   1.090   0.490   0.738  0.1013 -0.2684 -0.3056
  226SOL    HW2  975   1.045   0.450   0.664  0.0495 -1.1626  0.2000
  226SOL    HW3  976   1.176   0.447   0.739  0.9791  1.4284 -1.2668
  226SOL    MW4  977   1.096   0.479   0.728  0.2104 -0.1625 -0.3657
  227SOL     OW  978   0.570   3.866   0.284 -0.2334  0.0796  0.3345
  227SOL    HW2  979   0.506   3.798   0.304 -0.1010 -0.7314 -1.8670
  227SOL    HW3  980   0.544   3.941   0.338 -2.7207 -0.4192 -0.1475
  227SOL    MW4  981   0.558   3.867   0.294 -0.5441 -0.0932 -0.0195
  228SOL     OW  982   3.064   4.121   0.521 -0.7710 -0.0932  0.5892
  228SOL    HW2  983   3.072   4.048   0.459 -0.3431  0.7387 -0.3461
  228SOL    HW3  984   3.122   4.097   0.593  0.8003  0.1654 -0.5547
  228SOL    MW4  985   3.072   4.108   0.522 -0.5069  0.0515  0.3150
  229SOL     OW  986   0.980   2.011   0.440  0.5358  0.2858 -0.3297
  229SOL    HW2  987   1.006   2.100   0.417  0.4918  0.2557 -0.5003
  229SOL    HW3  988   1.031   1.991   0.518 -0.1996  0.8267  0.2947
  229SOL    MW4  989   0.990   2.020   0.447  0.4330  0.3533 -0.2698
  230SOL     OW  990   4.012   0.598   0.394  0.5604 -0.1837 -0.5157
  230SOL    HW2  991   4.017   0.607   0.299  0.5289 -0.3405 -0.5331
  230SOL    HW3  992   3.928   0.555   0.410  1.1202 -1.2919 -0.5055
  230SOL    MW4  993   4.002   0.593   0.384  0.6299 -0.3505 -0.5167
  231SOL     OW  994   0.339   0.834   0.493 -0.3449 -0.2002 -0.2022
  231SOL    HW2  995   0.374   0.904   0.438 -0.8476  0.4147  0.2595
  231SOL    HW3  996   0.379   0.848   0.578  0.4599 -1.1727 -0.4084
  231SOL    MW4  997   0.349   0.845   0.497 -0.3051 -0.2474 -0.1685
  232SOL     OW  998   0.663   0.747   0.813 -0.2625  0.6753 -0.7067
  232SOL    HW2  999   0.749   0.782   0.789  0.9691 -1.2498  0.7641
  232SOL    HW3 1000   0.669   0.653   0.795 -0.7071 -0.1413  2.9390
  232SOL    MW4 1001   0.675   0.739   0.807 -0.1587  0.3135 -0.0317
  233SOL     OW 1002   0.918   2.706   0.824  0.6489 -0.2861 -0.1082
  233SOL    HW2 1003   0.842   2.739   0.776  1.3846 -0.0138 -1.0906
  233SOL    HW3 1004   0.891   2.709   0.916 -0.9176 -1.2089 -0.5176
  233SOL    MW4 1005   0.904   2.710   0.830  0.5393 -0.3719 -0.2918
  234SOL     OW 1006   3.811   1.187   0.682  0.1620  0.1940  0.1252
  234SOL    HW2 1007   3.889   1.186   0.737  0.2297 -2.9901  0.0623
  234SOL    HW3 1008   3.740   1.164   0.742 -0.4434  1.2352 -0.1927
  234SOL    MW4 1009   3.812   1.184   0.697  0.0911 -0.0888  0.0749
  235SOL     OW 1010   4.060   3.935   0.725  0.3097 -0.1320  0.1855
  235SOL    HW2 1011   4.061   4.029   0.707 -0.0365 -0.0930  0.3690
  235SOL    HW3 1012   3.970   3.917   0.754  0.2794 -0.5796 -0.1773
  235SOL    MW4 1013   4.048   3.945   0.726  0.2599 -0.1860  0.1618
  236SOL     OW 1014   1.177   0.761   0.376 -0.1831  0.5817 -0.0862
  236SOL    HW2 1015   1.083   0.780   0.366 -0.1287  0.6286 -0.5476
  236SOL    HW3 1016   1.200   0.717   0.294 -0.0258 -0.3344  0.4455
  236SOL    MW4 1017   1.167   0.757   0.364 -0.1551  0.4671 -0.0769
  237SOL     OW 1018   1.910   1.386   0.405 -0.0800  0.2827  0.0639
  237SOL    HW2 1019   1.889   1.297   0.431  1.2814  0.2720  1.1772
  237SOL    HW3 1020   1.871   1.441   0.472 -0.7160  0.5264 -0.4965
  237SOL    MW4 1021   1.902   1.382   0.417  0.0156  0.3134  0.1368
  238SOL     OW 1022   4.272   3.788   0.843 -0.1907 -0.1054 -0.1672
  238SOL    HW2 1023   4.288   3.806   0.936  1.1468  0.5129 -0.5040
  238SOL    HW3 1024   4.195   3.841   0.821 -0.2280  0.1137  0.4769
  238SOL    MW4 1025   4.264   3.797   0.852 -0.0191  0.0052 -0.1267
  239SOL     OW 1026   0.187   2.478   0.403 -0.0917 -0.0058 -0.0182
  239SOL    HW2 1027   0.162   2.570   0.394 -0.2530  0.0827  1.2731
  239SOL    HW3 1028   0.280   2.480   0.424 -0.1671 -0.1310  0.3216
  239SOL    MW4 1029   0.196   2.490   0.404 -0.1229 -0.0105  0.1971
  240SOL     OW 1030   4.267   0.485   0.511 -0.3980  0.3778  0.4597
  240SOL    HW2 1031   4.186   0.524   0.480  0.3366  0.6834 -1.1431
  240SOL    HW3 1032   4.280   0.408   0.455  0.4193  0.3534  0.6718
  240SOL    MW4 1033   4.258   0.480   0.499 -0.1936  0.4149  0.2762
  241SOL     OW 1034   1.996   0.191   0.362 -0.4547  0.5021 -0.7467
  241SOL    HW2 1035   1.922   0.175   0.420  0.5809  1.6688  0.9605
  241SOL    HW3 1036   1.985   0.129   0.290 -0.2650 -3.0038  2.1286
  241SOL    MW4 1037   1.985   0.181   0.360 -0.2931  0.1935 -0.1421
  242SOL     OW 1038   3.137   1.579   0.418 -0.4649  0.0501 -0.4297
  242SOL    HW2 1039   3.049   1.615   0.409 -0.7160 -0.0277  1.5884
  242SOL    HW3 1040   3.148   1.565   0.512  1.4113 -0.6745 -0.7387
  242SOL    MW4 1041   3.127   1.582   0.429 -0.2506 -0.0557 -0.2042
  243SOL     OW 1042   2.675   2.650   0.806  0.0466 -0.4871  0.0857
  243SOL    HW2 1043   2.679   2.560   0.774  2.1327 -0.5846  0.5455
  243SOL    HW3 1044   2.694   2.644   0.900 -0.6253  0.3571  0.2925
  243SOL    MW4 1045   2.678   2.638   0.814  0.2329 -0.3886  0.1736
  244SOL     OW 1046   0.457   2.510   0.450 -0.1201 -0.1651 -0.2776
  244SOL    HW2 1047   0.437   2.504   0.544 -2.0757 -2.8685 -0.7909
  244SOL    HW3 1048   0.518   2.437   0.434 -0.4549 -0.2397 -1.2493
  244SOL    MW4 1049   0.462   2.499   0.461 -0.4223 -0.5317 -0.4735
  245SOL     OW 1050   2.686   2.349   0.445 -0.2775 -0.3714 -0.2347
  245SOL    HW2 1051   2.733   2.427   0.417 -2.7350  1.0299 -0.6347
  245SOL    HW3 1052   2.662   2.366   0.536 -1.1604 -0.4835 -0.4403
  245SOL    MW4 1053   2.689   2.361   0.453 -0.7181 -0.2010 -0.3146
  246SOL     OW 1054   1.018   0.358   0.482 -0.2665 -0.3323  0.2587
  246SOL    HW2 1055   0.966   0.400   0.414  0.5788 -0.7282 -0.6595
  246SOL    HW3 1056   1.109   0.371   0.453  0.0471 -1.7108  0.5879
  246SOL    MW4 1057   1.023   0.365   0.469 -0.1136 -0.5664  0.1810
  247SOL     OW 1058   0.250   4.588   0.889 -0.4269  0.3354 -0.3739
  247SOL    HW2 1059   0.257   4.513   0.830 -0.6511  0.4858 -0.5897
  247SOL    HW3 1060   0.174   4.636   0.859 -1.0113 -0.0134  0.5210
  247SOL    MW4 1061   0.241   4.584   0.878 -0.5336  0.3090 -0.2843
  248SOL     OW 1062   3.614   3.685   0.447  0.2214  0.2233 -0.1695
  248SOL    HW2 1063   3.657   3.664   0.530  0.4594  1.1307 -0.0577
  248SOL    HW3 1064   3.683   3.723   0.393 -0.2048  0.7222 -0.3663
  248SOL    MW4 1065   3.629   3.687   0.450  0.1965  0.4086 -0.1807
  249SOL     OW 1066   0.906   0.806   0.454  0.1905 -0.2595 -0.0389
  249SOL    HW2 1067   0.830   0.861   0.437  0.9468  0.6053 -0.6719
  249SOL    HW3 1068   0.878   0.717   0.432 -0.2219  0.2394 -1.5762
  249SOL    MW4 1069   0.893   0.801   0.449  0.2360 -0.0796 -0.3253
  250SOL     OW 1070   0.248   0.687   0.860 -0.3678  0.3883 -0.0643
  250SOL    HW2 1071   0.265   0.687   0.954 -2.2434 -1.6631  0.3237
  250SOL    HW3 1072   0.314   0.746   0.823  0.9891  0.4722  2.4158
  250SOL    MW4 1073   0.259   0.695   0.867 -0.4362  0.1287  0.3141
  251SOL     OW 1074   0.874   0.353   0.895 -0.1711  0.3173  0.2849
  251SOL    HW2 1075   0.935   0.415   0.856 -0.4117  0.8937  0.8289
  251SOL    HW3 1076   0.906   0.340   0.984 -0.8465  0.6199  0.5702
  251SOL    MW4 1077   0.886   0.359   0.902 -0.2920  0.4333  0.3943
  252SOL     OW 1078   0.966   0.082   0.504 -0.2082  0.3890 -0.2296
  252SOL    HW2 1079   0.933   0.099   0.592 -1.9611 -0.0790 -0.7701
  252SOL    HW3 1080   0.988   0.168   0.469 -0.8129  0.7057  0.1676
  252SOL    MW4 1081   0.964   0.095   0.511 -0.5192  0.3690 -0.2486
  253SOL     OW 1082   3.054   2.419   0.672 -0.4151 -0.5147 -0.2402
  253SOL    HW2 1083   3.055   2.403   0.578  0.6157  0.7799 -0.4594
  253SOL    HW3 1084   3.134   2.377   0.704 -0.1441  0.0979 -0.1172
  253SOL    MW4 1085   3.065   2.411   0.664 -0.2434 -0.2632 -0.2528
  254SOL     OW 1086   2.162   0.640   0.350  0.0941  0.3144 -0.3236
  254SOL    HW2 1087   2.135   0.670   0.263 -0.1333  1.8741  0.2857
  254SOL    HW3 1088   2.082   0.607   0.390 -0.1734  1.4201  0.0454
  254SOL    MW4 1089   2.148   0.640   0.344  0.0288  0.6660 -0.1945
  255SOL     OW 1090   0.916   1.682   0.785  0.0035  0.3678 -0.0314
  255SOL    HW2 1091   0.912   1.777   0.802 -0.4475  0.4595 -0.6298
  255SOL    HW3 1092   0.836   1.648   0.826 -0.0543  0.3033 -0.2014
  255SOL    MW4 1093   0.905   1.690   0.793 -0.0637  0.3715 -0.1328
  256SOL     OW 1094   1.937   3.595   0.284 -0.1242 -0.2240  0.4829
  256SOL    HW2 1095   2.012   3.545   0.315  0.7650  1.1744  0.6243
  256SOL    HW3 1096   1.960   3.622   0.195 -1.5061 -1.8617 -0.4125
  256SOL    MW4 1097   1.950   3.592   0.276 -0.1892 -0.2553  0.3834
  257SOL     OW 1098   3.810   2.051   0.475 -0.3804  0.1192  0.1618
  257SOL    HW2 1099   3.839   2.034   0.565 -0.8757 -0.7036  0.1704
  257SOL    HW3 1100   3.808   1.965   0.434 -0.1816  0.4927 -0.6342
  257SOL    MW4 1101   3.813   2.037   0.482 -0.4196  0.0601  0.0579
  258SOL     OW 1102   2.444   2.797   0.464 -0.0258  0.2182  0.3663
  258SOL    HW2 1103   2.362   2.836   0.433 -0.9450 -1.0225  1.1707
  258SOL    HW3 1104   2.446   2.710   0.423  1.0245  0.3375  0.1451
  258SOL    MW4 1105   2.434   2.791   0.454 -0.0083  0.0699  0.4432
  259SOL     OW 1106   0.470   1.995   0.816 -0.1807  0.0830 -0.1507
  259SOL    HW2 1107   0.458   1.903   0.792  0.7711 -0.1124  0.1205
  259SOL    HW3 1108   0.474   1.995   0.911  0.1502  0.3619 -0.1613
  259SOL    MW4 1109   0.469   1.983   0.825 -0.0114  0.0941 -0.1163
  260SOL     OW 1110   4.273   1.502   0.893  0.0458 -0.8625  0.4246
  260SOL    HW2 1111   4.277   1.523   0.986 -1.8053  0.4440  0.2371
  260SOL    HW3 1112   4.183   1.520   0.868  1.0758  1.1345 -2.1335
  260SOL    MW4 1113   4.262   1.507   0.902 -0.0625 -0.4265  0.0624
  261SOL     OW 1114   0.337   2.896   0.513  0.1580  0.1859 -0.1516
  261SOL    HW2 1115   0.346   2.990   0.496 -0.1060  0.2101 -0.1618
  261SOL    HW3 1116   0.427   2.863   0.518  0.2544  0.5523  0.4866
  261SOL    MW4 1117   0.350   2.904   0.511  0.1359  0.2377 -0.0688
  262SOL     OW 1118   1.786   2.483   0.449 -0.3612 -0.3464  0.1743
  262SOL    HW2 1119   1.861   2.432   0.417 -1.5421 -1.5539 -0.7228
  262SOL    HW3 1120   1.710   2.443   0.406 -1.7511 -0.4937  2.6629
  262SOL    MW4 1121   1.786   2.471   0.439 -0.7004 -0.5252  0.3842
  263SOL     OW 1122   0.417   3.241   0.796  0.3963  0.1670 -0.1177
  263SOL    HW2 1123   0.335   3.206   0.830 -0.1404  0.7724 -0.7515
  263SOL    HW3 1124   0.406   3.336   0.800  0.8382  0.2511 -0.7205
  263SOL    MW4 1125   0.405   3.249   0.801  0.3838  0.2580 -0.2809
  264SOL     OW 1126   4.413   3.405   0.852  0.4283 -0.1526  0.3860
  264SOL    HW2 1127   4.422   3.315   0.821  0.5986  0.2105 -0.6621
  264SOL    HW3 1128   4.420   3.458   0.772 -1.9941  0.6555  0.6670
  264SOL    MW4 1129   4.415   3.400   0.837  0.1311  0.0021  0.2848
  265SOL     OW 1130   4.431   3.617   0.653  0.5081  0.0908 -0.0163
  265SOL    HW2 1131   4.392   3.682   0.710 -0.8768 -1.5677  0.9951
  265SOL    HW3 1132   4.525   3.629   0.662  0.2738  1.2497  0.9352
  265SOL    MW4 1133   4.438   3.627   0.661  0.2947  0.0250  0.2427
  266SOL     OW 1134   0.233   3.684   0.654 -0.2670  0.3327  0.1958
  266SOL    HW2 1135   0.264   3.759   0.704  0.6487  0.4184 -0.4848
  266SOL    HW3 1136   0.271   3.608   0.698 -0.3557  0.3368  0.2787
  266SOL    MW4 1137   0.242   3.684   0.666 -0.1578  0.3445  0.1169
  267SOL     OW 1138   1.978   0.444   0.477  0.2257 -0.1653 -0.0276
  267SOL    HW2 1139   2.005   0.365   0.431 -2.1215 -1.0951  0.1547
  267SOL    HW3 1140   1.887   0.457   0.452 -0.3992  0.6222  2.5168
  267SOL    MW4 1141   1.970   0.435   0.468 -0.1664 -0.1841  0.3321
  268SOL     OW 1142   0.597   0.433   0.504  0.1085  0.1867 -0.4239
  268SOL    HW2 1143   0.631   0.443   0.593  0.3484  0.6127 -0.5594
  268SOL    HW3 1144   0.554   0.348   0.504  1.1424 -0.3330 -0.2376
  268SOL    MW4 1145   0.596   0.423   0.516  0.2766  0.1743 -0.4171
  269SOL     OW 1146   4.171   1.541   0.448 -0.5996 -0.6487 -0.1435
  269SOL    HW2 1147   4.135   1.614   0.397 -2.5390 -1.3209  0.2204
  269SOL    HW3 1148   4.106   1.525   0.516  0.6618 -1.5760  0.8715
  269SOL    MW4 1149   4.158   1.549   0.450 -0.6886 -0.8597  0.0385
  270SOL     OW 1150   3.115   3.528   0.466  0.4243 -0.3701  0.0582
  270SOL    HW2 1151   3.091   3.437   0.448 -0.8422  0.0903 -0.6576
  270SOL    HW3 1152   3.073   3.578   0.396  1.5563  0.7150  0.1459
  270SOL    MW4 1153   3.106   3.523   0.455  0.4067 -0.1662 -0.0247
  271SOL     OW 1154   0.666   4.627   0.908  0.1827  0.3135 -0.4761
  271SOL    HW2 1155   0.654   4.615   1.002 -0.7671  0.3447 -0.5871
  271SOL    HW3 1156   0.676   4.539   0.873 -0.2178  0.2529 -0.4410
  271SOL    MW4 1157   0.666   4.614   0.916  0.0046  0.3099 -0.4861
  272SOL     OW 1158   2.428   2.255   0.839 -0.2210  0.5278  0.1895
  272SOL    HW2 1159   2.438   2.257   0.934  0.2172  1.5445  0.1299
  272SOL    HW3 1160   2.348   2.304   0.822 -0.0897  0.6808  0.0092
  272SOL    MW4 1161   2.419   2.262   0.849 -0.1457  0.6819  0.1578
  273SOL     OW 1162   1.439   0.622   0.512 -1.2654  0.8447 -0.1994
  273SOL    HW2 1163   1.463   0.603   0.603 -1.1141  0.2642 -0.3556
  273SOL    HW3 1164   1.352   0.661   0.518 -1.4369  0.4169  0.1669
  273SOL    MW4 1165   1.431   0.624   0.525 -1.2681  0.7116 -0.1717
  274SOL     OW 1166   3.384   2.222   0.191  0.0675 -0.6085 -0.1454
  274SOL    HW2 1167   3.409   2.195   0.102  1.9224 -0.8971  0.4397
  274SOL    HW3 1168   3.300   2.179   0.206  0.6438 -2.1306 -1.0726
  274SOL    MW4 1169   3.376   2.213   0.181  0.3881 -0.8473 -0.1905
  275SOL     OW 1170   0.058   0.074   0.783  0.2869 -0.3792 -0.2927
  275SOL    HW2 1171   0.059   0.166   0.812  0.9114 -0.1608 -1.0021
  275SOL    HW3 1172  -0.018   0.036   0.828  0.9388  0.0790  1.2295
  275SOL    MW4 1173   0.048   0.081   0.793  0.4554 -0.2899 -0.1854
  276SOL     OW 1174   0.788   4.554   0.414  0.3399 -0.3596 -0.3343
  276SOL    HW2 1175   0.832   4.630   0.451 -0.5044 -0.8365  1.7358
  276SOL    HW3 1176   0.698   4.583   0.400  0.4796 -0.4022 -1.4063
  276SOL    MW4 1177   0.782   4.568   0.417  0.2469 -0.4282 -0.2026
  277SOL     OW 1178   4.304   2.946   0.691 -0.3367  0.2283  0.1825
  277SOL    HW2 1179   4.244   2.955   0.765 -2.0231 -1.4141 -0.9238
  277SOL    HW3 1180   4.348   2.862   0.706 -0.3199  0.1298 -0.3911
  277SOL    MW4 1181   4.302   2.936   0.703 -0.5569 -0.0012 -0.0391
  278SOL     OW 1182   3.718   2.700   0.466  0.0828 -0.3402 -0.3352
  278SOL    HW2 1183   3.802   2.682   0.507  0.5148 -0.9799 -1.4784
  278SOL    HW3 1184   3.726   2.789   0.431  0.2653 -0.3740 -0.3785
  278SOL    MW4 1185   3.730   2.710   0.467  0.1636 -0.4292 -0.4917
  279SOL     OW 1186   0.805   0.550   0.371  0.1492  0.1347 -0.2079
  279SOL    HW2 1187   0.779   0.554   0.279  1.3186  0.3479 -0.5406
  279SOL    HW3 1188   0.730   0.512   0.416 -0.8793  1.1019 -1.0777
  279SOL    MW4 1189   0.792   0.546   0.365  0.1677  0.2904 -0.3666
  280SOL     OW 1190   3.324   2.009   0.433  0.2914 -0.2265 -0.0883
  280SOL    HW2 1191   3.390   2.077   0.417  0.9389 -1.2522 -1.8302
  280SOL    HW3 1192   3.249   2.035   0.379  0.4172 -0.7288 -0.5034
  280SOL    MW4 1193   3.323   2.022   0.424  0.3936 -0.4282 -0.3729
  281SOL     OW 1194   0.860   1.198   0.467  0.2258  0.2433 -0.1483
  281SOL    HW2 1195   0.799   1.267   0.442  0.1852 -0.1383 -1.1350
  281SOL    HW3 1196   0.804   1.127   0.499  0.2579  0.5956  0.6968
  281SOL    MW4 1197   0.845   1.198   0.467  0.2246  0.2395 -0.1670
  282SOL     OW 1198   1.557   2.302   0.364 -0.0126 -0.4328 -0.2543
  282SOL    HW2 1199   1.559   2.220   0.413 -0.8051 -1.0246 -1.1684
  282SOL    HW3 1200   1.561   2.274   0.272 -0.1657  0.5547 -0.5642
  282SOL    MW4 1201   1.558   2.287   0.358 -0.1372 -0.3808 -0.4158
  283SOL     OW 1202   0.184   2.323   0.808 -0.8687  0.1084  0.4900
  283SOL    HW2 1203   0.239   2.398   0.785 -0.9538 -0.0650 -0.2775
  283SOL    HW3 1204   0.095   2.358   0.806 -1.0042 -0.3179 -1.0947
  283SOL    MW4 1205   0.180   2.338   0.805 -0.8978  0.0293  0.1796
  284SOL     OW 1206   0.232   2.835   0.798 -0.1598 -0.0083 -0.0377
  284SOL    HW2 1207   0.157   2.776   0.805 -0.6805  0.7735  1.0188
  284SOL    HW3 1208   0.244   2.846   0.704 -2.3426  1.0750 -0.2279
  284SOL    MW4 1209   0.223   2.828   0.786 -0.5165  0.2377  0.0766
  285SOL     OW 1210   0.455   2.676   0.860 -0.2045  0.2995  0.0106
  285SOL    HW2 1211   0.457   2.670   0.955 -0.0702 -1.6413 -0.0977
  285SOL    HW3 1212   0.381   2.733   0.841 -0.2565  0.6661  1.2730
  285SOL    MW4 1213   0.446   2.683   0.870 -0.1936  0.0918  0.1628
  286SOL     OW 1214   0.464   2.445   0.734  0.0034 -0.4262  0.2391
  286SOL    HW2 1215   0.462   2.524   0.788  2.0580 -0.2342  0.0854
  286SOL    HW3 1216   0.537   2.394   0.770 -1.9225 -2.7324  0.9833
  286SOL    MW4 1217   0.474   2.449   0.746  0.0204 -0.7050  0.3170
  287SOL     OW 1218   0.677   3.133   0.831 -0.4063 -0.0779 -0.6046
  287SOL    HW2 1219   0.596   3.175   0.804 -1.7552 -2.3771 -0.2514
  287SOL    HW3 1220   0.669   3.043   0.801  1.5214 -0.6462  0.4699
  287SOL    MW4 1221   0.666   3.127   0.823 -0.3300 -0.4561 -0.4162
  288SOL     OW 1222   0.191   3.090   0.876  0.5559  0.3595  0.2037
  288SOL    HW2 1223   0.188   3.087   0.972 -0.1433  0.1656  0.1846
  288SOL    HW3 1224   0.200   2.998   0.850 -0.6439  0.2618  0.0634
  288SOL    MW4 1225   0.192   3.077   0.886  0.3054  0.3211  0.1827
  289SOL     OW 1226   0.398   3.531   0.812 -0.2085 -0.0955  0.3027
  289SOL    HW2 1227   0.392   3.532   0.908 -0.4045  0.4890  0.2878
  289SOL    HW3 1228   0.475   3.584   0.792  0.2787 -0.8462  0.1623
  289SOL    MW4 1229   0.407   3.538   0.822 -0.1701 -0.1171  0.2823
  290SOL     OW 1230   0.718   3.904   0.852  0.2199 -0.2640 -0.4521
  290SOL    HW2 1231   0.708   3.813   0.823 -1.1492 -0.1201 -0.4840
  290SOL    HW3 1232   0.640   3.948   0.819  0.4342  0.7179  0.3305
  290SOL    MW4 1233   0.706   3.898   0.844  0.0676 -0.1154 -0.3530
  291SOL     OW 1234   0.444   4.247   0.858  0.2853  0.3567 -0.4034
  291SOL    HW2 1235   0.513   4.302   0.819  0.2439  0.8445  0.2086
  291SOL    HW3 1236   0.458   4.254   0.952  0.1332 -0.5120 -0.3136
  291SOL    MW4 1237   0.455   4.256   0.865  0.2598  0.3066 -0.3108
  292SOL     OW 1238   3.608   1.116   0.855  0.1287  0.3478 -0.2955
  292SOL    HW2 1239   3.601   1.139   0.947 -1.5169  0.8374 -0.5305
  292SOL    HW3 1240   3.523   1.141   0.817  0.2927 -1.1018 -1.6571
  292SOL    MW4 1241   3.596   1.123   0.862 -0.0668  0.2210 -0.5062
  293SOL     OW 1242   0.430   0.105   0.812  0.0223  0.5068  0.6163
  293SOL    HW2 1243   0.363   0.040   0.833  1.3123 -1.1803 -0.3485
  293SOL    HW3 1244   0.513   0.064   0.838  1.0576  0.8655 -1.9696
  293SOL    MW4 1245   0.432   0.091   0.818  0.3291  0.3315  0.1478
  294SOL     OW 1246   3.944   3.078   0.478  0.0297 -0.2313 -0.1702
  294SOL    HW2 1247   3.863   3.036   0.449 -0.5025  0.1523  0.7400
  294SOL    HW3 1248   4.013   3.016   0.453 -0.7981 -1.9876  1.7525
  294SOL    MW4 1249   3.942   3.064   0.471 -0.1497 -0.4122  0.2036
  295SOL     OW 1250   1.151   4.661   0.856  0.2425 -0.5555 -0.1560
  295SOL    HW2 1251   1.152   4.573   0.819  1.7634 -0.9651  0.8573
  295SOL    HW3 1252   1.063   4.694   0.835 -0.4042 -2.3677 -0.3708
  295SOL    MW4 1253   1.139   4.654   0.848  0.3580 -0.8488 -0.0506
  296SOL     OW 1254   2.049   4.382   0.741  0.3825  0.1018  0.5299
  296SOL    HW2 1255   2.045   4.364   0.647  0.7143  0.6978  0.3999
  296SOL    HW3 1256   1.972   4.338   0.777 -0.6158  1.1808 -0.2433
  296SOL    MW4 1257   2.038   4.374   0.733  0.2942  0.3228  0.4107
  297SOL     OW 1258   4.277   0.711   0.856  0.4703 -0.3593  0.8407
  297SOL    HW2 1259   4.361   0.745   0.827  0.1176 -1.2150 -1.2713
  297SOL    HW3 1260   4.212   0.764   0.810 -0.1360 -0.3893  1.6544
  297SOL    MW4 1261   4.280   0.722   0.846  0.3438 -0.4762  0.6694
  298SOL     OW 1262   1.576   1.229   0.595  0.1080  0.1653  0.4573
  298SOL    HW2 1263   1.626   1.177   0.533 -0.6098 -1.5161  1.2638
  298SOL    HW3 1264   1.514   1.278   0.541  0.7257  0.1167 -0.3030
  298SOL    MW4 1265   1.574   1.229   0.580  0.0948 -0.0629  0.4634
  299SOL     OW 1266   2.283   4.398   0.400 -0.5839  0.1429 -0.3140
  299SOL    HW2 1267   2.209   4.440   0.444 -0.6371 -0.1541 -0.1211
  299SOL    HW3 1268   2.255   4.387   0.310 -0.2736  1.2570 -0.5553
  299SOL    MW4 1269   2.270   4.402   0.394 -0.5500  0.2508 -0.3204
  300SOL     OW 1270   0.426   0.891   0.756 -0.0910 -0.3297 -0.5939
  300SOL    HW2 1271   0.453   0.977   0.787 -0.1820 -0.2878 -0.6295
  300SOL    HW3 1272   0.497   0.833   0.780 -1.0468 -0.6640  1.5049
  300SOL    MW4 1273   0.439   0.895   0.763 -0.2291 -0.3683 -0.3217
  301SOL     OW 1274   1.590   1.984   0.769  0.1195 -0.1625  0.1462
  301SOL    HW2 1275   1.576   2.069   0.810  2.1885 -0.2946  1.1852
  301SOL    HW3 1276   1.663   1.946   0.817 -0.4028 -2.2886 -0.6888
  301SOL    MW4 1277   1.597   1.990   0.781  0.3235 -0.4604  0.1731
  302SOL     OW 1278   1.879   4.065   0.522 -0.1465 -0.4648 -0.2263
  302SOL    HW2 1279   1.859   3.987   0.469  1.8784 -0.0805 -1.6503
  302SOL    HW3 1280   1.968   4.089   0.495  0.0696  1.0866  1.7660
  302SOL    MW4 1281   1.888   4.058   0.511  0.1491 -0.2093 -0.1513
  303SOL     OW 1282   0.016   1.125   0.849 -0.2364 -0.3357 -0.4051
  303SOL    HW2 1283   0.027   1.033   0.825  1.0200 -0.3288  0.1270
  303SOL    HW3 1284   0.002   1.123   0.944 -3.9703 -0.2669 -0.8530
  303SOL    MW4 1285   0.015   1.113   0.859 -0.5633 -0.3257 -0.3940
  304SOL     OW 1286   1.126   2.885   0.756  0.1632 -0.1253 -0.0274
  304SOL    HW2 1287   1.057   2.829   0.790  1.1671 -0.3311  1.7296
  304SOL    HW3 1288   1.204   2.829   0.757  0.5556  0.3871 -1.1152
  304SOL    MW4 1289   1.128   2.870   0.760  0.3475 -0.0846  0.0609
  305SOL     OW 1290   0.688   2.089   0.669  0.2242  0.0469  0.7559
  305SOL    HW2 1291   0.615   2.061   0.724 -0.4225  0.0470 -0.1016
  305SOL    HW3 1292   0.760   2.031   0.693 -0.6478 -1.3015  0.1154
  305SOL    MW4 1293   0.688   2.078   0.679  0.0238 -0.1311  0.5583
  306SOL     OW 1294   2.526   3.552   0.515  0.1894  0.0500 -0.0807
  306SOL    HW2 1295   2.586   3.624   0.498  0.0275  0.3402  0.5521
  306SOL    HW3 1296   2.441   3.583   0.483 -0.2683  0.8882  1.8929
  306SOL    MW4 1297   2.523   3.566   0.509  0.1078  0.1986  0.2633
  307SOL     OW 1298   1.094   2.294   0.838  0.0040 -0.2130  0.0767
  307SOL    HW2 1299   1.014   2.343   0.818  0.4880  0.8247  0.6116
  307SOL    HW3 1300   1.097   2.292   0.934  1.6412  1.4911  0.0872
  307SOL    MW4 1301   1.084   2.300   0.848  0.2840  0.1485  0.1487
  308SOL     OW 1302   0.894   1.959   0.802 -0.3057 -0.1499  0.2228
  308SOL    HW2 1303   0.882   1.961   0.897 -1.5137  1.5309  0.0579
  308SOL    HW3 1304   0.983   1.992   0.788  0.1339 -1.0607  0.7852
  308SOL    MW4 1305   0.904   1.963   0.812 -0.4071 -0.0483  0.2753
  309SOL     OW 1306   0.679   2.853   0.774  0.0653  0.1623 -0.1170
  309SOL    HW2 1307   0.612   2.787   0.794  1.2730 -0.4758  1.9549
  309SOL    HW3 1308   0.684   2.854   0.678 -2.2290 -0.4411 -0.2858
  309SOL    MW4 1309   0.671   2.845   0.764 -0.0780 -0.0014  0.1341
  310SOL     OW 1310   1.163   3.317   0.271 -0.4823 -0.1663  0.3066
  310SOL    HW2 1311   1.179   3.355   0.185  1.2489 -1.2599  0.1250
  310SOL    HW3 1312   1.135   3.391   0.325  1.0133  1.0421 -0.5196
  310SOL    MW4 1313   1.162   3.331   0.267 -0.0567 -0.1512  0.1736
  311SOL     OW 1314   4.016   2.404   0.647 -0.2939 -0.3364 -0.1565
  311SOL    HW2 1315   3.944   2.382   0.705  0.2036 -0.2388  0.5041
  311SOL    HW3 1316   3.994   2.361   0.564 -2.0569  1.3129 -0.5547
  311SOL    MW4 1317   4.004   2.395   0.644 -0.4611 -0.1059 -0.1218
  312SOL     OW 1318   3.566   3.458   0.848 -0.3201  0.2706  0.2338
  312SOL    HW2 1319   3.471   3.458   0.837 -0.2499 -0.1146 -0.3566
  312SOL    HW3 1320   3.594   3.373   0.815  0.1882  0.2345  0.7688
  312SOL    MW4 1321   3.557   3.447   0.842 -0.2437  0.2151  0.2265
  313SOL     OW 1322   0.663   3.636   0.719  0.4146  0.6191 -0.3655
  313SOL    HW2 1323   0.743   3.609   0.764 -0.8499 -2.3567  0.1850
  313SOL    HW3 1324   0.684   3.625   0.626  0.3014 -1.1788 -0.1824
  313SOL    MW4 1325   0.676   3.631   0.712  0.2328 -0.0107 -0.2688
  314SOL     OW 1326   0.901   3.538   0.848 -0.1465 -0.4623  0.0677
  314SOL    HW2 1327   0.899   3.447   0.818 -0.3542 -0.2579 -0.5424
  314SOL    HW3 1328   0.986   3.571   0.819  0.9214 -1.1455  2.3327
  314SOL    MW4 1329   0.912   3.530   0.840 -0.0330 -0.5252  0.2861
  315SOL     OW 1330   1.155   3.874   0.827 -0.4495  0.1444  0.0174
  315SOL    HW2 1331   1.157   3.881   0.923 -0.3215  0.8358 -0.0339
  315SOL    HW3 1332   1.234   3.920   0.798 -0.0205 -0.8159 -0.3810
  315SOL    MW4 1333   1.166   3.881   0.836 -0.3761  0.1092 -0.0420
  316SOL     OW 1334   0.509   4.076   0.464  0.1215  0.2654  0.4209
  316SOL    HW2 1335   0.490   4.047   0.553  0.9633  1.8002  1.1051
  316SOL    HW3 1336   0.576   4.144   0.474  1.3997 -0.6655 -1.4925
  316SOL    MW4 1337   0.515   4.081   0.477  0.4012  0.3443  0.2587
  317SOL     OW 1338   0.939   4.252   0.844 -0.0298 -0.1448 -0.2281
  317SOL    HW2 1339   0.941   4.173   0.790  0.2726 -0.6743  0.5522
  317SOL    HW3 1340   1.007   4.309   0.806 -0.0515 -0.3720 -0.6114
  317SOL    MW4 1341   0.948   4.249   0.832  0.0073 -0.2446 -0.1757
  318SOL     OW 1342   1.137   3.154   0.830 -0.2535 -0.0259  0.3243
  318SOL    HW2 1343   1.124   3.065   0.797  1.4454  0.0618 -0.6896
  318SOL    HW3 1344   1.070   3.207   0.786  0.8534 -0.2352 -1.6988
  318SOL    MW4 1345   1.127   3.150   0.820  0.1167 -0.0417 -0.0764
  319SOL     OW 1346   1.565   4.635   0.836 -0.1611 -0.3822  0.3328
  319SOL    HW2 1347   1.481   4.679   0.833 -0.2287 -0.4765  0.7668
  319SOL    HW3 1348   1.571   4.601   0.925 -0.4598 -1.9319 -0.2190
  319SOL    MW4 1349   1.555   4.636   0.847 -0.2093 -0.5994  0.3172
  320SOL     OW 1350   1.356   0.115   0.745 -0.1609  0.1363  0.6551
  320SOL    HW2 1351   1.274   0.078   0.779  0.5485 -1.1502  0.9706
  320SOL    HW3 1352   1.356   0.205   0.777 -1.3669  0.0912  0.8099
  320SOL    MW4 1353   1.345   0.122   0.753 -0.2264 -0.0394  0.7172
  321SOL     OW 1354   0.646   0.474   0.777  0.1103 -0.3591 -0.0116
  321SOL    HW2 1355   0.560   0.456   0.813 -0.6352 -0.5945 -1.8776
  321SOL    HW3 1356   0.706   0.425   0.833 -0.9950 -0.5107  1.0534
  321SOL    MW4 1357   0.643   0.465   0.789 -0.1339 -0.4102 -0.1173
  322SOL     OW 1358   2.016   0.767   0.802 -0.5086 -0.2964  0.4367
  322SOL    HW2 1359   2.024   0.673   0.782 -1.7185 -0.0968 -1.0311
  322SOL    HW3 1360   2.090   0.807   0.758 -1.2743 -0.2867 -0.8635
  322SOL    MW4 1361   2.027   0.760   0.794 -0.7689 -0.2688  0.0715
  323SOL     OW 1362   0.047   0.589   0.575 -0.1523  0.3600 -0.3358
  323SOL    HW2 1363   0.065   0.678   0.546 -0.0347  0.5543  0.3257
  323SOL    HW3 1364  -0.040   0.570   0.541 -0.0018  0.5698 -0.8449
  323SOL    MW4 1365   0.038   0.598   0.567 -0.1169  0.4132 -0.3157
  324SOL     OW 1366   1.808   0.911   0.695 -0.1180 -0.4465  0.2424
  324SOL    HW2 1367   1.795   0.998   0.732 -1.5351 -0.1110 -1.0158
  324SOL    HW3 1368   1.896   0.886   0.724  0.2576  1.3437  0.7124
  324SOL    MW4 1369   1.818   0.919   0.704 -0.2555 -0.1661  0.1385
  325SOL     OW 1370   0.912   1.153   0.813  0.0561 -0.0937 -0.2442
  325SOL    HW2 1371   0.920   1.063   0.781  0.1512  0.4587 -1.8079
  325SOL    HW3 1372   0.987   1.199   0.773  0.3290  0.5515  0.9968
  325SOL    MW4 1373   0.923   1.147   0.803  0.1047  0.0644 -0.2868
  326SOL     OW 1374   3.084   1.305   0.382 -0.6811  0.0835 -0.2265
  326SOL    HW2 1375   3.121   1.296   0.295 -1.2184  0.9505 -0.5459
  326SOL    HW3 1376   3.090   1.399   0.402  0.3327 -0.2395  1.0603
  326SOL    MW4 1377   3.089   1.316   0.373 -0.6185  0.1552 -0.0989
  327SOL     OW 1378   2.046   0.501   0.751  0.5347 -0.3517 -0.0485
  327SOL    HW2 1379   2.126   0.462   0.785  0.5153 -0.9047 -0.6436
  327SOL    HW3 1380   2.038   0.468   0.662 -0.3278 -0.2635 -0.0131
  327SOL    MW4 1381   2.055   0.492   0.744  0.4184 -0.4130 -0.1224
  328SOL     OW 1382   2.680   1.099   0.879  0.0025 -0.0978  0.0660
  328SOL    HW2 1383   2.598   1.109   0.829 -0.0372  0.0110  0.1521
  328SOL    HW3 1384   2.737   1.167   0.843  0.1441 -0.3389 -0.1704
  328SOL    MW4 1385   2.676   1.110   0.867  0.0160 -0.1153  0.0462
  329SOL     OW 1386   0.721   1.916   0.459 -0.2682  0.5195 -0.0958
  329SOL    HW2 1387   0.699   1.989   0.517 -0.4659  0.1389  0.3078
  329SOL    HW3 1388   0.807   1.938   0.425  0.9161 -0.3900  2.1827
  329SOL    MW4 1389   0.729   1.928   0.462 -0.1381  0.3492  0.2581
  330SOL     OW 1390   2.065   1.387   0.827  0.0921  0.0488  0.2624
  330SOL    HW2 1391   2.114   1.448   0.772 -0.2608 -0.0072 -0.1169
  330SOL    HW3 1392   2.110   1.303   0.815  0.2820  0.1311  0.4028
  330SOL    MW4 1393   2.077   1.384   0.818  0.0703  0.0522  0.2308
  331SOL     OW 1394   1.556   2.284   0.804 -0.1479 -0.0158 -0.3633
  331SOL    HW2 1395   1.626   2.348   0.788 -0.1231 -0.0344 -0.3290
  331SOL    HW3 1396   1.477   2.325   0.771 -0.4156  0.6986  1.1251
  331SOL    MW4 1397   1.555   2.298   0.797 -0.1800  0.0761 -0.1625
  332SOL     OW 1398   2.447   2.799   0.758 -0.1842  0.1216 -0.0236
  332SOL    HW2 1399   2.522   2.742   0.774 -1.9062 -2.1786  0.0641
  332SOL    HW3 1400   2.448   2.813   0.663  0.8657  0.8673  0.0820
  332SOL    MW4 1401   2.457   2.794   0.748 -0.2730 -0.0834  0.0019
  333SOL     OW 1402   1.799   2.734   0.791  0.0810 -0.0417  0.2695
  333SOL    HW2 1403   1.722   2.787   0.769  0.0984  1.1656  2.8919
  333SOL    HW3 1404   1.874   2.788   0.766  0.1104 -0.7721 -1.2879
  333SOL    MW4 1405   1.798   2.748   0.785  0.0871  0.0215  0.4099
  334SOL     OW 1406   1.376   3.258   0.717 -0.3194 -0.3202 -0.5436
  334SOL    HW2 1407   1.301   3.215   0.758 -0.3157 -1.1360 -1.3590
  334SOL    HW3 1408   1.357   3.255   0.623  0.3683  0.1543 -0.7039
  334SOL    MW4 1409   1.364   3.252   0.710 -0.2282 -0.3650 -0.6723
  335SOL     OW 1410   3.603   4.035   0.680  0.0038 -0.3629  0.8414
  335SOL    HW2 1411   3.552   3.965   0.720 -0.9986  1.1102  2.2037
  335SOL    HW3 1412   3.578   4.032   0.587 -2.5727  0.2947  1.4611
  335SOL    MW4 1413   3.593   4.025   0.673 -0.4687 -0.0815  1.1028
  336SOL     OW 1414   1.639   3.191   0.350  0.2510 -0.3881  0.1081
  336SOL    HW2 1415   1.609   3.103   0.376  0.1566 -0.4848 -0.3260
  336SOL    HW3 1416   1.733   3.180   0.334  0.4717 -0.1505  1.1820
  336SOL    MW4 1417   1.648   3.178   0.352  0.2679 -0.3698  0.1925
  337SOL     OW 1418   1.782   2.740   0.325 -0.4744  0.1175 -0.3543
  337SOL    HW2 1419   1.774   2.652   0.362 -0.3865  0.1512 -0.2558
  337SOL    HW3 1420   1.818   2.727   0.238 -0.1404  0.0819 -0.2104
  337SOL    MW4 1421   1.786   2.727   0.319 -0.4188  0.1173 -0.3224
  338SOL     OW 1422   1.633   3.177   0.815 -0.3958  0.6788  0.4316
  338SOL    HW2 1423   1.611   3.151   0.904  0.3991 -0.4222  0.3246
  338SOL    HW3 1424   1.549   3.200   0.775 -0.9069  0.0071  1.1002
  338SOL    MW4 1425   1.619   3.176   0.821 -0.3583  0.4447  0.5057
  339SOL     OW 1426   1.370   3.259   0.442 -0.0161 -0.3886  0.3645
  339SOL    HW2 1427   1.435   3.205   0.396  0.1595  0.2325 -0.1269
  339SOL    HW3 1428   1.302   3.273   0.376  0.4033  0.8043  0.1742
  339SOL    MW4 1429   1.370   3.254   0.427  0.0625 -0.1493  0.2746
  340SOL     OW 1430   2.027   4.509   0.461  0.3116  0.2131  0.2757
  340SOL    HW2 1431   1.962   4.440   0.467  0.6748 -0.1214  0.3962
  340SOL    HW3 1432   2.000   4.574   0.526 -0.7482  0.7892 -0.7293
  340SOL    MW4 1433   2.015   4.509   0.470  0.2198  0.2446  0.1590
  341SOL     OW 1434   0.696   4.362   0.790 -0.0589 -0.3078  0.3067
  341SOL    HW2 1435   0.772   4.316   0.828 -0.5051 -0.4977  0.9762
  341SOL    HW3 1436   0.698   4.338   0.698  2.8584  2.6166 -0.4918
  341SOL    MW4 1437   0.706   4.353   0.783  0.2672  0.0534  0.2897
  342SOL     OW 1438   1.850   3.993   0.775  0.9485 -0.0085 -0.3053
  342SOL    HW2 1439   1.839   4.076   0.822 -1.3540 -0.7376  0.5011
  342SOL    HW3 1440   1.857   4.018   0.683 -2.1359  0.9523 -0.3230
  342SOL    MW4 1441   1.850   4.007   0.769  0.2377  0.0219 -0.2013
  343SOL     OW 1442   1.149   4.399   0.749  0.3385  0.6249  0.1480
  343SOL    HW2 1443   1.168   4.438   0.664 -0.5537 -0.2806 -0.4781
  343SOL    HW3 1444   1.234   4.368   0.781  0.9264  2.3179  0.2854
  343SOL    MW4 1445   1.163   4.400   0.742  0.2983  0.7291  0.0835
  344SOL     OW 1446   2.033   4.636   0.876 -0.2144  0.2014  0.0531
  344SOL    HW2 1447   2.087   4.698   0.827  1.3296 -0.9940  0.1654
  344SOL    HW3 1448   2.051   4.551   0.834  0.2231 -0.6537  1.9225
  344SOL    MW4 1449   2.043   4.633   0.864  0.0470 -0.0687  0.3145
  345SOL     OW 1450   1.801   0.415   0.859 -0.2962 -0.0348  0.3308
  345SOL    HW2 1451   1.885   0.439   0.821 -0.0090 -0.2827  0.7965
  345SOL    HW3 1452   1.800   0.319   0.857 -1.3968 -0.0060 -1.4339
  345SOL    MW4 1453   1.812   0.406   0.854 -0.4036 -0.0637  0.1594
  346SOL     OW 1454   1.361   0.897   0.694  0.2834 -0.1952 -0.2267
  346SOL    HW2 1455   1.356   0.979   0.743  0.2114 -0.2527 -0.1371
  346SOL    HW3 1456   1.276   0.855   0.710  0.0067  0.0898 -0.9424
  346SOL    MW4 1457   1.349   0.902   0.703  0.2373 -0.1653 -0.3093
  347SOL     OW 1458   1.656   1.598   0.157 -0.5007  0.2998 -0.2370
  347SOL    HW2 1459   1.606   1.517   0.151 -0.3730  0.2800 -1.0509
  347SOL    HW3 1460   1.747   1.572   0.144 -0.2835  0.3459  1.1840
  347SOL    MW4 1461   1.662   1.584   0.154 -0.4551  0.3033 -0.1569
  348SOL     OW 1462   2.182   1.159   0.813 -0.9052 -0.0020  0.2238
  348SOL    HW2 1463   2.185   1.081   0.757 -0.3002  0.2895 -0.1488
  348SOL    HW3 1464   2.193   1.125   0.901  2.6527 -0.0561 -0.1720
  348SOL    MW4 1465   2.184   1.144   0.817 -0.3562  0.0293  0.1224
  349SOL     OW 1466   0.462   1.135   0.893  0.2597  0.3242  0.3618
  349SOL    HW2 1467   0.522   1.197   0.853 -0.4672  1.0804  0.4272
  349SOL    HW3 1468   0.375   1.168   0.871 -0.1467 -1.4929 -0.8884
  349SOL    MW4 1469   0.458   1.148   0.885  0.1101  0.1842  0.2056
  350SOL     OW 1470   2.448   1.195   0.734  0.1560 -0.1182  0.3300
  350SOL    HW2 1471   2.360   1.164   0.753 -0.1424 -0.3833 -1.4269
  350SOL    HW3 1472   2.447   1.215   0.641  1.2608  2.1575  0.7572
  350SOL    MW4 1473   2.436   1.194   0.724  0.2627  0.1471  0.1545
  351SOL     OW 1474   2.181   1.099   0.296  0.2803 -0.1214 -0.1391
  351SOL    HW2 1475   2.098   1.079   0.252  0.0835  0.7322 -0.1624
  351SOL    HW3 1476   2.179   1.194   0.308  1.8296  0.0726 -1.3056
  351SOL    MW4 1477   2.170   1.109   0.292  0.4587  0.0168 -0.2961
  352SOL     OW 1478   1.323   1.915   0.836 -0.0860  0.4463 -0.2540
  352SOL    HW2 1479   1.327   1.910   0.931  0.4885  1.4607 -0.2099
  352SOL    HW3 1480   1.412   1.940   0.810  0.1056 -1.1683 -1.1538
  352SOL    MW4 1481   1.336   1.918   0.845  0.0151  0.3672 -0.3669
  353SOL     OW 1482   1.981   2.303   0.352  0.0783 -0.3576  0.2370
  353SOL    HW2 1483   2.073   2.285   0.375 -0.3095 -1.1261  1.2092
  353SOL    HW3 1484   1.936   2.220   0.366 -0.9241  0.2370  0.5698
  353SOL    MW4 1485   1.987   2.290   0.357 -0.1051 -0.3805  0.4092
  354SOL     OW 1486   3.819   0.465   0.736 -0.3048 -0.5250 -0.1647
  354SOL    HW2 1487   3.832   0.547   0.782  1.8601 -0.7850 -0.2749
  354SOL    HW3 1488   3.735   0.432   0.769 -1.0698  1.5905  0.0421
  354SOL    MW4 1489   3.810   0.471   0.747 -0.1199 -0.2802 -0.1520
  355SOL     OW 1490   1.334   2.435   0.721 -0.0125  0.3948 -0.3871
  355SOL    HW2 1491   1.337   2.391   0.636 -0.0840 -0.7680  0.2123
  355SOL    HW3 1492   1.253   2.406   0.761 -0.9069  2.3995 -0.6785
  355SOL    MW4 1493   1.324   2.426   0.715 -0.1400  0.5057 -0.3465
  356SOL     OW 1494   2.895   1.685   0.349 -0.3241  0.1402 -0.2219
  356SOL    HW2 1495   2.860   1.632   0.278 -1.7791  0.1488  0.4615
  356SOL    HW3 1496   2.818   1.725   0.389  0.4805  0.2935  1.2265
  356SOL    MW4 1497   2.880   1.683   0.345 -0.4098  0.1616  0.0594
  357SOL     OW 1498   2.114   3.621   0.722 -0.0457 -0.1857  0.1061
  357SOL    HW2 1499   2.111   3.700   0.776  0.6202 -0.6992  0.8978
  357SOL    HW3 1500   2.027   3.582   0.732  0.1094 -0.3281  0.8810
  357SOL    MW4 1501   2.102   3.626   0.730  0.0627 -0.2725  0.3127
  358SOL     OW 1502   0.283   1.709   0.179  0.3261 -0.6424 -0.6239
  358SOL    HW2 1503   0.305   1.695   0.087  1.0661 -0.2680 -0.5010
  358SOL    HW3 1504   0.351   1.767   0.212 -0.6285  0.2165 -0.1515
  358SOL    MW4 1505   0.295   1.715   0.172  0.2978 -0.4798 -0.5453
  359SOL     OW 1506   2.228   2.928   0.350  0.0564 -0.2369  0.0654
  359SOL    HW2 1507   2.135   2.923   0.374 -0.0617  0.3433 -0.2560
  359SOL    HW3 1508   2.234   2.880   0.267  0.0903 -0.5103  0.2280
  359SOL    MW4 1509   2.216   2.921   0.342  0.0453 -0.1967  0.0445
  360SOL     OW 1510   2.969   3.668   0.263  0.0962 -0.3007 -0.2008
  360SOL    HW2 1511   2.898   3.680   0.326  0.1570  0.8585 -0.3523
  360SOL    HW3 1512   2.937   3.599   0.205 -0.0845 -1.1693  0.9140
  360SOL    MW4 1513   2.955   3.660   0.264  0.0801 -0.2623 -0.0737
  361SOL     OW 1514   2.537   3.597   0.793 -0.2489 -0.3812  0.7773
  361SOL    HW2 1515   2.528   3.570   0.702 -0.7104  1.2830  0.3059
  361SOL    HW3 1516   2.619   3.557   0.822 -0.1636 -1.0175 -0.3385
  361SOL    MW4 1517   2.547   3.588   0.785 -0.2987 -0.2456  0.5679
  362SOL     OW 1518   2.457   2.508   0.383 -0.0649 -0.2373 -0.4100
  362SOL    HW2 1519   2.390   2.455   0.427  0.2637  2.4454  3.5125
  362SOL    HW3 1520   2.536   2.454   0.385 -0.3159 -0.5483  1.4154
  362SOL    MW4 1521   2.458   2.494   0.389 -0.0548  0.0756  0.3483
  363SOL     OW 1522   1.456   4.442   0.454  0.1883 -0.1914  0.1875
  363SOL    HW2 1523   1.420   4.355   0.440  1.6229 -0.8512  0.4582
  363SOL    HW3 1524   1.380   4.499   0.462 -0.7781 -1.5950  1.1474
  363SOL    MW4 1525   1.441   4.438   0.453  0.2501 -0.4635  0.3498
  364SOL     OW 1526   1.830   4.245   0.862 -0.1089 -0.0209 -0.3212
  364SOL    HW2 1527   1.750   4.288   0.830  0.6888  1.7671 -0.0064
  364SOL    HW3 1528   1.825   4.252   0.957  0.1587 -0.3737 -0.2802
  364SOL    MW4 1529   1.819   4.252   0.870  0.0316  0.1683 -0.2743
  365SOL     OW 1530   0.407   0.401   1.168 -0.0711 -0.2147  0.0561
  365SOL    HW2 1531   0.397   0.307   1.186 -0.4987 -0.3216 -0.6842
  365SOL    HW3 1532   0.329   0.441   1.207 -0.5607 -0.3376 -0.7870
  365SOL    MW4 1533   0.395   0.394   1.175 -0.1921 -0.2450 -0.1528
  366SOL     OW 1534   3.118   3.900   0.377  0.4950 -0.4437 -0.0403
  366SOL    HW2 1535   3.085   3.827   0.324 -0.7047 -0.2989  0.4958
  366SOL    HW3 1536   3.208   3.876   0.398  0.6280 -1.0148 -1.2217
  366SOL    MW4 1537   3.126   3.887   0.372  0.3545 -0.5002 -0.1254
  367SOL     OW 1538   1.337   1.664   0.501 -0.3581  0.2146  0.3200
  367SOL    HW2 1539   1.254   1.674   0.455 -0.4569  2.0023  0.8337
  367SOL    HW3 1540   1.401   1.706   0.443 -0.3275  1.5997  1.3352
  367SOL    MW4 1541   1.335   1.671   0.487 -0.3670  0.6334  0.5217
  368SOL     OW 1542   2.453   4.611   0.853 -0.2823  0.3514 -0.0989
  368SOL    HW2 1543   2.521   4.661   0.807 -1.0994  1.0514 -0.5503
  368SOL    HW3 1544   2.482   4.610   0.944 -0.1597  1.5153 -0.1101
  368SOL    MW4 1545   2.466   4.618   0.859 -0.3738  0.5975 -0.1600
  369SOL     OW 1546   1.155   1.255   0.480 -0.3747 -0.1215 -0.2219
  369SOL    HW2 1547   1.065   1.253   0.446  0.1406  1.3402 -1.7432
  369SOL    HW3 1548   1.190   1.168   0.461 -1.2334 -0.4664 -0.2540
  369SOL    MW4 1549   1.148   1.243   0.473 -0.4200  0.0259 -0.4269
  370SOL     OW 1550   3.167   4.374   0.449 -0.2984 -0.2130  0.2059
  370SOL    HW2 1551   3.121   4.290   0.452 -0.5091 -0.0507  1.4483
  370SOL    HW3 1552   3.223   4.374   0.526 -0.4863  0.8972  0.3474
  370SOL    MW4 1553   3.168   4.363   0.459 -0.3510 -0.0448  0.3885
  371SOL     OW 1554   1.785   1.650   0.514 -0.3063  0.6105 -0.2200
  371SOL    HW2 1555   1.813   1.649   0.605 -0.6314  1.1101 -0.1142
  371SOL    HW3 1556   1.856   1.694   0.467  0.0913 -0.0941 -0.2865
  371SOL    MW4 1557   1.798   1.655   0.520 -0.2967  0.5835 -0.2148
  372SOL     OW 1558   2.222   0.898   0.706 -0.1329  0.3796 -0.0698
  372SOL    HW2 1559   2.303   0.879   0.754 -0.0512  0.0973 -0.3192
  372SOL    HW3 1560   2.243   0.878   0.615 -1.1889 -1.9466  0.1624
  372SOL    MW4 1561   2.236   0.893   0.700 -0.2615  0.0355 -0.0721
  373SOL     OW 1562   2.717   0.124   0.466  0.2351 -0.1306 -0.0856
  373SOL    HW2 1563   2.698   0.216   0.448 -0.6372  0.0463  1.5759
  373SOL    HW3 1564   2.812   0.119   0.465  0.2737  0.6216 -0.9743
  373SOL    MW4 1565   2.727   0.136   0.464  0.1249 -0.0080  0.0164
  374SOL     OW 1566   1.979   1.761   0.342  0.3154  0.2484 -0.2910
  374SOL    HW2 1567   1.949   1.700   0.275 -2.1316 -0.0784  1.0655
  374SOL    HW3 1568   2.071   1.739   0.355  0.2703 -1.0454 -2.0723
  374SOL    MW4 1569   1.987   1.750   0.335 -0.0136  0.0346 -0.3470
  375SOL     OW 1570   1.607   1.331   0.850  0.3939  0.2063  0.2542
  375SOL    HW2 1571   1.605   1.309   0.756  1.0522  0.2251  0.2292
  375SOL    HW3 1572   1.573   1.420   0.854 -1.0668 -0.3389  0.2063
  375SOL    MW4 1573   1.603   1.340   0.838  0.2880  0.1367  0.2446
  376SOL     OW 1574   1.984   2.021   0.684  0.3586  0.1724 -0.2571
  376SOL    HW2 1575   1.978   2.113   0.710 -0.9467 -0.2850  1.1685
  376SOL    HW3 1576   1.964   2.022   0.590  0.6395  1.3722 -0.3216
  376SOL    MW4 1577   1.980   2.034   0.675  0.2236  0.2706 -0.0774
  377SOL     OW 1578   1.912   2.033   0.403  0.5461  0.1401 -0.0743
  377SOL    HW2 1579   1.822   2.001   0.406  0.4770  0.3760  0.6360
  377SOL    HW3 1580   1.960   1.966   0.355  0.2146 -0.5501  0.5443
  377SOL    MW4 1581   1.906   2.020   0.397  0.4933  0.0799  0.1010
  378SOL     OW 1582   2.253   0.374   0.866 -0.0766 -0.0792 -0.0341
  378SOL    HW2 1583   2.243   0.287   0.829  0.5114 -0.5089  0.8025
  378SOL    HW3 1584   2.319   0.416   0.811  0.3335 -0.4955  0.1386
  378SOL    MW4 1585   2.260   0.368   0.854  0.0548 -0.1908  0.0991
  379SOL     OW 1586   2.236   2.643   0.832 -0.1461 -0.2538  0.4357
  379SOL    HW2 1587   2.321   2.682   0.807  0.0788  0.0938  1.7333
  379SOL    HW3 1588   2.219   2.677   0.919 -1.4526 -0.6367  0.3333
  379SOL    MW4 1589   2.245   2.653   0.840 -0.2885 -0.2584  0.5934
  380SOL     OW 1590   4.378   4.312   0.501  0.1028  0.1176  0.4443
  380SOL    HW2 1591   4.395   4.218   0.504  0.6319  0.2182  0.6273
  380SOL    HW3 1592   4.352   4.336   0.590  1.4551  0.4155  0.7759
  380SOL    MW4 1593   4.377   4.303   0.513  0.3505  0.1707  0.5122
  381SOL     OW 1594   1.987   2.639   0.104 -0.2760  0.1943  0.2162
  381SOL    HW2 1595   2.071   2.685   0.104 -0.0514 -0.2192 -0.4577
  381SOL    HW3 1596   2.005   2.556   0.147 -0.3941  0.1954  0.2702
  381SOL    MW4 1597   2.000   2.634   0.110 -0.2620  0.1400  0.1344
  382SOL     OW 1598   3.158   1.847   0.796 -0.1751  0.1726  0.3038
  382SOL    HW2 1599   3.170   1.765   0.748  0.9885  0.7860 -0.4708
  382SOL    HW3 1600   3.230   1.903   0.768 -0.4996  1.1920  1.4224
  382SOL    MW4 1601   3.169   1.844   0.786 -0.0644  0.3881  0.3492
  383SOL     OW 1602   3.103   1.128   0.851  0.1120 -0.1735  0.3043
  383SOL    HW2 1603   3.099   1.040   0.812 -0.8232  0.8059 -1.9346
  383SOL    HW3 1604   3.186   1.164   0.820  0.6670 -0.4106  1.5272
  383SOL    MW4 1605   3.113   1.121   0.842  0.0618 -0.0756  0.1702
  384SOL     OW 1606   1.859   3.496   0.697 -0.1911  0.5964 -0.1607
  384SOL    HW2 1607   1.791   3.510   0.762  0.4682  0.3721  0.5902
  384SOL    HW3 1608   1.821   3.527   0.615 -1.0299  0.8762  0.3287
  384SOL    MW4 1609   1.845   3.502   0.695 -0.2148  0.6037  0.0030
  385SOL     OW 1610   1.530   3.743   0.340  0.3639 -0.0953 -0.1306
  385SOL    HW2 1611   1.497   3.656   0.363  0.7557 -0.2357 -0.1090
  385SOL    HW3 1612   1.488   3.762   0.256 -2.1906  1.0108  1.3232
  385SOL    MW4 1613   1.520   3.734   0.332  0.0784  0.0322  0.0641
  386SOL     OW 1614   2.531   3.862   0.913 -0.3165  0.1976 -0.1841
  386SOL    HW2 1615   2.596   3.897   0.851  0.9680 -0.8242  0.5460
  386SOL    HW3 1616   2.518   3.771   0.884  0.1008 -0.2045  0.8675
  386SOL    MW4 1617   2.538   3.854   0.901 -0.0920  0.0095  0.0510
  387SOL     OW 1618   2.748   4.246   0.808  0.3937 -0.0661 -0.0526
  387SOL    HW2 1619   2.829   4.295   0.791  1.6250 -1.9351  0.2282
  387SOL    HW3 1620   2.740   4.246   0.903 -0.4577  0.8908 -0.1122
  387SOL    MW4 1621   2.758   4.253   0.818  0.4437 -0.1864 -0.0234
  388SOL     OW 1622   1.717   3.464   0.439 -0.1136  0.3017 -0.0141
  388SOL    HW2 1623   1.687   3.379   0.406 -1.0753  0.9509 -0.8579
  388SOL    HW3 1624   1.786   3.491   0.378  0.5961 -0.1323  0.5898
  388SOL    MW4 1625   1.722   3.456   0.426 -0.1469  0.3300 -0.0457
  389SOL     OW 1626   1.288   1.004   0.459  0.0499 -0.3489  0.0516
  389SOL    HW2 1627   1.248   0.927   0.419 -0.4808  0.0295 -0.1551
  389SOL    HW3 1628   1.338   0.970   0.533 -0.3489 -0.8688  0.0819
  389SOL    MW4 1629   1.289   0.989   0.464 -0.0728 -0.3676  0.0283
  390SOL     OW 1630   3.959   3.196   0.746  0.5470 -0.4934  0.2118
  390SOL    HW2 1631   4.023   3.260   0.778 -0.5185  0.1568  1.0902
  390SOL    HW3 1632   3.988   3.175   0.657 -0.2701  2.9255 -0.9559
  390SOL    MW4 1633   3.971   3.202   0.738  0.2987  0.0434  0.1735
  391SOL     OW 1634   2.915   4.661   0.867  0.3243  0.6818  0.1909
  391SOL    HW2 1635   2.917   4.566   0.855  1.8959  0.7365 -0.1535
  391SOL    HW3 1636   2.828   4.687   0.837 -0.6782 -0.8175  1.6869
  391SOL    MW4 1637   2.904   4.652   0.861  0.3994  0.4911  0.3428
  392SOL     OW 1638   4.294   0.212   0.398 -0.0415  0.0872 -0.3361
  392SOL    HW2 1639   4.242   0.147   0.351 -1.2524  0.4012  0.5579
  392SOL    HW3 1640   4.374   0.165   0.423 -0.1429 -0.5562 -1.2098
  392SOL    MW4 1641   4.298   0.197   0.395 -0.2146  0.0438 -0.3334
  393SOL     OW 1642   2.650   0.328   0.797 -0.4131  0.1090  0.1314
  393SOL    HW2 1643   2.646   0.331   0.893 -0.1093 -0.9943  0.1839
  393SOL    HW3 1644   2.741   0.351   0.776 -0.2912 -0.3683  0.1400
  393SOL    MW4 1645   2.661   0.331   0.807 -0.3569 -0.0995  0.1395
  394SOL     OW 1646   2.923   0.419   0.779  0.6799 -0.1739 -0.1496
  394SOL    HW2 1647   2.928   0.507   0.816  1.4682  0.2854 -1.3482
  394SOL    HW3 1648   3.000   0.373   0.814  0.3563 -0.3452  0.3451
  394SOL    MW4 1649   2.934   0.424   0.789  0.7410 -0.1359 -0.2425
  395SOL     OW 1650   2.407   1.251   0.452 -0.0686 -0.3233 -0.1644
  395SOL    HW2 1651   2.332   1.306   0.433 -0.4795 -1.0718 -0.7759
  395SOL    HW3 1652   2.393   1.173   0.398  0.9555 -0.6271 -0.0016
  395SOL    MW4 1653   2.396   1.248   0.442  0.0122 -0.4621 -0.2236
  396SOL     OW 1654   3.552   4.366   0.475 -0.1768  0.2712  0.3512
  396SOL    HW2 1655   3.505   4.371   0.392  0.0909  0.4295  0.2088
  396SOL    HW3 1656   3.616   4.437   0.471  1.4121 -1.1583 -0.2924
  396SOL    MW4 1657   3.554   4.376   0.464  0.0684  0.1035  0.2475
  397SOL     OW 1658   3.954   0.852   0.474  0.2045  0.3562 -0.2386
  397SOL    HW2 1659   3.983   0.766   0.446  1.1221  0.5298  0.1491
  397SOL    HW3 1660   4.029   0.910   0.456  0.2168  0.7560  1.0674
  397SOL    MW4 1661   3.968   0.849   0.468  0.3273  0.4319 -0.0151
  398SOL     OW 1662   0.832   2.458   0.440 -0.2028 -0.0285 -0.4478
  398SOL    HW2 1663   0.885   2.391   0.397  2.1244  0.9696  0.7671
  398SOL    HW3 1664   0.868   2.463   0.529 -1.0713  2.0349 -0.1952
  398SOL    MW4 1665   0.844   2.450   0.446 -0.0103  0.3753 -0.2542
  399SOL     OW 1666   1.958   2.283   0.771  0.1431 -0.2316 -0.3941
  399SOL    HW2 1667   1.885   2.343   0.753  0.4322  0.0447 -0.6613
  399SOL    HW3 1668   1.974   2.292   0.865  0.2318  0.1678 -0.4458
  399SOL    MW4 1669   1.951   2.292   0.781  0.1929 -0.1423 -0.4362
  400SOL     OW 1670   2.893   1.531   0.762 -0.0155  0.2795 -0.2689
  400SOL    HW2 1671   2.881   1.436   0.751 -0.3006  0.1170  1.3038
  400SOL    HW3 1672   2.898   1.543   0.857  0.5154  1.7903 -0.4815
  400SOL    MW4 1673   2.892   1.520   0.773  0.0169  0.4575 -0.0895
  401SOL     OW 1674   3.344   1.223   0.452  0.1973  0.1942  0.3662
  401SOL    HW2 1675   3.253   1.249   0.444  0.8912  2.3641 -1.0240
  401SOL    HW3 1676   3.347   1.133   0.420 -1.1659  0.7196 -1.2837
  401SOL    MW4 1677   3.333   1.214   0.447  0.1092  0.5498 -0.0349
  402SOL     OW 1678   1.607   3.879   0.837 -0.3189 -0.9046 -0.0917
  402SOL    HW2 1679   1.691   3.898   0.795 -0.3479 -0.2863  0.1314
  402SOL    HW3 1680   1.626   3.887   0.931 -0.2580 -2.2476  0.0236
  402SOL    MW4 1681   1.621   3.882   0.844 -0.3146 -1.0004 -0.0471
  403SOL     OW 1682   3.944   2.288   0.414 -0.0960  0.0099 -0.0519
  403SOL    HW2 1683   4.023   2.278   0.361 -0.4239 -0.1555 -0.5088
  403SOL    HW3 1684   3.912   2.199   0.427 -1.1576  0.1878 -1.3197
  403SOL    MW4 1685   3.950   2.275   0.409 -0.2794  0.0119 -0.2795
  404SOL     OW 1686   3.384   1.710   0.414  0.5535 -0.3359  0.2681
  404SOL    HW2 1687   3.305   1.659   0.395  1.5160 -1.7003 -0.1483
  404SOL    HW3 1688   3.359   1.800   0.396 -1.6450 -0.4396  2.4329
  404SOL    MW4 1689   3.370   1.715   0.409  0.3901 -0.5296  0.4988
  405SOL     OW 1690   2.794   3.204   0.305  0.0842 -0.0729  0.3180
  405SOL    HW2 1691   2.735   3.254   0.361  0.5777  0.7989  0.0731
  405SOL    HW3 1692   2.765   3.113   0.315 -0.1604  0.1275  1.5839
  405SOL    MW4 1693   2.783   3.198   0.314  0.1168  0.0684  0.4527
  406SOL     OW 1694   1.792   0.117   0.566 -0.2453  0.1960 -0.0807
  406SOL    HW2 1695   1.703   0.124   0.530 -0.2625 -1.8722 -0.5190
  406SOL    HW3 1696   1.792   0.174   0.642 -1.9249  0.3072 -0.1475
  406SOL    MW4 1697   1.780   0.125   0.571 -0.4691 -0.0622 -0.1473
  407SOL     OW 1698   0.884   4.102   0.496 -0.1746  0.4822  0.2004
  407SOL    HW2 1699   0.901   4.056   0.579 -0.8492 -0.2675 -0.0779
  407SOL    HW3 1700   0.863   4.033   0.434 -0.8941  1.1403 -0.2956
  407SOL    MW4 1701   0.883   4.087   0.499 -0.3585  0.4702  0.0983
  408SOL     OW 1702   2.921   3.624   0.662  0.5046 -0.5955 -0.2355
  408SOL    HW2 1703   2.884   3.559   0.722  1.2499 -2.1205 -1.3735
  408SOL    HW3 1704   2.992   3.577   0.617  1.6281  1.2831 -0.4577
  408SOL    MW4 1705   2.925   3.609   0.664  0.7510 -0.5488 -0.4150
  409SOL     OW 1706   2.418   2.084   0.445  0.2442 -0.3106 -0.4354
  409SOL    HW2 1707   2.505   2.077   0.407  0.5310 -1.3843  0.3784
  409SOL    HW3 1708   2.430   2.059   0.537 -0.6693  0.8926  0.0337
  409SOL    MW4 1709   2.431   2.080   0.452  0.1614 -0.2935 -0.2662
  410SOL     OW 1710   3.206   4.023   0.753  0.1020  0.1557 -0.5499
  410SOL    HW2 1711   3.126   3.973   0.768 -0.6925  1.4133 -0.5723
  410SOL    HW3 1712   3.276   3.963   0.779 -0.7581 -1.4614 -1.8102
  410SOL    MW4 1713   3.205   4.008   0.758 -0.1163  0.1082 -0.7192
  411SOL     OW 1714   2.495   4.376   0.721 -0.6967  0.3282 -0.6044
  411SOL    HW2 1715   2.579   4.345   0.753  0.0125  2.7028 -0.0252
  411SOL    HW3 1716   2.482   4.460   0.766 -3.9193 -0.5457  0.2093
  411SOL    MW4 1717   2.504   4.383   0.731 -1.0283  0.5264 -0.4207
  412SOL     OW 1718   1.665   0.835   0.464 -0.0010  0.0033 -0.3881
  412SOL    HW2 1719   1.711   0.838   0.548 -1.9306  2.2743  0.6329
  412SOL    HW3 1720   1.605   0.761   0.473  0.1622 -0.0801  0.0455
  412SOL    MW4 1721   1.663   0.826   0.476 -0.2341  0.2920 -0.1962
  413SOL     OW 1722   1.009   4.360   0.425 -0.2197 -0.0001  0.0233
  413SOL    HW2 1723   0.937   4.421   0.406 -0.7244 -0.8226 -0.8058
  413SOL    HW3 1724   0.965   4.278   0.445  0.4793 -0.4167 -0.1325
  413SOL    MW4 1725   0.993   4.357   0.425 -0.1941 -0.1631 -0.1066
  414SOL     OW 1726   2.972   4.392   0.792 -0.2411  0.0721  0.0765
  414SOL    HW2 1727   3.058   4.357   0.814 -0.8640 -0.9965  0.8217
  414SOL    HW3 1728   2.986   4.441   0.711  0.6303 -1.8522 -0.9498
  414SOL    MW4 1729   2.986   4.394   0.784 -0.2084 -0.3228  0.0394
  415SOL     OW 1730   3.345   4.657   0.788 -0.0914 -0.2875 -0.2358
  415SOL    HW2 1731   3.353   4.650   0.883  0.1226 -1.6174 -0.3316
  415SOL    HW3 1732   3.263   4.703   0.773  0.0296  0.2055  0.5924
  415SOL    MW4 1733   3.335   4.662   0.799 -0.0474 -0.3977 -0.1391
  416SOL     OW 1734   3.116   0.353   0.400  0.0494  0.8802 -0.1496
  416SOL    HW2 1735   3.051   0.408   0.443 -0.7330 -0.2274  0.1261
  416SOL    HW3 1736   3.194   0.360   0.454 -0.3810  0.8867  0.4723
  416SOL    MW4 1737   3.118   0.361   0.413 -0.1106  0.7349 -0.0311
  417SOL     OW 1738   3.114   0.116   0.742  0.1124 -0.2246  0.2091
  417SOL    HW2 1739   3.134   0.193   0.795  0.3605 -0.2864  0.2088
  417SOL    HW3 1740   3.041   0.074   0.787 -0.8053  0.6508 -0.4386
  417SOL    MW4 1741   3.107   0.121   0.755  0.0243 -0.1172  0.1236
  418SOL     OW 1742   3.966   2.667   0.585  0.4162  0.3041 -0.3193
  418SOL    HW2 1743   3.993   2.578   0.609 -1.8422  0.0727  1.4728
  418SOL    HW3 1744   4.046   2.707   0.552  1.6887 -2.1012 -0.3044
  418SOL    MW4 1745   3.980   2.661   0.584  0.2863 -0.0436 -0.0808
  419SOL     OW 1746   3.628   1.061   0.224  0.3543  0.2586  0.0759
  419SOL    HW2 1747   3.687   1.065   0.299  1.3078 -0.9935 -0.5896
  419SOL    HW3 1748   3.684   1.032   0.151 -0.8048  0.3140 -0.8466
  419SOL    MW4 1749   3.644   1.058   0.224  0.3269  0.1007 -0.1336
  420SOL     OW 1750   2.676   1.808   0.506 -0.8271 -0.2842 -0.2600
  420SOL    HW2 1751   2.680   1.867   0.581  2.5608 -0.6733 -0.0746
  420SOL    HW3 1752   2.599   1.837   0.456 -1.6481  1.5574  2.0290
  420SOL    MW4 1753   2.666   1.819   0.509 -0.4885 -0.0926  0.0665
  421SOL     OW 1754   3.120   0.870   0.733 -0.5501 -0.1703 -0.1531
  421SOL    HW2 1755   3.054   0.810   0.766 -0.7935 -0.4821 -1.1898
  421SOL    HW3 1756   3.203   0.825   0.748 -0.4317  0.8607  2.5300
  421SOL    MW4 1757   3.123   0.856   0.740 -0.5662 -0.0753  0.0642
  422SOL     OW 1758   3.555   0.827   0.506 -0.2430 -0.0665 -0.0600
  422SOL    HW2 1759   3.561   0.831   0.601 -0.9326  0.2851 -0.0346
  422SOL    HW3 1760   3.613   0.898   0.476  0.0730 -0.2580  0.0934
  422SOL    MW4 1761   3.564   0.837   0.514 -0.2923 -0.0454 -0.0364
  423SOL     OW 1762   4.420   2.399   0.466 -0.0501 -0.0414 -0.1115
  423SOL    HW2 1763   4.376   2.362   0.389  0.7759  1.2038 -1.1924
  423SOL    HW3 1764   4.512   2.404   0.441  0.3341 -0.2179  1.2086
  423SOL    MW4 1765   4.427   2.395   0.453  0.1101  0.0997 -0.0799
  424SOL     OW 1766   0.445   1.718   0.787  0.5005  0.1519 -0.0442
  424SOL    HW2 1767   0.511   1.662   0.828 -0.0341 -0.1750  0.3820
  424SOL    HW3 1768   0.448   1.695   0.694  0.3505 -0.5322  0.1151
  424SOL    MW4 1769   0.454   1.708   0.780  0.4102  0.0185  0.0330
  425SOL     OW 1770   3.850   2.022   0.747 -0.2877 -0.2630  0.0155
  425SOL    HW2 1771   3.836   2.114   0.769  0.9779 -0.1056  0.2325
  425SOL    HW3 1772   3.767   1.979   0.769 -1.2138  0.9692 -0.9781
  425SOL    MW4 1773   3.837   2.029   0.753 -0.2427 -0.0799 -0.0870
  426SOL     OW 1774   3.805   3.523   0.188 -0.0182  0.0914  0.0092
  426SOL    HW2 1775   3.726   3.493   0.143  0.7511 -1.1622 -0.5467
  426SOL    HW3 1776   3.827   3.451   0.248 -0.1559  1.0921  1.2783
  426SOL    MW4 1777   3.797   3.509   0.190  0.0653  0.0582  0.1033
  427SOL     OW 1778   4.465   1.950   0.817  0.0445  0.1467 -0.9152
  427SOL    HW2 1779   4.546   1.991   0.788  0.1179  1.0705  0.5128
  427SOL    HW3 1780   4.481   1.856   0.808  0.9104  0.3486 -1.5709
  427SOL    MW4 1781   4.478   1.943   0.812  0.1683  0.2953 -0.8133
  428SOL     OW 1782   2.975   2.012   0.668 -0.0285  0.8258  0.2491
  428SOL    HW2 1783   2.974   2.099   0.706  1.2256  0.4307  1.2297
  428SOL    HW3 1784   3.022   1.958   0.732 -1.9792 -0.8656  0.3098
  428SOL    MW4 1785   2.981   2.016   0.681 -0.1206  0.5505  0.3865
  429SOL     OW 1786   2.452   2.020   0.710 -0.0146  0.4933 -0.5134
  429SOL    HW2 1787   2.543   2.002   0.731 -0.0233  0.9975 -0.0283
  429SOL    HW3 1788   2.432   2.102   0.756 -1.1011 -0.3059  0.4724
  429SOL    MW4 1789   2.461   2.028   0.718 -0.1590  0.4544 -0.3194
  430SOL     OW 1790   2.726   3.213   0.725 -0.5547  0.1580  0.1706
  430SOL    HW2 1791   2.686   3.232   0.640 -0.2144  2.2520  0.4429
  430SOL    HW3 1792   2.655   3.175   0.777 -0.9749 -0.3989 -0.8000
  430SOL    MW4 1793   2.711   3.211   0.720 -0.5653  0.3610  0.0784
  431SOL     OW 1794   3.073   3.231   0.435  0.2271 -0.2175  0.5659
  431SOL    HW2 1795   3.127   3.154   0.423  1.3587  0.9228 -1.9762
  431SOL    HW3 1796   2.997   3.216   0.379 -0.1272  0.0186  0.9736
  431SOL    MW4 1797   3.070   3.219   0.426  0.3295 -0.0358  0.2843
  432SOL     OW 1798   3.849   3.345   0.390 -0.4861  0.4083 -0.0508
  432SOL    HW2 1799   3.893   3.266   0.420 -1.5807 -0.2372 -0.1471
  432SOL    HW3 1800   3.882   3.414   0.448  0.4047 -0.1154  0.0828
  432SOL    MW4 1801   3.859   3.344   0.402 -0.5131  0.2542 -0.0459
  433SOL     OW 1802   1.898   1.015   0.211  0.4149  0.0742 -0.5607
  433SOL    HW2 1803   1.885   0.920   0.202 -0.7824  0.1183  0.5806
  433SOL    HW3 1804   1.830   1.053   0.156 -0.5612  0.2781  0.7751
  433SOL    MW4 1805   1.887   1.007   0.203  0.1281  0.1069 -0.2339
  434SOL     OW 1806   3.423   3.840   0.802  0.1242  0.2198  0.0914
  434SOL    HW2 1807   3.422   3.835   0.897  1.2122 -1.9530  0.0333
  434SOL    HW3 1808   3.359   3.774   0.774  0.9031 -0.2131 -0.6908
  434SOL    MW4 1809   3.415   3.830   0.811  0.3705 -0.1242 -0.0194
  435SOL     OW 1810   3.789   3.887   0.803  0.0049  0.0736  0.2063
  435SOL    HW2 1811   3.737   3.944   0.746  0.1278 -0.7128 -0.7067
  435SOL    HW3 1812   3.767   3.798   0.775  1.2947 -0.2832  0.2763
  435SOL    MW4 1813   3.780   3.883   0.791  0.1915 -0.0772  0.0951
  436SOL     OW 1814   2.710   3.977   0.729  0.2722  0.0000 -0.1047
  436SOL    HW2 1815   2.727   4.065   0.762  0.1957 -0.0730  0.1313
  436SOL    HW3 1816   2.792   3.931   0.742  0.0998 -0.1627  0.4170
  436SOL    MW4 1817   2.723   3.983   0.735  0.2394 -0.0312 -0.0048
  437SOL     OW 1818   3.220   4.263   0.891  0.1912  0.7387 -0.4233
  437SOL    HW2 1819   3.298   4.302   0.853  0.4767  1.0315  0.4485
  437SOL    HW3 1820   3.223   4.171   0.863  0.4776  0.9122 -0.9616
  437SOL    MW4 1821   3.231   4.256   0.882  0.2666  0.8001 -0.3794
  438SOL     OW 1822   3.400   3.842   0.426 -0.2210  0.1141 -0.4564
  438SOL    HW2 1823   3.479   3.788   0.428 -0.9134 -0.8964  0.3902
  438SOL    HW3 1824   3.432   3.931   0.412  1.0907 -0.2417  0.1854
  438SOL    MW4 1825   3.414   3.846   0.425 -0.1392 -0.0660 -0.2600
  439SOL     OW 1826   2.934   0.522   0.506 -0.0296  0.0062  0.4803
  439SOL    HW2 1827   2.976   0.607   0.495  4.2549 -2.0131  0.3860
  439SOL    HW3 1828   2.926   0.511   0.600 -0.1705  0.3036  0.5035
  439SOL    MW4 1829   2.938   0.532   0.517  0.5171 -0.2210  0.4710
  440SOL     OW 1830   2.948   4.527   0.544  0.1739 -0.0669 -0.0496
  440SOL    HW2 1831   3.019   4.475   0.508 -1.2703 -1.2780 -1.2345
  440SOL    HW3 1832   2.971   4.617   0.523  0.2258 -0.6205 -2.5063
  440SOL    MW4 1833   2.960   4.532   0.537 -0.0098 -0.2995 -0.5301
  441SOL     OW 1834   3.347   0.733   0.841 -0.1350  0.4302 -0.1725
  441SOL    HW2 1835   3.354   0.645   0.803 -0.5436  0.1626  0.3779
  441SOL    HW3 1836   3.430   0.775   0.819  0.7480 -0.6595  1.0042
  441SOL    MW4 1837   3.359   0.727   0.833 -0.0722  0.2511  0.0554
  442SOL     OW 1838   4.012   4.580   0.601  0.3021  0.3869  0.0868
  442SOL    HW2 1839   4.075   4.518   0.563  1.5868 -0.2863  3.1512
  442SOL    HW3 1840   4.065   4.654   0.630 -0.5718  0.6942  0.9180
  442SOL    MW4 1841   4.027   4.581   0.600  0.3557  0.3390  0.6008
  443SOL     OW 1842   3.861   0.746   1.128  0.3213 -0.2476  0.0873
  443SOL    HW2 1843   3.928   0.804   1.165  0.0289 -1.2911  2.3930
  443SOL    HW3 1844   3.778   0.781   1.161 -0.1398 -0.0001 -1.3061
  443SOL    MW4 1845   3.859   0.758   1.138  0.2220 -0.3526  0.2077
  444SOL     OW 1846   0.204   1.534   0.414 -0.5715 -0.1117  0.8387
  444SOL    HW2 1847   0.224   1.583   0.334  0.1912  0.5447  1.4216
  444SOL    HW3 1848   0.117   1.566   0.440 -2.1961 -2.5167 -1.3608
  444SOL    MW4 1849   0.195   1.545   0.407 -0.6852 -0.3426  0.6254
  445SOL     OW 1850   2.847   1.200   0.486 -0.6776  0.2508  0.4004
  445SOL    HW2 1851   2.776   1.257   0.459 -1.1740 -1.2304 -1.5402
  445SOL    HW3 1852   2.926   1.240   0.450 -1.0903 -0.5512 -1.4702
  445SOL    MW4 1853   2.848   1.213   0.478 -0.7975 -0.0504 -0.1025
  446SOL     OW 1854   4.285   1.271   0.761 -0.5318 -0.1595 -0.3812
  446SOL    HW2 1855   4.364   1.228   0.792 -1.8507 -1.4935  1.2124
  446SOL    HW3 1856   4.278   1.351   0.812 -0.5061 -0.3266 -0.1158
  446SOL    MW4 1857   4.294   1.276   0.772 -0.7024 -0.3576 -0.1359
  447SOL     OW 1858   4.285   1.973   0.368 -0.5390  0.4682 -0.3170
  447SOL    HW2 1859   4.231   1.904   0.330  1.4257 -1.2612 -0.0559
  447SOL    HW3 1860   4.374   1.954   0.339  0.4474  1.3501  1.9350
  447SOL    MW4 1861   4.289   1.962   0.359 -0.1502  0.3564  0.0145
  448SOL     OW 1862   3.620   1.626   0.298  0.1695 -0.2560 -0.4485
  448SOL    HW2 1863   3.538   1.663   0.333 -0.3779 -0.3974 -1.5571
  448SOL    HW3 1864   3.604   1.532   0.296  0.0836 -0.2308 -1.3269
  448SOL    MW4 1865   3.607   1.619   0.302  0.0863 -0.2713 -0.7107
  449SOL     OW 1866   4.428   2.465   0.751 -0.9312  0.3318 -0.5013
  449SOL    HW2 1867   4.418   2.445   0.658 -1.3674  1.4468 -0.6915
  449SOL    HW3 1868   4.355   2.419   0.793 -0.9123  0.0821 -0.7367
  449SOL    MW4 1869   4.417   2.456   0.744 -0.9862  0.4461 -0.5575
  450SOL     OW 1870   3.004   0.128   0.496 -0.4480  0.0356  0.0094
  450SOL    HW2 1871   3.043   0.140   0.582  1.4946 -0.5622 -0.7727
  450SOL    HW3 1872   3.049   0.191   0.440 -1.5800  0.3047 -0.6130
  450SOL    MW4 1873   3.015   0.138   0.500 -0.3412 -0.0077 -0.1759
  451SOL     OW 1874   4.226   2.269   0.785 -0.0582 -0.4781  0.2113
  451SOL    HW2 1875   4.151   2.307   0.739 -0.3520 -1.0010  0.2477
  451SOL    HW3 1876   4.224   2.177   0.761 -0.4859 -0.8527  1.5998
  451SOL    MW4 1877   4.216   2.262   0.776 -0.1535 -0.5963  0.3992
  452SOL     OW 1878   3.968   2.753   0.840  0.2697 -0.2097 -0.1366
  452SOL    HW2 1879   3.875   2.739   0.860  0.4762 -1.0183  0.2391
  452SOL    HW3 1880   3.977   2.725   0.749  0.1251 -0.0374 -0.2047
  452SOL    MW4 1881   3.957   2.748   0.831  0.2778 -0.2935 -0.0960
  453SOL     OW 1882   2.452   1.835   0.317 -0.0131 -0.4560 -0.1917
  453SOL    HW2 1883   2.513   1.867   0.251 -2.4815  1.6693 -1.5477
  453SOL    HW3 1884   2.415   1.915   0.355 -0.4712 -1.6866  2.0219
  453SOL    MW4 1885   2.455   1.850   0.313 -0.3991 -0.3380 -0.0786
  454SOL     OW 1886   3.605   0.120   0.747 -0.3552  0.3309 -0.0529
  454SOL    HW2 1887   3.631   0.127   0.655  0.2727  0.9353  0.1675
  454SOL    HW3 1888   3.515   0.087   0.744 -0.3416  0.3598 -0.8806
  454SOL    MW4 1889   3.597   0.116   0.734 -0.2704  0.4145 -0.1330
  455SOL     OW 1890   4.148   2.859   0.474 -0.4018  0.2925 -0.1582
  455SOL    HW2 1891   4.210   2.801   0.430  0.3792  0.3718  0.8157
  455SOL    HW3 1892   4.196   2.894   0.549 -1.3685  0.9825  0.1609
  455SOL    MW4 1893   4.162   2.856   0.478 -0.4263  0.3941  0.0124
  456SOL     OW 1894   3.539   3.139   0.512  0.0432 -0.0170  0.3398
  456SOL    HW2 1895   3.457   3.125   0.559 -0.5285  1.8788 -0.0531
  456SOL    HW3 1896   3.534   3.229   0.481  2.4360  0.2542  0.6145
  456SOL    MW4 1897   3.527   3.149   0.514  0.2832  0.2689  0.3242
  457SOL     OW 1898   3.739   3.637   0.712  0.7491 -0.0527 -0.0929
  457SOL    HW2 1899   3.811   3.579   0.689  0.7240 -0.7651  1.5500
  457SOL    HW3 1900   3.683   3.585   0.770 -0.2342  1.0218 -0.0415
  457SOL    MW4 1901   3.741   3.623   0.717  0.6161 -0.0048  0.1307
  458SOL     OW 1902   3.585   3.400   0.444 -0.1821  0.2156 -0.1366
  458SOL    HW2 1903   3.677   3.374   0.438 -0.3193 -0.0708 -1.0719
  458SOL    HW3 1904   3.587   3.495   0.449  0.1506  0.2323 -0.5588
  458SOL    MW4 1905   3.597   3.409   0.444 -0.1564  0.1800 -0.3157
  459SOL     OW 1906   0.484   4.567   0.409 -0.1285 -0.3144  0.1661
  459SOL    HW2 1907   0.453   4.480   0.432  0.7230 -0.3852  1.0829
  459SOL    HW3 1908   0.460   4.578   0.317 -2.5221 -0.5024  0.7254
  459SOL    MW4 1909   0.477   4.557   0.400 -0.3320 -0.3486  0.3609
  460SOL     OW 1910   4.289   4.651   0.863 -0.3886  0.1082  0.4622
  460SOL    HW2 1911   4.262   4.674   0.951  1.3555  2.2516  0.4844
  460SOL    HW3 1912   4.255   4.721   0.808  0.0755 -0.2568 -0.3033
  460SOL    MW4 1913   4.281   4.663   0.867 -0.0968  0.3428  0.3641
  461SOL     OW 1914   3.597   4.240   0.848 -0.5606  0.5797 -0.5800
  461SOL    HW2 1915   3.529   4.298   0.814 -2.0318 -1.6736 -1.6169
  461SOL    HW3 1916   3.592   4.163   0.792 -0.0743 -1.4252  2.0665
  461SOL    MW4 1917   3.588   4.238   0.836 -0.6905  0.0181 -0.3676
  462SOL     OW 1918   3.809   4.614   0.816  0.3963 -0.1702  0.3748
  462SOL    HW2 1919   3.864   4.629   0.739  0.9025  0.5556  0.8672
  462SOL    HW3 1920   3.737   4.676   0.807  0.2330 -0.3748  0.2745
  462SOL    MW4 1921   3.807   4.624   0.805  0.4418 -0.1016  0.4265
  463SOL     OW 1922   0.073   0.344   0.863  0.1062  0.0901  0.2230
  463SOL    HW2 1923  -0.012   0.380   0.839  0.4341  1.1226  0.5796
  463SOL    HW3 1924   0.072   0.339   0.958  0.1463 -0.6533  0.1878
  463SOL    MW4 1925   0.062   0.348   0.872  0.1547  0.1282  0.2654
  464SOL     OW 1926   0.912   0.898   0.726 -0.2859 -0.1844 -0.7403
  464SOL    HW2 1927   0.934   0.886   0.634 -0.7531 -1.8055 -0.6417
  464SOL    HW3 1928   0.980   0.851   0.774 -1.4570 -1.4626 -0.3259
  464SOL    MW4 1929   0.924   0.890   0.721 -0.5020 -0.5670 -0.6726
  465SOL     OW 1930   3.374   1.439   0.829  0.0413 -0.0093 -0.0671
  465SOL    HW2 1931   3.411   1.522   0.800 -1.0051  0.2881 -0.5525
  465SOL    HW3 1932   3.379   1.443   0.925  0.2174  0.5055 -0.0957
  465SOL    MW4 1933   3.379   1.451   0.838 -0.0737  0.0979 -0.1349
  466SOL     OW 1934   4.296   0.430   0.784 -0.2524  0.3350 -0.1916
  466SOL    HW2 1935   4.283   0.444   0.691 -1.2084  1.4740  0.0989
  466SOL    HW3 1936   4.289   0.517   0.823 -0.7299 -0.2280  1.0278
  466SOL    MW4 1937   4.293   0.443   0.777 -0.4411  0.4110  0.0076
  467SOL     OW 1938   3.854   0.719   0.835 -0.4125  0.6563 -0.4266
  467SOL    HW2 1939   3.865   0.738   0.928  1.4906 -0.8283 -0.3086
  467SOL    HW3 1940   3.926   0.766   0.792  0.1054 -0.5368 -0.8836
  467SOL    MW4 1941   3.865   0.728   0.841 -0.0927  0.3030 -0.4714
  468SOL     OW 1942   0.056   0.862   0.495 -0.6488 -0.4105 -0.3818
  468SOL    HW2 1943   0.018   0.943   0.460  1.9663  1.2155  0.4166
  468SOL    HW3 1944   0.149   0.867   0.472 -0.6663 -3.9029 -1.5535
  468SOL    MW4 1945   0.063   0.874   0.487 -0.3061 -0.6568 -0.4311
  469SOL     OW 1946   4.199   1.018   0.412  0.3465  0.6013  0.0681
  469SOL    HW2 1947   4.200   1.106   0.450  0.5649  0.5356  0.2158
  469SOL    HW3 1948   4.287   1.005   0.379  0.5299  0.1499  0.7161
  469SOL    MW4 1949   4.211   1.028   0.413  0.3996  0.5331  0.1731
  470SOL     OW 1950   2.600   3.286   0.479  0.1186  0.0216 -0.5628
  470SOL    HW2 1951   2.576   3.379   0.472  0.0558 -0.0653 -1.6496
  470SOL    HW3 1952   2.520   3.239   0.459  0.3374 -0.2730 -0.7488
  470SOL    MW4 1953   2.587   3.292   0.475  0.1392 -0.0286 -0.7307
  471SOL     OW 1954   1.582   0.802   0.830  0.5819 -0.6835 -0.3236
  471SOL    HW2 1955   1.658   0.851   0.798 -0.0862 -0.0300 -0.8898
  471SOL    HW3 1956   1.506   0.850   0.798 -0.1033 -0.2361  1.8578
  471SOL    MW4 1957   1.582   0.815   0.822  0.4033 -0.5382 -0.1104
  472SOL     OW 1958   0.456   1.609   0.511  0.5453 -0.1983  0.0378
  472SOL    HW2 1959   0.370   1.571   0.491 -0.3171  1.2144  0.9698
  472SOL    HW3 1960   0.467   1.678   0.446  2.0861 -1.9335 -1.6115
  472SOL    MW4 1961   0.446   1.613   0.500  0.6348 -0.2408 -0.0568
  473SOL     OW 1962   3.913   1.568   0.563  0.2413 -0.6605  0.4618
  473SOL    HW2 1963   3.929   1.548   0.656 -0.6936 -1.5539  0.4375
  473SOL    HW3 1964   3.832   1.521   0.542  0.5446 -0.6032 -0.8591
  473SOL    MW4 1965   3.904   1.559   0.573  0.1581 -0.7709  0.2843
  474SOL     OW 1966   4.455   4.038   0.494 -0.0907 -0.0170  0.1058
  474SOL    HW2 1967   4.404   3.967   0.455  0.4181  0.1863 -0.9455
  474SOL    HW3 1968   4.546   4.012   0.482  0.0856  0.4318  0.4469
  474SOL    MW4 1969   4.460   4.025   0.488  0.0000  0.0687  0.0121
  475SOL     OW 1970   0.677   1.312   0.761  0.2360 -0.4009 -0.2369
  475SOL    HW2 1971   0.683   1.341   0.670  0.5328  0.3299  0.0064
  475SOL    HW3 1972   0.756   1.260   0.776  1.6632  1.8290  0.3999
  475SOL    MW4 1973   0.688   1.309   0.751  0.4634 -0.0103 -0.1208
  476SOL     OW 1974   3.681   3.184   0.763 -0.2698  0.1383 -0.1893
  476SOL    HW2 1975   3.651   3.163   0.674  0.4020  1.6613 -0.7950
  476SOL    HW3 1976   3.776   3.179   0.757 -0.2439 -0.2778  0.5859
  476SOL    MW4 1977   3.689   3.180   0.750 -0.1776  0.2842 -0.1669
  477SOL     OW 1978   3.061   2.440   0.387 -0.0012  0.4979 -0.3350
  477SOL    HW2 1979   3.111   2.521   0.388 -0.3392  0.6990  0.8228
  477SOL    HW3 1980   2.976   2.464   0.351 -0.0233  0.6092 -0.2082
  477SOL    MW4 1981   3.056   2.454   0.382 -0.0486  0.5388 -0.1656
  478SOL     OW 1982   4.116   2.986   0.879 -0.1957 -0.5134 -0.2116
  478SOL    HW2 1983   4.056   3.057   0.854  1.2712  0.5105 -0.8476
  478SOL    HW3 1984   4.062   2.907   0.874 -1.9055  0.5556  0.6582
  478SOL    MW4 1985   4.101   2.985   0.875 -0.2279 -0.2372 -0.1807
  479SOL     OW 1986   2.461   2.674   0.134  0.2811 -0.3267 -0.2902
  479SOL    HW2 1987   2.471   2.592   0.182  1.4850 -0.5877 -0.9753
  479SOL    HW3 1988   2.550   2.705   0.119 -0.1563  0.9962 -0.2383
  479SOL    MW4 1989   2.474   2.668   0.138  0.3822 -0.1864 -0.3737
  480SOL     OW 1990   3.777   3.107   1.105 -0.2133 -0.2371  0.3032
  480SOL    HW2 1991   3.818   3.094   1.020 -0.0880  0.8067  0.1966
  480SOL    HW3 1992   3.780   3.021   1.146  1.7777 -0.2621  0.1685
  480SOL    MW4 1993   3.783   3.094   1.099  0.0658 -0.1025  0.2713
  481SOL     OW 1994   4.091   3.757   0.499  0.1259 -0.0196  0.0175
  481SOL    HW2 1995   4.184   3.754   0.474 -0.2549 -0.8710 -1.3327
  481SOL    HW3 1996   4.085   3.832   0.558  1.6360  0.1979 -0.0873
  481SOL    MW4 1997   4.103   3.767   0.503  0.2751 -0.1032 -0.1745
  482SOL     OW 1998   2.771   4.065   0.469  0.1377  0.1323 -0.2735
  482SOL    HW2 1999   2.753   4.047   0.561  0.7285  0.1507 -0.1530
  482SOL    HW3 2000   2.867   4.062   0.462  0.1025  0.2893 -0.8513
  482SOL    MW4 2001   2.782   4.063   0.480  0.2112  0.1554 -0.3338
  483SOL     OW 2002   1.822   3.835   0.378  0.0887  0.1599  0.0763
  483SOL    HW2 2003   1.731   3.812   0.360  0.0694  0.1693  0.1653
  483SOL    HW3 2004   1.873   3.767   0.333  0.0279 -0.0965  0.4006
  483SOL    MW4 2005   1.817   3.823   0.369  0.0782  0.1273  0.1309
  484SOL     OW 2006   3.836   3.798   0.311  0.8166  0.2512 -0.0231
  484SOL    HW2 2007   3.902   3.777   0.377 -0.9010 -1.1762  1.2830
  484SOL    HW3 2008   3.829   3.718   0.259 -0.6123  0.0328  0.4899
  484SOL    MW4 2009   3.844   3.784   0.313  0.4015  0.0339  0.2169
  485SOL     OW 2010   2.256   0.128   0.492 -0.2363  0.3148  0.1378
  485SOL    HW2 2011   2.301   0.202   0.453  0.9858  0.0529  0.9995
  485SOL    HW3 2012   2.172   0.123   0.447  0.9265  0.3167 -2.0787
  485SOL    MW4 2013   2.251   0.137   0.481  0.0784  0.2805 -0.0409
  486SOL     OW 2014   4.271   4.392   0.753  0.1693  0.4265 -0.5057
  486SOL    HW2 2015   4.338   4.341   0.798  0.2566 -0.7245 -1.9125
  486SOL    HW3 2016   4.275   4.478   0.794  1.1187 -0.2268  0.8014
  486SOL    MW4 2017   4.280   4.397   0.764  0.3061  0.1888 -0.5189
  487SOL     OW 2018   0.190   4.632   1.179 -0.3214 -0.1045 -0.4253
  487SOL    HW2 2019   0.264   4.671   1.225 -0.6193  0.7503 -0.6432
  487SOL    HW3 2020   0.222   4.618   1.089  0.1378 -1.4138 -0.0665
  487SOL    MW4 2021   0.204   4.636   1.173 -0.3001 -0.1645 -0.4069
  488SOL     OW 2022   4.466   0.132   1.282 -0.0980 -0.1233  0.0851
  488SOL    HW2 2023   4.397   0.092   1.228  0.3841  1.4396 -1.7357
  488SOL    HW3 2024   4.546   0.090   1.251 -0.0211 -0.5825  0.9041
  488SOL    MW4 2025   4.467   0.121   1.271 -0.0238  0.0223 -0.0473
  489SOL     OW 2026   4.489   0.357   1.136 -0.1698  0.4728  0.0001
  489SOL    HW2 2027   4.421   0.420   1.161 -0.1352  0.7709 -0.6378
  489SOL    HW3 2028   4.476   0.283   1.195 -1.5612  0.1852 -0.6503
  489SOL    MW4 2029   4.479   0.356   1.147 -0.3488  0.4742 -0.1699
  490SOL     OW 2030   0.178   0.500   1.278  0.3115 -0.5018  0.3942
  490SOL    HW2 2031   0.190   0.582   1.228  1.1349 -0.8152  0.0711
  490SOL    HW3 2032   0.122   0.447   1.222 -2.8360  1.0290  1.9754
  490SOL    MW4 2033   0.172   0.504   1.264  0.0048 -0.3411  0.5602
  491SOL     OW 2034   0.253   0.719   1.135 -0.2636 -0.1537 -0.6745
  491SOL    HW2 2035   0.330   0.753   1.180  0.2829 -1.1807 -0.8055
  491SOL    HW3 2036   0.189   0.790   1.139  0.4488  0.4587  0.0378
  491SOL    MW4 2037   0.255   0.733   1.141 -0.0975 -0.2084 -0.5978
  492SOL     OW 2038   0.040   0.874   1.215  0.0230 -0.2503 -0.0543
  492SOL    HW2 2039   0.049   0.878   1.311  1.1413  0.2391 -0.1706
  492SOL    HW3 2040  -0.038   0.820   1.201  0.5939 -1.4159  1.1098
  492SOL    MW4 2041   0.031   0.867   1.226  0.2458 -0.3395  0.0840
  493SOL     OW 2042   0.025   1.132   1.118 -0.2127 -0.5587  0.1728
  493SOL    HW2 2043  -0.051   1.180   1.151 -1.2415  0.0830 -2.9473
  493SOL    HW3 2044   0.008   1.041   1.142 -0.6973 -0.0655  1.7378
  493SOL    MW4 2045   0.013   1.126   1.125 -0.4124 -0.4089 -0.0323
  494SOL     OW 2046   0.260   1.270   1.233  0.1727 -0.3138 -0.4405
  494SOL    HW2 2047   0.341   1.224   1.210  0.0326 -0.4991 -0.5633
  494SOL    HW3 2048   0.190   1.209   1.209  0.0645 -1.2185  2.0104
  494SOL    MW4 2049   0.261   1.256   1.227  0.1400 -0.4575 -0.1335
  495SOL     OW 2050   0.224   1.519   1.131 -0.0677 -0.4275 -0.0408
  495SOL    HW2 2051   0.229   1.428   1.160  0.8328 -0.5500 -0.5710
  495SOL    HW3 2052   0.230   1.514   1.035 -0.4038  0.1654 -0.0980
  495SOL    MW4 2053   0.225   1.506   1.122  0.0068 -0.3653 -0.1184
  496SOL     OW 2054   4.271   1.548   1.162 -0.0748 -0.1265  0.0756
  496SOL    HW2 2055   4.360   1.580   1.176 -0.3032  0.6371 -0.2169
  496SOL    HW3 2056   4.274   1.457   1.192  0.3944  0.3679  1.5885
  496SOL    MW4 2057   4.283   1.540   1.168 -0.0429  0.0396  0.2365
  497SOL     OW 2058   4.248   1.984   0.652  0.8402 -0.2721 -0.0388
  497SOL    HW2 2059   4.265   1.962   0.561  0.9753 -0.8527  0.1213
  497SOL    HW3 2060   4.332   1.970   0.696  1.0789  1.1521 -0.0375
  497SOL    MW4 2061   4.261   1.979   0.646  0.8898 -0.1608 -0.0175
  498SOL     OW 2062   0.210   2.030   1.214  0.1448  0.5693  0.6959
  498SOL    HW2 2063   0.211   2.116   1.173  1.2398 -0.3981 -1.3570
  498SOL    HW3 2064   0.141   1.982   1.169 -0.2806  0.2788  1.6473
  498SOL    MW4 2065   0.201   2.035   1.203  0.2331  0.4032  0.5505
  499SOL     OW 2066   0.200   2.263   1.082  0.4214  0.0583 -0.3675
  499SOL    HW2 2067   0.208   2.276   0.987  2.9348  1.7813  0.0174
  499SOL    HW3 2068   0.132   2.325   1.108  0.7619  0.6525 -0.8614
  499SOL    MW4 2069   0.192   2.273   1.073  0.7979  0.3643 -0.3819
  500SOL     OW 2070   0.008   2.447   1.183 -0.5005  0.1061 -0.2907
  500SOL    HW2 2071   0.010   2.455   1.278  1.0195  0.4743 -0.3432
  500SOL    HW3 2072  -0.078   2.410   1.164 -0.2666 -1.3364  1.3192
  500SOL    MW4 2073  -0.003   2.443   1.193 -0.2689 -0.0355 -0.0851
  501SOL     OW 2074   4.452   2.697   1.074  0.0762 -0.5217 -0.0958
  501SOL    HW2 2075   4.378   2.734   1.121 -0.3613 -0.9789 -0.4234
  501SOL    HW3 2076   4.466   2.611   1.113  0.5916 -0.3364  0.1340
  501SOL    MW4 2077   4.444   2.691   1.085  0.0868 -0.5577 -0.1087
  502SOL     OW 2078   0.198   2.789   1.183  0.0511  0.5618 -0.3126
  502SOL    HW2 2079   0.189   2.783   1.278  0.4801  0.5657 -0.2700
  502SOL    HW3 2080   0.112   2.766   1.149 -0.2960  1.2203  0.1024
  502SOL    MW4 2081   0.186   2.786   1.191  0.0619  0.6492 -0.2522
  503SOL     OW 2082   0.240   3.069   1.150 -0.0860 -0.2137  0.2188
  503SOL    HW2 2083   0.312   3.129   1.170 -0.2451  0.2163 -0.4815
  503SOL    HW3 2084   0.269   2.984   1.185 -0.0729  0.3744  1.6462
  503SOL    MW4 2085   0.254   3.065   1.157 -0.1053 -0.0792  0.3147
  504SOL     OW 2086   4.486   3.199   1.207  0.4101 -0.2224  0.6435
  504SOL    HW2 2087   4.415   3.144   1.174  0.3030  0.3199 -0.0517
  504SOL    HW3 2088   4.564   3.144   1.203  0.3512 -0.2495 -0.2955
  504SOL    MW4 2089   4.487   3.185   1.202  0.3877 -0.1543  0.4277
  505SOL     OW 2090   4.476   3.458   1.129  0.4540 -0.3291 -0.1253
  505SOL    HW2 2091   4.478   3.369   1.164 -0.4556  0.0816  0.9908
  505SOL    HW3 2092   4.459   3.446   1.036  0.7142 -1.3427 -0.0540
  505SOL    MW4 2093   4.474   3.444   1.121  0.3681 -0.4089  0.0314
  506SOL     OW 2094   0.208   3.612   1.204  0.3753 -0.2989  0.3162
  506SOL    HW2 2095   0.208   3.603   1.300  0.3985  0.7813  0.4230
  506SOL    HW3 2096   0.132   3.561   1.175  0.3883 -0.6599  0.9050
  506SOL    MW4 2097   0.198   3.604   1.213  0.3801 -0.2041  0.4081
  507SOL     OW 2098   0.255   3.906   0.843 -0.0559  0.9750 -0.2763
  507SOL    HW2 2099   0.258   3.907   0.939  0.4459  2.6368 -0.3063
  507SOL    HW3 2100   0.164   3.925   0.822 -0.7705 -1.9317 -0.1279
  507SOL    MW4 2101   0.244   3.908   0.853 -0.0840  0.8109 -0.2607
  508SOL     OW 2102   0.028   3.984   1.181  0.1326  0.0821 -0.2864
  508SOL    HW2 2103   0.022   3.972   1.275 -0.3489 -0.1110 -0.3421
  508SOL    HW3 2104  -0.041   3.929   1.144  0.3606  0.1013 -0.7558
  508SOL    MW4 2105   0.018   3.975   1.188  0.0987  0.0591 -0.3556
  509SOL     OW 2106   4.459   4.244   1.123  0.0570 -0.4488 -0.3724
  509SOL    HW2 2107   4.535   4.289   1.159 -0.3914 -0.3497  0.4595
  509SOL    HW3 2108   4.474   4.152   1.143 -1.3642 -0.1448  2.2890
  509SOL    MW4 2109   4.471   4.238   1.130 -0.1898 -0.3958  0.0883
  510SOL     OW 2110   0.187   4.367   1.230  0.1676 -0.1636 -0.5903
  510SOL    HW2 2111   0.145   4.338   1.312  0.4899  1.6336  0.2427
  510SOL    HW3 2112   0.167   4.461   1.225  2.2217  0.2539 -1.3176
  510SOL    MW4 2113   0.179   4.376   1.241  0.4812  0.1287 -0.5764
  511SOL     OW 2114   0.664   4.662   1.193 -0.1780  0.1987  0.4011
  511SOL    HW2 2115   0.755   4.692   1.192 -0.0277 -0.2858 -1.7248
  511SOL    HW3 2116   0.670   4.570   1.218  0.1976 -0.6646 -2.7592
  511SOL    MW4 2117   0.677   4.654   1.196 -0.1086  0.0205 -0.2964
  512SOL     OW 2118   0.381   0.127   1.256  0.2680 -0.3488 -0.6306
  512SOL    HW2 2119   0.382   0.121   1.351 -0.5335  0.6099 -0.5564
  512SOL    HW3 2120   0.458   0.076   1.228  0.2926 -0.9443  0.4965
  512SOL    MW4 2121   0.392   0.120   1.265  0.1654 -0.3009 -0.4722
  513SOL     OW 2122   0.661   4.638   1.608  0.0612 -0.7782  0.1326
  513SOL    HW2 2123   0.600   4.708   1.587 -0.3129 -1.1736 -0.0967
  513SOL    HW3 2124   0.746   4.671   1.578 -0.2189 -0.7010 -0.5800
  513SOL    MW4 2125   0.664   4.652   1.602 -0.0252 -0.8202  0.0083
  514SOL     OW 2126   0.672   0.467   1.213  0.1709 -0.5641 -0.4914
  514SOL    HW2 2127   0.690   0.553   1.174 -1.1119  0.0954  0.3418
  514SOL    HW3 2128   0.577   0.457   1.205 -0.0769 -0.5479  2.1809
  514SOL    MW4 2129   0.662   0.477   1.206 -0.0311 -0.4749 -0.0290
  515SOL     OW 2130   0.497   0.839   1.250  0.2539  0.1202  0.2781
  515SOL    HW2 2131   0.478   0.827   1.343  0.2456  1.4563  0.4567
  515SOL    HW3 2132   0.475   0.931   1.232  1.7158  0.3058 -0.6781
  515SOL    MW4 2133   0.491   0.850   1.260  0.4457  0.3210  0.1756
  516SOL     OW 2134   0.920   0.868   1.197  0.0487 -0.4867 -0.1219
  516SOL    HW2 2135   0.910   0.957   1.165 -0.1036 -0.0257  1.1591
  516SOL    HW3 2136   0.839   0.824   1.171 -0.5404  0.1776  0.5597
  516SOL    MW4 2137   0.908   0.874   1.189 -0.0492 -0.3382  0.1371
  517SOL     OW 2138   0.497   1.130   1.167 -0.0461 -0.0961 -0.0339
  517SOL    HW2 2139   0.501   1.141   1.072 -0.5990 -0.5882 -0.1230
  517SOL    HW3 2140   0.566   1.187   1.202  0.0504  0.2059 -0.7191
  517SOL    MW4 2141   0.506   1.139   1.159 -0.1063 -0.1212 -0.1360
  518SOL     OW 2142   0.706   1.289   1.257 -0.0044 -0.1955 -0.0324
  518SOL    HW2 2143   0.783   1.252   1.213  1.5819  1.2726  1.4318
  518SOL    HW3 2144   0.693   1.373   1.214 -0.2267 -0.0282  0.3687
  518SOL    MW4 2145   0.715   1.295   1.245  0.1755  0.0203  0.2136
  519SOL     OW 2146   0.668   1.544   1.150 -0.0931 -0.2671 -0.0621
  519SOL    HW2 2147   0.735   1.606   1.177  0.0280 -0.0431 -0.8873
  519SOL    HW3 2148   0.585   1.590   1.164 -0.0418 -0.2292  0.1205
  519SOL    MW4 2149   0.666   1.558   1.156 -0.0704 -0.2325 -0.1469
  520SOL     OW 2150   0.433   1.691   1.170 -0.0406  0.8208  0.0316
  520SOL    HW2 2151   0.440   1.689   1.265 -0.1929  0.8514  0.0434
  520SOL    HW3 2152   0.362   1.630   1.150 -0.1198  0.9395 -0.0519
  520SOL    MW4 2153   0.424   1.682   1.180 -0.0712  0.8405  0.0222
  521SOL     OW 2154   0.437   1.962   1.098  0.1068  0.1811 -0.3223
  521SOL    HW2 2155   0.353   1.981   1.140  1.0347  0.2894  1.5465
  521SOL    HW3 2156   0.450   1.869   1.112 -0.5804 -0.2333 -2.2944
  521SOL    MW4 2157   0.427   1.952   1.106  0.1385  0.1407 -0.3359
  522SOL     OW 2158   0.704   2.066   1.198  0.2841 -0.4631  0.1108
  522SOL    HW2 2159   0.709   2.072   1.293  1.3131 -0.0845  0.0361
  522SOL    HW3 2160   0.612   2.047   1.180  0.3477 -1.9722  1.2637
  522SOL    MW4 2161   0.692   2.064   1.208  0.4283 -0.6123  0.2530
  523SOL     OW 2162   0.693   2.342   1.094  0.4875  0.0115  0.0029
  523SOL    HW2 2163   0.604   2.359   1.126  0.3022  0.8161 -0.9239
  523SOL    HW3 2164   0.713   2.254   1.127 -1.8087 -1.4370 -2.2200
  523SOL    MW4 2165   0.684   2.332   1.102  0.1601 -0.0734 -0.4126
  524SOL     OW 2166   0.432   2.390   1.192 -0.0636 -0.3012  0.1581
  524SOL    HW2 2167   0.416   2.383   1.286 -0.6626 -0.0009  0.0827
  524SOL    HW3 2168   0.352   2.355   1.152 -1.0159  2.1774 -0.2258
  524SOL    MW4 2169   0.419   2.385   1.199 -0.2683  0.0653  0.0974
  525SOL     OW 2170   0.449   2.670   1.133  0.2557  0.6567 -0.1387
  525SOL    HW2 2171   0.357   2.697   1.140 -0.0346 -0.1276 -0.8107
  525SOL    HW3 2172   0.451   2.580   1.167  0.5450  0.2425 -1.2153
  525SOL    MW4 2173   0.437   2.662   1.138  0.2556  0.4985 -0.3694
  526SOL     OW 2174   0.648   2.849   1.220  0.1844  0.4424  0.0342
  526SOL    HW2 2175   0.648   2.936   1.181  0.8389  0.2201 -0.4658
  526SOL    HW3 2176   0.563   2.813   1.196  0.7067  0.1776 -1.5021
  526SOL    MW4 2177   0.637   2.856   1.212  0.3397  0.3784 -0.2345
  527SOL     OW 2178   0.654   3.115   1.107 -0.1261  0.1078  0.3051
  527SOL    HW2 2179   0.736   3.156   1.135  0.8023 -1.2480 -0.3774
  527SOL    HW3 2180   0.655   3.120   1.012  0.0957 -1.6008  0.1878
  527SOL    MW4 2181   0.665   3.121   1.098  0.0257 -0.2966  0.1998
  528SOL     OW 2182   0.439   3.247   1.231  0.0718 -0.4931 -0.2017
  528SOL    HW2 2183   0.433   3.338   1.200  0.6441 -0.3900 -0.0096
  528SOL    HW3 2184   0.511   3.209   1.181 -0.0244 -0.7772 -0.1244
  528SOL    MW4 2185   0.448   3.254   1.220  0.1346 -0.5171 -0.1662
  529SOL     OW 2186   0.443   3.493   1.095  0.1065  0.2262  0.3217
  529SOL    HW2 2187   0.517   3.534   1.139 -0.7533  1.9579  0.1969
  529SOL    HW3 2188   0.366   3.535   1.134 -0.7140  0.5397 -1.5845
  529SOL    MW4 2189   0.442   3.504   1.106 -0.1152  0.4959  0.0538
  530SOL     OW 2190   0.660   3.620   1.222  0.5691 -0.1712 -0.0922
  530SOL    HW2 2191   0.649   3.615   1.317 -1.0642  0.1447 -0.2436
  530SOL    HW3 2192   0.712   3.698   1.207  0.1018  0.2581  0.5108
  530SOL    MW4 2193   0.665   3.629   1.232  0.2920 -0.0730 -0.0327
  531SOL     OW 2194   0.705   3.894   1.147  0.5551  0.3181 -0.3046
  531SOL    HW2 2195   0.621   3.927   1.177 -0.0669 -1.5846  0.1216
  531SOL    HW3 2196   0.707   3.914   1.053 -0.5798 -0.0448 -0.4036
  531SOL    MW4 2197   0.695   3.901   1.138  0.3233  0.0191 -0.2615
  532SOL     OW 2198   0.480   3.998   1.232 -0.1236  0.0821  0.3652
  532SOL    HW2 2199   0.485   4.088   1.199  1.0499 -0.3038 -0.5154
  532SOL    HW3 2200   0.405   3.960   1.185 -0.2460  0.4092  0.2920
  532SOL    MW4 2201   0.471   4.005   1.222  0.0150  0.0744  0.2393
  533SOL     OW 2202   0.457   4.263   1.134 -0.1605  0.1602 -0.3662
  533SOL    HW2 2203   0.532   4.313   1.165  0.1722  0.3517 -1.4867
  533SOL    HW3 2204   0.383   4.297   1.184  0.4401  0.1558  0.5448
  533SOL    MW4 2205   0.457   4.274   1.145 -0.0374  0.1845 -0.3940
  534SOL     OW 2206   0.673   4.394   1.228  0.1426 -0.2114  0.0510
  534SOL    HW2 2207   0.670   4.378   1.323  1.3279 -1.2274 -0.0651
  534SOL    HW3 2208   0.755   4.354   1.200 -0.2216  0.0488 -1.4210
  534SOL    MW4 2209   0.683   4.387   1.237  0.2510 -0.3114 -0.1585
  535SOL     OW 2210   1.171   4.660   1.130  0.1166  0.3989  0.1603
  535SOL    HW2 2211   1.190   4.566   1.128 -1.4066  0.1001 -1.1270
  535SOL    HW3 2212   1.169   4.685   1.038 -0.7227  1.4475  0.4661
  535SOL    MW4 2213   1.174   4.651   1.118 -0.1950  0.4978  0.0309
  536SOL     OW 2214   0.921   0.088   1.235  0.2483  0.0190 -0.0826
  536SOL    HW2 2215   0.934   0.081   1.329  0.6308  0.9062 -0.0623
  536SOL    HW3 2216   1.004   0.059   1.197  0.3158  0.2741 -0.1283
  536SOL    MW4 2217   0.933   0.083   1.242  0.3077  0.1697 -0.0858
  537SOL     OW 2218   0.940   0.344   1.158 -0.0382 -0.3157 -0.1249
  537SOL    HW2 2219   0.936   0.257   1.198 -2.0544 -0.1071  0.1816
  537SOL    HW3 2220   0.861   0.388   1.189  1.6488  2.1282  0.8521
  537SOL    MW4 2221   0.929   0.339   1.168 -0.0816  0.0342  0.0443
  538SOL     OW 2222   1.162   0.474   1.269  0.1665 -0.0873  0.1856
  538SOL    HW2 2223   1.141   0.452   1.360 -1.3565  0.4285 -0.0338
  538SOL    HW3 2224   1.090   0.437   1.218  0.7099  0.1467 -0.7562
  538SOL    MW4 2225   1.150   0.466   1.274  0.0372  0.0116  0.0324
  539SOL     OW 2226   1.143   0.723   1.086  0.2849 -0.2398  0.2879
  539SOL    HW2 2227   1.066   0.762   1.127 -0.8159 -1.3765 -0.6447
  539SOL    HW3 2228   1.159   0.644   1.136 -0.6309 -1.2584 -0.9819
  539SOL    MW4 2229   1.135   0.718   1.098  0.0190 -0.5242 -0.0027
  540SOL     OW 2230   1.355   0.905   1.211 -0.3338 -0.4192 -0.8879
  540SOL    HW2 2231   1.441   0.878   1.179  0.2482 -0.9810  1.0672
  540SOL    HW3 2232   1.294   0.847   1.165  0.3816 -0.4487 -1.8156
  540SOL    MW4 2233   1.359   0.894   1.201 -0.1626 -0.4972 -0.7523
  541SOL     OW 2234   0.917   1.156   1.122 -0.0020 -0.7920  0.6702
  541SOL    HW2 2235   0.990   1.203   1.164 -0.9832 -0.2782  1.8198
  541SOL    HW3 2236   0.932   1.168   1.028  0.2956  0.9873  0.9246
  541SOL    MW4 2237   0.929   1.163   1.115 -0.0922 -0.4895  0.8554
  542SOL     OW 2238   1.124   1.297   1.222 -0.4236  0.1702 -0.1138
  542SOL    HW2 2239   1.111   1.297   1.317 -0.5361 -0.3024 -0.1265
  542SOL    HW3 2240   1.209   1.256   1.209 -0.0024  1.0634 -0.1677
  542SOL    MW4 2241   1.133   1.291   1.233 -0.3828  0.2258 -0.1225
  543SOL     OW 2242   1.148   1.556   1.124 -0.0005 -0.2272  0.2872
  543SOL    HW2 2243   1.132   1.467   1.157  1.1444 -0.4377  0.2755
  543SOL    HW3 2244   1.143   1.547   1.029  0.0029 -0.2543  0.2896
  543SOL    MW4 2245   1.145   1.543   1.116  0.1510 -0.2586  0.2860
  544SOL     OW 2246   0.929   1.712   1.209  0.1303 -0.3236  0.1587
  544SOL    HW2 2247   0.923   1.794   1.160 -0.3921 -0.1247  0.5468
  544SOL    HW3 2248   1.000   1.664   1.166  0.4445  0.3286 -0.0739
  544SOL    MW4 2249   0.938   1.717   1.197  0.1029 -0.2114  0.1791
  545SOL     OW 2250   0.926   1.952   1.081 -0.0763  0.3444 -0.0037
  545SOL    HW2 2251   0.999   2.001   1.119 -0.7602  0.9906  0.5027
  545SOL    HW3 2252   0.849   1.989   1.123 -0.5175 -2.3737  1.7308
  545SOL    MW4 2253   0.926   1.963   1.092 -0.2247  0.0710  0.2919
  546SOL     OW 2254   1.158   2.049   1.216  0.2188 -0.1588 -0.1608
  546SOL    HW2 2255   1.152   2.039   1.311  0.7670  1.3785  0.0416
  546SOL    HW3 2256   1.152   2.143   1.200  2.5762 -0.1838 -1.4554
  546SOL    MW4 2257   1.156   2.060   1.226  0.6020  0.0405 -0.3049
  547SOL     OW 2258   1.110   2.306   1.143 -0.1363  0.3082  0.0919
  547SOL    HW2 2259   1.182   2.368   1.135  0.4557 -0.4518 -0.4481
  547SOL    HW3 2260   1.036   2.360   1.174  0.6265  1.0953  0.5669
  547SOL    MW4 2261   1.109   2.322   1.146  0.0423  0.3119  0.0832
  548SOL     OW 2262   0.898   2.460   1.213 -0.2683  0.1292  0.4558
  548SOL    HW2 2263   0.888   2.451   1.307  1.0839 -0.1020  0.5780
  548SOL    HW3 2264   0.814   2.430   1.177  0.6791 -3.9164  1.3641
  548SOL    MW4 2265   0.885   2.455   1.220  0.0352 -0.4354  0.5918
  549SOL     OW 2266   0.886   2.725   1.123 -0.0957  0.2778 -0.3973
  549SOL    HW2 2267   0.880   2.634   1.151 -0.4227 -0.3778 -2.5598
  549SOL    HW3 2268   0.799   2.761   1.141  0.3398  0.5010  1.4515
  549SOL    MW4 2269   0.874   2.718   1.129 -0.0814  0.2205 -0.4387
  550SOL     OW 2270   1.136   2.851   1.176  0.0833  0.1378  0.1118
  550SOL    HW2 2271   1.132   2.861   1.271  0.9303  0.6256  0.1040
  550SOL    HW3 2272   1.055   2.805   1.153  0.2114 -0.6192  1.1408
  550SOL    MW4 2273   1.125   2.847   1.185  0.2121  0.1020  0.2466
  551SOL     OW 2274   1.118   3.115   1.094 -0.4865  0.0865  0.1045
  551SOL    HW2 2275   1.119   3.021   1.111 -2.0959  0.1947  0.8710
  551SOL    HW3 2276   1.107   3.123   1.000 -1.7719 -0.4908  0.2000
  551SOL    MW4 2277   1.117   3.104   1.084 -0.8686  0.0246  0.2184
  552SOL     OW 2278   0.885   3.234   1.216 -0.1771 -0.0369 -0.4291
  552SOL    HW2 2279   0.879   3.322   1.179  0.4785 -0.0846 -0.6465
  552SOL    HW3 2280   0.949   3.188   1.162 -0.2932 -0.5595 -0.1350
  552SOL    MW4 2281   0.893   3.239   1.204 -0.1060 -0.1121 -0.4190
  553SOL     OW 2282   0.884   3.489   1.121  0.2883 -0.3120  0.1184
  553SOL    HW2 2283   0.802   3.530   1.148  1.1561  0.9391  0.8681
  553SOL    HW3 2284   0.888   3.503   1.026 -0.2473 -0.1898  0.1120
  553SOL    MW4 2285   0.873   3.496   1.112  0.3322 -0.1311  0.2165
  554SOL     OW 2286   1.113   3.613   1.256 -0.0853  0.2059  0.0301
  554SOL    HW2 2287   1.195   3.573   1.225  1.0444  2.9080 -0.5622
  554SOL    HW3 2288   1.045   3.573   1.201  0.9910 -0.9175 -0.5142
  554SOL    MW4 2289   1.115   3.602   1.245  0.2058  0.4144 -0.1198
  555SOL     OW 2290   1.140   3.864   1.097  0.1742  0.1184 -0.0773
  555SOL    HW2 2291   1.078   3.923   1.140 -1.8935 -1.1193 -1.2987
  555SOL    HW3 2292   1.132   3.782   1.145  3.0961  0.8138  1.6621
  555SOL    MW4 2293   1.131   3.861   1.109  0.2871  0.0470 -0.0091
  556SOL     OW 2294   0.925   4.027   1.226  0.0863 -0.3171  0.1361
  556SOL    HW2 2295   0.917   4.015   1.321  1.0282  0.3968  0.3087
  556SOL    HW3 2296   0.844   3.988   1.191 -0.6637  0.1565  1.2898
  556SOL    MW4 2297   0.913   4.020   1.234  0.1116 -0.1602  0.3111
  557SOL     OW 2298   0.928   4.298   1.130  0.0085  0.2264  0.1933
  557SOL    HW2 2299   0.941   4.290   1.035 -0.8210 -1.3378  0.1928
  557SOL    HW3 2300   0.935   4.208   1.162  0.9449  0.8276  1.7178
  557SOL    MW4 2301   0.931   4.285   1.121  0.0226  0.0997  0.3945
  558SOL     OW 2302   1.179   4.386   1.171 -0.0953  0.2066  0.1774
  558SOL    HW2 2303   1.189   4.397   1.266 -0.5862  1.4880  0.0978
  558SOL    HW3 2304   1.086   4.367   1.159  0.0592 -0.4524 -0.0170
  558SOL    MW4 2305   1.168   4.385   1.182 -0.1397  0.2885  0.1413
  559SOL     OW 2306   1.597   4.633   1.126 -0.1332  0.0591 -0.1318
  559SOL    HW2 2307   1.678   4.674   1.157 -0.2571 -0.0199  0.2892
  559SOL    HW3 2308   1.603   4.542   1.153  0.0409 -0.1607 -0.8833
  559SOL    MW4 2309   1.608   4.627   1.134 -0.1267  0.0196 -0.1755
  560SOL     OW 2310   1.406   0.122   1.228 -0.1833  0.0718  0.0812
  560SOL    HW2 2311   1.480   0.081   1.185 -0.9086 -1.1298 -0.0535
  560SOL    HW3 2312   1.329   0.078   1.191 -0.9316  0.9164  0.6066
  560SOL    MW4 2313   1.406   0.111   1.217 -0.3778  0.0247  0.1328
  561SOL     OW 2314   1.372   0.379   1.113  0.3861  0.0415  0.1418
  561SOL    HW2 2315   1.386   0.289   1.141 -0.6634  0.0108  0.5773
  561SOL    HW3 2316   1.301   0.411   1.168  0.4649  1.0035 -0.3000
  561SOL    MW4 2317   1.365   0.371   1.124  0.2582  0.1644  0.1409
  562SOL     OW 2318   1.581   0.509   1.223  0.4099  0.2206 -0.4593
  562SOL    HW2 2319   1.597   0.580   1.160  0.3928  0.9177  0.3160
  562SOL    HW3 2320   1.507   0.461   1.185 -1.0306  1.9371  0.0928
  562SOL    MW4 2321   1.573   0.512   1.210  0.2176  0.5391 -0.2842
  563SOL     OW 2322   1.585   0.774   1.114  0.0992 -0.0776 -0.1726
  563SOL    HW2 2323   1.669   0.815   1.133 -0.3301  0.6420  0.1926
  563SOL    HW3 2324   1.573   0.787   1.020  0.6244 -0.6209 -0.3182
  563SOL    MW4 2325   1.595   0.781   1.104  0.1119 -0.0544 -0.1436
  564SOL     OW 2326   1.867   1.116   0.479  0.2443  0.1552  0.1199
  564SOL    HW2 2327   1.877   1.039   0.535  1.3444 -0.2567 -0.6254
  564SOL    HW3 2328   1.883   1.084   0.390 -1.3125  0.8322 -0.4249
  564SOL    MW4 2329   1.871   1.102   0.474  0.1841  0.1901 -0.0503
  565SOL     OW 2330   1.362   1.168   1.122  0.1995  0.3907 -0.2277
  565SOL    HW2 2331   1.372   1.150   1.029 -0.3617  0.0591 -0.2282
  565SOL    HW3 2332   1.358   1.082   1.163 -1.2557  0.5069 -0.0894
  565SOL    MW4 2333   1.362   1.154   1.115 -0.0666  0.3622 -0.2096
  566SOL     OW 2334   1.578   1.302   1.226 -0.1916  0.2639  0.0280
  566SOL    HW2 2335   1.662   1.276   1.188  0.0858 -0.1302  0.8963
  566SOL    HW3 2336   1.515   1.243   1.185 -0.1194  0.8588 -0.9663
  566SOL    MW4 2337   1.581   1.290   1.215 -0.1454  0.2903  0.0114
  567SOL     OW 2338   1.591   1.560   1.154  0.4835  0.3621  0.1598
  567SOL    HW2 2339   1.680   1.573   1.185 -0.3291  0.9505  2.3485
  567SOL    HW3 2340   1.568   1.471   1.181  0.1109  0.5278  0.3981
  567SOL    MW4 2341   1.599   1.550   1.162  0.3271  0.4616  0.4798
  568SOL     OW 2342   1.359   1.696   1.241  0.5884  0.7331 -0.1466
  568SOL    HW2 2343   1.434   1.648   1.205  0.3839  1.8001 -2.0343
  568SOL    HW3 2344   1.282   1.655   1.201  0.1747  0.1781  1.1602
  568SOL    MW4 2345   1.359   1.684   1.231  0.5068  0.8005 -0.2232
  569SOL     OW 2346   1.367   1.932   1.106  0.2842  0.3620  0.1201
  569SOL    HW2 2347   1.375   1.854   1.160  0.3378  0.7350  0.6604
  569SOL    HW3 2348   1.286   1.973   1.136 -1.2051 -0.8975 -2.0247
  569SOL    MW4 2349   1.357   1.927   1.117  0.0949  0.2450 -0.0916
  570SOL     OW 2350   1.594   2.048   1.214  0.2982  0.2211  0.8570
  570SOL    HW2 2351   1.585   2.138   1.185 -1.5302 -0.5588 -1.1499
  570SOL    HW3 2352   1.532   1.999   1.159  1.9662 -2.3854  1.2115
  570SOL    MW4 2353   1.584   2.053   1.203  0.2770 -0.2258  0.6390
  571SOL     OW 2354   1.552   2.310   1.104 -0.2998 -0.0249  0.2936
  571SOL    HW2 2355   1.471   2.360   1.113  0.0886  0.5828  0.4739
  571SOL    HW3 2356   1.560   2.293   1.010  0.3426  1.5824  0.0366
  571SOL    MW4 2357   1.542   2.314   1.092 -0.1638  0.2675  0.2835
  572SOL     OW 2358   1.340   2.462   1.171 -0.3421 -0.0599  0.2678
  572SOL    HW2 2359   1.365   2.448   1.263  1.7861 -1.5774 -0.5169
  572SOL    HW3 2360   1.363   2.553   1.153  1.9609 -0.5892  0.4168
  572SOL    MW4 2361   1.346   2.472   1.181  0.2425 -0.3300  0.1839
  573SOL     OW 2362   1.358   2.720   1.072  0.1338  0.2799  0.1479
  573SOL    HW2 2363   1.424   2.770   1.120  0.1593 -0.6212  1.0839
  573SOL    HW3 2364   1.275   2.759   1.098  0.1233 -0.4644  1.2505
  573SOL    MW4 2365   1.356   2.732   1.082  0.1358  0.0627  0.4168
  574SOL     OW 2366   1.587   2.866   1.186  0.4357  0.2377 -0.2259
  574SOL    HW2 2367   1.666   2.823   1.156 -0.0847 -0.9899  0.1430
  574SOL    HW3 2368   1.577   2.942   1.129  1.1703 -0.3199 -1.0913
  574SOL    MW4 2369   1.596   2.871   1.175  0.4640  0.0019 -0.2913
  575SOL     OW 2370   1.557   3.134   1.070 -0.2358 -0.4935  0.5738
  575SOL    HW2 2371   1.638   3.155   1.116 -0.4182 -0.3775  0.8437
  575SOL    HW3 2372   1.488   3.178   1.120 -0.4555 -0.5051  0.2882
  575SOL    MW4 2373   1.558   3.142   1.082 -0.2888 -0.4795  0.5717
  576SOL     OW 2374   1.346   3.244   1.218 -0.6260  0.3619  0.1779
  576SOL    HW2 2375   1.325   3.245   1.312 -0.2426  0.4693  0.2625
  576SOL    HW3 2376   1.284   3.181   1.181 -0.4999  0.0062  0.5664
  576SOL    MW4 2377   1.335   3.236   1.226 -0.5586  0.3295  0.2403
  577SOL     OW 2378   1.346   3.510   1.142  0.4716 -0.2098 -0.2204
  577SOL    HW2 2379   1.345   3.421   1.177 -2.9628 -0.3681 -0.5160
  577SOL    HW3 2380   1.348   3.497   1.047  0.4592  0.0279 -0.2514
  577SOL    MW4 2381   1.346   3.496   1.134  0.0168 -0.1991 -0.2635
  578SOL     OW 2382   1.547   3.642   1.266  0.2345  0.5294  0.2747
  578SOL    HW2 2383   1.555   3.723   1.215  1.1433 -1.0922 -2.2616
  578SOL    HW3 2384   1.465   3.603   1.234  2.4081 -2.0798 -2.4157
  578SOL    MW4 2385   1.537   3.648   1.255  0.6412 -0.0288 -0.4148
  579SOL     OW 2386   1.615   3.873   1.111  0.1830  0.1736 -0.1130
  579SOL    HW2 2387   1.531   3.914   1.131 -0.1895 -0.8682  0.5345
  579SOL    HW3 2388   1.678   3.919   1.165  0.2359  1.8101 -1.5494
  579SOL    MW4 2389   1.612   3.884   1.121  0.1409  0.2518 -0.2170
  580SOL     OW 2390   1.368   3.974   1.183  0.2794 -0.7033 -0.1447
  580SOL    HW2 2391   1.366   4.067   1.160  0.8947 -0.0207  2.3778
  580SOL    HW3 2392   1.286   3.939   1.149  0.2860  0.6193 -1.6089
  580SOL    MW4 2393   1.357   3.982   1.175  0.3616 -0.4387 -0.0051
  581SOL     OW 2394   1.391   4.234   1.087  0.4152  0.4110  0.4800
  581SOL    HW2 2395   1.307   4.274   1.109 -2.1041 -4.0170 -0.6557
  581SOL    HW3 2396   1.410   4.264   0.998 -1.1592 -0.4381 -0.1549
  581SOL    MW4 2397   1.383   4.243   1.078 -0.1249 -0.2851  0.2464
  582SOL     OW 2398   1.595   4.370   1.193 -0.6720 -0.3914  0.3852
  582SOL    HW2 2399   1.598   4.350   1.286  0.3383 -1.4974  0.1356
  582SOL    HW3 2400   1.522   4.317   1.159 -0.3618 -0.8094  0.3672
  582SOL    MW4 2401   1.586   4.360   1.200 -0.4977 -0.5927  0.3499
  583SOL     OW 2402   2.043   4.604   1.149  0.4696 -0.0998  0.2419
  583SOL    HW2 2403   2.058   4.514   1.176 -0.1783 -0.7448 -1.4669
  583SOL    HW3 2404   2.047   4.601   1.053 -1.2772  1.3569  0.0936
  583SOL    MW4 2405   2.046   4.592   1.140  0.1535  0.0076 -0.0031
  584SOL     OW 2406   1.815   0.086   1.235  0.0621 -0.1417 -0.5508
  584SOL    HW2 2407   1.816   0.165   1.182 -1.1968  0.8521  0.8504
  584SOL    HW3 2408   1.893   0.038   1.208  0.2450  1.0412 -2.2072
  584SOL    MW4 2409   1.825   0.090   1.225 -0.0800  0.1455 -0.5845
  585SOL     OW 2410   1.788   0.343   1.121 -0.3170  0.0087  0.4842
  585SOL    HW2 2411   1.736   0.392   1.185 -1.9356 -1.6047  0.4330
  585SOL    HW3 2412   1.788   0.398   1.043 -0.0294  1.0516  1.2039
  585SOL    MW4 2413   1.781   0.357   1.119 -0.4926 -0.0666  0.5724
  586SOL     OW 2414   2.006   0.509   1.197  0.1082  0.4105 -0.0939
  586SOL    HW2 2415   2.015   0.498   1.292  0.1404 -1.6519 -0.3159
  586SOL    HW3 2416   1.940   0.445   1.172  0.3668  0.7013 -1.5241
  586SOL    MW4 2417   1.999   0.499   1.206  0.1466  0.1768 -0.3119
  587SOL     OW 2418   1.995   0.768   1.077 -0.1502 -0.0912  0.3014
  587SOL    HW2 2419   1.997   0.677   1.107 -0.7655  0.0481  0.7809
  587SOL    HW3 2420   2.003   0.762   0.982 -0.6754 -0.6766  0.2881
  587SOL    MW4 2421   1.997   0.755   1.069 -0.3008 -0.1501  0.3628
  588SOL     OW 2422   1.800   0.897   1.215 -0.2210  0.1078 -0.4248
  588SOL    HW2 2423   1.813   0.881   1.308 -0.3136  1.0175 -0.2477
  588SOL    HW3 2424   1.876   0.858   1.172 -0.5804 -1.0255 -0.0430
  588SOL    MW4 2425   1.811   0.890   1.222 -0.2806  0.0783 -0.3511
  589SOL     OW 2426   1.781   1.150   1.102 -0.3612  0.0140 -0.0139
  589SOL    HW2 2427   1.781   1.066   1.147 -0.4684 -0.1501 -0.3216
  589SOL    HW3 2428   1.826   1.134   1.020  0.9080  0.5995  0.5511
  589SOL    MW4 2429   1.787   1.137   1.097 -0.2080  0.0696  0.0198
  590SOL     OW 2430   2.007   1.257   1.227 -0.0855  0.3003 -0.1804
  590SOL    HW2 2431   2.073   1.192   1.206  0.4675  0.8635 -0.2100
  590SOL    HW3 2432   1.925   1.219   1.196  0.4166  0.1977 -1.4168
  590SOL    MW4 2433   2.005   1.244   1.220  0.0536  0.3612 -0.3476
  591SOL     OW 2434   2.065   1.493   1.078  0.0276 -0.3894  0.2957
  591SOL    HW2 2435   2.032   1.418   1.129  0.1068 -0.8224 -0.2851
  591SOL    HW3 2436   2.067   1.461   0.988  0.1703  0.2818  0.0624
  591SOL    MW4 2437   2.061   1.479   1.073  0.0570 -0.3579  0.1882
  592SOL     OW 2438   1.846   1.629   1.229  0.2443  0.4294  0.0392
  592SOL    HW2 2439   1.844   1.714   1.186  2.2079  0.1768 -0.5872
  592SOL    HW3 2440   1.925   1.587   1.196 -0.9544 -1.8378 -0.0095
  592SOL    MW4 2441   1.856   1.635   1.219  0.3452  0.0969 -0.0498
  593SOL     OW 2442   1.826   1.900   1.156 -0.9339  0.0988  0.2506
  593SOL    HW2 2443   1.748   1.948   1.183 -1.8755 -1.0316 -0.3695
  593SOL    HW3 2444   1.823   1.901   1.060  0.4400  1.0312  0.2164
  593SOL    MW4 2445   1.815   1.906   1.147 -0.8769  0.0726  0.1643
  594SOL     OW 2446   2.072   2.057   1.146 -0.2174  0.5395  0.1450
  594SOL    HW2 2447   2.077   2.068   1.241 -0.0695  2.0584 -0.0275
  594SOL    HW3 2448   1.999   1.997   1.133  0.6405 -0.7838  1.2820
  594SOL    MW4 2449   2.063   2.051   1.157 -0.0844  0.5653  0.2722
  595SOL     OW 2450   2.021   2.310   1.048 -0.4686 -0.0490  0.5996
  595SOL    HW2 2451   2.100   2.351   1.083 -1.3552  1.1467  1.2457
  595SOL    HW3 2452   2.023   2.221   1.083  0.2820  0.1532  1.1000
  595SOL    MW4 2453   2.032   2.303   1.057 -0.4864  0.1354  0.7509
  596SOL     OW 2454   1.786   2.459   1.164  0.5658  0.2192  0.1846
  596SOL    HW2 2455   1.870   2.419   1.141  0.0953 -1.0142  0.6060
  596SOL    HW3 2456   1.721   2.396   1.136 -0.2087  0.8913  0.4517
  596SOL    MW4 2457   1.789   2.446   1.157  0.4015  0.1452  0.2755
  597SOL     OW 2458   1.807   2.731   1.076 -0.1376  0.1927 -0.0034
  597SOL    HW2 2459   1.807   2.727   0.980 -0.0946 -0.5238  0.0250
  597SOL    HW3 2460   1.795   2.640   1.104 -1.8260  0.6080  0.6571
  597SOL    MW4 2461   1.805   2.719   1.067 -0.3549  0.1528  0.0876
  598SOL     OW 2462   2.011   2.855   1.208  0.0111  0.1295 -0.0803
  598SOL    HW2 2463   2.016   2.941   1.167  0.7038 -0.0157 -0.2997
  598SOL    HW3 2464   1.934   2.814   1.167  0.8669 -0.1312 -1.4853
  598SOL    MW4 2465   2.001   2.861   1.197  0.2155  0.0758 -0.2947
  599SOL     OW 2466   1.989   3.107   1.097 -0.3653 -0.4179  0.4776
  599SOL    HW2 2467   1.907   3.150   1.122 -1.0313 -0.2959 -1.8686
  599SOL    HW3 2468   1.991   3.110   1.002  2.5036 -0.1932  0.4808
  599SOL    MW4 2469   1.979   3.113   1.088 -0.0746 -0.3719  0.1687
  600SOL     OW 2470   1.778   3.237   1.216 -0.6680  0.0055  0.4108
  600SOL    HW2 2471   1.769   3.234   1.311  1.3510  0.2939  0.6424
  600SOL    HW3 2472   1.767   3.330   1.194 -1.1061 -0.0568  0.3650
  600SOL    MW4 2473   1.776   3.249   1.226 -0.4593  0.0350  0.4352
  601SOL     OW 2474   1.741   3.497   1.113 -0.6767 -0.2230 -0.1939
  601SOL    HW2 2475   1.833   3.519   1.126 -0.7535 -0.4763  0.8638
  601SOL    HW3 2476   1.696   3.543   1.185 -1.1959 -1.2698  0.1496
  601SOL    MW4 2477   1.747   3.506   1.124 -0.7553 -0.3948 -0.0091
  602SOL     OW 2478   2.020   3.549   1.205 -0.1453 -0.3575 -0.2625
  602SOL    HW2 2479   2.010   3.550   1.300  0.4399  0.5212 -0.2086
  602SOL    HW3 2480   2.101   3.500   1.190  0.0014 -0.1028 -0.2920
  602SOL    MW4 2481   2.029   3.543   1.216 -0.0489 -0.2079 -0.2594
  603SOL     OW 2482   1.840   3.981   1.221 -0.6510  0.1394 -0.4701
  603SOL    HW2 2483   1.916   3.927   1.198 -1.0023  0.0754 -1.5306
  603SOL    HW3 2484   1.843   3.989   1.316  0.7473  0.2292 -0.5221
  603SOL    MW4 2485   1.850   3.975   1.230 -0.5128  0.1428 -0.6169
  604SOL     OW 2486   2.289   3.930   1.230 -0.3080 -0.0167  0.3814
  604SOL    HW2 2487   2.308   4.004   1.172  0.7264  0.4517  1.3027
  604SOL    HW3 2488   2.211   3.889   1.192  0.1930  0.4471 -1.1860
  604SOL    MW4 2489   2.281   3.934   1.217 -0.1054  0.1063  0.2962
  605SOL     OW 2490   1.837   4.235   1.133  0.8945 -0.3168  0.3462
  605SOL    HW2 2491   1.827   4.145   1.163 -0.0227 -0.2113  0.3742
  605SOL    HW3 2492   1.754   4.277   1.155  0.8738  0.2308 -0.7179
  605SOL    MW4 2493   1.825   4.229   1.140  0.7709 -0.2308  0.2095
  606SOL     OW 2494   2.086   4.328   1.233 -0.2822 -0.2909 -0.1121
  606SOL    HW2 2495   2.093   4.342   1.328  1.1429 -1.3015 -0.0442
  606SOL    HW3 2496   1.999   4.291   1.221  0.0100 -1.3955  0.9886
  606SOL    MW4 2497   2.076   4.325   1.244 -0.0553 -0.5708  0.0421
  607SOL     OW 2498   2.470   4.614   1.125  0.2002 -0.1794  0.2360
  607SOL    HW2 2499   2.547   4.661   1.158 -0.1363  0.0655  0.6879
  607SOL    HW3 2500   2.396   4.670   1.149 -0.1047 -0.3144 -0.3761
  607SOL    MW4 2501   2.470   4.627   1.133  0.1159 -0.1650  0.2148
  608SOL     OW 2502   2.261   0.090   1.211 -0.3048  0.0476 -0.4384
  608SOL    HW2 2503   2.248   0.177   1.173 -0.6470  0.1830 -0.0145
  608SOL    HW3 2504   2.177   0.046   1.200 -0.0744 -0.2992 -0.8270
  608SOL    MW4 2505   2.248   0.096   1.205 -0.3195  0.0197 -0.4338
  609SOL     OW 2506   2.238   0.348   1.129 -0.1519  0.0352 -0.4405
  609SOL    HW2 2507   2.157   0.388   1.163 -0.6188 -2.3341  1.3834
  609SOL    HW3 2508   2.235   0.366   1.035 -1.8214  1.6680 -0.1250
  609SOL    MW4 2509   2.227   0.356   1.121 -0.4339 -0.0620 -0.1583
  610SOL     OW 2510   2.473   0.489   1.209  0.0181  0.1737  0.0806
  610SOL    HW2 2511   2.479   0.502   1.304 -0.4110  0.6764  0.0372
  610SOL    HW3 2512   2.388   0.448   1.196  0.1878 -0.1334 -0.0656
  610SOL    MW4 2513   2.463   0.485   1.220 -0.0160  0.1995  0.0556
  611SOL     OW 2514   2.489   0.734   1.099 -0.2891 -0.1318 -0.3604
  611SOL    HW2 2515   2.488   0.644   1.131 -1.0771 -0.2643 -0.7203
  611SOL    HW3 2516   2.488   0.725   1.003  3.1919  0.2418 -0.4830
  611SOL    MW4 2517   2.489   0.721   1.090  0.0663 -0.1000 -0.4239
  612SOL     OW 2518   2.239   0.860   1.200 -0.0792  0.6097 -0.4593
  612SOL    HW2 2519   2.316   0.815   1.164  0.2410 -0.7312  1.7431
  612SOL    HW3 2520   2.166   0.829   1.147  0.6901  0.7305 -1.6174
  612SOL    MW4 2521   2.240   0.850   1.189  0.0646  0.4486 -0.3216
  613SOL     OW 2522   2.226   1.117   1.094  0.1144  0.1173  0.1303
  613SOL    HW2 2523   2.295   1.180   1.114 -0.2027  0.6754 -0.5095
  613SOL    HW3 2524   2.262   1.032   1.119  0.2324  0.6441  1.7899
  613SOL    MW4 2525   2.240   1.114   1.100  0.0885  0.2605  0.2649
  614SOL     OW 2526   2.434   1.269   1.184  0.0116  0.2748  0.3192
  614SOL    HW2 2527   2.511   1.214   1.170 -0.6320 -0.8776  1.2380
  614SOL    HW3 2528   2.457   1.353   1.143  0.9638 -0.6842 -1.1660
  614SOL    MW4 2529   2.447   1.273   1.177  0.0522 -0.0038  0.2445
  615SOL     OW 2530   2.510   1.500   1.086  0.2218  0.0678  0.2413
  615SOL    HW2 2531   2.441   1.557   1.118  1.0122  1.1391  0.0770
  615SOL    HW3 2532   2.488   1.486   0.994  0.1627  0.3199  0.2157
  615SOL    MW4 2533   2.498   1.506   1.078  0.3183  0.2424  0.2164
  616SOL     OW 2534   2.283   1.643   1.196 -0.2525 -0.0614 -0.3921
  616SOL    HW2 2535   2.277   1.735   1.171 -0.3310  0.0590  0.0593
  616SOL    HW3 2536   2.202   1.604   1.164 -0.3855  0.1070 -0.2632
  616SOL    MW4 2537   2.271   1.650   1.189 -0.2806 -0.0234 -0.3157
  617SOL     OW 2538   2.291   1.911   1.069 -0.1119  0.2316  0.0760
  617SOL    HW2 2539   2.217   1.969   1.090 -0.4380 -0.0827 -0.1899
  617SOL    HW3 2540   2.275   1.884   0.978 -0.9403 -1.7094  0.7753
  617SOL    MW4 2541   2.279   1.915   1.060 -0.2644 -0.0659  0.1332
  618SOL     OW 2542   2.505   2.037   1.184  0.0958 -0.0738  0.0124
  618SOL    HW2 2543   2.588   2.008   1.146  0.4686  0.3907  0.4452
  618SOL    HW3 2544   2.438   1.986   1.139  0.7433 -1.7898  0.9333
  618SOL    MW4 2545   2.507   2.027   1.173  0.2306 -0.2389  0.1910
  619SOL     OW 2546   2.457   2.292   1.118  0.0443  0.0078  0.3702
  619SOL    HW2 2547   2.474   2.205   1.154 -0.0970  0.3280  1.2165
  619SOL    HW3 2548   2.533   2.345   1.145  0.1246  0.1571 -0.1313
  619SOL    MW4 2549   2.470   2.288   1.126  0.0360  0.0701  0.4157
  620SOL     OW 2550   2.216   2.430   1.206 -0.1205  0.1943  0.0516
  620SOL    HW2 2551   2.227   2.449   1.299  1.3341  0.6380 -0.2024
  620SOL    HW3 2552   2.295   2.382   1.181 -0.5835 -0.0791 -0.9054
  620SOL    MW4 2553   2.228   2.426   1.215  0.0103  0.2170 -0.1081
  621SOL     OW 2554   2.225   2.692   1.094  0.6935  0.1980  0.5198
  621SOL    HW2 2555   2.238   2.603   1.126 -0.4332  0.0715  0.6599
  621SOL    HW3 2556   2.147   2.723   1.142  0.3161  0.7905 -0.4662
  621SOL    MW4 2557   2.216   2.684   1.105  0.4952  0.2594  0.4082
  622SOL     OW 2558   2.451   2.799   1.204 -0.2243 -0.7704  0.1641
  622SOL    HW2 2559   2.448   2.787   1.298  1.8700 -2.1926  0.0920
  622SOL    HW3 2560   2.367   2.766   1.172  0.3428 -3.3658  1.2309
  622SOL    MW4 2561   2.440   2.793   1.212  0.1268 -1.3003  0.2954
  623SOL     OW 2562   2.435   3.059   1.116 -0.1724 -0.9145  0.3955
  623SOL    HW2 2563   2.360   3.099   1.160 -0.7718 -2.0316  0.4306
  623SOL    HW3 2564   2.440   2.971   1.153 -0.8241 -1.9514 -1.8763
  623SOL    MW4 2565   2.425   3.053   1.127 -0.3376 -1.1985  0.1004
  624SOL     OW 2566   2.214   3.193   1.240 -0.1733  0.0534  0.5131
  624SOL    HW2 2567   2.251   3.275   1.206  0.8960 -0.9635 -0.8342
  624SOL    HW3 2568   2.135   3.179   1.188 -0.8473  0.6883  1.3593
  624SOL    MW4 2569   2.209   3.202   1.229 -0.1211  0.0029  0.4469
  625SOL     OW 2570   2.285   3.443   1.148 -0.2383  0.6785 -0.1080
  625SOL    HW2 2571   2.360   3.492   1.179 -0.0003  0.0378  0.3398
  625SOL    HW3 2572   2.293   3.444   1.053 -0.1486  1.3596 -0.0953
  625SOL    MW4 2573   2.296   3.449   1.140 -0.1948  0.6838 -0.0471
  626SOL     OW 2574   2.506   3.563   1.250 -0.1686 -0.7650 -0.0500
  626SOL    HW2 2575   2.492   3.561   1.344 -0.0512 -0.2128 -0.0202
  626SOL    HW3 2576   2.538   3.651   1.232  0.0391 -0.9424 -0.5737
  626SOL    MW4 2577   2.509   3.574   1.260 -0.1259 -0.7155 -0.1152
  627SOL     OW 2578   2.541   3.846   1.184  0.0995  0.3308  0.1883
  627SOL    HW2 2579   2.456   3.878   1.215 -0.2899 -1.9011  1.4627
  627SOL    HW3 2580   2.536   3.855   1.088 -0.7628  2.1419  0.3851
  627SOL    MW4 2581   2.529   3.852   1.175 -0.0660  0.2749  0.3824
  628SOL     OW 2582   2.043   3.820   1.141  0.0024 -0.2942  0.0175
  628SOL    HW2 2583   2.058   3.821   1.047  1.7853 -0.4189  0.2869
  628SOL    HW3 2584   2.037   3.727   1.164 -0.1405 -0.2708  0.0754
  628SOL    MW4 2585   2.044   3.808   1.132  0.2186 -0.3073  0.0607
  629SOL     OW 2586   2.306   4.200   1.105 -0.0793 -0.1690  0.6092
  629SOL    HW2 2587   2.234   4.239   1.155 -0.8962 -1.4759  0.4612
  629SOL    HW3 2588   2.282   4.215   1.013 -0.3272 -0.9083  0.5550
  629SOL    MW4 2589   2.293   4.207   1.099 -0.2198 -0.4387  0.5826
  630SOL     OW 2590   2.514   4.355   1.197 -0.6036 -0.1040  0.0903
  630SOL    HW2 2591   2.447   4.305   1.152  0.8658 -1.2631 -0.8672
  630SOL    HW3 2592   2.498   4.446   1.171 -0.0932 -0.6899 -2.4187
  630SOL    MW4 2593   2.503   4.360   1.188 -0.3424 -0.3343 -0.3670
  631SOL     OW 2594   2.910   0.010   1.129  0.1876  0.1974 -0.1176
  631SOL    HW2 2595   2.921  -0.081   1.156 -3.3234 -0.4657 -0.6861
  631SOL    HW3 2596   2.912   0.006   1.033 -0.9638  0.5467 -0.1625
  631SOL    MW4 2597   2.911  -0.003   1.120 -0.4277  0.1569 -0.1987
  632SOL     OW 2598   2.685   0.097   1.230 -0.7606 -0.3490  0.0603
  632SOL    HW2 2599   2.680   0.087   1.325 -0.3669  0.8973  0.2266
  632SOL    HW3 2600   2.772   0.064   1.206 -1.0117 -1.0291  0.0771
  632SOL    MW4 2601   2.696   0.091   1.239 -0.7417 -0.2743  0.0845
  633SOL     OW 2602   2.676   0.338   1.087 -0.1130  0.0438  0.2653
  633SOL    HW2 2603   2.668   0.254   1.132  0.9881  0.4671  1.2824
  633SOL    HW3 2604   2.605   0.391   1.123 -0.8138 -0.4473 -0.3833
  633SOL    MW4 2605   2.666   0.334   1.098 -0.0603  0.0348  0.3139
  634SOL     OW 2606   2.906   0.437   1.206 -0.1110 -0.1853  0.4614
  634SOL    HW2 2607   2.911   0.529   1.179  0.5078  0.1196  1.5963
  634SOL    HW3 2608   2.828   0.403   1.162 -1.4389  1.3965  1.5508
  634SOL    MW4 2609   2.897   0.445   1.197 -0.2043  0.0636  0.7550
  635SOL     OW 2610   2.944   0.709   1.164 -0.4044  0.3890 -0.4138
  635SOL    HW2 2611   3.018   0.750   1.210  0.5184 -1.5871 -0.0716
  635SOL    HW3 2612   2.867   0.759   1.193  0.6491  1.7536  0.1109
  635SOL    MW4 2613   2.944   0.721   1.174 -0.1435  0.3083 -0.2993
  636SOL     OW 2614   2.712   0.859   1.211  0.0609  0.3735  0.4334
  636SOL    HW2 2615   2.712   0.953   1.192  1.4106 -0.1492 -2.3788
  636SOL    HW3 2616   2.637   0.824   1.163  2.1447 -0.6077 -2.2512
  636SOL    MW4 2617   2.702   0.867   1.202  0.5138  0.1752 -0.2918
  637SOL     OW 2618   2.672   1.125   1.158 -0.1483 -0.1496  0.1641
  637SOL    HW2 2619   2.750   1.178   1.170 -0.1836 -0.2125  0.6673
  637SOL    HW3 2620   2.668   1.109   1.064  0.1880  0.2430  0.0833
  637SOL    MW4 2621   2.681   1.130   1.147 -0.1087 -0.1061  0.2198
  638SOL     OW 2622   2.895   1.269   1.197 -0.1898 -0.1357  0.1535
  638SOL    HW2 2623   2.888   1.270   1.292  0.7563  1.5676  0.2320
  638SOL    HW3 2624   2.978   1.224   1.180 -0.6712 -1.0029  0.1127
  638SOL    MW4 2625   2.905   1.263   1.207 -0.1287 -0.0253  0.1583
  639SOL     OW 2626   2.926   1.494   1.037  0.2257 -0.5061  0.0982
  639SOL    HW2 2627   3.007   1.528   1.074 -0.9294  0.4862  1.7283
  639SOL    HW3 2628   2.912   1.411   1.082  0.0644 -0.4500  0.1482
  639SOL    MW4 2629   2.935   1.487   1.048  0.0520 -0.3678  0.3200
  640SOL     OW 2630   2.728   1.666   1.141  0.0323 -0.3245 -0.5287
  640SOL    HW2 2631   2.803   1.614   1.113 -0.1944 -1.5285  1.0417
  640SOL    HW3 2632   2.652   1.610   1.122 -0.2438 -0.3901  0.7337
  640SOL    MW4 2633   2.728   1.651   1.134 -0.0341 -0.4921 -0.1550
  641SOL     OW 2634   2.743   1.930   1.044  0.1080  0.1612  0.1094
  641SOL    HW2 2635   2.808   1.975   1.098 -1.7811  1.8044  1.0701
  641SOL    HW3 2636   2.746   1.839   1.074  1.7262  0.2909  0.3611
  641SOL    MW4 2637   2.752   1.924   1.055  0.0725  0.3952  0.2693
  642SOL     OW 2638   2.958   2.033   1.181 -0.2899 -0.3261 -0.4379
  642SOL    HW2 2639   2.970   2.008   1.273  1.9757  2.5896  0.1695
  642SOL    HW3 2640   3.036   2.001   1.137  0.6405  1.8187 -0.4507
  642SOL    MW4 2641   2.970   2.026   1.187  0.1316  0.3414 -0.3595
  643SOL     OW 2642   2.893   2.286   1.107  0.4713 -0.9276 -0.4380
  643SOL    HW2 2643   2.893   2.195   1.136 -0.3791 -1.2569 -1.4258
  643SOL    HW3 2644   2.972   2.323   1.145  1.4905 -2.4155 -1.0288
  643SOL    MW4 2645   2.904   2.279   1.116  0.4938 -1.1675 -0.6464
  644SOL     OW 2646   2.681   2.449   1.214  0.4622  0.3720  0.1544
  644SOL    HW2 2647   2.684   2.433   1.308  0.3633  1.1211  0.2911
  644SOL    HW3 2648   2.743   2.386   1.177 -1.7367 -2.0103  0.4035
  644SOL    MW4 2649   2.690   2.439   1.221  0.1588  0.1564  0.2054
  645SOL     OW 2650   2.697   2.709   1.091 -0.0370 -0.2450 -0.4028
  645SOL    HW2 2651   2.694   2.621   1.129 -1.3160 -0.0231  0.0173
  645SOL    HW3 2652   2.620   2.754   1.127 -0.3111  0.5204 -1.9093
  645SOL    MW4 2653   2.687   2.704   1.101 -0.2418 -0.1149 -0.5461
  646SOL     OW 2654   2.941   2.817   1.224  0.4887 -0.3985  0.8203
  646SOL    HW2 2655   2.929   2.818   1.319 -1.1984  1.2317  0.6086
  646SOL    HW3 2656   2.864   2.773   1.190  0.0658  0.8944  0.0782
  646SOL    MW4 2657   2.929   2.811   1.232  0.2103 -0.0129  0.6945
  647SOL     OW 2658   2.963   3.075   1.125  0.0331 -0.0791 -0.3230
  647SOL    HW2 2659   2.958   2.984   1.154  1.5784  0.0520  0.4349
  647SOL    HW3 2660   2.959   3.071   1.030 -2.5886 -0.7244 -0.2009
  647SOL    MW4 2661   2.962   3.063   1.116 -0.1090 -0.1469 -0.2068
  648SOL     OW 2662   2.687   3.174   1.175 -0.1928 -0.6105  0.1006
  648SOL    HW2 2663   2.767   3.132   1.143  0.6302 -0.7112  2.2396
  648SOL    HW3 2664   2.616   3.119   1.142  0.6090 -0.5581 -1.7536
  648SOL    MW4 2665   2.688   3.161   1.166  0.0217 -0.6168  0.1380
  649SOL     OW 2666   2.718   3.447   1.119 -0.0716  0.0081 -0.1303
  649SOL    HW2 2667   2.709   3.352   1.126 -0.4099  0.0684  0.2587
  649SOL    HW3 2668   2.649   3.482   1.175  1.5834  0.4738  1.6812
  649SOL    MW4 2669   2.708   3.439   1.128  0.1020  0.0777  0.1600
  650SOL     OW 2670   2.955   3.601   1.187  0.0595  0.2008 -0.4375
  650SOL    HW2 2671   3.021   3.544   1.147  0.5637 -0.5664  1.4086
  650SOL    HW3 2672   2.872   3.560   1.166  0.2305  0.4833 -1.7164
  650SOL    MW4 2673   2.953   3.588   1.179  0.1488  0.1371 -0.3628
  651SOL     OW 2674   2.969   3.855   1.075 -0.1086  0.1736 -0.1864
  651SOL    HW2 2675   3.041   3.906   1.113  0.4000 -0.2317 -0.5865
  651SOL    HW3 2676   2.977   3.769   1.117 -1.1346  0.5019  0.6978
  651SOL    MW4 2677   2.980   3.850   1.086 -0.1769  0.1633 -0.1225
  652SOL     OW 2678   2.767   3.978   1.241 -0.0660 -0.3437  0.8226
  652SOL    HW2 2679   2.829   3.924   1.191 -0.4539  0.2325 -0.2946
  652SOL    HW3 2680   2.682   3.937   1.225 -0.2089 -0.0769  0.8986
  652SOL    MW4 2681   2.764   3.965   1.232 -0.1359 -0.2325  0.6853
  653SOL     OW 2682   2.752   4.231   1.099 -0.1498 -0.2164  0.1938
  653SOL    HW2 2683   2.741   4.149   1.146  0.9813  0.1006  1.0364
  653SOL    HW3 2684   2.672   4.280   1.116 -0.0173 -0.3741  1.2625
  653SOL    MW4 2685   2.740   4.227   1.107  0.0169 -0.1955  0.4458
  654SOL     OW 2686   2.930   4.405   1.232  0.4879 -0.2170 -0.2859
  654SOL    HW2 2687   3.016   4.376   1.203  0.3325 -0.6306 -0.3308
  654SOL    HW3 2688   2.869   4.341   1.196 -0.0633  1.2413 -2.0354
  654SOL    MW4 2689   2.934   4.393   1.224  0.3946 -0.0792 -0.5227
  655SOL     OW 2690   3.374   4.628   1.058  0.3945 -0.1060 -0.1848
  655SOL    HW2 2691   3.453   4.660   1.101  0.7838 -0.3794 -0.6866
  655SOL    HW3 2692   3.304   4.685   1.090  0.8432  0.3297  0.0257
  655SOL    MW4 2693   3.376   4.640   1.068  0.5052 -0.0849 -0.2234
  656SOL     OW 2694   3.164   0.093   1.186 -0.3540  0.6892 -0.1561
  656SOL    HW2 2695   3.156   0.080   1.280 -0.9795  0.8430 -0.1896
  656SOL    HW3 2696   3.082   0.059   1.149 -0.3095  1.0547 -0.6014
  656SOL    MW4 2697   3.152   0.086   1.193 -0.4306  0.7577 -0.2193
  657SOL     OW 2698   3.176   0.376   1.156 -0.2684  0.2744 -0.0843
  657SOL    HW2 2699   3.168   0.282   1.173  0.2896  0.0344 -1.0949
  657SOL    HW3 2700   3.088   0.410   1.166 -0.2212 -0.0845  1.8353
  657SOL    MW4 2701   3.164   0.368   1.160 -0.1886  0.1954  0.0358
  658SOL     OW 2702   3.433   0.497   1.213  0.2869 -1.0918 -0.2643
  658SOL    HW2 2703   3.436   0.583   1.171  0.2386 -0.0089  1.8651
  658SOL    HW3 2704   3.345   0.464   1.193  0.4199 -0.7846 -1.3676
  658SOL    MW4 2705   3.421   0.504   1.205  0.2983 -0.9084 -0.1290
  659SOL     OW 2706   3.409   0.750   1.117 -0.1247 -0.1505 -0.0014
  659SOL    HW2 2707   3.330   0.781   1.163 -0.0895  0.1658 -0.1509
  659SOL    HW3 2708   3.382   0.742   1.026  0.0663  0.1422 -0.0858
  659SOL    MW4 2709   3.395   0.753   1.111 -0.0949 -0.0702 -0.0324
  660SOL     OW 2710   3.191   0.861   1.225 -0.2347  0.0425  0.1418
  660SOL    HW2 2711   3.177   0.871   1.319  2.8532 -1.4577  0.8257
  660SOL    HW3 2712   3.156   0.942   1.187 -1.2273  0.8182  2.5862
  660SOL    MW4 2713   3.185   0.873   1.233  0.0420 -0.0531  0.5546
  661SOL     OW 2714   3.115   1.120   1.127  0.3356 -0.3826 -0.1357
  661SOL    HW2 2715   3.196   1.158   1.161 -0.1026  0.0878  0.3794
  661SOL    HW3 2716   3.121   1.132   1.032 -0.5772  2.5076  0.1504
  661SOL    MW4 2717   3.127   1.126   1.119  0.1576  0.0608 -0.0300
  662SOL     OW 2718   3.369   1.257   1.210 -0.0226  0.0436  0.1558
  662SOL    HW2 2719   3.353   1.259   1.304  0.2816 -0.5942  0.2272
  662SOL    HW3 2720   3.376   1.349   1.184 -0.0026  0.2173  0.7752
  662SOL    MW4 2721   3.368   1.269   1.219  0.0200 -0.0176  0.2470
  663SOL     OW 2722   3.393   1.507   1.100  0.1600  0.3071  0.0417
  663SOL    HW2 2723   3.465   1.563   1.128  0.5935 -0.7872  1.1507
  663SOL    HW3 2724   3.314   1.551   1.131  0.5163  0.1377  1.1875
  663SOL    MW4 2725   3.392   1.520   1.108  0.2644  0.1403  0.3393
  664SOL     OW 2726   3.159   1.621   1.188  0.4283 -0.3040  0.1630
  664SOL    HW2 2727   3.149   1.624   1.283 -0.4809  0.7110  0.0438
  664SOL    HW3 2728   3.169   1.712   1.162  0.0112 -0.5210 -0.7874
  664SOL    MW4 2729   3.159   1.633   1.197  0.2532 -0.1986  0.0218
  665SOL     OW 2730   3.161   1.885   1.078  0.0695  0.1008  0.0515
  665SOL    HW2 2731   3.166   1.874   0.983  4.2486 -3.1916  0.5188
  665SOL    HW3 2732   3.245   1.924   1.102  0.3709 -2.0457  2.7057
  665SOL    MW4 2733   3.173   1.889   1.069  0.6609 -0.6168  0.4632
  666SOL     OW 2734   3.369   2.012   1.200  0.1827 -0.6178  0.0161
  666SOL    HW2 2735   3.456   1.977   1.179  1.0842  0.9574  1.0103
  666SOL    HW3 2736   3.369   2.101   1.163 -1.2226 -0.8129 -0.4759
  666SOL    MW4 2737   3.381   2.019   1.192  0.1163 -0.4356  0.0824
  667SOL     OW 2738   3.328   2.263   1.081 -0.1880 -0.2638  0.2662
  667SOL    HW2 2739   3.414   2.300   1.099 -0.6377  1.4891 -1.0543
  667SOL    HW3 2740   3.268   2.315   1.135 -0.3528 -1.9008  1.6739
  667SOL    MW4 2741   3.331   2.275   1.090 -0.2692 -0.2484  0.2778
  668SOL     OW 2742   3.124   2.396   1.243 -0.3686  0.2373  0.2240
  668SOL    HW2 2743   3.123   2.488   1.218 -0.7323  0.4521  0.9838
  668SOL    HW3 2744   3.129   2.398   1.339  1.0639 -0.5457  0.1798
  668SOL    MW4 2745   3.124   2.409   1.253 -0.2277  0.1621  0.3184
  669SOL     OW 2746   3.157   2.670   1.104 -0.1777  0.0025  0.3212
  669SOL    HW2 2747   3.082   2.718   1.140  0.1124  1.1092 -0.5203
  669SOL    HW3 2748   3.133   2.651   1.013  0.4689  0.1651  0.1116
  669SOL    MW4 2749   3.144   2.674   1.097 -0.0544  0.1698  0.1825
  670SOL     OW 2750   3.373   2.828   1.202  0.0569  0.5572 -0.6174
  670SOL    HW2 2751   3.369   2.915   1.163  0.1122  0.2401 -1.3355
  670SOL    HW3 2752   3.307   2.778   1.156  1.6311 -0.4332 -1.8426
  670SOL    MW4 2753   3.364   2.833   1.191  0.2718  0.3848 -0.8738
  671SOL     OW 2754   3.408   3.090   1.124  0.0724 -0.0108 -0.2373
  671SOL    HW2 2755   3.472   3.145   1.170 -0.9681  0.7706  0.2998
  671SOL    HW3 2756   3.323   3.123   1.153 -0.5883 -2.1368  0.3654
  671SOL    MW4 2757   3.405   3.102   1.134 -0.1519 -0.1881 -0.0870
  672SOL     OW 2758   3.195   3.201   1.205  0.2096  0.2732 -0.3716
  672SOL    HW2 2759   3.196   3.285   1.159 -1.5132 -0.0378 -0.9794
  672SOL    HW3 2760   3.111   3.162   1.182  0.3313 -0.9238  1.1745
  672SOL    MW4 2761   3.184   3.207   1.196 -0.0017  0.0741 -0.2478
  673SOL     OW 2762   3.172   3.455   1.088 -0.1408 -0.3583 -0.1917
  673SOL    HW2 2763   3.238   3.506   1.134 -0.6845  0.7941 -0.6771
  673SOL    HW3 2764   3.204   3.449   0.998 -0.6383  0.1087 -0.4038
  673SOL    MW4 2765   3.185   3.461   1.082 -0.2782 -0.1445 -0.2836
  674SOL     OW 2766   3.353   3.612   1.229 -0.2288  0.3623 -0.2917
  674SOL    HW2 2767   3.361   3.619   1.324 -2.0241 -1.1688  0.0010
  674SOL    HW3 2768   3.437   3.577   1.200  0.9899  2.5131  0.4919
  674SOL    MW4 2769   3.365   3.609   1.238 -0.3049  0.4439 -0.1496
  675SOL     OW 2770   3.369   3.851   1.080 -0.3858 -0.0422 -0.3031
  675SOL    HW2 2771   3.299   3.910   1.110 -0.5713  0.0328 -0.8884
  675SOL    HW3 2772   3.356   3.772   1.132 -0.1402  0.4210  0.4840
  675SOL    MW4 2773   3.358   3.849   1.091 -0.3779  0.0286 -0.2766
  676SOL     OW 2774   3.173   3.998   1.182  0.6117 -0.0744  0.2670
  676SOL    HW2 2775   3.162   3.993   1.277  0.8127 -0.0997  0.2893
  676SOL    HW3 2776   3.157   4.090   1.161  0.0357 -0.1757  0.2569
  676SOL    MW4 2777   3.170   4.010   1.192  0.5622 -0.0911  0.2688
  677SOL     OW 2778   3.161   4.279   1.164 -0.1233  0.0998 -0.7730
  677SOL    HW2 2779   3.238   4.320   1.204 -0.2941  1.5293 -1.8977
  677SOL    HW3 2780   3.175   4.287   1.070 -1.4491 -0.0046 -0.9888
  677SOL    MW4 2781   3.173   4.286   1.157 -0.3207  0.2747 -0.9499
  678SOL     OW 2782   3.397   4.394   1.246  0.3340  0.3730  0.3860
  678SOL    HW2 2783   3.465   4.334   1.214 -0.3846 -0.4149  0.3081
  678SOL    HW3 2784   3.397   4.466   1.184  0.5399 -0.0189 -0.0691
  678SOL    MW4 2785   3.406   4.395   1.234  0.2663  0.2170  0.3157
  679SOL     OW 2786   3.803   4.637   1.109  0.0837  0.6931  0.2154
  679SOL    HW2 2787   3.805   4.550   1.149 -0.4722  1.1999  1.3621
  679SOL    HW3 2788   3.812   4.620   1.015 -1.4196 -0.7056  0.3006
  679SOL    MW4 2789   3.804   4.623   1.102 -0.1879  0.5760  0.3779
  680SOL     OW 2790   3.574   0.077   1.196  0.0374  0.4284 -0.0824
  680SOL    HW2 2791   3.593   0.167   1.168  0.0839  0.1933 -0.8321
  680SOL    HW3 2792   3.648   0.026   1.165 -0.3861 -0.0030 -0.3942
  680SOL    MW4 2793   3.586   0.082   1.188 -0.0124  0.3405 -0.2223
  681SOL     OW 2794   3.786   2.302   0.793  0.2018  0.0904 -0.2493
  681SOL    HW2 2795   3.774   2.279   0.886 -0.1227  2.6801  0.3727
  681SOL    HW3 2796   3.699   2.331   0.765  0.5268  0.2452 -1.1007
  681SOL    MW4 2797   3.773   2.303   0.802  0.2019  0.4523 -0.2797
  682SOL     OW 2798   3.648   0.343   1.155 -0.2269  0.0633  0.0916
  682SOL    HW2 2799   3.566   0.388   1.174  0.1970  0.9228 -0.0713
  682SOL    HW3 2800   3.715   0.400   1.191  0.3487 -0.1860 -0.5726
  682SOL    MW4 2801   3.646   0.356   1.162 -0.0951  0.1438 -0.0174
  683SOL     OW 2802   3.857   0.486   1.240 -0.3655 -0.3191 -0.0936
  683SOL    HW2 2803   3.926   0.435   1.197  0.8089  0.3713  0.9654
  683SOL    HW3 2804   3.859   0.571   1.196 -1.4740 -0.7320 -0.9876
  683SOL    MW4 2805   3.866   0.490   1.228 -0.3569 -0.2824 -0.0719
  684SOL     OW 2806   3.640   0.878   1.214 -0.4401 -0.4150  0.1575
  684SOL    HW2 2807   3.624   0.967   1.184 -0.7048 -1.1903 -2.1184
  684SOL    HW3 2808   3.566   0.828   1.180 -1.0856 -1.2477  2.6981
  684SOL    MW4 2809   3.628   0.883   1.206 -0.5603 -0.6272  0.1924
  685SOL     OW 2810   3.603   1.137   1.140  0.2007 -0.0881  0.2649
  685SOL    HW2 2811   3.678   1.183   1.177  0.9306  0.2638 -1.6319
  685SOL    HW3 2812   3.527   1.181   1.178  0.9023  2.0193 -0.7287
  685SOL    MW4 2813   3.603   1.149   1.150  0.3896  0.2363 -0.1165
  686SOL     OW 2814   3.822   1.261   1.248  0.1714  0.1044 -0.6853
  686SOL    HW2 2815   3.845   1.270   1.340  0.6899 -1.6899 -0.6284
  686SOL    HW3 2816   3.821   1.351   1.215  1.6371  0.6364  0.6542
  686SOL    MW4 2817   3.825   1.274   1.256  0.4330 -0.0621 -0.5012
  687SOL     OW 2818   3.855   1.527   1.065  0.0009  0.0633  0.0630
  687SOL    HW2 2819   3.772   1.572   1.081 -0.2580 -0.2970 -0.2346
  687SOL    HW3 2820   3.916   1.565   1.127 -0.2428  0.7481 -0.1162
  687SOL    MW4 2821   3.852   1.538   1.075 -0.0653  0.1062  0.0000
  688SOL     OW 2822   3.628   1.652   1.163 -0.1767 -0.1622 -0.0043
  688SOL    HW2 2823   3.622   1.745   1.139  1.2692 -0.3223 -1.0549
  688SOL    HW3 2824   3.647   1.653   1.257  2.7570  0.6910 -0.5747
  688SOL    MW4 2825   3.629   1.665   1.172  0.4013 -0.0707 -0.2182
  689SOL     OW 2826   3.602   1.922   1.082 -0.0580 -0.0746  0.2016
  689SOL    HW2 2827   3.679   1.957   1.127 -0.3072 -0.2175  0.7552
  689SOL    HW3 2828   3.625   1.923   0.989  0.9218 -0.8715  0.4197
  689SOL    MW4 2829   3.615   1.927   1.076  0.0384 -0.1986  0.3034
  690SOL     OW 2830   3.834   2.031   1.200 -0.4371  0.1022  0.2901
  690SOL    HW2 2831   3.851   2.040   1.294  1.2919  0.7922 -0.0489
  690SOL    HW3 2832   3.921   2.013   1.162 -1.1625 -0.4752 -1.1277
  690SOL    MW4 2833   3.848   2.030   1.207 -0.3047  0.1171  0.0584
  691SOL     OW 2834   0.392   0.579   0.604 -0.1029  0.0833  0.1046
  691SOL    HW2 2835   0.387   0.647   0.538 -0.5567  0.7562  0.8243
  691SOL    HW3 2836   0.452   0.514   0.567  0.3161  0.8608 -0.5927
  691SOL    MW4 2837   0.399   0.579   0.591 -0.1075  0.2747  0.1075
  692SOL     OW 2838   3.550   2.411   1.169 -0.5253  0.6989  0.1124
  692SOL    HW2 2839   3.541   2.379   1.259  0.1961 -0.3130 -0.1664
  692SOL    HW3 2840   3.629   2.368   1.136 -0.3346  1.6853 -0.7429
  692SOL    MW4 2841   3.559   2.401   1.177 -0.4048  0.6955 -0.0372
  693SOL     OW 2842   3.307   2.747   0.674  0.1873  0.0618  0.1380
  693SOL    HW2 2843   3.399   2.720   0.678 -0.0659 -1.0259 -1.0769
  693SOL    HW3 2844   3.309   2.842   0.688  1.3633 -0.1350  1.4771
  693SOL    MW4 2845   3.320   2.756   0.677  0.3090 -0.1073  0.1544
  694SOL     OW 2846   3.627   2.678   1.152 -0.1137  0.3359 -0.2038
  694SOL    HW2 2847   3.603   2.586   1.165 -0.2382  0.2287 -1.1266
  694SOL    HW3 2848   3.550   2.727   1.181 -0.0479  0.1547  0.2916
  694SOL    MW4 2849   3.613   2.672   1.157 -0.1214  0.2978 -0.2601
  695SOL     OW 2850   3.827   2.860   1.207 -0.0702  0.0242  0.0288
  695SOL    HW2 2851   3.836   2.860   1.302 -0.9719  1.0263  0.1203
  695SOL    HW3 2852   3.773   2.783   1.188 -0.4988  0.2320  0.3928
  695SOL    MW4 2853   3.821   2.850   1.217 -0.2458  0.1841  0.0889
  696SOL     OW 2854   3.591   3.256   1.260  0.2539 -0.5057 -0.2654
  696SOL    HW2 2855   3.581   3.340   1.216 -0.5601 -1.2404 -1.5172
  696SOL    HW3 2856   3.657   3.210   1.209  1.9812  0.0307  1.4449
  696SOL    MW4 2857   3.598   3.261   1.248  0.3743 -0.5319 -0.2049
  697SOL     OW 2858   3.580   3.504   1.119 -0.1377 -0.1577  0.3327
  697SOL    HW2 2859   3.675   3.518   1.129 -0.4356  2.3169 -0.1030
  697SOL    HW3 2860   3.565   3.515   1.025 -0.9583  0.0482  0.4932
  697SOL    MW4 2861   3.591   3.507   1.108 -0.2851  0.1960  0.2964
  698SOL     OW 2862   3.839   3.574   1.149  0.1392 -0.1130  0.3234
  698SOL    HW2 2863   3.834   3.583   1.245  0.6036 -0.6327  0.3988
  698SOL    HW3 2864   3.827   3.663   1.116 -2.1429 -0.2278  0.7794
  698SOL    MW4 2865   3.837   3.587   1.158 -0.1009 -0.1969  0.3936
  699SOL     OW 2866   3.812   3.834   1.080  0.2223 -0.2350 -0.0805
  699SOL    HW2 2867   3.741   3.870   1.133  0.3535 -0.0320 -0.0421
  699SOL    HW3 2868   3.791   3.862   0.990  0.6589  0.4831  0.0328
  699SOL    MW4 2869   3.800   3.842   1.075  0.2973 -0.1135 -0.0606
  700SOL     OW 2870   3.594   3.945   1.182 -0.1932 -0.0223 -0.0778
  700SOL    HW2 2871   3.586   3.953   1.278 -0.1470  0.7301 -0.1316
  700SOL    HW3 2872   3.508   3.915   1.153 -1.1031  2.4994 -0.0777
  700SOL    MW4 2873   3.582   3.942   1.191 -0.3071  0.4098 -0.0850
  701SOL     OW 2874   3.569   4.210   1.134 -0.1717  0.4766 -0.0954
  701SOL    HW2 2875   3.572   4.116   1.149 -0.2625  0.4046 -0.5145
  701SOL    HW3 2876   3.570   4.219   1.038  0.5778  0.9265 -0.0497
  701SOL    MW4 2877   3.570   4.199   1.123 -0.0844  0.5264 -0.1446
  702SOL     OW 2878   3.783   4.374   1.218  0.0468 -0.1260 -0.1171
  702SOL    HW2 2879   3.791   4.371   1.313  1.2482  0.1760 -0.1896
  702SOL    HW3 2880   3.714   4.312   1.197 -1.7889  1.4564  1.1161
  702SOL    MW4 2881   3.775   4.366   1.227 -0.0367  0.1230  0.0360
  703SOL     OW 2882   4.248   0.014   1.149 -0.0542  0.4251  0.1105
  703SOL    HW2 2883   4.246  -0.082   1.149  0.1411  0.4142 -1.2107
  703SOL    HW3 2884   4.164   0.039   1.186 -0.7950 -0.2617 -1.0648
  703SOL    MW4 2885   4.237   0.005   1.154 -0.1259  0.3328 -0.2189
  704SOL     OW 2886   4.021   0.101   1.254  0.1598 -0.1697 -0.3006
  704SOL    HW2 2887   4.018   0.113   1.349  1.3706 -2.0908  0.0024
  704SOL    HW3 2888   3.943   0.051   1.233 -0.1416  0.3108 -0.3347
  704SOL    MW4 2889   4.011   0.096   1.263  0.2799 -0.3598 -0.2651
  705SOL     OW 2890   4.063   0.338   1.136 -0.2713  0.5925 -0.1213
  705SOL    HW2 2891   4.048   0.322   1.042  0.1791 -0.3900 -0.0248
  705SOL    HW3 2892   4.050   0.253   1.177 -0.6712  1.0664  0.7446
  705SOL    MW4 2893   4.059   0.325   1.129 -0.2646  0.5254  0.0056
  706SOL     OW 2894   4.268   0.490   1.240 -0.0978  0.0110  0.3435
  706SOL    HW2 2895   4.281   0.469   1.333 -2.0066  2.6204  1.2368
  706SOL    HW3 2896   4.206   0.424   1.209 -1.6560  0.8473  1.6543
  706SOL    MW4 2897   4.262   0.479   1.248 -0.5550  0.4656  0.6343
  707SOL     OW 2898   4.302   0.744   1.147  0.0039  0.1144 -0.1040
  707SOL    HW2 2899   4.304   0.656   1.185  1.9815  0.5774  0.9079
  707SOL    HW3 2900   4.262   0.732   1.061  2.5032 -2.2104 -1.0072
  707SOL    MW4 2901   4.297   0.731   1.141  0.5946 -0.1313 -0.0898
  708SOL     OW 2902   4.080   0.890   1.240 -0.4912 -0.2993 -0.1240
  708SOL    HW2 2903   4.089   0.908   1.333  1.0520 -0.9134 -0.1416
  708SOL    HW3 2904   4.158   0.839   1.218 -1.3512 -1.0381 -1.5262
  708SOL    MW4 2905   4.091   0.885   1.249 -0.4010 -0.4779 -0.3113
  709SOL     OW 2906   4.045   1.145   1.112  0.0663 -0.0165 -0.5511
  709SOL    HW2 2907   4.041   1.056   1.148 -0.0076  0.2793  0.1792
  709SOL    HW3 2908   3.976   1.192   1.158  1.9325  1.1560  1.1466
  709SOL    MW4 2909   4.035   1.139   1.123  0.3023  0.1773 -0.2308
  710SOL     OW 2910   4.285   1.279   1.203 -0.3637 -0.4125 -0.2089
  710SOL    HW2 2911   4.275   1.273   1.299 -1.4638 -0.8377 -0.3310
  710SOL    HW3 2912   4.212   1.226   1.169 -0.2916  0.1681 -1.2853
  710SOL    MW4 2913   4.274   1.271   1.211 -0.4988 -0.3918 -0.3670
  711SOL     OW 2914   2.432   0.506   0.689 -0.2291  0.3955 -0.1983
  711SOL    HW2 2915   2.510   0.460   0.718  1.6373  2.8620 -1.1719
  711SOL    HW3 2916   2.417   0.475   0.599 -0.1246  0.2265 -0.1562
  711SOL    MW4 2917   2.440   0.496   0.681  0.0310  0.6986 -0.3212
  712SOL     OW 2918   4.029   1.678   1.225 -0.8226 -0.0915  0.1779
  712SOL    HW2 2919   4.030   1.711   1.314 -0.8050  0.5295 -0.0502
  712SOL    HW3 2920   4.112   1.631   1.215 -1.4605 -1.4274  0.9503
  712SOL    MW4 2921   4.040   1.676   1.235 -0.9046 -0.1857  0.2499
  713SOL     OW 2922   0.016   1.661   1.246  0.0674 -0.2622  0.2256
  713SOL    HW2 2923   0.011   1.741   1.193  0.2672  0.4664  1.3027
  713SOL    HW3 2924   0.094   1.616   1.214  0.1334  0.1278 -0.1719
  713SOL    MW4 2925   0.026   1.666   1.234  0.1025 -0.1144  0.3152
  714SOL     OW 2926   4.290   2.085   1.190  0.6207 -0.0056  0.1280
  714SOL    HW2 2927   4.270   2.170   1.151  0.2269  0.5510  1.5198
  714SOL    HW3 2928   4.231   2.023   1.147 -1.0005  0.8836  1.0410
  714SOL    MW4 2929   4.280   2.088   1.179  0.3548  0.1850  0.4320
  715SOL     OW 2930   4.088   1.920   1.095  0.7502  0.0193 -0.5673
  715SOL    HW2 2931   4.066   1.839   1.143 -0.2597  0.5227 -0.1643
  715SOL    HW3 2932   4.076   1.897   1.003 -1.0152  0.1327 -0.3850
  715SOL    MW4 2933   4.083   1.906   1.089  0.3843  0.1007 -0.4901
  716SOL     OW 2934   4.004   2.413   1.206  0.0937 -0.1432 -0.0144
  716SOL    HW2 2935   4.013   2.423   1.300  1.0316 -1.4579  0.0437
  716SOL    HW3 2936   4.008   2.503   1.172 -5.2095  0.8450  1.5403
  716SOL    MW4 2937   4.006   2.426   1.214 -0.4821 -0.1864  0.1984
  717SOL     OW 2938   4.021   2.681   1.113 -0.4392 -0.2207  0.6110
  717SOL    HW2 2939   3.962   2.747   1.150 -0.2269  0.0223  0.5223
  717SOL    HW3 2940   4.014   2.694   1.018  0.6600  0.6117  0.6311
  717SOL    MW4 2941   4.013   2.691   1.105 -0.2666 -0.0784  0.6019
  718SOL     OW 2942   4.251   2.797   1.235  0.0550 -0.3301  0.0097
  718SOL    HW2 2943   4.253   2.883   1.193  0.8729 -0.3788 -0.0490
  718SOL    HW3 2944   4.170   2.757   1.203 -0.2203  0.3322 -0.1287
  718SOL    MW4 2945   4.240   2.803   1.226  0.1268 -0.2489 -0.0162
  719SOL     OW 2946   4.242   3.039   1.131 -0.2345  0.2142  0.4310
  719SOL    HW2 2947   4.165   3.082   1.169 -0.3264  1.3798 -1.0114
  719SOL    HW3 2948   4.218   3.025   1.039  0.9807 -0.1028  0.1617
  719SOL    MW4 2949   4.229   3.043   1.124 -0.0863  0.3262  0.2050
  720SOL     OW 2950   4.013   3.202   1.226  0.3275 -0.5563 -0.7295
  720SOL    HW2 2951   3.994   3.199   1.319 -0.4447  1.5772 -0.8044
  720SOL    HW3 2952   3.932   3.174   1.183 -0.2149  1.1376 -0.8286
  720SOL    MW4 2953   4.000   3.198   1.232  0.1538 -0.0510 -0.7523
  721SOL     OW 2954   4.045   3.436   1.066 -0.1902 -0.6808 -0.2768
  721SOL    HW2 2955   4.037   3.345   1.096  0.2026 -0.6879 -0.1898
  721SOL    HW3 2956   3.969   3.480   1.103 -0.4541 -1.0057 -0.4311
  721SOL    MW4 2957   4.034   3.430   1.075 -0.1731 -0.7248 -0.2859
  722SOL     OW 2958   4.247   3.583   1.201  0.3088 -0.1280 -0.6930
  722SOL    HW2 2959   4.177   3.519   1.187  0.2978 -0.1574 -0.5090
  722SOL    HW3 2960   4.327   3.539   1.171  0.3000 -0.2254 -0.5731
  722SOL    MW4 2961   4.249   3.569   1.195  0.3066 -0.1447 -0.6528
  723SOL     OW 2962   4.288   3.846   1.122 -0.0788 -0.4902  0.1169
  723SOL    HW2 2963   4.211   3.895   1.149 -0.1604 -0.9069  0.6656
  723SOL    HW3 2964   4.271   3.756   1.152  0.4716 -0.6564 -0.0539
  723SOL    MW4 2965   4.275   3.840   1.129 -0.0167 -0.5670  0.1667
  724SOL     OW 2966   4.038   3.988   1.180 -0.4877 -0.2098 -0.1447
  724SOL    HW2 2967   4.028   4.081   1.158  0.1491  0.0274  0.5265
  724SOL    HW3 2968   3.986   3.942   1.114 -1.0569  0.6392 -0.3087
  724SOL    MW4 2969   4.030   3.994   1.169 -0.4783 -0.0668 -0.0777
  725SOL     OW 2970   3.997   4.258   1.088 -0.2346 -0.1071 -0.5055
  725SOL    HW2 2971   3.931   4.298   1.145  0.9001  0.6014  0.3419
  725SOL    HW3 2972   3.952   4.243   1.005 -0.8945  2.2459 -0.5969
  725SOL    MW4 2973   3.982   4.261   1.085 -0.1719  0.2966 -0.4059
  726SOL     OW 2974   4.244   4.400   1.158  0.5720 -0.0262  0.2278
  726SOL    HW2 2975   4.163   4.363   1.122 -0.1609  0.2513  1.5740
  726SOL    HW3 2976   4.311   4.336   1.137 -0.1868 -0.7711  0.0365
  726SOL    MW4 2977   4.242   4.387   1.150  0.3748 -0.0877  0.3803
  727SOL     OW 2978   0.038   4.275   1.444  0.7265  0.0427 -0.0735
  727SOL    HW2 2979  -0.043   4.323   1.459 -0.1913 -1.1450 -1.2179
  727SOL    HW3 2980   0.014   4.183   1.454  1.8578 -0.3397 -0.7643
  727SOL    MW4 2981   0.024   4.269   1.448  0.7546 -0.1650 -0.3158
  728SOL     OW 2982   4.450   0.057   1.542  0.3432  0.2034 -0.2623
  728SOL    HW2 2983   4.360   0.024   1.544  0.6474 -0.7043 -0.9193
  728SOL    HW3 2984   4.466   0.079   1.451  0.5208  1.1329 -0.0089
  728SOL    MW4 2985   4.441   0.055   1.530  0.4067  0.2063 -0.3155
  729SOL     OW 2986   0.004   0.317   1.671 -0.3163 -0.4229 -0.4451
  729SOL    HW2 2987   0.026   0.310   1.764 -0.9706  1.5481 -0.1315
  729SOL    HW3 2988  -0.018   0.227   1.645  1.3941 -1.2588  0.9068
  729SOL    MW4 2989   0.004   0.304   1.680 -0.1764 -0.2732 -0.2253
  730SOL     OW 2990   0.199   0.485   1.562  0.1847 -0.3010 -0.5372
  730SOL    HW2 2991   0.129   0.425   1.588  2.2792 -2.5153  0.1988
  730SOL    HW3 2992   0.190   0.491   1.467  0.0253 -1.9161 -0.6452
  730SOL    MW4 2993   0.188   0.478   1.553  0.4400 -0.8063 -0.4542
  731SOL     OW 2994   0.239   0.740   1.641 -0.4867  0.0249  0.2914
  731SOL    HW2 2995   0.313   0.780   1.595 -1.1016  1.4555  0.5340
  731SOL    HW3 2996   0.231   0.653   1.602  0.1825  0.5371 -1.0054
  731SOL    MW4 2997   0.248   0.734   1.630 -0.4796  0.2812  0.1523
  732SOL     OW 2998   0.054   0.876   1.498 -0.4164 -0.3342 -0.1153
  732SOL    HW2 2999   0.039   0.956   1.549 -2.0864  0.7262 -2.1688
  732SOL    HW3 3000   0.114   0.824   1.552 -0.5401  1.6000  1.9851
  732SOL    MW4 3001   0.060   0.880   1.512 -0.6530  0.0609 -0.1090
  733SOL     OW 3002   0.012   1.141   1.601  0.0429 -0.2642  0.4105
  733SOL    HW2 3003   0.019   1.148   1.697 -0.5223  2.1917  0.3171
  733SOL    HW3 3004   0.083   1.196   1.568  0.0278 -0.8379 -0.5957
  733SOL    MW4 3005   0.022   1.149   1.610 -0.0339 -0.0160  0.2652
  734SOL     OW 3006   0.245   1.272   1.524  0.4607 -0.0675  0.1217
  734SOL    HW2 3007   0.263   1.361   1.555  0.8391 -0.4786  1.1182
  734SOL    HW3 3008   0.252   1.277   1.429  2.1953  0.6021  0.2751
  734SOL    MW4 3009   0.248   1.284   1.516  0.7394 -0.0334  0.2735
  735SOL     OW 3010   0.282   1.533   1.617  0.4068  0.1551  0.4229
  735SOL    HW2 3011   0.288   1.519   1.711 -2.2030  0.2003  0.6221
  735SOL    HW3 3012   0.189   1.549   1.600  1.0587  1.7889 -1.9353
  735SOL    MW4 3013   0.271   1.533   1.627  0.1485  0.3766  0.1379
  736SOL     OW 3014   0.018   1.653   1.534 -0.1825 -0.1572  0.1185
  736SOL    HW2 3015   0.023   1.746   1.556  0.2799 -0.4313  1.2570
  736SOL    HW3 3016   0.014   1.650   1.439 -1.7262  1.0900  0.1167
  736SOL    MW4 3017   0.018   1.665   1.525 -0.3251 -0.0288  0.2685
  737SOL     OW 3018   0.040   1.915   1.621  0.5817 -0.1601 -0.5037
  737SOL    HW2 3019   0.011   1.918   1.712  1.2416 -0.7497 -0.2668
  737SOL    HW3 3020  -0.024   1.968   1.574 -0.1816 -0.4427  0.1911
  737SOL    MW4 3021   0.028   1.922   1.627  0.5679 -0.2751 -0.3808
  738SOL     OW 3022   0.219   2.056   1.503 -0.2111  0.8283  0.4632
  738SOL    HW2 3023   0.147   2.013   1.549  1.0458 -0.6769  1.0509
  738SOL    HW3 3024   0.199   2.043   1.410 -0.2031 -0.4351  0.6299
  738SOL    MW4 3025   0.207   2.049   1.497 -0.0442  0.4630  0.5627
  739SOL     OW 3026   0.205   2.305   1.604 -0.6478 -0.4708  0.5191
  739SOL    HW2 3027   0.183   2.307   1.697  0.4754 -1.3511  0.8105
  739SOL    HW3 3028   0.214   2.212   1.583 -2.7892 -0.3922 -0.9377
  739SOL    MW4 3029   0.203   2.293   1.613 -0.7821 -0.5765  0.3654
  740SOL     OW 3030   0.005   2.420   1.458 -0.1598  0.4043 -0.3926
  740SOL    HW2 3031  -0.050   2.370   1.518 -0.2173 -0.5660 -1.2283
  740SOL    HW3 3032   0.094   2.390   1.476  0.0548  1.5921  0.5957
  740SOL    MW4 3033   0.010   2.409   1.468 -0.1391  0.4330 -0.3724
  741SOL     OW 3034   4.479   2.686   1.598 -0.2164 -0.5865 -0.0845
  741SOL    HW2 3035   4.409   2.750   1.582  1.0566  0.2634 -2.5605
  741SOL    HW3 3036   4.443   2.603   1.567 -0.4563 -0.3234 -0.5183
  741SOL    MW4 3037   4.465   2.684   1.592 -0.0800 -0.4394 -0.4684
  742SOL     OW 3038   0.205   2.801   1.466 -0.3292  0.9204  0.3259
  742SOL    HW2 3039   0.293   2.771   1.490 -0.0316 -1.0795 -2.9658
  742SOL    HW3 3040   0.147   2.759   1.529  0.7012 -1.5040 -0.2702
  742SOL    MW4 3041   0.209   2.792   1.477 -0.1540  0.3366 -0.1870
  743SOL     OW 3042   0.228   3.065   1.572 -0.3832 -0.3867  0.3449
  743SOL    HW2 3043   0.145   3.111   1.561 -0.4277 -0.3407  0.8582
  743SOL    HW3 3044   0.212   2.977   1.537 -0.4306 -0.1541 -0.2248
  743SOL    MW4 3045   0.215   3.060   1.566 -0.3953 -0.3498  0.3376
  744SOL     OW 3046   4.462   3.168   1.466  0.3524 -0.3799 -0.2711
  744SOL    HW2 3047   4.462   3.262   1.480  1.4542 -0.3331 -0.5945
  744SOL    HW3 3048   4.472   3.157   1.371 -1.4163 -0.8008 -0.4318
  744SOL    MW4 3049   4.463   3.179   1.455  0.2651 -0.4294 -0.3350
  745SOL     OW 3050   4.479   3.451   1.573 -0.4097  0.2554  0.1375
  745SOL    HW2 3051   4.470   3.459   1.668 -1.0131  0.2173  0.0824
  745SOL    HW3 3052   4.407   3.503   1.538 -0.7496 -0.5067 -0.2889
  745SOL    MW4 3053   4.468   3.459   1.581 -0.5342  0.1497  0.0739
  746SOL     OW 3054   0.186   3.602   1.480 -0.6908 -0.9354  0.2551
  746SOL    HW2 3055   0.184   3.685   1.527 -0.9218 -0.5763 -0.3740
  746SOL    HW3 3056   0.117   3.550   1.521 -0.9032 -0.6200  0.3060
  746SOL    MW4 3057   0.176   3.606   1.491 -0.7493 -0.8464  0.1789
  747SOL     OW 3058   0.222   3.860   1.611  0.6426 -0.0957  0.1883
  747SOL    HW2 3059   0.234   3.867   1.706 -0.2860  0.4085  0.2792
  747SOL    HW3 3060   0.302   3.897   1.574  1.4327 -1.1930  0.7774
  747SOL    MW4 3061   0.234   3.866   1.618  0.6243 -0.1738  0.2780
  748SOL     OW 3062   0.268   3.863   1.114  0.3319  0.1720  0.1699
  748SOL    HW2 3063   0.259   3.772   1.143  3.6803  0.0183  0.9575
  748SOL    HW3 3064   0.190   3.907   1.146 -1.2582 -2.3750 -0.0692
  748SOL    MW4 3065   0.257   3.857   1.122  0.5639 -0.1841  0.2421
  749SOL     OW 3066   0.014   3.995   1.457 -0.0897  0.4295  0.9405
  749SOL    HW2 3067   0.086   3.963   1.513 -0.5763 -1.2029  0.6697
  749SOL    HW3 3068  -0.065   3.960   1.498 -0.6071  0.9077  0.3537
  749SOL    MW4 3069   0.013   3.986   1.470 -0.2222  0.2775  0.8273
  750SOL     OW 3070   0.179   4.359   1.666  0.1060 -0.4382  0.1847
  750SOL    HW2 3071   0.129   4.331   1.743  0.8492 -0.2310  0.7444
  750SOL    HW3 3072   0.128   4.326   1.592 -0.8036 -0.3418  0.7496
  750SOL    MW4 3073   0.166   4.351   1.666  0.0840 -0.3982  0.3332
  751SOL     OW 3074   0.414   0.128   1.552  0.3178 -0.3699  0.2623
  751SOL    HW2 3075   0.414   0.210   1.601 -1.8286  0.5562 -1.1766
  751SOL    HW3 3076   0.339   0.079   1.587  0.5182 -0.9563 -0.1122
  751SOL    MW4 3077   0.404   0.132   1.563  0.0611 -0.3251  0.0230
  752SOL     OW 3078   0.201   4.646   1.674 -0.6606  0.4826  0.3327
  752SOL    HW2 3079   0.116   4.672   1.639 -0.7009  0.8674  0.7202
  752SOL    HW3 3080   0.201   4.550   1.666 -0.2761  0.6209 -1.6199
  752SOL    MW4 3081   0.190   4.637   1.668 -0.6152  0.5517  0.1261
  753SOL     OW 3082   0.450   0.371   1.681 -0.0187 -0.5975  0.1760
  753SOL    HW2 3083   0.520   0.411   1.630 -0.3438  1.1995  1.0911
  753SOL    HW3 3084   0.371   0.418   1.654 -0.5304 -1.1520  0.7053
  753SOL    MW4 3085   0.449   0.383   1.671 -0.1292 -0.4336  0.3666
  754SOL     OW 3086   0.664   0.454   1.521 -0.1168 -0.3263  0.1735
  754SOL    HW2 3087   0.672   0.546   1.545  0.2104 -0.4200  0.4218
  754SOL    HW3 3088   0.672   0.453   1.426  0.0187 -0.1147  0.1839
  754SOL    MW4 3089   0.666   0.466   1.511 -0.0558 -0.3107  0.2077
  755SOL     OW 3090   0.700   0.737   1.562 -0.0377 -0.5102 -0.0562
  755SOL    HW2 3091   0.696   0.756   1.656  0.2408 -0.5757 -0.0309
  755SOL    HW3 3092   0.784   0.773   1.534  0.2867 -1.3012 -0.0964
  755SOL    MW4 3093   0.710   0.744   1.571  0.0419 -0.6232 -0.0582
  756SOL     OW 3094   0.456   0.849   1.527 -0.0993 -0.0538 -0.2838
  756SOL    HW2 3095   0.461   0.941   1.555 -0.8113  0.0438 -0.4484
  756SOL    HW3 3096   0.546   0.818   1.530  0.0219  0.3729  0.7143
  756SOL    MW4 3097   0.468   0.857   1.531 -0.1773  0.0153 -0.1738
  757SOL     OW 3098   0.472   1.117   1.617  0.2958 -0.4645 -0.5488
  757SOL    HW2 3099   0.541   1.170   1.578  0.4877  0.1364  0.5708
  757SOL    HW3 3100   0.391   1.162   1.596  0.4226  0.0231  0.0099
  757SOL    MW4 3101   0.470   1.130   1.609  0.3378 -0.3209 -0.3275
  758SOL     OW 3102   0.666   1.273   1.528 -0.6735 -0.1868 -0.8904
  758SOL    HW2 3103   0.649   1.364   1.553 -0.9636 -0.5999  0.4702
  758SOL    HW3 3104   0.686   1.277   1.435 -0.7423  1.2677 -0.8559
  758SOL    MW4 3105   0.667   1.286   1.519 -0.7209 -0.0492 -0.7063
  759SOL     OW 3106   0.639   1.541   1.601 -0.0216 -0.4290 -0.2333
  759SOL    HW2 3107   0.705   1.598   1.561  0.1395 -0.7918 -0.4893
  759SOL    HW3 3108   0.557   1.570   1.561 -0.1857  0.8115  0.9598
  759SOL    MW4 3109   0.637   1.553   1.590 -0.0219 -0.3130 -0.1094
  760SOL     OW 3110   0.443   1.678   1.441  0.2132 -0.2794  0.4929
  760SOL    HW2 3111   0.465   1.757   1.490 -0.8310 -0.3307  1.0615
  760SOL    HW3 3112   0.367   1.642   1.487 -0.4999 -0.5793 -0.9078
  760SOL    MW4 3113   0.436   1.683   1.453 -0.0187 -0.3257  0.3830
  761SOL     OW 3114   0.472   1.922   1.563  0.1493  0.2976 -0.3064
  761SOL    HW2 3115   0.394   1.976   1.556  0.3211  0.6092  0.1201
  761SOL    HW3 3116   0.482   1.906   1.657  1.1484  1.0867 -0.2635
  761SOL    MW4 3117   0.463   1.927   1.575  0.3038  0.4429 -0.2445
  762SOL     OW 3118   0.680   2.086   1.488  0.4038 -0.4732  0.1035
  762SOL    HW2 3119   0.753   2.049   1.538 -0.8231 -1.8201  0.9602
  762SOL    HW3 3120   0.604   2.034   1.515 -0.5640 -0.2516 -2.0567
  762SOL    MW4 3121   0.679   2.074   1.498  0.1143 -0.6216 -0.0684
  763SOL     OW 3122   0.666   2.341   1.590 -0.0046 -0.2427 -0.4056
  763SOL    HW2 3123   0.593   2.386   1.547  1.0147  0.0682 -1.8599
  763SOL    HW3 3124   0.666   2.254   1.551 -0.0523 -0.4913  0.1453
  763SOL    MW4 3125   0.656   2.336   1.579  0.1236 -0.2344 -0.5248
  764SOL     OW 3126   0.432   2.440   1.465  0.6625  0.3827  0.1688
  764SOL    HW2 3127   0.425   2.533   1.488 -0.7597  0.0642  1.1060
  764SOL    HW3 3128   0.371   2.396   1.525  1.6377 -1.2047  0.0330
  764SOL    MW4 3129   0.423   2.447   1.476  0.6035  0.1311  0.2744
  765SOL     OW 3130   0.469   2.700   1.549 -0.5293 -0.3049  0.0073
  765SOL    HW2 3131   0.460   2.704   1.644  0.5237  0.6120  0.0740
  765SOL    HW3 3132   0.553   2.741   1.531 -1.4766  1.0616 -1.4507
  765SOL    MW4 3133   0.479   2.706   1.559 -0.5154 -0.0036 -0.1763
  766SOL     OW 3134   0.702   2.831   1.486  0.3769 -0.3562 -0.0218
  766SOL    HW2 3135   0.693   2.920   1.520 -0.5311 -0.1293 -0.8419
  766SOL    HW3 3136   0.683   2.839   1.393 -1.3385 -1.6797  0.1985
  766SOL    MW4 3137   0.698   2.844   1.478  0.0307 -0.5009 -0.1010
  767SOL     OW 3138   0.650   3.090   1.587  0.1471 -0.1424  0.2582
  767SOL    HW2 3139   0.724   3.147   1.566  0.6666 -0.5052  1.0703
  767SOL    HW3 3140   0.573   3.139   1.557  0.5685  1.0422  1.0740
  767SOL    MW4 3141   0.650   3.104   1.580  0.2711 -0.0341  0.4730
  768SOL     OW 3142   0.431   3.241   1.504 -0.4742  0.5478 -0.0346
  768SOL    HW2 3143   0.361   3.182   1.531  0.0283 -0.1715 -0.2741
  768SOL    HW3 3144   0.430   3.236   1.408  0.7735 -0.5318 -0.0185
  768SOL    MW4 3145   0.422   3.232   1.495 -0.2433  0.3102 -0.0641
  769SOL     OW 3146   0.380   3.485   1.624  0.3922 -0.0550 -0.0194
  769SOL    HW2 3147   0.407   3.404   1.582  0.2093 -0.1423  0.0326
  769SOL    HW3 3148   0.309   3.519   1.569  1.3745  0.7679 -0.8020
  769SOL    MW4 3149   0.374   3.479   1.611  0.4977  0.0420 -0.1159
  770SOL     OW 3150   0.615   3.629   1.500 -0.0544  0.5348 -0.5323
  770SOL    HW2 3151   0.682   3.579   1.546  0.5796  0.0890 -1.9145
  770SOL    HW3 3152   0.533   3.588   1.526  0.4772 -1.5914 -2.0169
  770SOL    MW4 3153   0.613   3.617   1.510  0.0994  0.1957 -0.9105
  771SOL     OW 3154   0.644   3.888   1.590  0.2548  0.2547  0.4563
  771SOL    HW2 3155   0.719   3.933   1.552 -0.2364  0.8061  0.1376
  771SOL    HW3 3156   0.641   3.803   1.545  1.5794 -0.3909  1.5281
  771SOL    MW4 3157   0.654   3.883   1.579  0.3647  0.2425  0.5556
  772SOL     OW 3158   0.415   4.019   1.499 -0.1726  0.2285 -0.0087
  772SOL    HW2 3159   0.491   3.973   1.534 -1.0616  0.0671  1.7576
  772SOL    HW3 3160   0.431   4.023   1.405  1.2417 -1.2424  0.1420
  772SOL    MW4 3161   0.427   4.013   1.491 -0.1032  0.0138  0.2443
  773SOL     OW 3162   0.437   4.272   1.624  0.0077 -0.1842  0.4998
  773SOL    HW2 3163   0.435   4.183   1.589 -0.3394 -0.1889  0.5344
  773SOL    HW3 3164   0.345   4.298   1.631  0.1357  0.6079 -0.5892
  773SOL    MW4 3165   0.425   4.264   1.620 -0.0212 -0.0806  0.3607
  774SOL     OW 3166   0.662   4.372   1.497  0.6943 -0.1306  0.1255
  774SOL    HW2 3167   0.672   4.459   1.536 -0.4209  0.0325  0.0663
  774SOL    HW3 3168   0.599   4.327   1.553  1.6184 -1.0709  0.4224
  774SOL    MW4 3169   0.655   4.378   1.509  0.6691 -0.2332  0.1569
  775SOL     OW 3170   1.123   4.619   1.592 -0.1751 -0.1671 -0.3077
  775SOL    HW2 3171   1.135   4.607   1.687 -1.4917  2.8224  0.3087
  775SOL    HW3 3172   1.197   4.673   1.566 -1.5185  1.7301 -0.3117
  775SOL    MW4 3173   1.134   4.625   1.601 -0.5261  0.4778 -0.2269
  776SOL     OW 3174   0.902   0.081   1.524 -0.3226 -0.1573  0.1359
  776SOL    HW2 3175   0.897   0.161   1.576  0.1868  0.1738 -0.3251
  776SOL    HW3 3176   0.982   0.037   1.555 -0.8638 -0.7302  0.7339
  776SOL    MW4 3177   0.912   0.086   1.535 -0.3268 -0.1892  0.1538
  777SOL     OW 3178   0.879   0.331   1.640 -0.1124  0.0067  0.1981
  777SOL    HW2 3179   0.872   0.334   1.735 -1.0760  1.2922  0.0856
  777SOL    HW3 3180   0.800   0.373   1.608 -0.1213 -1.0184 -1.1890
  777SOL    MW4 3181   0.868   0.337   1.648 -0.2407  0.0410  0.0002
  778SOL     OW 3182   1.129   0.449   1.571 -0.1932  0.4456  0.2548
  778SOL    HW2 3183   1.118   0.543   1.587  0.5372  0.5700  0.0610
  778SOL    HW3 3184   1.045   0.410   1.593 -1.1529  1.3963 -1.5638
  778SOL    MW4 3185   1.116   0.456   1.576 -0.2234  0.5874 -0.0106
  779SOL     OW 3186   1.116   0.717   1.612  0.2804  0.0052  0.0909
  779SOL    HW2 3187   1.130   0.720   1.707 -0.1037 -1.0268  0.1954
  779SOL    HW3 3188   1.193   0.759   1.574 -1.5935  4.4826  0.9819
  779SOL    MW4 3189   1.128   0.723   1.619 -0.0174  0.4598  0.2222
  780SOL     OW 3190   0.918   0.870   1.480 -0.1956 -0.1070  0.4185
  780SOL    HW2 3191   0.997   0.832   1.517 -0.3745  0.1688  1.0949
  780SOL    HW3 3192   0.930   0.864   1.385  1.0365  0.7596  0.5061
  780SOL    MW4 3193   0.930   0.864   1.472 -0.0567  0.0439  0.5193
  781SOL     OW 3194   0.893   1.120   1.610 -0.4381  0.4649 -0.3032
  781SOL    HW2 3195   0.891   1.045   1.551 -0.0991  0.2794 -0.0811
  781SOL    HW3 3196   0.815   1.171   1.587  0.2902  0.9709 -1.6585
  781SOL    MW4 3197   0.882   1.117   1.599 -0.2973  0.5070 -0.4526
  782SOL     OW 3198   1.093   1.283   1.507  0.1001 -0.3059 -0.0762
  782SOL    HW2 3199   1.170   1.231   1.528  0.2040  0.1333  0.6516
  782SOL    HW3 3200   1.019   1.234   1.543  0.0487 -0.6397 -0.6216
  782SOL    MW4 3201   1.093   1.270   1.514  0.1070 -0.2919 -0.0521
  783SOL     OW 3202   1.092   1.553   1.619  0.1849  0.0692 -0.2603
  783SOL    HW2 3203   1.156   1.604   1.570  0.1876  1.9770  1.6846
  783SOL    HW3 3204   1.089   1.469   1.573  3.4748  0.2119 -0.8728
  783SOL    MW4 3205   1.100   1.549   1.607  0.6193  0.3397 -0.0845
  784SOL     OW 3206   0.860   1.677   1.492 -0.0460 -0.0359  0.3634
  784SOL    HW2 3207   0.932   1.631   1.535  0.9621  2.2169  1.1306
  784SOL    HW3 3208   0.897   1.705   1.408 -0.3118  0.3152  0.3620
  784SOL    MW4 3209   0.875   1.675   1.486  0.0519  0.3077  0.4643
  785SOL     OW 3210   0.887   1.955   1.591 -0.4071 -0.1833  0.1085
  785SOL    HW2 3211   0.975   1.970   1.556 -0.5510 -1.1440 -0.6637
  785SOL    HW3 3212   0.876   1.860   1.589 -1.6191 -0.0407 -0.1815
  785SOL    MW4 3213   0.897   1.945   1.586 -0.5860 -0.2913 -0.0316
  786SOL     OW 3214   1.146   2.031   1.502 -0.1795  0.3678  0.5582
  786SOL    HW2 3215   1.224   1.985   1.531 -1.2086 -1.7027  0.1577
  786SOL    HW3 3216   1.160   2.122   1.527  2.3702  0.0305  0.4216
  786SOL    MW4 3217   1.158   2.037   1.509  0.0212  0.0498  0.4873
  787SOL     OW 3218   1.150   2.315   1.572 -0.8885  0.5691 -0.3913
  787SOL    HW2 3219   1.213   2.382   1.547 -0.9419  1.3348  1.4508
  787SOL    HW3 3220   1.067   2.344   1.534 -1.2138  2.3122  1.5839
  787SOL    MW4 3221   1.147   2.328   1.564 -0.9384  0.9003  0.1123
  788SOL     OW 3222   0.910   2.419   1.496 -0.4148  0.1572 -0.0090
  788SOL    HW2 3223   0.927   2.509   1.525 -1.4478  0.7545 -1.2291
  788SOL    HW3 3224   0.829   2.395   1.541  0.1510 -0.3786  0.7477
  788SOL    MW4 3225   0.902   2.428   1.506 -0.4765  0.1650 -0.0701
  789SOL     OW 3226   0.915   2.676   1.593 -0.0889 -0.3918 -0.0764
  789SOL    HW2 3227   0.926   2.676   1.688  0.7931 -0.1451 -0.1689
  789SOL    HW3 3228   0.833   2.723   1.578  1.7024  3.0843  0.3714
  789SOL    MW4 3229   0.906   2.682   1.604  0.2638  0.0994 -0.0294
  790SOL     OW 3230   1.089   2.854   1.444 -0.1122  0.2219  0.2670
  790SOL    HW2 3231   1.079   2.931   1.500  2.5239  0.0254  1.1015
  790SOL    HW3 3232   1.032   2.788   1.483 -0.9191  1.1530  0.6805
  790SOL    MW4 3233   1.080   2.855   1.457  0.1290  0.3188  0.4315
  791SOL     OW 3234   1.064   3.099   1.602 -0.2180  0.0950 -0.2028
  791SOL    HW2 3235   1.072   3.127   1.693  0.0889  0.5848 -0.3758
  791SOL    HW3 3236   1.144   3.132   1.560  1.0581 -2.5631 -0.0234
  791SOL    MW4 3237   1.076   3.107   1.608 -0.0092 -0.1910 -0.2021
  792SOL     OW 3238   0.865   3.240   1.501  0.2686  0.1584  0.6923
  792SOL    HW2 3239   0.936   3.190   1.541  0.4952 -0.2576 -0.2229
  792SOL    HW3 3240   0.886   3.242   1.408  0.2213  1.8748  0.6922
  792SOL    MW4 3241   0.877   3.234   1.494  0.2923  0.3300  0.5715
  793SOL     OW 3242   0.829   3.498   1.613  0.6324 -0.2578 -0.0632
  793SOL    HW2 3243   0.890   3.550   1.561 -0.2784  0.0749 -0.8241
  793SOL    HW3 3244   0.832   3.411   1.573 -1.1046  0.3531 -1.5892
  793SOL    MW4 3245   0.837   3.493   1.600  0.2830 -0.1333 -0.3649
  794SOL     OW 3246   1.067   3.637   1.518 -0.4271  0.1580  0.2841
  794SOL    HW2 3247   1.135   3.582   1.558 -0.1521  0.3599  0.0891
  794SOL    HW3 3248   1.087   3.637   1.425 -0.4820  0.5148  0.2717
  794SOL    MW4 3249   1.078   3.629   1.511 -0.3982  0.2317  0.2567
  795SOL     OW 3250   1.131   3.878   1.616  0.1740 -0.2286  0.3298
  795SOL    HW2 3251   1.212   3.903   1.571 -0.5583  0.7704 -0.4625
  795SOL    HW3 3252   1.114   3.789   1.586  1.4626 -0.7884  1.2093
  795SOL    MW4 3253   1.140   3.870   1.606  0.2472 -0.1705  0.3413
  796SOL     OW 3254   0.907   3.981   1.505  0.3694  0.1373 -0.1960
  796SOL    HW2 3255   0.912   4.075   1.521  0.1284  0.3280 -1.1764
  796SOL    HW3 3256   0.992   3.947   1.534  0.6479  0.7336 -0.3001
  796SOL    MW4 3257   0.919   3.989   1.511  0.3743  0.2413 -0.3390
  797SOL     OW 3258   0.923   4.255   1.537  0.1794  0.4910 -0.0030
  797SOL    HW2 3259   0.934   4.250   1.632  0.3450  1.4219  0.0340
  797SOL    HW3 3260   0.833   4.286   1.525 -0.1189 -0.4399 -0.1667
  797SOL    MW4 3261   0.912   4.259   1.548  0.1619  0.4911 -0.0197
  798SOL     OW 3262   1.175   4.385   1.461  0.2381 -0.1402  0.0197
  798SOL    HW2 3263   1.088   4.346   1.476  0.8278 -1.3240  0.4208
  798SOL    HW3 3264   1.174   4.466   1.513 -1.0624  0.4923 -0.9634
  798SOL    MW4 3265   1.163   4.391   1.470  0.1444 -0.2131 -0.0571
  799SOL     OW 3266   1.588   4.625   1.580  0.1972 -0.1208  0.0305
  799SOL    HW2 3267   1.584   4.627   1.675 -0.3352  0.9483 -0.0129
  799SOL    HW3 3268   1.508   4.669   1.551  1.0494  0.8301 -0.9076
  799SOL    MW4 3269   1.577   4.631   1.588  0.2395  0.1464 -0.0991
  800SOL     OW 3270   1.356   0.082   1.500  0.1617 -0.1460  0.0161
  800SOL    HW2 3271   1.384   0.161   1.546 -1.0590  0.9256 -1.0185
  800SOL    HW3 3272   1.391   0.092   1.412  0.8158 -1.2297  0.1536
  800SOL    MW4 3273   1.364   0.094   1.495  0.0869 -0.1476 -0.1023
  801SOL     OW 3274   1.372   0.351   1.628  0.0858  0.2094 -0.0495
  801SOL    HW2 3275   1.428   0.418   1.589  0.4806  0.8125  1.5231
  801SOL    HW3 3276   1.283   0.382   1.613  0.2531  0.8072  0.1768
  801SOL    MW4 3277   1.368   0.364   1.621  0.1599  0.3679  0.1878
  802SOL     OW 3278   1.555   0.538   1.505 -0.3296  0.0410 -0.2316
  802SOL    HW2 3279   1.639   0.498   1.527 -1.1007 -1.3748  0.1425
  802SOL    HW3 3280   1.547   0.524   1.410 -0.1614  0.1668 -0.2661
  802SOL    MW4 3281   1.565   0.531   1.495 -0.4091 -0.1292 -0.1867
  803SOL     OW 3282   1.556   0.780   1.585 -0.8455 -0.1982  0.0025
  803SOL    HW2 3283   1.572   0.781   1.679 -0.7793 -1.3285  0.0148
  803SOL    HW3 3284   1.552   0.687   1.562  0.4659  0.0517 -1.3315
  803SOL    MW4 3285   1.558   0.768   1.594 -0.6638 -0.3144 -0.1717
  804SOL     OW 3286   1.310   0.874   1.503  0.2263 -0.0334  0.1067
  804SOL    HW2 3287   1.399   0.846   1.522 -0.4679 -1.3548  1.4975
  804SOL    HW3 3288   1.311   0.894   1.409  1.4749 -1.9915 -0.3278
  804SOL    MW4 3289   1.322   0.873   1.493  0.2996 -0.4661  0.2328
  805SOL     OW 3290   1.317   1.146   1.583 -0.0592 -0.3994 -0.0904
  805SOL    HW2 3291   1.316   1.155   1.679  0.8768 -1.3095  0.0221
  805SOL    HW3 3292   1.300   1.053   1.568 -0.9553 -0.1175 -0.8429
  805SOL    MW4 3293   1.314   1.135   1.594 -0.0539 -0.4823 -0.1748
  806SOL     OW 3294   1.566   1.249   1.496  0.4416 -0.1274  0.1918
  806SOL    HW2 3295   1.482   1.211   1.522  1.7494 -3.0892  0.2615
  806SOL    HW3 3296   1.560   1.258   1.401  0.8354 -2.4445 -0.0796
  806SOL    MW4 3297   1.554   1.245   1.487  0.6660 -0.8239  0.1651
  807SOL     OW 3298   1.576   1.536   1.579  0.6062  0.0743  0.0503
  807SOL    HW2 3299   1.581   1.527   1.674  0.7406 -1.7310 -0.0933
  807SOL    HW3 3300   1.570   1.445   1.547 -0.2295  0.6904 -1.6138
  807SOL    MW4 3301   1.576   1.523   1.587  0.5138 -0.0825 -0.1882
  808SOL     OW 3302   1.331   1.649   1.511 -0.1665  0.7289  0.0230
  808SOL    HW2 3303   1.418   1.614   1.532  0.2160  1.5230 -0.2280
  808SOL    HW3 3304   1.331   1.658   1.416 -1.2672 -1.1961 -0.1770
  808SOL    MW4 3305   1.343   1.646   1.502 -0.2612  0.5796 -0.0365
  809SOL     OW 3306   1.390   1.932   1.589 -0.0966 -0.3813  0.1159
  809SOL    HW2 3307   1.393   1.938   1.685 -0.5002 -1.9216  0.2355
  809SOL    HW3 3308   1.382   1.838   1.571 -0.1839 -0.0881 -1.4272
  809SOL    MW4 3309   1.389   1.920   1.599 -0.1614 -0.5459 -0.0719
  810SOL     OW 3310   1.584   2.101   1.494 -0.6707  0.4486  0.4792
  810SOL    HW2 3311   1.511   2.043   1.514 -1.1792  0.7093 -0.6123
  810SOL    HW3 3312   1.591   2.099   1.399  1.9548 -1.0842  0.6210
  810SOL    MW4 3313   1.575   2.093   1.484 -0.3914  0.2811  0.3538
  811SOL     OW 3314   1.577   2.369   1.576 -0.6616  0.3636  0.1771
  811SOL    HW2 3315   1.653   2.404   1.529 -0.1672 -0.3684  0.4291
  811SOL    HW3 3316   1.581   2.275   1.561 -0.5383  0.1276  1.6164
  811SOL    MW4 3317   1.588   2.361   1.568 -0.5801  0.2358  0.4002
  812SOL     OW 3318   1.373   2.463   1.441  0.3263 -0.2157  0.0786
  812SOL    HW2 3319   1.358   2.550   1.478 -0.2616 -1.0185  1.7693
  812SOL    HW3 3320   1.448   2.429   1.489 -0.0742 -1.0392  0.1238
  812SOL    MW4 3321   1.381   2.470   1.452  0.1960 -0.4301  0.3077
  813SOL     OW 3322   1.311   2.706   1.542 -0.3164  0.2948  0.2758
  813SOL    HW2 3323   1.390   2.757   1.523  0.4701 -0.8159  0.5271
  813SOL    HW3 3324   1.239   2.766   1.521  0.5786  1.0441 -0.7375
  813SOL    MW4 3325   1.312   2.721   1.537 -0.0945  0.2470  0.1754
  814SOL     OW 3326   1.535   2.825   1.461  0.1020 -0.2662 -0.3297
  814SOL    HW2 3327   1.617   2.790   1.494  0.5227  0.1755 -0.8927
  814SOL    HW3 3328   1.550   2.837   1.367 -0.5988 -0.1761 -0.4313
  814SOL    MW4 3329   1.548   2.822   1.453  0.0650 -0.1960 -0.4174
  815SOL     OW 3330   1.516   3.094   1.571 -0.2167 -0.1545  0.2051
  815SOL    HW2 3331   1.598   3.129   1.537 -0.6154  1.3126  0.7032
  815SOL    HW3 3332   1.510   3.006   1.535  2.0060 -0.5993  0.8842
  815SOL    MW4 3333   1.526   3.087   1.562  0.0240 -0.0196  0.3605
  816SOL     OW 3334   1.288   3.222   1.486 -0.0290  0.1870 -0.4542
  816SOL    HW2 3335   1.298   3.314   1.510  1.7668  0.2414 -1.3379
  816SOL    HW3 3336   1.371   3.181   1.511 -1.7794 -1.8086  2.4700
  816SOL    MW4 3337   1.300   3.229   1.493 -0.0229 -0.0691 -0.1850
  817SOL     OW 3338   1.308   3.503   1.608  0.1281  0.9625  0.2754
  817SOL    HW2 3339   1.309   3.504   1.704  0.4107 -0.1611  0.2875
  817SOL    HW3 3340   1.389   3.546   1.583  1.0118 -0.5205  0.5564
  817SOL    MW4 3341   1.319   3.509   1.618  0.2819  0.6189  0.3141
  818SOL     OW 3342   1.560   3.609   1.542 -0.5024 -0.2979  0.8028
  818SOL    HW2 3343   1.570   3.694   1.586  0.4431 -0.3258  0.6647
  818SOL    HW3 3344   1.575   3.628   1.449 -1.4326 -0.4227  0.6245
  818SOL    MW4 3345   1.564   3.623   1.536 -0.5004 -0.3181  0.7609
  819SOL     OW 3346   1.583   3.879   1.616 -0.0327 -0.4326  0.0453
  819SOL    HW2 3347   1.594   3.901   1.708 -0.3521 -0.7010  0.1496
  819SOL    HW3 3348   1.522   3.945   1.582  1.5069  0.7765 -0.4227
  819SOL    MW4 3349   1.576   3.890   1.623  0.1284 -0.3088 -0.0027
  820SOL     OW 3350   1.354   3.974   1.475  0.0630  0.0064  0.1746
  820SOL    HW2 3351   1.339   4.064   1.503 -0.6485  0.0819 -0.4424
  820SOL    HW3 3352   1.357   3.979   1.380 -0.0777 -0.6428  0.1377
  820SOL    MW4 3353   1.352   3.987   1.467 -0.0495 -0.0691  0.0885
  821SOL     OW 3354   1.371   4.240   1.589  0.3695 -0.4039 -0.0486
  821SOL    HW2 3355   1.451   4.285   1.560 -0.2306  0.9543  0.3408
  821SOL    HW3 3356   1.300   4.285   1.543 -0.2984 -0.5667  0.8130
  821SOL    MW4 3357   1.372   4.252   1.579  0.2023 -0.2465  0.1165
  822SOL     OW 3358   1.601   4.339   1.468 -0.0769  0.0672  0.0110
  822SOL    HW2 3359   1.678   4.312   1.519  0.7913  0.8179 -0.8684
  822SOL    HW3 3360   1.585   4.429   1.493  0.5106  0.5199 -1.2109
  822SOL    MW4 3361   1.609   4.347   1.478  0.1152  0.2260 -0.2662
  823SOL     OW 3362   2.038   4.627   1.585 -0.0998  0.4347  0.5990
  823SOL    HW2 3363   2.058   4.649   1.676 -0.3366 -1.6509  1.1778
  823SOL    HW3 3364   1.956   4.672   1.566 -1.5605 -1.3894  2.3599
  823SOL    MW4 3365   2.030   4.636   1.594 -0.3238 -0.0811  0.9077
  824SOL     OW 3366   1.809   0.096   1.498  0.2627  0.3157  0.5232
  824SOL    HW2 3367   1.726   0.053   1.520  0.7294 -0.8448  0.0307
  824SOL    HW3 3368   1.817   0.086   1.403  1.2000  0.0004  0.6295
  824SOL    MW4 3369   1.799   0.089   1.488  0.4479  0.1210  0.4723
  825SOL     OW 3370   1.791   0.363   1.555 -0.8104 -0.6481  0.3484
  825SOL    HW2 3371   1.876   0.404   1.535 -1.1421  0.0324  0.3118
  825SOL    HW3 3372   1.804   0.270   1.537 -0.2525 -0.4566 -0.2453
  825SOL    MW4 3373   1.804   0.356   1.550 -0.7807 -0.5330  0.2651
  826SOL     OW 3374   2.019   0.496   1.496  0.1544 -0.1443  0.6339
  826SOL    HW2 3375   2.104   0.460   1.519 -0.1761 -0.5771  1.2007
  826SOL    HW3 3376   2.025   0.589   1.519  0.7269 -0.0125 -0.0495
  826SOL    MW4 3377   2.031   0.504   1.502  0.1864 -0.1841  0.6185
  827SOL     OW 3378   2.020   0.759   1.595 -0.1386  0.7007  0.1381
  827SOL    HW2 3379   2.088   0.824   1.575 -0.4618  1.0718  0.2301
  827SOL    HW3 3380   1.939   0.799   1.563 -0.2128 -0.0639 -0.6406
  827SOL    MW4 3381   2.018   0.773   1.588 -0.1910  0.6487  0.0476
  828SOL     OW 3382   1.796   0.877   1.480 -0.0052 -0.4991 -0.0732
  828SOL    HW2 3383   1.796   0.963   1.521  0.2590 -0.2475 -0.6108
  828SOL    HW3 3384   1.712   0.838   1.507 -0.7068  0.4257 -0.9075
  828SOL    MW4 3385   1.785   0.883   1.489 -0.0629 -0.3439 -0.2542
  829SOL     OW 3386   1.785   1.128   1.624 -0.5324 -0.6508 -0.5753
  829SOL    HW2 3387   1.865   1.165   1.585 -0.6195 -0.6710 -0.7759
  829SOL    HW3 3388   1.714   1.174   1.580 -0.6088  0.6635  0.9167
  829SOL    MW4 3389   1.786   1.139   1.613 -0.5540 -0.4801 -0.4050
  830SOL     OW 3390   2.005   1.255   1.506  0.4455 -0.3772  0.3169
  830SOL    HW2 3391   2.025   1.345   1.533 -0.6470 -0.9090  3.0648
  830SOL    HW3 3392   2.011   1.257   1.410  1.2668  2.4041  0.3730
  830SOL    MW4 3393   2.009   1.267   1.497  0.4098 -0.0805  0.6869
  831SOL     OW 3394   2.036   1.516   1.596  0.0177 -0.1491  0.2572
  831SOL    HW2 3395   2.110   1.565   1.560 -0.2276 -0.4485 -0.6775
  831SOL    HW3 3396   1.960   1.572   1.578 -0.0406 -0.0625  0.7785
  831SOL    MW4 3397   2.036   1.530   1.589 -0.0222 -0.1773  0.2027
  832SOL     OW 3398   1.814   1.659   1.522 -0.2738  0.6325 -0.2005
  832SOL    HW2 3399   1.732   1.617   1.550 -0.8429  1.5591 -0.4609
  832SOL    HW3 3400   1.808   1.661   1.426  0.4316 -0.0508 -0.2596
  832SOL    MW4 3401   1.802   1.654   1.513 -0.2558  0.6646 -0.2427
  833SOL     OW 3402   1.834   1.970   1.564 -0.2164 -0.3430  0.4189
  833SOL    HW2 3403   1.816   1.882   1.533  1.6151 -0.6588  0.1903
  833SOL    HW3 3404   1.749   2.015   1.562 -0.9785 -1.8062 -0.3547
  833SOL    MW4 3405   1.820   1.964   1.560 -0.0753 -0.5777  0.2867
  834SOL     OW 3406   2.065   2.081   1.422  0.0307 -0.0206  0.7278
  834SOL    HW2 3407   2.131   2.039   1.477 -0.4762 -1.4223  0.2911
  834SOL    HW3 3408   1.982   2.044   1.452 -0.3981  0.4628  0.1506
  834SOL    MW4 3409   2.063   2.071   1.433 -0.0927 -0.1419  0.5940
  835SOL     OW 3410   2.014   2.341   1.530 -0.2282  0.6188 -0.6601
  835SOL    HW2 3411   2.016   2.324   1.625 -0.1469  1.1299 -0.5667
  835SOL    HW3 3412   2.011   2.254   1.490  0.3688  0.3803 -0.2007
  835SOL    MW4 3413   2.014   2.327   1.538 -0.1388  0.6547 -0.5872
  836SOL     OW 3414   1.803   2.489   1.452  0.2013 -0.2623  0.0995
  836SOL    HW2 3415   1.879   2.440   1.484  0.4537 -0.5067 -0.8578
  836SOL    HW3 3416   1.806   2.478   1.357 -1.4695 -0.9240  0.1143
  836SOL    MW4 3417   1.813   2.481   1.444  0.0142 -0.3817 -0.0248
  837SOL     OW 3418   1.755   2.722   1.605 -0.3573 -0.1654  0.1501
  837SOL    HW2 3419   1.831   2.771   1.575 -1.2304  0.9902 -0.1967
  837SOL    HW3 3420   1.763   2.637   1.562  1.7705 -0.7757  1.6572
  837SOL    MW4 3421   1.766   2.717   1.595 -0.1918 -0.0937  0.3033
  838SOL     OW 3422   1.974   2.833   1.475  0.1675  0.0010  0.2869
  838SOL    HW2 3423   1.986   2.924   1.502  2.3843 -0.1730 -0.0126
  838SOL    HW3 3424   1.981   2.836   1.380 -0.5402 -0.3850  0.2220
  838SOL    MW4 3425   1.976   2.846   1.466  0.3667 -0.0727  0.2388
  839SOL     OW 3426   1.994   3.072   1.588 -0.4304  0.1391  0.4001
  839SOL    HW2 3427   1.985   3.067   1.683  0.8796 -1.5686  0.4432
  839SOL    HW3 3428   2.079   3.113   1.574 -0.2836 -0.3110 -0.0339
  839SOL    MW4 3429   2.004   3.077   1.599 -0.2382 -0.1457  0.3486
  840SOL     OW 3430   1.752   3.228   1.487  0.0569  0.6020  0.2446
  840SOL    HW2 3431   1.753   3.306   1.543 -0.9640  1.2299 -0.5794
  840SOL    HW3 3432   1.832   3.181   1.510 -1.3146 -0.1974  3.6463
  840SOL    MW4 3433   1.763   3.232   1.498 -0.2587  0.5794  0.5847
  841SOL     OW 3434   1.805   3.457   1.636 -0.2554  0.1942  0.1886
  841SOL    HW2 3435   1.813   3.465   1.731  1.7909  0.2175  0.0434
  841SOL    HW3 3436   1.721   3.498   1.615 -1.1620 -0.6284  2.0680
  841SOL    MW4 3437   1.795   3.463   1.646 -0.1049  0.0887  0.4172
  842SOL     OW 3438   2.019   3.560   1.500 -0.0333  0.0801 -0.3339
  842SOL    HW2 3439   2.098   3.530   1.544  0.7608  3.1202  0.4748
  842SOL    HW3 3440   1.947   3.531   1.557  0.7508  0.4847  0.8806
  842SOL    MW4 3441   2.020   3.553   1.513  0.1748  0.5348 -0.0669
  843SOL     OW 3442   2.021   3.835   1.619 -0.2175 -0.0930  0.2875
  843SOL    HW2 3443   2.105   3.871   1.591 -0.6121 -0.5978 -1.6862
  843SOL    HW3 3444   2.021   3.746   1.583 -1.9846  0.2410 -0.5833
  843SOL    MW4 3445   2.032   3.828   1.610 -0.5026 -0.1154 -0.0879
  844SOL     OW 3446   1.820   3.994   1.506 -0.3324  0.2053  0.5452
  844SOL    HW2 3447   1.894   3.950   1.548 -0.9793 -1.8005 -0.3897
  844SOL    HW3 3448   1.743   3.953   1.545 -0.9920  2.1062  1.3217
  844SOL    MW4 3449   1.820   3.983   1.517 -0.5047  0.1915  0.5244
  845SOL     OW 3450   1.830   4.261   1.594 -0.8010 -0.0573 -0.6970
  845SOL    HW2 3451   1.903   4.303   1.549  0.2547 -0.3688  0.6826
  845SOL    HW3 3452   1.830   4.171   1.560 -0.2445 -0.1860 -0.3693
  845SOL    MW4 3453   1.840   4.255   1.583 -0.5883 -0.1154 -0.4717
  846SOL     OW 3454   2.075   4.369   1.502 -0.0387  0.1834 -0.3106
  846SOL    HW2 3455   2.157   4.339   1.541  0.2507  0.9776 -0.3172
  846SOL    HW3 3456   2.063   4.458   1.535 -0.1925  0.5735 -1.3852
  846SOL    MW4 3457   2.084   4.377   1.511 -0.0207  0.3400 -0.4535
  847SOL     OW 3458   2.448   4.610   1.592 -0.0604 -0.2761 -0.1192
  847SOL    HW2 3459   2.437   4.622   1.686  1.4156  2.1316 -0.2115
  847SOL    HW3 3460   2.375   4.659   1.553  1.6791  2.2693 -0.2952
  847SOL    MW4 3461   2.437   4.618   1.599  0.3641  0.3777 -0.1546
  848SOL     OW 3462   2.248   0.101   1.476  0.4797 -0.8942  0.1873
  848SOL    HW2 3463   2.177   0.046   1.507 -0.4697  0.5930  0.7250
  848SOL    HW3 3464   2.247   0.092   1.381  0.5328 -2.0252  0.2893
  848SOL    MW4 3465   2.239   0.093   1.468  0.3614 -0.8472  0.2717
  849SOL     OW 3466   2.257   0.372   1.548 -0.6573 -0.2563  0.2580
  849SOL    HW2 3467   2.246   0.364   1.643 -1.4382  1.7224  0.3561
  849SOL    HW3 3468   2.242   0.283   1.514 -0.4012 -0.9654  1.9679
  849SOL    MW4 3469   2.254   0.359   1.556 -0.7267 -0.0888  0.4966
  850SOL     OW 3470   2.479   0.520   1.470  0.0311 -0.4106  0.1300
  850SOL    HW2 3471   2.549   0.466   1.505 -0.1875  0.1382  1.4606
  850SOL    HW3 3472   2.399   0.479   1.502 -0.2264 -0.5463 -0.6725
  850SOL    MW4 3473   2.477   0.508   1.479 -0.0317 -0.3560  0.1997
  851SOL     OW 3474   2.456   0.747   1.629  0.4508 -0.3683  0.2000
  851SOL    HW2 3475   2.391   0.803   1.588 -0.3783 -0.9711  0.6838
  851SOL    HW3 3476   2.455   0.667   1.576 -0.4037 -1.0301  1.2215
  851SOL    MW4 3477   2.447   0.744   1.616  0.2286 -0.5351  0.3988
  852SOL     OW 3478   2.262   0.913   1.510  0.0626 -0.3148 -0.1351
  852SOL    HW2 3479   2.281   1.000   1.544 -1.0934 -0.4661  0.9319
  852SOL    HW3 3480   2.262   0.925   1.415  2.0184  0.3776 -0.0771
  852SOL    MW4 3481   2.264   0.926   1.502  0.1683 -0.2434  0.0132
  853SOL     OW 3482   2.248   1.169   1.598  0.2949 -0.0235  0.6763
  853SOL    HW2 3483   2.252   1.187   1.692 -0.1545  1.0166  0.5077
  853SOL    HW3 3484   2.156   1.186   1.575  0.0843 -1.5833  0.3012
  853SOL    MW4 3485   2.236   1.173   1.608  0.2079 -0.0921  0.6045
  854SOL     OW 3486   2.462   1.276   1.471 -0.5826  0.5835 -0.0719
  854SOL    HW2 3487   2.390   1.230   1.514 -0.2600  0.8539  0.7611
  854SOL    HW3 3488   2.451   1.256   1.378 -1.4114  0.1772  0.1100
  854SOL    MW4 3489   2.451   1.267   1.464 -0.6495  0.5655  0.0620
  855SOL     OW 3490   2.492   1.536   1.560  0.4221  0.1573 -0.0008
  855SOL    HW2 3491   2.578   1.554   1.523  0.2726 -0.1798 -0.5096
  855SOL    HW3 3492   2.476   1.444   1.542 -0.3747  0.4021 -0.5866
  855SOL    MW4 3493   2.501   1.526   1.553  0.2971  0.1451 -0.1453
  856SOL     OW 3494   2.259   1.657   1.479  0.1991  0.3896 -0.0737
  856SOL    HW2 3495   2.339   1.626   1.523  0.3956 -0.4010 -0.9833
  856SOL    HW3 3496   2.267   1.626   1.389 -0.4612  1.5373 -0.5477
  856SOL    MW4 3497   2.271   1.649   1.473  0.1380  0.4368 -0.2563
  857SOL     OW 3498   2.268   1.940   1.563  0.4724  0.2542  0.1671
  857SOL    HW2 3499   2.256   1.943   1.658  0.1615 -1.6398  0.2084
  857SOL    HW3 3500   2.260   1.847   1.541 -1.0498  0.8499 -1.9305
  857SOL    MW4 3501   2.266   1.928   1.572  0.2303  0.0830 -0.1042
  858SOL     OW 3502   2.505   2.060   1.465  0.1729 -0.2320  0.0793
  858SOL    HW2 3503   2.428   2.004   1.481 -0.2386  0.1107 -0.6902
  858SOL    HW3 3504   2.515   2.060   1.370 -1.0917  2.6712 -0.1187
  858SOL    MW4 3505   2.496   2.052   1.454 -0.0484  0.1962 -0.0483
  859SOL     OW 3506   2.467   2.326   1.560  0.3763  0.3747  0.2937
  859SOL    HW2 3507   2.471   2.318   1.655 -1.1124 -0.8621  0.2847
  859SOL    HW3 3508   2.485   2.238   1.528  1.9736  1.0148 -0.6363
  859SOL    MW4 3509   2.470   2.313   1.568  0.3905  0.2959  0.1698
  860SOL     OW 3510   2.254   2.462   1.496 -0.1575  0.1082 -0.1151
  860SOL    HW2 3511   2.326   2.406   1.524 -0.9998 -0.3438  1.2232
  860SOL    HW3 3512   2.176   2.408   1.508 -0.7826  0.8449 -0.8243
  860SOL    MW4 3513   2.253   2.448   1.502 -0.3510  0.1459 -0.0322
  861SOL     OW 3514   2.206   2.722   1.599 -0.2004 -0.1458 -0.7436
  861SOL    HW2 3515   2.211   2.636   1.559 -2.1282 -0.5362 -0.2280
  861SOL    HW3 3516   2.135   2.766   1.552 -0.3891  0.5108  0.1345
  861SOL    MW4 3517   2.197   2.717   1.588 -0.4797 -0.1109 -0.5597
  862SOL     OW 3518   2.465   2.783   1.489  0.2268  0.0940  0.5292
  862SOL    HW2 3519   2.472   2.876   1.513  1.2924  0.0994  0.2414
  862SOL    HW3 3520   2.381   2.755   1.525  0.0097  1.1093  0.8368
  862SOL    MW4 3521   2.455   2.792   1.497  0.3390  0.2286  0.5318
  863SOL     OW 3522   2.462   3.038   1.566 -0.0617 -0.0477 -0.1988
  863SOL    HW2 3523   2.539   3.089   1.539 -0.2292  0.1858 -0.2371
  863SOL    HW3 3524   2.387   3.094   1.546 -0.3529 -0.9682 -1.7217
  863SOL    MW4 3525   2.462   3.052   1.560 -0.1221 -0.1383 -0.4048
  864SOL     OW 3526   2.230   3.183   1.501  0.0819  0.1824 -0.6576
  864SOL    HW2 3527   2.242   3.273   1.533  0.9483  0.1361 -0.8316
  864SOL    HW3 3528   2.203   3.194   1.410 -0.3491  0.2758 -0.5193
  864SOL    MW4 3529   2.228   3.196   1.493  0.1397  0.1888 -0.6623
  865SOL     OW 3530   2.249   3.432   1.583 -0.4029  0.3230 -0.1918
  865SOL    HW2 3531   2.240   3.454   1.676 -1.9474 -0.3872 -0.1557
  865SOL    HW3 3532   2.328   3.478   1.555  0.3122  0.1980  1.5752
  865SOL    MW4 3533   2.258   3.441   1.592 -0.5126  0.2129  0.0460
  866SOL     OW 3534   2.486   3.559   1.532 -0.2723  0.0390  0.6028
  866SOL    HW2 3535   2.566   3.509   1.549  0.3641  0.0944 -1.9942
  866SOL    HW3 3536   2.509   3.649   1.558 -0.0755 -0.2710  1.5119
  866SOL    MW4 3537   2.500   3.564   1.537 -0.1624  0.0057  0.3800
  867SOL     OW 3538   2.496   3.844   1.601  0.3722 -0.4297  0.3164
  867SOL    HW2 3539   2.517   3.842   1.694  0.9008  1.8213  0.2678
  867SOL    HW3 3540   2.568   3.892   1.561 -1.7927  2.1494 -0.6785
  867SOL    MW4 3541   2.508   3.850   1.608  0.1564  0.2077  0.1787
  868SOL     OW 3542   2.262   3.975   1.523  0.2380  0.1962  0.2244
  868SOL    HW2 3543   2.338   3.936   1.566 -0.4880 -1.4786  0.0531
  868SOL    HW3 3544   2.277   3.960   1.429 -0.8743 -1.2914  0.2575
  868SOL    MW4 3545   2.274   3.968   1.516 -0.0048 -0.2208  0.2061
  869SOL     OW 3546   2.301   4.238   1.613  0.0780  0.3363  0.1710
  869SOL    HW2 3547   2.378   4.275   1.569 -0.1616  1.8464  0.9944
  869SOL    HW3 3548   2.288   4.153   1.570  1.2500  0.7532 -1.0634
  869SOL    MW4 3549   2.309   4.232   1.601  0.2012  0.5903  0.1169
  870SOL     OW 3550   2.517   4.361   1.482  0.0562  0.1803 -0.3779
  870SOL    HW2 3551   2.502   4.453   1.503 -0.2535  0.3342 -1.2130
  870SOL    HW3 3552   2.497   4.355   1.388  2.6300 -0.1917 -0.9376
  870SOL    MW4 3553   2.512   4.372   1.472  0.3550  0.1516 -0.5618
  871SOL     OW 3554   2.917   4.629   1.566  0.6785  0.5330 -0.0980
  871SOL    HW2 3555   2.915   4.619   1.661 -3.3618 -1.9650 -0.3410
  871SOL    HW3 3556   2.832   4.665   1.543  1.4940  0.8661 -2.8251
  871SOL    MW4 3557   2.906   4.632   1.576  0.2530  0.2475 -0.4898
  872SOL     OW 3558   2.670   0.087   1.496  0.0849 -0.0697  0.5084
  872SOL    HW2 3559   2.644   0.177   1.518  0.1071 -0.0866  0.6026
  872SOL    HW3 3560   2.598   0.033   1.528 -0.2827 -0.0233 -0.2184
  872SOL    MW4 3561   2.657   0.092   1.503  0.0393 -0.0658  0.4250
  873SOL     OW 3562   2.675   0.357   1.581 -0.0464  0.1759  0.0103
  873SOL    HW2 3563   2.681   0.350   1.676  0.1756  0.7280  0.0404
  873SOL    HW3 3564   2.764   0.378   1.553 -0.5710  2.3547 -0.1074
  873SOL    MW4 3565   2.688   0.359   1.590 -0.0863  0.5362 -0.0012
  874SOL     OW 3566   2.905   0.460   1.484  0.4282  0.1925 -0.2687
  874SOL    HW2 3567   2.887   0.550   1.512 -2.1553 -0.0273 -1.0568
  874SOL    HW3 3568   2.893   0.462   1.389 -0.2578 -1.1198 -0.2183
  874SOL    MW4 3569   2.901   0.472   1.475 -0.0031 -0.0097 -0.3660
  875SOL     OW 3570   2.867   0.718   1.581 -0.1920 -0.0928  0.3468
  875SOL    HW2 3571   2.853   0.724   1.676  1.1917  2.4488  0.4435
  875SOL    HW3 3572   2.794   0.767   1.544  1.1947  2.0218  0.3016
  875SOL    MW4 3573   2.855   0.726   1.589  0.1738  0.5215  0.3536
  876SOL     OW 3574   2.651   0.873   1.484  0.0248 -0.3745  0.2122
  876SOL    HW2 3575   2.585   0.815   1.522 -0.9464  0.9787  0.6351
  876SOL    HW3 3576   2.654   0.849   1.392 -0.8241 -0.6948  0.2602
  876SOL    MW4 3577   2.643   0.862   1.477 -0.2153 -0.2383  0.2743
  877SOL     OW 3578   2.697   1.153   1.561  0.3383  0.3534  0.0394
  877SOL    HW2 3579   2.684   1.060   1.543  0.0832  0.1492  1.1964
  877SOL    HW3 3580   2.617   1.194   1.530 -0.6284 -0.1498  1.8060
  877SOL    MW4 3581   2.685   1.146   1.555  0.1771  0.2601  0.4251
  878SOL     OW 3582   2.915   1.290   1.476  0.0018  0.3334 -0.0197
  878SOL    HW2 3583   2.985   1.233   1.507  0.4908  1.4213  0.8992
  878SOL    HW3 3584   2.835   1.253   1.514  0.1797 -0.3845 -0.3380
  878SOL    MW4 3585   2.913   1.278   1.485  0.0899  0.3824  0.0595
  879SOL     OW 3586   2.958   1.536   1.622  0.7827 -0.3680 -0.0827
  879SOL    HW2 3587   2.901   1.605   1.591  2.2403  1.1166  0.4694
  879SOL    HW3 3588   2.937   1.460   1.567 -0.3942  0.6834 -1.0985
  879SOL    MW4 3589   2.948   1.535   1.611  0.8197 -0.0335 -0.1438
  880SOL     OW 3590   2.738   1.652   1.443 -0.0293 -0.7268 -0.3992
  880SOL    HW2 3591   2.718   1.742   1.467 -1.0542 -0.9672 -0.3218
  880SOL    HW3 3592   2.736   1.651   1.347 -0.8723 -0.8470 -0.3863
  880SOL    MW4 3593   2.735   1.664   1.433 -0.2756 -0.7743 -0.3871
  881SOL     OW 3594   2.706   1.906   1.554  0.4909  0.0361  0.0291
  881SOL    HW2 3595   2.689   1.893   1.647  1.5518  0.9914  0.3596
  881SOL    HW3 3596   2.646   1.976   1.528  0.2842 -0.1444  0.0162
  881SOL    MW4 3597   2.696   1.913   1.563  0.6037  0.1383  0.0709
  882SOL     OW 3598   2.973   1.991   1.448  0.2711 -0.2416  0.2436
  882SOL    HW2 3599   2.976   2.081   1.481  0.2897 -0.3008  0.4039
  882SOL    HW3 3600   2.896   1.953   1.491 -0.0253 -0.1565 -0.1974
  882SOL    MW4 3601   2.963   1.998   1.458  0.2344 -0.2382  0.2065
  883SOL     OW 3602   2.944   2.253   1.561 -0.9718 -0.3559  0.3404
  883SOL    HW2 3603   2.943   2.288   1.651  0.1019  1.0205 -0.1581
  883SOL    HW3 3604   2.865   2.289   1.521 -1.7329 -1.3982  0.8691
  883SOL    MW4 3605   2.933   2.263   1.568 -0.9303 -0.3119  0.3445
  884SOL     OW 3606   2.716   2.392   1.498 -0.2854  0.3215 -0.1184
  884SOL    HW2 3607   2.729   2.484   1.521 -0.6643  0.1755  0.6960
  884SOL    HW3 3608   2.625   2.374   1.522 -0.4282 -0.0809 -0.9256
  884SOL    MW4 3609   2.705   2.402   1.504 -0.3543  0.2489 -0.1175
  885SOL     OW 3610   2.695   2.654   1.571  0.0920 -0.3114 -0.2266
  885SOL    HW2 3611   2.771   2.710   1.560 -0.6061  1.2112  2.2074
  885SOL    HW3 3612   2.621   2.706   1.539 -0.2019 -0.9068 -0.5216
  885SOL    MW4 3613   2.695   2.668   1.565 -0.0391 -0.1888  0.0557
  886SOL     OW 3614   2.919   2.811   1.504  0.1991 -0.2126  0.0872
  886SOL    HW2 3615   2.993   2.783   1.557  0.3565  0.8009  0.4224
  886SOL    HW3 3616   2.916   2.906   1.516 -0.5508 -0.1307 -0.7016
  886SOL    MW4 3617   2.928   2.820   1.512  0.1209 -0.0682  0.0274
  887SOL     OW 3618   2.868   3.083   1.599 -0.5813  0.0916 -0.2193
  887SOL    HW2 3619   2.878   3.073   1.693 -1.4057 -0.1810 -0.1587
  887SOL    HW3 3620   2.942   3.138   1.573 -0.4694  0.3436  0.6124
  887SOL    MW4 3621   2.879   3.089   1.608 -0.6754  0.0887 -0.1016
  888SOL     OW 3622   2.657   3.207   1.463  0.3292  0.4005 -0.3537
  888SOL    HW2 3623   2.734   3.169   1.508 -0.4915  0.7001  1.3479
  888SOL    HW3 3624   2.672   3.188   1.370  1.5686 -1.1649  0.1363
  888SOL    MW4 3625   2.669   3.199   1.457  0.3843  0.2332 -0.0646
  889SOL     OW 3626   2.760   3.451   1.560  0.1545  0.2338  0.3925
  889SOL    HW2 3627   2.771   3.427   1.652  0.2103  1.3425  0.6836
  889SOL    HW3 3628   2.749   3.368   1.515  0.1303 -0.3211  1.4022
  889SOL    MW4 3629   2.760   3.437   1.566  0.1588  0.3068  0.5641
  890SOL     OW 3630   2.989   3.602   1.471  0.2415  0.3161 -0.2802
  890SOL    HW2 3631   2.917   3.543   1.490  0.5757 -0.1750 -0.5188
  890SOL    HW3 3632   2.995   3.603   1.375  0.6693  0.2089 -0.2550
  890SOL    MW4 3633   2.981   3.594   1.461  0.3421  0.2375 -0.3084
  891SOL     OW 3634   2.973   3.860   1.606  0.7244 -0.0701 -0.4210
  891SOL    HW2 3635   2.902   3.901   1.556  1.7173  2.1145 -0.0902
  891SOL    HW3 3636   2.979   3.771   1.571 -1.8944 -0.1591 -0.7429
  891SOL    MW4 3637   2.964   3.853   1.595  0.5100  0.2065 -0.4197
  892SOL     OW 3638   2.722   3.974   1.513  0.0991  0.2468 -0.7265
  892SOL    HW2 3639   2.717   4.063   1.548 -1.4884 -0.2097  0.2754
  892SOL    HW3 3640   2.735   3.985   1.419 -0.4664  1.5413 -0.6537
  892SOL    MW4 3641   2.723   3.987   1.505 -0.1850  0.3574 -0.5847
  893SOL     OW 3642   2.729   4.242   1.605 -0.3531  0.4923  0.1166
  893SOL    HW2 3643   2.814   4.275   1.575 -0.0772  1.4875  1.9623
  893SOL    HW3 3644   2.666   4.284   1.547  0.3574  0.0383 -1.0283
  893SOL    MW4 3645   2.732   4.252   1.593 -0.2229  0.5636  0.2091
  894SOL     OW 3646   2.948   4.370   1.501 -0.1584 -0.1492 -0.0697
  894SOL    HW2 3647   2.933   4.456   1.540 -2.4369 -0.3016 -0.5020
  894SOL    HW3 3648   2.933   4.383   1.408 -1.0888 -1.1008 -0.0708
  894SOL    MW4 3649   2.944   4.383   1.494 -0.5817 -0.2942 -0.1268
  895SOL     OW 3650   3.363   4.620   1.597  0.2640 -0.0714 -0.1546
  895SOL    HW2 3651   3.420   4.672   1.541 -0.8712  0.0013 -1.2915
  895SOL    HW3 3652   3.402   4.533   1.597  1.4625  0.4560  0.7081
  895SOL    MW4 3653   3.375   4.615   1.590  0.2723  0.0072 -0.1906
  896SOL     OW 3654   3.145   0.070   1.463 -0.0693  0.0211 -0.5847
  896SOL    HW2 3655   3.212   0.016   1.505  0.5741  0.7517 -0.6602
  896SOL    HW3 3656   3.062   0.037   1.498  0.3076 -1.1071 -0.7418
  896SOL    MW4 3657   3.143   0.059   1.473  0.0653 -0.0314 -0.6155
  897SOL     OW 3658   3.159   0.356   1.539  0.1830 -0.1560 -0.4547
  897SOL    HW2 3659   3.159   0.262   1.521  0.3068 -0.1997 -0.2283
  897SOL    HW3 3660   3.071   0.385   1.514 -0.5556 -0.7172  1.4084
  897SOL    MW4 3661   3.147   0.347   1.533  0.1018 -0.2358 -0.1789
  898SOL     OW 3662   3.372   0.525   1.507  0.3535 -0.1994  0.4775
  898SOL    HW2 3663   3.295   0.473   1.531  0.6666 -0.5238  0.7847
  898SOL    HW3 3664   3.386   0.506   1.414  0.4547 -0.6520  0.5827
  898SOL    MW4 3665   3.364   0.516   1.498  0.4084 -0.3020  0.5320
  899SOL     OW 3666   3.384   0.771   1.616 -0.2770  0.0434  0.4754
  899SOL    HW2 3667   3.377   0.770   1.711 -1.6582 -0.8349  0.3803
  899SOL    HW3 3668   3.375   0.679   1.591  2.6859 -0.0645 -0.3412
  899SOL    MW4 3669   3.382   0.759   1.625 -0.0684 -0.0866  0.3550
  900SOL     OW 3670   3.144   0.857   1.511  0.4199 -0.7131  0.7899
  900SOL    HW2 3671   3.220   0.814   1.549 -0.6472 -1.0452  2.6157
  900SOL    HW3 3672   3.069   0.814   1.553 -0.8159 -0.9665 -1.5685
  900SOL    MW4 3673   3.144   0.845   1.522  0.1159 -0.7904  0.7197
  901SOL     OW 3674   3.108   1.132   1.581 -0.5417 -0.8640 -0.1622
  901SOL    HW2 3675   3.119   1.121   1.675  0.7409 -0.1619 -0.2165
  901SOL    HW3 3676   3.120   1.044   1.545  2.1375 -0.6484  0.0654
  901SOL    MW4 3677   3.111   1.119   1.588 -0.0188 -0.7430 -0.1394
  902SOL     OW 3678   3.331   1.268   1.488  0.0860 -0.1222  0.0629
  902SOL    HW2 3679   3.410   1.222   1.517  0.1624  0.8253  1.3972
  902SOL    HW3 3680   3.259   1.221   1.531 -0.0063 -0.3662 -0.3553
  902SOL    MW4 3681   3.332   1.255   1.498  0.0839 -0.0294  0.1838
  903SOL     OW 3682   3.400   1.551   1.547  0.2366  0.2629  0.1862
  903SOL    HW2 3683   3.385   1.553   1.641  1.4800  0.1401  0.3968
  903SOL    HW3 3684   3.368   1.466   1.519  1.1367 -0.2625  0.7300
  903SOL    MW4 3685   3.394   1.540   1.555  0.5193  0.1775  0.2856
  904SOL     OW 3686   3.163   1.655   1.462  0.3207  0.4921  0.4730
  904SOL    HW2 3687   3.243   1.622   1.502 -0.6901 -2.4612  0.1355
  904SOL    HW3 3688   3.092   1.613   1.510 -0.9488 -0.6358 -2.2645
  904SOL    MW4 3689   3.165   1.645   1.473  0.0198 -0.0464  0.0674
  905SOL     OW 3690   3.207   1.901   1.589  0.1696 -0.1830 -0.8160
  905SOL    HW2 3691   3.199   1.809   1.564 -0.0535 -0.5817  0.6774
  905SOL    HW3 3692   3.126   1.941   1.558  0.0060 -0.6204 -0.9579
  905SOL    MW4 3693   3.195   1.894   1.582  0.1185 -0.2933 -0.6377
  906SOL     OW 3694   3.420   2.020   1.457 -0.2082  0.0513 -0.2100
  906SOL    HW2 3695   3.346   1.966   1.484 -1.1889  0.7322 -1.4781
  906SOL    HW3 3696   3.405   2.037   1.364  0.8850  1.2406 -0.1892
  906SOL    MW4 3697   3.408   2.015   1.448 -0.1934  0.2980 -0.3746
  907SOL     OW 3698   3.375   2.264   1.567 -0.2125 -0.0118 -0.1158
  907SOL    HW2 3699   3.446   2.310   1.522 -0.9459  0.3003 -0.9665
  907SOL    HW3 3700   3.387   2.172   1.543 -1.3202  0.3015 -1.9768
  907SOL    MW4 3701   3.386   2.258   1.558 -0.4551  0.0706 -0.4735
  908SOL     OW 3702   3.160   2.423   1.521  0.0044 -0.2089 -0.3333
  908SOL    HW2 3703   3.240   2.371   1.532  0.9592  1.2575 -0.1679
  908SOL    HW3 3704   3.090   2.365   1.548  1.2347 -0.7383  1.9031
  908SOL    MW4 3705   3.162   2.409   1.526  0.2925 -0.0854 -0.0163
  909SOL     OW 3706   3.149   2.706   1.609 -0.4769 -0.1031 -0.0396
  909SOL    HW2 3707   3.236   2.729   1.577 -0.7602 -0.1996 -0.8842
  909SOL    HW3 3708   3.131   2.620   1.572 -0.1234 -0.9733  1.7371
  909SOL    MW4 3709   3.158   2.698   1.600 -0.4673 -0.2306  0.0833
  910SOL     OW 3710   3.382   2.801   1.482  0.5826 -0.0800 -0.1543
  910SOL    HW2 3711   3.368   2.888   1.519 -1.2918  0.1844 -1.3971
  910SOL    HW3 3712   3.364   2.812   1.389 -0.7540 -2.0225 -0.1563
  910SOL    MW4 3713   3.378   2.814   1.475  0.1590 -0.3011 -0.3184
  911SOL     OW 3714   3.320   3.040   1.604 -0.0684 -0.3333  0.0887
  911SOL    HW2 3715   3.312   3.049   1.699 -0.6220  1.1256 -0.0728
  911SOL    HW3 3716   3.390   3.102   1.581 -0.4305 -0.1509 -0.5241
  911SOL    MW4 3717   3.328   3.050   1.614 -0.1893 -0.1168 -0.0134
  912SOL     OW 3718   3.135   3.191   1.483  0.0122  0.1853  0.0890
  912SOL    HW2 3719   3.191   3.125   1.525  0.6934  0.4580 -0.3896
  912SOL    HW3 3720   3.158   3.186   1.390  0.5876  1.6084  0.1494
  912SOL    MW4 3721   3.146   3.181   1.476  0.1781  0.4094  0.0339
  913SOL     OW 3722   3.179   3.440   1.587 -0.5338  0.1890 -0.0392
  913SOL    HW2 3723   3.179   3.355   1.542 -0.4553 -0.4042  1.0560
  913SOL    HW3 3724   3.111   3.491   1.543 -0.2570 -0.2716 -1.0198
  913SOL    MW4 3725   3.170   3.435   1.575 -0.4869  0.0498 -0.0241
  914SOL     OW 3726   3.404   3.598   1.498  0.1108  0.2468  0.2414
  914SOL    HW2 3727   3.489   3.564   1.527  0.5942  0.7079 -0.6047
  914SOL    HW3 3728   3.340   3.544   1.543  0.8502 -1.7980 -1.0724
  914SOL    MW4 3729   3.407   3.587   1.508  0.2725  0.0379 -0.0436
  915SOL     OW 3730   3.371   3.863   1.601  0.2379  0.0470  0.2702
  915SOL    HW2 3731   3.292   3.880   1.549  0.6266 -0.2541 -0.4168
  915SOL    HW3 3732   3.391   3.771   1.585  0.2867 -0.0865  1.0600
  915SOL    MW4 3733   3.363   3.854   1.592  0.2956 -0.0103  0.2837
  916SOL     OW 3734   3.151   3.985   1.468 -0.1096  0.0851 -0.2288
  916SOL    HW2 3735   3.168   4.073   1.500  0.9815 -0.0535 -0.3933
  916SOL    HW3 3736   3.073   3.956   1.515  0.8205  0.3031  1.4911
  916SOL    MW4 3737   3.143   3.993   1.479  0.1569  0.0954 -0.0236
  917SOL     OW 3738   3.172   4.237   1.580  0.0042  0.8321  0.3953
  917SOL    HW2 3739   3.146   4.212   1.668 -0.1819 -0.2051  0.0527
  917SOL    HW3 3740   3.095   4.283   1.545  0.2614  1.6876  0.9425
  917SOL    MW4 3741   3.158   4.240   1.587  0.0136  0.8078  0.4221
  918SOL     OW 3742   3.419   4.362   1.541  0.1767  0.1003 -0.0530
  918SOL    HW2 3743   3.334   4.330   1.571  0.5898  1.0186  2.1156
  918SOL    HW3 3744   3.407   4.376   1.447 -2.1539  0.5327  0.2905
  918SOL    MW4 3745   3.407   4.360   1.532 -0.0765  0.2789  0.2784
  919SOL     OW 3746   3.771   4.644   1.614  0.5182 -0.1325  0.0788
  919SOL    HW2 3747   3.786   4.640   1.708  0.4631  1.3941  0.1679
  919SOL    HW3 3748   3.853   4.679   1.578 -0.2873  1.5117 -0.1816
  919SOL    MW4 3749   3.784   4.648   1.622  0.4046  0.2851  0.0563
  920SOL     OW 3750   3.551   0.115   1.484  0.0460 -0.3612  0.2426
  920SOL    HW2 3751   3.638   0.092   1.517  0.3872  0.8461  0.2076
  920SOL    HW3 3752   3.556   0.101   1.390 -0.1791 -1.4569  0.3834
  920SOL    MW4 3753   3.563   0.110   1.476  0.0610 -0.3465  0.2565
  921SOL     OW 3754   3.570   0.383   1.598  0.6842  0.0069 -0.5706
  921SOL    HW2 3755   3.553   0.296   1.562  0.7888  0.7484 -2.4417
  921SOL    HW3 3756   3.494   0.435   1.574  0.1554  0.1820  1.4285
  921SOL    MW4 3757   3.558   0.379   1.590  0.6282  0.1278 -0.5538
  922SOL     OW 3758   3.779   0.530   1.507 -0.1804 -0.2683  0.5404
  922SOL    HW2 3759   3.711   0.464   1.520  0.1183 -0.7631 -0.3107
  922SOL    HW3 3760   3.810   0.515   1.417  0.5686  0.3938  0.6775
  922SOL    MW4 3761   3.774   0.519   1.497 -0.0422 -0.2462  0.4463
  923SOL     OW 3762   3.868   0.767   1.606 -0.1336  0.1827 -0.6124
  923SOL    HW2 3763   3.801   0.823   1.567  0.6620 -0.3927 -2.8367
  923SOL    HW3 3764   3.846   0.679   1.578  0.7611 -0.1803 -0.1915
  923SOL    MW4 3765   3.856   0.763   1.597  0.0892  0.0589 -0.8504
  924SOL     OW 3766   3.605   0.884   1.505  0.1464 -0.2321  0.1290
  924SOL    HW2 3767   3.533   0.836   1.547  1.8566 -2.2481  0.8279
  924SOL    HW3 3768   3.602   0.856   1.414 -0.6637  0.6130 -0.1235
  924SOL    MW4 3769   3.595   0.874   1.499  0.2649 -0.3867  0.1878
  925SOL     OW 3770   3.582   1.155   1.564  0.2313  0.5932  0.3837
  925SOL    HW2 3771   3.662   1.185   1.522 -0.5988  0.6800 -1.1768
  925SOL    HW3 3772   3.578   1.061   1.544 -0.5387  0.7803 -0.3461
  925SOL    MW4 3773   3.592   1.147   1.556  0.0198  0.6293  0.0815
  926SOL     OW 3774   3.847   1.287   1.514 -0.2447 -0.1818 -0.0451
  926SOL    HW2 3775   3.914   1.245   1.568  0.4413  0.2184 -0.5761
  926SOL    HW3 3776   3.843   1.377   1.547  0.1028  0.0359 -0.5861
  926SOL    MW4 3777   3.855   1.294   1.525 -0.1082 -0.1003 -0.1866
  927SOL     OW 3778   3.847   1.541   1.614 -0.0506  0.1494  0.0378
  927SOL    HW2 3779   3.842   1.537   1.710  0.2834  0.7045  0.0776
  927SOL    HW3 3780   3.762   1.577   1.587  0.0797  0.5394  0.1550
  927SOL    MW4 3781   3.835   1.545   1.623  0.0107  0.2741  0.0585
  928SOL     OW 3782   3.646   1.634   1.444  0.0453 -0.4079  0.0056
  928SOL    HW2 3783   3.561   1.600   1.471  0.3701 -1.0456  0.2257
  928SOL    HW3 3784   3.651   1.721   1.483 -0.9480  0.0469 -0.8718
  928SOL    MW4 3785   3.636   1.641   1.453 -0.0429 -0.4320 -0.0812
  929SOL     OW 3786   3.642   1.872   1.587 -0.3179 -0.1029 -0.0402
  929SOL    HW2 3787   3.572   1.921   1.545  0.4747  0.8245 -0.3082
  929SOL    HW3 3788   3.632   1.893   1.680 -1.0434 -0.8236  0.0500
  929SOL    MW4 3789   3.632   1.882   1.594 -0.3092 -0.0756 -0.0635
  930SOL     OW 3790   3.820   2.056   1.468  0.4995 -0.2743 -0.3980
  930SOL    HW2 3791   3.786   2.125   1.524 -0.5082 -0.6682 -0.5264
  930SOL    HW3 3792   3.776   1.976   1.498  2.4559 -1.0807  0.4912
  930SOL    MW4 3793   3.810   2.054   1.479  0.6249 -0.4327 -0.2975
  931SOL     OW 3794   3.813   2.321   1.556  0.4238 -0.0706 -0.3381
  931SOL    HW2 3795   3.805   2.314   1.651  0.4160  0.0394 -0.3304
  931SOL    HW3 3796   3.901   2.356   1.542  0.8787 -1.2240 -0.4204
  931SOL    MW4 3797   3.824   2.324   1.567  0.4830 -0.2086 -0.3479
  932SOL     OW 3798   3.576   2.395   1.454 -0.1082 -0.0027 -0.1066
  932SOL    HW2 3799   3.573   2.484   1.490  1.0865  0.3708 -0.9104
  932SOL    HW3 3800   3.657   2.357   1.489 -0.1042 -0.4256 -0.5634
  932SOL    MW4 3801   3.586   2.402   1.463  0.0498 -0.0093 -0.2730
  933SOL     OW 3802   3.607   2.668   1.570  0.7556  0.1111  0.5556
  933SOL    HW2 3803   3.597   2.651   1.664 -0.7277 -0.6397  0.2725
  933SOL    HW3 3804   3.531   2.721   1.548 -0.2080 -1.7782 -0.7205
  933SOL    MW4 3805   3.596   2.673   1.580  0.4330 -0.2367  0.3499
  934SOL     OW 3806   3.821   2.851   1.490  0.3356  0.1548 -0.1151
  934SOL    HW2 3807   3.901   2.799   1.498  0.1830 -0.6554 -3.2783
  934SOL    HW3 3808   3.752   2.793   1.524  0.8017  0.1335  0.8222
  934SOL    MW4 3809   3.823   2.836   1.496  0.3769  0.0453 -0.4086
  935SOL     OW 3810   3.754   3.087   1.608 -0.0600 -0.1412  0.0869
  935SOL    HW2 3811   3.824   3.138   1.566  0.1580  0.3155  1.0063
  935SOL    HW3 3812   3.771   2.997   1.581  0.9555 -0.0550  0.4071
  935SOL    MW4 3813   3.766   3.082   1.599  0.1028 -0.0696  0.2505
  936SOL     OW 3814   3.526   3.223   1.538  0.6390  0.3837 -0.2135
  936SOL    HW2 3815   3.599   3.177   1.578  0.8340 -0.3846 -1.4058
  936SOL    HW3 3816   3.550   3.229   1.445 -0.6568  0.4252 -0.5490
  936SOL    MW4 3817   3.539   3.218   1.531  0.4938  0.2878 -0.4151
  937SOL     OW 3818   3.641   3.474   1.605 -0.1729  0.5121 -0.2422
  937SOL    HW2 3819   3.708   3.495   1.540 -1.2202  1.6259 -0.9856
  937SOL    HW3 3820   3.601   3.393   1.574 -0.9583  1.2667 -1.2237
  937SOL    MW4 3821   3.645   3.466   1.593 -0.4146  0.7584 -0.4696
  938SOL     OW 3822   3.818   3.586   1.426  0.2941 -0.7721  0.0904
  938SOL    HW2 3823   3.889   3.541   1.471 -0.1143 -1.0781  0.4244
  938SOL    HW3 3824   3.816   3.673   1.466  1.0556 -0.4550 -0.5275
  938SOL    MW4 3825   3.827   3.592   1.437  0.3407 -0.7706  0.0529
  939SOL     OW 3826   3.788   3.843   1.561  0.4025 -0.3228  0.4227
  939SOL    HW2 3827   3.861   3.888   1.519 -0.2240  0.1053 -0.2205
  939SOL    HW3 3828   3.710   3.885   1.525 -0.1898 -1.5993  0.1829
  939SOL    MW4 3829   3.787   3.855   1.551  0.2418 -0.4349  0.3062
  940SOL     OW 3830   3.576   3.982   1.456  0.1541 -0.4259 -0.3771
  940SOL    HW2 3831   3.592   4.064   1.503  0.7739 -1.5183  1.4026
  940SOL    HW3 3832   3.508   3.938   1.507 -0.1306 -1.0281 -1.2771
  940SOL    MW4 3833   3.569   3.987   1.469  0.1984 -0.6495 -0.2611
  941SOL     OW 3834   3.632   4.197   1.622 -0.2529  0.3403 -0.1528
  941SOL    HW2 3835   3.625   4.174   1.714  1.3849  0.2612 -0.0316
  941SOL    HW3 3836   3.560   4.259   1.607 -0.1027  0.8818  1.3391
  941SOL    MW4 3837   3.621   4.202   1.632 -0.0172  0.4015  0.0601
  942SOL     OW 3838   3.807   4.375   1.510  0.8690  0.3172 -0.0715
  942SOL    HW2 3839   3.756   4.314   1.562  1.1117 -0.6132 -0.9187
  942SOL    HW3 3840   3.796   4.459   1.554  0.5439 -0.3343  1.1027
  942SOL    MW4 3841   3.799   4.378   1.523  0.8581  0.1082 -0.0284
  943SOL     OW 3842   4.198   4.608   1.618 -0.4740 -0.0855 -0.1787
  943SOL    HW2 3843   4.213   4.615   1.712  0.1674  1.0025 -0.3555
  943SOL    HW3 3844   4.241   4.526   1.592  1.9569  1.1112 -0.0396
  943SOL    MW4 3845   4.205   4.598   1.627 -0.0687  0.2165 -0.1837
  944SOL     OW 3846   4.007   0.118   1.524  0.0283  0.0759 -0.0103
  944SOL    HW2 3847   4.013   0.201   1.570  1.2019  0.9972 -1.7732
  944SOL    HW3 3848   4.080   0.067   1.558 -0.2886  0.0056  0.5756
  944SOL    MW4 3849   4.017   0.122   1.535  0.1411  0.1882 -0.1655
  945SOL     OW 3850   4.045   0.397   1.636  0.4504  0.2110 -0.3148
  945SOL    HW2 3851   4.038   0.394   1.731  1.1466  0.1828 -0.2642
  945SOL    HW3 3852   3.966   0.443   1.608 -0.4875 -1.0608  0.1802
  945SOL    MW4 3853   4.034   0.403   1.645  0.4182  0.0395 -0.2427
  946SOL     OW 3854   4.292   0.455   1.522 -0.2470 -0.1416 -0.3469
  946SOL    HW2 3855   4.211   0.428   1.565 -0.6834  2.2194  0.4210
  946SOL    HW3 3856   4.362   0.410   1.569 -1.1087 -2.3168 -1.1159
  946SOL    MW4 3857   4.291   0.446   1.534 -0.4177 -0.1171 -0.3471
  947SOL     OW 3858   4.338   0.725   1.564  0.2728 -0.0142  0.4909
  947SOL    HW2 3859   4.335   0.634   1.533  0.5170  0.6256 -1.4737
  947SOL    HW3 3860   4.414   0.763   1.519 -0.5671  1.5090  0.3274
  947SOL    MW4 3861   4.348   0.718   1.554  0.1941  0.2712  0.2102
  948SOL     OW 3862   4.105   0.897   1.513  0.0637  0.0360  0.1341
  948SOL    HW2 3863   4.188   0.851   1.530  0.2959  0.8929  1.4373
  948SOL    HW3 3864   4.038   0.831   1.531  0.4335 -0.3583  0.0986
  948SOL    MW4 3865   4.107   0.882   1.518  0.1435  0.0970  0.3012
  949SOL     OW 3866   4.051   1.152   1.634 -0.0596  0.0169 -0.4768
  949SOL    HW2 3867   4.055   1.134   1.728 -1.2600  0.1448 -0.3930
  949SOL    HW3 3868   4.065   1.067   1.593  0.2528 -0.0763 -0.1859
  949SOL    MW4 3869   4.053   1.139   1.641 -0.1764  0.0215 -0.4274
  950SOL     OW 3870   4.260   1.267   1.504  0.0863 -0.5999  0.2225
  950SOL    HW2 3871   4.179   1.235   1.543  0.5868 -0.3505  1.4736
  950SOL    HW3 3872   4.330   1.218   1.547  0.7886  1.3896  1.4418
  950SOL    MW4 3873   4.258   1.257   1.515  0.2451 -0.3045  0.5484
  951SOL     OW 3874   4.258   1.545   1.608  0.1013 -0.2965  0.1299
  951SOL    HW2 3875   4.259   1.459   1.565  3.1278 -0.4818  0.4526
  951SOL    HW3 3876   4.342   1.584   1.584 -0.5700  1.9328  1.3095
  951SOL    MW4 3877   4.269   1.539   1.599  0.4115 -0.0267  0.3282
  952SOL     OW 3878   4.045   1.707   1.517 -0.0727 -0.5461 -0.0189
  952SOL    HW2 3879   4.114   1.652   1.556  0.3218  0.5517  0.8538
  952SOL    HW3 3880   3.964   1.660   1.535  0.1953 -0.5225  1.3054
  952SOL    MW4 3881   4.044   1.694   1.524  0.0148 -0.3983  0.2710
  953SOL     OW 3882   4.090   1.981   1.541  0.3686  0.5201 -0.8061
  953SOL    HW2 3883   4.093   1.888   1.518 -0.7307  0.0569  0.8258
  953SOL    HW3 3884   4.000   2.007   1.526  0.0651  0.6680  1.0955
  953SOL    MW4 3885   4.079   1.972   1.536  0.1831  0.4784 -0.3399
  954SOL     OW 3886   4.346   2.083   1.464 -0.2243  0.0966  0.4829
  954SOL    HW2 3887   4.258   2.055   1.488 -0.5275  0.7615  0.1800
  954SOL    HW3 3888   4.338   2.111   1.372  0.4811 -0.5999  0.1986
  954SOL    MW4 3889   4.333   2.083   1.455 -0.1712  0.0923  0.4055
  955SOL     OW 3890   4.301   2.310   1.625 -0.3761 -0.1164  0.3056
  955SOL    HW2 3891   4.282   2.302   1.719 -0.2059  0.7108  0.4161
  955SOL    HW3 3892   4.318   2.220   1.596 -2.2019 -0.6138  0.6849
  955SOL    MW4 3893   4.301   2.297   1.634 -0.5946 -0.0730  0.3703
  956SOL     OW 3894   4.045   2.448   1.484 -0.3827  0.1668  0.6152
  956SOL    HW2 3895   4.037   2.537   1.519 -0.3283  0.1326  0.7145
  956SOL    HW3 3896   4.132   2.419   1.511  0.3068  0.7359 -0.9217
  956SOL    MW4 3897   4.055   2.456   1.492 -0.2847  0.2375  0.4256
  957SOL     OW 3898   4.039   2.714   1.571  0.0760  0.2780 -0.2277
  957SOL    HW2 3899   4.037   2.713   1.667 -0.9008  1.6567 -0.2298
  957SOL    HW3 3900   4.114   2.768   1.549  1.5063 -1.6721 -0.2560
  957SOL    MW4 3901   4.049   2.721   1.581  0.1359  0.2024 -0.2315
  958SOL     OW 3902   4.264   2.842   1.501 -0.1410  0.0483 -0.4472
  958SOL    HW2 3903   4.267   2.935   1.527  1.8259 -0.5372  1.6083
  958SOL    HW3 3904   4.268   2.843   1.406 -1.4608  2.1096 -0.5205
  958SOL    MW4 3905   4.265   2.855   1.492 -0.0553  0.2429 -0.1856
  959SOL     OW 3906   4.209   3.108   1.584  0.4054  0.3093  0.0634
  959SOL    HW2 3907   4.206   3.114   1.679 -0.0634 -0.4949  0.0995
  959SOL    HW3 3908   4.299   3.133   1.562  2.0317 -4.0913  1.0905
  959SOL    MW4 3909   4.221   3.112   1.594  0.5579 -0.3774  0.2037
  960SOL     OW 3910   3.961   3.220   1.513  0.4525  0.2687 -0.3440
  960SOL    HW2 3911   3.988   3.310   1.532 -0.0624  0.5465 -0.9176
  960SOL    HW3 3912   4.041   3.168   1.524  0.9168  0.8967 -0.7104
  960SOL    MW4 3913   3.975   3.225   1.517  0.4458  0.3886 -0.4681
  961SOL     OW 3914   4.031   3.487   1.562  0.2466  0.6369  0.1408
  961SOL    HW2 3915   4.035   3.478   1.658  2.0209 -0.0835  0.0179
  961SOL    HW3 3916   4.113   3.530   1.539 -0.3553  1.1673 -1.0420
  961SOL    MW4 3917   4.042   3.492   1.572  0.4015  0.6118 -0.0314
  962SOL     OW 3918   4.279   3.608   1.476  0.0605 -0.7398  0.2969
  962SOL    HW2 3919   4.276   3.704   1.481  0.0575 -0.7070 -0.3391
  962SOL    HW3 3920   4.260   3.588   1.384 -0.3274 -1.3680  0.5105
  962SOL    MW4 3921   4.276   3.618   1.464  0.0086 -0.8183  0.2412
  963SOL     OW 3922   4.263   3.873   1.555 -0.2051  0.0250  0.2977
  963SOL    HW2 3923   4.254   3.882   1.650 -1.8761  0.9676  0.0562
  963SOL    HW3 3924   4.179   3.901   1.520  0.6352  0.3191 -1.5120
  963SOL    MW4 3925   4.251   3.878   1.563 -0.3142  0.1881  0.0272
  964SOL     OW 3926   4.023   3.993   1.473  0.0598 -0.1034  0.4703
  964SOL    HW2 3927   4.062   4.078   1.492 -0.3234  0.3449 -0.7026
  964SOL    HW3 3928   4.005   3.996   1.379 -1.4314 -0.8531  0.7204
  964SOL    MW4 3929   4.025   4.005   1.463 -0.1874 -0.1431  0.3486
  965SOL     OW 3930   4.064   4.261   1.565 -0.2859 -0.7513 -0.2159
  965SOL    HW2 3931   4.072   4.262   1.660 -0.0289 -1.6405 -0.2219
  965SOL    HW3 3932   3.979   4.302   1.547  1.2743  2.8275  0.1900
  965SOL    MW4 3933   4.054   4.266   1.575 -0.0463 -0.3963 -0.1632
  966SOL     OW 3934   4.286   4.383   1.457  0.0293 -0.3080 -0.1559
  966SOL    HW2 3935   4.223   4.325   1.501 -0.9110  0.7120 -0.1385
  966SOL    HW3 3936   4.257   4.385   1.366 -0.5600  0.9440  0.0533
  966SOL    MW4 3937   4.274   4.376   1.451 -0.1726 -0.0081 -0.1261
  967SOL     OW 3938   0.282   4.608   1.947  0.0952  0.1321 -0.7179
  967SOL    HW2 3939   0.354   4.668   1.968  0.2954 -0.1021 -0.7393
  967SOL    HW3 3940   0.264   4.624   1.854 -0.1940  0.5266 -0.5969
  967SOL    MW4 3941   0.289   4.618   1.937  0.0834  0.1531 -0.7048
  968SOL     OW 3942   0.027   0.053   2.010 -0.0605  0.3592  0.2757
  968SOL    HW2 3943   0.017   0.146   1.988 -0.9099 -0.2551 -2.0384
  968SOL    HW3 3944   0.120   0.035   1.998  0.0057  0.7693  0.1554
  968SOL    MW4 3945   0.038   0.063   2.006 -0.1638  0.3323 -0.0458
  969SOL     OW 3946   4.480   0.323   1.959  0.3614  0.5220  0.0426
  969SOL    HW2 3947   4.400   0.371   1.981  0.1282 -0.5777  1.7350
  969SOL    HW3 3948   4.551   0.381   1.982  0.0628  1.2984 -0.9614
  969SOL    MW4 3949   4.479   0.337   1.965  0.2913  0.4794  0.1335
  970SOL     OW 3950   0.208   0.505   2.006 -0.4021 -0.2540 -0.3837
  970SOL    HW2 3951   0.296   0.468   2.000  0.2277  1.0180  0.8805
  970SOL    HW3 3952   0.211   0.585   1.954  0.0193  1.2974  1.9583
  970SOL    MW4 3953   0.220   0.511   1.999 -0.2634  0.1185  0.0923
  971SOL     OW 3954   0.223   0.754   1.903 -0.4182 -0.1016  0.2309
  971SOL    HW2 3955   0.300   0.803   1.931  0.3046 -0.3003 -1.4032
  971SOL    HW3 3956   0.231   0.746   1.809 -2.2199 -0.5163  0.0782
  971SOL    MW4 3957   0.234   0.760   1.895 -0.5606 -0.1826 -0.0048
  972SOL     OW 3958   4.488   0.871   1.987  0.1311 -0.5935 -0.0876
  972SOL    HW2 3959   4.424   0.830   1.929 -0.7981 -0.9641  1.1743
  972SOL    HW3 3960   4.572   0.830   1.963 -0.7184 -3.0214  0.9073
  972SOL    MW4 3961   4.491   0.860   1.976 -0.1035 -0.9627  0.2102
  973SOL     OW 3962   0.050   1.138   1.900 -0.2041 -0.7022  0.1306
  973SOL    HW2 3963  -0.030   1.180   1.929 -0.4155 -1.7277  1.0827
  973SOL    HW3 3964   0.035   1.044   1.916  0.6466 -1.0331 -0.9547
  973SOL    MW4 3965   0.038   1.131   1.906 -0.1198 -0.8811  0.1130
  974SOL     OW 3966   0.241   1.287   2.022 -0.3674  0.0497  0.3016
  974SOL    HW2 3967   0.223   1.376   1.991 -1.2473 -0.3807 -0.4601
  974SOL    HW3 3968   0.170   1.235   1.985  1.0997 -1.2758 -0.6964
  974SOL    MW4 3969   0.229   1.292   2.013 -0.2899 -0.1820  0.0696
  975SOL     OW 3970   0.211   1.529   1.895  0.1265  0.3025  0.2145
  975SOL    HW2 3971   0.289   1.563   1.939  0.5392 -0.7852  0.3164
  975SOL    HW3 3972   0.140   1.585   1.927  0.7487  0.8678  0.6325
  975SOL    MW4 3973   0.212   1.541   1.905  0.2631  0.2337  0.2830
  976SOL     OW 3974   4.479   1.674   2.012  0.2034  0.1178  0.8949
  976SOL    HW2 3975   4.441   1.658   2.098  0.1787 -0.1321  0.8407
  976SOL    HW3 3976   4.413   1.640   1.951  0.5051 -0.3111  0.7987
  976SOL    MW4 3977   4.465   1.667   2.015  0.2403  0.0283  0.8748
  977SOL     OW 3978   4.474   1.921   1.908  0.2307  0.0664  0.0998
  977SOL    HW2 3979   4.390   1.959   1.933  0.0571  0.0992 -0.5112
  977SOL    HW3 3980   4.471   1.832   1.942  0.0594  0.1573  0.3243
  977SOL    MW4 3981   4.462   1.914   1.916  0.1850  0.0827  0.0490
  978SOL     OW 3982   0.229   2.027   1.977  0.2989  0.1302 -0.0320
  978SOL    HW2 3983   0.236   2.119   1.952  2.1309  0.4455  1.4848
  978SOL    HW3 3984   0.147   1.997   1.938  0.9123  1.7103 -2.6820
  978SOL    MW4 3985   0.219   2.035   1.968  0.6216  0.3803 -0.1816
  979SOL     OW 3986   0.211   2.294   1.897  0.0191 -0.4180  0.0598
  979SOL    HW2 3987   0.136   2.343   1.931 -0.3625 -1.1890  0.3697
  979SOL    HW3 3988   0.284   2.355   1.899  0.0367 -0.4533  2.3991
  979SOL    MW4 3989   0.211   2.308   1.902 -0.0289 -0.5243  0.4094
  980SOL     OW 3990   4.221   2.836   2.000  0.3397 -0.0625 -0.6291
  980SOL    HW2 3991   4.282   2.776   1.958  0.0006 -0.9921  0.1840
  980SOL    HW3 3992   4.236   2.825   2.094 -1.7333 -1.0453 -0.3733
  980SOL    MW4 3993   4.231   2.827   2.007  0.0215 -0.3152 -0.4880
  981SOL     OW 3994   4.446   2.720   1.863  0.2708 -0.4107  0.0359
  981SOL    HW2 3995   4.470   2.640   1.909  2.5337 -0.9061 -1.9023
  981SOL    HW3 3996   4.454   2.698   1.770 -3.2349  0.8490 -0.6349
  981SOL    MW4 3997   4.450   2.707   1.857  0.1073 -0.3097 -0.3083
  982SOL     OW 3998   0.162   2.851   1.986 -0.4579  0.3382  0.3385
  982SOL    HW2 3999   0.169   2.937   1.945  0.1588 -1.6015 -4.0003
  982SOL    HW3 4000   0.083   2.813   1.947  0.2725 -1.6893  0.7951
  982SOL    MW4 4001   0.153   2.857   1.975 -0.2802 -0.1853 -0.1737
  983SOL     OW 4002   0.183   3.107   1.868  0.4039  0.3595 -0.1811
  983SOL    HW2 4003   0.265   3.140   1.904  0.9947 -0.5887 -0.6271
  983SOL    HW3 4004   0.197   3.105   1.774 -0.7616  1.8358 -0.4051
  983SOL    MW4 4005   0.196   3.111   1.861  0.3281  0.4294 -0.2695
  984SOL     OW 4006   4.443   3.214   2.008  0.5516  0.3451 -0.2092
  984SOL    HW2 4007   4.369   3.160   1.981  0.4023  0.2767  0.3374
  984SOL    HW3 4008   4.518   3.176   1.962  0.5342 -0.6604  0.5742
  984SOL    MW4 4009   4.443   3.201   1.998  0.5298  0.2034 -0.0335
  985SOL     OW 4010   4.471   3.456   1.850 -0.0415  0.0433  0.1007
  985SOL    HW2 4011   4.552   3.500   1.875  0.4601 -0.8389  0.0575
  985SOL    HW3 4012   4.469   3.377   1.904 -0.4162 -0.4018 -0.5632
  985SOL    MW4 4013   4.481   3.451   1.861 -0.0248 -0.1316  0.0074
  986SOL     OW 4014   0.197   3.605   1.955 -0.3816  0.1800 -0.1907
  986SOL    HW2 4015   0.189   3.619   2.050  0.2009 -0.4443 -0.0416
  986SOL    HW3 4016   0.279   3.556   1.946  1.1520  2.8486 -1.2854
  986SOL    MW4 4017   0.207   3.601   1.967 -0.1024  0.4497 -0.3155
  987SOL     OW 4018   0.236   3.879   1.890  0.5482  0.0133  0.0090
  987SOL    HW2 4019   0.320   3.903   1.929  0.7253 -0.1838 -0.2527
  987SOL    HW3 4020   0.224   3.787   1.914  0.0732  0.2386  0.6465
  987SOL    MW4 4021   0.245   3.870   1.898  0.5089  0.0172  0.0587
  988SOL     OW 4022   4.476   3.998   1.966 -0.4910 -0.3718  0.0635
  988SOL    HW2 4023   4.477   4.087   1.930 -0.3949 -0.0752  0.7859
  988SOL    HW3 4024   4.554   3.956   1.930 -0.3327 -0.0371  0.0171
  988SOL    MW4 4025   4.486   4.004   1.957 -0.4573 -0.2880  0.1526
  989SOL     OW 4026   4.485   4.258   1.887 -0.0730  0.1489 -0.1762
  989SOL    HW2 4027   4.405   4.302   1.915 -0.7544  0.4376 -2.5322
  989SOL    HW3 4028   4.551   4.287   1.950 -1.1344  2.3148 -0.0238
  989SOL    MW4 4029   4.483   4.268   1.899 -0.3029  0.4730 -0.4668
  990SOL     OW 4030   0.231   4.352   2.022  0.4692 -0.2010 -0.0575
  990SOL    HW2 4031   0.262   4.344   2.112  1.2803 -0.7548 -0.3760
  990SOL    HW3 4032   0.241   4.445   2.002 -0.2497  0.0246  0.6084
  990SOL    MW4 4033   0.236   4.363   2.031  0.4814 -0.2441 -0.0117
  991SOL     OW 4034   0.704   4.646   1.894  0.1172 -0.1371 -0.2226
  991SOL    HW2 4035   0.712   4.554   1.921 -0.9306 -0.1661 -0.0242
  991SOL    HW3 4036   0.664   4.641   1.807 -0.4239  0.1650  0.0146
  991SOL    MW4 4037   0.700   4.633   1.886 -0.0925 -0.1006 -0.1650
  992SOL     OW 4038   0.497   0.103   2.029 -0.2668 -0.2730  0.2886
  992SOL    HW2 4039   0.507   0.197   2.009  0.1780 -0.4691 -0.4320
  992SOL    HW3 4040   0.577   0.063   1.993 -0.2406 -0.8617  1.0106
  992SOL    MW4 4041   0.509   0.110   2.021 -0.2047 -0.3765  0.2887
  993SOL     OW 4042   0.466   0.374   1.963  0.6191 -0.0010  0.6171
  993SOL    HW2 4043   0.534   0.439   1.976 -0.7748  1.3507  1.3396
  993SOL    HW3 4044   0.449   0.375   1.868  2.3694 -1.1694  0.2740
  993SOL    MW4 4045   0.473   0.383   1.952  0.6661  0.0232  0.6670
  994SOL     OW 4046   0.674   0.558   1.988  0.3151 -0.0094 -0.2173
  994SOL    HW2 4047   0.671   0.553   2.084  0.0140 -0.0829 -0.2290
  994SOL    HW3 4048   0.746   0.500   1.964  0.7183  0.4021 -0.0081
  994SOL    MW4 4049   0.683   0.550   1.998  0.3285  0.0352 -0.1912
  995SOL     OW 4050   0.710   0.796   1.847  0.3962  0.0381 -0.1726
  995SOL    HW2 4051   0.786   0.838   1.888 -0.8635  1.8686  0.2984
  995SOL    HW3 4052   0.700   0.714   1.895  0.7724  0.7701  1.1896
  995SOL    MW4 4053   0.719   0.791   1.859  0.2796  0.3762  0.0691
  996SOL     OW 4054   0.458   0.896   1.951  0.1461  0.1431 -0.2005
  996SOL    HW2 4055   0.468   0.991   1.941  0.0202 -0.1543 -3.7401
  996SOL    HW3 4056   0.543   0.860   1.924 -0.6160 -0.8551 -1.3224
  996SOL    MW4 4057   0.471   0.904   1.946  0.0289 -0.0278 -0.8154
  997SOL     OW 4058   0.475   1.182   1.899 -0.3979  0.1669  0.1718
  997SOL    HW2 4059   0.398   1.225   1.934 -0.5307 -0.0410  0.1388
  997SOL    HW3 4060   0.450   1.156   1.810 -0.0557  0.7118 -0.0825
  997SOL    MW4 4061   0.462   1.184   1.892 -0.3703  0.2114  0.1340
  998SOL     OW 4062   0.718   1.319   2.000  0.1093  0.5136 -0.0589
  998SOL    HW2 4063   0.711   1.305   2.094  1.5119  1.0268  0.1347
  998SOL    HW3 4064   0.636   1.284   1.964 -0.1582 -0.2487  1.2775
  998SOL    MW4 4065   0.706   1.313   2.007  0.2590  0.4807  0.1431
  999SOL     OW 4066   0.680   1.564   1.896  0.3048 -0.1510 -0.1173
  999SOL    HW2 4067   0.716   1.482   1.928  1.1899 -0.0946 -0.9612
  999SOL    HW3 4068   0.680   1.555   1.801 -2.2333 -0.2918 -0.1352
  999SOL    MW4 4069   0.685   1.552   1.887  0.0867 -0.1622 -0.2310
 1000SOL     OW 4070   0.436   1.636   2.006  0.4537  0.3113  0.3431
 1000SOL    HW2 4071   0.444   1.620   2.100 -0.6537 -1.0689  0.2180
 1000SOL    HW3 4072   0.525   1.625   1.973  0.7281  0.0993  1.1365
 1000SOL    MW4 4073   0.449   1.632   2.014  0.3438  0.1013  0.4313
 1001SOL     OW 4074   0.434   1.897   1.851  0.1352  0.0764 -0.1674
 1001SOL    HW2 4075   0.368   1.958   1.883 -0.7481 -0.5149 -0.8452
 1001SOL    HW3 4076   0.412   1.813   1.892  0.3122 -0.1758 -0.5758
 1001SOL    MW4 4077   0.422   1.894   1.860  0.0421 -0.0349 -0.3107
 1002SOL     OW 4078   0.657   2.074   1.908 -0.1416 -0.4787 -0.0143
 1002SOL    HW2 4079   0.665   2.055   2.001 -0.6915 -1.3602 -0.1428
 1002SOL    HW3 4080   0.590   2.013   1.876  0.6327 -0.7573 -1.1499
 1002SOL    MW4 4081   0.649   2.063   1.916 -0.1121 -0.6318 -0.1811
 1003SOL     OW 4082   0.639   2.337   1.871  0.5863 -0.0489  0.3900
 1003SOL    HW2 4083   0.644   2.242   1.881  1.0630 -0.0405  0.2292
 1003SOL    HW3 4084   0.648   2.352   1.777 -1.7420  0.0160  0.1443
 1003SOL    MW4 4085   0.641   2.326   1.860  0.3420 -0.0391  0.3364
 1004SOL     OW 4086   0.418   2.486   1.950  0.1106 -0.3887 -0.4420
 1004SOL    HW2 4087   0.425   2.475   2.045 -2.0931  0.9513 -0.0822
 1004SOL    HW3 4088   0.494   2.440   1.915  2.3503  1.1798  2.1162
 1004SOL    MW4 4089   0.429   2.479   1.958  0.1153 -0.0048 -0.0570
 1005SOL     OW 4090   0.395   2.740   1.841 -0.4242 -0.1186  0.0133
 1005SOL    HW2 4091   0.389   2.650   1.874 -0.3336 -0.5669 -1.1543
 1005SOL    HW3 4092   0.324   2.787   1.885 -0.4227 -0.7430  0.6895
 1005SOL    MW4 4093   0.385   2.734   1.851 -0.4120 -0.2601 -0.0515
 1006SOL     OW 4094   0.670   2.785   1.958 -0.1167  0.4585 -0.2773
 1006SOL    HW2 4095   0.660   2.810   2.050 -0.4497 -1.0282  0.1162
 1006SOL    HW3 4096   0.591   2.733   1.940  0.4064 -0.0488 -1.1196
 1006SOL    MW4 4097   0.658   2.781   1.968 -0.0917  0.1955 -0.3365
 1007SOL     OW 4098   0.638   3.064   1.864  0.0120  0.3646  0.1293
 1007SOL    HW2 4099   0.620   2.972   1.886 -0.4795  0.4627  0.1433
 1007SOL    HW3 4100   0.625   3.069   1.769  2.4310 -0.1280 -0.2605
 1007SOL    MW4 4101   0.634   3.052   1.854  0.2664  0.3126  0.0796
 1008SOL     OW 4102   0.434   3.194   1.991 -0.2156  0.0001 -0.6348
 1008SOL    HW2 4103   0.425   3.287   1.968  0.6871  0.4396  0.6614
 1008SOL    HW3 4104   0.509   3.164   1.941 -1.1690 -0.3254 -1.8816
 1008SOL    MW4 4105   0.443   3.202   1.982 -0.2223  0.0150 -0.6282
 1009SOL     OW 4106   0.434   3.477   1.907  0.2176 -0.0524  0.6908
 1009SOL    HW2 4107   0.520   3.514   1.928  1.0357 -1.5829  0.1106
 1009SOL    HW3 4108   0.432   3.473   1.812  0.0496 -1.3098  0.7478
 1009SOL    MW4 4109   0.445   3.482   1.897  0.3034 -0.4203  0.6219
 1010SOL     OW 4110   0.672   3.609   2.000  0.1242 -0.4502 -0.4806
 1010SOL    HW2 4111   0.760   3.575   1.982  0.3000 -0.1103 -0.2855
 1010SOL    HW3 4112   0.670   3.695   1.958  0.3238  0.0781  0.5596
 1010SOL    MW4 4113   0.684   3.616   1.992  0.1737 -0.3359 -0.3176
 1011SOL     OW 4114   0.668   3.853   1.875  0.0755 -0.2793 -0.1198
 1011SOL    HW2 4115   0.748   3.901   1.897  1.3804 -1.9800 -1.0744
 1011SOL    HW3 4116   0.664   3.855   1.780 -1.1225 -0.0633 -0.0688
 1011SOL    MW4 4117   0.678   3.860   1.866  0.0896 -0.4752 -0.2390
 1012SOL     OW 4118   0.467   3.984   1.996 -0.1956  0.3260 -0.1062
 1012SOL    HW2 4119   0.477   4.069   1.954 -0.3661 -0.2053 -1.2538
 1012SOL    HW3 4120   0.536   3.930   1.959  0.0938  0.0351  0.8293
 1012SOL    MW4 4121   0.477   3.988   1.986 -0.1799  0.2174 -0.1342
 1013SOL     OW 4122   0.466   4.252   1.915  0.1099 -0.5600 -0.6449
 1013SOL    HW2 4123   0.388   4.293   1.950  0.8709  0.0339  0.3922
 1013SOL    HW3 4124   0.452   4.249   1.821 -1.1045 -0.3612 -0.4727
 1013SOL    MW4 4125   0.454   4.257   1.907  0.0501 -0.4554 -0.4853
 1014SOL     OW 4126   0.722   4.376   1.968  0.1406  0.3820 -0.7617
 1014SOL    HW2 4127   0.787   4.320   1.926  1.3532 -0.4128  2.0890
 1014SOL    HW3 4128   0.639   4.330   1.956  0.6698 -0.4978 -1.0931
 1014SOL    MW4 4129   0.720   4.363   1.961  0.3704  0.1612 -0.4294
 1015SOL     OW 4130   1.135   4.606   1.881 -0.2417 -0.1480 -0.0369
 1015SOL    HW2 4131   1.213   4.657   1.904 -1.0065  0.0180  2.3678
 1015SOL    HW3 4132   1.139   4.529   1.937 -1.4505 -0.4764 -0.3801
 1015SOL    MW4 4133   1.146   4.603   1.892 -0.5021 -0.1693  0.2351
 1016SOL     OW 4134   0.932   0.100   1.976  0.1800  0.4272 -0.1782
 1016SOL    HW2 4135   1.003   0.043   1.949 -0.7271 -0.3950 -0.8269
 1016SOL    HW3 4136   0.853   0.058   1.944 -0.5550  1.6895 -0.0636
 1016SOL    MW4 4137   0.931   0.087   1.968 -0.0366  0.4853 -0.2487
 1017SOL     OW 4138   0.859   0.374   1.919  0.2280  0.5376  0.3708
 1017SOL    HW2 4139   0.937   0.414   1.958 -0.1416  2.0806 -0.4641
 1017SOL    HW3 4140   0.866   0.281   1.942  2.3283  0.6595  0.2466
 1017SOL    MW4 4141   0.870   0.367   1.927  0.4563  0.7573  0.2444
 1018SOL     OW 4142   1.116   0.510   1.978  0.1581  0.0507 -0.2113
 1018SOL    HW2 4143   1.195   0.470   1.944 -0.7139 -1.3320 -0.6666
 1018SOL    HW3 4144   1.118   0.600   1.946 -0.0031 -0.8511 -2.8654
 1018SOL    MW4 4145   1.126   0.517   1.970  0.0217 -0.2508 -0.6216
 1019SOL     OW 4146   1.154   0.754   1.886  0.8769  0.3752 -0.1322
 1019SOL    HW2 4147   1.221   0.819   1.909  0.1854  1.6502 -1.6425
 1019SOL    HW3 4148   1.071   0.801   1.897  0.3848 -0.1266 -1.6247
 1019SOL    MW4 4149   1.152   0.769   1.891  0.7207  0.4772 -0.5283
 1020SOL     OW 4150   0.918   0.904   1.989  0.1401 -0.3656 -0.3095
 1020SOL    HW2 4151   0.920   0.923   2.083 -2.1517 -1.9463  0.0848
 1020SOL    HW3 4152   0.907   0.990   1.948 -0.8862  0.1392  0.9872
 1020SOL    MW4 4153   0.917   0.918   1.996 -0.2976 -0.5076 -0.0864
 1021SOL     OW 4154   0.928   1.161   1.886  0.0040 -0.1326  0.1152
 1021SOL    HW2 4155   0.853   1.211   1.916 -0.2430 -0.4794  0.0830
 1021SOL    HW3 4156   0.912   1.146   1.792 -0.0065 -0.4157  0.1618
 1021SOL    MW4 4157   0.916   1.165   1.877 -0.0300 -0.2158  0.1172
 1022SOL     OW 4158   1.142   1.303   2.006  0.1815  0.0861  0.2495
 1022SOL    HW2 4159   1.136   1.388   1.961  1.1288  0.7528  1.3431
 1022SOL    HW3 4160   1.073   1.250   1.967  0.0955  1.1087 -1.0110
 1022SOL    MW4 4161   1.132   1.307   1.995  0.2952  0.3090  0.2275
 1023SOL     OW 4162   1.108   1.535   1.879  0.0690 -0.2513  0.0529
 1023SOL    HW2 4163   1.030   1.585   1.903  0.4281  0.2450  0.1966
 1023SOL    HW3 4164   1.111   1.539   1.784  1.2105  1.7252  0.1430
 1023SOL    MW4 4165   1.098   1.542   1.870  0.2668  0.0749  0.0838
 1024SOL     OW 4166   0.904   1.684   1.978  0.1142 -0.1127  0.0437
 1024SOL    HW2 4167   0.911   1.774   1.946  0.1048 -0.1099  0.0493
 1024SOL    HW3 4168   0.817   1.655   1.952  0.4491 -0.4227 -0.7275
 1024SOL    MW4 4169   0.893   1.692   1.971  0.1572 -0.1533 -0.0573
 1025SOL     OW 4170   0.914   1.962   1.859 -0.0223  0.0943  0.1889
 1025SOL    HW2 4171   0.843   2.020   1.887  0.1977  0.5739 -0.2388
 1025SOL    HW3 4172   0.905   1.957   1.764  0.7085  0.4078  0.1023
 1025SOL    MW4 4173   0.903   1.969   1.850  0.1032  0.1988  0.1210
 1026SOL     OW 4174   1.142   2.055   1.949  0.3858  0.2634  0.1447
 1026SOL    HW2 4175   1.139   2.148   1.928 -0.1915  0.2659  0.2318
 1026SOL    HW3 4176   1.057   2.022   1.922  0.0206  0.0636  1.5080
 1026SOL    MW4 4177   1.130   2.063   1.942  0.2615  0.2370  0.3359
 1027SOL     OW 4178   1.107   2.307   1.859  0.5653  0.1440  0.5389
 1027SOL    HW2 4179   1.183   2.346   1.902  1.4938 -0.5219 -0.4745
 1027SOL    HW3 4180   1.130   2.304   1.766 -0.6135 -0.2574  0.2446
 1027SOL    MW4 4181   1.120   2.312   1.853  0.5324  0.0033  0.3664
 1028SOL     OW 4182   0.876   2.424   1.985 -0.0464  0.0687 -0.0275
 1028SOL    HW2 4183   0.938   2.374   1.931 -0.1337 -0.3778  0.2773
 1028SOL    HW3 4184   0.790   2.390   1.960  0.0146 -1.2262  1.4841
 1028SOL    MW4 4185   0.873   2.413   1.974 -0.0499 -0.1612  0.2121
 1029SOL     OW 4186   0.894   2.683   1.866 -0.2303  0.1505  0.1826
 1029SOL    HW2 4187   0.885   2.592   1.894  0.1819 -0.1034 -0.4832
 1029SOL    HW3 4188   0.817   2.728   1.902 -0.1445 -0.3436  0.9735
 1029SOL    MW4 4189   0.882   2.677   1.874 -0.1647  0.0517  0.1991
 1030SOL     OW 4190   1.098   2.850   1.955  0.1427  0.2134  0.0160
 1030SOL    HW2 4191   1.085   2.853   2.050 -0.9387  0.3752 -0.1299
 1030SOL    HW3 4192   1.027   2.794   1.923  0.1220  0.6794 -0.7575
 1030SOL    MW4 4193   1.087   2.843   1.963 -0.0027  0.2961 -0.1053
 1031SOL     OW 4194   1.070   3.122   1.886  0.1179 -0.0640  0.5065
 1031SOL    HW2 4195   0.986   3.150   1.921  0.1483  0.2539  0.3258
 1031SOL    HW3 4196   1.080   3.032   1.916  0.5203  0.4666  2.0113
 1031SOL    MW4 4197   1.061   3.114   1.895  0.1751  0.0479  0.6810
 1032SOL     OW 4198   0.844   3.242   1.973 -0.1502 -0.4993  0.4762
 1032SOL    HW2 4199   0.855   3.232   2.068  0.3780 -1.3643  0.3177
 1032SOL    HW3 4200   0.774   3.181   1.951 -1.0819  0.5326  0.4785
 1032SOL    MW4 4201   0.836   3.233   1.983 -0.2034 -0.4773  0.4557
 1033SOL     OW 4202   0.909   3.496   1.876 -0.3123 -0.0542  0.1893
 1033SOL    HW2 4203   0.887   3.407   1.902  0.6591 -0.2731  0.2846
 1033SOL    HW3 4204   0.891   3.499   1.782 -1.2676 -0.0567  0.3639
 1033SOL    MW4 4205   0.903   3.485   1.867 -0.3102 -0.0834  0.2248
 1034SOL     OW 4206   1.092   3.647   1.996  0.0315 -0.1493 -0.6331
 1034SOL    HW2 4207   1.103   3.612   2.084 -2.0006  0.7737  0.0225
 1034SOL    HW3 4208   1.031   3.586   1.953  0.5364 -0.2624 -1.1979
 1034SOL    MW4 4209   1.085   3.634   2.002 -0.1700 -0.0422 -0.6208
 1035SOL     OW 4210   1.124   3.904   1.898  0.1665 -0.0547  0.3612
 1035SOL    HW2 4211   1.125   3.813   1.928 -1.2834 -0.6559 -1.3030
 1035SOL    HW3 4212   1.130   3.898   1.803 -0.1179  1.5754  0.2303
 1035SOL    MW4 4213   1.125   3.891   1.889 -0.0622  0.0808  0.1243
 1036SOL     OW 4214   0.883   3.994   1.979 -0.4023 -0.2771 -0.1203
 1036SOL    HW2 4215   0.869   3.975   2.071  0.4525 -1.3697 -0.2028
 1036SOL    HW3 4216   0.972   3.964   1.961 -0.5750 -0.1356 -1.3147
 1036SOL    MW4 4217   0.893   3.988   1.989 -0.3122 -0.4025 -0.2887
 1037SOL     OW 4218   0.927   4.225   1.828 -0.3422  0.5861  0.1914
 1037SOL    HW2 4219   0.996   4.266   1.881  0.2069  0.2039 -0.2254
 1037SOL    HW3 4220   0.906   4.144   1.875  0.3670  0.0903 -0.3370
 1037SOL    MW4 4221   0.934   4.220   1.841 -0.1761  0.4711  0.0668
 1038SOL     OW 4222   1.119   4.358   2.000 -0.5990  0.1391 -0.2633
 1038SOL    HW2 4223   1.104   4.355   2.095 -0.0539 -0.8073 -0.2018
 1038SOL    HW3 4224   1.200   4.309   1.987 -0.4125  0.6851 -1.1684
 1038SOL    MW4 4225   1.128   4.351   2.011 -0.5025  0.0858 -0.3746
 1039SOL     OW 4226   1.583   4.646   1.860  0.1413  0.0649  0.5127
 1039SOL    HW2 4227   1.665   4.691   1.881  0.4725 -0.3990  0.2199
 1039SOL    HW3 4228   1.589   4.563   1.908 -0.1330  0.0051  0.4413
 1039SOL    MW4 4229   1.595   4.641   1.869  0.1485 -0.0048  0.4647
 1040SOL     OW 4230   1.348   0.092   1.971 -0.7160  0.1472 -0.3008
 1040SOL    HW2 4231   1.355   0.098   2.066  0.2070 -0.5522 -0.3158
 1040SOL    HW3 4232   1.433   0.058   1.943 -1.0632  0.1362 -1.3550
 1040SOL    MW4 4233   1.360   0.088   1.980 -0.6402  0.0535 -0.4418
 1041SOL     OW 4234   1.339   0.376   1.900  0.0433 -0.2741 -0.0429
 1041SOL    HW2 4235   1.333   0.282   1.917  0.0167  0.0154  1.6216
 1041SOL    HW3 4236   1.353   0.382   1.806  0.9007 -1.9722 -0.0440
 1041SOL    MW4 4237   1.340   0.364   1.890  0.1529 -0.4600  0.1765
 1042SOL     OW 4238   1.572   0.502   1.959  0.0892  0.0251  0.3841
 1042SOL    HW2 4239   1.646   0.449   1.931 -0.3454 -0.7750  0.7407
 1042SOL    HW3 4240   1.494   0.451   1.936 -0.4694  1.9246 -2.2102
 1042SOL    MW4 4241   1.571   0.488   1.953 -0.0417  0.1702  0.0889
 1043SOL     OW 4242   1.603   0.770   1.853 -0.3342  0.2816  0.0205
 1043SOL    HW2 4243   1.668   0.815   1.906  0.3286 -0.8492  0.1765
 1043SOL    HW3 4244   1.598   0.682   1.890  0.6036 -0.7319 -2.1507
 1043SOL    MW4 4245   1.611   0.764   1.865 -0.1233 -0.0014 -0.2452
 1044SOL     OW 4246   1.369   0.913   1.963  0.5146 -0.1860 -0.2942
 1044SOL    HW2 4247   1.378   0.906   2.058  0.7718  2.7371 -0.0368
 1044SOL    HW3 4248   1.451   0.878   1.928  0.4203 -1.2728  0.5617
 1044SOL    MW4 4249   1.381   0.908   1.971  0.5361  0.0562 -0.1473
 1045SOL     OW 4250   1.342   1.174   1.868 -0.4698  0.2568  0.0221
 1045SOL    HW2 4251   1.345   1.083   1.897  2.5002  0.3865  0.3174
 1045SOL    HW3 4252   1.262   1.210   1.907 -0.9726 -1.8729  0.9890
 1045SOL    MW4 4253   1.332   1.167   1.877 -0.1444 -0.0072  0.1887
 1046SOL     OW 4254   1.564   1.285   1.986 -0.2389 -0.0905 -0.3247
 1046SOL    HW2 4255   1.574   1.375   1.955 -1.5230  0.0681 -0.3068
 1046SOL    HW3 4256   1.481   1.256   1.948 -0.2760 -0.9658  0.4165
 1046SOL    MW4 4257   1.554   1.293   1.977 -0.4132 -0.1850 -0.2246
 1047SOL     OW 4258   1.592   1.536   1.856  0.0573  0.1494  0.3894
 1047SOL    HW2 4259   1.660   1.581   1.907 -1.8429  1.1745  2.0723
 1047SOL    HW3 4260   1.519   1.598   1.854 -0.9581 -1.0639 -1.1220
 1047SOL    MW4 4261   1.591   1.551   1.862 -0.3275  0.1245  0.4121
 1048SOL     OW 4262   1.350   1.653   1.925  0.3155  0.1349 -0.1709
 1048SOL    HW2 4263   1.366   1.650   2.019 -0.2622  1.7067 -0.0048
 1048SOL    HW3 4264   1.262   1.618   1.914  0.7069 -0.8444 -0.2223
 1048SOL    MW4 4265   1.341   1.648   1.936  0.2910  0.2129 -0.1559
 1049SOL     OW 4266   1.378   1.931   1.882 -0.3506 -0.0645 -0.3711
 1049SOL    HW2 4267   1.378   1.836   1.893 -1.2998 -0.3090 -2.2540
 1049SOL    HW3 4268   1.290   1.958   1.908 -1.1410 -0.1201 -2.8727
 1049SOL    MW4 4269   1.367   1.922   1.887 -0.5802 -0.1043 -0.9495
 1050SOL     OW 4270   1.615   2.072   1.934  0.1638 -0.1892  0.0154
 1050SOL    HW2 4271   1.609   2.163   1.905  1.2857 -0.2380 -0.3751
 1050SOL    HW3 4272   1.526   2.038   1.926 -0.2526  0.8670  0.1366
 1050SOL    MW4 4273   1.603   2.079   1.929  0.2570 -0.0560 -0.0203
 1051SOL     OW 4274   1.564   2.340   1.850 -0.4996  0.1882  0.2635
 1051SOL    HW2 4275   1.649   2.381   1.869 -0.2272 -1.0555  1.7608
 1051SOL    HW3 4276   1.553   2.352   1.755  2.0546 -0.9142 -0.2216
 1051SOL    MW4 4277   1.574   2.347   1.840 -0.1267 -0.1216  0.3971
 1052SOL     OW 4278   1.328   2.443   1.961  0.6928 -0.1373 -0.1677
 1052SOL    HW2 4279   1.318   2.520   1.904  2.0085  0.8759  0.9477
 1052SOL    HW3 4280   1.407   2.400   1.929  0.1891 -0.8123 -0.5213
 1052SOL    MW4 4281   1.337   2.447   1.949  0.8001 -0.0923 -0.0671
 1053SOL     OW 4282   1.288   2.699   1.827  0.1355 -0.3159 -0.2851
 1053SOL    HW2 4283   1.222   2.756   1.867 -0.7698 -0.6577 -1.2765
 1053SOL    HW3 4284   1.289   2.723   1.735  0.2838 -1.3916 -0.5784
 1053SOL    MW4 4285   1.280   2.710   1.820  0.0355 -0.5028 -0.4545
 1054SOL     OW 4286   1.508   2.848   1.925  0.3345  0.4740 -0.0146
 1054SOL    HW2 4287   1.584   2.801   1.891  0.2242 -0.4384  0.9810
 1054SOL    HW3 4288   1.433   2.798   1.894  0.1740  0.6448  0.0968
 1054SOL    MW4 4289   1.508   2.835   1.916  0.2987  0.3762  0.1315
 1055SOL     OW 4290   1.499   3.129   1.848 -0.1900  0.1412 -0.8753
 1055SOL    HW2 4291   1.475   3.039   1.868 -1.3433  0.3327 -1.3737
 1055SOL    HW3 4292   1.516   3.129   1.754 -2.5826  0.9536 -1.3430
 1055SOL    MW4 4293   1.498   3.117   1.838 -0.6580  0.2737 -1.0028
 1056SOL     OW 4294   1.300   3.251   1.981 -0.1310  0.1683 -0.0029
 1056SOL    HW2 4295   1.371   3.208   1.933 -0.1758  0.2316 -0.1277
 1056SOL    HW3 4296   1.220   3.221   1.936 -0.3461 -1.9600  1.7367
 1056SOL    MW4 4297   1.299   3.241   1.969 -0.1652 -0.1042  0.2100
 1057SOL     OW 4298   1.325   3.528   1.902  0.2006  0.0397 -0.4401
 1057SOL    HW2 4299   1.307   3.439   1.929  1.9496  0.8236  3.7012
 1057SOL    HW3 4300   1.248   3.578   1.931 -0.3831  0.0650 -1.9699
 1057SOL    MW4 4301   1.312   3.523   1.910  0.3543  0.1464 -0.0955
 1058SOL     OW 4302   1.580   3.652   1.984  0.3269 -0.2484 -0.3279
 1058SOL    HW2 4303   1.585   3.662   2.079  0.1862 -2.4456 -0.0604
 1058SOL    HW3 4304   1.497   3.609   1.968  1.3047 -1.8612 -1.2514
 1058SOL    MW4 4305   1.570   3.648   1.994  0.4374 -0.7513 -0.4144
 1059SOL     OW 4306   1.587   3.916   1.887 -0.4302 -0.1243 -0.1737
 1059SOL    HW2 4307   1.643   3.970   1.944  1.1607 -0.2487 -1.5763
 1059SOL    HW3 4308   1.587   3.830   1.929  1.6606 -0.5164 -0.9391
 1059SOL    MW4 4309   1.594   3.912   1.900  0.0557 -0.1924 -0.4597
 1060SOL     OW 4310   1.347   3.986   2.022  0.2814  0.3344 -0.3016
 1060SOL    HW2 4311   1.422   3.960   1.968 -0.3545  0.8183 -1.4221
 1060SOL    HW3 4312   1.274   3.937   1.985 -0.0878  0.3724  0.3805
 1060SOL    MW4 4313   1.348   3.976   2.010  0.1488  0.4034 -0.3598
 1061SOL     OW 4314   1.341   4.237   1.888 -0.1700  0.2573  0.0897
 1061SOL    HW2 4315   1.334   4.149   1.924  1.7016 -0.6682 -1.6828
 1061SOL    HW3 4316   1.332   4.225   1.793  0.5107  1.9028 -0.2142
 1061SOL    MW4 4317   1.339   4.224   1.880  0.1669  0.3519 -0.1842
 1062SOL     OW 4318   1.581   4.381   1.939 -0.1244 -0.3307  0.1664
 1062SOL    HW2 4319   1.594   4.363   2.032  0.9508 -1.5914 -0.2036
 1062SOL    HW3 4320   1.502   4.331   1.916 -2.0121  2.1851  0.9887
 1062SOL    MW4 4321   1.572   4.372   1.948 -0.2317 -0.1645  0.2260
 1063SOL     OW 4322   2.053   4.657   1.856  0.0873  0.5149 -0.0660
 1063SOL    HW2 4323   2.114   4.712   1.906 -1.1084  1.0859  0.8215
 1063SOL    HW3 4324   2.047   4.576   1.907  0.2182  0.4028 -0.2305
 1063SOL    MW4 4325   2.060   4.654   1.870 -0.0534  0.5755  0.0293
 1064SOL     OW 4326   1.809   0.123   1.918 -0.1012  0.0963 -0.0059
 1064SOL    HW2 4327   1.799   0.119   2.013  0.9940 -1.9288  0.0484
 1064SOL    HW3 4328   1.896   0.085   1.901 -1.8744 -3.2104 -2.1151
 1064SOL    MW4 4329   1.819   0.117   1.928 -0.1906 -0.6072 -0.2769
 1065SOL     OW 4330   1.780   0.379   1.824 -0.2845  0.0690  0.1351
 1065SOL    HW2 4331   1.800   0.289   1.850 -0.2718  0.1378  0.3727
 1065SOL    HW3 4332   1.787   0.379   1.729  0.3675 -0.0206  0.1794
 1065SOL    MW4 4333   1.783   0.367   1.815 -0.1967  0.0662  0.1723
 1066SOL     OW 4334   1.999   0.479   1.968 -0.5661  0.0559 -0.4493
 1066SOL    HW2 4335   2.012   0.567   1.934  0.9889 -0.2828 -0.8047
 1066SOL    HW3 4336   1.922   0.445   1.922 -0.7411  0.9721 -0.8235
 1066SOL    MW4 4337   1.991   0.486   1.957 -0.3841  0.1321 -0.5455
 1067SOL     OW 4338   2.007   0.730   1.870 -0.1454 -0.4698 -0.0327
 1067SOL    HW2 4339   2.081   0.772   1.913 -0.9259  1.6832 -0.7404
 1067SOL    HW3 4340   2.031   0.727   1.777 -1.6811  1.9227 -0.5436
 1067SOL    MW4 4341   2.019   0.735   1.863 -0.4508  0.1299 -0.1935
 1068SOL     OW 4342   1.808   0.872   2.023 -0.2005 -0.3380 -0.2572
 1068SOL    HW2 4343   1.788   0.963   1.998  1.2307 -0.1242 -0.6761
 1068SOL    HW3 4344   1.881   0.848   1.966  0.3172 -1.2990  0.8047
 1068SOL    MW4 4345   1.815   0.881   2.012  0.0567 -0.4366 -0.1724
 1069SOL     OW 4346   1.761   1.115   1.903  0.1093  0.8639  0.1369
 1069SOL    HW2 4347   1.688   1.174   1.920 -0.6593  0.1948 -0.7779
 1069SOL    HW3 4348   1.772   1.116   1.808  0.6310  0.1796  0.1792
 1069SOL    MW4 4349   1.753   1.123   1.893  0.0765  0.6853  0.0218
 1070SOL     OW 4350   1.976   1.296   1.994  0.0874  0.0637  0.4247
 1070SOL    HW2 4351   2.039   1.233   1.959 -0.2946 -0.0295 -0.0968
 1070SOL    HW3 4352   1.891   1.267   1.961 -0.6066 -1.4318  3.4115
 1070SOL    MW4 4353   1.973   1.284   1.985 -0.0546 -0.1458  0.7499
 1071SOL     OW 4354   2.028   1.532   1.883  0.1947  0.0291  0.2010
 1071SOL    HW2 4355   2.018   1.443   1.917  2.9733 -0.2610  0.3750
 1071SOL    HW3 4356   2.037   1.520   1.788  1.4586  0.0345  0.3155
 1071SOL    MW4 4357   2.028   1.519   1.875  0.7279 -0.0085  0.2389
 1072SOL     OW 4358   1.809   1.683   1.969  0.2646 -0.2791  0.1001
 1072SOL    HW2 4359   1.819   1.770   1.931 -1.5936 -1.0974 -2.3692
 1072SOL    HW3 4360   1.886   1.635   1.938 -0.6754 -0.6157 -1.7610
 1072SOL    MW4 4361   1.821   1.688   1.960 -0.1047 -0.4313 -0.4712
 1073SOL     OW 4362   1.848   1.938   1.856 -0.1249  0.0456  0.5781
 1073SOL    HW2 4363   1.776   1.995   1.885 -0.4579  0.2184 -0.5600
 1073SOL    HW3 4364   1.841   1.937   1.761  2.6733  1.7354  0.3101
 1073SOL    MW4 4365   1.837   1.945   1.848  0.2003  0.2913  0.3928
 1074SOL     OW 4366   2.076   2.050   1.975 -0.7310 -0.0012 -0.3832
 1074SOL    HW2 4367   2.147   2.001   1.932  0.0007  2.4388 -2.0017
 1074SOL    HW3 4368   1.996   2.009   1.943 -0.1287 -1.9720  0.4987
 1074SOL    MW4 4369   2.075   2.038   1.965 -0.5550  0.0606 -0.4803
 1075SOL     OW 4370   2.017   2.285   1.806 -0.0618  0.2759 -0.1708
 1075SOL    HW2 4371   2.086   2.339   1.846 -0.2224  0.5756 -0.2930
 1075SOL    HW3 4372   2.007   2.211   1.865  0.2595  0.3115 -0.0721
 1075SOL    MW4 4373   2.025   2.282   1.819 -0.0408  0.3202 -0.1739
 1076SOL     OW 4374   1.821   2.461   1.946  0.1209 -0.0645 -0.2385
 1076SOL    HW2 4375   1.831   2.453   2.041 -1.8760 -0.7266 -0.0672
 1076SOL    HW3 4376   1.903   2.425   1.911  1.7693  2.1070  1.2577
 1076SOL    MW4 4377   1.833   2.455   1.954  0.0749  0.1347 -0.0186
 1077SOL     OW 4378   1.759   2.728   1.873 -0.3202 -0.0678 -0.0487
 1077SOL    HW2 4379   1.776   2.639   1.903  0.4284  0.3334  0.7309
 1077SOL    HW3 4380   1.768   2.724   1.778 -1.7540 -1.1387 -0.1536
 1077SOL    MW4 4381   1.762   2.716   1.864 -0.4106 -0.1564  0.0404
 1078SOL     OW 4382   1.985   2.844   1.977  0.4140 -0.4100  0.5061
 1078SOL    HW2 4383   1.965   2.853   2.070 -0.7815  0.9127  0.1250
 1078SOL    HW3 4384   1.906   2.806   1.939 -0.2944  1.9706 -0.4782
 1078SOL    MW4 4385   1.972   2.840   1.984  0.1628  0.0787  0.3260
 1079SOL     OW 4386   1.972   3.106   1.872  0.0704  0.3960 -0.3223
 1079SOL    HW2 4387   1.886   3.145   1.886 -0.1461  0.1186 -0.8616
 1079SOL    HW3 4388   1.971   3.025   1.924  0.2028  0.6610  0.0980
 1079SOL    MW4 4389   1.961   3.100   1.881  0.0592  0.3943 -0.3381
 1080SOL     OW 4390   1.745   3.216   1.971 -0.4519  0.3731  0.4111
 1080SOL    HW2 4391   1.741   3.195   2.064 -0.2233  0.2849  0.4014
 1080SOL    HW3 4392   1.660   3.186   1.936  0.7533 -2.7289 -0.0429
 1080SOL    MW4 4393   1.733   3.209   1.979 -0.2627 -0.0477  0.3500
 1081SOL     OW 4394   1.788   3.475   1.906  0.0873 -0.3747  0.3734
 1081SOL    HW2 4395   1.769   3.387   1.938  0.1505 -0.1468  1.0463
 1081SOL    HW3 4396   1.717   3.530   1.941 -0.1726 -0.2323 -0.3779
 1081SOL    MW4 4397   1.776   3.471   1.915  0.0613 -0.3257  0.3631
 1082SOL     OW 4398   2.008   3.591   2.003  0.1863  0.0449  0.1448
 1082SOL    HW2 4399   1.989   3.682   1.979 -1.5787  0.0914  1.6333
 1082SOL    HW3 4400   1.941   3.540   1.958  1.2617 -0.5456 -0.8017
 1082SOL    MW4 4401   1.997   3.596   1.994  0.0954 -0.0269  0.2164
 1083SOL     OW 4402   2.000   3.855   1.901  0.1123 -0.3999 -0.0351
 1083SOL    HW2 4403   2.092   3.874   1.922 -0.0404 -0.8956  1.1327
 1083SOL    HW3 4404   1.997   3.855   1.806  1.4555 -1.0004 -0.0924
 1083SOL    MW4 4405   2.012   3.858   1.891  0.2692 -0.5445  0.1113
 1084SOL     OW 4406   1.820   4.018   2.022  0.7012 -0.2384 -0.3861
 1084SOL    HW2 4407   1.831   4.096   1.968  1.1364 -0.0752 -0.0665
 1084SOL    HW3 4408   1.885   3.957   1.989  0.7326 -0.2637 -0.2800
 1084SOL    MW4 4409   1.830   4.020   2.011  0.7628 -0.2203 -0.3297
 1085SOL     OW 4410   1.814   4.251   1.874  0.2418  0.2166  0.1192
 1085SOL    HW2 4411   1.734   4.297   1.899 -0.9939 -1.9280  0.3354
 1085SOL    HW3 4412   1.814   4.254   1.778  0.3814  0.9982  0.1424
 1085SOL    MW4 4413   1.804   4.257   1.865  0.0972  0.0367  0.1509
 1086SOL     OW 4414   2.040   4.389   1.950  0.0099 -0.1607 -0.3196
 1086SOL    HW2 4415   2.113   4.330   1.930  0.0908 -0.1861  0.0627
 1086SOL    HW3 4416   1.964   4.349   1.906  0.0260 -0.6487  0.0995
 1086SOL    MW4 4417   2.039   4.376   1.941  0.0226 -0.2284 -0.2139
 1087SOL     OW 4418   2.433   4.631   1.886 -0.2299 -0.1534 -0.6364
 1087SOL    HW2 4419   2.517   4.674   1.901 -0.3737  0.7097 -2.1725
 1087SOL    HW3 4420   2.445   4.541   1.918  0.5588  0.5867  1.1853
 1087SOL    MW4 4421   2.445   4.624   1.892 -0.1450  0.0582 -0.5988
 1088SOL     OW 4422   2.251   0.151   1.969  0.0377  0.2612  0.0643
 1088SOL    HW2 4423   2.253   0.166   2.063 -0.8335  1.0518 -0.0377
 1088SOL    HW3 4424   2.320   0.086   1.954 -0.2261 -0.3358  1.3230
 1088SOL    MW4 4425   2.261   0.144   1.979 -0.1121  0.2867  0.2167
 1089SOL     OW 4426   2.217   0.378   1.829  0.4542  0.3451 -0.4892
 1089SOL    HW2 4427   2.221   0.286   1.854 -1.9157 -0.3891 -2.6368
 1089SOL    HW3 4428   2.143   0.413   1.878 -0.6017  0.3059 -2.0169
 1089SOL    MW4 4429   2.208   0.371   1.839  0.0026  0.2430 -0.9742
 1090SOL     OW 4430   2.442   0.491   1.974  0.0134 -0.2218 -0.0380
 1090SOL    HW2 4431   2.508   0.434   1.933  0.3403  0.9827 -1.2042
 1090SOL    HW3 4432   2.361   0.468   1.929  0.0412 -0.1557 -0.1220
 1090SOL    MW4 4433   2.440   0.480   1.962  0.0601 -0.0542 -0.2030
 1091SOL     OW 4434   2.464   0.794   1.909 -0.1732  0.0502  0.2902
 1091SOL    HW2 4435   2.464   0.706   1.946 -0.6467  0.4465  1.2488
 1091SOL    HW3 4436   2.478   0.781   1.815  1.1085 -0.9491  0.6196
 1091SOL    MW4 4437   2.466   0.781   1.901 -0.0665 -0.0294  0.4601
 1092SOL     OW 4438   2.205   0.882   2.009  0.0401  0.2401  0.2234
 1092SOL    HW2 4439   2.228   0.864   2.100  0.2353  2.2544  0.5840
 1092SOL    HW3 4440   2.283   0.856   1.959  0.4006  0.3042  0.7502
 1092SOL    MW4 4441   2.219   0.876   2.014  0.1135  0.5144  0.3407
 1093SOL     OW 4442   2.206   1.158   1.892  0.3761 -0.0732 -0.2169
 1093SOL    HW2 4443   2.290   1.199   1.913  0.1584  0.1111  0.3009
 1093SOL    HW3 4444   2.209   1.074   1.937  0.0284  0.1997  0.3260
 1093SOL    MW4 4445   2.217   1.153   1.901  0.3016 -0.0129 -0.0770
 1094SOL     OW 4446   2.444   1.268   1.948 -0.1402  0.5125 -0.3942
 1094SOL    HW2 4447   2.443   1.264   2.044 -2.3652 -0.5539 -0.4224
 1094SOL    HW3 4448   2.458   1.360   1.928  0.3895  0.7371  0.9543
 1094SOL    MW4 4449   2.446   1.279   1.958 -0.3638  0.4015 -0.2201
 1095SOL     OW 4450   2.479   1.515   1.865 -0.3727  0.1524 -0.1809
 1095SOL    HW2 4451   2.395   1.547   1.897  0.5294  0.6723  1.6845
 1095SOL    HW3 4452   2.473   1.523   1.769 -2.4573  0.1086 -0.0591
 1095SOL    MW4 4453   2.467   1.521   1.856 -0.5286  0.2153  0.0813
 1096SOL     OW 4454   2.264   1.650   1.971 -0.4290  0.6173 -0.1422
 1096SOL    HW2 4455   2.267   1.660   2.066 -0.5754 -1.7915  0.1378
 1096SOL    HW3 4456   2.174   1.623   1.953 -0.1067  0.0146 -0.8486
 1096SOL    MW4 4457   2.252   1.648   1.981 -0.4055  0.2201 -0.1985
 1097SOL     OW 4458   2.262   1.903   1.836 -0.3586  0.7563 -0.3652
 1097SOL    HW2 4459   2.328   1.948   1.889  0.4381 -0.3506 -0.3773
 1097SOL    HW3 4460   2.271   1.811   1.861 -2.6575  0.7264  0.4226
 1097SOL    MW4 4461   2.272   1.897   1.846 -0.5567  0.6063 -0.2629
 1098SOL     OW 4462   2.461   2.038   1.970 -0.2580  0.1710  0.1603
 1098SOL    HW2 4463   2.529   1.996   1.918 -0.3021 -0.8742  0.9215
 1098SOL    HW3 4464   2.443   2.120   1.925  1.1593  0.2307 -0.3267
 1098SOL    MW4 4465   2.468   2.044   1.957 -0.0770  0.0408  0.1965
 1099SOL     OW 4466   2.468   2.314   1.848  0.3322 -0.0692 -0.0665
 1099SOL    HW2 4467   2.541   2.362   1.887  1.2483 -1.2100 -0.3653
 1099SOL    HW3 4468   2.391   2.368   1.867  1.3723  1.6695 -0.6233
 1099SOL    MW4 4469   2.468   2.328   1.855  0.5903  0.0098 -0.1793
 1100SOL     OW 4470   2.209   2.432   1.914  0.5034 -0.0747  0.3644
 1100SOL    HW2 4471   2.211   2.422   2.009 -0.2948 -2.1025  0.2026
 1100SOL    HW3 4472   2.213   2.526   1.899 -0.7181  0.3410  2.4441
 1100SOL    MW4 4473   2.210   2.443   1.925  0.2367 -0.2873  0.6174
 1101SOL     OW 4474   2.218   2.720   1.888  0.3162 -0.5891  0.3364
 1101SOL    HW2 4475   2.131   2.747   1.918  0.6559  2.0056 -0.9435
 1101SOL    HW3 4476   2.214   2.726   1.793  2.1483  0.3744  0.2993
 1101SOL    MW4 4477   2.206   2.724   1.880  0.6027 -0.1194  0.1627
 1102SOL     OW 4478   2.460   2.841   1.971  0.4729 -0.6442  0.0113
 1102SOL    HW2 4479   2.466   2.932   1.942  0.1792 -1.4064 -2.6310
 1102SOL    HW3 4480   2.377   2.809   1.935  0.0555 -1.6740  1.8012
 1102SOL    MW4 4481   2.450   2.849   1.962  0.3788 -0.8807 -0.1013
 1103SOL     OW 4482   2.448   3.094   1.847  0.1824 -0.4946 -0.4618
 1103SOL    HW2 4483   2.364   3.139   1.860  0.0612 -0.7411 -0.3743
 1103SOL    HW3 4484   2.442   3.058   1.759 -0.0044 -0.9278 -0.2750
 1103SOL    MW4 4485   2.436   3.095   1.837  0.1416 -0.5841 -0.4257
 1104SOL     OW 4486   2.217   3.217   1.923 -0.2038  0.4595  0.0464
 1104SOL    HW2 4487   2.224   3.204   2.017 -0.4228  0.9711  0.1381
 1104SOL    HW3 4488   2.130   3.185   1.901 -0.0272  0.0320 -0.0393
 1104SOL    MW4 4489   2.206   3.211   1.932 -0.2093  0.4704  0.0471
 1105SOL     OW 4490   2.248   3.489   1.856 -0.1172  0.0703 -0.3379
 1105SOL    HW2 4491   2.235   3.396   1.876 -2.0491  0.0316 -1.6456
 1105SOL    HW3 4492   2.185   3.534   1.911  1.1936  0.6687  0.6948
 1105SOL    MW4 4493   2.238   3.482   1.866 -0.1991  0.1440 -0.3743
 1106SOL     OW 4494   2.504   3.585   1.965 -0.1483 -0.2076  0.1403
 1106SOL    HW2 4495   2.495   3.587   2.060 -0.2034 -0.7675  0.1487
 1106SOL    HW3 4496   2.415   3.569   1.933 -0.0525 -0.5132  0.0182
 1106SOL    MW4 4497   2.491   3.583   1.973 -0.1428 -0.3219  0.1253
 1107SOL     OW 4498   2.501   3.853   1.892 -0.0773  0.4895 -0.1285
 1107SOL    HW2 4499   2.409   3.872   1.909 -0.5220 -0.8710 -0.9636
 1107SOL    HW3 4500   2.513   3.761   1.917  0.8330  0.3960 -0.8430
 1107SOL    MW4 4501   2.491   3.843   1.898 -0.0162  0.2978 -0.3330
 1108SOL     OW 4502   2.251   3.950   1.967 -0.2318  0.2481 -0.2460
 1108SOL    HW2 4503   2.250   3.953   2.063 -0.4489 -0.8440 -0.2158
 1108SOL    HW3 4504   2.245   4.042   1.941 -2.3918  0.4164  0.7643
 1108SOL    MW4 4505   2.250   3.963   1.977 -0.5453  0.1261 -0.1087
 1109SOL     OW 4506   2.247   4.217   1.882 -0.9682  0.4517  0.1102
 1109SOL    HW2 4507   2.310   4.284   1.908 -0.1208 -0.0266 -0.6796
 1109SOL    HW3 4508   2.250   4.217   1.786 -2.1227  0.3784  0.0693
 1109SOL    MW4 4509   2.256   4.226   1.873 -1.0085  0.3786  0.0005
 1110SOL     OW 4510   2.460   4.374   1.980 -0.0254 -0.6110 -0.2375
 1110SOL    HW2 4511   2.471   4.381   2.075 -0.2696  0.8732 -0.3090
 1110SOL    HW3 4512   2.543   4.338   1.949  0.6987  0.5281  0.3599
 1110SOL    MW4 4513   2.472   4.370   1.989  0.0379 -0.2651 -0.1680
 1111SOL     OW 4514   2.915   4.626   1.874 -0.4845 -0.0766  0.6505
 1111SOL    HW2 4515   2.999   4.667   1.892 -0.7007 -0.1547  1.8789
 1111SOL    HW3 4516   2.925   4.536   1.906 -1.2061  0.0592  1.2579
 1111SOL    MW4 4517   2.927   4.619   1.880 -0.6080 -0.0691  0.8926
 1112SOL     OW 4518   2.676   0.072   1.932 -0.0534 -0.3841 -0.7438
 1112SOL    HW2 4519   2.678   0.077   2.028 -1.4973  0.8090 -0.7378
 1112SOL    HW3 4520   2.764   0.045   1.907  0.4212 -0.4388  0.9134
 1112SOL    MW4 4521   2.688   0.069   1.942 -0.1810 -0.2339 -0.5243
 1113SOL     OW 4522   2.635   0.328   1.857  0.3881  0.1524  0.6448
 1113SOL    HW2 4523   2.722   0.361   1.879  0.1491  0.7749  0.6709
 1113SOL    HW3 4524   2.633   0.239   1.893  0.9439  0.2019  0.8062
 1113SOL    MW4 4525   2.646   0.320   1.865  0.4299  0.2411  0.6696
 1114SOL     OW 4526   2.883   0.429   1.936 -0.1701  0.1502  0.1154
 1114SOL    HW2 4527   2.964   0.392   1.901 -1.1719 -0.0655 -2.0658
 1114SOL    HW3 4528   2.893   0.523   1.926 -0.8005  0.0451 -1.5732
 1114SOL    MW4 4529   2.895   0.436   1.930 -0.3853  0.1079 -0.3952
 1115SOL     OW 4530   2.902   0.734   1.890 -0.1642  0.0118  0.6182
 1115SOL    HW2 4531   2.988   0.774   1.900 -0.4321  0.5762  0.7429
 1115SOL    HW3 4532   2.842   0.798   1.928 -0.5716 -0.6852  1.1520
 1115SOL    MW4 4533   2.905   0.748   1.896 -0.2532 -0.0057  0.7051
 1116SOL     OW 4534   2.717   0.931   1.938 -0.0620 -0.7209  0.1334
 1116SOL    HW2 4535   2.713   1.009   1.883  2.2600 -1.4584 -1.1594
 1116SOL    HW3 4536   2.626   0.902   1.945 -0.7627  1.1993 -0.6578
 1116SOL    MW4 4537   2.705   0.938   1.932  0.1521 -0.5649 -0.1415
 1117SOL     OW 4538   2.701   1.171   1.828 -0.1357 -0.0325  0.1327
 1117SOL    HW2 4539   2.620   1.218   1.846  0.0399  0.7071 -0.9813
 1117SOL    HW3 4540   2.703   1.161   1.733  0.1229 -1.7802  0.3119
 1117SOL    MW4 4541   2.691   1.176   1.818 -0.0784 -0.1656  0.0094
 1118SOL     OW 4542   2.910   1.245   1.988  0.0864 -0.1206  0.5100
 1118SOL    HW2 4543   2.915   1.340   1.975 -0.7265  0.0704  1.6032
 1118SOL    HW3 4544   2.838   1.217   1.931 -0.1588  0.0278  0.7429
 1118SOL    MW4 4545   2.901   1.254   1.979 -0.0534 -0.0759  0.6850
 1119SOL     OW 4546   2.901   1.503   1.908 -0.0746 -0.2787  0.1641
 1119SOL    HW2 4547   2.977   1.548   1.944 -0.1585  0.9846 -1.1727
 1119SOL    HW3 4548   2.926   1.483   1.817 -1.1199 -0.3550 -0.1150
 1119SOL    MW4 4549   2.914   1.506   1.900 -0.2239 -0.1221 -0.0492
 1120SOL     OW 4550   2.683   1.663   1.978 -0.0424 -0.3866 -0.1531
 1120SOL    HW2 4551   2.760   1.621   1.940  0.3665  0.4534 -0.2592
 1120SOL    HW3 4552   2.609   1.619   1.937  0.3884  0.1584 -1.5522
 1120SOL    MW4 4553   2.683   1.651   1.968  0.0687 -0.2040 -0.3518
 1121SOL     OW 4554   2.652   1.915   1.843 -0.3616 -0.2077  0.0601
 1121SOL    HW2 4555   2.733   1.963   1.863  0.2713 -1.6164  0.9551
 1121SOL    HW3 4556   2.666   1.829   1.881 -1.5432 -1.0733 -1.4385
 1121SOL    MW4 4557   2.665   1.910   1.851 -0.4339 -0.5078 -0.0194
 1122SOL     OW 4558   2.907   2.047   1.933 -0.4988  0.2884 -0.0040
 1122SOL    HW2 4559   2.922   2.047   2.028 -0.3474  0.6373 -0.0285
 1122SOL    HW3 4560   2.977   1.993   1.898  0.3720  1.4384 -0.0630
 1122SOL    MW4 4561   2.918   2.040   1.941 -0.3638  0.4861 -0.0150
 1123SOL     OW 4562   2.930   2.311   1.828 -0.3308  0.1035 -0.2343
 1123SOL    HW2 4563   2.999   2.347   1.884 -0.3622  1.5162 -1.0875
 1123SOL    HW3 4564   2.931   2.217   1.847  1.1257  0.2541  0.5304
 1123SOL    MW4 4565   2.940   2.303   1.838 -0.1428  0.3099 -0.2460
 1124SOL     OW 4566   2.716   2.410   1.980 -0.2738  0.1215 -0.1052
 1124SOL    HW2 4567   2.711   2.501   1.951  1.1345  0.5045  0.7981
 1124SOL    HW3 4568   2.783   2.371   1.923  0.6525  0.2124  0.9052
 1124SOL    MW4 4569   2.724   2.417   1.968  0.0341  0.1841  0.1473
 1125SOL     OW 4570   2.686   2.676   1.882 -0.1177 -0.0299 -1.0615
 1125SOL    HW2 4571   2.606   2.723   1.906 -0.9478 -2.0394  0.2599
 1125SOL    HW3 4572   2.684   2.670   1.787 -0.1493  2.3081 -1.2221
 1125SOL    MW4 4573   2.676   2.681   1.873 -0.2313  0.0136 -0.9084
 1126SOL     OW 4574   2.919   2.832   1.975 -0.1229  0.2215 -0.1626
 1126SOL    HW2 4575   2.905   2.912   1.925 -1.6528  0.9960  1.4513
 1126SOL    HW3 4576   2.853   2.771   1.942  0.1309  0.0844 -0.4204
 1126SOL    MW4 4577   2.908   2.835   1.964 -0.2911  0.3057  0.0162
 1127SOL     OW 4578   2.927   3.067   1.862  0.3768 -0.1643 -0.1646
 1127SOL    HW2 4579   3.001   3.117   1.897 -0.6308  0.7020  0.7707
 1127SOL    HW3 4580   2.850   3.119   1.885 -0.6161 -1.6691 -0.0319
 1127SOL    MW4 4581   2.927   3.080   1.870  0.1125 -0.2484 -0.0237
 1128SOL     OW 4582   2.688   3.200   1.920  0.2274  0.4972 -0.2700
 1128SOL    HW2 4583   2.697   3.288   1.884 -1.2227  0.4893 -0.6625
 1128SOL    HW3 4584   2.603   3.169   1.888  0.3229 -0.7024  0.6050
 1128SOL    MW4 4585   2.678   3.208   1.911  0.0486  0.3381 -0.2064
 1129SOL     OW 4586   2.739   3.459   1.851  0.4500 -0.7428 -0.1024
 1129SOL    HW2 4587   2.811   3.504   1.896  0.5369 -0.8296 -0.1526
 1129SOL    HW3 4588   2.660   3.507   1.876  0.5242 -0.6587 -0.0309
 1129SOL    MW4 4589   2.738   3.471   1.860  0.4714 -0.7432 -0.0995
 1130SOL     OW 4590   2.917   3.606   2.000 -0.1676 -0.3585  0.1556
 1130SOL    HW2 4591   2.903   3.587   2.093 -0.8810 -1.0841 -0.0928
 1130SOL    HW3 4592   2.993   3.554   1.976 -0.8193 -1.2513  0.0029
 1130SOL    MW4 4593   2.925   3.597   2.009 -0.3479 -0.5720  0.1028
 1131SOL     OW 4594   2.896   3.866   1.872 -0.3590  0.3001  0.1966
 1131SOL    HW2 4595   2.912   3.777   1.904  0.1148  0.2069 -0.2978
 1131SOL    HW3 4596   2.921   3.863   1.780 -0.8429  0.8113  0.0472
 1131SOL    MW4 4597   2.902   3.854   1.864 -0.3605  0.3552  0.1117
 1132SOL     OW 4598   2.698   4.028   2.013 -0.0045  0.1048  0.6030
 1132SOL    HW2 4599   2.772   3.981   1.976 -0.0405 -1.3139  2.2716
 1132SOL    HW3 4600   2.621   3.982   1.981 -0.1069  0.2797  0.5939
 1132SOL    MW4 4601   2.697   4.016   2.004 -0.0226 -0.0591  0.8218
 1133SOL     OW 4602   2.707   4.278   1.883 -0.3251 -0.1857 -0.4782
 1133SOL    HW2 4603   2.712   4.193   1.925  1.1557 -0.2092 -0.6598
 1133SOL    HW3 4604   2.723   4.260   1.790  0.6811  0.3583 -0.4201
 1133SOL    MW4 4605   2.710   4.265   1.876  0.0029 -0.1173 -0.4945
 1134SOL     OW 4606   2.954   4.370   1.966  0.1659  0.4569 -0.5077
 1134SOL    HW2 4607   2.947   4.385   2.060  2.1317  0.6417 -0.3674
 1134SOL    HW3 4608   2.867   4.343   1.939 -0.3589  0.1934  1.4059
 1134SOL    MW4 4609   2.942   4.369   1.975  0.3557  0.4463 -0.2366
 1135SOL     OW 4610   3.385   4.635   1.881 -0.0760 -0.2607  0.2008
 1135SOL    HW2 4611   3.389   4.541   1.899  0.1008 -0.1121  0.9711
 1135SOL    HW3 4612   3.378   4.641   1.786 -0.3332 -1.0587  0.1637
 1135SOL    MW4 4613   3.385   4.624   1.871 -0.0870 -0.3462  0.2975
 1136SOL     OW 4614   3.144   0.085   1.941 -0.5255 -0.2165  0.0619
 1136SOL    HW2 4615   3.144   0.090   2.037 -0.1943  1.5558 -0.0153
 1136SOL    HW3 4616   3.231   0.050   1.920 -0.3436  0.0409  0.3731
 1136SOL    MW4 4617   3.156   0.081   1.951 -0.4578  0.0513  0.0927
 1137SOL     OW 4618   3.134   0.346   1.849  0.0163  0.1908 -0.3516
 1137SOL    HW2 4619   3.137   0.254   1.875 -2.6513  0.3065  0.4630
 1137SOL    HW3 4620   3.151   0.344   1.755  1.6418 -0.9440 -0.0748
 1137SOL    MW4 4621   3.137   0.333   1.840 -0.1211  0.0564 -0.2075
 1138SOL     OW 4622   3.347   0.470   1.981  0.0763  0.1871 -0.8037
 1138SOL    HW2 4623   3.431   0.438   1.949  0.4395  0.9851 -0.6500
 1138SOL    HW3 4624   3.282   0.417   1.934  0.6556 -0.1877 -1.1856
 1138SOL    MW4 4625   3.349   0.459   1.971  0.2007  0.2429 -0.8340
 1139SOL     OW 4626   3.349   0.742   1.897 -0.1148 -0.3032  0.3779
 1139SOL    HW2 4627   3.275   0.791   1.932  0.9849  2.0448 -0.4529
 1139SOL    HW3 4628   3.343   0.656   1.939 -2.3171  0.3916  1.5945
 1139SOL    MW4 4629   3.338   0.737   1.907 -0.2604  0.0983  0.4287
 1140SOL     OW 4630   3.122   0.874   1.984  0.0106 -0.1618  0.8126
 1140SOL    HW2 4631   3.127   0.887   2.078 -0.5430  1.4185  0.6370
 1140SOL    HW3 4632   3.128   0.962   1.947  0.8959 -0.8188 -0.6587
 1140SOL    MW4 4633   3.124   0.887   1.991  0.0541 -0.0399  0.5953
 1141SOL     OW 4634   3.136   1.110   1.859  0.0104 -0.2528  0.4241
 1141SOL    HW2 4635   3.214   1.159   1.886  0.0610 -0.6315  0.9919
 1141SOL    HW3 4636   3.064   1.151   1.907 -0.1408  0.0816 -0.0823
 1141SOL    MW4 4637   3.137   1.122   1.869 -0.0026 -0.2587  0.4321
 1142SOL     OW 4638   3.371   1.240   1.935  0.1404 -0.4859 -0.3040
 1142SOL    HW2 4639   3.347   1.245   2.028 -1.0526 -0.0864 -0.6245
 1142SOL    HW3 4640   3.365   1.330   1.904  1.9540 -0.3949 -0.4405
 1142SOL    MW4 4641   3.367   1.252   1.943  0.2217 -0.4212 -0.3644
 1143SOL     OW 4642   3.360   1.555   1.834  0.3230  0.5879  0.1417
 1143SOL    HW2 4643   3.424   1.595   1.892  0.2086  0.3190  0.4558
 1143SOL    HW3 4644   3.275   1.590   1.863  0.2325  0.1955  0.3565
 1143SOL    MW4 4645   3.357   1.565   1.845  0.2961  0.5007  0.2115
 1144SOL     OW 4646   3.134   1.656   1.984 -0.0864  0.1815  0.8162
 1144SOL    HW2 4647   3.146   1.668   2.078 -0.6763  1.2103  0.7749
 1144SOL    HW3 4648   3.140   1.745   1.948  0.3134 -0.2229 -0.1386
 1144SOL    MW4 4649   3.136   1.670   1.992 -0.1111  0.2640  0.6846
 1145SOL     OW 4650   3.155   1.911   1.848 -0.3830 -0.2133 -0.0756
 1145SOL    HW2 4651   3.233   1.951   1.886 -0.9714  0.0616  0.8786
 1145SOL    HW3 4652   3.176   1.899   1.756  0.8275 -0.2553  0.2029
 1145SOL    MW4 4653   3.168   1.915   1.841 -0.3006 -0.1826  0.0873
 1146SOL     OW 4654   3.398   2.002   1.986  0.1181  0.4048  0.0300
 1146SOL    HW2 4655   3.472   1.955   1.947 -0.0696  0.6166 -0.5885
 1146SOL    HW3 4656   3.397   2.087   1.943 -0.4292  0.4383  0.0974
 1146SOL    MW4 4657   3.408   2.007   1.975  0.0212  0.4370 -0.0427
 1147SOL     OW 4658   3.357   2.227   1.845  0.2866 -0.2016 -0.2735
 1147SOL    HW2 4659   3.283   2.286   1.861  0.0548 -0.1510 -1.4773
 1147SOL    HW3 4660   3.365   2.224   1.750  0.8195 -1.4729 -0.2001
 1147SOL    MW4 4661   3.348   2.235   1.834  0.3262 -0.3624 -0.4227
 1148SOL     OW 4662   3.152   2.412   1.947  0.4240  0.2008 -0.0014
 1148SOL    HW2 4663   3.126   2.405   2.038 -1.8416  0.6324 -0.5983
 1148SOL    HW3 4664   3.154   2.506   1.930  0.3245  0.1062 -0.5445
 1148SOL    MW4 4665   3.149   2.423   1.957  0.1121  0.2456 -0.1520
 1149SOL     OW 4666   3.131   2.677   1.907 -0.5839 -0.0774  0.4193
 1149SOL    HW2 4667   3.066   2.734   1.947 -1.0455  0.2143 -0.7093
 1149SOL    HW3 4668   3.118   2.690   1.813  0.8916 -0.2561  0.1842
 1149SOL    MW4 4669   3.121   2.687   1.900 -0.4499 -0.0627  0.2394
 1150SOL     OW 4670   3.404   2.786   1.971 -0.5583 -0.3876  0.3533
 1150SOL    HW2 4671   3.407   2.787   2.067 -0.2261 -1.0597  0.3570
 1150SOL    HW3 4672   3.316   2.753   1.951 -0.4149 -0.8190  0.4316
 1150SOL    MW4 4673   3.393   2.781   1.981 -0.4957 -0.5331  0.3642
 1151SOL     OW 4674   3.341   3.052   1.877 -0.3099  0.5379  0.6166
 1151SOL    HW2 4675   3.411   3.115   1.895  0.5889  0.1258 -1.2657
 1151SOL    HW3 4676   3.378   2.967   1.902 -0.2216  0.3547 -0.1111
 1151SOL    MW4 4677   3.355   3.049   1.883 -0.1800  0.4592  0.2723
 1152SOL     OW 4678   3.142   3.204   1.993  0.1613  0.2436  0.6732
 1152SOL    HW2 4679   3.153   3.293   1.961 -0.9443 -0.0097 -0.4769
 1152SOL    HW3 4680   3.221   3.158   1.964 -0.8763 -0.0162 -1.9053
 1152SOL    MW4 4681   3.154   3.209   1.985 -0.1216  0.1757  0.1812
 1153SOL     OW 4682   3.132   3.461   1.875  0.1735 -0.1736 -0.1557
 1153SOL    HW2 4683   3.215   3.505   1.897  0.4463 -0.1081 -1.2630
 1153SOL    HW3 4684   3.134   3.455   1.779 -1.0897 -0.2121 -0.1766
 1153SOL    MW4 4685   3.144   3.466   1.865  0.0429 -0.1702 -0.3046
 1154SOL     OW 4686   3.382   3.556   1.978 -0.2369 -0.5017 -0.1676
 1154SOL    HW2 4687   3.464   3.515   1.950 -0.3895 -0.8881 -0.0541
 1154SOL    HW3 4688   3.391   3.647   1.952  0.7927 -0.2331  1.0778
 1154SOL    MW4 4689   3.394   3.562   1.971 -0.1211 -0.5174  0.0117
 1155SOL     OW 4690   3.352   3.799   1.866  0.0162  0.5824 -0.0379
 1155SOL    HW2 4691   3.267   3.836   1.889 -0.9092 -1.8499  0.5726
 1155SOL    HW3 4692   3.366   3.829   1.776 -1.6073  0.8249 -0.2401
 1155SOL    MW4 4693   3.342   3.807   1.857 -0.3202  0.2935  0.0159
 1156SOL     OW 4694   3.138   3.939   1.951 -0.3894 -0.5738  0.2098
 1156SOL    HW2 4695   3.141   3.933   2.046 -0.1136 -0.1697  0.2291
 1156SOL    HW3 4696   3.048   3.917   1.928 -0.5193 -0.4319  0.5830
 1156SOL    MW4 4697   3.126   3.935   1.961 -0.3703 -0.5014  0.2615
 1157SOL     OW 4698   3.119   4.188   1.840 -0.3804  0.0344  0.1134
 1157SOL    HW2 4699   3.138   4.111   1.894  0.0326  0.5624  0.7423
 1157SOL    HW3 4700   3.058   4.239   1.894  0.7762  1.0301  0.5106
 1157SOL    MW4 4701   3.113   4.185   1.855 -0.1733  0.2356  0.2489
 1158SOL     OW 4702   3.341   4.341   1.938 -0.3709  0.2667  0.2829
 1158SOL    HW2 4703   3.415   4.284   1.914  0.2403  0.7338  1.0628
 1158SOL    HW3 4704   3.264   4.292   1.909  0.2634  0.0311 -1.0581
 1158SOL    MW4 4705   3.341   4.327   1.931 -0.2065  0.2971  0.2089
 1159SOL     OW 4706   3.847   4.640   1.884 -0.6558 -0.2621  0.5529
 1159SOL    HW2 4707   3.838   4.551   1.918 -0.3337 -1.0245 -1.2978
 1159SOL    HW3 4708   3.767   4.685   1.912 -1.4498 -1.5222  0.3170
 1159SOL    MW4 4709   3.835   4.634   1.892 -0.7184 -0.5293  0.2776
 1160SOL     OW 4710   3.608   0.105   1.964 -0.2309  0.0680 -0.3737
 1160SOL    HW2 4711   3.614   0.105   2.060 -0.2008  0.3472 -0.3743
 1160SOL    HW3 4712   3.533   0.048   1.945  0.2107 -0.5666 -0.2187
 1160SOL    MW4 4713   3.599   0.098   1.974 -0.1686  0.0211 -0.3533
 1161SOL     OW 4714   3.596   0.359   1.879  0.2439 -0.0689  0.4546
 1161SOL    HW2 4715   3.584   0.265   1.896  1.2182 -0.4434 -0.8372
 1161SOL    HW3 4716   3.606   0.365   1.784 -0.7693  1.4692  0.4171
 1161SOL    MW4 4717   3.596   0.347   1.869  0.2387  0.0846  0.2792
 1162SOL     OW 4718   3.793   0.492   2.020  0.4331  0.1093 -0.2017
 1162SOL    HW2 4719   3.800   0.581   1.987 -1.9574  1.0428  1.6643
 1162SOL    HW3 4720   3.712   0.458   1.982  0.6277 -0.7805  0.1702
 1162SOL    MW4 4721   3.783   0.499   2.011  0.1433  0.1151  0.0937
 1163SOL     OW 4722   3.846   0.720   1.884 -0.0472  0.3879 -0.4504
 1163SOL    HW2 4723   3.769   0.778   1.889  0.7385  1.3878  0.1239
 1163SOL    HW3 4724   3.867   0.718   1.790 -0.4947  0.4754 -0.5571
 1163SOL    MW4 4725   3.838   0.727   1.872 -0.0024  0.5314 -0.3886
 1164SOL     OW 4726   3.598   0.866   1.956 -0.1482  0.2986  0.0120
 1164SOL    HW2 4727   3.577   0.949   1.914 -0.3201  0.3006  0.0987
 1164SOL    HW3 4728   3.527   0.808   1.931  0.7612 -0.2663 -1.2949
 1164SOL    MW4 4729   3.586   0.869   1.947 -0.0508  0.2243 -0.1490
 1165SOL     OW 4730   3.597   1.128   1.842 -0.3418 -0.5227  0.3078
 1165SOL    HW2 4731   3.516   1.164   1.878  1.5193  2.1919  1.9892
 1165SOL    HW3 4732   3.594   1.150   1.749 -1.4501 -0.2982  0.3889
 1165SOL    MW4 4733   3.586   1.136   1.835 -0.2422 -0.1349  0.5404
 1166SOL     OW 4734   3.813   1.272   1.984 -0.4990  0.2176 -0.3315
 1166SOL    HW2 4735   3.806   1.279   2.079  2.3246 -0.0640 -0.0491
 1166SOL    HW3 4736   3.741   1.215   1.958 -1.3118  0.3267  1.6373
 1166SOL    MW4 4737   3.803   1.265   1.993 -0.2337  0.1948 -0.0346
 1167SOL     OW 4738   3.812   1.523   1.899  0.0026  0.2253 -0.3105
 1167SOL    HW2 4739   3.890   1.561   1.941  0.4451 -0.3634 -0.5845
 1167SOL    HW3 4740   3.802   1.438   1.941 -0.5150  0.3128 -0.2596
 1167SOL    MW4 4741   3.821   1.517   1.910 -0.0074  0.1591 -0.3399
 1168SOL     OW 4742   3.584   1.672   1.977  0.0872  0.8744 -0.1363
 1168SOL    HW2 4743   3.591   1.653   2.071 -1.7335 -0.5881 -0.2733
 1168SOL    HW3 4744   3.652   1.618   1.937  0.0601  0.5765  0.2143
 1168SOL    MW4 4745   3.594   1.662   1.984 -0.1566  0.6422 -0.1082
 1169SOL     OW 4746   3.614   1.912   1.862 -0.7270 -0.1946 -0.1347
 1169SOL    HW2 4747   3.691   1.942   1.911  0.6377 -0.9679 -1.7925
 1169SOL    HW3 4748   3.591   1.828   1.902 -0.3035 -0.2870 -0.0843
 1169SOL    MW4 4749   3.621   1.905   1.874 -0.4911 -0.3088 -0.3468
 1170SOL     OW 4750   3.861   2.033   2.005  0.0959 -0.2291 -0.2925
 1170SOL    HW2 4751   3.927   1.981   1.960  0.9159  0.4700  0.0730
 1170SOL    HW3 4752   3.863   2.118   1.960 -0.0525  0.0233  0.1753
 1170SOL    MW4 4753   3.870   2.037   1.993  0.1845 -0.1035 -0.1827
 1171SOL     OW 4754   3.838   2.251   1.846  0.3958 -0.0250  0.2101
 1171SOL    HW2 4755   3.908   2.300   1.890  1.4219 -0.9653 -0.3493
 1171SOL    HW3 4756   3.758   2.294   1.874  1.1645  0.7146  1.3234
 1171SOL    MW4 4757   3.837   2.263   1.855  0.6325 -0.0513  0.2831
 1172SOL     OW 4758   3.574   2.366   1.938 -0.3168 -0.1484  0.7643
 1172SOL    HW2 4759   3.565   2.456   1.907  0.9330 -0.5951 -0.9583
 1172SOL    HW3 4760   3.499   2.320   1.899  0.5477 -0.4284 -0.6116
 1172SOL    MW4 4761   3.563   2.372   1.929 -0.0381 -0.2444  0.3556
 1173SOL     OW 4762   3.586   2.636   1.832  0.4218 -0.4864 -0.4934
 1173SOL    HW2 4763   3.671   2.665   1.865  0.6004  0.4794 -1.7659
 1173SOL    HW3 4764   3.522   2.688   1.880  0.5755 -0.8245  0.0751
 1173SOL    MW4 4765   3.589   2.647   1.843  0.4656 -0.4036 -0.5864
 1174SOL     OW 4766   3.815   2.780   1.972  0.1489 -0.1382  0.3750
 1174SOL    HW2 4767   3.817   2.798   2.066 -0.9116  0.4551  0.2925
 1174SOL    HW3 4768   3.821   2.867   1.931  0.0311 -0.3498 -0.0950
 1174SOL    MW4 4769   3.816   2.794   1.979 -0.0064 -0.0880  0.3020
 1175SOL     OW 4770   3.809   3.051   1.869 -0.1661  0.5335  0.0464
 1175SOL    HW2 4771   3.729   3.083   1.911 -0.5829 -0.9196  0.3832
 1175SOL    HW3 4772   3.794   3.062   1.775 -0.5130  0.8081  0.1342
 1175SOL    MW4 4773   3.797   3.057   1.862 -0.2668  0.3781  0.1025
 1176SOL     OW 4774   3.572   3.171   1.946  0.0154 -0.1713  0.1407
 1176SOL    HW2 4775   3.574   3.184   2.041  3.4915  1.1941 -0.0724
 1176SOL    HW3 4776   3.587   3.257   1.909  0.2379 -0.9552 -1.6553
 1176SOL    MW4 4777   3.574   3.184   1.954  0.5033 -0.0944 -0.1242
 1177SOL     OW 4778   3.628   3.442   1.880  0.3722 -0.0238  0.0795
 1177SOL    HW2 4779   3.703   3.484   1.922  0.6196 -0.5091  0.1286
 1177SOL    HW3 4780   3.646   3.451   1.786  1.1236 -1.2526  0.0964
 1177SOL    MW4 4781   3.640   3.449   1.873  0.5043 -0.2499  0.0881
 1178SOL     OW 4782   3.812   3.598   1.991  0.4833 -0.7155 -0.0317
 1178SOL    HW2 4783   3.893   3.565   1.953 -0.0881 -1.2736 -0.7813
 1178SOL    HW3 4784   3.797   3.682   1.949  0.1706 -1.0543 -0.6010
 1178SOL    MW4 4785   3.821   3.605   1.981  0.3664 -0.8340 -0.2056
 1179SOL     OW 4786   3.826   3.848   1.844  0.0112 -0.0897 -0.0179
 1179SOL    HW2 4787   3.741   3.875   1.878 -0.4130 -1.7947  0.3705
 1179SOL    HW3 4788   3.814   3.842   1.750  0.1113  1.0195 -0.1073
 1179SOL    MW4 4789   3.814   3.850   1.836 -0.0317 -0.1683  0.0215
 1180SOL     OW 4790   3.596   3.922   1.980 -0.1949 -0.3702 -0.0958
 1180SOL    HW2 4791   3.593   3.917   2.075  3.1557 -1.5822  0.0406
 1180SOL    HW3 4792   3.507   3.903   1.951 -1.1612 -0.3960  2.7792
 1180SOL    MW4 4793   3.584   3.919   1.988  0.1199 -0.5333  0.3016
 1181SOL     OW 4794   3.616   4.183   1.888 -0.0787 -0.1812  0.2500
 1181SOL    HW2 4795   3.691   4.228   1.926  0.2597 -0.3137 -0.2501
 1181SOL    HW3 4796   3.616   4.097   1.929  1.2098 -0.8887 -1.1499
 1181SOL    MW4 4797   3.626   4.177   1.898  0.1359 -0.2918 -0.0007
 1182SOL     OW 4798   3.810   4.369   1.946 -0.0098 -0.2705 -0.2201
 1182SOL    HW2 4799   3.806   4.358   2.041 -0.5021  0.6990 -0.1167
 1182SOL    HW3 4800   3.894   4.332   1.921 -0.8728 -2.6525  0.2861
 1182SOL    MW4 4801   3.821   4.363   1.956 -0.1886 -0.4568 -0.1397
 1183SOL     OW 4802   4.257   4.645   1.894 -0.3278 -0.0248 -0.5857
 1183SOL    HW2 4803   4.185   4.690   1.939 -1.0754 -1.9491  0.2399
 1183SOL    HW3 4804   4.336   4.684   1.931 -0.9464  0.3092  0.4270
 1183SOL    MW4 4805   4.258   4.656   1.905 -0.5083 -0.2351 -0.3432
 1184SOL     OW 4806   4.053   0.142   1.995 -0.5108  0.0006 -0.1331
 1184SOL    HW2 4807   4.040   0.144   2.090 -0.0954  0.7565 -0.0929
 1184SOL    HW3 4808   3.976   0.096   1.962  0.6727 -2.8287  0.8122
 1184SOL    MW4 4809   4.041   0.136   2.003 -0.2999 -0.2730 -0.0031
 1185SOL     OW 4810   4.014   0.402   1.909  0.4389  0.2788  0.3432
 1185SOL    HW2 4811   4.031   0.313   1.938  0.3716 -0.1711 -0.9545
 1185SOL    HW3 4812   3.931   0.426   1.950  0.5496 -0.1846  0.8375
 1185SOL    MW4 4813   4.006   0.393   1.918  0.4449  0.1583  0.2373
 1186SOL     OW 4814   4.266   0.502   1.981  0.2752  0.4470 -0.0447
 1186SOL    HW2 4815   4.263   0.507   2.076 -0.7339  0.1980 -0.0543
 1186SOL    HW3 4816   4.178   0.473   1.956  1.4194 -2.3824 -0.8985
 1186SOL    MW4 4817   4.254   0.499   1.990  0.2928  0.0408 -0.1587
 1187SOL     OW 4818   4.274   0.748   1.841  0.2277  0.2480 -0.7500
 1187SOL    HW2 4819   4.270   0.657   1.869  0.2142  0.1345 -1.1106
 1187SOL    HW3 4820   4.288   0.743   1.746  0.8034  0.6190 -0.6917
 1187SOL    MW4 4821   4.276   0.736   1.832  0.3018  0.2820 -0.7898
 1188SOL     OW 4822   4.072   0.879   1.995  0.3395 -0.0130 -0.5654
 1188SOL    HW2 4823   4.143   0.827   1.957  0.3026 -1.2535  0.9718
 1188SOL    HW3 4824   3.993   0.828   1.979  0.0119  0.5936 -0.8883
 1188SOL    MW4 4825   4.071   0.865   1.988  0.2918 -0.0967 -0.4052
 1189SOL     OW 4826   4.050   1.143   1.907 -0.2326  0.6531  0.0577
 1189SOL    HW2 4827   4.054   1.055   1.946  1.9408  1.1476  1.0203
 1189SOL    HW3 4828   3.965   1.177   1.934 -1.5725 -1.5718 -1.2593
 1189SOL    MW4 4829   4.040   1.136   1.916 -0.1225  0.4249  0.0110
 1190SOL     OW 4830   4.294   1.272   1.954  0.0469 -0.3887  0.2332
 1190SOL    HW2 4831   4.297   1.280   2.049 -1.5171 -0.4270  0.2866
 1190SOL    HW3 4832   4.206   1.240   1.935  0.0995  0.3279 -1.2863
 1190SOL    MW4 4833   4.283   1.269   1.964 -0.1526 -0.2992  0.0398
 1191SOL     OW 4834   4.265   1.554   1.880  0.0112 -0.2385  0.3951
 1191SOL    HW2 4835   4.284   1.464   1.907  1.1719  0.0407  0.5265
 1191SOL    HW3 4836   4.264   1.551   1.785  0.8142 -0.2369  0.3876
 1191SOL    MW4 4837   4.267   1.542   1.871  0.2704 -0.2015  0.4114
 1192SOL     OW 4838   4.032   1.634   2.021 -0.1973 -0.4068 -0.1471
 1192SOL    HW2 4839   4.048   1.649   2.114  1.6446  2.2069 -0.8057
 1192SOL    HW3 4840   4.116   1.604   1.987 -0.4052  0.2304 -1.2486
 1192SOL    MW4 4841   4.045   1.632   2.029  0.0176  0.0221 -0.3796
 1193SOL     OW 4842   4.019   1.885   1.830  0.1846 -0.0161 -0.1075
 1193SOL    HW2 4843   4.000   1.793   1.845 -2.1988  0.5931  0.9878
 1193SOL    HW3 4844   4.025   1.894   1.735 -0.3531 -1.1697 -0.2560
 1193SOL    MW4 4845   4.017   1.874   1.819 -0.2012 -0.0880  0.0175
 1194SOL     OW 4846   4.223   2.044   1.941  0.9132  0.3106 -0.2566
 1194SOL    HW2 4847   4.217   2.046   2.037  0.4716  0.3027 -0.2816
 1194SOL    HW3 4848   4.159   1.979   1.915 -0.1882  1.5359 -0.6557
 1194SOL    MW4 4849   4.214   2.036   1.951  0.7100  0.4711 -0.3126
 1195SOL     OW 4850   0.002   2.466   1.996  0.1999 -0.1249  0.5959
 1195SOL    HW2 4851  -0.072   2.411   1.974  0.4111 -0.2327  0.1557
 1195SOL    HW3 4852   0.012   2.457   2.091  0.1471 -0.7267  0.5428
 1195SOL    MW4 4853  -0.006   2.458   2.005  0.2208 -0.2186  0.5307
 1196SOL     OW 4854   4.282   2.303   1.894 -0.8450 -0.6456 -0.1466
 1196SOL    HW2 4855   4.193   2.336   1.904 -0.5788  0.0020  0.0764
 1196SOL    HW3 4856   4.273   2.208   1.901 -1.7392 -0.6938 -1.8065
 1196SOL    MW4 4857   4.269   2.295   1.897 -0.9279 -0.5665 -0.3362
 1197SOL     OW 4858   4.031   2.417   1.966 -0.2701 -0.0916  0.3776
 1197SOL    HW2 4859   4.025   2.434   2.060 -0.8763  1.5761  0.0397
 1197SOL    HW3 4860   4.027   2.503   1.925 -0.6902 -0.8483 -1.2196
 1197SOL    MW4 4861   4.030   2.430   1.973 -0.4053  0.0286  0.1222
 1198SOL     OW 4862   4.033   2.668   1.849 -0.1343 -0.5248 -0.0380
 1198SOL    HW2 4863   4.111   2.703   1.891  0.0176 -0.6335 -0.2278
 1198SOL    HW3 4864   3.960   2.715   1.890  0.0931  0.3516 -0.6280
 1198SOL    MW4 4865   4.034   2.679   1.860 -0.0839 -0.4234 -0.1409
 1199SOL     OW 4866   4.238   3.073   1.869 -0.0437 -0.0108  0.3545
 1199SOL    HW2 4867   4.173   3.124   1.917  1.0031  0.0777  1.6924
 1199SOL    HW3 4868   4.233   2.986   1.907 -0.7775 -0.5363 -0.9155
 1199SOL    MW4 4869   4.228   3.068   1.880 -0.0024 -0.0684  0.3635
 1200SOL     OW 4870   4.008   3.203   1.976 -0.2413 -0.6681  0.2862
 1200SOL    HW2 4871   3.997   3.191   2.070 -0.6536  0.6700  0.4173
 1200SOL    HW3 4872   3.932   3.159   1.938 -0.9028  0.1554  0.6598
 1200SOL    MW4 4873   3.997   3.195   1.983 -0.3831 -0.3831  0.3529
 1201SOL     OW 4874   4.023   3.465   1.861 -0.1116  0.0521  0.1158
 1201SOL    HW2 4875   4.107   3.500   1.891 -0.3133 -0.1779  0.9559
 1201SOL    HW3 4876   4.018   3.377   1.898 -0.3409 -0.2516 -0.6394
 1201SOL    MW4 4877   4.033   3.458   1.870 -0.1683 -0.0181  0.1270
 1202SOL     OW 4878   4.254   3.614   1.955  0.2070  0.3920 -0.2423
 1202SOL    HW2 4879   4.331   3.571   1.918  0.7743  1.7045 -0.6094
 1202SOL    HW3 4880   4.256   3.593   2.048 -1.0909 -2.7441 -0.8726
 1202SOL    MW4 4881   4.264   3.606   1.962  0.1106  0.1512 -0.3740
 1203SOL     OW 4882   4.270   3.858   1.829 -0.0536 -0.4556  0.0293
 1203SOL    HW2 4883   4.342   3.916   1.855 -0.2385  0.2822 -1.0363
 1203SOL    HW3 4884   4.289   3.775   1.872 -0.1071  0.5662  2.0994
 1203SOL    MW4 4885   4.282   3.855   1.838 -0.0854 -0.2236  0.1619
 1204SOL     OW 4886   4.058   3.989   1.933  0.0720 -0.2960 -0.0387
 1204SOL    HW2 4887   4.126   3.928   1.904  0.6040 -0.1764  0.9677
 1204SOL    HW3 4888   3.976   3.947   1.905  0.5673 -0.2026 -1.6921
 1204SOL    MW4 4889   4.056   3.975   1.925  0.2079 -0.2680 -0.1241
 1205SOL     OW 4890   4.038   4.264   1.850 -0.3814 -0.2027 -0.1467
 1205SOL    HW2 4891   4.100   4.309   1.908 -1.6242  1.7248 -0.2864
 1205SOL    HW3 4892   4.052   4.171   1.869  0.5028  0.3144  1.9397
 1205SOL    MW4 4893   4.048   4.258   1.860 -0.4292  0.1202  0.1101
 1206SOL     OW 4894   4.257   4.385   1.988 -0.2574  0.1387  0.1035
 1206SOL    HW2 4895   4.273   4.391   2.082 -0.1643  1.2363  0.0307
 1206SOL    HW3 4896   4.253   4.476   1.959  2.5439 -0.1852 -1.4412
 1206SOL    MW4 4897   4.259   4.398   1.997  0.1245  0.2413 -0.1098
 1207SOL     OW 4898   0.278   4.658   2.403  0.4400  0.0258 -0.3248
 1207SOL    HW2 4899   0.255   4.678   2.493  0.0500  0.6003 -0.5484
 1207SOL    HW3 4900   0.357   4.710   2.386  1.1536 -0.9370  0.0324
 1207SOL    MW4 4901   0.285   4.668   2.412  0.4827 -0.0255 -0.3073
 1208SOL     OW 4902   0.029   0.084   2.295  0.1995 -0.3289  0.7703
 1208SOL    HW2 4903   0.114   0.055   2.328  0.5456  0.3949  0.5336
 1208SOL    HW3 4904   0.032   0.066   2.201  0.7787  1.2783  0.4554
 1208SOL    MW4 4905   0.040   0.078   2.287  0.3216 -0.0213  0.6974
 1209SOL     OW 4906   4.447   0.330   2.366 -0.1634 -0.0951 -0.1310
 1209SOL    HW2 4907   4.519   0.389   2.340 -0.6731  0.1253 -1.0698
 1209SOL    HW3 4908   4.472   0.245   2.330 -0.3422 -0.0329 -0.4015
 1209SOL    MW4 4909   4.460   0.327   2.358 -0.2546 -0.0578 -0.2904
 1210SOL     OW 4910   0.167   0.485   2.291 -0.5238  0.1329  0.1988
 1210SOL    HW2 4911   0.254   0.456   2.318 -0.9346 -0.6478  0.7041
 1210SOL    HW3 4912   0.173   0.492   2.196  0.0629 -0.0303  0.2198
 1210SOL    MW4 4913   0.179   0.482   2.282 -0.5006  0.0083  0.2682
 1211SOL     OW 4914   0.182   0.757   2.318 -0.6456 -0.0927  0.6331
 1211SOL    HW2 4915   0.208   0.764   2.410  1.5800  0.2459  0.0030
 1211SOL    HW3 4916   0.183   0.662   2.301 -0.6765 -0.1329  0.8444
 1211SOL    MW4 4917   0.185   0.745   2.328 -0.3561 -0.0533  0.5779
 1212SOL     OW 4918   4.452   0.902   2.259  0.0929 -0.2822 -0.1807
 1212SOL    HW2 4919   4.522   0.843   2.288  0.7695  0.7048  0.1970
 1212SOL    HW3 4920   4.465   0.911   2.165 -1.2376 -2.3460 -0.5911
 1212SOL    MW4 4921   4.463   0.895   2.251  0.0072 -0.4243 -0.1853
 1213SOL     OW 4922   0.022   1.125   2.397 -0.1016  0.0908  0.3085
 1213SOL    HW2 4923  -0.007   1.111   2.487  0.2142 -0.6021  0.3035
 1213SOL    HW3 4924   0.010   1.040   2.354  0.4200  0.2293 -0.1112
 1213SOL    MW4 4925   0.017   1.112   2.404  0.0086  0.0176  0.2525
 1214SOL     OW 4926   0.224   1.270   2.285 -0.1878  0.6601  0.2833
 1214SOL    HW2 4927   0.154   1.208   2.305  1.0716 -1.0633 -0.5326
 1214SOL    HW3 4928   0.232   1.267   2.189 -0.6402  2.7008  0.1449
 1214SOL    MW4 4929   0.216   1.262   2.275 -0.0813  0.7019  0.1576
 1215SOL     OW 4930   0.215   1.534   2.391  0.6945  0.0339  0.0336
 1215SOL    HW2 4931   0.225   1.530   2.486 -0.1187 -1.2218  0.0815
 1215SOL    HW3 4932   0.216   1.442   2.363  0.4851  0.3754 -1.1265
 1215SOL    MW4 4933   0.217   1.521   2.399  0.5596 -0.0868 -0.1130
 1216SOL     OW 4934   4.469   1.662   2.289 -0.4351  0.1864  0.1612
 1216SOL    HW2 4935   4.480   1.749   2.327 -0.7930  0.2310  0.1629
 1216SOL    HW3 4936   4.548   1.615   2.315 -0.8410  0.0978  1.2638
 1216SOL    MW4 4937   4.481   1.667   2.297 -0.5364  0.1806  0.3068
 1217SOL     OW 4938   4.434   1.954   2.359 -0.7849  0.0165 -0.0047
 1217SOL    HW2 4939   4.366   1.992   2.303 -1.1523  2.0830  1.7713
 1217SOL    HW3 4940   4.516   1.977   2.316 -1.1432 -0.5299 -0.9853
 1217SOL    MW4 4941   4.436   1.962   2.346 -0.8802  0.2170  0.1001
 1218SOL     OW 4942   0.197   2.005   2.245  0.2237  0.0909  0.0512
 1218SOL    HW2 4943   0.287   1.992   2.275  0.4456  0.7463 -0.3221
 1218SOL    HW3 4944   0.203   2.003   2.150 -0.0832  0.5872  0.0206
 1218SOL    MW4 4945   0.210   2.003   2.237  0.2125  0.2429 -0.0019
 1219SOL     OW 4946   0.219   2.272   2.334 -0.2279  0.3264  0.1523
 1219SOL    HW2 4947   0.233   2.271   2.429 -0.3127  0.7453  0.1687
 1219SOL    HW3 4948   0.202   2.180   2.312  0.1598  0.1687  0.4887
 1219SOL    MW4 4949   0.219   2.260   2.344 -0.1879  0.3607  0.1988
 1220SOL     OW 4950   0.002   2.445   2.278 -0.1985  0.2017 -0.7294
 1220SOL    HW2 4951   0.074   2.394   2.313 -1.1089 -0.9243 -0.4558
 1220SOL    HW3 4952   0.011   2.531   2.319 -0.2980 -0.6036  1.0358
 1220SOL    MW4 4953   0.012   2.450   2.288 -0.3318 -0.0532 -0.4604
 1221SOL     OW 4954   0.005   2.696   2.371  0.0125 -0.0217 -0.0610
 1221SOL    HW2 4955  -0.010   2.702   2.465 -0.4681 -1.1006 -0.0651
 1221SOL    HW3 4956   0.082   2.752   2.356  0.0829  0.1700  0.9603
 1221SOL    MW4 4957   0.013   2.704   2.381 -0.0415 -0.1388  0.0730
 1222SOL     OW 4958   0.242   2.832   2.288  0.3481 -0.0768 -0.0392
 1222SOL    HW2 4959   0.308   2.767   2.311  0.8708  0.2219 -0.6543
 1222SOL    HW3 4960   0.241   2.831   2.192 -0.1084  0.3525 -0.0402
 1222SOL    MW4 4961   0.250   2.823   2.278  0.3569  0.0191 -0.1206
 1223SOL     OW 4962   0.217   3.079   2.390  0.1998  0.3746  0.0775
 1223SOL    HW2 4963   0.136   3.108   2.347  0.4155 -0.4420 -0.8971
 1223SOL    HW3 4964   0.234   2.993   2.353  1.0468  0.1699  0.9351
 1223SOL    MW4 4965   0.208   3.072   2.380  0.3400  0.2398  0.0620
 1224SOL     OW 4966   4.473   3.210   2.278 -0.3231  0.0180  0.1531
 1224SOL    HW2 4967   4.486   3.300   2.308 -0.2936  0.3997 -0.9648
 1224SOL    HW3 4968   4.468   3.217   2.183  1.2612 -1.3651 -0.0518
 1224SOL    MW4 4969   4.474   3.223   2.269 -0.1101 -0.1140 -0.0212
 1225SOL     OW 4970   4.473   3.475   2.348  0.3546 -0.2568  0.1802
 1225SOL    HW2 4971   4.474   3.490   2.443 -1.4695  0.5772  0.0962
 1225SOL    HW3 4972   4.387   3.506   2.320  0.9080 -0.4161 -1.7711
 1225SOL    MW4 4973   4.462   3.481   2.357  0.1869 -0.1678 -0.0882
 1226SOL     OW 4974   0.199   3.590   2.229  0.3829 -0.0644  0.1636
 1226SOL    HW2 4975   0.274   3.566   2.283  0.2481  0.6066  0.6470
 1226SOL    HW3 4976   0.126   3.539   2.266  0.3352  0.2323  0.4769
 1226SOL    MW4 4977   0.199   3.580   2.241  0.3588  0.0637  0.2689
 1227SOL     OW 4978   0.207   3.840   2.343  0.2291 -0.1817 -0.2598
 1227SOL    HW2 4979   0.121   3.881   2.330 -0.9564 -2.0960  1.2893
 1227SOL    HW3 4980   0.203   3.760   2.291  1.1358 -0.2111 -0.2867
 1227SOL    MW4 4981   0.195   3.835   2.334  0.1923 -0.4380 -0.0587
 1228SOL     OW 4982   4.471   3.985   2.258  0.1320  0.3712  0.2298
 1228SOL    HW2 4983   4.481   4.080   2.263 -0.1713  0.3471  1.3802
 1228SOL    HW3 4984   4.470   3.966   2.165  0.0378  1.5167 -0.0089
 1228SOL    MW4 4985   4.472   3.995   2.247  0.0796  0.5190  0.3498
 1229SOL     OW 4986   0.004   4.253   2.347  0.3737 -0.0119  0.4480
 1229SOL    HW2 4987   0.006   4.242   2.441  0.7590 -0.8820  0.3334
 1229SOL    HW3 4988   0.089   4.292   2.325  0.8027 -1.0300  0.3005
 1229SOL    MW4 4989   0.015   4.257   2.356  0.4811 -0.2608  0.4134
 1230SOL     OW 4990   0.244   4.393   2.308  0.2921 -0.1147  0.2296
 1230SOL    HW2 4991   0.316   4.343   2.345 -0.3377 -0.5317  0.9024
 1230SOL    HW3 4992   0.266   4.484   2.328  0.1445 -0.3069  1.3184
 1230SOL    MW4 4993   0.256   4.398   2.316  0.1895 -0.1955  0.4618
 1231SOL     OW 4994   0.671   4.640   2.382 -0.0193 -0.2163  0.2371
 1231SOL    HW2 4995   0.686   4.642   2.477 -0.6715  0.6308  0.3255
 1231SOL    HW3 4996   0.742   4.693   2.345 -1.1979  1.5332  0.4489
 1231SOL    MW4 4997   0.682   4.647   2.390 -0.2608  0.1259  0.2766
 1232SOL     OW 4998   0.470   0.170   2.325 -0.4012  0.0085  0.0687
 1232SOL    HW2 4999   0.540   0.110   2.350  1.2534  1.6973 -0.2933
 1232SOL    HW3 5000   0.457   0.154   2.231 -0.7778 -0.6071  0.2314
 1232SOL    MW4 5001   0.478   0.160   2.316 -0.2326  0.1501  0.0427
 1233SOL     OW 5002   0.437   0.434   2.343  0.0084 -0.0722 -0.1097
 1233SOL    HW2 5003   0.440   0.447   2.438 -1.6109  0.6538 -0.1346
 1233SOL    HW3 5004   0.471   0.346   2.329  0.4137 -0.1172  1.1362
 1233SOL    MW4 5005   0.442   0.424   2.354 -0.1518  0.0177  0.0513
 1234SOL     OW 5006   0.692   0.544   2.294 -0.3485 -0.0263 -0.6939
 1234SOL    HW2 5007   0.687   0.634   2.326 -1.3961  0.3583 -1.8725
 1234SOL    HW3 5008   0.607   0.506   2.315  0.1467 -0.8103 -0.0492
 1234SOL    MW4 5009   0.680   0.551   2.301 -0.4215 -0.0790 -0.7644
 1235SOL     OW 5010   0.690   0.806   2.389  0.1775  0.3232  0.7027
 1235SOL    HW2 5011   0.672   0.806   2.482 -2.0893 -0.8046  0.2768
 1235SOL    HW3 5012   0.609   0.835   2.348  0.8878  0.0219 -0.9821
 1235SOL    MW4 5013   0.677   0.810   2.396 -0.0278  0.1346  0.4244
 1236SOL     OW 5014   0.456   0.885   2.228 -0.1526 -0.8037 -0.2996
 1236SOL    HW2 5015   0.370   0.844   2.242 -0.8452  0.5969 -0.3890
 1236SOL    HW3 5016   0.464   0.892   2.133 -1.0321  1.2789 -0.2555
 1236SOL    MW4 5017   0.445   0.881   2.218 -0.3600 -0.3441 -0.3054
 1237SOL     OW 5018   0.458   1.125   2.378  0.2495 -0.2147 -0.0192
 1237SOL    HW2 5019   0.447   1.045   2.326 -1.8464 -0.3382  0.5878
 1237SOL    HW3 5020   0.379   1.176   2.361  1.4442  1.6302 -0.1763
 1237SOL    MW4 5021   0.446   1.121   2.369  0.1306  0.0124  0.0403
 1238SOL     OW 5022   0.669   1.268   2.267  0.7222 -0.2080  0.4061
 1238SOL    HW2 5023   0.655   1.354   2.308 -0.0125  0.6479 -1.5861
 1238SOL    HW3 5024   0.592   1.217   2.292 -0.8153  1.0127 -1.6115
 1238SOL    MW4 5025   0.657   1.273   2.276  0.4224  0.0662 -0.1228
 1239SOL     OW 5026   0.678   1.525   2.366  0.3925  0.4091  0.3772
 1239SOL    HW2 5027   0.680   1.539   2.461 -0.1072 -0.2726  0.4967
 1239SOL    HW3 5028   0.757   1.568   2.333  0.4278  0.8756  1.0727
 1239SOL    MW4 5029   0.689   1.532   2.374  0.3312  0.3806  0.4847
 1240SOL     OW 5030   0.447   1.661   2.287  0.1472  0.2791  0.0183
 1240SOL    HW2 5031   0.526   1.613   2.311 -0.1258  0.3686  1.0888
 1240SOL    HW3 5032   0.380   1.629   2.347 -0.9528 -0.7106 -1.6810
 1240SOL    MW4 5033   0.449   1.650   2.298 -0.0339  0.1603 -0.0646
 1241SOL     OW 5034   0.470   1.923   2.348 -0.3995 -0.0223  0.3511
 1241SOL    HW2 5035   0.531   1.961   2.284  1.0015 -1.6512  0.6783
 1241SOL    HW3 5036   0.467   1.830   2.326 -3.8762  0.2253 -0.5086
 1241SOL    MW4 5037   0.478   1.916   2.336 -0.6734 -0.2046  0.2809
 1242SOL     OW 5038   0.646   2.043   2.178  0.1591 -0.0699  0.1466
 1242SOL    HW2 5039   0.714   1.996   2.226  0.8467  0.9819  0.2368
 1242SOL    HW3 5040   0.648   2.132   2.215  0.2472  0.5650 -1.3322
 1242SOL    MW4 5041   0.655   2.049   2.189  0.2615  0.1528 -0.0365
 1243SOL     OW 5042   0.661   2.304   2.315  0.2924 -0.5285  0.0734
 1243SOL    HW2 5043   0.662   2.301   2.411 -2.3140 -0.4419  0.1507
 1243SOL    HW3 5044   0.735   2.359   2.291  0.7852 -0.3071  2.0493
 1243SOL    MW4 5045   0.671   2.311   2.324  0.0135 -0.4878  0.3443
 1244SOL     OW 5046   0.437   2.420   2.231  0.4148 -0.4369 -0.3597
 1244SOL    HW2 5047   0.515   2.368   2.247  0.7886  0.5686  1.2194
 1244SOL    HW3 5048   0.367   2.372   2.276  0.2596 -0.9528 -1.1499
 1244SOL    MW4 5049   0.438   2.407   2.239  0.4436 -0.3724 -0.2558
 1245SOL     OW 5050   0.453   2.671   2.359 -0.3361  0.0377  0.3239
 1245SOL    HW2 5051   0.435   2.653   2.451 -1.8957 -1.4449 -0.2519
 1245SOL    HW3 5052   0.452   2.585   2.317  1.3655  0.5924 -0.9279
 1245SOL    MW4 5053   0.450   2.658   2.366 -0.3174 -0.0846  0.0830
 1246SOL     OW 5054   0.655   2.837   2.233  0.0368  0.4018  0.9850
 1246SOL    HW2 5055   0.724   2.799   2.287 -0.1416 -0.3398  0.6987
 1246SOL    HW3 5056   0.575   2.795   2.262 -0.0561 -0.0152  0.1390
 1246SOL    MW4 5057   0.654   2.826   2.244  0.0010  0.2487  0.8354
 1247SOL     OW 5058   0.683   3.074   2.376 -0.4812 -0.2849  0.0512
 1247SOL    HW2 5059   0.616   3.132   2.341 -1.9138 -1.7906  0.2586
 1247SOL    HW3 5060   0.660   2.987   2.342  0.7456 -0.9971  0.9874
 1247SOL    MW4 5061   0.671   3.070   2.367 -0.5083 -0.5777  0.2022
 1248SOL     OW 5062   0.451   3.210   2.300  0.4430  0.4281 -0.2682
 1248SOL    HW2 5063   0.372   3.164   2.329  0.4350  1.4599  1.3916
 1248SOL    HW3 5064   0.447   3.206   2.204 -2.5046  1.9000 -0.2803
 1248SOL    MW4 5065   0.440   3.204   2.291  0.0530  0.7582 -0.0505
 1249SOL     OW 5066   0.413   3.474   2.362  0.1134  0.0783  0.3318
 1249SOL    HW2 5067   0.491   3.517   2.327 -0.9513 -0.6545 -3.1419
 1249SOL    HW3 5068   0.430   3.381   2.351 -0.3461 -0.1763  1.6672
 1249SOL    MW4 5069   0.425   3.468   2.356 -0.0877 -0.0522  0.0498
 1250SOL     OW 5070   0.631   3.605   2.285 -0.2246 -0.2762  0.5608
 1250SOL    HW2 5071   0.630   3.700   2.294  1.5478 -0.2191  0.3109
 1250SOL    HW3 5072   0.636   3.590   2.191 -0.8974 -0.6232  0.5792
 1250SOL    MW4 5073   0.632   3.616   2.274 -0.0795 -0.3145  0.5305
 1251SOL     OW 5074   0.650   3.876   2.360 -0.6297 -0.1320 -0.2921
 1251SOL    HW2 5075   0.672   3.876   2.453 -0.3702 -1.3075 -0.3552
 1251SOL    HW3 5076   0.570   3.928   2.355 -2.0092 -2.0889  0.9040
 1251SOL    MW4 5077   0.643   3.883   2.372 -0.7774 -0.5455 -0.1426
 1252SOL     OW 5078   0.412   3.993   2.270  0.3033 -0.0951  0.6418
 1252SOL    HW2 5079   0.329   3.952   2.292  0.1040 -0.0007  0.0754
 1252SOL    HW3 5080   0.430   3.964   2.180  1.0072 -0.3282  0.8479
 1252SOL    MW4 5081   0.404   3.984   2.261  0.3699 -0.1135  0.5944
 1253SOL     OW 5082   0.456   4.253   2.371 -0.4496 -0.2611 -0.3200
 1253SOL    HW2 5083   0.546   4.277   2.350 -0.2133  0.4402  1.4197
 1253SOL    HW3 5084   0.441   4.171   2.324  0.4311  0.6191 -2.2092
 1253SOL    MW4 5085   0.466   4.246   2.362 -0.3022 -0.0525 -0.3397
 1254SOL     OW 5086   0.704   4.391   2.252  0.6642  0.0735 -0.0532
 1254SOL    HW2 5087   0.691   4.481   2.284  2.1851  0.4995 -0.6044
 1254SOL    HW3 5088   0.715   4.401   2.158  1.5413 -0.6225 -0.0262
 1254SOL    MW4 5089   0.704   4.404   2.244  0.9805  0.0377 -0.1225
 1255SOL     OW 5090   1.090   4.650   2.335  0.0952  0.2160 -0.1228
 1255SOL    HW2 5091   1.080   4.658   2.430  0.6391  2.0277 -0.1901
 1255SOL    HW3 5092   1.013   4.694   2.300  0.0618 -0.1632 -0.5244
 1255SOL    MW4 5093   1.078   4.657   2.343  0.1626  0.4048 -0.1848
 1256SOL     OW 5094   0.869   0.118   2.253 -0.0074  0.2856  0.2954
 1256SOL    HW2 5095   0.882   0.209   2.280  0.3208  0.4188 -0.2986
 1256SOL    HW3 5096   0.885   0.119   2.159 -2.5798  0.1177 -0.1791
 1256SOL    MW4 5097   0.873   0.130   2.244 -0.3035  0.2810  0.1545
 1257SOL     OW 5098   0.906   0.380   2.353 -0.0294  0.2010 -0.4904
 1257SOL    HW2 5099   0.986   0.430   2.334  0.2078 -0.7314 -1.9915
 1257SOL    HW3 5100   0.836   0.444   2.343  0.3722  0.5489 -1.1262
 1257SOL    MW4 5101   0.907   0.395   2.349  0.0549  0.1239 -0.7722
 1258SOL     OW 5102   1.119   0.537   2.256 -0.4969 -0.0835 -0.1420
 1258SOL    HW2 5103   1.197   0.483   2.266  1.1953  2.3284  0.0459
 1258SOL    HW3 5104   1.108   0.547   2.162  0.1720  0.6533 -0.1385
 1258SOL    MW4 5105   1.128   0.531   2.245 -0.1853  0.3319 -0.1168
 1259SOL     OW 5106   1.164   0.788   2.367 -0.3734 -0.5069 -0.1603
 1259SOL    HW2 5107   1.085   0.827   2.329 -0.6316 -0.9198 -0.0531
 1259SOL    HW3 5108   1.163   0.697   2.335 -1.2033 -1.1961  1.7601
 1259SOL    MW4 5109   1.153   0.781   2.357 -0.5169 -0.6523  0.1075
 1260SOL     OW 5110   0.939   0.932   2.291  0.1745  0.0876  0.0315
 1260SOL    HW2 5111   0.933   1.024   2.317  0.9822 -0.1368  1.0113
 1260SOL    HW3 5112   0.858   0.892   2.323 -0.3308  0.5269 -0.6907
 1260SOL    MW4 5113   0.928   0.939   2.298  0.2143  0.1159  0.0656
 1261SOL     OW 5114   0.906   1.173   2.394  0.1835  0.0163 -0.1991
 1261SOL    HW2 5115   0.969   1.232   2.354  0.7832 -1.3910 -1.3800
 1261SOL    HW3 5116   0.820   1.205   2.365  0.6014 -0.8716 -2.5153
 1261SOL    MW4 5117   0.903   1.185   2.385  0.3178 -0.2865 -0.6607
 1262SOL     OW 5118   1.102   1.323   2.277 -0.0031 -0.1521 -0.3304
 1262SOL    HW2 5119   1.172   1.261   2.297  0.7530  0.0872 -2.1620
 1262SOL    HW3 5120   1.099   1.326   2.181  0.4428  3.1495 -0.2884
 1262SOL    MW4 5121   1.110   1.315   2.267  0.1554  0.3150 -0.5667
 1263SOL     OW 5122   1.136   1.574   2.393 -0.5959  0.2823  0.1473
 1263SOL    HW2 5123   1.049   1.610   2.378  0.7313  3.1152 -1.0825
 1263SOL    HW3 5124   1.134   1.489   2.349 -2.7392  0.2374  0.2495
 1263SOL    MW4 5125   1.124   1.567   2.385 -0.7036  0.6502 -0.0012
 1264SOL     OW 5126   0.895   1.679   2.279 -0.0598  0.0351 -0.4751
 1264SOL    HW2 5127   0.882   1.772   2.297  0.3660  0.0658 -0.3192
 1264SOL    HW3 5128   0.920   1.676   2.187  2.6416  0.3397  0.1987
 1264SOL    MW4 5129   0.897   1.691   2.269  0.3527  0.0793 -0.3657
 1265SOL     OW 5130   0.876   1.960   2.327 -0.0627 -0.0411  0.2836
 1265SOL    HW2 5131   0.886   1.963   2.422 -0.3689  2.5566  0.2715
 1265SOL    HW3 5132   0.961   1.988   2.293  0.2115 -1.4652 -0.2342
 1265SOL    MW4 5133   0.888   1.964   2.335 -0.0669  0.1136  0.2136
 1266SOL     OW 5134   1.131   2.050   2.227  0.1510  0.4839  0.2173
 1266SOL    HW2 5135   1.207   2.004   2.264  0.0780  0.2071  0.0254
 1266SOL    HW3 5136   1.152   2.060   2.134 -0.2727 -0.0490  0.0617
 1266SOL    MW4 5137   1.144   2.045   2.219  0.0855  0.3772  0.1712
 1267SOL     OW 5138   1.115   2.332   2.347 -0.2093 -0.4833 -0.0316
 1267SOL    HW2 5139   1.187   2.376   2.302 -0.5125 -0.0865 -0.1248
 1267SOL    HW3 5140   1.118   2.242   2.315  0.1863 -0.4434 -0.1071
 1267SOL    MW4 5141   1.125   2.326   2.337 -0.1971 -0.4256 -0.0539
 1268SOL     OW 5142   0.896   2.451   2.254  0.2354  0.3411  0.0012
 1268SOL    HW2 5143   0.976   2.409   2.286  0.2678 -0.4571 -1.1260
 1268SOL    HW3 5144   0.898   2.438   2.159 -0.4416  1.7012 -0.2099
 1268SOL    MW4 5145   0.907   2.444   2.246  0.1504  0.4153 -0.1755
 1269SOL     OW 5146   0.872   2.721   2.349  0.0799 -0.3282  0.4427
 1269SOL    HW2 5147   0.884   2.731   2.443  0.5371 -0.4996  0.4037
 1269SOL    HW3 5148   0.898   2.630   2.331  1.5850  0.1874 -0.0963
 1269SOL    MW4 5149   0.877   2.710   2.359  0.3387 -0.2828  0.3664
 1270SOL     OW 5150   1.086   2.851   2.233  0.6762 -0.0788  0.1782
 1270SOL    HW2 5151   1.159   2.798   2.265  0.1754  0.2310  1.9174
 1270SOL    HW3 5152   1.008   2.810   2.271  0.1110  0.7193 -0.0927
 1270SOL    MW4 5153   1.085   2.839   2.242  0.5354  0.0677  0.3722
 1271SOL     OW 5154   1.094   3.083   2.403 -0.1103 -0.6027  0.1451
 1271SOL    HW2 5155   1.015   3.125   2.368  0.7484  0.5849 -0.3889
 1271SOL    HW3 5156   1.105   3.005   2.349  0.0472  0.1348 -0.8968
 1271SOL    MW4 5157   1.085   3.078   2.391  0.0238 -0.3488 -0.0627
 1272SOL     OW 5158   0.899   3.210   2.239  0.4404 -0.0347 -0.0784
 1272SOL    HW2 5159   0.899   3.294   2.286  0.7452 -0.1447  0.1169
 1272SOL    HW3 5160   0.825   3.162   2.277 -0.4772  0.6110 -1.0241
 1272SOL    MW4 5161   0.889   3.215   2.250  0.3596  0.0358 -0.1774
 1273SOL     OW 5162   0.884   3.456   2.365 -0.4052 -0.0935  0.7803
 1273SOL    HW2 5163   0.886   3.456   2.461  0.4167  2.7323  0.8166
 1273SOL    HW3 5164   0.833   3.533   2.343  0.1429 -0.2521 -1.0737
 1273SOL    MW4 5165   0.878   3.466   2.375 -0.2244  0.2582  0.5403
 1274SOL     OW 5166   1.105   3.578   2.263 -0.3467 -0.2230  0.1711
 1274SOL    HW2 5167   1.184   3.529   2.287 -0.0746 -0.2182 -0.7043
 1274SOL    HW3 5168   1.035   3.535   2.312  0.2472  0.0104  1.2444
 1274SOL    MW4 5169   1.106   3.566   2.273 -0.2325 -0.1915  0.1974
 1275SOL     OW 5170   1.105   3.848   2.321  0.5164 -0.1757  0.1123
 1275SOL    HW2 5171   1.183   3.897   2.295  1.7418 -1.2438  1.6095
 1275SOL    HW3 5172   1.121   3.759   2.287  0.1148 -0.4750  0.6923
 1275SOL    MW4 5173   1.118   3.842   2.313  0.6251 -0.3560  0.3862
 1276SOL     OW 5174   0.876   3.984   2.260  0.0527 -0.0698 -0.3617
 1276SOL    HW2 5175   0.949   3.934   2.298  0.4106 -0.1356 -1.1318
 1276SOL    HW3 5176   0.798   3.947   2.302  0.4326 -0.2517  0.1898
 1276SOL    MW4 5177   0.876   3.972   2.271  0.1501 -0.1028 -0.3905
 1277SOL     OW 5178   0.892   4.233   2.368 -0.2329 -0.1481  0.1966
 1277SOL    HW2 5179   0.889   4.151   2.317  1.5408 -0.1250  0.0248
 1277SOL    HW3 5180   0.832   4.292   2.321  1.2465 -0.1754 -1.8289
 1277SOL    MW4 5181   0.883   4.230   2.355  0.1963 -0.1488 -0.0930
 1278SOL     OW 5182   1.124   4.368   2.277 -0.2600  0.0822 -0.6207
 1278SOL    HW2 5183   1.041   4.326   2.300 -0.1175 -0.7649 -1.5986
 1278SOL    HW3 5184   1.112   4.460   2.301 -1.0177 -0.2845  0.4276
 1278SOL    MW4 5185   1.112   4.375   2.283 -0.3413 -0.0782 -0.6113
 1279SOL     OW 5186   1.577   4.631   2.350 -0.0281 -0.1385 -0.0090
 1279SOL    HW2 5187   1.645   4.677   2.301 -0.5097 -0.1345 -0.6850
 1279SOL    HW3 5188   1.496   4.676   2.326 -0.1428  0.6004  1.6706
 1279SOL    MW4 5189   1.575   4.643   2.340 -0.1067 -0.0410  0.1235
 1280SOL     OW 5190   1.351   0.087   2.255 -0.3697  0.2118 -0.3402
 1280SOL    HW2 5191   1.347   0.176   2.288 -0.9046  0.2257 -0.4478
 1280SOL    HW3 5192   1.262   0.053   2.264 -0.2984 -0.1186 -0.8327
 1280SOL    MW4 5193   1.339   0.094   2.260 -0.4308  0.1701 -0.4194
 1281SOL     OW 5194   1.311   0.355   2.332 -0.7257 -0.0750  0.4537
 1281SOL    HW2 5195   1.318   0.359   2.428  0.8498  1.3940  0.2955
 1281SOL    HW3 5196   1.384   0.408   2.300 -0.8918 -1.0283 -1.5809
 1281SOL    MW4 5197   1.322   0.362   2.341 -0.5398 -0.0069  0.1643
 1282SOL     OW 5198   1.523   0.522   2.233  0.0400 -0.4296 -0.2005
 1282SOL    HW2 5199   1.597   0.466   2.259 -0.8402 -1.1307  0.8559
 1282SOL    HW3 5200   1.526   0.524   2.138  2.3488  0.8113 -0.1577
 1282SOL    MW4 5201   1.533   0.515   2.224  0.2286 -0.3583 -0.0556
 1283SOL     OW 5202   1.576   0.774   2.350 -0.0873 -0.2084  0.1828
 1283SOL    HW2 5203   1.665   0.801   2.325 -0.8882  0.4915 -2.0538
 1283SOL    HW3 5204   1.567   0.686   2.313 -0.5428 -0.0332 -0.1183
 1283SOL    MW4 5205   1.587   0.766   2.342 -0.2531 -0.0929 -0.1519
 1284SOL     OW 5206   1.371   0.911   2.238  0.2863 -0.1660  0.4933
 1284SOL    HW2 5207   1.453   0.876   2.273 -0.7402 -0.8298  2.3369
 1284SOL    HW3 5208   1.303   0.854   2.274 -1.2102  1.9933  1.2491
 1284SOL    MW4 5209   1.373   0.899   2.248 -0.0466  0.0314  0.8361
 1285SOL     OW 5210   1.311   1.152   2.350  0.0975  0.1228  0.1774
 1285SOL    HW2 5211   1.319   1.143   2.445  1.5077  0.1080  0.0669
 1285SOL    HW3 5212   1.335   1.066   2.315  0.8618  0.5073 -0.2552
 1285SOL    MW4 5213   1.315   1.139   2.358  0.3843  0.1715  0.1059
 1286SOL     OW 5214   1.560   1.227   2.256  0.1351 -0.0640  0.3290
 1286SOL    HW2 5215   1.469   1.217   2.282  0.2791 -2.3839  0.0792
 1286SOL    HW3 5216   1.557   1.233   2.160  0.3245 -1.5237  0.2203
 1286SOL    MW4 5217   1.548   1.226   2.247  0.1789 -0.5625  0.2820
 1287SOL     OW 5218   1.566   1.505   2.337 -0.1201 -0.2590  0.2278
 1287SOL    HW2 5219   1.655   1.537   2.324 -0.6341  1.0317 -0.3401
 1287SOL    HW3 5220   1.566   1.417   2.301  0.5959  0.2440 -1.0352
 1287SOL    MW4 5221   1.578   1.498   2.330 -0.0933 -0.0222 -0.0141
 1288SOL     OW 5222   1.367   1.669   2.209  0.4967 -0.1937 -0.1071
 1288SOL    HW2 5223   1.439   1.626   2.255  0.5886  0.2330  0.1489
 1288SOL    HW3 5224   1.290   1.655   2.265  0.6551  0.5281  0.2992
 1288SOL    MW4 5225   1.366   1.661   2.222  0.5298 -0.0421 -0.0198
 1289SOL     OW 5226   1.376   1.922   2.296 -0.4438  0.6074 -0.4552
 1289SOL    HW2 5227   1.451   1.971   2.264  0.5959 -0.0544  0.9358
 1289SOL    HW3 5228   1.385   1.835   2.256  0.9634 -0.2805  1.7271
 1289SOL    MW4 5229   1.387   1.917   2.286 -0.1209  0.4029  0.0160
 1290SOL     OW 5230   1.572   2.089   2.209 -0.1049 -0.1040 -0.4135
 1290SOL    HW2 5231   1.650   2.060   2.256 -0.5823 -1.4549 -0.4421
 1290SOL    HW3 5232   1.600   2.091   2.117 -0.1240 -0.6493 -0.4312
 1290SOL    MW4 5233   1.586   2.086   2.203 -0.1705 -0.3543 -0.4196
 1291SOL     OW 5234   1.556   2.352   2.325 -0.0912 -0.0562 -0.3342
 1291SOL    HW2 5235   1.552   2.363   2.420  1.2830 -0.0091 -0.2728
 1291SOL    HW3 5236   1.539   2.259   2.310  2.0337 -0.5373  0.1307
 1291SOL    MW4 5237   1.553   2.342   2.336  0.3705 -0.1135 -0.2651
 1292SOL     OW 5238   1.322   2.456   2.222  0.1397 -0.0855 -0.1879
 1292SOL    HW2 5239   1.411   2.432   2.247  0.7927  1.8643 -0.4981
 1292SOL    HW3 5240   1.326   2.464   2.126 -0.3377  0.0767 -0.1942
 1292SOL    MW4 5241   1.334   2.454   2.213  0.1630  0.1931 -0.2298
 1293SOL     OW 5242   1.272   2.686   2.350 -0.1874  0.3803 -0.3815
 1293SOL    HW2 5243   1.357   2.723   2.330  0.0016  0.6119  0.8223
 1293SOL    HW3 5244   1.271   2.601   2.305  0.0964  1.0189 -1.6001
 1293SOL    MW4 5245   1.283   2.679   2.341 -0.1249  0.4952 -0.3834
 1294SOL     OW 5246   1.527   2.802   2.224 -0.1470  0.0965 -0.1339
 1294SOL    HW2 5247   1.528   2.892   2.259 -0.7704  0.0973 -0.1179
 1294SOL    HW3 5248   1.533   2.813   2.129 -0.2305  0.1579 -0.1327
 1294SOL    MW4 5249   1.528   2.816   2.216 -0.2402  0.1049 -0.1316
 1295SOL     OW 5250   1.554   3.055   2.317 -0.2191 -0.2543 -0.5909
 1295SOL    HW2 5251   1.556   3.072   2.411  0.9998  1.1530 -0.8472
 1295SOL    HW3 5252   1.483   3.110   2.284  0.0154  0.0399 -0.6166
 1295SOL    MW4 5253   1.545   3.065   2.325 -0.0273 -0.0303 -0.6282
 1296SOL     OW 5254   1.318   3.177   2.276  0.0914  0.2406  0.0210
 1296SOL    HW2 5255   1.238   3.157   2.323  0.0489 -0.6862 -0.4318
 1296SOL    HW3 5256   1.290   3.195   2.186  0.1768  1.9392  0.3034
 1296SOL    MW4 5257   1.304   3.177   2.270  0.0970  0.3424 -0.0010
 1297SOL     OW 5258   1.347   3.460   2.347 -0.0877 -0.8331 -0.3439
 1297SOL    HW2 5259   1.344   3.473   2.442  3.1856  0.5739 -0.3936
 1297SOL    HW3 5260   1.363   3.366   2.336  0.0181 -0.9147  0.5118
 1297SOL    MW4 5261   1.349   3.449   2.358  0.3581 -0.6583 -0.2375
 1298SOL     OW 5262   1.591   3.606   2.273  0.2551 -0.0225  0.0264
 1298SOL    HW2 5263   1.605   3.695   2.304  0.4642  0.3852 -1.2417
 1298SOL    HW3 5264   1.503   3.583   2.305  0.0237  0.7904 -0.0299
 1298SOL    MW4 5265   1.581   3.615   2.281  0.2521  0.1385 -0.1481
 1299SOL     OW 5266   1.558   3.882   2.368 -0.2968  0.6997 -0.3424
 1299SOL    HW2 5267   1.580   3.894   2.461  0.1993 -0.0031 -0.3653
 1299SOL    HW3 5268   1.630   3.925   2.322  0.1984 -0.1747 -0.4050
 1299SOL    MW4 5269   1.571   3.889   2.374 -0.1659  0.4916 -0.3536
 1300SOL     OW 5270   1.343   4.023   2.286  0.7321 -0.5044 -0.3616
 1300SOL    HW2 5271   1.421   3.976   2.315  0.9452 -0.9409 -1.6235
 1300SOL    HW3 5272   1.346   4.018   2.191 -1.2215 -1.1486 -0.4026
 1300SOL    MW4 5273   1.354   4.016   2.278  0.5025 -0.6471 -0.5333
 1301SOL     OW 5274   1.362   4.279   2.391 -0.1126  0.0716  0.3323
 1301SOL    HW2 5275   1.344   4.200   2.341  0.4078  0.4176 -0.4157
 1301SOL    HW3 5276   1.284   4.334   2.380  0.6431  0.8239 -1.4361
 1301SOL    MW4 5277   1.350   4.276   2.383  0.0558  0.2170  0.0002
 1302SOL     OW 5278   1.557   4.375   2.220  0.1186  0.2650  0.5499
 1302SOL    HW2 5279   1.491   4.338   2.278 -0.1841  0.7284  0.5037
 1302SOL    HW3 5280   1.556   4.469   2.240 -1.0331  0.6572 -1.2409
 1302SOL    MW4 5281   1.548   4.382   2.230 -0.0734  0.3781  0.3073
 1303SOL     OW 5282   1.978   0.010   2.298 -0.0258  0.2699  0.3218
 1303SOL    HW2 5283   2.061   0.057   2.296 -0.0463  0.3234  0.7122
 1303SOL    HW3 5284   1.998  -0.076   2.259 -0.2168  0.9536 -1.3348
 1303SOL    MW4 5285   1.992   0.005   2.292 -0.0539  0.3672  0.1545
 1304SOL     OW 5286   1.764   0.114   2.191 -0.4458  0.3562  0.3183
 1304SOL    HW2 5287   1.758   0.201   2.229  0.3951  0.3891  0.3773
 1304SOL    HW3 5288   1.842   0.075   2.230 -0.0344  0.0870 -0.7328
 1304SOL    MW4 5289   1.774   0.120   2.201 -0.2806  0.3250  0.1872
 1305SOL     OW 5290   1.746   0.372   2.318  0.2825  0.3706  0.1454
 1305SOL    HW2 5291   1.739   0.344   2.409 -1.1041  1.7201  0.4977
 1305SOL    HW3 5292   1.836   0.404   2.309  1.3943 -2.6506  0.1402
 1305SOL    MW4 5293   1.757   0.373   2.329  0.2463  0.1500  0.1912
 1306SOL     OW 5294   1.991   0.465   2.247 -0.2618 -0.0949 -0.0820
 1306SOL    HW2 5295   2.000   0.557   2.273  1.0614  0.0781 -1.1150
 1306SOL    HW3 5296   1.983   0.467   2.152  2.1586 -1.1804 -0.3390
 1306SOL    MW4 5297   1.991   0.477   2.238  0.2321 -0.2153 -0.2520
 1307SOL     OW 5298   2.034   0.703   2.376  0.3473 -0.0497 -0.1690
 1307SOL    HW2 5299   2.112   0.749   2.344  0.4061  1.4013  1.9693
 1307SOL    HW3 5300   1.961   0.759   2.353  0.0971 -0.5211 -0.5318
 1307SOL    MW4 5301   2.035   0.716   2.369  0.3219  0.0795  0.0651
 1308SOL     OW 5302   1.819   0.878   2.287  0.0487  0.4832 -0.0199
 1308SOL    HW2 5303   1.807   0.968   2.315 -1.0780  0.6403 -1.0153
 1308SOL    HW3 5304   1.826   0.882   2.192  1.0439 -0.3640  0.0114
 1308SOL    MW4 5305   1.818   0.890   2.278  0.0314  0.3922 -0.1471
 1309SOL     OW 5306   1.794   1.144   2.398 -0.5133  0.2132 -0.3055
 1309SOL    HW2 5307   1.861   1.192   2.349 -1.5208  0.5621 -1.3550
 1309SOL    HW3 5308   1.712   1.169   2.357 -1.2694 -0.4522  0.7853
 1309SOL    MW4 5309   1.792   1.154   2.386 -0.7459  0.1714 -0.3002
 1310SOL     OW 5310   1.999   1.285   2.267 -0.0412  0.0985 -0.3084
 1310SOL    HW2 5311   2.023   1.375   2.290 -2.8209  0.8236 -0.1012
 1310SOL    HW3 5312   1.983   1.287   2.173 -2.3350  0.3775  0.0666
 1310SOL    MW4 5313   2.000   1.297   2.258 -0.7105  0.2311 -0.2315
 1311SOL     OW 5314   2.052   1.544   2.325  0.0859 -0.0530  0.4235
 1311SOL    HW2 5315   2.056   1.546   2.421 -1.6103 -0.3569  0.5126
 1311SOL    HW3 5316   1.963   1.574   2.304  0.9538  1.5546 -1.1208
 1311SOL    MW4 5317   2.041   1.549   2.335 -0.0236  0.1190  0.2315
 1312SOL     OW 5318   1.806   1.670   2.249 -0.0325  0.2637  0.3338
 1312SOL    HW2 5319   1.777   1.760   2.267 -1.8136 -0.1977 -0.0787
 1312SOL    HW3 5320   1.803   1.663   2.153  0.7720 -0.0214  0.3310
 1312SOL    MW4 5321   1.802   1.681   2.238 -0.1614  0.1651  0.2787
 1313SOL     OW 5322   1.762   1.954   2.333  0.3533 -0.1261 -0.1385
 1313SOL    HW2 5323   1.766   1.950   2.429 -0.9140 -1.0249 -0.1152
 1313SOL    HW3 5324   1.853   1.970   2.306  0.4907  1.7362  1.2726
 1313SOL    MW4 5325   1.775   1.956   2.342  0.2043  0.0010  0.0508
 1314SOL     OW 5326   2.016   2.052   2.254  0.0437 -0.2500  0.1865
 1314SOL    HW2 5327   2.100   2.018   2.285  0.7528  1.4919  0.1873
 1314SOL    HW3 5328   2.034   2.081   2.164 -0.4650  0.4983  0.3295
 1314SOL    MW4 5329   2.029   2.051   2.246  0.0701  0.0784  0.2053
 1315SOL     OW 5330   2.012   2.306   2.354 -0.3007  0.2913 -0.2134
 1315SOL    HW2 5331   2.082   2.338   2.297  0.6314 -0.4747  0.4812
 1315SOL    HW3 5332   2.016   2.211   2.346  0.9760  0.0738  2.3973
 1315SOL    MW4 5333   2.022   2.298   2.346 -0.0093  0.1616  0.2222
 1316SOL     OW 5334   1.804   2.437   2.226 -0.6151 -0.2265 -0.4126
 1316SOL    HW2 5335   1.875   2.389   2.270 -0.7984 -0.1787 -0.0578
 1316SOL    HW3 5336   1.724   2.390   2.252 -0.7704  0.1124 -0.2743
 1316SOL    MW4 5337   1.803   2.424   2.236 -0.6598 -0.1752 -0.3474
 1317SOL     OW 5338   1.764   2.687   2.332 -0.5689 -0.1710 -0.0631
 1317SOL    HW2 5339   1.780   2.604   2.287  3.1773 -0.0617  0.8916
 1317SOL    HW3 5340   1.689   2.725   2.286 -0.1257 -2.4385 -2.8148
 1317SOL    MW4 5341   1.756   2.681   2.320 -0.0163 -0.4554 -0.3004
 1318SOL     OW 5342   1.993   2.842   2.269 -0.3151  0.6886 -0.3353
 1318SOL    HW2 5343   2.063   2.780   2.288  0.2978  1.2738 -0.6117
 1318SOL    HW3 5344   1.914   2.803   2.306 -0.1916 -0.8674 -1.6372
 1318SOL    MW4 5345   1.992   2.829   2.276 -0.2180  0.5605 -0.5438
 1319SOL     OW 5346   2.017   3.095   2.358 -0.2196 -0.0808  0.4132
 1319SOL    HW2 5347   2.085   3.138   2.305 -0.1468 -0.6635  0.0291
 1319SOL    HW3 5348   2.020   3.004   2.331  0.6214 -0.6222  2.2836
 1319SOL    MW4 5349   2.027   3.089   2.347 -0.0992 -0.2291  0.6094
 1320SOL     OW 5350   1.779   3.198   2.245 -0.3477 -0.3651 -0.8169
 1320SOL    HW2 5351   1.858   3.150   2.273 -0.2062  1.0623  1.4037
 1320SOL    HW3 5352   1.707   3.143   2.274 -0.1716  0.1429  0.6627
 1320SOL    MW4 5353   1.780   3.185   2.253 -0.3058 -0.1099 -0.3288
 1321SOL     OW 5354   1.805   3.449   2.346  0.4400  0.1971  0.0233
 1321SOL    HW2 5355   1.794   3.358   2.321  0.9450  0.0304  0.3899
 1321SOL    HW3 5356   1.720   3.489   2.331  0.3311 -0.2410 -0.5255
 1321SOL    MW4 5357   1.792   3.443   2.341  0.4922  0.1173 -0.0007
 1322SOL     OW 5358   2.005   3.611   2.280 -0.5997 -0.2017 -0.0356
 1322SOL    HW2 5359   1.942   3.557   2.329  1.3031 -1.8117  0.6662
 1322SOL    HW3 5360   1.993   3.585   2.189 -0.8987 -0.5573  0.1038
 1322SOL    MW4 5361   1.995   3.600   2.274 -0.3883 -0.4609  0.0753
 1323SOL     OW 5362   2.031   3.876   2.358 -0.7294  0.0520 -0.1260
 1323SOL    HW2 5363   2.021   3.864   2.453  0.4241 -0.3106 -0.0368
 1323SOL    HW3 5364   2.039   3.787   2.323 -0.5199  0.2107 -0.4858
 1323SOL    MW4 5365   2.031   3.862   2.366 -0.5498  0.0250 -0.1616
 1324SOL     OW 5366   1.791   4.016   2.295 -0.0351  0.2060  0.1485
 1324SOL    HW2 5367   1.877   3.977   2.311  0.4098  0.9376 -0.4135
 1324SOL    HW3 5368   1.789   4.030   2.200 -0.3518  1.1456  0.2853
 1324SOL    MW4 5369   1.802   4.013   2.285 -0.0181  0.4268  0.0923
 1325SOL     OW 5370   1.827   4.300   2.307 -0.1823  0.0085  0.1118
 1325SOL    HW2 5371   1.823   4.204   2.317 -1.5632  0.1366  1.0407
 1325SOL    HW3 5372   1.749   4.321   2.255  0.4890  0.5709 -0.6749
 1325SOL    MW4 5373   1.816   4.290   2.301 -0.2760  0.1001  0.1307
 1326SOL     OW 5374   2.068   4.422   2.223 -0.2880  0.1239  0.3463
 1326SOL    HW2 5375   1.992   4.387   2.271 -0.6176  1.5615  0.9091
 1326SOL    HW3 5376   2.045   4.411   2.131 -2.4322  3.0304  0.4633
 1326SOL    MW4 5377   2.055   4.416   2.218 -0.6144  0.6976  0.4358
 1327SOL     OW 5378   2.462   4.665   2.306  0.0453  0.1263 -0.4787
 1327SOL    HW2 5379   2.529   4.703   2.249  0.4817 -0.4710 -0.3704
 1327SOL    HW3 5380   2.470   4.570   2.293  0.0125 -0.0052  0.4097
 1327SOL    MW4 5381   2.472   4.657   2.297  0.0985  0.0305 -0.3471
 1328SOL     OW 5382   2.235   0.132   2.240  0.1816 -0.0092 -0.2014
 1328SOL    HW2 5383   2.230   0.214   2.289  1.1212  0.2303 -0.4983
 1328SOL    HW3 5384   2.301   0.080   2.286 -1.0061 -0.9437  0.4817
 1328SOL    MW4 5385   2.243   0.136   2.252  0.1488 -0.1009 -0.1507
 1329SOL     OW 5386   2.230   0.382   2.372  0.0535  0.6084  0.1540
 1329SOL    HW2 5387   2.312   0.418   2.338 -0.5615  1.5288 -0.3829
 1329SOL    HW3 5388   2.162   0.424   2.319 -0.8689  1.3324  1.8760
 1329SOL    MW4 5389   2.232   0.393   2.360 -0.1495  0.8254  0.3104
 1330SOL     OW 5390   2.448   0.511   2.257  0.4622 -0.1386  0.6157
 1330SOL    HW2 5391   2.528   0.479   2.298  0.9478  0.5614  0.2321
 1330SOL    HW3 5392   2.464   0.503   2.163  0.6232  1.2659  0.5131
 1330SOL    MW4 5393   2.461   0.506   2.250  0.5476  0.1391  0.5519
 1331SOL     OW 5394   2.502   0.767   2.356  0.0012 -0.2877  0.2946
 1331SOL    HW2 5395   2.562   0.817   2.302 -1.3291 -0.5803 -1.4742
 1331SOL    HW3 5396   2.504   0.678   2.319 -1.2484 -0.3807  0.4325
 1331SOL    MW4 5397   2.510   0.762   2.344 -0.3390 -0.3386  0.0794
 1332SOL     OW 5398   2.257   0.838   2.286 -0.4472 -0.1581 -0.0116
 1332SOL    HW2 5399   2.249   0.930   2.311 -0.4990 -0.1781  0.0429
 1332SOL    HW3 5400   2.343   0.812   2.320 -0.6564 -0.2763  0.4251
 1332SOL    MW4 5401   2.267   0.847   2.294 -0.4816 -0.1763  0.0534
 1333SOL     OW 5402   2.221   1.121   2.357 -0.5345 -0.1042 -0.0727
 1333SOL    HW2 5403   2.291   1.176   2.323 -1.1464  1.3733  1.0580
 1333SOL    HW3 5404   2.142   1.175   2.350 -0.9228 -0.3229  2.2865
 1333SOL    MW4 5405   2.220   1.135   2.351 -0.6666  0.0620  0.3877
 1334SOL     OW 5406   2.464   1.257   2.217 -0.0342 -0.2878 -0.9926
 1334SOL    HW2 5407   2.548   1.227   2.252 -0.8866 -1.6168 -0.0154
 1334SOL    HW3 5408   2.453   1.344   2.255  0.7223 -0.2617 -0.8152
 1334SOL    MW4 5409   2.474   1.264   2.227 -0.0467 -0.4598 -0.8402
 1335SOL     OW 5410   2.450   1.489   2.337  0.2569 -0.4022 -0.1687
 1335SOL    HW2 5411   2.456   1.498   2.432  0.7649 -0.6515 -0.1774
 1335SOL    HW3 5412   2.533   1.524   2.304  0.0171 -0.1697 -0.5316
 1335SOL    MW4 5413   2.462   1.495   2.345  0.2923 -0.4045 -0.2177
 1336SOL     OW 5414   2.272   1.679   2.255 -0.1071  0.2573  0.5078
 1336SOL    HW2 5415   2.332   1.611   2.286  0.0817  0.0089 -0.3824
 1336SOL    HW3 5416   2.185   1.641   2.266  0.1037 -1.2466 -2.5549
 1336SOL    MW4 5417   2.268   1.665   2.260 -0.0544  0.0261 -0.0136
 1337SOL     OW 5418   2.261   1.928   2.377  0.6408  0.7422  0.5403
 1337SOL    HW2 5419   2.327   1.988   2.341  0.5789  0.8151  0.5479
 1337SOL    HW3 5420   2.270   1.849   2.324  0.3719  0.9443  0.1867
 1337SOL    MW4 5421   2.271   1.926   2.365  0.5972  0.7784  0.4950
 1338SOL     OW 5422   2.482   2.069   2.245 -0.4970 -0.3056 -0.4475
 1338SOL    HW2 5423   2.540   2.001   2.280  0.4211  0.0889 -1.1985
 1338SOL    HW3 5424   2.501   2.071   2.151  0.5417  1.9823 -0.2192
 1338SOL    MW4 5425   2.492   2.060   2.237 -0.2389  0.0482 -0.5164
 1339SOL     OW 5426   2.447   2.323   2.345  0.4128 -0.1119 -0.1983
 1339SOL    HW2 5427   2.520   2.367   2.301 -0.5485  0.0777 -1.6605
 1339SOL    HW3 5428   2.453   2.232   2.315  1.3875 -0.6204  1.4811
 1339SOL    MW4 5429   2.457   2.317   2.335  0.4144 -0.1543 -0.1698
 1340SOL     OW 5430   2.223   2.433   2.197 -0.3387 -0.2741 -0.0340
 1340SOL    HW2 5431   2.225   2.516   2.245 -0.8585 -0.2402 -0.0644
 1340SOL    HW3 5432   2.296   2.383   2.233 -0.5891 -0.1633  0.6399
 1340SOL    MW4 5433   2.232   2.437   2.208 -0.4401 -0.2553  0.0508
 1341SOL     OW 5434   2.231   2.669   2.354  0.3382 -0.1049 -0.5585
 1341SOL    HW2 5435   2.226   2.664   2.449  0.5647  1.1944 -0.4753
 1341SOL    HW3 5436   2.309   2.720   2.336 -0.2435  0.5066 -1.4258
 1341SOL    MW4 5437   2.240   2.675   2.364  0.2911  0.1473 -0.6618
 1342SOL     OW 5438   2.446   2.828   2.240  0.2891 -0.6859  0.2118
 1342SOL    HW2 5439   2.518   2.770   2.265  0.9839 -0.8813 -2.1624
 1342SOL    HW3 5440   2.446   2.828   2.144 -1.0508  1.5758  0.1598
 1342SOL    MW4 5441   2.455   2.820   2.231  0.2038 -0.4132 -0.1085
 1343SOL     OW 5442   2.463   3.091   2.335  0.2417 -0.0763  0.3444
 1343SOL    HW2 5443   2.545   3.123   2.297  0.6146 -0.4402  0.8402
 1343SOL    HW3 5444   2.460   2.998   2.312  0.8855 -0.4964  1.9272
 1343SOL    MW4 5445   2.473   3.083   2.327  0.3757 -0.1795  0.6187
 1344SOL     OW 5446   2.239   3.207   2.220 -0.3537  0.0791 -0.2132
 1344SOL    HW2 5447   2.242   3.301   2.236 -2.7516 -0.0455  1.3331
 1344SOL    HW3 5448   2.321   3.173   2.257  0.2531  1.4813 -0.2621
 1344SOL    MW4 5449   2.250   3.215   2.227 -0.5901  0.2477 -0.0155
 1345SOL     OW 5450   2.247   3.480   2.306  0.4972  0.0299 -0.7653
 1345SOL    HW2 5451   2.257   3.488   2.401 -0.0319 -2.0142 -0.5229
 1345SOL    HW3 5452   2.159   3.513   2.289 -0.1040 -1.2784 -0.2951
 1345SOL    MW4 5453   2.236   3.486   2.316  0.3481 -0.4125 -0.6711
 1346SOL     OW 5454   2.477   3.608   2.226  0.6325  0.3291  0.1229
 1346SOL    HW2 5455   2.476   3.700   2.253 -0.5282  0.4528 -0.3112
 1346SOL    HW3 5456   2.387   3.579   2.239  0.7276 -0.4210 -0.8574
 1346SOL    MW4 5457   2.465   3.616   2.231  0.4916  0.2465 -0.0637
 1347SOL     OW 5458   2.501   3.855   2.337 -0.2703  0.2840 -0.0517
 1347SOL    HW2 5459   2.487   3.857   2.432 -1.5884 -0.2136 -0.2343
 1347SOL    HW3 5460   2.427   3.904   2.301  0.8453  1.4820 -0.7634
 1347SOL    MW4 5461   2.489   3.862   2.345 -0.2968  0.3765 -0.1698
 1348SOL     OW 5462   2.267   3.978   2.256  0.1606 -0.1081 -0.3298
 1348SOL    HW2 5463   2.272   4.073   2.254 -1.2342 -0.0177  0.1370
 1348SOL    HW3 5464   2.192   3.959   2.312  0.2772 -1.4786 -0.6190
 1348SOL    MW4 5465   2.258   3.988   2.263 -0.0081 -0.2770 -0.3064
 1349SOL     OW 5466   2.270   4.241   2.292 -0.4466  0.0952 -0.0994
 1349SOL    HW2 5467   2.260   4.227   2.386  1.2941  0.9239  0.2304
 1349SOL    HW3 5468   2.214   4.316   2.273  0.8529  1.3048  0.7110
 1349SOL    MW4 5469   2.262   4.249   2.302 -0.0455  0.3638  0.0508
 1350SOL     OW 5470   2.497   4.393   2.265  0.0572 -0.4040  0.4039
 1350SOL    HW2 5471   2.569   4.341   2.303  0.3548 -1.3920 -1.4643
 1350SOL    HW3 5472   2.420   4.339   2.279  0.0111 -0.3311  0.4314
 1350SOL    MW4 5473   2.497   4.379   2.272  0.0901 -0.5250  0.1609
 1351SOL     OW 5474   2.908   4.647   2.344  0.3738  0.6728  0.1242
 1351SOL    HW2 5475   2.979   4.698   2.305  0.3451  1.2148  0.7642
 1351SOL    HW3 5476   2.908   4.565   2.296  1.6195  0.5554  0.3073
 1351SOL    MW4 5477   2.917   4.643   2.333  0.5341  0.7281  0.2329
 1352SOL     OW 5478   2.695   0.111   2.205  0.1173  0.1410  0.3339
 1352SOL    HW2 5479   2.675   0.185   2.263 -0.4153 -0.5713  1.0813
 1352SOL    HW3 5480   2.770   0.069   2.246 -0.3472 -0.4459  0.5976
 1352SOL    MW4 5481   2.702   0.115   2.218 -0.0141 -0.0304  0.4673
 1353SOL     OW 5482   2.671   0.362   2.333 -0.4849  1.1966  0.2421
 1353SOL    HW2 5483   2.702   0.370   2.424 -0.5903  1.1046  0.2864
 1353SOL    HW3 5484   2.741   0.401   2.281 -0.0300  0.4653  0.3009
 1353SOL    MW4 5485   2.685   0.368   2.338 -0.4389  1.0880  0.2558
 1354SOL     OW 5486   2.910   0.453   2.217 -0.3958 -0.2915  0.1375
 1354SOL    HW2 5487   2.905   0.548   2.224 -0.6483 -0.3020  0.0795
 1354SOL    HW3 5488   2.894   0.434   2.125 -0.4571 -0.3987  0.1703
 1354SOL    MW4 5489   2.907   0.463   2.206 -0.4370 -0.3070  0.1340
 1355SOL     OW 5490   2.871   0.722   2.320 -0.1060 -0.2792  0.0056
 1355SOL    HW2 5491   2.872   0.742   2.414 -0.4448 -2.3799  0.4813
 1355SOL    HW3 5492   2.808   0.783   2.283  1.1122  1.5576  0.9102
 1355SOL    MW4 5493   2.863   0.733   2.328  0.0098 -0.3141  0.1876
 1356SOL     OW 5494   2.691   0.918   2.220  0.0788 -0.3158  0.4135
 1356SOL    HW2 5495   2.692   1.003   2.264  0.9660  0.2509 -0.6549
 1356SOL    HW3 5496   2.718   0.938   2.130 -1.0655 -1.5314 -0.2193
 1356SOL    MW4 5497   2.695   0.932   2.214  0.0451 -0.4015  0.1893
 1357SOL     OW 5498   2.679   1.173   2.358 -0.0520 -0.1080  0.1444
 1357SOL    HW2 5499   2.685   1.154   2.452  0.6710 -0.4422  0.0348
 1357SOL    HW3 5500   2.758   1.223   2.339 -0.3278  0.1826 -0.2349
 1357SOL    MW4 5501   2.690   1.177   2.368  0.0069 -0.1137  0.0799
 1358SOL     OW 5502   2.915   1.268   2.269  0.5478  0.2269  0.1986
 1358SOL    HW2 5503   2.981   1.209   2.305  0.9756  0.7368  0.2567
 1358SOL    HW3 5504   2.912   1.246   2.176 -1.6820 -2.1798  0.7771
 1358SOL    MW4 5505   2.924   1.257   2.262  0.3102 -0.0234  0.2828
 1359SOL     OW 5506   2.938   1.540   2.367  0.4951  0.0864  0.4020
 1359SOL    HW2 5507   2.974   1.519   2.453  1.3508 -0.7052 -0.1284
 1359SOL    HW3 5508   2.924   1.455   2.326  1.5344  0.4692 -0.8033
 1359SOL    MW4 5509   2.941   1.526   2.373  0.7448  0.0325  0.1731
 1360SOL     OW 5510   2.697   1.625   2.249  0.0070  0.3632 -0.3446
 1360SOL    HW2 5511   2.787   1.620   2.283  0.5562 -1.8401 -2.0281
 1360SOL    HW3 5512   2.708   1.642   2.156 -1.3053 -0.6155 -0.6849
 1360SOL    MW4 5513   2.711   1.627   2.241 -0.0937 -0.0566 -0.6118
 1361SOL     OW 5514   2.689   1.903   2.341 -0.3573 -0.3176 -0.4930
 1361SOL    HW2 5515   2.700   1.909   2.436 -1.6897  0.5716 -0.3917
 1361SOL    HW3 5516   2.695   1.809   2.322 -1.6132 -0.6430  0.6555
 1361SOL    MW4 5517   2.692   1.891   2.351 -0.6988 -0.2431 -0.3283
 1362SOL     OW 5518   2.917   2.046   2.229  0.7411 -0.2737  0.2376
 1362SOL    HW2 5519   2.997   2.018   2.274  1.1061  0.9433  0.3416
 1362SOL    HW3 5520   2.848   1.994   2.271  1.1029  0.7171  2.1195
 1362SOL    MW4 5521   2.918   2.035   2.241  0.8371  0.0174  0.4997
 1363SOL     OW 5522   2.913   2.307   2.339  0.3220 -0.0222 -0.4454
 1363SOL    HW2 5523   2.914   2.299   2.434 -0.5587  0.1186 -0.4222
 1363SOL    HW3 5524   2.908   2.217   2.307 -1.8560  0.0097 -0.3054
 1363SOL    MW4 5525   2.912   2.294   2.347 -0.0813  0.0007 -0.4239
 1364SOL     OW 5526   2.671   2.426   2.237  0.3214 -0.6180  0.4673
 1364SOL    HW2 5527   2.730   2.366   2.283  0.3247 -0.7536  0.2891
 1364SOL    HW3 5528   2.695   2.417   2.144 -0.3202 -1.0611  0.3384
 1364SOL    MW4 5529   2.682   2.417   2.230  0.2370 -0.6943  0.4270
 1365SOL     OW 5530   2.667   2.678   2.317 -0.6551 -0.0287 -0.0764
 1365SOL    HW2 5531   2.750   2.719   2.296 -2.4383  3.4558 -0.7187
 1365SOL    HW3 5532   2.672   2.591   2.276  2.8167 -0.0948  0.3880
 1365SOL    MW4 5533   2.678   2.672   2.309 -0.4325  0.4222 -0.0999
 1366SOL     OW 5534   2.917   2.801   2.259 -0.4751  0.1083  0.2231
 1366SOL    HW2 5535   2.904   2.891   2.287  1.1655  0.4472 -0.0698
 1366SOL    HW3 5536   2.922   2.805   2.163 -1.2045 -0.4071  0.1543
 1366SOL    MW4 5537   2.916   2.813   2.250 -0.3548  0.0846  0.1755
 1367SOL     OW 5538   2.912   3.070   2.337 -0.6125  0.3610 -0.1298
 1367SOL    HW2 5539   2.993   3.120   2.327  0.1771 -1.1334 -1.4252
 1367SOL    HW3 5540   2.844   3.127   2.299 -0.3048  1.8798  1.5111
 1367SOL    MW4 5541   2.914   3.084   2.331 -0.4678  0.3643 -0.0842
 1368SOL     OW 5542   2.690   3.201   2.206 -0.1027 -0.3298 -0.0610
 1368SOL    HW2 5543   2.674   3.284   2.251  1.9591  0.0308  0.0502
 1368SOL    HW3 5544   2.680   3.222   2.113  1.3149  0.2603 -0.0859
 1368SOL    MW4 5545   2.686   3.215   2.199  0.3567 -0.2043 -0.0496
 1369SOL     OW 5546   2.658   3.447   2.342  0.2827 -0.0335 -0.1431
 1369SOL    HW2 5547   2.737   3.491   2.311  0.9605 -1.8719 -1.1270
 1369SOL    HW3 5548   2.586   3.491   2.296  0.7217  1.6368  0.7416
 1369SOL    MW4 5549   2.659   3.459   2.332  0.4301 -0.0558 -0.1566
 1370SOL     OW 5550   2.889   3.567   2.263  0.1510 -0.2448  0.4874
 1370SOL    HW2 5551   2.955   3.518   2.313  2.7101  1.2231 -1.3118
 1370SOL    HW3 5552   2.891   3.655   2.301 -1.8461 -0.5480  1.3499
 1370SOL    MW4 5553   2.898   3.572   2.275  0.2251 -0.0913  0.3638
 1371SOL     OW 5554   2.925   3.815   2.368 -0.4028 -0.3702  0.2220
 1371SOL    HW2 5555   2.928   3.824   2.463 -0.6406 -0.2276  0.2153
 1371SOL    HW3 5556   2.874   3.890   2.338 -1.3984 -1.0961  0.0700
 1371SOL    MW4 5557   2.919   3.826   2.376 -0.5655 -0.4470  0.2010
 1372SOL     OW 5558   2.745   4.003   2.300  0.3462 -0.0019  0.0078
 1372SOL    HW2 5559   2.660   3.965   2.322 -0.8483  1.6506 -1.5796
 1372SOL    HW3 5560   2.746   4.006   2.204  1.8528  0.7966  0.0285
 1372SOL    MW4 5561   2.734   3.998   2.290  0.3872  0.3216 -0.1986
 1373SOL     OW 5562   2.712   4.261   2.343 -0.5423  0.1451  0.1091
 1373SOL    HW2 5563   2.705   4.253   2.439  0.7120 -0.5940  0.1524
 1373SOL    HW3 5564   2.723   4.171   2.313  0.6076  0.5095 -0.5953
 1373SOL    MW4 5565   2.713   4.248   2.352 -0.2251  0.0958  0.0219
 1374SOL     OW 5566   2.937   4.397   2.254 -0.2379 -0.4545  0.0081
 1374SOL    HW2 5567   3.013   4.345   2.281 -0.7780 -0.9804  0.5257
 1374SOL    HW3 5568   2.862   4.352   2.293 -0.8150  0.0784 -0.4759
 1374SOL    MW4 5569   2.937   4.384   2.263 -0.3855 -0.4535  0.0129
 1375SOL     OW 5570   3.362   4.609   2.317 -0.1957 -0.1577 -0.1712
 1375SOL    HW2 5571   3.356   4.623   2.411  0.9651 -1.3805  0.0944
 1375SOL    HW3 5572   3.442   4.656   2.291  1.0170 -2.1157 -0.0731
 1375SOL    MW4 5573   3.372   4.617   2.326  0.1178 -0.5770 -0.1233
 1376SOL     OW 5574   3.140   0.069   2.206  0.0277 -0.4312 -0.2307
 1376SOL    HW2 5575   3.155   0.153   2.248 -0.5207  0.5279 -1.9159
 1376SOL    HW3 5576   3.211   0.013   2.239  0.9750  0.9594  0.1344
 1376SOL    MW4 5577   3.152   0.072   2.216  0.0801 -0.1212 -0.4051
 1377SOL     OW 5578   3.114   0.315   2.342 -0.0458  0.3374  0.1374
 1377SOL    HW2 5579   3.191   0.372   2.333  0.8808 -0.9095  0.0258
 1377SOL    HW3 5580   3.042   0.365   2.304  0.4076  2.1188  1.5766
 1377SOL    MW4 5581   3.115   0.329   2.335  0.1364  0.4079  0.3126
 1378SOL     OW 5582   3.349   0.452   2.256  0.1466  0.1137 -0.2766
 1378SOL    HW2 5583   3.427   0.403   2.284 -0.1497 -1.5178 -2.2349
 1378SOL    HW3 5584   3.358   0.460   2.162 -0.5758  2.5903 -0.1667
 1378SOL    MW4 5585   3.361   0.447   2.248  0.0119  0.2252 -0.5205
 1379SOL     OW 5586   3.355   0.720   2.347  0.0151  0.3381  0.0736
 1379SOL    HW2 5587   3.427   0.763   2.300 -1.1424 -0.0060 -2.0556
 1379SOL    HW3 5588   3.347   0.635   2.306 -1.5705  0.3464  0.3657
 1379SOL    MW4 5589   3.364   0.715   2.336 -0.3469  0.2938 -0.1688
 1380SOL     OW 5590   3.104   0.860   2.257 -0.1445  0.0143  0.4624
 1380SOL    HW2 5591   3.179   0.807   2.284 -0.4182 -0.7134 -0.1861
 1380SOL    HW3 5592   3.029   0.817   2.296 -0.5290 -0.9489 -1.2629
 1380SOL    MW4 5593   3.104   0.847   2.265 -0.2315 -0.2089  0.1493
 1381SOL     OW 5594   3.106   1.118   2.372 -0.3575  0.0289  0.0472
 1381SOL    HW2 5595   3.184   1.155   2.331 -0.6301  0.2571 -0.2750
 1381SOL    HW3 5596   3.107   1.026   2.346 -0.2338  0.0481 -0.0186
 1381SOL    MW4 5597   3.116   1.111   2.363 -0.3769  0.0616 -0.0038
 1382SOL     OW 5598   3.325   1.244   2.224  0.1376  0.0929  0.5264
 1382SOL    HW2 5599   3.403   1.211   2.268 -0.3393 -0.2074  1.1460
 1382SOL    HW3 5600   3.321   1.337   2.247  0.7068  0.2724 -0.0889
 1382SOL    MW4 5601   3.334   1.252   2.233  0.1500  0.0769  0.5271
 1383SOL     OW 5602   3.331   1.498   2.323  0.4828  0.1958  0.1045
 1383SOL    HW2 5603   3.331   1.472   2.415  2.1710  0.1038  0.1040
 1383SOL    HW3 5604   3.271   1.573   2.318 -1.0367 -0.9536  0.9203
 1383SOL    MW4 5605   3.323   1.505   2.334  0.5052  0.0321  0.2122
 1384SOL     OW 5606   3.151   1.692   2.279 -0.6377 -0.1304 -0.6600
 1384SOL    HW2 5607   3.147   1.781   2.313  0.1235 -0.0026 -0.9088
 1384SOL    HW3 5608   3.069   1.652   2.309 -0.6225  0.4043  0.1328
 1384SOL    MW4 5609   3.140   1.698   2.288 -0.5352 -0.0430 -0.5884
 1385SOL     OW 5610   3.157   1.977   2.324 -0.0546  0.1373 -0.1250
 1385SOL    HW2 5611   3.169   1.979   2.419  0.7451 -0.0157 -0.2148
 1385SOL    HW3 5612   3.240   2.008   2.289 -0.4931  0.5930 -0.7720
 1385SOL    MW4 5613   3.170   1.981   2.332 -0.0074  0.1771 -0.2224
 1386SOL     OW 5614   3.415   2.051   2.262  0.2729 -0.4731  0.3309
 1386SOL    HW2 5615   3.473   1.992   2.309 -0.3375 -1.3786 -0.0517
 1386SOL    HW3 5616   3.439   2.039   2.170  1.1380  0.9413  0.3478
 1386SOL    MW4 5617   3.426   2.042   2.256  0.3066 -0.4058  0.2825
 1387SOL     OW 5618   3.391   2.303   2.373 -0.2393 -0.3285 -0.2431
 1387SOL    HW2 5619   3.322   2.349   2.325  0.2207  0.2807 -0.3248
 1387SOL    HW3 5620   3.397   2.217   2.331  0.4007  0.3267 -1.5056
 1387SOL    MW4 5621   3.383   2.298   2.361 -0.0942 -0.1614 -0.4206
 1388SOL     OW 5622   3.157   2.412   2.240 -0.0845 -0.5302  0.2707
 1388SOL    HW2 5623   3.149   2.505   2.259 -0.2737 -0.4195 -0.3403
 1388SOL    HW3 5624   3.074   2.374   2.267  0.0692 -0.5604  0.7132
 1388SOL    MW4 5625   3.145   2.419   2.246 -0.0892 -0.5195  0.2484
 1389SOL     OW 5626   3.137   2.669   2.318 -0.5808  0.1842  0.0479
 1389SOL    HW2 5627   3.144   2.681   2.412  0.3195  0.6629 -0.0763
 1389SOL    HW3 5628   3.061   2.721   2.292 -0.8093  0.0773  0.4947
 1389SOL    MW4 5629   3.128   2.677   2.327 -0.4919  0.2334  0.0904
 1390SOL     OW 5630   3.369   2.810   2.255  0.5496  0.0923  0.0048
 1390SOL    HW2 5631   3.363   2.889   2.310 -1.7325 -0.2381  0.2763
 1390SOL    HW3 5632   3.288   2.762   2.273  1.7916 -2.1993 -0.3696
 1390SOL    MW4 5633   3.357   2.814   2.264  0.4122 -0.2537 -0.0088
 1391SOL     OW 5634   3.370   3.057   2.407  0.1311 -0.5469 -0.0803
 1391SOL    HW2 5635   3.441   3.099   2.358 -0.0068 -0.1898  0.0238
 1391SOL    HW3 5636   3.290   3.088   2.364 -0.1007  1.7609  1.8877
 1391SOL    MW4 5637   3.369   3.067   2.395  0.0825 -0.1953  0.1931
 1392SOL     OW 5638   3.148   3.170   2.265 -0.0727 -0.2198  0.4601
 1392SOL    HW2 5639   3.153   3.260   2.297  2.0327 -0.1206 -0.0683
 1392SOL    HW3 5640   3.150   3.178   2.170 -1.8795 -0.7349  0.3731
 1392SOL    MW4 5641   3.149   3.183   2.257 -0.0334 -0.2744  0.3791
 1393SOL     OW 5642   3.130   3.428   2.361  0.0009 -0.2114  0.2619
 1393SOL    HW2 5643   3.152   3.443   2.453  0.3780 -0.5720  0.2331
 1393SOL    HW3 5644   3.196   3.477   2.312 -0.7682  0.7568  0.1863
 1393SOL    MW4 5645   3.142   3.437   2.367 -0.0508 -0.1311  0.2480
 1394SOL     OW 5646   3.348   3.568   2.263 -0.7816 -0.6358  0.2146
 1394SOL    HW2 5647   3.422   3.517   2.296  1.6407  2.2214 -0.6430
 1394SOL    HW3 5648   3.358   3.564   2.168 -1.8896 -0.4229  0.0854
 1394SOL    MW4 5649   3.359   3.560   2.255 -0.6082 -0.2310  0.0842
 1395SOL     OW 5650   3.337   3.844   2.338 -0.6579 -0.0605 -0.0080
 1395SOL    HW2 5651   3.426   3.880   2.336 -0.9901  0.7680 -0.4089
 1395SOL    HW3 5652   3.346   3.754   2.308  0.0710 -0.0282  0.1099
 1395SOL    MW4 5653   3.350   3.837   2.334 -0.6056  0.0529 -0.0453
 1396SOL     OW 5654   3.126   3.959   2.233 -0.3621  0.0774 -0.2361
 1396SOL    HW2 5655   3.212   3.925   2.260 -0.6255 -0.4004  0.0188
 1396SOL    HW3 5656   3.064   3.907   2.284 -0.8128  0.2044 -0.6612
 1396SOL    MW4 5657   3.129   3.947   2.244 -0.4563  0.0312 -0.2587
 1397SOL     OW 5658   3.134   4.224   2.351  0.3321  0.1667  0.0831
 1397SOL    HW2 5659   3.221   4.255   2.323  0.0243  1.3063  0.3544
 1397SOL    HW3 5660   3.130   4.134   2.320  1.6406  0.0802  0.1119
 1397SOL    MW4 5661   3.145   4.216   2.343  0.4640  0.3061  0.1225
 1398SOL     OW 5662   3.366   4.345   2.254  0.0492  0.1874 -0.1705
 1398SOL    HW2 5663   3.366   4.429   2.301 -1.1969  0.1956 -0.1603
 1398SOL    HW3 5664   3.375   4.370   2.162 -2.1406  0.4830 -0.3489
 1398SOL    MW4 5665   3.367   4.360   2.248 -0.4041  0.2275 -0.1926
 1399SOL     OW 5666   3.810   4.595   2.375  0.9666  0.0347  0.0574
 1399SOL    HW2 5667   3.810   4.595   2.471  0.7844  2.7390  0.1040
 1399SOL    HW3 5668   3.889   4.644   2.351  0.1419  0.7946 -1.1501
 1399SOL    MW4 5669   3.821   4.601   2.385  0.8335  0.4916 -0.0956
 1400SOL     OW 5670   3.605   0.072   2.247 -0.2719 -0.1354 -0.3193
 1400SOL    HW2 5671   3.599   0.161   2.280 -0.2969 -0.5096  0.7167
 1400SOL    HW3 5672   3.676   0.032   2.297  0.6608 -0.2968 -1.7467
 1400SOL    MW4 5673   3.613   0.078   2.258 -0.1521 -0.2061 -0.3710
 1401SOL     OW 5674   3.579   0.318   2.369 -0.3022  0.1613 -0.1062
 1401SOL    HW2 5675   3.588   0.327   2.464 -0.1613 -0.7739 -0.0307
 1401SOL    HW3 5676   3.644   0.378   2.333 -1.3850  1.6779  0.3633
 1401SOL    MW4 5677   3.588   0.327   2.377 -0.4265  0.2380 -0.0343
 1402SOL     OW 5678   3.779   0.474   2.298 -0.3121  0.0787 -0.1375
 1402SOL    HW2 5679   3.759   0.567   2.310 -0.2331 -0.1137  1.7332
 1402SOL    HW3 5680   3.802   0.465   2.206  0.1603  2.0178 -0.2239
 1402SOL    MW4 5681   3.780   0.485   2.288 -0.2394  0.3092  0.0980
 1403SOL     OW 5682   3.768   0.745   2.326  0.1689 -0.2596  0.4615
 1403SOL    HW2 5683   3.765   0.766   2.419 -0.4388  0.6843  0.2372
 1403SOL    HW3 5684   3.848   0.786   2.295 -0.9738  1.7270  0.0418
 1403SOL    MW4 5685   3.778   0.753   2.334 -0.0620  0.1271  0.3765
 1404SOL     OW 5686   3.547   0.874   2.232  0.0816  0.3406 -0.2156
 1404SOL    HW2 5687   3.627   0.829   2.259 -0.6096 -0.5749  0.3413
 1404SOL    HW3 5688   3.555   0.882   2.137  0.5106 -0.3880 -0.2446
 1404SOL    MW4 5689   3.559   0.869   2.223  0.0470  0.1237 -0.1457
 1405SOL     OW 5690   3.543   1.135   2.335  0.4351  0.0667  0.1757
 1405SOL    HW2 5691   3.559   1.114   2.427  1.9424  0.0905 -0.0674
 1405SOL    HW3 5692   3.545   1.051   2.290  1.1857  0.2004 -0.0449
 1405SOL    MW4 5693   3.545   1.122   2.341  0.7331  0.0875  0.1144
 1406SOL     OW 5694   3.772   1.252   2.248  0.2846  0.1796 -0.1152
 1406SOL    HW2 5695   3.779   1.335   2.294 -1.5840  0.8983 -1.0640
 1406SOL    HW3 5696   3.701   1.205   2.293 -0.1024 -0.0057 -0.8967
 1406SOL    MW4 5697   3.763   1.257   2.260 -0.0129  0.2501 -0.3433
 1407SOL     OW 5698   3.814   1.508   2.342  0.2151 -0.5316 -0.0672
 1407SOL    HW2 5699   3.807   1.507   2.437  0.5271 -0.9372 -0.0445
 1407SOL    HW3 5700   3.734   1.551   2.312  0.2312 -0.1805  0.3853
 1407SOL    MW4 5701   3.803   1.514   2.350  0.2584 -0.5388 -0.0048
 1408SOL     OW 5702   3.570   1.629   2.244  0.3754  0.1091  0.4286
 1408SOL    HW2 5703   3.570   1.722   2.269  0.4448 -0.0627  1.0652
 1408SOL    HW3 5704   3.493   1.593   2.288 -1.3198  0.4880 -2.1427
 1408SOL    MW4 5705   3.560   1.637   2.253  0.1609  0.1365  0.1736
 1409SOL     OW 5706   3.599   1.884   2.367  0.4515  0.2714 -0.2086
 1409SOL    HW2 5707   3.672   1.934   2.330  0.3479  0.5942  0.0214
 1409SOL    HW3 5708   3.619   1.879   2.461  0.1723  0.3661 -0.1445
 1409SOL    MW4 5709   3.611   1.890   2.375  0.4010  0.3265 -0.1693
 1410SOL     OW 5710   3.813   2.013   2.269 -0.3489  0.0785 -0.5878
 1410SOL    HW2 5711   3.893   1.988   2.315 -0.4221 -1.5684 -1.3313
 1410SOL    HW3 5712   3.841   2.029   2.179 -0.8041 -0.1491 -0.7701
 1410SOL    MW4 5713   3.827   2.012   2.263 -0.4184 -0.1690 -0.7100
 1411SOL     OW 5714   3.847   2.263   2.380  0.0859 -0.0624 -0.4792
 1411SOL    HW2 5715   3.777   2.311   2.336 -0.3735  0.3955  0.7312
 1411SOL    HW3 5716   3.839   2.174   2.348 -0.9887  0.0107 -0.4372
 1411SOL    MW4 5717   3.837   2.258   2.370 -0.1166  0.0079 -0.3138
 1412SOL     OW 5718   3.655   2.419   2.253 -0.1621 -0.4687  0.0255
 1412SOL    HW2 5719   3.573   2.378   2.281  0.1519 -1.8958 -1.1087
 1412SOL    HW3 5720   3.652   2.415   2.157  1.3247 -0.7046 -0.0215
 1412SOL    MW4 5721   3.644   2.413   2.244  0.0756 -0.6883 -0.1304
 1413SOL     OW 5722   3.592   2.676   2.364  0.0901 -0.2664  0.2267
 1413SOL    HW2 5723   3.594   2.584   2.340  0.9054 -0.1436 -0.1933
 1413SOL    HW3 5724   3.512   2.710   2.324 -0.4167 -0.8737  0.7113
 1413SOL    MW4 5725   3.582   2.668   2.356  0.1304 -0.3304  0.2353
 1414SOL     OW 5726   3.806   2.818   2.259  0.2027  0.2353 -0.2062
 1414SOL    HW2 5727   3.788   2.911   2.277 -1.6733 -0.0322 -0.5411
 1414SOL    HW3 5728   3.727   2.773   2.289  0.1896 -1.0125 -2.0438
 1414SOL    MW4 5729   3.793   2.824   2.265 -0.0467  0.0353 -0.4928
 1415SOL     OW 5730   3.761   3.065   2.336 -0.4338 -0.3429  0.2589
 1415SOL    HW2 5731   3.753   3.080   2.430 -2.4792  0.6544 -0.0275
 1415SOL    HW3 5732   3.843   3.107   2.312 -0.8105  1.0567  1.3047
 1415SOL    MW4 5733   3.770   3.073   2.345 -0.7532 -0.0265  0.3591
 1416SOL     OW 5734   3.560   3.210   2.220 -0.5156  0.2659  0.2658
 1416SOL    HW2 5735   3.547   3.286   2.277 -0.7553  0.3608  0.0886
 1416SOL    HW3 5736   3.633   3.162   2.259  0.9018  1.6093 -0.6710
 1416SOL    MW4 5737   3.568   3.214   2.233 -0.3600  0.4554  0.1187
 1417SOL     OW 5738   3.574   3.445   2.371  0.2982  0.9189  0.7094
 1417SOL    HW2 5739   3.576   3.463   2.465  0.9790 -0.0171  0.8829
 1417SOL    HW3 5740   3.651   3.491   2.337  0.6967  0.3205  0.7911
 1417SOL    MW4 5741   3.584   3.454   2.379  0.4406  0.7164  0.7432
 1418SOL     OW 5742   3.791   3.583   2.267 -0.0282 -0.2300 -0.1533
 1418SOL    HW2 5743   3.790   3.673   2.301  1.7128  0.2179 -1.2663
 1418SOL    HW3 5744   3.793   3.592   2.172  1.8581 -1.4341 -0.2467
 1418SOL    MW4 5745   3.791   3.596   2.259  0.4504 -0.3295 -0.3123
 1419SOL     OW 5746   3.823   3.841   2.358 -0.1861 -0.3282  0.1969
 1419SOL    HW2 5747   3.819   3.850   2.453  1.1270 -1.1129  0.3463
 1419SOL    HW3 5748   3.908   3.877   2.333 -0.8294  0.5643 -0.7792
 1419SOL    MW4 5749   3.833   3.847   2.367 -0.0978 -0.3142  0.0880
 1420SOL     OW 5750   3.580   3.954   2.256  0.3097 -0.3824  0.3173
 1420SOL    HW2 5751   3.584   4.043   2.291  1.1502  0.0345 -0.7954
 1420SOL    HW3 5752   3.665   3.915   2.279  0.9471 -0.0395 -1.3814
 1420SOL    MW4 5753   3.592   3.961   2.263  0.5047 -0.2825 -0.0536
 1421SOL     OW 5754   3.586   4.221   2.348  0.2072  0.5557 -0.4540
 1421SOL    HW2 5755   3.659   4.271   2.312 -0.0870 -0.3149 -2.3174
 1421SOL    HW3 5756   3.508   4.269   2.321 -0.0233 -0.1378 -1.0286
 1421SOL    MW4 5757   3.585   4.234   2.340  0.1378  0.3495 -0.7756
 1422SOL     OW 5758   3.801   4.345   2.219  0.4344 -0.1323  0.3305
 1422SOL    HW2 5759   3.879   4.310   2.261  0.3177  1.1521  1.6687
 1422SOL    HW3 5760   3.797   4.437   2.247  0.0538  0.6322 -2.0953
 1422SOL    MW4 5761   3.811   4.353   2.228  0.3688  0.1378  0.1869
 1423SOL     OW 5762   4.269   4.655   2.356 -0.3296  0.0953 -0.0540
 1423SOL    HW2 5763   4.270   4.649   2.451  0.9707  0.0225 -0.0643
 1423SOL    HW3 5764   4.358   4.679   2.332 -0.0042 -2.2592 -1.4098
 1423SOL    MW4 5765   4.281   4.657   2.365 -0.1149 -0.2250 -0.2341
 1424SOL     OW 5766   4.027   0.106   2.288 -0.2618 -0.0040  0.5858
 1424SOL    HW2 5767   4.020   0.199   2.311  1.0152  0.1397  0.3895
 1424SOL    HW3 5768   4.114   0.080   2.316  0.7811 -0.2233 -2.6099
 1424SOL    MW4 5769   4.037   0.115   2.294  0.0448 -0.0140  0.1383
 1425SOL     OW 5770   4.013   0.367   2.407  0.2206  0.1688  0.4947
 1425SOL    HW2 5771   4.086   0.408   2.360  0.6315  0.1015  1.0666
 1425SOL    HW3 5772   3.935   0.412   2.375  0.5462  0.4670  0.1181
 1425SOL    MW4 5773   4.012   0.378   2.397  0.3171  0.1992  0.5205
 1426SOL     OW 5774   4.228   0.465   2.253 -0.0205  0.0241  0.2841
 1426SOL    HW2 5775   4.252   0.551   2.287 -0.4365  0.1401  0.2878
 1426SOL    HW3 5776   4.301   0.408   2.276  0.5642  0.5309 -0.3265
 1426SOL    MW4 5777   4.240   0.468   2.261  0.0019  0.1063  0.2041
 1427SOL     OW 5778   4.244   0.734   2.327 -0.0331 -0.0277 -0.0358
 1427SOL    HW2 5779   4.159   0.778   2.318  0.2882  0.9337  1.4495
 1427SOL    HW3 5780   4.307   0.797   2.292  0.1319 -0.4964 -0.5819
 1427SOL    MW4 5781   4.241   0.748   2.321  0.0310  0.0374  0.0880
 1428SOL     OW 5782   4.008   0.898   2.252 -0.5383  0.6347  0.0795
 1428SOL    HW2 5783   4.021   0.985   2.288 -1.5373  0.2769  1.3472
 1428SOL    HW3 5784   4.050   0.900   2.166  1.4265  1.6588  1.0598
 1428SOL    MW4 5785   4.015   0.909   2.245 -0.4110  0.7226  0.3760
 1429SOL     OW 5786   4.039   1.182   2.328 -0.5220 -0.3787  0.6578
 1429SOL    HW2 5787   4.038   1.159   2.421 -0.1384  0.8947  0.9961
 1429SOL    HW3 5788   3.948   1.198   2.306 -0.4395  1.0308  1.2790
 1429SOL    MW4 5789   4.027   1.181   2.337 -0.4601 -0.0247  0.7842
 1430SOL     OW 5790   4.301   1.266   2.248 -0.2222 -0.4173  0.6088
 1430SOL    HW2 5791   4.218   1.224   2.270  0.3232 -1.1213  1.3269
 1430SOL    HW3 5792   4.366   1.221   2.302  0.8006 -0.6392 -0.7920
 1430SOL    MW4 5793   4.299   1.255   2.258 -0.0153 -0.5394  0.5186
 1431SOL     OW 5794   4.280   1.517   2.403 -0.1183 -0.1214  0.3067
 1431SOL    HW2 5795   4.284   1.436   2.352 -1.4854 -0.6548  1.0078
 1431SOL    HW3 5796   4.350   1.572   2.368 -0.4407 -0.8458 -1.4997
 1431SOL    MW4 5797   4.289   1.513   2.392 -0.3414 -0.2875  0.1607
 1432SOL     OW 5798   4.058   1.659   2.293  0.0172  0.2104 -0.4338
 1432SOL    HW2 5799   4.116   1.597   2.338  0.6274 -0.4262 -2.0546
 1432SOL    HW3 5800   3.970   1.632   2.317  0.2515 -1.7825 -1.6909
 1432SOL    MW4 5801   4.054   1.647   2.302  0.1287 -0.1364 -0.8132
 1433SOL     OW 5802   4.077   1.933   2.370 -0.2234  0.4893 -0.0891
 1433SOL    HW2 5803   4.082   1.942   2.465  0.2308  1.8246 -0.2287
 1433SOL    HW3 5804   4.080   1.839   2.355  0.5938  0.3032  1.1688
 1433SOL    MW4 5805   4.078   1.922   2.381 -0.0553  0.6409  0.0584
 1434SOL     OW 5806   4.241   2.076   2.207  0.8833 -0.4493 -0.1866
 1434SOL    HW2 5807   4.245   2.162   2.248  0.6435 -0.3561 -0.3624
 1434SOL    HW3 5808   4.166   2.033   2.247  0.0059  0.0330 -1.2919
 1434SOL    MW4 5809   4.232   2.082   2.217  0.7358 -0.3731 -0.3552
 1435SOL     OW 5810   4.259   2.299   2.356 -0.1367 -0.2698  0.1250
 1435SOL    HW2 5811   4.176   2.335   2.324 -0.3254 -0.7200  0.1114
 1435SOL    HW3 5812   4.325   2.362   2.327 -0.4139 -0.1775 -0.3142
 1435SOL    MW4 5813   4.257   2.312   2.348 -0.1979 -0.3171  0.0653
 1436SOL     OW 5814   4.051   2.426   2.246 -0.1856  0.1933  0.0083
 1436SOL    HW2 5815   4.051   2.510   2.292  1.7177  0.3354 -0.2120
 1436SOL    HW3 5816   3.978   2.378   2.285  0.1569  1.0646  1.7962
 1436SOL    MW4 5817   4.041   2.431   2.257  0.1111  0.3269  0.2153
 1437SOL     OW 5818   4.034   2.684   2.351  0.2989 -0.2347 -0.4889
 1437SOL    HW2 5819   4.050   2.673   2.445  2.1562  0.7557 -0.6680
 1437SOL    HW3 5820   3.948   2.724   2.346 -0.3363 -1.3976  0.7356
 1437SOL    MW4 5821   4.025   2.688   2.363  0.4601 -0.2575 -0.3512
 1438SOL     OW 5822   4.267   2.829   2.285 -0.1122 -0.1300 -0.5518
 1438SOL    HW2 5823   4.183   2.784   2.297 -0.0318 -0.5932 -1.6620
 1438SOL    HW3 5824   4.333   2.764   2.308 -0.0426  0.1018 -0.0865
 1438SOL    MW4 5825   4.264   2.815   2.289 -0.0930 -0.1607 -0.6371
 1439SOL     OW 5826   4.239   3.100   2.389 -0.3791 -0.1984  0.2773
 1439SOL    HW2 5827   4.235   3.012   2.353 -1.3202  0.0897 -0.3413
 1439SOL    HW3 5828   4.318   3.139   2.351 -0.3150 -0.5549  0.0541
 1439SOL    MW4 5829   4.249   3.094   2.379 -0.4945 -0.2072  0.1664
 1440SOL     OW 5830   3.999   3.182   2.258  0.3843 -0.5509  0.0107
 1440SOL    HW2 5831   3.999   3.276   2.276  0.4352 -0.6004  0.2823
 1440SOL    HW3 5832   4.081   3.150   2.298  0.7063 -0.5979 -0.6864
 1440SOL    MW4 5833   4.010   3.190   2.266  0.4334 -0.5636 -0.0451
 1441SOL     OW 5834   4.021   3.444   2.322  0.4244  0.5310  0.0029
 1441SOL    HW2 5835   4.026   3.458   2.416  1.2583  0.4567 -0.0283
 1441SOL    HW3 5836   3.936   3.481   2.297  0.3287  0.8163  0.7321
 1441SOL    MW4 5837   4.011   3.451   2.331  0.5221  0.5586  0.0951
 1442SOL     OW 5838   4.253   3.580   2.226  0.1828  0.1074 -0.1361
 1442SOL    HW2 5839   4.255   3.664   2.271 -0.8678 -0.5368  1.1529
 1442SOL    HW3 5840   4.168   3.542   2.248  0.1505 -0.7831 -1.6722
 1442SOL    MW4 5841   4.242   3.586   2.235  0.0396 -0.0954 -0.1688
 1443SOL     OW 5842   4.249   3.830   2.348  0.0695 -0.1999  0.2036
 1443SOL    HW2 5843   4.251   3.829   2.443 -0.2241 -1.5323  0.2093
 1443SOL    HW3 5844   4.319   3.890   2.322 -0.7016  1.1832  1.2716
 1443SOL    MW4 5845   4.258   3.837   2.357 -0.0715 -0.1931  0.3452
 1444SOL     OW 5846   4.034   3.975   2.215 -0.4181  0.3626 -0.2036
 1444SOL    HW2 5847   4.099   3.918   2.257 -0.8197  0.0869  0.0505
 1444SOL    HW3 5848   4.051   3.966   2.121 -0.1828  0.1764 -0.1433
 1444SOL    MW4 5849   4.045   3.966   2.208 -0.4396  0.3018 -0.1619
 1445SOL     OW 5850   4.034   4.239   2.341 -0.1253 -0.4114 -0.2065
 1445SOL    HW2 5851   4.119   4.275   2.313  0.2274 -1.4871 -0.5156
 1445SOL    HW3 5852   4.034   4.149   2.309 -0.5031 -1.0888  1.6138
 1445SOL    MW4 5853   4.045   4.232   2.333 -0.1292 -0.6428 -0.0072
 1446SOL     OW 5854   4.263   4.385   2.253 -0.2838 -0.3565 -0.3169
 1446SOL    HW2 5855   4.269   4.472   2.292 -1.3627 -0.7239  0.7091
 1446SOL    HW3 5856   4.335   4.336   2.293  1.3771  0.5298 -2.1724
 1446SOL    MW4 5857   4.274   4.390   2.264 -0.2069 -0.2880 -0.4265
 1447SOL     OW 5858   0.229   0.003   2.685  0.0430 -0.4744  0.1585
 1447SOL    HW2 5859   0.238  -0.089   2.712 -0.9168 -0.3673  0.8501
 1447SOL    HW3 5860   0.144   0.030   2.720 -0.5751  0.1007 -1.7115
 1447SOL    MW4 5861   0.219  -0.006   2.693 -0.1652 -0.3843  0.0031
 1448SOL     OW 5862   4.475   0.114   2.754  0.7536 -0.5877 -0.2918
 1448SOL    HW2 5863   4.480   0.124   2.849  2.0773 -1.3948 -0.2630
 1448SOL    HW3 5864   4.475   0.203   2.720  1.2240 -0.3093  0.4270
 1448SOL    MW4 5865   4.476   0.127   2.762  0.9899 -0.6574 -0.1934
 1449SOL     OW 5866   4.466   0.370   2.647  0.3576  0.0382  0.1479
 1449SOL    HW2 5867   4.558   0.395   2.653  0.4872 -0.7458  1.8447
 1449SOL    HW3 5868   4.452   0.352   2.554  1.9052  0.2351 -0.1391
 1449SOL    MW4 5869   4.477   0.371   2.635  0.5784 -0.0393  0.3338
 1450SOL     OW 5870   0.217   0.483   2.706  0.3213 -0.3019 -0.2519
 1450SOL    HW2 5871   0.210   0.485   2.801 -0.2175  0.9810 -0.3109
 1450SOL    HW3 5872   0.296   0.432   2.688  0.8999  0.1904  0.8967
 1450SOL    MW4 5873   0.227   0.476   2.716  0.3266 -0.0677 -0.1078
 1451SOL     OW 5874   0.206   0.761   2.605  0.5053 -0.2180  0.2692
 1451SOL    HW2 5875   0.284   0.801   2.645  0.7701 -0.7352  0.2688
 1451SOL    HW3 5876   0.206   0.671   2.636  1.3145 -0.9536 -1.7257
 1451SOL    MW4 5877   0.216   0.755   2.614  0.6470 -0.3833  0.0060
 1452SOL     OW 5878   4.469   0.856   2.753  0.3257 -0.1035  0.2776
 1452SOL    HW2 5879   4.393   0.815   2.712 -0.2432 -0.4584  1.6651
 1452SOL    HW3 5880   4.542   0.834   2.695 -0.4847 -0.4538 -0.6310
 1452SOL    MW4 5881   4.468   0.848   2.740  0.1440 -0.1965  0.3409
 1453SOL     OW 5882   4.478   1.137   2.692 -0.1219  0.3086 -0.0008
 1453SOL    HW2 5883   4.558   1.178   2.723 -0.5085  0.8578  0.2604
 1453SOL    HW3 5884   4.481   1.048   2.727  0.2467  0.4126  0.2233
 1453SOL    MW4 5885   4.489   1.130   2.700 -0.1240  0.3947  0.0634
 1454SOL     OW 5886   0.213   1.280   2.782 -0.0922  0.5729 -0.0658
 1454SOL    HW2 5887   0.297   1.245   2.750 -0.9927 -1.1633 -0.6098
 1454SOL    HW3 5888   0.215   1.372   2.757  1.4549  0.4412 -0.5249
 1454SOL    MW4 5889   0.225   1.287   2.774 -0.0069  0.3265 -0.1981
 1455SOL     OW 5890   0.240   1.539   2.668 -0.3203  0.4555  0.4758
 1455SOL    HW2 5891   0.317   1.589   2.696 -0.6491 -0.2315  2.7341
 1455SOL    HW3 5892   0.166   1.595   2.692 -0.5949  0.2232  0.1700
 1455SOL    MW4 5893   0.241   1.553   2.675 -0.3999  0.3344  0.7336
 1456SOL     OW 5894   0.007   1.672   2.770  0.5328  0.5088 -0.0639
 1456SOL    HW2 5895   0.013   1.675   2.865  1.5768  0.2815 -0.1133
 1456SOL    HW3 5896  -0.018   1.761   2.744 -0.5874  0.3520  0.4703
 1456SOL    MW4 5897   0.004   1.684   2.779  0.5227  0.4581 -0.0002
 1457SOL     OW 5898   4.435   1.918   2.647  0.1059  0.4682 -0.3382
 1457SOL    HW2 5899   4.514   1.967   2.669 -0.2212  0.7267  0.2672
 1457SOL    HW3 5900   4.434   1.915   2.551  1.0104  0.1994 -0.3373
 1457SOL    MW4 5901   4.445   1.924   2.637  0.1822  0.4667 -0.2580
 1458SOL     OW 5902   0.196   2.037   2.714 -0.1436 -0.1238 -0.0920
 1458SOL    HW2 5903   0.284   2.008   2.691 -0.1556  0.0723 -0.3947
 1458SOL    HW3 5904   0.191   2.126   2.679 -0.3631 -0.0318  0.1748
 1458SOL    MW4 5905   0.207   2.045   2.706 -0.1741 -0.0858 -0.0968
 1459SOL     OW 5906   0.226   2.286   2.614  0.0693 -0.6382  0.0472
 1459SOL    HW2 5907   0.295   2.336   2.658 -0.7596  0.0063  0.6202
 1459SOL    HW3 5908   0.144   2.326   2.645 -0.5140  0.9156 -3.3040
 1459SOL    MW4 5909   0.225   2.298   2.624 -0.1170 -0.3481 -0.3192
 1460SOL     OW 5910   4.490   2.423   2.694 -0.0521 -0.4363 -0.2847
 1460SOL    HW2 5911   4.478   2.437   2.788  1.1293  0.3417 -0.2396
 1460SOL    HW3 5912   4.411   2.376   2.666 -0.7141 -0.0729  0.9628
 1460SOL    MW4 5913   4.478   2.418   2.703  0.0162 -0.2859 -0.1142
 1461SOL     OW 5914   4.473   2.692   2.662  0.0097 -0.2255  0.3892
 1461SOL    HW2 5915   4.395   2.727   2.704  0.1604  1.8688 -1.0106
 1461SOL    HW3 5916   4.464   2.597   2.669 -1.6933  0.0357  1.9688
 1461SOL    MW4 5917   4.462   2.684   2.668 -0.1955  0.0854  0.4129
 1462SOL     OW 5918   0.211   2.826   2.750 -0.1903  0.1134 -0.2965
 1462SOL    HW2 5919   0.214   2.919   2.725  1.2632 -0.2406 -1.5750
 1462SOL    HW3 5920   0.131   2.793   2.710 -0.1992  0.6028 -0.6932
 1462SOL    MW4 5921   0.201   2.834   2.741  0.0003  0.1311 -0.5174
 1463SOL     OW 5922   0.199   3.097   2.660  0.3166 -0.0919  0.6929
 1463SOL    HW2 5923   0.274   3.153   2.681 -1.9321  2.7232  1.6284
 1463SOL    HW3 5924   0.204   3.083   2.566  2.6357 -0.9183  0.9113
 1463SOL    MW4 5925   0.209   3.103   2.651  0.3259  0.1705  0.8452
 1464SOL     OW 5926   4.467   3.249   2.723  0.0517  0.2764  0.3979
 1464SOL    HW2 5927   4.389   3.200   2.698  0.5494 -1.1509  1.5979
 1464SOL    HW3 5928   4.540   3.191   2.701  0.9301  2.4703 -2.7536
 1464SOL    MW4 5929   4.466   3.235   2.717  0.2337  0.3777  0.1402
 1465SOL     OW 5930   4.479   3.512   2.625  0.3489 -0.4475  0.1567
 1465SOL    HW2 5931   4.557   3.546   2.670  0.6735 -0.8077 -0.1210
 1465SOL    HW3 5932   4.480   3.418   2.646 -1.2930 -0.0752  2.0405
 1465SOL    MW4 5933   4.490   3.504   2.634  0.1755 -0.4461  0.3686
 1466SOL     OW 5934   0.198   3.643   2.744  0.2540 -0.0938 -0.3798
 1466SOL    HW2 5935   0.193   3.637   2.840  1.1060  1.9128 -0.1907
 1466SOL    HW3 5936   0.282   3.603   2.722  0.0872 -0.4957 -0.2992
 1466SOL    MW4 5937   0.208   3.637   2.754  0.3444  0.1180 -0.3443
 1467SOL     OW 5938   0.248   3.886   2.635 -0.3833  0.1482  0.1424
 1467SOL    HW2 5939   0.224   3.804   2.678 -0.1956  0.4972  0.9252
 1467SOL    HW3 5940   0.243   3.867   2.541 -0.7247 -0.6427  0.3219
 1467SOL    MW4 5941   0.244   3.873   2.628 -0.4036  0.0896  0.2694
 1468SOL     OW 5942   4.474   3.972   2.713 -0.0284 -0.3872  0.0072
 1468SOL    HW2 5943   4.469   4.064   2.689 -1.2246 -0.3666  0.3373
 1468SOL    HW3 5944   4.557   3.942   2.675  1.5889  1.4127  1.9249
 1468SOL    MW4 5945   4.484   3.980   2.705  0.0272 -0.1469  0.3037
 1469SOL     OW 5946   4.486   4.242   2.634 -0.1944 -0.1781  0.0966
 1469SOL    HW2 5947   4.418   4.305   2.656 -0.9114 -0.7853 -0.3737
 1469SOL    HW3 5948   4.566   4.280   2.671 -0.6721  0.8360  0.1143
 1469SOL    MW4 5949   4.488   4.256   2.642 -0.3519 -0.1245  0.0370
 1470SOL     OW 5950   0.226   4.388   2.735 -0.0073  0.3298 -0.1445
 1470SOL    HW2 5951   0.218   4.376   2.829 -1.0188  0.0177 -0.2640
 1470SOL    HW3 5952   0.301   4.333   2.710  1.3398  1.7294  0.7111
 1470SOL    MW4 5953   0.235   4.379   2.744  0.0370  0.4735 -0.0474
 1471SOL     OW 5954   0.672   4.618   2.646  0.2101  0.3469  0.2135
 1471SOL    HW2 5955   0.749   4.668   2.674 -0.8272  1.3976  1.2303
 1471SOL    HW3 5956   0.598   4.675   2.666 -0.7989 -0.3719 -1.3840
 1471SOL    MW4 5957   0.673   4.632   2.652 -0.0599  0.3910  0.1371
 1472SOL     OW 5958   0.479   0.120   2.777  0.0929 -0.2422  0.4703
 1472SOL    HW2 5959   0.481   0.127   2.872  0.9851 -1.6790  0.5690
 1472SOL    HW3 5960   0.392   0.088   2.756 -0.1110  0.0985  0.7961
 1472SOL    MW4 5961   0.468   0.117   2.787  0.1838 -0.3868  0.5262
 1473SOL     OW 5962   0.461   0.350   2.647 -0.5349  0.0883 -0.0639
 1473SOL    HW2 5963   0.529   0.408   2.681 -0.0108 -0.2188 -0.5799
 1473SOL    HW3 5964   0.483   0.264   2.682 -1.0855  0.1280  0.3785
 1473SOL    MW4 5965   0.473   0.347   2.656 -0.5384  0.0530 -0.0737
 1474SOL     OW 5966   0.671   0.513   2.724  0.0986  0.3041 -0.2131
 1474SOL    HW2 5967   0.669   0.509   2.819 -0.9297  1.7912 -0.1589
 1474SOL    HW3 5968   0.749   0.463   2.699 -0.0701 -0.7446  1.3580
 1474SOL    MW4 5969   0.681   0.506   2.733 -0.0592  0.3619  0.0012
 1475SOL     OW 5970   0.670   0.813   2.668  0.2273 -0.4206 -0.0563
 1475SOL    HW2 5971   0.750   0.863   2.685  0.5059 -0.3355 -1.6066
 1475SOL    HW3 5972   0.691   0.725   2.698  0.1414  0.0966  1.5788
 1475SOL    MW4 5973   0.684   0.808   2.674  0.2527 -0.3411 -0.0451
 1476SOL     OW 5974   0.422   0.887   2.730  0.2672  0.1494  0.3874
 1476SOL    HW2 5975   0.412   0.980   2.709 -0.3742 -0.3040 -1.3973
 1476SOL    HW3 5976   0.515   0.870   2.719  0.0878  0.1399 -1.2408
 1476SOL    MW4 5977   0.433   0.897   2.726  0.1589  0.0883 -0.0625
 1477SOL     OW 5978   0.438   1.159   2.672 -0.4809  0.6480  0.1365
 1477SOL    HW2 5979   0.523   1.199   2.690  0.3575 -1.3166  0.5839
 1477SOL    HW3 5980   0.436   1.150   2.577  0.0587  0.1863  0.1642
 1477SOL    MW4 5981   0.449   1.163   2.662 -0.2991  0.3278  0.1991
 1478SOL     OW 5982   0.663   1.316   2.729  0.2785 -0.2858 -0.0169
 1478SOL    HW2 5983   0.661   1.308   2.825  0.7740  0.6530  0.0696
 1478SOL    HW3 5984   0.745   1.274   2.703 -0.6358 -2.0229 -0.1786
 1478SOL    MW4 5985   0.673   1.309   2.738  0.2232 -0.3911 -0.0269
 1479SOL     OW 5986   0.704   1.570   2.639 -0.0434  0.0672 -0.6731
 1479SOL    HW2 5987   0.634   1.631   2.663  0.8710  0.5367  0.8846
 1479SOL    HW3 5988   0.679   1.487   2.677  0.1572  0.1987 -0.2472
 1479SOL    MW4 5989   0.692   1.567   2.647  0.1037  0.1463 -0.4113
 1480SOL     OW 5990   0.470   1.698   2.730 -0.1032  0.0379  0.0899
 1480SOL    HW2 5991   0.468   1.709   2.825  1.1227 -1.8599  0.3569
 1480SOL    HW3 5992   0.472   1.788   2.696  1.1422  0.7314  1.8830
 1480SOL    MW4 5993   0.470   1.712   2.738  0.2229 -0.1211  0.3617
 1481SOL     OW 5994   0.441   1.960   2.621 -0.0330  0.2727 -0.4087
 1481SOL    HW2 5995   0.527   1.988   2.654 -0.1061  0.6825 -0.5656
 1481SOL    HW3 5996   0.454   1.948   2.527  0.4769 -2.0494 -0.0548
 1481SOL    MW4 5997   0.454   1.962   2.613  0.0246  0.0204 -0.3829
 1482SOL     OW 5998   0.687   2.054   2.695 -0.0116  0.4412 -0.5294
 1482SOL    HW2 5999   0.697   2.072   2.789  0.4780 -0.9185 -0.3140
 1482SOL    HW3 6000   0.773   2.022   2.668 -0.5513 -0.4982 -1.1384
 1482SOL    MW4 6001   0.700   2.052   2.704 -0.0182  0.1380 -0.5813
 1483SOL     OW 6002   0.665   2.321   2.607 -0.3372  0.4208  0.6054
 1483SOL    HW2 6003   0.736   2.366   2.651 -0.4028  1.8706 -0.7595
 1483SOL    HW3 6004   0.670   2.231   2.640  1.3381  0.8081  1.4515
 1483SOL    MW4 6005   0.675   2.315   2.617 -0.1249  0.6633  0.5367
 1484SOL     OW 6006   0.443   2.432   2.728 -0.1365  0.9490  0.2321
 1484SOL    HW2 6007   0.451   2.520   2.692 -0.6219  1.0975  0.4886
 1484SOL    HW3 6008   0.511   2.382   2.683  0.0521  1.4202 -0.0124
 1484SOL    MW4 6009   0.453   2.437   2.718 -0.1757  1.0309  0.2337
 1485SOL     OW 6010   0.413   2.687   2.622  0.3208  0.3746  0.1570
 1485SOL    HW2 6011   0.495   2.720   2.658  0.1287  2.7060 -1.3895
 1485SOL    HW3 6012   0.344   2.727   2.675  0.0900  2.4454 -1.6158
 1485SOL    MW4 6013   0.415   2.696   2.634  0.2650  0.9553 -0.2811
 1486SOL     OW 6014   0.630   2.788   2.737 -0.2089  0.3867  0.3268
 1486SOL    HW2 6015   0.640   2.795   2.832 -1.6256  0.8666  0.4574
 1486SOL    HW3 6016   0.627   2.879   2.707  1.7802  0.2408 -0.3668
 1486SOL    MW4 6017   0.631   2.801   2.745 -0.1333  0.4306  0.2522
 1487SOL     OW 6018   0.669   3.075   2.673 -0.7235  0.0311 -0.0518
 1487SOL    HW2 6019   0.750   3.114   2.707 -1.0056  0.1692  0.4794
 1487SOL    HW3 6020   0.678   3.078   2.578  1.1848 -2.6225 -0.0075
 1487SOL    MW4 6021   0.681   3.080   2.665 -0.5089 -0.3009  0.0243
 1488SOL     OW 6022   0.437   3.237   2.723  0.7079 -0.2430  0.1535
 1488SOL    HW2 6023   0.451   3.256   2.816  1.2985  0.5401 -0.0837
 1488SOL    HW3 6024   0.514   3.186   2.697  0.8082 -0.0091 -0.0208
 1488SOL    MW4 6025   0.449   3.233   2.732  0.7990 -0.1092  0.0992
 1489SOL     OW 6026   0.435   3.517   2.635 -0.2512 -0.0229  0.4626
 1489SOL    HW2 6027   0.437   3.428   2.670  0.2893  0.0180  0.5482
 1489SOL    HW3 6028   0.423   3.506   2.541  0.9829 -0.2359  0.3168
 1489SOL    MW4 6029   0.434   3.504   2.627 -0.0170 -0.0458  0.4544
 1490SOL     OW 6030   0.691   3.608   2.760 -0.4767  0.2782 -0.3068
 1490SOL    HW2 6031   0.681   3.624   2.854  2.3221  1.8957 -0.1875
 1490SOL    HW3 6032   0.605   3.579   2.730 -1.2504 -0.8488  2.8578
 1490SOL    MW4 6033   0.679   3.607   2.768 -0.2094  0.3428  0.1261
 1491SOL     OW 6034   0.674   3.858   2.639  0.4203 -0.9634 -0.1830
 1491SOL    HW2 6035   0.600   3.901   2.682  1.0781 -0.5501  0.5523
 1491SOL    HW3 6036   0.682   3.774   2.684  0.2464 -1.1109 -0.4265
 1491SOL    MW4 6037   0.666   3.852   2.651  0.4841 -0.9284 -0.1183
 1492SOL     OW 6038   0.472   3.995   2.755 -0.0872 -0.7698 -0.4304
 1492SOL    HW2 6039   0.464   4.086   2.725  0.6882  0.0172  1.6655
 1492SOL    HW3 6040   0.396   3.951   2.717 -1.0613  1.0126 -0.6162
 1492SOL    MW4 6041   0.461   4.001   2.746 -0.1134 -0.4306 -0.1786
 1493SOL     OW 6042   0.440   4.242   2.645 -0.1122 -0.2806 -0.4653
 1493SOL    HW2 6043   0.519   4.282   2.683 -0.0631 -0.8488  0.0422
 1493SOL    HW3 6044   0.445   4.264   2.552 -0.6367  1.7913 -0.0271
 1493SOL    MW4 6045   0.451   4.250   2.638 -0.1749 -0.0825 -0.3405
 1494SOL     OW 6046   0.649   4.366   2.767  0.5352 -0.3823  0.4121
 1494SOL    HW2 6047   0.728   4.330   2.726  1.7391  1.0676  1.4250
 1494SOL    HW3 6048   0.634   4.449   2.722 -0.1883 -0.4464  0.5181
 1494SOL    MW4 6049   0.657   4.372   2.755  0.5986 -0.1998  0.5600
 1495SOL     OW 6050   1.102   4.627   2.615  0.0289  0.0065 -0.2293
 1495SOL    HW2 6051   1.173   4.679   2.652  0.5293 -0.8089 -0.0364
 1495SOL    HW3 6052   1.120   4.537   2.643 -0.1190 -0.4758 -1.6314
 1495SOL    MW4 6053   1.114   4.622   2.623  0.0753 -0.1650 -0.3889
 1496SOL     OW 6054   0.890   0.114   2.699 -0.3632  0.5306 -0.5894
 1496SOL    HW2 6055   0.881   0.117   2.794 -2.8473  0.3894 -0.7871
 1496SOL    HW3 6056   0.958   0.050   2.683 -0.6918 -0.2555  1.0606
 1496SOL    MW4 6057   0.897   0.106   2.709 -0.7343  0.4083 -0.3979
 1497SOL     OW 6058   0.900   0.385   2.632 -0.4092 -0.1120  0.5308
 1497SOL    HW2 6059   0.909   0.293   2.658  1.8810 -0.0233  0.1346
 1497SOL    HW3 6060   0.909   0.383   2.537  1.6788  0.7114  0.6789
 1497SOL    MW4 6061   0.902   0.372   2.623  0.1684  0.0084  0.4978
 1498SOL     OW 6062   1.135   0.509   2.694  0.5681  0.0554 -0.4413
 1498SOL    HW2 6063   1.113   0.600   2.674 -0.1114 -0.1096 -0.4507
 1498SOL    HW3 6064   1.055   0.460   2.674  0.4906 -0.3605  0.8550
 1498SOL    MW4 6065   1.121   0.514   2.689  0.4680 -0.0213 -0.2716
 1499SOL     OW 6066   1.080   0.777   2.628 -0.3477 -0.1050 -0.2298
 1499SOL    HW2 6067   1.157   0.822   2.662 -0.2213 -0.7429  0.3391
 1499SOL    HW3 6068   1.091   0.778   2.533  0.3797 -0.2233 -0.1454
 1499SOL    MW4 6069   1.091   0.783   2.620 -0.2350 -0.2048 -0.1435
 1500SOL     OW 6070   0.899   0.941   2.736 -0.4669  0.2268  0.3410
 1500SOL    HW2 6071   0.910   0.913   2.827 -0.1520  1.1582  0.5952
 1500SOL    HW3 6072   0.962   0.888   2.687 -0.5632 -0.2023  0.6762
 1500SOL    MW4 6073   0.909   0.931   2.742 -0.4380  0.2930  0.4187
 1501SOL     OW 6074   0.894   1.209   2.654 -0.2727  0.2606 -0.5464
 1501SOL    HW2 6075   0.874   1.119   2.679  0.0325  0.0801 -0.9439
 1501SOL    HW3 6076   0.900   1.207   2.558 -0.1403  0.6761 -0.5517
 1501SOL    MW4 6077   0.892   1.197   2.644 -0.2149  0.2916 -0.5994
 1502SOL     OW 6078   1.149   1.282   2.754  0.0755  0.4762  0.7434
 1502SOL    HW2 6079   1.170   1.372   2.729  1.2399  0.2364  0.8197
 1502SOL    HW3 6080   1.062   1.266   2.718  0.3140  1.2709 -0.1909
 1502SOL    MW4 6081   1.141   1.292   2.746  0.2607  0.5496  0.6304
 1503SOL     OW 6082   1.171   1.535   2.657 -0.4768 -0.7760  0.4790
 1503SOL    HW2 6083   1.101   1.588   2.696  1.3581  1.7154  0.4978
 1503SOL    HW3 6084   1.162   1.548   2.563 -1.4476 -2.3366  0.3324
 1503SOL    MW4 6085   1.160   1.544   2.650 -0.3629 -0.6531  0.4623
 1504SOL     OW 6086   0.949   1.685   2.739 -0.4731  0.1581  0.1075
 1504SOL    HW2 6087   0.934   1.684   2.833  0.7043 -1.2224  0.3003
 1504SOL    HW3 6088   0.874   1.638   2.702 -1.2120  1.1724  0.3028
 1504SOL    MW4 6089   0.937   1.678   2.746 -0.4152  0.1098  0.1588
 1505SOL     OW 6090   0.926   1.946   2.600  0.3347 -0.1027  0.1871
 1505SOL    HW2 6091   0.993   2.011   2.624  0.8660 -0.2837 -0.8086
 1505SOL    HW3 6092   0.951   1.867   2.648 -0.3736  0.4482  1.4869
 1505SOL    MW4 6093   0.938   1.944   2.610  0.3114 -0.0538  0.2270
 1506SOL     OW 6094   1.107   2.098   2.739  0.5169 -0.0127  0.1956
 1506SOL    HW2 6095   1.176   2.060   2.685 -0.7412 -1.5882 -0.3508
 1506SOL    HW3 6096   1.099   2.188   2.707  3.3283  0.7009  1.2949
 1506SOL    MW4 6097   1.115   2.105   2.728  0.7219 -0.1264  0.2689
 1507SOL     OW 6098   1.102   2.344   2.631  0.6178 -0.2223  0.5781
 1507SOL    HW2 6099   1.174   2.397   2.665  0.6713  0.6610 -0.8705
 1507SOL    HW3 6100   1.112   2.348   2.536 -1.7745  0.5701  0.3296
 1507SOL    MW4 6101   1.113   2.352   2.623  0.3093 -0.0012  0.3541
 1508SOL     OW 6102   0.883   2.466   2.748 -0.0872  0.3494  0.6482
 1508SOL    HW2 6103   0.876   2.559   2.724 -0.2257  0.0401 -0.5185
 1508SOL    HW3 6104   0.963   2.436   2.704 -0.5243 -0.3079  0.2949
 1508SOL    MW4 6105   0.893   2.474   2.739 -0.1631  0.2220  0.4475
 1509SOL     OW 6106   0.873   2.717   2.627  0.4608  0.0726  0.4043
 1509SOL    HW2 6107   0.945   2.764   2.670  0.0067  0.4346  0.7643
 1509SOL    HW3 6108   0.794   2.753   2.666  0.0467  0.3043 -0.6469
 1509SOL    MW4 6109   0.872   2.728   2.638  0.3462  0.1509  0.3130
 1510SOL     OW 6110   1.083   2.832   2.745  0.0000  0.0000  0.0266
 1510SOL    HW2 6111   1.106   2.825   2.837  0.0000  0.0000  0.0226
 1510SOL    HW3 6112   1.158   2.795   2.698  0.0000  0.0000  0.0127
 1510SOL    MW4 6113   1.096   2.826   2.751  0.0000  0.0000  0.0243
 1511SOL     OW 6114   1.148   3.096   2.681  0.0000  0.0000  0.2916
 1511SOL    HW2 6115   1.122   3.007   2.704  0.0000  0.0000  0.2870
 1511SOL    HW3 6116   1.136   3.101   2.586  0.0000  0.0000  0.2919
 1511SOL    MW4 6117   1.143   3.085   2.671  0.0000  0.0000  0.2911
 1512SOL     OW 6118   0.919   3.208   2.752  0.0000  0.0000  0.2512
 1512SOL    HW2 6119   0.903   3.287   2.700  0.0000  0.0000  0.2578
 1512SOL    HW3 6120   1.006   3.179   2.723  0.0000  0.0000  0.2352
 1512SOL    MW4 6121   0.928   3.215   2.741  0.0000  0.0000  0.2501
 1513SOL     OW 6122   0.887   3.462   2.641  0.0000  0.0000 -0.1122
 1513SOL    HW2 6123   0.961   3.507   2.683  0.0000  0.0000 -0.0538
 1513SOL    HW3 6124   0.810   3.512   2.671  0.0000  0.0000 -0.1949
 1513SOL    MW4 6125   0.887   3.475   2.650  0.0000  0.0000 -0.1156
 1514SOL     OW 6126   1.102   3.599   2.739  0.0000  0.0000  0.2593
 1514SOL    HW2 6127   1.101   3.626   2.831  0.0000  0.0000  0.2603
 1514SOL    HW3 6128   1.100   3.681   2.690  0.0000  0.0000  0.2620
 1514SOL    MW4 6129   1.102   3.613   2.745  0.0000  0.0000  0.2596
 1515SOL     OW 6130   1.098   3.851   2.606  0.0000  0.0000 -0.4137
 1515SOL    HW2 6131   1.178   3.889   2.643  0.0000  0.0000 -0.4211
 1515SOL    HW3 6132   1.110   3.859   2.511  0.0000  0.0000 -0.4149
 1515SOL    MW4 6133   1.110   3.857   2.598  0.0000  0.0000 -0.4148
 1516SOL     OW 6134   0.893   4.008   2.733  0.0000  0.0000  0.8562
 1516SOL    HW2 6135   0.957   3.963   2.677  0.0000  0.0000  0.8665
 1516SOL    HW3 6136   0.809   3.969   2.707  0.0000  0.0000  0.8272
 1516SOL    MW4 6137   0.890   3.997   2.722  0.0000  0.0000  0.8540
 1517SOL     OW 6138   0.888   4.266   2.643  0.0000  0.0000 -0.0120
 1517SOL    HW2 6139   0.892   4.174   2.668  0.0000  0.0000 -0.0166
 1517SOL    HW3 6140   0.884   4.265   2.547  0.0000  0.0000 -0.0124
 1517SOL    MW4 6141   0.888   4.254   2.633  0.0000  0.0000 -0.0126
 1518SOL     OW 6142   1.144   4.351   2.719  0.0000  0.0000 -0.4787
 1518SOL    HW2 6143   1.137   4.378   2.811  0.0000  0.0000 -0.4797
 1518SOL    HW3 6144   1.055   4.327   2.694  0.0000  0.0000 -0.4804
 1518SOL    MW4 6145   1.131   4.351   2.728  0.0000  0.0000 -0.4792
 1519SOL     OW 6146   1.555   0.008   2.614  0.2854 -0.0399 -0.0518
 1519SOL    HW2 6147   1.553  -0.077   2.657 -2.1267  0.3387  0.6446
 1519SOL    HW3 6148   1.570  -0.012   2.522  1.7654 -1.0730  0.3991
 1519SOL    MW4 6149   1.557  -0.006   2.608  0.1624 -0.1264  0.0997
 1520SOL     OW 6150   1.310   0.087   2.745  0.1311 -0.5222  0.0531
 1520SOL    HW2 6151   1.296   0.172   2.703 -1.8511 -1.4901 -1.3333
 1520SOL    HW3 6152   1.396   0.060   2.715  0.2359  0.4170 -0.5391
 1520SOL    MW4 6153   1.319   0.095   2.736 -0.1165 -0.5260 -0.2077
 1521SOL     OW 6154   1.330   0.330   2.599  0.0886  0.2150 -0.3738
 1521SOL    HW2 6155   1.418   0.366   2.605  0.4641 -0.8073  0.3171
 1521SOL    HW3 6156   1.274   0.397   2.639  0.5758  0.7563 -0.5939
 1521SOL    MW4 6157   1.334   0.343   2.605  0.2025  0.1515 -0.3114
 1522SOL     OW 6158   1.578   0.454   2.704 -0.4724  0.2659  0.2678
 1522SOL    HW2 6159   1.655   0.421   2.657 -3.3545 -1.5875 -3.4208
 1522SOL    HW3 6160   1.574   0.547   2.682 -0.1208  0.0361 -0.7798
 1522SOL    MW4 6161   1.588   0.461   2.695 -0.8065 -0.0089 -0.3569
 1523SOL     OW 6162   1.561   0.725   2.627 -0.3166 -0.0150 -0.0571
 1523SOL    HW2 6163   1.478   0.762   2.658  0.3494  0.8074  0.7588
 1523SOL    HW3 6164   1.562   0.744   2.533 -0.3952  1.2733  0.1913
 1523SOL    MW4 6165   1.550   0.733   2.619 -0.2391  0.2635  0.0837
 1524SOL     OW 6166   1.329   0.860   2.703  0.0376  0.3919 -0.1992
 1524SOL    HW2 6167   1.334   0.864   2.799 -1.2141  1.4155 -0.1589
 1524SOL    HW3 6168   1.342   0.950   2.675  0.2181  0.1226 -0.9832
 1524SOL    MW4 6169   1.331   0.872   2.712 -0.1037  0.4914 -0.2975
 1525SOL     OW 6170   1.345   1.120   2.632  0.5549 -0.3955 -0.6003
 1525SOL    HW2 6171   1.428   1.157   2.662  0.6633 -1.4071  0.3656
 1525SOL    HW3 6172   1.278   1.167   2.681  0.6455 -0.7375 -0.1405
 1525SOL    MW4 6173   1.347   1.131   2.642  0.5810 -0.5741 -0.4120
 1526SOL     OW 6174   1.580   1.270   2.746 -0.0131  0.3716  0.2350
 1526SOL    HW2 6175   1.577   1.267   2.842  1.5960 -0.5902  0.2666
 1526SOL    HW3 6176   1.649   1.208   2.722 -1.0729 -0.1275 -1.6006
 1526SOL    MW4 6177   1.589   1.262   2.755  0.0594  0.1789 -0.0031
 1527SOL     OW 6178   1.585   1.549   2.617  0.0075 -0.0904 -0.2338
 1527SOL    HW2 6179   1.589   1.462   2.656  3.2546 -0.0098 -0.2872
 1527SOL    HW3 6180   1.577   1.533   2.523  2.8497 -0.4217 -0.4714
 1527SOL    MW4 6181   1.584   1.536   2.610  0.8109 -0.1235 -0.2718
 1528SOL     OW 6182   1.378   1.705   2.732  0.0145  0.1641  0.1014
 1528SOL    HW2 6183   1.453   1.658   2.697  1.4535  0.2860  2.8621
 1528SOL    HW3 6184   1.306   1.641   2.729  1.0796 -1.0799  0.6168
 1528SOL    MW4 6185   1.378   1.690   2.727  0.3448  0.0161  0.5338
 1529SOL     OW 6186   1.325   1.949   2.605 -0.0607 -0.4471 -0.2109
 1529SOL    HW2 6187   1.351   1.872   2.655  0.0446 -0.9029 -0.9593
 1529SOL    HW3 6188   1.357   1.932   2.516  2.1468  1.5393  0.1517
 1529SOL    MW4 6189   1.333   1.937   2.600  0.2445 -0.2451 -0.2615
 1530SOL     OW 6190   1.536   2.121   2.725  0.1795  0.0336  0.5548
 1530SOL    HW2 6191   1.605   2.073   2.679  0.4083  0.2230  0.7060
 1530SOL    HW3 6192   1.455   2.075   2.701  0.2516  0.3877 -0.3804
 1530SOL    MW4 6193   1.534   2.108   2.716  0.2192  0.1054  0.4513
 1531SOL     OW 6194   1.538   2.378   2.601  0.4730 -0.8512 -0.0926
 1531SOL    HW2 6195   1.626   2.397   2.633  0.3061 -0.0892 -0.0869
 1531SOL    HW3 6196   1.518   2.291   2.636  1.5881 -1.4331 -0.8919
 1531SOL    MW4 6197   1.547   2.369   2.610  0.5981 -0.8273 -0.1972
 1532SOL     OW 6198   1.322   2.498   2.743  0.0554  0.7317 -0.0916
 1532SOL    HW2 6199   1.309   2.585   2.706  1.3591  1.0556  0.1613
 1532SOL    HW3 6200   1.406   2.470   2.708 -0.5368 -0.5914 -0.4667
 1532SOL    MW4 6201   1.331   2.506   2.734  0.1494  0.5999 -0.1078
 1533SOL     OW 6202   1.287   2.732   2.624 -0.7319  0.0217  0.0123
 1533SOL    HW2 6203   1.366   2.784   2.640  1.2180 -2.9799  0.4774
 1533SOL    HW3 6204   1.287   2.716   2.530  0.6677 -2.1801  0.3702
 1533SOL    MW4 6205   1.297   2.737   2.614 -0.2900 -0.6649  0.1209
 1534SOL     OW 6206   1.521   2.847   2.686 -0.0286 -0.0032  0.1083
 1534SOL    HW2 6207   1.516   2.835   2.781  1.1826  0.3500  0.2281
 1534SOL    HW3 6208   1.586   2.783   2.658 -0.2951 -0.0174 -0.4672
 1534SOL    MW4 6209   1.529   2.837   2.695  0.0961  0.0412  0.0479
 1535SOL     OW 6210   1.557   3.102   2.592 -0.1686 -0.1964  0.0970
 1535SOL    HW2 6211   1.642   3.131   2.627 -0.5455  0.2382  0.6578
 1535SOL    HW3 6212   1.550   3.010   2.617  0.4819 -0.4515 -0.6243
 1535SOL    MW4 6213   1.567   3.094   2.600 -0.1326 -0.1729  0.0756
 1536SOL     OW 6214   1.381   3.226   2.757  0.4492  0.0874  0.6317
 1536SOL    HW2 6215   1.455   3.190   2.709  0.3516  0.9060 -0.1461
 1536SOL    HW3 6216   1.305   3.180   2.721  0.2878  1.2600 -0.6010
 1536SOL    MW4 6217   1.380   3.215   2.746  0.4152  0.3502  0.3662
 1537SOL     OW 6218   1.333   3.456   2.613  0.2975 -0.2832 -0.3192
 1537SOL    HW2 6219   1.326   3.369   2.653  0.5999  0.3857  1.1805
 1537SOL    HW3 6220   1.263   3.507   2.652 -0.0065  0.1027 -1.3510
 1537SOL    MW4 6221   1.323   3.451   2.623  0.2973 -0.1440 -0.2577
 1538SOL     OW 6222   1.567   3.589   2.735  0.3392  0.2039  0.1757
 1538SOL    HW2 6223   1.631   3.521   2.713  0.9971  0.3062  1.7318
 1538SOL    HW3 6224   1.485   3.557   2.698  0.9905 -0.6181 -0.5865
 1538SOL    MW4 6225   1.565   3.576   2.727  0.5119  0.1090  0.2806
 1539SOL     OW 6226   1.592   3.858   2.645 -0.1509  0.3265  0.0550
 1539SOL    HW2 6227   1.506   3.889   2.672 -0.0511  0.1763  0.5402
 1539SOL    HW3 6228   1.596   3.768   2.677  0.4506  0.5496  0.6007
 1539SOL    MW4 6229   1.581   3.850   2.653 -0.0584  0.3359  0.1910
 1540SOL     OW 6230   1.342   3.958   2.690  0.6620  0.3583 -0.0866
 1540SOL    HW2 6231   1.337   3.946   2.785  0.0472 -0.6305 -0.2380
 1540SOL    HW3 6232   1.359   4.052   2.679  0.0381  0.6061  0.9741
 1540SOL    MW4 6233   1.344   3.969   2.701  0.4985  0.2608  0.0334
 1541SOL     OW 6234   1.388   4.240   2.670  0.2121  0.0814  0.1693
 1541SOL    HW2 6235   1.308   4.275   2.708  0.9851  0.2655  1.6490
 1541SOL    HW3 6236   1.372   4.241   2.575 -1.2300  0.8238  0.4096
 1541SOL    MW4 6237   1.375   4.245   2.662  0.1237  0.2041  0.3963
 1542SOL     OW 6238   1.577   4.436   2.743  0.2376 -0.4360 -0.0422
 1542SOL    HW2 6239   1.570   4.443   2.838  1.3529 -2.1971  0.1798
 1542SOL    HW3 6240   1.511   4.371   2.719 -0.2252  0.1983 -0.5128
 1542SOL    MW4 6241   1.567   4.428   2.753  0.3237 -0.5846 -0.0751
 1543SOL     OW 6242   1.982   4.637   2.601 -0.2592 -0.0026  0.0057
 1543SOL    HW2 6243   2.061   4.690   2.610  0.4437 -0.6877 -1.8537
 1543SOL    HW3 6244   1.956   4.648   2.510 -1.9790 -0.2541  0.4481
 1543SOL    MW4 6245   1.989   4.645   2.590 -0.3934 -0.1264 -0.1812
 1544SOL     OW 6246   1.772   0.097   2.760 -0.5718 -0.0952  0.6654
 1544SOL    HW2 6247   1.840   0.037   2.730 -0.8595  0.2713 -0.7484
 1544SOL    HW3 6248   1.693   0.070   2.713 -0.8301  1.0397  0.4265
 1544SOL    MW4 6249   1.771   0.085   2.750 -0.6438  0.1029  0.4470
 1545SOL     OW 6250   1.807   0.314   2.604  0.2227 -0.3017 -0.0350
 1545SOL    HW2 6251   1.881   0.367   2.635  0.1558 -0.2983  0.1184
 1545SOL    HW3 6252   1.796   0.247   2.672 -1.5117  1.1893  1.1908
 1545SOL    MW4 6253   1.815   0.312   2.617 -0.0150 -0.1045  0.1469
 1546SOL     OW 6254   2.004   0.455   2.747  0.4699 -0.4335  0.1193
 1546SOL    HW2 6255   2.076   0.406   2.708  0.0691 -0.6230 -0.3921
 1546SOL    HW3 6256   2.012   0.544   2.712  0.5716 -0.4057  0.2146
 1546SOL    MW4 6257   2.014   0.460   2.737  0.4303 -0.4548  0.0644
 1547SOL     OW 6258   2.035   0.711   2.651 -0.4651  0.3599 -0.0103
 1547SOL    HW2 6259   1.945   0.734   2.671 -0.9945 -1.2815 -0.4000
 1547SOL    HW3 6260   2.041   0.716   2.556 -0.3634 -0.2912 -0.0407
 1547SOL    MW4 6261   2.024   0.714   2.641 -0.5214  0.0574 -0.0660
 1548SOL     OW 6262   1.795   0.848   2.728  0.3048  0.5805  0.0756
 1548SOL    HW2 6263   1.805   0.938   2.697 -0.5951  0.3900 -0.7908
 1548SOL    HW3 6264   1.707   0.823   2.701  0.0583 -0.1201  1.4621
 1548SOL    MW4 6265   1.784   0.856   2.721  0.1537  0.4629  0.1445
 1549SOL     OW 6266   1.798   1.123   2.673  0.2464 -0.0096  0.3940
 1549SOL    HW2 6267   1.868   1.176   2.711  0.4685  0.8401 -1.1503
 1549SOL    HW3 6268   1.811   1.132   2.578 -1.5364 -0.3954  0.1076
 1549SOL    MW4 6269   1.809   1.132   2.666  0.0405  0.0516  0.1526
 1550SOL     OW 6270   2.035   1.248   2.752  0.1912  0.0670  0.1306
 1550SOL    HW2 6271   2.050   1.238   2.846 -1.1871  0.8543  0.4469
 1550SOL    HW3 6272   2.101   1.192   2.711  2.7360  1.9441  1.4981
 1550SOL    MW4 6273   2.046   1.239   2.759  0.3450  0.4185  0.3531
 1551SOL     OW 6274   2.012   1.518   2.641 -0.5388 -0.7500  0.3643
 1551SOL    HW2 6275   1.943   1.569   2.684 -0.9420 -1.0111  0.0366
 1551SOL    HW3 6276   2.012   1.434   2.687 -0.0763 -0.5599  0.7117
 1551SOL    MW4 6277   2.003   1.514   2.653 -0.5312 -0.7594  0.3667
 1552SOL     OW 6278   1.811   1.694   2.710 -0.5370  0.3569 -0.6032
 1552SOL    HW2 6279   1.803   1.683   2.805 -0.2322  1.2588 -0.4728
 1552SOL    HW3 6280   1.738   1.643   2.674 -0.5589 -0.1253  0.0995
 1552SOL    MW4 6281   1.800   1.686   2.718 -0.4997  0.4122 -0.4933
 1553SOL     OW 6282   1.725   1.943   2.611 -0.4472 -0.1186  0.2453
 1553SOL    HW2 6283   1.805   1.982   2.646 -0.1585  1.2459 -1.7989
 1553SOL    HW3 6284   1.732   1.850   2.632  3.0664 -0.5436 -2.2587
 1553SOL    MW4 6285   1.737   1.936   2.618  0.0546  0.0055 -0.3545
 1554SOL     OW 6286   1.966   2.057   2.701 -0.3109 -0.1028  0.5755
 1554SOL    HW2 6287   1.981   2.041   2.794  1.4875  1.4024  0.5609
 1554SOL    HW3 6288   1.970   2.152   2.692 -1.6506 -0.1665 -0.8608
 1554SOL    MW4 6289   1.969   2.067   2.712 -0.2503  0.0877  0.3841
 1555SOL     OW 6290   2.009   2.323   2.641 -0.1894 -0.1302  0.0321
 1555SOL    HW2 6291   2.099   2.346   2.662 -0.2053 -0.7352  0.7699
 1555SOL    HW3 6292   2.009   2.308   2.547  0.1879  1.2160 -0.1892
 1555SOL    MW4 6293   2.021   2.324   2.631 -0.1416 -0.0324  0.1004
 1556SOL     OW 6294   1.773   2.432   2.716  0.1578  0.0535 -0.0575
 1556SOL    HW2 6295   1.781   2.452   2.809  0.0651  0.0243 -0.0441
 1556SOL    HW3 6296   1.860   2.400   2.692 -0.3474 -1.7474  0.4566
 1556SOL    MW4 6297   1.786   2.430   2.725  0.0789 -0.1879  0.0122
 1557SOL     OW 6298   1.750   2.700   2.607  0.2367  0.3745  0.1090
 1557SOL    HW2 6299   1.766   2.612   2.643 -0.8746  0.0681 -0.1321
 1557SOL    HW3 6300   1.759   2.690   2.513  0.2942  0.5545  0.0956
 1557SOL    MW4 6301   1.753   2.687   2.600  0.0978  0.3576  0.0756
 1558SOL     OW 6302   1.996   2.856   2.662 -0.0739 -0.2181  0.1152
 1558SOL    HW2 6303   2.065   2.797   2.631  1.2290  1.4870 -0.3299
 1558SOL    HW3 6304   1.915   2.811   2.639  0.8821 -1.3368 -1.2195
 1558SOL    MW4 6305   1.995   2.842   2.655  0.2244 -0.1404 -0.1197
 1559SOL     OW 6306   2.041   3.117   2.634  0.7442 -0.1533  0.3764
 1559SOL    HW2 6307   2.030   3.024   2.652  1.9671 -0.2102  0.8332
 1559SOL    HW3 6308   2.034   3.125   2.539  2.3948 -0.9540  0.1734
 1559SOL    MW4 6309   2.038   3.106   2.624  1.1232 -0.2663  0.4098
 1560SOL     OW 6310   1.783   3.184   2.695  0.2915  0.0727 -0.5170
 1560SOL    HW2 6311   1.790   3.277   2.674  0.1857  0.0506 -0.6510
 1560SOL    HW3 6312   1.870   3.148   2.678  1.0781  0.6683  2.0632
 1560SOL    MW4 6313   1.795   3.191   2.690  0.3812  0.1485 -0.1941
 1561SOL     OW 6314   1.773   3.451   2.627 -0.0075  0.3046 -0.3057
 1561SOL    HW2 6315   1.846   3.507   2.654 -0.6470  1.1032 -0.2037
 1561SOL    HW3 6316   1.784   3.440   2.533  1.6669 -1.6695  0.0892
 1561SOL    MW4 6317   1.784   3.457   2.619  0.1291  0.1493 -0.2403
 1562SOL     OW 6318   2.002   3.591   2.735 -0.3990 -0.2340 -0.3785
 1562SOL    HW2 6319   2.007   3.571   2.829  0.0117  1.0133 -0.1198
 1562SOL    HW3 6320   2.075   3.541   2.697 -1.1060 -1.4459 -0.1747
 1562SOL    MW4 6321   2.013   3.582   2.743 -0.4380 -0.2294 -0.3176
 1563SOL     OW 6322   2.000   3.871   2.634 -0.3780  0.3403 -0.3873
 1563SOL    HW2 6323   1.924   3.920   2.665  0.6472  0.8765  1.3832
 1563SOL    HW3 6324   1.982   3.780   2.656 -0.5918  0.4374 -0.1713
 1563SOL    MW4 6325   1.988   3.866   2.641 -0.2711  0.4239 -0.1254
 1564SOL     OW 6326   1.783   4.023   2.755  0.3817 -0.2112  0.1465
 1564SOL    HW2 6327   1.777   4.107   2.709  0.3728 -1.1867 -1.7008
 1564SOL    HW3 6328   1.710   3.971   2.720  0.4694 -1.0331  1.1584
 1564SOL    MW4 6329   1.772   4.027   2.744  0.3921 -0.4482  0.0360
 1565SOL     OW 6330   1.762   4.284   2.609  0.1185 -0.4458 -0.1902
 1565SOL    HW2 6331   1.706   4.342   2.660  0.8344 -0.0996  0.1897
 1565SOL    HW3 6332   1.768   4.326   2.523 -1.1469 -1.0677 -0.6037
 1565SOL    MW4 6333   1.755   4.297   2.604  0.0460 -0.4826 -0.1945
 1566SOL     OW 6334   2.026   4.361   2.703  0.1631 -0.5544  0.0651
 1566SOL    HW2 6335   1.939   4.326   2.685 -0.0309  0.8910 -1.9681
 1566SOL    HW3 6336   2.020   4.454   2.681  1.6338  0.0460  2.0327
 1566SOL    MW4 6337   2.014   4.368   2.698  0.3316 -0.2847  0.0565
 1567SOL     OW 6338   2.459   4.619   2.584  0.5332 -0.0339  0.0393
 1567SOL    HW2 6339   2.537   4.659   2.621 -0.6610  0.8455  1.6884
 1567SOL    HW3 6340   2.456   4.651   2.494  1.6533  0.5383  0.2028
 1567SOL    MW4 6341   2.469   4.629   2.577  0.5236  0.1574  0.2785
 1568SOL     OW 6342   2.236   0.092   2.690  0.1534 -0.3060 -0.0875
 1568SOL    HW2 6343   2.236   0.092   2.785 -1.2764 -1.0397 -0.0762
 1568SOL    HW3 6344   2.308   0.034   2.665  1.5716  1.1580  0.5166
 1568SOL    MW4 6345   2.245   0.085   2.699  0.1521 -0.2096 -0.0064
 1569SOL     OW 6346   2.237   0.356   2.645  0.0985 -0.4592 -0.3612
 1569SOL    HW2 6347   2.267   0.265   2.648  0.3065 -0.4820 -2.2931
 1569SOL    HW3 6348   2.221   0.373   2.552 -0.1612  1.4172 -0.0024
 1569SOL    MW4 6349   2.239   0.346   2.633  0.0916 -0.2147 -0.5686
 1570SOL     OW 6350   2.506   0.466   2.724 -0.0573 -0.3214 -0.7052
 1570SOL    HW2 6351   2.496   0.557   2.696  0.7518  0.0856  0.2918
 1570SOL    HW3 6352   2.421   0.426   2.706 -0.7608  0.9029 -0.1482
 1570SOL    MW4 6353   2.494   0.473   2.718 -0.0434 -0.1062 -0.5004
 1571SOL     OW 6354   2.498   0.750   2.639  0.3663 -0.0021 -0.1718
 1571SOL    HW2 6355   2.410   0.779   2.663  0.6521  0.0808  0.7841
 1571SOL    HW3 6356   2.499   0.752   2.543 -0.5587  0.3295 -0.1739
 1571SOL    MW4 6357   2.487   0.754   2.629  0.2820  0.0526 -0.0463
 1572SOL     OW 6358   2.260   0.852   2.746  0.4627 -0.1171 -0.6044
 1572SOL    HW2 6359   2.249   0.852   2.841  1.3866 -0.4597 -0.4895
 1572SOL    HW3 6360   2.184   0.805   2.713  0.1863 -0.0773 -0.0268
 1572SOL    MW4 6361   2.248   0.846   2.755  0.5484 -0.1572 -0.5131
 1573SOL     OW 6362   2.245   1.119   2.628  0.1208 -0.7189 -0.4240
 1573SOL    HW2 6363   2.232   1.028   2.655 -0.3438 -0.3837  0.4902
 1573SOL    HW3 6364   2.233   1.117   2.533 -2.1382 -1.2331 -0.1648
 1573SOL    MW4 6365   2.242   1.107   2.619 -0.2384 -0.7424 -0.2689
 1574SOL     OW 6366   2.473   1.247   2.748 -0.3676  0.0510  0.3289
 1574SOL    HW2 6367   2.549   1.229   2.694 -1.1177  1.1406 -1.1511
 1574SOL    HW3 6368   2.402   1.197   2.707 -0.4141 -1.0623  1.7680
 1574SOL    MW4 6369   2.473   1.238   2.735 -0.4725  0.0478  0.3238
 1575SOL     OW 6370   2.481   1.516   2.633  0.0929 -0.0847 -0.5082
 1575SOL    HW2 6371   2.410   1.571   2.666 -0.6111 -0.6214 -1.1043
 1575SOL    HW3 6372   2.464   1.430   2.673 -0.2801 -0.5196 -1.5994
 1575SOL    MW4 6373   2.470   1.512   2.643 -0.0494 -0.2128 -0.7308
 1576SOL     OW 6374   2.269   1.675   2.716  0.2455 -0.2546  0.1593
 1576SOL    HW2 6375   2.270   1.767   2.689 -0.4418 -0.1217  0.5587
 1576SOL    HW3 6376   2.183   1.643   2.689 -0.0987 -0.3653  1.3381
 1576SOL    MW4 6377   2.258   1.683   2.709  0.1094 -0.2517  0.3674
 1577SOL     OW 6378   2.232   1.947   2.655 -0.1074 -0.1585 -0.2263
 1577SOL    HW2 6379   2.140   1.970   2.672 -0.3491 -0.8578 -0.5534
 1577SOL    HW3 6380   2.241   1.949   2.560  0.0107 -0.8375 -0.2349
 1577SOL    MW4 6381   2.221   1.950   2.645 -0.1233 -0.3403 -0.2706
 1578SOL     OW 6382   2.470   2.030   2.714  0.9008  0.5106  0.1810
 1578SOL    HW2 6383   2.469   2.123   2.689  0.0884  1.0656  2.1190
 1578SOL    HW3 6384   2.380   2.001   2.701  1.2078 -0.0637 -0.6351
 1578SOL    MW4 6385   2.458   2.039   2.709  0.8342  0.5081  0.3288
 1579SOL     OW 6386   2.469   2.284   2.630  0.0148 -0.3404  0.8645
 1579SOL    HW2 6387   2.545   2.340   2.647  0.6932 -1.0013  0.0988
 1579SOL    HW3 6388   2.459   2.286   2.534 -0.8675 -0.3501  0.9486
 1579SOL    MW4 6389   2.478   2.292   2.619 -0.0122 -0.4289  0.7744
 1580SOL     OW 6390   2.252   2.436   2.714 -0.0659 -0.3841 -0.0100
 1580SOL    HW2 6391   2.251   2.426   2.810 -1.3098 -0.0647  0.0211
 1580SOL    HW3 6392   2.334   2.395   2.687  1.7899  2.1836  1.4748
 1580SOL    MW4 6393   2.263   2.430   2.723  0.0145 -0.0031  0.1898
 1581SOL     OW 6394   2.235   2.692   2.638 -0.0080 -0.5280  0.3535
 1581SOL    HW2 6395   2.306   2.740   2.682  1.2220 -1.6948 -0.3278
 1581SOL    HW3 6396   2.243   2.603   2.671  0.2191 -1.1585 -1.3673
 1581SOL    MW4 6397   2.245   2.687   2.648  0.1841 -0.7651  0.0365
 1582SOL     OW 6398   2.477   2.828   2.731  0.7092 -0.2658  0.0418
 1582SOL    HW2 6399   2.551   2.776   2.698  1.4739 -0.0646  1.4092
 1582SOL    HW3 6400   2.494   2.917   2.697  1.3583 -0.1135  0.7588
 1582SOL    MW4 6401   2.489   2.833   2.722  0.8955 -0.2189  0.3169
 1583SOL     OW 6402   2.470   3.087   2.620  0.1293  0.1939  0.0991
 1583SOL    HW2 6403   2.403   3.153   2.640 -0.5230 -0.4761  0.1402
 1583SOL    HW3 6404   2.477   3.088   2.524  0.2333  0.4287  0.1085
 1583SOL    MW4 6405   2.462   3.096   2.610  0.0570  0.1366  0.1059
 1584SOL     OW 6406   2.266   3.250   2.707  0.0863  0.0584 -0.3525
 1584SOL    HW2 6407   2.265   3.229   2.800 -1.9533  1.2877 -0.0844
 1584SOL    HW3 6408   2.186   3.212   2.672  1.5880 -1.7827 -1.9647
 1584SOL    MW4 6409   2.256   3.243   2.714  0.0153 -0.0224 -0.5300
 1585SOL     OW 6410   2.222   3.481   2.590 -0.7461  0.1227 -0.2716
 1585SOL    HW2 6411   2.304   3.526   2.610 -0.7818 -0.6012  1.5487
 1585SOL    HW3 6412   2.232   3.394   2.629 -3.0247  0.5823  1.4058
 1585SOL    MW4 6413   2.234   3.475   2.598 -1.0514  0.0880  0.1898
 1586SOL     OW 6414   2.441   3.604   2.675  0.5008 -0.8625  0.2383
 1586SOL    HW2 6415   2.421   3.603   2.768 -0.5539  0.1157  0.0332
 1586SOL    HW3 6416   2.444   3.697   2.652  0.1063 -1.1022 -0.8256
 1586SOL    MW4 6417   2.438   3.616   2.684  0.3097 -0.7651  0.0706
 1587SOL     OW 6418   2.470   3.871   2.607 -0.2165  0.1013 -0.0590
 1587SOL    HW2 6419   2.538   3.924   2.651  1.1153 -2.7696  1.5141
 1587SOL    HW3 6420   2.388   3.900   2.647  0.4136  1.4556  0.2871
 1587SOL    MW4 6421   2.468   3.882   2.618  0.0424 -0.0987  0.1943
 1588SOL     OW 6422   2.238   3.961   2.713 -0.2222 -0.7178 -0.1807
 1588SOL    HW2 6423   2.246   3.961   2.809 -2.7365  1.8776  0.1029
 1588SOL    HW3 6424   2.151   3.923   2.697 -0.1836 -0.3012 -1.3768
 1588SOL    MW4 6425   2.227   3.956   2.724 -0.5486 -0.3204 -0.3011
 1589SOL     OW 6426   2.243   4.235   2.566 -0.5560  0.6133  0.3510
 1589SOL    HW2 6427   2.240   4.149   2.607  0.6441  0.3149 -0.1667
 1589SOL    HW3 6428   2.168   4.282   2.603 -1.9348 -1.0477 -0.2699
 1589SOL    MW4 6429   2.232   4.230   2.576 -0.5796  0.3548  0.2007
 1590SOL     OW 6430   2.450   4.363   2.690  0.1469 -0.1614 -0.3806
 1590SOL    HW2 6431   2.384   4.317   2.639  1.2169 -1.6250 -0.4903
 1590SOL    HW3 6432   2.452   4.451   2.654 -1.1898 -0.3258 -0.8872
 1590SOL    MW4 6433   2.442   4.368   2.679  0.1116 -0.3762 -0.4621
 1591SOL     OW 6434   2.914   4.585   2.618 -0.0091  0.0783 -0.2151
 1591SOL    HW2 6435   2.995   4.628   2.645  0.6511 -0.5105 -1.2373
 1591SOL    HW3 6436   2.915   4.590   2.522 -0.5174 -1.1399 -0.2911
 1591SOL    MW4 6437   2.925   4.592   2.609  0.0105 -0.1602 -0.3600
 1592SOL     OW 6438   2.686   0.087   2.695  0.0399 -0.0425  0.0539
 1592SOL    HW2 6439   2.688   0.099   2.790  1.3145 -0.2139  0.0533
 1592SOL    HW3 6440   2.763   0.034   2.676 -0.9408 -1.1336 -0.9266
 1592SOL    MW4 6441   2.697   0.082   2.705  0.0787 -0.2091 -0.0761
 1593SOL     OW 6442   2.729   0.336   2.614  0.0468 -0.0720 -0.4878
 1593SOL    HW2 6443   2.726   0.243   2.637 -1.6811  0.1746  0.3851
 1593SOL    HW3 6444   2.661   0.376   2.669  0.6648  1.6783 -0.9749
 1593SOL    MW4 6445   2.719   0.329   2.625 -0.0999  0.1915 -0.4368
 1594SOL     OW 6446   2.921   0.515   2.702  0.2085 -0.3246 -0.3134
 1594SOL    HW2 6447   2.914   0.596   2.651 -3.1245  0.1171  0.6852
 1594SOL    HW3 6448   2.846   0.462   2.673 -0.2121 -1.1678  2.1776
 1594SOL    MW4 6449   2.910   0.519   2.692 -0.2868 -0.3775  0.1469
 1595SOL     OW 6450   2.902   0.787   2.577 -0.1518  0.1293 -0.8732
 1595SOL    HW2 6451   2.990   0.807   2.608 -0.5362  0.4039  0.0651
 1595SOL    HW3 6452   2.844   0.825   2.643 -0.9944  1.0324 -2.1081
 1595SOL    MW4 6453   2.906   0.795   2.590 -0.3140  0.2847 -0.9124
 1596SOL     OW 6454   2.701   0.914   2.730 -0.2162  0.4216  0.5593
 1596SOL    HW2 6455   2.706   0.897   2.824  0.1936 -1.2990  0.2525
 1596SOL    HW3 6456   2.625   0.864   2.700 -0.0326  0.5344 -0.1068
 1596SOL    MW4 6457   2.692   0.905   2.738 -0.1380  0.2093  0.4313
 1597SOL     OW 6458   2.706   1.186   2.627  0.0813 -0.2406  0.3106
 1597SOL    HW2 6459   2.792   1.221   2.651  1.6101 -1.8963 -2.4695
 1597SOL    HW3 6460   2.700   1.103   2.675  0.1837 -0.3152  0.1921
 1597SOL    MW4 6461   2.717   1.180   2.637  0.2966 -0.4690 -0.0718
 1598SOL     OW 6462   2.953   1.277   2.748  0.5873  0.2504 -0.1695
 1598SOL    HW2 6463   2.949   1.270   2.843  0.6140  1.9894 -0.0219
 1598SOL    HW3 6464   3.020   1.213   2.722  0.0398 -0.7882  0.8928
 1598SOL    MW4 6465   2.961   1.268   2.757  0.5183  0.3428 -0.0100
 1599SOL     OW 6466   2.973   1.526   2.646 -0.1632 -0.4103  0.2827
 1599SOL    HW2 6467   2.892   1.574   2.667 -0.1561 -0.5706  0.6871
 1599SOL    HW3 6468   2.964   1.444   2.693 -0.0365 -0.6833 -0.1675
 1599SOL    MW4 6469   2.961   1.522   2.655 -0.1457 -0.4675  0.2768
 1600SOL     OW 6470   2.726   1.636   2.702  0.0198 -0.2982  0.2697
 1600SOL    HW2 6471   2.728   1.633   2.797 -0.8305  1.9660  0.3762
 1600SOL    HW3 6472   2.638   1.605   2.679 -0.3470  0.7094  0.3017
 1600SOL    MW4 6473   2.714   1.631   2.711 -0.1407  0.1334  0.2878
 1601SOL     OW 6474   2.716   1.920   2.608 -0.1857 -0.3764 -0.1152
 1601SOL    HW2 6475   2.717   1.842   2.664 -0.7351 -0.3582 -0.0741
 1601SOL    HW3 6476   2.637   1.968   2.635 -0.0449  0.0129 -0.3863
 1601SOL    MW4 6477   2.706   1.916   2.619 -0.2396 -0.3227 -0.1454
 1602SOL     OW 6478   2.932   2.051   2.715 -0.2794  0.0561 -0.0496
 1602SOL    HW2 6479   2.906   2.140   2.690 -1.3160  0.1308  1.2185
 1602SOL    HW3 6480   2.868   1.995   2.672 -0.3917  0.0092  0.1778
 1602SOL    MW4 6481   2.920   2.056   2.706 -0.4311  0.0596  0.1476
 1603SOL     OW 6482   2.909   2.298   2.619 -0.0241  0.0828  0.3770
 1603SOL    HW2 6483   2.990   2.342   2.644 -0.0154 -0.3217  1.0623
 1603SOL    HW3 6484   2.840   2.352   2.657 -0.0534  0.0472  0.3738
 1603SOL    MW4 6485   2.911   2.311   2.627 -0.0267  0.0246  0.4671
 1604SOL     OW 6486   2.691   2.430   2.711 -0.0408 -0.6641 -0.7717
 1604SOL    HW2 6487   2.693   2.435   2.806  0.4198 -1.1871 -0.7539
 1604SOL    HW3 6488   2.689   2.521   2.682 -0.5561 -0.5094 -0.2548
 1604SOL    MW4 6489   2.691   2.442   2.720 -0.0482 -0.7126 -0.7014
 1605SOL     OW 6490   2.698   2.680   2.609 -0.0718 -0.0133 -0.5950
 1605SOL    HW2 6491   2.781   2.727   2.621  0.1082 -0.6173  0.7122
 1605SOL    HW3 6492   2.691   2.665   2.515  0.7808  0.9913 -0.8190
 1605SOL    MW4 6493   2.708   2.684   2.599  0.0641  0.0396 -0.4523
 1606SOL     OW 6494   2.911   2.834   2.696 -0.4319 -0.1524  0.3162
 1606SOL    HW2 6495   2.893   2.842   2.790 -0.2908 -0.7457  0.3924
 1606SOL    HW3 6496   2.907   2.924   2.664  1.3649  0.2640  1.2093
 1606SOL    MW4 6497   2.908   2.847   2.705 -0.1760 -0.1757  0.4437
 1607SOL     OW 6498   2.926   3.093   2.627  0.1991  0.0279 -0.2398
 1607SOL    HW2 6499   2.851   3.148   2.649 -1.2010 -2.1123  0.5442
 1607SOL    HW3 6500   2.925   3.088   2.532 -1.0290 -0.4664 -0.2092
 1607SOL    MW4 6501   2.916   3.099   2.617 -0.1476 -0.3200 -0.1321
 1608SOL     OW 6502   2.694   3.213   2.723 -0.2522  0.1674 -0.3707
 1608SOL    HW2 6503   2.661   3.295   2.685 -0.4659  0.5632  0.6596
 1608SOL    HW3 6504   2.627   3.149   2.702 -0.1308  0.2738 -1.1019
 1608SOL    MW4 6505   2.681   3.216   2.715 -0.2646  0.2337 -0.3316
 1609SOL     OW 6506   2.668   3.464   2.611 -0.1265  0.3577 -0.3620
 1609SOL    HW2 6507   2.600   3.525   2.642 -0.2546 -0.3509  0.8132
 1609SOL    HW3 6508   2.666   3.472   2.516 -1.6301  0.6101 -0.3308
 1609SOL    MW4 6509   2.659   3.473   2.603 -0.3419  0.2973 -0.2027
 1610SOL     OW 6510   2.905   3.580   2.672  0.2682 -0.4427 -0.3161
 1610SOL    HW2 6511   2.919   3.571   2.767  1.0625 -0.3190 -0.4196
 1610SOL    HW3 6512   2.821   3.536   2.656  0.7982 -1.6592  0.2376
 1610SOL    MW4 6513   2.896   3.573   2.683  0.4430 -0.5870 -0.2565
 1611SOL     OW 6514   2.899   3.858   2.654 -0.1245 -0.5170  0.1196
 1611SOL    HW2 6515   2.987   3.891   2.673 -0.6784  0.7383  0.5797
 1611SOL    HW3 6516   2.904   3.765   2.674  0.6331 -0.1247  1.8740
 1611SOL    MW4 6517   2.912   3.850   2.659 -0.0978 -0.2997  0.4115
 1612SOL     OW 6518   2.674   3.987   2.728 -0.2303  0.0064 -0.0059
 1612SOL    HW2 6519   2.682   4.070   2.681 -0.5141  1.3713  2.2715
 1612SOL    HW3 6520   2.754   3.939   2.706  0.0369  0.9473 -1.1662
 1612SOL    MW4 6521   2.686   3.992   2.719 -0.2325  0.3107  0.1414
 1613SOL     OW 6522   2.701   4.248   2.614 -0.0434 -0.1665  0.4180
 1613SOL    HW2 6523   2.773   4.285   2.665 -0.2039 -1.3440  1.5486
 1613SOL    HW3 6524   2.622   4.289   2.651  0.0021  0.8387 -0.5659
 1613SOL    MW4 6525   2.700   4.258   2.626 -0.0587 -0.1893  0.4373
 1614SOL     OW 6526   2.913   4.352   2.752 -0.0447 -0.0610  0.1072
 1614SOL    HW2 6527   2.923   4.368   2.846 -2.1166 -0.3919  0.3951
 1614SOL    HW3 6528   2.899   4.439   2.715 -0.2890 -0.0449  0.2383
 1614SOL    MW4 6529   2.913   4.366   2.760 -0.3502 -0.1025  0.1624
 1615SOL     OW 6530   3.343   4.619   2.600  0.0875 -0.4404 -0.2038
 1615SOL    HW2 6531   3.351   4.528   2.628 -0.0150 -0.5179 -0.4310
 1615SOL    HW3 6532   3.261   4.649   2.639  0.2585 -0.3624  0.1004
 1615SOL    MW4 6533   3.333   4.611   2.609  0.0966 -0.4401 -0.1936
 1616SOL     OW 6534   3.128   0.082   2.691  0.1080  0.1694 -0.2952
 1616SOL    HW2 6535   3.132   0.081   2.787 -0.6830 -0.0414 -0.2573
 1616SOL    HW3 6536   3.130   0.175   2.668 -1.3467  0.2925  0.0152
 1616SOL    MW4 6537   3.129   0.094   2.701 -0.1881  0.1579 -0.2494
 1617SOL     OW 6538   3.128   0.353   2.621 -0.1015 -0.1748 -0.1994
 1617SOL    HW2 6539   3.056   0.403   2.659 -0.2932 -1.3814  1.0558
 1617SOL    HW3 6540   3.102   0.339   2.530 -1.9435 -1.4474  0.4907
 1617SOL    MW4 6541   3.115   0.358   2.614 -0.3698 -0.5019  0.0572
 1618SOL     OW 6542   3.363   0.478   2.761 -0.1831 -0.5037  0.1267
 1618SOL    HW2 6543   3.360   0.568   2.729  0.8899 -0.6877 -0.4992
 1618SOL    HW3 6544   3.289   0.435   2.719 -1.2908  0.3181  1.1822
 1618SOL    MW4 6545   3.353   0.484   2.752 -0.1876 -0.4196  0.1836
 1619SOL     OW 6546   3.384   0.716   2.628  0.2306  0.7830 -0.0357
 1619SOL    HW2 6547   3.442   0.790   2.646  1.0759  0.3314 -0.8918
 1619SOL    HW3 6548   3.375   0.714   2.533 -1.2248  0.8681  0.0805
 1619SOL    MW4 6549   3.390   0.725   2.618  0.1502  0.7347 -0.1333
 1620SOL     OW 6550   3.147   0.857   2.702 -0.1690  0.4691 -0.1763
 1620SOL    HW2 6551   3.139   0.857   2.798  0.4369  0.5588 -0.1230
 1620SOL    HW3 6552   3.229   0.810   2.686 -1.7243 -2.1359 -0.7780
 1620SOL    MW4 6553   3.157   0.851   2.713 -0.2942  0.1373 -0.2487
 1621SOL     OW 6554   3.158   1.118   2.651 -0.0976 -0.3024 -0.4680
 1621SOL    HW2 6555   3.163   1.026   2.679  1.2024 -0.3218 -0.7617
 1621SOL    HW3 6556   3.127   1.113   2.560  1.0026 -0.5020 -0.8324
 1621SOL    MW4 6557   3.155   1.105   2.643  0.2189 -0.3313 -0.5548
 1622SOL     OW 6558   3.380   1.290   2.768 -0.2572  0.4686 -0.3023
 1622SOL    HW2 6559   3.396   1.280   2.862  0.0785  0.6451 -0.3386
 1622SOL    HW3 6560   3.297   1.246   2.753 -0.6889  1.0858  0.2088
 1622SOL    MW4 6561   3.371   1.283   2.778 -0.2699  0.5733 -0.2398
 1623SOL     OW 6562   3.359   1.512   2.604 -0.0126  0.2198 -0.2234
 1623SOL    HW2 6563   3.293   1.565   2.649 -0.6454  0.3584 -1.2903
 1623SOL    HW3 6564   3.376   1.439   2.664 -0.8106  0.4178  0.2579
 1623SOL    MW4 6565   3.352   1.509   2.618 -0.2015  0.2643 -0.3006
 1624SOL     OW 6566   3.190   1.690   2.709  0.2761  0.1456  0.0922
 1624SOL    HW2 6567   3.168   1.776   2.674 -0.2793  0.2884  0.7796
 1624SOL    HW3 6568   3.124   1.632   2.672 -0.8121  0.4375  1.5285
 1624SOL    MW4 6569   3.178   1.694   2.700  0.0591  0.2030  0.3722
 1625SOL     OW 6570   3.175   1.965   2.599 -0.0140 -0.3013 -0.0871
 1625SOL    HW2 6571   3.253   1.992   2.648 -1.5658 -1.9265  3.4913
 1625SOL    HW3 6572   3.102   2.007   2.645 -1.3863 -0.1340 -2.3632
 1625SOL    MW4 6573   3.176   1.974   2.612 -0.3998 -0.4936  0.0846
 1626SOL     OW 6574   3.384   2.038   2.783 -0.4181 -0.4290 -0.7635
 1626SOL    HW2 6575   3.357   2.046   2.874  2.4446 -0.0973  0.0837
 1626SOL    HW3 6576   3.387   2.128   2.751  0.5402 -0.3836 -0.5717
 1626SOL    MW4 6577   3.381   2.051   2.790  0.0858 -0.3796 -0.6263
 1627SOL     OW 6578   3.355   2.295   2.669  0.8008  0.2620  0.0775
 1627SOL    HW2 6579   3.425   2.359   2.683  0.2626  0.9495 -0.2750
 1627SOL    HW3 6580   3.348   2.289   2.574  0.3227  0.2619  0.1138
 1627SOL    MW4 6581   3.363   2.303   2.658  0.6669  0.3526  0.0358
 1628SOL     OW 6582   3.113   2.458   2.716  0.3476  0.4718  0.1988
 1628SOL    HW2 6583   3.129   2.545   2.680  0.9248  0.3488  0.1534
 1628SOL    HW3 6584   3.193   2.409   2.698 -0.2122 -0.2672 -0.3564
 1628SOL    MW4 6585   3.126   2.463   2.709  0.3500  0.3581  0.1197
 1629SOL     OW 6586   3.144   2.726   2.598 -0.2136  0.1058  0.2897
 1629SOL    HW2 6587   3.220   2.777   2.624 -0.3183  0.2928  0.2273
 1629SOL    HW3 6588   3.069   2.782   2.616 -0.1547  1.4166 -3.1243
 1629SOL    MW4 6589   3.144   2.740   2.603 -0.2196  0.3035 -0.1690
 1630SOL     OW 6590   3.369   2.821   2.741  0.3260  0.2094  0.4568
 1630SOL    HW2 6591   3.387   2.817   2.835  1.4569 -0.1197  0.2262
 1630SOL    HW3 6592   3.447   2.784   2.699  0.6973  2.1954 -0.6962
 1630SOL    MW4 6593   3.382   2.816   2.748  0.5245  0.4280  0.2744
 1631SOL     OW 6594   3.353   3.085   2.682 -0.1473  0.0741 -0.3811
 1631SOL    HW2 6595   3.348   2.992   2.705 -1.4810  0.0819 -0.6132
 1631SOL    HW3 6596   3.375   3.086   2.589  1.9836  0.0186  0.1010
 1631SOL    MW4 6597   3.355   3.073   2.673 -0.0422  0.0679 -0.3479
 1632SOL     OW 6598   3.126   3.240   2.772  0.1088 -0.0777  0.0331
 1632SOL    HW2 6599   3.198   3.179   2.755 -0.5126 -1.3432  1.8084
 1632SOL    HW3 6600   3.048   3.193   2.742 -0.1018  0.8720 -0.9271
 1632SOL    MW4 6601   3.125   3.226   2.766 -0.0010 -0.1192  0.1404
 1633SOL     OW 6602   3.165   3.487   2.639  0.2161  0.0552  0.5769
 1633SOL    HW2 6603   3.156   3.402   2.683  0.9049  0.1504  0.8967
 1633SOL    HW3 6604   3.077   3.525   2.644  0.0330 -0.4023  0.9211
 1633SOL    MW4 6605   3.152   3.481   2.646  0.2828  0.0074  0.6645
 1634SOL     OW 6606   3.370   3.652   2.751 -0.4872 -0.4866 -0.3112
 1634SOL    HW2 6607   3.374   3.641   2.846 -0.0343 -0.8573 -0.3715
 1634SOL    HW3 6608   3.301   3.593   2.723  0.2259 -1.3116 -0.3484
 1634SOL    MW4 6609   3.361   3.643   2.760 -0.3333 -0.6447 -0.3240
 1635SOL     OW 6610   3.384   3.884   2.617 -0.6065 -0.0233  0.4520
 1635SOL    HW2 6611   3.388   3.798   2.659  1.8627 -0.0535  0.2160
 1635SOL    HW3 6612   3.337   3.869   2.535 -1.0333 -0.9529  0.8676
 1635SOL    MW4 6613   3.379   3.871   2.612 -0.3371 -0.1500  0.4759
 1636SOL     OW 6614   3.140   3.974   2.724 -0.1803 -0.0489  0.0601
 1636SOL    HW2 6615   3.133   4.064   2.692 -0.8781 -0.2876 -0.4626
 1636SOL    HW3 6616   3.226   3.945   2.693  0.1381  0.5107  0.4140
 1636SOL    MW4 6617   3.151   3.982   2.716 -0.2303 -0.0064  0.0377
 1637SOL     OW 6618   3.131   4.245   2.640  0.4257 -0.1194  0.1877
 1637SOL    HW2 6619   3.045   4.274   2.671  0.1900  0.1305 -0.6729
 1637SOL    HW3 6620   3.120   4.237   2.545  1.4338  0.1747  0.0402
 1637SOL    MW4 6621   3.118   4.248   2.632  0.5276 -0.0477  0.0548
 1638SOL     OW 6622   3.379   4.361   2.709  0.1339 -0.0980 -0.5552
 1638SOL    HW2 6623   3.381   4.379   2.802  0.5462 -0.7332 -0.4397
 1638SOL    HW3 6624   3.294   4.320   2.694 -0.6538  1.5890 -0.7570
 1638SOL    MW4 6625   3.368   4.358   2.719  0.0842  0.0410 -0.5665
 1639SOL     OW 6626   3.814   4.636   2.650 -0.2202 -0.2159  0.3436
 1639SOL    HW2 6627   3.825   4.553   2.696  0.4830  0.8340  2.1618
 1639SOL    HW3 6628   3.737   4.676   2.691  0.1604  0.5579  0.3079
 1639SOL    MW4 6629   3.805   4.631   2.662 -0.0772  0.0243  0.5789
 1640SOL     OW 6630   3.576   0.081   2.733  0.4902  0.4546  0.4269
 1640SOL    HW2 6631   3.577   0.167   2.691  0.6572 -0.7378 -2.1185
 1640SOL    HW3 6632   3.499   0.037   2.696  1.2522 -1.0355  0.5439
 1640SOL    MW4 6633   3.566   0.086   2.723  0.6127  0.1006  0.1066
 1641SOL     OW 6634   3.615   0.359   2.638  0.1148  0.0722 -0.1138
 1641SOL    HW2 6635   3.693   0.401   2.673 -0.5175  0.2298  1.1240
 1641SOL    HW3 6636   3.542   0.405   2.679 -0.6044 -2.4159  1.5430
 1641SOL    MW4 6637   3.615   0.370   2.648 -0.0632 -0.2353  0.2682
 1642SOL     OW 6638   3.824   0.530   2.703  0.2811 -0.4456 -0.4698
 1642SOL    HW2 6639   3.817   0.554   2.795  0.2469  0.0438 -0.6003
 1642SOL    HW3 6640   3.908   0.484   2.696  1.0472  0.9293 -0.5085
 1642SOL    MW4 6641   3.834   0.527   2.714  0.3777 -0.1997 -0.4919
 1643SOL     OW 6642   3.828   0.782   2.607 -0.2043  0.1949  0.7156
 1643SOL    HW2 6643   3.769   0.812   2.676 -0.0730  0.4533  0.7178
 1643SOL    HW3 6644   3.838   0.688   2.623 -2.1078 -0.2336 -0.4055
 1643SOL    MW4 6645   3.822   0.774   2.618 -0.4382  0.1724  0.5677
 1644SOL     OW 6646   3.595   0.890   2.722  0.6615 -0.0354 -0.5026
 1644SOL    HW2 6647   3.574   0.891   2.815  1.0843  0.6786 -0.4070
 1644SOL    HW3 6648   3.599   0.983   2.697  1.5674 -0.1962 -0.9918
 1644SOL    MW4 6649   3.593   0.903   2.731  0.8366  0.0376 -0.5548
 1645SOL     OW 6650   3.600   1.151   2.630 -0.5391 -0.0563 -0.0653
 1645SOL    HW2 6651   3.680   1.191   2.665 -0.4735  0.1201 -0.4134
 1645SOL    HW3 6652   3.529   1.191   2.681 -0.4251  0.0010  0.0477
 1645SOL    MW4 6653   3.601   1.162   2.642 -0.5155 -0.0255 -0.0966
 1646SOL     OW 6654   3.817   1.270   2.729  0.1288  0.4519  0.1078
 1646SOL    HW2 6655   3.885   1.231   2.675 -0.3043  1.5604 -1.2800
 1646SOL    HW3 6656   3.814   1.361   2.701  0.1286  1.1410  2.2680
 1646SOL    MW4 6657   3.825   1.277   2.718  0.0715  0.6891  0.2096
 1647SOL     OW 6658   3.797   1.521   2.621 -0.3748  0.2496 -0.4090
 1647SOL    HW2 6659   3.869   1.567   2.665 -0.2627  1.2864 -1.6688
 1647SOL    HW3 6660   3.718   1.559   2.657 -0.2853  0.4975 -0.4747
 1647SOL    MW4 6661   3.796   1.532   2.632 -0.3486  0.4191 -0.5839
 1648SOL     OW 6662   3.563   1.642   2.754  0.0073  0.3079  0.3119
 1648SOL    HW2 6663   3.578   1.724   2.708 -0.0967 -0.7251 -1.5993
 1648SOL    HW3 6664   3.490   1.601   2.707 -0.3236 -0.6127  1.6118
 1648SOL    MW4 6665   3.555   1.647   2.742 -0.0501  0.0502  0.2315
 1649SOL     OW 6666   3.611   1.889   2.645 -0.3682 -0.0318  0.3167
 1649SOL    HW2 6667   3.539   1.944   2.677 -0.2307  0.5845 -0.3961
 1649SOL    HW3 6668   3.690   1.929   2.681 -0.3385 -0.3233  0.5718
 1649SOL    MW4 6669   3.612   1.902   2.654 -0.3462  0.0111  0.2563
 1650SOL     OW 6670   3.827   2.040   2.738  0.0305  0.2804  0.0284
 1650SOL    HW2 6671   3.904   1.988   2.716  0.4668  0.5901  0.8021
 1650SOL    HW3 6672   3.819   2.030   2.833 -1.5978 -0.7524 -0.1914
 1650SOL    MW4 6673   3.836   2.032   2.748 -0.1264  0.1848  0.1013
 1651SOL     OW 6674   3.812   2.294   2.661  0.7787  0.3116 -0.7821
 1651SOL    HW2 6675   3.837   2.207   2.692  0.6708  0.0051 -1.5582
 1651SOL    HW3 6676   3.815   2.288   2.566  0.4269  1.0591 -0.8463
 1651SOL    MW4 6677   3.816   2.282   2.653  0.7181  0.3700 -0.8929
 1652SOL     OW 6678   3.583   2.440   2.727 -0.3640 -0.0524  0.2267
 1652SOL    HW2 6679   3.607   2.447   2.820 -0.9239  0.8541  0.3029
 1652SOL    HW3 6680   3.655   2.390   2.688 -0.0587 -0.3315  1.1245
 1652SOL    MW4 6681   3.596   2.434   2.734 -0.3977  0.0303  0.3550
 1653SOL     OW 6682   3.606   2.696   2.640 -0.3956 -0.5512 -0.3675
 1653SOL    HW2 6683   3.598   2.607   2.673 -0.5722 -0.7535 -0.9509
 1653SOL    HW3 6684   3.588   2.689   2.546 -0.1072  0.0489 -0.4706
 1653SOL    MW4 6685   3.602   2.684   2.632 -0.3810 -0.4988 -0.4582
 1654SOL     OW 6686   3.821   2.824   2.763  0.8348 -0.3357  0.6449
 1654SOL    HW2 6687   3.899   2.777   2.733  0.7874  0.8172 -1.4134
 1654SOL    HW3 6688   3.748   2.780   2.720  0.4789 -0.4766  1.3813
 1654SOL    MW4 6689   3.822   2.812   2.753  0.7815 -0.2022  0.4704
 1655SOL     OW 6690   3.785   3.072   2.631  0.0247  0.0281  0.0044
 1655SOL    HW2 6691   3.718   3.127   2.671  0.6985  1.5724 -0.9453
 1655SOL    HW3 6692   3.786   2.993   2.684 -0.1818  1.3920  2.0917
 1655SOL    MW4 6693   3.776   3.069   2.643  0.0863  0.4120  0.1545
 1656SOL     OW 6694   3.591   3.233   2.757 -0.3473 -0.0759  0.2822
 1656SOL    HW2 6695   3.586   3.327   2.745 -0.6330 -0.0729  0.4116
 1656SOL    HW3 6696   3.500   3.203   2.751 -0.1055 -0.5425 -1.3509
 1656SOL    MW4 6697   3.578   3.241   2.755 -0.3531 -0.1369  0.0842
 1657SOL     OW 6698   3.571   3.496   2.641 -0.0288 -0.3040  0.2170
 1657SOL    HW2 6699   3.651   3.535   2.677  0.4036  0.6510 -1.7203
 1657SOL    HW3 6700   3.500   3.541   2.687  0.5231 -0.4571  1.2365
 1657SOL    MW4 6701   3.572   3.507   2.652  0.1013 -0.1984  0.0961
 1658SOL     OW 6702   3.804   3.582   2.748 -0.2491  0.0196 -0.3445
 1658SOL    HW2 6703   3.875   3.545   2.694 -0.1536 -0.6449  0.2339
 1658SOL    HW3 6704   3.807   3.676   2.729  0.4835 -0.0652 -0.6861
 1658SOL    MW4 6705   3.814   3.589   2.738 -0.1402 -0.0789 -0.3135
 1659SOL     OW 6706   3.816   3.855   2.639 -0.2183 -0.0720 -0.3684
 1659SOL    HW2 6707   3.893   3.909   2.657 -0.2502 -0.2533  0.3193
 1659SOL    HW3 6708   3.742   3.905   2.674 -0.4098  0.0629 -0.9511
 1659SOL    MW4 6709   3.816   3.869   2.646 -0.2480 -0.0787 -0.3545
 1660SOL     OW 6710   3.598   4.023   2.731 -0.2832 -0.2275  0.0779
 1660SOL    HW2 6711   3.592   4.115   2.708 -0.0719 -0.0797  0.6023
 1660SOL    HW3 6712   3.519   3.983   2.693 -0.0365  0.0440 -0.7127
 1660SOL    MW4 6713   3.587   4.030   2.723 -0.2229 -0.1721  0.0427
 1661SOL     OW 6714   3.622   4.271   2.612 -0.3431  0.2511 -0.0036
 1661SOL    HW2 6715   3.541   4.308   2.647  0.6351  2.4126  0.1049
 1661SOL    HW3 6716   3.602   4.250   2.521 -0.4664  2.7382 -0.5891
 1661SOL    MW4 6717   3.609   4.273   2.604 -0.2301  0.8645 -0.0665
 1662SOL     OW 6718   3.858   4.387   2.751 -0.0209 -0.4031  0.2575
 1662SOL    HW2 6719   3.938   4.340   2.725 -0.1688  0.9773 -2.9677
 1662SOL    HW3 6720   3.787   4.341   2.706 -0.5813  0.6639  0.0284
 1662SOL    MW4 6721   3.859   4.374   2.741 -0.1142 -0.0801 -0.1984
 1663SOL     OW 6722   4.270   4.646   2.622 -0.5966  0.1065  0.0729
 1663SOL    HW2 6723   4.186   4.683   2.650 -0.8282 -1.1187  1.0774
 1663SOL    HW3 6724   4.336   4.702   2.664 -0.9292  0.1769  0.5072
 1663SOL    MW4 6725   4.268   4.658   2.632 -0.6714 -0.0458  0.2627
 1664SOL     OW 6726   4.053   0.079   2.750 -0.2696  0.0642 -0.2169
 1664SOL    HW2 6727   4.044   0.083   2.845 -1.4116  0.0720 -0.3236
 1664SOL    HW3 6728   3.969   0.047   2.719  0.1101  0.0291 -1.2267
 1664SOL    MW4 6729   4.041   0.075   2.758 -0.3705  0.0606 -0.3641
 1665SOL     OW 6730   4.029   0.346   2.673 -0.3761  0.0327 -0.1924
 1665SOL    HW2 6731   4.055   0.259   2.705 -0.5542  0.1495  0.2640
 1665SOL    HW3 6732   4.032   0.337   2.578 -0.4488 -0.4932 -0.1495
 1665SOL    MW4 6733   4.033   0.333   2.665 -0.4091 -0.0213 -0.1268
 1666SOL     OW 6734   4.249   0.515   2.745 -0.2581 -0.1619 -0.2773
 1666SOL    HW2 6735   4.171   0.465   2.721 -0.7883  1.5506 -2.4071
 1666SOL    HW3 6736   4.322   0.464   2.710 -0.7345  0.1577 -1.7760
 1666SOL    MW4 6737   4.248   0.502   2.737 -0.3901  0.1062 -0.7560
 1667SOL     OW 6738   4.252   0.760   2.611 -0.2330  0.2697 -0.4662
 1667SOL    HW2 6739   4.246   0.678   2.660  0.9748  0.5322  0.1309
 1667SOL    HW3 6740   4.261   0.733   2.520 -0.7150 -0.2444 -0.3641
 1667SOL    MW4 6741   4.253   0.746   2.605 -0.1373  0.2365 -0.3741
 1668SOL     OW 6742   4.039   0.909   2.725 -0.4317 -0.3490 -0.1214
 1668SOL    HW2 6743   4.117   0.876   2.681  0.6372  1.0998  0.6279
 1668SOL    HW3 6744   3.966   0.869   2.678  0.7320 -0.5681 -1.7882
 1668SOL    MW4 6745   4.040   0.900   2.713 -0.1369 -0.1867 -0.2427
 1669SOL     OW 6746   4.035   1.139   2.589  0.7052 -0.5874 -0.4435
 1669SOL    HW2 6747   4.108   1.188   2.629 -1.8211  1.6289  1.6838
 1669SOL    HW3 6748   4.032   1.057   2.639  0.4825  0.2026  0.8854
 1669SOL    MW4 6749   4.045   1.135   2.601  0.3424 -0.1907  0.0124
 1670SOL     OW 6750   4.235   1.256   2.734  0.6196 -0.4975 -0.0127
 1670SOL    HW2 6751   4.246   1.348   2.714 -0.6035 -1.1034 -3.9356
 1670SOL    HW3 6752   4.324   1.220   2.734  1.1857  0.7868  2.5312
 1670SOL    MW4 6753   4.248   1.263   2.731  0.5326 -0.4079 -0.1948
 1671SOL     OW 6754   4.287   1.519   2.677 -0.3184  0.0397 -0.8213
 1671SOL    HW2 6755   4.364   1.562   2.714  0.9600 -2.2857 -0.7222
 1671SOL    HW3 6756   4.292   1.535   2.583  0.5693 -0.5592 -0.8750
 1671SOL    MW4 6757   4.298   1.527   2.670 -0.0329 -0.3461 -0.8156
 1672SOL     OW 6758   4.045   1.648   2.723 -0.1949  0.1020 -0.1129
 1672SOL    HW2 6759   4.039   1.655   2.819 -2.1000  0.7362 -0.2545
 1672SOL    HW3 6760   4.129   1.606   2.707  0.0677 -0.1638  1.8547
 1672SOL    MW4 6761   4.055   1.644   2.734 -0.4110  0.1507  0.1280
 1673SOL     OW 6762   4.050   1.906   2.630  0.0442 -0.1836  0.0241
 1673SOL    HW2 6763   4.107   1.961   2.684  0.4775 -1.1489  0.5601
 1673SOL    HW3 6764   4.047   1.822   2.675  1.3461 -1.3974 -2.0467
 1673SOL    MW4 6765   4.057   1.902   2.643  0.2728 -0.4711 -0.1783
 1674SOL     OW 6766   4.227   2.041   2.771  0.5943 -0.1553 -0.0302
 1674SOL    HW2 6767   4.239   2.131   2.742 -0.1968 -0.1349 -0.3186
 1674SOL    HW3 6768   4.302   1.994   2.737 -1.3288 -0.5602 -3.9679
 1674SOL    MW4 6769   4.238   2.047   2.763  0.2360 -0.2060 -0.5877
 1675SOL     OW 6770   4.244   2.291   2.631 -0.0067 -0.7844 -0.2860
 1675SOL    HW2 6771   4.172   2.344   2.667  1.5759  1.6218 -0.5098
 1675SOL    HW3 6772   4.224   2.285   2.538 -0.4717 -1.0212 -0.1727
 1675SOL    MW4 6773   4.232   2.297   2.624  0.1411 -0.4983 -0.3004
 1676SOL     OW 6774   4.033   2.443   2.720  0.5691  0.0282  0.0862
 1676SOL    HW2 6775   4.032   2.452   2.816 -1.9342  2.0313 -0.0942
 1676SOL    HW3 6776   3.963   2.380   2.702  0.2536  0.5457 -0.4945
 1676SOL    MW4 6777   4.024   2.436   2.730  0.1974  0.3610 -0.0143
 1677SOL     OW 6778   4.047   2.710   2.626  0.0325  0.1270 -0.6196
 1677SOL    HW2 6779   4.124   2.756   2.661 -0.8624  1.4442 -0.3383
 1677SOL    HW3 6780   4.046   2.626   2.671 -0.3070  1.2448  1.4978
 1677SOL    MW4 6781   4.057   2.705   2.636 -0.1302  0.4482 -0.3030
 1678SOL     OW 6782   4.268   2.843   2.741  0.0801  0.3370  0.0787
 1678SOL    HW2 6783   4.270   2.853   2.836  1.6629 -0.8361  0.1956
 1678SOL    HW3 6784   4.251   2.932   2.708  2.2468  1.2976  1.3974
 1678SOL    MW4 6785   4.266   2.856   2.749  0.5746  0.3088  0.2680
 1679SOL     OW 6786   4.242   3.101   2.672  0.5112 -0.2409 -0.2873
 1679SOL    HW2 6787   4.160   3.147   2.688  0.8219 -0.0748  0.8786
 1679SOL    HW3 6788   4.245   3.089   2.577  0.6287  2.4744 -0.6467
 1679SOL    MW4 6789   4.231   3.105   2.661  0.5679  0.1395 -0.1807
 1680SOL     OW 6790   3.991   3.225   2.693  0.5332  0.2101  0.2866
 1680SOL    HW2 6791   4.000   3.231   2.789  0.5985 -1.0557  0.3719
 1680SOL    HW3 6792   3.919   3.163   2.680  1.2208 -0.4353 -0.4802
 1680SOL    MW4 6793   3.983   3.217   2.704  0.6328 -0.0420  0.1965
 1681SOL     OW 6794   4.002   3.471   2.596  0.0490 -0.3537  0.0971
 1681SOL    HW2 6795   4.068   3.502   2.658  0.6246 -0.8822 -0.2550
 1681SOL    HW3 6796   3.991   3.378   2.617 -1.6163  0.0524  1.0936
 1681SOL    MW4 6797   4.009   3.463   2.607 -0.0949 -0.3698  0.1822
 1682SOL     OW 6798   4.232   3.577   2.748  0.1921 -0.5408 -0.3366
 1682SOL    HW2 6799   4.229   3.566   2.843  3.5465  0.6504 -0.0265
 1682SOL    HW3 6800   4.321   3.553   2.723 -0.0608  0.9919 -2.9424
 1682SOL    MW4 6801   4.243   3.572   2.757  0.6013 -0.1817 -0.6397
 1683SOL     OW 6802   4.251   3.829   2.637  0.1276 -0.3518 -0.2245
 1683SOL    HW2 6803   4.233   3.751   2.688 -0.7763  0.5030  0.7772
 1683SOL    HW3 6804   4.336   3.860   2.670 -0.4072  0.1443  0.6964
 1683SOL    MW4 6805   4.260   3.823   2.648 -0.0625 -0.1736  0.0291
 1684SOL     OW 6806   4.041   4.006   2.682 -0.3477  0.2428 -0.4663
 1684SOL    HW2 6807   4.046   4.017   2.777 -0.7374  1.7614 -0.6055
 1684SOL    HW3 6808   4.109   3.942   2.662  0.8436  1.1112  0.6616
 1684SOL    MW4 6809   4.051   3.999   2.692 -0.2422  0.5574 -0.3359
 1685SOL     OW 6810   4.065   4.275   2.616 -0.4205  0.2899  0.3573
 1685SOL    HW2 6811   4.069   4.182   2.639 -0.1741  0.2050 -0.0230
 1685SOL    HW3 6812   4.042   4.275   2.523 -0.8763  0.6178  0.4710
 1685SOL    MW4 6813   4.062   4.263   2.607 -0.4487  0.3223  0.3223
 1686SOL     OW 6814   4.267   4.408   2.748 -0.0177 -0.1380 -0.2594
 1686SOL    HW2 6815   4.194   4.368   2.701 -0.4438  0.4832 -0.1371
 1686SOL    HW3 6816   4.276   4.495   2.710 -1.1113  0.8100  1.5434
 1686SOL    MW4 6817   4.258   4.414   2.737 -0.2179  0.0691 -0.0055
 1687SOL     OW 6818   0.217   4.658   3.130  0.6715 -0.1209 -0.4773
 1687SOL    HW2 6819   0.216   4.651   3.225  0.5259  0.0741 -0.4651
 1687SOL    HW3 6820   0.138   4.707   3.108  0.6586 -0.2438 -0.7042
 1687SOL    MW4 6821   0.207   4.664   3.139  0.6506 -0.1111 -0.5057
 1688SOL     OW 6822   4.467   0.100   3.048 -0.2641  0.4058  0.2108
 1688SOL    HW2 6823   4.382   0.073   3.082  0.7531 -1.1456  1.6422
 1688SOL    HW3 6824   4.474   0.192   3.071 -1.2101  0.3266  0.8533
 1688SOL    MW4 6825   4.457   0.108   3.056 -0.2546  0.1906  0.4845
 1689SOL     OW 6826   0.025   0.359   3.118 -0.3013 -0.2929  0.5851
 1689SOL    HW2 6827   0.029   0.362   3.214 -0.5060  1.9828  0.5458
 1689SOL    HW3 6828  -0.061   0.395   3.096 -0.8509 -2.1416 -0.4316
 1689SOL    MW4 6829   0.014   0.364   3.128 -0.4008 -0.2365  0.4461
 1690SOL     OW 6830   0.210   0.499   2.986  0.1919 -0.0116  0.2389
 1690SOL    HW2 6831   0.284   0.466   3.038 -0.5044 -0.5225  0.9132
 1690SOL    HW3 6832   0.135   0.447   3.015 -0.5191  0.7948 -0.1357
 1690SOL    MW4 6833   0.210   0.488   2.997  0.0062  0.0274  0.2782
 1691SOL     OW 6834   0.227   0.746   3.078 -0.2217  0.0590 -0.0400
 1691SOL    HW2 6835   0.230   0.731   3.172 -0.9182 -0.6007 -0.1179
 1691SOL    HW3 6836   0.216   0.659   3.040 -0.5949  0.3864 -0.6908
 1691SOL    MW4 6837   0.226   0.732   3.085 -0.3629  0.0151 -0.1361
 1692SOL     OW 6838   0.001   0.904   3.033  0.5305  0.4141 -0.1922
 1692SOL    HW2 6839   0.078   0.851   3.054 -0.3084 -0.3470  1.0516
 1692SOL    HW3 6840  -0.006   0.901   2.938  0.9220 -1.1291 -0.1780
 1692SOL    MW4 6841   0.010   0.897   3.023  0.4716  0.1100 -0.0260
 1693SOL     OW 6842   4.447   1.163   3.116  0.5427 -0.4134  0.4741
 1693SOL    HW2 6843   4.362   1.177   3.073  0.2792 -0.1871  1.0547
 1693SOL    HW3 6844   4.473   1.075   3.090  0.5089 -0.1909 -0.3461
 1693SOL    MW4 6845   4.439   1.153   3.107  0.5031 -0.3542  0.4423
 1694SOL     OW 6846   0.228   1.271   3.061  0.4827  0.0170 -0.3592
 1694SOL    HW2 6847   0.148   1.233   3.097  0.4806 -0.3123 -0.6988
 1694SOL    HW3 6848   0.208   1.287   2.969  0.6562  0.3622 -0.3386
 1694SOL    MW4 6849   0.215   1.268   3.054  0.5053  0.0191 -0.4015
 1695SOL     OW 6850   0.263   1.549   3.123 -0.2543 -0.2716  0.5471
 1695SOL    HW2 6851   0.187   1.598   3.090 -0.5222 -0.9110  0.2148
 1695SOL    HW3 6852   0.243   1.458   3.104  1.0110 -0.3612 -0.3732
 1695SOL    MW4 6853   0.250   1.544   3.116 -0.1227 -0.3678  0.3819
 1696SOL     OW 6854   4.488   1.679   3.051 -0.0019  0.5855  0.0944
 1696SOL    HW2 6855   4.409   1.630   3.074  1.6722 -1.0903  2.5495
 1696SOL    HW3 6856   4.471   1.768   3.081 -1.6068  0.6396 -0.9289
 1696SOL    MW4 6857   4.475   1.684   3.058  0.0072  0.3716  0.2832
 1697SOL     OW 6858   4.475   1.942   3.141  0.1027  0.4307 -0.4549
 1697SOL    HW2 6859   4.394   1.988   3.120  1.0747  2.3345 -0.2024
 1697SOL    HW3 6860   4.543   1.987   3.091  1.1865 -0.3614  0.2519
 1697SOL    MW4 6861   4.473   1.954   3.132  0.3738  0.5776 -0.3283
 1698SOL     OW 6862   0.200   2.055   2.987 -0.8250 -0.4093  0.5296
 1698SOL    HW2 6863   0.207   2.147   3.013 -1.1287 -0.4339  0.7005
 1698SOL    HW3 6864   0.213   2.056   2.892  2.8585 -0.5985  0.9593
 1698SOL    MW4 6865   0.203   2.067   2.978 -0.3791 -0.4375  0.6087
 1699SOL     OW 6866   0.225   2.307   3.089 -0.1373  0.3597  0.4346
 1699SOL    HW2 6867   0.229   2.311   3.184 -0.5378  1.0803  0.4238
 1699SOL    HW3 6868   0.305   2.351   3.060 -0.0068  0.1247  0.4345
 1699SOL    MW4 6869   0.236   2.313   3.097 -0.1730  0.4237  0.4332
 1700SOL     OW 6870   0.013   2.458   2.984  0.3851  0.3687  0.1777
 1700SOL    HW2 6871   0.020   2.543   3.027 -2.5205  0.2399  1.0156
 1700SOL    HW3 6872   0.091   2.410   3.013  0.1408  1.4224  2.7843
 1700SOL    MW4 6873   0.024   2.463   2.994 -0.0305  0.4909  0.6320
 1701SOL     OW 6874   0.027   2.708   3.098 -0.0209 -0.6253 -0.1568
 1701SOL    HW2 6875   0.035   2.703   3.193 -2.1159  0.1033  0.0907
 1701SOL    HW3 6876   0.098   2.766   3.071  0.5600 -0.8008  0.9650
 1701SOL    MW4 6877   0.037   2.715   3.107 -0.2207 -0.5524  0.0241
 1702SOL     OW 6878   0.240   2.864   3.014 -0.0122 -0.0226 -0.4715
 1702SOL    HW2 6879   0.300   2.798   3.050  1.1464  1.3854  0.2287
 1702SOL    HW3 6880   0.220   2.833   2.926  1.0186 -0.9799 -0.3806
 1702SOL    MW4 6881   0.245   2.851   3.007  0.2767  0.0367 -0.3672
 1703SOL     OW 6882   0.240   3.147   3.099 -0.0141 -0.6330  0.2288
 1703SOL    HW2 6883   0.162   3.195   3.074 -0.9565 -0.7342  2.8592
 1703SOL    HW3 6884   0.226   3.058   3.065 -1.2188 -0.7512  1.0062
 1703SOL    MW4 6885   0.228   3.141   3.091 -0.2974 -0.6618  0.6785
 1704SOL     OW 6886   4.475   3.232   3.023 -0.3627 -0.5312  0.0141
 1704SOL    HW2 6887   4.391   3.195   3.048  0.6278 -2.7263  0.2505
 1704SOL    HW3 6888   4.473   3.237   2.928 -1.0149  0.0640  0.0600
 1704SOL    MW4 6889   4.464   3.228   3.014 -0.3181 -0.7424  0.0510
 1705SOL     OW 6890   0.011   3.487   3.108  0.1096  0.3307  0.3192
 1705SOL    HW2 6891  -0.062   3.538   3.073  1.6922  1.4202 -1.4681
 1705SOL    HW3 6892  -0.001   3.400   3.071 -1.1335  0.0690  1.2875
 1705SOL    MW4 6893  -0.000   3.482   3.098  0.1545  0.4399  0.2110
 1706SOL     OW 6894   0.248   3.601   3.024 -0.5550  0.1641 -0.2384
 1706SOL    HW2 6895   0.250   3.691   3.058 -1.8292 -0.2097  0.8776
 1706SOL    HW3 6896   0.163   3.567   3.051 -0.8208 -0.8052 -2.1723
 1706SOL    MW4 6897   0.237   3.609   3.032 -0.7582 -0.0134 -0.3464
 1707SOL     OW 6898   0.247   3.865   3.120  0.2020  0.2053  0.4014
 1707SOL    HW2 6899   0.251   3.880   3.215 -1.0273 -0.4370  0.5647
 1707SOL    HW3 6900   0.317   3.919   3.085 -1.0126  2.5381  1.4197
 1707SOL    MW4 6901   0.257   3.874   3.128 -0.1204  0.4287  0.5572
 1708SOL     OW 6902   0.027   4.052   3.029  0.3271 -0.5114 -0.0080
 1708SOL    HW2 6903   0.101   3.999   3.061  0.9103 -0.1092 -0.6820
 1708SOL    HW3 6904   0.023   4.034   2.936 -0.2132 -0.2587 -0.0353
 1708SOL    MW4 6905   0.036   4.042   3.021  0.3328 -0.4253 -0.1004
 1709SOL     OW 6906   4.452   4.320   3.121  0.5167  0.1713 -0.0887
 1709SOL    HW2 6907   4.465   4.319   3.216  0.6184 -1.6106 -0.1027
 1709SOL    HW3 6908   4.468   4.230   3.094 -2.8276 -0.1097 -1.3683
 1709SOL    MW4 6909   4.456   4.308   3.130  0.0887 -0.1011 -0.2592
 1710SOL     OW 6910   0.212   4.383   3.018 -0.0949  0.2375  0.1329
 1710SOL    HW2 6911   0.125   4.352   3.042 -0.6693  1.3299 -0.5031
 1710SOL    HW3 6912   0.218   4.470   3.058  0.4984  0.3792 -0.2607
 1710SOL    MW4 6913   0.201   4.391   3.026 -0.0924  0.4005 -0.0029
 1711SOL     OW 6914   0.684   0.011   3.122 -0.5136  0.4570  0.1828
 1711SOL    HW2 6915   0.676  -0.079   3.090  1.0048  0.3046  0.1738
 1711SOL    HW3 6916   0.603   0.054   3.095 -0.1972 -0.2554 -1.9797
 1711SOL    MW4 6917   0.673   0.005   3.114 -0.2715  0.3428 -0.1040
 1712SOL     OW 6918   0.450   0.151   3.053 -0.1096 -0.0449  0.2179
 1712SOL    HW2 6919   0.438   0.242   3.078  0.4082  0.1348 -0.1695
 1712SOL    HW3 6920   0.367   0.108   3.074 -0.5581  0.6421 -0.1483
 1712SOL    MW4 6921   0.438   0.157   3.059 -0.1004  0.0695  0.1183
 1713SOL     OW 6922   0.424   0.406   3.128 -0.3414  0.7069 -0.3050
 1713SOL    HW2 6923   0.439   0.409   3.223  0.8780 -1.0586 -0.4028
 1713SOL    HW3 6924   0.508   0.431   3.090 -0.0738 -0.9773 -0.8891
 1713SOL    MW4 6925   0.437   0.410   3.136 -0.1452  0.2518 -0.3953
 1714SOL     OW 6926   0.652   0.485   3.002  0.1645 -0.2647  0.3507
 1714SOL    HW2 6927   0.739   0.450   3.022  0.6835  0.4323 -0.6246
 1714SOL    HW3 6928   0.651   0.571   3.043  0.0298 -0.1658  0.1383
 1714SOL    MW4 6929   0.664   0.492   3.010  0.2152 -0.1597  0.1941
 1715SOL     OW 6930   0.648   0.750   3.096 -0.1668  0.4160 -0.5296
 1715SOL    HW2 6931   0.658   0.763   3.191 -1.8319  0.2218 -0.3151
 1715SOL    HW3 6932   0.569   0.799   3.074 -0.7328 -0.9232 -1.5255
 1715SOL    MW4 6933   0.639   0.758   3.106 -0.4610  0.2137 -0.6330
 1716SOL     OW 6934   0.442   0.909   3.008  0.4467  0.2563 -0.2271
 1716SOL    HW2 6935   0.369   0.854   3.039  1.3097 -0.5697  0.3587
 1716SOL    HW3 6936   0.431   0.912   2.913 -0.4208  0.2374 -0.1379
 1716SOL    MW4 6937   0.431   0.902   3.000  0.4461  0.1448 -0.1378
 1717SOL     OW 6938   0.474   1.155   3.141 -0.6819 -0.4335  0.3199
 1717SOL    HW2 6939   0.459   1.063   3.122 -0.2155 -0.4956  0.2486
 1717SOL    HW3 6940   0.395   1.199   3.111 -1.0610 -0.8566  0.7020
 1717SOL    MW4 6941   0.462   1.149   3.134 -0.6704 -0.4975  0.3607
 1718SOL     OW 6942   0.697   1.272   3.009  0.0636 -0.3333  0.2186
 1718SOL    HW2 6943   0.785   1.245   3.036  0.0780 -0.4149  0.0860
 1718SOL    HW3 6944   0.639   1.209   3.053  0.0559 -0.1206  0.5183
 1718SOL    MW4 6945   0.701   1.260   3.019  0.0645 -0.3160  0.2408
 1719SOL     OW 6946   0.702   1.537   3.114 -0.2924 -0.2139 -0.0658
 1719SOL    HW2 6947   0.687   1.539   3.208 -0.1562 -0.6451 -0.0320
 1719SOL    HW3 6948   0.687   1.445   3.089 -0.9073  0.0221 -0.5571
 1719SOL    MW4 6949   0.698   1.525   3.123 -0.3556 -0.2397 -0.1259
 1720SOL     OW 6950   0.462   1.691   3.027 -0.2998  0.0691  0.0722
 1720SOL    HW2 6951   0.538   1.640   3.055 -0.2038  0.2261  0.0956
 1720SOL    HW3 6952   0.387   1.640   3.058 -0.1956  0.2219  0.5806
 1720SOL    MW4 6953   0.462   1.677   3.035 -0.2734  0.1099  0.1423
 1721SOL     OW 6954   0.460   1.968   3.063  0.3325 -0.4335  0.1595
 1721SOL    HW2 6955   0.470   1.873   3.054  0.1502 -0.6584  2.1671
 1721SOL    HW3 6956   0.373   1.986   3.029  0.3825 -0.9750 -0.2683
 1721SOL    MW4 6957   0.450   1.958   3.057  0.3150 -0.5347  0.3681
 1722SOL     OW 6958   0.663   2.102   2.962  0.0843  0.0187  0.6196
 1722SOL    HW2 6959   0.725   2.040   3.000  1.0035  0.3504 -0.3251
 1722SOL    HW3 6960   0.577   2.064   2.980  0.5437 -0.3512  2.1072
 1722SOL    MW4 6961   0.660   2.089   2.970  0.2662  0.0138  0.6909
 1723SOL     OW 6962   0.708   2.342   3.112  0.3624 -0.0285  0.0534
 1723SOL    HW2 6963   0.697   2.324   3.205  1.7184 -0.0771  0.2116
 1723SOL    HW3 6964   0.687   2.259   3.069 -0.9898  0.2010  0.2612
 1723SOL    MW4 6965   0.704   2.329   3.118  0.3629 -0.0048  0.1018
 1724SOL     OW 6966   0.448   2.439   3.021 -0.1612 -0.0312  0.0493
 1724SOL    HW2 6967   0.537   2.406   3.030 -0.6641 -1.1280  0.9992
 1724SOL    HW3 6968   0.433   2.442   2.926  1.3796  1.5290 -0.1689
 1724SOL    MW4 6969   0.458   2.435   3.009 -0.0242  0.0298  0.1457
 1725SOL     OW 6970   0.422   2.690   3.140  0.0217 -0.0707 -0.2928
 1725SOL    HW2 6971   0.498   2.727   3.096 -0.0634  0.3803 -0.0673
 1725SOL    HW3 6972   0.415   2.601   3.107  0.8034 -0.1987 -0.1187
 1725SOL    MW4 6973   0.431   2.683   3.130  0.1136 -0.0279 -0.2401
 1726SOL     OW 6974   0.645   2.806   3.018  0.0842 -0.1612 -0.1479
 1726SOL    HW2 6975   0.728   2.771   3.049  0.8247 -0.0583 -1.9650
 1726SOL    HW3 6976   0.650   2.900   3.034  0.0498 -0.2427  0.3383
 1726SOL    MW4 6977   0.656   2.814   3.024  0.1774 -0.1583 -0.3233
 1727SOL     OW 6978   0.677   3.080   3.045 -0.2597 -0.0590 -0.1224
 1727SOL    HW2 6979   0.655   3.077   3.138  0.5221  0.8645  0.1011
 1727SOL    HW3 6980   0.612   3.139   3.007  0.4909  0.9651  0.1595
 1727SOL    MW4 6981   0.666   3.088   3.052 -0.0575  0.1981 -0.0556
 1728SOL     OW 6982   0.471   3.277   2.994  0.2845  0.3683  0.8372
 1728SOL    HW2 6983   0.492   3.355   3.045 -1.5142  1.1179  0.4411
 1728SOL    HW3 6984   0.386   3.249   3.026  0.7128 -1.1879  0.6570
 1728SOL    MW4 6985   0.463   3.283   3.005  0.1037  0.2618  0.7613
 1729SOL     OW 6986   0.484   3.517   3.164  0.5951 -0.1070 -0.1895
 1729SOL    HW2 6987   0.472   3.517   3.259 -0.1704  0.3824 -0.2872
 1729SOL    HW3 6988   0.405   3.558   3.129  1.3525  0.7172 -0.9765
 1729SOL    MW4 6989   0.472   3.522   3.172  0.5940  0.0663 -0.3061
 1730SOL     OW 6990   0.687   3.643   3.030  0.0886 -0.3265 -0.1516
 1730SOL    HW2 6991   0.757   3.589   3.067  0.2154  0.3706  0.6503
 1730SOL    HW3 6992   0.606   3.598   3.055  0.2360 -0.8726 -0.6574
 1730SOL    MW4 6993   0.685   3.630   3.038  0.1247 -0.3064 -0.1125
 1731SOL     OW 6994   0.679   3.902   3.138  0.1809  0.0873  0.6793
 1731SOL    HW2 6995   0.672   3.887   3.232 -2.0754 -2.6040  0.1362
 1731SOL    HW3 6996   0.697   3.815   3.101 -1.6317  0.6326 -1.5978
 1731SOL    MW4 6997   0.681   3.888   3.145 -0.3560 -0.1960  0.3071
 1732SOL     OW 6998   0.462   4.026   3.047 -0.2655 -0.0265  0.3936
 1732SOL    HW2 6999   0.542   3.991   3.087 -1.7557 -2.6682  1.1684
 1732SOL    HW3 7000   0.475   4.014   2.953  1.1908  1.6673  0.3580
 1732SOL    MW4 7001   0.475   4.020   3.040 -0.2699 -0.1512  0.4911
 1733SOL     OW 7002   0.438   4.305   3.116  0.0136 -0.4804 -0.8416
 1733SOL    HW2 7003   0.424   4.210   3.111 -0.7801 -0.3216 -1.9184
 1733SOL    HW3 7004   0.362   4.342   3.071  0.5318  0.6536 -0.7843
 1733SOL    MW4 7005   0.426   4.297   3.109 -0.0228 -0.3099 -0.9761
 1734SOL     OW 7006   0.675   4.416   3.030 -0.1330  0.1031 -0.2421
 1734SOL    HW2 7007   0.593   4.385   3.068  1.2238 -1.5173  1.4753
 1734SOL    HW3 7008   0.672   4.388   2.939 -0.8171 -1.3204  0.2123
 1734SOL    MW4 7009   0.664   4.408   3.023 -0.0442 -0.2985  0.0443
 1735SOL     OW 7010   1.130   4.643   3.127  0.0160  0.0916  0.0563
 1735SOL    HW2 7011   1.209   4.689   3.100  0.2794  1.0232  2.3420
 1735SOL    HW3 7012   1.060   4.681   3.073  0.9649 -0.2126 -1.4325
 1735SOL    MW4 7013   1.131   4.654   3.116  0.1760  0.1745  0.1616
 1736SOL     OW 7014   0.920   0.091   2.980 -0.1715 -0.3723 -0.0196
 1736SOL    HW2 7015   0.939   0.178   3.017  1.8908 -0.4353 -0.8822
 1736SOL    HW3 7016   0.841   0.062   3.027 -0.6243  1.7648  0.5999
 1736SOL    MW4 7017   0.912   0.099   2.991  0.0408 -0.0986 -0.0517
 1737SOL     OW 7018   0.894   0.364   3.061 -0.4768 -0.1135  0.1097
 1737SOL    HW2 7019   0.883   0.362   3.156 -1.9785 -0.3880 -0.0554
 1737SOL    HW3 7020   0.962   0.430   3.046  1.8784 -2.1407  1.5350
 1737SOL    MW4 7021   0.902   0.373   3.072 -0.3642 -0.4172  0.2756
 1738SOL     OW 7022   1.118   0.501   2.972 -0.5617  0.2073  0.2391
 1738SOL    HW2 7023   1.182   0.441   3.009  1.2713  2.1601  0.3497
 1738SOL    HW3 7024   1.130   0.494   2.877 -0.7476 -0.0167  0.2314
 1738SOL    MW4 7025   1.128   0.493   2.964 -0.3444  0.4354  0.2525
 1739SOL     OW 7026   1.102   0.747   3.081  0.1470 -0.1472 -0.3445
 1739SOL    HW2 7027   1.117   0.730   3.174  0.3692  0.1518 -0.3234
 1739SOL    HW3 7028   1.116   0.662   3.038 -0.0607 -0.3076 -0.0934
 1739SOL    MW4 7029   1.106   0.734   3.087  0.1489 -0.1289 -0.3085
 1740SOL     OW 7030   0.871   0.897   3.038  0.2936  0.2013  0.3427
 1740SOL    HW2 7031   0.946   0.843   3.063  0.5810 -0.3121 -1.5187
 1740SOL    HW3 7032   0.795   0.843   3.056  0.4653  0.0641  0.6497
 1740SOL    MW4 7033   0.871   0.883   3.044  0.3541  0.1154  0.1376
 1741SOL     OW 7034   0.910   1.161   3.113 -0.1043 -0.0846  0.2485
 1741SOL    HW2 7035   0.996   1.201   3.102 -0.0896  0.4547  2.1191
 1741SOL    HW3 7036   0.921   1.072   3.078  0.7364  0.5008 -1.0315
 1741SOL    MW4 7037   0.923   1.154   3.107  0.0086  0.0638  0.3264
 1742SOL     OW 7038   1.148   1.280   3.040  0.1328 -0.3659 -0.2397
 1742SOL    HW2 7039   1.200   1.203   3.066 -1.0068 -1.1353 -0.1968
 1742SOL    HW3 7040   1.150   1.278   2.944  0.8796  0.0886 -0.2356
 1742SOL    MW4 7041   1.155   1.269   3.031  0.0811 -0.4075 -0.2339
 1743SOL     OW 7042   1.145   1.540   3.152 -0.1964  0.5912  0.2222
 1743SOL    HW2 7043   1.202   1.583   3.089 -1.5877  1.1172 -0.6963
 1743SOL    HW3 7044   1.147   1.448   3.127 -1.2708  0.8948 -1.0261
 1743SOL    MW4 7045   1.153   1.534   3.141 -0.5218  0.7006 -0.0637
 1744SOL     OW 7046   0.936   1.676   3.024 -0.1979  0.1286  0.1903
 1744SOL    HW2 7047   0.992   1.619   3.077  0.1008  0.7434  0.5265
 1744SOL    HW3 7048   0.849   1.637   3.032 -0.1472  0.1965  1.0936
 1744SOL    MW4 7049   0.932   1.663   3.032 -0.1518  0.2187  0.3538
 1745SOL     OW 7050   0.857   1.946   3.075  0.1371  0.0854 -0.0177
 1745SOL    HW2 7051   0.849   1.963   3.169 -1.7299 -1.5721  0.1539
 1745SOL    HW3 7052   0.888   1.856   3.069 -1.3138 -0.3777 -0.9841
 1745SOL    MW4 7053   0.860   1.937   3.086 -0.3006 -0.1943 -0.1225
 1746SOL     OW 7054   1.094   2.082   3.017 -0.0312  0.1905  0.2989
 1746SOL    HW2 7055   1.005   2.051   3.035  0.6230 -1.0319  1.5875
 1746SOL    HW3 7056   1.095   2.098   2.923 -1.2853 -0.9061  0.0679
 1746SOL    MW4 7057   1.082   2.080   3.007 -0.1103 -0.1152  0.4387
 1747SOL     OW 7058   1.125   2.321   3.141  0.4360 -0.1676  0.0646
 1747SOL    HW2 7059   1.053   2.366   3.097  0.1382  0.4078  1.1180
 1747SOL    HW3 7060   1.118   2.230   3.113 -0.3319  0.0075 -0.3175
 1747SOL    MW4 7061   1.115   2.315   3.131  0.2954 -0.0684  0.1533
 1748SOL     OW 7062   0.929   2.491   3.001 -0.1238  0.2098 -0.5284
 1748SOL    HW2 7063   0.844   2.469   3.039  0.2865 -1.9818 -0.8087
 1748SOL    HW3 7064   0.918   2.477   2.907  0.8010 -1.0124 -0.4689
 1748SOL    MW4 7065   0.916   2.486   2.994  0.0523 -0.2410 -0.5579
 1749SOL     OW 7066   0.878   2.724   3.115 -0.1613 -0.3963 -0.4091
 1749SOL    HW2 7067   0.872   2.703   3.209  0.6911 -0.0069 -0.2635
 1749SOL    HW3 7068   0.917   2.645   3.076  0.7326 -0.0515 -0.2301
 1749SOL    MW4 7069   0.883   2.711   3.123  0.0692 -0.2995 -0.3662
 1750SOL     OW 7070   1.117   2.842   3.022  0.0966  0.4786  0.1089
 1750SOL    HW2 7071   1.123   2.932   3.055 -1.7884  0.2359  1.1854
 1750SOL    HW3 7072   1.047   2.802   3.074  2.1643 -2.1820  0.9288
 1750SOL    MW4 7073   1.108   2.849   3.033  0.1208  0.0954  0.3593
 1751SOL     OW 7074   1.120   3.090   3.147 -0.1910 -0.0696  0.2875
 1751SOL    HW2 7075   1.205   3.125   3.120  0.4725 -2.3804 -0.7529
 1751SOL    HW3 7076   1.056   3.151   3.112  1.0289  1.7600  1.1796
 1751SOL    MW4 7077   1.123   3.103   3.139  0.0575 -0.1328  0.2677
 1752SOL     OW 7078   0.909   3.218   3.030 -0.5693  0.1569 -0.0181
 1752SOL    HW2 7079   0.830   3.166   3.041  0.0408 -0.7587  0.0607
 1752SOL    HW3 7080   0.934   3.206   2.938  0.9498 -1.7009  0.6019
 1752SOL    MW4 7081   0.902   3.210   3.019 -0.2883 -0.2091  0.0741
 1753SOL     OW 7082   0.878   3.488   3.119 -0.0948 -0.3573  0.4693
 1753SOL    HW2 7083   0.959   3.522   3.081  0.0183 -0.3653  0.7046
 1753SOL    HW3 7084   0.876   3.396   3.092 -0.8072  0.0278 -0.8536
 1753SOL    MW4 7085   0.889   3.480   3.111 -0.1739 -0.3076  0.3259
 1754SOL     OW 7086   1.104   3.621   3.018  0.1517  0.2304  0.1764
 1754SOL    HW2 7087   1.189   3.589   3.050 -0.2154 -0.6898  0.2477
 1754SOL    HW3 7088   1.103   3.714   3.041  1.4603  0.4301 -0.4977
 1754SOL    MW4 7089   1.115   3.629   3.025  0.2759  0.1354  0.0968
 1755SOL     OW 7090   1.125   3.879   3.076 -0.0080  0.1646 -0.0525
 1755SOL    HW2 7091   1.136   3.891   3.171  1.6257  1.8438 -0.4273
 1755SOL    HW3 7092   1.045   3.927   3.055  0.1225  0.5522  0.3322
 1755SOL    MW4 7093   1.116   3.887   3.086  0.2247  0.4373 -0.0510
 1756SOL     OW 7094   0.890   4.044   3.006 -0.2315  0.3822 -0.0201
 1756SOL    HW2 7095   0.802   4.011   3.023 -0.7871  1.9147  0.1707
 1756SOL    HW3 7096   0.901   4.035   2.911 -0.7078  0.4235 -0.0837
 1756SOL    MW4 7097   0.880   4.039   2.996 -0.3676  0.5894 -0.0036
 1757SOL     OW 7098   0.920   4.290   3.133 -0.2812 -0.3203 -0.1469
 1757SOL    HW2 7099   0.901   4.199   3.110 -0.8154 -0.0585 -0.7475
 1757SOL    HW3 7100   0.839   4.337   3.115 -0.1538  0.1962  0.6216
 1757SOL    MW4 7101   0.907   4.284   3.127 -0.3348 -0.2174 -0.1247
 1758SOL     OW 7102   1.117   4.401   2.991 -0.2574  0.3483 -0.4135
 1758SOL    HW2 7103   1.049   4.366   3.048 -1.2591  1.7313 -0.7278
 1758SOL    HW3 7104   1.142   4.484   3.033  0.0299  0.6675 -1.2058
 1758SOL    MW4 7105   1.111   4.408   3.004 -0.3515  0.5732 -0.5598
 1759SOL     OW 7106   1.569   4.657   3.104  0.0387 -0.0159  0.1454
 1759SOL    HW2 7107   1.574   4.668   3.199 -2.9650 -0.2218  0.3714
 1759SOL    HW3 7108   1.494   4.710   3.078  1.0839  0.3537 -2.1809
 1759SOL    MW4 7109   1.560   4.665   3.113 -0.2198  0.0057 -0.1316
 1760SOL     OW 7110   1.351   0.112   3.022  0.0321 -0.0635 -0.1532
 1760SOL    HW2 7111   1.321   0.193   3.062 -0.8809 -0.6803  0.4484
 1760SOL    HW3 7112   1.318   0.116   2.932  0.9717  0.7396 -0.4633
 1760SOL    MW4 7113   1.342   0.123   3.015  0.0355 -0.0390 -0.1144
 1761SOL     OW 7114   1.296   0.356   3.115  0.2305 -0.1877 -0.2828
 1761SOL    HW2 7115   1.313   0.363   3.209 -1.1832 -0.5189  0.0093
 1761SOL    HW3 7116   1.376   0.388   3.074  0.8028  0.1125  1.0350
 1761SOL    MW4 7117   1.309   0.361   3.122  0.1196 -0.1918 -0.0703
 1762SOL     OW 7118   1.543   0.449   2.982 -0.5319 -0.5567  0.2004
 1762SOL    HW2 7119   1.536   0.540   3.013  0.3664 -0.5747  0.4772
 1762SOL    HW3 7120   1.562   0.458   2.888 -1.1873 -0.4741  0.0710
 1762SOL    MW4 7121   1.545   0.462   2.974 -0.4998 -0.5482  0.2198
 1763SOL     OW 7122   1.563   0.700   3.095  0.6403  0.1146 -0.0997
 1763SOL    HW2 7123   1.566   0.719   3.189  0.7494 -0.1769 -0.0461
 1763SOL    HW3 7124   1.483   0.744   3.065  1.1597  1.0851 -0.0673
 1763SOL    MW4 7125   1.553   0.708   3.104  0.7234  0.2041 -0.0887
 1764SOL     OW 7126   1.345   0.863   3.003 -0.4353 -0.0392 -0.0739
 1764SOL    HW2 7127   1.363   0.939   3.059  0.8842  0.1470 -0.7384
 1764SOL    HW3 7128   1.259   0.832   3.033 -1.2149  1.9904 -0.1123
 1764SOL    MW4 7129   1.336   0.869   3.015 -0.3642  0.2531 -0.1667
 1765SOL     OW 7130   1.358   1.110   3.136  0.0610  0.0729 -0.3259
 1765SOL    HW2 7131   1.347   1.131   3.229  1.5065  1.0710 -0.3787
 1765SOL    HW3 7132   1.416   1.178   3.102 -0.3144 -0.3917 -1.9250
 1765SOL    MW4 7133   1.364   1.122   3.144  0.2023  0.1432 -0.5438
 1766SOL     OW 7134   1.572   1.257   3.034 -0.0040 -0.0446  0.6930
 1766SOL    HW2 7135   1.647   1.205   3.063  0.6599  0.7644  0.4268
 1766SOL    HW3 7136   1.596   1.347   3.053 -0.1909  0.3753 -0.9730
 1766SOL    MW4 7137   1.585   1.262   3.040  0.0588  0.1175  0.4380
 1767SOL     OW 7138   1.591   1.537   3.083  0.5025 -0.1561 -0.0227
 1767SOL    HW2 7139   1.505   1.574   3.060  0.9483  0.9722  0.1145
 1767SOL    HW3 7140   1.594   1.541   3.179  0.1222 -1.5412  0.0592
 1767SOL    MW4 7141   1.580   1.543   3.093  0.5112 -0.1900  0.0064
 1768SOL     OW 7142   1.349   1.678   3.010 -0.3008  0.2351  0.5735
 1768SOL    HW2 7143   1.329   1.766   3.041  0.0697  0.4519  0.2103
 1768SOL    HW3 7144   1.376   1.690   2.919 -1.0851 -0.3572  0.2556
 1768SOL    MW4 7145   1.350   1.691   3.002 -0.3555  0.1857  0.4838
 1769SOL     OW 7146   1.321   1.950   3.100 -0.0058  0.3715 -0.6279
 1769SOL    HW2 7147   1.313   1.943   3.196  0.2341  1.9017 -0.4975
 1769SOL    HW3 7148   1.251   2.010   3.075  1.5264  1.9816 -1.1336
 1769SOL    MW4 7149   1.310   1.957   3.110  0.2279  0.7858 -0.6773
 1770SOL     OW 7150   1.568   2.050   3.006  0.1812  0.4195  0.3404
 1770SOL    HW2 7151   1.488   2.004   3.029  0.5834 -0.0483  0.8287
 1770SOL    HW3 7152   1.559   2.069   2.912 -0.9340  1.2589  0.6084
 1770SOL    MW4 7153   1.557   2.046   2.996  0.0873  0.4687  0.4401
 1771SOL     OW 7154   1.594   2.310   3.153 -0.1702 -0.0047 -0.0377
 1771SOL    HW2 7155   1.507   2.350   3.147  0.2526  0.8185 -0.7128
 1771SOL    HW3 7156   1.588   2.232   3.097  0.0400  0.9813 -1.4514
 1771SOL    MW4 7157   1.581   2.305   3.145 -0.0867  0.2341 -0.3138
 1772SOL     OW 7158   1.353   2.408   3.036  0.1045  0.0634 -0.2125
 1772SOL    HW2 7159   1.269   2.375   3.067  0.4627 -0.3817  0.3005
 1772SOL    HW3 7160   1.342   2.419   2.942 -0.9362  1.2475  0.0537
 1772SOL    MW4 7161   1.341   2.405   3.028  0.0143  0.1609 -0.1094
 1773SOL     OW 7162   1.336   2.677   3.122 -0.1602  0.5580 -0.6342
 1773SOL    HW2 7163   1.327   2.587   3.089 -0.5536  0.4700 -0.2996
 1773SOL    HW3 7164   1.259   2.723   3.087 -0.1685  0.6596 -0.4823
 1773SOL    MW4 7165   1.324   2.671   3.113 -0.2133  0.5600 -0.5701
 1774SOL     OW 7166   1.551   2.808   2.987 -0.2831 -0.0916 -0.7320
 1774SOL    HW2 7167   1.616   2.747   3.021 -2.0762 -1.2011  0.8536
 1774SOL    HW3 7168   1.468   2.778   3.025 -1.6647  1.5066 -2.3690
 1774SOL    MW4 7169   1.548   2.796   2.997 -0.7019 -0.0272 -0.7389
 1775SOL     OW 7170   1.590   3.098   3.057 -0.0855 -0.1785 -0.2223
 1775SOL    HW2 7171   1.586   3.110   3.152 -2.5984  1.8979 -0.5448
 1775SOL    HW3 7172   1.594   3.003   3.046 -2.5117 -0.6006  1.9497
 1775SOL    MW4 7173   1.590   3.087   3.068 -0.7372  0.0398  0.0217
 1776SOL     OW 7174   1.352   3.224   3.031 -0.3183 -0.5867  0.6072
 1776SOL    HW2 7175   1.434   3.184   3.060  0.8226  1.1650 -0.1298
 1776SOL    HW3 7176   1.362   3.233   2.936 -0.3399  1.8728  0.8261
 1776SOL    MW4 7177   1.364   3.220   3.022 -0.1706 -0.0310  0.5386
 1777SOL     OW 7178   1.329   3.492   3.112 -0.0772 -0.2436 -0.6078
 1777SOL    HW2 7179   1.337   3.482   3.207  1.0025  1.1636 -0.5354
 1777SOL    HW3 7180   1.327   3.402   3.079 -0.1782 -0.7446  0.7163
 1777SOL    MW4 7181   1.330   3.479   3.120  0.0519 -0.1242 -0.4237
 1778SOL     OW 7182   1.548   3.629   3.009  0.2873  0.2686 -0.4694
 1778SOL    HW2 7183   1.468   3.584   3.038  0.7031 -0.4083 -0.3759
 1778SOL    HW3 7184   1.544   3.625   2.914  0.2702  0.1292 -0.4631
 1778SOL    MW4 7185   1.537   3.623   3.000  0.3399  0.1612 -0.4563
 1779SOL     OW 7186   1.564   3.901   3.098  0.0210  0.6460  0.0932
 1779SOL    HW2 7187   1.653   3.937   3.088  0.0665  0.5891  0.2926
 1779SOL    HW3 7188   1.570   3.813   3.061  0.2346  0.3691  0.7832
 1779SOL    MW4 7189   1.577   3.894   3.092  0.0553  0.6020  0.2108
 1780SOL     OW 7190   1.349   4.015   2.978  0.0150 -0.0673 -0.6262
 1780SOL    HW2 7191   1.421   3.976   3.028  0.9891  3.0888  0.5332
 1780SOL    HW3 7192   1.270   3.986   3.024  0.7742  0.3512  0.9581
 1780SOL    MW4 7193   1.348   4.006   2.991  0.2437  0.4044 -0.2639
 1781SOL     OW 7194   1.340   4.275   3.089  0.0787  0.3251  0.0771
 1781SOL    HW2 7195   1.349   4.199   3.032 -0.0311 -0.9416  1.7057
 1781SOL    HW3 7196   1.261   4.319   3.057  0.2351 -0.1310 -0.9783
 1781SOL    MW4 7197   1.331   4.271   3.077  0.0849  0.0978  0.1526
 1782SOL     OW 7198   1.564   4.400   3.014 -0.0126 -0.0235  0.4152
 1782SOL    HW2 7199   1.484   4.356   3.043 -0.2519 -0.8630 -1.4827
 1782SOL    HW3 7200   1.560   4.486   3.057 -1.8544 -0.1103  0.4902
 1782SOL    MW4 7201   1.553   4.406   3.023 -0.2872 -0.1459  0.1748
 1783SOL     OW 7202   2.022   4.606   3.058 -0.3065  0.0025 -0.3628
 1783SOL    HW2 7203   2.054   4.601   3.148  1.0585  1.1341 -0.7641
 1783SOL    HW3 7204   1.961   4.680   3.058  0.3016  0.5114 -0.5328
 1783SOL    MW4 7205   2.018   4.615   3.070 -0.0460  0.2189 -0.4382
 1784SOL     OW 7206   1.815   0.109   3.039  0.3552 -0.2830 -0.3861
 1784SOL    HW2 7207   1.741   0.074   3.088  0.3455  0.8277  0.4107
 1784SOL    HW3 7208   1.791   0.099   2.947 -0.6577 -0.1973 -0.1317
 1784SOL    MW4 7209   1.802   0.103   3.033  0.2203 -0.1252 -0.2472
 1785SOL     OW 7210   1.798   0.375   3.100 -0.1788 -0.4772 -0.2527
 1785SOL    HW2 7211   1.802   0.285   3.071 -0.9035 -1.4676  2.5139
 1785SOL    HW3 7212   1.717   0.409   3.062 -1.0309 -1.6879  0.4378
 1785SOL    MW4 7213   1.788   0.368   3.091 -0.3868 -0.7676  0.2034
 1786SOL     OW 7214   2.041   0.511   3.021  0.2490  0.0569 -0.0815
 1786SOL    HW2 7215   1.965   0.456   3.042  0.5932 -0.8317 -1.1041
 1786SOL    HW3 7216   2.055   0.499   2.927  0.6414  1.5205 -0.2265
 1786SOL    MW4 7217   2.033   0.502   3.012  0.3462  0.1327 -0.2356
 1787SOL     OW 7218   2.002   0.755   3.144 -0.5310  0.4195 -0.1709
 1787SOL    HW2 7219   1.914   0.786   3.121 -0.7287 -0.1075 -0.1226
 1787SOL    HW3 7220   2.007   0.667   3.106  0.7345  1.2553 -1.9868
 1787SOL    MW4 7221   1.991   0.748   3.136 -0.3902  0.4603 -0.4041
 1788SOL     OW 7222   1.780   0.850   3.001 -0.4803  0.5817 -0.6169
 1788SOL    HW2 7223   1.715   0.783   3.019  0.2631 -0.3622 -1.3534
 1788SOL    HW3 7224   1.778   0.861   2.906  0.1955  0.7755 -0.6151
 1788SOL    MW4 7225   1.771   0.842   2.991 -0.2930  0.4827 -0.7138
 1789SOL     OW 7226   1.794   1.097   3.110  0.4173 -0.2346 -0.4293
 1789SOL    HW2 7227   1.776   1.088   3.203 -0.4490  0.8918 -0.4757
 1789SOL    HW3 7228   1.807   1.007   3.079  1.1185 -0.5752  0.8465
 1789SOL    MW4 7229   1.793   1.084   3.118  0.3954 -0.1309 -0.2670
 1790SOL     OW 7230   2.035   1.195   3.036  0.2897  0.5871 -0.1941
 1790SOL    HW2 7231   2.033   1.290   3.050 -0.0752  0.8336 -1.8133
 1790SOL    HW3 7232   1.952   1.164   3.072 -0.4042  1.1321 -1.3145
 1790SOL    MW4 7233   2.024   1.204   3.043  0.1502  0.6917 -0.5555
 1791SOL     OW 7234   2.034   1.500   3.056  0.2193 -0.0935  0.2965
 1791SOL    HW2 7235   2.047   1.513   3.150  0.6276 -0.4705  0.2963
 1791SOL    HW3 7236   1.966   1.563   3.032 -0.3005 -0.4070  0.9550
 1791SOL    MW4 7237   2.027   1.510   3.065  0.2046 -0.1845  0.3836
 1792SOL     OW 7238   1.824   1.668   2.998  0.1607  0.3190 -0.2036
 1792SOL    HW2 7239   1.823   1.754   3.040  0.9043  0.9313 -1.3965
 1792SOL    HW3 7240   1.743   1.626   3.026  1.3281  0.0884  3.0565
 1792SOL    MW4 7241   1.814   1.674   3.007  0.4127  0.3692  0.0691
 1793SOL     OW 7242   1.784   1.915   3.109  0.4452 -0.3996 -0.7960
 1793SOL    HW2 7243   1.853   1.978   3.086  0.5622 -0.6388 -1.0915
 1793SOL    HW3 7244   1.713   1.933   3.048  0.4246 -0.4648 -0.7912
 1793SOL    MW4 7245   1.784   1.926   3.098  0.4580 -0.4399 -0.8342
 1794SOL     OW 7246   2.022   2.045   2.989 -0.0518  0.1356 -0.6793
 1794SOL    HW2 7247   2.096   1.996   3.025 -1.0671 -0.2529  0.9521
 1794SOL    HW3 7248   2.041   2.136   3.009  0.0952  0.0534 -0.4480
 1794SOL    MW4 7249   2.034   2.050   2.997 -0.1662  0.0737 -0.4334
 1795SOL     OW 7250   2.051   2.295   3.088  0.0751  0.2131  0.1921
 1795SOL    HW2 7251   2.132   2.342   3.071  0.1762 -0.6938 -1.9274
 1795SOL    HW3 7252   1.982   2.353   3.055  0.0913 -0.4024 -0.9433
 1795SOL    MW4 7253   2.052   2.309   3.081  0.0906  0.0122 -0.2372
 1796SOL     OW 7254   1.805   2.432   2.996  0.3249 -0.3257 -0.0153
 1796SOL    HW2 7255   1.798   2.521   3.030  0.1066 -0.3101 -0.1005
 1796SOL    HW3 7256   1.749   2.380   3.053 -0.4647 -0.2071 -0.6675
 1796SOL    MW4 7257   1.797   2.437   3.008  0.1918 -0.3080 -0.1125
 1797SOL     OW 7258   1.808   2.692   3.067  0.0723 -0.4089  0.0547
 1797SOL    HW2 7259   1.789   2.736   3.149 -0.4521  1.2383 -0.9157
 1797SOL    HW3 7260   1.882   2.740   3.030 -0.3478 -0.4695 -0.9044
 1797SOL    MW4 7261   1.815   2.704   3.073 -0.0523 -0.1998 -0.1998
 1798SOL     OW 7262   2.022   2.835   2.940  0.1706  0.1943 -0.2118
 1798SOL    HW2 7263   2.019   2.921   2.983  0.0515  0.2089 -0.2509
 1798SOL    HW3 7264   2.015   2.854   2.847  1.4874  0.2376 -0.3166
 1798SOL    MW4 7265   2.021   2.849   2.934  0.3285  0.2019 -0.2308
 1799SOL     OW 7266   2.033   3.093   3.063  0.1558  0.3784  0.3122
 1799SOL    HW2 7267   2.026   3.103   3.158  0.1401  0.0059  0.3495
 1799SOL    HW3 7268   1.952   3.132   3.029 -0.1443 -0.0825  0.4928
 1799SOL    MW4 7269   2.021   3.100   3.071  0.1142  0.2682  0.3409
 1800SOL     OW 7270   1.803   3.232   2.979 -0.3466 -0.3410  0.2480
 1800SOL    HW2 7271   1.718   3.190   2.995 -1.5153  2.0857  0.5638
 1800SOL    HW3 7272   1.800   3.258   2.887  0.6532 -1.4775 -0.1296
 1800SOL    MW4 7273   1.791   3.230   2.969 -0.3688 -0.1707  0.2401
 1801SOL     OW 7274   1.754   3.470   3.125  0.0950 -0.3177  0.3842
 1801SOL    HW2 7275   1.745   3.377   3.105 -0.2876 -0.1483 -0.2490
 1801SOL    HW3 7276   1.690   3.513   3.067  0.1659  0.3213  0.7797
 1801SOL    MW4 7277   1.744   3.464   3.115  0.0540 -0.2110  0.3531
 1802SOL     OW 7278   1.980   3.561   3.000  0.0350 -0.0241  0.0678
 1802SOL    HW2 7279   1.978   3.648   3.040 -0.4154 -0.2594  0.5570
 1802SOL    HW3 7280   1.898   3.519   3.028  0.0711 -0.4711 -0.4720
 1802SOL    MW4 7281   1.969   3.567   3.009 -0.0196 -0.1140  0.0613
 1803SOL     OW 7282   2.014   3.824   3.085 -0.2722  0.4012  0.0641
 1803SOL    HW2 7283   2.019   3.839   3.179 -0.2175  0.9244 -0.0222
 1803SOL    HW3 7284   1.938   3.873   3.056 -1.5537 -1.4749  0.1619
 1803SOL    MW4 7285   2.005   3.832   3.094 -0.4339  0.2224  0.0653
 1804SOL     OW 7286   1.810   3.990   3.030  0.4627 -0.0878 -0.1447
 1804SOL    HW2 7287   1.808   4.075   3.073 -1.0764 -1.4015  2.4599
 1804SOL    HW3 7288   1.794   4.009   2.937  1.0388  2.5113  0.2679
 1804SOL    MW4 7289   1.808   4.004   3.023  0.3356  0.0825  0.2532
 1805SOL     OW 7290   1.792   4.259   3.116 -0.0947  0.4678  0.0782
 1805SOL    HW2 7291   1.871   4.277   3.066  0.1802 -1.6910 -0.3484
 1805SOL    HW3 7292   1.723   4.305   3.070  0.3043 -0.8160 -1.8643
 1805SOL    MW4 7293   1.793   4.267   3.103 -0.0058  0.0138 -0.2346
 1806SOL     OW 7294   2.028   4.326   2.974 -0.2215 -0.2350 -0.0830
 1806SOL    HW2 7295   2.044   4.417   3.001 -2.6071  0.0112  0.5946
 1806SOL    HW3 7296   2.050   4.325   2.880 -0.6880  1.1905 -0.2241
 1806SOL    MW4 7297   2.033   4.338   2.965 -0.5980 -0.0143 -0.0122
 1807SOL     OW 7298   2.486   4.649   3.122 -0.1075 -0.1375  0.0313
 1807SOL    HW2 7299   2.518   4.575   3.070 -1.3554 -0.7390  0.0904
 1807SOL    HW3 7300   2.404   4.673   3.080 -0.7096 -0.0935  1.2182
 1807SOL    MW4 7301   2.479   4.642   3.110 -0.3514 -0.2112  0.1957
 1808SOL     OW 7302   2.256   0.084   2.977 -0.4664  0.0812 -0.3992
 1808SOL    HW2 7303   2.231   0.170   3.012  1.3700 -0.1742  1.6894
 1808SOL    HW3 7304   2.182   0.027   2.996 -0.9984  0.8227 -0.2468
 1808SOL    MW4 7305   2.243   0.088   2.984 -0.2940  0.1454 -0.1037
 1809SOL     OW 7306   2.232   0.330   3.104  0.0172 -0.2871  0.5234
 1809SOL    HW2 7307   2.240   0.320   3.199 -1.8052 -2.9842  0.4772
 1809SOL    HW3 7308   2.160   0.392   3.092  0.3332  0.1489  0.9274
 1809SOL    MW4 7309   2.223   0.337   3.115 -0.1814 -0.5855  0.5710
 1810SOL     OW 7310   2.470   0.465   3.003  0.0580  0.2376  0.0528
 1810SOL    HW2 7311   2.389   0.423   3.032 -0.9204  1.7694 -0.3759
 1810SOL    HW3 7312   2.469   0.457   2.907  1.4492 -1.5612  0.1729
 1810SOL    MW4 7313   2.459   0.459   2.994  0.1123  0.2024  0.0119
 1811SOL     OW 7314   2.492   0.718   3.107  0.2754  0.2483  0.1974
 1811SOL    HW2 7315   2.432   0.779   3.064  0.4247 -0.0046 -0.3744
 1811SOL    HW3 7316   2.489   0.639   3.053  0.0724 -0.2547  0.9424
 1811SOL    MW4 7317   2.484   0.716   3.094  0.2682  0.1486  0.2201
 1812SOL     OW 7318   2.254   0.840   3.040 -0.3033 -0.2812 -0.1765
 1812SOL    HW2 7319   2.268   0.929   3.074 -0.7475  0.1142 -1.0159
 1812SOL    HW3 7320   2.163   0.821   3.062  0.1132 -0.9749  1.0007
 1812SOL    MW4 7321   2.244   0.850   3.047 -0.3066 -0.3206 -0.1318
 1813SOL     OW 7322   2.271   1.099   3.130 -0.3297 -0.2500  0.2032
 1813SOL    HW2 7323   2.268   1.087   3.225 -0.2888  1.3616  0.4239
 1813SOL    HW3 7324   2.185   1.137   3.108  0.6690  1.9609 -0.0035
 1813SOL    MW4 7325   2.259   1.103   3.140 -0.1929  0.2543  0.2048
 1814SOL     OW 7326   2.483   1.259   3.046  0.5352  0.1980  0.2689
 1814SOL    HW2 7327   2.396   1.221   3.057  0.2169  1.2248  1.3799
 1814SOL    HW3 7328   2.496   1.263   2.951 -1.3992  1.7119  0.0363
 1814SOL    MW4 7329   2.473   1.255   3.035  0.2377  0.5333  0.3848
 1815SOL     OW 7330   2.493   1.537   3.097  0.0941 -0.4235  0.0590
 1815SOL    HW2 7331   2.407   1.574   3.081 -0.0898 -0.7162  0.3448
 1815SOL    HW3 7332   2.480   1.442   3.089  0.5009 -0.4423 -0.4081
 1815SOL    MW4 7333   2.480   1.529   3.094  0.1235 -0.4647  0.0348
 1816SOL     OW 7334   2.253   1.662   3.002  0.0791 -0.4191  0.1840
 1816SOL    HW2 7335   2.174   1.613   3.024 -1.8381  2.4759  0.1307
 1816SOL    HW3 7336   2.256   1.660   2.906 -1.4057  1.4991  0.0397
 1816SOL    MW4 7337   2.243   1.655   2.992 -0.3698  0.2159  0.1578
 1817SOL     OW 7338   2.244   1.921   3.119 -0.1695 -0.1402 -0.5912
 1817SOL    HW2 7339   2.321   1.963   3.081 -0.4220  0.2228 -0.7072
 1817SOL    HW3 7340   2.248   1.831   3.086 -0.1850  0.0734 -1.1868
 1817SOL    MW4 7341   2.254   1.914   3.109 -0.2046 -0.0641 -0.6852
 1818SOL     OW 7342   2.470   2.029   2.994 -0.4300 -0.1174 -0.2550
 1818SOL    HW2 7343   2.558   1.998   3.014 -0.3150  0.4148  0.0870
 1818SOL    HW3 7344   2.468   2.036   2.898 -0.1504 -0.2724 -0.2716
 1818SOL    MW4 7345   2.481   2.026   2.984 -0.3779 -0.0675 -0.2122
 1819SOL     OW 7346   2.501   2.312   3.096 -0.2611  0.7382  0.1924
 1819SOL    HW2 7347   2.504   2.312   3.192  2.7282  1.6799  0.1700
 1819SOL    HW3 7348   2.503   2.219   3.072  0.4618  0.5275  1.0386
 1819SOL    MW4 7349   2.502   2.300   3.106  0.2289  0.8347  0.3009
 1820SOL     OW 7350   2.277   2.424   2.996 -0.2589  0.1242  0.1230
 1820SOL    HW2 7351   2.264   2.517   3.016  1.1137  0.1698  0.8451
 1820SOL    HW3 7352   2.350   2.397   3.051 -0.4246 -1.3135 -0.3282
 1820SOL    MW4 7353   2.285   2.433   3.006 -0.0997 -0.0598  0.1588
 1821SOL     OW 7354   2.229   2.685   3.069  0.5759 -0.1495 -0.4844
 1821SOL    HW2 7355   2.313   2.728   3.056  0.7414 -0.4295 -0.3322
 1821SOL    HW3 7356   2.168   2.735   3.014  0.4260  1.3326  0.9722
 1821SOL    MW4 7357   2.232   2.697   3.060  0.5782  0.0091 -0.2723
 1822SOL     OW 7358   2.450   2.825   3.004 -0.3061  0.5751  0.2786
 1822SOL    HW2 7359   2.445   2.912   3.044  0.1533  0.6554  0.1641
 1822SOL    HW3 7360   2.445   2.841   2.910 -1.9927  0.3410  0.3134
 1822SOL    MW4 7361   2.449   2.838   2.997 -0.4680  0.5548  0.2680
 1823SOL     OW 7362   2.480   3.089   3.076 -0.3029  0.3563 -0.3406
 1823SOL    HW2 7363   2.564   3.126   3.052  0.2760 -0.1848  0.7864
 1823SOL    HW3 7364   2.415   3.152   3.044  0.4191 -0.1878 -2.9665
 1823SOL    MW4 7365   2.482   3.102   3.069 -0.1311  0.2131 -0.5383
 1824SOL     OW 7366   2.268   3.243   2.996  0.2790  0.3191 -0.2107
 1824SOL    HW2 7367   2.259   3.330   3.033  0.0576  0.0408  0.3968
 1824SOL    HW3 7368   2.194   3.194   3.032  1.4424 -0.6318  0.9173
 1824SOL    MW4 7369   2.257   3.248   3.006  0.4034  0.1566  0.0184
 1825SOL     OW 7370   2.242   3.498   3.101  0.4452 -0.5093 -0.2251
 1825SOL    HW2 7371   2.305   3.539   3.042  1.7108 -0.0645  1.4191
 1825SOL    HW3 7372   2.158   3.536   3.076  1.1731  0.7417 -0.8145
 1825SOL    MW4 7373   2.239   3.508   3.090  0.7079 -0.2856 -0.0861
 1826SOL     OW 7374   2.437   3.612   2.959  0.0554 -0.3313 -0.2508
 1826SOL    HW2 7375   2.520   3.572   2.984  0.4129  0.1075 -0.7293
 1826SOL    HW3 7376   2.433   3.694   3.009  0.2337 -0.0192 -0.7421
 1826SOL    MW4 7377   2.447   3.618   2.969  0.1261 -0.2322 -0.3788
 1827SOL     OW 7378   2.471   3.849   3.086 -0.0083 -0.1174  0.0824
 1827SOL    HW2 7379   2.473   3.845   3.181  0.9394 -0.8760  0.0310
 1827SOL    HW3 7380   2.550   3.897   3.062  0.9689 -1.9397 -0.4210
 1827SOL    MW4 7381   2.481   3.855   3.095  0.2458 -0.4580  0.0091
 1828SOL     OW 7382   2.232   3.954   2.984  0.2632  0.2789  0.1193
 1828SOL    HW2 7383   2.308   3.921   3.032 -0.1949 -0.5512  0.2917
 1828SOL    HW3 7384   2.158   3.903   3.017 -0.3249  0.8613 -0.2677
 1828SOL    MW4 7385   2.232   3.943   2.994  0.1249  0.2460  0.0911
 1829SOL     OW 7386   2.257   4.208   3.084  0.0282  0.2531 -0.1539
 1829SOL    HW2 7387   2.252   4.120   3.046 -0.5755  0.5047 -0.6626
 1829SOL    HW3 7388   2.176   4.251   3.056  0.5444  1.1361 -0.3288
 1829SOL    MW4 7389   2.246   4.202   3.075  0.0167  0.4029 -0.2444
 1830SOL     OW 7390   2.480   4.373   2.970  0.0546 -0.2525  0.0294
 1830SOL    HW2 7391   2.409   4.322   3.010 -1.2072  2.6505  1.6224
 1830SOL    HW3 7392   2.474   4.352   2.876 -0.9459 -2.3567  0.5346
 1830SOL    MW4 7393   2.470   4.363   2.963 -0.2439 -0.1473  0.3064
 1831SOL     OW 7394   2.909   4.654   3.123 -0.4825  0.4411  0.0753
 1831SOL    HW2 7395   2.992   4.687   3.089 -0.9123  0.3312 -1.0978
 1831SOL    HW3 7396   2.912   4.560   3.106 -0.7160  0.3862  0.3280
 1831SOL    MW4 7397   2.920   4.646   3.116 -0.5701  0.4191 -0.0460
 1832SOL     OW 7398   2.710   0.104   2.986 -0.2023  0.0752 -0.0252
 1832SOL    HW2 7399   2.791   0.081   3.032 -0.2250  0.2074  0.0786
 1832SOL    HW3 7400   2.640   0.073   3.043 -0.2296  0.1888  0.0033
 1832SOL    MW4 7401   2.712   0.097   2.999 -0.2089  0.1076 -0.0076
 1833SOL     OW 7402   2.723   0.394   3.063  0.5887 -0.4269 -0.0076
 1833SOL    HW2 7403   2.730   0.300   3.045  0.1688 -0.7803  1.6090
 1833SOL    HW3 7404   2.630   0.413   3.052  0.8668  0.0818 -1.6048
 1833SOL    MW4 7405   2.712   0.384   3.059  0.5698 -0.4064 -0.0048
 1834SOL     OW 7406   2.963   0.498   2.970 -0.0326 -0.1055  0.0650
 1834SOL    HW2 7407   2.873   0.480   2.996 -0.6059  0.8500 -1.2182
 1834SOL    HW3 7408   2.958   0.516   2.876  1.4547  0.2468  0.0386
 1834SOL    MW4 7409   2.951   0.498   2.961  0.0880  0.0671 -0.1080
 1835SOL     OW 7410   2.930   0.736   3.118  0.7455  0.5370  0.4914
 1835SOL    HW2 7411   2.932   0.729   3.214 -0.2580 -0.3939  0.4595
 1835SOL    HW3 7412   2.957   0.649   3.087 -0.8410  0.2089 -0.0433
 1835SOL    MW4 7413   2.934   0.724   3.127  0.4039  0.3709  0.4168
 1836SOL     OW 7414   2.690   0.867   3.005 -0.0719  0.2010 -0.1741
 1836SOL    HW2 7415   2.766   0.822   3.042 -0.0277  0.9158  0.6237
 1836SOL    HW3 7416   2.616   0.809   3.026 -0.0115  0.4752  0.8329
 1836SOL    MW4 7417   2.690   0.853   3.013 -0.0582  0.3315  0.0641
 1837SOL     OW 7418   2.731   1.101   3.141  0.0590 -0.7149 -0.2698
 1837SOL    HW2 7419   2.718   1.017   3.096  1.3282  0.8868 -3.7642
 1837SOL    HW3 7420   2.656   1.154   3.116 -0.6561 -0.6883  1.8055
 1837SOL    MW4 7421   2.719   1.097   3.132  0.1321 -0.5001 -0.4570
 1838SOL     OW 7422   2.948   1.237   3.009 -0.2403  0.4312 -1.0076
 1838SOL    HW2 7423   2.940   1.322   3.052  0.7845 -1.2241  2.5906
 1838SOL    HW3 7424   2.879   1.183   3.047  0.9189 -1.1819 -1.1026
 1838SOL    MW4 7425   2.938   1.241   3.020  0.0482  0.0000 -0.5457
 1839SOL     OW 7426   2.953   1.503   3.095 -0.3087  0.1226 -0.2687
 1839SOL    HW2 7427   2.968   1.506   3.189 -0.4351  0.1707 -0.2506
 1839SOL    HW3 7428   3.026   1.553   3.058 -0.6102  0.6443 -0.1585
 1839SOL    MW4 7429   2.965   1.510   3.102 -0.3653  0.1978 -0.2520
 1840SOL     OW 7430   2.739   1.631   2.979 -0.6847 -0.1540 -0.1361
 1840SOL    HW2 7431   2.815   1.596   3.027 -0.1546  0.2985 -0.6354
 1840SOL    HW3 7432   2.664   1.584   3.015 -0.1975 -0.3907  0.5746
 1840SOL    MW4 7433   2.739   1.620   2.990 -0.5505 -0.1254 -0.1082
 1841SOL     OW 7434   2.690   1.893   3.071 -0.0909  0.0618  0.1693
 1841SOL    HW2 7435   2.759   1.949   3.037 -1.1100  1.5889  0.5272
 1841SOL    HW3 7436   2.706   1.807   3.032  0.2948  1.1110 -2.0545
 1841SOL    MW4 7437   2.701   1.889   3.062 -0.1743  0.4015 -0.0768
 1842SOL     OW 7438   2.917   2.033   2.996 -0.3617 -0.1949 -0.3914
 1842SOL    HW2 7439   2.917   2.117   3.042  1.1649 -0.2432 -0.2783
 1842SOL    HW3 7440   2.946   2.054   2.908  0.8438 -0.7105 -0.1313
 1842SOL    MW4 7441   2.921   2.046   2.991 -0.0012 -0.2692 -0.3424
 1843SOL     OW 7442   2.939   2.310   3.104  0.2607 -0.3945  0.1306
 1843SOL    HW2 7443   3.014   2.364   3.079 -0.5588 -0.0781 -1.7274
 1843SOL    HW3 7444   2.864   2.352   3.063 -0.8615 -1.0700  1.4347
 1843SOL    MW4 7445   2.939   2.322   3.096  0.0043 -0.4416  0.0575
 1844SOL     OW 7446   2.725   2.433   2.981 -0.0248 -0.1849  0.3321
 1844SOL    HW2 7447   2.718   2.526   3.003  0.8356 -0.6759  2.8320
 1844SOL    HW3 7448   2.647   2.393   3.019 -0.8462 -0.4020 -1.4857
 1844SOL    MW4 7449   2.714   2.440   2.989 -0.0196 -0.2785  0.4222
 1845SOL     OW 7450   2.688   2.685   3.078 -0.1087  0.0980 -0.2759
 1845SOL    HW2 7451   2.677   2.689   3.173 -0.5727  0.4224 -0.3452
 1845SOL    HW3 7452   2.612   2.730   3.043  0.0930  0.0279 -0.8028
 1845SOL    MW4 7453   2.677   2.692   3.086 -0.1435  0.1311 -0.3545
 1846SOL     OW 7454   2.906   2.842   2.971 -0.3793  0.0109  0.0494
 1846SOL    HW2 7455   2.994   2.810   2.990 -0.4343  0.2131  0.6608
 1846SOL    HW3 7456   2.848   2.771   3.000 -0.4468  0.1606  0.2810
 1846SOL    MW4 7457   2.910   2.828   2.977 -0.3953  0.0572  0.1605
 1847SOL     OW 7458   2.922   3.096   3.115 -0.2275  0.0116  0.4950
 1847SOL    HW2 7459   2.853   3.154   3.082  0.1421  0.6380  0.8242
 1847SOL    HW3 7460   2.899   3.010   3.080 -0.4305  0.4715 -0.5325
 1847SOL    MW4 7461   2.910   3.092   3.106 -0.2055  0.1547  0.4029
 1848SOL     OW 7462   2.713   3.249   3.005 -0.4121  0.0197  0.2142
 1848SOL    HW2 7463   2.712   3.343   3.026  0.6186 -0.2390  1.4614
 1848SOL    HW3 7464   2.715   3.246   2.910 -1.6194  1.2600  0.1412
 1848SOL    MW4 7465   2.713   3.261   2.995 -0.4356  0.1490  0.3691
 1849SOL     OW 7466   2.681   3.524   3.057 -0.2189  0.0036  0.4950
 1849SOL    HW2 7467   2.697   3.522   3.151  0.9251 -0.1680  0.3020
 1849SOL    HW3 7468   2.763   3.555   3.019 -0.5690 -0.2212 -0.4728
 1849SOL    MW4 7469   2.694   3.528   3.064 -0.1140 -0.0486  0.3417
 1850SOL     OW 7470   2.917   3.579   2.948  0.2867  0.4642 -0.3961
 1850SOL    HW2 7471   2.979   3.513   2.979 -1.1029 -0.8177 -0.3008
 1850SOL    HW3 7472   2.946   3.661   2.989  1.9385 -0.1042 -0.4097
 1850SOL    MW4 7473   2.929   3.581   2.957  0.3214  0.2203 -0.3855
 1851SOL     OW 7474   2.932   3.815   3.090  0.0570  0.3455  0.5231
 1851SOL    HW2 7475   2.922   3.819   3.186 -0.1094 -0.5620  0.5425
 1851SOL    HW3 7476   2.854   3.860   3.057  0.3302  1.0485  0.8169
 1851SOL    MW4 7477   2.920   3.822   3.099  0.0713  0.3185  0.5643
 1852SOL     OW 7478   2.705   3.979   2.994  0.1684  0.0439 -0.1545
 1852SOL    HW2 7479   2.696   4.070   3.020 -1.2176 -0.2860  0.5889
 1852SOL    HW3 7480   2.699   3.980   2.898 -0.6362  0.6457 -0.0992
 1852SOL    MW4 7481   2.703   3.991   2.984 -0.1209  0.0796 -0.0494
 1853SOL     OW 7482   2.703   4.244   3.060  0.0166 -0.1210  0.4160
 1853SOL    HW2 7483   2.709   4.254   3.155  2.0457  0.8842  0.2173
 1853SOL    HW3 7484   2.619   4.284   3.036 -0.1645  0.2723  1.7075
 1853SOL    MW4 7485   2.693   4.251   3.069  0.2604  0.0639  0.5605
 1854SOL     OW 7486   2.938   4.378   3.031  0.0844  0.1153  0.3277
 1854SOL    HW2 7487   3.020   4.330   3.042 -1.2134 -1.8105  2.1385
 1854SOL    HW3 7488   2.870   4.310   3.038 -1.7636  2.0976  2.1669
 1854SOL    MW4 7489   2.940   4.362   3.034 -0.3307  0.1230  0.8092
 1855SOL     OW 7490   3.325   4.632   3.113  0.4818 -0.0047  0.5494
 1855SOL    HW2 7491   3.399   4.686   3.085  0.3825  0.5640  1.3745
 1855SOL    HW3 7492   3.333   4.551   3.062  1.9825 -0.1665  1.0393
 1855SOL    MW4 7493   3.336   4.628   3.103  0.6666  0.0486  0.7226
 1856SOL     OW 7494   3.108   0.096   2.974 -0.4394 -0.1950  0.2609
 1856SOL    HW2 7495   3.112   0.182   3.015  0.2506  0.2202 -0.6617
 1856SOL    HW3 7496   3.174   0.044   3.020 -0.3008  0.0043  0.2880
 1856SOL    MW4 7497   3.117   0.101   2.985 -0.3302 -0.1139  0.1428
 1857SOL     OW 7498   3.123   0.314   3.128 -0.2736 -0.2222 -0.1405
 1857SOL    HW2 7499   3.210   0.340   3.097 -0.2037  1.0990  1.0979
 1857SOL    HW3 7500   3.063   0.370   3.079 -0.2855  0.4015  0.5753
 1857SOL    MW4 7501   3.126   0.325   3.117 -0.2658  0.0344  0.1175
 1858SOL     OW 7502   3.368   0.421   3.034 -0.0753  0.4405  0.3117
 1858SOL    HW2 7503   3.457   0.395   3.054 -0.2073  0.5984  1.1159
 1858SOL    HW3 7504   3.369   0.441   2.940  0.6135 -0.0268  0.2195
 1858SOL    MW4 7505   3.380   0.420   3.024 -0.0019  0.3997  0.4058
 1859SOL     OW 7506   3.341   0.698   3.103  0.3351  0.3657 -0.1362
 1859SOL    HW2 7507   3.357   0.704   3.197  2.4730  0.3506 -0.4637
 1859SOL    HW3 7508   3.343   0.604   3.084  1.7102  0.4453 -0.4558
 1859SOL    MW4 7509   3.344   0.686   3.113  0.7987  0.3741 -0.2215
 1860SOL     OW 7510   3.141   0.859   2.978 -0.1449  0.5610  0.2712
 1860SOL    HW2 7511   3.214   0.805   3.008  0.5591  1.3337 -0.0412
 1860SOL    HW3 7512   3.065   0.825   3.026  0.8713  1.4473  2.5510
 1860SOL    MW4 7513   3.140   0.847   2.988  0.0820  0.7799  0.5305
 1861SOL     OW 7514   3.166   1.113   3.099 -0.1871 -0.2562  0.2940
 1861SOL    HW2 7515   3.160   1.032   3.048  1.5630  0.7882 -1.6002
 1861SOL    HW3 7516   3.094   1.167   3.066  2.0564  1.1643 -2.5181
 1861SOL    MW4 7517   3.155   1.110   3.088  0.3400  0.0690 -0.3269
 1862SOL     OW 7518   3.392   1.271   3.041  0.1775  0.1655 -0.1134
 1862SOL    HW2 7519   3.462   1.215   3.073 -0.4336 -0.2210  0.5478
 1862SOL    HW3 7520   3.311   1.229   3.070 -0.3357  0.6025 -0.8745
 1862SOL    MW4 7521   3.390   1.258   3.049  0.0288  0.1720 -0.1268
 1863SOL     OW 7522   3.381   1.540   3.119  0.0491 -0.2476  0.1220
 1863SOL    HW2 7523   3.385   1.534   3.214  0.6780 -0.9496  0.0514
 1863SOL    HW3 7524   3.375   1.450   3.089 -3.0925  0.0595 -0.3970
 1863SOL    MW4 7525   3.381   1.527   3.128 -0.2823 -0.2997  0.0443
 1864SOL     OW 7526   3.162   1.643   2.987  0.0554  0.2076  0.2972
 1864SOL    HW2 7527   3.251   1.615   3.006  0.9636  2.2537 -0.7603
 1864SOL    HW3 7528   3.163   1.661   2.893 -2.0350 -1.6524 -0.1346
 1864SOL    MW4 7529   3.174   1.641   2.977 -0.1009  0.2320  0.1006
 1865SOL     OW 7530   3.123   1.884   3.116 -0.1260  0.3554  0.0412
 1865SOL    HW2 7531   3.142   1.801   3.071 -1.6393  0.4663 -0.8523
 1865SOL    HW3 7532   3.054   1.924   3.063 -0.6056  1.3944  1.4305
 1865SOL    MW4 7533   3.117   1.878   3.103 -0.3889  0.5072  0.1068
 1866SOL     OW 7534   3.315   2.076   3.062 -0.2085  0.6880  0.2095
 1866SOL    HW2 7535   3.388   2.036   3.109 -0.4765  0.3276  0.3138
 1866SOL    HW3 7536   3.242   2.015   3.073  0.1856 -0.2614 -2.1185
 1866SOL    MW4 7537   3.315   2.063   3.069 -0.1917  0.5147 -0.0839
 1867SOL     OW 7538   3.353   2.345   3.104 -0.3130  0.2662  0.0527
 1867SOL    HW2 7539   3.339   2.355   3.198  1.1502  0.7521  0.2318
 1867SOL    HW3 7540   3.359   2.250   3.091 -0.2231  0.2136  0.4830
 1867SOL    MW4 7541   3.352   2.334   3.114 -0.1080  0.3233  0.1335
 1868SOL     OW 7542   3.153   2.477   2.986 -0.3177  0.0521 -0.5876
 1868SOL    HW2 7543   3.222   2.416   3.011  2.5085  2.6518 -1.6650
 1868SOL    HW3 7544   3.142   2.463   2.892 -0.2839  0.5780 -0.6713
 1868SOL    MW4 7545   3.161   2.467   2.977  0.0596  0.4644 -0.7410
 1869SOL     OW 7546   3.128   2.735   3.062  0.2321 -0.1929  0.1962
 1869SOL    HW2 7547   3.134   2.734   3.158  1.8217 -0.6770  0.1016
 1869SOL    HW3 7548   3.139   2.644   3.036  1.5420  0.1538 -0.5271
 1869SOL    MW4 7549   3.131   2.723   3.072  0.6146 -0.2112  0.0882
 1870SOL     OW 7550   3.390   2.824   3.022  0.1545 -0.0204  0.4712
 1870SOL    HW2 7551   3.397   2.912   3.060 -1.5853  0.0936  0.5819
 1870SOL    HW3 7552   3.298   2.801   3.033 -0.0292 -0.6584 -2.2257
 1870SOL    MW4 7553   3.379   2.833   3.029 -0.0992 -0.0894  0.1302
 1871SOL     OW 7554   3.407   3.073   3.152  0.5118 -0.2797  0.1893
 1871SOL    HW2 7555   3.403   3.079   3.247  0.9946  2.1876  0.0742
 1871SOL    HW3 7556   3.319   3.096   3.122  1.0551  1.5952 -0.0448
 1871SOL    MW4 7557   3.395   3.077   3.160  0.6473  0.2933  0.1431
 1872SOL     OW 7558   3.178   3.169   3.038 -0.2122  0.2732 -0.0871
 1872SOL    HW2 7559   3.099   3.158   3.091 -0.0475  1.4667  0.4060
 1872SOL    HW3 7560   3.145   3.194   2.951 -0.6102 -3.8194 -1.2569
 1872SOL    MW4 7561   3.163   3.171   3.033 -0.2429 -0.1094 -0.1764
 1873SOL     OW 7562   3.117   3.444   3.096  0.0063  0.0676  0.0975
 1873SOL    HW2 7563   3.196   3.488   3.066  0.5369  0.5435  2.1009
 1873SOL    HW3 7564   3.135   3.351   3.082  0.7180  0.2075  0.0629
 1873SOL    MW4 7565   3.130   3.437   3.091  0.1702  0.1490  0.3574
 1874SOL     OW 7566   3.330   3.585   3.029  0.2963  0.7243  0.2234
 1874SOL    HW2 7567   3.405   3.545   3.074  0.2219  1.0603  0.6496
 1874SOL    HW3 7568   3.329   3.675   3.060 -0.3687  0.6839  0.3248
 1874SOL    MW4 7569   3.340   3.592   3.039  0.1988  0.7634  0.2933
 1875SOL     OW 7570   3.414   3.846   3.072  0.0284 -0.0594 -0.0947
 1875SOL    HW2 7571   3.405   3.851   3.167 -0.9826  0.4459 -0.2095
 1875SOL    HW3 7572   3.325   3.859   3.039  0.3866 -0.1563 -1.1146
 1875SOL    MW4 7573   3.401   3.848   3.080 -0.0577 -0.0057 -0.2441
 1876SOL     OW 7574   3.163   3.948   2.993 -0.0891  0.0021 -0.1805
 1876SOL    HW2 7575   3.080   3.914   3.025  0.1866 -0.3893  0.1145
 1876SOL    HW3 7576   3.149   3.961   2.899 -1.0487  1.5784  0.1545
 1876SOL    MW4 7577   3.150   3.945   2.985 -0.1793  0.1581 -0.0975
 1877SOL     OW 7578   3.175   4.218   3.083 -0.5049 -0.4340  0.3154
 1877SOL    HW2 7579   3.168   4.220   3.178  2.5195 -0.9393  0.6047
 1877SOL    HW3 7580   3.182   4.125   3.061  0.4392 -0.2465 -0.2208
 1877SOL    MW4 7581   3.175   4.206   3.093  0.0186 -0.4764  0.2830
 1878SOL     OW 7582   3.345   4.399   2.979 -0.6520 -0.0614  0.2811
 1878SOL    HW2 7583   3.427   4.369   3.018 -0.0808 -0.3701 -1.1226
 1878SOL    HW3 7584   3.283   4.329   2.998 -0.8572  0.5953  2.1675
 1878SOL    MW4 7585   3.348   4.386   2.987 -0.6037 -0.0148  0.3448
 1879SOL     OW 7586   3.767   4.664   3.156 -0.0106  0.1051 -0.5772
 1879SOL    HW2 7587   3.775   4.575   3.121  0.4074  0.0532 -0.3547
 1879SOL    HW3 7588   3.697   4.704   3.104 -0.6858 -0.5766 -0.2108
 1879SOL    MW4 7589   3.759   4.657   3.145 -0.0443  0.0086 -0.4995
 1880SOL     OW 7590   3.571   0.109   3.018  0.1641  0.1153  0.1362
 1880SOL    HW2 7591   3.597   0.198   3.042  0.2256  0.0953  0.1452
 1880SOL    HW3 7592   3.569   0.109   2.923  0.9963 -0.1060  0.1154
 1880SOL    MW4 7593   3.575   0.120   3.009  0.2823  0.0835  0.1347
 1881SOL     OW 7594   3.631   0.368   3.091 -0.5950  0.0875 -0.0274
 1881SOL    HW2 7595   3.649   0.354   3.184 -0.6752  1.4856  0.2133
 1881SOL    HW3 7596   3.687   0.441   3.067 -1.4057  0.4640 -0.7921
 1881SOL    MW4 7597   3.641   0.376   3.100 -0.7126  0.3217 -0.0966
 1882SOL     OW 7598   3.812   0.552   3.003 -0.1269  0.1399  0.9487
 1882SOL    HW2 7599   3.880   0.493   3.034  0.5929  0.7564  0.5579
 1882SOL    HW3 7600   3.823   0.631   3.056 -0.1271  0.4805  0.4464
 1882SOL    MW4 7601   3.822   0.555   3.014 -0.0319  0.2661  0.8309
 1883SOL     OW 7602   3.813   0.788   3.123  0.2912  0.1537  0.4435
 1883SOL    HW2 7603   3.819   0.808   3.217 -0.8374  0.2414  0.5047
 1883SOL    HW3 7604   3.891   0.828   3.085 -0.0214  1.4181  1.1244
 1883SOL    MW4 7605   3.824   0.796   3.130  0.1013  0.3322  0.5414
 1884SOL     OW 7606   3.553   0.877   2.992 -1.0467 -0.2665  0.1121
 1884SOL    HW2 7607   3.631   0.846   3.039 -1.0717  0.4824  0.6572
 1884SOL    HW3 7608   3.482   0.822   3.026 -0.9647 -0.1201  0.5279
 1884SOL    MW4 7609   3.554   0.866   3.003 -1.0390 -0.1484  0.2389
 1885SOL     OW 7610   3.596   1.111   3.143 -0.3988 -0.4329  0.0651
 1885SOL    HW2 7611   3.667   1.159   3.101 -1.2032  0.2069 -0.5767
 1885SOL    HW3 7612   3.591   1.028   3.095  0.6731 -0.9788  0.8691
 1885SOL    MW4 7613   3.604   1.106   3.131 -0.3636 -0.4205  0.0868
 1886SOL     OW 7614   3.777   1.269   3.006 -0.2970 -0.5725  0.5177
 1886SOL    HW2 7615   3.779   1.363   3.024  0.7340 -0.7745  1.5213
 1886SOL    HW3 7616   3.800   1.261   2.914 -1.2499  0.2121  0.2038
 1886SOL    MW4 7617   3.780   1.280   2.996 -0.2868 -0.4956  0.6089
 1887SOL     OW 7618   3.800   1.527   3.093  0.2459  0.2314 -0.2969
 1887SOL    HW2 7619   3.785   1.527   3.188  0.2502  0.6796 -0.2941
 1887SOL    HW3 7620   3.730   1.582   3.058  1.2731  1.5330 -0.3723
 1887SOL    MW4 7621   3.789   1.534   3.101  0.3817  0.4622 -0.3066
 1888SOL     OW 7622   3.599   1.710   3.027  0.5281 -0.0645 -0.0675
 1888SOL    HW2 7623   3.527   1.665   3.072 -0.2911 -0.9729 -2.2392
 1888SOL    HW3 7624   3.583   1.694   2.934  0.8546  3.7811 -0.8650
 1888SOL    MW4 7625   3.587   1.702   3.021  0.4630  0.3231 -0.4592
 1889SOL     OW 7626   3.562   1.970   3.141 -0.2963 -0.4282  0.5394
 1889SOL    HW2 7627   3.581   1.951   3.233  0.4095 -0.2699  0.4279
 1889SOL    HW3 7628   3.566   1.885   3.098 -1.1266 -0.5749  0.7362
 1889SOL    MW4 7629   3.565   1.957   3.148 -0.3126 -0.4265  0.5505
 1890SOL     OW 7630   3.818   2.030   3.011 -0.2664  0.2641  0.1577
 1890SOL    HW2 7631   3.847   2.118   3.035  0.2631  0.3210 -0.6612
 1890SOL    HW3 7632   3.737   2.018   3.060 -0.0912  1.0203  0.6515
 1890SOL    MW4 7633   3.811   2.040   3.021 -0.1736  0.3717  0.1149
 1891SOL     OW 7634   3.858   2.297   3.089 -0.2472  0.2805  0.2095
 1891SOL    HW2 7635   3.860   2.333   3.177  1.9892  1.1396 -0.1516
 1891SOL    HW3 7636   3.777   2.330   3.051 -2.0058 -1.3887  2.4410
 1891SOL    MW4 7637   3.848   2.306   3.095 -0.1841  0.1736  0.4563
 1892SOL     OW 7638   3.601   2.423   3.015 -0.0732 -0.2052  0.7572
 1892SOL    HW2 7639   3.614   2.499   3.073 -0.2245  0.2814  0.1538
 1892SOL    HW3 7640   3.513   2.391   3.037 -1.0362  1.3226 -0.7476
 1892SOL    MW4 7641   3.591   2.429   3.026 -0.2203  0.0606  0.4790
 1893SOL     OW 7642   3.590   2.669   3.149  0.1466  0.1215  0.1133
 1893SOL    HW2 7643   3.659   2.728   3.120 -0.2532  1.0931  1.0866
 1893SOL    HW3 7644   3.508   2.713   3.124 -0.1638  0.2494  1.2948
 1893SOL    MW4 7645   3.588   2.683   3.142  0.0527  0.2663  0.3977
 1894SOL     OW 7646   3.809   2.839   3.042  0.7745  0.2931  0.2649
 1894SOL    HW2 7647   3.813   2.925   3.084  1.3339  0.1377  0.5300
 1894SOL    HW3 7648   3.828   2.856   2.950  0.5376  0.5006  0.2547
 1894SOL    MW4 7649   3.812   2.853   3.035  0.8171  0.2999  0.2985
 1895SOL     OW 7650   3.831   3.109   3.120  0.1521 -0.1884  0.5811
 1895SOL    HW2 7651   3.904   3.160   3.084  0.3391 -0.4983  0.5224
 1895SOL    HW3 7652   3.753   3.156   3.091  0.2863 -0.7214 -0.6864
 1895SOL    MW4 7653   3.830   3.122   3.111  0.1948 -0.2997  0.4063
 1896SOL     OW 7654   3.612   3.244   3.032  0.0803 -0.2641 -0.1148
 1896SOL    HW2 7655   3.542   3.183   3.057  0.1095 -0.7874 -1.2646
 1896SOL    HW3 7656   3.612   3.242   2.936  2.5733 -1.3063 -0.1186
 1896SOL    MW4 7657   3.603   3.236   3.023  0.4132 -0.4702 -0.2670
 1897SOL     OW 7658   3.559   3.495   3.131  0.4001  0.0313 -0.1083
 1897SOL    HW2 7659   3.635   3.533   3.089 -0.2852  0.0239 -1.3737
 1897SOL    HW3 7660   3.561   3.402   3.106 -0.8787  0.3512 -1.4520
 1897SOL    MW4 7661   3.569   3.488   3.123  0.1409  0.0725 -0.4530
 1898SOL     OW 7662   3.778   3.617   3.027  0.1288 -0.0807 -0.6425
 1898SOL    HW2 7663   3.799   3.709   3.044 -1.6202  0.2138 -0.0571
 1898SOL    HW3 7664   3.788   3.608   2.933  0.7773  0.5796 -0.6494
 1898SOL    MW4 7665   3.782   3.628   3.017 -0.0162  0.0455 -0.5662
 1899SOL     OW 7666   3.830   3.900   3.083  0.4519 -0.3858 -0.1231
 1899SOL    HW2 7667   3.831   3.899   3.179  0.7839 -1.1238 -0.1321
 1899SOL    HW3 7668   3.755   3.955   3.060 -0.7182 -1.6576  0.5630
 1899SOL    MW4 7669   3.820   3.907   3.093  0.3417 -0.6509 -0.0339
 1900SOL     OW 7670   3.595   4.039   3.031 -0.0712 -0.0059  0.5709
 1900SOL    HW2 7671   3.540   3.964   3.054  0.4856 -0.6293 -0.0915
 1900SOL    HW3 7672   3.588   4.045   2.935 -0.5187  1.1077  0.6664
 1900SOL    MW4 7673   3.587   4.030   3.021 -0.0567  0.0587  0.4959
 1901SOL     OW 7674   3.565   4.303   3.112 -0.1136 -0.4813  0.4107
 1901SOL    HW2 7675   3.639   4.350   3.073 -0.0516 -0.9723 -0.0831
 1901SOL    HW3 7676   3.579   4.212   3.086 -1.1806 -0.4962 -0.1461
 1901SOL    MW4 7677   3.576   4.297   3.103 -0.2460 -0.5479  0.2723
 1902SOL     OW 7678   3.793   4.420   3.021  0.1991 -0.0691 -0.0405
 1902SOL    HW2 7679   3.867   4.375   3.063 -0.0133 -0.3229  0.0630
 1902SOL    HW3 7680   3.815   4.420   2.927  1.1499  1.3801  0.1630
 1902SOL    MW4 7681   3.806   4.414   3.014  0.2964  0.0887  0.0000
 1903SOL     OW 7682   4.225   0.036   3.137  0.6396  0.0809 -0.0898
 1903SOL    HW2 7683   4.214   0.023   3.232  2.2256  0.7178  0.1808
 1903SOL    HW3 7684   4.226  -0.053   3.102 -1.6972 -0.1312  0.2649
 1903SOL    MW4 7685   4.223   0.022   3.145  0.5403  0.1369 -0.0072
 1904SOL     OW 7686   3.982   0.123   3.031 -0.1513  0.3479 -0.1741
 1904SOL    HW2 7687   4.062   0.091   3.074  0.3092  0.2643 -1.0803
 1904SOL    HW3 7688   3.911   0.074   3.074  0.2214  0.8726  1.0616
 1904SOL    MW4 7689   3.983   0.112   3.042 -0.0415  0.4061 -0.1309
 1905SOL     OW 7690   4.020   0.391   3.115 -0.3234  0.0044 -0.1088
 1905SOL    HW2 7691   4.100   0.420   3.072 -1.4166 -0.3192 -2.4226
 1905SOL    HW3 7692   4.014   0.298   3.095 -0.1096 -0.5016  2.0064
 1905SOL    MW4 7693   4.029   0.383   3.107 -0.4396 -0.1051 -0.1349
 1906SOL     OW 7694   4.266   0.482   3.019  0.0405 -0.0525  0.3754
 1906SOL    HW2 7695   4.259   0.576   3.035 -1.5009  0.0903 -0.9377
 1906SOL    HW3 7696   4.262   0.474   2.923 -1.1993 -1.5361  0.5270
 1906SOL    MW4 7697   4.264   0.493   3.008 -0.3266 -0.2294  0.2217
 1907SOL     OW 7698   4.259   0.764   3.093  0.1633 -0.0840 -0.1570
 1907SOL    HW2 7699   4.185   0.816   3.064  0.3869  0.6115  0.4791
 1907SOL    HW3 7700   4.336   0.813   3.063  0.3917  0.5350  1.3436
 1907SOL    MW4 7701   4.259   0.778   3.085  0.2227  0.0895  0.1247
 1908SOL     OW 7702   4.031   0.902   2.993  0.2843 -0.0418 -0.2889
 1908SOL    HW2 7703   4.026   0.995   3.016  1.7985 -0.0478  0.0995
 1908SOL    HW3 7704   4.031   0.901   2.898 -0.4400  0.3075 -0.2997
 1908SOL    MW4 7705   4.030   0.915   2.984  0.3881  0.0035 -0.2389
 1909SOL     OW 7706   4.006   1.157   3.108 -0.1545 -0.0512 -0.5018
 1909SOL    HW2 7707   3.994   1.137   3.201  0.4105  2.1814  0.0767
 1909SOL    HW3 7708   3.927   1.205   3.083  0.7343  1.4281 -0.5459
 1909SOL    MW4 7709   3.994   1.160   3.117  0.0372  0.4385 -0.4313
 1910SOL     OW 7710   4.228   1.282   3.017 -0.3231 -0.2502 -0.6418
 1910SOL    HW2 7711   4.147   1.235   3.039 -0.2108 -0.3856 -0.5205
 1910SOL    HW3 7712   4.241   1.264   2.924 -1.0932  0.7658 -0.9517
 1910SOL    MW4 7713   4.219   1.274   3.008 -0.4101 -0.1339 -0.6669
 1911SOL     OW 7714   4.240   1.556   3.102  0.0180 -0.0152 -0.1435
 1911SOL    HW2 7715   4.161   1.595   3.065  0.2741  0.0115 -0.6610
 1911SOL    HW3 7716   4.239   1.466   3.070  1.2876  0.5675 -1.8626
 1911SOL    MW4 7717   4.229   1.549   3.093  0.2193  0.0652 -0.4387
 1912SOL     OW 7718   4.008   1.664   2.993  0.0501  0.1532 -0.3894
 1912SOL    HW2 7719   4.015   1.748   3.037 -2.1326  0.6616 -0.9426
 1912SOL    HW3 7720   3.934   1.621   3.036  2.5883 -2.5049  1.4781
 1912SOL    MW4 7721   3.999   1.669   3.004  0.0973 -0.1305 -0.2158
 1913SOL     OW 7722   4.017   1.902   3.137  0.5252  0.1208 -0.1551
 1913SOL    HW2 7723   4.096   1.950   3.114  0.6574  0.5141  1.1088
 1913SOL    HW3 7724   3.945   1.956   3.104  0.7354  0.3136 -0.2967
 1913SOL    MW4 7725   4.018   1.915   3.130  0.5703  0.1981 -0.0067
 1914SOL     OW 7726   4.234   2.066   3.046  0.6531 -0.1480  0.3731
 1914SOL    HW2 7727   4.240   2.160   3.064 -0.3294 -0.1362  0.6782
 1914SOL    HW3 7728   4.238   2.060   2.950 -0.7221  0.3321  0.2734
 1914SOL    MW4 7729   4.235   2.078   3.035  0.3419 -0.0827  0.4001
 1915SOL     OW 7730   4.272   2.338   3.095  0.2294 -0.1099 -0.3027
 1915SOL    HW2 7731   4.200   2.387   3.055  0.1606  0.9398  1.0787
 1915SOL    HW3 7732   4.351   2.372   3.054  0.2117  1.4680  0.9479
 1915SOL    MW4 7733   4.273   2.349   3.084  0.2179  0.2367  0.0443
 1916SOL     OW 7734   4.052   2.479   2.994 -0.3259 -0.2384 -0.2290
 1916SOL    HW2 7735   4.053   2.556   3.051 -1.8114 -0.1004 -0.3685
 1916SOL    HW3 7736   3.981   2.425   3.028 -1.8797  0.2974 -2.4868
 1916SOL    MW4 7737   4.043   2.482   3.006 -0.7267 -0.1495 -0.5453
 1917SOL     OW 7738   4.042   2.720   3.125 -0.5442 -0.6965  0.1947
 1917SOL    HW2 7739   4.044   2.725   3.221  1.1803 -0.4954  0.1716
 1917SOL    HW3 7740   3.974   2.783   3.100 -1.1809 -0.9268  1.2927
 1917SOL    MW4 7741   4.034   2.729   3.135 -0.4010 -0.7002  0.3366
 1918SOL     OW 7742   4.275   2.851   3.025  0.1363  0.3013  0.4057
 1918SOL    HW2 7743   4.201   2.803   3.063 -0.7965  0.5149 -1.1118
 1918SOL    HW3 7744   4.352   2.800   3.049 -0.6644 -0.8527  0.5335
 1918SOL    MW4 7745   4.275   2.838   3.033 -0.0920  0.1769  0.2222
 1919SOL     OW 7746   4.253   3.101   3.114 -0.2751 -0.0768 -0.0095
 1919SOL    HW2 7747   4.263   3.090   3.209  0.7588 -0.8673 -0.1927
 1919SOL    HW3 7748   4.249   3.011   3.081 -0.3253  0.1972 -0.7467
 1919SOL    MW4 7749   4.254   3.087   3.122 -0.1454 -0.1450 -0.1309
 1920SOL     OW 7750   4.057   3.255   3.003  0.1898  0.0360 -0.3268
 1920SOL    HW2 7751   4.062   3.340   3.045 -2.7102  0.1457 -0.1132
 1920SOL    HW3 7752   4.122   3.201   3.048 -0.1792  1.2367  1.6705
 1920SOL    MW4 7753   4.066   3.259   3.014 -0.2413  0.2091 -0.0350
 1921SOL     OW 7754   4.027   3.487   3.120  0.2210  0.1642  0.4029
 1921SOL    HW2 7755   4.015   3.470   3.213  1.7455  1.8601  0.9377
 1921SOL    HW3 7756   3.945   3.527   3.092 -0.0485  0.1238  1.1293
 1921SOL    MW4 7757   4.015   3.490   3.129  0.3867  0.3827  0.5691
 1922SOL     OW 7758   4.258   3.609   3.046 -0.2243 -0.2870  0.0645
 1922SOL    HW2 7759   4.261   3.705   3.052  0.7888 -0.3202  0.3028
 1922SOL    HW3 7760   4.176   3.585   3.089  0.3280  0.3858  1.5694
 1922SOL    MW4 7761   4.248   3.618   3.053 -0.0176 -0.2027  0.2947
 1923SOL     OW 7762   4.270   3.890   3.065 -0.3349 -0.0068 -0.1924
 1923SOL    HW2 7763   4.192   3.932   3.028  0.3119  0.0389 -1.5053
 1923SOL    HW3 7764   4.342   3.948   3.042  0.3009 -0.8439 -0.3233
 1923SOL    MW4 7765   4.269   3.903   3.057 -0.1659 -0.1111 -0.3827
 1924SOL     OW 7766   4.050   4.023   2.961 -0.5651 -0.1846 -0.0256
 1924SOL    HW2 7767   4.029   4.109   2.998 -1.6463 -0.3846 -0.1578
 1924SOL    HW3 7768   3.990   3.963   3.005 -0.1185 -0.8051 -0.2669
 1924SOL    MW4 7769   4.040   4.026   2.972 -0.6495 -0.2928 -0.0746
 1925SOL     OW 7770   4.022   4.277   3.071  0.2611  0.2252  0.0995
 1925SOL    HW2 7771   4.029   4.254   3.164  0.2747  0.3634  0.1333
 1925SOL    HW3 7772   4.085   4.348   3.059 -0.2060  0.6498  0.1339
 1925SOL    MW4 7773   4.031   4.283   3.082  0.2012  0.2995  0.1085
 1926SOL     OW 7774   4.239   4.472   3.019  0.1097 -0.1203 -0.2559
 1926SOL    HW2 7775   4.305   4.422   3.067 -0.5807 -0.1867  0.6431
 1926SOL    HW3 7776   4.253   4.448   2.927  1.2176 -0.2562 -0.0648
 1926SOL    MW4 7777   4.250   4.462   3.013  0.1645 -0.1473 -0.1125
 1927SOL     OW 7778   0.231   4.663   3.396 -0.0345 -0.2804  0.2452
 1927SOL    HW2 7779   0.294   4.717   3.443 -2.0531  1.0224  1.5479
 1927SOL    HW3 7780   0.228   4.581   3.445 -1.0221  0.5158  1.5391
 1927SOL    MW4 7781   0.239   4.659   3.408 -0.4311 -0.0034  0.5879
 1928SOL     OW 7782   4.490   0.098   3.486 -0.3113 -0.3724  0.3120
 1928SOL    HW2 7783   4.499   0.192   3.471 -1.1653 -0.3516 -0.1331
 1928SOL    HW3 7784   4.570   0.060   3.450  1.2047  0.4054  2.7792
 1928SOL    MW4 7785   4.502   0.106   3.479 -0.2246 -0.2671  0.5786
 1929SOL     OW 7786   4.483   0.360   3.397  0.0366 -0.3227  0.0641
 1929SOL    HW2 7787   4.401   0.390   3.435  0.2794  2.4148 -1.4475
 1929SOL    HW3 7788   4.550   0.412   3.442  0.7101 -0.5599 -0.6613
 1929SOL    MW4 7789   4.481   0.371   3.408  0.1574  0.0072 -0.2310
 1930SOL     OW 7790   0.234   0.518   3.506  0.5917  0.4115 -0.2238
 1930SOL    HW2 7791   0.309   0.475   3.464 -0.2365  0.0463 -1.3706
 1930SOL    HW3 7792   0.227   0.603   3.462  0.7350  0.7204  0.3435
 1930SOL    MW4 7793   0.243   0.523   3.494  0.5014  0.4041 -0.2999
 1931SOL     OW 7794   0.244   0.770   3.358  0.0079 -0.3875  0.5211
 1931SOL    HW2 7795   0.293   0.842   3.398 -0.6634  0.4551 -0.1537
 1931SOL    HW3 7796   0.152   0.788   3.379 -0.3126 -0.1853 -0.9718
 1931SOL    MW4 7797   0.238   0.782   3.366 -0.1229 -0.2497  0.2346
 1932SOL     OW 7798   0.001   0.869   3.457 -0.0310 -0.1303  0.0018
 1932SOL    HW2 7799   0.014   0.855   3.551 -0.7718  0.8105  0.2552
 1932SOL    HW3 7800  -0.023   0.961   3.450  1.2414  0.1067 -1.2551
 1932SOL    MW4 7801  -0.001   0.879   3.468  0.0391  0.0251 -0.1309
 1933SOL     OW 7802   4.436   1.138   3.401  0.0949  0.3309  0.0595
 1933SOL    HW2 7803   4.511   1.176   3.446  1.6471 -0.3190 -1.9070
 1933SOL    HW3 7804   4.448   1.163   3.309 -0.9520 -1.5751 -0.6291
 1933SOL    MW4 7805   4.447   1.146   3.395  0.1612 -0.0063 -0.2906
 1934SOL     OW 7806   0.177   1.308   3.487  0.4386 -0.4234 -0.0194
 1934SOL    HW2 7807   0.251   1.258   3.455 -0.5027 -0.6664 -1.8611
 1934SOL    HW3 7808   0.174   1.385   3.431  0.1431  0.2898  0.9586
 1934SOL    MW4 7809   0.186   1.312   3.476  0.2754 -0.3613 -0.1335
 1935SOL     OW 7810   0.223   1.566   3.393 -0.1200 -0.4133  0.3616
 1935SOL    HW2 7811   0.301   1.610   3.428 -0.2806 -0.7057  1.0903
 1935SOL    HW3 7812   0.236   1.567   3.298  1.0305 -0.9146  0.5014
 1935SOL    MW4 7813   0.235   1.572   3.385  0.0106 -0.5180  0.4766
 1936SOL     OW 7814   4.487   1.666   3.494  0.2336  0.1516  0.0943
 1936SOL    HW2 7815   4.417   1.613   3.454  1.3296 -1.0159 -0.3204
 1936SOL    HW3 7816   4.567   1.632   3.455  1.2223 -0.0426  2.2467
 1936SOL    MW4 7817   4.488   1.654   3.484  0.5088 -0.0279  0.3235
 1937SOL     OW 7818   4.483   1.933   3.425  0.5893  0.2327  0.0075
 1937SOL    HW2 7819   4.479   1.843   3.456  1.3855 -0.0881 -0.7688
 1937SOL    HW3 7820   4.475   1.926   3.330 -0.1158  1.0475  0.0006
 1937SOL    MW4 7821   4.482   1.920   3.416  0.6018  0.2979 -0.0958
 1938SOL     OW 7822   0.223   2.057   3.468 -0.0413  0.1690 -0.0310
 1938SOL    HW2 7823   0.216   2.075   3.562 -1.4782  1.6451 -0.3961
 1938SOL    HW3 7824   0.142   2.012   3.446  0.5551 -0.7091 -0.4716
 1938SOL    MW4 7825   0.211   2.053   3.478 -0.1522  0.2480 -0.1376
 1939SOL     OW 7826   0.222   2.323   3.374  0.1046  0.2518 -0.1641
 1939SOL    HW2 7827   0.146   2.362   3.416  1.4541  0.8133  1.8094
 1939SOL    HW3 7828   0.229   2.236   3.414  0.3191  0.0769 -0.5789
 1939SOL    MW4 7829   0.213   2.317   3.385  0.3110  0.3028  0.0415
 1940SOL     OW 7830   0.015   2.442   3.499  0.3305  0.1137 -0.1455
 1940SOL    HW2 7831   0.005   2.438   3.594 -0.5665 -0.2984 -0.2429
 1940SOL    HW3 7832  -0.060   2.392   3.466  1.3063 -0.7938 -1.0385
 1940SOL    MW4 7833   0.003   2.435   3.507  0.3409 -0.0603 -0.2763
 1941SOL     OW 7834   4.471   2.707   3.410 -0.3427 -0.1487 -0.7773
 1941SOL    HW2 7835   4.546   2.762   3.433  0.3602 -1.2254 -0.4646
 1941SOL    HW3 7836   4.484   2.626   3.461 -1.8327 -0.2485 -0.5488
 1941SOL    MW4 7837   4.483   2.703   3.420 -0.4468 -0.3040 -0.7057
 1942SOL     OW 7838   0.208   2.837   3.481  0.2674  0.1269 -0.2744
 1942SOL    HW2 7839   0.298   2.807   3.471  0.1504 -0.4124  0.3031
 1942SOL    HW3 7840   0.209   2.925   3.443  1.6192  1.1052  1.8423
 1942SOL    MW4 7841   0.220   2.845   3.475  0.4303  0.1850  0.0811
 1943SOL     OW 7842   0.209   3.097   3.360 -0.0068 -0.2709 -0.0076
 1943SOL    HW2 7843   0.137   3.153   3.387 -0.1897 -0.6453  0.2849
 1943SOL    HW3 7844   0.217   3.111   3.266 -0.2415  0.0249  0.0176
 1943SOL    MW4 7845   0.201   3.106   3.352 -0.0619 -0.2811  0.0343
 1944SOL     OW 7846   0.001   3.234   3.479 -0.4015 -0.1309  0.0528
 1944SOL    HW2 7847   0.005   3.242   3.575  1.8284  0.7110 -0.0684
 1944SOL    HW3 7848  -0.023   3.322   3.449  1.3516  0.2706 -0.2443
 1944SOL    MW4 7849  -0.002   3.247   3.488  0.1240  0.0331 -0.0026
 1945SOL     OW 7850   4.454   3.499   3.375 -0.0647 -0.0859  0.6823
 1945SOL    HW2 7851   4.372   3.546   3.390  0.2648 -0.0052  2.2695
 1945SOL    HW3 7852   4.461   3.493   3.279 -1.3824  0.8362  0.5206
 1945SOL    MW4 7853   4.444   3.504   3.364 -0.1955  0.0463  0.8702
 1946SOL     OW 7854   0.196   3.631   3.480 -0.0583 -0.4160  0.0641
 1946SOL    HW2 7855   0.198   3.621   3.575 -1.0370  0.4338  0.1810
 1946SOL    HW3 7856   0.112   3.594   3.454  0.0677 -0.3551 -0.4370
 1946SOL    MW4 7857   0.185   3.625   3.489 -0.1708 -0.2959  0.0134
 1947SOL     OW 7858   0.235   3.893   3.400  0.3160  0.2941 -0.2857
 1947SOL    HW2 7859   0.156   3.946   3.411  0.7874  1.3627 -1.8729
 1947SOL    HW3 7860   0.208   3.804   3.425 -0.9830  0.9241  0.5940
 1947SOL    MW4 7861   0.221   3.888   3.405  0.2068  0.5181 -0.3791
 1948SOL     OW 7862   4.473   4.026   3.475 -0.4190  0.2409 -0.0243
 1948SOL    HW2 7863   4.486   4.029   3.570 -0.4055 -0.9107  0.0225
 1948SOL    HW3 7864   4.479   4.117   3.447 -1.1035  0.6656  1.1730
 1948SOL    MW4 7865   4.475   4.038   3.484 -0.5074  0.1450  0.1400
 1949SOL     OW 7866   0.019   4.291   3.405 -0.3146  0.1970  0.5027
 1949SOL    HW2 7867  -0.064   4.324   3.440 -1.0640 -0.4944 -0.6070
 1949SOL    HW3 7868   0.085   4.348   3.444 -1.3687  1.2715  0.7570
 1949SOL    MW4 7869   0.017   4.303   3.415 -0.5526  0.2480  0.3898
 1950SOL     OW 7870   0.225   4.423   3.533  0.2425 -0.4877  0.3840
 1950SOL    HW2 7871   0.269   4.427   3.618  0.7142  2.0328  0.0442
 1950SOL    HW3 7872   0.284   4.371   3.479  0.4616 -1.1905  1.2804
 1950SOL    MW4 7873   0.239   4.417   3.537  0.3336 -0.2475  0.4575
 1951SOL     OW 7874   0.637   4.650   3.386 -0.5806 -0.1360  0.0289
 1951SOL    HW2 7875   0.700   4.712   3.423 -1.9432  0.9409  0.6034
 1951SOL    HW3 7876   0.647   4.658   3.292 -0.1003  0.2961  0.1166
 1951SOL    MW4 7877   0.647   4.659   3.379 -0.6971  0.0631  0.1161
 1952SOL     OW 7878   0.438   0.147   3.492  0.0198  0.4033 -0.2937
 1952SOL    HW2 7879   0.451   0.130   3.586 -0.6952  0.7245 -0.1400
 1952SOL    HW3 7880   0.500   0.088   3.449 -1.2249 -1.3860  0.3079
 1952SOL    MW4 7881   0.448   0.137   3.499 -0.2388  0.2096 -0.1941
 1953SOL     OW 7882   0.460   0.409   3.401  0.3684 -0.0568  0.6010
 1953SOL    HW2 7883   0.532   0.467   3.423 -0.2456  1.1382 -0.4768
 1953SOL    HW3 7884   0.477   0.329   3.451  2.8266 -0.0800 -0.2007
 1953SOL    MW4 7885   0.471   0.406   3.410  0.6117  0.0978  0.3533
 1954SOL     OW 7886   0.678   0.548   3.454 -0.2130 -0.5246  0.1262
 1954SOL    HW2 7887   0.702   0.550   3.547 -1.2863 -0.6159  0.4119
 1954SOL    HW3 7888   0.752   0.504   3.411 -0.3411 -1.7522  1.1318
 1954SOL    MW4 7889   0.691   0.543   3.461 -0.3715 -0.6987  0.2964
 1955SOL     OW 7890   0.688   0.805   3.359 -0.0376 -0.0335  0.0057
 1955SOL    HW2 7891   0.608   0.856   3.366 -0.5017 -0.6997 -0.3810
 1955SOL    HW3 7892   0.669   0.722   3.403  0.9680  0.4154  1.3214
 1955SOL    MW4 7893   0.675   0.801   3.366  0.0338 -0.0622  0.1283
 1956SOL     OW 7894   0.452   0.935   3.454  0.3834  0.1673  0.0714
 1956SOL    HW2 7895   0.427   0.945   3.546  0.5367  0.0344  0.1287
 1956SOL    HW3 7896   0.457   1.024   3.421  0.9772  0.2491  0.3676
 1956SOL    MW4 7897   0.449   0.948   3.462  0.4820  0.1606  0.1180
 1957SOL     OW 7898   0.424   1.203   3.407 -0.2722  0.1874 -0.3076
 1957SOL    HW2 7899   0.502   1.246   3.442  0.2604 -1.3842  0.4692
 1957SOL    HW3 7900   0.437   1.205   3.312  0.1582  0.9401 -0.2406
 1957SOL    MW4 7901   0.436   1.209   3.399 -0.1451  0.0794 -0.1962
 1958SOL     OW 7902   0.660   1.307   3.503  0.0165  0.1449  0.0149
 1958SOL    HW2 7903   0.734   1.275   3.451 -1.5507 -1.4264 -1.3054
 1958SOL    HW3 7904   0.639   1.392   3.466 -0.2615 -0.3982 -1.0831
 1958SOL    MW4 7905   0.667   1.314   3.491 -0.2269 -0.1341 -0.3037
 1959SOL     OW 7906   0.656   1.556   3.382 -0.0630  0.1425  0.4593
 1959SOL    HW2 7907   0.739   1.600   3.398 -0.7377  1.7999 -0.5250
 1959SOL    HW3 7908   0.589   1.618   3.411 -0.9936 -0.6637  0.0742
 1959SOL    MW4 7909   0.658   1.570   3.388 -0.2748  0.2549  0.2787
 1960SOL     OW 7910   0.451   1.718   3.465  0.3199  0.6084  0.0378
 1960SOL    HW2 7911   0.464   1.705   3.559 -1.7799 -1.0234  0.1468
 1960SOL    HW3 7912   0.479   1.808   3.449  1.7901  0.5309  2.0054
 1960SOL    MW4 7913   0.456   1.728   3.475  0.2368  0.3828  0.3119
 1961SOL     OW 7914   0.468   1.971   3.348 -0.0968  0.0726 -0.3626
 1961SOL    HW2 7915   0.378   1.980   3.380 -0.7198 -2.7078 -1.1802
 1961SOL    HW3 7916   0.462   1.985   3.254  0.2888 -0.3165 -0.4480
 1961SOL    MW4 7917   0.455   1.974   3.340 -0.1282 -0.3456 -0.4821
 1962SOL     OW 7918   0.649   2.098   3.517 -0.4778  0.1687  0.3527
 1962SOL    HW2 7919   0.610   2.067   3.599 -1.1616 -0.5008 -0.2267
 1962SOL    HW3 7920   0.588   2.072   3.449  0.4740  0.0291 -0.4655
 1962SOL    MW4 7921   0.636   2.091   3.519 -0.4424  0.0620  0.1681
 1963SOL     OW 7922   0.681   2.345   3.392 -0.0698  0.1038 -0.4814
 1963SOL    HW2 7923   0.751   2.384   3.444 -1.5072  1.2002  0.6446
 1963SOL    HW3 7924   0.672   2.256   3.427 -0.7594  0.7023  0.8773
 1963SOL    MW4 7925   0.689   2.338   3.403 -0.3505  0.3273 -0.1535
 1964SOL     OW 7926   0.438   2.462   3.477  0.0115 -0.3468 -0.0667
 1964SOL    HW2 7927   0.518   2.416   3.451 -0.4094 -0.8196 -0.5520
 1964SOL    HW3 7928   0.368   2.414   3.434 -0.7412 -1.2784  2.1609
 1964SOL    MW4 7929   0.439   2.450   3.468 -0.1433 -0.5324  0.1633
 1965SOL     OW 7930   0.462   2.739   3.416  0.1285 -0.1369 -0.1768
 1965SOL    HW2 7931   0.464   2.652   3.457 -0.1836  0.5485  1.3394
 1965SOL    HW3 7932   0.456   2.721   3.322 -2.4896 -1.7531  0.2433
 1965SOL    MW4 7933   0.462   2.725   3.409 -0.2581 -0.2596  0.0789
 1966SOL     OW 7934   0.687   2.873   3.500 -0.3337  0.5286  0.2241
 1966SOL    HW2 7935   0.771   2.839   3.469  0.9711  1.2678  2.8057
 1966SOL    HW3 7936   0.625   2.803   3.479  1.3056 -0.9969  0.2318
 1966SOL    MW4 7937   0.690   2.859   3.493  0.0548  0.4249  0.5658
 1967SOL     OW 7938   0.641   3.086   3.329  0.2263  0.4931 -0.4644
 1967SOL    HW2 7939   0.580   3.142   3.377  0.4009  0.0402  0.2752
 1967SOL    HW3 7940   0.647   3.006   3.380  1.4888  0.5533 -0.5018
 1967SOL    MW4 7941   0.634   3.083   3.342  0.4159  0.4411 -0.3717
 1968SOL     OW 7942   0.432   3.225   3.464  0.1606  0.5223 -0.1319
 1968SOL    HW2 7943   0.434   3.231   3.559  0.1379 -2.5987  0.1045
 1968SOL    HW3 7944   0.352   3.177   3.444  0.3345  0.8620 -1.7083
 1968SOL    MW4 7945   0.422   3.220   3.474  0.1806  0.1554 -0.3090
 1969SOL     OW 7946   0.451   3.497   3.429 -0.1528 -0.1954 -0.3091
 1969SOL    HW2 7947   0.444   3.404   3.447  0.4016 -0.2565 -0.4092
 1969SOL    HW3 7948   0.364   3.532   3.448  0.4041 -0.2570  2.4849
 1969SOL    MW4 7949   0.439   3.489   3.433 -0.0062 -0.2117  0.0465
 1970SOL     OW 7950   0.656   3.688   3.484 -0.0540 -0.0087 -0.4137
 1970SOL    HW2 7951   0.723   3.627   3.452 -0.2888 -0.3893 -0.1817
 1970SOL    HW3 7952   0.574   3.639   3.478  0.0088 -0.3706  1.5214
 1970SOL    MW4 7953   0.654   3.673   3.479 -0.0767 -0.1063 -0.1278
 1971SOL     OW 7954   0.647   3.953   3.438 -0.3120 -0.0190  0.5218
 1971SOL    HW2 7955   0.558   3.972   3.467 -0.2557  0.2165  0.5370
 1971SOL    HW3 7956   0.667   3.867   3.477  0.0132  0.5940  1.7454
 1971SOL    MW4 7957   0.638   3.944   3.447 -0.2617  0.0932  0.6852
 1972SOL     OW 7958   0.415   4.048   3.539 -0.3769  0.2664 -0.6932
 1972SOL    HW2 7959   0.435   4.125   3.485 -0.7713  0.7213 -0.1935
 1972SOL    HW3 7960   0.342   4.006   3.493  0.6757 -0.5232 -1.6630
 1972SOL    MW4 7961   0.408   4.053   3.526 -0.2901  0.2222 -0.7553
 1973SOL     OW 7962   0.410   4.275   3.389  0.0046  0.3553 -0.1303
 1973SOL    HW2 7963   0.485   4.324   3.424 -0.8271  0.5776  1.3951
 1973SOL    HW3 7964   0.424   4.275   3.295  1.3963  1.2761  0.0478
 1973SOL    MW4 7965   0.422   4.281   3.382  0.0785  0.5059  0.0944
 1974SOL     OW 7966   0.635   4.389   3.489  0.0756 -0.5411  0.0917
 1974SOL    HW2 7967   0.724   4.355   3.481  0.5372  1.0178 -1.7828
 1974SOL    HW3 7968   0.639   4.476   3.451 -2.6023 -1.0553 -1.5195
 1974SOL    MW4 7969   0.647   4.396   3.483 -0.2168 -0.4025 -0.3684
 1975SOL     OW 7970   1.050   0.041   3.394  0.3079 -0.2694 -0.3114
 1975SOL    HW2 7971   1.135   0.061   3.434  0.1492  1.1733 -0.6509
 1975SOL    HW3 7972   1.070   0.027   3.302  0.2050 -0.0901 -0.3612
 1975SOL    MW4 7973   1.064   0.042   3.387  0.2733 -0.0554 -0.3626
 1976SOL     OW 7974   0.806   0.171   3.491  0.3419 -0.3346 -0.0318
 1976SOL    HW2 7975   0.797   0.176   3.586  1.6372 -1.9421  0.1922
 1976SOL    HW3 7976   0.891   0.131   3.477 -0.3602 -1.2422 -1.8592
 1976SOL    MW4 7977   0.816   0.167   3.502  0.4201 -0.6664 -0.2432
 1977SOL     OW 7978   0.862   0.381   3.333 -0.1470  0.1164 -0.1756
 1977SOL    HW2 7979   0.940   0.401   3.385  0.1777 -0.0151 -0.6156
 1977SOL    HW3 7980   0.824   0.304   3.376 -0.7120  0.9087  0.7681
 1977SOL    MW4 7981   0.867   0.373   3.346 -0.1787  0.2036 -0.1092
 1978SOL     OW 7982   1.113   0.492   3.468 -0.1116 -0.4490 -0.1192
 1978SOL    HW2 7983   1.119   0.493   3.563  2.4016 -0.6716 -0.2406
 1978SOL    HW3 7984   1.141   0.579   3.441 -0.0546 -0.6382 -0.6775
 1978SOL    MW4 7985   1.117   0.503   3.477  0.2273 -0.5033 -0.2086
 1979SOL     OW 7986   1.146   0.747   3.351 -0.3203 -0.4749 -0.2689
 1979SOL    HW2 7987   1.223   0.798   3.378  0.0599 -0.8286 -0.6664
 1979SOL    HW3 7988   1.071   0.802   3.375  0.0272 -0.4268  0.7663
 1979SOL    MW4 7989   1.146   0.761   3.358 -0.2241 -0.5153 -0.1845
 1980SOL     OW 7990   0.941   0.926   3.413  0.2795  0.3684  0.1817
 1980SOL    HW2 7991   0.936   1.022   3.408 -1.1764  0.3766  1.4717
 1980SOL    HW3 7992   0.854   0.897   3.386  0.6209 -0.5845  0.1028
 1980SOL    MW4 7993   0.929   0.935   3.409  0.1324  0.2438  0.3414
 1981SOL     OW 7994   0.886   1.204   3.372 -0.2151  0.7788 -0.2716
 1981SOL    HW2 7995   0.966   1.253   3.390  0.1046  0.1033  0.1836
 1981SOL    HW3 7996   0.894   1.176   3.281  0.2897  0.2989 -0.0780
 1981SOL    MW4 7997   0.897   1.207   3.362 -0.1063  0.6263 -0.1860
 1982SOL     OW 7998   1.129   1.315   3.478  0.0535 -0.3994  0.5333
 1982SOL    HW2 7999   1.110   1.282   3.565  1.4349 -0.4100  0.8425
 1982SOL    HW3 8000   1.125   1.411   3.487 -1.0770 -0.4160  0.3014
 1982SOL    MW4 8001   1.126   1.324   3.490  0.0867 -0.4029  0.5436
 1983SOL     OW 8002   1.151   1.589   3.424 -0.2795 -0.6959  0.0808
 1983SOL    HW2 8003   1.240   1.622   3.440  0.4535 -2.6469  0.0865
 1983SOL    HW3 8004   1.148   1.573   3.330 -0.6701 -0.5698  0.0689
 1983SOL    MW4 8005   1.162   1.591   3.414 -0.2342 -0.9369  0.0799
 1984SOL     OW 8006   0.893   1.696   3.481  0.1501 -0.4294  0.0610
 1984SOL    HW2 8007   0.892   1.790   3.467  1.3239 -0.4286 -0.0223
 1984SOL    HW3 8008   0.984   1.670   3.467 -0.3913 -1.7544 -1.0819
 1984SOL    MW4 8009   0.905   1.705   3.477  0.2336 -0.6042 -0.1009
 1985SOL     OW 8010   0.867   1.973   3.389 -0.0634 -0.4657 -0.1113
 1985SOL    HW2 8011   0.953   2.009   3.412 -1.1071  0.8382  1.9843
 1985SOL    HW3 8012   0.805   2.022   3.444 -2.1199 -1.6120 -1.3241
 1985SOL    MW4 8013   0.870   1.984   3.400 -0.4724 -0.4450  0.0050
 1986SOL     OW 8014   1.104   2.066   3.512 -0.2936 -0.4225  0.1012
 1986SOL    HW2 8015   1.175   2.025   3.462 -0.5762 -1.2755  0.3964
 1986SOL    HW3 8016   1.108   2.158   3.486 -0.1800 -0.7793 -1.1967
 1986SOL    MW4 8017   1.114   2.073   3.502 -0.3158 -0.5822 -0.0312
 1987SOL     OW 8018   1.139   2.328   3.415 -0.6281 -0.1585 -0.0522
 1987SOL    HW2 8019   1.218   2.378   3.437 -1.0936  0.0967  1.0709
 1987SOL    HW3 8020   1.135   2.331   3.319 -0.4970  1.7213 -0.0207
 1987SOL    MW4 8021   1.149   2.335   3.405 -0.6722  0.1230  0.1004
 1988SOL     OW 8022   0.904   2.431   3.523 -0.0105 -0.1205 -0.2742
 1988SOL    HW2 8023   0.874   2.406   3.610 -2.0269  0.0670 -0.8910
 1988SOL    HW3 8024   0.978   2.373   3.506 -0.6198 -1.2755  0.9121
 1988SOL    MW4 8025   0.910   2.420   3.532 -0.3569 -0.2482 -0.1991
 1989SOL     OW 8026   0.899   2.692   3.411 -0.3547 -0.0991 -0.2400
 1989SOL    HW2 8027   0.973   2.733   3.457 -0.9336  0.9930 -0.2542
 1989SOL    HW3 8028   0.891   2.605   3.449 -0.2255  0.4496  1.0601
 1989SOL    MW4 8029   0.908   2.686   3.422 -0.4140  0.1175 -0.0706
 1990SOL     OW 8030   1.096   2.845   3.529 -0.3039  0.3533 -0.3587
 1990SOL    HW2 8031   1.090   2.824   3.623  0.4154  0.7144 -0.2264
 1990SOL    HW3 8032   1.175   2.800   3.499 -0.5701  0.1866 -0.8086
 1990SOL    MW4 8033   1.106   2.837   3.538 -0.2441  0.3791 -0.4005
 1991SOL     OW 8034   1.142   3.098   3.423 -0.1181  0.2657 -0.2609
 1991SOL    HW2 8035   1.131   3.009   3.455  2.6354  0.2255  0.7140
 1991SOL    HW3 8036   1.133   3.091   3.328  1.1411 -1.2175 -0.2824
 1991SOL    MW4 8037   1.139   3.086   3.415  0.4113  0.0646 -0.1349
 1992SOL     OW 8038   0.880   3.256   3.454 -0.4356  0.0049  0.0586
 1992SOL    HW2 8039   0.967   3.223   3.430 -0.1099  0.5459  0.4623
 1992SOL    HW3 8040   0.819   3.195   3.414  0.1086  0.3650 -1.3375
 1992SOL    MW4 8041   0.883   3.244   3.446 -0.3209  0.1237 -0.0722
 1993SOL     OW 8042   0.858   3.519   3.402  0.1013  0.2698 -0.2557
 1993SOL    HW2 8043   0.853   3.430   3.436 -0.3994  0.5418  0.3918
 1993SOL    HW3 8044   0.872   3.508   3.308  1.3662 -0.4857  0.0131
 1993SOL    MW4 8045   0.859   3.506   3.394  0.2021  0.2060 -0.1349
 1994SOL     OW 8046   1.124   3.639   3.449 -0.1151 -0.5559 -0.0826
 1994SOL    HW2 8047   1.133   3.639   3.545  0.1844  0.1683 -0.1105
 1994SOL    HW3 8048   1.036   3.603   3.434 -0.6712  0.5288  0.5184
 1994SOL    MW4 8049   1.113   3.634   3.460 -0.1490 -0.3171 -0.0069
 1995SOL     OW 8050   1.118   3.918   3.346 -0.5657 -0.3189 -0.2348
 1995SOL    HW2 8051   1.179   3.968   3.400  0.6934 -0.6509 -1.3385
 1995SOL    HW3 8052   1.138   3.827   3.365 -0.9514 -0.4269 -0.3503
 1995SOL    MW4 8053   1.128   3.913   3.356 -0.4506 -0.3767 -0.3958
 1996SOL     OW 8054   0.920   4.010   3.515 -0.1852  0.2149 -0.0152
 1996SOL    HW2 8055   0.986   3.978   3.454  0.4354  0.3428  0.5824
 1996SOL    HW3 8056   0.837   3.985   3.476  0.2233 -0.0540 -0.7145
 1996SOL    MW4 8057   0.918   4.002   3.502 -0.0495  0.1965 -0.0286
 1997SOL     OW 8058   0.882   4.298   3.420 -0.2894  0.0833  0.1579
 1997SOL    HW2 8059   0.871   4.210   3.459 -0.2629 -0.0207 -0.0726
 1997SOL    HW3 8060   0.903   4.281   3.329  0.4969  0.3172  0.2947
 1997SOL    MW4 8061   0.883   4.284   3.413 -0.1821  0.1001  0.1454
 1998SOL     OW 8062   1.103   4.449   3.464 -0.3208 -0.3093  0.3661
 1998SOL    HW2 8063   1.025   4.401   3.438  0.1994 -1.1234  0.2872
 1998SOL    HW3 8064   1.083   4.541   3.444 -0.8714 -0.6291 -0.5855
 1998SOL    MW4 8065   1.090   4.455   3.458 -0.3250 -0.4582  0.2306
 1999SOL     OW 8066   1.604   4.638   3.398  0.0143 -0.3612 -0.1187
 1999SOL    HW2 8067   1.618   4.550   3.434  0.7637  0.2772  1.2309
 1999SOL    HW3 8068   1.520   4.665   3.434 -0.4257 -0.6901 -0.8917
 1999SOL    MW4 8069   1.595   4.630   3.408  0.0551 -0.3204 -0.0427
 2000SOL     OW 8070   1.332   0.087   3.473  0.3439 -0.0358 -0.1730
 2000SOL    HW2 8071   1.352   0.092   3.566  1.3868 -0.3692 -0.3789
 2000SOL    HW3 8072   1.334   0.177   3.443 -3.0388  0.4111  0.7483
 2000SOL    MW4 8073   1.335   0.099   3.481  0.0353 -0.0208 -0.0784
 2001SOL     OW 8074   1.332   0.346   3.389 -0.2724 -0.0803  0.4410
 2001SOL    HW2 8075   1.403   0.400   3.422 -0.4984  0.1811  0.5039
 2001SOL    HW3 8076   1.253   0.386   3.425 -0.5325  0.2761 -0.5162
 2001SOL    MW4 8077   1.331   0.359   3.398 -0.3366  0.0013  0.3231
 2002SOL     OW 8078   1.571   0.478   3.471 -0.3026 -0.1328  0.0429
 2002SOL    HW2 8079   1.581   0.491   3.565 -1.2614 -2.4246  0.4898
 2002SOL    HW3 8080   1.655   0.441   3.443  0.0152  0.6338 -0.0367
 2002SOL    MW4 8081   1.583   0.475   3.480 -0.3871 -0.3340  0.0916
 2003SOL     OW 8082   1.561   0.739   3.374 -0.4245  0.0729 -0.2603
 2003SOL    HW2 8083   1.494   0.778   3.429 -1.0279  0.1452 -1.0482
 2003SOL    HW3 8084   1.558   0.645   3.396  0.3369  0.3050  0.8889
 2003SOL    MW4 8085   1.552   0.732   3.384 -0.4038  0.1131 -0.2127
 2004SOL     OW 8086   1.355   0.862   3.502  0.1090 -0.0217 -0.2866
 2004SOL    HW2 8087   1.342   0.853   3.596 -2.7264  1.2692 -0.5042
 2004SOL    HW3 8088   1.358   0.957   3.487 -0.0612 -0.2037 -1.5614
 2004SOL    MW4 8089   1.354   0.874   3.512 -0.2878  0.1245 -0.4833
 2005SOL     OW 8090   1.339   1.145   3.420 -0.1178  0.2673  0.0298
 2005SOL    HW2 8091   1.417   1.201   3.428  0.3425 -0.0072 -2.2829
 2005SOL    HW3 8092   1.266   1.203   3.445  0.6976  0.8388  1.1523
 2005SOL    MW4 8093   1.339   1.160   3.425  0.0505  0.3065 -0.1273
 2006SOL     OW 8094   1.572   1.290   3.474 -0.3674 -0.4599  0.5163
 2006SOL    HW2 8095   1.586   1.308   3.567  0.1128 -2.3829  0.8405
 2006SOL    HW3 8096   1.640   1.226   3.452 -0.1446  0.3790 -1.2875
 2006SOL    MW4 8097   1.583   1.284   3.483 -0.2744 -0.6030  0.3211
 2007SOL     OW 8098   1.599   1.549   3.356  0.2993  0.0877 -0.1885
 2007SOL    HW2 8099   1.610   1.465   3.399 -0.7395  0.3723  0.6481
 2007SOL    HW3 8100   1.675   1.600   3.384  0.3053 -0.1675  0.2623
 2007SOL    MW4 8101   1.611   1.545   3.365  0.1630  0.0914 -0.0188
 2008SOL     OW 8102   1.397   1.687   3.525  0.0674 -0.0521  0.6688
 2008SOL    HW2 8103   1.385   1.671   3.619  0.7589  0.4477  0.8486
 2008SOL    HW3 8104   1.456   1.617   3.497 -2.2515 -1.8263  0.0246
 2008SOL    MW4 8105   1.403   1.676   3.534 -0.1473 -0.2203  0.6077
 2009SOL     OW 8106   1.353   1.942   3.391  0.3503  0.6546  0.1709
 2009SOL    HW2 8107   1.425   1.999   3.420  0.8242  0.7283 -1.1206
 2009SOL    HW3 8108   1.375   1.856   3.428  0.5066  0.9344  0.7359
 2009SOL    MW4 8109   1.366   1.938   3.400  0.4333  0.7014  0.0751
 2010SOL     OW 8110   1.566   2.088   3.502 -0.1348  0.0374 -0.0103
 2010SOL    HW2 8111   1.634   2.032   3.464 -1.2156 -1.5631  0.3602
 2010SOL    HW3 8112   1.588   2.176   3.472  1.5531 -0.5912 -0.6805
 2010SOL    MW4 8113   1.578   2.092   3.493 -0.0547 -0.2570 -0.0498
 2011SOL     OW 8114   1.614   2.337   3.415 -0.0899 -0.0685 -0.3940
 2011SOL    HW2 8115   1.528   2.365   3.444 -0.0339 -0.5938  0.3104
 2011SOL    HW3 8116   1.600   2.302   3.327 -0.5980 -0.1754 -0.2698
 2011SOL    MW4 8117   1.601   2.336   3.407 -0.1496 -0.1519 -0.2844
 2012SOL     OW 8118   1.377   2.456   3.477 -0.4207 -0.4826 -0.0170
 2012SOL    HW2 8119   1.348   2.453   3.568  0.1513 -1.5888  0.1358
 2012SOL    HW3 8120   1.359   2.546   3.449 -1.6295 -0.4380  0.8457
 2012SOL    MW4 8121   1.371   2.468   3.485 -0.5047 -0.6225  0.1168
 2013SOL     OW 8122   1.309   2.709   3.389  0.1158  0.0119  0.1403
 2013SOL    HW2 8123   1.384   2.768   3.400 -1.1303  1.8415 -0.9730
 2013SOL    HW3 8124   1.301   2.697   3.295 -0.4372 -0.9423  0.3009
 2013SOL    MW4 8125   1.318   2.715   3.378 -0.1216  0.1273  0.0145
 2014SOL     OW 8126   1.543   2.871   3.457  0.4989 -0.0619  0.0485
 2014SOL    HW2 8127   1.614   2.824   3.412 -1.9910 -1.8102 -2.2200
 2014SOL    HW3 8128   1.543   2.957   3.416  1.0421 -0.2039 -0.2652
 2014SOL    MW4 8129   1.552   2.876   3.446  0.2419 -0.3111 -0.2923
 2015SOL     OW 8130   1.582   3.120   3.353 -0.3760  0.6269 -0.1750
 2015SOL    HW2 8131   1.660   3.159   3.392 -0.7771 -0.2696  1.5872
 2015SOL    HW3 8132   1.509   3.160   3.400 -0.9491  0.8400 -1.2317
 2015SOL    MW4 8133   1.583   3.130   3.365 -0.5046  0.5367 -0.0818
 2016SOL     OW 8134   1.365   3.227   3.527  0.3057 -0.2158 -0.3432
 2016SOL    HW2 8135   1.360   3.244   3.621  1.0212 -0.4902 -0.2509
 2016SOL    HW3 8136   1.286   3.176   3.508  0.6702 -1.0423  0.3109
 2016SOL    MW4 8137   1.354   3.222   3.537  0.4481 -0.3612 -0.2449
 2017SOL     OW 8138   1.325   3.461   3.389  0.7678  0.1259  0.1157
 2017SOL    HW2 8139   1.330   3.383   3.443 -0.6920 -0.1411 -0.1267
 2017SOL    HW3 8140   1.243   3.504   3.415  0.5940  0.5609 -1.1063
 2017SOL    MW4 8141   1.315   3.457   3.399  0.5522  0.1481 -0.0775
 2018SOL     OW 8142   1.533   3.619   3.488 -0.0147 -0.8877 -0.2124
 2018SOL    HW2 8143   1.527   3.623   3.584  2.4906 -1.4263  0.0003
 2018SOL    HW3 8144   1.464   3.557   3.463 -1.1571 -0.2084  1.1660
 2018SOL    MW4 8145   1.523   3.611   3.498  0.1651 -0.8690 -0.0026
 2019SOL     OW 8146   1.511   3.869   3.380  0.5395  0.0025  0.3348
 2019SOL    HW2 8147   1.527   3.781   3.412 -0.4802 -0.6354 -0.8899
 2019SOL    HW3 8148   1.511   3.861   3.285 -0.6415  1.1241  0.2230
 2019SOL    MW4 8149   1.513   3.857   3.372  0.2493  0.0665  0.1583
 2020SOL     OW 8150   1.311   4.064   3.484  0.6161 -0.5820  0.3913
 2020SOL    HW2 8151   1.326   4.152   3.449 -0.8313 -0.7665 -0.7581
 2020SOL    HW3 8152   1.384   4.012   3.451  2.1562  0.4444  2.1009
 2020SOL    MW4 8153   1.322   4.069   3.475  0.6284 -0.4711  0.4654
 2021SOL     OW 8154   1.350   4.302   3.352  0.2329  0.0069  0.3199
 2021SOL    HW2 8155   1.277   4.361   3.370 -0.8744 -1.4624  0.6152
 2021SOL    HW3 8156   1.337   4.274   3.262  0.3516 -0.3902  0.4266
 2021SOL    MW4 8157   1.339   4.306   3.342  0.1025 -0.2394  0.3729
 2022SOL     OW 8158   1.588   4.371   3.496 -0.4867 -0.2603  0.3527
 2022SOL    HW2 8159   1.664   4.333   3.451 -0.6519  0.1210 -0.2535
 2022SOL    HW3 8160   1.513   4.346   3.441 -0.5775  1.0860 -0.1453
 2022SOL    MW4 8161   1.588   4.363   3.483 -0.5205 -0.0319  0.2067
 2023SOL     OW 8162   2.036   4.653   3.333 -0.5265  0.0615  0.4732
 2023SOL    HW2 8163   2.085   4.700   3.400  0.5549  0.7787 -0.7979
 2023SOL    HW3 8164   1.945   4.681   3.345 -0.2372  0.6882  1.2057
 2023SOL    MW4 8165   2.030   4.663   3.343 -0.3457  0.2389  0.4020
 2024SOL     OW 8166   1.814   0.116   3.450  0.1488 -0.0741  0.1151
 2024SOL    HW2 8167   1.826   0.104   3.545 -2.2483 -0.7674  0.3514
 2024SOL    HW3 8168   1.729   0.078   3.431 -0.0733  1.4083 -2.0870
 2024SOL    MW4 8169   1.804   0.110   3.460 -0.1968  0.0300 -0.1442
 2025SOL     OW 8170   1.797   0.370   3.376  0.0560  0.5392 -0.0163
 2025SOL    HW2 8171   1.808   0.278   3.398  0.7689  0.4988 -0.5157
 2025SOL    HW3 8172   1.788   0.371   3.280 -0.2295  0.9619  0.0090
 2025SOL    MW4 8173   1.797   0.358   3.366  0.1125  0.5896 -0.0789
 2026SOL     OW 8174   2.037   0.492   3.477  0.6777  0.1906 -0.1384
 2026SOL    HW2 8175   2.027   0.586   3.463  0.1443  0.1215 -0.2522
 2026SOL    HW3 8176   1.957   0.454   3.441  1.1962 -0.3693 -0.7063
 2026SOL    MW4 8177   2.025   0.500   3.470  0.6757  0.1076 -0.2282
 2027SOL     OW 8178   2.014   0.762   3.424  0.0356  0.4074  0.3115
 2027SOL    HW2 8179   2.101   0.791   3.450 -0.0764 -0.3193  1.5397
 2027SOL    HW3 8180   2.013   0.769   3.329  1.2247  0.9841  0.3375
 2027SOL    MW4 8181   2.025   0.767   3.415  0.1776  0.3877  0.4773
 2028SOL     OW 8182   1.776   0.883   3.522  0.1630  0.6286 -0.4557
 2028SOL    HW2 8183   1.861   0.848   3.495 -0.2252 -0.5379 -0.1762
 2028SOL    HW3 8184   1.712   0.832   3.473 -0.4000  1.1653 -0.2839
 2028SOL    MW4 8185   1.779   0.872   3.512  0.0374  0.5455 -0.3960
 2029SOL     OW 8186   1.786   1.138   3.406  0.1251 -0.0132 -0.0258
 2029SOL    HW2 8187   1.863   1.186   3.435 -0.9616  0.4511  2.2310
 2029SOL    HW3 8188   1.793   1.053   3.450 -0.0175 -0.4205 -0.7865
 2029SOL    MW4 8189   1.797   1.133   3.416 -0.0370 -0.0058  0.1717
 2030SOL     OW 8190   2.020   1.285   3.478  0.4665  0.1056  0.6745
 2030SOL    HW2 8191   2.002   1.298   3.571  1.2371  0.4139  0.7834
 2030SOL    HW3 8192   2.011   1.372   3.439 -0.2876 -0.0973  0.3779
 2030SOL    MW4 8193   2.016   1.298   3.485  0.4685  0.1194  0.6497
 2031SOL     OW 8194   2.048   1.562   3.353  0.6940 -0.2282  0.0877
 2031SOL    HW2 8195   2.119   1.598   3.406  1.0846 -0.5676 -0.2033
 2031SOL    HW3 8196   1.969   1.608   3.383  0.8982 -0.4869  1.0327
 2031SOL    MW4 8197   2.047   1.573   3.364  0.7725 -0.3071  0.1740
 2032SOL     OW 8198   1.830   1.684   3.479  0.6517 -0.7266  0.5522
 2032SOL    HW2 8199   1.814   1.695   3.572 -2.5343 -0.7050  0.0355
 2032SOL    HW3 8200   1.803   1.767   3.440  1.2855 -0.9933 -0.4798
 2032SOL    MW4 8201   1.825   1.696   3.486  0.3150 -0.7590  0.3479
 2033SOL     OW 8202   1.772   1.944   3.386  0.0740 -0.1024 -0.2511
 2033SOL    HW2 8203   1.859   1.979   3.404  0.5227 -1.7638  0.8724
 2033SOL    HW3 8204   1.770   1.931   3.291  0.2753  1.8977 -0.5642
 2033SOL    MW4 8205   1.783   1.947   3.376  0.1597 -0.0577 -0.1440
 2034SOL     OW 8206   2.008   2.069   3.510 -0.0933  0.1365  0.1195
 2034SOL    HW2 8207   2.090   2.032   3.476 -0.2404  0.4411 -0.5610
 2034SOL    HW3 8208   2.001   2.154   3.467 -0.7861  0.1005  0.1683
 2034SOL    MW4 8209   2.018   2.076   3.500 -0.2041  0.1717  0.0360
 2035SOL     OW 8210   2.007   2.301   3.370  0.1855  0.0710 -0.3233
 2035SOL    HW2 8211   2.081   2.353   3.401 -0.4919  0.5513  0.5239
 2035SOL    HW3 8212   2.021   2.292   3.276  1.6219 -0.3366 -0.0676
 2035SOL    MW4 8213   2.018   2.307   3.362  0.2856  0.0806 -0.1779
 2036SOL     OW 8214   1.825   2.511   3.438  0.2220 -0.0649  0.0285
 2036SOL    HW2 8215   1.898   2.454   3.417  0.3586  0.4099 -0.8057
 2036SOL    HW3 8216   1.747   2.457   3.422  0.3669 -0.2421 -0.0860
 2036SOL    MW4 8217   1.824   2.497   3.433  0.2592 -0.0257 -0.0963
 2037SOL     OW 8218   1.767   2.765   3.328  0.3654 -0.3796 -0.2135
 2037SOL    HW2 8219   1.848   2.802   3.362  0.3163 -0.3747 -0.1000
 2037SOL    HW3 8220   1.763   2.677   3.366  1.0341 -0.9126 -1.3709
 2037SOL    MW4 8221   1.777   2.758   3.338  0.4472 -0.4494 -0.3514
 2038SOL     OW 8222   2.005   2.857   3.430 -0.7426 -0.2415  0.1909
 2038SOL    HW2 8223   1.998   2.852   3.525 -0.1462 -0.0508  0.2452
 2038SOL    HW3 8224   2.021   2.949   3.411  0.4876 -0.4878  0.0014
 2038SOL    MW4 8225   2.006   2.868   3.440 -0.5016 -0.2487  0.1731
 2039SOL     OW 8226   2.015   3.119   3.348 -0.5262  0.1205 -0.0652
 2039SOL    HW2 8227   2.082   3.175   3.386 -1.1382  0.7758  0.0719
 2039SOL    HW3 8228   1.932   3.156   3.380 -1.0082  0.0781 -1.2146
 2039SOL    MW4 8229   2.013   3.131   3.357 -0.6707  0.2015 -0.1991
 2040SOL     OW 8230   1.806   3.265   3.471  0.0418  0.5023 -0.2475
 2040SOL    HW2 8231   1.783   3.257   3.564 -0.8072  0.4853 -0.4486
 2040SOL    HW3 8232   1.811   3.359   3.455  0.9379  0.4949 -0.0083
 2040SOL    MW4 8233   1.803   3.276   3.481  0.0479  0.4992 -0.2422
 2041SOL     OW 8234   1.786   3.535   3.392  0.5357  0.2326 -0.3481
 2041SOL    HW2 8235   1.701   3.572   3.414  0.1758 -0.4262 -0.6270
 2041SOL    HW3 8236   1.779   3.510   3.300  0.6267 -0.9096 -0.0596
 2041SOL    MW4 8237   1.774   3.537   3.383  0.5002 -0.0050 -0.3467
 2042SOL     OW 8238   2.037   3.629   3.492 -0.4253  0.0751  0.3417
 2042SOL    HW2 8239   2.113   3.574   3.473  0.6418  1.4380  0.6343
 2042SOL    HW3 8240   1.966   3.588   3.443  0.6282 -0.8401 -0.4581
 2042SOL    MW4 8241   2.038   3.616   3.483 -0.1452  0.1340  0.2747
 2043SOL     OW 8242   2.018   3.864   3.377  0.5577 -0.5925  0.5129
 2043SOL    HW2 8243   1.930   3.888   3.406  1.0712  1.6062  0.3935
 2043SOL    HW3 8244   2.038   3.782   3.422 -1.2884 -0.7682  1.0393
 2043SOL    MW4 8245   2.009   3.857   3.387  0.3817 -0.3254  0.5665
 2044SOL     OW 8246   1.766   3.973   3.442  0.1588 -0.2334 -0.3123
 2044SOL    HW2 8247   1.783   3.977   3.536  0.5854 -0.3706 -0.3807
 2044SOL    HW3 8248   1.678   3.935   3.435  0.0074  0.0539  0.0382
 2044SOL    MW4 8249   1.757   3.968   3.453  0.1950 -0.2136 -0.2751
 2045SOL     OW 8250   1.842   4.236   3.378 -0.5301 -0.2268 -0.2024
 2045SOL    HW2 8251   1.833   4.145   3.406 -0.3556 -0.1006  0.2686
 2045SOL    HW3 8252   1.832   4.233   3.282 -1.0269 -0.6722 -0.1415
 2045SOL    MW4 8253   1.839   4.224   3.369 -0.5727 -0.2689 -0.1323
 2046SOL     OW 8254   2.058   4.393   3.454  0.1827 -0.0353 -0.4293
 2046SOL    HW2 8255   1.976   4.357   3.423  0.1297  0.8314 -1.3267
 2046SOL    HW3 8256   2.054   4.486   3.430  0.3745  0.5480  1.6684
 2046SOL    MW4 8257   2.047   4.401   3.447  0.2010  0.1564 -0.2711
 2047SOL     OW 8258   2.483   4.640   3.408  0.4591  0.2225 -0.0229
 2047SOL    HW2 8259   2.486   4.546   3.425 -0.7981  0.2473  0.3966
 2047SOL    HW3 8260   2.477   4.647   3.313  0.1562 -0.1303 -0.0315
 2047SOL    MW4 8261   2.483   4.628   3.398  0.2534  0.1793  0.0312
 2048SOL     OW 8262   2.246   0.066   3.514 -0.0257  0.4636  0.3653
 2048SOL    HW2 8263   2.266   0.148   3.468 -0.9888  1.0936  1.0326
 2048SOL    HW3 8264   2.305   0.002   3.476 -0.4769  1.0773 -1.4050
 2048SOL    MW4 8265   2.256   0.069   3.503 -0.2124  0.6277  0.2196
 2049SOL     OW 8266   2.245   0.338   3.388 -0.1157 -0.2717 -0.8646
 2049SOL    HW2 8267   2.315   0.385   3.433 -0.0754 -0.9958 -0.1558
 2049SOL    HW3 8268   2.166   0.386   3.411 -0.0337 -0.3431 -0.4191
 2049SOL    MW4 8269   2.244   0.350   3.397 -0.0992 -0.3766 -0.7124
 2050SOL     OW 8270   2.470   0.450   3.494 -0.0413 -0.0311  0.1720
 2050SOL    HW2 8271   2.535   0.412   3.435  0.1941  0.5012  0.0780
 2050SOL    HW3 8272   2.465   0.542   3.466 -0.2504  0.1159  0.6984
 2050SOL    MW4 8273   2.478   0.457   3.482 -0.0377  0.0585  0.2294
 2051SOL     OW 8274   2.455   0.718   3.393  0.5467  0.0369 -0.1892
 2051SOL    HW2 8275   2.538   0.763   3.411  0.0057  1.0186 -0.0934
 2051SOL    HW3 8276   2.451   0.712   3.298  1.1454 -0.8249 -0.1676
 2051SOL    MW4 8277   2.465   0.723   3.383  0.5543  0.0528 -0.1736
 2052SOL     OW 8278   2.271   0.864   3.515 -0.3932 -0.8913  0.7613
 2052SOL    HW2 8279   2.277   0.955   3.487 -2.5083 -0.7728  0.6094
 2052SOL    HW3 8280   2.346   0.821   3.475  0.4160  0.7115  0.5362
 2052SOL    MW4 8281   2.281   0.871   3.506 -0.5655 -0.6642  0.7117
 2053SOL     OW 8282   2.249   1.119   3.401  0.2355  0.0360  0.3023
 2053SOL    HW2 8283   2.319   1.175   3.434  1.2844 -1.2268  0.2856
 2053SOL    HW3 8284   2.168   1.159   3.433  0.9676  1.4129  0.4719
 2053SOL    MW4 8285   2.247   1.132   3.409  0.4709  0.0510  0.3226
 2054SOL     OW 8286   2.461   1.267   3.490  0.1150 -0.2085 -0.4657
 2054SOL    HW2 8287   2.464   1.266   3.586  0.0433 -0.9388 -0.4691
 2054SOL    HW3 8288   2.536   1.214   3.463  0.0612 -0.1069 -0.8138
 2054SOL    MW4 8289   2.471   1.260   3.499  0.0987 -0.2913 -0.5121
 2055SOL     OW 8290   2.460   1.532   3.384 -0.2465  0.3327 -0.1476
 2055SOL    HW2 8291   2.448   1.438   3.395  0.1026  0.3641  0.5969
 2055SOL    HW3 8292   2.489   1.543   3.294 -0.9946 -0.2029 -0.4528
 2055SOL    MW4 8293   2.462   1.521   3.374 -0.2992  0.2662 -0.0896
 2056SOL     OW 8294   2.237   1.679   3.485 -0.3258 -0.1625  0.0790
 2056SOL    HW2 8295   2.236   1.683   3.581 -0.5886 -1.4154  0.1474
 2056SOL    HW3 8296   2.305   1.615   3.465  0.7720  1.2181 -0.6342
 2056SOL    MW4 8297   2.246   1.671   3.495 -0.2155 -0.1456 -0.0060
 2057SOL     OW 8298   2.237   1.936   3.400 -0.1709 -0.0563 -0.1026
 2057SOL    HW2 8299   2.246   1.845   3.429  0.7403  0.2076  0.4402
 2057SOL    HW3 8300   2.247   1.932   3.305  1.9904 -0.2693  0.1080
 2057SOL    MW4 8301   2.239   1.923   3.391  0.2346 -0.0495 -0.0031
 2058SOL     OW 8302   2.500   2.054   3.484 -0.0117  0.4145 -0.3733
 2058SOL    HW2 8303   2.503   2.068   3.579 -0.8733  1.7532 -0.5432
 2058SOL    HW3 8304   2.413   2.018   3.468 -1.3063  3.6631 -1.0880
 2058SOL    MW4 8305   2.489   2.051   3.495 -0.2964  1.0197 -0.4902
 2059SOL     OW 8306   2.465   2.316   3.382 -0.1330 -0.1711  0.2438
 2059SOL    HW2 8307   2.538   2.368   3.416 -0.5687 -0.4309  1.6045
 2059SOL    HW3 8308   2.483   2.227   3.412 -0.0940 -0.5628 -0.9265
 2059SOL    MW4 8309   2.477   2.311   3.391 -0.1855 -0.2570  0.2687
 2060SOL     OW 8310   2.226   2.435   3.436 -0.0675  0.3799  0.5423
 2060SOL    HW2 8311   2.241   2.523   3.401  0.0279  0.4545  0.7735
 2060SOL    HW3 8312   2.307   2.387   3.418 -1.3077 -0.6715 -2.6474
 2060SOL    MW4 8313   2.239   2.440   3.429 -0.2186  0.2511  0.1521
 2061SOL     OW 8314   2.223   2.694   3.343  0.7185 -0.2824 -0.1345
 2061SOL    HW2 8315   2.136   2.727   3.365  1.0646  0.2673  0.4095
 2061SOL    HW3 8316   2.215   2.666   3.252  0.1310  0.3036 -0.2715
 2061SOL    MW4 8317   2.210   2.694   3.334  0.6864 -0.1328 -0.0808
 2062SOL     OW 8318   2.437   2.840   3.461  0.0557  0.1987 -0.2996
 2062SOL    HW2 8319   2.433   2.930   3.429  0.1828 -0.4215 -2.0830
 2062SOL    HW3 8320   2.364   2.795   3.419  0.1223 -0.5886  0.4059
 2062SOL    MW4 8321   2.427   2.846   3.451  0.0813  0.0131 -0.4420
 2063SOL     OW 8322   2.445   3.090   3.353 -0.7091  0.0505  0.0677
 2063SOL    HW2 8323   2.529   3.124   3.385 -0.9318 -0.2652  0.9964
 2063SOL    HW3 8324   2.448   3.105   3.258 -0.7280  2.5102  0.4281
 2063SOL    MW4 8325   2.456   3.097   3.345 -0.7412  0.3335  0.2377
 2064SOL     OW 8326   2.237   3.246   3.458  0.2252 -0.3690 -0.1588
 2064SOL    HW2 8327   2.253   3.233   3.552  0.5796 -1.4399 -0.3608
 2064SOL    HW3 8328   2.309   3.199   3.415 -0.5647 -0.8297 -0.9937
 2064SOL    MW4 8329   2.249   3.238   3.465  0.1676 -0.5713 -0.2954
 2065SOL     OW 8330   2.265   3.501   3.404  0.6102  0.2133  0.1464
 2065SOL    HW2 8331   2.260   3.407   3.424 -0.2272  0.2670  0.1778
 2065SOL    HW3 8332   2.257   3.506   3.309  2.8584  0.0947 -0.0863
 2065SOL    MW4 8333   2.264   3.489   3.394  0.7963  0.2048  0.1199
 2066SOL     OW 8334   2.513   3.621   3.467  0.1916  0.3095 -0.9818
 2066SOL    HW2 8335   2.490   3.709   3.439 -0.3626  0.8823  1.1619
 2066SOL    HW3 8336   2.439   3.567   3.442 -0.7024  0.9780  0.1626
 2066SOL    MW4 8337   2.500   3.625   3.460  0.0005  0.4733 -0.5479
 2067SOL     OW 8338   2.481   3.858   3.362  0.3104  0.1144  0.2969
 2067SOL    HW2 8339   2.542   3.923   3.397  0.1111 -0.3145  1.4609
 2067SOL    HW3 8340   2.398   3.877   3.406  0.0957 -0.5387  0.1765
 2067SOL    MW4 8341   2.478   3.869   3.372  0.2558 -0.0281  0.4346
 2068SOL     OW 8342   2.268   4.002   3.473 -0.2741 -0.4895  0.4733
 2068SOL    HW2 8343   2.270   4.092   3.440 -1.3017  0.2489  2.3319
 2068SOL    HW3 8344   2.193   3.962   3.429  0.0271 -0.3629 -0.1589
 2068SOL    MW4 8345   2.258   4.009   3.463 -0.3700 -0.3753  0.6351
 2069SOL     OW 8346   2.284   4.260   3.350 -0.0472 -0.2887 -0.0712
 2069SOL    HW2 8347   2.209   4.312   3.380 -0.5266 -0.6773 -0.5686
 2069SOL    HW3 8348   2.264   4.241   3.258  0.2790 -1.0715  0.0163
 2069SOL    MW4 8349   2.271   4.264   3.342 -0.0675 -0.4425 -0.1254
 2070SOL     OW 8350   2.513   4.378   3.445  0.5659 -0.3876  0.1753
 2070SOL    HW2 8351   2.511   4.382   3.541  2.7946 -1.5131  0.3154
 2070SOL    HW3 8352   2.426   4.346   3.421 -0.6555  1.6860  1.6949
 2070SOL    MW4 8353   2.502   4.374   3.455  0.6988 -0.2618  0.3943
 2071SOL     OW 8354   2.910   4.620   3.401  0.0992 -0.5770  0.2548
 2071SOL    HW2 8355   2.834   4.659   3.444  0.2722 -0.5980  0.5899
 2071SOL    HW3 8356   2.903   4.646   3.310  0.9760  1.4495  0.7439
 2071SOL    MW4 8357   2.899   4.629   3.395  0.2379 -0.3119  0.3633
 2072SOL     OW 8358   2.702   0.089   3.506 -0.1079  0.4600  0.0946
 2072SOL    HW2 8359   2.709   0.177   3.467  1.6551 -0.4140 -1.6517
 2072SOL    HW3 8360   2.621   0.053   3.469  0.4600  0.4267 -1.1335
 2072SOL    MW4 8361   2.692   0.096   3.496  0.1998  0.3403 -0.2980
 2073SOL     OW 8362   2.687   0.320   3.350 -0.2959 -0.1761  0.3049
 2073SOL    HW2 8363   2.753   0.365   3.403 -1.6938  0.6028  1.4008
 2073SOL    HW3 8364   2.711   0.341   3.260  0.6087  0.5742  0.7100
 2073SOL    MW4 8365   2.699   0.329   3.345 -0.3614  0.0256  0.5028
 2074SOL     OW 8366   2.890   0.461   3.484 -0.0037  0.0233 -0.0827
 2074SOL    HW2 8367   2.885   0.452   3.579 -0.5779  1.4507  0.0288
 2074SOL    HW3 8368   2.906   0.554   3.469  3.1433 -0.6455 -1.2799
 2074SOL    MW4 8369   2.892   0.472   3.495  0.3355  0.1234 -0.2263
 2075SOL     OW 8370   2.916   0.731   3.402  0.0585 -0.3004 -0.2349
 2075SOL    HW2 8371   2.991   0.787   3.420 -0.4835  1.0657 -2.1127
 2075SOL    HW3 8372   2.840   0.781   3.430 -0.3975 -0.2690 -1.4928
 2075SOL    MW4 8373   2.916   0.745   3.408 -0.0734 -0.1161 -0.6487
 2076SOL     OW 8374   2.690   0.864   3.478 -0.3264  0.0489 -0.2727
 2076SOL    HW2 8375   2.696   0.850   3.573  1.0642 -1.5820 -0.5804
 2076SOL    HW3 8376   2.700   0.958   3.467  0.6947  0.1213  1.1296
 2076SOL    MW4 8377   2.692   0.874   3.489 -0.0083 -0.1567 -0.1285
 2077SOL     OW 8378   2.696   1.130   3.404  0.0167  0.1563 -0.1236
 2077SOL    HW2 8379   2.775   1.178   3.430 -0.4835  1.0720 -0.2733
 2077SOL    HW3 8380   2.707   1.116   3.309  0.3623 -0.4211 -0.0061
 2077SOL    MW4 8381   2.708   1.134   3.395 -0.0038  0.2009 -0.1280
 2078SOL     OW 8382   2.920   1.267   3.465  0.3933  0.4301 -0.6055
 2078SOL    HW2 8383   2.923   1.283   3.559  0.2256 -0.6643 -0.4073
 2078SOL    HW3 8384   2.999   1.215   3.447 -1.2592 -2.1749 -0.5125
 2078SOL    MW4 8385   2.931   1.262   3.475  0.1528 -0.0579 -0.5672
 2079SOL     OW 8386   2.953   1.535   3.372 -0.2437  0.2999 -0.0720
 2079SOL    HW2 8387   2.873   1.582   3.393 -0.0992  0.5545 -0.0920
 2079SOL    HW3 8388   2.942   1.449   3.413  0.4525  1.1224  1.9020
 2079SOL    MW4 8389   2.941   1.530   3.380 -0.1328  0.4420  0.1857
 2080SOL     OW 8390   2.712   1.656   3.470 -0.1618  0.4426  0.3593
 2080SOL    HW2 8391   2.706   1.749   3.448  0.0600  1.0429  2.6333
 2080SOL    HW3 8392   2.625   1.621   3.453 -0.6313  1.3854  0.7846
 2080SOL    MW4 8393   2.700   1.664   3.465 -0.1941  0.6461  0.7153
 2081SOL     OW 8394   2.720   1.910   3.364  0.1669  0.4688  0.0862
 2081SOL    HW2 8395   2.647   1.964   3.396  0.3207  1.6291 -1.4814
 2081SOL    HW3 8396   2.710   1.910   3.269  2.1582  0.5561 -0.1372
 2081SOL    MW4 8397   2.709   1.917   3.356  0.4499  0.6334 -0.1502
 2082SOL     OW 8398   2.920   2.063   3.484 -0.0080  0.1672 -0.2598
 2082SOL    HW2 8399   2.911   2.053   3.578 -1.4381 -1.7816 -0.5739
 2082SOL    HW3 8400   2.848   2.011   3.447 -0.0173  1.6221 -2.3914
 2082SOL    MW4 8401   2.909   2.055   3.491 -0.1979  0.1018 -0.5825
 2083SOL     OW 8402   2.882   2.319   3.403 -0.6187  0.2487  0.6282
 2083SOL    HW2 8403   2.894   2.226   3.418 -1.3051 -0.0252 -0.4805
 2083SOL    HW3 8404   2.894   2.330   3.309 -1.1448  1.1880  0.6627
 2083SOL    MW4 8405   2.886   2.308   3.393 -0.7787  0.3369  0.4864
 2084SOL     OW 8406   2.674   2.466   3.486  0.4566 -0.0506 -0.0423
 2084SOL    HW2 8407   2.672   2.455   3.581  2.4613  0.2556  0.0447
 2084SOL    HW3 8408   2.749   2.414   3.457 -0.4960 -0.6460 -1.5477
 2084SOL    MW4 8409   2.683   2.457   3.495  0.5956 -0.0887 -0.2294
 2085SOL     OW 8410   2.663   2.708   3.362  0.2081 -0.0250  0.1584
 2085SOL    HW2 8411   2.669   2.627   3.412  0.9684 -0.5273 -0.7249
 2085SOL    HW3 8412   2.579   2.746   3.386 -1.1312 -2.1512 -1.0205
 2085SOL    MW4 8413   2.653   2.703   3.371  0.1314 -0.3717 -0.1135
 2086SOL     OW 8414   2.898   2.834   3.455 -0.5297  0.3746  0.4103
 2086SOL    HW2 8415   2.891   2.821   3.549  1.4222 -2.1972  0.2525
 2086SOL    HW3 8416   2.814   2.806   3.419 -1.0448  0.7676  1.3045
 2086SOL    MW4 8417   2.886   2.829   3.462 -0.3402  0.0873  0.5078
 2087SOL     OW 8418   2.919   3.112   3.385 -0.1767  0.4722 -0.6775
 2087SOL    HW2 8419   2.905   3.026   3.424 -0.5223  0.7172 -0.2642
 2087SOL    HW3 8420   2.946   3.093   3.295 -0.3089 -0.0654 -0.6046
 2087SOL    MW4 8421   2.921   3.098   3.378 -0.2396  0.4337 -0.6132
 2088SOL     OW 8422   2.667   3.226   3.449  0.1676 -0.1448 -0.2814
 2088SOL    HW2 8423   2.658   3.234   3.544  0.9186 -0.5934 -0.1659
 2088SOL    HW3 8424   2.757   3.196   3.436 -0.0132 -0.3380 -1.1226
 2088SOL    MW4 8425   2.678   3.223   3.460  0.2427 -0.2294 -0.3772
 2089SOL     OW 8426   2.710   3.478   3.349  0.3523  0.7315  0.2731
 2089SOL    HW2 8427   2.687   3.392   3.383  1.0007  1.2708  2.1108
 2089SOL    HW3 8428   2.650   3.538   3.393  0.9723  1.4003  0.2136
 2089SOL    MW4 8429   2.699   3.475   3.359  0.5198  0.8907  0.5078
 2090SOL     OW 8430   2.932   3.594   3.488  0.2241 -0.5244  0.0020
 2090SOL    HW2 8431   2.917   3.686   3.468  0.8425 -0.4999 -0.3711
 2090SOL    HW3 8432   2.863   3.547   3.441  0.0241 -0.2651  0.0372
 2090SOL    MW4 8433   2.921   3.600   3.479  0.2794 -0.4871 -0.0427
 2091SOL     OW 8434   2.909   3.841   3.360 -0.4888  0.5534  0.4205
 2091SOL    HW2 8435   2.976   3.898   3.398  0.2413 -0.7887  1.1912
 2091SOL    HW3 8436   2.826   3.881   3.387  0.0090  1.1751  1.0689
 2091SOL    MW4 8437   2.907   3.854   3.369 -0.3266  0.4582  0.6075
 2092SOL     OW 8438   2.700   3.994   3.455  0.1020  0.1248  0.5970
 2092SOL    HW2 8439   2.689   4.015   3.548 -1.2014  2.1446  0.0293
 2092SOL    HW3 8440   2.705   4.080   3.412 -1.7230 -0.7621 -1.4591
 2092SOL    MW4 8441   2.700   4.008   3.461 -0.3107  0.2737  0.2508
 2093SOL     OW 8442   2.710   4.235   3.332 -0.4178 -0.1600 -0.2327
 2093SOL    HW2 8443   2.788   4.264   3.379 -0.7445 -1.1842  0.9768
 2093SOL    HW3 8444   2.638   4.283   3.374 -0.8389 -1.9060  1.0798
 2093SOL    MW4 8445   2.711   4.245   3.344 -0.5164 -0.5255  0.1001
 2094SOL     OW 8446   2.903   4.336   3.469 -0.5017  0.0728  0.3976
 2094SOL    HW2 8447   2.886   4.334   3.564 -0.5063  1.4440  0.4429
 2094SOL    HW3 8448   2.896   4.429   3.446 -0.1242 -0.2101 -0.8868
 2094SOL    MW4 8449   2.900   4.348   3.479 -0.4525  0.2160  0.2339
 2095SOL     OW 8450   3.362   4.615   3.413  0.5958  0.0958 -0.2725
 2095SOL    HW2 8451   3.280   4.660   3.435  0.8364  0.6373 -0.4638
 2095SOL    HW3 8452   3.363   4.615   3.317  1.3620  1.0986 -0.2683
 2095SOL    MW4 8453   3.351   4.621   3.403  0.7288  0.2995 -0.2973
 2096SOL     OW 8454   3.121   0.082   3.511  0.3458  0.3772  0.2293
 2096SOL    HW2 8455   3.118   0.174   3.484 -0.1529  0.7888  1.6853
 2096SOL    HW3 8456   3.047   0.042   3.466  1.8012  0.1939 -2.1259
 2096SOL    MW4 8457   3.111   0.089   3.501  0.4723  0.4073  0.1106
 2097SOL     OW 8458   3.155   0.329   3.408 -0.0037 -0.4902 -0.4822
 2097SOL    HW2 8459   3.084   0.390   3.430 -0.4293 -0.8113 -0.9578
 2097SOL    HW3 8460   3.146   0.314   3.314  1.0319 -0.1154 -0.6549
 2097SOL    MW4 8461   3.144   0.335   3.399  0.0768 -0.4831 -0.5677
 2098SOL     OW 8462   3.395   0.481   3.463 -0.1790  0.0657  0.1470
 2098SOL    HW2 8463   3.407   0.485   3.558  1.1050  1.5393 -0.0516
 2098SOL    HW3 8464   3.316   0.429   3.451 -1.1223  1.0020  2.0848
 2098SOL    MW4 8465   3.386   0.475   3.474 -0.1340  0.3836  0.3765
 2099SOL     OW 8466   3.389   0.740   3.372  0.2212 -0.4962 -0.1390
 2099SOL    HW2 8467   3.457   0.786   3.421  1.0697 -2.0601  0.1910
 2099SOL    HW3 8468   3.389   0.651   3.409  0.5049 -1.5599 -2.5856
 2099SOL    MW4 8469   3.398   0.734   3.384  0.3707 -0.8429 -0.4182
 2100SOL     OW 8470   3.143   0.857   3.486 -0.3086 -0.1181 -0.3512
 2100SOL    HW2 8471   3.131   0.949   3.462  1.7356  0.3575  0.3470
 2100SOL    HW3 8472   3.205   0.824   3.421 -0.5638 -0.8331 -0.2279
 2100SOL    MW4 8473   3.149   0.865   3.474 -0.0727 -0.1496 -0.2427
 2101SOL     OW 8474   3.134   1.114   3.384  0.4646 -0.0070  0.8155
 2101SOL    HW2 8475   3.205   1.171   3.411  2.3159 -1.0721 -1.5838
 2101SOL    HW3 8476   3.143   1.107   3.289 -1.8054 -1.5336  0.6540
 2101SOL    MW4 8477   3.144   1.121   3.375  0.4091 -0.3489  0.4778
 2102SOL     OW 8478   3.305   1.304   3.499  0.0212  0.3007  0.0181
 2102SOL    HW2 8479   3.380   1.253   3.469  0.3580  0.2206  0.9775
 2102SOL    HW3 8480   3.327   1.394   3.479  0.1124  0.2200 -0.2442
 2102SOL    MW4 8481   3.318   1.309   3.492  0.0777  0.2794  0.1097
 2103SOL     OW 8482   3.390   1.549   3.428  0.0264  0.2547  0.4963
 2103SOL    HW2 8483   3.458   1.578   3.489  0.6525  0.2942 -0.2172
 2103SOL    HW3 8484   3.312   1.598   3.454  0.2905  0.2823  1.2520
 2103SOL    MW4 8485   3.388   1.559   3.440  0.1440  0.2635  0.5021
 2104SOL     OW 8486   3.158   1.671   3.525 -0.0757  0.0194  0.1999
 2104SOL    HW2 8487   3.154   1.761   3.493 -0.3929  0.2464  0.8619
 2104SOL    HW3 8488   3.085   1.627   3.482 -0.5326  0.3374  0.6398
 2104SOL    MW4 8489   3.148   1.677   3.515 -0.1776  0.0913  0.3450
 2105SOL     OW 8490   3.147   1.928   3.391 -0.4579  0.3515  0.0138
 2105SOL    HW2 8491   3.071   1.979   3.419 -0.1702  1.0187 -0.4030
 2105SOL    HW3 8492   3.132   1.913   3.297 -1.2250 -1.5303  0.4173
 2105SOL    MW4 8493   3.135   1.933   3.382 -0.5212  0.1913  0.0122
 2106SOL     OW 8494   3.385   2.040   3.487  0.3239 -0.0056 -0.5244
 2106SOL    HW2 8495   3.380   2.123   3.438 -1.6978  0.2482  0.0889
 2106SOL    HW3 8496   3.304   1.994   3.465  1.1684 -1.5806 -0.3998
 2106SOL    MW4 8497   3.374   2.045   3.477  0.1686 -0.1798 -0.4270
 2107SOL     OW 8498   3.359   2.290   3.389 -0.0563 -0.0080  0.4604
 2107SOL    HW2 8499   3.436   2.343   3.412 -0.1764 -0.1683  1.2243
 2107SOL    HW3 8500   3.286   2.332   3.434 -0.5661  0.6415 -0.9474
 2107SOL    MW4 8501   3.360   2.302   3.398 -0.1395  0.0563  0.3755
 2108SOL     OW 8502   3.124   2.437   3.477  0.2548 -0.1171 -0.2890
 2108SOL    HW2 8503   3.131   2.521   3.432 -1.5292  0.7206  0.9208
 2108SOL    HW3 8504   3.033   2.411   3.464  0.5343 -1.3623  0.2167
 2108SOL    MW4 8505   3.113   2.445   3.469  0.0563 -0.1712 -0.0625
 2109SOL     OW 8506   3.119   2.680   3.349 -0.1708 -0.1905 -0.5786
 2109SOL    HW2 8507   3.176   2.737   3.401 -1.2532  1.1243 -0.7955
 2109SOL    HW3 8508   3.031   2.711   3.367 -0.7699 -1.6385 -0.9243
 2109SOL    MW4 8509   3.115   2.692   3.358 -0.3924 -0.2081 -0.6528
 2110SOL     OW 8510   3.348   2.828   3.461  0.4399  0.6934 -0.0418
 2110SOL    HW2 8511   3.434   2.790   3.442  0.2157  0.6608 -0.9906
 2110SOL    HW3 8512   3.361   2.922   3.455  0.7477  0.7531  1.2805
 2110SOL    MW4 8513   3.361   2.835   3.458  0.4508  0.6969  0.0076
 2111SOL     OW 8514   3.395   3.096   3.428 -0.3106 -0.0989 -0.1851
 2111SOL    HW2 8515   3.453   3.143   3.488 -0.3173 -1.4096  0.8619
 2111SOL    HW3 8516   3.311   3.141   3.437 -0.5006 -0.7131  1.3465
 2111SOL    MW4 8517   3.391   3.108   3.437 -0.3369 -0.3529  0.1552
 2112SOL     OW 8518   3.161   3.252   3.460  0.1181 -0.0708  0.0710
 2112SOL    HW2 8519   3.158   3.343   3.430  1.7262 -0.3693 -1.1136
 2112SOL    HW3 8520   3.076   3.215   3.435 -0.6850  1.2011  0.9093
 2112SOL    MW4 8521   3.149   3.259   3.452  0.2241  0.0575  0.0253
 2113SOL     OW 8522   3.161   3.523   3.365  0.2031 -0.1866 -0.0822
 2113SOL    HW2 8523   3.083   3.564   3.401  0.9828  1.8404 -0.6217
 2113SOL    HW3 8524   3.142   3.512   3.272  0.8765  1.1479 -0.3928
 2113SOL    MW4 8525   3.148   3.527   3.357  0.3948  0.2573 -0.1945
 2114SOL     OW 8526   3.366   3.631   3.513  0.4261  0.3201  0.4328
 2114SOL    HW2 8527   3.381   3.714   3.467 -1.0297  0.9416  1.0468
 2114SOL    HW3 8528   3.288   3.594   3.472  1.2059 -0.8682  0.0072
 2114SOL    MW4 8529   3.358   3.637   3.502  0.3369  0.2453  0.4578
 2115SOL     OW 8530   3.384   3.863   3.367  0.1097  0.2771  0.1256
 2115SOL    HW2 8531   3.463   3.915   3.382 -0.6409  1.8499 -1.1510
 2115SOL    HW3 8532   3.312   3.923   3.386 -0.7811 -0.7744  0.1151
 2115SOL    MW4 8533   3.385   3.878   3.371 -0.1070  0.3459 -0.0439
 2116SOL     OW 8534   3.120   4.009   3.468  0.5970 -0.4770  0.0521
 2116SOL    HW2 8535   3.142   3.990   3.559  0.7264  0.0264  0.1226
 2116SOL    HW3 8536   3.139   4.102   3.457 -2.1091  0.1509  0.3154
 2116SOL    MW4 8537   3.125   4.019   3.479  0.2573 -0.3276  0.0963
 2117SOL     OW 8538   3.165   4.284   3.348  0.0066  0.3951 -0.0447
 2117SOL    HW2 8539   3.227   4.326   3.408  0.1419  1.2683 -0.7866
 2117SOL    HW3 8540   3.079   4.317   3.374  0.0668  0.7851 -0.3391
 2117SOL    MW4 8541   3.162   4.294   3.360  0.0324  0.5617 -0.1817
 2118SOL     OW 8542   3.346   4.378   3.529  0.1533  0.0049  0.0123
 2118SOL    HW2 8543   3.335   4.382   3.624  0.4944  0.9821  0.0209
 2118SOL    HW3 8544   3.353   4.470   3.502 -2.2986 -0.1221 -1.2299
 2118SOL    MW4 8545   3.345   4.391   3.538 -0.1252  0.1173 -0.1500
 2119SOL     OW 8546   3.776   0.001   3.450  0.0577 -0.1814  0.3636
 2119SOL    HW2 8547   3.695   0.047   3.473 -0.9389 -1.9976  0.6346
 2119SOL    HW3 8548   3.769  -0.014   3.355 -0.7978 -1.8781  0.6617
 2119SOL    MW4 8549   3.764   0.005   3.440 -0.1867 -0.6449  0.4387
 2120SOL     OW 8550   3.530   0.126   3.540  0.1042  0.5318 -0.1273
 2120SOL    HW2 8551   3.553   0.205   3.491  0.4085 -0.1098 -1.0204
 2120SOL    HW3 8552   3.482   0.072   3.478  0.9076 -0.5018  0.1433
 2120SOL    MW4 8553   3.527   0.129   3.526  0.2501  0.3108 -0.2093
 2121SOL     OW 8554   3.619   0.344   3.378  0.4816  0.2555 -0.6668
 2121SOL    HW2 8555   3.688   0.400   3.413 -0.0462  0.1863  0.5094
 2121SOL    HW3 8556   3.538   0.390   3.399  0.0491 -0.8751  0.1977
 2121SOL    MW4 8557   3.618   0.357   3.385  0.3548  0.0972 -0.3974
 2122SOL     OW 8558   3.776   0.527   3.504  0.4438  0.3774 -0.8198
 2122SOL    HW2 8559   3.774   0.510   3.599 -0.2039  0.9429 -0.7285
 2122SOL    HW3 8560   3.855   0.482   3.474 -0.3475 -1.3908 -0.3173
 2122SOL    MW4 8561   3.786   0.519   3.513  0.2539  0.2187 -0.7415
 2123SOL     OW 8562   3.818   0.781   3.405 -0.3922  0.1159 -0.1806
 2123SOL    HW2 8563   3.908   0.792   3.435 -1.0839  1.1336  1.5958
 2123SOL    HW3 8564   3.795   0.691   3.429  0.1648 -0.1572 -0.6752
 2123SOL    MW4 8565   3.827   0.770   3.412 -0.4103  0.2141 -0.0112
 2124SOL     OW 8566   3.564   0.887   3.510 -0.0541 -0.3598  0.2478
 2124SOL    HW2 8567   3.558   0.882   3.606  0.4282 -2.4701  0.1871
 2124SOL    HW3 8568   3.652   0.855   3.490  0.1990  0.9908 -0.8574
 2124SOL    MW4 8569   3.575   0.882   3.520  0.0427 -0.4601  0.0937
 2125SOL     OW 8570   3.528   1.147   3.428 -0.1930  0.6563  0.2761
 2125SOL    HW2 8571   3.537   1.057   3.460 -0.1072  0.6202  0.1515
 2125SOL    HW3 8572   3.562   1.144   3.338 -1.8378  0.3996 -0.3660
 2125SOL    MW4 8573   3.533   1.135   3.420 -0.3986  0.6176  0.1750
 2126SOL     OW 8574   3.791   1.243   3.476 -0.1423 -0.2263 -0.3967
 2126SOL    HW2 8575   3.819   1.268   3.564 -0.7199  0.2425 -0.3428
 2126SOL    HW3 8576   3.698   1.220   3.486 -0.0826 -0.6472 -0.7877
 2126SOL    MW4 8577   3.782   1.243   3.489 -0.2105 -0.2202 -0.4411
 2127SOL     OW 8578   3.798   1.514   3.377 -0.1213  0.3929  0.2605
 2127SOL    HW2 8579   3.877   1.545   3.420  0.0568  1.6064 -0.9083
 2127SOL    HW3 8580   3.784   1.426   3.413  1.7842  0.1321  0.4236
 2127SOL    MW4 8581   3.806   1.506   3.387  0.1535  0.5188  0.1276
 2128SOL     OW 8582   3.615   1.664   3.543 -0.0424 -0.4185  0.4517
 2128SOL    HW2 8583   3.617   1.749   3.498 -1.4026 -1.1880 -1.0982
 2128SOL    HW3 8584   3.691   1.617   3.509  1.2776  0.5159  2.0387
 2128SOL    MW4 8585   3.625   1.669   3.533 -0.0477 -0.3968  0.4566
 2129SOL     OW 8586   3.620   1.910   3.426  0.2629 -0.2932 -0.1936
 2129SOL    HW2 8587   3.687   1.976   3.443  0.9634 -0.7265 -1.2208
 2129SOL    HW3 8588   3.537   1.956   3.442  0.5832  1.8483 -3.8839
 2129SOL    MW4 8589   3.618   1.925   3.430  0.3974 -0.0678 -0.8161
 2130SOL     OW 8590   3.826   2.094   3.469 -0.1353 -0.2055  0.2115
 2130SOL    HW2 8591   3.814   2.088   3.564  1.1168  0.8527  0.4489
 2130SOL    HW3 8592   3.894   2.031   3.449 -0.3684 -0.3973  0.0223
 2130SOL    MW4 8593   3.833   2.085   3.479 -0.0010 -0.0911  0.2177
 2131SOL     OW 8594   3.821   2.364   3.350  0.3697  0.2038 -0.1566
 2131SOL    HW2 8595   3.891   2.405   3.401 -0.0410  0.6222  0.0825
 2131SOL    HW3 8596   3.825   2.271   3.373  2.1756 -0.1293 -1.7225
 2131SOL    MW4 8597   3.830   2.357   3.360  0.5538  0.2151 -0.3314
 2132SOL     OW 8598   3.580   2.450   3.465  0.9918  0.1066  0.4086
 2132SOL    HW2 8599   3.568   2.545   3.457  0.7758  0.0122 -0.4838
 2132SOL    HW3 8600   3.665   2.433   3.425  0.4921 -0.2194 -0.5323
 2132SOL    MW4 8601   3.590   2.460   3.458  0.8972  0.0513  0.1671
 2133SOL     OW 8602   3.593   2.716   3.418 -0.4088 -0.0337  0.0944
 2133SOL    HW2 8603   3.677   2.761   3.429 -0.9620  1.0145  0.0178
 2133SOL    HW3 8604   3.592   2.689   3.326 -1.2229  2.1103 -0.5380
 2133SOL    MW4 8605   3.604   2.718   3.407 -0.5894  0.3872  0.0010
 2134SOL     OW 8606   3.841   2.880   3.463 -0.2757  0.0217  0.0051
 2134SOL    HW2 8607   3.836   2.901   3.556 -3.0350  0.3955 -0.1825
 2134SOL    HW3 8608   3.821   2.962   3.418  1.9635  0.0666 -0.9466
 2134SOL    MW4 8609   3.838   2.894   3.469 -0.3445  0.0770 -0.1454
 2135SOL     OW 8610   3.796   3.130   3.392  0.1298  0.4268  0.1731
 2135SOL    HW2 8611   3.872   3.176   3.428  0.5946  0.0906 -0.3683
 2135SOL    HW3 8612   3.806   3.139   3.297  0.6667 -1.4869  0.0230
 2135SOL    MW4 8613   3.808   3.137   3.384  0.2620  0.1299  0.0818
 2136SOL     OW 8614   3.594   3.235   3.566 -0.6582 -0.3264 -0.5015
 2136SOL    HW2 8615   3.591   3.327   3.539 -0.7953 -0.4536 -0.9184
 2136SOL    HW3 8616   3.668   3.199   3.517 -1.0165 -0.6002 -0.8409
 2136SOL    MW4 8617   3.603   3.243   3.556 -0.7236 -0.3793 -0.6015
 2137SOL     OW 8618   3.575   3.479   3.448 -0.2368  0.3135  0.6580
 2137SOL    HW2 8619   3.498   3.533   3.465 -0.0116  0.7674  0.2385
 2137SOL    HW3 8620   3.586   3.483   3.353  0.3131  0.2607  0.7191
 2137SOL    MW4 8621   3.566   3.486   3.438 -0.1347  0.3664  0.6104
 2138SOL     OW 8622   3.764   3.674   3.501  0.3396 -0.2178 -0.2794
 2138SOL    HW2 8623   3.784   3.669   3.594  0.4614 -2.9241 -0.3948
 2138SOL    HW3 8624   3.688   3.616   3.490  0.3690  0.0137 -1.8580
 2138SOL    MW4 8625   3.757   3.666   3.512  0.3593 -0.5443 -0.5028
 2139SOL     OW 8626   3.817   3.896   3.366 -0.2556  0.2900 -0.3125
 2139SOL    HW2 8627   3.739   3.951   3.367  0.1338  0.8196  0.8055
 2139SOL    HW3 8628   3.794   3.820   3.419  0.5183  1.1799  1.3125
 2139SOL    MW4 8629   3.804   3.893   3.373 -0.1023  0.4776  0.0494
 2140SOL     OW 8630   3.592   4.036   3.454  0.3461  0.4764  0.1330
 2140SOL    HW2 8631   3.595   4.049   3.549 -1.8078  0.8596  0.1668
 2140SOL    HW3 8632   3.586   4.124   3.418  0.2934  0.2834 -0.3283
 2140SOL    MW4 8633   3.592   4.049   3.462  0.0551  0.5016  0.0763
 2141SOL     OW 8634   3.589   4.296   3.388 -0.4454 -0.0009 -0.1441
 2141SOL    HW2 8635   3.511   4.321   3.437  0.7338  0.1998  1.6973
 2141SOL    HW3 8636   3.564   4.304   3.296 -2.7746 -0.5914  0.4270
 2141SOL    MW4 8637   3.575   4.300   3.382 -0.5970 -0.0525  0.1743
 2142SOL     OW 8638   3.829   4.409   3.508 -0.1068 -0.0363  0.2027
 2142SOL    HW2 8639   3.746   4.369   3.483  1.0724 -1.0864 -2.1263
 2142SOL    HW3 8640   3.817   4.502   3.489 -0.7306 -0.1951 -0.1940
 2142SOL    MW4 8641   3.817   4.416   3.502 -0.0334 -0.1960 -0.1571
 2143SOL     OW 8642   4.237   0.014   3.415  0.5450 -0.5723  0.3302
 2143SOL    HW2 8643   4.243  -0.078   3.439 -0.0731 -0.8342 -0.5283
 2143SOL    HW3 8644   4.323   0.050   3.438  0.6124 -1.2404  1.1417
 2143SOL    MW4 8645   4.249   0.007   3.421  0.4725 -0.6948  0.3240
 2144SOL     OW 8646   4.008   0.149   3.498  0.0916  0.4084 -0.6608
 2144SOL    HW2 8647   4.087   0.105   3.467 -0.0657 -0.2906 -0.0908
 2144SOL    HW3 8648   3.936   0.094   3.468 -0.0282 -0.7805  1.6942
 2144SOL    MW4 8649   4.009   0.136   3.490  0.0553  0.1593 -0.2751
 2145SOL     OW 8650   4.015   0.417   3.404  0.1107  0.4729 -0.2904
 2145SOL    HW2 8651   4.006   0.322   3.418 -0.4296  0.6245  0.4392
 2145SOL    HW3 8652   4.019   0.427   3.309  0.3144 -0.2944 -0.3689
 2145SOL    MW4 8653   4.014   0.406   3.394  0.0663  0.3917 -0.2048
 2146SOL     OW 8654   4.263   0.497   3.492 -0.6117  0.5734 -0.1323
 2146SOL    HW2 8655   4.265   0.585   3.454 -0.2783  0.6429  0.0428
 2146SOL    HW3 8656   4.177   0.462   3.469 -0.5605  0.7641 -0.6137
 2146SOL    MW4 8657   4.252   0.504   3.484 -0.5612  0.6077 -0.1726
 2147SOL     OW 8658   4.269   0.761   3.361  0.4017 -0.1347 -0.1555
 2147SOL    HW2 8659   4.352   0.790   3.398 -0.2286  1.3699  0.1105
 2147SOL    HW3 8660   4.279   0.772   3.267 -0.1671  1.9344 -0.0047
 2147SOL    MW4 8661   4.281   0.766   3.354  0.2427  0.3368 -0.1006
 2148SOL     OW 8662   4.068   0.857   3.504 -0.0675  0.1386  0.2444
 2148SOL    HW2 8663   4.072   0.945   3.467 -1.0987 -1.0131 -2.7827
 2148SOL    HW3 8664   4.142   0.810   3.465  0.0352 -0.5554  1.2446
 2148SOL    MW4 8665   4.078   0.862   3.494 -0.1903 -0.1049 -0.0231
 2149SOL     OW 8666   4.021   1.086   3.387  0.2903  0.1770  0.2405
 2149SOL    HW2 8667   4.088   1.154   3.398 -1.7867  2.4047 -0.3568
 2149SOL    HW3 8668   3.939   1.129   3.414 -0.9552 -2.3625  0.6031
 2149SOL    MW4 8669   4.019   1.101   3.392 -0.1478  0.1358  0.2091
 2150SOL     OW 8670   4.209   1.259   3.458  0.1976  0.3548  0.4276
 2150SOL    HW2 8671   4.224   1.348   3.426  0.4633 -0.0387 -0.5574
 2150SOL    HW3 8672   4.288   1.211   3.435 -0.9934 -0.7977 -1.4739
 2150SOL    MW4 8673   4.221   1.265   3.451  0.0753  0.1508  0.0467
 2151SOL     OW 8674   4.270   1.524   3.369  0.0989  0.5235  0.2105
 2151SOL    HW2 8675   4.190   1.565   3.404  0.4564  1.2455  0.1880
 2151SOL    HW3 8676   4.268   1.545   3.275  0.1912  0.3282  0.1648
 2151SOL    MW4 8677   4.259   1.532   3.361  0.1583  0.5929  0.2015
 2152SOL     OW 8678   4.039   1.629   3.483 -0.2702  0.4426 -0.0391
 2152SOL    HW2 8679   4.039   1.628   3.579 -0.2775  1.3897 -0.0226
 2152SOL    HW3 8680   4.042   1.722   3.460 -0.9676  0.2537 -0.9539
 2152SOL    MW4 8681   4.039   1.641   3.493 -0.3633  0.5428 -0.1576
 2153SOL     OW 8682   4.033   1.909   3.409  0.1245 -0.0947 -0.3635
 2153SOL    HW2 8683   4.104   1.971   3.428 -0.0582  0.1413 -0.4349
 2153SOL    HW3 8684   4.037   1.899   3.313  0.1196 -0.1522 -0.3574
 2153SOL    MW4 8685   4.043   1.916   3.399  0.0997 -0.0712 -0.3719
 2154SOL     OW 8686   4.259   2.077   3.492  0.2388  0.1478 -0.3345
 2154SOL    HW2 8687   4.271   2.164   3.453  0.0977  0.3179 -0.0024
 2154SOL    HW3 8688   4.339   2.029   3.469  0.3662  0.4023 -0.4210
 2154SOL    MW4 8689   4.271   2.082   3.484  0.2370  0.2038 -0.3021
 2155SOL     OW 8690   4.286   2.342   3.376 -0.0259 -0.4595 -0.4946
 2155SOL    HW2 8691   4.205   2.378   3.413  0.1349  0.5421 -1.1249
 2155SOL    HW3 8692   4.271   2.341   3.282  0.7203 -0.2325 -0.6115
 2155SOL    MW4 8693   4.273   2.347   3.369  0.0939 -0.2975 -0.5932
 2156SOL     OW 8694   4.053   2.438   3.476 -0.6188  0.1247 -0.3953
 2156SOL    HW2 8695   4.038   2.441   3.571 -1.2954  1.0379 -0.5295
 2156SOL    HW3 8696   4.055   2.529   3.449  1.4891 -0.0676 -0.9852
 2156SOL    MW4 8697   4.052   2.450   3.485 -0.4296  0.2196 -0.4909
 2157SOL     OW 8698   4.032   2.701   3.407 -0.0053  0.3423  0.0854
 2157SOL    HW2 8699   4.114   2.748   3.421  0.0885  0.5442 -1.1214
 2157SOL    HW3 8700   3.964   2.762   3.434  0.2444 -0.0463  1.6901
 2157SOL    MW4 8701   4.034   2.715   3.413  0.0405  0.3176  0.1378
 2158SOL     OW 8702   4.237   2.861   3.469  0.1116 -0.0342  0.0169
 2158SOL    HW2 8703   4.232   2.857   3.565  1.2916  1.7611  0.1790
 2158SOL    HW3 8704   4.313   2.808   3.447 -0.0734 -0.3283  0.0886
 2158SOL    MW4 8705   4.246   2.854   3.479  0.2427  0.1636  0.0477
 2159SOL     OW 8706   4.245   3.123   3.412  0.2222 -0.2960 -0.0689
 2159SOL    HW2 8707   4.243   3.031   3.440  0.2271  0.2193  1.6860
 2159SOL    HW3 8708   4.332   3.154   3.437 -0.7381  0.9273  1.8674
 2159SOL    MW4 8709   4.256   3.115   3.419  0.0963 -0.0668  0.4182
 2160SOL     OW 8710   4.016   3.239   3.527  0.3328  0.1967  0.4526
 2160SOL    HW2 8711   4.006   3.320   3.478  0.3076 -0.3095 -0.3934
 2160SOL    HW3 8712   4.104   3.207   3.505  0.1705 -0.2386  0.4244
 2160SOL    MW4 8713   4.026   3.245   3.518  0.3080  0.0725  0.3374
 2161SOL     OW 8714   3.973   3.486   3.394  0.7230  0.3027  0.0336
 2161SOL    HW2 8715   4.043   3.550   3.407  2.0209 -1.2566  0.7348
 2161SOL    HW3 8716   3.899   3.522   3.443  1.4476  1.2417  0.4599
 2161SOL    MW4 8717   3.972   3.499   3.402  0.9897  0.2208  0.1824
 2162SOL     OW 8718   4.199   3.619   3.446 -0.0367  0.2890  0.0804
 2162SOL    HW2 8719   4.216   3.628   3.540  0.0951 -0.2412  0.1090
 2162SOL    HW3 8720   4.219   3.705   3.410  0.0546  0.4538  0.5174
 2162SOL    MW4 8721   4.204   3.632   3.454 -0.0067  0.2408  0.1421
 2163SOL     OW 8722   4.253   3.899   3.365 -0.3757  0.3090 -0.0596
 2163SOL    HW2 8723   4.336   3.921   3.408 -1.1193  0.6511  1.2254
 2163SOL    HW3 8724   4.275   3.894   3.272  0.7342  2.1486  0.0739
 2163SOL    MW4 8725   4.267   3.901   3.358 -0.3276  0.5968  0.1273
 2164SOL     OW 8726   4.033   4.031   3.482 -0.1072 -0.3188 -0.6019
 2164SOL    HW2 8727   4.108   3.989   3.439 -0.3165 -0.1134 -1.1697
 2164SOL    HW3 8728   3.958   3.978   3.455 -0.3755  0.4295 -1.3413
 2164SOL    MW4 8729   4.033   4.019   3.472 -0.1702 -0.1931 -0.7744
 2165SOL     OW 8730   4.053   4.267   3.360  0.4953  0.0833  0.0547
 2165SOL    HW2 8731   4.055   4.183   3.406  0.3765 -0.2412 -0.5199
 2165SOL    HW3 8732   3.990   4.320   3.409  0.0041 -0.4285 -0.0134
 2165SOL    MW4 8733   4.045   4.263   3.373  0.4144 -0.0272 -0.0303
 2166SOL     OW 8734   4.264   4.399   3.471  0.0880  0.4338 -0.4135
 2166SOL    HW2 8735   4.258   4.398   3.566 -0.1270  0.1524 -0.4288
 2166SOL    HW3 8736   4.197   4.337   3.442 -0.1468  0.8453 -0.7651
 2166SOL    MW4 8737   4.254   4.391   3.480  0.0291  0.4506 -0.4621
 2167SOL     OW 8738   0.255   0.022   3.907  0.1180  0.2453 -0.1594
 2167SOL    HW2 8739   0.241   0.021   4.001 -0.9499  0.2368 -0.3191
 2167SOL    HW3 8740   0.175   0.058   3.870  0.9716  1.3416 -0.9953
 2167SOL    MW4 8741   0.243   0.027   3.914  0.0897  0.3888 -0.2909
 2168SOL     OW 8742   0.047   0.109   3.758 -0.0992 -0.6165 -0.2987
 2168SOL    HW2 8743   0.034   0.201   3.783  0.8788  0.0799 -2.2217
 2168SOL    HW3 8744   0.046   0.111   3.662  1.2475 -2.4179 -0.3603
 2168SOL    MW4 8745   0.045   0.122   3.748  0.2075 -0.7623 -0.5605
 2169SOL     OW 8746   0.022   0.378   3.812  0.7827 -0.2747  0.5230
 2169SOL    HW2 8747  -0.056   0.423   3.780  1.0108 -0.7298 -0.6812
 2169SOL    HW3 8748   0.090   0.445   3.812  0.4454  0.0684  1.3670
 2169SOL    MW4 8749   0.021   0.393   3.808  0.7683 -0.2894  0.4754
 2170SOL     OW 8750   0.255   0.515   3.779  0.0235 -0.1050 -0.5635
 2170SOL    HW2 8751   0.263   0.608   3.797 -2.2437  0.2956 -1.6018
 2170SOL    HW3 8752   0.223   0.509   3.689 -0.5373 -1.8623 -0.2800
 2170SOL    MW4 8753   0.252   0.526   3.770 -0.3496 -0.2840 -0.6630
 2171SOL     OW 8754   0.229   0.776   3.860 -0.0049  0.0341  0.0376
 2171SOL    HW2 8755   0.237   0.749   3.951  1.2142  0.5578  0.0938
 2171SOL    HW3 8756   0.135   0.794   3.848 -0.1927 -0.1975  1.1356
 2171SOL    MW4 8757   0.218   0.775   3.870  0.1311  0.0727  0.1898
 2172SOL     OW 8758   4.477   0.840   3.730 -0.0441 -0.1301 -0.1407
 2172SOL    HW2 8759   4.384   0.830   3.753  0.1124  0.3200  0.6871
 2172SOL    HW3 8760   4.499   0.930   3.754  0.6737 -0.3122 -0.1051
 2172SOL    MW4 8761   4.467   0.850   3.737  0.0713 -0.0947 -0.0267
 2173SOL     OW 8762   0.006   1.100   3.827 -0.1824 -0.3522  0.3660
 2173SOL    HW2 8763  -0.075   1.151   3.824  0.1170  0.2847  2.4691
 2173SOL    HW3 8764   0.074   1.162   3.802  0.0279 -0.0342  1.6958
 2173SOL    MW4 8765   0.004   1.115   3.823 -0.1151 -0.2261  0.8187
 2174SOL     OW 8766   0.201   1.272   3.754 -0.9011  0.3469 -0.1073
 2174SOL    HW2 8767   0.190   1.364   3.777  0.0326  0.5686 -0.5215
 2174SOL    HW3 8768   0.198   1.271   3.658  0.5264  0.1488 -0.1619
 2174SOL    MW4 8769   0.199   1.284   3.744 -0.5896  0.3500 -0.1690
 2175SOL     OW 8770   0.222   1.568   3.819  0.1282 -0.3129 -0.0085
 2175SOL    HW2 8771   0.217   1.566   3.914  0.6014  3.0458  0.1338
 2175SOL    HW3 8772   0.137   1.601   3.791  0.4676  0.0227 -0.6638
 2175SOL    MW4 8773   0.210   1.572   3.827  0.2354  0.1745 -0.0763
 2176SOL     OW 8774   4.447   1.695   3.765  0.2152  0.3896  0.1784
 2176SOL    HW2 8775   4.452   1.789   3.777  2.4630  0.3009  0.0276
 2176SOL    HW3 8776   4.455   1.682   3.670  1.6494 -0.0536  0.3570
 2176SOL    MW4 8777   4.448   1.705   3.754  0.7014  0.3194  0.1822
 2177SOL     OW 8778   4.470   1.968   3.826 -0.2181 -0.1265  0.4696
 2177SOL    HW2 8779   4.476   1.960   3.921 -1.6809  0.3618  0.6022
 2177SOL    HW3 8780   4.389   2.015   3.810  0.6246  0.8709 -0.9841
 2177SOL    MW4 8781   4.460   1.973   3.836 -0.2995  0.0695  0.2954
 2178SOL     OW 8782   0.214   2.081   3.726 -0.1929  0.1371 -0.4750
 2178SOL    HW2 8783   0.214   2.168   3.767  0.5256  0.5237 -1.2799
 2178SOL    HW3 8784   0.130   2.043   3.752 -0.1522  0.7345  0.5868
 2178SOL    MW4 8785   0.203   2.087   3.735 -0.0927  0.2668 -0.4411
 2179SOL     OW 8786   0.228   2.328   3.854  0.8930 -0.2869 -0.3505
 2179SOL    HW2 8787   0.232   2.326   3.949  3.1926  4.1934 -0.1942
 2179SOL    HW3 8788   0.144   2.369   3.834  0.0693 -1.9152 -0.3394
 2179SOL    MW4 8789   0.218   2.333   3.864  1.0878  0.0894 -0.3283
 2180SOL     OW 8790   4.486   2.451   3.771 -0.2952  0.2257 -0.1222
 2180SOL    HW2 8791   4.406   2.413   3.808 -0.3412  0.4581  0.0224
 2180SOL    HW3 8792   4.483   2.543   3.799 -0.8733  0.6813 -1.5842
 2180SOL    MW4 8793   4.475   2.458   3.780 -0.3777  0.3166 -0.2959
 2181SOL     OW 8794   4.436   2.713   3.851  0.5608  0.1356 -0.1724
 2181SOL    HW2 8795   4.436   2.709   3.947  0.4555  1.4303 -0.1121
 2181SOL    HW3 8796   4.508   2.771   3.829  0.8302 -0.4671 -0.9014
 2181SOL    MW4 8797   4.445   2.720   3.861  0.5817  0.2265 -0.2604
 2182SOL     OW 8798   0.149   2.877   3.762  0.4766 -0.2732 -0.0787
 2182SOL    HW2 8799   0.226   2.824   3.784  1.1033  0.2279 -1.0199
 2182SOL    HW3 8800   0.137   2.862   3.668 -0.8230 -0.6603  0.1360
 2182SOL    MW4 8801   0.157   2.868   3.752  0.3878 -0.2582 -0.1745
 2183SOL     OW 8802   0.183   3.140   3.852  0.3301  0.2412 -0.2945
 2183SOL    HW2 8803   0.183   3.048   3.824  2.9964 -0.1978  1.0150
 2183SOL    HW3 8804   0.100   3.175   3.819 -0.2251 -2.3384 -1.7669
 2183SOL    MW4 8805   0.172   3.133   3.844  0.6087 -0.1571 -0.3161
 2184SOL     OW 8806   4.436   3.250   3.760  0.1527 -0.0111 -0.4286
 2184SOL    HW2 8807   4.447   3.322   3.822  2.7621 -1.3549  0.6991
 2184SOL    HW3 8808   4.356   3.206   3.789  0.2085  0.6059  0.6912
 2184SOL    MW4 8809   4.427   3.254   3.772  0.5050 -0.1068 -0.1321
 2185SOL     OW 8810   4.457   3.526   3.861  0.1925  0.2559  0.2488
 2185SOL    HW2 8811   4.543   3.564   3.845  0.5700  0.0351  1.6718
 2185SOL    HW3 8812   4.440   3.545   3.954 -0.5910 -1.1006  0.3843
 2185SOL    MW4 8813   4.466   3.534   3.871  0.1392  0.0477  0.4542
 2186SOL     OW 8814   0.210   3.629   3.755  0.0122  0.1101  0.1785
 2186SOL    HW2 8815   0.293   3.600   3.793  0.2000  0.2479 -0.1244
 2186SOL    HW3 8816   0.197   3.717   3.791 -1.1895 -0.8312  2.0974
 2186SOL    MW4 8817   0.220   3.637   3.765 -0.1216  0.0041  0.3915
 2187SOL     OW 8818   0.177   3.875   3.872 -0.6064 -0.2362  0.0565
 2187SOL    HW2 8819   0.165   3.868   3.967 -0.5922 -1.0308  0.0058
 2187SOL    HW3 8820   0.268   3.902   3.862 -0.7166  0.2251  0.2798
 2187SOL    MW4 8821   0.187   3.878   3.883 -0.6191 -0.2804  0.0792
 2188SOL     OW 8822   4.478   4.062   3.752  0.3521 -0.1441 -0.3443
 2188SOL    HW2 8823   4.400   4.022   3.789  0.1206 -0.3625 -1.0570
 2188SOL    HW3 8824   4.551   4.014   3.792  0.1054 -0.3994 -0.1988
 2188SOL    MW4 8825   4.477   4.050   3.762  0.2890 -0.2065 -0.4191
 2189SOL     OW 8826   4.490   4.341   3.817 -0.0065 -0.0079  0.0254
 2189SOL    HW2 8827   4.578   4.375   3.803 -0.2089  0.8848  0.8459
 2189SOL    HW3 8828   4.494   4.250   3.785  0.8949  0.3631 -0.9729
 2189SOL    MW4 8829   4.502   4.333   3.811  0.0863  0.1593  0.0021
 2190SOL     OW 8830   0.278   4.422   3.799  0.1803 -0.3524  0.4953
 2190SOL    HW2 8831   0.348   4.380   3.849  2.6295  0.8503 -1.7576
 2190SOL    HW3 8832   0.281   4.514   3.826 -1.4908 -0.5550  1.4067
 2190SOL    MW4 8833   0.288   4.428   3.809  0.2829 -0.2203  0.3183
 2191SOL     OW 8834   0.665   4.643   3.887  0.2632 -0.2018  0.0415
 2191SOL    HW2 8835   0.657   4.557   3.845 -1.1102 -1.1273  2.1202
 2191SOL    HW3 8836   0.595   4.695   3.847 -1.4061 -1.2483  1.5178
 2191SOL    MW4 8837   0.655   4.638   3.876 -0.1382 -0.4621  0.5105
 2192SOL     OW 8838   0.468   0.135   3.763  0.2070 -0.0257 -0.2626
 2192SOL    HW2 8839   0.477   0.221   3.803 -1.5869  0.7714 -1.5071
 2192SOL    HW3 8840   0.406   0.088   3.820  0.1450 -0.0159 -0.3214
 2192SOL    MW4 8841   0.461   0.140   3.776 -0.0379  0.0807 -0.4342
 2193SOL     OW 8842   0.501   0.390   3.854  0.2953 -0.6702  0.1289
 2193SOL    HW2 8843   0.571   0.443   3.817  0.4724 -0.7777  0.3107
 2193SOL    HW3 8844   0.421   0.426   3.816  0.2609  0.8205  1.5344
 2193SOL    MW4 8845   0.500   0.402   3.844  0.3141 -0.4877  0.3386
 2194SOL     OW 8846   0.732   0.560   3.732  0.3410  0.1684 -0.0140
 2194SOL    HW2 8847   0.791   0.510   3.788 -1.4423 -1.2206  0.6728
 2194SOL    HW3 8848   0.731   0.648   3.771 -0.6490 -0.7044  1.9967
 2194SOL    MW4 8849   0.740   0.565   3.745 -0.0248 -0.1300  0.3419
 2195SOL     OW 8850   0.710   0.832   3.849 -0.3170  0.1893 -0.0025
 2195SOL    HW2 8851   0.767   0.881   3.790 -0.0597 -0.7311 -0.5346
 2195SOL    HW3 8852   0.621   0.850   3.818 -0.1796 -0.3266 -0.7051
 2195SOL    MW4 8853   0.706   0.841   3.837 -0.2649 -0.0002 -0.1652
 2196SOL     OW 8854   0.452   0.889   3.747  0.4727  0.2191  0.4847
 2196SOL    HW2 8855   0.442   0.974   3.789  0.0726  0.5869 -0.3530
 2196SOL    HW3 8856   0.377   0.838   3.779 -0.2619  0.7451 -0.3526
 2196SOL    MW4 8857   0.440   0.893   3.757  0.3230  0.3369  0.2637
 2197SOL     OW 8858   0.424   1.154   3.848 -0.0716  0.2451 -0.4227
 2197SOL    HW2 8859   0.508   1.194   3.823  0.2390  0.6833  1.2151
 2197SOL    HW3 8860   0.358   1.212   3.812  0.3622  0.8599 -0.2431
 2197SOL    MW4 8861   0.427   1.167   3.840  0.0266  0.3841 -0.1829
 2198SOL     OW 8862   0.652   1.304   3.778  0.2078 -0.4292 -0.0791
 2198SOL    HW2 8863   0.741   1.275   3.796  0.0809 -0.9722 -0.2969
 2198SOL    HW3 8864   0.642   1.295   3.684 -0.6162 -2.0030  0.1279
 2198SOL    MW4 8865   0.662   1.299   3.768  0.0824 -0.7085 -0.0803
 2199SOL     OW 8866   0.675   1.568   3.876 -0.1062 -0.2626  0.0311
 2199SOL    HW2 8867   0.746   1.614   3.831 -0.2371 -0.4841 -0.4091
 2199SOL    HW3 8868   0.684   1.477   3.848 -1.5599 -0.0160 -1.3353
 2199SOL    MW4 8869   0.685   1.562   3.866 -0.3152 -0.2593 -0.2072
 2200SOL     OW 8870   0.472   1.685   3.746  0.3766  0.6078  0.2286
 2200SOL    HW2 8871   0.546   1.646   3.792  0.6424 -0.4645 -1.0775
 2200SOL    HW3 8872   0.396   1.634   3.774  0.1555  1.5601  1.3908
 2200SOL    MW4 8873   0.471   1.673   3.756  0.3825  0.5920  0.2096
 2201SOL     OW 8874   0.370   1.927   3.903  0.2403  0.3053  0.3480
 2201SOL    HW2 8875   0.399   1.845   3.862  1.9283  0.7068  0.7118
 2201SOL    HW3 8876   0.305   1.962   3.842 -0.4910 -1.2847  0.1702
 2201SOL    MW4 8877   0.365   1.921   3.889  0.3665  0.1484  0.3726
 2202SOL     OW 8878   0.592   2.032   3.776  0.0466  0.2304 -0.3198
 2202SOL    HW2 8879   0.601   2.120   3.813 -1.6825  0.5740 -0.6766
 2202SOL    HW3 8880   0.520   1.993   3.826  1.2727 -1.2519  0.3239
 2202SOL    MW4 8881   0.583   2.039   3.787 -0.0198  0.0801 -0.2820
 2203SOL     OW 8882   0.615   2.320   3.887  0.0634 -0.1862  0.4278
 2203SOL    HW2 8883   0.698   2.362   3.866  0.0670 -0.8490 -0.8903
 2203SOL    HW3 8884   0.550   2.367   3.834  0.0461 -1.7378 -0.9362
 2203SOL    MW4 8885   0.617   2.332   3.877  0.0616 -0.4783  0.0739
 2204SOL     OW 8886   0.429   2.474   3.753 -0.3187  0.4127  0.0298
 2204SOL    HW2 8887   0.351   2.425   3.779  1.1298 -1.9689 -0.0407
 2204SOL    HW3 8888   0.426   2.474   3.657 -0.9566  1.5693  0.0321
 2204SOL    MW4 8889   0.418   2.468   3.744 -0.2118  0.2511  0.0207
 2205SOL     OW 8890   0.373   2.731   3.838 -0.0008 -0.1949  0.4641
 2205SOL    HW2 8891   0.450   2.779   3.808  0.7397 -2.3632 -1.2874
 2205SOL    HW3 8892   0.392   2.640   3.817 -2.0540 -1.0689  2.1902
 2205SOL    MW4 8893   0.385   2.726   3.831 -0.1740 -0.5963  0.4609
 2206SOL     OW 8894   0.626   2.843   3.761  0.1883  0.3488  0.4596
 2206SOL    HW2 8895   0.681   2.784   3.812 -1.5488 -0.9104  0.9099
 2206SOL    HW3 8896   0.673   2.855   3.678  1.9820  0.7222  1.5120
 2206SOL    MW4 8897   0.639   2.837   3.756  0.1958  0.2317  0.6578
 2207SOL     OW 8898   0.643   3.113   3.838 -0.0837  0.6272  0.2539
 2207SOL    HW2 8899   0.660   3.106   3.932 -1.2728  0.2468  0.4465
 2207SOL    HW3 8900   0.646   3.023   3.806  1.0197  0.8144 -0.2120
 2207SOL    MW4 8901   0.645   3.100   3.846 -0.0951  0.6015  0.2177
 2208SOL     OW 8902   0.420   3.262   3.762 -0.0508  0.0068 -0.3659
 2208SOL    HW2 8903   0.486   3.195   3.780 -0.4022  0.1543  1.4956
 2208SOL    HW3 8904   0.338   3.227   3.796 -0.6161  0.5528 -1.1364
 2208SOL    MW4 8905   0.418   3.249   3.768 -0.1718  0.0982 -0.2220
 2209SOL     OW 8906   0.430   3.516   3.869 -0.1771  0.0254  0.0357
 2209SOL    HW2 8907   0.502   3.559   3.823  0.5761 -0.6870  0.5347
 2209SOL    HW3 8908   0.425   3.428   3.829 -0.1913 -0.2348  0.6091
 2209SOL    MW4 8909   0.439   3.510   3.857 -0.0796 -0.1030  0.1774
 2210SOL     OW 8910   0.661   3.641   3.758 -0.3932  0.2291 -0.0228
 2210SOL    HW2 8911   0.668   3.728   3.796  2.7571  0.4757 -1.0771
 2210SOL    HW3 8912   0.667   3.655   3.663 -0.5446 -1.0839 -0.2430
 2210SOL    MW4 8913   0.663   3.654   3.750  0.0024  0.0880 -0.1912
 2211SOL     OW 8914   0.661   3.883   3.907 -0.0517 -0.0764  0.2254
 2211SOL    HW2 8915   0.684   3.855   3.995 -0.1639 -1.3012 -0.1260
 2211SOL    HW3 8916   0.738   3.929   3.875 -0.4920  1.5674  1.4431
 2211SOL    MW4 8917   0.674   3.886   3.914 -0.1246 -0.0207  0.3395
 2212SOL     OW 8918   0.420   4.032   3.846  0.2627 -0.0997 -0.2368
 2212SOL    HW2 8919   0.503   3.986   3.856  0.4075 -0.4322 -2.6368
 2212SOL    HW3 8920   0.412   4.048   3.752 -1.6709  1.2849  0.1146
 2212SOL    MW4 8921   0.430   4.028   3.835  0.0267  0.0391 -0.5066
 2213SOL     OW 8922   0.476   4.292   3.963  0.0487 -0.2539  0.4880
 2213SOL    HW2 8923   0.541   4.324   3.900  1.6676  1.1210  2.7829
 2213SOL    HW3 8924   0.470   4.198   3.945  2.2337 -0.3060 -0.1873
 2213SOL    MW4 8925   0.484   4.284   3.952  0.5506 -0.0796  0.7021
 2214SOL     OW 8926   0.644   4.400   3.762 -0.0895 -0.0385  0.6310
 2214SOL    HW2 8927   0.730   4.359   3.770 -0.2229 -0.1933  1.3198
 2214SOL    HW3 8928   0.625   4.398   3.668  0.1600 -1.0271  0.5939
 2214SOL    MW4 8929   0.653   4.394   3.750 -0.0742 -0.1888  0.7167
 2215SOL     OW 8930   1.141   0.044   3.875  0.3757 -0.1145  0.2149
 2215SOL    HW2 8931   1.217   0.078   3.829 -0.6656 -0.1969 -1.5931
 2215SOL    HW3 8932   1.127  -0.043   3.838  0.2406 -0.6675  1.5386
 2215SOL    MW4 8933   1.149   0.037   3.864  0.2205 -0.1984  0.1509
 2216SOL     OW 8934   0.891   0.129   3.777  0.0092 -0.2146  0.2749
 2216SOL    HW2 8935   0.978   0.088   3.776 -0.9556 -2.3658 -1.4084
 2216SOL    HW3 8936   0.836   0.068   3.826 -0.4198  1.4622  1.9044
 2216SOL    MW4 8937   0.895   0.116   3.783 -0.1746 -0.2772  0.2677
 2217SOL     OW 8938   0.899   0.387   3.930 -0.3092  0.4925  0.2803
 2217SOL    HW2 8939   0.836   0.405   4.000 -0.1925  0.9030  0.2804
 2217SOL    HW3 8940   0.879   0.297   3.903 -0.7051  0.5167  0.4796
 2217SOL    MW4 8941   0.888   0.378   3.936 -0.3459  0.5498  0.3068
 2218SOL     OW 8942   1.104   0.486   3.756 -0.2202  0.2406  0.5957
 2218SOL    HW2 8943   1.188   0.452   3.785  0.0312  0.1653 -0.2175
 2218SOL    HW3 8944   1.041   0.450   3.818  0.0773 -1.4814 -0.0662
 2218SOL    MW4 8945   1.107   0.477   3.768 -0.1478  0.0034  0.4010
 2219SOL     OW 8946   1.094   0.772   3.846  0.0347  0.2023 -0.0934
 2219SOL    HW2 8947   1.099   0.768   3.941 -0.9159 -0.0687 -0.0551
 2219SOL    HW3 8948   1.093   0.680   3.818 -1.0327  0.2651 -0.2868
 2219SOL    MW4 8949   1.094   0.759   3.855 -0.2315  0.1748 -0.1137
 2220SOL     OW 8950   0.915   0.927   3.689 -0.0446 -0.0925  0.0833
 2220SOL    HW2 8951   0.977   0.871   3.736 -0.2906 -1.3446 -1.0663
 2220SOL    HW3 8952   0.933   0.911   3.597  0.6425  2.5782 -0.2940
 2220SOL    MW4 8953   0.926   0.918   3.683  0.0136  0.0947 -0.1183
 2221SOL     OW 8954   0.907   1.152   3.852 -0.1999  0.2018  0.3387
 2221SOL    HW2 8955   0.881   1.127   3.941  1.2404 -0.1843  0.6777
 2221SOL    HW3 8956   0.908   1.071   3.803  1.0675  0.0764  0.5371
 2221SOL    MW4 8957   0.904   1.138   3.857  0.1572  0.1342  0.4096
 2222SOL     OW 8958   1.131   1.304   3.758 -0.2553  0.1248 -0.2241
 2222SOL    HW2 8959   1.128   1.391   3.796 -1.3548  0.0328 -0.0914
 2222SOL    HW3 8960   1.057   1.258   3.797 -0.7374 -0.3190 -1.6330
 2222SOL    MW4 8961   1.121   1.309   3.769 -0.4640  0.0541 -0.3924
 2223SOL     OW 8962   1.102   1.544   3.872  0.2782 -0.0776  0.1510
 2223SOL    HW2 8963   1.082   1.550   3.966 -1.7920 -2.1778 -0.1200
 2223SOL    HW3 8964   1.179   1.599   3.861 -0.1088  1.1140  2.8948
 2223SOL    MW4 8965   1.110   1.552   3.883 -0.0459 -0.1973  0.4771
 2224SOL     OW 8966   0.897   1.704   3.774 -0.2576 -0.3613 -0.3383
 2224SOL    HW2 8967   0.974   1.671   3.821 -0.4544 -0.7235 -0.2735
 2224SOL    HW3 8968   0.929   1.717   3.684  0.6098  2.0414  0.2818
 2224SOL    MW4 8969   0.912   1.702   3.768 -0.1691 -0.0919 -0.2480
 2225SOL     OW 8970   0.871   1.954   3.877 -0.1360 -0.1157 -0.2706
 2225SOL    HW2 8971   0.881   1.863   3.849 -0.5125 -0.5998  1.1113
 2225SOL    HW3 8972   0.788   1.983   3.839 -0.4184 -0.6174 -0.0415
 2225SOL    MW4 8973   0.861   1.946   3.869 -0.2229 -0.2458 -0.0579
 2226SOL     OW 8974   1.119   2.110   3.787  0.1775 -0.1007 -0.1867
 2226SOL    HW2 8975   1.042   2.071   3.829 -0.0298 -1.1997 -1.5674
 2226SOL    HW3 8976   1.111   2.087   3.695  1.2476  1.2987 -0.6462
 2226SOL    MW4 8977   1.108   2.102   3.781  0.2911 -0.0608 -0.4294
 2227SOL     OW 8978   1.125   2.376   3.862  0.3696  0.1241 -0.1735
 2227SOL    HW2 8979   1.117   2.362   3.956  0.7941 -1.3090 -0.3508
 2227SOL    HW3 8980   1.117   2.289   3.823 -0.2016  0.7460 -1.4941
 2227SOL    MW4 8981   1.123   2.363   3.869  0.3502  0.0169 -0.3712
 2228SOL     OW 8982   0.866   2.424   3.805  0.4080 -0.5298 -0.3528
 2228SOL    HW2 8983   0.832   2.512   3.823 -1.0235 -0.8266 -1.4761
 2228SOL    HW3 8984   0.957   2.427   3.833  1.1966  2.1873 -2.9880
 2228SOL    MW4 8985   0.874   2.436   3.811  0.3232 -0.2105 -0.8485
 2229SOL     OW 8986   0.795   2.665   3.901 -0.2510  0.1742 -0.2027
 2229SOL    HW2 8987   0.798   2.675   3.996  0.4579 -2.2416  0.0524
 2229SOL    HW3 8988   0.880   2.697   3.871  0.1472 -0.5651  0.1338
 2229SOL    MW4 8989   0.807   2.670   3.910 -0.1049 -0.2420 -0.1249
 2230SOL     OW 8990   1.019   2.833   3.805 -0.0509  0.0239 -0.1912
 2230SOL    HW2 8991   1.103   2.793   3.827 -0.9125 -0.9698  1.3985
 2230SOL    HW3 8992   1.025   2.922   3.840  0.4234  0.0365 -0.3005
 2230SOL    MW4 8993   1.031   2.839   3.813 -0.1020 -0.1056  0.0043
 2231SOL     OW 8994   1.075   3.115   3.878 -0.0711 -0.4978  0.5447
 2231SOL    HW2 8995   1.149   3.167   3.846 -0.2017 -0.4970  0.2416
 2231SOL    HW3 8996   1.000   3.150   3.831  0.0758 -2.0672 -0.9049
 2231SOL    MW4 8997   1.075   3.127   3.867 -0.0689 -0.7050  0.3133
 2232SOL     OW 8998   0.868   3.241   3.728  0.0773 -0.3599 -0.3823
 2232SOL    HW2 8999   0.868   3.246   3.633 -0.6824  0.4756 -0.3467
 2232SOL    HW3 9000   0.784   3.200   3.750 -1.5308  2.9183  0.0527
 2232SOL    MW4 9001   0.857   3.236   3.718 -0.2351  0.1829 -0.3202
 2233SOL     OW 9002   0.874   3.497   3.862  0.9031 -0.0754 -0.2245
 2233SOL    HW2 9003   0.869   3.412   3.820  1.3826  0.1059 -0.6538
 2233SOL    HW3 9004   0.795   3.543   3.834  0.4843 -0.4934  0.2670
 2233SOL    MW4 9005   0.863   3.492   3.853  0.9111 -0.1070 -0.2165
 2234SOL     OW 9006   1.089   3.622   3.738 -0.1224 -0.1558 -0.7459
 2234SOL    HW2 9007   1.087   3.711   3.773  0.0142 -0.3581 -0.2188
 2234SOL    HW3 9008   1.023   3.575   3.789 -0.1861 -0.3610 -1.0144
 2234SOL    MW4 9009   1.080   3.628   3.749 -0.1128 -0.2096 -0.7119
 2235SOL     OW 9010   1.104   3.857   3.887 -0.6788  0.1881  0.1559
 2235SOL    HW2 9011   1.118   3.848   3.981  0.4059  0.2565  0.0184
 2235SOL    HW3 9012   1.168   3.923   3.860 -1.7210  0.9566 -0.4606
 2235SOL    MW4 9013   1.115   3.865   3.896 -0.6731  0.2985  0.0565
 2236SOL     OW 9014   0.898   4.022   3.800  0.3278  0.0066  0.4253
 2236SOL    HW2 9015   0.950   3.947   3.830  0.8563  0.9540  1.8841
 2236SOL    HW3 9016   0.903   4.017   3.704  2.6402 -0.2422  0.5280
 2236SOL    MW4 9017   0.906   4.011   3.791  0.7026  0.0987  0.6313
 2237SOL     OW 9018   0.895   4.307   3.843 -0.1380  0.1829  0.0829
 2237SOL    HW2 9019   0.879   4.311   3.937  1.4811 -0.1106  0.3823
 2237SOL    HW3 9020   0.897   4.213   3.823 -1.7712  0.2508 -0.4896
 2237SOL    MW4 9021   0.893   4.295   3.852 -0.1398  0.1531  0.0465
 2238SOL     OW 9022   1.107   4.464   3.753  0.0633  0.1962  0.0598
 2238SOL    HW2 9023   1.036   4.413   3.792  2.1404 -2.0291  1.0507
 2238SOL    HW3 9024   1.102   4.444   3.659  0.8514 -1.8723  0.4364
 2238SOL    MW4 9025   1.097   4.455   3.746  0.4414 -0.3705  0.2401
 2239SOL     OW 9026   1.605   0.025   3.877 -0.6883 -0.1014 -0.1329
 2239SOL    HW2 9027   1.608   0.015   3.972  0.9893 -1.2484 -0.2881
 2239SOL    HW3 9028   1.599  -0.065   3.845 -1.3005  0.2874 -1.1270
 2239SOL    MW4 9029   1.604   0.012   3.886 -0.5478 -0.2012 -0.2844
 2240SOL     OW 9030   1.392   0.124   3.747  0.2580  0.4054 -0.4887
 2240SOL    HW2 9031   1.387   0.217   3.769  0.1950  0.1162  0.7766
 2240SOL    HW3 9032   1.460   0.089   3.805 -1.8536 -0.9298  1.2767
 2240SOL    MW4 9033   1.400   0.131   3.758 -0.0290  0.1911 -0.0887
 2241SOL     OW 9034   1.357   0.380   3.805 -0.0620 -0.1324 -0.1442
 2241SOL    HW2 9035   1.355   0.391   3.900 -0.0945 -1.3567  0.0103
 2241SOL    HW3 9036   1.431   0.432   3.775  0.4908 -0.4597  0.6550
 2241SOL    MW4 9037   1.366   0.388   3.813  0.0066 -0.3371 -0.0181
 2242SOL     OW 9038   1.572   0.531   3.760 -0.0801  0.5583  0.1207
 2242SOL    HW2 9039   1.651   0.497   3.802 -2.1155 -0.7005  3.1051
 2242SOL    HW3 9040   1.545   0.604   3.816 -1.7412  0.1136 -0.0640
 2242SOL    MW4 9041   1.579   0.536   3.773 -0.5679  0.3335  0.4902
 2243SOL     OW 9042   1.530   0.752   3.893 -0.3131 -0.3740 -0.1105
 2243SOL    HW2 9043   1.606   0.801   3.861  0.5035 -1.4506  0.1525
 2243SOL    HW3 9044   1.454   0.802   3.861  0.4913  1.0291  0.1216
 2243SOL    MW4 9045   1.530   0.765   3.884 -0.0994 -0.3309 -0.0453
 2244SOL     OW 9046   1.337   0.898   3.783 -0.1213  0.5723 -0.0443
 2244SOL    HW2 9047   1.341   0.993   3.792 -0.3892  0.6099 -0.3411
 2244SOL    HW3 9048   1.252   0.874   3.820  0.6863  0.2633  1.6920
 2244SOL    MW4 9049   1.327   0.907   3.789 -0.0501  0.5366  0.1457
 2245SOL     OW 9050   1.356   1.164   3.828  0.1104 -0.1754 -0.2352
 2245SOL    HW2 9051   1.343   1.147   3.922 -0.1641 -1.5378 -0.5027
 2245SOL    HW3 9052   1.279   1.215   3.803 -0.2668 -0.5614  0.1089
 2245SOL    MW4 9053   1.344   1.168   3.837  0.0244 -0.4061 -0.2251
 2246SOL     OW 9054   1.577   1.318   3.754  0.0257  0.0407  0.0244
 2246SOL    HW2 9055   1.643   1.256   3.783  0.8366  1.0252  0.3097
 2246SOL    HW3 9056   1.493   1.273   3.767  0.6242 -1.1183 -0.1214
 2246SOL    MW4 9057   1.574   1.304   3.759  0.2115  0.0176  0.0427
 2247SOL     OW 9058   1.512   1.545   3.889 -0.1989 -0.2912  0.1231
 2247SOL    HW2 9059   1.508   1.521   3.982  0.0064 -0.1345  0.1729
 2247SOL    HW3 9060   1.530   1.462   3.845  1.2053 -0.1237  0.3608
 2247SOL    MW4 9061   1.514   1.531   3.896  0.0134 -0.2483  0.1612
 2248SOL     OW 9062   1.318   1.703   3.796  0.2599 -0.0692 -0.0073
 2248SOL    HW2 9063   1.325   1.789   3.836  0.0481  0.0592 -0.2437
 2248SOL    HW3 9064   1.394   1.655   3.828  1.0347  0.5933 -0.8192
 2248SOL    MW4 9065   1.329   1.708   3.805  0.3341  0.0352 -0.1457
 2249SOL     OW 9066   1.342   1.960   3.905 -0.0986  0.4791  0.2633
 2249SOL    HW2 9067   1.350   1.957   4.001 -1.1266 -1.9020  0.2976
 2249SOL    HW3 9068   1.258   2.002   3.889  0.8988  2.6085  0.3213
 2249SOL    MW4 9069   1.332   1.965   3.916 -0.1026  0.4458  0.2754
 2250SOL     OW 9070   1.568   2.357   3.846  0.1875  0.2034 -0.5200
 2250SOL    HW2 9071   1.567   2.265   3.820 -1.3298  0.2869 -0.7764
 2250SOL    HW3 9072   1.637   2.397   3.792  1.2475 -0.8807  0.0035
 2250SOL    MW4 9073   1.577   2.351   3.836  0.1271  0.0715 -0.4847
 2251SOL     OW 9074   1.597   2.280   4.113  0.2945 -0.1091 -0.3176
 2251SOL    HW2 9075   1.655   2.349   4.143  1.4649 -0.8344 -0.8640
 2251SOL    HW3 9076   1.582   2.299   4.021  0.1099 -0.2392 -0.3160
 2251SOL    MW4 9077   1.602   2.291   4.105  0.4245 -0.2220 -0.3896
 2252SOL     OW 9078   1.339   2.477   3.741 -0.1312 -0.0297 -0.0623
 2252SOL    HW2 9079   1.415   2.443   3.788 -0.0045 -0.1292 -0.3391
 2252SOL    HW3 9080   1.264   2.436   3.784 -0.0361  0.1960  0.3171
 2252SOL    MW4 9081   1.339   2.467   3.753 -0.1020 -0.0129 -0.0491
 2253SOL     OW 9082   1.278   2.748   3.826 -0.2334 -0.1035 -0.9298
 2253SOL    HW2 9083   1.269   2.719   3.917  1.3456 -0.8174 -0.9860
 2253SOL    HW3 9084   1.278   2.667   3.775  0.8325  0.1805 -1.3915
 2253SOL    MW4 9085   1.277   2.734   3.832  0.1154 -0.1602 -0.9980
 2254SOL     OW 9086   1.509   2.887   3.735 -0.1926  0.4827  0.2828
 2254SOL    HW2 9087   1.428   2.840   3.752 -0.5189  0.5987 -0.9329
 2254SOL    HW3 9088   1.520   2.883   3.640  1.1948  0.5128  0.4349
 2254SOL    MW4 9089   1.500   2.880   3.725 -0.0526  0.5021  0.1426
 2255SOL     OW 9090   1.531   3.135   3.875 -0.2122  0.3154  0.0298
 2255SOL    HW2 9091   1.509   3.124   3.968  0.0712 -0.0154  0.0610
 2255SOL    HW3 9092   1.512   3.050   3.836 -1.4061  0.7936 -0.4423
 2255SOL    MW4 9093   1.526   3.122   3.882 -0.3322  0.3347 -0.0286
 2256SOL     OW 9094   1.300   3.261   3.792 -0.1190  0.0239  0.0103
 2256SOL    HW2 9095   1.295   3.347   3.834 -1.4003 -0.7099  1.3983
 2256SOL    HW3 9096   1.380   3.222   3.827 -1.0239 -0.4667  1.6124
 2256SOL    MW4 9097   1.310   3.267   3.802 -0.4073 -0.1378  0.4048
 2257SOL     OW 9098   1.304   3.510   3.892  0.4843 -0.1882 -0.1394
 2257SOL    HW2 9099   1.379   3.554   3.851  0.3111  0.7127  0.4910
 2257SOL    HW3 9100   1.228   3.547   3.848  0.3770 -0.4844 -0.1997
 2257SOL    MW4 9101   1.304   3.521   3.881  0.4473 -0.1082 -0.0646
 2258SOL     OW 9102   1.527   3.665   3.754 -0.0348  0.0418  0.3254
 2258SOL    HW2 9103   1.601   3.624   3.798  1.0137  1.0954 -0.4211
 2258SOL    HW3 9104   1.538   3.758   3.771 -1.4534  0.1613  0.5926
 2258SOL    MW4 9105   1.538   3.672   3.762 -0.0836  0.1967  0.2623
 2259SOL     OW 9106   1.524   3.960   3.811 -0.2969  0.0388  0.6170
 2259SOL    HW2 9107   1.532   3.988   3.903  0.0936  0.3582  0.4905
 2259SOL    HW3 9108   1.435   3.984   3.787 -0.0961  0.8279  0.6314
 2259SOL    MW4 9109   1.514   3.967   3.820 -0.2189  0.1853  0.6022
 2260SOL     OW 9110   1.274   4.050   3.763  0.1473 -0.4855 -0.1202
 2260SOL    HW2 9111   1.297   4.139   3.791 -0.2748 -0.6152  0.6319
 2260SOL    HW3 9112   1.279   4.054   3.667  2.2203 -0.2269 -0.0134
 2260SOL    MW4 9113   1.277   4.063   3.754  0.3650 -0.4683 -0.0069
 2261SOL     OW 9114   1.311   4.311   3.882  0.5662  0.5372  0.0273
 2261SOL    HW2 9115   1.404   4.326   3.865  0.7937 -2.4508 -1.5720
 2261SOL    HW3 9116   1.265   4.373   3.826  1.5698  1.2955  0.0406
 2261SOL    MW4 9117   1.317   4.321   3.873  0.7286  0.2432 -0.1822
 2262SOL     OW 9118   1.569   4.433   3.774  0.1248 -0.2626  0.1264
 2262SOL    HW2 9119   1.648   4.383   3.797  0.2575  0.1509  0.5694
 2262SOL    HW3 9120   1.556   4.414   3.681  1.2888  0.4091 -0.1868
 2262SOL    MW4 9121   1.578   4.424   3.765  0.2959 -0.1192  0.1438
 2263SOL     OW 9122   2.044   4.639   3.847  0.3493  0.1334  0.2602
 2263SOL    HW2 9123   2.121   4.691   3.824 -1.0025  2.2630  0.4280
 2263SOL    HW3 9124   2.050   4.562   3.791  0.1457  2.4889 -3.1889
 2263SOL    MW4 9125   2.055   4.636   3.837  0.1440  0.7248 -0.1726
 2264SOL     OW 9126   1.824   0.137   3.723  0.0610  0.2700  0.3767
 2264SOL    HW2 9127   1.901   0.089   3.753  0.1646 -0.4992 -1.0845
 2264SOL    HW3 9128   1.750   0.090   3.761  0.1482 -1.2077 -1.2249
 2264SOL    MW4 9129   1.825   0.125   3.732  0.0862 -0.0264 -0.0272
 2265SOL     OW 9130   1.788   0.394   3.847  0.1619  0.1474  0.3748
 2265SOL    HW2 9131   1.794   0.380   3.942  2.0836 -0.8493  0.1237
 2265SOL    HW3 9132   1.781   0.306   3.810  0.9733  0.4351 -0.4916
 2265SOL    MW4 9133   1.788   0.381   3.855  0.5226  0.0539  0.2270
 2266SOL     OW 9134   2.021   0.547   3.766  0.0469  0.3792 -0.4604
 2266SOL    HW2 9135   1.951   0.490   3.798  1.7922 -1.1048  0.7959
 2266SOL    HW3 9136   2.031   0.523   3.674 -1.6478  1.2100 -0.8882
 2266SOL    MW4 9137   2.013   0.536   3.758  0.0536  0.2930 -0.3507
 2267SOL     OW 9138   1.999   0.795   3.872 -0.3168 -0.4403 -0.0841
 2267SOL    HW2 9139   1.992   0.788   3.967 -1.2029 -1.1883 -0.1962
 2267SOL    HW3 9140   1.997   0.704   3.841  1.1151 -0.2592 -0.7496
 2267SOL    MW4 9141   1.998   0.782   3.881 -0.2450 -0.5150 -0.1867
 2268SOL     OW 9142   1.746   0.887   3.795  0.0557 -0.0537  0.0111
 2268SOL    HW2 9143   1.833   0.864   3.826  0.2334  1.2243  0.4891
 2268SOL    HW3 9144   1.752   0.881   3.699  0.7176  0.2459  0.0353
 2268SOL    MW4 9145   1.758   0.883   3.786  0.1664  0.1544  0.0775
 2269SOL     OW 9146   1.766   1.150   3.888 -1.0039  0.0833  0.2240
 2269SOL    HW2 9147   1.752   1.153   3.982 -0.2895  2.0216  0.2761
 2269SOL    HW3 9148   1.737   1.062   3.863 -2.1325 -0.1068  2.0844
 2269SOL    MW4 9149   1.760   1.139   3.897 -1.0585  0.3139  0.4766
 2270SOL     OW 9150   2.007   1.288   3.770 -0.1168 -0.3648  0.2849
 2270SOL    HW2 9151   2.094   1.251   3.789  0.4686  0.3767 -0.8875
 2270SOL    HW3 9152   1.946   1.225   3.809  0.9132 -1.4926  0.1378
 2270SOL    MW4 9153   2.010   1.275   3.778  0.0963 -0.4157  0.1106
 2271SOL     OW 9154   2.251   1.942   3.851 -0.2065  0.1455 -0.0735
 2271SOL    HW2 9155   2.190   2.008   3.818 -0.9942 -0.7080 -0.3080
 2271SOL    HW3 9156   2.239   1.944   3.946 -1.1076 -0.5245 -0.1727
 2271SOL    MW4 9157   2.241   1.951   3.859 -0.4294 -0.0556 -0.1175
 2272SOL     OW 9158   1.768   1.702   3.749 -0.0801  0.5998 -0.2044
 2272SOL    HW2 9159   1.785   1.781   3.800  1.8042 -0.1678  0.4167
 2272SOL    HW3 9160   1.714   1.647   3.807 -0.0098  0.7504  0.0043
 2272SOL    MW4 9161   1.763   1.705   3.764  0.1777  0.5182 -0.0951
 2273SOL     OW 9162   1.571   2.088   3.782 -0.3430  0.7951 -0.5990
 2273SOL    HW2 9163   1.500   2.030   3.811  0.9173 -0.0340  0.9435
 2273SOL    HW3 9164   1.572   2.079   3.687 -0.5787 -1.2895 -0.4415
 2273SOL    MW4 9165   1.562   2.079   3.774 -0.2079  0.4106 -0.3748
 2274SOL     OW 9166   1.798   1.943   3.891 -0.0069  0.0331  0.1180
 2274SOL    HW2 9167   1.723   1.972   3.839  0.5870 -0.2356 -0.9181
 2274SOL    HW3 9168   1.791   1.992   3.973 -1.3827 -0.1017  0.0880
 2274SOL    MW4 9169   1.788   1.954   3.895 -0.1100 -0.0203 -0.0226
 2275SOL     OW 9170   2.379   2.821   4.195 -0.0617  0.5504 -0.2174
 2275SOL    HW2 9171   2.354   2.817   4.287  1.5435 -2.2535  0.1553
 2275SOL    HW3 9172   2.312   2.769   4.150  1.3348 -1.4218 -0.0744
 2275SOL    MW4 9173   2.367   2.813   4.201  0.3343 -0.0799 -0.1497
 2276SOL     OW 9174   1.773   2.489   3.711  0.2710  0.7406 -0.4772
 2276SOL    HW2 9175   1.761   2.577   3.747  0.7392  1.0532 -1.0734
 2276SOL    HW3 9176   1.811   2.504   3.624 -0.0539 -0.0344 -0.7539
 2276SOL    MW4 9177   1.776   2.502   3.705  0.2899  0.6793 -0.5925
 2277SOL     OW 9178   1.735   2.741   3.823 -0.0944  0.7906  0.0381
 2277SOL    HW2 9179   1.748   2.752   3.917  0.8612 -1.2323  0.1587
 2277SOL    HW3 9180   1.648   2.778   3.806  0.5382  2.9712  1.3600
 2277SOL    MW4 9181   1.725   2.748   3.833  0.1152  0.8116  0.2286
 2278SOL     OW 9182   1.977   2.856   3.715  0.7625 -0.2268 -0.0087
 2278SOL    HW2 9183   2.051   2.808   3.751  1.2692  0.7041  0.2044
 2278SOL    HW3 9184   1.900   2.812   3.751  1.2354 -0.2707  0.9553
 2278SOL    MW4 9185   1.977   2.844   3.724  0.8917 -0.1097  0.1466
 2279SOL     OW 9186   1.996   3.096   3.835  0.0001 -0.0451  0.2086
 2279SOL    HW2 9187   2.085   3.121   3.811  1.1095 -1.8954  2.2120
 2279SOL    HW3 9188   1.984   3.008   3.799 -0.5130 -0.3452  1.0795
 2279SOL    MW4 9189   2.006   3.088   3.827  0.0787 -0.3288  0.5877
 2280SOL     OW 9190   1.761   3.260   3.798 -0.4814  0.3291  0.0752
 2280SOL    HW2 9191   1.828   3.197   3.826 -0.3866  0.7589  0.8489
 2280SOL    HW3 9192   1.680   3.230   3.839 -0.4878  0.5535  0.2332
 2280SOL    MW4 9193   1.759   3.248   3.807 -0.4698  0.4153  0.1981
 2281SOL     OW 9194   1.763   3.529   3.834 -0.6898  0.6878  0.3422
 2281SOL    HW2 9195   1.848   3.571   3.819 -0.7716  0.9802  0.6811
 2281SOL    HW3 9196   1.776   3.438   3.811 -0.2635  0.7209  0.4583
 2281SOL    MW4 9197   1.776   3.523   3.829 -0.6443  0.7308  0.4025
 2282SOL     OW 9198   2.007   3.645   3.753  0.1565 -0.5442  0.3958
 2282SOL    HW2 9199   2.084   3.597   3.783 -0.9659 -2.2295  0.6429
 2282SOL    HW3 9200   2.007   3.633   3.658  0.8390  0.4568  0.2586
 2282SOL    MW4 9201   2.017   3.637   3.744  0.0985 -0.6347  0.4106
 2283SOL     OW 9202   1.977   3.916   3.874  0.2402 -0.1390 -0.4334
 2283SOL    HW2 9203   2.057   3.952   3.836  1.8458 -3.1907 -0.0421
 2283SOL    HW3 9204   1.971   3.827   3.839 -1.2275 -1.0745  2.0823
 2283SOL    MW4 9205   1.986   3.909   3.864  0.2583 -0.6649 -0.0498
 2284SOL     OW 9206   1.775   4.021   3.716  0.4918 -0.3073  0.0552
 2284SOL    HW2 9207   1.840   3.980   3.773 -1.1452 -2.0926  0.7087
 2284SOL    HW3 9208   1.691   3.995   3.753 -0.6032  0.4938 -1.7893
 2284SOL    MW4 9209   1.773   4.012   3.729  0.1314 -0.4368 -0.1020
 2285SOL     OW 9210   1.805   4.287   3.849  0.3718  0.4699  0.1873
 2285SOL    HW2 9211   1.887   4.330   3.824  0.0911  0.4318 -0.8192
 2285SOL    HW3 9212   1.803   4.207   3.797 -1.2912  1.4757 -1.3403
 2285SOL    MW4 9213   1.816   4.282   3.839  0.1154  0.5975 -0.1469
 2286SOL     OW 9214   2.046   4.398   3.740 -0.6347 -0.2787 -0.2468
 2286SOL    HW2 9215   2.117   4.338   3.762 -1.4419 -0.8534  0.8407
 2286SOL    HW3 9216   2.034   4.388   3.645 -0.3254 -1.3510 -0.1757
 2286SOL    MW4 9217   2.053   4.389   3.730 -0.7002 -0.4959 -0.0937
 2287SOL     OW 9218   2.446   4.647   3.870 -0.1687 -0.1857  0.5397
 2287SOL    HW2 9219   2.454   4.617   3.960 -0.7684  1.0384  1.0093
 2287SOL    HW3 9220   2.534   4.678   3.847 -0.1062 -0.1555  0.8265
 2287SOL    MW4 9221   2.459   4.647   3.879 -0.2396 -0.0205  0.6394
 2288SOL     OW 9222   2.250   0.153   3.770 -0.0735 -0.0052  0.7994
 2288SOL    HW2 9223   2.321   0.104   3.812  0.6652  0.6881  0.3939
 2288SOL    HW3 9224   2.252   0.124   3.679 -0.7217 -0.4420  0.9262
 2288SOL    MW4 9225   2.260   0.143   3.763 -0.0615  0.0286  0.7627
 2289SOL     OW 9226   2.239   0.405   3.869 -0.0887 -0.2705  0.7081
 2289SOL    HW2 9227   2.236   0.316   3.835 -0.2356 -0.6628  1.7293
 2289SOL    HW3 9228   2.156   0.443   3.844  0.1173 -0.3095 -0.0336
 2289SOL    MW4 9229   2.228   0.398   3.861 -0.0808 -0.3274  0.7453
 2290SOL     OW 9230   2.481   0.495   3.767  0.3920  0.1710 -0.6170
 2290SOL    HW2 9231   2.398   0.475   3.810  1.4992 -1.2122  0.9689
 2290SOL    HW3 9232   2.467   0.471   3.675 -1.2753  0.9597 -0.5882
 2290SOL    MW4 9233   2.469   0.489   3.761  0.3181  0.0926 -0.4039
 2291SOL     OW 9234   2.491   0.767   3.850  0.0724 -0.2103  0.4800
 2291SOL    HW2 9235   2.400   0.795   3.839 -0.0043 -0.7635 -0.2982
 2291SOL    HW3 9236   2.490   0.673   3.831  1.4256  0.4427 -3.0739
 2291SOL    MW4 9237   2.479   0.758   3.846  0.2410 -0.1971 -0.0916
 2292SOL     OW 9238   2.245   0.900   3.787 -0.2372  0.0980 -0.0482
 2292SOL    HW2 9239   2.172   0.847   3.820 -0.2572 -0.2523 -0.6446
 2292SOL    HW3 9240   2.254   0.874   3.695  0.4702  0.3293 -0.0481
 2292SOL    MW4 9241   2.236   0.890   3.779 -0.1466  0.0823 -0.1268
 2293SOL     OW 9242   2.230   1.170   3.859 -0.4668  0.0124  0.5931
 2293SOL    HW2 9243   2.204   1.154   3.950 -1.2438  0.0248  0.3733
 2293SOL    HW3 9244   2.251   1.083   3.825 -1.4849 -0.1609  0.3865
 2293SOL    MW4 9245   2.229   1.156   3.867 -0.7036 -0.0088  0.5369
 2294SOL     OW 9246   2.480   1.295   3.759  0.0097 -0.4224 -0.4518
 2294SOL    HW2 9247   2.493   1.380   3.800 -0.2267 -0.4046 -0.4131
 2294SOL    HW3 9248   2.398   1.262   3.797 -0.0561 -0.5345 -0.6888
 2294SOL    MW4 9249   2.470   1.302   3.770 -0.0303 -0.4349 -0.4778
 2295SOL     OW 9250   2.457   1.558   3.866  0.5031  0.1507 -0.0571
 2295SOL    HW2 9251   2.535   1.602   3.831 -0.3917  1.2572 -0.7164
 2295SOL    HW3 9252   2.384   1.602   3.823 -0.5525  0.2161  1.7554
 2295SOL    MW4 9253   2.458   1.570   3.856  0.2460  0.3052  0.0951
 2296SOL     OW 9254   1.993   1.551   3.810  0.1958  0.2150 -0.7007
 2296SOL    HW2 9255   1.908   1.584   3.781  0.4017 -0.6317 -2.2790
 2296SOL    HW3 9256   1.993   1.459   3.784  0.8486 -0.2896  0.9780
 2296SOL    MW4 9257   1.982   1.543   3.803  0.3091  0.0367 -0.6874
 2297SOL     OW 9258   2.226   1.676   3.750  0.1153  0.1622  0.8433
 2297SOL    HW2 9259   2.148   1.632   3.782 -0.5384 -0.7590 -1.9150
 2297SOL    HW3 9260   2.222   1.763   3.788 -1.3983 -0.4088  2.0221
 2297SOL    MW4 9261   2.215   1.681   3.759 -0.1707 -0.0348  0.6351
 2298SOL     OW 9262   2.467   2.092   3.774 -0.2160  0.7577 -0.0000
 2298SOL    HW2 9263   2.451   2.172   3.825 -1.0561  0.9717 -0.5796
 2298SOL    HW3 9264   2.389   2.039   3.788 -0.7520  1.1086 -1.5827
 2298SOL    MW4 9265   2.455   2.096   3.783 -0.3974  0.8323 -0.2851
 2299SOL     OW 9266   2.221   2.473   3.723  0.3851  0.3775 -0.2854
 2299SOL    HW2 9267   2.229   2.451   3.630  0.5902  0.5250 -0.3043
 2299SOL    HW3 9268   2.135   2.439   3.749  0.7024 -0.4464 -0.3085
 2299SOL    MW4 9269   2.211   2.466   3.714  0.4539  0.2880 -0.2911
 2300SOL     OW 9270   1.981   2.361   3.824  0.1816  0.1071  0.2944
 2300SOL    HW2 9271   1.990   2.266   3.815 -0.8986  0.0774 -0.6208
 2300SOL    HW3 9272   1.904   2.383   3.771  0.8217  1.5796 -0.0453
 2300SOL    MW4 9273   1.972   2.351   3.816  0.1235  0.2975  0.1290
 2301SOL     OW 9274   2.202   2.725   3.820 -0.3780 -0.7015 -0.7220
 2301SOL    HW2 9275   2.180   2.704   3.911  2.3212 -1.2645 -0.1521
 2301SOL    HW3 9276   2.219   2.640   3.779  0.5427 -0.3241 -1.1412
 2301SOL    MW4 9277   2.201   2.711   3.827  0.0994 -0.7257 -0.7021
 2302SOL     OW 9278   2.445   2.872   3.774  0.0915  0.0769 -0.3124
 2302SOL    HW2 9279   2.363   2.836   3.807 -0.0488 -0.6637 -1.4568
 2302SOL    HW3 9280   2.435   2.872   3.679  1.3903  0.0135 -0.4603
 2302SOL    MW4 9281   2.433   2.867   3.766  0.2446 -0.0291 -0.4830
 2303SOL     OW 9282   2.473   3.134   3.859  0.5941  0.3538 -0.1895
 2303SOL    HW2 9283   2.466   3.139   3.954 -1.9443  0.2066 -0.3213
 2303SOL    HW3 9284   2.467   3.041   3.839 -1.5964  0.5657 -0.6284
 2303SOL    MW4 9285   2.471   3.123   3.869 -0.0300  0.3622 -0.2646
 2304SOL     OW 9286   2.234   3.229   3.735 -0.4896  0.0446  0.6681
 2304SOL    HW2 9287   2.236   3.323   3.754  2.6715  0.0725  0.5558
 2304SOL    HW3 9288   2.309   3.194   3.784 -2.0512 -2.5364  1.2700
 2304SOL    MW4 9289   2.244   3.237   3.744 -0.2785 -0.2923  0.7329
 2305SOL     OW 9290   2.226   3.506   3.829 -0.1357 -0.0440  0.7496
 2305SOL    HW2 9291   2.243   3.490   3.922  1.0426  0.9070  0.7017
 2305SOL    HW3 9292   2.307   3.544   3.795  0.0387 -1.9682 -1.0757
 2305SOL    MW4 9293   2.239   3.509   3.837  0.0429 -0.1721  0.5026
 2306SOL     OW 9294   2.445   3.630   3.725 -0.2769 -0.2442 -0.1676
 2306SOL    HW2 9295   2.525   3.600   3.769 -0.2930  1.3392  0.9562
 2306SOL    HW3 9296   2.469   3.635   3.633  0.9758  0.3496  0.1815
 2306SOL    MW4 9297   2.459   3.627   3.719 -0.1137  0.0432  0.0267
 2307SOL     OW 9298   2.467   3.887   3.828  0.0779 -0.0247 -0.2778
 2307SOL    HW2 9299   2.542   3.937   3.793  1.4754 -1.5711  0.4508
 2307SOL    HW3 9300   2.473   3.802   3.784 -1.1342 -0.2282 -0.0498
 2307SOL    MW4 9301   2.478   3.882   3.817  0.1025 -0.2551 -0.1516
 2308SOL     OW 9302   2.210   3.992   3.753 -0.0035  0.0461 -0.2660
 2308SOL    HW2 9303   2.296   3.960   3.782  0.0411  0.5018  0.1127
 2308SOL    HW3 9304   2.220   4.011   3.660  0.7499  1.5730  0.1098
 2308SOL    MW4 9305   2.222   3.990   3.745  0.1013  0.3078 -0.1662
 2309SOL     OW 9306   2.279   4.247   3.823 -0.3082  0.1248  0.2250
 2309SOL    HW2 9307   2.283   4.257   3.918 -0.0727 -0.4593  0.2796
 2309SOL    HW3 9308   2.254   4.155   3.810 -0.3573  0.2090 -0.2782
 2309SOL    MW4 9309   2.276   4.236   3.834 -0.2832  0.0587  0.1657
 2310SOL     OW 9310   2.475   4.408   3.735  0.2717 -0.2811  0.0961
 2310SOL    HW2 9311   2.400   4.358   3.767 -0.9349  0.9822 -0.6917
 2310SOL    HW3 9312   2.469   4.492   3.780 -1.0661  1.2717 -2.8953
 2310SOL    MW4 9313   2.465   4.413   3.745 -0.0641  0.0906 -0.4025
 2311SOL     OW 9314   2.886   4.606   3.896 -0.0845  0.6045 -0.1781
 2311SOL    HW2 9315   2.870   4.623   3.989 -0.7936  0.6446 -0.3091
 2311SOL    HW3 9316   2.959   4.663   3.874 -0.7598  1.5543  0.0375
 2311SOL    MW4 9317   2.894   4.616   3.906 -0.2673  0.7353 -0.1671
 2312SOL     OW 9318   2.688   0.091   3.801  0.1201 -0.3771  0.0054
 2312SOL    HW2 9319   2.758   0.038   3.837  1.2036  0.8284 -0.2881
 2312SOL    HW3 9320   2.702   0.088   3.706 -1.0415 -1.2413 -0.1464
 2312SOL    MW4 9321   2.699   0.084   3.793  0.1099 -0.3321 -0.0536
 2313SOL     OW 9322   2.696   0.366   3.857 -0.1766 -0.0307  0.1096
 2313SOL    HW2 9323   2.692   0.271   3.843 -0.3833 -0.2925  1.9184
 2313SOL    HW3 9324   2.614   0.399   3.821 -0.5015 -0.6368  0.2909
 2313SOL    MW4 9325   2.685   0.358   3.850 -0.2468 -0.1452  0.3722
 2314SOL     OW 9326   2.939   0.482   3.755  0.0143  0.0510 -0.6873
 2314SOL    HW2 9327   3.017   0.442   3.792 -0.0089  0.9987  0.3893
 2314SOL    HW3 9328   2.866   0.441   3.802 -0.1492 -0.7635 -1.6247
 2314SOL    MW4 9329   2.940   0.471   3.766 -0.0103  0.0685 -0.6690
 2315SOL     OW 9330   2.903   0.739   3.870 -0.1625  0.3193 -0.1024
 2315SOL    HW2 9331   2.985   0.774   3.834 -0.4888  0.6837 -0.4904
 2315SOL    HW3 9332   2.897   0.651   3.834  0.3817  0.0554  0.4381
 2315SOL    MW4 9333   2.913   0.732   3.861 -0.1338  0.3325 -0.0823
 2316SOL     OW 9334   2.713   0.878   3.747 -0.1808 -0.2638  0.6760
 2316SOL    HW2 9335   2.776   0.827   3.799 -0.5082  1.6303  3.0037
 2316SOL    HW3 9336   2.627   0.847   3.778 -0.4431 -1.9531 -1.6074
 2316SOL    MW4 9337   2.710   0.867   3.758 -0.2584 -0.2368  0.6819
 2317SOL     OW 9338   2.722   1.160   3.796  0.4976 -0.0625  0.3320
 2317SOL    HW2 9339   2.716   1.065   3.782  0.6008  0.2987 -2.6168
 2317SOL    HW3 9340   2.634   1.193   3.776  0.4710  0.4647  1.3015
 2317SOL    MW4 9341   2.710   1.152   3.791  0.5078  0.0546  0.0708
 2318SOL     OW 9342   2.946   1.289   3.732 -0.2753  0.6170 -0.7038
 2318SOL    HW2 9343   2.941   1.372   3.779  1.7555  0.7749 -0.7500
 2318SOL    HW3 9344   2.863   1.245   3.753 -0.2179  1.4968  1.4663
 2318SOL    MW4 9345   2.934   1.294   3.741  0.0005  0.7538 -0.4237
 2319SOL     OW 9346   2.888   1.529   3.890 -0.1160  0.6472 -0.2564
 2319SOL    HW2 9347   2.891   1.533   3.986  0.0848  0.9596 -0.2781
 2319SOL    HW3 9348   2.965   1.577   3.861  0.8995 -1.0840 -0.5318
 2319SOL    MW4 9349   2.898   1.536   3.899  0.0443  0.4599 -0.2956
 2320SOL     OW 9350   2.692   1.678   3.757  0.2021  0.2385 -0.1169
 2320SOL    HW2 9351   2.758   1.623   3.800  2.0615  1.7888 -0.9759
 2320SOL    HW3 9352   2.713   1.672   3.664  0.5902  2.6304 -0.1933
 2320SOL    MW4 9353   2.703   1.670   3.750  0.4983  0.7585 -0.2406
 2321SOL     OW 9354   2.682   1.952   3.886 -0.2596 -0.0949 -0.0462
 2321SOL    HW2 9355   2.668   1.868   3.844 -3.1480 -0.4737  1.5055
 2321SOL    HW3 9356   2.617   2.010   3.846  0.9445  1.1130 -0.2995
 2321SOL    MW4 9357   2.671   1.949   3.876 -0.4821  0.0144  0.1252
 2322SOL     OW 9358   2.903   2.054   3.765 -0.2126 -0.1523  0.1736
 2322SOL    HW2 9359   2.900   2.148   3.783  0.5488  0.1005 -0.9372
 2322SOL    HW3 9360   2.818   2.021   3.795 -0.6029  0.9400  0.3017
 2322SOL    MW4 9361   2.891   2.062   3.771 -0.1636  0.0253  0.0436
 2323SOL     OW 9362   2.889   2.324   3.844  0.4087  0.4538 -0.0367
 2323SOL    HW2 9363   2.907   2.327   3.938  1.9567 -1.6422 -0.2266
 2323SOL    HW3 9364   2.957   2.380   3.806 -1.2055  2.6237  0.1763
 2323SOL    MW4 9365   2.901   2.332   3.852  0.4001  0.4635 -0.0339
 2324SOL     OW 9366   2.653   2.469   3.766  0.0976  0.0630  0.3561
 2324SOL    HW2 9367   2.660   2.551   3.815  0.1745  0.4454 -0.2977
 2324SOL    HW3 9368   2.726   2.416   3.798  0.1964  0.3418  0.5960
 2324SOL    MW4 9369   2.664   2.473   3.777  0.1209  0.1504  0.3014
 2325SOL     OW 9370   2.692   2.742   3.858 -0.3485  0.0522  0.5662
 2325SOL    HW2 9371   2.671   2.732   3.950 -1.4555 -0.9152  0.2191
 2325SOL    HW3 9372   2.617   2.789   3.821 -0.1903 -0.1058  0.0447
 2325SOL    MW4 9373   2.680   2.747   3.865 -0.4737 -0.0966  0.4518
 2326SOL     OW 9374   2.914   2.858   3.736  0.3299 -0.0466  0.1515
 2326SOL    HW2 9375   2.911   2.951   3.758  0.5958 -0.5139  2.1855
 2326SOL    HW3 9376   2.834   2.821   3.774  0.2744 -0.6901 -0.5590
 2326SOL    MW4 9377   2.903   2.865   3.744  0.3574 -0.1929  0.3264
 2327SOL     OW 9378   2.899   3.127   3.826  0.2046 -0.4390 -0.5855
 2327SOL    HW2 9379   2.967   3.171   3.776  0.9112 -0.8391  0.0157
 2327SOL    HW3 9380   2.817   3.158   3.788  0.7241 -1.8090 -2.9582
 2327SOL    MW4 9381   2.897   3.137   3.814  0.3662 -0.6728 -0.8190
 2328SOL     OW 9382   2.667   3.260   3.725  0.2733 -0.1829  0.6119
 2328SOL    HW2 9383   2.668   3.348   3.764  0.0524  0.0918  0.0048
 2328SOL    HW3 9384   2.603   3.211   3.777  0.0004  0.1732  0.6161
 2328SOL    MW4 9385   2.659   3.265   3.737  0.2084 -0.0997  0.5324
 2329SOL     OW 9386   2.677   3.502   3.851 -0.2270 -0.0746 -0.1167
 2329SOL    HW2 9387   2.682   3.496   3.947 -0.2471  0.9306 -0.0529
 2329SOL    HW3 9388   2.756   3.549   3.825 -0.5196  0.1809 -0.5463
 2329SOL    MW4 9389   2.688   3.507   3.861 -0.2682  0.0918 -0.1647
 2330SOL     OW 9390   2.914   3.616   3.759  0.3257 -0.0856  0.1708
 2330SOL    HW2 9391   2.989   3.569   3.795  0.2167  0.1696  0.7401
 2330SOL    HW3 9392   2.923   3.607   3.664  0.5330 -0.8973  0.2664
 2330SOL    MW4 9393   2.925   3.609   3.752  0.3386 -0.1590  0.2584
 2331SOL     OW 9394   2.896   3.877   3.866  0.1481 -0.5246  0.1991
 2331SOL    HW2 9395   2.884   3.867   3.961 -1.2853  0.1981  0.1177
 2331SOL    HW3 9396   2.906   3.788   3.833  1.6918 -0.7163  1.1516
 2331SOL    MW4 9397   2.896   3.864   3.874  0.1628 -0.4544  0.3140
 2332SOL     OW 9398   2.693   4.013   3.735  0.2139 -0.2593 -0.3091
 2332SOL    HW2 9399   2.691   4.093   3.787 -1.4179  0.5169 -1.5340
 2332SOL    HW3 9400   2.757   3.957   3.780  0.1397  1.0689  1.5115
 2332SOL    MW4 9401   2.701   4.016   3.748 -0.0110  0.0186 -0.2306
 2333SOL     OW 9402   2.675   4.248   3.871 -0.7095 -0.2427  0.3577
 2333SOL    HW2 9403   2.744   4.304   3.836 -1.2854 -0.0280 -0.4635
 2333SOL    HW3 9404   2.594   4.288   3.841 -1.2562  0.2463  2.4032
 2333SOL    MW4 9405   2.673   4.260   3.863 -0.8578 -0.1493  0.5195
 2334SOL     OW 9406   2.933   4.352   3.755 -0.0781  0.0642  0.1838
 2334SOL    HW2 9407   3.004   4.310   3.805  0.1979 -0.7547 -0.8866
 2334SOL    HW3 9408   2.928   4.440   3.792 -0.0479 -0.6017  1.8413
 2334SOL    MW4 9409   2.942   4.358   3.767 -0.0377 -0.1321  0.2613
 2335SOL     OW 9410   3.295   4.641   3.939 -0.5055  0.1605  0.0276
 2335SOL    HW2 9411   3.300   4.632   4.034  0.1247 -1.2334 -0.1321
 2335SOL    HW3 9412   3.377   4.684   3.914  0.0543 -0.9439 -0.0521
 2335SOL    MW4 9413   3.306   4.646   3.948 -0.3486 -0.1688 -0.0045
 2336SOL     OW 9414   3.084   0.093   3.799  0.6146 -1.0674  0.2286
 2336SOL    HW2 9415   3.160   0.042   3.825  0.6750 -1.0488  0.0891
 2336SOL    HW3 9416   3.085   0.090   3.703  1.1012 -0.0888  0.1984
 2336SOL    MW4 9417   3.094   0.086   3.790  0.6871 -0.9358  0.2062
 2337SOL     OW 9418   3.176   0.393   3.912  0.0186  0.1827  0.0064
 2337SOL    HW2 9419   3.182   0.421   4.003 -1.4450  1.0313 -0.1493
 2337SOL    HW3 9420   3.171   0.297   3.916 -2.4265  0.3255  0.9670
 2337SOL    MW4 9421   3.177   0.384   3.924 -0.4971  0.3136  0.1128
 2338SOL     OW 9422   3.394   0.463   3.754  0.0829 -0.0240  0.2334
 2338SOL    HW2 9423   3.458   0.436   3.821 -0.5546 -0.7276  0.5685
 2338SOL    HW3 9424   3.309   0.439   3.791 -0.3681  0.7215 -0.3005
 2338SOL    MW4 9425   3.392   0.456   3.768 -0.0608 -0.0184  0.2069
 2339SOL     OW 9426   3.341   0.735   3.891  0.3223  0.0271 -0.1384
 2339SOL    HW2 9427   3.322   0.728   3.984  2.3784  0.1794  0.3158
 2339SOL    HW3 9428   3.355   0.644   3.863 -0.5992 -0.0467 -0.3793
 2339SOL    MW4 9429   3.340   0.722   3.899  0.4721  0.0376 -0.1104
 2340SOL     OW 9430   3.124   0.861   3.764  0.3672 -0.1494 -0.0092
 2340SOL    HW2 9431   3.207   0.844   3.809 -0.0749  0.5312  1.0730
 2340SOL    HW3 9432   3.144   0.844   3.672  1.3834 -1.1765  0.3861
 2340SOL    MW4 9433   3.138   0.857   3.758  0.4430 -0.1951  0.1855
 2341SOL     OW 9434   3.136   1.114   3.850  0.4848  0.4075  0.0356
 2341SOL    HW2 9435   3.113   1.025   3.821  0.2172  0.3597  0.3979
 2341SOL    HW3 9436   3.076   1.171   3.802  1.1341  0.4510 -0.7441
 2341SOL    MW4 9437   3.125   1.110   3.840  0.5352  0.4070 -0.0193
 2342SOL     OW 9438   3.348   1.269   3.770  0.2711  0.1677 -1.0073
 2342SOL    HW2 9439   3.281   1.215   3.813  1.7649 -2.5846 -1.9824
 2342SOL    HW3 9440   3.314   1.283   3.682 -0.8871  2.3059 -0.2536
 2342SOL    MW4 9441   3.335   1.264   3.764  0.3152  0.0867 -1.0364
 2343SOL     OW 9442   3.340   1.522   3.896  0.0330 -0.3605  0.0177
 2343SOL    HW2 9443   3.262   1.572   3.871  0.2164 -0.0759  0.0133
 2343SOL    HW3 9444   3.330   1.439   3.850  0.0691 -0.0691 -0.5258
 2343SOL    MW4 9445   3.328   1.518   3.886  0.0618 -0.2844 -0.0546
 2344SOL     OW 9446   3.116   1.636   3.796  0.2829 -0.2452 -0.4519
 2344SOL    HW2 9447   3.115   1.729   3.820 -0.0793 -0.6829  1.2946
 2344SOL    HW3 9448   3.131   1.636   3.701  0.4904  1.5848 -0.4410
 2344SOL    MW4 9449   3.118   1.648   3.787  0.2625 -0.0615 -0.2198
 2345SOL     OW 9450   3.156   1.926   3.842  0.4843 -0.0260  0.3552
 2345SOL    HW2 9451   3.158   1.924   3.938 -0.6757 -0.9673  0.3670
 2345SOL    HW3 9452   3.075   1.973   3.821 -0.9415 -2.6252 -0.1536
 2345SOL    MW4 9453   3.145   1.932   3.852  0.1433 -0.4932  0.2899
 2346SOL     OW 9454   3.357   2.094   3.762 -0.2441 -0.0568 -0.3830
 2346SOL    HW2 9455   3.286   2.039   3.793  1.1243 -1.5040  0.2660
 2346SOL    HW3 9456   3.362   2.078   3.668 -1.3818  0.7871 -0.5958
 2346SOL    MW4 9457   3.348   2.085   3.754 -0.2136 -0.1364 -0.3252
 2347SOL     OW 9458   3.363   2.361   3.838  0.1582  0.2621  0.2444
 2347SOL    HW2 9459   3.351   2.270   3.811 -0.4451  0.0505  1.1943
 2347SOL    HW3 9460   3.282   2.405   3.811 -0.2653  0.1435  1.2959
 2347SOL    MW4 9461   3.351   2.355   3.831  0.0229  0.2186  0.5083
 2348SOL     OW 9462   3.121   2.464   3.745 -0.0076 -0.1578 -0.0395
 2348SOL    HW2 9463   3.126   2.558   3.761  0.1565 -0.1718 -0.0073
 2348SOL    HW3 9464   3.125   2.455   3.650 -0.0621 -0.1295 -0.0445
 2348SOL    MW4 9465   3.122   2.475   3.735  0.0072 -0.1559 -0.0360
 2349SOL     OW 9466   3.128   2.728   3.833  0.1257 -0.2704 -0.2410
 2349SOL    HW2 9467   3.114   2.722   3.928  0.9931  1.2602 -0.0001
 2349SOL    HW3 9468   3.074   2.802   3.806 -0.2772 -0.8361 -0.9729
 2349SOL    MW4 9469   3.119   2.737   3.842  0.1869 -0.1431 -0.3057
 2350SOL     OW 9470   3.351   2.853   3.746  0.2747 -0.3323  0.3471
 2350SOL    HW2 9471   3.279   2.801   3.782  1.1270 -1.8848 -0.1452
 2350SOL    HW3 9472   3.356   2.828   3.654  1.3430 -0.1265  0.3378
 2350SOL    MW4 9473   3.342   2.843   3.739  0.5281 -0.5097  0.2809
 2351SOL     OW 9474   3.331   3.107   3.864 -0.2177 -0.1793 -0.0596
 2351SOL    HW2 9475   3.411   3.158   3.849  0.4190 -0.7379  1.3039
 2351SOL    HW3 9476   3.346   3.025   3.817 -0.6549  0.3361 -1.1035
 2351SOL    MW4 9477   3.344   3.103   3.856 -0.1912 -0.1853 -0.0176
 2352SOL     OW 9478   3.130   3.257   3.739 -0.3751  0.1398 -0.0555
 2352SOL    HW2 9479   3.193   3.198   3.780  0.4151  0.6923 -0.4842
 2352SOL    HW3 9480   3.145   3.248   3.645 -1.0250  0.1713 -0.1669
 2352SOL    MW4 9481   3.140   3.248   3.732 -0.3564  0.2172 -0.1268
 2353SOL     OW 9482   3.142   3.499   3.858  0.2332  0.0228  0.0256
 2353SOL    HW2 9483   3.219   3.546   3.827  0.9572 -0.8229  0.5367
 2353SOL    HW3 9484   3.149   3.412   3.819  0.1017 -0.3977  0.9324
 2353SOL    MW4 9485   3.153   3.494   3.849  0.3114 -0.1442  0.2124
 2354SOL     OW 9486   3.368   3.641   3.786 -0.1713 -0.3459  0.2172
 2354SOL    HW2 9487   3.382   3.726   3.828  2.1874 -1.2932  1.4329
 2354SOL    HW3 9488   3.374   3.659   3.692  2.0541  0.5832  0.4986
 2354SOL    MW4 9489   3.371   3.655   3.779  0.4337 -0.3483  0.4146
 2355SOL     OW 9490   3.393   3.908   3.878 -0.3854  0.3422  0.1754
 2355SOL    HW2 9491   3.453   3.965   3.830 -0.5247 -0.1919 -0.6313
 2355SOL    HW3 9492   3.308   3.923   3.837 -0.2417 -1.2137 -0.7228
 2355SOL    MW4 9493   3.389   3.918   3.866 -0.3848  0.0665 -0.0498
 2356SOL     OW 9494   3.146   3.982   3.752  0.0776  0.2275 -0.3225
 2356SOL    HW2 9495   3.146   4.063   3.803 -0.0689  0.1774 -0.2407
 2356SOL    HW3 9496   3.080   3.927   3.795  0.1511  0.0790 -0.3982
 2356SOL    MW4 9497   3.138   3.986   3.765  0.0679  0.2012 -0.3216
 2357SOL     OW 9498   3.155   4.228   3.869 -0.1032  0.0118 -0.1334
 2357SOL    HW2 9499   3.133   4.246   3.961 -0.2746 -0.2505 -0.1228
 2357SOL    HW3 9500   3.220   4.295   3.847 -0.3363  0.3090  0.0680
 2357SOL    MW4 9501   3.161   4.240   3.878 -0.1566  0.0162 -0.1054
 2358SOL     OW 9502   3.363   4.406   3.797  0.1857  0.7391 -0.0200
 2358SOL    HW2 9503   3.449   4.378   3.826 -0.3695  0.1500  1.0828
 2358SOL    HW3 9504   3.347   4.488   3.844 -0.2220  0.3842  0.4760
 2358SOL    MW4 9505   3.372   4.413   3.807  0.0589  0.6146  0.1910
 2359SOL     OW 9506   3.799   0.004   3.863  0.2857 -0.0828  0.1358
 2359SOL    HW2 9507   3.872   0.056   3.829  0.3430  1.2830  2.2355
 2359SOL    HW3 9508   3.812  -0.083   3.825  1.7130  0.7320 -1.3150
 2359SOL    MW4 9509   3.810  -0.001   3.854  0.4816  0.2048  0.2215
 2360SOL     OW 9510   3.521   0.081   3.823  0.1498  0.1270  0.0765
 2360SOL    HW2 9511   3.608   0.042   3.835  0.1403 -0.4438 -1.5335
 2360SOL    HW3 9512   3.516   0.099   3.729 -1.0407  1.2074  0.3381
 2360SOL    MW4 9513   3.532   0.078   3.813 -0.0086  0.1942 -0.1016
 2361SOL     OW 9514   3.579   0.348   3.920 -0.0453  0.3970  0.1130
 2361SOL    HW2 9515   3.646   0.364   3.852 -0.5790 -0.4422 -0.6196
 2361SOL    HW3 9516   3.549   0.259   3.903 -0.3671  0.2807  1.3087
 2361SOL    MW4 9517   3.584   0.339   3.909 -0.1581  0.2710  0.1743
 2362SOL     OW 9518   3.815   0.472   3.780  0.2014 -0.0028  0.1456
 2362SOL    HW2 9519   3.902   0.452   3.816  0.0236 -0.1276  0.5119
 2362SOL    HW3 9520   3.791   0.555   3.819 -0.5733 -0.7961  1.3817
 2362SOL    MW4 9521   3.823   0.480   3.790  0.0758 -0.1239  0.3572
 2363SOL     OW 9522   3.759   0.735   3.893 -0.0076  0.6068  0.3264
 2363SOL    HW2 9523   3.835   0.778   3.852 -0.3732  0.6692 -0.2805
 2363SOL    HW3 9524   3.684   0.785   3.861 -0.6212 -1.7254 -1.9830
 2363SOL    MW4 9525   3.759   0.747   3.884 -0.1369  0.3073 -0.0582
 2364SOL     OW 9526   3.553   0.873   3.779 -0.5015 -0.1524 -0.9655
 2364SOL    HW2 9527   3.561   0.962   3.814  2.2818  0.3061 -2.6592
 2364SOL    HW3 9528   3.483   0.833   3.831  0.3688  1.9744  1.9507
 2364SOL    MW4 9529   3.545   0.879   3.790 -0.0196  0.1887 -0.8042
 2365SOL     OW 9530   3.589   1.139   3.851  0.2326 -0.0256 -0.0757
 2365SOL    HW2 9531   3.661   1.201   3.840 -0.6688  0.9856 -0.4453
 2365SOL    HW3 9532   3.514   1.184   3.812 -1.0985 -0.1282  2.3098
 2365SOL    MW4 9533   3.588   1.153   3.844 -0.0620  0.0943  0.1903
 2366SOL     OW 9534   3.824   1.291   3.760  0.3157 -0.2722  0.3493
 2366SOL    HW2 9535   3.888   1.241   3.811  1.4963  0.5418 -0.3075
 2366SOL    HW3 9536   3.798   1.363   3.817  2.1248  1.0094 -0.4094
 2366SOL    MW4 9537   3.829   1.294   3.774  0.7100  0.0043  0.1626
 2367SOL     OW 9538   3.793   1.537   3.916 -0.3065  0.1622  0.0879
 2367SOL    HW2 9539   3.807   1.549   4.010  0.1159  0.0761  0.0364
 2367SOL    HW3 9540   3.742   1.614   3.889  0.6536  0.8176  0.1446
 2367SOL    MW4 9541   3.788   1.548   3.925 -0.1240  0.2372  0.0887
 2368SOL     OW 9542   3.589   1.706   3.822 -0.3973  0.1991  0.0462
 2368SOL    HW2 9543   3.503   1.668   3.838 -0.1531 -1.2731 -2.0060
 2368SOL    HW3 9544   3.604   1.695   3.728  1.3196  1.9630  0.0643
 2368SOL    MW4 9545   3.579   1.700   3.812 -0.1385  0.2376 -0.2220
 2369SOL     OW 9546   3.587   1.973   3.902  0.0626  0.0458 -0.1918
 2369SOL    HW2 9547   3.516   2.024   3.863 -0.2209 -0.2634 -0.0834
 2369SOL    HW3 9548   3.571   1.884   3.872 -0.6380 -0.3440  1.2971
 2369SOL    MW4 9549   3.575   1.968   3.893 -0.0670 -0.0465  0.0191
 2370SOL     OW 9550   3.786   2.083   3.738 -0.3751 -0.2566 -0.4294
 2370SOL    HW2 9551   3.862   2.031   3.764  0.1661  0.1490 -1.1816
 2370SOL    HW3 9552   3.714   2.049   3.791  0.2729 -0.8236  0.0941
 2370SOL    MW4 9553   3.787   2.072   3.749 -0.2182 -0.2780 -0.4594
 2371SOL     OW 9554   3.796   2.322   3.870 -0.2884 -0.3524  0.2347
 2371SOL    HW2 9555   3.728   2.367   3.821  0.1926 -0.3450 -0.4425
 2371SOL    HW3 9556   3.811   2.241   3.822  0.9078  0.1239 -0.2307
 2371SOL    MW4 9557   3.789   2.317   3.857 -0.0672 -0.2885  0.0839
 2372SOL     OW 9558   3.600   2.476   3.737 -0.4155  0.5751  0.1165
 2372SOL    HW2 9559   3.529   2.432   3.784  0.7803 -1.6766 -0.1223
 2372SOL    HW3 9560   3.598   2.438   3.649  0.3919  1.3188 -0.2316
 2372SOL    MW4 9561   3.590   2.465   3.731 -0.1514  0.3762  0.0391
 2373SOL     OW 9562   3.569   2.728   3.868 -0.3665  0.2725 -0.0145
 2373SOL    HW2 9563   3.584   2.644   3.826  0.5281  0.8060 -0.7868
 2373SOL    HW3 9564   3.497   2.767   3.819  0.1713  0.5654 -0.5849
 2373SOL    MW4 9565   3.561   2.722   3.856 -0.1776  0.3817 -0.1917
 2374SOL     OW 9566   3.811   2.873   3.738  0.2557 -0.4001  0.2128
 2374SOL    HW2 9567   3.879   2.819   3.778  1.3414  0.3202 -0.6103
 2374SOL    HW3 9568   3.730   2.826   3.754  0.9982 -1.4758  0.8786
 2374SOL    MW4 9569   3.810   2.860   3.745  0.4969 -0.4468  0.1919
 2375SOL     OW 9570   3.788   3.091   3.902 -0.1325 -0.3425  0.0536
 2375SOL    HW2 9571   3.706   3.138   3.885 -0.3401 -0.8592 -0.4038
 2375SOL    HW3 9572   3.785   3.015   3.843  0.8878 -0.1257 -0.2857
 2375SOL    MW4 9573   3.777   3.087   3.892 -0.0253 -0.3824 -0.0515
 2376SOL     OW 9574   3.570   3.238   3.839  0.1374 -0.2404  0.1555
 2376SOL    HW2 9575   3.576   3.329   3.868  0.3895  0.2135 -1.3272
 2376SOL    HW3 9576   3.564   3.243   3.744 -0.8511 -1.7281  0.1262
 2376SOL    MW4 9577   3.570   3.251   3.831  0.0401 -0.3767 -0.0439
 2377SOL     OW 9578   3.587   3.530   3.899 -0.0888 -0.5876  0.2540
 2377SOL    HW2 9579   3.585   3.534   3.994  0.0051 -2.7821  0.3736
 2377SOL    HW3 9580   3.498   3.549   3.872 -0.1043  0.0840  0.7866
 2377SOL    MW4 9581   3.575   3.533   3.908 -0.0787 -0.7885  0.3402
 2378SOL     OW 9582   3.810   3.648   3.763  0.1415  0.3974  0.1506
 2378SOL    HW2 9583   3.742   3.598   3.809  0.5624  0.6803  1.0932
 2378SOL    HW3 9584   3.797   3.738   3.792  1.7852  0.2427  1.4267
 2378SOL    MW4 9585   3.799   3.653   3.773  0.4139  0.4144  0.4430
 2379SOL     OW 9586   3.811   3.905   3.875 -0.4774  0.0485  0.0377
 2379SOL    HW2 9587   3.799   3.908   3.970  0.7274 -0.8688  0.2313
 2379SOL    HW3 9588   3.893   3.952   3.859 -0.9741  0.7028 -0.6115
 2379SOL    MW4 9589   3.820   3.911   3.885 -0.3836  0.0136 -0.0222
 2380SOL     OW 9590   3.611   4.045   3.744 -0.5272 -0.1196 -0.2614
 2380SOL    HW2 9591   3.616   4.127   3.793 -1.5781  0.9883 -1.9703
 2380SOL    HW3 9592   3.683   3.992   3.779 -0.7099  0.9615  1.8476
 2380SOL    MW4 9593   3.621   4.049   3.755 -0.6900  0.1693 -0.2084
 2381SOL     OW 9594   3.601   4.302   3.881  0.1729 -0.1197 -0.2532
 2381SOL    HW2 9595   3.623   4.308   3.974 -0.2597  0.3780 -0.1798
 2381SOL    HW3 9596   3.674   4.346   3.836 -0.0029  0.3205 -0.1023
 2381SOL    MW4 9597   3.614   4.309   3.887  0.0925  0.0038 -0.2234
 2382SOL     OW 9598   3.841   4.406   3.784 -0.1708 -0.4696 -0.4304
 2382SOL    HW2 9599   3.924   4.371   3.817  0.3064  0.8664 -0.2039
 2382SOL    HW3 9600   3.850   4.403   3.689  0.1367 -0.3119 -0.4064
 2382SOL    MW4 9601   3.853   4.401   3.776 -0.0672 -0.2718 -0.3974
 2383SOL     OW 9602   4.287   0.044   3.835  0.4366 -0.0471 -0.2740
 2383SOL    HW2 9603   4.290   0.034   3.930  0.7366  0.0701 -0.2685
 2383SOL    HW3 9604   4.379   0.042   3.808  0.4069  0.7982 -0.4704
 2383SOL    MW4 9605   4.300   0.042   3.844  0.4725  0.0799 -0.2992
 2384SOL     OW 9606   4.035   0.131   3.772 -0.1712 -0.2545 -0.1640
 2384SOL    HW2 9607   4.123   0.094   3.782  0.6271  1.6986  0.3519
 2384SOL    HW3 9608   4.033   0.161   3.680 -0.8471 -1.6595 -0.6085
 2384SOL    MW4 9609   4.046   0.130   3.761 -0.1550 -0.1822 -0.1545
 2385SOL     OW 9610   4.066   0.411   3.898 -0.0321 -0.2688 -0.0765
 2385SOL    HW2 9611   4.036   0.428   3.987 -1.3752  1.5750 -0.8668
 2385SOL    HW3 9612   4.050   0.317   3.885 -1.9485 -0.0813  0.8352
 2385SOL    MW4 9613   4.060   0.401   3.908 -0.4621 -0.0008 -0.0606
 2386SOL     OW 9614   4.287   0.522   3.765  0.0735 -0.4688 -0.4259
 2386SOL    HW2 9615   4.217   0.470   3.806 -0.5890 -0.4205 -1.4675
 2386SOL    HW3 9616   4.277   0.505   3.671  1.4356 -0.4126 -0.5915
 2386SOL    MW4 9617   4.276   0.513   3.758  0.1659 -0.4550 -0.5851
 2387SOL     OW 9618   4.232   0.787   3.816 -0.1263  0.3902  0.3727
 2387SOL    HW2 9619   4.143   0.816   3.794 -0.8110 -1.5797  0.4067
 2387SOL    HW3 9620   4.229   0.692   3.805  2.1310  0.3568 -0.1115
 2387SOL    MW4 9621   4.220   0.778   3.812  0.0806  0.1258  0.3135
 2388SOL     OW 9622   3.981   0.854   3.770 -0.5087 -0.3296 -0.5017
 2388SOL    HW2 9623   3.993   0.945   3.799 -0.5936 -0.2587 -0.6900
 2388SOL    HW3 9624   3.993   0.858   3.675 -0.3442 -0.5436 -0.4899
 2388SOL    MW4 9625   3.984   0.867   3.762 -0.4983 -0.3484 -0.5250
 2389SOL     OW 9626   4.036   1.123   3.832 -0.4920  0.1936 -0.3491
 2389SOL    HW2 9627   4.054   1.125   3.926  0.1914  0.7227 -0.4858
 2389SOL    HW3 9628   4.111   1.167   3.792  0.1963 -1.7704 -1.3044
 2389SOL    MW4 9629   4.048   1.129   3.839 -0.3114  0.0042 -0.4930
 2390SOL     OW 9630   4.263   1.246   3.731  0.0132  0.4167 -0.6205
 2390SOL    HW2 9631   4.265   1.336   3.766 -0.5603  0.2370 -0.1158
 2390SOL    HW3 9632   4.230   1.256   3.642  2.1139  0.9521 -1.3586
 2390SOL    MW4 9633   4.259   1.259   3.724  0.2146  0.4637 -0.6511
 2391SOL     OW 9634   4.242   1.516   3.804  0.7887 -0.6378 -0.2793
 2391SOL    HW2 9635   4.162   1.570   3.798 -0.2725 -2.2622 -1.0013
 2391SOL    HW3 9636   4.314   1.579   3.794 -0.3675  0.9285  0.8807
 2391SOL    MW4 9637   4.241   1.532   3.802  0.4959 -0.6455 -0.2215
 2392SOL     OW 9638   4.002   1.645   3.767 -0.0355 -0.1495 -0.2806
 2392SOL    HW2 9639   4.004   1.735   3.798 -1.2673  0.1421 -1.0032
 2392SOL    HW3 9640   3.927   1.606   3.812 -0.6095 -0.2946 -1.3429
 2392SOL    MW4 9641   3.992   1.652   3.777 -0.2737 -0.1302 -0.5159
 2393SOL     OW 9642   4.004   1.912   3.839 -0.1252 -0.0543  0.0637
 2393SOL    HW2 9643   3.988   1.941   3.928 -0.5107 -1.0211  0.3198
 2393SOL    HW3 9644   4.088   1.952   3.815 -0.1630  0.4372  0.7523
 2393SOL    MW4 9645   4.013   1.921   3.847 -0.1812 -0.1171  0.1881
 2394SOL     OW 9646   4.225   2.069   3.774 -0.2822  0.1566  0.4048
 2394SOL    HW2 9647   4.241   2.157   3.809 -0.8788 -0.1459  1.4791
 2394SOL    HW3 9648   4.217   2.082   3.680  0.7841  1.0841  0.4286
 2394SOL    MW4 9649   4.226   2.082   3.767 -0.2203  0.2389  0.5498
 2395SOL     OW 9650   4.252   2.336   3.839  0.0036 -0.7407  0.3441
 2395SOL    HW2 9651   4.251   2.332   3.935 -0.2863  0.0370  0.3802
 2395SOL    HW3 9652   4.162   2.358   3.815 -0.0612 -1.5225 -0.1376
 2395SOL    MW4 9653   4.240   2.339   3.849 -0.0424 -0.7415  0.2851
 2396SOL     OW 9654   4.010   2.446   3.755  0.0134 -0.0166  0.1328
 2396SOL    HW2 9655   4.009   2.535   3.790 -1.1202  0.2195 -0.5014
 2396SOL    HW3 9656   3.926   2.408   3.783 -0.3247 -0.2625 -1.1968
 2396SOL    MW4 9657   3.999   2.453   3.763 -0.1805 -0.0179 -0.1261
 2397SOL     OW 9658   3.988   2.716   3.861  0.1626 -0.3544 -0.2843
 2397SOL    HW2 9659   3.994   2.719   3.957  0.7300  1.5288 -0.3619
 2397SOL    HW3 9660   4.064   2.765   3.831 -1.7965  1.9460 -1.6499
 2397SOL    MW4 9661   3.998   2.723   3.870 -0.0210  0.1976 -0.4745
 2398SOL     OW 9662   4.208   2.832   3.745  0.0194 -0.3185 -0.2983
 2398SOL    HW2 9663   4.211   2.926   3.761  1.2251 -0.4466  0.2817
 2398SOL    HW3 9664   4.290   2.799   3.782 -0.7657 -1.7047  0.2359
 2398SOL    MW4 9665   4.219   2.840   3.752  0.0758 -0.5183 -0.1512
 2399SOL     OW 9666   4.341   3.515   4.131  0.3886 -0.1924 -0.2150
 2399SOL    HW2 9667   4.353   3.437   4.186  0.6657 -0.2640 -0.3779
 2399SOL    HW3 9668   4.246   3.526   4.126  0.3494 -0.5425 -0.2254
 2399SOL    MW4 9669   4.330   3.506   4.138  0.4201 -0.2480 -0.2379
 2400SOL     OW 9670   4.012   3.272   3.798 -0.4760 -0.2055 -0.1269
 2400SOL    HW2 9671   3.927   3.235   3.823 -0.8248  1.0106  0.5895
 2400SOL    HW3 9672   4.016   3.261   3.703 -0.9415 -1.2724 -0.0319
 2400SOL    MW4 9673   4.001   3.266   3.789 -0.5832 -0.1857 -0.0200
 2401SOL     OW 9674   4.055   3.540   3.849 -0.2593 -0.7514 -0.2124
 2401SOL    HW2 9675   3.978   3.582   3.811  0.0291 -0.2613 -0.2656
 2401SOL    HW3 9676   4.042   3.446   3.834 -0.0340 -0.5513 -1.7473
 2401SOL    MW4 9677   4.043   3.533   3.842 -0.1917 -0.6607 -0.4218
 2402SOL     OW 9678   4.261   3.651   3.705  0.1136  0.5218 -0.2026
 2402SOL    HW2 9679   4.182   3.617   3.747  1.0447 -0.9366  0.3867
 2402SOL    HW3 9680   4.333   3.604   3.747  1.3387  2.1692 -0.4076
 2402SOL    MW4 9681   4.260   3.640   3.716  0.3982  0.5467 -0.1519
 2403SOL     OW 9682   4.272   3.885   3.873 -0.8294  0.2303 -0.1671
 2403SOL    HW2 9683   4.188   3.919   3.843 -0.7748 -0.2026 -0.8196
 2403SOL    HW3 9684   4.282   3.801   3.827  0.6535  0.9874 -1.2857
 2403SOL    MW4 9685   4.263   3.878   3.863 -0.6270  0.2730 -0.4010
 2404SOL     OW 9686   4.040   4.022   3.773 -0.1649  0.1160 -0.0787
 2404SOL    HW2 9687   4.054   4.110   3.809  0.7603 -0.1316  0.1835
 2404SOL    HW3 9688   4.038   4.036   3.678  0.1395  0.4014 -0.0471
 2404SOL    MW4 9689   4.041   4.036   3.765 -0.0024  0.1206 -0.0398
 2405SOL     OW 9690   4.051   4.285   3.857  0.3038 -0.4652 -0.0881
 2405SOL    HW2 9691   4.091   4.283   3.945 -1.1798 -1.0066  0.5936
 2405SOL    HW3 9692   4.117   4.326   3.802  1.6274 -0.9505  1.1077
 2405SOL    MW4 9693   4.065   4.290   3.862  0.2828 -0.6003  0.1597
 2406SOL     OW 9694   4.241   4.441   3.737 -0.1559 -0.2872  0.4858
 2406SOL    HW2 9695   4.224   4.527   3.776 -0.0172 -0.1711  0.2913
 2406SOL    HW3 9696   4.327   4.416   3.771  1.0810  0.9232 -1.6817
 2406SOL    MW4 9697   4.250   4.449   3.747  0.0257 -0.1125  0.1740
 2407SOL     OW 9698   4.214   1.649   4.741 -0.1812 -0.3373  0.2137
 2407SOL    HW2 9699   4.192   1.680   4.653  0.2347  1.4476  0.7179
 2407SOL    HW3 9700   4.280   1.710   4.772 -1.4261 -0.0409  2.3568
 2407SOL    MW4 9701   4.220   1.661   4.733 -0.2904 -0.0627  0.5627
 2408SOL     OW 9702   1.682   4.520   4.513 -0.2150  0.4693 -0.3224
 2408SOL    HW2 9703   1.628   4.507   4.435 -0.3699  2.0377 -0.5033
 2408SOL    HW3 9704   1.750   4.581   4.485  0.1548  0.4821  0.5810
 2408SOL    MW4 9705   1.683   4.527   4.499 -0.1867  0.6771 -0.2270
 2409SOL     OW 9706   1.003   4.032   4.426 -0.0900  0.7158 -0.5471
 2409SOL    HW2 9707   0.925   4.043   4.372 -1.1612  0.9906  1.0163
 2409SOL    HW3 9708   1.014   4.116   4.470 -0.0123  0.0855  0.6665
 2409SOL    MW4 9709   0.994   4.045   4.425 -0.2211  0.6690 -0.1807
 2410SOL     OW 9710   1.773   4.248   4.513 -0.0302  0.1129  0.3837
 2410SOL    HW2 9711   1.745   4.338   4.532  0.4822  0.4465 -0.4300
 2410SOL    HW3 9712   1.868   4.250   4.521  0.0320 -0.2017 -0.2996
 2410SOL    MW4 9713   1.782   4.261   4.517  0.0457  0.1159  0.1864
 2411SOL     OW 9714   4.368   0.846   4.050  0.1380  0.0237  0.2491
 2411SOL    HW2 9715   4.294   0.856   4.110 -0.1900  0.3044 -0.1946
 2411SOL    HW3 9716   4.329   0.811   3.970  0.7517 -1.4352  0.5816
 2411SOL    MW4 9717   4.353   0.843   4.048  0.1755 -0.1317  0.2341
 2412SOL     OW 9718   4.265   1.346   4.210  0.5168 -0.0931 -0.4741
 2412SOL    HW2 9719   4.325   1.299   4.152 -0.9634 -0.2991 -1.8608
 2412SOL    HW3 9720   4.248   1.429   4.166  0.6014  0.3979  0.4135
 2412SOL    MW4 9721   4.271   1.350   4.197  0.3324 -0.0554 -0.5393
 2413SOL     OW 9722   4.421   1.148   4.094 -0.2794 -0.3450 -0.2115
 2413SOL    HW2 9723   4.498   1.181   4.140 -0.8580 -1.2442  1.4456
 2413SOL    HW3 9724   4.456   1.103   4.018  0.7387  0.6101 -0.3187
 2413SOL    MW4 9725   4.435   1.147   4.090 -0.2213 -0.3377 -0.0076
 2414SOL     OW 9726   0.618   2.099   4.285  0.3517 -0.0020  0.0630
 2414SOL    HW2 9727   0.554   2.037   4.250  1.2961 -0.7442 -0.3886
 2414SOL    HW3 9728   0.702   2.056   4.271  0.9973  1.2606  0.0239
 2414SOL    MW4 9729   0.621   2.085   4.279  0.5615  0.0665 -0.0019
 2415SOL     OW 9730   1.520   3.033   4.554 -0.5489  0.1521  0.5141
 2415SOL    HW2 9731   1.531   2.942   4.527 -0.1168 -0.1788  1.8154
 2415SOL    HW3 9732   1.608   3.071   4.549 -0.3382 -0.0936  2.0948
 2415SOL    MW4 9733   1.533   3.026   4.549 -0.4640  0.0763  0.8950
 2416SOL     OW 9734   2.618   1.257   4.573  0.1163  0.3356 -0.7308
 2416SOL    HW2 9735   2.523   1.258   4.570  0.0931  0.6707  0.0925
 2416SOL    HW3 9736   2.644   1.349   4.577  0.4672  0.2411 -0.7735
 2416SOL    MW4 9737   2.609   1.269   4.573  0.1597  0.3674 -0.6275
 2417SOL     OW 9738   0.176   2.070   4.233  0.3776 -0.0115  0.0648
 2417SOL    HW2 9739   0.261   2.025   4.225  0.0172 -0.5143 -1.1806
 2417SOL    HW3 9740   0.191   2.155   4.192 -0.1189 -0.6823 -1.5476
 2417SOL    MW4 9741   0.189   2.075   4.226  0.2646 -0.1667 -0.3119
 2418SOL     OW 9742   0.380   3.270   4.259  0.1394 -0.3380  0.2056
 2418SOL    HW2 9743   0.341   3.329   4.323  0.0486  3.0348 -2.7648
 2418SOL    HW3 9744   0.304   3.226   4.219 -0.1911  0.9254 -0.6244
 2418SOL    MW4 9745   0.365   3.272   4.262  0.0838  0.2737 -0.2956
 2419SOL     OW 9746   4.161   2.056   4.482  0.2563 -0.0153 -0.4968
 2419SOL    HW2 9747   4.240   2.070   4.535  0.1834 -0.2493 -0.3299
 2419SOL    HW3 9748   4.090   2.092   4.534  0.1654 -0.3675 -0.3757
 2419SOL    MW4 9749   4.162   2.063   4.496  0.2346 -0.0927 -0.4592
 2420SOL     OW 9750   4.461   2.455   4.265 -0.4743  0.4486 -0.4752
 2420SOL    HW2 9751   4.444   2.482   4.355 -0.2357 -0.1894 -0.2356
 2420SOL    HW3 9752   4.388   2.396   4.244  1.1069 -1.8777  0.3729
 2420SOL    MW4 9753   4.449   2.451   4.274 -0.2337  0.0575 -0.3314
 2421SOL     OW 9754   4.464   2.704   4.120 -0.5125 -0.0963  0.2794
 2421SOL    HW2 9755   4.529   2.764   4.155 -0.7287  0.0975  0.3487
 2421SOL    HW3 9756   4.473   2.625   4.173  0.7465 -0.6423 -0.7359
 2421SOL    MW4 9757   4.474   2.701   4.131 -0.3743 -0.1428  0.1550
 2422SOL     OW 9758   1.066   3.059   4.627 -0.1310 -0.4972 -0.3146
 2422SOL    HW2 9759   1.068   2.964   4.623  1.1451 -0.5334  0.7698
 2422SOL    HW3 9760   1.139   3.087   4.571 -0.6549 -0.1554 -0.8269
 2422SOL    MW4 9761   1.076   3.050   4.619 -0.0318 -0.4570 -0.2394
 2423SOL     OW 9762   1.245   3.056   4.845 -0.0226  0.2845 -0.2304
 2423SOL    HW2 9763   1.174   3.068   4.782  0.6215 -0.3259 -1.0759
 2423SOL    HW3 9764   1.268   2.964   4.838  0.2386  0.2796  0.7064
 2423SOL    MW4 9765   1.239   3.046   4.836  0.0968  0.2034 -0.2184
 2424SOL     OW 9766   4.226   3.089   3.852 -0.1183  0.0278 -0.2864
 2424SOL    HW2 9767   4.219   3.077   3.946  1.3259 -0.5081 -0.2269
 2424SOL    HW3 9768   4.156   3.150   3.830  0.6821  1.5897  1.4098
 2424SOL    MW4 9769   4.216   3.095   3.861  0.1779  0.1631 -0.0548
 2425SOL     OW 9770   4.190   3.757   4.537  0.3031  0.1306 -0.3088
 2425SOL    HW2 9771   4.110   3.801   4.506  0.5044 -0.7552 -2.1969
 2425SOL    HW3 9772   4.254   3.773   4.467  0.5141 -2.7135 -0.8131
 2425SOL    MW4 9773   4.188   3.765   4.524  0.3576 -0.3617 -0.6247
 2426SOL     OW 9774   3.556   4.163   4.510  0.3486 -0.2323  0.0522
 2426SOL    HW2 9775   3.536   4.238   4.566 -0.5460 -0.9137  0.6819
 2426SOL    HW3 9776   3.491   4.097   4.535  0.6097 -0.9270 -1.0583
 2426SOL    MW4 9777   3.545   4.164   4.521  0.2649 -0.4144 -0.0110
 2427SOL     OW 9778   0.104   3.321   4.576  0.1979 -0.5083  0.0078
 2427SOL    HW2 9779   0.149   3.241   4.550  1.0018 -0.4022  1.0426
 2427SOL    HW3 9780   0.150   3.391   4.529  0.8303 -0.4497  0.6985
 2427SOL    MW4 9781   0.116   3.320   4.566  0.3874 -0.4866  0.2356
 2428SOL     OW 9782   0.015   0.128   4.248 -0.3358  0.6372 -0.0158
 2428SOL    HW2 9783   0.020   0.210   4.199  0.5915  0.0850 -0.8596
 2428SOL    HW3 9784   0.095   0.081   4.225 -0.9428 -0.5859  0.3140
 2428SOL    MW4 9785   0.026   0.132   4.239 -0.2937  0.4030 -0.0830
 2429SOL     OW 9786   0.057   4.035   4.249  0.1733  0.1580  0.3956
 2429SOL    HW2 9787   0.046   4.099   4.180  0.2773  0.4361  0.6340
 2429SOL    HW3 9788   0.113   3.967   4.211 -0.5530 -0.1696 -0.1022
 2429SOL    MW4 9789   0.063   4.035   4.235  0.0912  0.1516  0.3610
 2430SOL     OW 9790   1.089   0.236   4.497  0.2098 -0.5758  0.4170
 2430SOL    HW2 9791   1.024   0.269   4.436 -1.9085 -1.3470  2.1949
 2430SOL    HW3 9792   1.068   0.143   4.507  0.6200 -0.5044  2.1633
 2430SOL    MW4 9793   1.078   0.228   4.490 -0.0156 -0.6681  0.8821
 2431SOL     OW 9794   0.461   4.125   4.406  0.0425  0.3858  0.5361
 2431SOL    HW2 9795   0.459   4.192   4.337  0.7896  0.1028  0.2367
 2431SOL    HW3 9796   0.522   4.159   4.471  0.0894  0.1985  0.5909
 2431SOL    MW4 9797   0.469   4.138   4.405  0.1473  0.3233  0.5040
 2432SOL     OW 9798   1.412   0.490   4.786  0.2854 -0.2544 -0.1325
 2432SOL    HW2 9799   1.321   0.463   4.774  0.0070  0.1086  1.1617
 2432SOL    HW3 9800   1.459   0.408   4.798  0.4952 -0.6167 -2.9615
 2432SOL    MW4 9801   1.406   0.476   4.786  0.2762 -0.2543 -0.3352
 2433SOL     OW 9802   0.004   0.235   4.499 -0.0550 -0.3235 -0.6306
 2433SOL    HW2 9803   0.015   0.192   4.414  0.6178  1.9508 -1.7418
 2433SOL    HW3 9804   0.005   0.329   4.478 -0.7957  0.2483  1.7896
 2433SOL    MW4 9805   0.005   0.242   4.485 -0.0639  0.0520 -0.4582
 2434SOL     OW 9806   4.138   3.842   4.129 -0.2897  0.3884 -0.2478
 2434SOL    HW2 9807   4.100   3.926   4.154 -0.4729  0.6731 -1.4966
 2434SOL    HW3 9808   4.199   3.863   4.058  0.5960 -0.3646  0.2719
 2434SOL    MW4 9809   4.141   3.856   4.123 -0.1974  0.3264 -0.3443
 2435SOL     OW 9810   0.793   4.595   4.118  0.1401  0.9064 -0.3858
 2435SOL    HW2 9811   0.871   4.650   4.114  0.7572  0.0136 -0.7865
 2435SOL    HW3 9812   0.740   4.622   4.042  0.1149  1.4307 -0.1795
 2435SOL    MW4 9813   0.796   4.606   4.107  0.2182  0.8578 -0.4115
 2436SOL     OW 9814   0.459   0.889   4.199 -0.0984  0.0338 -0.0503
 2436SOL    HW2 9815   0.412   0.972   4.190  0.7458  0.6106  0.6970
 2436SOL    HW3 9816   0.469   0.878   4.294 -1.3083 -1.5599 -0.0893
 2436SOL    MW4 9817   0.454   0.898   4.210 -0.1467 -0.1004  0.0434
 2437SOL     OW 9818   0.387   1.169   4.141  0.0521  0.0585 -0.4911
 2437SOL    HW2 9819   0.456   1.222   4.180 -0.4226  0.7638 -0.5897
 2437SOL    HW3 9820   0.406   1.171   4.047  0.6766 -0.8867 -0.3911
 2437SOL    MW4 9821   0.398   1.177   4.133  0.0719  0.0268 -0.4907
 2438SOL     OW 9822   0.684   1.594   4.142 -0.2140 -0.3924 -0.2176
 2438SOL    HW2 9823   0.669   1.592   4.048 -1.9909  0.2501  0.0358
 2438SOL    HW3 9824   0.763   1.646   4.153 -0.6748  0.5413 -1.2920
 2438SOL    MW4 9825   0.692   1.601   4.131 -0.5092 -0.1843 -0.3257
 2439SOL     OW 9826   0.403   1.938   4.188 -0.2208 -0.3573  0.1943
 2439SOL    HW2 9827   0.413   1.845   4.204  0.3586 -0.4566 -0.7190
 2439SOL    HW3 9828   0.406   1.947   4.093  1.1192  0.7453  0.3219
 2439SOL    MW4 9829   0.405   1.927   4.178  0.0325 -0.2249  0.0906
 2440SOL     OW 9830   0.227   1.500   4.095  0.4693  0.1642 -0.5979
 2440SOL    HW2 9831   0.161   1.565   4.119  0.9716  0.5355 -0.2316
 2440SOL    HW3 9832   0.186   1.416   4.118  0.5884  0.4602  0.7629
 2440SOL    MW4 9833   0.213   1.497   4.101  0.5513  0.2524 -0.3705
 2441SOL     OW 9834   0.824   4.487   4.509 -0.0768  0.4174 -0.1286
 2441SOL    HW2 9835   0.762   4.528   4.449 -0.7893 -1.0507 -0.4132
 2441SOL    HW3 9836   0.894   4.552   4.519 -0.6228  1.2340 -1.4554
 2441SOL    MW4 9837   0.825   4.501   4.503 -0.2428  0.3314 -0.3414
 2442SOL     OW 9838   0.348   1.606   4.511 -0.3357 -0.6108 -0.1080
 2442SOL    HW2 9839   0.288   1.665   4.556  0.5097 -0.0202  0.2706
 2442SOL    HW3 9840   0.366   1.648   4.427  0.7837  0.0213  0.4312
 2442SOL    MW4 9841   0.343   1.619   4.506 -0.0765 -0.4495  0.0134
 2443SOL     OW 9842   0.660   1.263   4.466 -0.0682 -0.1982 -0.3992
 2443SOL    HW2 9843   0.734   1.202   4.467 -0.3623 -0.5574  1.0102
 2443SOL    HW3 9844   0.587   1.213   4.502 -0.5230  0.7310 -0.0099
 2443SOL    MW4 9845   0.660   1.248   4.471 -0.1671 -0.1229 -0.1621
 2444SOL     OW 9846   0.214   2.322   4.144  0.5754  0.5151 -0.0466
 2444SOL    HW2 9847   0.279   2.390   4.165  0.0498  0.3449  2.1753
 2444SOL    HW3 9848   0.137   2.346   4.194 -1.0202  0.5055 -2.3915
 2444SOL    MW4 9849   0.213   2.334   4.153  0.2955  0.4916 -0.0629
 2445SOL     OW 9850   0.411   2.749   4.101 -0.2537 -0.2636  0.3397
 2445SOL    HW2 9851   0.401   2.737   4.007 -0.9123  0.9221  0.2424
 2445SOL    HW3 9852   0.425   2.661   4.136  0.1897 -0.6795 -0.8908
 2445SOL    MW4 9853   0.411   2.736   4.093 -0.2821 -0.1624  0.1645
 2446SOL     OW 9854   0.184   2.878   4.187 -0.4599 -0.1361 -0.0418
 2446SOL    HW2 9855   0.187   2.969   4.157 -0.4311  0.0400  0.4943
 2446SOL    HW3 9856   0.262   2.838   4.148  0.5077  0.5259  1.1812
 2446SOL    MW4 9857   0.195   2.885   4.178 -0.3285 -0.0255  0.1903
 2447SOL     OW 9858   1.284   2.424   4.462 -0.5239  0.1397  0.0024
 2447SOL    HW2 9859   1.309   2.441   4.371 -0.1800  0.3526  0.1348
 2447SOL    HW3 9860   1.298   2.507   4.507  0.9920 -0.4120  0.6191
 2447SOL    MW4 9861   1.290   2.437   4.456 -0.2786  0.0951  0.1020
 2448SOL     OW 9862   2.602   4.164   4.834  0.1991  0.6140  0.2203
 2448SOL    HW2 9863   2.565   4.084   4.870  0.5350  0.1246 -0.4928
 2448SOL    HW3 9864   2.557   4.235   4.879 -0.5416  0.0225  0.4129
 2448SOL    MW4 9865   2.591   4.163   4.845  0.1459  0.4716  0.1516
 2449SOL     OW 9866   0.689   3.089   4.117 -0.0186 -0.0238 -0.7665
 2449SOL    HW2 9867   0.751   3.142   4.167  0.1212  1.1956 -2.2060
 2449SOL    HW3 9868   0.662   3.020   4.178  1.2435  0.5851  0.5128
 2449SOL    MW4 9869   0.694   3.087   4.132  0.1664  0.2177 -0.7877
 2450SOL     OW 9870   2.963   3.552   4.568  0.7683 -0.3152  0.4290
 2450SOL    HW2 9871   3.058   3.561   4.573  1.0507 -1.5414 -2.2709
 2450SOL    HW3 9872   2.940   3.583   4.481 -1.2660 -0.4924  0.8790
 2450SOL    MW4 9873   2.972   3.557   4.557  0.5372 -0.5002  0.1316
 2451SOL     OW 9874   0.689   4.215   4.530 -0.6870 -0.6908  0.5933
 2451SOL    HW2 9875   0.771   4.184   4.568 -0.2863  0.2532  0.5015
 2451SOL    HW3 9876   0.698   4.310   4.526 -2.0065 -0.5292  1.0969
 2451SOL    MW4 9877   0.701   4.223   4.534 -0.8082 -0.5445  0.6475
 2452SOL     OW 9878   3.805   3.187   4.676 -0.0193  0.5080  0.2188
 2452SOL    HW2 9879   3.787   3.113   4.734 -0.5147  1.6913  1.6026
 2452SOL    HW3 9880   3.722   3.204   4.632  0.2895 -0.2185 -0.6826
 2452SOL    MW4 9881   3.792   3.179   4.677 -0.0439  0.5682  0.2828
 2453SOL     OW 9882   1.155   0.388   4.728 -0.4959 -0.0994 -0.0509
 2453SOL    HW2 9883   1.106   0.343   4.659 -1.2919 -1.9229  1.6373
 2453SOL    HW3 9884   1.087   0.419   4.788  0.2572  0.2896  0.5990
 2453SOL    MW4 9885   1.139   0.386   4.727 -0.5015 -0.2887  0.2580
 2454SOL     OW 9886   4.485   4.260   4.092 -0.2510 -0.2055  0.2301
 2454SOL    HW2 9887   4.488   4.295   4.003 -1.0491 -0.8367 -0.0518
 2454SOL    HW3 9888   4.408   4.302   4.132  0.5937  0.7312  0.9097
 2454SOL    MW4 9889   4.475   4.270   4.086 -0.2451 -0.1650  0.2823
 2455SOL     OW 9890   1.935   2.769   4.475  0.4903 -0.1689 -0.3188
 2455SOL    HW2 9891   1.978   2.760   4.560 -2.3516  2.4756  1.4883
 2455SOL    HW3 9892   1.872   2.697   4.472 -0.6337  0.7684  0.5982
 2455SOL    MW4 9893   1.932   2.758   4.486 -0.0329  0.3035  0.0410
 2456SOL     OW 9894   0.274   0.317   4.471 -0.0950  0.5246 -0.6731
 2456SOL    HW2 9895   0.330   0.248   4.435 -0.1944 -0.5205  1.1206
 2456SOL    HW3 9896   0.195   0.271   4.498  0.2588  1.1715  1.5035
 2456SOL    MW4 9897   0.271   0.302   4.470 -0.0615  0.4720 -0.1493
 2457SOL     OW 9898   0.964   0.348   4.294 -0.4152 -0.5407  0.2757
 2457SOL    HW2 9899   1.033   0.407   4.265  0.3910 -0.9255  1.3763
 2457SOL    HW3 9900   0.883   0.398   4.282  0.0397 -0.1256 -1.1036
 2457SOL    MW4 9901   0.962   0.362   4.289 -0.2487 -0.5367  0.2384
 2458SOL     OW 9902   1.101   0.761   4.133  0.1034  0.0755  0.0314
 2458SOL    HW2 9903   1.131   0.681   4.175 -0.4093 -0.4931 -0.6818
 2458SOL    HW3 9904   1.163   0.828   4.162  0.4350 -0.5422  0.7567
 2458SOL    MW4 9905   1.113   0.760   4.143  0.0795 -0.0810  0.0329
 2459SOL     OW 9906   1.332   0.867   4.250 -0.1958  0.0088  0.0344
 2459SOL    HW2 9907   1.412   0.818   4.228 -0.4098 -0.2312 -0.2064
 2459SOL    HW3 9908   1.342   0.949   4.202 -1.2264 -0.9977 -1.9636
 2459SOL    MW4 9909   1.344   0.871   4.241 -0.3600 -0.1557 -0.2608
 2460SOL     OW 9910   0.502   0.324   4.110  0.4724 -0.0824 -0.6488
 2460SOL    HW2 9911   0.510   0.346   4.017  0.9371 -1.5368 -0.9704
 2460SOL    HW3 9912   0.420   0.366   4.138 -0.1748 -0.4299 -1.9684
 2460SOL    MW4 9913   0.492   0.332   4.102  0.4483 -0.3202 -0.8655
 2461SOL     OW 9914   0.877   0.888   4.223 -0.4095  0.0341  0.3137
 2461SOL    HW2 9915   0.807   0.829   4.196 -0.7677 -0.2009  1.7100
 2461SOL    HW3 9916   0.958   0.838   4.207 -0.6741 -0.5592  0.7915
 2461SOL    MW4 9917   0.878   0.873   4.217 -0.4916 -0.0751  0.5612
 2462SOL     OW 9918   1.903   1.314   4.521 -0.4911 -0.3379 -0.7103
 2462SOL    HW2 9919   1.874   1.396   4.562  1.1400  0.2767 -0.7087
 2462SOL    HW3 9920   1.833   1.252   4.539 -1.6801  1.0156 -0.5556
 2462SOL    MW4 9921   1.890   1.317   4.529 -0.4328 -0.0783 -0.6890
 2463SOL     OW 9922   4.412   1.686   4.432  0.2828 -0.4702  0.7081
 2463SOL    HW2 9923   4.416   1.610   4.490 -1.1593  0.7861  2.5564
 2463SOL    HW3 9924   4.319   1.709   4.431  0.3260 -0.2423 -1.8855
 2463SOL    MW4 9925   4.400   1.679   4.440  0.0982 -0.2743  0.6099
 2464SOL     OW 9926   1.570   3.901   4.267 -0.5284 -0.1526  0.2545
 2464SOL    HW2 9927   1.580   3.806   4.257 -0.0883 -0.2707  1.7244
 2464SOL    HW3 9928   1.653   3.930   4.303 -0.4527  0.8981 -0.7285
 2464SOL    MW4 9929   1.582   3.892   4.270 -0.4603 -0.0296  0.3190
 2465SOL     OW 9930   1.079   1.541   4.143  0.0935  0.7380  0.3072
 2465SOL    HW2 9931   1.067   1.470   4.207  0.0894 -0.4342 -0.9731
 2465SOL    HW3 9932   1.015   1.607   4.169  0.9326  0.8291  2.2704
 2465SOL    MW4 9933   1.069   1.540   4.155  0.2035  0.5952  0.3972
 2466SOL     OW 9934   1.266   4.378   4.668  0.1044  0.1756 -0.1372
 2466SOL    HW2 9935   1.323   4.448   4.636 -0.8703 -0.0732 -2.5167
 2466SOL    HW3 9936   1.321   4.328   4.728  1.5685  1.4977 -0.3357
 2466SOL    MW4 9937   1.281   4.381   4.672  0.1690  0.3166 -0.4773
 2467SOL     OW 9938   0.864   2.012   4.161  0.2721  0.0364 -0.5784
 2467SOL    HW2 9939   0.875   2.006   4.066  0.3424  0.1065 -0.5749
 2467SOL    HW3 9940   0.952   2.023   4.195  0.1434  1.1863 -0.5900
 2467SOL    MW4 9941   0.877   2.012   4.153  0.2644  0.1969 -0.5794
 2468SOL     OW 9942   0.636   2.343   4.149 -0.1796  0.1017 -0.0519
 2468SOL    HW2 9943   0.626   2.326   4.056  0.8609  0.2909 -0.2078
 2468SOL    HW3 9944   0.624   2.258   4.191 -0.4728 -0.0118 -0.3697
 2468SOL    MW4 9945   0.633   2.330   4.142 -0.0810  0.1116 -0.1144
 2469SOL     OW 9946   0.836   2.724   4.185  0.1322 -0.1772 -0.5307
 2469SOL    HW2 9947   0.780   2.781   4.238  1.1964  1.4771 -1.1515
 2469SOL    HW3 9948   0.925   2.747   4.211  0.5719 -2.0242 -0.3388
 2469SOL    MW4 9949   0.840   2.734   4.195  0.3305 -0.2024 -0.5875
 2470SOL     OW 9950   1.093   2.808   4.268 -0.3672  0.2258 -0.5282
 2470SOL    HW2 9951   1.141   2.758   4.202 -2.5985 -0.7019 -1.5057
 2470SOL    HW3 9952   1.102   2.899   4.239  0.8096  0.0700 -0.6759
 2470SOL    MW4 9953   1.101   2.814   4.255 -0.5064  0.0830 -0.6771
 2471SOL     OW 9954   0.072   3.650   4.239 -0.5790 -0.1309  0.3456
 2471SOL    HW2 9955   0.015   3.583   4.200  0.6267  0.1283 -1.9421
 2471SOL    HW3 9956   0.011   3.711   4.281 -2.0806  0.3195 -2.3174
 2471SOL    MW4 9957   0.056   3.649   4.239 -0.6181 -0.0372 -0.3071
 2472SOL     OW 9958   4.166   2.620   4.630  0.1490 -0.1677  0.0812
 2472SOL    HW2 9959   4.126   2.703   4.606  2.0331  0.8242  0.3357
 2472SOL    HW3 9960   4.208   2.637   4.714  1.0580 -1.2215 -0.1557
 2472SOL    MW4 9961   4.166   2.633   4.638  0.5174 -0.1757  0.0834
 2473SOL     OW 9962   0.862   3.236   4.550 -0.2063 -0.0767  0.1689
 2473SOL    HW2 9963   0.909   3.319   4.559  0.3286 -0.4892  1.2493
 2473SOL    HW3 9964   0.927   3.169   4.572 -0.5191 -0.8148 -1.0935
 2473SOL    MW4 9965   0.877   3.238   4.554 -0.1770 -0.2286  0.1450
 2474SOL     OW 9966   0.545   3.454   4.104  0.2633  0.1530 -0.2144
 2474SOL    HW2 9967   0.481   3.392   4.140 -1.0582  1.2659 -0.5900
 2474SOL    HW3 9968   0.510   3.478   4.018  2.1813 -0.6715 -1.2573
 2474SOL    MW4 9969   0.532   3.449   4.098  0.3420  0.1912 -0.4010
 2475SOL     OW 9970   1.136   3.622   4.317  0.2037  0.3291  0.2285
 2475SOL    HW2 9971   1.221   3.594   4.280  0.6848 -0.4996  1.9239
 2475SOL    HW3 9972   1.110   3.696   4.263  1.8431  0.3591 -0.5552
 2475SOL    MW4 9973   1.144   3.628   4.305  0.4835  0.2236  0.3486
 2476SOL     OW 9974   2.905   1.558   4.169 -0.2942  0.1688 -0.1149
 2476SOL    HW2 9975   2.818   1.591   4.191 -0.2482  0.1097  0.1585
 2476SOL    HW3 9976   2.907   1.469   4.204  0.2011  0.4869  0.6934
 2476SOL    MW4 9977   2.894   1.551   4.177 -0.2227  0.2030  0.0277
 2477SOL     OW 9978   0.485   3.888   4.233  0.6112  0.2794  0.1885
 2477SOL    HW2 9979   0.497   3.809   4.286  2.1824  0.4046  0.0553
 2477SOL    HW3 9980   0.481   3.960   4.297 -1.0241  0.0800  0.3218
 2477SOL    MW4 9981   0.486   3.887   4.249  0.6028  0.2697  0.1893
 2478SOL     OW 9982   1.205   4.103   4.246 -0.1769 -0.3176 -0.0584
 2478SOL    HW2 9983   1.147   4.073   4.317  0.1251 -0.9791 -0.0843
 2478SOL    HW3 9984   1.281   4.138   4.291 -0.3956  0.1281 -0.0345
 2478SOL    MW4 9985   1.207   4.103   4.261 -0.1658 -0.3462 -0.0591
 2479SOL     OW 9986   1.646   0.012   4.143  0.3524  0.3865  0.2286
 2479SOL    HW2 9987   1.626  -0.075   4.179  2.8453  0.2089  1.2491
 2479SOL    HW3 9988   1.569   0.065   4.167 -0.8403 -1.3270  0.2820
 2479SOL    MW4 9989   1.633   0.008   4.151  0.5240  0.1373  0.3700
 2480SOL     OW 9990   1.175   4.346   4.118  0.1523 -0.4667 -0.0516
 2480SOL    HW2 9991   1.206   4.265   4.158 -1.4581 -0.3704  1.4445
 2480SOL    HW3 9992   1.220   4.349   4.034  1.7235 -1.9205  0.6956
 2480SOL    MW4 9993   1.185   4.335   4.112  0.1471 -0.6456  0.2446
 2481SOL     OW 9994   1.373   0.371   4.080  0.0085 -0.1271  0.7631
 2481SOL    HW2 9995   1.372   0.280   4.110  1.7119 -0.8065 -1.0968
 2481SOL    HW3 9996   1.442   0.413   4.131  1.0057 -0.5756 -0.1826
 2481SOL    MW4 9997   1.382   0.365   4.091  0.3648 -0.2759  0.3929
 2482SOL     OW 9998   4.460   0.516   4.442  0.3594  0.1036  0.0609
 2482SOL    HW2 9999   4.381   0.535   4.493  0.5564  2.7819 -0.5780
 2482SOL    HW310000   4.433   0.527   4.351  1.0927 -0.5024 -0.2351
 2482SOL    MW410001   4.446   0.520   4.437  0.4826  0.3771 -0.0625
 2483SOL     OW10002   1.322   1.111   4.103 -0.1290 -0.2795  0.3297
 2483SOL    HW210003   1.392   1.163   4.144 -0.8621  1.7848 -0.9186
 2483SOL    HW310004   1.241   1.153   4.132 -0.6830  0.5900 -2.2909
 2483SOL    MW410005   1.321   1.124   4.112 -0.2990  0.1076 -0.1802
 2484SOL     OW10006   1.565   0.731   4.161  0.0854 -0.0860  0.0676
 2484SOL    HW210007   1.643   0.784   4.176 -0.0382  0.0503  0.2334
 2484SOL    HW310008   1.542   0.747   4.070  0.3517 -0.2593 -0.0272
 2484SOL    MW410009   1.572   0.740   4.151  0.1041 -0.0909  0.0768
 2485SOL     OW10010   1.476   1.406   4.616 -0.1905 -0.3636 -0.1401
 2485SOL    HW210011   1.552   1.440   4.569  0.6816  0.1244  1.5725
 2485SOL    HW310012   1.401   1.440   4.567  0.6652 -0.7612 -1.7896
 2485SOL    MW410013   1.476   1.415   4.603  0.0376 -0.3515 -0.1326
 2486SOL     OW10014   1.609   3.613   4.591 -0.2387  0.4053  0.0387
 2486SOL    HW210015   1.547   3.548   4.624  0.5834  0.3406  1.5086
 2486SOL    HW310016   1.571   3.697   4.616 -0.5875  0.4356 -0.5889
 2486SOL    MW410017   1.596   3.616   4.599 -0.1763  0.4005  0.1502
 2487SOL     OW10018   1.737   1.169   4.162 -0.3341 -0.5441  0.1044
 2487SOL    HW210019   1.807   1.224   4.198 -1.8460 -0.8168  3.6787
 2487SOL    HW310020   1.763   1.080   4.187 -1.3832 -0.7576  0.4314
 2487SOL    MW410021   1.750   1.164   4.170 -0.6720 -0.6081  0.6194
 2488SOL     OW10022   0.195   1.351   4.493 -0.7805 -0.3923  0.6883
 2488SOL    HW210023   0.116   1.387   4.532 -0.6889  0.3086  0.2320
 2488SOL    HW310024   0.258   1.423   4.495 -1.1551  0.0718 -1.8728
 2488SOL    MW410025   0.193   1.365   4.498 -0.8178 -0.2387  0.2899
 2489SOL     OW10026   1.357   1.975   4.198 -0.2632  0.5233  0.0210
 2489SOL    HW210027   1.421   2.009   4.260  0.2491 -0.6816  0.1731
 2489SOL    HW310028   1.345   1.883   4.223 -1.5748  0.5593 -0.4023
 2489SOL    MW410029   1.364   1.967   4.209 -0.3687  0.3692 -0.0153
 2490SOL     OW10030   1.066   2.339   4.130 -0.0806  0.0210 -0.2577
 2490SOL    HW210031   1.082   2.259   4.181  0.5511  0.5030  0.3078
 2490SOL    HW310032   0.983   2.372   4.165  0.4684  0.4766  0.6392
 2490SOL    MW410033   1.057   2.333   4.142  0.0752  0.1450 -0.0648
 2491SOL     OW10034   3.368   1.549   4.169 -0.2469 -0.4852  0.1745
 2491SOL    HW210035   3.282   1.588   4.185 -0.5177 -1.9052  2.2645
 2491SOL    HW310036   3.368   1.529   4.075 -2.3608 -0.8784  0.2431
 2491SOL    MW410037   3.357   1.552   4.159 -0.5615 -0.7244  0.4597
 2492SOL     OW10038   1.471   2.509   5.317  0.0481 -0.2159  0.8210
 2492SOL    HW210039   1.556   2.552   5.311  0.3058 -0.5619  1.8734
 2492SOL    HW310040   1.447   2.515   5.409 -1.8247  1.2958  0.2799
 2492SOL    MW410041   1.479   2.516   5.328 -0.1651 -0.0620  0.8883
 2493SOL     OW10042   0.311   2.257   4.589 -0.0356  0.5426 -0.3504
 2493SOL    HW210043   0.354   2.325   4.537 -2.0147  1.3556 -0.9657
 2493SOL    HW310044   0.292   2.300   4.673 -0.7943  0.6065 -0.5478
 2493SOL    MW410045   0.314   2.272   4.593 -0.3968  0.6585 -0.4578
 2494SOL     OW10046   1.504   3.113   4.141  0.2580  0.1461  0.5879
 2494SOL    HW210047   1.585   3.151   4.172 -0.1944 -0.2338  2.2746
 2494SOL    HW310048   1.436   3.173   4.170 -0.2235 -0.5526  0.9238
 2494SOL    MW410049   1.506   3.126   4.149  0.1348  0.0038  0.8554
 2495SOL     OW10050   1.396   2.746   4.856 -0.1262 -0.2394 -0.2470
 2495SOL    HW210051   1.491   2.740   4.841 -0.0474  1.9583 -0.7534
 2495SOL    HW310052   1.377   2.674   4.916  1.4341 -2.3052 -2.1543
 2495SOL    MW410053   1.406   2.736   4.862  0.0901 -0.2220 -0.5651
 2496SOL     OW10054   1.508   2.830   4.225 -0.6066 -0.4329 -0.6588
 2496SOL    HW210055   1.535   2.832   4.316  0.9062 -0.6715 -1.0811
 2496SOL    HW310056   1.520   2.920   4.195 -0.4309 -0.5021 -0.7999
 2496SOL    MW410057   1.513   2.842   4.233 -0.3839 -0.4735 -0.7334
 2497SOL     OW10058   0.994   3.499   4.542  0.0544  0.1730 -0.6272
 2497SOL    HW210059   1.048   3.524   4.467  0.4106  2.1898  0.2554
 2497SOL    HW310060   1.052   3.511   4.618 -1.4179  1.8079  0.2814
 2497SOL    MW410061   1.009   3.504   4.543 -0.0929  0.6549 -0.3910
 2498SOL     OW10062   1.363   3.507   4.160 -0.6336  0.0701 -0.2002
 2498SOL    HW210063   1.342   3.505   4.066 -0.9948  1.0057 -0.1355
 2498SOL    HW310064   1.342   3.419   4.190  0.2211 -0.4778 -1.1604
 2498SOL    MW410065   1.358   3.495   4.151 -0.5685  0.1211 -0.3185
 2499SOL     OW10066   1.545   4.091   4.055  0.2975 -0.3415 -0.0910
 2499SOL    HW210067   1.623   4.145   4.067 -0.2384  0.6076 -0.8961
 2499SOL    HW310068   1.544   4.034   4.132  1.6254 -0.1710  0.0687
 2499SOL    MW410069   1.555   4.090   4.067  0.4021 -0.1941 -0.1760
 2500SOL     OW10070   2.743   0.513   4.526 -0.0709  0.0126 -0.2058
 2500SOL    HW210071   2.787   0.506   4.441  0.2284  1.3380 -0.1720
 2500SOL    HW310072   2.815   0.509   4.590  0.0230  2.1212 -0.1460
 2500SOL    MW410073   2.758   0.512   4.523 -0.0191  0.4657 -0.1931
 2501SOL     OW10074   1.023   4.280   4.540  0.0833  0.0417  0.0924
 2501SOL    HW210075   0.966   4.357   4.530 -1.1585 -0.6195  1.6913
 2501SOL    HW310076   1.092   4.309   4.599  0.6769  0.4710 -0.8113
 2501SOL    MW410077   1.024   4.294   4.547 -0.0021  0.0110  0.1841
 2502SOL     OW10078   0.064   2.814   4.439 -0.1213  0.0901 -0.0065
 2502SOL    HW210079   0.084   2.860   4.358  0.5832 -0.3588 -0.0926
 2502SOL    HW310080  -0.017   2.854   4.470 -1.3555 -0.9375 -1.8343
 2502SOL    MW410081   0.056   2.825   4.432 -0.1912 -0.1049 -0.2594
 2503SOL     OW10082   2.051   4.615   4.120  0.0700  0.5915 -0.7727
 2503SOL    HW210083   1.982   4.673   4.150 -1.1284  0.0523 -2.3777
 2503SOL    HW310084   2.051   4.625   4.025  2.1744  0.5440 -0.8055
 2503SOL    MW410085   2.042   4.624   4.111  0.1891  0.5136 -0.9890
 2504SOL     OW10086   1.812   0.381   4.110 -0.2686 -0.1575  0.0035
 2504SOL    HW210087   1.728   0.393   4.154 -0.2186 -0.4982  0.1886
 2504SOL    HW310088   1.847   0.301   4.147 -0.6409 -0.9377 -1.2979
 2504SOL    MW410089   1.805   0.372   4.120 -0.3111 -0.3054 -0.1435
 2505SOL     OW10090   1.574   0.449   4.245  0.1953  0.2751 -0.5987
 2505SOL    HW210091   1.576   0.432   4.339 -0.5556  0.3884 -0.5644
 2505SOL    HW310092   1.583   0.544   4.238 -0.2089  0.3107 -0.6256
 2505SOL    MW410093   1.576   0.460   4.257  0.0428  0.2948 -0.5975
 2506SOL     OW10094   2.019   0.494   4.239 -0.0167 -0.1156  0.0681
 2506SOL    HW210095   2.097   0.459   4.197  0.2401 -0.1994  0.6188
 2506SOL    HW310096   1.947   0.463   4.184  0.4271  1.4146 -1.4578
 2506SOL    MW410097   2.020   0.486   4.226  0.0758  0.0753 -0.0610
 2507SOL     OW10098   1.140   2.156   4.509  0.2544  0.0044 -0.1674
 2507SOL    HW210099   1.078   2.127   4.575  0.0235 -0.2265 -0.4822
 2507SOL    HW310100   1.153   2.249   4.527  0.0164 -0.0060  0.0588
 2507SOL    MW410101   1.134   2.165   4.520  0.1925 -0.0272 -0.1788
 2508SOL     OW10102   1.999   0.752   4.147 -0.3454  0.0780  0.1842
 2508SOL    HW210103   2.014   0.663   4.177 -2.1940 -0.0272  0.8491
 2508SOL    HW310104   2.077   0.800   4.176 -0.5541 -0.7476  2.2035
 2508SOL    MW410105   2.012   0.747   4.155 -0.6168 -0.0448  0.5379
 2509SOL     OW10106   1.780   0.879   4.254  0.5133  0.1845  0.7295
 2509SOL    HW210107   1.786   0.872   4.349  0.5480  1.0255  0.7982
 2509SOL    HW310108   1.861   0.840   4.222  0.9593  0.8031  1.0968
 2509SOL    MW410109   1.792   0.873   4.262  0.5767  0.3771  0.7868
 2510SOL     OW10110   2.419   1.585   4.182  0.5370  0.5394 -0.1618
 2510SOL    HW210111   2.333   1.618   4.208  0.6780  1.0045 -0.2948
 2510SOL    HW310112   2.415   1.581   4.087  0.5301  0.1966 -0.1483
 2510SOL    MW410113   2.407   1.588   4.173  0.5548  0.5556 -0.1779
 2511SOL     OW10114   1.778   1.907   4.326 -0.0156  0.2058 -0.5096
 2511SOL    HW210115   1.687   1.925   4.351  0.4135  0.4865  0.8848
 2511SOL    HW310116   1.796   1.970   4.256 -1.1947 -0.5133 -1.4885
 2511SOL    MW410117   1.769   1.918   4.320 -0.1144  0.1478 -0.4544
 2512SOL     OW10118   1.968   1.330   4.249  0.2461 -0.1425  0.7170
 2512SOL    HW210119   2.042   1.274   4.227 -0.3048 -0.5146 -0.2146
 2512SOL    HW310120   1.966   1.332   4.345  1.0255 -0.7005  0.7419
 2512SOL    MW410121   1.977   1.323   4.259  0.2762 -0.2652  0.5975
 2513SOL     OW10122   0.628   4.587   4.345  0.4973  0.1057  0.1579
 2513SOL    HW210123   0.567   4.517   4.322 -0.1030  0.2827  1.1732
 2513SOL    HW310124   0.686   4.595   4.269  1.3525 -2.3245  0.5145
 2513SOL    MW410125   0.628   4.579   4.332  0.5309 -0.1917  0.3390
 2514SOL     OW10126   1.260   1.315   4.775 -0.2713 -0.2845  0.6684
 2514SOL    HW210127   1.196   1.380   4.804  0.9001  0.2383  2.1905
 2514SOL    HW310128   1.340   1.365   4.760  0.3067 -1.2021  0.6401
 2514SOL    MW410129   1.262   1.330   4.777 -0.0407 -0.3365  0.8659
 2515SOL     OW10130   1.764   1.635   4.246 -0.9268  0.2344  0.2458
 2515SOL    HW210131   1.773   1.729   4.264 -0.2835  0.1185  0.5422
 2515SOL    HW310132   1.842   1.614   4.195 -0.1935 -0.5125  1.6756
 2515SOL    MW410133   1.776   1.645   4.241 -0.7452  0.1206  0.4735
 2516SOL     OW10134   2.661   1.644   4.306  0.0925  0.2450 -0.1023
 2516SOL    HW210135   2.577   1.605   4.280  0.1572 -0.1935  0.3374
 2516SOL    HW310136   2.668   1.724   4.253 -0.6216  0.3046 -0.1086
 2516SOL    MW410137   2.651   1.649   4.296  0.0069  0.1950 -0.0448
 2517SOL     OW10138   1.329   2.446   4.188  0.0600  0.1896  0.5153
 2517SOL    HW210139   1.260   2.387   4.159 -0.2632  0.6748  0.3017
 2517SOL    HW310140   1.410   2.396   4.176 -0.2790 -0.5424  1.1789
 2517SOL    MW410141   1.331   2.432   4.183 -0.0273  0.1569  0.5746
 2518SOL     OW10142   1.393   3.436   4.664  0.6573 -0.1597  0.6996
 2518SOL    HW210143   1.408   3.374   4.736  0.2229 -0.7047  0.3310
 2518SOL    HW310144   1.317   3.487   4.692  0.0568 -0.8413  0.3274
 2518SOL    MW410145   1.385   3.434   4.677  0.5208 -0.3216  0.6018
 2519SOL     OW10146   1.977   2.847   4.211  0.0433  0.0752  0.0014
 2519SOL    HW210147   1.896   2.804   4.184  1.4126 -1.9341 -0.9679
 2519SOL    HW310148   1.977   2.838   4.307 -0.3386 -0.8960 -0.0814
 2519SOL    MW410149   1.966   2.840   4.220  0.1736 -0.3183 -0.1373
 2520SOL     OW10150   1.733   3.203   4.232 -0.1620 -0.1630 -0.0727
 2520SOL    HW210151   1.749   3.290   4.195 -0.1218 -0.5478 -0.9611
 2520SOL    HW310152   1.811   3.153   4.210  0.2185 -0.1777  1.2274
 2520SOL    MW410153   1.746   3.208   4.224 -0.1066 -0.2160 -0.0186
 2521SOL     OW10154   1.754   3.495   4.113 -0.1576  0.2101 -0.1659
 2521SOL    HW210155   1.683   3.540   4.157  0.5576  1.5089 -0.3192
 2521SOL    HW310156   1.729   3.494   4.020  0.9989  2.6203 -0.5557
 2521SOL    MW410157   1.742   3.501   4.106  0.0894  0.6993 -0.2379
 2522SOL     OW10158   2.015   3.609   4.155 -0.0275  0.2457  0.2704
 2522SOL    HW210159   2.006   3.703   4.172  0.3045  0.5875 -1.3638
 2522SOL    HW310160   1.926   3.580   4.136  0.0639  0.5214 -0.6068
 2522SOL    MW410161   2.002   3.618   4.155  0.0281  0.3273 -0.0606
 2523SOL     OW10162   1.973   3.888   4.140  0.0742  0.0556  0.2453
 2523SOL    HW210163   1.907   3.922   4.201 -0.8227 -0.9440 -0.1320
 2523SOL    HW310164   1.939   3.910   4.053  1.1906  1.1972  0.0906
 2523SOL    MW410165   1.960   3.895   4.137  0.1031  0.0744  0.1745
 2524SOL     OW10166   1.780   4.240   4.124  0.1947 -0.1672 -0.0937
 2524SOL    HW210167   1.858   4.276   4.167  0.6814 -0.4655 -0.7117
 2524SOL    HW310168   1.786   4.271   4.034  0.5344 -1.6440 -0.5908
 2524SOL    MW410169   1.791   4.249   4.118  0.3037 -0.4020 -0.2408
 2525SOL     OW10170   2.010   4.348   4.210  0.4201  0.0020  0.4349
 2525SOL    HW210171   2.023   4.437   4.176  1.5786  0.0441  0.9780
 2525SOL    HW310172   2.091   4.302   4.186 -0.7754 -1.3174 -1.1473
 2525SOL    MW410173   2.023   4.354   4.202  0.4151 -0.1669  0.2975
 2526SOL     OW10174   2.043   4.243   4.479  0.1167  0.3173  0.0973
 2526SOL    HW210175   2.030   4.287   4.395  1.0060  0.7830  0.2050
 2526SOL    HW310176   2.099   4.302   4.529 -0.0108 -0.1849  0.8456
 2526SOL    MW410177   2.048   4.256   4.475  0.2172  0.3123  0.2103
 2527SOL     OW10178   2.469   4.629   4.156  0.2468 -0.2524  0.0322
 2527SOL    HW210179   2.472   4.542   4.196 -0.7225  0.8006  2.5137
 2527SOL    HW310180   2.543   4.676   4.195 -0.6620  0.7661  0.5863
 2527SOL    MW410181   2.479   4.624   4.167 -0.0010  0.0210  0.4330
 2528SOL     OW10182   2.867   0.727   4.140  0.2925 -0.3920 -0.1971
 2528SOL    HW210183   2.930   0.792   4.174 -0.6702 -0.0097  0.8838
 2528SOL    HW310184   2.875   0.735   4.045 -0.2033  1.7151 -0.0950
 2528SOL    MW410185   2.877   0.737   4.132  0.1004 -0.0635 -0.0415
 2529SOL     OW10186   2.241   0.378   4.147 -0.2727  0.3537  0.0798
 2529SOL    HW210187   2.256   0.378   4.053  1.8902  1.0037  0.3996
 2529SOL    HW310188   2.248   0.286   4.172  1.2304  0.4184 -0.0886
 2529SOL    MW410189   2.244   0.366   4.138  0.2110  0.4479  0.0992
 2530SOL     OW10190   1.167   0.519   4.229 -0.3536 -0.3591  0.1768
 2530SOL    HW210191   1.244   0.486   4.182  0.7553  1.5489  0.6328
 2530SOL    HW310192   1.196   0.528   4.319 -0.7121  1.6326  0.1059
 2530SOL    MW410193   1.181   0.516   4.234 -0.2545  0.1554  0.2279
 2531SOL     OW10194   2.847   0.468   4.276  0.5121 -0.3491 -0.2707
 2531SOL    HW210195   2.935   0.441   4.301  0.9609  0.1655 -1.2711
 2531SOL    HW310196   2.857   0.558   4.245 -0.8047  0.6462  2.0846
 2531SOL    MW410197   2.860   0.476   4.275  0.3974 -0.1499 -0.0920
 2532SOL     OW10198   2.399   1.296   4.272  0.0890  0.5899  0.0435
 2532SOL    HW210199   2.406   1.387   4.244 -1.6969  0.3675 -1.2241
 2532SOL    HW310200   2.487   1.261   4.262  0.2539  1.5019 -1.9196
 2532SOL    MW410201   2.412   1.303   4.267 -0.1249  0.6809 -0.3829
 2533SOL     OW10202   2.211   0.903   4.245 -0.2002 -0.0172  0.2536
 2533SOL    HW210203   2.285   0.870   4.193  0.7133  0.2436  1.3709
 2533SOL    HW310204   2.246   0.913   4.333 -1.0544  1.9034  0.4030
 2533SOL    MW410205   2.226   0.900   4.249 -0.1922  0.2707  0.4215
 2534SOL     OW10206   3.537   1.196   4.757  0.3026 -0.5148 -0.5900
 2534SOL    HW210207   3.622   1.161   4.782 -0.4276 -2.4414 -0.7185
 2534SOL    HW310208   3.488   1.201   4.839  1.1847  2.5031 -0.2040
 2534SOL    MW410209   3.541   1.192   4.771  0.3226 -0.3710 -0.5560
 2535SOL     OW10210   2.250   2.467   4.280  0.2540  0.5161  0.0908
 2535SOL    HW210211   2.264   2.552   4.323  0.8457 -0.4015  1.7430
 2535SOL    HW310212   2.158   2.447   4.298  0.0342  0.9404 -0.5488
 2535SOL    MW410213   2.239   2.476   4.288  0.3028  0.4508  0.2241
 2536SOL     OW10214   2.014   2.093   3.798  0.2702 -0.5288  0.0357
 2536SOL    HW210215   1.946   2.042   3.842  0.0782 -0.0821  0.2644
 2536SOL    HW310216   2.013   2.061   3.707 -0.0714 -0.6978  0.0971
 2536SOL    MW410217   2.005   2.082   3.792  0.2000 -0.4921  0.0737
 2537SOL     OW10218   2.493   2.049   4.215 -0.5953 -0.3503  0.2093
 2537SOL    HW210219   2.473   2.138   4.189 -1.5593 -0.0621  1.9017
 2537SOL    HW310220   2.414   1.999   4.193 -1.3938 -0.1190  2.4347
 2537SOL    MW410221   2.480   2.054   4.209 -0.8278 -0.2816  0.7262
 2538SOL     OW10222   2.701   1.878   4.161  0.0117 -0.2189  0.0065
 2538SOL    HW210223   2.635   1.941   4.187  0.6059  0.6119 -0.4577
 2538SOL    HW310224   2.704   1.885   4.065  0.8053 -0.2043  0.0290
 2538SOL    MW410225   2.693   1.887   4.152  0.1948 -0.1075 -0.0520
 2539SOL     OW10226   2.441   2.347   3.893 -0.3604 -0.0977  0.1738
 2539SOL    HW210227   2.512   2.383   3.840  1.0311 -2.8686  0.0127
 2539SOL    HW310228   2.361   2.381   3.854  0.7217 -0.4563 -2.4750
 2539SOL    MW410229   2.440   2.356   3.881 -0.0341 -0.5107 -0.1969
 2540SOL     OW10230   0.853   2.458   4.273  0.1521 -0.0017  0.4657
 2540SOL    HW210231   0.839   2.553   4.266 -0.2153 -0.0575  0.4753
 2540SOL    HW310232   0.775   2.419   4.236  0.0571 -0.3065  0.9804
 2540SOL    MW410233   0.841   2.465   4.267  0.0911 -0.0494  0.5355
 2541SOL     OW10234   2.173   2.689   4.086  0.2831 -0.0863  0.5924
 2541SOL    HW210235   2.110   2.746   4.130 -0.1753 -0.3949  0.3342
 2541SOL    HW310236   2.145   2.600   4.109 -0.4941 -0.2732 -1.0764
 2541SOL    MW410237   2.161   2.684   4.095  0.1199 -0.1516  0.3386
 2542SOL     OW10238   2.847   2.863   4.204  1.0552 -0.2023  0.2018
 2542SOL    HW210239   2.767   2.812   4.195 -0.5243  1.8822  2.0854
 2542SOL    HW310240   2.859   2.873   4.299  1.1170  3.1796 -0.0989
 2542SOL    MW410241   2.838   2.858   4.215  0.8547  0.5188  0.4106
 2543SOL     OW10242   2.197   3.238   4.234 -0.0042  0.6102 -0.0305
 2543SOL    HW210243   2.220   3.328   4.211 -0.2693  0.4388 -0.9912
 2543SOL    HW310244   2.110   3.225   4.197 -0.4593  0.3222  1.0910
 2543SOL    MW410245   2.189   3.248   4.226 -0.0992  0.5496 -0.0095
 2544SOL     OW10246   1.079   3.061   4.143  0.1652  0.0602  0.2016
 2544SOL    HW210247   1.061   3.082   4.052  0.8331 -0.3209 -0.0179
 2544SOL    HW310248   1.005   3.098   4.191 -0.7989 -0.7835 -0.6079
 2544SOL    MW410249   1.067   3.069   4.137  0.1260 -0.1016  0.0663
 2545SOL     OW10250   2.256   3.462   4.096 -0.3909 -0.2208  0.3602
 2545SOL    HW210251   2.329   3.508   4.138  0.3951 -0.0115 -1.2341
 2545SOL    HW310252   2.181   3.520   4.108  0.1172  0.4517  0.2831
 2545SOL    MW410253   2.256   3.475   4.103 -0.2203 -0.1044  0.1392
 2546SOL     OW10254   2.461   3.592   4.205  0.5067  0.1256  0.1836
 2546SOL    HW210255   2.465   3.595   4.301  1.9168 -1.2382  0.1806
 2546SOL    HW310256   2.465   3.684   4.178  0.6883  0.4871  1.4165
 2546SOL    MW410257   2.462   3.605   4.214  0.7169 -0.0062  0.3457
 2547SOL     OW10258   2.475   3.852   4.115 -0.5134 -0.1122  0.5448
 2547SOL    HW210259   2.390   3.888   4.139 -0.1415 -0.0217  1.7915
 2547SOL    HW310260   2.480   3.862   4.020 -2.6432 -1.7706  0.2297
 2547SOL    MW410261   2.465   3.858   4.106 -0.7453 -0.3190  0.6680
 2548SOL     OW10262   2.839   3.288   4.582  0.2227  0.2119 -0.2853
 2548SOL    HW210263   2.873   3.378   4.586 -0.1600  0.3671 -0.5109
 2548SOL    HW310264   2.803   3.273   4.670  0.6727  0.1265 -0.1151
 2548SOL    MW410265   2.839   3.298   4.594  0.2315  0.2210 -0.2923
 2549SOL     OW10266   2.235   3.972   4.181  0.0112 -0.1890 -0.1680
 2549SOL    HW210267   2.234   3.977   4.277 -1.0840  1.2180 -0.2350
 2549SOL    HW310268   2.146   3.945   4.158  0.0854  0.1103 -0.8097
 2549SOL    MW410269   2.223   3.969   4.191 -0.1235  0.0360 -0.2618
 2550SOL     OW10270   4.051   3.137   4.525  0.0190  0.2311  0.0564
 2550SOL    HW210271   4.048   3.174   4.436  0.7391 -1.6035 -0.7479
 2550SOL    HW310272   3.970   3.167   4.566  0.6475  2.8439 -0.4991
 2550SOL    MW410273   4.040   3.146   4.518  0.1969  0.3338 -0.1225
 2551SOL     OW10274   2.848   2.868   4.466 -0.1990  0.8120  0.1826
 2551SOL    HW210275   2.895   2.950   4.485  0.7682  0.2504  0.2422
 2551SOL    HW310276   2.911   2.799   4.486 -1.1194  0.0318  0.4398
 2551SOL    MW410277   2.863   2.870   4.471 -0.1929  0.6349  0.2241
 2552SOL     OW10278   2.697   0.240   4.531  0.4457 -0.3525 -0.5912
 2552SOL    HW210279   2.693   0.335   4.527 -1.8479 -0.3564  0.8221
 2552SOL    HW310280   2.769   0.222   4.592 -0.4122  0.5514  0.7312
 2552SOL    MW410281   2.706   0.250   4.539  0.0298 -0.2338 -0.2298
 2553SOL     OW10282   2.651   0.131   4.293 -0.1010 -0.4450  0.3115
 2553SOL    HW210283   2.666   0.166   4.380  2.6570  1.4692 -0.8471
 2553SOL    HW310284   2.639   0.208   4.238  0.8362 -1.5045 -1.4311
 2553SOL    MW410285   2.651   0.146   4.297  0.3865 -0.3323 -0.0706
 2554SOL     OW10286   3.853   0.150   4.625 -0.1110 -0.0272  0.0651
 2554SOL    HW210287   3.837   0.242   4.602  1.6335  0.0574 -0.8362
 2554SOL    HW310288   3.872   0.152   4.719  0.8634  0.6625 -0.1388
 2554SOL    MW410289   3.853   0.163   4.634  0.2477  0.0750 -0.0811
 2555SOL     OW10290   3.062   0.883   4.246  0.3680  0.0319  0.0163
 2555SOL    HW210291   3.068   0.895   4.341 -1.8672  0.8824  0.0852
 2555SOL    HW310292   3.083   0.969   4.209 -0.5713  0.1865 -0.1708
 2555SOL    MW410293   3.065   0.896   4.253 -0.0508  0.1645  0.0005
 2556SOL     OW10294   3.092   0.422   4.374 -0.2787  0.0593  0.0452
 2556SOL    HW210295   3.120   0.472   4.451 -0.4422 -0.2545  0.3084
 2556SOL    HW310296   3.159   0.441   4.308  2.3654 -3.1282  1.6217
 2556SOL    MW410297   3.105   0.431   4.375  0.0486 -0.4027  0.2885
 2557SOL     OW10298   2.648   1.174   4.297  0.1248  0.0672  0.0330
 2557SOL    HW210299   2.661   1.079   4.292 -0.1734  0.0349 -0.1372
 2557SOL    HW310300   2.640   1.192   4.391 -2.5936 -0.4539 -0.0705
 2557SOL    MW410301   2.649   1.164   4.309 -0.2730 -0.0057 -0.0029
 2558SOL     OW10302   1.727   1.534   4.523  0.2575  0.1222 -0.0750
 2558SOL    HW210303   1.750   1.621   4.556  1.1376 -0.4626  0.8880
 2558SOL    HW310304   1.715   1.546   4.429 -0.0092  1.3636  0.1105
 2558SOL    MW410305   1.729   1.547   4.515  0.3383  0.2090  0.0758
 2559SOL     OW10306   2.817   1.022   4.619  0.3774  0.2893  0.2780
 2559SOL    HW210307   2.761   0.951   4.588  0.6736  0.2105 -0.0632
 2559SOL    HW310308   2.761   1.071   4.680 -0.7289  1.3685 -1.5356
 2559SOL    MW410309   2.802   1.019   4.623  0.2704  0.4214 -0.0062
 2560SOL     OW10310   2.895   1.302   4.261  0.2460 -0.0564  0.1316
 2560SOL    HW210311   2.944   1.245   4.202  0.0461 -0.2167  0.1245
 2560SOL    HW310312   2.805   1.269   4.259  0.6362 -1.3566  2.0985
 2560SOL    MW410313   2.890   1.290   4.253  0.2713 -0.2493  0.3905
 2561SOL     OW10314   2.236   1.957   4.134  0.5466  0.3784  0.1506
 2561SOL    HW210315   2.223   1.880   4.190  0.7985  0.3941  0.2290
 2561SOL    HW310316   2.181   2.025   4.174  1.1158  0.5393  0.6772
 2561SOL    MW410317   2.227   1.956   4.147  0.6552  0.4017  0.2308
 2562SOL     OW10318   2.472   4.330   4.507  0.0229  0.9434 -0.3720
 2562SOL    HW210319   2.469   4.237   4.525 -1.1131  0.9266 -0.6086
 2562SOL    HW310320   2.561   4.356   4.529 -0.3422  0.2724  1.9582
 2562SOL    MW410321   2.483   4.321   4.512 -0.1752  0.8531 -0.0958
 2563SOL     OW10322   3.298   2.886   4.225  0.3227 -0.3128 -0.0926
 2563SOL    HW210323   3.307   2.976   4.193  1.8993 -0.3493  0.2259
 2563SOL    HW310324   3.374   2.840   4.190 -0.2390 -1.4158  0.1177
 2563SOL    MW410325   3.309   2.892   4.216  0.4568 -0.4630 -0.0229
 2564SOL     OW10326   3.123   1.954   4.109 -0.1179  0.1042 -0.0399
 2564SOL    HW210327   3.198   1.985   4.159 -0.8557  2.3806 -0.2944
 2564SOL    HW310328   3.047   1.981   4.161 -0.8185 -0.5325 -0.7158
 2564SOL    MW410329   3.123   1.961   4.123 -0.3076  0.3206 -0.1626
 2565SOL     OW10330   2.634   2.723   4.119 -0.2993 -0.5469 -0.2676
 2565SOL    HW210331   2.542   2.750   4.128 -0.1734 -0.3923  0.6366
 2565SOL    HW310332   2.634   2.630   4.140 -0.2135 -0.4894 -0.0067
 2565SOL    MW410333   2.622   2.714   4.123 -0.2716 -0.5188 -0.1140
 2566SOL     OW10334   3.549   2.765   4.145 -0.3746 -0.0894  0.1079
 2566SOL    HW210335   3.553   2.756   4.050  2.3548  0.3901  0.1314
 2566SOL    HW310336   3.563   2.676   4.178 -1.3447 -0.2593  0.0789
 2566SOL    MW410337   3.552   2.752   4.137 -0.1426 -0.0486  0.1073
 2567SOL     OW10338   2.915   3.099   4.116 -0.0871 -0.2366  0.0440
 2567SOL    HW210339   2.919   3.105   4.020  2.4628 -1.2538  0.0443
 2567SOL    HW310340   2.884   3.010   4.134  1.2838 -0.7065  0.1466
 2567SOL    MW410341   2.912   3.088   4.106  0.4301 -0.4327  0.0577
 2568SOL     OW10342   2.233   3.803   4.725  0.0830  0.0915  0.1583
 2568SOL    HW210343   2.152   3.843   4.693 -1.4350 -2.2569  1.0108
 2568SOL    HW310344   2.257   3.741   4.656  1.2855  0.8799 -0.1597
 2568SOL    MW410345   2.226   3.800   4.711  0.0415 -0.1142  0.2284
 2569SOL     OW10346   2.688   3.481   4.134  0.3766  0.6162 -0.0503
 2569SOL    HW210347   2.669   3.387   4.143 -0.4164  0.6358 -1.3846
 2569SOL    HW310348   2.605   3.524   4.154 -0.0001  0.8911 -2.0925
 2569SOL    MW410349   2.675   3.474   4.138  0.2224  0.6552 -0.4959
 2570SOL     OW10350   3.411   2.144   4.484 -0.5158 -0.0050 -0.0061
 2570SOL    HW210351   3.402   2.101   4.399 -1.0324 -2.1421  1.1014
 2570SOL    HW310352   3.322   2.146   4.519 -0.1443 -0.0928  0.9402
 2570SOL    MW410353   3.398   2.139   4.477 -0.5350 -0.2985  0.2646
 2571SOL     OW10354   3.561   3.242   4.527  0.3774 -0.1119  0.1039
 2571SOL    HW210355   3.573   3.229   4.433  0.6492 -1.8919  0.3722
 2571SOL    HW310356   3.475   3.204   4.546  0.0327  0.8321  0.4709
 2571SOL    MW410357   3.551   3.236   4.517  0.3679 -0.2222  0.1884
 2572SOL     OW10358   2.916   3.829   4.158 -0.0268 -0.5335  0.5007
 2572SOL    HW210359   2.837   3.869   4.195  1.0262  0.4034  1.7656
 2572SOL    HW310360   2.921   3.743   4.201 -0.1681 -0.4549  0.6732
 2572SOL    MW410361   2.906   3.823   4.168  0.0935 -0.3996  0.6905
 2573SOL     OW10362   2.669   4.218   4.156 -0.0995  0.2318 -0.1524
 2573SOL    HW210363   2.732   4.286   4.181  1.1517 -0.5551 -1.0882
 2573SOL    HW310364   2.665   4.224   4.061 -0.9078 -0.1926 -0.1438
 2573SOL    MW410365   2.677   4.228   4.147 -0.0412  0.0715 -0.2747
 2574SOL     OW10366   2.873   4.410   4.239  0.9993 -0.3433  0.2652
 2574SOL    HW210367   2.869   4.503   4.218 -1.4783 -0.7363 -1.2842
 2574SOL    HW310368   2.840   4.405   4.329  0.1945  0.1921  0.0091
 2574SOL    MW410369   2.868   4.421   4.248  0.5662 -0.3242  0.0272
 2575SOL     OW10370   3.325   4.350   4.319  0.3000 -0.0096  0.2874
 2575SOL    HW210371   3.260   4.309   4.262  0.2747  1.1831 -0.5615
 2575SOL    HW310372   3.406   4.300   4.304  0.0385 -0.3379 -0.0318
 2575SOL    MW410373   3.327   4.338   4.309  0.2620  0.1049  0.1330
 2576SOL     OW10374   3.175   0.225   4.582  0.3299 -0.3365  0.7011
 2576SOL    HW210375   3.161   0.294   4.517  1.5429 -0.5130  0.2298
 2576SOL    HW310376   3.088   0.205   4.616 -0.2105  0.3486 -0.2680
 2576SOL    MW410377   3.162   0.231   4.578  0.4187 -0.2694  0.5107
 2577SOL     OW10378   3.098   0.033   4.377 -0.0759  0.2653  0.1241
 2577SOL    HW210379   3.143   0.095   4.435  2.1326 -0.8163 -0.3779
 2577SOL    HW310380   3.166   0.003   4.317 -2.3064  1.3939 -3.1082
 2577SOL    MW410381   3.113   0.037   4.377 -0.0789  0.2715 -0.3691
 2578SOL     OW10382   3.627   0.581   4.343 -0.0010  0.4963  0.1599
 2578SOL    HW210383   3.543   0.592   4.389 -2.1166 -0.3479 -3.3313
 2578SOL    HW310384   3.640   0.665   4.299 -0.6155 -0.4251 -1.8069
 2578SOL    MW410385   3.618   0.594   4.344 -0.3612  0.2634 -0.5603
 2579SOL     OW10386   3.585   1.192   4.152 -0.4459 -0.4294 -0.2796
 2579SOL    HW210387   3.672   1.226   4.172 -0.2096 -1.0536 -0.2350
 2579SOL    HW310388   3.585   1.181   4.057 -1.0222  1.0432 -0.4645
 2579SOL    MW410389   3.597   1.195   4.142 -0.4907 -0.3175 -0.2975
 2580SOL     OW10390   3.960   1.199   4.464  0.2599  0.6205  0.3383
 2580SOL    HW210391   3.922   1.271   4.514  0.3449  0.4012  0.7169
 2580SOL    HW310392   4.055   1.211   4.473  0.2770 -0.9266  2.3871
 2580SOL    MW410393   3.968   1.210   4.472  0.2735  0.3875  0.6585
 2581SOL     OW10394   3.086   1.164   4.127 -0.6423 -0.1451 -0.1828
 2581SOL    HW210395   3.167   1.210   4.147 -1.5620  1.3840  0.0831
 2581SOL    HW310396   3.095   1.139   4.035 -0.3355  0.9825 -0.4622
 2581SOL    MW410397   3.098   1.167   4.117 -0.7231  0.2054 -0.1850
 2582SOL     OW10398   2.302   0.938   4.499 -0.0111  0.2793  0.2966
 2582SOL    HW210399   2.300   1.030   4.528  0.7008  0.1985  0.6152
 2582SOL    HW310400   2.394   0.913   4.507  0.1343  0.1273 -1.6894
 2582SOL    MW410401   2.314   0.947   4.504  0.1020  0.2486  0.0768
 2583SOL     OW10402   3.873   1.826   4.592 -0.1444  0.2779 -0.1465
 2583SOL    HW210403   3.866   1.921   4.606 -1.7207 -0.0217  1.1948
 2583SOL    HW310404   3.785   1.799   4.566  0.2985 -0.8257 -0.5308
 2583SOL    MW410405   3.861   1.835   4.590 -0.2940  0.0929 -0.0210
 2584SOL     OW10406   2.939   1.503   4.653 -0.0173  0.0708  0.0360
 2584SOL    HW210407   2.933   1.417   4.610 -0.7202 -0.1944  0.6460
 2584SOL    HW310408   2.975   1.561   4.587  0.5218 -0.7187 -0.3627
 2584SOL    MW410409   2.943   1.499   4.639 -0.0391 -0.0683  0.0639
 2585SOL     OW10410   2.914   2.327   4.120 -0.0879 -0.3498  0.3233
 2585SOL    HW210411   2.900   2.241   4.161 -0.9357  0.1039  1.0118
 2585SOL    HW310412   2.832   2.374   4.136 -0.4672 -0.1928 -1.9912
 2585SOL    MW410413   2.901   2.322   4.128 -0.2499 -0.2694  0.1092
 2586SOL     OW10414   0.019   1.662   4.166  0.0382  0.3021  0.1817
 2586SOL    HW210415  -0.011   1.647   4.255  0.9604 -1.0015  0.2779
 2586SOL    HW310416   0.001   1.755   4.150  0.1226  0.6100  1.8192
 2586SOL    MW410417   0.013   1.673   4.176  0.1710  0.1707  0.4110
 2587SOL     OW10418   2.365   2.769   4.690 -0.3024 -0.6271 -0.1426
 2587SOL    HW210419   2.459   2.785   4.697 -0.2009 -0.3705 -1.8647
 2587SOL    HW310420   2.352   2.683   4.731  0.5302 -0.2405  0.9471
 2587SOL    MW410421   2.375   2.760   4.697 -0.1793 -0.5422 -0.2260
 2588SOL     OW10422   3.089   2.722   4.107  0.2343  0.2382  0.2389
 2588SOL    HW210423   2.997   2.742   4.125 -0.1085 -0.8987 -0.2154
 2588SOL    HW310424   3.137   2.790   4.154 -0.8521  1.2284 -0.0531
 2588SOL    MW410425   3.083   2.734   4.116  0.0455  0.2189  0.1402
 2589SOL     OW10426   4.011   3.510   4.453 -0.5446  0.3440  0.9715
 2589SOL    HW210427   4.033   3.484   4.542  0.9462  0.1582  0.5651
 2589SOL    HW310428   4.094   3.540   4.416 -0.8598 -0.8982 -0.7880
 2589SOL    MW410429   4.025   3.510   4.460 -0.3896  0.1557  0.6857
 2590SOL     OW10430   3.554   2.480   4.229 -0.8308 -0.4444 -0.1860
 2590SOL    HW210431   3.477   2.446   4.182  0.3114 -1.0531 -1.6433
 2590SOL    HW310432   3.540   2.452   4.320 -2.2029 -0.7702 -0.4749
 2590SOL    MW410433   3.542   2.472   4.235 -0.8612 -0.5679 -0.4163
 2591SOL     OW10434   3.360   3.138   4.144 -0.1103  0.1773 -0.2557
 2591SOL    HW210435   3.278   3.180   4.170 -0.5601 -0.9549  0.1944
 2591SOL    HW310436   3.349   3.118   4.051 -0.3620 -0.0131 -0.1851
 2591SOL    MW410437   3.347   3.141   4.135 -0.2029  0.0026 -0.1869
 2592SOL     OW10438   3.116   3.202   4.262  0.1540 -0.2229  0.0046
 2592SOL    HW210439   3.038   3.168   4.218 -0.2478  0.7950 -0.0815
 2592SOL    HW310440   3.123   3.293   4.233  2.6471 -0.9106 -1.7511
 2592SOL    MW410441   3.107   3.209   4.253  0.4299 -0.1793 -0.2384
 2593SOL     OW10442   2.617   3.288   4.435  0.1684 -0.6110 -0.0443
 2593SOL    HW210443   2.703   3.279   4.476  0.3258 -0.3242 -0.3135
 2593SOL    HW310444   2.632   3.271   4.342 -0.5849 -3.6244  0.3284
 2593SOL    MW410445   2.630   3.285   4.428  0.0899 -0.9706 -0.0305
 2594SOL     OW10446   2.655   3.210   4.162 -0.3094 -0.2082  0.2305
 2594SOL    HW210447   2.578   3.153   4.165  0.1636 -0.8377  0.6342
 2594SOL    HW310448   2.728   3.150   4.146 -0.1425  0.6231 -2.3092
 2594SOL    MW410449   2.655   3.195   4.161 -0.2248 -0.1819 -0.0505
 2595SOL     OW10450   3.798   4.077   4.650  0.2082  0.1529  0.0336
 2595SOL    HW210451   3.781   4.003   4.708  0.2629 -1.2900 -1.7458
 2595SOL    HW310452   3.712   4.099   4.613  0.1418  1.1777  0.7780
 2595SOL    MW410453   3.784   4.070   4.653  0.2065  0.0978 -0.1030
 2596SOL     OW10454   3.149   0.608   4.600 -0.2533 -0.3160 -0.4435
 2596SOL    HW210455   3.244   0.612   4.590 -0.1952 -1.0346 -0.2167
 2596SOL    HW310456   3.119   0.697   4.582  0.5959  0.2441  0.9117
 2596SOL    MW410457   3.158   0.620   4.596 -0.1338 -0.3369 -0.2346
 2597SOL     OW10458   3.331   4.596   4.202  0.2003 -0.6430 -0.2238
 2597SOL    HW210459   3.340   4.512   4.247  0.6566  0.1228  1.1374
 2597SOL    HW310460   3.405   4.647   4.232  0.6399 -0.1789 -2.0332
 2597SOL    MW410461   3.342   4.591   4.212  0.3181 -0.4807 -0.2828
 2598SOL     OW10462   2.292   3.387   4.825  0.1777 -0.0501 -0.1832
 2598SOL    HW210463   2.199   3.377   4.804  0.4210  1.3989 -2.0868
 2598SOL    HW310464   2.297   3.469   4.873  0.6312  0.6230 -1.3482
 2598SOL    MW410465   2.281   3.397   4.828  0.2697  0.2296 -0.5884
 2599SOL     OW10466   3.772   4.614   4.141  0.4020 -0.3373  0.4036
 2599SOL    HW210467   3.781   4.624   4.046  1.2761 -0.1187  0.5108
 2599SOL    HW310468   3.767   4.520   4.155  2.5344 -0.4761  0.3397
 2599SOL    MW410469   3.773   4.603   4.130  0.7987 -0.3266  0.4096
 2600SOL     OW10470   3.551   4.183   4.242  0.1061  0.0189 -0.7772
 2600SOL    HW210471   3.544   4.173   4.337 -0.1720 -0.0764 -0.8095
 2600SOL    HW310472   3.533   4.096   4.207 -0.7158  0.2618 -0.9664
 2600SOL    MW410473   3.548   4.171   4.250 -0.0389  0.0377 -0.8063
 2601SOL     OW10474   3.294   0.740   4.166  0.1011 -0.3034 -0.0587
 2601SOL    HW210475   3.217   0.788   4.197 -0.7231 -0.1614 -2.2142
 2601SOL    HW310476   3.368   0.793   4.195 -0.6899  0.7311  0.1152
 2601SOL    MW410477   3.293   0.753   4.174 -0.1118 -0.1481 -0.3204
 2602SOL     OW10478   3.256   0.475   4.168  0.2636 -0.1721 -0.0838
 2602SOL    HW210479   3.280   0.565   4.189  2.0626 -1.1305  2.1884
 2602SOL    HW310480   3.333   0.423   4.191 -1.5077 -2.5400  0.7546
 2602SOL    MW410481   3.269   0.480   4.174  0.2673 -0.6109  0.3271
 2603SOL     OW10482   3.967   0.726   4.314  0.3215  0.3856 -0.1789
 2603SOL    HW210483   4.028   0.798   4.298 -1.0640  1.8608  0.9950
 2603SOL    HW310484   3.888   0.750   4.265 -0.1493 -0.3238  0.2118
 2603SOL    MW410485   3.964   0.739   4.306  0.0768  0.4866  0.0277
 2604SOL     OW10486   3.505   0.925   4.232 -0.1437  0.2099  0.6457
 2604SOL    HW210487   3.511   1.014   4.198 -0.5340  0.2225  0.6040
 2604SOL    HW310488   3.533   0.932   4.323 -0.0218  0.3449  0.5982
 2604SOL    MW410489   3.510   0.937   4.239 -0.1793  0.2294  0.6342
 2605SOL     OW10490   3.743   0.783   4.178 -0.4283  0.6650 -0.2493
 2605SOL    HW210491   3.770   0.776   4.086 -0.7025 -1.5878 -0.1616
 2605SOL    HW310492   3.662   0.833   4.175 -0.7383  0.1084 -1.2925
 2605SOL    MW410493   3.736   0.789   4.165 -0.5054  0.2944 -0.3753
 2606SOL     OW10494   3.849   1.268   4.223  0.7488  0.1265 -0.2407
 2606SOL    HW210495   3.889   1.237   4.305 -0.2719 -1.3371 -0.2746
 2606SOL    HW310496   3.840   1.362   4.234  0.3727 -0.1012  1.4400
 2606SOL    MW410497   3.853   1.276   4.235  0.5648 -0.0967 -0.0229
 2607SOL     OW10498   3.830   1.542   4.188 -0.3496  0.1308 -0.3200
 2607SOL    HW210499   3.752   1.580   4.227  0.2818  0.1989  0.8772
 2607SOL    HW310500   3.903   1.592   4.223  0.4938 -2.1031  1.2501
 2607SOL    MW410501   3.830   1.553   4.198 -0.1550 -0.1550  0.0453
 2608SOL     OW10502   3.141   1.696   4.230 -0.2714 -0.0404 -0.2554
 2608SOL    HW210503   3.130   1.778   4.182 -1.6909 -0.0077  0.1064
 2608SOL    HW310504   3.063   1.645   4.210  0.7984 -1.5032 -0.8251
 2608SOL    MW410505   3.130   1.700   4.221 -0.3173 -0.2291 -0.2823
 2609SOL     OW10506   3.364   2.323   4.110  0.3000 -0.6935  0.2890
 2609SOL    HW210507   3.357   2.329   4.015 -1.2582 -0.8171  0.3955
 2609SOL    HW310508   3.293   2.377   4.143  1.0523 -0.3778  1.3881
 2609SOL    MW410509   3.354   2.331   4.102  0.1934 -0.6683  0.4478
 2610SOL     OW10510   3.965   1.945   4.108 -0.5349  0.0606 -0.2731
 2610SOL    HW210511   3.976   1.853   4.132 -0.4737  0.2531  0.4416
 2610SOL    HW310512   3.912   1.982   4.178  1.1701  1.0486  0.5192
 2610SOL    MW410513   3.960   1.938   4.120 -0.3018  0.2164 -0.0739
 2611SOL     OW10514   4.223   2.313   4.126 -0.3812 -0.0519 -0.1465
 2611SOL    HW210515   4.157   2.365   4.171  0.0746 -0.2283  0.7246
 2611SOL    HW310516   4.208   2.223   4.156  0.2924 -0.0835  0.0974
 2611SOL    MW410517   4.212   2.308   4.136 -0.2322 -0.0794  0.0014
 2612SOL     OW10518   3.354   2.065   4.223  0.6689  0.1501  0.1361
 2612SOL    HW210519   3.357   2.160   4.208  0.1082  0.0849 -0.3962
 2612SOL    HW310520   3.444   2.036   4.208  0.8820  0.6220  0.4680
 2612SOL    MW410521   3.366   2.074   4.219  0.6232  0.2038  0.1101
 2613SOL     OW10522   2.890   3.584   4.294 -0.6403 -0.1875 -0.1548
 2613SOL    HW210523   2.809   3.541   4.268 -0.3213 -1.8599  1.5602
 2613SOL    HW310524   2.960   3.530   4.258 -0.2548  0.6772 -0.7387
 2613SOL    MW410525   2.889   3.571   4.286 -0.5474 -0.2940 -0.0052
 2614SOL     OW10526   3.019   3.089   4.497 -0.0101  0.0618  0.0219
 2614SOL    HW210527   3.073   3.114   4.421 -1.1022 -1.0677 -1.1445
 2614SOL    HW310528   2.957   3.162   4.506  0.7339  0.6531  0.4366
 2614SOL    MW410529   3.018   3.102   4.488 -0.0560 -0.0093 -0.0772
 2615SOL     OW10530   2.655   2.557   5.044 -0.0424  0.5452 -0.0505
 2615SOL    HW210531   2.603   2.556   5.124 -0.7328  0.5150 -0.4920
 2615SOL    HW310532   2.636   2.642   5.004 -1.0139 -0.1125 -1.0223
 2615SOL    MW410533   2.646   2.568   5.049 -0.2618  0.4544 -0.2370
 2616SOL     OW10534   3.980   4.316   4.262  0.4896  0.0741 -0.2798
 2616SOL    HW210535   4.065   4.343   4.229  1.0645  0.4452  1.4320
 2616SOL    HW310536   3.972   4.361   4.346 -0.5050 -1.5434  0.5154
 2616SOL    MW410537   3.990   4.326   4.269  0.4342 -0.0911  0.0505
 2617SOL     OW10538   3.578   3.249   4.254  0.1533 -0.0312 -0.1551
 2617SOL    HW210539   3.506   3.192   4.225  0.3121 -0.8334  1.0127
 2617SOL    HW310540   3.657   3.203   4.225  0.2318  0.2612 -0.3988
 2617SOL    MW410541   3.579   3.235   4.246  0.1845 -0.0982 -0.0334
 2618SOL     OW10542   4.127   4.630   4.471 -0.0793 -0.0019 -0.2843
 2618SOL    HW210543   4.051   4.577   4.495 -1.0608  1.9543  1.0435
 2618SOL    HW310544   4.097   4.680   4.394  0.5069 -0.6225 -0.9208
 2618SOL    MW410545   4.113   4.630   4.464 -0.1311  0.1740 -0.1926
 2619SOL     OW10546   2.173   0.034   4.504  0.7410  0.2488  0.2829
 2619SOL    HW210547   2.210   0.053   4.417  0.7452  0.4222  0.3228
 2619SOL    HW310548   2.177   0.117   4.550  0.2548  0.2772  0.2725
 2619SOL    MW410549   2.178   0.047   4.498  0.6773  0.2754  0.2866
 2620SOL     OW10550   3.107   3.460   4.156  0.1068  0.2674 -0.1970
 2620SOL    HW210551   3.179   3.487   4.211  0.3134 -1.9262  0.6502
 2620SOL    HW310552   3.129   3.493   4.069  1.3367  0.9852  0.3881
 2620SOL    MW410553   3.119   3.468   4.151  0.2961  0.0725 -0.0076
 2621SOL     OW10554   3.832   2.073   4.304  0.3343 -0.2748 -0.8004
 2621SOL    HW210555   3.840   2.091   4.398  1.7146  0.2575 -1.0132
 2621SOL    HW310556   3.803   2.155   4.266  0.9097 -0.1599 -0.9926
 2621SOL    MW410557   3.829   2.086   4.312  0.5922 -0.1895 -0.8540
 2622SOL     OW10558   3.832   2.693   4.524  0.2080  0.2901  0.0855
 2622SOL    HW210559   3.867   2.604   4.532 -0.6939 -0.1185 -0.4562
 2622SOL    HW310560   3.739   2.681   4.508  0.1206  1.3307 -0.2320
 2622SOL    MW410561   3.825   2.680   4.523  0.0772  0.3734 -0.0277
 2623SOL     OW10562   4.270   0.011   4.119 -0.0201 -0.2828  0.1799
 2623SOL    HW210563   4.342   0.058   4.159 -0.7613  0.3453  0.7786
 2623SOL    HW310564   4.192   0.041   4.165 -0.5365 -1.8765  0.3890
 2623SOL    MW410565   4.269   0.021   4.130 -0.1855 -0.4106  0.2861
 2624SOL     OW10566   4.086   0.490   4.171 -0.0755 -0.1172 -0.0168
 2624SOL    HW210567   4.035   0.565   4.201 -0.4030  0.3700 -1.7201
 2624SOL    HW310568   4.057   0.417   4.226 -0.7096  0.7204  0.7729
 2624SOL    MW410569   4.075   0.490   4.182 -0.2017  0.0576 -0.1373
 2625SOL     OW10570   3.559   0.944   4.498 -0.1319 -0.8419  0.4476
 2625SOL    HW210571   3.644   0.959   4.539  0.1949  0.2142 -0.6019
 2625SOL    HW310572   3.516   1.030   4.499 -1.3549 -1.4413  1.3192
 2625SOL    MW410573   3.565   0.957   4.504 -0.2501 -0.7817  0.4234
 2626SOL     OW10574   4.365   0.552   4.179  0.1508  0.1639 -0.4546
 2626SOL    HW210575   4.270   0.542   4.176  0.0672  1.0234 -0.7894
 2626SOL    HW310576   4.380   0.643   4.156  0.7928  1.3836  4.3503
 2626SOL    MW410577   4.354   0.562   4.176  0.2246  0.4382  0.1354
 2627SOL     OW10578   4.156   0.886   4.218  0.4711  0.4321 -0.1883
 2627SOL    HW210579   4.115   0.961   4.176  0.3210 -0.3540 -1.4878
 2627SOL    HW310580   4.197   0.921   4.297 -1.4549  1.4833  0.3689
 2627SOL    MW410581   4.156   0.900   4.223  0.1974  0.4671 -0.2861
 2628SOL     OW10582   0.166   0.725   4.476 -0.4646  0.4381  0.0495
 2628SOL    HW210583   0.124   0.783   4.412 -3.2312  0.8413  2.1565
 2628SOL    HW310584   0.109   0.649   4.480  0.5094 -0.2567  0.9536
 2628SOL    MW410585   0.153   0.723   4.468 -0.7011  0.3996  0.4468
 2629SOL     OW10586   4.090   1.132   4.112 -0.2287  0.1369 -0.1261
 2629SOL    HW210587   4.156   1.188   4.151 -1.1731  0.0495  1.6241
 2629SOL    HW310588   4.008   1.180   4.123 -0.6346 -0.2817 -1.2348
 2629SOL    MW410589   4.088   1.146   4.118 -0.4067  0.0701 -0.0415
 2630SOL     OW10590   2.258   2.722   4.426  0.4040 -0.1711  0.3043
 2630SOL    HW210591   2.318   2.732   4.500 -0.9957 -1.2079  1.5916
 2630SOL    HW310592   2.186   2.782   4.445 -0.3033 -0.9686  0.1292
 2630SOL    MW410593   2.257   2.731   4.438  0.1259 -0.4132  0.4511
 2631SOL     OW10594   4.064   1.722   4.223  0.3741  0.2389 -0.1049
 2631SOL    HW210595   4.116   1.733   4.303 -0.0772  3.0834 -0.1280
 2631SOL    HW310596   4.117   1.665   4.167  1.1170 -1.0388  1.8462
 2631SOL    MW410597   4.078   1.716   4.226  0.4129  0.4455  0.1497
 2632SOL     OW10598   3.482   0.228   4.598 -0.1700  0.1724  0.3394
 2632SOL    HW210599   3.525   0.142   4.598  0.3346  0.4233  0.6722
 2632SOL    HW310600   3.388   0.208   4.604 -0.0157 -0.3412  1.1074
 2632SOL    MW410601   3.475   0.214   4.599 -0.0832  0.1377  0.4845
 2633SOL     OW10602   0.133   1.797   4.585  0.0052 -0.3042  0.6964
 2633SOL    HW210603   0.154   1.887   4.560  2.4182 -1.3776 -1.3571
 2633SOL    HW310604   0.085   1.762   4.510 -0.3418 -0.9509  1.2182
 2633SOL    MW410605   0.129   1.804   4.572  0.2778 -0.5312  0.4935
 2634SOL     OW10606   4.474   1.932   4.092  0.1463 -0.3586 -0.1165
 2634SOL    HW210607   4.394   1.955   4.139  1.0029  2.4010  0.0763
 2634SOL    HW310608   4.543   1.980   4.137  1.5850 -0.9185 -1.6716
 2634SOL    MW410609   4.472   1.941   4.104  0.4492 -0.0684 -0.2956
 2635SOL     OW10610   3.335   1.288   4.204 -0.0441  0.2783 -0.3100
 2635SOL    HW210611   3.421   1.247   4.193  0.0900  0.2914  0.6890
 2635SOL    HW310612   3.352   1.382   4.196  0.1223  0.3136  0.4746
 2635SOL    MW410613   3.349   1.295   4.201 -0.0043  0.2847 -0.0749
 2636SOL     OW10614   4.426   2.558   4.538  0.1589  0.0427  0.2067
 2636SOL    HW210615   4.471   2.642   4.534  0.3463  0.0132  1.3306
 2636SOL    HW310616   4.334   2.581   4.553  0.4003  0.0364  1.7796
 2636SOL    MW410617   4.420   2.572   4.540  0.2160  0.0381  0.5627
 2637SOL     OW10618   4.016   2.699   4.145 -0.5384 -0.5166 -0.6483
 2637SOL    HW210619   4.092   2.743   4.182  0.0953 -1.9231 -0.2554
 2637SOL    HW310620   3.942   2.735   4.194 -0.0778  0.4632 -0.6662
 2637SOL    MW410621   4.016   2.710   4.157 -0.3948 -0.5729 -0.5989
 2638SOL     OW10622   4.198   3.112   4.134 -0.1650  0.1855 -0.2497
 2638SOL    HW210623   4.138   3.156   4.193  0.6100  0.3488  0.4225
 2638SOL    HW310624   4.218   3.028   4.177  0.4013  0.3065 -0.2690
 2638SOL    MW410625   4.193   3.107   4.147  0.0114  0.2232 -0.1636
 2639SOL     OW10626   4.243   2.836   4.248 -0.6240  0.0841  0.4550
 2639SOL    HW210627   4.264   2.874   4.334  0.1221  0.0771  0.2734
 2639SOL    HW310628   4.316   2.777   4.229 -0.8775 -0.0515 -0.1057
 2639SOL    MW410629   4.255   2.833   4.257 -0.5593  0.0651  0.3572
 2640SOL     OW10630   3.802   3.083   4.181 -0.0124 -0.1352  0.3257
 2640SOL    HW210631   3.798   2.992   4.211 -1.1741 -0.6116 -1.2007
 2640SOL    HW310632   3.809   3.076   4.086  1.3526  1.3628  0.2949
 2640SOL    MW410633   3.802   3.070   4.172  0.0143 -0.0005  0.1206
 2641SOL     OW10634   3.510   4.398   4.637  0.0646 -0.4556  0.0556
 2641SOL    HW210635   3.549   4.473   4.592  0.4229 -2.2654 -2.7439
 2641SOL    HW310636   3.416   4.412   4.632  0.1670  0.8786  1.4910
 2641SOL    MW410637   3.503   4.410   4.631  0.1254 -0.5178 -0.1249
 2642SOL     OW10638   3.612   3.516   4.185 -0.3788 -0.1820 -0.0802
 2642SOL    HW210639   3.612   3.427   4.221  0.0641  0.6976  2.1107
 2642SOL    HW310640   3.531   3.555   4.217  0.2054  0.7451  0.2763
 2642SOL    MW410641   3.601   3.509   4.194 -0.2434  0.0563  0.2561
 2643SOL     OW10642   4.349   3.808   4.314 -0.3181  0.0158  0.2902
 2643SOL    HW210643   4.384   3.897   4.308 -0.5211  0.0422 -0.5764
 2643SOL    HW310644   4.285   3.803   4.243  0.3179 -1.0946 -0.2268
 2643SOL    MW410645   4.345   3.819   4.304 -0.2613 -0.1271  0.1078
 2644SOL     OW10646   2.479   0.616   4.513 -0.3085 -0.7823 -0.1208
 2644SOL    HW210647   2.455   0.582   4.427  0.3487  0.4741 -0.8247
 2644SOL    HW310648   2.568   0.584   4.528  0.2203  0.3564 -0.6800
 2644SOL    MW410649   2.488   0.607   4.503 -0.1519 -0.4662 -0.2871
 2645SOL     OW10650   3.492   3.934   4.157  0.0916  0.2976 -0.2937
 2645SOL    HW210651   3.458   3.927   4.067 -0.5355 -0.2598 -0.0168
 2645SOL    HW310652   3.584   3.911   4.149  0.1387  0.6637 -0.8663
 2645SOL    MW410653   3.499   3.930   4.144  0.0150  0.2720 -0.3324
 2646SOL     OW10654   3.560   0.495   4.663  0.1253 -0.1479  0.4687
 2646SOL    HW210655   3.525   0.406   4.661  1.7343 -0.7868  0.0415
 2646SOL    HW310656   3.651   0.486   4.635 -0.2149  1.8932 -1.4382
 2646SOL    MW410657   3.567   0.482   4.659  0.2928  0.0371  0.1612
 2647SOL     OW10658   1.273   0.515   4.484 -0.1340  0.3262 -0.4050
 2647SOL    HW210659   1.243   0.474   4.565  0.9562 -0.4049 -0.3545
 2647SOL    HW310660   1.270   0.609   4.502 -1.8866  0.2586 -0.2499
 2647SOL    MW410661   1.269   0.522   4.497 -0.2215  0.2208 -0.3781
 2648SOL     OW10662   0.515   3.627   4.330 -0.0347  0.3493  0.4195
 2648SOL    HW210663   0.609   3.622   4.350 -0.0676 -1.1935  0.2802
 2648SOL    HW310664   0.508   3.589   4.242 -0.8950 -0.2991  0.7696
 2648SOL    MW410665   0.527   3.621   4.321 -0.1525  0.0601  0.4473
 2649SOL     OW10666   3.504   0.378   4.186  0.0489  0.1906 -0.4621
 2649SOL    HW210667   3.564   0.444   4.220 -0.4885  1.5362 -2.0289
 2649SOL    HW310668   3.538   0.357   4.099 -0.2403 -1.0040 -0.2895
 2649SOL    MW410669   3.516   0.384   4.179 -0.0601  0.2105 -0.6461
 2650SOL     OW10670   3.857   0.982   4.624  0.1984  0.1348 -0.3684
 2650SOL    HW210671   3.898   1.044   4.564  2.0876 -0.1823  0.5715
 2650SOL    HW310672   3.839   1.034   4.703  2.2115 -0.6057  0.5919
 2650SOL    MW410673   3.860   0.997   4.627  0.7133 -0.0048 -0.1173
 2651SOL     OW10674   3.995   3.963   4.479  0.3527 -0.1947 -0.1591
 2651SOL    HW210675   3.919   3.990   4.530  0.2179 -0.4175 -0.2461
 2651SOL    HW310676   4.065   4.021   4.510  0.4116 -0.7121  0.6923
 2651SOL    MW410677   3.994   3.974   4.490  0.3426 -0.2923 -0.0587
 2652SOL     OW10678   0.007   0.333   4.073 -0.1560 -0.5470 -0.2798
 2652SOL    HW210679  -0.043   0.408   4.107  0.1231 -0.3898 -0.2183
 2652SOL    HW310680   0.020   0.352   3.981 -0.6629 -0.8372 -0.4128
 2652SOL    MW410681   0.002   0.345   4.066 -0.1855 -0.5645 -0.2894
 2653SOL     OW10682   0.251   4.647   4.185 -0.5274  0.0353 -0.0912
 2653SOL    HW210683   0.239   4.558   4.217  0.0885 -0.2907 -0.7577
 2653SOL    HW310684   0.332   4.678   4.226 -1.1685  0.5744  0.7682
 2653SOL    MW410685   0.260   4.640   4.194 -0.5307  0.0629 -0.0663
 2654SOL     OW10686   2.320   1.234   4.518  0.3451  0.3535  0.2632
 2654SOL    HW210687   2.285   1.316   4.551 -2.0393 -0.2695 -0.6413
 2654SOL    HW310688   2.345   1.252   4.427 -0.5249  0.0055 -0.0534
 2654SOL    MW410689   2.319   1.247   4.510 -0.0849  0.2255  0.1011
 2655SOL     OW10690   2.015   1.575   4.104 -0.1288 -0.4548  0.3116
 2655SOL    HW210691   2.008   1.489   4.145 -0.4571 -0.8263 -0.5295
 2655SOL    HW310692   2.020   1.557   4.011  2.1405  0.3065  0.2600
 2655SOL    MW410693   2.015   1.561   4.097  0.1271 -0.4034  0.1941
 2656SOL     OW10694   0.431   1.663   4.238  0.5334 -0.2397  0.2796
 2656SOL    HW210695   0.520   1.637   4.216  1.2198  1.8943  0.3564
 2656SOL    HW310696   0.375   1.601   4.191  2.0324  0.1449 -2.1091
 2656SOL    MW410697   0.435   1.652   4.229  0.8218  0.0926 -0.0253
 2657SOL     OW10698   0.392   0.545   4.540  0.0046  0.2281  0.5761
 2657SOL    HW210699   0.314   0.590   4.507 -0.4129  0.0654  1.3335
 2657SOL    HW310700   0.369   0.452   4.539  0.4015  0.1290  0.2577
 2657SOL    MW410701   0.379   0.539   4.535  0.0019  0.1935  0.6342
 2658SOL     OW10702   1.262   1.555   4.488  0.2310  0.7008  0.1552
 2658SOL    HW210703   1.243   1.574   4.396  0.7372 -2.7402 -0.7315
 2658SOL    HW310704   1.177   1.533   4.526  0.6341 -2.6084 -0.7408
 2658SOL    MW410705   1.248   1.555   4.480  0.3511 -0.1898 -0.0801
 2659SOL     OW10706   3.420   0.674   4.501  0.1758  0.1869 -0.0507
 2659SOL    HW210707   3.479   0.625   4.559 -0.3478  0.3883  0.6507
 2659SOL    HW310708   3.454   0.763   4.504 -0.6803  0.4917  1.0515
 2659SOL    MW410709   3.433   0.679   4.509 -0.0064  0.2536  0.1869
 2660SOL     OW10710   0.145   2.067   4.510 -0.1040 -0.3443 -0.0923
 2660SOL    HW210711   0.142   2.074   4.415  0.0221  0.0852 -0.0656
 2660SOL    HW310712   0.214   2.128   4.537  0.9140 -1.5684  0.1600
 2660SOL    MW410713   0.154   2.076   4.501  0.0470 -0.4494 -0.0558
 2661SOL     OW10714   4.373   3.205   4.490 -0.1719  0.6684 -0.0724
 2661SOL    HW210715   4.450   3.254   4.518 -0.1470  1.0644 -0.8243
 2661SOL    HW310716   4.299   3.260   4.518 -0.1474  1.0439 -0.7178
 2661SOL    MW410717   4.373   3.219   4.497 -0.1655  0.7701 -0.2570
 2662SOL     OW10718   4.437   1.847   4.794  0.0751 -0.3694 -0.3134
 2662SOL    HW210719   4.478   1.832   4.880  1.2335  0.5877 -0.6877
 2662SOL    HW310720   4.508   1.833   4.731 -0.0321  1.7153 -0.9478
 2662SOL    MW410721   4.452   1.843   4.797  0.2131  0.0319 -0.4458
 2663SOL     OW10722   0.684   2.469   4.641  0.5586 -0.0248  0.2364
 2663SOL    HW210723   0.666   2.381   4.607 -0.3931 -0.4736  1.8243
 2663SOL    HW310724   0.747   2.454   4.712 -1.4929  0.2540  2.1727
 2663SOL    MW410725   0.690   2.455   4.646  0.1623 -0.0472  0.7014
 2664SOL     OW10726   2.738   2.179   4.454  0.3571  0.0383 -0.2227
 2664SOL    HW210727   2.654   2.224   4.451 -0.3122 -1.0620  1.0626
 2664SOL    HW310728   2.720   2.098   4.502  2.3553  0.2326  0.9255
 2664SOL    MW410729   2.725   2.174   4.460  0.5324 -0.0813  0.0978
 2665SOL     OW10730   0.932   2.364   4.768  0.3371  0.1402  0.0806
 2665SOL    HW210731   0.971   2.421   4.834 -1.3605  1.3248  0.0919
 2665SOL    HW310732   0.974   2.390   4.686 -0.3506  1.3590  0.1006
 2665SOL    MW410733   0.943   2.375   4.765  0.0224  0.4573  0.0844
 2666SOL     OW10734   0.993   1.486   4.544 -0.0378 -0.1974  0.0649
 2666SOL    HW210735   0.941   1.557   4.509  1.0776  0.6300  0.0553
 2666SOL    HW310736   0.986   1.496   4.639 -0.2333 -0.3315  0.0633
 2666SOL    MW410737   0.985   1.497   4.552  0.0836 -0.1060  0.0634
 2667SOL     OW10738   0.226   3.844   4.138 -0.3457 -0.1450 -0.0294
 2667SOL    HW210739   0.321   3.847   4.139 -0.3627  0.3230  0.6714
 2667SOL    HW310740   0.204   3.762   4.184 -0.2433 -1.6226 -2.5333
 2667SOL    MW410741   0.235   3.834   4.145 -0.3345 -0.2782 -0.2670
 2668SOL     OW10742   0.874   1.844   4.728  0.4092  0.4621 -0.0688
 2668SOL    HW210743   0.875   1.930   4.686  0.4960  0.7905  0.5971
 2668SOL    HW310744   0.966   1.824   4.747  0.4029  0.1578 -0.3596
 2668SOL    MW410745   0.886   1.852   4.725  0.4198  0.4653 -0.0200
 2669SOL     OW10746   2.604   3.701   4.922  0.1784  0.0194  0.0070
 2669SOL    HW210747   2.672   3.693   4.988  0.4383  0.7712 -0.1574
 2669SOL    HW310748   2.647   3.677   4.840 -0.0497 -0.5699  0.0564
 2669SOL    MW410749   2.618   3.697   4.920  0.1826  0.0408 -0.0076
 2670SOL     OW10750   2.769   2.879   4.847  0.1367 -0.0972 -0.1348
 2670SOL    HW210751   2.712   2.857   4.774 -0.4952  1.2904 -0.0759
 2670SOL    HW310752   2.719   2.856   4.925  0.0257  0.2473 -0.1031
 2670SOL    MW410753   2.755   2.873   4.847  0.0386  0.1316 -0.1230
 2671SOL     OW10754   2.820   4.154   4.655 -0.0046 -0.5494  0.3196
 2671SOL    HW210755   2.761   4.162   4.731 -1.0288  0.0335 -0.5126
 2671SOL    HW310756   2.787   4.078   4.607  0.3763 -0.6616  0.2382
 2671SOL    MW410757   2.808   4.145   4.659 -0.0894 -0.4873  0.1993
 2672SOL     OW10758   1.180   4.616   4.253  0.2838 -0.1068 -0.0564
 2672SOL    HW210759   1.151   4.531   4.220  0.2659 -1.1470  2.5289
 2672SOL    HW310760   1.115   4.678   4.220 -0.0459 -1.1654 -1.4644
 2672SOL    MW410761   1.168   4.613   4.244  0.2379 -0.3839  0.0987
 2673SOL     OW10762   1.971   0.631   4.664 -0.0584 -0.6111 -0.4167
 2673SOL    HW210763   2.062   0.661   4.665 -1.2688  3.5082 -1.8207
 2673SOL    HW310764   1.934   0.663   4.747 -0.9487  0.2606 -1.1385
 2673SOL    MW410765   1.978   0.639   4.675 -0.3356  0.0473 -0.6971
 2674SOL     OW10766   4.433   4.046   4.612  0.1249 -0.0089  0.0750
 2674SOL    HW210767   4.521   4.051   4.573  0.6210 -2.3619  0.8173
 2674SOL    HW310768   4.449   4.024   4.704 -1.1584  2.5118  0.9360
 2674SOL    MW410769   4.447   4.043   4.619  0.0205  0.0129  0.2861
 2675SOL     OW10770   0.830   1.699   4.493 -0.0700 -0.5971 -0.1900
 2675SOL    HW210771   0.745   1.664   4.519  0.2746 -1.3873 -0.1184
 2675SOL    HW310772   0.859   1.751   4.569 -0.1404 -0.9498  0.0778
 2675SOL    MW410773   0.822   1.701   4.507 -0.0338 -0.7479 -0.1454
 2676SOL     OW10774   0.671   0.724   4.108 -0.0466 -0.3649 -0.1776
 2676SOL    HW210775   0.691   0.774   4.029  1.1059 -0.4656  0.0370
 2676SOL    HW310776   0.596   0.769   4.147  0.3505  0.6050 -0.5122
 2676SOL    MW410777   0.664   0.736   4.103  0.1578 -0.2503 -0.1936
 2677SOL     OW10778   3.602   1.679   4.257  0.2253  0.1110  0.1394
 2677SOL    HW210779   3.574   1.762   4.218 -0.2614  0.3066  0.9024
 2677SOL    HW310780   3.532   1.618   4.235 -0.0197  0.2069  0.6529
 2677SOL    MW410781   3.589   1.682   4.249  0.1287  0.1494  0.3076
 2678SOL     OW10782   1.381   0.199   4.476  0.3544  0.5715 -0.0583
 2678SOL    HW210783   1.443   0.263   4.511 -0.6641  0.6919  1.5914
 2678SOL    HW310784   1.296   0.241   4.485 -0.2976 -0.8789  0.7611
 2678SOL    MW410785   1.378   0.213   4.482  0.1339  0.3960  0.2680
 2679SOL     OW10786   1.490   1.264   4.255 -0.2418  0.0036  0.1967
 2679SOL    HW210787   1.574   1.221   4.236 -1.4595 -2.3915 -0.0471
 2679SOL    HW310788   1.463   1.228   4.339 -2.2535 -1.2860 -0.9469
 2679SOL    MW410789   1.497   1.253   4.263 -0.6678 -0.4826  0.0138
 2680SOL     OW10790   4.413   3.260   4.219  0.2681 -0.1604  0.1964
 2680SOL    HW210791   4.407   3.253   4.314 -1.1071  0.7164  0.1706
 2680SOL    HW310792   4.339   3.209   4.186  0.8245 -0.5842 -0.4171
 2680SOL    MW410793   4.403   3.252   4.227  0.1597 -0.1006  0.1121
 2681SOL     OW10794   0.616   1.537   4.585 -0.2954  0.0718  0.1451
 2681SOL    HW210795   0.639   1.457   4.537 -0.5043 -0.0065  0.1755
 2681SOL    HW310796   0.528   1.558   4.555 -0.9330 -0.6948  1.4382
 2681SOL    MW410797   0.608   1.529   4.575 -0.4072 -0.0396  0.3195
 2682SOL     OW10798   1.787   2.092   4.120 -0.2282  0.3557  0.0616
 2682SOL    HW210799   1.873   2.133   4.123  0.2021 -0.5047 -0.1765
 2682SOL    HW310800   1.725   2.164   4.125  0.5064  0.9015  1.4658
 2682SOL    MW410801   1.791   2.107   4.121 -0.0746  0.3142  0.2151
 2683SOL     OW10802   2.698   3.921   4.520  0.1015 -0.0384  0.1773
 2683SOL    HW210803   2.690   3.833   4.556 -1.2807 -0.0652 -0.1617
 2683SOL    HW310804   2.708   3.907   4.425 -0.5467  0.1897  0.0774
 2683SOL    MW410805   2.698   3.907   4.512 -0.1664 -0.0119  0.1197
 2684SOL     OW10806   3.087   4.017   4.276 -0.0748  0.0425 -0.8121
 2684SOL    HW210807   3.025   3.951   4.245  1.7605 -1.1298 -2.0525
 2684SOL    HW310808   3.061   4.033   4.367 -3.0117  0.5755 -1.6788
 2684SOL    MW410809   3.075   4.011   4.284 -0.2201 -0.0424 -1.0900
 2685SOL     OW10810   1.163   3.602   4.735 -0.1508 -0.0675 -0.5709
 2685SOL    HW210811   1.122   3.640   4.813  3.1035  0.6269  0.8648
 2685SOL    HW310812   1.171   3.675   4.674 -0.2316 -0.0042 -0.5074
 2685SOL    MW410813   1.159   3.617   4.737  0.2680  0.0327 -0.3729
 2686SOL     OW10814   4.041   2.861   4.574 -0.3477 -0.1074 -0.0376
 2686SOL    HW210815   3.965   2.816   4.539  1.0141  0.0076 -3.2791
 2686SOL    HW310816   4.025   2.954   4.556  0.3459 -0.0363 -0.3160
 2686SOL    MW410817   4.029   2.868   4.567 -0.0768 -0.0827 -0.5021
 2687SOL     OW10818   0.275   0.431   4.207  0.6380  0.1192  0.2350
 2687SOL    HW210819   0.262   0.403   4.298  1.3480 -0.8186  0.0610
 2687SOL    HW310820   0.195   0.405   4.162  0.0320  1.1218  0.7038
 2687SOL    MW410821   0.263   0.424   4.213  0.6517  0.1277  0.2737
 2688SOL     OW10822   0.911   2.102   4.668 -0.4612 -0.7051  0.7913
 2688SOL    HW210823   0.926   2.177   4.726  1.7102 -1.0204  0.7105
 2688SOL    HW310824   0.836   2.127   4.614 -0.5945  0.8518  1.6851
 2688SOL    MW410825   0.903   2.115   4.668 -0.1922 -0.5410  0.8993
 2689SOL     OW10826   3.964   2.406   4.541  0.6120  0.1467 -0.0842
 2689SOL    HW210827   3.981   2.422   4.448  2.6309 -1.2132  0.0139
 2689SOL    HW310828   4.039   2.447   4.586 -0.5857  1.2007  0.9809
 2689SOL    MW410829   3.976   2.414   4.535  0.7205  0.1063  0.0696
 2690SOL     OW10830   0.461   4.357   4.242 -0.0955  0.0984 -0.1790
 2690SOL    HW210831   0.368   4.379   4.245 -0.6054 -2.0259  0.6908
 2690SOL    HW310832   0.482   4.353   4.149 -1.0671 -0.0851 -0.3964
 2690SOL    MW410833   0.451   4.359   4.230 -0.2910 -0.2060 -0.0935
 2691SOL     OW10834   1.585   4.416   4.254 -0.2528 -0.3357 -0.1948
 2691SOL    HW210835   1.523   4.355   4.294  0.2884 -0.1251  1.0011
 2691SOL    HW310836   1.662   4.362   4.234 -0.3649 -0.3558 -0.5775
 2691SOL    MW410837   1.587   4.401   4.257 -0.1961 -0.3109 -0.0877
 2692SOL     OW10838   4.007   4.256   4.697  0.0573  0.0002 -0.2671
 2692SOL    HW210839   3.944   4.187   4.676  0.6767 -0.2995 -1.1468
 2692SOL    HW310840   4.081   4.240   4.640 -0.3915  2.2668 -1.5791
 2692SOL    MW410841   4.008   4.245   4.687  0.0801  0.2604 -0.5560
 2693SOL     OW10842   0.164   3.152   4.127 -0.0042  0.5653 -0.3257
 2693SOL    HW210843   0.158   3.146   4.031 -0.4915  0.9055 -0.3123
 2693SOL    HW310844   0.087   3.201   4.153  1.2766  2.4190  0.0498
 2693SOL    MW410845   0.153   3.157   4.118  0.1005  0.8547 -0.2747
 2694SOL     OW10846   4.324   2.922   4.513  0.1664  0.1417 -0.1411
 2694SOL    HW210847   4.341   3.016   4.522  0.0515  0.1793 -0.3317
 2694SOL    HW310848   4.236   2.911   4.548  0.3979  0.0153  0.4246
 2694SOL    MW410849   4.315   2.933   4.519  0.1817  0.1299 -0.0916
 2695SOL     OW10850   1.391   4.275   4.393 -0.2611 -0.0455 -0.4481
 2695SOL    HW210851   1.327   4.327   4.441  0.1830 -0.9161  1.1102
 2695SOL    HW310852   1.438   4.226   4.460  2.1725  0.7064 -1.5443
 2695SOL    MW410853   1.389   4.276   4.408  0.1186 -0.0610 -0.3872
 2696SOL     OW10854   2.038   3.553   4.427  0.4647  0.2361 -0.0959
 2696SOL    HW210855   2.036   3.544   4.332  1.8698 -0.6691 -0.0468
 2696SOL    HW310856   1.954   3.514   4.456 -0.4592  1.5145 -1.0211
 2696SOL    MW410857   2.026   3.546   4.418  0.5281  0.2851 -0.2112
 2697SOL     OW10858   0.994   0.116   4.115 -0.1457  0.0761 -0.1581
 2697SOL    HW210859   0.994   0.197   4.166  0.4441 -0.4552  0.6951
 2697SOL    HW310860   1.048   0.136   4.038 -0.4687  0.6558 -0.2439
 2697SOL    MW410861   1.001   0.129   4.111 -0.1105  0.0825 -0.0567
 2698SOL     OW10862   4.266   1.249   4.479  0.2708  0.3234  0.4762
 2698SOL    HW210863   4.261   1.282   4.390  2.5560  0.8614  0.5005
 2698SOL    HW310864   4.310   1.164   4.470  1.0388  0.6463  1.1412
 2698SOL    MW410865   4.272   1.242   4.466  0.6742  0.4371  0.5670
 2699SOL     OW10866   2.577   0.879   4.525 -0.0985  0.1296 -0.5223
 2699SOL    HW210867   2.564   0.784   4.528  1.9626 -0.1886 -0.8819
 2699SOL    HW310868   2.612   0.896   4.437 -0.5849  1.2435 -0.5099
 2699SOL    MW410869   2.580   0.869   4.514  0.1092  0.2345 -0.5679
 2700SOL     OW10870   0.440   2.478   4.524  0.2422  0.3862 -0.3611
 2700SOL    HW210871   0.403   2.565   4.520 -1.3085 -0.2672 -0.3994
 2700SOL    HW310872   0.519   2.487   4.578  0.0829  1.7814 -0.3568
 2700SOL    MW410873   0.446   2.490   4.530  0.0166  0.4842 -0.3662
 2701SOL     OW10874   1.338   2.693   4.591  0.1235  0.0391  0.1400
 2701SOL    HW210875   1.253   2.732   4.569  1.0161  2.4002  0.7534
 2701SOL    HW310876   1.344   2.702   4.686  2.2174  2.3581 -0.1778
 2701SOL    MW410877   1.328   2.699   4.601  0.5175  0.6568  0.1793
 2702SOL     OW10878   4.440   1.445   4.588 -0.0194  0.2320 -0.0054
 2702SOL    HW210879   4.372   1.385   4.558  1.2166 -0.7341 -0.9520
 2702SOL    HW310880   4.415   1.466   4.678 -1.8015  0.2554 -0.4791
 2702SOL    MW410881   4.428   1.440   4.595 -0.0916  0.1075 -0.1926
 2703SOL     OW10882   1.120   2.102   4.246 -0.1628 -0.4923  0.4804
 2703SOL    HW210883   1.122   2.137   4.335  1.4434  0.7950 -0.0581
 2703SOL    HW310884   1.202   2.054   4.237  1.1779  2.0832 -1.3867
 2703SOL    MW410885   1.131   2.100   4.257  0.2260  0.0172  0.1631
 2704SOL     OW10886   0.836   1.144   4.128 -0.1135 -0.1509 -0.6634
 2704SOL    HW210887   0.807   1.058   4.158 -0.7380  0.0956 -0.5525
 2704SOL    HW310888   0.763   1.202   4.149  0.3418  0.4220 -0.6563
 2704SOL    MW410889   0.822   1.140   4.135 -0.1358 -0.0428 -0.6480
 2705SOL     OW10890   2.051   2.175   4.178 -0.2244 -0.3262 -0.1471
 2705SOL    HW210891   2.033   2.185   4.272 -0.7250  0.3864 -0.3098
 2705SOL    HW310892   2.050   2.265   4.144  0.1988 -0.5648 -0.7918
 2705SOL    MW410893   2.048   2.188   4.186 -0.2346 -0.2637 -0.2537
 2706SOL     OW10894   2.084   2.785   4.720  0.2946 -0.3272  0.1728
 2706SOL    HW210895   2.177   2.806   4.729  0.2944 -0.2734  0.0479
 2706SOL    HW310896   2.076   2.696   4.755  0.2581 -0.0349  0.9026
 2706SOL    MW410897   2.095   2.776   4.726  0.2897 -0.2816  0.2527
 2707SOL     OW10898   1.183   3.811   4.532 -0.3988 -0.3490 -0.3347
 2707SOL    HW210899   1.172   3.751   4.458  0.6746 -0.9960  0.0128
 2707SOL    HW310900   1.114   3.876   4.521  0.3368  0.1002 -2.4384
 2707SOL    MW410901   1.173   3.812   4.521 -0.1602 -0.3755 -0.5665
 2708SOL     OW10902   2.988   4.530   4.567 -0.1555  0.2421 -0.4762
 2708SOL    HW210903   3.054   4.462   4.583 -0.7851 -0.5362 -1.1436
 2708SOL    HW310904   3.021   4.579   4.492  0.0883  0.3997 -0.2650
 2708SOL    MW410905   3.001   4.527   4.560 -0.2062  0.1607 -0.5369
 2709SOL     OW10906   4.382   2.066   4.638  0.2812 -0.1950  0.2107
 2709SOL    HW210907   4.473   2.087   4.615  0.6055 -0.7197  0.9857
 2709SOL    HW310908   4.389   1.994   4.700 -0.6576  0.0041  0.5602
 2709SOL    MW410909   4.395   2.059   4.643  0.2003 -0.2377  0.3586
 2710SOL     OW10910   1.532   4.134   4.591  0.7178  0.8149 -0.1065
 2710SOL    HW210911   1.541   4.039   4.593 -1.1370  0.6377  3.1699
 2710SOL    HW310912   1.621   4.167   4.582  1.5321 -1.2163  0.3458
 2710SOL    MW410913   1.545   4.126   4.590  0.5804  0.5236  0.3862
 2711SOL     OW10914   2.542   3.547   4.469  0.0498  0.0511  0.4137
 2711SOL    HW210915   2.459   3.536   4.514 -0.5223 -1.4622 -0.9881
 2711SOL    HW310916   2.574   3.458   4.453  0.7548  0.5627 -1.1806
 2711SOL    MW410917   2.535   3.534   4.473  0.0672 -0.0811  0.0186
 2712SOL     OW10918   2.019   3.070   4.605  0.0251  0.4189 -0.1316
 2712SOL    HW210919   2.001   3.003   4.672  1.1683 -0.1779 -0.4104
 2712SOL    HW310920   2.024   3.152   4.654 -0.5663  0.1827  0.3275
 2712SOL    MW410921   2.017   3.072   4.621  0.0980  0.3088 -0.1078
 2713SOL     OW10922   0.174   4.399   4.264  0.2956 -0.3697 -0.1108
 2713SOL    HW210923   0.120   4.398   4.343  0.5343  0.0892  0.0640
 2713SOL    HW310924   0.123   4.352   4.199 -0.2016 -0.1643  0.1257
 2713SOL    MW410925   0.160   4.393   4.266  0.2615 -0.2823 -0.0567
 2714SOL     OW10926   1.297   2.712   4.094 -0.6129 -0.0915 -0.4365
 2714SOL    HW210927   1.299   2.618   4.111  2.4045 -0.0358 -0.2354
 2714SOL    HW310928   1.371   2.747   4.143 -2.5549  2.6460  0.7042
 2714SOL    MW410929   1.307   2.704   4.102 -0.4711  0.2770 -0.2599
 2715SOL     OW10930   4.244   4.378   4.192 -0.2666  0.1578  0.3250
 2715SOL    HW210931   4.251   4.472   4.175  0.1685 -0.0236 -0.4956
 2715SOL    HW310932   4.276   4.368   4.282 -1.4957  0.9537  0.8586
 2715SOL    MW410933   4.249   4.389   4.202 -0.3710  0.2384  0.2875
 2716SOL     OW10934   3.061   0.886   4.525  0.0396 -0.2463  0.4315
 2716SOL    HW210935   3.130   0.944   4.558 -0.1793  0.6059 -0.6028
 2716SOL    HW310936   2.982   0.912   4.572 -0.0380  0.2232  0.0383
 2716SOL    MW410937   3.060   0.897   4.536  0.0005 -0.0720  0.2432
 2717SOL     OW10938   3.602   3.738   4.562 -0.1910 -0.5092 -0.3877
 2717SOL    HW210939   3.668   3.731   4.492 -0.3337 -1.4665 -0.4248
 2717SOL    HW310940   3.650   3.775   4.636  0.6721 -2.2867 -0.0432
 2717SOL    MW410941   3.617   3.742   4.562 -0.0961 -0.8698 -0.3471
 2718SOL     OW10942   3.633   4.645   4.537  0.4830  0.3736  0.0776
 2718SOL    HW210943   3.704   4.704   4.565  1.7307 -0.0494 -2.0848
 2718SOL    HW310944   3.603   4.682   4.454  0.6675 -1.5327 -0.8534
 2718SOL    MW410945   3.639   4.658   4.530  0.6716  0.0663 -0.3304
 2719SOL     OW10946   1.877   0.149   4.230  0.2070  0.0988  0.5754
 2719SOL    HW210947   1.886   0.126   4.323  0.1937 -0.3129  0.4731
 2719SOL    HW310948   1.800   0.100   4.200  1.0881 -0.9354 -0.0313
 2719SOL    MW410949   1.868   0.140   4.238  0.3214 -0.0920  0.4816
 2720SOL     OW10950   3.206   4.357   4.574  0.7022  0.6857 -0.4268
 2720SOL    HW210951   3.175   4.271   4.603 -0.8882  0.8675 -1.5383
 2720SOL    HW310952   3.231   4.345   4.483 -0.3605  1.6034 -0.8451
 2720SOL    MW410953   3.205   4.344   4.566  0.3524  0.8307 -0.6285
 2721SOL     OW10954   0.781   4.109   4.271 -0.0115  0.0659 -0.3636
 2721SOL    HW210955   0.810   4.169   4.202 -0.1638  0.7024  0.1180
 2721SOL    HW310956   0.734   4.165   4.333 -0.2391 -0.5689  0.0455
 2721SOL    MW410957   0.779   4.125   4.270 -0.0617  0.0663 -0.2460
 2722SOL     OW10958   3.418   1.192   4.441  0.1320  0.2649 -0.2777
 2722SOL    HW210959   3.375   1.240   4.371  1.3905  1.2574 -0.3736
 2722SOL    HW310960   3.484   1.252   4.475  0.7934 -0.8937  0.5160
 2722SOL    MW410961   3.421   1.206   4.437  0.3858  0.2431 -0.1855
 2723SOL     OW10962   2.058   1.699   4.536 -0.0522  0.2636 -0.3667
 2723SOL    HW210963   1.976   1.745   4.557  0.1957  1.0142 -0.9986
 2723SOL    HW310964   2.125   1.751   4.580  0.3669  1.2691 -2.1472
 2723SOL    MW410965   2.056   1.712   4.544  0.0360  0.4952 -0.6852
 2724SOL     OW10966   0.177   3.068   4.517  0.5216  0.0631 -0.5936
 2724SOL    HW210967   0.138   2.981   4.504 -0.0958  0.1619  0.5594
 2724SOL    HW310968   0.270   3.055   4.502  0.4961 -0.8957  0.0386
 2724SOL    MW410969   0.184   3.055   4.513  0.4368 -0.0505 -0.3581
 2725SOL     OW10970   1.349   2.519   5.045  0.1448 -0.1440 -0.6090
 2725SOL    HW210971   1.399   2.459   4.989  1.0275  0.0609 -0.0495
 2725SOL    HW310972   1.396   2.520   5.128 -1.3982 -0.7843  0.3102
 2725SOL    MW410973   1.362   2.511   5.049  0.0578 -0.2017 -0.4134
 2726SOL     OW10974   2.440   0.825   4.119 -0.0818  0.2868 -0.2067
 2726SOL    HW210975   2.430   0.733   4.144  0.9832  0.2049 -0.0585
 2726SOL    HW310976   2.466   0.822   4.027  1.2319  0.3701  0.1417
 2726SOL    MW410977   2.442   0.812   4.110  0.2322  0.2869 -0.1416
 2727SOL     OW10978   3.194   1.132   4.623 -0.2888  0.1157 -0.1722
 2727SOL    HW210979   3.267   1.166   4.571 -0.7040  2.1930  0.5523
 2727SOL    HW310980   3.116   1.171   4.583 -0.7774  0.1291  0.7817
 2727SOL    MW410981   3.193   1.142   4.610 -0.4082  0.3914  0.0491
 2728SOL     OW10982   2.244   4.233   4.099  0.3504  0.3073  0.4642
 2728SOL    HW210983   2.240   4.142   4.128 -0.2263  0.1414 -0.1344
 2728SOL    HW310984   2.323   4.268   4.141  1.5472 -0.9589 -0.7047
 2728SOL    MW410985   2.254   4.226   4.109  0.4323  0.1187  0.2308
 2729SOL     OW10986   2.723   2.541   4.495 -0.0421 -0.7260 -0.6188
 2729SOL    HW210987   2.776   2.597   4.551 -0.9906  0.4512 -0.8724
 2729SOL    HW310988   2.662   2.498   4.555 -0.7224  0.1510 -0.6625
 2729SOL    MW410989   2.722   2.543   4.510 -0.2570 -0.4549 -0.6585
 2730SOL     OW10990   2.449   3.922   4.848  0.0640  0.4486  0.0668
 2730SOL    HW210991   2.376   3.882   4.801 -0.1551  0.6867  0.2113
 2730SOL    HW310992   2.502   3.848   4.876  0.0353  0.2884 -0.2905
 2730SOL    MW410993   2.447   3.907   4.845  0.0312  0.4590  0.0386
 2731SOL     OW10994   1.731   2.723   4.116  0.8067 -0.3717 -0.6768
 2731SOL    HW210995   1.653   2.763   4.154 -0.5198 -0.7858 -2.9022
 2731SOL    HW310996   1.731   2.634   4.151  0.3646 -0.3325 -0.5732
 2731SOL    MW410997   1.721   2.717   4.126  0.5735 -0.4213 -0.9565
 2732SOL     OW10998   4.195   4.139   4.526 -0.0137  0.6618 -0.0629
 2732SOL    HW210999   4.273   4.109   4.574 -0.0512  0.6485 -0.0110
 2732SOL    HW311000   4.218   4.226   4.494  0.6796 -0.0528 -1.5587
 2732SOL    MW411001   4.208   4.146   4.528  0.0725  0.5655 -0.2532
 2733SOL     OW11002   1.292   3.254   4.241 -0.7031 -0.5814  0.0491
 2733SOL    HW211003   1.279   3.236   4.334 -2.5036 -0.6906 -0.2123
 2733SOL    HW311004   1.233   3.194   4.196 -0.6523  0.2280 -1.1240
 2733SOL    MW411005   1.283   3.244   4.247 -0.9340 -0.4890 -0.1397
 2734SOL     OW11006   1.575   2.766   4.505  0.3001  0.2933  0.1549
 2734SOL    HW211007   1.618   2.689   4.467  0.0928 -0.1715  0.8458
 2734SOL    HW311008   1.486   2.736   4.522 -0.1703  1.1094 -0.8352
 2734SOL    MW411009   1.569   2.752   4.502  0.2108  0.3395  0.1159
 2735SOL     OW11010   2.461   4.053   4.559  0.0988 -0.5618 -0.1962
 2735SOL    HW211011   2.467   4.042   4.653  1.0047  0.2580 -0.1506
 2735SOL    HW311012   2.529   3.997   4.523  1.5558  1.1675 -0.2076
 2735SOL    MW411013   2.471   4.044   4.566  0.4103 -0.2255 -0.1917
 2736SOL     OW11014   0.900   4.320   4.133 -0.0832 -0.7759 -0.2308
 2736SOL    HW211015   0.995   4.320   4.139  0.0145 -2.7329 -1.4515
 2736SOL    HW311016   0.877   4.412   4.114  1.6003 -0.4445 -0.7037
 2736SOL    MW411017   0.909   4.332   4.131  0.1518 -0.9904 -0.4539
 2737SOL     OW11018   3.799   2.826   4.264  0.1424  0.1763 -0.2823
 2737SOL    HW211019   3.800   2.775   4.345  1.3735 -0.7137 -0.8575
 2737SOL    HW311020   3.710   2.816   4.231  0.0714 -0.7208  0.1620
 2737SOL    MW411021   3.787   2.818   4.270  0.2954 -0.0598 -0.2999
 2738SOL     OW11022   3.827   1.368   4.628  0.0868  0.2816 -0.1954
 2738SOL    HW211023   3.865   1.449   4.663  1.0241 -0.7169  1.1278
 2738SOL    HW311024   3.738   1.393   4.602 -0.0969  1.4313  1.4328
 2738SOL    MW411025   3.820   1.382   4.629  0.1862  0.3016  0.1931
 2739SOL     OW11026   2.409   3.081   4.140  0.4462  0.4194 -0.0011
 2739SOL    HW211027   2.345   3.134   4.187  1.4243 -0.1516  2.0593
 2739SOL    HW311028   2.381   2.990   4.153 -0.4051  0.3193 -2.2800
 2739SOL    MW411029   2.397   3.076   4.148  0.4630  0.3307 -0.0300
 2740SOL     OW11030   3.140   2.455   4.482 -0.4469  0.4801 -0.0968
 2740SOL    HW211031   3.149   2.455   4.386  0.3903 -1.1063 -0.0388
 2740SOL    HW311032   3.061   2.404   4.498  1.0941 -1.9414  0.1444
 2740SOL    MW411033   3.131   2.448   4.471 -0.1335 -0.0489 -0.0572
 2741SOL     OW11034   2.451   4.346   4.234  0.0734  0.6137 -0.0968
 2741SOL    HW211035   2.528   4.300   4.200 -0.1686  0.4125 -0.3772
 2741SOL    HW311036   2.458   4.338   4.329 -0.4750 -0.8368 -0.1703
 2741SOL    MW411037   2.462   4.339   4.242 -0.0308  0.3958 -0.1435
 2742SOL     OW11038   1.235   1.063   4.628 -0.1793 -0.1877 -0.2399
 2742SOL    HW211039   1.181   1.108   4.563  0.1530 -0.0108 -0.3954
 2742SOL    HW311040   1.244   1.126   4.699  1.2004  0.4132 -0.9344
 2742SOL    MW411041   1.229   1.077   4.629  0.0466 -0.0852 -0.3519
 2743SOL     OW11042   0.896   3.221   4.269  0.1142  0.1887  0.3831
 2743SOL    HW211043   0.894   3.238   4.363 -0.2901  2.4581 -0.0164
 2743SOL    HW311044   0.894   3.307   4.229  1.4607 -0.7145 -1.7123
 2743SOL    MW411045   0.896   3.234   4.276  0.2385  0.3691  0.0544
 2744SOL     OW11046   0.430   0.142   4.332 -0.4490  0.0802  0.4819
 2744SOL    HW211047   0.496   0.075   4.353  0.1547  0.3596 -0.5224
 2744SOL    HW311048   0.473   0.199   4.268  0.0170  3.0024  3.2735
 2744SOL    MW411049   0.444   0.141   4.327 -0.3079  0.5026  0.7172
 2745SOL     OW11050   4.004   0.332   4.387 -0.2788 -0.1640  0.0642
 2745SOL    HW211051   4.069   0.328   4.457 -0.2193 -1.0165 -0.0341
 2745SOL    HW311052   3.934   0.388   4.422  0.8335  1.3812 -0.1141
 2745SOL    MW411053   4.003   0.339   4.401 -0.1240 -0.0726  0.0277
 2746SOL     OW11054   3.402   3.936   4.565  0.2724  0.6541 -0.2146
 2746SOL    HW211055   3.477   3.877   4.581 -0.1733  0.2321  0.3362
 2746SOL    HW311056   3.362   3.902   4.485 -0.1373  0.0466  0.2460
 2746SOL    MW411057   3.407   3.923   4.556  0.1595  0.5183 -0.0815
 2747SOL     OW11058   3.913   2.135   4.579  0.1594  0.3621 -0.3326
 2747SOL    HW211059   3.932   2.228   4.564  0.1158  0.4232 -0.0065
 2747SOL    HW311060   3.819   2.133   4.598  0.4703  0.4350  1.2183
 2747SOL    MW411061   3.903   2.147   4.579  0.1948  0.3798 -0.0854
 2748SOL     OW11062   1.312   0.808   4.540  0.2595  1.0325  0.2458
 2748SOL    HW211063   1.305   0.834   4.448  0.2382  0.8051  0.1843
 2748SOL    HW311064   1.289   0.887   4.589 -0.1553  1.0284  0.0533
 2748SOL    MW411065   1.308   0.822   4.534  0.2018  1.0019  0.2127
 2749SOL     OW11066   0.784   1.598   4.825  0.3591  0.2443 -0.1607
 2749SOL    HW211067   0.781   1.687   4.790  0.6873 -0.1864 -1.3112
 2749SOL    HW311068   0.714   1.552   4.780  0.7970 -0.3262 -0.2677
 2749SOL    MW411069   0.775   1.604   4.815  0.4603  0.1122 -0.3262
 2750SOL     OW11070   1.049   1.189   4.476 -0.4788  0.2875  0.2954
 2750SOL    HW211071   0.984   1.126   4.508 -0.4389  0.1846  0.1735
 2750SOL    HW311072   1.019   1.273   4.510 -0.2697  0.1369  0.8544
 2750SOL    MW411073   1.036   1.192   4.485 -0.4461  0.2540  0.3529
 2751SOL     OW11074   2.154   1.436   4.600 -0.6727 -0.4374 -0.3999
 2751SOL    HW211075   2.095   1.502   4.562 -0.5772  0.1466  0.4597
 2751SOL    HW311076   2.105   1.354   4.596 -1.2598 -0.0886 -0.3541
 2751SOL    MW411077   2.140   1.434   4.594 -0.7377 -0.3145 -0.2809
 2752SOL     OW11078   1.304   1.676   4.237 -0.0198  0.1120  0.6898
 2752SOL    HW211079   1.234   1.621   4.202 -0.4154  0.2214  1.2998
 2752SOL    HW311080   1.385   1.627   4.219 -0.1413  0.4929 -1.0141
 2752SOL    MW411081   1.306   1.662   4.230 -0.0880  0.1767  0.5455
 2753SOL     OW11082   1.886   0.072   4.489 -0.0484  0.3101 -0.4095
 2753SOL    HW211083   1.881   0.166   4.506 -0.7930  0.6044 -2.1517
 2753SOL    HW311084   1.979   0.051   4.499 -0.0095  1.0416  0.8964
 2753SOL    MW411085   1.898   0.082   4.492 -0.1415  0.4454 -0.4673
 2754SOL     OW11086   2.189   1.168   4.140 -0.5098 -0.1381  0.1642
 2754SOL    HW211087   2.258   1.201   4.197 -0.0820 -0.4109 -0.1863
 2754SOL    HW311088   2.177   1.077   4.167  0.7397 -0.7182 -1.1505
 2754SOL    MW411089   2.197   1.160   4.151 -0.2887 -0.2507 -0.0553
 2755SOL     OW11090   1.972   3.102   4.122  0.0769 -0.5325  0.3028
 2755SOL    HW211091   1.986   3.088   4.028  0.4192 -0.3390  0.3206
 2755SOL    HW311092   1.984   3.016   4.162  5.2358  0.2181  0.7846
 2755SOL    MW411093   1.975   3.089   4.115  0.8028 -0.4082  0.3691
 2756SOL     OW11094   1.662   2.732   4.765 -0.3084  0.0151  0.1249
 2756SOL    HW211095   1.652   2.713   4.671  1.8819  2.1414 -0.5996
 2756SOL    HW311096   1.709   2.657   4.800 -0.5701 -0.5053 -0.6302
 2756SOL    MW411097   1.667   2.720   4.757 -0.0539  0.2267 -0.0701
 2757SOL     OW11098   0.197   4.106   4.476  0.1352 -0.5308 -0.1630
 2757SOL    HW211099   0.290   4.092   4.458  0.4829  0.7458  0.5589
 2757SOL    HW311100   0.152   4.076   4.397  1.3151  0.8097 -1.3751
 2757SOL    MW411101   0.203   4.100   4.463  0.3367 -0.1855 -0.2275
 2758SOL     OW11102   0.820   3.652   4.347  0.2959  0.2117  0.1275
 2758SOL    HW211103   0.830   3.590   4.275 -0.0739  1.9387 -1.4797
 2758SOL    HW311104   0.870   3.614   4.419  0.6026 -1.6145 -1.0087
 2758SOL    MW411105   0.828   3.639   4.347  0.2876  0.1984 -0.2337
 2759SOL     OW11106   1.876   2.918   4.818 -0.1441  0.0678  0.6061
 2759SOL    HW211107   1.793   2.875   4.800 -0.9056  1.8760 -0.3469
 2759SOL    HW311108   1.942   2.859   4.782 -1.0988 -0.8171  0.2997
 2759SOL    MW411109   1.874   2.905   4.811 -0.3707  0.1898  0.4401
 2760SOL     OW11110   0.802   1.014   4.471 -0.3732 -0.4135 -0.2015
 2760SOL    HW211111   0.721   0.964   4.473 -0.4003 -0.3530  0.4935
 2760SOL    HW311112   0.850   0.979   4.396 -0.9480 -0.5904 -0.4937
 2760SOL    MW411113   0.798   1.003   4.462 -0.4525 -0.4288 -0.1488
 2761SOL     OW11114   1.496   1.526   4.172  0.0690 -0.1428 -0.2298
 2761SOL    HW211115   1.575   1.573   4.197  0.2754 -0.7220  0.2166
 2761SOL    HW311116   1.504   1.441   4.214 -1.2060  0.1022  0.5570
 2761SOL    MW411117   1.507   1.521   4.181 -0.0719 -0.1869 -0.0668
 2762SOL     OW11118   4.002   3.705   4.749  0.1556  0.2130  0.1923
 2762SOL    HW211119   3.988   3.611   4.736 -0.8851  0.3143  0.5085
 2762SOL    HW311120   4.078   3.726   4.695 -0.3406 -0.5744 -0.8184
 2762SOL    MW411121   4.010   3.695   4.740 -0.0477  0.1225  0.1011
 2763SOL     OW11122   2.218   4.433   4.585 -0.3345  0.0204  0.0323
 2763SOL    HW211123   2.224   4.525   4.560  0.4293  0.8270  3.0679
 2763SOL    HW311124   2.304   4.396   4.564  0.2817  0.6725  1.4071
 2763SOL    MW411125   2.230   4.440   4.579 -0.1523  0.2131  0.6146
 2764SOL     OW11126   1.063   2.778   4.551 -0.3563  0.2399 -0.2912
 2764SOL    HW211127   1.005   2.702   4.566 -1.3052  0.8665 -0.7426
 2764SOL    HW311128   1.073   2.781   4.456  0.0844  0.3884 -0.2383
 2764SOL    MW411129   1.057   2.768   4.540 -0.4234  0.3424 -0.3443
 2765SOL     OW11130   3.139   2.113   4.588  0.1522  0.7712 -0.1419
 2765SOL    HW211131   3.079   2.182   4.617  0.0249  0.1867  0.9919
 2765SOL    HW311132   3.082   2.043   4.557  0.2549  0.5009  0.2765
 2765SOL    MW411133   3.123   2.113   4.588  0.1488  0.6585  0.0625
 2766SOL     OW11134   2.698   3.943   4.249  0.0207 -0.2083 -0.2051
 2766SOL    HW211135   2.686   4.035   4.225  0.2707  0.1787  1.1379
 2766SOL    HW311136   2.621   3.899   4.211  1.4125  0.0098 -3.4888
 2766SOL    MW411137   2.686   3.950   4.241  0.2375 -0.1285 -0.4611
 2767SOL     OW11138   0.144   1.257   4.231 -0.9208  0.2495  0.1549
 2767SOL    HW211139   0.153   1.299   4.316 -1.1537  2.7295 -0.9911
 2767SOL    HW311140   0.232   1.224   4.211 -0.4813  1.1541  0.5890
 2767SOL    MW411141   0.157   1.258   4.239 -0.8935  0.6959  0.0610
 2768SOL     OW11142   2.914   0.142   4.708  0.0118 -0.7546  0.1045
 2768SOL    HW211143   2.901   0.049   4.689 -0.9840 -0.9018  1.4282
 2768SOL    HW311144   2.916   0.147   4.804  2.0190  0.3414  0.0347
 2768SOL    MW411145   2.913   0.130   4.718  0.1454 -0.6294  0.2694
 2769SOL     OW11146   2.312   3.640   4.946  0.1059 -0.5593 -0.8166
 2769SOL    HW211147   2.287   3.711   4.887 -0.1189 -0.6614 -0.8449
 2769SOL    HW311148   2.400   3.663   4.975 -0.4993  0.4740  0.2926
 2769SOL    MW411149   2.320   3.652   4.942 -0.0036 -0.4363 -0.6742
 2770SOL     OW11150   2.643   0.363   4.134 -0.0326 -0.2061 -0.0121
 2770SOL    HW211151   2.669   0.370   4.042 -0.0374  0.2615  0.0214
 2770SOL    HW311152   2.714   0.406   4.182 -1.3079  1.9307  0.0106
 2770SOL    MW411153   2.656   0.370   4.128 -0.2017  0.1375 -0.0043
 2771SOL     OW11154   1.922   0.388   4.516 -0.2498 -0.0877 -0.0079
 2771SOL    HW211155   1.942   0.461   4.575  0.4079 -0.8150  0.6689
 2771SOL    HW311156   1.940   0.423   4.429  0.2952  0.4838  0.3295
 2771SOL    MW411157   1.927   0.402   4.512 -0.0911 -0.1082  0.1259
 2772SOL     OW11158   2.782   4.378   4.503  0.6669  0.4835  0.1253
 2772SOL    HW211159   2.847   4.433   4.546  0.8837  0.3475 -0.0269
 2772SOL    HW311160   2.783   4.296   4.553  0.7920  0.3901 -0.0286
 2772SOL    MW411161   2.791   4.374   4.515  0.7119  0.4530  0.0854
 2773SOL     OW11162   0.485   0.885   4.474 -0.4624  0.6648 -0.1512
 2773SOL    HW211163   0.397   0.923   4.476 -0.6330  0.2658 -0.1193
 2773SOL    HW311164   0.475   0.799   4.513 -0.3099  0.1080 -1.3077
 2773SOL    MW411165   0.472   0.879   4.479 -0.4648  0.5386 -0.2995
 2774SOL     OW11166   2.868   2.644   4.712 -0.4838 -0.1897  0.2846
 2774SOL    HW211167   2.842   2.570   4.767  0.9794  0.7311  2.3171
 2774SOL    HW311168   2.853   2.721   4.767 -0.4490  0.9070 -1.1990
 2774SOL    MW411169   2.863   2.645   4.727 -0.2861  0.0765  0.3576
 2775SOL     OW11170   2.950   1.933   4.505 -0.2060 -0.5488 -0.3541
 2775SOL    HW211171   2.933   1.980   4.423 -0.5517  1.4356  0.8069
 2775SOL    HW311172   2.864   1.920   4.544  0.0331 -0.5189  0.1924
 2775SOL    MW411173   2.937   1.938   4.499 -0.2198 -0.2829 -0.1292
 2776SOL     OW11174   1.747   1.098   4.579 -0.2534  0.6051 -0.4046
 2776SOL    HW211175   1.766   1.005   4.570  0.4995  0.6992  0.1956
 2776SOL    HW311176   1.654   1.106   4.559 -0.5989 -0.4516  0.7727
 2776SOL    MW411177   1.738   1.087   4.575 -0.1996  0.4780 -0.1698
 2777SOL     OW11178   1.104   3.837   4.160 -0.3627  0.4599 -0.2503
 2777SOL    HW211179   1.146   3.920   4.183 -0.0527 -0.0339  1.0191
 2777SOL    HW311180   1.011   3.857   4.157 -0.2465  0.9749 -0.4883
 2777SOL    MW411181   1.097   3.850   4.163 -0.3065  0.4628 -0.1144
 2778SOL     OW11182   3.086   2.707   4.557 -0.2171  0.2803 -0.1765
 2778SOL    HW211183   3.021   2.700   4.626 -0.9180 -0.4462 -0.9101
 2778SOL    HW311184   3.106   2.617   4.533  0.8200  0.5059 -0.1791
 2778SOL    MW411185   3.080   2.694   4.563 -0.1726  0.2143 -0.2732
 2779SOL     OW11186   2.335   2.506   4.826  0.2196 -0.0853 -0.7849
 2779SOL    HW211187   2.240   2.516   4.818 -0.1132 -2.2072  0.0585
 2779SOL    HW311188   2.354   2.524   4.918  0.2139 -2.3183 -0.3065
 2779SOL    MW411189   2.325   2.509   4.837  0.1752 -0.6597 -0.6108
 2780SOL     OW11190   2.479   3.075   4.567  0.0977  0.0885 -0.2713
 2780SOL    HW211191   2.395   3.068   4.521  1.1029 -0.2360 -2.1045
 2780SOL    HW311192   2.526   3.145   4.522  1.3815 -0.6970 -0.1726
 2780SOL    MW411193   2.474   3.083   4.555  0.3998 -0.0577 -0.5002
 2781SOL     OW11194   2.005   2.427   4.086 -0.2738  0.6058 -0.0796
 2781SOL    HW211195   1.918   2.449   4.120 -1.0088 -1.9318 -0.2056
 2781SOL    HW311196   1.990   2.404   3.994  0.4179 -0.4949  0.0764
 2781SOL    MW411197   1.992   2.427   4.078 -0.2797  0.1256 -0.0753
 2782SOL     OW11198   4.025   3.262   4.282  0.5291 -0.4444  0.2229
 2782SOL    HW211199   3.937   3.226   4.274  0.3647 -0.4178  1.7786
 2782SOL    HW311200   4.013   3.346   4.327  1.6394 -1.9613  3.4908
 2782SOL    MW411201   4.012   3.268   4.287  0.6537 -0.6409  0.8588
 2783SOL     OW11202   4.311   3.468   4.589  0.0121 -0.3303 -0.7496
 2783SOL    HW211203   4.406   3.460   4.600  0.0199  0.4259 -0.2356
 2783SOL    HW311204   4.294   3.562   4.595 -0.9119 -0.5597  0.3837
 2783SOL    MW411205   4.321   3.479   4.591 -0.1092 -0.2608 -0.5322
 2784SOL     OW11206   1.398   4.589   4.569 -0.0170 -0.1880 -0.4794
 2784SOL    HW211207   1.490   4.564   4.565  0.0846 -0.0323  0.7980
 2784SOL    HW311208   1.396   4.680   4.540  0.5295  0.5077  1.5822
 2784SOL    MW411209   1.410   4.597   4.565  0.0684 -0.0753 -0.0391
 2785SOL     OW11210   2.241   0.109   4.254 -0.0125 -0.4027 -0.5048
 2785SOL    HW211211   2.181   0.054   4.203  0.6301 -1.8713  0.2862
 2785SOL    HW311212   2.326   0.065   4.246  0.4700  0.3736  0.3082
 2785SOL    MW411213   2.244   0.096   4.246  0.1357 -0.4940 -0.2933
 2786SOL     OW11214   1.485   3.194   4.796 -0.2162 -0.3531 -0.2288
 2786SOL    HW211215   1.512   3.144   4.718 -1.0915 -0.4143 -0.4943
 2786SOL    HW311216   1.408   3.148   4.829  1.0864 -1.2737  1.6348
 2786SOL    MW411217   1.479   3.181   4.790 -0.1599 -0.4828 -0.0181
 2787SOL     OW11218   1.074   4.623   4.537  0.0618 -0.1825 -0.5651
 2787SOL    HW211219   1.136   4.606   4.608 -0.5779  0.8074  0.2479
 2787SOL    HW311220   1.126   4.616   4.457  1.3139  1.0532  0.1245
 2787SOL    MW411221   1.089   4.620   4.536  0.1426  0.1111 -0.3667
 2788SOL     OW11222   0.415   2.505   4.214  0.4864  0.3352  0.2158
 2788SOL    HW211223   0.424   2.519   4.309  0.9633  0.1554  0.1975
 2788SOL    HW311224   0.490   2.450   4.191 -2.0223 -3.4275  0.5212
 2788SOL    MW411225   0.426   2.500   4.224  0.2183 -0.1848  0.2537
 2789SOL     OW11226   1.833   3.427   4.554 -0.1292  0.0578  0.1277
 2789SOL    HW211227   1.761   3.488   4.566 -0.5114 -0.4864  0.6898
 2789SOL    HW311228   1.791   3.342   4.541  0.4200 -0.4651  1.6360
 2789SOL    MW411229   1.818   3.424   4.554 -0.1070 -0.0832  0.4015
 2790SOL     OW11230   0.083   4.358   4.544  0.3635 -0.3212  0.4673
 2790SOL    HW211231   0.122   4.380   4.628  1.3149 -1.5600  0.3708
 2790SOL    HW311232   0.133   4.282   4.514 -0.7249 -0.6016 -0.6710
 2790SOL    MW411233   0.095   4.351   4.551  0.3454 -0.5217  0.3042
 2791SOL     OW11234   1.870   3.180   4.931  0.0119  0.1795 -0.2665
 2791SOL    HW211235   1.873   3.089   4.901 -0.3179 -0.4019  1.4153
 2791SOL    HW311236   1.789   3.215   4.894 -0.3493 -0.4918 -0.1087
 2791SOL    MW411237   1.860   3.173   4.922 -0.0792  0.0141 -0.0238
 2792SOL     OW11238   3.748   4.323   4.130  0.1889 -0.0664  0.3186
 2792SOL    HW211239   3.829   4.314   4.179  0.1839  0.4263  0.4196
 2792SOL    HW311240   3.684   4.271   4.180 -0.1430  1.5096  1.5995
 2792SOL    MW411241   3.750   4.315   4.143  0.1442  0.2065  0.5012
 2793SOL     OW11242   2.029   3.321   4.738  0.6724  0.2606 -0.8544
 2793SOL    HW211243   1.972   3.355   4.669 -0.3324 -1.7893 -1.1015
 2793SOL    HW311244   1.968   3.287   4.804  1.6301  0.9123  0.3765
 2793SOL    MW411245   2.013   3.321   4.737  0.6661  0.0761 -0.7248
 2794SOL     OW11246   3.436   2.417   4.484  0.3563  0.3393  0.3452
 2794SOL    HW211247   3.434   2.325   4.510 -1.1680  0.2387 -0.0936
 2794SOL    HW311248   3.345   2.445   4.489  0.4791  1.1968 -1.7556
 2794SOL    MW411249   3.424   2.409   4.488  0.1714  0.4394  0.0100
 2795SOL     OW11250   1.839   1.838   4.602  0.0362  0.5714 -0.0548
 2795SOL    HW211251   1.826   1.882   4.518  1.3556  0.5741 -0.2644
 2795SOL    HW311252   1.877   1.905   4.658 -2.1847  0.9804  0.9858
 2795SOL    MW411253   1.842   1.853   4.598 -0.0827  0.6256  0.0548
 2796SOL     OW11254   1.781   0.826   4.543  0.5645  0.7045 -0.4462
 2796SOL    HW211255   1.704   0.774   4.565  0.0825  2.0016  1.0835
 2796SOL    HW311256   1.855   0.767   4.559 -0.0114  0.1899  0.3592
 2796SOL    MW411257   1.781   0.812   4.548  0.4249  0.8077 -0.1378
 2797SOL     OW11258   2.680   1.560   4.560 -0.4289 -0.2386  0.0262
 2797SOL    HW211259   2.688   1.578   4.466 -0.3336 -0.3280  0.0178
 2797SOL    HW311260   2.769   1.538   4.588 -0.2689  0.7977  0.3441
 2797SOL    MW411261   2.693   1.560   4.551 -0.3953 -0.1136  0.0672
 2798SOL     OW11262   4.230   0.209   4.549  0.7657 -0.3394 -0.1877
 2798SOL    HW211263   4.205   0.116   4.552 -0.1379 -0.0623  1.9318
 2798SOL    HW311264   4.323   0.208   4.529  0.9448 -1.7452  0.6160
 2798SOL    MW411265   4.239   0.197   4.547  0.6700 -0.4883  0.1979
 2799SOL     OW11266   3.295   3.109   4.593 -0.2696 -0.0307 -0.5003
 2799SOL    HW211267   3.200   3.118   4.594 -0.3404 -0.4030 -2.1367
 2799SOL    HW311268   3.310   3.017   4.574  0.4177 -0.1490  0.6286
 2799SOL    MW411269   3.284   3.098   4.590 -0.1881 -0.0954 -0.5670
 2800SOL     OW11270   2.934   1.248   4.529 -0.4285 -0.1069 -0.1586
 2800SOL    HW211271   2.874   1.180   4.558 -1.6140  0.9699 -0.0198
 2800SOL    HW311272   2.918   1.256   4.435  1.2514 -1.4916 -0.5931
 2800SOL    MW411273   2.924   1.240   4.521 -0.3633 -0.1475 -0.1979
 2801SOL     OW11274   3.361   1.594   4.620 -0.0382  0.4220  0.0992
 2801SOL    HW211275   3.293   1.635   4.568 -0.2902 -1.7168 -1.3384
 2801SOL    HW311276   3.315   1.529   4.673  0.8435 -1.0273 -0.8720
 2801SOL    MW411277   3.346   1.590   4.621  0.0451 -0.0515 -0.2184
 2802SOL     OW11278   2.697   2.468   4.225  0.2847 -0.1125 -0.1730
 2802SOL    HW211279   2.714   2.488   4.317  0.9829  1.0296 -0.5445
 2802SOL    HW311280   2.613   2.422   4.226 -0.4214  1.1547  0.8998
 2802SOL    MW411281   2.688   2.465   4.237  0.2835  0.2055 -0.0801
 2803SOL     OW11282   2.893   2.046   4.259  0.2229  0.9851  0.5104
 2803SOL    HW211283   2.834   1.990   4.209  1.2096  0.3435  0.0467
 2803SOL    HW311284   2.836   2.100   4.313 -0.8925  1.8312 -1.4555
 2803SOL    MW411285   2.878   2.046   4.259  0.2060  1.0121  0.1903
 2804SOL     OW11286   2.465   2.318   4.167 -0.0144 -0.8996  0.1015
 2804SOL    HW211287   2.452   2.333   4.074 -0.2717  0.9410  0.4108
 2804SOL    HW311288   2.385   2.353   4.208  0.9877  0.2377  1.1494
 2804SOL    MW411289   2.453   2.325   4.160  0.0837 -0.5066  0.2809
 2805SOL     OW11290   0.069   0.875   4.249  0.0099 -0.1888  0.0256
 2805SOL    HW211291   0.132   0.818   4.205 -0.6884  0.1603 -1.4813
 2805SOL    HW311292   0.004   0.895   4.181 -0.7870  0.8428  1.0716
 2805SOL    MW411293   0.069   0.870   4.234 -0.1874 -0.0066 -0.0353
 2806SOL     OW11294   0.609   3.119   4.608  0.0600  0.0298 -0.0960
 2806SOL    HW211295   0.584   3.188   4.670  0.7284 -0.1115  0.3346
 2806SOL    HW311296   0.698   3.142   4.581  0.2709 -0.6454  0.0250
 2806SOL    MW411297   0.617   3.131   4.613  0.1760 -0.0780 -0.0234
 2807SOL     OW11298   2.216   4.014   4.446  0.1175  0.1177 -0.3179
 2807SOL    HW211299   2.154   4.085   4.463 -0.1448 -0.3889  0.9003
 2807SOL    HW311300   2.298   4.044   4.484  1.1026  1.5234 -3.4241
 2807SOL    MW411301   2.218   4.027   4.453  0.2129  0.2365 -0.5674
 2808SOL     OW11302   2.676   0.896   4.264  0.4166  0.0091 -0.1276
 2808SOL    HW211303   2.597   0.867   4.217  0.5128  0.3665 -0.5157
 2808SOL    HW311304   2.744   0.834   4.239  0.4775  0.2211 -0.4974
 2808SOL    MW411305   2.674   0.884   4.255  0.4373  0.0843 -0.2279
 2809SOL     OW11306   3.444   3.501   4.519 -0.0863  0.1442 -0.2625
 2809SOL    HW211307   3.480   3.412   4.529 -0.6053  0.0068  0.4508
 2809SOL    HW311308   3.517   3.558   4.542  0.1019 -0.1100 -0.2197
 2809SOL    MW411309   3.459   3.497   4.524 -0.1302  0.0925 -0.1626
 2810SOL     OW11310   2.878   0.022   4.167  0.1221  0.1549 -0.2974
 2810SOL    HW211311   2.961   0.049   4.205  0.0237  1.9721 -1.3210
 2810SOL    HW311312   2.811   0.068   4.217 -0.2857 -1.1832  0.4261
 2810SOL    MW411313   2.880   0.032   4.178  0.0556  0.2181 -0.3366
 2811SOL     OW11314   3.076   4.099   4.594  0.3093 -0.0117 -0.3813
 2811SOL    HW211315   3.104   4.020   4.642 -0.5988 -0.8715 -1.2511
 2811SOL    HW311316   2.985   4.111   4.620  0.1319  0.1325 -1.0678
 2811SOL    MW411317   3.068   4.090   4.604  0.1662 -0.1059 -0.5865
 2812SOL     OW11318   1.569   3.615   4.291  0.3534 -0.0855 -0.5029
 2812SOL    HW211319   1.480   3.588   4.269 -0.6332  1.8625  0.9261
 2812SOL    HW311320   1.586   3.575   4.376  1.4469 -1.6864 -1.4390
 2812SOL    MW411321   1.560   3.607   4.299  0.3675 -0.0393 -0.4377
 2813SOL     OW11322   1.487   3.863   4.558  0.2911 -0.1353  0.1639
 2813SOL    HW211323   1.522   3.878   4.470  1.2386 -0.4443  0.4762
 2813SOL    HW311324   1.393   3.851   4.545  0.3430  0.4134 -0.7353
 2813SOL    MW411325   1.479   3.863   4.544  0.4230 -0.1037  0.0873
 2814SOL     OW11326   1.553   0.664   4.597 -0.3425 -0.3543 -0.4553
 2814SOL    HW211327   1.489   0.725   4.561 -1.0440  0.0734  1.4685
 2814SOL    HW311328   1.504   0.613   4.661  0.9690 -0.8247  0.1874
 2814SOL    MW411329   1.539   0.665   4.601 -0.2620 -0.3600 -0.1163
 2815SOL     OW11330   1.066   1.539   4.838  0.5350 -0.3407 -0.2634
 2815SOL    HW211331   1.099   1.625   4.810 -1.2039  0.1022 -0.9806
 2815SOL    HW311332   0.975   1.555   4.863  0.8765 -1.5169  1.8598
 2815SOL    MW411333   1.058   1.553   4.838  0.3507 -0.4374 -0.0772
 2816SOL     OW11334   2.430   0.549   4.247 -0.3953  0.0471 -0.2470
 2816SOL    HW211335   2.500   0.491   4.219 -0.3145 -0.0137  0.0839
 2816SOL    HW311336   2.350   0.506   4.218 -0.2793  0.3079 -0.9786
 2816SOL    MW411337   2.429   0.536   4.239 -0.3693  0.0734 -0.2995
 2817SOL     OW11338   1.068   2.504   4.960 -0.2600 -0.1516  0.3262
 2817SOL    HW211339   1.153   2.504   5.004  0.4537  1.7145 -0.9792
 2817SOL    HW311340   1.026   2.584   4.989 -1.0741 -0.4661  0.0213
 2817SOL    MW411341   1.074   2.514   4.970 -0.2732  0.0527  0.1140
 2818SOL     OW11342   4.002   0.084   4.248  0.2671 -0.3147 -0.6035
 2818SOL    HW211343   3.924   0.070   4.195  0.5712 -0.2864 -1.0560
 2818SOL    HW311344   3.982   0.161   4.301 -1.0417 -1.8474  1.1924
 2818SOL    MW411345   3.989   0.092   4.248  0.1347 -0.5132 -0.4258
 2819SOL     OW11346   0.832   3.449   4.149 -0.1807 -0.2812  0.3960
 2819SOL    HW211347   0.863   3.468   4.060 -0.2511  0.2121  0.4795
 2819SOL    HW311348   0.737   3.441   4.140 -0.5319  2.8919  0.9871
 2819SOL    MW411349   0.824   3.450   4.136 -0.2363  0.2027  0.4845
 2820SOL     OW11350   1.292   3.185   4.508 -0.3366  0.3429 -0.0199
 2820SOL    HW211351   1.312   3.265   4.557  0.3558 -1.4759  2.7358
 2820SOL    HW311352   1.366   3.127   4.526 -1.8536 -1.6997 -0.2764
 2820SOL    MW411353   1.304   3.188   4.517 -0.4454 -0.1664  0.3095
 2821SOL     OW11354   1.628   0.399   4.512  0.1974  0.0337 -0.3411
 2821SOL    HW211355   1.614   0.486   4.549  0.4282 -0.4888  0.9819
 2821SOL    HW311356   1.722   0.384   4.521 -0.1173 -1.1445  1.2348
 2821SOL    MW411357   1.639   0.409   4.518  0.1862 -0.1907  0.0410
 2822SOL     OW11358   3.924   0.698   4.588 -0.0335 -0.0667 -0.1978
 2822SOL    HW211359   3.947   0.703   4.495 -1.2633 -1.1143 -0.5846
 2822SOL    HW311360   3.912   0.789   4.615  2.1907  0.3584 -0.5614
 2822SOL    MW411361   3.925   0.710   4.579  0.0980 -0.1488 -0.2966
 2823SOL     OW11362   3.805   0.462   4.522 -0.2162 -0.1594  0.1717
 2823SOL    HW211363   3.757   0.503   4.450  0.5216 -0.5649 -0.5691
 2823SOL    HW311364   3.850   0.535   4.565  0.4307 -0.0720 -0.6317
 2823SOL    MW411365   3.805   0.477   4.518 -0.0336 -0.2013 -0.0319
 2824SOL     OW11366   0.255   0.694   4.166  0.0438  0.3556 -0.7564
 2824SOL    HW211367   0.334   0.744   4.186  1.0548 -1.3275 -0.5018
 2824SOL    HW311368   0.279   0.603   4.183 -2.4800 -0.0268  1.0400
 2824SOL    MW411369   0.268   0.689   4.171 -0.1558  0.0831 -0.4859
 2825SOL     OW11370   3.340   2.851   4.516  0.0808 -0.2335  0.1398
 2825SOL    HW211371   3.352   2.864   4.422  1.1803 -0.3604  0.2528
 2825SOL    HW311372   3.261   2.797   4.523 -0.7029  0.7854 -0.6431
 2825SOL    MW411373   3.331   2.846   4.504  0.1228 -0.1159  0.0510
 2826SOL     OW11374   4.227   0.403   4.738 -0.1067  0.1306 -0.1850
 2826SOL    HW211375   4.217   0.324   4.685 -0.2117  0.2365 -0.3236
 2826SOL    HW311376   4.258   0.371   4.822 -2.1062 -0.2590  0.4343
 2826SOL    MW411377   4.230   0.389   4.742 -0.3843  0.0932 -0.1211
 2827SOL     OW11378   2.245   3.043   4.441 -0.1856  0.2058 -0.5261
 2827SOL    HW211379   2.169   3.049   4.499  0.8119  0.7473  0.7498
 2827SOL    HW311380   2.232   3.113   4.377  0.4514  1.9533  1.1903
 2827SOL    MW411381   2.233   3.053   4.441  0.0300  0.5078 -0.1311
 2828SOL     OW11382   3.241   1.373   4.759 -0.3054  0.1097 -0.1213
 2828SOL    HW211383   3.218   1.287   4.724 -0.0185  0.8179 -2.1037
 2828SOL    HW311384   3.158   1.409   4.790 -0.5696 -0.5108 -0.1028
 2828SOL    MW411385   3.227   1.367   4.759 -0.3026  0.1214 -0.3805
 2829SOL     OW11386   3.112   1.705   4.501 -0.2325  0.1627  0.3193
 2829SOL    HW211387   3.117   1.695   4.406 -1.5188 -0.2867  0.2849
 2829SOL    HW311388   3.067   1.788   4.514 -0.5676 -0.0472  0.5221
 2829SOL    MW411389   3.106   1.714   4.490 -0.4466  0.0757  0.3414
 2830SOL     OW11390   0.249   3.487   4.405 -0.0585  0.0688  0.1371
 2830SOL    HW211391   0.326   3.541   4.422 -0.0101  0.4924 -1.3157
 2830SOL    HW311392   0.201   3.535   4.338 -1.4514 -0.3392  0.8313
 2830SOL    MW411393   0.253   3.500   4.398 -0.2359  0.0710  0.0372
 2831SOL     OW11394   3.551   1.401   4.570 -0.4355  0.4212 -0.2416
 2831SOL    HW211395   3.523   1.344   4.641 -1.1315  1.4023  0.2849
 2831SOL    HW311396   3.487   1.472   4.569  0.3550  1.1424 -0.9464
 2831SOL    MW411397   3.539   1.403   4.579 -0.4230  0.6458 -0.2651
 2832SOL     OW11398   2.555   2.420   4.672  0.4034  0.1837 -0.3611
 2832SOL    HW211399   2.535   2.329   4.649  0.4609  0.4759 -1.6106
 2832SOL    HW311400   2.473   2.454   4.709  0.3684 -0.3577  0.0646
 2832SOL    MW411401   2.542   2.412   4.674  0.4065  0.1509 -0.4697
 2833SOL     OW11402   3.770   3.883   4.176 -0.0422  0.4270 -0.0579
 2833SOL    HW211403   3.781   3.818   4.245 -2.3479  1.2764  1.1555
 2833SOL    HW311404   3.826   3.956   4.202  1.5638 -0.5076 -0.7747
 2833SOL    MW411405   3.779   3.884   4.189 -0.1345  0.4158  0.0076
 2834SOL     OW11406   3.231   3.564   4.697 -0.3313  0.2474  0.1382
 2834SOL    HW211407   3.205   3.488   4.749  0.4997 -0.6625 -0.7529
 2834SOL    HW311408   3.306   3.534   4.645  0.7157  1.9974  0.5739
 2834SOL    MW411409   3.237   3.550   4.697 -0.0834  0.3581  0.0777
 2835SOL     OW11410   3.146   2.470   4.205  0.2453  0.0100 -0.3903
 2835SOL    HW211411   3.066   2.421   4.188  0.2538 -0.1114 -0.0842
 2835SOL    HW311412   3.131   2.556   4.164  0.1313 -0.1591 -0.7019
 2835SOL    MW411413   3.134   2.475   4.197  0.2315 -0.0281 -0.3910
 2836SOL     OW11414   1.995   3.844   4.561 -0.1819 -0.1177  0.0938
 2836SOL    HW211415   2.061   3.898   4.518 -1.2038  1.1390  0.0592
 2836SOL    HW311416   2.002   3.758   4.518  1.8968 -0.2166  0.6126
 2836SOL    MW411417   2.004   3.840   4.550 -0.0424  0.0348  0.1583
 2837SOL     OW11418   2.303   3.535   4.597  0.3695  0.0997  0.8429
 2837SOL    HW211419   2.217   3.539   4.554 -0.1172  0.3789  1.8312
 2837SOL    HW311420   2.292   3.470   4.666  2.1011 -2.8235 -1.5115
 2837SOL    MW411421   2.290   3.527   4.600  0.5336 -0.2494  0.6628
 2838SOL     OW11422   1.821   3.987   4.390 -0.2209  0.6659  0.5472
 2838SOL    HW211423   1.797   4.073   4.425 -0.8685 -0.0648  1.9085
 2838SOL    HW311424   1.867   3.944   4.462 -0.7515 -0.5054  0.1885
 2838SOL    MW411425   1.824   3.993   4.404 -0.3763  0.4148  0.6795
 2839SOL     OW11426   3.569   2.691   4.485  0.2763  0.2485 -0.0660
 2839SOL    HW211427   3.534   2.601   4.480  1.7896 -0.4344  1.3453
 2839SOL    HW311428   3.491   2.745   4.500 -0.7425 -0.7294 -1.5866
 2839SOL    MW411429   3.554   2.686   4.486  0.3414  0.0293 -0.0806
 2840SOL     OW11430   0.437   3.013   4.433 -0.1365  0.3676 -0.3012
 2840SOL    HW211431   0.503   3.045   4.494  0.2536 -0.1361 -0.4537
 2840SOL    HW311432   0.421   3.086   4.373  0.9818  0.1722 -0.8401
 2840SOL    MW411433   0.443   3.027   4.433  0.0626  0.2754 -0.3920
 2841SOL     OW11434   3.175   3.860   4.716  0.2815 -0.3712  0.0266
 2841SOL    HW211435   3.181   3.769   4.747 -0.6014 -0.0243  1.2640
 2841SOL    HW311436   3.259   3.876   4.674  0.7272 -1.5407  0.4293
 2841SOL    MW411437   3.187   3.850   4.715  0.2241 -0.4799  0.2427
 2842SOL     OW11438   2.234   0.695   4.651  0.1102 -0.6481  0.5229
 2842SOL    HW211439   2.311   0.644   4.624 -0.3389 -1.9230  1.5679
 2842SOL    HW311440   2.247   0.781   4.611  1.8269 -0.9997  0.2587
 2842SOL    MW411441   2.246   0.699   4.642  0.2775 -0.8627  0.6256
 2843SOL     OW11442   3.760   3.829   4.779 -0.3541 -0.0191  0.3481
 2843SOL    HW211443   3.846   3.786   4.771  0.2902  1.1419  0.8299
 2843SOL    HW311444   3.743   3.831   4.873 -1.9889 -2.2744  0.1388
 2843SOL    MW411445   3.769   3.823   4.790 -0.4847 -0.1636  0.3843
 2844SOL     OW11446   0.884   1.757   4.222 -0.2789  0.1103 -0.0972
 2844SOL    HW211447   0.862   1.846   4.194 -2.2536 -0.2265  0.2688
 2844SOL    HW311448   0.855   1.753   4.313  0.8800 -0.5423  0.2490
 2844SOL    MW411449   0.877   1.768   4.230 -0.3865 -0.0203 -0.0033
 2845SOL     OW11450   4.343   0.973   4.419 -0.1494 -0.3270 -0.0078
 2845SOL    HW211451   4.415   0.945   4.363 -0.6089  0.4083 -0.9866
 2845SOL    HW311452   4.364   0.937   4.505  0.5111 -1.5706 -0.6789
 2845SOL    MW411453   4.355   0.964   4.423 -0.1230 -0.3941 -0.2255
 2846SOL     OW11454   3.111   4.278   4.149  0.3699  0.5513  0.2807
 2846SOL    HW211455   3.100   4.189   4.183 -0.8815 -0.4965 -2.6725
 2846SOL    HW311456   3.036   4.327   4.184 -0.1670 -0.1509  0.1277
 2846SOL    MW411457   3.100   4.273   4.158  0.1340  0.3200 -0.1287
 2847SOL     OW11458   2.184   1.716   4.267  0.6054  0.1238 -0.2488
 2847SOL    HW211459   2.140   1.734   4.351  1.2373  2.5383 -0.4071
 2847SOL    HW311460   2.121   1.662   4.219 -0.5918  0.3406  1.0135
 2847SOL    MW411461   2.170   1.711   4.272  0.5305  0.4708 -0.1035
 2848SOL     OW11462   1.470   1.142   4.508 -0.2078  0.1089  0.1909
 2848SOL    HW211463   1.484   1.216   4.568 -0.8726 -0.7462  1.4378
 2848SOL    HW311464   1.397   1.094   4.547 -1.5309  0.2773 -2.0562
 2848SOL    MW411465   1.462   1.145   4.521 -0.4700  0.0184  0.0587
 2849SOL     OW11466   1.018   2.456   4.513 -0.3273 -0.2158  0.1205
 2849SOL    HW211467   1.105   2.455   4.473  0.2828  2.4276  1.2403
 2849SOL    HW311468   0.957   2.446   4.440  0.8721  0.0660 -0.9320
 2849SOL    MW411469   1.021   2.455   4.498 -0.0886  0.1700  0.1297
 2850SOL     OW11470   3.608   1.763   4.546  0.1377 -0.2111 -0.2132
 2850SOL    HW211471   3.546   1.716   4.601  1.1119  0.1883  1.2429
 2850SOL    HW311472   3.586   1.736   4.457 -0.6929 -1.7775  0.4527
 2850SOL    MW411473   3.597   1.753   4.541  0.1566 -0.3650  0.0668
 2851SOL     OW11474   4.246   1.576   4.076 -0.7286  0.0176  0.1984
 2851SOL    HW211475   4.334   1.607   4.096 -0.2743 -1.6517  0.9165
 2851SOL    HW311476   4.250   1.552   3.983  0.0622 -1.5133  0.5980
 2851SOL    MW411477   4.258   1.577   4.066 -0.5636 -0.4045  0.3462
 2852SOL     OW11478   4.139   1.759   4.481  0.1310  0.6546  0.0203
 2852SOL    HW211479   4.157   1.852   4.487  0.7660  0.4243  1.9175
 2852SOL    HW311480   4.044   1.752   4.484  0.0640  1.2580 -0.6014
 2852SOL    MW411481   4.129   1.770   4.482  0.2065  0.7039  0.1884
 2853SOL     OW11482   3.294   3.853   4.338  0.1622 -0.0374  0.0943
 2853SOL    HW211483   3.231   3.916   4.303 -0.3950 -0.9020 -0.4694
 2853SOL    HW311484   3.368   3.858   4.277  0.8862  1.3854  1.0709
 2853SOL    MW411485   3.296   3.862   4.325  0.1841  0.0362  0.1483
 2854SOL     OW11486   4.007   2.441   4.253  0.1290  0.7178 -0.1839
 2854SOL    HW211487   4.026   2.528   4.217  1.0219  0.0499 -1.3794
 2854SOL    HW311488   3.927   2.414   4.208  0.0458  0.7812 -0.0733
 2854SOL    MW411489   3.999   2.449   4.242  0.2358  0.6380 -0.3271
 2855SOL     OW11490   3.344   3.590   4.289 -0.2040 -0.5084 -0.2018
 2855SOL    HW211491   3.315   3.677   4.317  1.4746 -0.0243  0.1414
 2855SOL    HW311492   3.371   3.546   4.370  1.6717 -0.2595 -0.6502
 2855SOL    MW411493   3.344   3.596   4.303  0.2651 -0.4117 -0.2155
 2856SOL     OW11494   2.475   3.176   4.844  0.5759 -0.2692  0.4435
 2856SOL    HW211495   2.475   3.140   4.755 -0.0354  1.5659 -0.3277
 2856SOL    HW311496   2.426   3.258   4.836 -0.6381 -0.7423  2.7535
 2856SOL    MW411497   2.468   3.182   4.831  0.3350 -0.0894  0.6471
 2857SOL     OW11498   3.938   1.606   4.748 -0.4559 -0.2251  0.2032
 2857SOL    HW211499   3.906   1.688   4.712 -0.2795 -0.1644  0.1818
 2857SOL    HW311500   4.028   1.625   4.775 -0.5582 -0.2980  0.5914
 2857SOL    MW411501   3.946   1.619   4.747 -0.4461 -0.2265  0.2513
 2858SOL     OW11502   2.752   3.204   4.816 -0.4285  0.1316  0.0103
 2858SOL    HW211503   2.782   3.113   4.818 -0.5144  0.0894 -0.4815
 2858SOL    HW311504   2.659   3.198   4.838  0.0278  0.3180  2.0791
 2858SOL    MW411505   2.743   3.191   4.819 -0.3798  0.1509  0.2189
 2859SOL     OW11506   0.329   2.729   4.506  0.2700 -0.2393 -0.4782
 2859SOL    HW211507   0.247   2.748   4.460  0.8204 -0.0593 -1.3812
 2859SOL    HW311508   0.375   2.813   4.508  0.9787 -0.6150 -1.0494
 2859SOL    MW411509   0.324   2.743   4.500  0.4362 -0.2649 -0.6723
 2860SOL     OW11510   2.716   3.676   4.650 -0.0078 -0.2011  0.7751
 2860SOL    HW211511   2.807   3.653   4.632  0.2646  1.8855 -0.6158
 2860SOL    HW311512   2.665   3.625   4.587  0.3475  0.2661  0.1054
 2860SOL    MW411513   2.721   3.666   4.640  0.0751  0.1359  0.5035
 2861SOL     OW11514   3.971   4.049   4.226 -0.3179 -0.6039  0.3719
 2861SOL    HW211515   3.973   4.145   4.229 -3.6191 -0.4204 -1.3373
 2861SOL    HW311516   3.960   4.023   4.317 -1.3402  0.7317  0.6463
 2861SOL    MW411517   3.970   4.058   4.238 -0.8883 -0.4029  0.1826
 2862SOL     OW11518   2.780   2.421   4.836  0.1476  0.2425  0.5847
 2862SOL    HW211519   2.749   2.463   4.917 -0.7894 -0.5884  0.6675
 2862SOL    HW311520   2.701   2.407   4.784  0.5466 -0.6494  0.1973
 2862SOL    MW411521   2.765   2.425   4.840  0.0768  0.0150  0.5445
 2863SOL     OW11522   0.597   2.885   4.262  0.1726 -0.7454 -0.0469
 2863SOL    HW211523   0.531   2.838   4.212 -0.3834  0.3864 -0.4075
 2863SOL    HW311524   0.548   2.920   4.337  0.1588  0.8232 -0.7679
 2863SOL    MW411525   0.581   2.884   4.265  0.0974 -0.3891 -0.1898
 2864SOL     OW11526   0.279   1.065   4.426 -0.1165 -0.0021  0.8611
 2864SOL    HW211527   0.257   1.141   4.479  0.0167 -0.6397  1.8492
 2864SOL    HW311528   0.210   1.062   4.359  0.1963  1.2938  0.4804
 2864SOL    MW411529   0.267   1.074   4.424 -0.0577  0.0846  0.9408
 2865SOL     OW11530   4.211   0.653   4.614 -0.2186 -0.2652 -0.0748
 2865SOL    HW211531   4.122   0.688   4.615 -0.5482 -1.1099  0.0447
 2865SOL    HW311532   4.205   0.568   4.657  0.6459 -0.3267 -0.0585
 2865SOL    MW411533   4.199   0.647   4.620 -0.1478 -0.3848 -0.0567
 2866SOL     OW11534   3.560   0.084   4.286 -0.1362 -0.3427 -0.2046
 2866SOL    HW211535   3.628   0.062   4.222 -0.8709 -0.1839 -1.0461
 2866SOL    HW311536   3.525   0.168   4.255 -1.5361 -1.0164 -0.4575
 2866SOL    MW411537   3.565   0.092   4.273 -0.4177 -0.4106 -0.3490
 2867SOL     OW11538   3.801   1.172   4.835  0.3392  0.1850 -0.2042
 2867SOL    HW211539   3.808   1.254   4.786  0.1604  0.4058  0.1372
 2867SOL    HW311540   3.883   1.165   4.883 -0.3682  1.0859  1.1824
 2867SOL    MW411541   3.813   1.182   4.835  0.2222  0.3328  0.0238
 2868SOL     OW11542   1.077   1.242   4.199  0.7074  0.1941  0.0955
 2868SOL    HW211543   1.068   1.218   4.292 -0.2583  0.9146  0.1896
 2868SOL    HW311544   0.995   1.215   4.159  1.1892 -0.2717 -0.6035
 2868SOL    MW411545   1.065   1.235   4.206  0.6436  0.2277  0.0162
 2869SOL     OW11546   3.777   3.658   4.361 -0.1638  0.0049 -0.0360
 2869SOL    HW211547   3.714   3.606   4.311 -0.8024 -0.1372  0.8983
 2869SOL    HW311548   3.845   3.596   4.385 -0.7666 -0.3428  0.8074
 2869SOL    MW411549   3.778   3.643   4.357 -0.3278 -0.0598  0.1984
 2870SOL     OW11550   4.318   4.393   4.456  0.1510  0.2159 -0.4658
 2870SOL    HW211551   4.282   4.469   4.501  0.7994  0.7057 -0.7661
 2870SOL    HW311552   4.405   4.382   4.493  0.6407  0.5494 -1.5226
 2870SOL    MW411553   4.324   4.401   4.467  0.3004  0.3252 -0.6452
 2871SOL     OW11554   4.436   0.855   4.644 -0.0376  0.2978  0.1062
 2871SOL    HW211555   4.519   0.823   4.607  0.8839  1.7967  0.8152
 2871SOL    HW311556   4.381   0.777   4.650  1.2138 -0.6719 -0.6734
 2871SOL    MW411557   4.440   0.841   4.640  0.2489  0.3676  0.0968
 2872SOL     OW11558   2.935   2.291   4.624  0.2520 -0.1210 -0.4627
 2872SOL    HW211559   2.893   2.331   4.700 -0.2292  0.5157 -1.0463
 2872SOL    HW311560   2.864   2.246   4.578  0.4026  0.0754 -0.8925
 2872SOL    MW411561   2.920   2.291   4.628  0.2081 -0.0112 -0.5965
 2873SOL     OW11562   1.767   3.165   4.524  0.1260  0.0779  0.3497
 2873SOL    HW211563   1.837   3.105   4.550  0.8597  0.8582  0.1631
 2873SOL    HW311564   1.763   3.158   4.429  1.2619  1.4967  0.1922
 2873SOL    MW411565   1.775   3.156   4.515  0.3728  0.3681  0.3042
 2874SOL     OW11566   4.211   2.052   4.211 -0.1600  0.1243 -0.3995
 2874SOL    HW211567   4.133   2.006   4.179 -0.7513  0.4926  0.4901
 2874SOL    HW311568   4.189   2.076   4.301  0.7344  0.8015 -0.3591
 2874SOL    MW411569   4.198   2.049   4.219 -0.1202  0.2623 -0.2770
 2875SOL     OW11570   0.631   1.309   4.207  0.4906  0.3604  0.0986
 2875SOL    HW211571   0.627   1.298   4.302 -0.1186 -0.5554 -0.0198
 2875SOL    HW311572   0.651   1.401   4.194 -0.5278  0.7324  1.0967
 2875SOL    MW411573   0.633   1.319   4.218  0.2758  0.2885  0.2146
 2876SOL     OW11574   0.638   2.200   4.541  0.1214 -0.3528 -0.4428
 2876SOL    HW211575   0.548   2.199   4.575  0.0724  1.2898 -0.4741
 2876SOL    HW311576   0.629   2.172   4.450 -0.4168  0.2589 -0.5796
 2876SOL    MW411577   0.625   2.196   4.534  0.0439 -0.0556 -0.4649
 2877SOL     OW11578   3.595   1.950   4.177  0.0690 -0.9057  0.2877
 2877SOL    HW211579   3.620   1.954   4.085 -0.2620 -0.2571  0.2241
 2877SOL    HW311580   3.675   1.971   4.225 -0.1881  0.5990  0.0991
 2877SOL    MW411581   3.608   1.953   4.171 -0.0086 -0.6216  0.2542
 2878SOL     OW11582   3.657   2.040   4.599 -0.0440 -0.2212  0.1429
 2878SOL    HW211583   3.570   2.080   4.594  0.4088  0.9687  1.3561
 2878SOL    HW311584   3.641   1.946   4.600 -1.2737 -0.0213 -0.3639
 2878SOL    MW411585   3.644   2.033   4.599 -0.1464 -0.0379  0.2360
 2879SOL     OW11586   3.771   2.302   4.160  0.1813 -0.0445  0.2048
 2879SOL    HW211587   3.698   2.351   4.196  0.3642 -0.2076  0.8018
 2879SOL    HW311588   3.766   2.317   4.065  0.6061  1.6328  0.4244
 2879SOL    MW411589   3.761   2.310   4.152  0.2615  0.1554  0.3133
 2880SOL     OW11590   2.621   2.852   4.628  0.2003  0.3609 -0.0588
 2880SOL    HW211591   2.696   2.856   4.568  1.3304  0.4595  1.3211
 2880SOL    HW311592   2.575   2.934   4.615 -0.1150 -0.0393 -1.4850
 2880SOL    MW411593   2.625   2.863   4.619  0.3080  0.3211 -0.0648
 2881SOL     OW11594   0.826   3.859   4.145  0.4266 -0.1657  0.0430
 2881SOL    HW211595   0.776   3.923   4.197  2.7477 -0.1008  2.3395
 2881SOL    HW311596   0.832   3.783   4.202  2.3074 -0.4216 -0.4765
 2881SOL    MW411597   0.820   3.858   4.160  0.9810 -0.1907  0.2770
 2882SOL     OW11598   0.740   0.461   4.147 -0.1085  0.3034  0.0754
 2882SOL    HW211599   0.657   0.415   4.160  0.0704 -0.1200 -0.2834
 2882SOL    HW311600   0.716   0.553   4.142 -0.4762  0.2462  0.7333
 2882SOL    MW411601   0.726   0.467   4.148 -0.1334  0.2401  0.1149
 2883SOL     OW11602   4.063   3.554   4.153 -0.2633 -0.2992  0.2290
 2883SOL    HW211603   4.043   3.647   4.163 -1.2096 -0.4905  0.1619
 2883SOL    HW311604   4.036   3.533   4.064  1.3092 -0.3064 -0.2545
 2883SOL    MW411605   4.056   3.564   4.143 -0.1807 -0.3254  0.1564
 2884SOL     OW11606   1.401   0.113   4.213 -0.3126  0.4845  0.1903
 2884SOL    HW211607   1.328   0.054   4.197 -0.3446  0.7691 -0.7567
 2884SOL    HW311608   1.388   0.143   4.303 -1.5054  0.7186 -0.0416
 2884SOL    MW411609   1.389   0.109   4.223 -0.4745  0.5529  0.0343
 2885SOL     OW11610   3.920   4.461   4.550 -0.5278 -1.2223 -0.6402
 2885SOL    HW211611   3.932   4.392   4.615  0.5063  0.7807  1.3443
 2885SOL    HW311612   3.839   4.505   4.577  0.0962 -0.1616 -0.4708
 2885SOL    MW411613   3.911   4.457   4.562 -0.3088 -0.8178 -0.3562
 2886SOL     OW11614   3.994   3.387   4.711  0.0089 -0.1083 -0.0023
 2886SOL    HW211615   3.911   3.340   4.717 -0.1094 -0.0776 -1.1957
 2886SOL    HW311616   4.055   3.323   4.676  0.5471 -0.1974  1.0981
 2886SOL    MW411617   3.991   3.373   4.707  0.0644 -0.1159 -0.0148
 2887NA      NA11618   0.213   0.480   0.716  0.1427 -0.1276  0.3360
 2888NA      NA11619   2.509   4.386   0.480 -0.1791 -0.2392  0.5130
   4.49070   4.66690  10.00000
