Gromacs Runs On Most of All Computer Systems in water
11558
    1RG35     P    1   2.288   2.818   4.095  0.1936  0.0932  0.1880
    1RG35   O1P    2   2.326   2.937   4.021  0.2403 -0.0367 -0.2179
    1RG35   O2P    3   2.398   2.729   4.119 -0.4493  0.5508 -0.2998
    1RG35   O5'    4   2.250   2.860   4.244  0.0297  0.2738  0.1155
    1RG35   C5'    5   2.204   2.991   4.285  0.2422  0.3420  0.6039
    1RG35  H5'1    6   2.108   3.021   4.243  1.0592  0.9299 -0.9046
    1RG35  H5'2    7   2.279   3.063   4.252 -0.3183  0.2713 -0.8375
    1RG35   C4'    8   2.174   3.002   4.437 -0.2368  0.3415  0.0362
    1RG35   H4'    9   2.132   3.101   4.451 -2.0673 -0.2162 -1.3541
    1RG35   O4'   10   2.060   2.910   4.473  0.0541  0.2921 -0.0357
    1RG35   C1'   11   2.106   2.841   4.588  0.2429 -0.2484 -0.1029
    1RG35   H1'   12   2.088   2.906   4.674 -1.6324 -0.8875  0.0174
    1RG35    N9   13   2.041   2.711   4.607  0.1108 -0.5792  0.1807
    1RG35    C8   14   1.955   2.681   4.709 -0.0961 -0.0832 -0.1949
    1RG35    H8   15   1.927   2.747   4.790  0.0918 -0.5479  0.2476
    1RG35    N7   16   1.895   2.570   4.692  0.0033  0.5752 -0.0137
    1RG35    C5   17   1.961   2.513   4.588  0.0258  0.0191  0.3356
    1RG35    C6   18   1.943   2.383   4.528  0.2923 -0.1360  0.0881
    1RG35    O6   19   1.868   2.296   4.564  0.0920  0.4264  0.8584
    1RG35    N1   20   2.027   2.355   4.416 -0.2738 -0.4989 -0.0382
    1RG35    H1   21   2.012   2.274   4.358  0.4160 -0.1142 -0.7794
    1RG35    C2   22   2.103   2.456   4.365  0.2273 -0.7431 -0.0642
    1RG35    N2   23   2.161   2.435   4.248 -0.2749 -0.2776 -0.1473
    1RG35   H21   24   2.128   2.358   4.192 -0.2864 -0.9313  0.7447
    1RG35   H22   25   2.206   2.511   4.200 -0.0511 -0.5366 -0.3489
    1RG35    N3   26   2.134   2.575   4.419  0.0303  0.2336 -0.8269
    1RG35    C4   27   2.054   2.598   4.534 -0.1166  0.0293  0.3957
    1RG35   C3'   28   2.296   2.980   4.533 -0.3394  0.4863 -0.3734
    1RG35   H3'   29   2.392   2.991   4.482 -0.5113  4.4738  0.0573
    1RG35   C2'   30   2.262   2.837   4.579 -0.3632  0.3213  0.5120
    1RG35  H2'1   31   2.287   2.766   4.500 -1.0934  0.0677  0.5087
    1RG35   O2'   32   2.328   2.802   4.709  0.2666 -0.2510 -0.3346
    1RG35  HO'2   33   2.420   2.781   4.690  0.9735  0.7164  1.8670
    1RG35   O3'   34   2.295   3.067   4.647 -0.3384  0.4120 -0.2749
    1RG35   H3T   35   2.332   3.013   4.716 -1.9090 -1.2439 -0.6927
    1RG35   O3P   36   2.165   2.755   4.047 -0.0471  0.3019  0.2948
    1SOL     OW   37   1.900   3.104   0.484  0.3446  0.3036  0.4893
    1SOL    HW2   38   1.849   3.151   0.550 -0.1132  0.1579  0.2415
    1SOL    HW3   39   1.965   3.056   0.535 -0.0742  0.1058  0.8488
    1SOL    MW4   40   1.902   3.104   0.500  0.2289  0.2582  0.5040
    1SOL     OW   41   0.381   2.582   1.096  0.1599  0.1200 -0.1382
    1SOL    HW2   42   0.298   2.611   1.136  0.5377 -0.2654  0.9317
    1SOL    HW3   43   0.369   2.488   1.083  0.0985  0.2179 -0.8014
    1SOL    MW4   44   0.368   2.574   1.099  0.2016  0.0820 -0.0845
    1SOL     OW   45   1.327   1.216   0.416  0.0926  0.6137  0.0792
    1SOL    HW2   46   1.420   1.201   0.435  0.0084 -0.6076 -0.3954
    1SOL    HW3   47   1.287   1.231   0.502  0.4298 -0.6698  0.4754
    1SOL    MW4   48   1.334   1.216   0.430  0.1260  0.2832  0.0689
    1SOL     OW   49   2.258   1.805   0.867  0.0307 -0.2296  0.2056
    1SOL    HW2   50   2.194   1.800   0.939  0.1406  0.2284  0.3346
    1SOL    HW3   51   2.306   1.722   0.873 -1.0557 -0.9056 -0.3646
    1SOL    MW4   52   2.256   1.793   0.877 -0.0982 -0.2582  0.1473
    1SOL     OW   53   1.955   0.928   1.231 -0.6147  0.0195  0.1218
    1SOL    HW2   54   1.944   0.981   1.309 -0.3546  0.4028 -0.1021
    1SOL    HW3   55   2.020   0.974   1.178 -0.6160 -0.3536 -0.2180
    1SOL    MW4   56   1.963   0.941   1.234 -0.5804  0.0209  0.0473
    1SOL     OW   57   3.761   2.757   0.502  0.0643 -0.0693 -0.1462
    1SOL    HW2   58   3.831   2.817   0.527 -0.5621  0.1918  0.9877
    1SOL    HW3   59   3.760   2.691   0.571 -1.3162  0.3619  0.2588
    1SOL    MW4   60   3.770   2.756   0.514 -0.2005  0.0217  0.0569
    1SOL     OW   61   1.586   4.074   1.476 -0.2067 -0.0196  0.5894
    1SOL    HW2   62   1.619   4.160   1.502  1.0747 -0.5806  0.8155
    1SOL    HW3   63   1.527   4.093   1.403  1.1327  0.9198 -0.2702
    1SOL    MW4   64   1.582   4.088   1.470  0.1390  0.0300  0.5059
    1SOL     OW   65   2.239   0.923   0.771 -0.1157  0.1845  0.1643
    1SOL    HW2   66   2.253   0.911   0.677  0.5860  1.1123  0.1428
    1SOL    HW3   67   2.240   0.834   0.807  1.2069 -0.0759 -0.4891
    1SOL    MW4   68   2.241   0.910   0.763  0.1516  0.2725  0.0753
    1SOL     OW   69   2.088   1.112   1.081  0.5063 -0.1138  0.1898
    1SOL    HW2   70   2.086   1.189   1.138  0.7752  0.5055 -0.6279
    1SOL    HW3   71   2.145   1.138   1.009  0.3385 -0.9734 -0.2489
    1SOL    MW4   72   2.095   1.126   1.079  0.5195 -0.1456  0.0241
    1SOL     OW   73   1.418   2.493   1.097  0.2234 -0.7967  0.2713
    1SOL    HW2   74   1.468   2.566   1.132 -0.4822  0.0054 -0.3913
    1SOL    HW3   75   1.424   2.502   1.002  1.4033 -2.4682  0.1651
    1SOL    MW4   76   1.425   2.504   1.089  0.2860 -0.9115  0.1698
    1SOL     OW   77   2.683   2.837   0.438  0.1073  0.2290 -0.0324
    1SOL    HW2   78   2.628   2.877   0.505 -0.9769 -2.0762  0.5003
    1SOL    HW3   79   2.733   2.910   0.402 -0.8834  1.8536  1.7608
    1SOL    MW4   80   2.682   2.852   0.442 -0.1662  0.1392  0.2745
    1SOL     OW   81   4.123   1.462   1.041  0.2174  0.2695  0.0443
    1SOL    HW2   82   4.078   1.545   1.027 -0.7429 -0.0508  1.1500
    1SOL    HW3   83   4.203   1.469   0.990 -0.9984  0.9295 -1.8051
    1SOL    MW4   84   4.128   1.474   1.033 -0.0696  0.3144 -0.0538
    1SOL     OW   85   4.245   4.341   0.840  0.0855  0.1410  0.2209
    1SOL    HW2   86   4.337   4.360   0.826  0.2241  0.3241  1.3287
    1SOL    HW3   87   4.203   4.358   0.755  1.1673 -0.6386 -0.4782
    1SOL    MW4   88   4.251   4.345   0.827  0.2465  0.0615  0.2748
    1SOL     OW   89   3.553   3.635   0.962 -0.1815  0.3989  0.0577
    1SOL    HW2   90   3.527   3.624   1.053 -1.8878  1.1217 -0.3329
    1SOL    HW3   91   3.560   3.730   0.950 -0.1243  0.3120 -0.6082
    1SOL    MW4   92   3.551   3.646   0.973 -0.3991  0.4828 -0.0817
    1SOL     OW   93   1.131   3.381   0.965  0.2805 -0.0877  0.0987
    1SOL    HW2   94   1.073   3.359   0.892  0.4249 -0.7837  0.1960
    1SOL    HW3   95   1.164   3.468   0.943 -1.7138  0.8363  0.5979
    1SOL    MW4   96   1.128   3.390   0.952  0.0364 -0.0572  0.1774
    1SOL     OW   97   3.431   1.518   1.242  0.3806  0.1091  0.5033
    1SOL    HW2   98   3.428   1.565   1.158 -1.7496 -0.4024  0.2669
    1SOL    HW3   99   3.422   1.587   1.308 -3.1754  0.0690  0.1430
    1SOL    MW4  100   3.430   1.534   1.240 -0.3695  0.0365  0.4245
    1SOL     OW  101   2.707   1.292   1.555  0.1014  0.6526  0.0396
    1SOL    HW2  102   2.798   1.269   1.569  0.1877  0.5599 -0.6596
    1SOL    HW3  103   2.699   1.305   1.460 -0.5460  0.9184  0.1223
    1SOL    MW4  104   2.718   1.291   1.544  0.0274  0.6753 -0.0417
    1SOL     OW  105   0.884   0.905   0.257  0.0038  0.6443 -0.4539
    1SOL    HW2  106   0.815   0.968   0.279 -0.3624  0.3283 -0.6806
    1SOL    HW3  107   0.966   0.953   0.270 -0.1664  0.3633  1.9383
    1SOL    MW4  108   0.886   0.920   0.262 -0.0671  0.5655 -0.1682
    1SOL     OW  109   2.252   1.143   0.518  0.5399 -0.1042  0.3022
    1SOL    HW2  110   2.227   1.213   0.458 -0.8863  0.2863  1.3433
    1SOL    HW3  111   2.348   1.148   0.522  0.7975 -1.0527 -3.0449
    1SOL    MW4  112   2.261   1.153   0.510  0.3855 -0.1779 -0.0020
    1SOL     OW  113   4.428   4.660   0.462  0.1350  0.1119 -0.0509
    1SOL    HW2  114   4.344   4.706   0.466 -0.0474  0.1550 -2.8961
    1SOL    HW3  115   4.494   4.729   0.467  0.0251  0.0749  2.2197
    1SOL    MW4  116   4.425   4.675   0.463  0.0968  0.1125 -0.1268
    1SOL     OW  117   2.438   1.596   0.862  0.1135 -0.0691  0.1897
    1SOL    HW2  118   2.400   1.509   0.877 -1.9444  0.7631 -0.0759
    1SOL    HW3  119   2.464   1.626   0.950 -0.1358 -0.5139  0.4181
    1SOL    MW4  120   2.436   1.588   0.876 -0.1907 -0.0179  0.1847
    1SOL     OW  121   3.377   1.788   0.777  0.3612  0.1317 -0.1357
    1SOL    HW2  122   3.373   1.757   0.867 -0.0819 -1.3256 -0.6341
    1SOL    HW3  123   3.303   1.849   0.769 -0.4653 -0.8201  0.0976
    1SOL    MW4  124   3.367   1.792   0.788  0.1938 -0.1862 -0.1707
    1SOL     OW  125   4.479   0.516   1.095  0.2453  0.3404  0.1784
    1SOL    HW2  126   4.561   0.499   1.141  0.1454 -0.0940  0.1984
    1SOL    HW3  127   4.500   0.587   1.034  0.2625  1.2392  1.1980
    1SOL    MW4  128   4.492   0.523   1.093  0.2346  0.4017  0.3157
    1SOL     OW  129   4.464   2.437   1.029  0.2084  0.1762 -0.5251
    1SOL    HW2  130   4.435   2.504   1.092 -0.9622 -0.2354 -0.6208
    1SOL    HW3  131   4.528   2.482   0.974  0.8984  0.6761  0.6625
    1SOL    MW4  132   4.468   2.452   1.030  0.1450  0.1881 -0.3811
    1SOL     OW  133   0.029   4.356   2.003 -0.1015 -0.2075  0.2436
    1SOL    HW2  134   0.022   4.413   2.080  0.3139  0.1636  0.0165
    1SOL    HW3  135  -0.051   4.305   2.002  0.6216 -1.3944  1.8556
    1SOL    MW4  136   0.018   4.357   2.013  0.0486 -0.3147  0.4265
    1SOL     OW  137   4.375   3.370   0.715 -0.0321 -0.1522  0.3802
    1SOL    HW2  138   4.368   3.459   0.752 -0.8274 -0.6516  1.4754
    1SOL    HW3  139   4.286   3.335   0.721  0.2831 -1.0318 -0.0248
    1SOL    MW4  140   4.363   3.378   0.721 -0.0954 -0.3343  0.4714
    1SOL     OW  141   4.241   2.391   0.880  0.0907 -0.1454  0.1058
    1SOL    HW2  142   4.314   2.419   0.935  0.8487  0.6494 -1.2693
    1SOL    HW3  143   4.279   2.385   0.792 -1.2781 -0.6704 -0.4570
    1SOL    MW4  144   4.256   2.394   0.876  0.0105 -0.1097 -0.1499
    1SOL     OW  145   0.094   1.666   0.734 -0.0413  0.1379  0.4290
    1SOL    HW2  146   0.038   1.729   0.778  0.2870  1.0001 -0.3653
    1SOL    HW3  147   0.083   1.685   0.641 -0.0458 -1.0688  0.1718
    1SOL    MW4  148   0.085   1.676   0.727  0.0014  0.0925  0.2903
    1SOL     OW  149   0.605   4.599   1.051 -0.2184  0.3323  0.4503
    1SOL    HW2  150   0.604   4.599   1.147  2.2826  0.2590  0.5046
    1SOL    HW3  151   0.671   4.534   1.027  0.9767  2.0729 -1.2511
    1SOL    MW4  152   0.614   4.591   1.060  0.2692  0.5527  0.2329
    1SOL     OW  153   0.764   1.959   0.658  0.2689  0.2451 -0.1258
    1SOL    HW2  154   0.808   1.915   0.730  0.6772 -0.3025 -0.7017
    1SOL    HW3  155   0.692   1.900   0.635 -1.3427  1.5573  1.4034
    1SOL    MW4  156   0.760   1.946   0.664  0.1101  0.3459 -0.0001
    1SOL     OW  157   3.512   4.605   1.192 -0.1732 -0.1445  0.4635
    1SOL    HW2  158   3.541   4.553   1.267 -2.1956  1.0638  2.1005
    1SOL    HW3  159   3.509   4.695   1.224 -2.1725  0.2255 -0.7231
    1SOL    MW4  160   3.516   4.610   1.206 -0.7036  0.0634  0.5230
    1SOL     OW  161   0.905   0.375   0.355 -0.1833 -0.0506 -0.2774
    1SOL    HW2  162   0.819   0.341   0.381 -0.3547 -0.2623 -1.0948
    1SOL    HW3  163   0.891   0.468   0.341 -0.0228  0.1121  0.6826
    1SOL    MW4  164   0.892   0.383   0.356 -0.1848 -0.0570 -0.2586
    1SOL     OW  165   4.404   0.321   0.886  0.0865  0.0811 -0.3570
    1SOL    HW2  166   4.419   0.233   0.921  0.1818  0.2927  0.1419
    1SOL    HW3  167   4.401   0.377   0.964 -1.1948  0.3445 -0.5705
    1SOL    MW4  168   4.405   0.317   0.901 -0.0696  0.1438 -0.3193
    1SOL     OW  169   1.535   0.350   0.539  0.2462 -0.0333  0.0782
    1SOL    HW2  170   1.464   0.376   0.598 -1.0996 -0.3963 -1.3616
    1SOL    HW3  171   1.520   0.257   0.523  0.8587 -0.0345 -0.5017
    1SOL    MW4  172   1.524   0.342   0.545  0.1496 -0.0814 -0.1883
    1SOL     OW  173   3.189   4.520   0.767 -0.3829 -0.0479 -0.0586
    1SOL    HW2  174   3.235   4.595   0.804 -1.0655  0.5674 -0.4487
    1SOL    HW3  175   3.132   4.490   0.837 -2.4986  1.8033 -0.9421
    1SOL    MW4  176   3.188   4.526   0.781 -0.7522  0.2780 -0.2267
    1SOL     OW  177   4.054   1.997   1.598 -0.4064  0.2886 -0.3940
    1SOL    HW2  178   4.066   1.942   1.520 -1.2310 -0.4432 -0.0015
    1SOL    HW3  179   4.070   2.086   1.566  1.3584 -0.1995 -0.9354
    1SOL    MW4  180   4.058   2.002   1.583 -0.2823  0.1276 -0.4135
    1SOL     OW  181   1.726   1.551   1.406 -0.3236 -0.1835  0.1071
    1SOL    HW2  182   1.744   1.517   1.319  1.1738  0.2378  0.2314
    1SOL    HW3  183   1.809   1.589   1.434 -1.2796  1.3125  0.9770
    1SOL    MW4  184   1.739   1.552   1.398 -0.2521  0.0695  0.2383
    1SOL     OW  185   3.053   0.646   1.027 -0.6450 -0.0343 -0.1874
    1SOL    HW2  186   3.099   0.563   1.045 -0.7108  0.2537  1.4510
    1SOL    HW3  187   3.119   0.713   1.043 -1.2473  0.3214  0.8471
    1SOL    MW4  188   3.068   0.644   1.032 -0.7329  0.0507  0.1653
    1SOL     OW  189   1.071   2.858   1.116  0.4021 -0.1560  0.1939
    1SOL    HW2  190   1.117   2.774   1.107  0.9470  0.1454  0.1506
    1SOL    HW3  191   1.077   2.898   1.029  0.8802  0.3022  0.4360
    1SOL    MW4  192   1.078   2.852   1.103  0.5372 -0.0558  0.2201
    1SOL     OW  193   3.609   1.924   0.703  0.2984 -0.5759  0.0589
    1SOL    HW2  194   3.618   1.946   0.610  1.8239 -1.0947  0.0659
    1SOL    HW3  195   3.520   1.890   0.711 -0.0545  0.0467 -1.0961
    1SOL    MW4  196   3.598   1.922   0.691  0.4530 -0.5621 -0.0926
    1SOL     OW  197   3.305   0.948   0.852  0.2099  0.3220  0.1519
    1SOL    HW2  198   3.397   0.970   0.841  0.4200  0.1973  1.6350
    1SOL    HW3  199   3.283   0.898   0.773  0.9602  1.7327 -0.9893
    1SOL    MW4  200   3.314   0.944   0.840  0.3366  0.4916  0.1970
    1SOL     OW  201   0.063   2.563   0.351 -0.1317  0.2694 -0.1671
    1SOL    HW2  202   0.139   2.507   0.364 -0.9690 -1.0992 -0.9772
    1SOL    HW3  203  -0.003   2.505   0.312 -1.3270  1.6067 -0.1877
    1SOL    MW4  204   0.064   2.548   0.348 -0.3999  0.2654 -0.2767
    1SOL     OW  205   2.569   4.136   0.332 -0.1959  0.1742  0.3762
    1SOL    HW2  206   2.660   4.139   0.358 -0.0097 -0.2366 -0.2067
    1SOL    HW3  207   2.524   4.196   0.391  0.1229 -1.1246  1.9629
    1SOL    MW4  208   2.575   4.144   0.343 -0.1292 -0.0510  0.5086
    1SOL     OW  209   0.978   1.326   2.005 -0.3317  0.2639  0.0615
    1SOL    HW2  210   0.901   1.327   2.061  0.4990  1.9064  1.2128
    1SOL    HW3  211   1.021   1.410   2.021  0.7946  0.0892 -1.8297
    1SOL    MW4  212   0.974   1.338   2.015 -0.0736  0.4576 -0.0360
    1SOL     OW  213   3.442   3.983   0.240  0.2668 -0.0705 -0.0382
    1SOL    HW2  214   3.501   3.977   0.315 -0.4578 -0.3481  0.5241
    1SOL    HW3  215   3.396   4.066   0.252 -0.6568 -0.6464  0.4342
    1SOL    MW4  216   3.444   3.993   0.251  0.0494 -0.1829  0.0983
    1SOL     OW  217   0.359   2.823   1.948 -0.0591  0.0220 -0.5460
    1SOL    HW2  218   0.305   2.884   1.998  0.1567 -1.2526  1.3082
    1SOL    HW3  219   0.297   2.779   1.889 -1.1813 -1.7608  1.8935
    1SOL    MW4  220   0.344   2.825   1.947 -0.1787 -0.3815  0.0204
    1SOL     OW  221   4.323   0.879   0.829 -0.0823  0.0014 -0.2492
    1SOL    HW2  222   4.291   0.816   0.764  0.6952  1.1371 -1.7659
    1SOL    HW3  223   4.414   0.851   0.846 -0.4644 -0.6326  0.7927
    1SOL    MW4  224   4.331   0.867   0.822 -0.0300  0.0676 -0.3119
    1SOL     OW  225   2.759   4.002   0.733 -0.3201 -0.1978  0.1263
    1SOL    HW2  226   2.794   3.958   0.655  0.0863  1.1871 -0.4908
    1SOL    HW3  227   2.831   4.058   0.762 -1.3001  1.0849  0.0990
    1SOL    MW4  228   2.773   4.003   0.727 -0.3960  0.1540  0.0412
    1SOL     OW  229   3.678   3.980   1.202 -0.2850 -0.1916  0.2080
    1SOL    HW2  230   3.757   3.930   1.222 -1.0050 -1.4465  0.0394
    1SOL    HW3  231   3.606   3.924   1.233 -1.1112  0.8154  0.1413
    1SOL    MW4  232   3.679   3.966   1.209 -0.4890 -0.2241  0.1769
    1SOL     OW  233   2.998   4.267   0.583  0.0749 -0.3369  0.2639
    1SOL    HW2  234   3.090   4.246   0.574 -0.5339 -2.4534 -1.1784
    1SOL    HW3  235   2.973   4.231   0.669  0.5826  0.2861  0.6782
    1SOL    MW4  236   3.007   4.260   0.593  0.0615 -0.5345  0.1283
    1SOL     OW  237   1.076   4.586   0.232 -0.1329  0.3219 -0.5245
    1SOL    HW2  238   1.168   4.562   0.224 -0.5272 -1.8275  0.9633
    1SOL    HW3  239   1.066   4.612   0.324 -1.4758 -1.6526 -0.0840
    1SOL    MW4  240   1.086   4.586   0.243 -0.3622 -0.2222 -0.2701
    1SOL     OW  241   0.969   3.374   0.730 -0.0160  0.6195  0.2055
    1SOL    HW2  242   0.917   3.447   0.763 -0.8037  0.1593  0.0012
    1SOL    HW3  243   0.904   3.313   0.693  0.6274 -0.1830  0.3827
    1SOL    MW4  244   0.954   3.375   0.729 -0.0351  0.4530  0.2019
    1SOL     OW  245   1.807   0.382   0.991  0.2207 -0.3005  0.5876
    1SOL    HW2  246   1.841   0.300   1.027 -0.3983 -0.3216  1.1294
    1SOL    HW3  247   1.773   0.357   0.904 -0.3931 -0.7199  0.9416
    1SOL    MW4  248   1.807   0.368   0.984  0.0582 -0.3586  0.7058
    1SOL     OW  249   4.371   3.881   1.540 -0.3357 -0.9126 -0.1772
    1SOL    HW2  250   4.319   3.801   1.528 -0.2203 -1.0407  0.1632
    1SOL    HW3  251   4.433   3.858   1.609  0.1592 -0.7544 -0.5693
    1SOL    MW4  252   4.372   3.867   1.548 -0.2551 -0.9086 -0.1839
    1SOL     OW  253   3.030   4.072   1.614 -0.1041  0.6090  0.1748
    1SOL    HW2  254   3.116   4.071   1.657 -0.0025  1.5124  0.0171
    1SOL    HW3  255   3.048   4.100   1.524 -0.2096 -2.2161 -0.7570
    1SOL    MW4  256   3.044   4.076   1.608 -0.1044  0.3557  0.0310
    1SOL     OW  257   0.129   1.027   0.647 -0.3371  0.3257  0.2319
    1SOL    HW2  258   0.133   1.119   0.620 -0.1021  0.4314  0.6370
    1SOL    HW3  259   0.119   1.030   0.742 -2.4299 -0.0308  0.0470
    1SOL    MW4  260   0.128   1.040   0.656 -0.5822  0.2925  0.2609
    1SOL     OW  261   4.443   4.222   1.602  0.3337  0.2304 -0.2889
    1SOL    HW2  262   4.478   4.294   1.653 -0.1926  1.2928 -1.4021
    1SOL    HW3  263   4.359   4.202   1.643  0.3241  0.4782 -0.1889
    1SOL    MW4  264   4.436   4.229   1.614  0.2627  0.4034 -0.4227
    1SOL     OW  265   0.139   2.388   0.794  0.2550  0.3992 -0.2384
    1SOL    HW2  266   0.225   2.407   0.757 -0.3139  0.0203 -1.8331
    1SOL    HW3  267   0.078   2.441   0.742 -0.4424  0.8962  1.0744
    1SOL    MW4  268   0.142   2.397   0.782  0.0879  0.4146 -0.2756
    1SOL     OW  269   3.580   1.530   0.584  0.2036 -0.0838 -0.3401
    1SOL    HW2  270   3.486   1.522   0.594  0.2568  1.7019  2.3448
    1SOL    HW3  271   3.615   1.447   0.618 -0.3418 -0.0737  0.2526
    1SOL    MW4  272   3.573   1.518   0.590  0.1385  0.1532  0.0923
    1SOL     OW  273   0.720   3.726   0.162  0.7528  0.1998  0.2049
    1SOL    HW2  274   0.634   3.685   0.151  1.3150 -1.0229  0.3203
    1SOL    HW3  275   0.709   3.786   0.236 -0.2297  0.6957 -0.3364
    1SOL    MW4  276   0.707   3.729   0.170  0.6973  0.1040  0.1487
    1SOL     OW  277   0.813   3.582   0.818  0.0715  0.3294 -0.5012
    1SOL    HW2  278   0.730   3.624   0.795  0.0618  0.1145 -0.8485
    1SOL    HW3  279   0.866   3.654   0.853 -0.1911  0.5029 -0.4540
    1SOL    MW4  280   0.809   3.597   0.820  0.0356  0.3240 -0.5408
    1SOL     OW  281   0.684   3.415   0.124 -0.0076 -0.3853 -0.0397
    1SOL    HW2  282   0.764   3.459   0.096 -0.0809  0.2517  0.7367
    1SOL    HW3  283   0.614   3.459   0.076  0.1561 -1.3823 -1.2249
    1SOL    MW4  284   0.686   3.427   0.114  0.0044 -0.4327 -0.0936
    1SOL     OW  285   2.517   2.963   0.644  0.1152 -0.1978  0.2624
    1SOL    HW2  286   2.504   2.906   0.720 -0.5852  0.1471  0.4116
    1SOL    HW3  287   2.432   2.961   0.599  0.6737 -0.7802 -0.7778
    1SOL    MW4  288   2.504   2.955   0.648  0.0963 -0.2291  0.1448
    1SOL     OW  289   4.334   1.153   0.408  0.0037  0.1056  0.3855
    1SOL    HW2  290   4.248   1.150   0.366 -0.0760  2.0878  0.3696
    1SOL    HW3  291   4.315   1.143   0.501 -0.0621 -1.4834  0.2103
    1SOL    MW4  292   4.320   1.151   0.415 -0.0162  0.1575  0.3603
    1SOL     OW  293   1.702   2.731   0.256  0.6354  0.2805 -0.1739
    1SOL    HW2  294   1.643   2.674   0.304  1.2236 -0.6513 -0.5507
    1SOL    HW3  295   1.696   2.816   0.301  1.1076 -0.5515  1.4870
    1SOL    MW4  296   1.694   2.735   0.268  0.7753  0.0479 -0.0045
    1SOL     OW  297   0.191   3.467   0.440  0.0510  0.3631  0.0783
    1SOL    HW2  298   0.284   3.468   0.462  0.4381  0.7827 -1.5060
    1SOL    HW3  299   0.155   3.544   0.483  0.4426  0.2329  0.6456
    1SOL    MW4  300   0.199   3.477   0.448  0.1538  0.4010 -0.0558
    1SOL     OW  301   1.044   0.888   2.171 -0.0507  0.3846  0.5627
    1SOL    HW2  302   0.968   0.946   2.175 -0.4289 -0.0157 -0.7489
    1SOL    HW3  303   1.040   0.847   2.085  1.2015 -0.2631  0.7861
    1SOL    MW4  304   1.034   0.890   2.160  0.0646  0.2463  0.4189
    1SOL     OW  305   2.852   4.168   0.370 -0.0415 -0.4052 -0.1543
    1SOL    HW2  306   2.904   4.201   0.443 -1.4296 -1.5731  1.3835
    1SOL    HW3  307   2.912   4.112   0.321  0.5421 -0.5976  0.7796
    1SOL    MW4  308   2.867   4.165   0.373 -0.1478 -0.5846  0.1718
    1SOL     OW  309   0.187   4.182   0.776 -0.0640  0.2702  0.0111
    1SOL    HW2  310   0.171   4.088   0.762  0.2322  0.1153  0.6738
    1SOL    HW3  311   0.281   4.193   0.761 -0.1965  0.5696 -0.6207
    1SOL    MW4  312   0.197   4.171   0.772 -0.0424  0.2890  0.0151
    1SOL     OW  313   3.496   4.610   0.393  0.1416 -0.2886  0.4095
    1SOL    HW2  314   3.485   4.705   0.396  0.5006 -0.2180 -0.2540
    1SOL    HW3  315   3.426   4.580   0.335  1.1868 -0.2211 -0.9085
    1SOL    MW4  316   3.485   4.618   0.386  0.3271 -0.2708  0.1481
    1SOL     OW  317   0.085   0.619   0.648  0.1546  0.2213 -0.0747
    1SOL    HW2  318   0.023   0.628   0.576 -0.1570  0.2924  0.1994
    1SOL    HW3  319   0.098   0.525   0.658 -0.1981  0.1918  0.1113
    1SOL    MW4  320   0.079   0.608   0.640  0.0670  0.2267 -0.0140
    1SOL     OW  321   1.258   4.371   0.466 -0.1445  0.5071  0.3892
    1SOL    HW2  322   1.288   4.430   0.396 -0.3154  1.7808  1.3875
    1SOL    HW3  323   1.195   4.422   0.516  0.4153 -0.2009  1.8446
    1SOL    MW4  324   1.254   4.386   0.463 -0.0933  0.5813  0.7129
    1SOL     OW  325   1.775   0.942   1.982 -0.3483  0.2193 -0.4691
    1SOL    HW2  326   1.757   0.926   2.075  0.2837  0.0003 -0.3795
    1SOL    HW3  327   1.722   1.018   1.960 -0.8014  0.0317 -0.0250
    1SOL    MW4  328   1.766   0.950   1.991 -0.3247  0.1656 -0.3986
    1SOL     OW  329   4.358   1.506   0.918  0.3213  0.1557 -0.0700
    1SOL    HW2  330   4.359   1.514   0.822  1.1134  0.2815 -0.0572
    1SOL    HW3  331   4.413   1.430   0.936 -0.0495 -0.0303  0.2724
    1SOL    MW4  332   4.365   1.497   0.907  0.3767  0.1477 -0.0231
    1SOL     OW  333   1.996   3.006   1.249  0.0433 -0.2997 -0.3934
    1SOL    HW2  334   1.936   2.971   1.315  0.8198 -0.3567  0.2895
    1SOL    HW3  335   2.032   2.929   1.206 -2.6478 -0.2402 -2.9101
    1SOL    MW4  336   1.993   2.992   1.252 -0.2092 -0.2992 -0.6354
    1SOL     OW  337   3.101   1.840   1.067  0.0378 -0.0178  0.2963
    1SOL    HW2  338   3.138   1.874   1.148  0.7009 -0.1634  0.0608
    1SOL    HW3  339   3.016   1.804   1.092  0.2630 -0.1058  0.9301
    1SOL    MW4  340   3.094   1.840   1.081  0.1550 -0.0486  0.3488
    1SOL     OW  341   3.270   4.148   0.545  0.2291  0.2616 -0.2691
    1SOL    HW2  342   3.279   4.161   0.451 -1.2246  1.0549 -0.3191
    1SOL    HW3  343   3.311   4.225   0.584 -1.8960  1.4740 -0.3594
    1SOL    MW4  344   3.277   4.160   0.538 -0.2429  0.5264 -0.2875
    1SOL     OW  345   0.757   2.052   0.220 -0.0302 -0.0114  0.4913
    1SOL    HW2  346   0.728   2.131   0.266 -0.8654 -0.0099 -0.0347
    1SOL    HW3  347   0.825   2.082   0.161  1.4422 -0.0941  2.1014
    1SOL    MW4  348   0.762   2.066   0.218  0.0538 -0.0222  0.6343
    1SOL     OW  349   0.987   1.490   0.684  0.2739  0.1627  0.1142
    1SOL    HW2  350   0.901   1.529   0.674 -0.0515 -0.4408  0.5426
    1SOL    HW3  351   0.971   1.396   0.687  1.0693 -0.0295 -1.1598
    1SOL    MW4  352   0.974   1.483   0.683  0.3359  0.0577  0.0026
    1SOL     OW  353   0.885   4.581   2.328  0.4833  0.2666  0.2033
    1SOL    HW2  354   0.796   4.546   2.336  0.6543  0.2123  2.2079
    1SOL    HW3  355   0.875   4.676   2.338  0.9062  0.0475  3.2998
    1SOL    MW4  356   0.872   4.589   2.331  0.5617  0.2303  0.8762
    1SOL     OW  357   2.052   0.618   0.536 -0.0396 -0.4645 -0.2692
    1SOL    HW2  358   2.075   0.707   0.511  0.2005 -0.9395 -1.8654
    1SOL    HW3  359   2.131   0.582   0.576 -0.1749  0.0801  0.4764
    1SOL    MW4  360   2.065   0.625   0.538 -0.0257 -0.4554 -0.3815
    1SOL     OW  361   0.807   1.660   0.414  0.6140 -0.0596  0.2036
    1SOL    HW2  362   0.829   1.753   0.405  0.1039  0.1648  1.2449
    1SOL    HW3  363   0.791   1.648   0.508 -1.1402 -0.7893 -0.1765
    1SOL    MW4  364   0.808   1.671   0.425  0.3152 -0.1260  0.2908
    1SOL     OW  365   3.597   1.289   1.320 -0.2187  0.0552  0.1659
    1SOL    HW2  366   3.534   1.354   1.287 -0.1097 -0.6881 -1.5341
    1SOL    HW3  367   3.675   1.302   1.266 -0.3708 -1.8167 -0.5583
    1SOL    MW4  368   3.599   1.299   1.308 -0.2244 -0.2898 -0.1540
    1SOL     OW  369   0.033   0.919   0.388 -0.2348  0.1568  0.0754
    1SOL    HW2  370  -0.025   0.985   0.352 -0.4957 -0.2003 -0.1599
    1SOL    HW3  371   0.049   0.948   0.478  0.5303  1.1187 -0.3567
    1SOL    MW4  372   0.027   0.932   0.396 -0.1682  0.2366 -0.0126
    1SOL     OW  373   1.018   2.386   1.269  0.0878 -0.3384  0.5057
    1SOL    HW2  374   1.060   2.465   1.234 -1.7250  0.8571  0.9510
    1SOL    HW3  375   1.091   2.325   1.285  1.2123  0.1408 -2.5648
    1SOL    MW4  376   1.033   2.388   1.267 -0.0030 -0.1173  0.1593
    1SOL     OW  377   1.631   3.458   0.388  0.1968  0.0801 -0.1686
    1SOL    HW2  378   1.658   3.542   0.351  1.0122 -0.2907 -0.4441
    1SOL    HW3  379   1.539   3.470   0.411  0.3765  1.1275  0.0325
    1SOL    MW4  380   1.623   3.470   0.386  0.3281  0.1693 -0.1784
    1SOL     OW  381   0.515   4.517   0.307 -0.1809  0.0962  0.3255
    1SOL    HW2  382   0.603   4.529   0.342 -0.4255  1.0147  0.6544
    1SOL    HW3  383   0.483   4.437   0.348  0.1173  0.3192  0.9962
    1SOL    MW4  384   0.523   4.508   0.317 -0.1738  0.2465  0.4574
    1SOL     OW  385   0.569   0.961   0.826  0.2971 -0.0393 -0.0414
    1SOL    HW2  386   0.639   1.018   0.859 -0.6620  0.8448  0.4856
    1SOL    HW3  387   0.587   0.956   0.732  1.7004 -0.7115  0.2406
    1SOL    MW4  388   0.581   0.968   0.818  0.3557 -0.0113  0.0653
    1SOL     OW  389   0.272   4.605   2.732 -0.3852  0.3621 -0.0743
    1SOL    HW2  390   0.345   4.663   2.711  0.9501 -0.5381  1.8474
    1SOL    HW3  391   0.285   4.584   2.825 -1.3320 -2.2649 -0.5008
    1SOL    MW4  392   0.284   4.610   2.741 -0.3339 -0.1030  0.1230
    1SOL     OW  393   1.685   3.309   1.944  0.0594  0.1758  0.1064
    1SOL    HW2  394   1.688   3.394   1.987  0.2643  0.1459  0.1554
    1SOL    HW3  395   1.682   3.246   2.016  1.8161  0.0722  0.1135
    1SOL    MW4  396   1.685   3.312   1.959  0.3182  0.1583  0.1138
    1SOL     OW  397   1.990   1.333   0.612 -0.0540 -0.1729 -0.0751
    1SOL    HW2  398   2.036   1.326   0.529 -0.0346  0.4835 -0.1249
    1SOL    HW3  399   2.004   1.424   0.640  1.0742 -0.7532  1.3091
    1SOL    MW4  400   1.998   1.344   0.605  0.0974 -0.1630  0.1009
    1SOL     OW  401   0.747   1.144   0.931 -0.1770 -0.3080  0.4746
    1SOL    HW2  402   0.825   1.107   0.973  0.2242  0.5046  0.4477
    1SOL    HW3  403   0.718   1.213   0.990 -0.1994  0.1698 -0.0964
    1SOL    MW4  404   0.753   1.148   0.944 -0.1270 -0.1377  0.3957
    1SOL     OW  405   3.214   3.820   0.275 -0.6520 -0.0782  0.0636
    1SOL    HW2  406   3.297   3.865   0.255 -0.5061 -0.5356 -0.3692
    1SOL    HW3  407   3.200   3.836   0.368  0.2574 -0.5398  0.2873
    1SOL    MW4  408   3.223   3.828   0.285 -0.5126 -0.1993  0.0360
    1SOL     OW  409   1.360   3.447   0.458  0.0447 -0.1595  0.9622
    1SOL    HW2  410   1.309   3.471   0.380  1.4799  0.1663  0.0905
    1SOL    HW3  411   1.337   3.514   0.523  0.6518  1.0051  0.0028
    1SOL    MW4  412   1.350   3.459   0.456  0.3142  0.0372  0.7206
    1SOL     OW  413   1.674   2.977   0.360 -0.3486  0.3125  0.0806
    1SOL    HW2  414   1.756   3.004   0.402 -0.2820 -0.5917  0.5488
    1SOL    HW3  415   1.667   3.033   0.283  0.3667  0.8621  0.4033
    1SOL    MW4  416   1.684   2.988   0.356 -0.2453  0.2656  0.1849
    1SOL     OW  417   4.213   2.661   0.516 -0.1580  0.1251  0.2017
    1SOL    HW2  418   4.179   2.582   0.475  1.6601 -0.1523 -0.8248
    1SOL    HW3  419   4.156   2.675   0.593 -0.9930 -1.6923 -0.0594
    1SOL    MW4  420   4.201   2.653   0.521 -0.0286 -0.1512  0.0318
    1SOL     OW  421   0.607   0.910   2.813  0.2437 -0.8206  0.6415
    1SOL    HW2  422   0.674   0.851   2.847 -0.4070 -2.6782 -1.1606
    1SOL    HW3  423   0.529   0.891   2.865  0.4201 -0.4982  1.0266
    1SOL    MW4  424   0.605   0.900   2.824  0.1811 -1.0232  0.4547
    1SOL     OW  425   4.012   3.501   0.596  0.0065 -0.1449  0.4272
    1SOL    HW2  426   3.923   3.469   0.578 -0.0491  0.7929 -1.0732
    1SOL    HW3  427   4.052   3.511   0.510  1.1623  0.5958  1.0278
    1SOL    MW4  428   4.005   3.498   0.582  0.1516  0.0765  0.3085
    1SOL     OW  429   0.766   1.648   2.199 -0.2700  0.1966  0.1126
    1SOL    HW2  430   0.795   1.681   2.114  1.3645  0.3699  0.7296
    1SOL    HW3  431   0.701   1.713   2.228  1.3047  1.7181  0.3151
    1SOL    MW4  432   0.761   1.661   2.192  0.1534  0.4202  0.2208
    1SOL     OW  433   1.276   2.763   0.383  0.1495  0.0450 -0.0613
    1SOL    HW2  434   1.288   2.856   0.405 -2.1375  0.4631 -0.4801
    1SOL    HW3  435   1.284   2.760   0.288  1.7572 -0.4507  0.0791
    1SOL    MW4  436   1.279   2.775   0.374  0.0598  0.0346 -0.0980
    1SOL     OW  437   1.394   2.015   0.732 -0.4000  0.4834  0.0812
    1SOL    HW2  438   1.353   2.010   0.819 -0.9522  0.8277 -0.1589
    1SOL    HW3  439   1.384   1.928   0.695 -0.8529  0.5462  0.0527
    1SOL    MW4  440   1.388   2.003   0.739 -0.5326  0.5372  0.0458
    1SOL     OW  441   1.260   3.492   2.508 -0.0316  0.1996 -0.2564
    1SOL    HW2  442   1.272   3.501   2.603  0.8043  3.3505 -0.6058
    1SOL    HW3  443   1.202   3.564   2.484  0.5395  0.0259 -2.2670
    1SOL    MW4  444   1.254   3.502   2.517  0.1543  0.5922 -0.5679
    1SOL     OW  445   0.014   3.523   1.398 -0.2297  0.2528  0.1369
    1SOL    HW2  446   0.028   3.616   1.379 -1.0509  0.2777 -0.3625
    1SOL    HW3  447   0.002   3.482   1.313 -0.4869 -0.2089  0.3946
    1SOL    MW4  448   0.014   3.530   1.385 -0.3719  0.1950  0.1051
    1SOL     OW  449   2.155   3.306   1.694 -0.7643  0.3538  0.3378
    1SOL    HW2  450   2.114   3.309   1.780 -1.3693 -0.0916  0.0738
    1SOL    HW3  451   2.248   3.314   1.711 -1.0113  2.3277  0.8894
    1SOL    MW4  452   2.162   3.307   1.707 -0.8767  0.5558  0.3756
    1SOL     OW  453   4.380   1.617   0.279  0.4169 -0.3164  0.1276
    1SOL    HW2  454   4.360   1.709   0.295  0.5861  0.2528 -2.6208
    1SOL    HW3  455   4.294   1.576   0.265  0.5378  0.2136 -2.3478
    1SOL    MW4  456   4.366   1.624   0.279  0.4549 -0.1714 -0.5616
    1SOL     OW  457   2.510   0.599   1.406 -0.2236 -0.0492 -0.0004
    1SOL    HW2  458   2.437   0.544   1.434 -0.1107 -0.2603 -0.1183
    1SOL    HW3  459   2.531   0.652   1.484 -0.4036 -0.0931  0.0794
    1SOL    MW4  460   2.504   0.599   1.420 -0.2325 -0.0829 -0.0052
    1SOL     OW  461   1.951   0.158   1.089  0.1698  0.2291  0.4419
    1SOL    HW2  462   1.960   0.106   1.009 -1.8081  0.1602  0.2365
    1SOL    HW3  463   1.991   0.104   1.157 -1.1825 -1.2371  0.0909
    1SOL    MW4  464   1.958   0.144   1.088 -0.2694  0.0266  0.3686
    1SOL     OW  465   0.391   1.015   1.225  0.4891 -0.2755 -0.3336
    1SOL    HW2  466   0.371   1.055   1.141 -0.0607 -0.9036 -0.5036
    1SOL    HW3  467   0.389   1.088   1.287  0.0004  0.0391 -0.7212
    1SOL    MW4  468   0.388   1.030   1.222  0.3521 -0.3169 -0.4071
    1SOL     OW  469   1.004   2.578   0.888 -0.2294  0.0826 -0.2269
    1SOL    HW2  470   1.061   2.647   0.854  1.5083 -0.5832  1.2957
    1SOL    HW3  471   0.930   2.626   0.926  0.7413  1.0989  0.4055
    1SOL    MW4  472   1.002   2.594   0.889  0.1279  0.1290  0.0574
    1SOL     OW  473   1.565   1.513   0.845  0.2347  0.1287  0.3014
    1SOL    HW2  474   1.550   1.419   0.842 -0.4060  0.2271  0.4341
    1SOL    HW3  475   1.628   1.529   0.775 -1.0365 -0.1457 -0.9271
    1SOL    MW4  476   1.572   1.503   0.835 -0.0176  0.1056  0.1568
    1SOL     OW  477   0.582   1.513   0.359 -0.0149 -0.1233 -0.2239
    1SOL    HW2  478   0.667   1.556   0.373 -0.0138 -0.7946  2.0477
    1SOL    HW3  479   0.583   1.488   0.267  1.6361  1.2035 -0.6002
    1SOL    MW4  480   0.594   1.516   0.349  0.2030 -0.0368  0.0262
    1SOL     OW  481   0.599   1.350   0.589 -0.1255 -0.3450 -0.0293
    1SOL    HW2  482   0.689   1.319   0.600  0.1503  0.7818  1.0225
    1SOL    HW3  483   0.605   1.416   0.519  0.1748  0.9713  1.2257
    1SOL    MW4  484   0.612   1.355   0.581 -0.0495 -0.0226  0.2751
    1SOL     OW  485   0.992   0.585   1.268  0.1387  0.2329 -0.0043
    1SOL    HW2  486   0.925   0.524   1.236  0.0929 -0.3985  1.2368
    1SOL    HW3  487   1.044   0.606   1.191 -2.0162  1.4523 -1.1936
    1SOL    MW4  488   0.990   0.579   1.254 -0.1517  0.3105  0.0025
    1SOL     OW  489   4.480   3.888   0.909 -0.3013 -0.4765 -0.5407
    1SOL    HW2  490   4.444   3.800   0.923 -0.5373 -0.2099  0.6206
    1SOL    HW3  491   4.488   3.924   0.997 -0.4951  0.7791 -1.0296
    1SOL    MW4  492   4.476   3.881   0.923 -0.3576 -0.2756 -0.4520
    1SOL     OW  493   2.896   1.840   0.641  0.0329  0.5146 -0.3046
    1SOL    HW2  494   2.805   1.859   0.665  0.2615  0.7053  0.4294
    1SOL    HW3  495   2.948   1.899   0.695  0.6645 -0.7217  0.4545
    1SOL    MW4  496   2.891   1.850   0.651  0.1466  0.3767 -0.1076
    1SOL     OW  497   2.371   3.575   0.589 -0.0072 -0.2459 -0.3704
    1SOL    HW2  498   2.282   3.558   0.559 -0.1583  0.0071 -0.0624
    1SOL    HW3  499   2.406   3.640   0.528 -0.3372  0.3194  0.0418
    1SOL    MW4  500   2.364   3.581   0.577 -0.0703 -0.1380 -0.2754
    1SOL     OW  501   2.698   3.499   0.875  0.5200 -0.3163  0.1529
    1SOL    HW2  502   2.620   3.451   0.846  0.8346 -0.8985  0.2575
    1SOL    HW3  503   2.743   3.437   0.933 -0.1651  0.8599  1.9835
    1SOL    MW4  504   2.694   3.484   0.879  0.4714 -0.2379  0.4082
    1SOL     OW  505   0.846   1.155   1.337 -0.1487  0.4248 -0.0604
    1SOL    HW2  506   0.939   1.136   1.321  0.1016  0.9263  0.7745
    1SOL    HW3  507   0.802   1.072   1.319  0.6090 -0.1714  0.7627
    1SOL    MW4  508   0.852   1.141   1.332 -0.0157  0.4123  0.1583
    1SOL     OW  509   3.771   1.382   1.798  0.1007 -0.0952 -0.6450
    1SOL    HW2  510   3.743   1.350   1.713 -0.7292 -1.3870  0.0875
    1SOL    HW3  511   3.835   1.318   1.829  0.3174  0.3028 -0.2551
    1SOL    MW4  512   3.776   1.370   1.791  0.0196 -0.2131 -0.4969
    1SOL     OW  513   1.905   2.942   1.719 -0.0973 -0.2045  0.4614
    1SOL    HW2  514   1.911   2.974   1.809  1.4869 -0.3637  0.4131
    1SOL    HW3  515   1.984   2.974   1.677 -0.3801 -0.9363 -0.6319
    1SOL    MW4  516   1.916   2.950   1.726  0.0744 -0.3219  0.3107
    1SOL     OW  517   0.042   2.146   0.692  0.1557 -0.2116 -0.4547
    1SOL    HW2  518   0.107   2.115   0.630 -0.0434 -0.6218 -0.4578
    1SOL    HW3  519   0.080   2.226   0.729  1.1699 -1.0844  0.4004
    1SOL    MW4  520   0.055   2.153   0.689  0.2632 -0.3810 -0.3423
    1SOL     OW  521   2.149   4.488   0.390  0.0494 -0.1354  0.0083
    1SOL    HW2  522   2.131   4.580   0.412  1.8003  0.0345  0.8432
    1SOL    HW3  523   2.102   4.438   0.457 -1.4063  0.1099 -0.8005
    1SOL    MW4  524   2.140   4.494   0.402  0.0885 -0.0806  0.0117
    1SOL     OW  525   4.470   2.990   0.605 -0.2436 -0.4671 -0.5173
    1SOL    HW2  526   4.513   2.945   0.533 -0.3291  0.5557 -1.2121
    1SOL    HW3  527   4.396   3.035   0.565  1.9076  3.2537 -0.4549
    1SOL    MW4  528   4.466   2.990   0.590  0.0286  0.1588 -0.6007
    1SOL     OW  529   4.132   4.404   0.599 -0.1648  0.5917 -0.2486
    1SOL    HW2  530   4.207   4.397   0.541  0.8331  0.0045  1.0757
    1SOL    HW3  531   4.072   4.336   0.568  0.3936  0.2222 -0.5370
    1SOL    MW4  532   4.134   4.394   0.587  0.0405  0.4659 -0.1119
    1SOL     OW  533   1.316   3.634   0.655 -0.4425 -0.0363 -0.1582
    1SOL    HW2  534   1.300   3.722   0.620 -0.3944  0.2012  0.4123
    1SOL    HW3  535   1.401   3.640   0.697 -0.2934 -0.4481 -0.3986
    1SOL    MW4  536   1.325   3.646   0.656 -0.4166 -0.0594 -0.1147
    1SOL     OW  537   2.623   0.739   0.708 -0.0337 -0.2559  0.0768
    1SOL    HW2  538   2.667   0.703   0.785 -0.5858 -0.3259  0.3544
    1SOL    HW3  539   2.590   0.824   0.736 -0.2100 -0.2682 -0.0898
    1SOL    MW4  540   2.625   0.746   0.722 -0.1295 -0.2667  0.0914
    1SOL     OW  541   1.708   1.892   0.581  0.3308  0.0737 -0.3628
    1SOL    HW2  542   1.777   1.855   0.525  0.3420 -1.5436  0.7172
    1SOL    HW3  543   1.631   1.839   0.564  0.3053 -0.3758  1.0792
    1SOL    MW4  544   1.707   1.880   0.571  0.3290 -0.1991 -0.0301
    1SOL     OW  545   4.357   2.359   0.271 -0.0091  0.1531 -0.3783
    1SOL    HW2  546   4.321   2.313   0.195  0.9871 -0.1432 -0.6903
    1SOL    HW3  547   4.289   2.421   0.297 -0.8199 -0.5523 -0.7977
    1SOL    MW4  548   4.344   2.361   0.264  0.0157  0.0210 -0.4748
    1SOL     OW  549   2.971   2.485   1.784  0.7370 -0.6213 -0.1977
    1SOL    HW2  550   2.935   2.524   1.864  0.9125 -1.6612  0.3856
    1SOL    HW3  551   2.896   2.480   1.724  0.5026 -0.2825  0.0668
    1SOL    MW4  552   2.956   2.490   1.787  0.7291 -0.7141 -0.0859
    1SOL     OW  553   2.286   1.164   1.559  0.2231  0.5914  0.3746
    1SOL    HW2  554   2.256   1.253   1.576  0.3587  0.7073  0.0116
    1SOL    HW3  555   2.226   1.108   1.608  0.3490  0.9003  0.8862
    1SOL    MW4  556   2.274   1.168   1.568  0.2575  0.6475  0.3941
    1SOL     OW  557   0.271   4.660   0.247  0.0873  0.3694  0.0624
    1SOL    HW2  558   0.290   4.726   0.313  0.2464  0.4747 -0.0889
    1SOL    HW3  559   0.356   4.621   0.227  0.3512  1.7385 -1.5761
    1SOL    MW4  560   0.285   4.663   0.253  0.1431  0.5641 -0.1738
    1SOL     OW  561   2.117   1.177   0.813  0.1793  0.3829 -0.1427
    1SOL    HW2  562   2.155   1.096   0.779  0.4482  0.5251 -0.1807
    1SOL    HW3  563   2.086   1.224   0.736  1.3639  1.0006 -0.2579
    1SOL    MW4  564   2.118   1.173   0.799  0.3710  0.4830 -0.1629
    1SOL     OW  565   2.351   1.193   2.426 -0.0614 -0.0433  0.1856
    1SOL    HW2  566   2.332   1.153   2.341 -0.3125 -1.6432  0.9704
    1SOL    HW3  567   2.265   1.209   2.464  0.0757 -1.1737  0.9741
    1SOL    MW4  568   2.337   1.190   2.420 -0.0763 -0.4036  0.3929
    1SOL     OW  569   2.181   2.123   0.910 -0.1299  0.7123  0.0604
    1SOL    HW2  570   2.158   2.150   0.821  0.9293  0.0993 -0.4146
    1SOL    HW3  571   2.271   2.091   0.903 -1.1253 -2.4843  0.6709
    1SOL    MW4  572   2.190   2.122   0.897 -0.1216  0.2098  0.0783
    1SOL     OW  573   3.488   1.359   0.944 -0.0718  0.3526 -0.1147
    1SOL    HW2  574   3.493   1.280   0.998  0.5287  1.2701  1.2023
    1SOL    HW3  575   3.397   1.362   0.915 -0.3333 -0.3160  0.6046
    1SOL    MW4  576   3.476   1.349   0.948 -0.0269  0.3854  0.1540
    1SOL     OW  577   1.723   1.558   0.634  0.4046 -0.0332  0.0315
    1SOL    HW2  578   1.727   1.521   0.545 -0.3238 -0.1095  0.0283
    1SOL    HW3  579   1.814   1.568   0.660  0.6310  0.4805 -0.9331
    1SOL    MW4  580   1.735   1.554   0.626  0.3383  0.0246 -0.0962
    1SOL     OW  581   4.076   4.243   0.231 -0.2870  0.2123 -0.0201
    1SOL    HW2  582   4.019   4.301   0.181 -0.2093 -0.1310 -0.5078
    1SOL    HW3  583   4.163   4.260   0.196 -0.1762  0.2464  0.2655
    1SOL    MW4  584   4.080   4.253   0.220 -0.2618  0.1712 -0.0468
    1SOL     OW  585   0.016   4.152   0.550  0.2649 -0.0771 -0.4748
    1SOL    HW2  586   0.072   4.167   0.625 -0.3983 -0.1915  0.0457
    1SOL    HW3  587  -0.016   4.240   0.527 -0.9620 -0.2535  0.5013
    1SOL    MW4  588   0.019   4.166   0.557  0.0157 -0.1159 -0.2773
    1SOL     OW  589   1.005   3.971   0.697  0.0415  0.3886 -0.0872
    1SOL    HW2  590   0.935   4.035   0.681  1.1411  1.1073 -2.3083
    1SOL    HW3  591   0.981   3.895   0.644  0.0175 -0.0814  0.5882
    1SOL    MW4  592   0.993   3.970   0.688  0.1835  0.4215 -0.2912
    1SOL     OW  593   4.097   1.300   0.591 -0.3956  0.5603 -0.1990
    1SOL    HW2  594   4.046   1.318   0.669 -2.4964  1.0233 -1.6258
    1SOL    HW3  595   4.156   1.230   0.616 -1.0844  0.6730  1.7830
    1SOL    MW4  596   4.098   1.293   0.604 -0.7639  0.6363 -0.1258
    1SOL     OW  597   3.416   4.103   0.883  0.0882  0.2561  0.0817
    1SOL    HW2  598   3.422   4.169   0.814  1.9138  0.4941  0.4409
    1SOL    HW3  599   3.424   4.152   0.964 -0.6794 -0.1795  0.4250
    1SOL    MW4  600   3.418   4.118   0.884  0.2277  0.2303  0.1743
    1SOL     OW  601   1.887   0.654   0.761  0.4160  0.1669 -0.3322
    1SOL    HW2  602   1.944   0.632   0.688  1.8756  1.8068  0.2592
    1SOL    HW3  603   1.941   0.639   0.839 -0.1076  1.2988  0.2621
    1SOL    MW4  604   1.902   0.649   0.762  0.5395  0.5326 -0.1758
    1SOL     OW  605   4.281   2.887   0.350  0.2037  0.6248  0.0699
    1SOL    HW2  606   4.261   2.807   0.398 -0.9803 -0.3443 -1.9776
    1SOL    HW3  607   4.377   2.889   0.345  0.2438 -0.4479  0.4834
    1SOL    MW4  608   4.291   2.877   0.355  0.0529  0.3555 -0.1457
    1SOL     OW  609   0.356   0.075   0.719 -0.1320 -0.0952  0.2010
    1SOL    HW2  610   0.269   0.040   0.702 -0.1960 -0.4093  1.1332
    1SOL    HW3  611   0.410  -0.001   0.736  0.4127  0.0806 -0.7131
    1SOL    MW4  612   0.351   0.061   0.719 -0.0685 -0.1134  0.2033
    1SOL     OW  613   2.359   1.321   0.901 -0.2638  0.4986  0.1263
    1SOL    HW2  614   2.432   1.269   0.869 -0.6755 -0.4601  0.7130
    1SOL    HW3  615   2.283   1.289   0.852 -0.4839  0.6853  0.3438
    1SOL    MW4  616   2.358   1.310   0.891 -0.3471  0.3967  0.2323
    1SOL     OW  617   2.020   0.577   0.987 -0.6968 -0.1703 -0.2271
    1SOL    HW2  618   2.013   0.612   1.076 -1.1655 -0.2742 -0.2213
    1SOL    HW3  619   1.949   0.512   0.981  0.1627 -1.1234 -0.2397
    1SOL    MW4  620   2.010   0.573   0.998 -0.6456 -0.3098 -0.2280
    1SOL     OW  621   3.029   4.544   0.549 -0.1837 -0.3531 -0.1898
    1SOL    HW2  622   3.016   4.450   0.549 -0.7767 -0.2948  1.4242
    1SOL    HW3  623   3.088   4.561   0.622 -0.7900  0.5959  0.1066
    1SOL    MW4  624   3.035   4.534   0.558 -0.3421 -0.2203  0.0623
    1SOL     OW  625   2.687   0.631   0.952 -0.0220 -0.0812 -0.3027
    1SOL    HW2  626   2.744   0.662   1.022  0.8542 -1.7045 -0.2784
    1SOL    HW3  627   2.599   0.638   0.988  0.3446  0.0438  0.5881
    1SOL    MW4  628   2.683   0.636   0.966  0.1419 -0.2789 -0.1820
    1SOL     OW  629   1.552   1.638   0.316 -0.0533 -0.4186  0.4821
    1SOL    HW2  630   1.530   1.685   0.396 -0.6479 -0.3665  0.2865
    1SOL    HW3  631   1.472   1.592   0.291  0.1448 -0.4823 -0.0522
    1SOL    MW4  632   1.539   1.638   0.323 -0.1056 -0.4200  0.3858
    1SOL     OW  633   3.099   4.449   1.014 -0.1535  0.1413  0.8534
    1SOL    HW2  634   3.165   4.455   1.083  0.7234 -1.8371  0.2223
    1SOL    HW3  635   3.032   4.391   1.049 -0.2281 -0.0178  0.4505
    1SOL    MW4  636   3.099   4.442   1.027 -0.0477 -0.1402  0.7169
    1SOL     OW  637   3.038   2.535   0.642  0.4591  0.3818 -0.2789
    1SOL    HW2  638   3.020   2.626   0.620 -1.1556 -0.3271 -2.0525
    1SOL    HW3  639   3.130   2.522   0.622  1.3124  2.2147  2.1876
    1SOL    MW4  640   3.048   2.545   0.636  0.3591  0.5302 -0.1875
    1SOL     OW  641   3.236   0.451   1.721  0.7359  0.4079 -0.1541
    1SOL    HW2  642   3.179   0.381   1.752  1.4156 -0.1956 -0.2644
    1SOL    HW3  643   3.293   0.409   1.657  1.1716  1.0561 -0.1960
    1SOL    MW4  644   3.236   0.436   1.717  0.8829  0.4137 -0.1740
    1SOL     OW  645   2.607   3.565   1.667 -0.0151 -0.1044 -0.2149
    1SOL    HW2  646   2.650   3.530   1.589 -1.3778 -1.2851 -0.4540
    1SOL    HW3  647   2.557   3.640   1.636 -1.1257 -1.0039 -0.6122
    1SOL    MW4  648   2.606   3.570   1.653 -0.3414 -0.3791 -0.2990
    1SOL     OW  649   3.035   1.038   0.672  0.0769  0.2717 -0.2597
    1SOL    HW2  650   2.985   0.957   0.662  0.4683 -0.1888  1.3645
    1SOL    HW3  651   3.124   1.015   0.646 -0.1760  0.6600 -1.5237
    1SOL    MW4  652   3.040   1.024   0.667  0.0949  0.2621 -0.2121
    1SOL     OW  653   1.160   4.158   0.297  0.6387 -0.3470 -0.1705
    1SOL    HW2  654   1.228   4.163   0.230  1.5893 -0.7247  0.7530
    1SOL    HW3  655   1.195   4.210   0.369 -0.5558  0.3931 -0.1162
    1SOL    MW4  656   1.174   4.166   0.297  0.6065 -0.2985 -0.0415
    1SOL     OW  657   2.830   3.567   0.635 -0.0378 -0.0770 -0.5003
    1SOL    HW2  658   2.792   3.549   0.721  1.6651  0.1016  0.3055
    1SOL    HW3  659   2.764   3.537   0.573 -0.5958 -1.7438  0.8650
    1SOL    MW4  660   2.816   3.561   0.638  0.1132 -0.2732 -0.2139
    1SOL     OW  661   4.475   3.661   0.110  0.0417 -0.6516 -0.0324
    1SOL    HW2  662   4.563   3.641   0.141 -0.5908 -2.3270  0.7045
    1SOL    HW3  663   4.416   3.619   0.173 -1.3036  1.1323 -0.0643
    1SOL    MW4  664   4.478   3.653   0.122 -0.2189 -0.6373  0.0606
    1SOL     OW  665   1.130   1.962   1.191  0.1615 -0.3319 -0.0322
    1SOL    HW2  666   1.169   1.973   1.104 -0.6409  0.3969 -0.3086
    1SOL    HW3  667   1.037   1.978   1.177  0.1594  0.7346  1.1364
    1SOL    MW4  668   1.123   1.966   1.178  0.0553 -0.0951  0.0855
    1SOL     OW  669   2.397   3.817   0.158 -0.1447 -0.2209  0.3936
    1SOL    HW2  670   2.474   3.800   0.103 -1.5362 -1.2764 -1.2828
    1SOL    HW3  671   2.372   3.907   0.136 -0.7432 -0.6667 -0.7674
    1SOL    MW4  672   2.404   3.827   0.148 -0.4075 -0.4191  0.0193
    1SOL     OW  673   3.692   3.416   0.844 -0.1771  0.1905 -0.3094
    1SOL    HW2  674   3.661   3.504   0.864  1.4280  0.7827 -0.4268
    1SOL    HW3  675   3.698   3.414   0.748 -0.8033 -0.2525 -0.3430
    1SOL    MW4  676   3.688   3.427   0.834 -0.0477  0.2103 -0.3294
    1SOL     OW  677   0.388   2.139   2.544  0.0992  0.6512  0.6855
    1SOL    HW2  678   0.362   2.047   2.541  0.3012  0.5629  1.5767
    1SOL    HW3  679   0.312   2.187   2.512 -0.4615  0.2649  1.4359
    1SOL    MW4  680   0.375   2.133   2.539  0.0519  0.5884  0.9022
    1SOL     OW  681   0.420   3.876   0.905  0.2549 -0.0506  0.0099
    1SOL    HW2  682   0.488   3.943   0.905 -0.7586  1.0258 -1.7333
    1SOL    HW3  683   0.461   3.800   0.864  0.9891 -0.0556  0.7384
    1SOL    MW4  684   0.434   3.875   0.900  0.2180  0.0908 -0.1239
    1SOL     OW  685   2.529   1.211   0.497 -0.8412 -0.1315 -0.4883
    1SOL    HW2  686   2.547   1.225   0.404  0.6811 -2.0291 -0.5168
    1SOL    HW3  687   2.616   1.204   0.538 -1.4960  0.1747  0.9903
    1SOL    MW4  688   2.543   1.212   0.490 -0.7267 -0.3415 -0.2970
    1SOL     OW  689   1.916   4.104   0.064 -0.1386 -0.3348 -0.2870
    1SOL    HW2  690   1.943   4.189   0.030 -1.3280  0.0219 -0.3560
    1SOL    HW3  691   1.988   4.077   0.122  0.4989  0.4440 -0.7157
    1SOL    MW4  692   1.929   4.111   0.067 -0.2112 -0.1845 -0.3526
    1SOL     OW  693   3.915   3.810   1.215  0.1669 -0.3077 -0.2118
    1SOL    HW2  694   3.969   3.889   1.227 -0.3572  0.0551 -0.2229
    1SOL    HW3  695   3.963   3.758   1.150  1.4815 -0.8829  1.1942
    1SOL    MW4  696   3.928   3.814   1.208  0.2713 -0.3362 -0.0277
    1SOL     OW  697   1.953   1.566   0.302  0.0486 -0.0454  0.1130
    1SOL    HW2  698   1.926   1.645   0.347 -0.2333  0.3101 -0.6694
    1SOL    HW3  699   1.924   1.579   0.212  1.3873 -0.3578 -0.3740
    1SOL    MW4  700   1.946   1.578   0.296  0.1881 -0.0397 -0.0545
    1SOL     OW  701   3.851   2.582   0.313 -0.2355 -0.2415  0.0713
    1SOL    HW2  702   3.810   2.645   0.371  0.1671 -0.1917  0.3062
    1SOL    HW3  703   3.785   2.513   0.301 -0.1647 -0.4715  0.9465
    1SOL    MW4  704   3.837   2.581   0.319 -0.1729 -0.2654  0.2178
    1SOL     OW  705   2.247   3.734   0.798 -0.1297  0.0040  0.0925
    1SOL    HW2  706   2.201   3.806   0.755  1.8584  0.9759 -0.4826
    1SOL    HW3  707   2.285   3.683   0.726  0.3081 -0.3517  0.5687
    1SOL    MW4  708   2.246   3.736   0.783  0.1903  0.0854  0.0795
    1SOL     OW  709   3.014   1.625   0.514 -0.1663  0.3077  0.1565
    1SOL    HW2  710   3.019   1.661   0.425  0.6359  1.8558  0.8074
    1SOL    HW3  711   2.985   1.699   0.568 -0.6066 -0.6101  1.1932
    1SOL    MW4  712   3.010   1.640   0.509 -0.1185  0.3909  0.3792
    1SOL     OW  713   3.288   0.767   0.592  0.1710 -0.1403 -0.4046
    1SOL    HW2  714   3.383   0.775   0.585  0.0913  1.0173 -0.3013
    1SOL    HW3  715   3.263   0.710   0.519  0.9799 -0.7671 -0.1989
    1SOL    MW4  716   3.297   0.760   0.581  0.2673 -0.0703 -0.3638
    1SOL     OW  717   2.160   3.564   1.008  0.0504 -0.0092  0.3186
    1SOL    HW2  718   2.067   3.580   1.027  0.4016  1.9843  0.4916
    1SOL    HW3  719   2.177   3.615   0.929  0.8037 -1.0788 -0.2261
    1SOL    MW4  720   2.150   3.573   1.000  0.1960  0.1128  0.2695
    1SOL     OW  721   2.960   3.438   1.293 -0.2286 -0.3409  0.2967
    1SOL    HW2  722   2.874   3.445   1.335 -0.6545 -0.6491 -0.5127
    1SOL    HW3  723   2.943   3.395   1.209  0.5642  0.5424 -0.3337
    1SOL    MW4  724   2.947   3.433   1.287 -0.1802 -0.2649  0.1068
    1SOL     OW  725   3.348   3.471   1.587 -0.3390 -0.1623 -0.2613
    1SOL    HW2  726   3.437   3.438   1.602 -0.3095  0.2859  0.5511
    1SOL    HW3  727   3.357   3.566   1.587 -0.9322 -0.1026  0.5478
    1SOL    MW4  728   3.361   3.479   1.589 -0.4137 -0.0954 -0.0474
    1SOL     OW  729   0.901   1.805   0.861 -0.2882  0.1261 -0.3082
    1SOL    HW2  730   0.993   1.797   0.835  0.0387  2.5691 -0.0552
    1SOL    HW3  731   0.904   1.823   0.955 -1.0000  0.6315 -0.3743
    1SOL    MW4  732   0.913   1.807   0.870 -0.3389  0.5150 -0.2835
    1SOL     OW  733   2.877   3.317   1.030  0.0466  0.1376  0.3736
    1SOL    HW2  734   2.859   3.224   1.026 -0.0597  0.1663  0.2002
    1SOL    HW3  735   2.969   3.325   1.005 -0.5118  0.2787 -1.7054
    1SOL    MW4  736   2.887   3.306   1.026 -0.0410  0.1600  0.0763
    1SOL     OW  737   1.415   2.490   0.812  0.3888 -0.4664  0.0339
    1SOL    HW2  738   1.332   2.506   0.767  0.0493  0.6009  0.9940
    1SOL    HW3  739   1.443   2.404   0.782 -0.9007 -0.6934 -0.5494
    1SOL    MW4  740   1.408   2.481   0.802  0.1740 -0.3552  0.0836
    1SOL     OW  741   0.503   3.743   0.490 -0.0264 -0.0808  0.0441
    1SOL    HW2  742   0.497   3.647   0.492 -0.7985 -0.0284  0.1583
    1SOL    HW3  743   0.416   3.772   0.463  0.6584  0.5238 -1.6189
    1SOL    MW4  744   0.491   3.734   0.487 -0.0378  0.0060 -0.1602
    1SOL     OW  745   0.398   2.158   1.251  0.2358  0.2011  0.1726
    1SOL    HW2  746   0.417   2.234   1.306 -1.1746  0.1594  0.7624
    1SOL    HW3  747   0.308   2.134   1.275  0.3834 -1.1550 -0.5888
    1SOL    MW4  748   0.388   2.164   1.262  0.0692  0.0167  0.1498
    1SOL     OW  749   1.998   4.304   0.532 -0.5054 -0.3532 -0.3572
    1SOL    HW2  750   1.999   4.211   0.512 -0.5122 -0.9442  2.1537
    1SOL    HW3  751   1.915   4.317   0.579 -0.4386  0.8788 -0.5683
    1SOL    MW4  752   1.987   4.294   0.536 -0.4976 -0.2685 -0.0538
    1SOL     OW  753   3.710   4.234   0.580 -0.4562 -0.3968  0.1005
    1SOL    HW2  754   3.801   4.250   0.555  0.0886 -1.3052  1.4661
    1SOL    HW3  755   3.673   4.321   0.596  0.2030 -0.0418 -0.3042
    1SOL    MW4  756   3.717   4.248   0.578 -0.2973 -0.4702  0.2273
    1SOL     OW  757   0.470   3.632   0.086 -0.3298  0.4081 -0.2923
    1SOL    HW2  758   0.468   3.722   0.054 -0.8656  0.9521  1.2741
    1SOL    HW3  759   0.384   3.618   0.125  0.1128 -0.4561  0.3824
    1SOL    MW4  760   0.458   3.642   0.087 -0.3421  0.3660  0.0034
    1SOL     OW  761   2.126   2.808   1.079  0.2520 -0.5404  0.4142
    1SOL    HW2  762   2.142   2.816   0.985  0.6672  1.1201  0.6092
    1SOL    HW3  763   2.098   2.717   1.091  0.4707 -0.8461 -1.2674
    1SOL    MW4  764   2.124   2.797   1.069  0.3357 -0.3617  0.2180
    1SOL     OW  765   3.981   3.271   0.314  0.0242  0.0652  0.2037
    1SOL    HW2  766   3.894   3.296   0.283  0.4582  0.2554 -0.8765
    1SOL    HW3  767   3.987   3.177   0.296 -0.5215 -0.2594  1.6540
    1SOL    MW4  768   3.970   3.262   0.308  0.0093  0.0472  0.2525
    1SOL     OW  769   1.622   3.128   1.219 -0.1433  0.2924  0.1033
    1SOL    HW2  770   1.616   3.124   1.315  1.7745  1.4407  0.2960
    1SOL    HW3  771   1.533   3.112   1.189 -1.0656  1.3695  2.1385
    1SOL    MW4  772   1.610   3.126   1.228 -0.0118  0.5860  0.3972
    1SOL     OW  773   2.191   2.794   0.821 -0.0978 -0.0616  0.1639
    1SOL    HW2  774   2.163   2.711   0.782  1.4897  0.1086 -1.3704
    1SOL    HW3  775   2.154   2.861   0.762  0.3555  0.2611  0.2474
    1SOL    MW4  776   2.182   2.792   0.808  0.1714  0.0031 -0.0275
    1SOL     OW  777   3.024   3.718   1.211 -0.2919  0.0782 -0.3764
    1SOL    HW2  778   3.036   3.629   1.245 -0.0498  0.4341  0.4873
    1SOL    HW3  779   2.955   3.709   1.145  0.2330 -0.8744 -0.8172
    1SOL    MW4  780   3.016   3.705   1.207 -0.1910 -0.0005 -0.3206
    1SOL     OW  781   0.303   0.306   2.194  0.5191  0.2048 -0.0887
    1SOL    HW2  782   0.384   0.348   2.165  1.2260  0.1968  1.8060
    1SOL    HW3  783   0.253   0.377   2.235 -0.1838  0.0826 -0.7231
    1SOL    MW4  784   0.307   0.321   2.196  0.5197  0.1876  0.0775
    1SOL     OW  785   0.927   3.549   0.109 -0.7359 -0.1402  0.2813
    1SOL    HW2  786   0.970   3.562   0.024  1.1334  1.0955  1.3790
    1SOL    HW3  787   0.865   3.622   0.115  0.5876  0.9711  0.8309
    1SOL    MW4  788   0.925   3.561   0.099 -0.3147  0.1695  0.4987
    1SOL     OW  789   0.483   3.421   0.793  0.2701  0.2993  0.2420
    1SOL    HW2  790   0.561   3.400   0.846  0.5993 -0.2060 -0.4301
    1SOL    HW3  791   0.427   3.344   0.802 -0.1952  0.7001  0.7943
    1SOL    MW4  792   0.486   3.408   0.801  0.2521  0.2856  0.2262
    1SOL     OW  793   2.340   0.065   0.584  0.6975  0.0762  0.1609
    1SOL    HW2  794   2.331   0.148   0.631  1.3443  0.2200  0.0377
    1SOL    HW3  795   2.256   0.052   0.540  0.6233  0.7041  0.1210
    1SOL    MW4  796   2.328   0.074   0.584  0.7732  0.1780  0.1393
    1SOL     OW  797   0.936   3.793   0.498  0.4452  0.4488  0.2982
    1SOL    HW2  798   0.859   3.830   0.454 -0.7478  1.2558  2.9829
    1SOL    HW3  799   0.917   3.699   0.504 -0.2397  0.6125  0.7510
    1SOL    MW4  800   0.923   3.786   0.493  0.1975  0.5767  0.7122
    1SOL     OW  801   4.364   2.800   0.766 -0.0245  0.0095 -0.0272
    1SOL    HW2  802   4.398   2.871   0.711 -1.0790  0.4471 -0.1071
    1SOL    HW3  803   4.362   2.837   0.855  0.7893 -0.3956  0.1694
    1SOL    MW4  804   4.369   2.814   0.771 -0.0563  0.0138 -0.0118
    1SOL     OW  805   1.716   1.423   0.365  0.0344 -0.5165  0.3756
    1SOL    HW2  806   1.799   1.465   0.345 -0.2506  0.2408  0.7531
    1SOL    HW3  807   1.650   1.490   0.350 -0.5766 -1.3198 -0.5889
    1SOL    MW4  808   1.718   1.437   0.361 -0.0837 -0.5226  0.2981
    1SOL     OW  809   2.228   4.354   0.168 -0.0113  0.0596  0.0666
    1SOL    HW2  810   2.314   4.383   0.137  0.0776 -0.2000  0.0692
    1SOL    HW3  811   2.219   4.394   0.254  0.9038 -1.4002  0.8663
    1SOL    MW4  812   2.238   4.363   0.175  0.1211 -0.1674  0.1725
    1SOL     OW  813   2.791   1.204   0.636  0.3486  0.1871 -0.1055
    1SOL    HW2  814   2.872   1.152   0.643  1.0246  1.0064 -1.5381
    1SOL    HW3  815   2.821   1.293   0.620 -0.8494  0.4920 -0.6929
    1SOL    MW4  816   2.806   1.209   0.635  0.2797  0.3355 -0.3721
    1SOL     OW  817   4.359   3.553   0.340  0.2277 -0.3128 -0.0862
    1SOL    HW2  818   4.266   3.540   0.319  0.0327 -0.0365  0.5710
    1SOL    HW3  819   4.390   3.465   0.363  0.1720 -0.4359 -0.4884
    1SOL    MW4  820   4.351   3.540   0.340  0.1945 -0.2925 -0.0525
    1SOL     OW  821   4.097   1.462   0.290 -0.3065  0.1394  0.0182
    1SOL    HW2  822   4.042   1.427   0.360  0.0669 -1.0130 -0.2512
    1SOL    HW3  823   4.115   1.387   0.234  0.1943  0.8520 -0.7938
    1SOL    MW4  824   4.092   1.448   0.292 -0.1917  0.0814 -0.1245
    1SOL     OW  825   4.016   2.991   0.323  0.4801  0.0682 -0.2989
    1SOL    HW2  826   3.963   2.923   0.281 -0.5545  0.9236 -0.3896
    1SOL    HW3  827   4.106   2.958   0.318  0.0001 -1.2302 -0.4609
    1SOL    MW4  828   4.021   2.978   0.317  0.2799  0.0098 -0.3322
    1SOL     OW  829   2.170   3.282   0.998 -0.0419  0.1887  0.1186
    1SOL    HW2  830   2.090   3.271   0.947  0.7587 -0.1777 -1.0987
    1SOL    HW3  831   2.184   3.377   1.000  0.6217  0.1503 -1.5086
    1SOL    MW4  832   2.161   3.293   0.992  0.1514  0.1352 -0.2567
    1SOL     OW  833   4.450   3.433   1.148  0.3054  0.4627 -0.0423
    1SOL    HW2  834   4.519   3.473   1.095  1.1871 -1.3121 -0.2653
    1SOL    HW3  835   4.438   3.347   1.109 -0.1819 -0.2478  1.6712
    1SOL    MW4  836   4.458   3.427   1.136  0.3572  0.1349  0.1545
    1SOL     OW  837   0.757   1.645   0.690  0.0531  0.2200 -0.0175
    1SOL    HW2  838   0.810   1.692   0.755 -0.7090 -0.7456  1.3283
    1SOL    HW3  839   0.669   1.644   0.728 -0.1600 -1.3879 -0.5191
    1SOL    MW4  840   0.752   1.651   0.703 -0.0755 -0.1196  0.0939
    1SOL     OW  841   3.151   3.013   0.755 -0.1218 -0.0460  0.6075
    1SOL    HW2  842   3.125   3.005   0.846 -0.2226  0.8560  0.6651
    1SOL    HW3  843   3.222   3.077   0.756 -0.8319  0.7745 -0.0666
    1SOL    MW4  844   3.157   3.021   0.767 -0.2289  0.1814  0.5261
    1SOL     OW  845   0.080   4.009   1.938 -0.4913  0.4418 -0.0612
    1SOL    HW2  846   0.068   3.937   2.000  2.0206 -0.1034 -0.1757
    1SOL    HW3  847   0.147   4.065   1.978 -0.6225  1.4007 -1.1485
    1SOL    MW4  848   0.087   4.007   1.952 -0.1772  0.4969 -0.2198
    1SOL     OW  849   2.797   3.591   0.161 -0.4747  0.1827 -0.2586
    1SOL    HW2  850   2.784   3.497   0.172 -0.6075  0.4452  2.0755
    1SOL    HW3  851   2.891   3.601   0.145 -0.3225 -0.2771  0.3394
    1SOL    MW4  852   2.808   3.580   0.160 -0.4721  0.1569  0.1283
    1SOL     OW  853   4.087   3.527   0.325 -0.0445 -0.3810 -0.1743
    1SOL    HW2  854   4.024   3.591   0.292 -0.9760 -0.9468  0.4978
    1SOL    HW3  855   4.047   3.442   0.309  0.1214 -0.7137  1.0743
    1SOL    MW4  856   4.074   3.524   0.319 -0.1454 -0.4997  0.0791
    1SOL     OW  857   4.047   2.227   0.486 -0.4409  0.1565  0.1124
    1SOL    HW2  858   4.130   2.228   0.533 -0.4135  0.8620  0.0535
    1SOL    HW3  859   3.982   2.250   0.552 -0.3538  1.5651 -0.2764
    1SOL    MW4  860   4.049   2.230   0.501 -0.4253  0.4354  0.0533
    1SOL     OW  861   0.577   0.518   0.631 -0.1557  0.5180  0.3606
    1SOL    HW2  862   0.645   0.584   0.624  0.8112 -0.3153  1.7282
    1SOL    HW3  863   0.495   0.567   0.626  0.5510  1.7481  0.7188
    1SOL    MW4  864   0.575   0.533   0.629  0.0650  0.5703  0.5882
    1SOL     OW  865   3.216   1.147   1.170 -0.1764  0.1550  0.0721
    1SOL    HW2  866   3.212   1.239   1.196 -0.1658 -0.5051  2.5449
    1SOL    HW3  867   3.156   1.140   1.096 -1.2183  1.8703  0.7178
    1SOL    MW4  868   3.208   1.158   1.164 -0.3126  0.2942  0.4836
    1SOL     OW  869   1.102   2.154   2.063  0.3595 -0.4102  0.1129
    1SOL    HW2  870   1.065   2.242   2.077 -0.2395 -0.1452 -2.7498
    1SOL    HW3  871   1.099   2.113   2.150 -0.8130  1.8397  1.2040
    1SOL    MW4  872   1.097   2.160   2.076  0.1258 -0.0784 -0.1209
    1SOL     OW  873   2.748   0.123   1.878 -0.0532 -0.3407  0.2130
    1SOL    HW2  874   2.765   0.194   1.816 -1.0829 -0.8670 -0.6998
    1SOL    HW3  875   2.653   0.111   1.875  0.2927 -3.3075 -1.4406
    1SOL    MW4  876   2.737   0.131   1.869 -0.1435 -0.8016 -0.1255
    1SOL     OW  877   3.358   2.672   0.832 -0.2035 -0.1782 -0.6966
    1SOL    HW2  878   3.361   2.735   0.760  0.7626 -0.7335 -1.1429
    1SOL    HW3  879   3.446   2.673   0.868 -0.5679 -0.2323  0.2009
    1SOL    MW4  880   3.370   2.680   0.827 -0.1240 -0.2589 -0.6371
    1SOL     OW  881   3.864   1.944   0.549 -0.4036  0.1154 -0.0196
    1SOL    HW2  882   3.934   1.952   0.484 -1.6801  1.6630 -1.2292
    1SOL    HW3  883   3.810   1.872   0.517 -0.2267 -0.0775  0.1107
    1SOL    MW4  884   3.866   1.936   0.536 -0.5486  0.2940 -0.1621
    1SOL     OW  885   4.367   4.393   0.461 -0.0476 -0.3203  0.0540
    1SOL    HW2  886   4.405   4.481   0.458 -0.4382 -0.1413  0.3114
    1SOL    HW3  887   4.350   4.372   0.369 -0.6740  0.1915  0.0494
    1SOL    MW4  888   4.370   4.402   0.448 -0.1812 -0.2298  0.0874
    1SOL     OW  889   2.511   4.169   1.497 -0.1705 -0.2295  0.4877
    1SOL    HW2  890   2.459   4.219   1.435 -1.7517 -1.3627  0.8691
    1SOL    HW3  891   2.560   4.107   1.442  0.4977  0.5887  0.1576
    1SOL    MW4  892   2.511   4.167   1.481 -0.2909 -0.2713  0.4945
    1SOL     OW  893   0.926   4.355   0.289  0.0456 -0.2844  0.1251
    1SOL    HW2  894   0.952   4.437   0.247 -0.4790  0.0479  0.4427
    1SOL    HW3  895   1.001   4.297   0.277  0.3559  0.1873 -0.2444
    1SOL    MW4  896   0.939   4.358   0.282  0.0173 -0.1783  0.1183
    1SOL     OW  897   4.251   0.374   0.349 -0.1693  0.5855 -0.0849
    1SOL    HW2  898   4.215   0.447   0.399 -1.0658 -0.2898  0.5496
    1SOL    HW3  899   4.344   0.394   0.342  0.1040  0.3848  2.5415
    1SOL    MW4  900   4.259   0.386   0.354 -0.2513  0.4435  0.3453
    1SOL     OW  901   0.322   0.568   0.373 -0.4343  0.3577  0.1326
    1SOL    HW2  902   0.348   0.588   0.463 -1.6501  0.7351  0.4027
    1SOL    HW3  903   0.306   0.653   0.332  0.8558  0.2280 -0.6780
    1SOL    MW4  904   0.323   0.582   0.379 -0.4245  0.3904  0.0613
    1SOL     OW  905   1.088   2.198   0.842  0.1358 -0.0055 -0.0627
    1SOL    HW2  906   1.014   2.210   0.901  0.1343 -1.8005  0.3438
    1SOL    HW3  907   1.048   2.175   0.758  0.1854  0.6275 -0.2576
    1SOL    MW4  908   1.073   2.196   0.839  0.1421 -0.1588 -0.0347
    1SOL     OW  909   0.065   2.839   0.367  0.3232  0.1997 -0.2589
    1SOL    HW2  910   0.071   2.744   0.378  2.2939  0.0985 -1.9639
    1SOL    HW3  911   0.149   2.872   0.400 -0.6137  1.4419  0.9752
    1SOL    MW4  912   0.077   2.831   0.373  0.4596  0.3505 -0.3210
    1SOL     OW  913   1.400   3.222   1.872  0.0960  0.0999  0.2447
    1SOL    HW2  914   1.495   3.225   1.882  0.1071  0.2875  0.0940
    1SOL    HW3  915   1.366   3.268   1.949  0.1628  1.0479 -0.2898
    1SOL    MW4  916   1.408   3.229   1.883  0.1062  0.2499  0.1544
    1SOL     OW  917   2.827   1.485   0.662 -0.3853  0.0387  0.1136
    1SOL    HW2  918   2.890   1.528   0.604  0.5039 -1.3711 -0.0002
    1SOL    HW3  919   2.748   1.539   0.657  0.3041  0.9629 -0.9559
    1SOL    MW4  920   2.825   1.498   0.654 -0.1769 -0.0253 -0.0425
    1SOL     OW  921   3.234   0.446   1.060  0.1519  0.1154 -0.3809
    1SOL    HW2  922   3.290   0.471   1.134 -0.3950  0.6350 -0.1431
    1SOL    HW3  923   3.283   0.474   0.983 -1.0129  3.0774 -0.0824
    1SOL    MW4  924   3.248   0.453   1.060 -0.0739  0.5747 -0.3102
    1SOL     OW  925   2.814   2.043   1.075 -0.1339  0.2830 -0.2301
    1SOL    HW2  926   2.825   1.948   1.064 -0.5190  0.3438 -1.1549
    1SOL    HW3  927   2.855   2.062   1.159  0.1353 -0.6749 -0.1403
    1SOL    MW4  928   2.821   2.033   1.084 -0.1493  0.1647 -0.3403
    1SOL     OW  929   0.203   3.902   0.735  0.4107  0.0201 -0.1954
    1SOL    HW2  930   0.125   3.875   0.785  0.6100 -0.2475 -0.0282
    1SOL    HW3  931   0.277   3.877   0.790  0.6170  0.2895 -0.3488
    1SOL    MW4  932   0.202   3.895   0.749  0.4642  0.0203 -0.1937
    1SOL     OW  933   3.150   3.365   0.940  0.1171 -0.0080 -0.1792
    1SOL    HW2  934   3.185   3.349   1.028  0.3782 -0.4607 -0.3635
    1SOL    HW3  935   3.201   3.438   0.906  0.6057 -0.3963 -0.2856
    1SOL    MW4  936   3.161   3.372   0.947  0.2158 -0.1190 -0.2175
    1SOL     OW  937   0.914   2.218   1.058  0.1739 -0.1967  0.1649
    1SOL    HW2  938   0.966   2.273   1.117 -1.6763  1.2537  0.4895
    1SOL    HW3  939   0.825   2.253   1.065 -0.6829 -2.0481 -1.0705
    1SOL    MW4  940   0.909   2.230   1.067 -0.1833 -0.2494  0.0448
    1SOL     OW  941   1.861   4.437   0.247  0.4215  0.2802  0.3862
    1SOL    HW2  942   1.946   4.427   0.289  0.2018 -1.1280  0.5367
    1SOL    HW3  943   1.877   4.421   0.154  0.2735 -0.2925  0.4574
    1SOL    MW4  944   1.874   4.434   0.240  0.3731  0.0191  0.4155
    1SOL     OW  945   2.301   0.522   0.641  0.2077  0.4474 -0.1459
    1SOL    HW2  946   2.303   0.569   0.724 -0.3628  1.5554 -0.7509
    1SOL    HW3  947   2.394   0.512   0.617  0.4457 -1.1647  1.3116
    1SOL    MW4  948   2.314   0.527   0.649  0.1638  0.3809 -0.0335
    1SOL     OW  949   2.955   4.148   0.842  0.2248 -0.2702 -0.0096
    1SOL    HW2  950   3.029   4.096   0.873 -0.6354 -0.9644  0.9143
    1SOL    HW3  951   2.931   4.204   0.916 -1.2749 -1.3005  0.3129
    1SOL    MW4  952   2.962   4.148   0.855 -0.0865 -0.4978  0.1549
    1SOL     OW  953   0.356   4.217   1.392  0.2157 -0.2262 -0.3002
    1SOL    HW2  954   0.422   4.148   1.400  0.4673 -0.0378 -0.7160
    1SOL    HW3  955   0.276   4.178   1.426  0.6336 -0.3242  0.5856
    1SOL    MW4  956   0.354   4.203   1.398  0.3041 -0.2141 -0.2382
    1SOL     OW  957   0.832   2.867   1.266  0.0013  0.3401 -0.0250
    1SOL    HW2  958   0.857   2.790   1.317  0.0702  0.5837  0.3196
    1SOL    HW3  959   0.887   2.865   1.189 -1.5093 -1.1256 -1.0840
    1SOL    MW4  960   0.842   2.857   1.263 -0.1890  0.1788 -0.1192
    1SOL     OW  961   2.610   2.266   1.063  0.3575  0.1423  0.3458
    1SOL    HW2  962   2.664   2.229   0.993  1.4118  1.8837  0.2291
    1SOL    HW3  963   2.554   2.330   1.019 -0.4356 -0.2275  0.7905
    1SOL    MW4  964   2.609   2.270   1.048  0.3922  0.3233  0.3893
    1SOL     OW  965   1.577   2.235   0.788  0.2257 -0.3231  0.2645
    1SOL    HW2  966   1.521   2.158   0.783  1.8562 -1.5028 -0.5171
    1SOL    HW3  967   1.628   2.233   0.707  0.6775  1.2764  0.4901
    1SOL    MW4  968   1.577   2.225   0.777  0.5006 -0.2680  0.1912
    1SOL     OW  969   1.971   0.321   0.603 -0.1622 -0.1390  0.0718
    1SOL    HW2  970   1.996   0.398   0.553  1.4988 -1.0469 -0.5394
    1SOL    HW3  971   2.045   0.304   0.661 -1.2393 -0.2604  1.4530
    1SOL    MW4  972   1.984   0.329   0.604 -0.0852 -0.2748  0.1734
    1SOL     OW  973   1.840   3.818   0.083  0.0558 -0.1217  0.0974
    1SOL    HW2  974   1.839   3.913   0.067  1.2388 -0.0146  0.6092
    1SOL    HW3  975   1.932   3.794   0.077 -0.2191 -1.2110  0.1962
    1SOL    MW4  976   1.852   3.827   0.080  0.1756 -0.2513  0.1779
    1SOL     OW  977   0.233   1.978   0.545 -1.0542 -0.1063  0.4857
    1SOL    HW2  978   0.182   1.921   0.487 -0.3338 -0.5772  0.3050
    1SOL    HW3  979   0.243   1.928   0.626  1.3647 -1.1471 -0.3988
    1SOL    MW4  980   0.228   1.964   0.548 -0.6400 -0.3058  0.3452
    1SOL     OW  981   3.237   1.422   0.865 -0.3180 -0.4349  0.1875
    1SOL    HW2  982   3.142   1.414   0.870 -0.3886 -0.6962 -1.2426
    1SOL    HW3  983   3.253   1.472   0.784  0.6772  1.7011  1.6328
    1SOL    MW4  984   3.227   1.428   0.855 -0.1962 -0.1875  0.1895
    1SOL     OW  985   3.121   3.101   0.331  0.2075  0.0104 -0.2810
    1SOL    HW2  986   3.129   3.196   0.322  0.7191 -0.1842 -1.8812
    1SOL    HW3  987   3.027   3.084   0.324  0.0748  0.4152  0.3735
    1SOL    MW4  988   3.110   3.112   0.329  0.2577  0.0381 -0.4058
    1SOL     OW  989   1.766   0.000   0.383  0.0647  0.4667 -0.2651
    1SOL    HW2  990   1.794  -0.076   0.333 -0.0798  0.0375  0.3035
    1SOL    HW3  991   1.691   0.034   0.334  0.7825  0.8733 -1.0941
    1SOL    MW4  992   1.760  -0.005   0.370  0.1404  0.4630 -0.2995
    1SOL     OW  993   3.045   3.392   0.656  0.4683  0.2111  0.1113
    1SOL    HW2  994   3.084   3.384   0.743 -0.3638 -0.4111  0.4364
    1SOL    HW3  995   2.987   3.468   0.662  0.6003  0.3184  0.0281
    1SOL    MW4  996   3.042   3.401   0.668  0.3760  0.1431  0.1432
    1SOL     OW  997   1.943   2.371   0.563  0.0732 -0.5293  0.3040
    1SOL    HW2  998   1.868   2.311   0.560 -0.7681  0.5535 -1.9348
    1SOL    HW3  999   1.970   2.380   0.472  1.5907  0.7636  0.8551
    1SOL    MW4 1000   1.936   2.364   0.551  0.1625 -0.2158  0.0813
    1SOL     OW 1001   0.984   0.302   0.630  0.6299 -0.4086 -0.1042
    1SOL    HW2 1002   0.968   0.342   0.544 -0.8237 -2.7682 -0.9871
    1SOL    HW3 1003   0.898   0.300   0.671  1.2671  0.3803  1.2762
    1SOL    MW4 1004   0.970   0.307   0.624  0.5221 -0.6158 -0.0385
    1SOL     OW 1005   0.193   0.075   1.089  0.3365  0.0183 -0.3829
    1SOL    HW2 1006   0.156   0.075   1.177  1.2402 -0.4632  0.0048
    1SOL    HW3 1007   0.206  -0.018   1.069  1.6953  0.2010 -0.3616
    1SOL    MW4 1008   0.189   0.063   1.098  0.6350 -0.0211 -0.3289
    1SOL     OW 1009   3.562   0.722   1.233 -0.4923 -0.0979 -0.0903
    1SOL    HW2 1010   3.593   0.761   1.151  0.5573  0.6210  0.6459
    1SOL    HW3 1011   3.491   0.778   1.262 -0.4068  0.0383 -0.1475
    1SOL    MW4 1012   3.557   0.734   1.226 -0.3424  0.0149 -0.0008
    1SOL     OW 1013   2.639   3.223   0.620 -0.3954  0.2499  0.1982
    1SOL    HW2 1014   2.726   3.197   0.650 -0.4150  1.0911  0.9816
    1SOL    HW3 1015   2.590   3.140   0.616  0.4568 -0.2388 -0.3501
    1SOL    MW4 1016   2.644   3.208   0.623 -0.2854  0.2961  0.2292
    1SOL     OW 1017   3.962   0.176   1.914 -0.3802 -0.0540  0.2247
    1SOL    HW2 1018   3.897   0.227   1.865  0.2557 -0.5664 -1.1746
    1SOL    HW3 1019   3.995   0.237   1.980  0.2888  1.3614 -1.3501
    1SOL    MW4 1020   3.958   0.191   1.916 -0.2081  0.0651 -0.1676
    1SOL     OW 1021   1.325   1.481   0.279  0.3951 -0.1747  0.1267
    1SOL    HW2 1022   1.232   1.501   0.289  0.4215  0.6646 -1.1401
    1SOL    HW3 1023   1.334   1.393   0.315 -0.9334 -0.3613  0.0559
    1SOL    MW4 1024   1.314   1.472   0.285  0.2233 -0.0887 -0.0498
    1SOL     OW 1025   2.630   2.221   0.598 -0.0252 -0.5919  0.3433
    1SOL    HW2 1026   2.679   2.284   0.544  0.0489  0.2429  1.3783
    1SOL    HW3 1027   2.672   2.225   0.684 -0.7551 -1.2102  0.7364
    1SOL    MW4 1028   2.642   2.230   0.602 -0.1116 -0.5631  0.5317
    1SOL     OW 1029   3.972   0.902   0.494 -0.3766  0.5232  0.0275
    1SOL    HW2 1030   3.943   0.838   0.430  0.3148  0.1433  0.0926
    1SOL    HW3 1031   3.891   0.945   0.523 -0.9612 -0.9927  0.7103
    1SOL    MW4 1032   3.957   0.899   0.490 -0.3626  0.2730  0.1262
    1SOL     OW 1033   1.520   0.988   1.227 -0.2997 -0.2870 -0.0367
    1SOL    HW2 1034   1.557   1.018   1.310  0.8520 -0.0963 -0.6023
    1SOL    HW3 1035   1.592   0.997   1.164 -1.3472  0.1797 -1.1925
    1SOL    MW4 1036   1.535   0.993   1.230 -0.2859 -0.2003 -0.2638
    1SOL     OW 1037   0.006   2.108   0.369 -0.2781 -0.2756  0.1219
    1SOL    HW2 1038  -0.042   2.189   0.359  1.3718  1.1151  2.9006
    1SOL    HW3 1039   0.087   2.122   0.320  0.4244  0.1513  1.3808
    1SOL    MW4 1040   0.011   2.120   0.362  0.0324 -0.0360  0.6546
    1SOL     OW 1041   1.800   2.572   1.073  0.0417 -0.0971 -0.3285
    1SOL    HW2 1042   1.888   2.570   1.112 -0.3138 -0.3864  0.4848
    1SOL    HW3 1043   1.783   2.481   1.050 -1.0039 -0.4441  1.7412
    1SOL    MW4 1044   1.810   2.560   1.075 -0.1431 -0.1812  0.0517
    1SOL     OW 1045   3.569   0.783   0.566  0.7637 -0.1503 -0.3070
    1SOL    HW2 1046   3.623   0.862   0.560  0.4282  0.1746  0.6972
    1SOL    HW3 1047   3.615   0.718   0.514  1.4978  0.4647 -0.4427
    1SOL    MW4 1048   3.582   0.785   0.559  0.8163 -0.0263 -0.1924
    1SOL     OW 1049   4.110   3.256   0.696  0.3555  0.1369 -0.1682
    1SOL    HW2 1050   4.086   3.337   0.650  0.6442  0.3895  0.1204
    1SOL    HW3 1051   4.145   3.199   0.628  2.0280  1.0043 -0.0707
    1SOL    MW4 1052   4.112   3.259   0.681  0.6142  0.2849 -0.1171
    1SOL     OW 1053   1.538   0.077   0.255 -0.1096 -0.3623  0.1796
    1SOL    HW2 1054   1.490   0.065   0.337 -0.0183 -0.5939  0.2004
    1SOL    HW3 1055   1.511   0.163   0.223 -0.5781 -0.5198  0.1626
    1SOL    MW4 1056   1.528   0.087   0.262 -0.1593 -0.4136  0.1801
    1SOL     OW 1057   1.956   2.637   0.260  0.3807 -0.0443 -0.1795
    1SOL    HW2 1058   1.990   2.678   0.181  0.6964  1.4059  0.6878
    1SOL    HW3 1059   1.866   2.669   0.267  0.8315  1.0637  0.8471
    1SOL    MW4 1060   1.948   2.647   0.251  0.4817  0.2933  0.0703
    1SOL     OW 1061   0.670   2.959   0.578  0.1701 -0.5360  0.1965
    1SOL    HW2 1062   0.753   2.920   0.604  0.2613 -0.2021  0.4130
    1SOL    HW3 1063   0.643   2.910   0.501  1.1382  0.1097 -0.5666
    1SOL    MW4 1064   0.677   2.948   0.572  0.3098 -0.4070  0.1244
    1SOL     OW 1065   0.459   3.478   0.508  0.1236 -0.0700 -0.2461
    1SOL    HW2 1066   0.470   3.447   0.598 -0.0743  1.1911  0.2162
    1SOL    HW3 1067   0.534   3.442   0.461  1.5983  1.3138  0.9846
    1SOL    MW4 1068   0.470   3.469   0.514  0.2921  0.2787 -0.0228
    1SOL     OW 1069   2.125   0.893   0.505 -0.0033  0.0561 -0.5195
    1SOL    HW2 1070   2.052   0.925   0.560  0.0376 -0.1341 -0.3548
    1SOL    HW3 1071   2.170   0.973   0.478  0.4387  0.1172  0.3620
    1SOL    MW4 1072   2.121   0.908   0.509  0.0603  0.0390 -0.3815
    1SOL     OW 1073   1.162   3.872   0.364 -0.3073 -0.4274 -0.1816
    1SOL    HW2 1074   1.079   3.844   0.402 -1.2751  0.3827 -1.6883
    1SOL    HW3 1075   1.143   3.956   0.323  1.4009  0.0606 -0.0274
    1SOL    MW4 1076   1.149   3.879   0.364 -0.2096 -0.2563 -0.3601
    1SOL     OW 1077   4.414   1.233   0.915  0.2338  0.0868  0.0594
    1SOL    HW2 1078   4.477   1.162   0.926 -0.9520 -1.1339 -0.7983
    1SOL    HW3 1079   4.338   1.205   0.966  0.6802  1.9607  1.8134
    1SOL    MW4 1080   4.412   1.220   0.923  0.1359  0.1729  0.1776
    1SOL     OW 1081   1.855   3.302   0.292  0.1349  0.4946  0.4154
    1SOL    HW2 1082   1.776   3.342   0.329 -1.2083 -1.0398 -0.6929
    1SOL    HW3 1083   1.880   3.235   0.356  0.8323  1.3072  0.9996
    1SOL    MW4 1084   1.848   3.299   0.305  0.0497  0.3994  0.3463
    1SOL     OW 1085   1.973   2.371   1.375  0.3548  0.3185  0.2987
    1SOL    HW2 1086   1.997   2.420   1.453  1.4363  0.6088 -0.2005
    1SOL    HW3 1087   1.996   2.429   1.302 -1.2038  0.2959 -0.2210
    1SOL    MW4 1088   1.980   2.385   1.375  0.2917  0.3536  0.1642
    1SOL     OW 1089   1.197   0.541   0.515  0.1603 -0.0122  0.3001
    1SOL    HW2 1090   1.217   0.476   0.447  1.2427  0.8142 -0.1856
    1SOL    HW3 1091   1.245   0.510   0.592 -0.7558 -0.7426  0.5777
    1SOL    MW4 1092   1.206   0.528   0.516  0.1823  0.0004  0.2726
    1SOL     OW 1093   2.851   2.409   0.490 -0.1476  0.1528  0.1441
    1SOL    HW2 1094   2.904   2.331   0.473 -0.5645 -0.0712 -0.1302
    1SOL    HW3 1095   2.907   2.464   0.545  0.1791 -0.3032  0.2733
    1SOL    MW4 1096   2.865   2.406   0.495 -0.1595  0.0632  0.1249
    1SOL     OW 1097   1.068   1.539   0.419 -0.3351  0.3105 -0.2785
    1SOL    HW2 1098   0.978   1.560   0.394  0.0031 -0.0948 -1.8924
    1SOL    HW3 1099   1.063   1.519   0.512 -2.0263 -0.3081 -0.4863
    1SOL    MW4 1100   1.056   1.539   0.428 -0.5134  0.1755 -0.5188
    1SOL     OW 1101   2.405   4.368   1.323 -0.4069  0.0792 -0.5262
    1SOL    HW2 1102   2.352   4.325   1.256 -0.1653  0.9923 -1.3048
    1SOL    HW3 1103   2.361   4.450   1.341 -1.2513 -0.7816  1.4823
    1SOL    MW4 1104   2.392   4.373   1.317 -0.4864  0.0858 -0.3639
    1SOL     OW 1105   3.308   1.671   1.015  0.0256 -0.0948  0.1159
    1SOL    HW2 1106   3.235   1.724   1.046 -0.2364  0.7383 -1.8577
    1SOL    HW3 1107   3.267   1.600   0.966  0.5297  0.3537 -0.9640
    1SOL    MW4 1108   3.293   1.668   1.013  0.0577  0.0744 -0.2872
    1SOL     OW 1109   3.530   0.235   1.239  0.3157  0.4302  0.1894
    1SOL    HW2 1110   3.617   0.236   1.279  0.2050  2.0181  0.4101
    1SOL    HW3 1111   3.545   0.261   1.148  0.1775 -0.1784 -0.0104
    1SOL    MW4 1112   3.544   0.238   1.233  0.2828  0.5594  0.1920
    1SOL     OW 1113   0.543   2.490   0.276  0.1144 -0.1113  0.0200
    1SOL    HW2 1114   0.457   2.471   0.312  0.3540  0.7495  1.0706
    1SOL    HW3 1115   0.525   2.524   0.188 -0.6237  0.1379  0.2615
    1SOL    MW4 1116   0.529   2.492   0.269  0.0487  0.0350  0.1905
    1SOL     OW 1117   1.915   2.084   1.000 -0.1671 -0.2312 -0.3181
    1SOL    HW2 1118   1.862   2.020   0.952 -1.1232  0.9038 -0.8020
    1SOL    HW3 1119   2.000   2.084   0.954 -0.4441 -0.5383 -0.8326
    1SOL    MW4 1120   1.919   2.076   0.988 -0.3299 -0.1218 -0.4498
    1SOL     OW 1121   1.462   4.259   0.242 -0.2046 -0.3845 -0.0900
    1SOL    HW2 1122   1.545   4.233   0.203  1.0373  1.9601  0.8442
    1SOL    HW3 1123   1.468   4.231   0.334 -0.3940 -0.0836  0.0170
    1SOL    MW4 1124   1.473   4.252   0.249 -0.0657 -0.0353  0.0474
    1SOL     OW 1125   4.475   2.536   0.637  0.1929  0.3881 -0.2110
    1SOL    HW2 1126   4.424   2.612   0.664 -0.6913  0.1928 -1.2858
    1SOL    HW3 1127   4.499   2.554   0.546 -0.4415 -0.8212 -0.6286
    1SOL    MW4 1128   4.471   2.548   0.628 -0.0067  0.2027 -0.4078
    1SOL     OW 1129   3.942   1.135   1.102  0.3109 -0.0251 -0.1663
    1SOL    HW2 1130   3.945   1.082   1.182 -0.2238 -1.2772 -0.9713
    1SOL    HW3 1131   3.911   1.221   1.131 -2.2606 -1.1829  0.5912
    1SOL    MW4 1132   3.939   1.140   1.117 -0.0989 -0.3430 -0.1726
    1SOL     OW 1133   4.108   2.470   0.352  0.0921 -0.3885 -0.4467
    1SOL    HW2 1134   4.021   2.504   0.329  0.3025  0.0244 -0.6274
    1SOL    HW3 1135   4.090   2.389   0.400 -0.3429 -1.3815 -2.2315
    1SOL    MW4 1136   4.094   2.464   0.355  0.0620 -0.4649 -0.7060
    1SOL     OW 1137   0.009   3.997   1.163  0.1040  0.0891  0.4707
    1SOL    HW2 1138  -0.058   4.061   1.188 -0.1772 -0.6987  1.7339
    1SOL    HW3 1139   0.089   4.049   1.155 -0.4693  0.8888 -0.2023
    1SOL    MW4 1140   0.011   4.012   1.165 -0.0081  0.0911  0.5485
    1SOL     OW 1141   0.739   2.504   1.979 -0.0609 -0.4134 -0.0362
    1SOL    HW2 1142   0.657   2.553   1.989  0.1023 -0.1852  0.1747
    1SOL    HW3 1143   0.735   2.470   1.890 -0.6817 -0.9367  0.1820
    1SOL    MW4 1144   0.727   2.506   1.969 -0.1213 -0.4528  0.0205
    1SOL     OW 1145   1.274   1.279   0.689  0.2343 -0.2021  0.0468
    1SOL    HW2 1146   1.357   1.252   0.729  0.5145 -1.0120 -1.0510
    1SOL    HW3 1147   1.209   1.268   0.758  1.1438  1.0895  1.1244
    1SOL    MW4 1148   1.276   1.274   0.703  0.3912 -0.1384  0.0442
    1SOL     OW 1149   2.460   3.378   0.781  0.6791 -0.0452  0.1541
    1SOL    HW2 1150   2.513   3.326   0.720 -0.7991 -0.8060 -0.5076
    1SOL    HW3 1151   2.424   3.448   0.727 -1.6746 -1.4633 -0.1528
    1SOL    MW4 1152   2.462   3.381   0.765  0.1738 -0.3324  0.0263
    1SOL     OW 1153   2.322   2.502   0.421  0.0516  0.2916 -0.0136
    1SOL    HW2 1154   2.284   2.588   0.437 -0.0794  0.1744  0.3080
    1SOL    HW3 1155   2.417   2.517   0.422 -0.0086  0.8600 -2.4052
    1SOL    MW4 1156   2.330   2.515   0.424  0.0262  0.3512 -0.2867
    1SOL     OW 1157   1.757   3.700   0.321  0.7492  0.2075  0.3669
    1SOL    HW2 1158   1.789   3.719   0.233  1.2707  1.2710  0.7825
    1SOL    HW3 1159   1.716   3.781   0.351  0.4441 -0.1876  1.0468
    1SOL    MW4 1160   1.756   3.713   0.314  0.7777  0.2954  0.5114
    1SOL     OW 1161   3.169   1.453   1.537 -0.1194 -0.1212 -0.2588
    1SOL    HW2 1162   3.246   1.410   1.574 -0.6294  1.2858  2.6540
    1SOL    HW3 1163   3.096   1.398   1.565 -0.4367  0.4173 -0.0202
    1SOL    MW4 1164   3.170   1.440   1.546 -0.2286  0.1355  0.1570
    1SOL     OW 1165   4.179   4.229   1.727 -0.1266 -0.5237 -0.3960
    1SOL    HW2 1166   4.122   4.155   1.750 -1.0169 -0.3317 -1.8695
    1SOL    HW3 1167   4.126   4.307   1.746  1.0249 -0.2299  1.7117
    1SOL    MW4 1168   4.164   4.230   1.732 -0.0920 -0.4592 -0.3123
    1SOL     OW 1169   2.011   3.365   0.743  0.3032 -0.2339 -0.3208
    1SOL    HW2 1170   1.925   3.339   0.710 -0.1600  0.7570  0.0627
    1SOL    HW3 1171   2.046   3.423   0.675  0.3487 -0.0635 -0.1533
    1SOL    MW4 1172   2.004   3.369   0.730  0.2482 -0.0803 -0.2481
    1SOL     OW 1173   3.329   3.542   0.812 -0.5416  0.3160 -0.0051
    1SOL    HW2 1174   3.400   3.570   0.870 -0.7702  0.3636  0.2544
    1SOL    HW3 1175   3.373   3.518   0.730 -0.0577 -1.0597  0.6346
    1SOL    MW4 1176   3.344   3.543   0.809 -0.5078  0.1407  0.1136
    1SOL     OW 1177   3.745   1.019   0.649 -0.0784  0.0742  0.1229
    1SOL    HW2 1178   3.778   0.995   0.735  1.4952  0.4322 -0.3701
    1SOL    HW3 1179   3.716   1.110   0.659  0.5684  0.2804  0.1546
    1SOL    MW4 1180   3.745   1.028   0.662  0.2146  0.1485  0.0620
    1SOL     OW 1181   2.618   1.199   0.849  0.1787 -0.3095  0.0160
    1SOL    HW2 1182   2.576   1.115   0.828 -0.9406  0.3027 -0.2560
    1SOL    HW3 1183   2.671   1.219   0.772  0.0404 -0.5241 -0.1366
    1SOL    MW4 1184   2.619   1.190   0.836  0.0126 -0.2570 -0.0400
    1SOL     OW 1185   4.318   2.918   1.026 -0.1724  0.1282 -0.0040
    1SOL    HW2 1186   4.234   2.939   1.066 -1.2676 -2.2117 -0.9810
    1SOL    HW3 1187   4.342   2.833   1.063  2.4290  1.3646  1.2706
    1SOL    MW4 1188   4.310   2.910   1.036  0.0262 -0.0172  0.0352
    1SOL     OW 1189   1.563   0.766   0.968  0.0110 -0.2479 -0.0223
    1SOL    HW2 1190   1.635   0.826   0.981  0.9549 -1.2373 -0.5943
    1SOL    HW3 1191   1.564   0.709   1.045 -0.6495  0.2216  0.3415
    1SOL    MW4 1192   1.572   0.766   0.980  0.0483 -0.3165 -0.0498
    1SOL     OW 1193   4.224   1.311   1.257 -0.2944 -0.1741  0.2826
    1SOL    HW2 1194   4.224   1.221   1.225 -1.0179 -0.0413 -0.0895
    1SOL    HW3 1195   4.177   1.361   1.191 -0.0657  0.4454  0.5815
    1SOL    MW4 1196   4.218   1.306   1.244 -0.3595 -0.0750  0.2729
    1SOL     OW 1197   0.083   4.646   0.711 -0.0621 -0.2620 -0.2254
    1SOL    HW2 1198   0.077   4.559   0.750  0.7065 -0.3237 -0.2309
    1SOL    HW3 1199   0.021   4.645   0.639 -0.6212 -0.5486  0.2582
    1SOL    MW4 1200   0.074   4.635   0.707 -0.0344 -0.3080 -0.1623
    1SOL     OW 1201   2.316   4.137   0.891 -0.0533  0.4216 -0.1954
    1SOL    HW2 1202   2.280   4.172   0.973 -0.1196 -0.6621  0.2432
    1SOL    HW3 1203   2.356   4.054   0.916  0.0237  0.1341 -1.2461
    1SOL    MW4 1204   2.316   4.131   0.905 -0.0520  0.2413 -0.2762
    1SOL     OW 1205   0.998   1.003   0.605 -0.8519 -0.2644 -0.0680
    1SOL    HW2 1206   1.039   0.998   0.518 -0.1545 -0.7802  0.2810
    1SOL    HW3 1207   1.031   0.926   0.651  0.7264  1.3047  1.4902
    1SOL    MW4 1208   1.008   0.992   0.600 -0.5516 -0.1255  0.1836
    1SOL     OW 1209   1.731   0.308   0.741 -0.1744  0.6169 -0.2139
    1SOL    HW2 1210   1.817   0.288   0.704 -0.7202 -1.0093 -0.6396
    1SOL    HW3 1211   1.686   0.358   0.673  0.4124  1.4286 -0.0087
    1SOL    MW4 1212   1.736   0.312   0.727 -0.1689  0.5095 -0.2429
    1SOL     OW 1213   1.506   0.345   0.178 -0.0597 -0.1321 -0.1177
    1SOL    HW2 1214   1.536   0.358   0.088 -0.1297  0.8648 -0.0027
    1SOL    HW3 1215   1.543   0.419   0.227 -0.1039 -0.6118  0.6564
    1SOL    MW4 1216   1.515   0.357   0.173 -0.0746 -0.0639 -0.0004
    1SOL     OW 1217   3.145   0.800   1.715  0.2011 -0.3774  0.1527
    1SOL    HW2 1218   3.057   0.785   1.748  0.3273  0.0610  0.7042
    1SOL    HW3 1219   3.136   0.803   1.620 -0.3112 -0.7383  0.1912
    1SOL    MW4 1220   3.132   0.798   1.707  0.1497 -0.3672  0.2304
    1SOL     OW 1221   0.784   3.207   0.589  0.1076  0.0029 -0.3466
    1SOL    HW2 1222   0.749   3.118   0.588 -0.7784  0.3229  0.8254
    1SOL    HW3 1223   0.738   3.252   0.519 -0.3890 -0.1094 -0.0901
    1SOL    MW4 1224   0.774   3.201   0.580 -0.0749  0.0300 -0.1581
    1SOL     OW 1225   0.144   0.086   2.056  0.3327  0.1513  0.0093
    1SOL    HW2 1226   0.166   0.171   2.094  0.2240 -1.1722  3.1989
    1SOL    HW3 1227   0.063   0.102   2.008  0.7780  2.0277 -0.1666
    1SOL    MW4 1228   0.136   0.099   2.055  0.3771  0.2242  0.4072
    1SOL     OW 1229   1.765   3.390   1.066  0.2073  0.4245 -0.4079
    1SOL    HW2 1230   1.717   3.378   1.148 -0.4353 -0.3242 -0.8833
    1SOL    HW3 1231   1.818   3.311   1.057 -1.0224 -0.3056 -1.5601
    1SOL    MW4 1232   1.766   3.378   1.075 -0.0397  0.2294 -0.6226
    1SOL     OW 1233   2.656   4.403   1.583 -0.1434 -0.0853 -0.3715
    1SOL    HW2 1234   2.591   4.336   1.562  0.7871 -0.4131 -2.3627
    1SOL    HW3 1235   2.724   4.392   1.517  1.7757  0.4846  1.4587
    1SOL    MW4 1236   2.656   4.393   1.571  0.2325 -0.0534 -0.3928
    1SOL     OW 1237   2.614   3.449   0.483  0.0565 -0.1734 -0.2643
    1SOL    HW2 1238   2.522   3.474   0.479 -0.3051 -1.6422 -1.3343
    1SOL    HW3 1239   2.614   3.360   0.518  1.1252  0.0240  0.2978
    1SOL    MW4 1240   2.602   3.441   0.487  0.1497 -0.3409 -0.3313
    1SOL     OW 1241   0.427   0.414   1.611  0.5551 -0.0410  0.0830
    1SOL    HW2 1242   0.444   0.501   1.647  0.6636  0.2985 -0.7667
    1SOL    HW3 1243   0.508   0.392   1.564  0.4990 -0.5722  0.2324
    1SOL    MW4 1244   0.440   0.422   1.610  0.5620 -0.0663 -0.0095
    1SOL     OW 1245   2.029   0.073   0.488  0.3395  0.1683 -0.1099
    1SOL    HW2 1246   2.018   0.162   0.521 -1.1087 -0.0135 -0.0530
    1SOL    HW3 1247   1.950   0.057   0.437  0.7391 -0.9701 -0.3842
    1SOL    MW4 1248   2.017   0.082   0.486  0.2012 -0.0059 -0.1386
    1SOL     OW 1249   0.999   0.058   0.493 -0.3613 -0.2136  0.3774
    1SOL    HW2 1250   1.022  -0.013   0.552  1.6127  0.3463  0.3500
    1SOL    HW3 1251   1.006   0.137   0.547 -0.0047  0.1678 -0.2154
    1SOL    MW4 1252   1.003   0.059   0.508 -0.0536 -0.0894  0.2956
    1SOL     OW 1253   0.363   1.125   0.958  0.1593 -0.2056 -0.3109
    1SOL    HW2 1254   0.417   1.078   0.895  1.8756  0.3885  0.6785
    1SOL    HW3 1255   0.396   1.215   0.956 -1.8749  0.5472 -0.8582
    1SOL    MW4 1256   0.374   1.130   0.949  0.1174 -0.0279 -0.2525
    1SOL     OW 1257   1.584   0.550   0.338  0.3314  0.4657  0.1775
    1SOL    HW2 1258   1.501   0.596   0.328  0.6381  1.4954  2.0822
    1SOL    HW3 1259   1.569   0.486   0.407  0.6721 -0.4680 -0.5994
    1SOL    MW4 1260   1.571   0.548   0.346  0.4166  0.4784  0.3263
    1SOL     OW 1261   3.402   4.341   0.692 -0.1334  0.0396 -0.0664
    1SOL    HW2 1262   3.343   4.401   0.739  0.0068  0.0258  0.1303
    1SOL    HW3 1263   3.463   4.399   0.646  0.5512  0.0419  0.8307
    1SOL    MW4 1264   3.402   4.357   0.692 -0.0246  0.0386  0.0779
    1SOL     OW 1265   0.930   0.035   0.891  0.1548  0.4185  0.3217
    1SOL    HW2 1266   1.000   0.086   0.849  0.4211  0.1501  0.4354
    1SOL    HW3 1267   0.868   0.018   0.820  1.3714 -1.3768 -0.3433
    1SOL    MW4 1268   0.931   0.040   0.876  0.3505  0.1462  0.2488
    1SOL     OW 1269   4.140   3.797   0.838  0.0098  0.7941 -0.3240
    1SOL    HW2 1270   4.066   3.812   0.779  0.0416  0.2979 -0.4910
    1SOL    HW3 1271   4.187   3.881   0.839 -0.4885  1.0725 -0.3074
    1SOL    MW4 1272   4.136   3.810   0.830 -0.0520  0.7653 -0.3439
    1SOL     OW 1273   1.429   0.718   1.252 -0.3393 -0.1814 -0.0013
    1SOL    HW2 1274   1.377   0.712   1.333  0.5066  0.6040  0.6174
    1SOL    HW3 1275   1.464   0.807   1.253 -0.8220  0.0381 -1.5598
    1SOL    MW4 1276   1.426   0.729   1.263 -0.2913 -0.0488 -0.1254
    1SOL     OW 1277   3.377   2.149   1.035  0.3189  0.5999  0.0501
    1SOL    HW2 1278   3.317   2.159   0.961 -1.0201  1.3832  1.2102
    1SOL    HW3 1279   3.342   2.207   1.102  1.2386 -0.4619  1.4754
    1SOL    MW4 1280   3.365   2.158   1.034  0.2637  0.5634  0.3914
    1SOL     OW 1281   1.154   1.705   1.265  0.1657 -0.1792 -0.0617
    1SOL    HW2 1282   1.151   1.800   1.251  0.3647 -0.1167  0.3168
    1SOL    HW3 1283   1.067   1.681   1.295 -0.3743 -0.3649 -1.7186
    1SOL    MW4 1284   1.142   1.714   1.267  0.1206 -0.1955 -0.2304
    1SOL     OW 1285   0.085   3.195   0.778 -0.1142  0.0011  0.0460
    1SOL    HW2 1286   0.022   3.266   0.766 -0.4499  0.0057  1.7115
    1SOL    HW3 1287   0.050   3.123   0.727 -0.5824  0.5418 -0.4093
    1SOL    MW4 1288   0.072   3.195   0.770 -0.2203  0.0732  0.2056
    1SOL     OW 1289   2.977   0.113   1.308 -0.0809 -0.0336 -0.0393
    1SOL    HW2 1290   2.985   0.069   1.223 -0.1848 -0.1695  0.0213
    1SOL    HW3 1291   2.972   0.041   1.372 -0.4052  0.0642  0.0475
    1SOL    MW4 1292   2.977   0.098   1.306 -0.1373 -0.0386 -0.0198
    1SOL     OW 1293   1.613   3.378   0.850  0.2878 -0.2725 -0.1057
    1SOL    HW2 1294   1.530   3.338   0.878 -0.3198  1.9293  1.3424
    1SOL    HW3 1295   1.664   3.386   0.930  1.1985  0.0134 -0.7082
    1SOL    MW4 1296   1.609   3.374   0.864  0.3278  0.0558  0.0058
    1SOL     OW 1297   0.409   3.934   1.706  0.3332 -0.0151  0.3860
    1SOL    HW2 1298   0.319   3.904   1.712  0.3010  0.1199  0.5791
    1SOL    HW3 1299   0.447   3.914   1.792  0.2408  0.7243  0.6010
    1SOL    MW4 1300   0.402   3.927   1.719  0.3167  0.1001  0.4399
    1SOL     OW 1301   0.438   1.952   0.193 -0.2540  0.4383  0.1725
    1SOL    HW2 1302   0.446   1.875   0.249  0.7171  1.6266  1.7306
    1SOL    HW3 1303   0.529   1.974   0.170 -0.5143  1.1868 -0.1673
    1SOL    MW4 1304   0.451   1.945   0.197 -0.1602  0.6939  0.3333
    1SOL     OW 1305   4.448   1.909   0.812 -0.0926 -0.2787  0.3845
    1SOL    HW2 1306   4.370   1.882   0.763 -1.1210  0.9939  1.2929
    1SOL    HW3 1307   4.477   1.989   0.769  0.0284 -0.1100  0.7781
    1SOL    MW4 1308   4.442   1.916   0.800 -0.2122 -0.0886  0.5562
    1SOL     OW 1309   4.279   2.391   1.500 -0.3716  0.2115  0.2455
    1SOL    HW2 1310   4.358   2.349   1.465  0.6049 -0.8492  3.5048
    1SOL    HW3 1311   4.212   2.322   1.497 -0.2172  0.0391  0.6581
    1SOL    MW4 1312   4.281   2.376   1.495 -0.2227  0.0486  0.7300
    1SOL     OW 1313   2.164   1.984   1.292 -0.2162 -0.4765 -0.0629
    1SOL    HW2 1314   2.215   1.913   1.330 -0.8006 -0.1336  1.3682
    1SOL    HW3 1315   2.229   2.050   1.267  0.2371 -1.0745 -0.4712
    1SOL    MW4 1316   2.180   1.983   1.293 -0.2334 -0.5101  0.0721
    1SOL     OW 1317   4.384   2.675   1.144 -0.3952 -0.0271 -0.4676
    1SOL    HW2 1318   4.470   2.693   1.183  0.2994 -1.9202 -1.0745
    1SOL    HW3 1319   4.331   2.642   1.216  0.0358 -0.8772 -0.5388
    1SOL    MW4 1320   4.389   2.673   1.158 -0.2470 -0.3889 -0.5571
    1SOL     OW 1321   4.056   1.990   0.354  0.0103  0.0483 -0.0655
    1SOL    HW2 1322   4.057   2.077   0.393 -1.2696  0.2047 -0.3514
    1SOL    HW3 1323   4.147   1.973   0.330  0.1578  1.5833 -0.6274
    1SOL    MW4 1324   4.068   1.999   0.356 -0.1392  0.2717 -0.1774
    1SOL     OW 1325   2.460   2.427   0.890  0.1951  0.2495  0.1928
    1SOL    HW2 1326   2.540   2.461   0.849  0.3122 -0.3153 -0.0519
    1SOL    HW3 1327   2.405   2.399   0.817 -0.5837  1.3866  0.3172
    1SOL    MW4 1328   2.463   2.428   0.875  0.1080  0.3247  0.1770
    1SOL     OW 1329   2.720   2.337   1.313 -0.2797  0.0754 -0.1057
    1SOL    HW2 1330   2.808   2.362   1.287 -0.5565  1.9780  0.6744
    1SOL    HW3 1331   2.676   2.314   1.231  0.6188  0.1549 -0.6162
    1SOL    MW4 1332   2.726   2.338   1.299 -0.1976  0.3369 -0.0701
    1SOL     OW 1333   2.860   3.028   1.121 -0.1289  0.0578 -0.1753
    1SOL    HW2 1334   2.796   3.041   1.051 -0.0146  0.6226 -0.1759
    1SOL    HW3 1335   2.852   2.935   1.144  1.3454 -0.6478 -2.3995
    1SOL    MW4 1336   2.850   3.018   1.115  0.0808  0.0391 -0.4689
    1SOL     OW 1337   2.688   4.228   0.085 -0.0405 -0.2941 -0.0541
    1SOL    HW2 1338   2.749   4.300   0.104  0.5111 -0.7136 -0.2145
    1SOL    HW3 1339   2.650   4.206   0.170  0.3970 -0.3526  0.1324
    1SOL    MW4 1340   2.691   4.235   0.099  0.0899 -0.3572 -0.0506
    1SOL     OW 1341   1.130   0.251   0.864 -0.3911 -0.0524  0.1642
    1SOL    HW2 1342   1.092   0.309   0.797  1.8434  1.3089  0.0308
    1SOL    HW3 1343   1.180   0.310   0.920 -1.0669 -1.3930  2.2163
    1SOL    MW4 1344   1.132   0.267   0.862 -0.1855 -0.0497  0.4174
    1SOL     OW 1345   1.835   2.978   0.833 -0.5598 -0.1556  0.2390
    1SOL    HW2 1346   1.747   2.991   0.798 -0.8551 -1.0576  0.6292
    1SOL    HW3 1347   1.842   3.040   0.905 -0.4947  0.6546 -0.4612
    1SOL    MW4 1348   1.824   2.988   0.838 -0.5902 -0.1678  0.1981
    1SOL     OW 1349   1.368   0.730   0.376  0.0421  0.2136  0.1252
    1SOL    HW2 1350   1.434   0.788   0.414  1.2603 -0.6301 -0.6540
    1SOL    HW3 1351   1.325   0.689   0.451  0.1594  1.0278  0.6464
    1SOL    MW4 1352   1.371   0.733   0.391  0.2184  0.2097  0.0911
    1SOL     OW 1353   0.515   0.244   1.369  0.1045  0.4807  0.3658
    1SOL    HW2 1354   0.575   0.318   1.380 -1.0171  1.5123 -0.3304
    1SOL    HW3 1355   0.481   0.254   1.280 -1.1198 -0.0593  0.7578
    1SOL    MW4 1356   0.518   0.255   1.359 -0.2050  0.5456  0.3256
    1SOL     OW 1357   2.097   3.981   0.237  0.4064 -0.2694  0.4633
    1SOL    HW2 1358   2.102   3.891   0.205 -0.6925  0.3672 -1.5735
    1SOL    HW3 1359   2.188   4.013   0.233  0.5976 -0.8653 -0.0464
    1SOL    MW4 1360   2.110   3.974   0.232  0.2866 -0.2642  0.1273
    1SOL     OW 1361   3.899   1.551   1.380  0.0897 -0.2252 -0.0695
    1SOL    HW2 1362   3.947   1.513   1.454 -0.7540  1.3672  1.3294
    1SOL    HW3 1363   3.826   1.598   1.420 -0.0378  1.1720 -1.8851
    1SOL    MW4 1364   3.896   1.552   1.395 -0.0386  0.1692 -0.1245
    1SOL     OW 1365   3.052   2.814   1.510  0.1612 -0.2589 -0.0503
    1SOL    HW2 1366   2.956   2.806   1.518  0.3183 -1.9666  0.3661
    1SOL    HW3 1367   3.085   2.773   1.590  1.2769 -0.8340 -0.8041
    1SOL    MW4 1368   3.044   2.808   1.522  0.3290 -0.5600 -0.0949
    1SOL     OW 1369   3.781   2.565   0.695  0.1049 -0.0504  0.4098
    1SOL    HW2 1370   3.725   2.490   0.677  0.0908  0.2566 -0.9190
    1SOL    HW3 1371   3.854   2.529   0.745 -0.7813 -0.6228  1.3016
    1SOL    MW4 1372   3.783   2.550   0.699 -0.0141 -0.0854  0.3521
    1SOL     OW 1373   2.791   3.951   0.103 -0.4128 -0.1059 -0.4400
    1SOL    HW2 1374   2.759   3.932   0.191  1.2846 -0.1060  0.2061
    1SOL    HW3 1375   2.752   4.036   0.081 -0.9157 -0.1503  0.2697
    1SOL    MW4 1376   2.782   3.960   0.112 -0.2551 -0.1116 -0.2611
    1SOL     OW 1377   3.893   3.396   1.025  0.0875  0.2912  0.2833
    1SOL    HW2 1378   3.939   3.480   1.030 -0.9170  0.8671 -0.0214
    1SOL    HW3 1379   3.819   3.413   0.966 -1.0628 -0.3637  1.5257
    1SOL    MW4 1380   3.889   3.409   1.018 -0.1969  0.2809  0.4071
    1SOL     OW 1381   1.370   3.265   0.874  0.0632  0.3719 -0.4030
    1SOL    HW2 1382   1.286   3.299   0.906  0.5621  0.4959  0.8266
    1SOL    HW3 1383   1.353   3.237   0.785 -2.0863 -2.6131  0.8874
    1SOL    MW4 1384   1.357   3.266   0.867 -0.1545 -0.0055 -0.0705
    1SOL     OW 1385   2.389   2.360   1.520  0.0258  0.0950  0.1940
    1SOL    HW2 1386   2.378   2.309   1.439 -0.0682 -0.5156  0.5862
    1SOL    HW3 1387   2.313   2.336   1.574 -0.9536  1.9678 -0.3052
    1SOL    MW4 1388   2.377   2.350   1.516 -0.1159  0.2615  0.1798
    1SOL     OW 1389   1.438   1.773   0.523 -0.0214  0.6688 -0.2975
    1SOL    HW2 1390   1.354   1.792   0.482  0.4182 -0.3487 -1.7165
    1SOL    HW3 1391   1.422   1.696   0.577 -0.1092  0.7162 -0.2572
    1SOL    MW4 1392   1.425   1.765   0.524  0.0250  0.5409 -0.4794
    1SOL     OW 1393   3.722   4.541   1.017  0.0411  0.1791  0.1026
    1SOL    HW2 1394   3.650   4.572   1.073 -1.2280 -1.0982 -0.7853
    1SOL    HW3 1395   3.707   4.447   1.010  2.4189 -0.2663  0.7465
    1SOL    MW4 1396   3.710   4.533   1.024  0.1874 -0.0482  0.0705
    1SOL     OW 1397   1.328   1.566   0.714  0.3732 -0.0530  0.3058
    1SOL    HW2 1398   1.297   1.487   0.669 -1.3773  0.2874  0.8839
    1SOL    HW3 1399   1.412   1.541   0.751  0.5114 -1.2071 -0.7313
    1SOL    MW4 1400   1.335   1.552   0.713  0.1606 -0.1602  0.2453
    1SOL     OW 1401   2.031   3.516   2.051 -0.0237  0.4040  0.5616
    1SOL    HW2 1402   2.067   3.601   2.025 -1.0031  0.6765  0.0727
    1SOL    HW3 1403   1.937   3.524   2.036 -0.2643 -0.4038  1.5321
    1SOL    MW4 1404   2.024   3.528   2.046 -0.1848  0.3335  0.6251
    1SOL     OW 1405   3.563   2.951   0.492 -0.2355  0.4449 -0.2980
    1SOL    HW2 1406   3.482   2.915   0.528 -0.4598  0.7406 -0.5084
    1SOL    HW3 1407   3.622   2.876   0.488 -0.8265  0.0169 -1.1104
    1SOL    MW4 1408   3.560   2.937   0.496 -0.3431  0.4275 -0.4329
    1SOL     OW 1409   2.101   3.527   0.540  0.1036 -0.2059 -0.0226
    1SOL    HW2 1410   2.051   3.610   0.543  1.1678  0.4140  0.7951
    1SOL    HW3 1411   2.095   3.499   0.449 -0.9536  0.3505 -0.1367
    1SOL    MW4 1412   2.093   3.534   0.528  0.1044 -0.0508  0.0703
    1SOL     OW 1413   3.633   2.687   0.940 -0.2382 -0.1140  0.2565
    1SOL    HW2 1414   3.687   2.646   0.873 -1.2757 -0.0169 -0.6644
    1SOL    HW3 1415   3.671   2.774   0.952 -0.1362 -0.0724 -0.3335
    1SOL    MW4 1416   3.645   2.693   0.933 -0.3614 -0.0958  0.0572
    1SOL     OW 1417   1.684   0.758   1.773 -0.5261 -0.3150 -0.0112
    1SOL    HW2 1418   1.760   0.758   1.716 -0.4009 -1.3002  0.1588
    1SOL    HW3 1419   1.714   0.804   1.852 -0.1695 -0.5083 -0.0324
    1SOL    MW4 1420   1.698   0.764   1.776 -0.4625 -0.4706  0.0085
    1SOL     OW 1421   1.680   3.948   0.453 -0.1632 -0.1785  0.4050
    1SOL    HW2 1422   1.648   4.020   0.398  0.4899  0.0877  0.3729
    1SOL    HW3 1423   1.632   3.958   0.535 -1.1634 -0.5908 -0.1188
    1SOL    MW4 1424   1.669   3.959   0.456 -0.2091 -0.1979  0.3317
    1SOL     OW 1425   0.833   0.789   1.094  0.3191  0.0527  0.2109
    1SOL    HW2 1426   0.768   0.730   1.056 -0.4137  0.8629  0.1892
    1SOL    HW3 1427   0.864   0.744   1.172  0.0530 -0.5340 -0.0173
    1SOL    MW4 1428   0.829   0.775   1.099  0.1872  0.0821  0.1780
    1SOL     OW 1429   2.175   2.331   1.687  0.3495  0.2541  0.5669
    1SOL    HW2 1430   2.192   2.349   1.780 -0.9003  0.5376  0.7483
    1SOL    HW3 1431   2.111   2.397   1.661 -0.7950 -1.0545  0.0227
    1SOL    MW4 1432   2.169   2.342   1.696  0.0339  0.1187  0.5189
    1SOL     OW 1433   3.621   0.661   0.814  0.2986 -0.6465 -0.2285
    1SOL    HW2 1434   3.633   0.734   0.875  0.1363 -0.9412  0.1605
    1SOL    HW3 1435   3.594   0.703   0.732 -0.7971 -0.3337  0.2830
    1SOL    MW4 1436   3.619   0.676   0.811  0.1326 -0.6440 -0.1097
    1SOL     OW 1437   0.450   4.263   0.443 -0.3628 -0.0076 -0.2007
    1SOL    HW2 1438   0.537   4.226   0.429 -0.0805  1.1537 -1.7792
    1SOL    HW3 1439   0.438   4.264   0.538  1.0126 -0.9138 -0.0112
    1SOL    MW4 1440   0.460   4.258   0.453 -0.1441  0.0262 -0.3840
    1SOL     OW 1441   1.277   1.607   1.034  0.1702 -0.0587 -0.1335
    1SOL    HW2 1442   1.232   1.652   1.106  0.9656 -1.3937  1.2260
    1SOL    HW3 1443   1.346   1.668   1.007  0.2481  0.1894  0.6261
    1SOL    MW4 1444   1.280   1.621   1.040  0.2855 -0.2022  0.1460
    1SOL     OW 1445   2.459   4.304   0.534  0.0959  0.0374 -0.2222
    1SOL    HW2 1446   2.375   4.329   0.573 -0.0013 -1.5641  0.6709
    1SOL    HW3 1447   2.512   4.276   0.608  1.2555  0.5687 -0.8415
    1SOL    MW4 1448   2.455   4.304   0.549  0.2358 -0.1040 -0.1860
    1SOL     OW 1449   0.565   4.628   1.355  0.1941  0.0275 -0.1205
    1SOL    HW2 1450   0.484   4.578   1.344  0.3185 -0.1177 -0.3736
    1SOL    HW3 1451   0.539   4.719   1.340  0.7391 -0.3307 -3.7198
    1SOL    MW4 1452   0.551   4.633   1.352  0.2824 -0.0386 -0.6288
    1SOL     OW 1453   2.354   2.227   1.265 -0.1536 -0.0795 -0.1900
    1SOL    HW2 1454   2.309   2.279   1.198  1.5095  1.7354  0.0448
    1SOL    HW3 1455   2.435   2.197   1.223  0.1833 -0.1927  0.5284
    1SOL    MW4 1456   2.359   2.230   1.251  0.1101  0.1452 -0.0644
    1SOL     OW 1457   4.257   1.855   0.618 -0.1193 -0.1717 -0.4107
    1SOL    HW2 1458   4.180   1.882   0.669  0.3431 -0.7169  0.5920
    1SOL    HW3 1459   4.259   1.760   0.626  0.0804 -0.2432 -1.2909
    1SOL    MW4 1460   4.247   1.846   0.626 -0.0319 -0.2531 -0.3945
    1SOL     OW 1461   1.255   0.346   0.338 -0.1836 -0.0690  0.2196
    1SOL    HW2 1462   1.333   0.346   0.282 -0.3015 -1.2652  0.0572
    1SOL    HW3 1463   1.187   0.307   0.284 -0.4433 -0.6859  0.9941
    1SOL    MW4 1464   1.257   0.341   0.323 -0.2334 -0.3083  0.3004
    1SOL     OW 1465   0.234   3.637   0.236  0.4708  0.5170  0.2050
    1SOL    HW2 1466   0.221   3.577   0.310  1.3831  1.0191  0.7805
    1SOL    HW3 1467   0.231   3.724   0.276 -0.4313  0.8514 -0.5701
    1SOL    MW4 1468   0.232   3.640   0.251  0.4721  0.6275  0.1786
    1SOL     OW 1469   1.138   3.583   0.296  0.1172 -0.0661 -0.3035
    1SOL    HW2 1470   1.077   3.583   0.222  1.4654 -0.4853 -1.4342
    1SOL    HW3 1471   1.165   3.674   0.305 -0.1098 -0.0015 -0.2649
    1SOL    MW4 1472   1.134   3.595   0.288  0.2654 -0.1128 -0.4476
    1SOL     OW 1473   1.598   1.072   1.482 -0.1391 -0.2641  0.1822
    1SOL    HW2 1474   1.567   1.163   1.486 -0.2360 -0.1782 -2.1595
    1SOL    HW3 1475   1.560   1.031   1.560  0.2547  1.7965  1.5058
    1SOL    MW4 1476   1.589   1.079   1.493 -0.0999  0.0191  0.0479
    1SOL     OW 1477   4.062   1.131   0.364 -0.3352  0.3631 -0.0468
    1SOL    HW2 1478   4.044   1.045   0.403  0.8049  0.3558  0.4828
    1SOL    HW3 1479   4.060   1.192   0.437  0.2991  0.5739 -0.1986
    1SOL    MW4 1480   4.059   1.128   0.378 -0.1006  0.3899  0.0031
    1SOL     OW 1481   2.813   4.300   1.791 -0.0316 -0.0821 -0.6732
    1SOL    HW2 1482   2.762   4.347   1.725  0.4240 -0.3915 -1.2512
    1SOL    HW3 1483   2.799   4.207   1.772 -1.0755 -0.1962  0.5763
    1SOL    MW4 1484   2.805   4.294   1.780 -0.1092 -0.1378 -0.5846
    1SOL     OW 1485   2.618   3.761   0.003 -0.2922  0.2601  0.3390
    1SOL    HW2 1486   2.666   3.691   0.048 -1.5657 -1.0850 -0.3369
    1SOL    HW3 1487   2.673   3.838   0.013  0.3880 -0.4535  2.5120
    1SOL    MW4 1488   2.631   3.762   0.010 -0.3705 -0.0114  0.5365
    1SOL     OW 1489   1.938   0.045   0.833  0.4831 -0.0375 -0.4842
    1SOL    HW2 1490   2.018  -0.004   0.814 -0.4632 -1.6001 -0.5705
    1SOL    HW3 1491   1.873   0.010   0.771 -0.3851  0.8597 -0.0945
    1SOL    MW4 1492   1.940   0.034   0.822  0.2438 -0.1253 -0.4441
    1SOL     OW 1493   0.730   0.938   0.584 -0.1273  0.0142 -0.0926
    1SOL    HW2 1494   0.821   0.965   0.589 -0.2341  0.4066 -0.2657
    1SOL    HW3 1495   0.707   0.949   0.492 -0.8264  1.4707  0.2409
    1SOL    MW4 1496   0.739   0.943   0.573 -0.2336  0.2581 -0.0715
    1SOL     OW 1497   1.230   1.179   1.975  0.4987 -0.0592  0.0499
    1SOL    HW2 1498   1.145   1.223   1.984  0.9849  0.8091  0.4814
    1SOL    HW3 1499   1.245   1.139   2.061  0.3041 -0.6292 -0.1784
    1SOL    MW4 1500   1.221   1.179   1.988  0.5372 -0.0199  0.0768
    1SOL     OW 1501   2.910   0.799   0.634  0.4038  0.0304 -0.2277
    1SOL    HW2 1502   2.819   0.792   0.663 -0.2519 -0.2641 -2.2537
    1SOL    HW3 1503   2.959   0.745   0.696 -0.9099 -0.3756  0.4770
    1SOL    MW4 1504   2.904   0.791   0.646  0.1438 -0.0620 -0.4020
    1SOL     OW 1505   0.710   1.316   1.169  0.3645 -0.1778 -0.0661
    1SOL    HW2 1506   0.765   1.394   1.159 -2.4002  2.0747  1.6039
    1SOL    HW3 1507   0.761   1.258   1.227  1.3117  1.5025  0.8214
    1SOL    MW4 1508   0.724   1.319   1.175  0.1247  0.3412  0.2716
    1SOL     OW 1509   2.284   0.674   2.008 -0.0075 -0.1623  0.1538
    1SOL    HW2 1510   2.258   0.584   1.991  1.6015 -0.4443 -0.9521
    1SOL    HW3 1511   2.375   0.668   2.038 -0.2341  1.0063  1.1311
    1SOL    MW4 1512   2.292   0.661   2.010  0.1745 -0.0454  0.1369
    1SOL     OW 1513   3.122   4.454   0.300  0.0807  0.5076 -0.5158
    1SOL    HW2 1514   3.045   4.454   0.244  1.1409  3.0308 -2.0496
    1SOL    HW3 1515   3.095   4.503   0.378 -0.5732 -0.7038  0.0380
    1SOL    MW4 1516   3.108   4.460   0.303  0.1342  0.6804 -0.6451
    1SOL     OW 1517   2.084   3.453   0.285  0.1070  0.2056  0.2081
    1SOL    HW2 1518   1.998   3.413   0.267 -0.4067  0.5259  1.9427
    1SOL    HW3 1519   2.143   3.378   0.297  0.1386 -0.0170 -1.1683
    1SOL    MW4 1520   2.080   3.438   0.284  0.0436  0.2184  0.2553
    1SOL     OW 1521   2.271   3.261   0.405  0.3889 -0.1695  0.2773
    1SOL    HW2 1522   2.252   3.230   0.493  0.1267 -1.0613 -0.0843
    1SOL    HW3 1523   2.300   3.183   0.358 -1.4079 -0.1190 -0.9735
    1SOL    MW4 1524   2.272   3.247   0.410  0.1173 -0.2804  0.0645
    1SOL     OW 1525   1.857   2.080   2.848 -0.8516  0.0840 -0.1212
    1SOL    HW2 1526   1.921   2.035   2.793 -1.3505  0.4800 -1.0484
    1SOL    HW3 1527   1.803   2.129   2.786 -2.1353 -0.3560  0.6262
    1SOL    MW4 1528   1.858   2.081   2.832 -1.0868  0.0782 -0.1450
    1SOL     OW 1529   3.171   1.062   1.623  0.1624  0.3029  0.1610
    1SOL    HW2 1530   3.140   1.032   1.538  0.3893  0.0562  0.1656
    1SOL    HW3 1531   3.143   0.995   1.685 -0.4892  0.7584  0.3607
    1SOL    MW4 1532   3.163   1.049   1.620  0.1063  0.3303  0.1880
    1SOL     OW 1533   3.885   2.900   1.231 -0.0499  0.5339 -0.1763
    1SOL    HW2 1534   3.877   2.811   1.266  0.3934  0.1241 -1.1057
    1SOL    HW3 1535   3.841   2.896   1.146  1.3021  0.8061 -0.8939
    1SOL    MW4 1536   3.878   2.887   1.224  0.1869  0.5157 -0.3936
    1SOL     OW 1537   2.432   2.702   2.132 -0.0303  0.1792 -0.0319
    1SOL    HW2 1538   2.398   2.624   2.176 -0.7355  1.5534  1.8938
    1SOL    HW3 1539   2.444   2.766   2.202  0.8046  1.7260 -1.5583
    1SOL    MW4 1540   2.429   2.700   2.147 -0.0131  0.5646  0.0207
    1SOL     OW 1541   1.381   0.111   0.481  0.1102 -0.1683 -0.1523
    1SOL    HW2 1542   1.324   0.183   0.455  0.8369  0.3268 -0.3949
    1SOL    HW3 1543   1.346   0.082   0.566 -0.5834  0.0333 -0.3652
    1SOL    MW4 1544   1.369   0.117   0.489  0.1144 -0.0764 -0.2124
    1SOL     OW 1545   1.606   3.138   1.506 -0.0700  0.1978 -0.6202
    1SOL    HW2 1546   1.640   3.220   1.541  0.5513 -0.1887 -0.3215
    1SOL    HW3 1547   1.516   3.133   1.539  0.7477 -0.5347  1.5780
    1SOL    MW4 1548   1.599   3.148   1.515  0.1198  0.0503 -0.2908
    1SOL     OW 1549   3.403   2.979   1.564 -0.1439  0.3850 -0.3073
    1SOL    HW2 1550   3.453   3.019   1.635 -0.0082  0.5856 -0.5141
    1SOL    HW3 1551   3.313   3.011   1.576 -0.5338 -1.0855  0.8951
    1SOL    MW4 1552   3.397   2.988   1.575 -0.1776  0.2174 -0.1761
    1SOL     OW 1553   2.319   3.730   1.169 -0.1006  0.1239  0.0121
    1SOL    HW2 1554   2.283   3.723   1.258  0.3047  0.1513  0.1795
    1SOL    HW3 1555   2.261   3.675   1.116  0.2365 -0.6982  0.4735
    1SOL    MW4 1556   2.306   3.722   1.174 -0.0024  0.0193  0.0950
    1SOL     OW 1557   0.514   2.188   0.592  0.4480  0.7142 -0.3403
    1SOL    HW2 1558   0.576   2.218   0.525  1.5074  1.0739  0.7873
    1SOL    HW3 1559   0.567   2.179   0.671 -0.8109  0.3403  0.4703
    1SOL    MW4 1560   0.529   2.191   0.593  0.4216  0.7122 -0.0846
    1SOL     OW 1561   3.691   2.260   1.539 -0.2780  0.3556  0.2642
    1SOL    HW2 1562   3.724   2.349   1.552  0.7890 -0.0128  0.0751
    1SOL    HW3 1563   3.686   2.249   1.444 -1.6695  0.6741  0.2934
    1SOL    MW4 1564   3.695   2.270   1.528 -0.3209  0.3493  0.2431
    1SOL     OW 1565   2.480   4.414   0.095  0.0875 -0.0365 -0.2113
    1SOL    HW2 1566   2.533   4.472   0.149 -1.0916  1.1336 -0.2869
    1SOL    HW3 1567   2.544   4.357   0.052  1.1763  0.4050  0.7904
    1SOL    MW4 1568   2.495   4.414   0.096  0.0756  0.1764 -0.0891
    1SOL     OW 1569   4.277   0.586   1.504 -0.0242  0.0197  0.1300
    1SOL    HW2 1570   4.238   0.620   1.585 -0.9884 -0.4004 -0.1431
    1SOL    HW3 1571   4.273   0.491   1.514  0.1840 -0.0292 -0.2611
    1SOL    MW4 1572   4.271   0.578   1.516 -0.1240 -0.0421  0.0423
    1SOL     OW 1573   3.600   3.935   1.905 -0.4758 -0.0130 -0.0769
    1SOL    HW2 1574   3.600   3.839   1.909 -0.8889  0.0046  0.4057
    1SOL    HW3 1575   3.518   3.961   1.947  0.2771  0.6010  1.0545
    1SOL    MW4 1576   3.589   3.926   1.911 -0.4311  0.0703  0.1360
    1SOL     OW 1577   2.286   2.957   0.490 -0.1955  0.3065  0.2868
    1SOL    HW2 1578   2.221   2.999   0.545 -0.9878 -0.2882 -0.1897
    1SOL    HW3 1579   2.246   2.875   0.463  0.7486 -0.0670 -0.0138
    1SOL    MW4 1580   2.272   2.952   0.494 -0.1752  0.1791  0.1842
    1SOL     OW 1581   0.718   0.298   0.754 -0.3393 -0.1004  0.1562
    1SOL    HW2 1582   0.669   0.375   0.726  1.3030  0.7417 -0.4277
    1SOL    HW3 1583   0.684   0.279   0.842 -2.3605 -0.1083 -0.5998
    1SOL    MW4 1584   0.707   0.306   0.762 -0.3893  0.0097 -0.0206
    1SOL     OW 1585   0.925   3.520   0.477  0.1403 -0.2489  0.1601
    1SOL    HW2 1586   0.960   3.482   0.557  1.6406  1.1520  0.1980
    1SOL    HW3 1587   1.000   3.524   0.417 -0.6725 -0.1232 -0.8734
    1SOL    MW4 1588   0.939   3.515   0.480  0.2310 -0.0477  0.0288
    1SOL     OW 1589   2.975   3.395   1.772 -0.0435  0.5505  0.1246
    1SOL    HW2 1590   2.937   3.483   1.780 -0.6270  0.1702  1.6613
    1SOL    HW3 1591   2.929   3.356   1.698  0.0294  1.4504 -0.3983
    1SOL    MW4 1592   2.964   3.402   1.763 -0.1109  0.6189  0.2583
    1SOL     OW 1593   0.432   2.381   1.409  0.2358  0.2668  0.1053
    1SOL    HW2 1594   0.342   2.416   1.412  0.7309  1.5567  0.4287
    1SOL    HW3 1595   0.447   2.346   1.497  0.4026  0.9834  0.3672
    1SOL    MW4 1596   0.422   2.381   1.421  0.3231  0.5314  0.1825
    1SOL     OW 1597   1.217   3.642   0.935 -0.1995  0.4505 -0.3210
    1SOL    HW2 1598   1.286   3.692   0.979  0.0871 -0.1018 -0.1388
    1SOL    HW3 1599   1.242   3.644   0.842  0.3964 -0.2503 -0.1878
    1SOL    MW4 1600   1.230   3.649   0.929 -0.0831  0.2849 -0.2794
    1SOL     OW 1601   2.681   1.335   1.280  0.0219 -0.1887 -0.2696
    1SOL    HW2 1602   2.592   1.354   1.249 -0.3639 -0.7890  0.4439
    1SOL    HW3 1603   2.716   1.275   1.214  0.0296  0.3290 -0.7421
    1SOL    MW4 1604   2.674   1.329   1.267 -0.0281 -0.1997 -0.2378
    1SOL     OW 1605   1.459   2.184   1.707 -0.1669  0.2655  0.3529
    1SOL    HW2 1606   1.490   2.098   1.681  1.2310  1.2712 -1.4473
    1SOL    HW3 1607   1.420   2.171   1.793 -0.2354 -2.2017 -0.0264
    1SOL    MW4 1608   1.458   2.171   1.715  0.0085  0.0725  0.0653
    1SOL     OW 1609   3.662   0.574   0.411  0.1259 -0.8277  0.1493
    1SOL    HW2 1610   3.587   0.529   0.374  1.0994 -1.0536 -1.5800
    1SOL    HW3 1611   3.700   0.512   0.473 -1.2574 -0.5981  1.2650
    1SOL    MW4 1612   3.657   0.560   0.414  0.0720 -0.8272  0.0683
    1SOL     OW 1613   2.541   2.773   1.630 -0.3651  0.0507 -0.3321
    1SOL    HW2 1614   2.500   2.831   1.567  0.3505 -0.1574 -0.9878
    1SOL    HW3 1615   2.602   2.828   1.679 -0.9658  0.2257  0.2280
    1SOL    MW4 1616   2.544   2.788   1.628 -0.3500  0.0465 -0.3448
    1SOL     OW 1617   2.979   0.041   1.024 -0.4393 -0.0911 -0.3147
    1SOL    HW2 1618   2.904   0.042   0.965  0.7007  0.8763 -1.7739
    1SOL    HW3 1619   3.011  -0.049   1.022 -1.6094 -0.5406  0.4140
    1SOL    MW4 1620   2.973   0.029   1.016 -0.4432 -0.0228 -0.4109
    1SOL     OW 1621   1.969   1.843   2.086 -0.4302 -0.1930 -0.2284
    1SOL    HW2 1622   1.913   1.849   2.163 -2.0684 -0.5047 -1.3449
    1SOL    HW3 1623   2.026   1.768   2.102 -0.6726 -0.1695  0.7310
    1SOL    MW4 1624   1.969   1.834   2.098 -0.6782 -0.2310 -0.2494
    1SOL     OW 1625   2.819   2.785   0.842  0.3381  0.4629 -0.2623
    1SOL    HW2 1626   2.759   2.724   0.799 -0.4172  1.7317 -1.0592
    1SOL    HW3 1627   2.876   2.730   0.896 -1.1790 -0.8179  0.0624
    1SOL    MW4 1628   2.818   2.770   0.844  0.0381  0.4613 -0.3246
    1SOL     OW 1629   0.693   3.384   0.394  0.0575  0.5502  0.0249
    1SOL    HW2 1630   0.774   3.434   0.408 -0.4056  0.8752  1.7277
    1SOL    HW3 1631   0.684   3.378   0.299  1.9781  0.6816 -0.1912
    1SOL    MW4 1632   0.703   3.390   0.384  0.2497  0.6104  0.2210
    1SOL     OW 1633   1.148   1.787   0.747 -0.0023  0.2194  0.2304
    1SOL    HW2 1634   1.141   1.796   0.652 -1.0166 -0.9959  0.1851
    1SOL    HW3 1635   1.200   1.708   0.760  1.6414  1.3687  0.6799
    1SOL    MW4 1636   1.154   1.778   0.736  0.0806  0.2106  0.2838
    1SOL     OW 1637   4.477   1.667   1.131 -0.1746 -0.4633  0.2106
    1SOL    HW2 1638   4.481   1.598   1.198  0.1998 -0.9022 -0.2591
    1SOL    HW3 1639   4.438   1.624   1.055  1.0415 -0.4429 -0.4300
    1SOL    MW4 1640   4.472   1.652   1.130  0.0353 -0.5184  0.0641
    1SOL     OW 1641   2.233   3.221   0.681  0.2361 -0.2021  0.3574
    1SOL    HW2 1642   2.314   3.260   0.713 -0.1355  0.2465  0.7643
    1SOL    HW3 1643   2.165   3.284   0.704  0.0621  0.6030 -2.1800
    1SOL    MW4 1644   2.235   3.234   0.688  0.1638 -0.0370  0.0764
    1SOL     OW 1645   3.291   3.372   1.180  0.1486 -0.2778 -0.1015
    1SOL    HW2 1646   3.326   3.456   1.210  0.1562  0.0613 -1.0510
    1SOL    HW3 1647   3.243   3.338   1.256  0.7722  0.2324  0.5250
    1SOL    MW4 1648   3.289   3.379   1.194  0.2320 -0.1657 -0.1441
    1SOL     OW 1649   1.393   3.422   1.474 -0.2528 -0.5668  0.0680
    1SOL    HW2 1650   1.420   3.472   1.551  0.3340 -1.3269  0.3645
    1SOL    HW3 1651   1.353   3.343   1.510 -0.2413 -0.7859 -0.4021
    1SOL    MW4 1652   1.392   3.418   1.489 -0.1738 -0.6962  0.0449
    1SOL     OW 1653   2.028   2.594   0.701 -0.0920  0.3137  0.2812
    1SOL    HW2 1654   1.950   2.636   0.736 -1.0514  0.1492 -1.5898
    1SOL    HW3 1655   1.995   2.516   0.656  1.1736  0.0673 -0.2327
    1SOL    MW4 1656   2.013   2.590   0.699 -0.0517  0.2596 -0.0334
    1SOL     OW 1657   0.777   4.568   0.399  0.0208  0.2014  0.3520
    1SOL    HW2 1658   0.847   4.503   0.402 -0.2942 -0.1440  0.2140
    1SOL    HW3 1659   0.822   4.650   0.377  0.6953  0.4305  2.4989
    1SOL    MW4 1660   0.792   4.570   0.396  0.0682  0.1860  0.6171
    1SOL     OW 1661   3.522   1.347   1.903  0.6042 -0.0378  0.0452
    1SOL    HW2 1662   3.519   1.427   1.955  0.1119  0.0693 -0.1463
    1SOL    HW3 1663   3.604   1.353   1.854  2.3802 -1.3461  2.7259
    1SOL    MW4 1664   3.532   1.358   1.904  0.7737 -0.1962  0.3736
    1SOL     OW 1665   3.207   3.936   1.212 -0.2313  0.7789  0.2826
    1SOL    HW2 1666   3.198   3.961   1.120 -2.0520  0.1853  0.2723
    1SOL    HW3 1667   3.149   3.861   1.222  1.1952 -0.1916  1.5439
    1SOL    MW4 1668   3.198   3.930   1.202 -0.2832  0.5724  0.4476
    1SOL     OW 1669   2.859   4.414   0.199  0.1271  0.0144  0.0008
    1SOL    HW2 1670   2.864   4.345   0.266 -0.3937  0.6678  0.7278
    1SOL    HW3 1671   2.786   4.469   0.228  0.4523  0.7911 -0.6549
    1SOL    MW4 1672   2.850   4.412   0.212  0.1013  0.2027  0.0102
    1SOL     OW 1673   4.306   1.110   0.682  0.1001 -0.0378  0.7417
    1SOL    HW2 1674   4.326   1.027   0.725  0.4008  0.0458  0.7671
    1SOL    HW3 1675   4.344   1.176   0.739  0.3904  0.0805  0.4149
    1SOL    MW4 1676   4.314   1.107   0.695  0.1788 -0.0112  0.7020
    1SOL     OW 1677   4.032   3.623   1.054  0.3363 -0.1161 -0.0233
    1SOL    HW2 1678   4.086   3.662   0.984 -0.5821  1.7724  0.2933
    1SOL    HW3 1679   4.095   3.587   1.116  1.1784 -0.6108 -1.1393
    1SOL    MW4 1680   4.047   3.623   1.053  0.3262  0.0677 -0.1286
    1SOL     OW 1681   3.467   3.708   0.508 -0.1653  0.0946  0.4392
    1SOL    HW2 1682   3.538   3.745   0.560 -0.9215  0.6684  1.0921
    1SOL    HW3 1683   3.404   3.779   0.500 -1.1620 -0.7334  0.8099
    1SOL    MW4 1684   3.468   3.722   0.514 -0.3965  0.0608  0.5742
    1SOL     OW 1685   1.111   0.885   1.558 -0.1500 -0.3382 -0.2392
    1SOL    HW2 1686   1.112   0.957   1.495  1.9850 -0.4183 -0.3292
    1SOL    HW3 1687   1.155   0.920   1.635 -0.2441 -1.1387  0.1841
    1SOL    MW4 1688   1.117   0.899   1.560  0.1193 -0.4544 -0.1953
    1SOL     OW 1689   3.229   0.180   1.043  0.1880 -0.2229 -0.0739
    1SOL    HW2 1690   3.225   0.276   1.041 -1.0382 -0.1430  3.3532
    1SOL    HW3 1691   3.138   0.152   1.033  0.3690 -0.9636  0.3409
    1SOL    MW4 1692   3.217   0.189   1.042  0.0498 -0.3101  0.4330
    1SOL     OW 1693   3.199   0.571   0.419 -0.2373 -0.4567 -0.1302
    1SOL    HW2 1694   3.272   0.522   0.381 -0.1998 -1.2249  0.9083
    1SOL    HW3 1695   3.163   0.512   0.486 -1.1364  0.3402  0.0953
    1SOL    MW4 1696   3.204   0.557   0.423 -0.3510 -0.4529  0.0366
    1SOL     OW 1697   4.485   2.772   1.995  0.1841  0.2096  0.0133
    1SOL    HW2 1698   4.557   2.722   1.956  0.6966 -0.0897  1.3231
    1SOL    HW3 1699   4.462   2.837   1.928  2.4062  1.0485  0.0138
    1SOL    MW4 1700   4.491   2.774   1.981  0.5445  0.2804  0.1861
    1SOL     OW 1701   2.685   3.044   0.917  0.4235  0.5528 -0.6787
    1SOL    HW2 1702   2.699   2.957   0.881  1.2723  0.4848 -0.2074
    1SOL    HW3 1703   2.591   3.050   0.933  0.4132 -0.4054 -0.3841
    1SOL    MW4 1704   2.675   3.033   0.915  0.5343  0.4172 -0.5776
    1SOL     OW 1705   3.482   2.420   1.304  0.0993 -0.1809  0.1235
    1SOL    HW2 1706   3.505   2.502   1.261 -0.4260 -0.7640 -1.2856
    1SOL    HW3 1707   3.403   2.390   1.259 -0.7674 -0.5368  1.8546
    1SOL    MW4 1708   3.475   2.427   1.293 -0.0844 -0.3049  0.1662
    1SOL     OW 1709   3.979   4.206   0.491  0.0304 -0.1631  0.1441
    1SOL    HW2 1710   4.017   4.211   0.403 -0.3941  1.1734  0.0218
    1SOL    HW3 1711   4.009   4.122   0.526  0.8106 -0.3653 -0.9987
    1SOL    MW4 1712   3.988   4.196   0.484  0.0775 -0.0134 -0.0229
    1SOL     OW 1713   2.560   4.228   0.776 -0.1168  0.6426 -0.1961
    1SOL    HW2 1714   2.609   4.147   0.761  0.9194  0.8227  1.9903
    1SOL    HW3 1715   2.480   4.200   0.820  0.1264  0.7937  0.3374
    1SOL    MW4 1716   2.556   4.214   0.780  0.0520  0.6866  0.1628
    1SOL     OW 1717   0.290   0.837   0.319 -0.0640 -0.0353 -0.4278
    1SOL    HW2 1718   0.325   0.884   0.394  0.2300 -0.7804 -0.0889
    1SOL    HW3 1719   0.200   0.868   0.310  0.1626  0.6651 -0.2774
    1SOL    MW4 1720   0.283   0.847   0.327  0.0047 -0.0412 -0.3632
    1SOL     OW 1721   3.077   3.395   0.372 -0.2237 -0.3678 -0.2683
    1SOL    HW2 1722   3.078   3.397   0.468  0.2750 -1.3126 -0.2389
    1SOL    HW3 1723   3.157   3.440   0.346  1.3726 -2.9762 -0.1275
    1SOL    MW4 1724   3.088   3.401   0.381  0.0529 -0.8366 -0.2458
    1SOL     OW 1725   1.925   1.829   0.429  0.3799  0.1904  0.4605
    1SOL    HW2 1726   1.986   1.832   0.502  0.8196  1.6181  0.0582
    1SOL    HW3 1727   1.944   1.909   0.379 -0.0083 -0.6834 -1.1185
    1SOL    MW4 1728   1.936   1.840   0.432  0.3868  0.2635  0.1991
    1SOL     OW 1729   2.260   0.677   0.869 -0.2367  0.4087  0.1995
    1SOL    HW2 1730   2.179   0.645   0.909  0.0065 -0.1923  0.2205
    1SOL    HW3 1731   2.329   0.649   0.928  0.1097 -0.3570 -0.5542
    1SOL    MW4 1732   2.258   0.669   0.882 -0.1590  0.2284  0.1028
    1SOL     OW 1733   1.283   3.215   0.591  0.3863 -0.0650  0.1599
    1SOL    HW2 1734   1.304   3.295   0.543  0.0582 -0.2775 -0.3391
    1SOL    HW3 1735   1.331   3.146   0.545  1.5529  0.0075  1.2520
    1SOL    MW4 1736   1.292   3.217   0.579  0.4969 -0.0837  0.2382
    1SOL     OW 1737   1.747   2.171   0.527  0.2913 -0.0186  0.5697
    1SOL    HW2 1738   1.725   2.079   0.539  1.1045 -0.2471  0.3705
    1SOL    HW3 1739   1.668   2.211   0.491 -0.0095 -0.6718  0.5108
    1SOL    MW4 1740   1.734   2.164   0.524  0.3588 -0.1349  0.5357
    1SOL     OW 1741   0.049   0.044   1.331 -0.1241  0.1363  0.4712
    1SOL    HW2 1742   0.095   0.041   1.415  1.3786 -0.5077 -0.3595
    1SOL    HW3 1743  -0.007  -0.034   1.332  0.2518 -0.1343  0.6782
    1SOL    MW4 1744   0.048   0.033   1.343  0.1238  0.0157  0.3887
    1SOL     OW 1745   0.295   2.411   0.386 -0.2970 -0.3061  0.1098
    1SOL    HW2 1746   0.304   2.321   0.357 -2.0417 -0.8846  1.2371
    1SOL    HW3 1747   0.324   2.411   0.477 -0.0760  0.3065  0.0436
    1SOL    MW4 1748   0.300   2.399   0.394 -0.4980 -0.3018  0.2498
    1SOL     OW 1749   3.356   0.060   0.846  0.4450 -0.0362  0.0707
    1SOL    HW2 1750   3.318   0.092   0.928 -0.5383 -0.1463 -0.3355
    1SOL    HW3 1751   3.444   0.030   0.870  0.0370 -0.3724  1.1464
    1SOL    MW4 1752   3.363   0.060   0.860  0.2615 -0.0951  0.1591
    1SOL     OW 1753   1.329   3.147   1.597 -0.6622 -0.2035  0.1053
    1SOL    HW2 1754   1.291   3.060   1.605  1.6614 -1.1346  1.6946
    1SOL    HW3 1755   1.354   3.170   1.687 -2.1839  2.5611 -0.1264
    1SOL    MW4 1756   1.327   3.139   1.610 -0.5565  0.0384  0.2846
    1SOL     OW 1757   2.312   4.632   1.380  0.3768 -0.2263  0.4870
    1SOL    HW2 1758   2.330   4.726   1.387 -0.3861  0.0214 -0.6907
    1SOL    HW3 1759   2.221   4.627   1.350  0.6678 -1.3195 -0.2553
    1SOL    MW4 1760   2.302   4.644   1.377  0.3142 -0.3381  0.2337
    1SOL     OW 1761   1.852   0.913   0.655  0.3582 -0.1232 -0.2899
    1SOL    HW2 1762   1.857   0.841   0.718  0.4398 -0.3314 -0.5361
    1SOL    HW3 1763   1.802   0.877   0.581 -2.1083  0.9309  0.7894
    1SOL    MW4 1764   1.846   0.899   0.654  0.0436 -0.0117 -0.1800
    1SOL     OW 1765   1.601   0.607   0.743  0.1739 -0.2061  0.1749
    1SOL    HW2 1766   1.695   0.597   0.734  0.2606  1.0721 -0.4008
    1SOL    HW3 1767   1.589   0.657   0.824  0.0326  0.2007 -0.0918
    1SOL    MW4 1768   1.612   0.612   0.752  0.1667  0.0161  0.0637
    1SOL     OW 1769   0.115   0.350   0.669 -0.1831 -0.3938  0.2996
    1SOL    HW2 1770   0.194   0.334   0.722 -0.4194 -1.8595  0.2353
    1SOL    HW3 1771   0.043   0.340   0.731 -0.3584  0.1899  0.1909
    1SOL    MW4 1772   0.116   0.346   0.685 -0.2374 -0.5102  0.2769
    1SOL     OW 1773   1.899   3.629   1.064 -0.2154 -0.1213  0.4450
    1SOL    HW2 1774   1.870   3.670   0.982 -0.5135  0.2573  0.7443
    1SOL    HW3 1775   1.859   3.542   1.061  0.2812 -0.3360 -0.1077
    1SOL    MW4 1776   1.889   3.623   1.053 -0.1892 -0.1001  0.4116
    1SOL     OW 1777   0.047   4.117   0.137  0.0834  0.4408  0.4969
    1SOL    HW2 1778   0.109   4.109   0.210  1.2733  0.2077 -0.5312
    1SOL    HW3 1779   0.102   4.129   0.060 -1.1736  0.6962 -0.3699
    1SOL    MW4 1780   0.063   4.117   0.136  0.0746  0.4444  0.2469
    1SOL     OW 1781   3.727   4.263   1.649 -0.3503 -0.0806 -0.2320
    1SOL    HW2 1782   3.681   4.210   1.585  0.7958 -0.4065 -0.8018
    1SOL    HW3 1783   3.805   4.294   1.603 -0.1307  0.6710  0.6304
    1SOL    MW4 1784   3.732   4.260   1.635 -0.1702 -0.0243 -0.1935
    1SOL     OW 1785   0.539   0.837   0.204  0.2285 -0.2781  0.0450
    1SOL    HW2 1786   0.446   0.834   0.229  0.8186 -0.1219  2.4230
    1SOL    HW3 1787   0.559   0.747   0.177 -0.7155 -0.2114 -0.9051
    1SOL    MW4 1788   0.529   0.825   0.204  0.1817 -0.2487  0.2334
    1SOL     OW 1789   0.756   3.714   1.234  0.3126 -0.4122  0.0202
    1SOL    HW2 1790   0.836   3.667   1.212  0.1258  0.3676 -2.4178
    1SOL    HW3 1791   0.769   3.802   1.198 -0.9770  0.2096  1.0415
    1SOL    MW4 1792   0.768   3.719   1.226  0.1178 -0.2270 -0.1667
    1SOL     OW 1793   1.175   2.434   0.684  0.4404  0.2171  0.0311
    1SOL    HW2 1794   1.225   2.361   0.646 -0.9009 -0.7290  0.0604
    1SOL    HW3 1795   1.137   2.398   0.763 -0.2941  0.9400  0.0068
    1SOL    MW4 1796   1.177   2.420   0.689  0.1664  0.1876  0.0317
    1SOL     OW 1797   0.325   1.819   0.767  0.5296  0.1153  0.0578
    1SOL    HW2 1798   0.245   1.766   0.768  0.5650  0.0514 -0.2277
    1SOL    HW3 1799   0.315   1.880   0.840  0.4459 -0.2271  0.3350
    1SOL    MW4 1800   0.313   1.820   0.776  0.5232  0.0618  0.0567
    1SOL     OW 1801   1.045   1.434   1.402 -0.1182 -0.0171  0.0483
    1SOL    HW2 1802   1.120   1.446   1.343  0.0140  0.7092  0.3627
    1SOL    HW3 1803   1.073   1.365   1.462  0.0735 -0.1621 -0.2027
    1SOL    MW4 1804   1.059   1.427   1.402 -0.0753  0.0597  0.0567
    1SOL     OW 1805   1.508   2.599   0.400  0.3938 -0.0500  0.4179
    1SOL    HW2 1806   1.553   2.618   0.482  1.2276 -0.1760 -0.0015
    1SOL    HW3 1807   1.431   2.655   0.401  1.3174  1.2510  0.4840
    1SOL    MW4 1808   1.504   2.609   0.411  0.6256  0.1051  0.3713
    1SOL     OW 1809   1.030   1.468   0.959 -0.7148 -0.1158  0.0234
    1SOL    HW2 1810   1.114   1.510   0.977 -1.3284  0.9903  0.3444
    1SOL    HW3 1811   1.015   1.484   0.866 -0.0433 -1.2988 -0.3046
    1SOL    MW4 1812   1.039   1.476   0.949 -0.7071 -0.1260  0.0225
    1SOL     OW 1813   2.679   3.917   0.976  0.2369 -0.3294 -0.7526
    1SOL    HW2 1814   2.702   3.934   0.885 -0.2221  0.9299 -0.6401
    1SOL    HW3 1815   2.584   3.907   0.975  0.2972 -0.9484 -0.5066
    1SOL    MW4 1816   2.669   3.918   0.964  0.1843 -0.2451 -0.7052
    1SOL     OW 1817   2.414   1.603   1.609  0.2533  0.7490 -0.5742
    1SOL    HW2 1818   2.339   1.544   1.623  0.1134  1.1684  0.4807
    1SOL    HW3 1819   2.445   1.582   1.521 -0.5887 -0.0167 -0.6931
    1SOL    MW4 1820   2.408   1.592   1.599  0.1237  0.7033 -0.4506
    1SOL     OW 1821   2.474   2.796   0.854 -0.4576 -0.0339  0.0773
    1SOL    HW2 1822   2.493   2.771   0.945 -0.6434  0.0508  0.1405
    1SOL    HW3 1823   2.379   2.792   0.848 -0.3650 -1.7458 -0.6032
    1SOL    MW4 1824   2.464   2.792   0.865 -0.4702 -0.2484 -0.0042
    1SOL     OW 1825   1.239   3.814   1.796  0.4950 -0.0078 -0.2598
    1SOL    HW2 1826   1.312   3.846   1.743 -0.0220  0.7892 -0.4974
    1SOL    HW3 1827   1.170   3.795   1.732  0.3191 -0.2761  0.0081
    1SOL    MW4 1828   1.239   3.816   1.780  0.4036  0.0620 -0.2557
    1SOL     OW 1829   3.445   0.435   0.307  0.0711 -0.0098  0.3936
    1SOL    HW2 1830   3.468   0.440   0.214 -0.2228  1.0298  0.3680
    1SOL    HW3 1831   3.468   0.346   0.333 -1.3563 -0.8437 -1.0838
    1SOL    MW4 1832   3.451   0.424   0.298 -0.1562  0.0173  0.1954
    1SOL     OW 1833   2.229   2.372   1.040 -0.2119  0.5022 -0.0634
    1SOL    HW2 1834   2.311   2.387   0.992  0.5467  1.3036  1.4407
    1SOL    HW3 1835   2.193   2.292   1.002  0.6254  0.8477 -1.6153
    1SOL    MW4 1836   2.235   2.363   1.029 -0.0012  0.6535 -0.0699
    1SOL     OW 1837   0.849   3.140   1.010 -0.2545  0.6986 -0.1075
    1SOL    HW2 1838   0.786   3.071   1.030  2.0804 -1.6360 -0.4452
    1SOL    HW3 1839   0.870   3.179   1.095  0.7459 -1.1636  0.5276
    1SOL    MW4 1840   0.844   3.136   1.024  0.1854  0.1450 -0.0683
    1SOL     OW 1841   4.291   1.573   0.632  0.4971  0.2061  0.1826
    1SOL    HW2 1842   4.209   1.525   0.635  1.0561 -0.7540  0.1791
    1SOL    HW3 1843   4.350   1.518   0.580  0.6354  1.6719 -1.2496
    1SOL    MW4 1844   4.288   1.560   0.626  0.5894  0.2728 -0.0069
    1SOL     OW 1845   3.212   2.223   0.827 -0.1566  0.2349  0.2468
    1SOL    HW2 1846   3.253   2.273   0.756 -0.9400  0.1040 -0.3112
    1SOL    HW3 1847   3.153   2.286   0.869 -1.2959 -0.2646 -0.5859
    1SOL    MW4 1848   3.210   2.238   0.823 -0.4106  0.1516  0.0632
    1SOL     OW 1849   0.714   0.195   1.015  0.1943  0.1109 -0.0916
    1SOL    HW2 1850   0.803   0.174   0.985  0.3360  0.9835 -0.2959
    1SOL    HW3 1851   0.667   0.112   1.010  1.0596 -0.4093  0.2332
    1SOL    MW4 1852   0.720   0.182   1.010  0.3271  0.1574 -0.0757
    1SOL     OW 1853   1.260   3.921   0.617  0.1317 -0.0985  0.0216
    1SOL    HW2 1854   1.233   3.913   0.526 -0.6855  0.4180  0.2117
    1SOL    HW3 1855   1.182   3.953   0.663  0.6346 -0.0141  0.8370
    1SOL    MW4 1856   1.246   3.924   0.611  0.0901 -0.0191  0.1543
    1SOL     OW 1857   1.553   0.895   0.518 -0.3793  0.1597  0.0416
    1SOL    HW2 1858   1.565   0.987   0.495 -1.1210  0.3608  0.4381
    1SOL    HW3 1859   1.627   0.850   0.477 -1.2804  0.6103 -2.1113
    1SOL    MW4 1860   1.565   0.901   0.510 -0.5962  0.2457 -0.1901
    1SOL     OW 1861   4.260   3.128   0.497 -0.0362 -0.0050 -0.4524
    1SOL    HW2 1862   4.248   3.076   0.418  0.2983 -1.4278  0.4189
    1SOL    HW3 1863   4.305   3.207   0.467  0.5588 -0.7636 -1.5989
    1SOL    MW4 1864   4.265   3.131   0.483  0.0868 -0.2928 -0.4887
    1SOL     OW 1865   2.354   1.072   1.292  0.1638 -0.4468 -0.1915
    1SOL    HW2 1866   2.369   1.157   1.249  2.1104 -0.1931  0.9224
    1SOL    HW3 1867   2.327   1.095   1.381  0.7961 -0.9912  0.1451
    1SOL    MW4 1868   2.352   1.087   1.298  0.5040 -0.4852 -0.0002
    1SOL     OW 1869   0.427   1.191   0.446 -0.3148 -0.3892  0.3980
    1SOL    HW2 1870   0.339   1.227   0.458 -0.0314  1.0645 -1.6311
    1SOL    HW3 1871   0.484   1.252   0.492 -0.2480 -0.6121  0.6085
    1SOL    MW4 1872   0.423   1.204   0.453 -0.2686 -0.2269  0.1581
    1SOL     OW 1873   0.641   1.710   1.482  0.4041 -0.0209 -0.1383
    1SOL    HW2 1874   0.582   1.683   1.412 -0.2482  2.1472 -0.4766
    1SOL    HW3 1875   0.729   1.699   1.445  0.0942  0.1418 -0.9334
    1SOL    MW4 1876   0.645   1.705   1.468  0.2771  0.2866 -0.2878
    1SOL     OW 1877   3.628   4.497   0.614 -0.3161  0.0148 -0.2705
    1SOL    HW2 1878   3.673   4.571   0.655 -0.1318 -0.3191  0.1345
    1SOL    HW3 1879   3.596   4.531   0.531 -0.8179  0.7355  0.2225
    1SOL    MW4 1880   3.630   4.511   0.609 -0.3579  0.0663 -0.1519
    1SOL     OW 1881   3.468   3.359   0.198  0.2349 -0.0927  0.0646
    1SOL    HW2 1882   3.407   3.430   0.219 -0.6369 -0.3154 -1.5956
    1SOL    HW3 1883   3.437   3.284   0.249 -0.4839 -0.0142 -0.2537
    1SOL    MW4 1884   3.456   3.358   0.207  0.0248 -0.1113 -0.1964
    1SOL     OW 1885   1.743   1.884   0.870 -0.2114  0.2397 -0.4482
    1SOL    HW2 1886   1.658   1.855   0.903 -0.0741 -1.1510 -1.2668
    1SOL    HW3 1887   1.733   1.882   0.775  0.6745  0.2538 -0.5400
    1SOL    MW4 1888   1.730   1.880   0.862 -0.0763  0.0581 -0.5684
    1SOL     OW 1889   4.284   4.090   1.316 -0.0753 -0.6743 -0.2227
    1SOL    HW2 1890   4.269   4.176   1.354  1.1293 -0.0256 -1.1945
    1SOL    HW3 1891   4.331   4.042   1.384 -0.8919 -0.6267  0.3824
    1SOL    MW4 1892   4.288   4.095   1.330 -0.0238 -0.5827 -0.2712
    1SOL     OW 1893   0.145   3.228   2.054 -0.2865  0.0111  0.1790
    1SOL    HW2 1894   0.200   3.246   2.131  0.8038 -0.3954 -0.4899
    1SOL    HW3 1895   0.199   3.255   1.979 -1.4014  0.5437 -0.4393
    1SOL    MW4 1896   0.159   3.234   2.054 -0.2898  0.0279  0.0093
    1SOL     OW 1897   1.201   4.040   1.348  0.1691  0.1224 -0.6922
    1SOL    HW2 1898   1.247   3.956   1.340 -2.3205 -1.4854  1.0455
    1SOL    HW3 1899   1.195   4.054   1.443  0.0384  2.0117 -0.9646
    1SOL    MW4 1900   1.207   4.030   1.360 -0.1768  0.1593 -0.4988
    1SOL     OW 1901   3.628   3.619   1.803 -0.0926  0.4014 -0.1439
    1SOL    HW2 1902   3.663   3.663   1.726  0.3897 -0.0757 -0.1958
    1SOL    HW3 1903   3.654   3.528   1.793 -1.0124  0.1184  0.0093
    1SOL    MW4 1904   3.636   3.613   1.792 -0.1502  0.3014 -0.1305
    1SOL     OW 1905   2.922   0.640   0.403 -0.3730  0.4784 -0.3038
    1SOL    HW2 1906   3.015   0.629   0.381 -0.6356  0.2734 -1.3373
    1SOL    HW3 1907   2.921   0.707   0.471  0.5413  0.4298 -0.2390
    1SOL    MW4 1908   2.934   0.648   0.409 -0.2871  0.4449 -0.4317
    1SOL     OW 1909   4.384   2.476   1.895 -0.4840  0.4623  0.5685
    1SOL    HW2 1910   4.383   2.521   1.811  0.8620 -1.0385 -0.2826
    1SOL    HW3 1911   4.426   2.538   1.955 -0.7729  1.2480 -0.0333
    1SOL    MW4 1912   4.389   2.490   1.892 -0.3443  0.3679  0.3768
    1SOL     OW 1913   1.912   3.745   0.535  0.1151 -0.3616  0.1323
    1SOL    HW2 1914   1.911   3.841   0.531 -0.3643 -0.3324  0.7878
    1SOL    HW3 1915   1.866   3.717   0.456 -1.0927 -0.0126  0.6968
    1SOL    MW4 1916   1.906   3.754   0.524 -0.1074 -0.3119  0.2933
    1SOL     OW 1917   2.788   2.783   1.206 -0.0475 -0.2017 -0.2728
    1SOL    HW2 1918   2.779   2.772   1.301  0.1749  1.1579 -0.0953
    1SOL    HW3 1919   2.701   2.763   1.172 -0.5794  0.9422  0.3741
    1SOL    MW4 1920   2.775   2.779   1.214 -0.0882  0.1285 -0.1640
    1SOL     OW 1921   0.653   0.299   0.436 -0.1677  0.2977 -0.4874
    1SOL    HW2 1922   0.629   0.369   0.497  1.4065  1.9367 -1.7032
    1SOL    HW3 1923   0.580   0.238   0.440 -1.0268  1.4030  1.5087
    1SOL    MW4 1924   0.640   0.300   0.445 -0.0733  0.6598 -0.3844
    1SOL     OW 1925   1.293   0.432   0.990 -0.1551 -0.1637 -0.0640
    1SOL    HW2 1926   1.256   0.514   1.022 -1.2416 -0.8319  0.4465
    1SOL    HW3 1927   1.383   0.431   1.025 -0.1449  0.7825 -0.0491
    1SOL    MW4 1928   1.300   0.443   0.999 -0.2972 -0.1271  0.0054
    1SOL     OW 1929   2.069   2.998   0.670 -0.1163 -0.1255  0.2228
    1SOL    HW2 1930   1.992   2.986   0.725  0.1104  0.6468  0.7173
    1SOL    HW3 1931   2.108   3.079   0.701  1.1270 -0.7173  0.2485
    1SOL    MW4 1932   2.064   3.007   0.681  0.0777 -0.1016  0.2914
    1SOL     OW 1933   0.458   4.234   0.722 -0.2082  0.2258  0.1015
    1SOL    HW2 1934   0.508   4.169   0.770 -0.9932 -0.6095 -0.2002
    1SOL    HW3 1935   0.481   4.317   0.763  0.4365 -0.2924  0.7985
    1SOL    MW4 1936   0.467   4.236   0.733 -0.2268  0.0472  0.1537
    1SOL     OW 1937   2.949   2.631   1.026 -0.1534  0.0818 -0.2386
    1SOL    HW2 1938   2.903   2.677   1.096 -0.6659 -0.3115 -0.3162
    1SOL    HW3 1939   3.038   2.617   1.060 -1.0696 -2.2279  1.2864
    1SOL    MW4 1940   2.955   2.635   1.039 -0.3419 -0.2749 -0.0477
    1SOL     OW 1941   2.414   1.354   1.175 -0.1546 -0.1444  0.1106
    1SOL    HW2 1942   2.407   1.354   1.080 -0.4776  0.2667  0.1293
    1SOL    HW3 1943   2.358   1.427   1.203  1.3235  0.8475  0.5125
    1SOL    MW4 1944   2.406   1.364   1.166 -0.0024  0.0407  0.1661
    1SOL     OW 1945   3.183   3.891   0.527 -0.2644 -0.2322 -0.5530
    1SOL    HW2 1946   3.088   3.901   0.537 -0.2614 -0.9153  0.1938
    1SOL    HW3 1947   3.218   3.975   0.558 -0.5142 -0.7461  1.2152
    1SOL    MW4 1948   3.175   3.904   0.533 -0.2968 -0.3903 -0.2212
    1SOL     OW 1949   0.616   4.082   0.896 -0.2657 -0.5795 -0.5520
    1SOL    HW2 1950   0.678   4.035   0.951 -0.1480  0.1575 -0.0414
    1SOL    HW3 1951   0.587   4.156   0.950  1.4954  1.4004 -2.1848
    1SOL    MW4 1952   0.620   4.086   0.910 -0.0178 -0.2208 -0.7001
    1SOL     OW 1953   4.057   2.245   1.483 -0.1201  0.4534  0.1800
    1SOL    HW2 1954   4.025   2.235   1.393 -0.7963  0.2519  0.4353
    1SOL    HW3 1955   4.000   2.313   1.520  0.6034  1.0235  0.2440
    1SOL    MW4 1956   4.045   2.253   1.476 -0.1144  0.5019  0.2221
    1SOL     OW 1957   2.171   4.563   0.797  0.2197 -0.1755 -0.0363
    1SOL    HW2 1958   2.219   4.622   0.738  1.0239  0.4374  1.2016
    1SOL    HW3 1959   2.180   4.476   0.758 -0.1918  0.3865 -1.3910
    1SOL    MW4 1960   2.179   4.559   0.784  0.2718 -0.0200 -0.0517
    1SOL     OW 1961   0.560   2.711   0.440 -0.5825  0.0985  0.2376
    1SOL    HW2 1962   0.566   2.636   0.380 -2.0088 -0.2320  0.4885
    1SOL    HW3 1963   0.586   2.675   0.525  2.1404  0.7358 -0.2816
    1SOL    MW4 1964   0.564   2.696   0.443 -0.4114  0.1392  0.2022
    1SOL     OW 1965   0.816   4.169   0.665  0.3208 -0.1337 -0.2366
    1SOL    HW2 1966   0.765   4.134   0.738 -0.6653  1.1269 -0.3048
    1SOL    HW3 1967   0.874   4.233   0.705 -1.6248  2.0216 -0.8023
    1SOL    MW4 1968   0.817   4.173   0.680 -0.0659  0.3166 -0.3203
    1SOL     OW 1969   0.478   2.288   1.676  0.1410 -0.2925 -0.0487
    1SOL    HW2 1970   0.489   2.228   1.750  0.2913  0.3134  0.4236
    1SOL    HW3 1971   0.555   2.345   1.679 -0.3792  0.4178 -0.0286
    1SOL    MW4 1972   0.489   2.288   1.686  0.0922 -0.1187  0.0163
    1SOL     OW 1973   2.127   2.173   0.654  0.4485 -0.0797  0.0318
    1SOL    HW2 1974   2.213   2.215   0.649  0.4445 -0.0945 -0.1684
    1SOL    HW3 1975   2.068   2.233   0.609 -0.0254  0.8901  1.8753
    1SOL    MW4 1976   2.131   2.187   0.648  0.3853  0.0463  0.2486
    1SOL     OW 1977   3.766   0.124   0.579 -0.3531 -0.0761  0.1125
    1SOL    HW2 1978   3.851   0.080   0.582 -0.4510 -0.2826 -0.1005
    1SOL    HW3 1979   3.730   0.113   0.668 -0.1922 -0.0616  0.1782
    1SOL    MW4 1980   3.772   0.116   0.592 -0.3448 -0.1014  0.0931
    1SOL     OW 1981   4.041   4.450   1.815 -0.4168 -0.0422 -0.1258
    1SOL    HW2 1982   3.999   4.507   1.750  0.3586  0.4264 -0.2210
    1SOL    HW3 1983   3.971   4.429   1.877 -0.8958  0.3949 -0.5116
    1SOL    MW4 1984   4.026   4.455   1.814 -0.3781  0.0772 -0.1893
    1SOL     OW 1985   3.705   1.754   0.440  0.0255  0.2313  0.1260
    1SOL    HW2 1986   3.783   1.711   0.405 -0.0599 -0.1218  0.3625
    1SOL    HW3 1987   3.648   1.681   0.466  0.5013  0.4939  1.9097
    1SOL    MW4 1988   3.708   1.738   0.438  0.0768  0.2195  0.3926
    1SOL     OW 1989   0.865   4.494   1.071 -0.3688  0.4124 -0.4649
    1SOL    HW2 1990   0.880   4.579   1.030  0.2202  0.6804  0.2905
    1SOL    HW3 1991   0.848   4.515   1.163 -0.3835 -0.2733 -0.3132
    1SOL    MW4 1992   0.865   4.508   1.077 -0.2931  0.3572 -0.3452
    1SOL     OW 1993   2.375   4.553   2.344 -0.4189  0.3741  0.0927
    1SOL    HW2 1994   2.308   4.621   2.336 -0.7094  0.0476 -0.3136
    1SOL    HW3 1995   2.428   4.580   2.419 -0.9967  0.6440  0.4088
    1SOL    MW4 1996   2.373   4.566   2.353 -0.5336  0.3672  0.0808
    1SOL     OW 1997   3.049   1.121   0.943  0.7601  0.1052 -0.1589
    1SOL    HW2 1998   3.057   1.076   0.859  0.6910  1.1153 -0.7150
    1SOL    HW3 1999   3.024   1.210   0.920  0.1991  0.2458  0.9655
    1SOL    MW4 2000   3.047   1.127   0.929  0.6769  0.2571 -0.0839
    1SOL     OW 2001   0.870   2.639   1.426  0.3698  0.2859 -0.1977
    1SOL    HW2 2002   0.832   2.648   1.513  2.2680 -0.5040  0.7619
    1SOL    HW3 2003   0.813   2.577   1.381  0.2434 -0.5294  1.0516
    1SOL    MW4 2004   0.858   2.632   1.432  0.6036  0.0739  0.0936
    1SOL     OW 2005   4.065   1.726   0.975  0.2015  0.2781  0.1337
    1SOL    HW2 2006   3.995   1.777   1.016 -0.3546 -0.2400 -0.1709
    1SOL    HW3 2007   4.078   1.768   0.890 -0.0390  0.1057  0.0118
    1SOL    MW4 2008   4.058   1.738   0.969  0.0963  0.1872  0.0774
    1SOL     OW 2009   1.227   3.119   2.640 -0.2190 -0.0723  0.6124
    1SOL    HW2 2010   1.154   3.084   2.691 -0.6445  0.6603  0.5246
    1SOL    HW3 2011   1.187   3.188   2.587  0.5457  0.3408  0.5734
    1SOL    MW4 2012   1.212   3.123   2.639 -0.1740  0.0784  0.5956
    1SOL     OW 2013   0.126   1.739   0.457  0.2608  0.2690  0.1688
    1SOL    HW2 2014   0.207   1.716   0.411 -0.8268  1.5496 -2.5172
    1SOL    HW3 2015   0.056   1.698   0.405 -0.9152  0.5941  1.4674
    1SOL    MW4 2016   0.127   1.730   0.444 -0.0378  0.4809 -0.0142
    1SOL     OW 2017   1.168   1.803   0.448  0.3859 -0.2816 -0.1242
    1SOL    HW2 2018   1.145   1.711   0.434  0.6696 -0.5298  0.9926
    1SOL    HW3 2019   1.085   1.850   0.434 -0.6827 -1.0871  2.8951
    1SOL    MW4 2020   1.154   1.797   0.445  0.2823 -0.4205  0.4215
    1SOL     OW 2021   0.008   4.584   0.191  0.1186 -0.1122  0.5292
    1SOL    HW2 2022   0.100   4.610   0.191  0.1153 -0.0978  0.1858
    1SOL    HW3 2023  -0.025   4.615   0.275  0.4803 -0.3195  0.7509
    1SOL    MW4 2024   0.016   4.592   0.202  0.1659 -0.1383  0.5131
    1SOL     OW 2025   0.407   2.793   2.827 -0.1084 -0.1704 -0.0547
    1SOL    HW2 2026   0.369   2.813   2.742 -1.0276  0.8332  0.5746
    1SOL    HW3 2027   0.478   2.857   2.838 -0.8237  0.5445  0.4767
    1SOL    MW4 2028   0.411   2.804   2.817 -0.3241  0.0563  0.0987
    1SOL     OW 2029   3.702   2.715   1.682  0.0544 -0.2837 -0.0573
    1SOL    HW2 2030   3.609   2.712   1.659 -0.1140  0.7492  0.4532
    1SOL    HW3 2031   3.740   2.780   1.623  0.6655 -1.4763 -0.9779
    1SOL    MW4 2032   3.695   2.723   1.672  0.1130 -0.3047 -0.1113
    1SOL     OW 2033   3.514   3.070   1.800  0.0922  0.0561  0.1173
    1SOL    HW2 2034   3.434   3.096   1.847 -0.2250 -0.5810 -0.0632
    1SOL    HW3 2035   3.545   2.993   1.847  1.5552  1.2917  1.2230
    1SOL    MW4 2036   3.507   3.064   1.812  0.2432  0.1352  0.2395
    1SOL     OW 2037   0.208   2.919   1.368 -0.1934 -0.1864 -0.2842
    1SOL    HW2 2038   0.269   2.946   1.436  0.1503 -1.0442 -0.2406
    1SOL    HW3 2039   0.180   3.000   1.326  1.1480  0.1854 -0.4523
    1SOL    MW4 2040   0.212   2.933   1.371  0.0289 -0.2506 -0.3005
    1SOL     OW 2041   0.710   4.179   0.417  0.1877 -0.1509  0.5119
    1SOL    HW2 2042   0.757   4.246   0.366  0.0894 -0.9833 -0.6929
    1SOL    HW3 2043   0.748   4.185   0.505  1.7828 -0.0660 -0.1647
    1SOL    MW4 2044   0.722   4.189   0.422  0.3852 -0.2499  0.2637
    1SOL     OW 2045   2.530   4.617   2.588 -0.0685 -0.4517  0.0943
    1SOL    HW2 2046   2.458   4.630   2.649  0.4743 -0.4270  0.7262
    1SOL    HW3 2047   2.582   4.697   2.594 -0.0520 -0.4142 -0.4606
    1SOL    MW4 2048   2.527   4.629   2.597  0.0052 -0.4435  0.1042
    1SOL     OW 2049   0.731   4.665   0.674 -0.4889 -0.0891  0.1797
    1SOL    HW2 2050   0.760   4.647   0.584 -0.1505  0.9170  0.0804
    1SOL    HW3 2051   0.697   4.754   0.670  0.1435  0.2045  1.2001
    1SOL    MW4 2052   0.730   4.675   0.661 -0.3608  0.0825  0.3013
    1SOL     OW 2053   1.575   4.591   1.033 -0.0429  0.4731  0.2933
    1SOL    HW2 2054   1.568   4.652   0.959  2.2218  0.4404  0.0057
    1SOL    HW3 2055   1.593   4.647   1.108 -1.8453  0.4626  0.7473
    1SOL    MW4 2056   1.576   4.606   1.033  0.0181  0.4673  0.3152
    1SOL     OW 2057   0.372   0.765   0.911  0.1996  0.0036 -0.1280
    1SOL    HW2 2058   0.356   0.707   0.836  0.1643 -0.0891 -0.0498
    1SOL    HW3 2059   0.433   0.830   0.878 -0.7609  0.6869 -0.5885
    1SOL    MW4 2060   0.378   0.766   0.896  0.0682  0.0814 -0.1785
    1SOL     OW 2061   3.124   0.396   0.630  0.1972  0.4263  0.0143
    1SOL    HW2 2062   3.103   0.466   0.692  0.8630  1.5023 -0.9424
    1SOL    HW3 2063   3.039   0.367   0.597 -0.0391  1.5110 -0.3441
    1SOL    MW4 2064   3.110   0.402   0.634  0.2539  0.7113 -0.1592
    1SOL     OW 2065   0.834   4.578   1.346 -0.2895  0.3421 -0.1489
    1SOL    HW2 2066   0.741   4.596   1.362  0.0680  0.5691  1.6888
    1SOL    HW3 2067   0.880   4.650   1.389  0.8286 -0.8459  0.6557
    1SOL    MW4 2068   0.828   4.590   1.354 -0.0948  0.2151  0.1997
    1SOL     OW 2069   0.355   0.338   0.832 -0.1746 -0.0752  0.3235
    1SOL    HW2 2070   0.372   0.340   0.926 -2.2958  0.9190  0.7199
    1SOL    HW3 2071   0.359   0.245   0.810 -1.2746 -0.4926  1.7490
    1SOL    MW4 2072   0.358   0.326   0.842 -0.5997  0.0009  0.5638
    1SOL     OW 2073   0.307   3.812   1.159 -0.0289 -0.0108 -0.0484
    1SOL    HW2 2074   0.329   3.823   1.066 -1.7549  0.9288 -0.3677
    1SOL    HW3 2075   0.373   3.751   1.192 -0.0390 -1.2182 -2.1533
    1SOL    MW4 2076   0.319   3.805   1.151 -0.2580 -0.0460 -0.3682
    1SOL     OW 2077   0.517   1.631   0.830  0.0904  0.0855  0.1004
    1SOL    HW2 2078   0.439   1.680   0.802 -0.3166 -1.2888 -1.2095
    1SOL    HW3 2079   0.484   1.544   0.853  1.2836 -0.5993 -0.7643
    1SOL    MW4 2080   0.502   1.626   0.829  0.1941 -0.1862 -0.1864
    1SOL     OW 2081   0.802   0.675   0.638 -0.0268  0.1918 -0.3598
    1SOL    HW2 2082   0.763   0.761   0.650 -0.7428 -0.0777 -0.7256
    1SOL    HW3 2083   0.806   0.663   0.543  0.3193 -0.0701 -0.3151
    1SOL    MW4 2084   0.798   0.684   0.627 -0.0756  0.1216 -0.4022
    1SOL     OW 2085   0.365   3.168   0.787  0.1102 -0.5218 -0.0962
    1SOL    HW2 2086   0.391   3.168   0.879  0.2957  0.0818 -0.1491
    1SOL    HW3 2087   0.273   3.193   0.788  0.7371  1.8877 -0.2465
    1SOL    MW4 2088   0.356   3.171   0.799  0.2174 -0.1240 -0.1230
    1SOL     OW 2089   0.918   3.236   1.288 -0.4689 -0.1159  0.4333
    1SOL    HW2 2090   1.002   3.192   1.294 -0.6114 -0.6805 -1.3575
    1SOL    HW3 2091   0.939   3.324   1.257 -0.5161 -0.2144  0.1168
    1SOL    MW4 2092   0.931   3.242   1.285 -0.4939 -0.2034  0.1552
    1SOL     OW 2093   0.184   1.042   2.997  0.2368  0.0344 -0.4060
    1SOL    HW2 2094   0.225   1.107   2.939  1.1702  0.4746  0.7390
    1SOL    HW3 2095   0.184   1.084   3.083 -1.0471 -0.6649 -0.0581
    1SOL    MW4 2096   0.189   1.056   3.001  0.1906  0.0004 -0.2093
    1SOL     OW 2097   0.635   2.520   1.296  0.3978 -0.2905 -0.4057
    1SOL    HW2 2098   0.596   2.604   1.271 -0.6835 -0.4394  0.6967
    1SOL    HW3 2099   0.567   2.478   1.349  1.2229 -1.5384 -0.3303
    1SOL    MW4 2100   0.621   2.526   1.300  0.3641 -0.4749 -0.2502
    1SOL     OW 2101   1.914   1.556   2.364  0.0941  0.0400  0.4850
    1SOL    HW2 2102   1.862   1.634   2.344  0.9969  0.2414 -1.1293
    1SOL    HW3 2103   1.980   1.586   2.426  0.0129  0.4039  0.3944
    1SOL    MW4 2104   1.916   1.570   2.370  0.2024  0.1146  0.2599
    1SOL     OW 2105   0.312   1.433   2.659  0.6970 -0.2755  0.3380
    1SOL    HW2 2106   0.399   1.455   2.626  0.2777  1.3892  0.3217
    1SOL    HW3 2107   0.284   1.511   2.707 -0.6439 -0.9354  0.6449
    1SOL    MW4 2108   0.320   1.446   2.661  0.4647 -0.1427  0.3762
    1SOL     OW 2109   2.518   3.133   1.824 -0.2628  0.1591 -0.1560
    1SOL    HW2 2110   2.525   3.166   1.914 -1.0762  0.1670 -0.0905
    1SOL    HW3 2111   2.507   3.211   1.770  0.0254  0.1416 -0.2395
    1SOL    MW4 2112   2.517   3.148   1.829 -0.3319  0.1578 -0.1582
    1SOL     OW 2113   2.704   4.411   2.039  0.2685 -0.0436  0.1744
    1SOL    HW2 2114   2.665   4.498   2.028  1.6546  0.6590  0.6609
    1SOL    HW3 2115   2.737   4.388   1.952 -0.8900 -0.4878 -0.1592
    1SOL    MW4 2116   2.703   4.419   2.026  0.2985 -0.0091  0.1945
    1SOL     OW 2117   1.170   2.599   1.116  0.0189  0.1750  0.2615
    1SOL    HW2 2118   1.253   2.555   1.097 -0.3265 -0.2412 -0.3023
    1SOL    HW3 2119   1.121   2.595   1.034 -0.8373 -0.1984  0.7731
    1SOL    MW4 2120   1.174   2.593   1.103 -0.1398  0.0708  0.2548
    1SOL     OW 2121   1.623   2.501   1.500  0.0186  0.4084 -0.0952
    1SOL    HW2 2122   1.530   2.484   1.492  0.0500 -0.0293  0.4324
    1SOL    HW3 2123   1.665   2.433   1.447  0.0206  0.8163 -0.6107
    1SOL    MW4 2124   1.617   2.490   1.492  0.0229  0.4044 -0.0936
    1SOL     OW 2125   0.838   2.703   3.396  0.0790  0.0641  0.3398
    1SOL    HW2 2126   0.782   2.773   3.362 -0.6721 -0.9243 -0.4914
    1SOL    HW3 2127   0.904   2.749   3.448 -0.7450  1.3475  0.2875
    1SOL    MW4 2128   0.839   2.719   3.398 -0.1289  0.1030  0.2232
    1SOL     OW 2129   2.114   3.704   0.146 -0.3087 -0.3545  0.3798
    1SOL    HW2 2130   2.205   3.725   0.126 -0.4484 -1.6819 -1.8603
    1SOL    HW3 2131   2.115   3.612   0.172 -1.0522 -0.5421 -0.2106
    1SOL    MW4 2132   2.126   3.695   0.147 -0.4253 -0.5546  0.0064
    1SOL     OW 2133   4.447   3.325   0.455 -0.0416 -0.6888  0.0460
    1SOL    HW2 2134   4.433   3.349   0.547  0.2144  0.3875 -0.1870
    1SOL    HW3 2135   4.539   3.345   0.439  0.0515 -1.3759 -0.3005
    1SOL    MW4 2136   4.457   3.331   0.465  0.0043 -0.6373 -0.0305
    1SOL     OW 2137   1.435   3.784   1.019 -0.5909 -0.0180  0.1584
    1SOL    HW2 2138   1.496   3.766   1.090  0.3685 -0.2869 -0.7179
    1SOL    HW3 2139   1.437   3.879   1.009 -1.0348  0.0534  0.7609
    1SOL    MW4 2140   1.444   3.794   1.027 -0.5229 -0.0441  0.1223
    1SOL     OW 2141   1.734   4.315   0.622 -0.0210 -0.0570  0.0390
    1SOL    HW2 2142   1.655   4.293   0.573  0.5493 -0.1545 -0.8517
    1SOL    HW3 2143   1.726   4.267   0.704 -2.1762  2.0392  1.1349
    1SOL    MW4 2144   1.723   4.306   0.626 -0.2301  0.2065  0.0660
    1SOL     OW 2145   0.284   2.150   0.316  0.2432  0.1772 -0.0887
    1SOL    HW2 2146   0.341   2.091   0.266  0.6873  0.6096 -0.0991
    1SOL    HW3 2147   0.277   2.111   0.402  2.5520  1.3748  0.6804
    1SOL    MW4 2148   0.290   2.137   0.321  0.6064  0.3924  0.0114
    1SOL     OW 2149   0.922   0.224   1.935 -0.3805 -0.0047 -0.6441
    1SOL    HW2 2150   1.016   0.244   1.939 -0.5878  0.5792  1.6979
    1SOL    HW3 2151   0.915   0.137   1.973 -0.9356  0.4844  0.3839
    1SOL    MW4 2152   0.933   0.215   1.940 -0.4811  0.1369 -0.1994
    1SOL     OW 2153   4.355   3.924   0.184 -0.2644  0.1451  0.1896
    1SOL    HW2 2154   4.384   3.839   0.150 -0.7592 -0.1945  0.5975
    1SOL    HW3 2155   4.427   3.984   0.165 -0.1975 -0.2175 -0.7208
    1SOL    MW4 2156   4.368   3.921   0.177 -0.3214  0.0527  0.1233
    1SOL     OW 2157   0.047   0.909   1.157 -0.2088 -0.3642 -0.0328
    1SOL    HW2 2158   0.128   0.861   1.173 -0.0500 -0.4009 -0.8927
    1SOL    HW3 2159  -0.021   0.856   1.198  0.3272  0.2197  1.6231
    1SOL    MW4 2160   0.048   0.896   1.164 -0.1171 -0.2920  0.0722
    1SOL     OW 2161   1.177   1.812   2.057 -0.1919  0.0123  0.1259
    1SOL    HW2 2162   1.243   1.847   2.118 -0.5211  0.6521  0.1237
    1SOL    HW3 2163   1.220   1.813   1.972 -0.2669  0.6255  0.0898
    1SOL    MW4 2164   1.192   1.817   2.054 -0.2452  0.1776  0.1206
    1SOL     OW 2165   0.407   1.727   0.361  0.2296  0.4452  0.0152
    1SOL    HW2 2166   0.454   1.643   0.359  0.3105  0.4991 -0.4278
    1SOL    HW3 2167   0.461   1.783   0.417  1.8541  1.1835 -2.2323
    1SOL    MW4 2168   0.420   1.723   0.368  0.4546  0.5498 -0.3398
    1SOL     OW 2169   1.384   3.802   1.340 -0.0158  0.0015 -0.3129
    1SOL    HW2 2170   1.464   3.758   1.311  1.1796  2.1995 -0.4396
    1SOL    HW3 2171   1.317   3.734   1.337  1.7872 -1.8172 -0.4384
    1SOL    MW4 2172   1.386   3.787   1.336  0.3798  0.0515 -0.3461
    1SOL     OW 2173   0.860   4.299   1.285  0.0332  0.5146  0.2529
    1SOL    HW2 2174   0.879   4.379   1.334 -0.0237  0.5633  0.1963
    1SOL    HW3 2175   0.843   4.233   1.353 -1.1202  0.8408  0.2971
    1SOL    MW4 2176   0.860   4.301   1.300 -0.1265  0.5641  0.2512
    1SOL     OW 2177   1.514   1.750   0.985 -0.3167 -0.4470 -0.2014
    1SOL    HW2 2178   1.538   1.751   1.078 -1.2527  0.5935  0.0340
    1SOL    HW3 2179   1.543   1.664   0.954  1.0510 -0.3567  0.7723
    1SOL    MW4 2180   1.521   1.739   0.994 -0.2600 -0.2977 -0.0418
    1SOL     OW 2181   1.544   2.322   0.445  0.2264  0.4121 -0.0118
    1SOL    HW2 2182   1.526   2.414   0.425 -1.1145 -0.2477 -2.0204
    1SOL    HW3 2183   1.460   2.285   0.470  1.1591  0.2171  3.0656
    1SOL    MW4 2184   1.531   2.329   0.445  0.1726  0.2992  0.1293
    1SOL     OW 2185   0.557   0.538   0.209 -0.2385  0.1078  0.0588
    1SOL    HW2 2186   0.604   0.456   0.221  0.2319  0.6331  2.1499
    1SOL    HW3 2187   0.478   0.529   0.262 -0.1871  0.9880  0.3027
    1SOL    MW4 2188   0.553   0.526   0.218 -0.1697  0.2932  0.3669
    1SOL     OW 2189   1.036   3.097   0.607 -0.0140 -0.1460 -0.0147
    1SOL    HW2 2190   1.106   3.162   0.601 -0.0943 -0.1966 -1.9416
    1SOL    HW3 2191   0.959   3.141   0.572 -0.2207 -1.0466 -0.7150
    1SOL    MW4 2192   1.035   3.111   0.601 -0.0520 -0.2713 -0.3613
    1SOL     OW 2193   0.152   2.059   1.290  0.3734 -0.1363  0.6198
    1SOL    HW2 2194   0.170   1.970   1.261  0.5739 -0.0280  0.4066
    1SOL    HW3 2195   0.103   2.099   1.218  1.5830  0.3857  0.0762
    1SOL    MW4 2196   0.148   2.053   1.276  0.5594 -0.0532  0.5200
    1SOL     OW 2197   1.557   1.759   1.757  0.5075  0.4015 -0.1841
    1SOL    HW2 2198   1.625   1.778   1.822  0.3966  1.0316 -0.2556
    1SOL    HW3 2199   1.487   1.821   1.776  0.5973  0.7855 -1.0961
    1SOL    MW4 2200   1.557   1.769   1.768  0.5049  0.5351 -0.3139
    1SOL     OW 2201   0.572   2.795   1.235 -0.2917 -0.3021 -0.2473
    1SOL    HW2 2202   0.544   2.781   1.144  0.2663  0.6263 -0.5667
    1SOL    HW3 2203   0.665   2.814   1.228 -0.2940 -0.0302  0.5042
    1SOL    MW4 2204   0.580   2.796   1.222 -0.2184 -0.1440 -0.1903
    1SOL     OW 2205   0.594   2.606   0.692  0.2110 -0.0639  0.2506
    1SOL    HW2 2206   0.578   2.655   0.773 -0.2323  0.2931 -0.0523
    1SOL    HW3 2207   0.674   2.556   0.710 -0.6101 -1.0056  1.3755
    1SOL    MW4 2208   0.602   2.606   0.705  0.0442 -0.1409  0.3590
    1SOL     OW 2209   1.047   2.172   0.548 -0.3951  0.0105 -0.6776
    1SOL    HW2 2210   0.999   2.253   0.530 -0.2134  0.3256  0.2387
    1SOL    HW3 2211   1.006   2.106   0.491 -1.1152  0.5469 -0.7791
    1SOL    MW4 2212   1.035   2.174   0.538 -0.4662  0.1228 -0.5701
    1SOL     OW 2213   0.971   3.116   1.872 -0.3055 -0.9094  0.4499
    1SOL    HW2 2214   0.886   3.120   1.828  0.6011 -1.2380 -1.3660
    1SOL    HW3 2215   0.973   3.029   1.913 -0.5922 -1.1360 -0.0190
    1SOL    MW4 2216   0.960   3.105   1.872 -0.2237 -0.9828  0.1484
    1SOL     OW 2217   4.063   3.026   1.516 -0.1756  0.5598  0.0980
    1SOL    HW2 2218   3.970   3.012   1.533 -0.4646  0.0433 -1.8322
    1SOL    HW3 2219   4.066   3.109   1.468  0.2848  0.2580 -0.3987
    1SOL    MW4 2220   4.051   3.035   1.512 -0.1531  0.4516 -0.2221
    1SOL     OW 2221   3.840   0.414   0.577  0.3688 -0.0536  0.5817
    1SOL    HW2 2222   3.822   0.320   0.586  1.3701 -0.3225 -0.1346
    1SOL    HW3 2223   3.846   0.445   0.667  0.4892 -0.7679  0.8265
    1SOL    MW4 2224   3.838   0.405   0.590  0.5167 -0.1833  0.5195
    1SOL     OW 2225   1.436   3.012   0.491  0.3130 -0.0225  0.2720
    1SOL    HW2 2226   1.470   2.977   0.574  1.8105  0.7316 -0.0078
    1SOL    HW3 2227   1.513   3.018   0.434 -0.5303  0.4290 -0.8335
    1SOL    MW4 2228   1.451   3.009   0.495  0.3994  0.1366  0.0892
    1SOL     OW 2229   2.741   0.448   0.367 -0.9237  0.1417  0.0929
    1SOL    HW2 2230   2.665   0.463   0.423 -0.4328  0.2334  0.7314
    1SOL    HW3 2231   2.795   0.526   0.378 -0.6827  0.0310 -0.2829
    1SOL    MW4 2232   2.738   0.461   0.376 -0.8271  0.1391  0.1276
    1SOL     OW 2233   3.460   3.380   0.599 -0.5414  0.0646 -0.2815
    1SOL    HW2 2234   3.446   3.322   0.524 -0.3580  0.0172 -0.2792
    1SOL    HW3 2235   3.548   3.415   0.586 -1.1750  1.4052 -1.0031
    1SOL    MW4 2236   3.470   3.377   0.588 -0.6008  0.2351 -0.3764
    1SOL     OW 2237   2.052   1.062   1.941  0.0646 -0.1601  0.1819
    1SOL    HW2 2238   2.024   1.147   1.974 -1.1458 -0.7740  0.8164
    1SOL    HW3 2239   1.973   1.007   1.947 -0.0353 -0.5106 -3.0845
    1SOL    MW4 2240   2.038   1.066   1.946 -0.1082 -0.2873 -0.1653
    1SOL     OW 2241   1.567   2.722   1.150  0.4227  0.0866  0.3011
    1SOL    HW2 2242   1.655   2.690   1.129  0.0407 -1.5450  1.1874
    1SOL    HW3 2243   1.572   2.748   1.242 -0.5969 -2.0502  0.9848
    1SOL    MW4 2244   1.579   2.721   1.159  0.2377 -0.4106  0.5083
    1SOL     OW 2245   2.403   0.349   1.141 -0.2313 -0.2845  0.0503
    1SOL    HW2 2246   2.318   0.346   1.097 -0.4932  0.1289  0.5157
    1SOL    HW3 2247   2.461   0.300   1.084 -0.8431 -0.7871 -0.1494
    1SOL    MW4 2248   2.399   0.342   1.128 -0.3467 -0.2963  0.0854
    1SOL     OW 2249   0.798   0.641   0.350  0.0949  0.0470 -0.0207
    1SOL    HW2 2250   0.728   0.622   0.288 -0.0093  1.4740 -0.3703
    1SOL    HW3 2251   0.841   0.719   0.315  1.3330 -0.3149  0.6301
    1SOL    MW4 2252   0.795   0.649   0.337  0.2445  0.1875  0.0190
    1SOL     OW 2253   1.455   2.225   1.124  0.4238 -0.0856 -0.1659
    1SOL    HW2 2254   1.547   2.200   1.133  0.2057 -0.7232  0.3649
    1SOL    HW3 2255   1.456   2.320   1.113  1.1001  0.0045  0.6473
    1SOL    MW4 2256   1.467   2.234   1.124  0.4842 -0.1578  0.0113
    1SOL     OW 2257   2.987   4.583   1.490  0.7649  0.4405 -0.4832
    1SOL    HW2 2258   2.960   4.628   1.570 -2.2276  0.2482 -1.3500
    1SOL    HW3 2259   2.926   4.510   1.481  1.1760  0.3405 -2.8226
    1SOL    MW4 2260   2.976   4.579   1.499  0.4244  0.4020 -0.9061
    1SOL     OW 2261   2.006   4.352   9.997 -0.1086 -0.1054  0.2798
    1SOL    HW2 2262   2.084   4.369  10.050 -0.1133 -2.4305  1.0495
    1SOL    HW3 2263   2.036   4.365   9.907  0.8772  0.1378  0.6352
    1SOL    MW4 2264   2.021   4.356   9.992  0.0212 -0.3805  0.4272
    1SOL     OW 2265   2.540   1.086   1.646 -0.2634 -0.4709 -0.1503
    1SOL    HW2 2266   2.603   1.155   1.625 -0.4250  0.4677  2.2974
    1SOL    HW3 2267   2.457   1.118   1.612 -0.0306 -0.2644 -0.5403
    1SOL    MW4 2268   2.538   1.099   1.639 -0.2539 -0.3200  0.1212
    1SOL     OW 2269   1.983   1.595   0.709  0.2216 -0.4200  0.1188
    1SOL    HW2 2270   2.051   1.657   0.683  0.2048 -0.3067  0.3483
    1SOL    HW3 2271   1.975   1.605   0.804 -0.0549 -0.4939  0.1051
    1SOL    MW4 2272   1.991   1.604   0.718  0.1829 -0.4148  0.1472
    1SOL     OW 2273   2.572   0.497   0.592 -0.0965  0.4260  0.0340
    1SOL    HW2 2274   2.613   0.441   0.658 -0.4474  1.3523  1.0473
    1SOL    HW3 2275   2.597   0.586   0.618 -0.9828  0.8534 -0.5771
    1SOL    MW4 2276   2.581   0.502   0.604 -0.2601  0.6046  0.0870
    1SOL     OW 2277   1.347   4.518   0.226  0.0774  0.0099  0.1154
    1SOL    HW2 2278   1.412   4.586   0.212 -1.1320  1.1753  0.0021
    1SOL    HW3 2279   1.396   4.436   0.222  1.8001  0.9092  1.6324
    1SOL    MW4 2280   1.362   4.516   0.224  0.1452  0.2823  0.3006
    1SOL     OW 2281   1.038   1.910   2.318 -0.1248  0.0807  0.2070
    1SOL    HW2 2282   1.030   1.816   2.330 -0.2248  0.1944  1.0620
    1SOL    HW3 2283   1.131   1.925   2.305  0.1479  0.0834  2.0723
    1SOL    MW4 2284   1.049   1.900   2.318 -0.1019  0.0960  0.5660
    1SOL     OW 2285   0.840   2.075   1.477  0.4200 -0.4422 -0.3840
    1SOL    HW2 2286   0.763   2.041   1.430  0.3568 -1.7461  0.6369
    1SOL    HW3 2287   0.891   1.997   1.498  0.1872  0.0818  2.1886
    1SOL    MW4 2288   0.836   2.060   1.473  0.3809 -0.5450  0.0902
    1SOL     OW 2289   0.885   0.914   1.842  0.1071 -0.0722 -0.4697
    1SOL    HW2 2290   0.919   0.998   1.812  0.1902 -0.2067 -0.7506
    1SOL    HW3 2291   0.853   0.871   1.763 -0.1517 -0.2064 -0.2934
    1SOL    MW4 2292   0.885   0.920   1.828  0.0839 -0.1076 -0.4835
    1SOL     OW 2293   0.545   2.044   1.023  0.0371 -0.1159  0.1966
    1SOL    HW2 2294   0.547   2.090   1.107 -0.1786 -0.7304  0.5378
    1SOL    HW3 2295   0.454   2.047   0.996  0.2849  1.0314 -0.5466
    1SOL    MW4 2296   0.534   2.050   1.030  0.0414 -0.0455  0.1434
    1SOL     OW 2297   1.318   1.811   3.469  0.1961 -0.2857  0.1630
    1SOL    HW2 2298   1.401   1.801   3.422  0.5671  1.0459  0.5081
    1SOL    HW3 2299   1.282   1.893   3.437 -0.6493 -0.5091  0.5370
    1SOL    MW4 2300   1.324   1.820   3.459  0.1335 -0.1394  0.2580
    1SOL     OW 2301   1.143   3.078   1.277 -0.1629  0.1907  0.2339
    1SOL    HW2 2302   1.112   3.007   1.221 -1.5876  0.5689  0.4967
    1SOL    HW3 2303   1.138   3.042   1.366  1.2720 -0.1248  0.1959
    1SOL    MW4 2304   1.138   3.064   1.282 -0.1616  0.1988  0.2635
    1SOL     OW 2305   4.002   1.699   0.404 -0.0177  0.0316  0.1869
    1SOL    HW2 2306   4.034   1.644   0.333 -0.5367  0.3514 -0.2990
    1SOL    HW3 2307   4.038   1.786   0.386 -1.7627  0.5776 -0.7941
    1SOL    MW4 2308   4.011   1.703   0.392 -0.3161  0.1457 -0.0067
    1SOL     OW 2309   1.480   4.057   2.034  0.1892 -0.0163  0.2956
    1SOL    HW2 2310   1.512   4.147   2.025  1.5303 -0.6029 -1.0891
    1SOL    HW3 2311   1.405   4.053   1.975  1.1656 -0.2514 -0.9677
    1SOL    MW4 2312   1.475   4.068   2.025  0.4951 -0.1249 -0.0539
    1SOL     OW 2313   3.590   3.145   0.927  0.2246  0.1220  0.1797
    1SOL    HW2 2314   3.504   3.152   0.886  0.2456 -0.2533  0.0657
    1SOL    HW3 2315   3.632   3.229   0.911 -0.9850  1.1606  2.2226
    1SOL    MW4 2316   3.584   3.157   0.920  0.0677  0.2098  0.4343
    1SOL     OW 2317   1.708   2.594   3.135 -0.5093 -0.1690  0.0564
    1SOL    HW2 2318   1.747   2.520   3.090 -2.2080 -0.7111 -0.5474
    1SOL    HW3 2319   1.783   2.640   3.174  0.4518 -3.0092  1.7321
    1SOL    MW4 2320   1.723   2.591   3.134 -0.6067 -0.6154  0.1979
    1SOL     OW 2321   1.476   3.586   1.679  0.4800 -0.1793 -0.0435
    1SOL    HW2 2322   1.441   3.585   1.768  0.7361 -1.5039  0.0598
    1SOL    HW3 2323   1.466   3.677   1.650 -0.6795  0.0163  0.9071
    1SOL    MW4 2324   1.470   3.598   1.687  0.3608 -0.3281  0.0957
    1SOL     OW 2325   0.556   2.742   0.954 -0.0265 -0.0141  0.5310
    1SOL    HW2 2326   0.482   2.685   0.977 -0.3522  0.4503  0.6305
    1SOL    HW3 2327   0.517   2.808   0.896  0.3505  0.1186  0.4331
    1SOL    MW4 2328   0.541   2.743   0.949 -0.0197  0.0648  0.5312
    1SOL     OW 2329   0.704   3.227   1.479 -0.3720  0.5476  0.2570
    1SOL    HW2 2330   0.630   3.286   1.492 -0.3556  0.9709 -1.4706
    1SOL    HW3 2331   0.764   3.275   1.422  0.0483 -0.7912 -0.4551
    1SOL    MW4 2332   0.702   3.241   1.473 -0.3144  0.4270 -0.0648
    1SOL     OW 2333   0.659   2.334   1.109 -0.4109  0.0860 -0.1879
    1SOL    HW2 2334   0.653   2.395   1.183  2.0671  0.9677 -0.6546
    1SOL    HW3 2335   0.591   2.364   1.048 -2.9106 -1.0610  1.9720
    1SOL    MW4 2336   0.649   2.346   1.111 -0.4138  0.0510  0.0354
    1SOL     OW 2337   2.335   4.092   0.180 -0.1789  0.1280 -0.0145
    1SOL    HW2 2338   2.317   4.185   0.169 -0.2077  0.1512  0.2299
    1SOL    HW3 2339   2.418   4.089   0.226 -0.6969  0.0447  0.9272
    1SOL    MW4 2340   2.343   4.104   0.184 -0.2513  0.1197  0.1420
    1SOL     OW 2341   4.471   3.169   1.039 -0.0874  0.0126  0.1970
    1SOL    HW2 2342   4.515   3.157   0.954 -0.2153 -0.5772  0.2113
    1SOL    HW3 2343   4.408   3.097   1.043 -0.5344  0.4232  0.5099
    1SOL    MW4 2344   4.469   3.158   1.028 -0.1636 -0.0107  0.2402
    1SOL     OW 2345   1.915   0.589   1.456 -0.2535 -0.1747 -0.0612
    1SOL    HW2 2346   1.966   0.607   1.378 -0.2788  1.2287  0.2387
    1SOL    HW3 2347   1.828   0.564   1.423  0.3758 -1.8020 -0.5391
    1SOL    MW4 2348   1.910   0.588   1.442 -0.1739 -0.2043 -0.0846
    1SOL     OW 2349   2.891   2.603   2.007  0.0994 -0.1485 -0.3293
    1SOL    HW2 2350   2.805   2.633   1.978  0.8585  0.1289 -2.3756
    1SOL    HW3 2351   2.925   2.674   2.062  0.1257  0.9215 -1.7065
    1SOL    MW4 2352   2.884   2.616   2.011  0.2034  0.0291 -0.7808
    1SOL     OW 2353   3.297   1.567   0.643  0.1405  0.2638 -0.1408
    1SOL    HW2 2354   3.339   1.643   0.684  0.4538 -0.0807  0.1762
    1SOL    HW3 2355   3.215   1.601   0.608  0.6586  0.9342 -0.7189
    1SOL    MW4 2356   3.291   1.582   0.644  0.2501  0.3067 -0.1752
    1SOL     OW 2357   4.102   0.388   1.186  0.1258  0.6527 -0.0260
    1SOL    HW2 2358   4.172   0.323   1.193 -0.0635  0.4461 -0.0330
    1SOL    HW3 2359   4.065   0.393   1.274 -0.4496  0.0863 -0.2277
    1SOL    MW4 2360   4.106   0.380   1.198  0.0248  0.5507 -0.0535
    1SOL     OW 2361   1.126   1.222   0.916  0.3645 -0.0724  0.6048
    1SOL    HW2 2362   1.079   1.301   0.940 -0.4010 -0.6507  1.0248
    1SOL    HW3 2363   1.064   1.151   0.932  1.3097 -0.8228  0.9677
    1SOL    MW4 2364   1.112   1.223   0.921  0.3881 -0.2477  0.7080
    1SOL     OW 2365   1.724   4.217   0.891  0.1755 -0.4479 -0.2570
    1SOL    HW2 2366   1.790   4.147   0.888  0.0581 -0.5514 -0.4179
    1SOL    HW3 2367   1.643   4.173   0.916  0.2707 -0.2415  0.4342
    1SOL    MW4 2368   1.722   4.202   0.894  0.1726 -0.4339 -0.1870
    1SOL     OW 2369   2.509   2.714   1.148 -0.0350  0.1834  0.1980
    1SOL    HW2 2370   2.451   2.788   1.168  0.8852  0.7403  0.8659
    1SOL    HW3 2371   2.465   2.638   1.186 -0.6396  0.4913  0.1303
    1SOL    MW4 2372   2.496   2.714   1.155  0.0064  0.2978  0.2772
    1SOL     OW 2373   1.946   1.663   1.548 -0.1808  0.4288 -0.1232
    1SOL    HW2 2374   1.932   1.757   1.561  1.6862  0.6117  0.7163
    1SOL    HW3 2375   1.915   1.623   1.629  1.0267  0.5489  0.4223
    1SOL    MW4 2376   1.940   1.670   1.560  0.2247  0.4687  0.0595
    1SOL     OW 2377   2.111   1.766   1.103 -0.0366  0.1268 -0.0902
    1SOL    HW2 2378   2.121   1.847   1.154  0.0201  0.1883 -0.1977
    1SOL    HW3 2379   2.155   1.699   1.155  1.2007  0.4495 -0.6930
    1SOL    MW4 2380   2.118   1.768   1.117  0.1340  0.1775 -0.1839
    1SOL     OW 2381   3.193   2.840   1.252 -0.5718  0.3080 -0.0229
    1SOL    HW2 2382   3.147   2.842   1.336  0.0465  1.6255  0.2992
    1SOL    HW3 2383   3.283   2.864   1.274 -0.6597  1.8099 -1.2186
    1SOL    MW4 2384   3.199   2.843   1.266 -0.5019  0.6797 -0.1382
    1SOL     OW 2385   1.581   2.644   0.657 -0.6892 -0.3315  0.3300
    1SOL    HW2 2386   1.523   2.593   0.713 -0.9401 -1.0588 -0.5925
    1SOL    HW3 2387   1.663   2.648   0.706 -1.0884 -0.4558  1.0196
    1SOL    MW4 2388   1.584   2.638   0.671 -0.7751 -0.4439  0.2992
    1SOL     OW 2389   0.831   2.789   0.944 -0.6287  0.0234 -0.3894
    1SOL    HW2 2390   0.739   2.765   0.929 -0.2674 -1.6506 -0.0068
    1SOL    HW3 2391   0.866   2.805   0.856 -1.1676  0.1923 -0.5739
    1SOL    MW4 2392   0.823   2.788   0.930 -0.6521 -0.1750 -0.3632
    1SOL     OW 2393   1.318   2.215   0.564  0.1076  0.0234  0.2226
    1SOL    HW2 2394   1.226   2.201   0.544  0.3536 -0.9073 -0.2576
    1SOL    HW3 2395   1.344   2.139   0.615  0.8864 -0.2240 -0.5439
    1SOL    MW4 2396   1.310   2.203   0.568  0.2428 -0.1321  0.0581
    1SOL     OW 2397   2.101   1.871   0.637 -0.2389  0.2059  0.0044
    1SOL    HW2 2398   2.107   1.967   0.629 -1.7369  0.4032  0.8512
    1SOL    HW3 2399   2.159   1.850   0.711 -2.4135  0.8950  1.9861
    1SOL    MW4 2400   2.109   1.881   0.646 -0.7234  0.3228  0.3776
    1SOL     OW 2401   1.618   1.567   2.904  0.3231 -0.1489 -0.2071
    1SOL    HW2 2402   1.544   1.547   2.962  0.5680 -0.7424 -0.1047
    1SOL    HW3 2403   1.693   1.575   2.963  0.5039 -0.3901 -0.4081
    1SOL    MW4 2404   1.618   1.565   2.920  0.3792 -0.2590 -0.2203
    1SOL     OW 2405   1.681   3.142   0.144 -0.1418  0.2113  0.0114
    1SOL    HW2 2406   1.743   3.210   0.171  0.3846 -0.1299 -0.3193
    1SOL    HW3 2407   1.693   3.136   0.049 -1.5688  1.0023 -0.2305
    1SOL    MW4 2408   1.691   3.150   0.135 -0.2608  0.2704 -0.0641
    1SOL     OW 2409   0.255   3.849   0.448 -0.4179 -0.1711 -0.0888
    1SOL    HW2 2410   0.266   3.936   0.411  2.3632  0.0922  1.2472
    1SOL    HW3 2411   0.219   3.864   0.535 -0.8763 -0.4216 -0.2341
    1SOL    MW4 2412   0.252   3.862   0.455 -0.1115 -0.1695  0.0683
    1SOL     OW 2413   2.525   0.703   1.674 -0.0740 -0.5779 -0.0889
    1SOL    HW2 2414   2.589   0.636   1.698  0.2185 -0.3160 -0.1274
    1SOL    HW3 2415   2.548   0.778   1.729  0.8758  0.1803 -1.4889
    1SOL    MW4 2416   2.536   0.704   1.685  0.0901 -0.4433 -0.2786
    1SOL     OW 2417   2.569   3.577   1.211 -0.0342  0.6461  0.0674
    1SOL    HW2 2418   2.494   3.633   1.191  0.8187  1.6783 -0.2625
    1SOL    HW3 2419   2.635   3.602   1.147 -0.0417 -1.5816 -0.8608
    1SOL    MW4 2420   2.568   3.587   1.200  0.0775  0.4885 -0.0986
    1SOL     OW 2421   2.924   2.792   0.583  0.1984  0.1764  0.3867
    1SOL    HW2 2422   2.850   2.808   0.524  1.2484 -1.4349 -1.4183
    1SOL    HW3 2423   2.891   2.815   0.670 -1.4734  2.2740 -0.7836
    1SOL    MW4 2424   2.910   2.797   0.587  0.1163  0.2406 -0.0058
    1SOL     OW 2425   2.134   0.980   1.682  0.2727  0.1139 -0.2431
    1SOL    HW2 2426   2.184   0.902   1.704 -2.3470 -1.4019  0.5420
    1SOL    HW3 2427   2.113   1.021   1.766 -1.2889 -0.2330 -0.4531
    1SOL    MW4 2428   2.138   0.975   1.696 -0.2789 -0.1319 -0.1671
    1SOL     OW 2429   3.284   4.364   1.774  0.1767 -0.1438  0.1654
    1SOL    HW2 2430   3.345   4.435   1.793 -2.6732  2.2681  0.7488
    1SOL    HW3 2431   3.277   4.363   1.678  2.8088 -1.9943 -0.0623
    1SOL    MW4 2432   3.291   4.374   1.764  0.1476 -0.0701  0.2122
    1SOL     OW 2433   2.062   4.649   1.278  0.2095  0.3338  0.1314
    1SOL    HW2 2434   2.065   4.579   1.213  2.0609  0.7675 -0.2853
    1SOL    HW3 2435   2.010   4.613   1.350 -0.5221 -0.7246 -0.9132
    1SOL    MW4 2436   2.055   4.635   1.279  0.3574  0.2513 -0.0613
    1SOL     OW 2437   2.727   3.827   0.344  0.6622  0.3048 -0.3023
    1SOL    HW2 2438   2.633   3.823   0.362  0.5057  1.5350 -0.7860
    1SOL    HW3 2439   2.746   3.745   0.298 -0.1974  0.0946 -0.2862
    1SOL    MW4 2440   2.717   3.816   0.340  0.5283  0.4394 -0.3640
    1SOL     OW 2441   2.117   3.970   0.690  0.0792  0.1107  0.0895
    1SOL    HW2 2442   2.067   3.996   0.767  0.6426 -0.7787  0.7593
    1SOL    HW3 2443   2.053   3.974   0.618 -0.7531 -0.2170  0.7983
    1SOL    MW4 2444   2.102   3.974   0.691  0.0436 -0.0496  0.2713
    1SOL     OW 2445   0.149   0.183   0.455  0.5555 -0.7206  0.1301
    1SOL    HW2 2446   0.129   0.242   0.383  0.5565 -0.8838 -0.0052
    1SOL    HW3 2447   0.146   0.238   0.533 -0.6545 -0.7957  0.1446
    1SOL    MW4 2448   0.146   0.198   0.456  0.3960 -0.7520  0.1141
    1SOL     OW 2449   2.106   1.463   1.902  0.1254  0.3434  0.0598
    1SOL    HW2 2450   2.056   1.389   1.936 -0.4985  0.3603 -0.8100
    1SOL    HW3 2451   2.119   1.520   1.978  0.8241 -0.7772  0.7785
    1SOL    MW4 2452   2.101   1.461   1.917  0.1352  0.1979  0.0398
    1SOL     OW 2453   2.567   4.597   0.492 -0.3618  0.0888 -0.1374
    1SOL    HW2 2454   2.499   4.654   0.529 -1.7951 -0.1766 -2.2496
    1SOL    HW3 2455   2.545   4.510   0.524 -0.3039  0.1812  0.1549
    1SOL    MW4 2456   2.555   4.593   0.501 -0.5431  0.0658 -0.3775
    1SOL     OW 2457   2.640   4.599   0.235 -0.6898 -0.2441 -0.0332
    1SOL    HW2 2458   2.678   4.686   0.227 -0.1356 -0.3673  1.1350
    1SOL    HW3 2459   2.614   4.592   0.327 -0.1187 -1.5389  0.0544
    1SOL    MW4 2460   2.642   4.609   0.246 -0.5412 -0.4311  0.1325
    1SOL     OW 2461   3.817   1.368   1.193 -0.0472 -0.0430 -0.0470
    1SOL    HW2 2462   3.789   1.430   1.126  1.0784  0.5210  0.0060
    1SOL    HW3 2463   3.847   1.422   1.265 -0.2261 -0.6511  0.4939
    1SOL    MW4 2464   3.817   1.383   1.194  0.0777 -0.0488  0.0312
    1SOL     OW 2465   3.631   0.068   0.830 -0.4884  0.0796 -0.0123
    1SOL    HW2 2466   3.673   0.004   0.889 -1.1087 -0.1042  0.2278
    1SOL    HW3 2467   3.615   0.144   0.886 -2.0770 -0.4961  0.3374
    1SOL    MW4 2468   3.635   0.069   0.845 -0.7799 -0.0206  0.0655
    1SOL     OW 2469   2.962   1.380   0.908  0.2746 -0.1020  0.1286
    1SOL    HW2 2470   2.934   1.428   0.985  0.5004 -0.5295  0.4801
    1SOL    HW3 2471   2.915   1.421   0.835  0.1832  0.4036  0.4704
    1SOL    MW4 2472   2.952   1.392   0.908  0.2923 -0.0917  0.2201
    1SOL     OW 2473   1.586   1.949   2.311  0.1806 -0.1243  0.1253
    1SOL    HW2 2474   1.607   2.020   2.250 -0.3564 -0.0161  0.0623
    1SOL    HW3 2475   1.562   1.994   2.392 -1.2455 -0.1872 -0.2466
    1SOL    MW4 2476   1.585   1.964   2.314 -0.0784 -0.1181  0.0679
    1SOL     OW 2477   1.270   1.122   1.136 -0.0890 -0.0048  0.2363
    1SOL    HW2 2478   1.354   1.077   1.132  0.1306  0.5249 -1.2525
    1SOL    HW3 2479   1.239   1.124   1.045 -1.8401 -0.4419  0.7921
    1SOL    MW4 2480   1.277   1.116   1.123 -0.2911  0.0075  0.1131
    1SOL     OW 2481   2.980   1.286   9.142  0.2540 -0.0578  0.1192
    1SOL    HW2 2482   2.946   1.202   9.175 -3.6526  1.0052 -0.9047
    1SOL    HW3 2483   3.011   1.265   9.054 -1.2607 -0.3764 -0.3670
    1SOL    MW4 2484   2.979   1.272   9.135 -0.4616  0.0403 -0.0811
    1SOL     OW 2485   2.191   1.741   1.438 -0.1706  0.1951 -0.2638
    1SOL    HW2 2486   2.237   1.787   1.508  0.2131  0.2381 -0.5426
    1SOL    HW3 2487   2.116   1.701   1.481  0.0968  0.1702  0.1839
    1SOL    MW4 2488   2.187   1.742   1.453 -0.0846  0.1974 -0.2415
    1SOL     OW 2489   1.555   1.988   2.606 -0.1252  0.2117  0.2496
    1SOL    HW2 2490   1.618   1.921   2.634 -1.2718 -0.2153  1.9023
    1SOL    HW3 2491   1.595   2.071   2.634 -0.4897 -0.0904  1.7060
    1SOL    MW4 2492   1.569   1.990   2.613 -0.3245  0.1155  0.6597
    1SOL     OW 2493   1.747   0.965   1.051  0.0362 -0.1369 -0.0240
    1SOL    HW2 2494   1.759   1.054   1.018 -0.3052  0.1313  0.5728
    1SOL    HW3 2495   1.818   0.953   1.114  1.3948 -1.0661 -1.7098
    1SOL    MW4 2496   1.758   0.975   1.055  0.1704 -0.2241 -0.1677
    1SOL     OW 2497   3.509   3.166   1.200 -0.8148 -0.2582 -0.1141
    1SOL    HW2 2498   3.543   3.146   1.113  0.2620  0.9404  0.0159
    1SOL    HW3 2499   3.439   3.229   1.185 -1.2046 -0.6970 -0.1671
    1SOL    MW4 2500   3.504   3.171   1.187 -0.7241 -0.1581 -0.1041
    1SOL     OW 2501   2.141   2.725   0.476  0.0946  0.3394 -0.2027
    1SOL    HW2 2502   2.091   2.695   0.401 -0.0594  2.0205 -0.8073
    1SOL    HW3 2503   2.094   2.692   0.552 -0.5782 -0.1221 -0.8154
    1SOL    MW4 2504   2.128   2.717   0.476 -0.0145  0.5002 -0.3633
    1SOL     OW 2505   1.109   4.518   0.648 -0.0126  0.1328 -0.0674
    1SOL    HW2 2506   1.070   4.458   0.712  1.6954 -0.6667  0.2340
    1SOL    HW3 2507   1.178   4.564   0.696 -0.8584  1.8784 -0.4802
    1SOL    MW4 2508   1.113   4.516   0.663  0.1012  0.2575 -0.0821
    1SOL     OW 2509   3.743   3.618   1.327  0.1779 -0.0082 -0.0674
    1SOL    HW2 2510   3.793   3.537   1.340  0.0418 -0.1741 -0.5899
    1SOL    HW3 2511   3.805   3.677   1.284  0.4988  0.4050  0.9465
    1SOL    MW4 2512   3.758   3.615   1.323  0.2024  0.0246 -0.0025
    1SOL     OW 2513   3.661   3.202   1.433  0.0016  0.5165  0.0668
    1SOL    HW2 2514   3.607   3.187   1.355  0.1026  0.3751  0.0220
    1SOL    HW3 2515   3.731   3.259   1.403  0.7720 -0.5894 -0.2669
    1SOL    MW4 2516   3.663   3.207   1.418  0.1166  0.3521  0.0168
    1SOL     OW 2517   2.169   0.077   2.329 -0.0523  0.1738  0.6070
    1SOL    HW2 2518   2.172   0.162   2.373  1.3717  0.2320  0.4131
    1SOL    HW3 2519   2.190   0.096   2.238 -1.6173 -0.1395  0.1720
    1SOL    MW4 2520   2.172   0.090   2.323 -0.0710  0.1401  0.5240
    1SOL     OW 2521   1.209   2.778   0.834  0.0154 -0.1734 -0.2177
    1SOL    HW2 2522   1.157   2.859   0.831 -0.6619 -0.5640  0.7881
    1SOL    HW3 2523   1.292   2.805   0.873 -0.9488 -0.3314  2.0437
    1SOL    MW4 2524   1.213   2.792   0.839 -0.2013 -0.2460  0.2133
    1SOL     OW 2525   2.384   3.227   1.419 -0.4109 -0.1446 -0.2692
    1SOL    HW2 2526   2.302   3.225   1.370 -0.1603 -0.7917 -0.6863
    1SOL    HW3 2527   2.402   3.135   1.439  0.1902 -0.0073 -0.1508
    1SOL    MW4 2528   2.376   3.214   1.415 -0.2985 -0.2117 -0.3086
    1SOL     OW 2529   2.327   0.789   1.278  0.4902  0.0515 -0.2148
    1SOL    HW2 2530   2.398   0.763   1.337  1.2138  0.4642 -0.8953
    1SOL    HW3 2531   2.345   0.881   1.260  0.0752  0.0149 -0.8062
    1SOL    MW4 2532   2.339   0.798   1.284  0.5310  0.1011 -0.3825
    1SOL     OW 2533   1.918   0.826   1.609 -0.5420 -0.2193  0.3380
    1SOL    HW2 2534   1.946   0.751   1.556  0.0530 -0.7971  1.4320
    1SOL    HW3 2535   1.999   0.861   1.645 -0.7855  1.1923 -0.4528
    1SOL    MW4 2536   1.933   0.821   1.607 -0.4954 -0.1093  0.3781
    1SOL     OW 2537   0.458   1.662   1.279  0.0931 -0.4335 -0.0551
    1SOL    HW2 2538   0.446   1.569   1.259 -0.6845  0.0270 -1.8186
    1SOL    HW3 2539   0.507   1.696   1.204 -0.1500  0.6999  0.2939
    1SOL    MW4 2540   0.463   1.654   1.267 -0.0415 -0.2233 -0.2418
    1SOL     OW 2541   2.458   0.074   1.902  0.3113  0.0346  0.0756
    1SOL    HW2 2542   2.498   0.020   1.970  0.5891  0.4202  0.2176
    1SOL    HW3 2543   2.438   0.012   1.831  0.1316 -0.3463  0.4564
    1SOL    MW4 2544   2.461   0.059   1.902  0.3240  0.0353  0.1446
    1SOL     OW 2545   2.841   0.942   1.347 -0.7256 -0.4747  0.5263
    1SOL    HW2 2546   2.835   0.870   1.283 -0.2225 -1.5369  1.6497
    1SOL    HW3 2547   2.751   0.957   1.374 -0.8493 -0.6076  0.1968
    1SOL    MW4 2548   2.829   0.934   1.342 -0.6754 -0.6323  0.6312
    1SOL     OW 2549   4.105   3.064   1.125  0.6115 -0.3071 -0.5239
    1SOL    HW2 2550   4.043   3.010   1.174  2.0275 -1.2476  0.2853
    1SOL    HW3 2551   4.055   3.098   1.051 -0.8584 -1.0427  0.1178
    1SOL    MW4 2552   4.090   3.061   1.122  0.6042 -0.5281 -0.3324
    1SOL     OW 2553   1.072   0.720   0.678 -0.0472  0.0440 -0.1509
    1SOL    HW2 2554   1.115   0.661   0.616 -0.7202 -1.1178  0.4786
    1SOL    HW3 2555   0.979   0.703   0.667 -0.1602 -0.3938  1.4028
    1SOL    MW4 2556   1.066   0.710   0.668 -0.1510 -0.1671  0.1372
    1SOL     OW 2557   2.295   2.578   1.350 -0.3043  0.3352  0.2483
    1SOL    HW2 2558   2.327   2.506   1.405  0.4495  0.6983  0.2952
    1SOL    HW3 2559   2.262   2.643   1.413 -1.5170 -0.2128  0.1851
    1SOL    MW4 2560   2.295   2.577   1.366 -0.3650  0.3109  0.2462
    1SOL     OW 2561   2.442   3.340   1.663 -0.3830 -0.3288  0.2332
    1SOL    HW2 2562   2.428   3.308   1.574 -0.2083 -0.3128  0.2001
    1SOL    HW3 2563   2.497   3.417   1.653 -0.9973  0.1188  0.2981
    1SOL    MW4 2564   2.448   3.346   1.650 -0.4408 -0.2675  0.2373
    1SOL     OW 2565   3.222   3.790   0.784  0.2891  0.0220 -0.0531
    1SOL    HW2 2566   3.210   3.815   0.693  1.7168  1.2493  0.0731
    1SOL    HW3 2567   3.247   3.697   0.781  1.8297  0.4508 -1.0240
    1SOL    MW4 2568   3.223   3.781   0.772  0.6807  0.2408 -0.1646
    1SOL     OW 2569   4.352   0.551   2.616 -0.1490  0.6465 -0.2102
    1SOL    HW2 2570   4.283   0.611   2.588 -0.0084  0.6568 -0.5453
    1SOL    HW3 2571   4.399   0.599   2.684 -0.4636  0.6427  0.0137
    1SOL    MW4 2572   4.349   0.565   2.621 -0.1721  0.6474 -0.2251
    1SOL     OW 2573   2.456   3.766   1.563  0.1400  0.2874 -0.3132
    1SOL    HW2 2574   2.438   3.836   1.625 -1.3326  0.7937 -1.2982
    1SOL    HW3 2575   2.370   3.736   1.535  0.7568 -1.5566 -0.3226
    1SOL    MW4 2576   2.442   3.771   1.568  0.0269  0.1111 -0.4444
    1SOL     OW 2577   2.358   2.930   1.195  0.1157  0.4317  0.0457
    1SOL    HW2 2578   2.371   3.002   1.133 -1.4550  0.8191  0.1618
    1SOL    HW3 2579   2.274   2.892   1.171  1.5277 -2.2432 -0.8613
    1SOL    MW4 2580   2.349   2.935   1.184  0.0949  0.1299 -0.0587
    1SOL     OW 2581   1.519   1.233   0.806 -0.2029  0.5974 -0.1184
    1SOL    HW2 2582   1.501   1.138   0.805  0.1061  0.5421 -0.3874
    1SOL    HW3 2583   1.608   1.241   0.771 -0.1980  0.9828 -0.0175
    1SOL    MW4 2584   1.528   1.221   0.802 -0.1615  0.6410 -0.1406
    1SOL     OW 2585   2.163   0.339   1.011 -0.2716 -0.1977  0.2293
    1SOL    HW2 2586   2.088   0.288   1.041 -0.3059 -1.2175 -1.4707
    1SOL    HW3 2587   2.127   0.425   0.991 -1.0780 -0.7391 -0.7737
    1SOL    MW4 2588   2.149   0.343   1.012 -0.3824 -0.4037 -0.1272
    1SOL     OW 2589   4.054   1.788   1.389  0.1707  0.2740  0.0973
    1SOL    HW2 2590   4.130   1.785   1.330  0.0022  0.8955 -0.1468
    1SOL    HW3 2591   4.025   1.697   1.394  0.3794  0.1655 -0.5292
    1SOL    MW4 2592   4.061   1.776   1.382  0.1760  0.3417 -0.0178
    1SOL     OW 2593   3.754   3.132   0.626  0.0739 -0.1035 -0.1282
    1SOL    HW2 2594   3.680   3.089   0.584 -0.5194  1.5449 -0.8129
    1SOL    HW3 2595   3.750   3.103   0.717 -1.5671  0.1553 -0.1008
    1SOL    MW4 2596   3.744   3.123   0.632 -0.2208  0.1481 -0.2149
    1SOL     OW 2597   2.928   3.140   0.631  0.3689 -0.0912 -0.5538
    1SOL    HW2 2598   2.999   3.084   0.664 -0.4050  0.1762  1.5849
    1SOL    HW3 2599   2.965   3.228   0.632 -0.1908  0.1421  1.2122
    1SOL    MW4 2600   2.942   3.144   0.635  0.1929 -0.0250 -0.0386
    1SOL     OW 2601   0.301   0.750   1.186 -0.4716  0.2787  0.3753
    1SOL    HW2 2602   0.323   0.761   1.094  1.2289 -1.0103  0.6084
    1SOL    HW3 2603   0.332   0.831   1.228 -0.8915  0.6937 -0.1117
    1SOL    MW4 2604   0.308   0.763   1.180 -0.3026  0.1633  0.3419
    1SOL     OW 2605   2.219   3.675   1.430 -0.2325 -0.0213 -0.1251
    1SOL    HW2 2606   2.192   3.586   1.452  0.2285 -0.6624 -2.0655
    1SOL    HW3 2607   2.141   3.714   1.390 -0.1311  0.1332 -0.1735
    1SOL    MW4 2608   2.205   3.669   1.428 -0.1583 -0.0851 -0.3874
    1SOL     OW 2609   4.226   4.345   1.439 -0.0452 -0.0826 -0.1400
    1SOL    HW2 2610   4.148   4.341   1.493 -0.0234  0.8481 -0.0280
    1SOL    HW3 2611   4.299   4.335   1.501 -0.0384  0.2920 -0.0889
    1SOL    MW4 2612   4.225   4.343   1.454 -0.0410  0.0901 -0.1185
    1SOL     OW 2613   1.453   0.160   1.325 -0.5306 -0.0492  0.0235
    1SOL    HW2 2614   1.547   0.156   1.305 -0.4947 -0.5989  0.2840
    1SOL    HW3 2615   1.445   0.236   1.383 -0.0315 -0.8115  1.1082
    1SOL    MW4 2616   1.465   0.169   1.330 -0.4601 -0.2223  0.2011
    1SOL     OW 2617   3.098   2.750   1.780  0.0242  0.0996  0.1204
    1SOL    HW2 2618   3.059   2.662   1.783 -0.9961  0.5347 -0.0820
    1SOL    HW3 2619   3.172   2.746   1.840 -0.0758 -0.8715  0.1864
    1SOL    MW4 2620   3.103   2.737   1.788 -0.1237  0.0286  0.1024
    1SOL     OW 2621   0.514   3.960   1.408  0.1390 -0.3783  0.1950
    1SOL    HW2 2622   0.472   3.962   1.494  1.7056 -1.3374  1.0292
    1SOL    HW3 2623   0.487   3.876   1.370 -1.5928  0.6145 -0.8226
    1SOL    MW4 2624   0.505   3.949   1.414  0.1172 -0.3738  0.1708
    1SOL     OW 2625   3.808   2.192   0.898 -0.4926  0.1099  0.2232
    1SOL    HW2 2626   3.900   2.176   0.917 -0.2514  0.8516 -0.2579
    1SOL    HW3 2627   3.761   2.118   0.936  0.2771 -0.1176  0.7235
    1SOL    MW4 2628   3.814   2.180   0.905 -0.3593  0.1779  0.2257
    1SOL     OW 2629   3.420   4.661   1.508  0.0918 -0.4984  0.1020
    1SOL    HW2 2630   3.412   4.570   1.479 -1.1213 -0.6267  0.8215
    1SOL    HW3 2631   3.354   4.708   1.457  0.4051 -0.0938  0.0634
    1SOL    MW4 2632   3.410   4.655   1.497 -0.0272 -0.4619  0.1918
    1SOL     OW 2633   0.264   4.106   1.150  0.5250 -0.2141  0.1020
    1SOL    HW2 2634   0.301   4.141   1.231 -1.0017  0.3901  0.5498
    1SOL    HW3 2635   0.292   4.015   1.149  1.7712  0.1450  0.5717
    1SOL    MW4 2636   0.273   4.099   1.160  0.4880 -0.0868  0.2229
    1SOL     OW 2637   3.161   2.114   1.694 -0.3893 -0.1453 -0.3014
    1SOL    HW2 2638   3.137   2.203   1.666 -0.9243 -0.3412 -0.4878
    1SOL    HW3 2639   3.255   2.118   1.709 -0.7575  1.0537  1.9296
    1SOL    MW4 2640   3.170   2.126   1.692 -0.5085 -0.0131 -0.0317
    1SOL     OW 2641   1.495   4.210   0.531 -0.0492  0.0171  0.0131
    1SOL    HW2 2642   1.419   4.266   0.546  0.4469  1.0112 -1.0349
    1SOL    HW3 2643   1.479   4.132   0.583 -1.0695  0.8660  0.9918
    1SOL    MW4 2644   1.483   4.207   0.540 -0.1183  0.2599  0.0040
    1SOL     OW 2645   2.507   0.959   0.844  0.7422 -0.0429  0.0069
    1SOL    HW2 2646   2.416   0.931   0.843  0.4306  0.9743 -0.6900
    1SOL    HW3 2647   2.533   0.953   0.936 -0.3424  0.6807  0.3594
    1SOL    MW4 2648   2.499   0.954   0.856  0.5581  0.1867 -0.0386
    1SOL     OW 2649   4.025   1.913   0.765 -0.4561  0.3318  0.1566
    1SOL    HW2 2650   4.049   2.000   0.797  0.1924  0.6303 -1.1107
    1SOL    HW3 2651   3.967   1.929   0.691 -0.0365 -0.2998 -0.3175
    1SOL    MW4 2652   4.020   1.927   0.760 -0.3157  0.2879 -0.0732
    1SOL     OW 2653   3.611   0.866   1.000 -0.4117 -0.0121 -0.4991
    1SOL    HW2 2654   3.694   0.900   0.967 -0.9464  2.0224  0.1777
    1SOL    HW3 2655   3.565   0.943   1.034 -2.4593 -1.1453 -0.6082
    1SOL    MW4 2656   3.615   0.881   1.001 -0.7524  0.1069 -0.4241
    1SOL     OW 2657   3.092   0.640   0.762 -0.1978 -0.3400  0.0525
    1SOL    HW2 2658   3.175   0.680   0.734 -0.2044 -0.7406 -0.5702
    1SOL    HW3 2659   3.090   0.652   0.856  1.3480 -1.7180  0.2937
    1SOL    MW4 2660   3.103   0.647   0.770  0.0050 -0.5746  0.0021
    1SOL     OW 2661   3.980   0.915   1.270 -0.8549  0.1517 -0.4577
    1SOL    HW2 2662   4.058   0.908   1.325 -1.4769 -0.0216  0.3990
    1SOL    HW3 2663   4.000   0.860   1.194 -0.1810  0.0224 -0.1915
    1SOL    MW4 2664   3.993   0.906   1.267 -0.8481  0.1118 -0.3096
    1SOL     OW 2665   3.502   0.386   2.240  0.1139 -0.5968  0.2615
    1SOL    HW2 2666   3.582   0.338   2.264  1.4912  1.4734 -0.0960
    1SOL    HW3 2667   3.511   0.401   2.146  1.0351  2.7089  0.8301
    1SOL    MW4 2668   3.514   0.382   2.231  0.4170  0.1124  0.2892
    1SOL     OW 2669   0.910   1.939   0.419  0.1266  0.6760 -0.4299
    1SOL    HW2 2670   0.851   1.965   0.348 -0.1362  1.2993  0.0130
    1SOL    HW3 2671   0.859   1.952   0.499  0.2100 -0.6119 -0.1576
    1SOL    MW4 2672   0.896   1.944   0.420  0.1029  0.5882 -0.3355
    1SOL     OW 2673   3.423   0.821   1.770  0.1597 -0.4393 -0.1116
    1SOL    HW2 2674   3.461   0.884   1.709 -0.3607  0.6580  0.6859
    1SOL    HW3 2675   3.329   0.828   1.758  0.0514 -0.2117  0.8115
    1SOL    MW4 2676   3.416   0.830   1.761  0.0768 -0.2645  0.1153
    1SOL     OW 2677   3.005   2.335   1.317  0.0973 -0.4669  0.2567
    1SOL    HW2 2678   3.026   2.355   1.408  0.9164  0.8266 -0.1979
    1SOL    HW3 2679   2.990   2.241   1.316 -0.3910 -0.4252  1.8184
    1SOL    MW4 2680   3.006   2.325   1.329  0.1411 -0.2906  0.4028
    1SOL     OW 2681   2.692   1.546   1.666  0.3768  0.2410  0.5144
    1SOL    HW2 2682   2.599   1.562   1.685  0.2248 -1.1695  1.0469
    1SOL    HW3 2683   2.692   1.465   1.615  1.2789  0.5910 -0.0480
    1SOL    MW4 2684   2.680   1.538   1.662  0.4759  0.1010  0.5106
    1SOL     OW 2685   3.101   0.848   1.436 -0.1200 -0.0521 -0.2613
    1SOL    HW2 2686   3.011   0.865   1.409 -0.9373 -0.9459  1.7948
    1SOL    HW3 2687   3.111   0.753   1.430  0.9829  0.1141 -1.3200
    1SOL    MW4 2688   3.091   0.838   1.432 -0.0825 -0.1481 -0.1296
    1SOL     OW 2689   3.681   3.816   0.650 -0.1227 -0.3060  0.0537
    1SOL    HW2 2690   3.774   3.792   0.651 -0.4017 -1.4194  0.4122
    1SOL    HW3 2691   3.656   3.820   0.742 -0.7879 -1.5253 -0.0533
    1SOL    MW4 2692   3.690   3.813   0.662 -0.2472 -0.6137  0.0869
    1SOL     OW 2693   2.847   3.761   1.448  0.4149 -0.1656  0.4201
    1SOL    HW2 2694   2.897   3.771   1.366  0.1102  0.3049  0.2920
    1SOL    HW3 2695   2.914   3.760   1.516  0.6222  0.1252  0.2212
    1SOL    MW4 2696   2.863   3.762   1.446  0.4022 -0.0651  0.3771
    1SOL     OW 2697   3.633   4.001   0.441 -0.0429  0.3847  0.2159
    1SOL    HW2 2698   3.648   3.932   0.506 -0.8355  0.3220  0.3354
    1SOL    HW3 2699   3.655   4.082   0.486 -0.4950  0.3331  0.5372
    1SOL    MW4 2700   3.638   4.002   0.455 -0.2072  0.3695  0.2741
    1SOL     OW 2701   4.474   2.941   1.758 -0.1594  0.5393 -0.4809
    1SOL    HW2 2702   4.509   3.019   1.715  0.9117 -0.1129 -0.8194
    1SOL    HW3 2703   4.432   2.892   1.688 -1.8611  1.3668 -0.0564
    1SOL    MW4 2704   4.473   2.945   1.743 -0.2422  0.5624 -0.4698
    1SOL     OW 2705   2.160   1.377   0.387 -0.1475  0.1750 -0.0544
    1SOL    HW2 2706   2.103   1.446   0.353 -0.4241  0.6665  1.3922
    1SOL    HW3 2707   2.246   1.418   0.392 -0.3497  0.4979  0.9905
    1SOL    MW4 2708   2.164   1.392   0.383 -0.2108  0.2824  0.2743
    1SOL     OW 2709   2.082   4.484   1.055 -0.0131 -0.6642 -0.1693
    1SOL    HW2 2710   1.992   4.462   1.031 -0.0038 -0.1947 -0.6359
    1SOL    HW3 2711   2.121   4.520   0.975  0.9317 -1.9052 -0.2914
    1SOL    MW4 2712   2.076   4.486   1.041  0.1128 -0.7663 -0.2471
    1SOL     OW 2713   4.025   4.019   1.390  0.0395  0.5213  0.1038
    1SOL    HW2 2714   3.986   4.096   1.347 -0.2011  0.0495 -0.5243
    1SOL    HW3 2715   4.111   4.010   1.350  0.0669  0.4558  0.1767
    1SOL    MW4 2716   4.031   4.028   1.379  0.0114  0.4506  0.0303
    1SOL     OW 2717   0.140   3.888   1.682 -0.0607 -0.4477  0.3110
    1SOL    HW2 2718   0.146   3.954   1.613  0.7345 -0.2464  0.5584
    1SOL    HW3 2719   0.107   3.936   1.758  0.1440 -0.4201  0.3826
    1SOL    MW4 2720   0.137   3.903   1.683  0.0712 -0.4177  0.3532
    1SOL     OW 2721   3.611   4.174   1.398  0.2728 -0.4399 -0.2154
    1SOL    HW2 2722   3.518   4.154   1.414  0.1780 -0.2342 -0.5143
    1SOL    HW3 2723   3.640   4.108   1.336 -0.2126  0.7162 -1.7159
    1SOL    MW4 2724   3.602   4.163   1.392  0.1965 -0.2599 -0.4528
    1SOL     OW 2725   1.611   1.171   0.476 -0.0210  0.0368  0.2240
    1SOL    HW2 2726   1.666   1.172   0.554 -0.7008  1.0188  0.6977
    1SOL    HW3 2727   1.646   1.241   0.421  2.0864 -2.3068 -1.5170
    1SOL    MW4 2728   1.623   1.180   0.479  0.1673 -0.1428  0.0568
    1SOL     OW 2729   4.398   0.673   0.440  0.0427 -0.1131 -0.3342
    1SOL    HW2 2730   4.317   0.694   0.486 -0.0204  0.0780 -0.5288
    1SOL    HW3 2731   4.434   0.759   0.416  0.1569 -0.2058 -0.4925
    1SOL    MW4 2732   4.392   0.687   0.443  0.0496 -0.1001 -0.3808
    1SOL     OW 2733   3.251   4.426   1.490  0.6718  0.0542 -0.3140
    1SOL    HW2 2734   3.166   4.460   1.519  0.0854 -0.7781 -1.0409
    1SOL    HW3 2735   3.256   4.452   1.398  0.6658 -0.9479 -0.6020
    1SOL    MW4 2736   3.240   4.434   1.482  0.5934 -0.1884 -0.4481
    1SOL     OW 2737   4.099   3.951   0.509 -0.1997 -0.4184  0.0779
    1SOL    HW2 2738   4.194   3.938   0.512 -0.2512 -1.0968 -1.1396
    1SOL    HW3 2739   4.076   3.937   0.417 -1.5003 -0.4204  0.4045
    1SOL    MW4 2740   4.109   3.947   0.497 -0.3786 -0.5083 -0.0397
    1SOL     OW 2741   4.409   0.164   1.894  0.7073  0.4477  0.1984
    1SOL    HW2 2742   4.345   0.094   1.908  1.7475 -0.4090  0.7709
    1SOL    HW3 2743   4.358   0.244   1.896 -0.6066 -0.3396 -1.1730
    1SOL    MW4 2744   4.394   0.165   1.896  0.6709  0.2308  0.0929
    1SOL     OW 2745   1.269   1.382   1.235  0.0749 -0.8016  0.3709
    1SOL    HW2 2746   1.275   1.294   1.199  0.7590 -0.8431  0.5957
    1SOL    HW3 2747   1.296   1.439   1.163 -1.0829 -0.7199 -0.0174
    1SOL    MW4 2748   1.273   1.378   1.221  0.0124 -0.7962  0.3494
    1SOL     OW 2749   2.769   1.172   1.062 -0.2720  0.2759 -0.2952
    1SOL    HW2 2750   2.856   1.159   1.023  0.2377 -0.8519  1.1562
    1SOL    HW3 2751   2.713   1.197   0.989  0.8693 -0.9082 -1.6033
    1SOL    MW4 2752   2.773   1.173   1.047 -0.0544 -0.0292 -0.2764
    1SOL     OW 2753   0.049   0.731   0.909  0.2656 -0.4537 -0.0976
    1SOL    HW2 2754   0.124   0.787   0.929 -0.0205  0.4912 -1.6120
    1SOL    HW3 2755   0.071   0.689   0.827 -0.4330 -0.9544 -0.0336
    1SOL    MW4 2756   0.062   0.733   0.901  0.1357 -0.3950 -0.2890
    1SOL     OW 2757   4.356   0.703   1.263 -0.2996  0.1782 -0.1063
    1SOL    HW2 2758   4.318   0.674   1.346  0.5610 -0.1742  0.1713
    1SOL    HW3 2759   4.402   0.626   1.229  1.7083  1.0932  0.4688
    1SOL    MW4 2760   4.357   0.689   1.269  0.0792  0.2524  0.0063
    1SOL     OW 2761   3.371   0.269   0.668 -0.1855  0.0485 -0.0454
    1SOL    HW2 2762   3.280   0.296   0.664 -0.1942 -0.1038 -0.9781
    1SOL    HW3 2763   3.372   0.194   0.728 -0.8157 -0.5093 -0.7233
    1SOL    MW4 2764   3.359   0.263   0.675 -0.2699 -0.0452 -0.2579
    1SOL     OW 2765   2.021   2.533   1.585  0.1645  0.1985  0.1253
    1SOL    HW2 2766   1.945   2.540   1.642  0.1001 -0.5971  0.1398
    1SOL    HW3 2767   2.047   2.624   1.568 -1.0111  0.4867 -0.1807
    1SOL    MW4 2768   2.015   2.546   1.590  0.0012  0.1316  0.0868
    1SOL     OW 2769   0.117   0.910   1.815  0.6130  0.3818  0.5612
    1SOL    HW2 2770   0.162   0.832   1.849 -0.4237 -1.2853 -1.7737
    1SOL    HW3 2771   0.107   0.893   1.722 -0.9966  2.6662  0.2876
    1SOL    MW4 2772   0.122   0.897   1.807  0.2638  0.4632  0.2171
    1SOL     OW 2773   2.590   2.574   0.457 -0.5970 -0.2105 -0.0134
    1SOL    HW2 2774   2.610   2.666   0.441 -0.9577  0.0520  1.0242
    1SOL    HW3 2775   2.674   2.529   0.448 -0.2174  0.3732  0.5859
    1SOL    MW4 2776   2.604   2.580   0.454 -0.5946 -0.0992  0.2026
    1SOL     OW 2777   0.381   0.295   1.112  0.1942  0.5217  0.2508
    1SOL    HW2 2778   0.321   0.220   1.110  0.0077  0.7129 -1.5701
    1SOL    HW3 2779   0.330   0.366   1.151 -0.1259  0.1340  0.5394
    1SOL    MW4 2780   0.367   0.294   1.117  0.1273  0.4958  0.0488
    1SOL     OW 2781   0.691   3.392   0.984 -0.2507  0.2220 -0.0553
    1SOL    HW2 2782   0.740   3.311   0.971 -0.1556  0.3667 -0.6304
    1SOL    HW3 2783   0.753   3.461   0.960 -0.2284  0.4793  0.7435
    1SOL    MW4 2784   0.706   3.390   0.979 -0.2352  0.2751 -0.0258
    1SOL     OW 2785   0.202   3.328   1.430  0.1553 -0.5003 -0.5583
    1SOL    HW2 2786   0.192   3.281   1.348  0.8294  1.8982 -2.0590
    1SOL    HW3 2787   0.135   3.397   1.426  0.7693  0.1689  0.5236
    1SOL    MW4 2788   0.192   3.331   1.419  0.3253 -0.0954 -0.6136
    1SOL     OW 2789   2.816   3.337   0.284  0.2264  0.2145 -0.3225
    1SOL    HW2 2790   2.901   3.373   0.312  0.2300  0.0095 -0.0599
    1SOL    HW3 2791   2.754   3.370   0.350 -0.0525  1.0874 -1.0048
    1SOL    MW4 2792   2.819   3.346   0.297  0.1903  0.3028 -0.3778
    1SOL     OW 2793   0.311   2.817   0.489  0.0797 -0.1138 -0.0808
    1SOL    HW2 2794   0.393   2.777   0.459 -0.3266 -1.0641  0.0672
    1SOL    HW3 2795   0.332   2.852   0.576  0.3708 -0.2267 -0.1052
    1SOL    MW4 2796   0.325   2.817   0.497  0.0645 -0.2539 -0.0645
    1SOL     OW 2797   0.441   4.274   1.012  0.0096  0.1726  0.6887
    1SOL    HW2 2798   0.494   4.288   1.091 -0.8989 -0.1240  1.3559
    1SOL    HW3 2799   0.375   4.210   1.038 -0.5104  0.3346 -0.2173
    1SOL    MW4 2800   0.439   4.268   1.026 -0.1788  0.1550  0.6571
    1SOL     OW 2801   3.245   2.361   1.181 -0.3167 -0.1916 -0.0920
    1SOL    HW2 2802   3.158   2.354   1.220  0.2273 -0.6543  1.0446
    1SOL    HW3 2803   3.246   2.448   1.140 -1.1376  0.0085  0.3076
    1SOL    MW4 2804   3.234   2.372   1.181 -0.3533 -0.2265  0.1106
    1SOL     OW 2805   3.745   3.413   0.565 -0.1172  0.2968  0.2746
    1SOL    HW2 2806   3.731   3.430   0.472  0.8237  0.7145  0.2016
    1SOL    HW3 2807   3.772   3.322   0.570 -1.0309  0.0226  0.2300
    1SOL    MW4 2808   3.747   3.403   0.554 -0.1137  0.3159  0.2591
    1SOL     OW 2809   2.228   4.314   0.679 -0.2073 -0.1384  0.2646
    1SOL    HW2 2810   2.151   4.289   0.628  0.4122 -1.4409 -0.0487
    1SOL    HW3 2811   2.237   4.244   0.744  1.4843 -0.6895 -0.5460
    1SOL    MW4 2812   2.219   4.301   0.681  0.0975 -0.3824  0.1163
    1SOL     OW 2813   2.116   3.983   1.074  0.0572  0.1812  0.0031
    1SOL    HW2 2814   2.200   3.947   1.045  0.4657  1.3773 -0.3108
    1SOL    HW3 2815   2.088   3.924   1.144  1.2641 -0.0945  0.2667
    1SOL    MW4 2816   2.123   3.970   1.079  0.2704  0.3023 -0.0037
    1SOL     OW 2817   4.192   0.800   1.066  0.5187  0.2398  0.1389
    1SOL    HW2 2818   4.241   0.805   0.984 -0.1218  1.2866 -0.1903
    1SOL    HW3 2819   4.259   0.786   1.133  1.0333 -0.7468 -0.5672
    1SOL    MW4 2820   4.208   0.799   1.064  0.5026  0.2478  0.0024
    1SOL     OW 2821   0.928   2.847   0.673 -0.1476 -0.4462  0.0882
    1SOL    HW2 2822   0.978   2.927   0.659 -0.2165 -0.6281 -1.2415
    1SOL    HW3 2823   0.974   2.780   0.622  0.2948 -1.4157  1.7184
    1SOL    MW4 2824   0.940   2.849   0.665 -0.0983 -0.5984  0.1280
    1SOL     OW 2825   0.178   1.382   1.089  0.0589 -0.1490 -0.1722
    1SOL    HW2 2826   0.262   1.388   1.134  0.3542  0.0002 -0.7377
    1SOL    HW3 2827   0.113   1.401   1.157  0.5146  0.4152  0.1105
    1SOL    MW4 2828   0.180   1.385   1.104  0.1580 -0.0548 -0.2096
    1SOL     OW 2829   4.300   2.285   0.604 -0.5631 -0.1046  0.3324
    1SOL    HW2 2830   4.344   2.368   0.586 -0.5813 -0.0287  0.6320
    1SOL    HW3 2831   4.370   2.228   0.638 -0.2879 -0.6123 -1.0472
    1SOL    MW4 2832   4.315   2.288   0.606 -0.5293 -0.1616  0.1900
    1SOL     OW 2833   2.862   0.307   0.607 -0.2484  0.0292  0.2935
    1SOL    HW2 2834   2.825   0.330   0.522  0.5494 -2.0165 -0.6324
    1SOL    HW3 2835   2.859   0.212   0.610 -0.5788  0.0721  2.7237
    1SOL    MW4 2836   2.857   0.298   0.596 -0.1869 -0.2351  0.4920
    1SOL     OW 2837   3.044   4.024   0.207 -0.2735  0.4390 -0.0732
    1SOL    HW2 2838   2.987   3.997   0.135  0.8031  0.5246 -0.9632
    1SOL    HW3 2839   3.095   3.946   0.228  0.4493  0.8226 -0.3933
    1SOL    MW4 2840   3.043   4.010   0.200 -0.0360  0.5007 -0.2329
    1SOL     OW 2841   4.175   0.301   0.737 -0.0307  0.0385  0.3618
    1SOL    HW2 2842   4.119   0.241   0.785  0.4000 -0.2916  0.4490
    1SOL    HW3 2843   4.245   0.324   0.798  1.0441 -1.1168 -0.4024
    1SOL    MW4 2844   4.177   0.296   0.751  0.1683 -0.1575  0.2724
    1SOL     OW 2845   4.215   0.158   0.510 -0.4913 -0.2567 -0.3210
    1SOL    HW2 2846   4.220   0.225   0.441 -0.0859  0.7188  0.6293
    1SOL    HW3 2847   4.204   0.209   0.591  0.5995 -1.3223  0.5000
    1SOL    MW4 2848   4.214   0.174   0.512 -0.2937 -0.2686 -0.0873
    1SOL     OW 2849   3.951   1.375   0.813 -0.0912  0.4815  0.2630
    1SOL    HW2 2850   3.963   1.464   0.780 -0.4114  0.0533 -1.0422
    1SOL    HW3 2851   3.995   1.374   0.897 -0.2158  1.9207  0.3488
    1SOL    MW4 2852   3.958   1.386   0.820 -0.1497  0.6149  0.1021
    1SOL     OW 2853   1.078   2.657   0.536 -0.0595  0.0320  0.1737
    1SOL    HW2 2854   1.158   2.687   0.494 -0.1984 -0.8742 -0.7531
    1SOL    HW3 2855   1.106   2.585   0.592 -0.1792 -0.0863  0.0816
    1SOL    MW4 2856   1.092   2.652   0.538 -0.0937 -0.1030  0.0392
    1SOL     OW 2857   0.108   1.321   1.738 -0.0283  0.1543 -0.1768
    1SOL    HW2 2858   0.033   1.267   1.762 -0.2809  0.6807  0.2288
    1SOL    HW3 2859   0.074   1.410   1.736  0.5550  0.3843 -0.1178
    1SOL    MW4 2860   0.094   1.326   1.741  0.0154  0.2540 -0.1155
    1SOL     OW 2861   1.730   4.181   0.263 -0.0978  0.2012 -0.3432
    1SOL    HW2 2862   1.763   4.271   0.271 -2.4895  1.1294 -0.6836
    1SOL    HW3 2863   1.791   4.139   0.202  1.4144  1.3863  0.3082
    1SOL    MW4 2864   1.743   4.187   0.256 -0.2137  0.4802 -0.3021
    1SOL     OW 2865   4.478   1.430   1.272 -0.7061  0.5901  0.1792
    1SOL    HW2 2866   4.518   1.382   1.345 -0.5855 -0.3211 -0.4809
    1SOL    HW3 2867   4.392   1.389   1.261 -0.0375 -0.4408 -1.3228
    1SOL    MW4 2868   4.472   1.418   1.281 -0.6020  0.3338 -0.1061
    1SOL     OW 2869   3.938   4.232   1.234 -0.2922 -0.2372  0.0176
    1SOL    HW2 2870   3.962   4.172   1.164  2.1075 -0.1245  0.7033
    1SOL    HW3 2871   3.954   4.319   1.198 -1.1143 -0.1058 -0.0310
    1SOL    MW4 2872   3.943   4.235   1.220 -0.0839 -0.2046  0.1016
    1SOL     OW 2873   4.004   2.448   1.179 -0.0919 -0.0758  0.3788
    1SOL    HW2 2874   3.988   2.354   1.182 -1.0064  0.0886  0.9506
    1SOL    HW3 2875   3.996   2.471   1.086  1.5345 -0.7839  0.0471
    1SOL    MW4 2876   4.001   2.439   1.167  0.0019 -0.1476  0.4104
    1SOL     OW 2877   3.724   3.439   0.287  0.2355  0.5232 -0.1795
    1SOL    HW2 2878   3.642   3.423   0.239  0.3230  0.9907 -0.4838
    1SOL    HW3 2879   3.749   3.528   0.263  0.7427  0.4440  0.0536
    1SOL    MW4 2880   3.716   3.448   0.278  0.3142  0.5746 -0.1889
    1SOL     OW 2881   0.746   3.223   2.187  0.4391  0.4407 -0.2660
    1SOL    HW2 2882   0.834   3.235   2.150  0.7236 -0.1941  0.2018
    1SOL    HW3 2883   0.739   3.129   2.203 -1.0855  0.1890 -2.1615
    1SOL    MW4 2884   0.757   3.212   2.184  0.2754  0.3238 -0.4544
    1SOL     OW 2885   0.405   3.541   3.164 -0.3816  0.1252  0.4237
    1SOL    HW2 2886   0.334   3.502   3.114  0.4356 -0.6797 -0.1133
    1SOL    HW3 2887   0.398   3.500   3.250 -0.2749 -0.2982  0.2307
    1SOL    MW4 2888   0.395   3.531   3.169 -0.2597 -0.0367  0.3273
    1SOL     OW 2889   0.311   2.263   3.222  0.3911  0.1783  0.6411
    1SOL    HW2 2890   0.218   2.258   3.200  0.5917  0.2369 -0.2353
    1SOL    HW3 2891   0.343   2.174   3.210  0.1960 -0.1113  2.1380
    1SOL    MW4 2892   0.303   2.250   3.217  0.3918  0.1481  0.7229
    1SOL     OW 2893   3.114   1.951   0.815 -0.1964  0.4559  0.5420
    1SOL    HW2 2894   3.133   2.044   0.814 -0.6042  0.5585  1.6177
    1SOL    HW3 2895   3.103   1.929   0.907 -0.7799 -0.5130  0.2576
    1SOL    MW4 2896   3.115   1.960   0.827 -0.3273  0.3418  0.6464
    1SOL     OW 2897   4.380   3.925   0.469  0.1021  0.1045 -0.0064
    1SOL    HW2 2898   4.417   4.009   0.498  1.6632 -0.5753  0.0201
    1SOL    HW3 2899   4.388   3.927   0.374  0.9024 -0.3457  0.0450
    1SOL    MW4 2900   4.386   3.936   0.460  0.4139 -0.0443  0.0038
    1SOL     OW 2901   3.358   3.206   0.804  0.0863 -0.1228 -0.0402
    1SOL    HW2 2902   3.391   3.272   0.744  0.3228  0.0847  0.3171
    1SOL    HW3 2903   3.285   3.248   0.849  0.4038 -0.0185  0.3748
    1SOL    MW4 2904   3.352   3.220   0.802  0.1590 -0.0818  0.0618
    1SOL     OW 2905   0.825   1.564   1.137  0.1836 -0.0061  0.0982
    1SOL    HW2 2906   0.756   1.608   1.087 -0.8377 -0.5339  1.0386
    1SOL    HW3 2907   0.897   1.555   1.074 -0.3696  1.0844 -0.7143
    1SOL    MW4 2908   0.825   1.569   1.122 -0.0242  0.0682  0.1152
    1SOL     OW 2909   3.298   3.553   0.319 -0.2637  0.1522  0.3479
    1SOL    HW2 2910   3.259   3.640   0.310 -0.0801  0.3211  1.1015
    1SOL    HW3 2911   3.352   3.560   0.398  2.4115  0.3353 -1.4335
    1SOL    MW4 2912   3.300   3.566   0.328  0.1135  0.1986  0.2123
    1SOL     OW 2913   1.365   3.104   1.100  0.0718 -0.1093 -0.6154
    1SOL    HW2 2914   1.292   3.113   1.160  0.4997 -0.6768  0.0054
    1SOL    HW3 2915   1.336   3.146   1.019 -1.2090 -0.9674 -0.6091
    1SOL    MW4 2916   1.352   3.111   1.097 -0.0408 -0.2973 -0.5327
    1SOL     OW 2917   0.532   3.746   2.319 -0.2797 -0.0083 -0.2115
    1SOL    HW2 2918   0.552   3.794   2.399 -0.4421 -1.1303  0.5044
    1SOL    HW3 2919   0.466   3.800   2.274  1.8698  2.0711 -1.0047
    1SOL    MW4 2920   0.526   3.760   2.323 -0.0175  0.1180 -0.2220
    1SOL     OW 2921   3.984   0.404   1.435 -0.0004  0.0517 -0.3879
    1SOL    HW2 2922   4.024   0.363   1.512 -1.2654 -1.1693 -0.3688
    1SOL    HW3 2923   3.966   0.494   1.462  1.1198  0.1226  0.1729
    1SOL    MW4 2924   3.987   0.410   1.449 -0.0196 -0.1000 -0.3115
    1SOL     OW 2925   4.290   4.531   1.242  0.2050  0.2256 -0.2359
    1SOL    HW2 2926   4.255   4.459   1.294 -0.7131  1.0406  0.2915
    1SOL    HW3 2927   4.263   4.511   1.153  0.4845 -0.3952 -0.1870
    1SOL    MW4 2928   4.282   4.519   1.237  0.1206  0.2508 -0.1597
    1SOL     OW 2929   1.122   0.303   2.454 -0.2263 -0.6451  0.1312
    1SOL    HW2 2930   1.155   0.301   2.544 -1.0099  0.8314  0.4702
    1SOL    HW3 2931   1.171   0.374   2.412 -0.8197 -0.4456 -0.2243
    1SOL    MW4 2932   1.133   0.312   2.460 -0.4081 -0.4240  0.1290
    1SOL     OW 2933   4.363   2.055   1.667  0.1542  0.3439 -0.3006
    1SOL    HW2 2934   4.381   1.961   1.661 -0.1624  0.2593  0.1064
    1SOL    HW3 2935   4.275   2.061   1.705  0.8953  0.8464  1.3504
    1SOL    MW4 2936   4.354   2.044   1.671  0.2093  0.3989 -0.0292
    1SOL     OW 2937   0.644   0.744   1.469  0.5426  0.0966 -0.3875
    1SOL    HW2 2938   0.720   0.755   1.526 -0.4281  0.2526  0.9145
    1SOL    HW3 2939   0.651   0.816   1.407  0.9808  0.6542  0.2912
    1SOL    MW4 2940   0.655   0.755   1.469  0.4723  0.1908 -0.1262
    1SOL     OW 2941   3.844   0.962   0.900  0.3309 -0.1640  0.0233
    1SOL    HW2 2942   3.920   0.905   0.905  0.2959 -0.2110  0.0128
    1SOL    HW3 2943   3.862   1.031   0.964  1.6413  1.3377 -1.9014
    1SOL    MW4 2944   3.856   0.964   0.909  0.4992  0.0280 -0.2320
    1SOL     OW 2945   0.049   3.152   1.588  0.4250 -0.0862  0.0587
    1SOL    HW2 2946   0.112   3.211   1.546 -0.4752  0.5875 -0.3595
    1SOL    HW3 2947  -0.009   3.124   1.517  0.8694 -1.5163  0.2465
    1SOL    MW4 2948   0.049   3.156   1.574  0.3648 -0.1860  0.0283
    1SOL     OW 2949   1.204   0.672   1.084 -0.3878 -0.1013  0.1323
    1SOL    HW2 2950   1.194   0.746   1.024  0.9587 -0.4576 -0.5473
    1SOL    HW3 2951   1.278   0.696   1.140  0.2037 -1.0254 -0.2487
    1SOL    MW4 2952   1.212   0.685   1.084 -0.1323 -0.2703 -0.0076
    1SOL     OW 2953   0.349   0.669   0.646  0.1895 -0.4532 -0.0058
    1SOL    HW2 2954   0.258   0.638   0.639 -0.0128  0.1376  0.0263
    1SOL    HW3 2955   0.345   0.761   0.619  0.4344  0.1726  2.0484
    1SOL    MW4 2956   0.336   0.677   0.641  0.1951 -0.2928  0.2694
    1SOL     OW 2957   0.256   2.000   0.967  0.0656 -0.2503 -0.2322
    1SOL    HW2 2958   0.236   1.931   1.029  0.2386 -0.5634 -0.5212
    1SOL    HW3 2959   0.173   2.046   0.954 -0.1627 -0.7165 -0.4209
    1SOL    MW4 2960   0.242   1.997   0.973  0.0583 -0.3531 -0.2952
    1SOL     OW 2961   1.383   2.949   1.973  0.1010  0.4749  0.3620
    1SOL    HW2 2962   1.424   2.910   1.896  0.0059  0.1382  0.4800
    1SOL    HW3 2963   1.371   3.041   1.950 -0.8251  0.1750 -0.4067
    1SOL    MW4 2964   1.387   2.956   1.960 -0.0339  0.3910  0.2761
    1SOL     OW 2965   0.064   1.932   2.659 -0.1801  0.1091 -0.1124
    1SOL    HW2 2966   0.057   1.946   2.565  1.6143 -0.3150 -0.3206
    1SOL    HW3 2967   0.156   1.910   2.674 -0.6503 -0.8445  1.5970
    1SOL    MW4 2968   0.075   1.931   2.648 -0.0054 -0.0728  0.0854
    1SOL     OW 2969   4.203   1.361   1.947  0.4274 -0.0528  0.4453
    1SOL    HW2 2970   4.214   1.326   2.035  0.2768  1.1527  0.9484
    1SOL    HW3 2971   4.131   1.310   1.909  0.6737 -0.7518  0.9191
    1SOL    MW4 2972   4.195   1.350   1.954  0.4401  0.0139  0.5742
    1SOL     OW 2973   3.430   2.198   1.657  0.2335 -0.0102  0.5131
    1SOL    HW2 2974   3.416   2.292   1.646  0.1778 -0.3599 -2.7911
    1SOL    HW3 2975   3.522   2.184   1.634 -0.1964 -0.9944 -0.6370
    1SOL    MW4 2976   3.440   2.208   1.653  0.1695 -0.1860 -0.0745
    1SOL     OW 2977   0.457   1.373   0.855  0.3009 -0.1637  0.0931
    1SOL    HW2 2978   0.501   1.362   0.771  0.7882 -1.0462  0.4604
    1SOL    HW3 2979   0.365   1.389   0.832  0.9135  2.5046 -0.7143
    1SOL    MW4 2980   0.451   1.374   0.841  0.4461  0.0719  0.0350
    1SOL     OW 2981   3.835   2.497   1.557  0.3229 -0.1485  0.0183
    1SOL    HW2 2982   3.790   2.558   1.616 -0.4438 -0.6633 -0.0329
    1SOL    HW3 2983   3.837   2.542   1.473  1.6224  0.6869  0.4801
    1SOL    MW4 2984   3.830   2.511   1.554  0.3932 -0.1063  0.0725
    1SOL     OW 2985   3.520   3.938   1.608  0.0971  0.7457  0.2999
    1SOL    HW2 2986   3.543   3.963   1.697 -1.1305 -1.0357  1.1581
    1SOL    HW3 2987   3.591   3.880   1.581  0.0252  0.5772  0.4658
    1SOL    MW4 2988   3.532   3.933   1.616 -0.0744  0.4885  0.4350
    1SOL     OW 2989   1.811   4.431   1.046 -0.1937  0.2680 -0.2117
    1SOL    HW2 2990   1.774   4.352   1.006  1.4756  0.8124 -2.9733
    1SOL    HW3 2991   1.751   4.501   1.023 -0.0487  0.3272 -0.4055
    1SOL    MW4 2992   1.798   4.430   1.038  0.0457  0.3467 -0.6018
    1SOL     OW 2993   0.555   3.068   1.292  0.1229  0.1065 -0.2790
    1SOL    HW2 2994   0.627   3.117   1.331 -0.6770 -0.2394  1.6975
    1SOL    HW3 2995   0.587   2.978   1.288 -0.4250 -0.1676  1.2255
    1SOL    MW4 2996   0.569   3.062   1.297 -0.0550  0.0248  0.1802
    1SOL     OW 2997   4.323   3.622   1.708  0.1991  0.3552  0.1601
    1SOL    HW2 2998   4.335   3.527   1.712  0.7910  0.4585  0.8861
    1SOL    HW3 2999   4.343   3.652   1.796  0.9504  1.2662 -0.3210
    1SOL    MW4 3000   4.327   3.613   1.720  0.3762  0.4890  0.1924
    1SOL     OW 3001   4.197   2.570   1.318  0.0758  0.0329  0.8837
    1SOL    HW2 3002   4.135   2.533   1.255  1.4845 -0.6171 -0.1512
    1SOL    HW3 3003   4.209   2.502   1.384  2.7195 -1.4834 -1.0557
    1SOL    MW4 3004   4.190   2.556   1.318  0.6104 -0.2530  0.4914
    1SOL     OW 3005   4.256   4.050   0.841  0.0936  0.4141 -0.3485
    1SOL    HW2 3006   4.342   4.008   0.844 -0.0952  0.1241  2.0882
    1SOL    HW3 3007   4.274   4.143   0.831  0.7205  0.3583  0.2335
    1SOL    MW4 3008   4.269   4.057   0.840  0.1512  0.3691  0.0498
    1SOL     OW 3009   0.492   3.671   1.316  0.0506 -0.0404 -0.3634
    1SOL    HW2 3010   0.480   3.672   1.411 -0.3280  0.1720 -0.4128
    1SOL    HW3 3011   0.587   3.670   1.304  0.1054  0.2909  0.0162
    1SOL    MW4 3012   0.503   3.671   1.327  0.0079  0.0317 -0.3198
    1SOL     OW 3013   3.686   4.276   1.064 -0.0005  0.5678  0.4426
    1SOL    HW2 3014   3.755   4.265   1.129  0.5046  0.2904 -0.1343
    1SOL    HW3 3015   3.706   4.211   0.996 -0.6291  0.7236  0.1017
    1SOL    MW4 3016   3.697   4.266   1.063 -0.0167  0.5517  0.3213
    1SOL     OW 3017   0.588   4.326   1.242 -0.1910  0.2120 -0.2573
    1SOL    HW2 3018   0.549   4.341   1.328 -0.3981 -0.4347 -0.2379
    1SOL    HW3 3019   0.682   4.315   1.259 -0.4965 -2.0341  0.1444
    1SOL    MW4 3020   0.595   4.326   1.255 -0.2586 -0.1693 -0.2017
    1SOL     OW 3021   4.111   0.263   1.653  0.2822 -0.0306 -0.0782
    1SOL    HW2 3022   4.048   0.191   1.648 -0.3249  0.4189  0.7448
    1SOL    HW3 3023   4.173   0.247   1.583  0.3505 -1.5446  0.3131
    1SOL    MW4 3024   4.111   0.252   1.643  0.2112 -0.1710  0.0818
    1SOL     OW 3025   0.666   1.058   0.319 -0.0715 -0.2418 -0.2986
    1SOL    HW2 3026   0.623   0.991   0.266 -0.6087  0.1965 -0.4203
    1SOL    HW3 3027   0.594   1.112   0.352  0.3224 -0.0328  0.2137
    1SOL    MW4 3028   0.650   1.057   0.316 -0.0904 -0.1564 -0.2471
    1SOL     OW 3029   3.748   4.129   0.843 -0.3279 -0.2656  0.1803
    1SOL    HW2 3030   3.731   4.164   0.756  1.0393 -0.1377 -0.0518
    1SOL    HW3 3031   3.689   4.054   0.851 -0.7161 -0.0553 -0.7076
    1SOL    MW4 3032   3.738   4.123   0.833 -0.1988 -0.2208  0.0325
    1SOL     OW 3033   0.223   1.812   1.160  0.1039  0.0860 -0.0483
    1SOL    HW2 3034   0.140   1.765   1.166 -1.3157  2.5765  0.1067
    1SOL    HW3 3035   0.282   1.762   1.218 -1.6300 -0.9353  0.8938
    1SOL    MW4 3036   0.220   1.799   1.169 -0.3122  0.2799  0.0964
    1SOL     OW 3037   4.450   1.548   3.917  0.0913  0.8054  0.3489
    1SOL    HW2 3038   4.416   1.460   3.934  0.0353  0.3834 -1.8518
    1SOL    HW3 3039   4.545   1.535   3.908 -0.0138  0.8327 -0.8174
    1SOL    MW4 3040   4.458   1.534   3.918  0.0706  0.7534 -0.0949
    1SOL     OW 3041   0.008   2.223   1.466  0.1209  0.1840 -0.1499
    1SOL    HW2 3042   0.063   2.159   1.421  0.7501  0.5036  0.1526
    1SOL    HW3 3043  -0.024   2.178   1.544  1.6145  0.6432  0.7445
    1SOL    MW4 3044   0.011   2.209   1.470  0.4010  0.2871  0.0080
    1SOL     OW 3045   2.976   1.256   1.615 -0.4000 -0.2207  0.0323
    1SOL    HW2 3046   3.045   1.204   1.655 -0.4952  0.3027  0.8991
    1SOL    HW3 3047   2.981   1.235   1.521  0.4104 -0.7820  0.1952
    1SOL    MW4 3048   2.986   1.247   1.608 -0.3059 -0.2257  0.1681
    1SOL     OW 3049   3.361   0.892   1.341  0.2105  0.0992  0.1371
    1SOL    HW2 3050   3.273   0.878   1.375  0.3480  0.5923  0.7237
    1SOL    HW3 3051   3.407   0.936   1.413  0.7411  0.4408 -0.4085
    1SOL    MW4 3052   3.356   0.896   1.355  0.2987  0.2093  0.1425
    1SOL     OW 3053   0.953   1.674   1.737  0.2636 -0.7010 -0.0949
    1SOL    HW2 3054   0.923   1.729   1.809  0.3539  0.0980 -0.6536
    1SOL    HW3 3055   0.879   1.616   1.718  0.0228 -0.5010  0.2369
    1SOL    MW4 3056   0.939   1.673   1.744  0.2437 -0.5691 -0.1248
    1SOL     OW 3057   3.920   1.633   1.702 -0.2357  0.1865 -0.0414
    1SOL    HW2 3058   3.852   1.679   1.653 -0.2070  0.4318  0.1507
    1SOL    HW3 3059   3.871   1.569   1.754 -0.3401  0.5101  0.2609
    1SOL    MW4 3060   3.904   1.630   1.703 -0.2456  0.2615  0.0237
    1SOL     OW 3061   0.518   1.108   1.634 -0.2290 -0.4862 -0.0797
    1SOL    HW2 3062   0.598   1.157   1.614  0.4945 -1.5163  0.2609
    1SOL    HW3 3063   0.501   1.127   1.726 -1.7929  1.7194 -0.7625
    1SOL    MW4 3064   0.526   1.117   1.643 -0.3398 -0.3312 -0.1248
    1SOL     OW 3065   2.146   3.233   1.282  0.4411 -0.0493  0.4338
    1SOL    HW2 3066   2.162   3.241   1.188 -2.6495 -0.0907 -0.1750
    1SOL    HW3 3067   2.106   3.146   1.292  0.1932  0.1969  1.6788
    1SOL    MW4 3068   2.143   3.222   1.271  0.0007 -0.0222  0.5176
    1SOL     OW 3069   1.801   2.687   0.822  0.1727  0.1240  0.1503
    1SOL    HW2 3070   1.799   2.652   0.911  1.0547  0.9164  0.4993
    1SOL    HW3 3071   1.803   2.782   0.834 -0.0473  0.2395 -0.7180
    1SOL    MW4 3072   1.801   2.695   0.836  0.2601  0.2439  0.0818
    1SOL     OW 3073   3.224   2.614   1.092 -0.5276  0.0747 -0.0883
    1SOL    HW2 3074   3.262   2.654   1.014 -0.2547 -0.6329 -0.3174
    1SOL    HW3 3075   3.217   2.686   1.155 -0.8804  0.6742 -0.8118
    1SOL    MW4 3076   3.228   2.629   1.090 -0.5381  0.0603 -0.2141
    1SOL     OW 3077   4.488   1.551   2.465 -0.1537 -0.3541 -0.1919
    1SOL    HW2 3078   4.449   1.634   2.435  0.1810  0.1889  0.8318
    1SOL    HW3 3079   4.419   1.511   2.519  0.6185  0.5579  1.5356
    1SOL    MW4 3080   4.474   1.557   2.468 -0.0076 -0.1622  0.1709
    1SOL     OW 3081   3.946   3.766   0.645 -0.1801  0.1603  0.4038
    1SOL    HW2 3082   3.993   3.825   0.587  1.3796 -0.1403  1.3388
    1SOL    HW3 3083   3.969   3.678   0.616 -1.0451 -0.0008  0.1751
    1SOL    MW4 3084   3.955   3.762   0.634 -0.0887  0.0994  0.4970
    1SOL     OW 3085   0.012   3.677   0.555 -0.6605 -0.1514 -0.0272
    1SOL    HW2 3086  -0.050   3.628   0.500 -1.1437  0.7347 -0.2974
    1SOL    HW3 3087  -0.006   3.769   0.534 -0.5066  0.1796  1.2530
    1SOL    MW4 3088   0.001   3.683   0.545 -0.7040  0.0091  0.1060
    1SOL     OW 3089   4.094   2.741   0.755  0.1312 -0.0360 -0.0856
    1SOL    HW2 3090   4.182   2.775   0.769  0.1946 -0.4967  0.6673
    1SOL    HW3 3091   4.049   2.810   0.707  0.8229  0.3094 -0.2481
    1SOL    MW4 3092   4.100   2.754   0.750  0.2303 -0.0513 -0.0076
    1SOL     OW 3093   0.678   0.221   2.145  0.0557 -0.0295 -0.1009
    1SOL    HW2 3094   0.665   0.127   2.129  1.2177 -0.1881 -0.1890
    1SOL    HW3 3095   0.716   0.225   2.233 -0.5392  0.3984  0.1353
    1SOL    MW4 3096   0.682   0.209   2.155  0.1306  0.0060 -0.0815
    1SOL     OW 3097   3.720   1.710   1.516 -0.4548 -0.2529  0.1138
    1SOL    HW2 3098   3.628   1.700   1.489  0.0125  1.3397 -2.2607
    1SOL    HW3 3099   3.730   1.803   1.533  0.6238 -0.4827  0.8009
    1SOL    MW4 3100   3.709   1.721   1.515 -0.2508 -0.0731 -0.1088
    1SOL     OW 3101   1.662   3.762   2.684  0.2862 -0.2158  0.2312
    1SOL    HW2 3102   1.694   3.764   2.774  0.0362 -0.5239  0.3246
    1SOL    HW3 3103   1.656   3.669   2.662  0.9575 -0.1422 -0.3192
    1SOL    MW4 3104   1.666   3.750   2.693  0.3417 -0.2468  0.1709
    1SOL     OW 3105   1.212   0.272   1.882  0.2304  0.0998  0.2546
    1SOL    HW2 3106   1.217   0.368   1.892 -1.6691  0.2219  0.1334
    1SOL    HW3 3107   1.297   0.241   1.914  1.3916  1.9141 -0.9382
    1SOL    MW4 3108   1.224   0.281   1.887  0.1330  0.3553  0.0812
    1SOL     OW 3109   4.086   3.963   0.226 -0.0225 -0.0404  0.3183
    1SOL    HW2 3110   4.175   3.943   0.197  0.2423  0.0892  1.0326
    1SOL    HW3 3111   4.076   4.057   0.211  0.1448  0.0421  0.7364
    1SOL    MW4 3112   4.097   3.973   0.220  0.0348 -0.0126  0.4677
    1SOL     OW 3113   4.345   4.331   0.184 -0.0583  0.3390 -0.3122
    1SOL    HW2 3114   4.407   4.258   0.174 -0.1220  0.1620  0.5449
    1SOL    HW3 3115   4.397   4.409   0.167  0.3045  0.1667  0.0044
    1SOL    MW4 3116   4.360   4.332   0.180 -0.0186  0.2933 -0.1573
    1SOL     OW 3117   1.189   3.586   1.352  0.0582  0.1312  0.3462
    1SOL    HW2 3118   1.255   3.526   1.388 -0.7357 -1.2267 -0.4487
    1SOL    HW3 3119   1.152   3.629   1.429 -0.0782 -1.1410  1.0150
    1SOL    MW4 3120   1.193   3.584   1.367 -0.0646 -0.2160  0.3296
    1SOL     OW 3121   0.134   4.064   1.465 -0.0577 -0.1926  0.0864
    1SOL    HW2 3122   0.062   4.111   1.506  0.6826  0.0920  1.0650
    1SOL    HW3 3123   0.092   3.986   1.426 -0.9787  0.2882  0.0938
    1SOL    MW4 3124   0.119   4.060   1.465 -0.0815 -0.0916  0.2165
    1SOL     OW 3125   1.518   2.147   1.426  0.3422  0.1478  0.0039
    1SOL    HW2 3126   1.574   2.082   1.469  0.3985 -0.2149 -0.6055
    1SOL    HW3 3127   1.579   2.204   1.379  0.3057  0.7637  0.6930
    1SOL    MW4 3128   1.533   2.146   1.425  0.3449  0.1812  0.0144
    1SOL     OW 3129   0.217   4.113   0.350  0.6413 -0.3758 -0.3531
    1SOL    HW2 3130   0.157   4.129   0.423 -0.5583  0.2038 -1.4384
    1SOL    HW3 3131   0.288   4.177   0.362 -0.2787  0.6835 -0.4788
    1SOL    MW4 3132   0.219   4.124   0.361  0.3617 -0.1593 -0.5128
    1SOL     OW 3133   0.430   1.401   1.223  0.0248  0.2533 -0.8629
    1SOL    HW2 3134   0.512   1.361   1.194  0.9967  0.7006  1.1853
    1SOL    HW3 3135   0.401   1.346   1.296 -0.1976  1.5467  0.0405
    1SOL    MW4 3136   0.437   1.388   1.229  0.1237  0.4830 -0.4734
    1SOL     OW 3137   0.612   1.424   1.931 -0.0854 -0.1706 -0.8573
    1SOL    HW2 3138   0.567   1.490   1.983 -1.8642 -0.7998 -1.5423
    1SOL    HW3 3139   0.653   1.473   1.860  1.1283  0.5170  0.3023
    1SOL    MW4 3140   0.612   1.439   1.928 -0.1600 -0.1628 -0.7948
    1SOL     OW 3141   4.176   0.005   1.920 -0.2639 -0.3198  0.3415
    1SOL    HW2 3142   4.101   0.064   1.913 -0.8595 -1.1745 -0.5677
    1SOL    HW3 3143   4.138  -0.083   1.914  0.7573 -0.7688  0.4191
    1SOL    MW4 3144   4.161   0.001   1.919 -0.2079 -0.4918  0.2319
    1SOL     OW 3145   3.500   1.127   1.105 -0.2759 -0.0890  0.1557
    1SOL    HW2 3146   3.535   1.168   1.183 -0.3467 -0.0426  0.1634
    1SOL    HW3 3147   3.406   1.117   1.123 -0.2396 -0.3578  0.1999
    1SOL    MW4 3148   3.492   1.131   1.118 -0.2804 -0.1184  0.1625
    1SOL     OW 3149   0.828   3.938   1.068  0.3393  0.1020 -0.0685
    1SOL    HW2 3150   0.901   3.990   1.103  0.3133 -0.2250  0.4777
    1SOL    HW3 3151   0.869   3.879   1.005  0.7980 -1.1966  1.4110
    1SOL    MW4 3152   0.843   3.937   1.064  0.3964 -0.1123  0.1986
    1SOL     OW 3153   1.227   4.199   0.948 -0.4357 -0.1975  0.0648
    1SOL    HW2 3154   1.164   4.162   1.010 -0.5501  0.0796  0.1126
    1SOL    HW3 3155   1.271   4.268   0.997 -0.9948  0.4711 -0.3702
    1SOL    MW4 3156   1.225   4.203   0.963 -0.5245 -0.0730  0.0137
    1SOL     OW 3157   0.424   2.365   2.117 -0.3417  0.0393 -0.5586
    1SOL    HW2 3158   0.352   2.366   2.054 -0.2413 -0.0464 -0.6750
    1SOL    HW3 3159   0.456   2.456   2.117  0.4762 -0.2340 -1.5810
    1SOL    MW4 3160   0.419   2.377   2.108 -0.2205 -0.0079 -0.7088
    1SOL     OW 3161   3.996   2.520   0.901 -0.0308  0.1073 -0.6298
    1SOL    HW2 3162   4.020   2.603   0.860  1.7169  0.5640  1.2325
    1SOL    HW3 3163   4.075   2.466   0.895  0.0559 -0.0569  1.4315
    1SOL    MW4 3164   4.010   2.524   0.895  0.2117  0.1459 -0.1121
    1SOL     OW 3165   1.734   2.757   1.820  0.2821 -0.3984 -0.1885
    1SOL    HW2 3166   1.804   2.809   1.782 -0.5987  1.0150  0.0789
    1SOL    HW3 3167   1.654   2.789   1.778 -0.4972 -0.1548  1.4045
    1SOL    MW4 3168   1.732   2.768   1.810  0.0631 -0.1798  0.0570
    1SOL     OW 3169   2.574   1.614   1.367 -0.3467 -0.0743  0.2449
    1SOL    HW2 3170   2.638   1.547   1.344  0.1688  1.2831 -2.4640
    1SOL    HW3 3171   2.624   1.679   1.416  0.1199  0.4066 -0.8512
    1SOL    MW4 3172   2.589   1.614   1.371 -0.2172  0.1683 -0.2570
    1SOL     OW 3173   0.985   3.498   1.189 -0.3708  0.1409  0.1727
    1SOL    HW2 3174   1.019   3.450   1.113 -0.4791 -1.1730  0.9499
    1SOL    HW3 3175   1.064   3.532   1.232 -0.3856  2.4820 -1.5246
    1SOL    MW4 3176   1.000   3.496   1.185 -0.3871  0.2766  0.0513
    1SOL     OW 3177   0.655   0.942   1.267  0.1432  0.1915 -0.0432
    1SOL    HW2 3178   0.567   0.973   1.243  0.8450  1.8311 -0.5764
    1SOL    HW3 3179   0.695   0.917   1.184  0.0803 -0.8640  0.2344
    1SOL    MW4 3180   0.648   0.943   1.253  0.2275  0.2685 -0.0770
    1SOL     OW 3181   2.673   3.237   2.082 -0.0157 -0.0754  0.2001
    1SOL    HW2 3182   2.755   3.258   2.038 -0.2648  1.4998  0.4755
    1SOL    HW3 3183   2.693   3.159   2.133  1.5768  0.8499  1.0277
    1SOL    MW4 3184   2.686   3.229   2.083  0.1614  0.2544  0.3455
    1SOL     OW 3185   0.033   0.447   0.361  0.0846  0.2016  0.1132
    1SOL    HW2 3186  -0.017   0.527   0.378 -0.3757  0.2107 -1.2234
    1SOL    HW3 3187   0.124   0.477   0.358 -0.1845  0.9192 -1.6506
    1SOL    MW4 3188   0.038   0.462   0.363 -0.0116  0.2975 -0.2958
    1SOL     OW 3189   0.045   4.454   1.748 -0.0232 -0.4396 -0.1305
    1SOL    HW2 3190   0.039   4.428   1.840  1.9185  0.4509  0.2526
    1SOL    HW3 3191  -0.034   4.507   1.733  0.2728  0.4349  1.3377
    1SOL    MW4 3192   0.034   4.457   1.758  0.2720 -0.2069  0.1136
    1SOL     OW 3193   0.864   0.747   1.610 -0.1086 -0.4111 -0.8779
    1SOL    HW2 3194   0.947   0.793   1.600 -0.3670  0.5798  1.2023
    1SOL    HW3 3195   0.889   0.657   1.632  0.4164 -0.1272 -0.3027
    1SOL    MW4 3196   0.878   0.741   1.612 -0.0734 -0.2429 -0.5276
    1SOL     OW 3197   0.276   2.847   2.595  0.8490 -0.4469  0.1244
    1SOL    HW2 3198   0.310   2.892   2.518 -0.8085 -0.0250 -0.3654
    1SOL    HW3 3199   0.212   2.907   2.633  0.6899 -1.2027  1.0904
    1SOL    MW4 3200   0.272   2.861   2.590  0.6093 -0.4911  0.1872
    1SOL     OW 3201   4.370   3.631   0.802 -0.2667 -0.1428  0.3270
    1SOL    HW2 3202   4.285   3.674   0.795  0.1686  0.7195  0.2575
    1SOL    HW3 3203   4.417   3.658   0.722  0.2839 -0.1340  0.6530
    1SOL    MW4 3204   4.365   3.640   0.790 -0.1369 -0.0277  0.3608
    1SOL     OW 3205   4.183   0.941   1.453 -0.2506 -0.0412 -0.0920
    1SOL    HW2 3206   4.149   1.022   1.490 -0.5074  0.5744 -1.6173
    1SOL    HW3 3207   4.273   0.962   1.427  0.1342 -0.6417  0.7555
    1SOL    MW4 3208   4.190   0.954   1.454 -0.2337 -0.0392 -0.1814
    1SOL     OW 3209   1.087   0.307   1.604  0.3257 -0.2755 -0.0393
    1SOL    HW2 3210   1.117   0.284   1.692 -1.8223 -1.8666  0.3110
    1SOL    HW3 3211   1.008   0.359   1.619 -0.4070 -1.0990 -1.0424
    1SOL    MW4 3212   1.081   0.311   1.618 -0.0545 -0.5941 -0.1254
    1SOL     OW 3213   1.453   4.133   1.236 -0.2348  0.4341 -0.4450
    1SOL    HW2 3214   1.365   4.109   1.265 -0.5428  0.2680 -1.4675
    1SOL    HW3 3215   1.450   4.228   1.229  0.0665  0.5393  0.7418
    1SOL    MW4 3216   1.441   4.142   1.239 -0.2357  0.4258 -0.4233
    1SOL     OW 3217   2.058   2.370   0.303  0.5677  0.1543  0.5087
    1SOL    HW2 3218   2.008   2.450   0.284 -0.1904 -0.3913  0.1828
    1SOL    HW3 3219   2.146   2.402   0.324  0.7155  0.9638 -1.2280
    1SOL    MW4 3220   2.063   2.385   0.303  0.4871  0.1891  0.2365
    1SOL     OW 3221   1.462   4.548   1.449 -0.0007 -0.1866  0.1191
    1SOL    HW2 3222   1.368   4.528   1.452 -0.3405  0.8878 -2.3476
    1SOL    HW3 3223   1.466   4.637   1.414  1.9369 -0.1011  0.5176
    1SOL    MW4 3224   1.450   4.557   1.445  0.2102 -0.0334 -0.1538
    1SOL     OW 3225   2.547   1.995   1.172  0.0739 -0.5869 -0.2366
    1SOL    HW2 3226   2.543   1.999   1.267 -0.4263  0.9615 -0.3168
    1SOL    HW3 3227   2.631   2.036   1.150 -1.2238  1.9545 -0.6106
    1SOL    MW4 3228   2.558   2.001   1.181 -0.1633 -0.0472 -0.2966
    1SOL     OW 3229   0.758   0.430   1.154 -0.0212 -0.6051  0.2490
    1SOL    HW2 3230   0.717   0.488   1.089 -0.4876  0.2359  1.2893
    1SOL    HW3 3231   0.741   0.342   1.121 -0.0380 -0.1764 -0.9118
    1SOL    MW4 3232   0.750   0.426   1.141 -0.0850 -0.4376  0.2332
    1SOL     OW 3233   2.856   4.348   1.403  0.2673 -0.2010  0.1313
    1SOL    HW2 3234   2.898   4.270   1.367  0.0329 -0.4168  0.3220
    1SOL    HW3 3235   2.811   4.388   1.328 -1.4737 -1.4755  0.4757
    1SOL    MW4 3236   2.855   4.343   1.388  0.0067 -0.3977  0.2019
    1SOL     OW 3237   2.829   0.355   2.179 -0.5957  0.2890 -0.3585
    1SOL    HW2 3238   2.906   0.318   2.222 -1.5025 -1.5758 -0.2544
    1SOL    HW3 3239   2.852   0.359   2.087 -0.1023  0.4672 -0.2284
    1SOL    MW4 3240   2.842   0.351   2.173 -0.6502  0.0665 -0.3273
    1SOL     OW 3241   0.461   2.903   0.748  0.2727  0.2204 -0.1075
    1SOL    HW2 3242   0.537   2.930   0.697 -0.6205 -0.0450 -1.6022
    1SOL    HW3 3243   0.413   2.984   0.764  0.9225  0.4060  0.9433
    1SOL    MW4 3244   0.465   2.917   0.744  0.2406  0.2100 -0.1660
    1SOL     OW 3245   0.377   2.426   0.633 -0.0995  0.3485  0.2123
    1SOL    HW2 3246   0.450   2.488   0.641  1.3424 -1.2538 -0.2769
    1SOL    HW3 3247   0.419   2.340   0.635 -2.0074 -0.5969  0.0479
    1SOL    MW4 3248   0.392   2.423   0.634 -0.1610  0.0122  0.1261
    1SOL     OW 3249   1.286   2.047   0.981  0.2805  0.3613  0.2213
    1SOL    HW2 3250   1.217   2.101   0.942  0.6144  0.1061 -0.7259
    1SOL    HW3 3251   1.335   2.108   1.037 -0.1131  0.7554  0.1380
    1SOL    MW4 3252   1.284   2.062   0.983  0.2726  0.3796  0.0853
    1SOL     OW 3253   0.977   1.003   1.006  0.2360 -0.0893 -0.2102
    1SOL    HW2 3254   1.047   0.964   0.954 -0.6526  0.1989 -1.6776
    1SOL    HW3 3255   0.929   0.928   1.041  1.0682 -0.2879  0.5020
    1SOL    MW4 3256   0.980   0.988   1.004  0.2286 -0.0774 -0.3099
    1SOL     OW 3257   1.161   2.927   1.564  0.4902 -0.3953  0.0848
    1SOL    HW2 3258   1.068   2.952   1.564  0.6417  0.1669  0.5137
    1SOL    HW3 3259   1.164   2.848   1.510 -0.2547 -0.4686  0.1397
    1SOL    MW4 3260   1.149   2.920   1.557  0.4120 -0.3309  0.1487
    1SOL     OW 3261   0.510   2.646   2.102 -0.8451  0.2532 -0.1026
    1SOL    HW2 3262   0.544   2.697   2.175 -0.5108 -0.0433 -0.0514
    1SOL    HW3 3263   0.450   2.706   2.057 -0.7671  0.5565  0.1938
    1SOL    MW4 3264   0.506   2.661   2.106 -0.7907  0.2542 -0.0567
    1SOL     OW 3265   1.511   2.458   2.052 -0.0942 -0.0583  0.2626
    1SOL    HW2 3266   1.431   2.485   2.098 -0.4764  1.8428 -1.4126
    1SOL    HW3 3267   1.571   2.532   2.064  0.0110  0.2067 -1.7275
    1SOL    MW4 3268   1.508   2.472   2.059 -0.1308  0.2275 -0.2210
    1SOL     OW 3269   2.808   0.041   0.604  0.5370  0.4985  0.2580
    1SOL    HW2 3270   2.884  -0.014   0.590  0.3195 -0.4560  2.5971
    1SOL    HW3 3271   2.735  -0.008   0.567  0.6638  0.1944  0.4142
    1SOL    MW4 3272   2.808   0.027   0.597  0.5248  0.3323  0.5873
    1SOL     OW 3273   1.746   2.312   1.007  0.3890 -0.0921  0.1815
    1SOL    HW2 3274   1.813   2.243   1.009  0.1489 -0.3184  1.0087
    1SOL    HW3 3275   1.692   2.291   0.931  1.0681 -0.0861 -0.3091
    1SOL    MW4 3276   1.747   2.300   0.998  0.4469 -0.1211  0.2260
    1SOL     OW 3277   1.498   2.817   1.708  0.0654  0.0260  0.2054
    1SOL    HW2 3278   1.465   2.730   1.730 -0.8276  0.6277  1.3164
    1SOL    HW3 3279   1.504   2.817   1.613 -1.0423 -0.8628  0.1294
    1SOL    MW4 3280   1.494   2.806   1.698 -0.1986 -0.0117  0.3420
    1SOL     OW 3281   3.410   4.237   1.120 -0.4069  0.2219  0.2064
    1SOL    HW2 3282   3.502   4.258   1.128  0.0244 -0.9843 -1.3295
    1SOL    HW3 3283   3.390   4.187   1.200  0.6248 -0.7687 -0.1498
    1SOL    MW4 3284   3.419   4.233   1.132 -0.2139 -0.0677 -0.0433
    1SOL     OW 3285   1.297   0.698   1.498 -0.6737  0.5817 -0.2795
    1SOL    HW2 3286   1.246   0.619   1.482 -0.0547 -0.2299  1.5017
    1SOL    HW3 3287   1.232   0.768   1.507 -1.3179  0.0183 -0.5357
    1SOL    MW4 3288   1.282   0.697   1.497 -0.6770  0.4003 -0.0782
    1SOL     OW 3289   0.716   3.904   0.370  0.1838  0.1016 -0.1873
    1SOL    HW2 3290   0.704   3.999   0.375  0.9520  0.2165 -0.4038
    1SOL    HW3 3291   0.640   3.868   0.415 -1.0194  0.7898 -1.6206
    1SOL    MW4 3292   0.705   3.912   0.376  0.1265  0.2074 -0.4050
    1SOL     OW 3293   0.860   3.915   1.646  0.2423  0.1038  0.0071
    1SOL    HW2 3294   0.793   3.850   1.667 -0.0887  0.8408  1.2724
    1SOL    HW3 3295   0.817   3.977   1.587  0.4390 -0.5939 -0.8750
    1SOL    MW4 3296   0.846   3.914   1.641  0.2246  0.1090  0.0577
    1SOL     OW 3297   1.751   4.590   0.650 -0.8578 -0.1404 -0.2037
    1SOL    HW2 3298   1.737   4.496   0.656  0.6591 -0.4031 -0.4965
    1SOL    HW3 3299   1.762   4.607   0.556  0.4381  0.0601 -0.0364
    1SOL    MW4 3300   1.751   4.580   0.638 -0.4867 -0.1483 -0.2202
    1SOL     OW 3301   1.836   3.564   1.506 -0.2691 -0.1006  0.6114
    1SOL    HW2 3302   1.920   3.528   1.477 -1.7466 -2.3216 -1.1342
    1SOL    HW3 3303   1.812   3.509   1.581 -0.9117 -0.5799  0.0693
    1SOL    MW4 3304   1.844   3.552   1.512 -0.5488 -0.4568  0.3096
    1SOL     OW 3305   1.063   0.717   1.940  0.0597 -0.2093 -0.0667
    1SOL    HW2 3306   0.995   0.664   1.983 -0.2128 -0.6362 -1.0091
    1SOL    HW3 3307   1.015   0.772   1.879  0.2987  1.4718  1.2327
    1SOL    MW4 3308   1.048   0.717   1.937  0.0554 -0.0438 -0.0197
    1SOL     OW 3309   0.727   4.113   1.465  0.2169 -0.7653  0.1962
    1SOL    HW2 3310   0.655   4.058   1.434  0.3378 -1.0996  0.5064
    1SOL    HW3 3311   0.684   4.185   1.511  0.0303 -0.1223 -0.9819
    1SOL    MW4 3312   0.712   4.115   1.467  0.2082 -0.7248  0.0818
    1SOL     OW 3313   0.876   0.523   2.032  0.1868  0.4183 -0.1419
    1SOL    HW2 3314   0.873   0.446   1.974  0.5599  0.1123  0.2440
    1SOL    HW3 3315   0.857   0.488   2.119 -0.1625  0.8465 -0.0480
    1SOL    MW4 3316   0.873   0.508   2.036  0.1899  0.4345 -0.0784
    1SOL     OW 3317   0.937   0.699   2.571  0.0104  0.2724 -0.0741
    1SOL    HW2 3318   0.888   0.773   2.537  0.5473  0.7238  0.1378
    1SOL    HW3 3319   0.976   0.658   2.494 -0.2826  0.2116 -0.1889
    1SOL    MW4 3320   0.936   0.703   2.556  0.0425  0.3239 -0.0613
    1SOL     OW 3321   1.660   1.280   2.087 -0.1024 -0.0271 -0.0118
    1SOL    HW2 3322   1.647   1.258   1.995  1.3464  0.8089 -0.4400
    1SOL    HW3 3323   1.598   1.351   2.104  0.2861  0.4764 -0.6297
    1SOL    MW4 3324   1.650   1.287   2.077  0.1401  0.1496 -0.1497
    1SOL     OW 3325   1.191   0.880   0.874 -0.6403  0.0589 -0.1952
    1SOL    HW2 3326   1.149   0.831   0.803 -0.5305 -1.2876  0.6529
    1SOL    HW3 3327   1.275   0.907   0.837 -1.4727  1.2094 -1.2858
    1SOL    MW4 3328   1.197   0.877   0.860 -0.7356  0.0331 -0.2273
    1SOL     OW 3329   2.420   0.373   1.771 -0.0672  0.1222 -0.0374
    1SOL    HW2 3330   2.490   0.418   1.819 -0.3785  0.4643  0.0927
    1SOL    HW3 3331   2.466   0.307   1.719  0.4114  0.7003 -0.3639
    1SOL    MW4 3332   2.435   0.370   1.770 -0.0451  0.2436 -0.0634
    1SOL     OW 3333   2.791   0.594   1.371  0.6490 -0.3561  0.0537
    1SOL    HW2 3334   2.835   0.509   1.376 -0.0613 -0.7345  0.0097
    1SOL    HW3 3335   2.698   0.572   1.366  0.5624  0.3573 -2.0357
    1SOL    MW4 3336   2.785   0.580   1.371  0.5441 -0.3119 -0.2278
    1SOL     OW 3337   1.572   0.074   0.799 -0.0742 -0.0443  0.4364
    1SOL    HW2 3338   1.621   0.021   0.737 -0.9417  0.0728 -0.3577
    1SOL    HW3 3339   1.608   0.162   0.789 -0.5789  0.0845 -0.2976
    1SOL    MW4 3340   1.583   0.078   0.789 -0.2553 -0.0119  0.2348
    1SOL     OW 3341   3.196   1.917   1.318 -0.1936 -0.0749 -0.0362
    1SOL    HW2 3342   3.255   1.985   1.352  0.4409 -0.9390  0.6461
    1SOL    HW3 3343   3.192   1.852   1.389 -2.2301  0.1206  0.0522
    1SOL    MW4 3344   3.203   1.917   1.332 -0.3786 -0.1632  0.0654
    1SOL     OW 3345   0.967   3.779   0.901  0.0095 -0.2335  0.0915
    1SOL    HW2 3346   0.995   3.839   0.832 -1.1883  0.3375  0.0919
    1SOL    HW3 3347   1.047   3.735   0.928  0.5046 -0.4072 -1.6142
    1SOL    MW4 3348   0.981   3.781   0.896 -0.0832 -0.1812 -0.1335
    1SOL     OW 3349   2.845   3.249   1.578  0.2261 -0.1204 -0.3895
    1SOL    HW2 3350   2.797   3.231   1.498  1.0361 -2.5119 -0.3669
    1SOL    HW3 3351   2.875   3.164   1.608  1.8314  0.9853  1.2643
    1SOL    MW4 3352   2.843   3.236   1.572  0.5445 -0.2902 -0.1684
    1SOL     OW 3353   0.157   2.679   1.226 -0.0906  0.2965  0.0790
    1SOL    HW2 3354   0.178   2.761   1.271 -0.6791  0.0436  0.8429
    1SOL    HW3 3355   0.160   2.612   1.295 -1.8063  0.0219 -0.0766
    1SOL    MW4 3356   0.160   2.681   1.241 -0.3947  0.2270  0.1593
    1SOL     OW 3357   1.056   3.027   0.878 -0.3154 -0.5869  0.1597
    1SOL    HW2 3358   1.059   3.067   0.791  0.1606  1.5273  1.1114
    1SOL    HW3 3359   0.979   3.064   0.920  0.9823  0.5789  1.6107
    1SOL    MW4 3360   1.047   3.037   0.872 -0.0814 -0.1543  0.4767
    1SOL     OW 3361   2.153   2.347   2.564  0.1293  0.4962  0.2179
    1SOL    HW2 3362   2.211   2.286   2.610 -0.0399 -0.1761 -0.4652
    1SOL    HW3 3363   2.203   2.375   2.488 -0.0705  0.6681  0.1491
    1SOL    MW4 3364   2.167   2.343   2.560  0.0806  0.4301  0.1187
    1SOL     OW 3365   2.753   2.488   1.570  0.2229 -0.0272 -0.0266
    1SOL    HW2 3366   2.664   2.503   1.603  0.5199 -1.9942  1.8452
    1SOL    HW3 3367   2.743   2.426   1.498  0.0649 -0.5321  0.4187
    1SOL    MW4 3368   2.740   2.481   1.565  0.2410 -0.3536  0.2791
    1SOL     OW 3369   2.175   2.085   2.290 -0.1170  0.2042 -0.1338
    1SOL    HW2 3370   2.250   2.133   2.326  0.9175 -0.5597 -1.2387
    1SOL    HW3 3371   2.156   2.130   2.207  0.0636 -0.5140 -0.5657
    1SOL    MW4 3372   2.182   2.098   2.284  0.0434  0.0083 -0.3366
    1SOL     OW 3373   2.554   3.295   1.199  0.3155  0.0380  0.1503
    1SOL    HW2 3374   2.488   3.292   1.268 -1.3289 -0.1443 -1.3922
    1SOL    HW3 3375   2.568   3.388   1.184 -0.4642  0.0834 -0.3234
    1SOL    MW4 3376   2.547   3.307   1.206 -0.0045  0.0198 -0.1158
    1SOL     OW 3377   3.775   4.164   1.911  0.3015 -0.2212 -0.7169
    1SOL    HW2 3378   3.746   4.195   1.825 -0.4540 -0.5755 -0.5951
    1SOL    HW3 3379   3.721   4.087   1.928  0.4965 -0.1933  0.0514
    1SOL    MW4 3380   3.764   4.158   1.901  0.2275 -0.2642 -0.5995
    1SOL     OW 3381   1.707   3.511   2.351 -0.4204 -0.2982  0.4568
    1SOL    HW2 3382   1.702   3.508   2.447 -1.6370 -0.9233  0.3858
    1SOL    HW3 3383   1.622   3.479   2.322 -0.7795  1.7494 -0.8158
    1SOL    MW4 3384   1.695   3.507   2.360 -0.6281 -0.1101  0.2794
    1SOL     OW 3385   1.956   4.017   0.464  0.0556 -0.2362 -0.0980
    1SOL    HW2 3386   1.865   4.007   0.436 -0.0836  1.3553 -0.2123
    1SOL    HW3 3387   2.007   4.007   0.384 -0.0090 -0.9858 -0.0554
    1SOL    MW4 3388   1.951   4.014   0.450  0.0288 -0.1254 -0.1075
    1SOL     OW 3389   1.098   4.158   2.316 -0.2888  0.4651 -0.7336
    1SOL    HW2 3390   1.111   4.156   2.410 -1.1043  1.6433 -0.5930
    1SOL    HW3 3391   1.156   4.089   2.282 -1.3877 -1.2539  0.7777
    1SOL    MW4 3392   1.108   4.148   2.324 -0.5416  0.3934 -0.5155
    1SOL     OW 3393   2.649   3.960   2.758  0.5993  0.6159 -0.2275
    1SOL    HW2 3394   2.636   3.979   2.665 -1.0051 -0.3373 -0.2200
    1SOL    HW3 3395   2.694   3.876   2.760  0.2980  0.4541 -0.1467
    1SOL    MW4 3396   2.653   3.951   2.746  0.3481  0.4687 -0.2160
    1SOL     OW 3397   4.036   0.097   0.872 -0.4789 -0.0730 -0.1049
    1SOL    HW2 3398   4.015   0.060   0.786 -0.0981  0.4728 -0.4397
    1SOL    HW3 3399   4.094   0.033   0.913 -0.0932 -0.0050 -0.5457
    1SOL    MW4 3400   4.041   0.084   0.866 -0.3786  0.0080 -0.2073
    1SOL     OW 3401   2.313   0.564   2.557  0.2479 -0.6853  0.1171
    1SOL    HW2 3402   2.263   0.646   2.550 -0.8444 -1.2785  0.9032
    1SOL    HW3 3403   2.358   0.557   2.473  0.6525  0.9217  0.1873
    1SOL    MW4 3404   2.312   0.574   2.545  0.1571 -0.5515  0.2301
    1SOL     OW 3405   0.644   1.067   2.431 -0.3503  0.1356  0.2056
    1SOL    HW2 3406   0.704   1.048   2.359  2.2115 -0.5858  2.4344
    1SOL    HW3 3407   0.574   1.118   2.391  0.1371 -1.6346 -3.1035
    1SOL    MW4 3408   0.643   1.071   2.416  0.0521 -0.1931  0.0627
    1SOL     OW 3409   4.446   1.396   0.458  0.1081  0.0160  0.1477
    1SOL    HW2 3410   4.443   1.444   0.375  0.3759 -0.8578 -0.3748
    1SOL    HW3 3411   4.404   1.313   0.438 -0.4703  0.0882  1.0847
    1SOL    MW4 3412   4.440   1.391   0.444  0.0668 -0.0896  0.2024
    1SOL     OW 3413   3.443   1.706   1.451 -0.2376  0.2596  0.1098
    1SOL    HW2 3414   3.464   1.799   1.446  1.3790 -0.1442 -0.7020
    1SOL    HW3 3415   3.355   1.704   1.489 -0.2391  2.1054  0.2534
    1SOL    MW4 3416   3.434   1.718   1.455 -0.0243  0.4498  0.0215
    1SOL     OW 3417   4.444   0.048   0.945  0.2676 -0.4396 -0.2198
    1SOL    HW2 3418   4.489   0.039   0.861 -0.3541  1.9203 -0.8253
    1SOL    HW3 3419   4.514   0.069   1.007  0.3569  0.6742 -0.6888
    1SOL    MW4 3420   4.459   0.050   0.942  0.1974  0.0187 -0.3616
    1SOL     OW 3421   4.399   1.785   1.635  0.0314  0.1354  0.2239
    1SOL    HW2 3422   4.457   1.733   1.692  2.0631  2.0137 -0.0616
    1SOL    HW3 3423   4.311   1.768   1.670  0.8983 -1.3458  1.8315
    1SOL    MW4 3424   4.395   1.776   1.647  0.4139  0.1879  0.3983
    1SOL     OW 3425   2.738   0.007   0.871  0.6018  0.0232 -0.1136
    1SOL    HW2 3426   2.675   0.075   0.896 -0.0101 -0.1342 -1.2093
    1SOL    HW3 3427   2.749   0.018   0.777 -0.3579 -2.1319 -0.5029
    1SOL    MW4 3428   2.731   0.018   0.862  0.3946 -0.2823 -0.3095
    1SOL     OW 3429   2.434   2.023   0.892 -0.0798 -0.1089  0.1358
    1SOL    HW2 3430   2.393   1.937   0.898 -2.1944  1.0139  2.8616
    1SOL    HW3 3431   2.476   2.036   0.977  1.6993  0.8645 -0.8528
    1SOL    MW4 3432   2.434   2.013   0.904 -0.1242  0.1676  0.3650
    1SOL     OW 3433   1.072   0.204   0.193  0.3793 -0.2619 -0.1770
    1SOL    HW2 3434   0.999   0.242   0.242 -0.7661 -0.8733 -1.3567
    1SOL    HW3 3435   1.060   0.109   0.203  1.2619 -0.3602 -0.0346
    1SOL    MW4 3436   1.060   0.196   0.201  0.3448 -0.3556 -0.3138
    1SOL     OW 3437   1.963   1.320   1.530 -0.4519  0.1692 -0.3411
    1SOL    HW2 3438   1.889   1.345   1.585 -0.1209 -0.7144  0.5249
    1SOL    HW3 3439   1.953   1.226   1.517  0.5347  0.0369 -0.1920
    1SOL    MW4 3440   1.952   1.311   1.536 -0.2780  0.0353 -0.2072
    1SOL     OW 3441   3.952   2.938   0.604  0.2146  0.1286  0.1237
    1SOL    HW2 3442   3.983   2.947   0.513  0.7889 -0.9904  0.1913
    1SOL    HW3 3443   3.889   3.009   0.615 -0.4401 -0.1845 -1.4045
    1SOL    MW4 3444   3.948   2.948   0.593  0.2041 -0.0601 -0.0691
    1SOL     OW 3445   1.181   2.870   2.154  0.2134  0.1595 -0.5444
    1SOL    HW2 3446   1.255   2.907   2.107  1.0241 -0.3322  0.3398
    1SOL    HW3 3447   1.156   2.938   2.217 -0.8891  0.8290 -1.6769
    1SOL    MW4 3448   1.187   2.884   2.156  0.1750  0.1831 -0.5772
    1SOL     OW 3449   1.345   2.459   1.549  0.1773 -0.1769 -0.3405
    1SOL    HW2 3450   1.273   2.513   1.517 -0.2203 -1.4399 -1.6450
    1SOL    HW3 3451   1.351   2.480   1.642 -1.1974  0.7065 -0.4355
    1SOL    MW4 3452   1.336   2.469   1.557 -0.0564 -0.2270 -0.5251
    1SOL     OW 3453   2.407   3.894   0.967  0.1758  0.0009  0.0278
    1SOL    HW2 3454   2.395   3.840   1.045 -0.8111  1.3516  0.8409
    1SOL    HW3 3455   2.375   3.839   0.895 -2.5733  0.1383  1.0721
    1SOL    MW4 3456   2.401   3.880   0.968 -0.3171  0.1974  0.2728
    1SOL     OW 3457   3.046   3.802   1.629 -0.0292 -0.8065  0.1840
    1SOL    HW2 3458   3.136   3.772   1.635 -0.1122 -1.4116 -1.4273
    1SOL    HW3 3459   3.051   3.897   1.640  0.9299 -0.7142 -0.9542
    1SOL    MW4 3460   3.058   3.810   1.631  0.0865 -0.8738 -0.1788
    1SOL     OW 3461   2.954   3.013   1.868 -0.3939 -0.0590  0.0499
    1SOL    HW2 3462   3.018   2.956   1.825 -0.5414  0.2757 -0.6136
    1SOL    HW3 3463   2.873   2.999   1.820 -0.5209  0.4312  0.1189
    1SOL    MW4 3464   2.952   3.004   1.856 -0.4296  0.0498 -0.0286
    1SOL     OW 3465   2.025   3.609   2.316  0.0288 -0.1238  0.2091
    1SOL    HW2 3466   2.041   3.574   2.228  0.8763  0.5022  0.1100
    1SOL    HW3 3467   1.945   3.661   2.307 -0.7117 -1.2730  0.1475
    1SOL    MW4 3468   2.017   3.611   2.303  0.0432 -0.1929  0.1879
    1SOL     OW 3469   3.417   2.718   1.659  0.3120  0.0612 -0.0118
    1SOL    HW2 3470   3.415   2.806   1.622 -2.6338 -0.0967 -0.3655
    1SOL    HW3 3471   3.405   2.730   1.753  2.1876  0.1378  0.2370
    1SOL    MW4 3472   3.415   2.731   1.666  0.1707  0.0505 -0.0256
    1SOL     OW 3473   0.700   3.174   1.763 -0.6511  0.0321  0.0070
    1SOL    HW2 3474   0.692   3.185   1.668 -0.5105 -1.7862 -0.2261
    1SOL    HW3 3475   0.642   3.101   1.784  0.6870 -0.7686  1.0463
    1SOL    MW4 3476   0.692   3.166   1.753 -0.4560 -0.3133  0.1132
    1SOL     OW 3477   3.896   3.713   0.256 -0.0465 -0.4011 -0.1233
    1SOL    HW2 3478   3.937   3.795   0.228  0.3676 -0.0731  1.4345
    1SOL    HW3 3479   3.803   3.733   0.261  0.0636  0.0030  0.3423
    1SOL    MW4 3480   3.889   3.726   0.253  0.0226 -0.3047  0.1436
    1SOL     OW 3481   1.823   3.748   0.815  0.2280 -0.1672 -0.0024
    1SOL    HW2 3482   1.733   3.720   0.799 -0.1706  0.2248  1.4732
    1SOL    HW3 3483   1.871   3.721   0.736 -0.9156 -1.5247 -0.2567
    1SOL    MW4 3484   1.817   3.741   0.802  0.0246 -0.2944  0.1587
    1SOL     OW 3485   0.517   0.441   2.067  0.0116  0.1498 -0.0544
    1SOL    HW2 3486   0.579   0.372   2.092  0.7245  1.1128  0.8377
    1SOL    HW3 3487   0.571   0.514   2.037 -0.6595  1.2583  1.3982
    1SOL    MW4 3488   0.532   0.441   2.066  0.0172  0.4231  0.2551
    1SOL     OW 3489   3.255   4.192   0.267 -0.1664 -0.1369 -0.2920
    1SOL    HW2 3490   3.184   4.137   0.234 -0.5136 -0.6252  1.2248
    1SOL    HW3 3491   3.219   4.281   0.264 -0.3744 -0.2356 -0.7484
    1SOL    MW4 3492   3.241   4.197   0.262 -0.2398 -0.2141 -0.1521
    1SOL     OW 3493   1.782   0.726   0.436  0.1961  0.1041 -0.1461
    1SOL    HW2 3494   1.714   0.662   0.413 -0.2453  0.2549  0.7474
    1SOL    HW3 3495   1.864   0.678   0.425 -0.1198 -0.5162  0.2020
    1SOL    MW4 3496   1.784   0.711   0.431  0.0960  0.0421  0.0177
    1SOL     OW 3497   2.912   0.201   2.543  0.1465 -0.7121  0.1695
    1SOL    HW2 3498   2.965   0.271   2.581  0.1565 -0.7953  0.3119
    1SOL    HW3 3499   2.940   0.196   2.452 -0.4214 -0.0026 -0.0452
    1SOL    MW4 3500   2.923   0.210   2.536  0.0727 -0.6295  0.1600
    1SOL     OW 3501   2.246   1.818   2.312 -0.5070  0.0778 -0.0791
    1SOL    HW2 3502   2.217   1.907   2.291 -0.2305  0.5534  1.5366
    1SOL    HW3 3503   2.340   1.826   2.326 -0.3304 -0.6408 -0.8105
    1SOL    MW4 3504   2.254   1.831   2.311 -0.4473  0.0457  0.0377
    1SOL     OW 3505   4.206   4.567   0.971 -0.3414  0.0449  0.0333
    1SOL    HW2 3506   4.219   4.490   0.915 -0.1549 -0.8110  1.2429
    1SOL    HW3 3507   4.291   4.612   0.969 -0.0658 -0.4550  0.3271
    1SOL    MW4 3508   4.219   4.562   0.963 -0.2799 -0.1340  0.2317
    1SOL     OW 3509   3.846   4.409   2.035  0.1524  0.5029  0.0717
    1SOL    HW2 3510   3.828   4.315   2.026  0.6761  0.3572  0.6015
    1SOL    HW3 3511   3.793   4.436   2.109  0.2819  0.5541  0.1451
    1SOL    MW4 3512   3.836   4.400   2.043  0.2384  0.4897  0.1516
    1SOL     OW 3513   4.236   1.781   1.176 -0.0667  0.0999 -0.0377
    1SOL    HW2 3514   4.318   1.734   1.159  0.1370  0.4739 -0.0819
    1SOL    HW3 3515   4.184   1.767   1.097  0.0175 -0.0060 -0.0748
    1SOL    MW4 3516   4.240   1.773   1.164 -0.0291  0.1352 -0.0484
    1SOL     OW 3517   2.828   0.741   1.155 -0.2433  0.0357  0.0932
    1SOL    HW2 3518   2.823   0.679   1.227 -0.5661  1.6140  1.4452
    1SOL    HW3 3519   2.910   0.720   1.110  0.0571 -0.8101  1.0330
    1SOL    MW4 3520   2.838   0.730   1.158 -0.2463  0.1323  0.3955
    1SOL     OW 3521   2.308   2.701   1.758  0.2898 -0.6300 -0.1381
    1SOL    HW2 3522   2.294   2.789   1.792 -0.2989 -0.2795 -1.2580
    1SOL    HW3 3523   2.397   2.703   1.722  0.4550 -0.6393  0.2655
    1SOL    MW4 3524   2.318   2.713   1.758  0.2341 -0.5848 -0.2325
    1SOL     OW 3525   2.575   0.925   1.420  0.1836  0.3336  0.2095
    1SOL    HW2 3526   2.564   0.967   1.505 -1.4632 -1.2509  0.8134
    1SOL    HW3 3527   2.520   0.976   1.361  0.1740  0.5477  0.4045
    1SOL    MW4 3528   2.566   0.937   1.423 -0.0348  0.1528  0.3150
    1SOL     OW 3529   1.424   0.798   2.329 -0.1883 -0.4608  0.0469
    1SOL    HW2 3530   1.518   0.811   2.327 -0.1784  0.0947  2.9719
    1SOL    HW3 3531   1.387   0.886   2.318 -0.3583 -0.5485 -0.0855
    1SOL    MW4 3532   1.431   0.811   2.327 -0.2095 -0.3991  0.4151
    1SOL     OW 3533   2.413   3.118   1.021 -0.2641 -0.2569  0.3215
    1SOL    HW2 3534   2.466   3.176   1.076 -0.6541  0.1704  0.2452
    1SOL    HW3 3535   2.339   3.172   0.994  0.0702 -0.3765 -0.8634
    1SOL    MW4 3536   2.411   3.133   1.025 -0.2713 -0.2162  0.1551
    1SOL     OW 3537   0.900   2.423   0.497  0.3283 -0.1178 -0.0563
    1SOL    HW2 3538   0.863   2.427   0.585 -0.7077  0.6652 -0.5132
    1SOL    HW3 3539   0.962   2.496   0.494  0.5250 -0.2764  0.0861
    1SOL    MW4 3540   0.904   2.433   0.508  0.2176 -0.0350 -0.0978
    1SOL     OW 3541   2.370   2.329   0.643  0.2790  0.1480  0.1299
    1SOL    HW2 3542   2.446   2.279   0.614  0.5826  0.0147  1.1300
    1SOL    HW3 3543   2.354   2.392   0.572  1.0464 -0.1208 -0.2842
    1SOL    MW4 3544   2.378   2.331   0.630  0.4203  0.0947  0.2072
    1SOL     OW 3545   3.723   1.678   0.767  0.3343  0.0635  0.1951
    1SOL    HW2 3546   3.699   1.764   0.732 -0.0377 -0.0404  0.1947
    1SOL    HW3 3547   3.681   1.615   0.708  0.1914 -0.1153  0.4873
    1SOL    MW4 3548   3.714   1.681   0.755  0.2663  0.0261  0.2336
    1SOL     OW 3549   1.786   1.189   0.704  0.0005 -0.4560 -0.2617
    1SOL    HW2 3550   1.854   1.244   0.666 -0.6372  0.2066 -0.4671
    1SOL    HW3 3551   1.823   1.101   0.704  1.1045 -0.0034  0.2405
    1SOL    MW4 3552   1.800   1.184   0.699  0.0622 -0.3089 -0.2225
    1SOL     OW 3553   3.305   2.432   0.650  0.1507  0.2120 -0.0973
    1SOL    HW2 3554   3.390   2.411   0.611 -0.2287 -1.4829 -0.0555
    1SOL    HW3 3555   3.323   2.502   0.712  1.8453 -1.3310  1.2270
    1SOL    MW4 3556   3.319   2.438   0.653  0.3240 -0.2151  0.0829
    1SOL     OW 3557   4.322   1.530   1.494 -0.3426 -0.4262  0.0979
    1SOL    HW2 3558   4.382   1.505   1.423 -0.9972  0.0714 -0.6495
    1SOL    HW3 3559   4.363   1.606   1.535 -0.8095  0.3888 -0.9036
    1SOL    MW4 3560   4.335   1.537   1.490 -0.4902 -0.2531 -0.1330
    1SOL     OW 3561   1.707   2.324   1.300 -0.0352  0.2563 -0.1557
    1SOL    HW2 3562   1.699   2.338   1.206 -0.8859 -1.3653 -0.3431
    1SOL    HW3 3563   1.800   2.336   1.318  0.0702  0.9697 -1.1265
    1SOL    MW4 3564   1.718   2.327   1.290 -0.1336  0.1364 -0.3085
    1SOL     OW 3565   2.708   2.937   1.775  0.4451  0.0908  0.3188
    1SOL    HW2 3566   2.642   3.005   1.784  0.7027  0.4099 -0.2401
    1SOL    HW3 3567   2.685   2.873   1.843 -1.0372 -0.2982 -0.5147
    1SOL    MW4 3568   2.696   2.937   1.785  0.2835  0.0818  0.1351
    1SOL     OW 3569   2.767   2.755   1.485 -0.0318  0.6129  0.3671
    1SOL    HW2 3570   2.680   2.774   1.519 -0.7997 -0.9670 -0.6484
    1SOL    HW3 3571   2.784   2.664   1.511  0.9184  0.6172 -0.2278
    1SOL    MW4 3572   2.758   2.745   1.493 -0.0079  0.4048  0.1545
    1SOL     OW 3573   0.981   4.330   1.579  0.1873 -0.0993  0.0622
    1SOL    HW2 3574   0.941   4.369   1.657  0.0868 -0.6880  0.3059
    1SOL    HW3 3575   1.035   4.259   1.613  0.9833  0.3164 -0.3155
    1SOL    MW4 3576   0.983   4.326   1.594  0.2791 -0.1225  0.0446
    1SOL     OW 3577   4.188   3.494   1.246  0.0011 -0.1661 -0.3928
    1SOL    HW2 3578   4.194   3.556   1.319  0.7630 -0.6602 -0.0191
    1SOL    HW3 3579   4.279   3.479   1.220 -0.2692  0.0340 -1.4824
    1SOL    MW4 3580   4.201   3.500   1.252  0.0658 -0.2048 -0.4873
    1SOL     OW 3581   2.669   4.408   0.964  0.2802 -0.0202  0.0477
    1SOL    HW2 3582   2.627   4.356   0.895  0.3827  0.1393 -0.1340
    1SOL    HW3 3583   2.690   4.492   0.922 -1.5415  0.8605  0.8164
    1SOL    MW4 3584   2.666   4.412   0.950  0.0532  0.1173  0.1251
    1SOL     OW 3585   2.314   2.958   1.826  0.3415  0.0673 -0.3119
    1SOL    HW2 3586   2.290   2.958   1.919 -0.4189  1.1492 -0.4994
    1SOL    HW3 3587   2.389   3.017   1.820  0.4254 -0.0445 -0.3827
    1SOL    MW4 3588   2.321   2.966   1.837  0.2525  0.1955 -0.3461
    1SOL     OW 3589   3.607   3.903   0.911  0.1454  0.0508 -0.1632
    1SOL    HW2 3590   3.639   3.933   0.997  0.1617 -1.1311  0.2490
    1SOL    HW3 3591   3.529   3.956   0.895 -1.6622 -1.8531  2.0148
    1SOL    MW4 3592   3.601   3.914   0.920 -0.0908 -0.3564  0.1785
    1SOL     OW 3593   2.475   1.442   2.464 -0.0134  0.1869 -0.5280
    1SOL    HW2 3594   2.470   1.352   2.432 -1.0703 -0.3333  1.0215
    1SOL    HW3 3595   2.536   1.437   2.538  1.5360  1.1524 -1.7140
    1SOL    MW4 3596   2.483   1.430   2.470  0.0517  0.2456 -0.4799
    1SOL     OW 3597   1.287   1.043   2.213  0.0039  0.0249 -0.0537
    1SOL    HW2 3598   1.258   1.105   2.280 -1.5757 -1.2914  0.5111
    1SOL    HW3 3599   1.219   0.976   2.211  1.1204 -1.1054 -1.4529
    1SOL    MW4 3600   1.275   1.042   2.222 -0.0572 -0.2979 -0.1638
    1SOL     OW 3601   2.590   1.626   0.640  0.4683 -0.0386  0.4302
    1SOL    HW2 3602   2.532   1.619   0.716 -0.4071 -0.1526 -0.2373
    1SOL    HW3 3603   2.603   1.720   0.627 -1.0134  0.0609 -0.4828
    1SOL    MW4 3604   2.584   1.637   0.648  0.1576 -0.0405  0.2217
    1SOL     OW 3605   3.806   0.474   0.865 -0.0263  0.1748 -0.6834
    1SOL    HW2 3606   3.871   0.515   0.923  0.0068 -1.9930  0.8750
    1SOL    HW3 3607   3.738   0.541   0.855  0.1610  0.7528  1.5552
    1SOL    MW4 3608   3.805   0.489   0.872  0.0026 -0.0350 -0.1825
    1SOL     OW 3609   1.954   2.112   0.337  0.1684  0.1387  0.4602
    1SOL    HW2 3610   1.986   2.197   0.308  0.4356 -0.0559  0.1818
    1SOL    HW3 3611   1.877   2.132   0.390 -0.8541  0.4475 -1.1057
    1SOL    MW4 3612   1.948   2.126   0.340  0.0689  0.1535  0.2169
    1SOL     OW 3613   3.524   0.210   0.455  0.2017  0.0353 -0.0621
    1SOL    HW2 3614   3.470   0.231   0.531  0.1811  1.5978 -0.4991
    1SOL    HW3 3615   3.610   0.187   0.492 -0.1818 -0.5196  0.4992
    1SOL    MW4 3616   3.528   0.209   0.470  0.1483  0.1682 -0.0457
    1SOL     OW 3617   4.290   1.615   1.922 -0.2762 -0.0223  0.3230
    1SOL    HW2 3618   4.253   1.528   1.934 -0.4733  0.1769  1.2324
    1SOL    HW3 3619   4.223   1.664   1.874  0.2258 -0.6356 -1.0192
    1SOL    MW4 3620   4.276   1.610   1.917 -0.2360 -0.0770  0.2658
    1SOL     OW 3621   3.925   0.677   1.547 -0.4333  0.1506  0.1446
    1SOL    HW2 3622   4.008   0.725   1.550 -0.9249  0.9178  2.0401
    1SOL    HW3 3623   3.865   0.735   1.502 -0.0733 -0.2166 -0.8219
    1SOL    MW4 3624   3.928   0.691   1.541 -0.4508  0.2034  0.2671
    1SOL     OW 3625   0.169   2.644   1.831 -0.0014 -0.0735  0.0513
    1SOL    HW2 3626   0.099   2.631   1.767 -0.5210  1.0410  0.3715
    1SOL    HW3 3627   0.195   2.555   1.856 -0.9841 -0.5085 -0.4128
    1SOL    MW4 3628   0.163   2.630   1.826 -0.1996  0.0160  0.0322
    1SOL     OW 3629   1.878   1.066   1.472 -0.0413 -0.1452  0.3974
    1SOL    HW2 3630   1.783   1.075   1.486 -0.1138  0.0329 -0.2031
    1SOL    HW3 3631   1.902   0.988   1.522 -0.7102 -0.8710 -0.4077
    1SOL    MW4 3632   1.869   1.057   1.481 -0.1391 -0.2176  0.2120
    1SOL     OW 3633   3.682   1.306   0.725 -0.5995  0.0517  0.3376
    1SOL    HW2 3634   3.769   1.319   0.762  0.1353 -2.0328 -0.5841
    1SOL    HW3 3635   3.623   1.312   0.801  0.5469 -0.6818  1.3143
    1SOL    MW4 3636   3.685   1.308   0.740 -0.3512 -0.3200  0.3449
    1SOL     OW 3637   3.670   2.244   1.234 -0.0057 -0.2679  0.4688
    1SOL    HW2 3638   3.604   2.307   1.262 -0.0332  0.1929 -0.6079
    1SOL    HW3 3639   3.624   2.160   1.233 -0.1780 -0.1828  1.1351
    1SOL    MW4 3640   3.655   2.241   1.238 -0.0319 -0.1960  0.4147
    1SOL     OW 3641   3.003   2.375   0.894 -0.0130  0.3226 -0.2114
    1SOL    HW2 3642   3.025   2.437   0.824  0.8818  0.9524  0.6116
    1SOL    HW3 3643   2.968   2.431   0.964  0.4187 -0.1404  0.3794
    1SOL    MW4 3644   3.001   2.391   0.894  0.1621  0.3445 -0.0248
    1SOL     OW 3645   1.291   2.435   2.223 -0.4793  0.4677 -0.0585
    1SOL    HW2 3646   1.241   2.515   2.213 -0.7001  0.3597  0.1602
    1SOL    HW3 3647   1.369   2.461   2.272 -0.7672  0.4699  0.4103
    1SOL    MW4 3648   1.295   2.449   2.228 -0.5466  0.4535  0.0322
    1SOL     OW 3649   1.754   3.317   0.622  0.1106  0.1896  0.3075
    1SOL    HW2 3650   1.731   3.386   0.560 -2.1340 -0.0956  0.7792
    1SOL    HW3 3651   1.691   3.327   0.693  0.1576 -1.9407  0.6720
    1SOL    MW4 3652   1.742   3.327   0.623 -0.1793 -0.1290  0.4178
    1SOL     OW 3653   3.455   3.879   1.335 -0.1560  0.4276  0.2165
    1SOL    HW2 3654   3.366   3.908   1.320 -0.5928 -0.6789  0.6282
    1SOL    HW3 3655   3.475   3.906   1.425 -0.5804 -0.5526  0.6172
    1SOL    MW4 3656   3.446   3.886   1.345 -0.2699  0.1521  0.3237
    1SOL     OW 3657   3.809   2.214   0.637 -0.4236 -0.4192  0.1411
    1SOL    HW2 3658   3.801   2.203   0.731 -0.8502  0.4320  0.2083
    1SOL    HW3 3659   3.807   2.125   0.602 -0.4112 -0.7270  0.9239
    1SOL    MW4 3660   3.808   2.201   0.645 -0.4783 -0.3476  0.2532
    1SOL     OW 3661   3.398   3.163   0.419  0.2312 -0.0965 -0.4120
    1SOL    HW2 3662   3.312   3.125   0.403 -0.3238  0.8979  0.1815
    1SOL    HW3 3663   3.455   3.087   0.433 -0.6663 -0.7372 -0.1795
    1SOL    MW4 3664   3.394   3.148   0.419  0.0396 -0.0498 -0.3030
    1SOL     OW 3665   0.442   4.188   2.761  0.4427  0.4480  0.1447
    1SOL    HW2 3666   0.415   4.230   2.679 -0.2143 -0.0653  0.0960
    1SOL    HW3 3667   0.437   4.094   2.742  1.0933  0.3347  0.5174
    1SOL    MW4 3668   0.438   4.181   2.747  0.4418  0.3657  0.1874
    1SOL     OW 3669   2.277   3.451   2.659 -0.2964  0.2623 -0.2576
    1SOL    HW2 3670   2.372   3.447   2.662 -0.3248  0.4673  0.8079
    1SOL    HW3 3671   2.248   3.367   2.693 -0.5266  0.9960  1.3939
    1SOL    MW4 3672   2.286   3.439   2.664 -0.3307  0.3860  0.1011
    1SOL     OW 3673   3.341   2.862   0.628  0.3331 -0.0943 -0.2426
    1SOL    HW2 3674   3.287   2.839   0.553  0.2398 -0.0374 -0.1935
    1SOL    HW3 3675   3.283   2.911   0.686  0.2533 -0.5978  0.1150
    1SOL    MW4 3676   3.326   2.865   0.626  0.3102 -0.1531 -0.1889
    1SOL     OW 3677   2.980   3.952   1.943 -0.1857 -0.1153  0.0089
    1SOL    HW2 3678   3.028   4.026   1.980 -0.4150  0.9728 -1.7934
    1SOL    HW3 3679   3.039   3.877   1.951  0.8478  0.6979 -0.0069
    1SOL    MW4 3680   2.994   3.952   1.949 -0.0796  0.1357 -0.2308
    1SOL     OW 3681   2.686   0.372   0.829  0.1359  0.3106  0.0308
    1SOL    HW2 3682   2.696   0.458   0.869  1.1670 -0.2251  0.9512
    1SOL    HW3 3683   2.762   0.363   0.771 -0.2871  0.2582 -0.5245
    1SOL    MW4 3684   2.697   0.382   0.826  0.2162  0.2329  0.0790
    1SOL     OW 3685   0.289   4.519   2.331 -0.0841  0.0338  0.4035
    1SOL    HW2 3686   0.311   4.458   2.401 -0.5487  0.4064  0.8749
    1SOL    HW3 3687   0.193   4.524   2.331 -0.0500  0.8395  0.4379
    1SOL    MW4 3688   0.279   4.512   2.340 -0.1409  0.1888  0.4702
    1SOL     OW 3689   2.570   0.473   2.695 -0.0982 -0.4057  1.0183
    1SOL    HW2 3690   2.540   0.441   2.780 -0.8405 -0.8327  0.5954
    1SOL    HW3 3691   2.497   0.524   2.661 -0.0962 -0.8936  0.2804
    1SOL    MW4 3692   2.557   0.476   2.702 -0.1957 -0.5264  0.8650
    1SOL     OW 3693   2.571   0.192   0.990  0.0435 -0.1818 -0.3896
    1SOL    HW2 3694   2.617   0.264   0.948  1.5224 -1.3631 -0.8354
    1SOL    HW3 3695   2.625   0.169   1.066 -0.5251 -0.6763 -0.1210
    1SOL    MW4 3696   2.584   0.198   0.995  0.1636 -0.4029 -0.4130
    1SOL     OW 3697   1.523   0.969   1.726  0.1809 -0.6323 -0.1082
    1SOL    HW2 3698   1.570   0.889   1.749  0.5523  0.1253  1.8893
    1SOL    HW3 3699   1.432   0.950   1.749  0.1316 -0.7905 -0.4404
    1SOL    MW4 3700   1.517   0.956   1.732  0.2234 -0.5532  0.1116
    1SOL     OW 3701   3.062   0.562   3.023 -0.3143  0.7829 -0.0919
    1SOL    HW2 3702   3.098   0.581   2.936 -0.6748  2.1092  0.0228
    1SOL    HW3 3703   3.124   0.603   3.084  1.8288 -3.1311  0.5024
    1SOL    MW4 3704   3.075   0.570   3.019 -0.0792  0.4415  0.0017
    1SOL     OW 3705   3.324   4.158   1.414 -0.3693 -0.2760 -0.4681
    1SOL    HW2 3706   3.288   4.246   1.428  0.1521 -0.2484  0.7212
    1SOL    HW3 3707   3.319   4.116   1.499  0.4640 -1.0070 -0.7705
    1SOL    MW4 3708   3.318   4.164   1.427 -0.1905 -0.3686 -0.3512
    1SOL     OW 3709   4.010   0.310   2.682  0.0470  0.0595 -0.2168
    1SOL    HW2 3710   3.984   0.353   2.601  1.3234  1.5588  0.1658
    1SOL    HW3 3711   4.100   0.282   2.667  0.6495  1.2898  1.0662
    1SOL    MW4 3712   4.018   0.312   2.670  0.2947  0.4196  0.0031
    1SOL     OW 3713   3.573   2.362   0.656 -0.3516  0.6866 -0.7169
    1SOL    HW2 3714   3.649   2.315   0.622 -0.8743 -0.5438 -0.2239
    1SOL    HW3 3715   3.575   2.348   0.750 -0.0159  2.4316 -0.4583
    1SOL    MW4 3716   3.583   2.354   0.664 -0.3762  0.7546 -0.6177
    1SOL     OW 3717   0.461   0.104   0.450 -0.0608  0.6217 -0.3666
    1SOL    HW2 3718   0.407   0.099   0.529 -0.5613  1.3314 -0.6543
    1SOL    HW3 3719   0.472   0.014   0.422  0.6542  0.3088  0.8777
    1SOL    MW4 3720   0.455   0.092   0.457 -0.0325  0.6741 -0.2404
    1SOL     OW 3721   3.590   0.297   0.979  0.0106 -0.2325 -0.3263
    1SOL    HW2 3722   3.684   0.313   0.984  0.1052 -0.7321 -0.4510
    1SOL    HW3 3723   3.554   0.375   0.937  0.2893  0.2334  0.2884
    1SOL    MW4 3724   3.597   0.309   0.974  0.0598 -0.2369 -0.2617
    1SOL     OW 3725   3.369   3.643   1.907  0.1743  0.2890  0.3878
    1SOL    HW2 3726   3.323   3.565   1.876  0.1728  0.4824 -0.1099
    1SOL    HW3 3727   3.460   3.628   1.881  0.4412 -0.1999  1.5765
    1SOL    MW4 3728   3.375   3.631   1.899  0.2091  0.2499  0.4790
    1SOL     OW 3729   0.733   1.520   1.686 -0.1936  0.1932 -0.1194
    1SOL    HW2 3730   0.726   1.436   1.641 -0.9966  0.7722 -1.0986
    1SOL    HW3 3731   0.700   1.584   1.623 -0.5031  1.1268  0.9713
    1SOL    MW4 3732   0.728   1.517   1.672 -0.3403  0.3927 -0.1047
    1SOL     OW 3733   0.032   2.167   1.053  0.5786 -0.3152 -0.0369
    1SOL    HW2 3734  -0.053   2.127   1.073  0.1534  0.3142 -0.5711
    1SOL    HW3 3735   0.015   2.261   1.053  1.4806 -0.1488  0.7777
    1SOL    MW4 3736   0.018   2.174   1.056  0.6415 -0.2103  0.0002
    1SOL     OW 3737   4.197   0.766   0.606 -0.5199  0.2061  0.0356
    1SOL    HW2 3738   4.136   0.836   0.583 -1.8189 -0.1443  2.2962
    1SOL    HW3 3739   4.147   0.685   0.596  0.0981 -0.2122  0.2710
    1SOL    MW4 3740   4.183   0.765   0.602 -0.6094  0.1047  0.3650
    1SOL     OW 3741   0.168   1.090   2.406 -0.3973  0.1282 -0.2683
    1SOL    HW2 3742   0.242   1.066   2.349 -0.6080 -0.5727 -0.2465
    1SOL    HW3 3743   0.201   1.076   2.495 -0.5570 -0.1791 -0.2584
    1SOL    MW4 3744   0.182   1.085   2.410 -0.4462 -0.0048 -0.2639
    1SOL     OW 3745   2.706   2.180   1.545 -0.0808  0.2893 -0.6620
    1SOL    HW2 3746   2.708   2.215   1.455  0.0011 -0.5069 -0.9719
    1SOL    HW3 3747   2.683   2.255   1.599  1.3436  1.1243 -1.1867
    1SOL    MW4 3748   2.703   2.195   1.540  0.1180  0.2944 -0.7721
    1SOL     OW 3749   2.496   3.989   1.729  0.3618  0.0359 -0.1544
    1SOL    HW2 3750   2.591   3.990   1.730  0.3628 -0.4247  0.8402
    1SOL    HW3 3751   2.472   4.053   1.661  1.3822 -1.3170 -1.8327
    1SOL    MW4 3752   2.505   3.997   1.720  0.4966 -0.2034 -0.2446
    1SOL     OW 3753   3.759   2.930   0.977  0.0471  0.0689 -0.6379
    1SOL    HW2 3754   3.710   3.011   0.965 -0.6701 -0.5157 -1.7562
    1SOL    HW3 3755   3.846   2.949   0.942 -0.3080  0.1787 -1.4837
    1SOL    MW4 3756   3.764   2.943   0.971 -0.0944  0.0062 -0.8970
    1SOL     OW 3757   3.806   0.558   1.764 -0.2530 -0.6801  0.2645
    1SOL    HW2 3758   3.826   0.601   1.681 -0.0392 -2.9137 -0.8617
    1SOL    HW3 3759   3.741   0.615   1.806  1.0754  1.4747 -0.5290
    1SOL    MW4 3760   3.800   0.571   1.759 -0.0496 -0.6905  0.0112
    1SOL     OW 3761   4.297   2.014   1.032 -0.2214  0.4669 -0.0849
    1SOL    HW2 3762   4.350   1.975   0.963  0.9523  2.4718 -0.3425
    1SOL    HW3 3763   4.284   1.943   1.095  0.2429 -0.8581 -1.4566
    1SOL    MW4 3764   4.302   2.000   1.031 -0.0048  0.5566 -0.2999
    1SOL     OW 3765   0.735   1.529   2.880  0.0403  1.3368 -0.0673
    1SOL    HW2 3766   0.787   1.593   2.929  1.4782 -0.2887  0.5949
    1SOL    HW3 3767   0.775   1.528   2.793  0.0863  1.2345 -0.0440
    1SOL    MW4 3768   0.747   1.537   2.875  0.2361  1.1089  0.0231
    1SOL     OW 3769   3.971   4.501   1.133  0.1277 -0.1093 -0.4777
    1SOL    HW2 3770   3.887   4.516   1.089  0.0321  1.0068  0.0640
    1SOL    HW3 3771   4.036   4.531   1.071  0.0745 -0.1034 -0.5306
    1SOL    MW4 3772   3.968   4.507   1.119  0.1080  0.0386 -0.4132
    1SOL     OW 3773   4.202   1.092   1.076 -0.3282 -0.6401  0.4286
    1SOL    HW2 3774   4.107   1.108   1.077 -0.3615 -0.8178  0.1464
    1SOL    HW3 3775   4.211   1.000   1.053 -0.0634 -0.4273 -0.3290
    1SOL    MW4 3776   4.191   1.082   1.073 -0.2975 -0.6356  0.2912
    1SOL     OW 3777   4.371   0.619   2.142 -0.3366  0.0024 -0.5005
    1SOL    HW2 3778   4.388   0.605   2.049 -0.3735 -0.4998 -0.4321
    1SOL    HW3 3779   4.440   0.571   2.187 -0.0956  0.5564 -0.2728
    1SOL    MW4 3780   4.382   0.611   2.135 -0.3095  0.0092 -0.4613
    1SOL     OW 3781   2.899   3.942   2.386  0.0067  0.3671  0.2661
    1SOL    HW2 3782   2.817   3.969   2.428 -0.2591  0.9136 -0.6044
    1SOL    HW3 3783   2.948   4.023   2.374 -0.0238  0.2391 -0.7148
    1SOL    MW4 3784   2.895   3.956   2.390 -0.0322  0.4222  0.0217
    1SOL     OW 3785   4.441   0.596   1.872 -0.5518  0.3882  0.0426
    1SOL    HW2 3786   4.377   0.525   1.872  0.2766 -0.3796  1.8583
    1SOL    HW3 3787   4.476   0.597   1.783 -0.7810 -1.2787 -0.0790
    1SOL    MW4 3788   4.437   0.587   1.860 -0.4730  0.0671  0.2662
    1SOL     OW 3789   2.120   4.490   2.845 -0.2748 -0.3918 -0.5201
    1SOL    HW2 3790   2.168   4.557   2.796  0.9503 -0.8921 -0.0224
    1SOL    HW3 3791   2.145   4.505   2.936  0.6988 -2.0626 -0.4858
    1SOL    MW4 3792   2.130   4.501   2.851  0.0155 -0.6781 -0.4499
    1SOL     OW 3793   3.905   0.696   0.325  0.0047 -0.1686  0.1737
    1SOL    HW2 3794   3.826   0.643   0.328  0.0685 -0.3074 -0.4943
    1SOL    HW3 3795   3.962   0.651   0.262  0.5596  0.0005  0.5494
    1SOL    MW4 3796   3.902   0.683   0.317  0.0863 -0.1646  0.1352
    1SOL     OW 3797   2.611   3.048   2.664 -0.2352  0.3956  0.1446
    1SOL    HW2 3798   2.621   2.953   2.663 -0.4869  0.3747 -1.3089
    1SOL    HW3 3799   2.660   3.076   2.741 -0.8054 -0.9710  1.0347
    1SOL    MW4 3800   2.619   3.039   2.674 -0.3438  0.2127  0.0703
    1SOL     OW 3801   4.299   4.578   1.665  0.3582 -0.3801  0.1525
    1SOL    HW2 3802   4.252   4.612   1.589 -0.9235 -3.9883 -0.7734
    1SOL    HW3 3803   4.257   4.621   1.740 -2.1789 -0.9443 -0.8763
    1SOL    MW4 3804   4.287   4.588   1.665 -0.1459 -0.9308 -0.1055
    1SOL     OW 3805   3.155   0.576   1.454  0.0411  0.6600 -0.3772
    1SOL    HW2 3806   3.230   0.562   1.396  1.1551  2.0299  0.6810
    1SOL    HW3 3807   3.191   0.567   1.542 -1.7221 -1.8121  0.1196
    1SOL    MW4 3808   3.169   0.573   1.458 -0.0448  0.5146 -0.1720
    1SOL     OW 3809   4.302   0.202   1.245  0.7780 -0.3953 -0.2068
    1SOL    HW2 3810   4.376   0.143   1.227  0.9029 -0.5850  0.9203
    1SOL    HW3 3811   4.247   0.153   1.305  1.4098  1.0406  1.5696
    1SOL    MW4 3812   4.305   0.188   1.250  0.8779 -0.2309  0.1762
    1SOL     OW 3813   1.210   1.269   1.578  0.3190 -0.3546 -0.4106
    1SOL    HW2 3814   1.292   1.273   1.528  0.0389  0.3897 -0.8102
    1SOL    HW3 3815   1.212   1.346   1.634  0.5653 -1.1187  0.6370
    1SOL    MW4 3816   1.221   1.279   1.579  0.3145 -0.3570 -0.3252
    1SOL     OW 3817   3.674   1.530   1.021  0.2247 -0.2419 -0.2214
    1SOL    HW2 3818   3.684   1.576   0.938 -0.8058 -0.8189 -0.6800
    1SOL    HW3 3819   3.595   1.477   1.010  0.7915 -1.2992  0.6746
    1SOL    MW4 3820   3.665   1.529   1.009  0.1633 -0.4576 -0.1637
    1SOL     OW 3821   2.304   0.443   1.529 -0.0723 -0.4145 -0.1627
    1SOL    HW2 3822   2.348   0.427   1.612  0.1294 -0.8440 -0.3523
    1SOL    HW3 3823   2.212   0.457   1.553  0.0689 -0.0701  0.1760
    1SOL    MW4 3824   2.297   0.443   1.543 -0.0269 -0.4257 -0.1431
    1SOL     OW 3825   3.983   1.613   0.674 -0.0034 -0.3900  0.0183
    1SOL    HW2 3826   3.905   1.654   0.711  1.0066  1.5211  0.0945
    1SOL    HW3 3827   3.978   1.632   0.581  0.4196 -0.1735  0.0390
    1SOL    MW4 3828   3.972   1.621   0.667  0.1857 -0.1094  0.0311
    1SOL     OW 3829   4.092   2.151   0.904  0.0091  0.0041  0.0550
    1SOL    HW2 3830   4.137   2.095   0.968 -0.4498 -1.4379 -0.8720
    1SOL    HW3 3831   4.153   2.224   0.889  1.1272 -0.8446  0.3900
    1SOL    MW4 3832   4.106   2.153   0.911  0.0963 -0.2980 -0.0232
    1SOL     OW 3833   2.787   4.053   1.203  0.6238 -0.1548  0.1440
    1SOL    HW2 3834   2.730   4.020   1.273  0.9924 -1.2895 -0.0927
    1SOL    HW3 3835   2.749   4.019   1.122  0.2245  1.1215 -0.2247
    1SOL    MW4 3836   2.775   4.044   1.202  0.6196 -0.1364  0.0641
    1SOL     OW 3837   0.440   3.453   1.115 -0.1081  0.1809 -0.1488
    1SOL    HW2 3838   0.514   3.469   1.055  0.4297 -0.8790  0.2262
    1SOL    HW3 3839   0.467   3.493   1.197 -0.4240  0.7624 -0.3266
    1SOL    MW4 3840   0.453   3.461   1.118 -0.0788  0.1180 -0.1227
    1SOL     OW 3841   4.335   1.885   0.351  0.4557  0.1878 -0.1535
    1SOL    HW2 3842   4.399   1.955   0.345  0.6002  0.1830  1.1120
    1SOL    HW3 3843   4.303   1.890   0.442 -1.4581  0.3129 -0.8056
    1SOL    MW4 3844   4.339   1.895   0.362  0.2222  0.2037 -0.0726
    1SOL     OW 3845   2.947   2.459   2.634  0.6347 -0.3143 -0.3412
    1SOL    HW2 3846   2.910   2.517   2.701  1.2763 -0.0843 -0.1900
    1SOL    HW3 3847   3.040   2.456   2.653  0.6991 -0.8969 -0.7335
    1SOL    MW4 3848   2.954   2.466   2.645  0.7281 -0.3610 -0.3729
    1SOL     OW 3849   0.190   3.553   1.039  0.6336  0.1179 -0.0445
    1SOL    HW2 3850   0.206   3.638   1.080 -0.8415  0.2122  0.3517
    1SOL    HW3 3851   0.266   3.500   1.065  0.8557  0.8708  0.9054
    1SOL    MW4 3852   0.202   3.557   1.048  0.4683  0.2296  0.1332
    1SOL     OW 3853   1.456   0.581   1.703  0.0716  0.3262 -0.5520
    1SOL    HW2 3854   1.415   0.638   1.638  0.6517  0.7815 -0.5232
    1SOL    HW3 3855   1.540   0.623   1.722 -0.8744  1.1685  1.8618
    1SOL    MW4 3856   1.462   0.594   1.697  0.0234  0.4975 -0.2296
    1SOL     OW 3857   3.270   4.461   1.224  0.1619  0.4481  0.7613
    1SOL    HW2 3858   3.320   4.390   1.183 -1.1610 -0.0641  0.0144
    1SOL    HW3 3859   3.330   4.536   1.224  0.4279  0.2671 -1.5122
    1SOL    MW4 3860   3.285   4.462   1.219  0.0226  0.3562  0.3629
    1SOL     OW 3861   3.747   0.833   1.409 -0.2094  0.1339  0.0999
    1SOL    HW2 3862   3.694   0.790   1.342 -0.5994  1.2447 -0.3120
    1SOL    HW3 3863   3.817   0.876   1.361  0.5021 -0.4970  0.5601
    1SOL    MW4 3864   3.749   0.833   1.394 -0.1669  0.1972  0.1062
    1SOL     OW 3865   0.112   2.465   2.771  0.0319 -0.2209 -0.2740
    1SOL    HW2 3866   0.178   2.486   2.837  0.3564 -0.3975 -0.5463
    1SOL    HW3 3867   0.105   2.370   2.773  1.4009 -0.3648 -1.8213
    1SOL    MW4 3868   0.120   2.455   2.780  0.2553 -0.2632 -0.5143
    1SOL     OW 3869   0.980   2.847   3.582  0.5312 -0.4419  0.3518
    1SOL    HW2 3870   1.052   2.909   3.574 -1.1081  1.7384  1.8882
    1SOL    HW3 3871   0.923   2.884   3.650 -1.1628 -2.9702  0.3961
    1SOL    MW4 3872   0.982   2.860   3.590  0.0914 -0.4878  0.5608
    1SOL     OW 3873   4.376   3.105   1.361  0.0256 -0.5032  0.3581
    1SOL    HW2 3874   4.342   3.026   1.320 -0.0740 -0.5959  0.6206
    1SOL    HW3 3875   4.301   3.164   1.367  0.4214  0.1823 -1.2008
    1SOL    MW4 3876   4.362   3.103   1.357  0.0648 -0.4246  0.1872
    1SOL     OW 3877   0.334   4.490   1.368  0.1752 -0.0569 -0.2294
    1SOL    HW2 3878   0.347   4.398   1.391 -0.9192 -0.2183 -0.2232
    1SOL    HW3 3879   0.274   4.523   1.435  0.1047  0.5074 -0.5718
    1SOL    MW4 3880   0.328   4.482   1.380  0.0215 -0.0038 -0.2737
    1SOL     OW 3881   1.167   2.662   1.433 -0.4235 -0.1866  0.4227
    1SOL    HW2 3882   1.072   2.660   1.429 -0.4881  2.2689  0.2115
    1SOL    HW3 3883   1.195   2.658   1.341 -0.3505 -0.1639  0.4437
    1SOL    MW4 3884   1.158   2.661   1.420 -0.4225  0.1404  0.3977
    1SOL     OW 3885   4.339   0.373   2.904 -0.2138  0.2581  0.5062
    1SOL    HW2 3886   4.316   0.357   2.813 -0.1678  2.4948  0.0849
    1SOL    HW3 3887   4.297   0.302   2.952  0.1838 -1.2267 -1.2941
    1SOL    MW4 3888   4.330   0.361   2.898 -0.1550  0.3573  0.2134
    1SOL     OW 3889   2.886   0.414   1.904  0.2931  0.0880 -0.0061
    1SOL    HW2 3890   2.791   0.414   1.910  0.1578 -1.4117 -1.8300
    1SOL    HW3 3891   2.912   0.499   1.940 -1.7663  0.8824 -0.3175
    1SOL    MW4 3892   2.877   0.425   1.910  0.0036 -0.0050 -0.2879
    1SOL     OW 3893   3.761   1.288   3.946 -0.3024  0.1700 -0.1245
    1SOL    HW2 3894   3.749   1.223   4.015 -0.8572  0.8636  0.4388
    1SOL    HW3 3895   3.850   1.320   3.959 -0.6679  0.8551  0.7644
    1SOL    MW4 3896   3.771   1.284   3.957 -0.4237  0.3519  0.0672
    1SOL     OW 3897   0.119   0.850   1.533 -0.3905  0.2238  0.0453
    1SOL    HW2 3898   0.214   0.859   1.529 -0.3290  0.4984  1.7312
    1SOL    HW3 3899   0.105   0.757   1.548 -0.3216  0.3933  1.2164
    1SOL    MW4 3900   0.130   0.839   1.535 -0.3733  0.2824  0.4224
    1SOL     OW 3901   3.412   0.479   0.847 -0.2333 -0.2165 -0.0192
    1SOL    HW2 3902   3.408   0.416   0.775  0.2800 -0.2490 -0.0214
    1SOL    HW3 3903   3.471   0.548   0.816  0.2337 -0.3804  0.4796
    1SOL    MW4 3904   3.419   0.480   0.834 -0.1042 -0.2424  0.0463
    1SOL     OW 3905   3.181   1.415   1.268  0.1831 -0.0070 -0.0707
    1SOL    HW2 3906   3.180   1.422   1.364  0.3727 -0.1436 -0.0577
    1SOL    HW3 3907   3.258   1.464   1.241  0.3228 -0.2543 -0.1274
    1SOL    MW4 3908   3.191   1.422   1.277  0.2265 -0.0576 -0.0765
    1SOL     OW 3909   0.780   0.740   2.946 -0.2406 -0.4943 -0.0680
    1SOL    HW2 3910   0.710   0.680   2.972 -0.3343 -0.3523  0.0071
    1SOL    HW3 3911   0.812   0.776   3.029 -0.9302  0.4000 -0.1863
    1SOL    MW4 3912   0.775   0.737   2.960 -0.3440 -0.3575 -0.0739
    1SOL     OW 3913   0.821   2.056   2.242 -0.1522 -0.3848 -0.0907
    1SOL    HW2 3914   0.899   2.007   2.270  1.4623  1.3579 -1.3986
    1SOL    HW3 3915   0.821   2.135   2.296  0.1001  0.5499 -1.4276
    1SOL    MW4 3916   0.831   2.060   2.253  0.0942 -0.0317 -0.4396
    1SOL     OW 3917   1.435   2.874   0.956 -0.0265  0.1037 -0.1426
    1SOL    HW2 3918   1.409   2.957   0.995 -0.6108  0.0372 -0.3854
    1SOL    HW3 3919   1.493   2.834   1.021  0.4289  0.7969 -0.1198
    1SOL    MW4 3920   1.439   2.880   0.970 -0.0436  0.1864 -0.1717
    1SOL     OW 3921   2.449   3.787   0.409  0.1471 -0.3290  0.2379
    1SOL    HW2 3922   2.440   3.794   0.314  1.0997 -0.3955  0.1380
    1SOL    HW3 3923   2.429   3.875   0.441  0.6939 -0.0828 -0.0947
    1SOL    MW4 3924   2.445   3.800   0.401  0.3448 -0.3052  0.1808
    1SOL     OW 3925   0.174   3.540   1.925  0.3143 -0.2947  0.4310
    1SOL    HW2 3926   0.092   3.496   1.948  0.5499  0.1567  2.1526
    1SOL    HW3 3927   0.161   3.566   1.833 -0.7429 -1.8408  0.1105
    1SOL    MW4 3928   0.161   3.538   1.916  0.2059 -0.4392  0.6160
    1SOL     OW 3929   0.553   3.682   0.765  0.0254  0.0149 -0.2679
    1SOL    HW2 3930   0.520   3.593   0.776 -1.1260  0.5721  0.8799
    1SOL    HW3 3931   0.534   3.704   0.674 -1.0280 -0.3764 -0.1458
    1SOL    MW4 3932   0.546   3.673   0.754 -0.2654  0.0370 -0.1003
    1SOL     OW 3933   3.581   3.332   1.668  0.4291  0.2748 -0.0572
    1SOL    HW2 3934   3.558   3.262   1.730  0.5674  0.4351  0.1748
    1SOL    HW3 3935   3.586   3.288   1.584 -1.3720  0.3510 -0.2243
    1SOL    MW4 3936   3.579   3.317   1.665  0.2098  0.3064 -0.0488
    1SOL     OW 3937   0.043   0.598   1.612  0.2296  0.2062 -0.6156
    1SOL    HW2 3938   0.082   0.519   1.576 -0.1473 -0.3621  0.2153
    1SOL    HW3 3939  -0.040   0.608   1.565  0.6772  0.6017 -1.3374
    1SOL    MW4 3940   0.037   0.589   1.601  0.2390  0.1834 -0.6012
    1SOL     OW 3941   0.368   1.839   2.633 -0.4132 -0.2388 -0.0459
    1SOL    HW2 3942   0.462   1.822   2.632 -0.2800  0.4641  0.1424
    1SOL    HW3 3943   0.333   1.776   2.698 -0.2295 -1.2133 -0.8797
    1SOL    MW4 3944   0.375   1.828   2.642 -0.3714 -0.2747 -0.1307
    1SOL     OW 3945   0.172   2.961   2.104  0.0808  0.0192 -0.3089
    1SOL    HW2 3946   0.105   2.904   2.067  1.0280  0.2890 -2.5087
    1SOL    HW3 3947   0.141   3.050   2.086  0.1787  0.1651  0.2342
    1SOL    MW4 3948   0.159   2.965   2.097  0.2187  0.0739 -0.5276
    1SOL     OW 3949   3.944   2.187   1.222  0.0134 -0.1481 -0.2695
    1SOL    HW2 3950   3.849   2.197   1.214 -0.1353 -1.1638  0.1802
    1SOL    HW3 3951   3.960   2.094   1.205  0.9388  0.0285 -0.4091
    1SOL    MW4 3952   3.934   2.176   1.218  0.1156 -0.2589 -0.2285
    1SOL     OW 3953   0.354   4.580   2.049 -0.1458 -0.0867  0.3106
    1SOL    HW2 3954   0.287   4.648   2.040  0.2251  0.2352 -0.1301
    1SOL    HW3 3955   0.326   4.527   2.123 -0.4016  0.6018  0.7095
    1SOL    MW4 3956   0.342   4.582   2.058 -0.1306  0.0467  0.3049
    1SOL     OW 3957   0.592   4.270   4.119 -0.3360  0.2581  0.0321
    1SOL    HW2 3958   0.650   4.328   4.071 -0.8378  0.7598  0.0270
    1SOL    HW3 3959   0.630   4.263   4.206 -1.3302  2.1568  0.6326
    1SOL    MW4 3960   0.605   4.277   4.124 -0.5334  0.5741  0.1106
    1SOL     OW 3961   4.462   2.813   1.501  0.3032 -0.1858 -0.1481
    1SOL    HW2 3962   4.379   2.832   1.456 -0.3748 -0.3417  1.0004
    1SOL    HW3 3963   4.522   2.882   1.472 -0.6798  0.8187  0.1570
    1SOL    MW4 3964   4.459   2.825   1.492  0.0839 -0.0737  0.0436
    1SOL     OW 3965   1.206   2.601   2.498  0.0159  0.1493 -0.2734
    1SOL    HW2 3966   1.119   2.622   2.463 -0.8594 -2.1115  0.4392
    1SOL    HW3 3967   1.200   2.619   2.591  0.4239  0.3239 -0.2795
    1SOL    MW4 3968   1.193   2.606   2.505 -0.0458 -0.1259 -0.1800
    1SOL     OW 3969   0.433   3.613   1.570 -0.3857 -0.0274 -0.2925
    1SOL    HW2 3970   0.445   3.518   1.573  0.5298  0.0803 -0.2624
    1SOL    HW3 3971   0.344   3.627   1.603 -0.6891 -0.9001 -0.7183
    1SOL    MW4 3972   0.423   3.602   1.575 -0.3049 -0.1285 -0.3446
    1SOL     OW 3973   0.403   3.055   1.545  0.2235 -0.1469  0.2762
    1SOL    HW2 3974   0.437   3.046   1.456  0.9271 -2.0721  0.7278
    1SOL    HW3 3975   0.405   3.150   1.562  1.4442  0.1093 -1.2037
    1SOL    MW4 3976   0.408   3.067   1.536  0.4774 -0.3669  0.1405
    1SOL     OW 3977   4.177   2.479   3.207  0.2297 -0.1160  0.7038
    1SOL    HW2 3978   4.225   2.430   3.273  0.5261 -1.7213 -0.6568
    1SOL    HW3 3979   4.121   2.539   3.257 -0.4924 -2.1757  2.4385
    1SOL    MW4 3980   4.176   2.481   3.222  0.1736 -0.5994  0.7532
    1SOL     OW 3981   4.063   1.432   1.560  0.1625 -0.6055 -0.0115
    1SOL    HW2 3982   4.152   1.463   1.539 -0.0111  0.1289  0.2957
    1SOL    HW3 3983   4.026   1.503   1.613 -1.0404 -0.3784 -1.1482
    1SOL    MW4 3984   4.070   1.446   1.564 -0.0191 -0.4786 -0.1210
    1SOL     OW 3985   0.444   0.425   2.829 -0.0899 -0.0842  0.1302
    1SOL    HW2 3986   0.434   0.393   2.739 -2.8425 -0.7286  0.5953
    1SOL    HW3 3987   0.464   0.347   2.880 -1.2322 -0.1672  0.4589
    1SOL    MW4 3988   0.445   0.411   2.824 -0.6038 -0.1802  0.2351
    1SOL     OW 3989   0.433   0.263   1.836 -0.2069 -0.1423  0.4745
    1SOL    HW2 3990   0.424   0.322   1.762 -2.5114 -0.7821  0.2381
    1SOL    HW3 3991   0.460   0.320   1.908  0.4302  0.7325 -0.4384
    1SOL    MW4 3992   0.436   0.278   1.836 -0.4269 -0.1113  0.3228
    1SOL     OW 3993   0.492   1.173   1.916  0.0004 -0.2269 -0.2494
    1SOL    HW2 3994   0.399   1.175   1.937  0.1076  0.3758  0.1534
    1SOL    HW3 3995   0.521   1.264   1.921  1.0112 -0.6107  1.3861
    1SOL    MW4 3996   0.484   1.185   1.919  0.1479 -0.1980  0.0196
    1SOL     OW 3997   0.874   2.343   1.510 -0.4947  0.1046  0.4666
    1SOL    HW2 3998   0.901   2.390   1.431 -2.3461  0.3857 -0.0061
    1SOL    HW3 3999   0.866   2.252   1.483  1.8978 -0.3543  1.1004
    1SOL    MW4 4000   0.877   2.337   1.496 -0.4233  0.0811  0.4878
    1SOL     OW 4001   1.639   0.558   1.373  0.4083 -0.0396 -0.1636
    1SOL    HW2 4002   1.588   0.632   1.338  0.2897  0.5143  1.1489
    1SOL    HW3 4003   1.576   0.508   1.425  1.1422  0.5580  1.3265
    1SOL    MW4 4004   1.624   0.561   1.375  0.4895  0.1124  0.2060
    1SOL     OW 4005   1.227   2.207   1.298 -0.2218 -0.7517  0.5967
    1SOL    HW2 4006   1.207   2.119   1.267  0.2879 -0.8052  0.4078
    1SOL    HW3 4007   1.297   2.237   1.240  0.2671 -0.5917  1.2635
    1SOL    MW4 4008   1.234   2.200   1.286 -0.0900 -0.7374  0.6598
    1SOL     OW 4009   2.791   0.776   2.225  0.4447  0.4883  0.0825
    1SOL    HW2 4010   2.819   0.839   2.292  0.5175 -0.4341  0.9354
    1SOL    HW3 4011   2.804   0.690   2.266 -0.8682 -0.0479 -0.5856
    1SOL    MW4 4012   2.796   0.773   2.239  0.2811  0.2959  0.1070
    1SOL     OW 4013   0.847   1.239   0.657  0.0372  0.5708 -0.1813
    1SOL    HW2 4014   0.898   1.168   0.618 -0.0689  0.4219 -0.0529
    1SOL    HW3 4015   0.827   1.207   0.745  0.8338  1.1758  0.2303
    1SOL    MW4 4016   0.851   1.226   0.664  0.1283  0.6311 -0.1100
    1SOL     OW 4017   0.582   2.787   2.351  0.3854  0.1910  0.3844
    1SOL    HW2 4018   0.510   2.850   2.348 -1.1927 -1.5852 -0.2639
    1SOL    HW3 4019   0.552   2.720   2.413  0.9995 -1.1208 -0.7171
    1SOL    MW4 4020   0.569   2.786   2.359  0.2583 -0.2165  0.1533
    1SOL     OW 4021   1.049   1.999   2.578  0.3320 -0.2066 -0.6409
    1SOL    HW2 4022   0.999   2.080   2.591 -1.6265 -1.6163  1.0925
    1SOL    HW3 4023   1.034   1.976   2.486 -1.9306 -0.3589 -0.2688
    1SOL    MW4 4024   1.040   2.006   2.568 -0.2248 -0.4125 -0.3631
    1SOL     OW 4025   0.990   2.411   2.055  0.0683 -0.4213 -0.0335
    1SOL    HW2 4026   1.032   2.478   2.109  0.7360  1.8817 -3.2847
    1SOL    HW3 4027   0.908   2.452   2.026 -1.3447 -2.4546  0.9746
    1SOL    MW4 4028   0.984   2.425   2.058 -0.0301 -0.3858 -0.3295
    1SOL     OW 4029   1.677   4.134   3.637 -0.1663  0.7218 -0.0444
    1SOL    HW2 4030   1.698   4.179   3.719 -1.5184  1.2854  0.0054
    1SOL    HW3 4031   1.661   4.043   3.663 -2.3515  1.2614  0.6027
    1SOL    MW4 4032   1.678   4.128   3.651 -0.6332  0.8674  0.0477
    1SOL     OW 4033   0.209   0.685   1.934 -0.4031 -0.4708 -0.3874
    1SOL    HW2 4034   0.266   0.643   1.869 -0.3953 -0.5298 -0.3429
    1SOL    HW3 4035   0.124   0.641   1.923 -0.0961 -1.2830  0.4231
    1SOL    MW4 4036   0.205   0.673   1.924 -0.3615 -0.5858 -0.2745
    1SOL     OW 4037   0.756   2.713   1.697 -0.1756  0.2433 -0.2477
    1SOL    HW2 4038   0.705   2.792   1.717 -0.4022 -0.0786  0.4567
    1SOL    HW3 4039   0.843   2.731   1.733 -0.3253  0.0334  0.2217
    1SOL    MW4 4040   0.761   2.726   1.704 -0.2253  0.1729 -0.0930
    1SOL     OW 4041   0.684   2.181   0.804 -0.3901  0.1888 -0.4198
    1SOL    HW2 4042   0.721   2.104   0.762  1.3265  1.0803 -0.5881
    1SOL    HW3 4043   0.650   2.149   0.887 -0.3163 -0.8715 -0.7944
    1SOL    MW4 4044   0.685   2.167   0.809 -0.1539  0.1667 -0.4915
    1SOL     OW 4045   0.763   2.442   2.299  0.1563  0.2055 -0.1630
    1SOL    HW2 4046   0.681   2.395   2.310 -0.1383  0.7946  0.1984
    1SOL    HW3 4047   0.774   2.452   2.204  0.4333 -0.9486 -0.2574
    1SOL    MW4 4048   0.754   2.437   2.288  0.1540  0.1311 -0.1278
    1SOL     OW 4049   1.583   2.941   2.490  0.3161  0.1744  0.2451
    1SOL    HW2 4050   1.541   2.855   2.496  2.7322 -1.0525  0.0409
    1SOL    HW3 4051   1.569   2.981   2.575  0.5446 -1.0774  0.8808
    1SOL    MW4 4052   1.576   2.935   2.502  0.6651 -0.1526  0.3021
    1SOL     OW 4053   1.026   4.132   1.137 -0.0755  0.1321 -0.2313
    1SOL    HW2 4054   1.073   4.091   1.209  0.7586 -0.6155 -1.1890
    1SOL    HW3 4055   0.974   4.201   1.179 -0.1975 -0.7818  1.1786
    1SOL    MW4 4056   1.025   4.136   1.152  0.0185 -0.0873 -0.1715
    1SOL     OW 4057   0.919   3.999   1.902 -0.0518 -0.0165  0.0234
    1SOL    HW2 4058   0.934   3.926   1.962  0.8177  0.3693  0.2783
    1SOL    HW3 4059   0.882   3.959   1.824  0.2589 -0.7051  0.2298
    1SOL    MW4 4060   0.916   3.984   1.900  0.1039 -0.0563  0.0843
    1SOL     OW 4061   0.557   4.332   1.571 -0.0898  0.1471 -0.4882
    1SOL    HW2 4062   0.524   4.297   1.655  1.9727 -1.3205 -0.2670
    1SOL    HW3 4063   0.581   4.422   1.591 -0.2513  0.0127  0.3407
    1SOL    MW4 4064   0.556   4.339   1.585  0.1609 -0.0639 -0.3498
    1SOL     OW 4065   1.121   4.087   1.622 -0.5325  0.4259 -0.1009
    1SOL    HW2 4066   1.160   4.090   1.709 -0.2756  1.2504 -0.2395
    1SOL    HW3 4067   1.034   4.050   1.635  0.2987 -1.4875  0.2106
    1SOL    MW4 4068   1.115   4.082   1.635 -0.3890  0.2823 -0.0781
    1SOL     OW 4069   1.441   0.950   0.787  0.1590  0.1009 -0.0758
    1SOL    HW2 4070   1.488   0.889   0.843  0.4702  0.3190 -0.0948
    1SOL    HW3 4071   1.463   0.922   0.698  0.3372  0.2656 -0.0844
    1SOL    MW4 4072   1.450   0.938   0.782  0.2234  0.1514 -0.0795
    1SOL     OW 4073   1.086   0.749   3.452 -0.3013  0.2836 -0.1600
    1SOL    HW2 4074   0.998   0.775   3.425 -0.5707 -2.0458 -1.6664
    1SOL    HW3 4075   1.138   0.754   3.372  0.2539 -1.1008  0.0973
    1SOL    MW4 4076   1.082   0.753   3.438 -0.2638 -0.2064 -0.3250
    1SOL     OW 4077   0.508   3.854   1.965  0.0783  0.2887 -0.1430
    1SOL    HW2 4078   0.562   3.776   1.965  0.9270  0.8735 -0.0015
    1SOL    HW3 4079   0.559   3.919   2.013 -0.5249  0.9987 -0.4514
    1SOL    MW4 4080   0.522   3.852   1.971  0.1106  0.4597 -0.1651
    1SOL     OW 4081   0.756   1.254   1.586 -0.1474 -0.9073  0.0973
    1SOL    HW2 4082   0.790   1.230   1.500  0.2791 -1.0388  0.3031
    1SOL    HW3 4083   0.830   1.245   1.645 -0.8826 -2.5306  0.7939
    1SOL    MW4 4084   0.770   1.250   1.582 -0.1882 -1.1389  0.2162
    1SOL     OW 4085   1.729   3.551   2.081 -0.1665  0.3185  0.3718
    1SOL    HW2 4086   1.717   3.544   2.176  1.5417 -1.3186  0.4755
    1SOL    HW3 4087   1.682   3.632   2.058 -0.7922  0.6266  2.5609
    1SOL    MW4 4088   1.721   3.561   2.091 -0.0238  0.1431  0.6742
    1SOL     OW 4089   0.897   1.659   1.379  0.2668 -0.2522 -0.1190
    1SOL    HW2 4090   0.929   1.575   1.409 -0.5590  0.0054  1.5363
    1SOL    HW3 4091   0.865   1.642   1.290 -0.4884 -1.8373  0.4331
    1SOL    MW4 4092   0.897   1.646   1.371  0.0582 -0.4274  0.1723
    1SOL     OW 4093   0.624   1.761   1.053  0.0886 -0.4749  0.3205
    1SOL    HW2 4094   0.572   1.719   0.985 -0.4925  1.5632 -0.5344
    1SOL    HW3 4095   0.611   1.855   1.039  0.1924 -0.0032  3.0658
    1SOL    MW4 4096   0.615   1.768   1.043  0.0256 -0.1439  0.5699
    1SOL     OW 4097   0.404   0.865   1.565  0.3303  0.5174  0.2923
    1SOL    HW2 4098   0.441   0.947   1.594  0.7628  0.6658 -0.6507
    1SOL    HW3 4099   0.479   0.815   1.532 -0.2210  0.6175 -1.1448
    1SOL    MW4 4100   0.419   0.869   1.564  0.3147  0.5503 -0.0218
    1SOL     OW 4101   1.120   2.251   1.646  0.1979  0.2117 -0.2051
    1SOL    HW2 4102   1.041   2.275   1.599  0.4297 -0.6504 -1.0413
    1SOL    HW3 4103   1.095   2.175   1.698  0.2470  0.4638  0.1878
    1SOL    MW4 4104   1.106   2.245   1.647  0.2348  0.1314 -0.2636
    1SOL     OW 4105   0.416   4.658   1.779  0.3220 -0.6849 -0.0789
    1SOL    HW2 4106   0.393   4.628   1.866  1.4209 -1.2291  0.0407
    1SOL    HW3 4107   0.420   4.754   1.786 -0.6895 -0.6555  0.1751
    1SOL    MW4 4108   0.414   4.667   1.791  0.3336 -0.7528 -0.0296
    1SOL     OW 4109   1.414   0.628   2.544 -0.3627  0.0719 -0.4692
    1SOL    HW2 4110   1.378   0.685   2.476  0.1904 -0.5317 -1.2719
    1SOL    HW3 4111   1.441   0.549   2.498 -0.6668 -0.6499  0.5662
    1SOL    MW4 4112   1.413   0.625   2.529 -0.3299 -0.1029 -0.4385
    1SOL     OW 4113   0.204   1.288   0.547 -0.3085 -0.3752 -0.9267
    1SOL    HW2 4114   0.212   1.340   0.626 -0.0619 -2.2872  0.3412
    1SOL    HW3 4115   0.135   1.332   0.496  0.2193  1.4122 -0.1162
    1SOL    MW4 4116   0.196   1.301   0.550 -0.2063 -0.3917 -0.6524
    1SOL     OW 4117   0.981   1.169   1.767 -0.1212 -0.1813 -0.5022
    1SOL    HW2 4118   0.983   1.236   1.835 -1.0631 -0.1641 -0.4915
    1SOL    HW3 4119   1.069   1.171   1.729 -0.4169  1.6427 -1.0921
    1SOL    MW4 4120   0.993   1.178   1.771 -0.2846  0.0616 -0.5785
    1SOL     OW 4121   0.981   2.348   2.918 -0.3585 -0.3368 -0.3455
    1SOL    HW2 4122   0.953   2.336   2.827 -1.5767 -1.4456  0.1557
    1SOL    HW3 4123   1.056   2.290   2.928 -1.9910 -2.4616  0.1269
    1SOL    MW4 4124   0.987   2.339   2.908 -0.7346 -0.7637 -0.2170
    1SOL     OW 4125   0.431   3.179   1.058  0.0014  0.3411  0.1909
    1SOL    HW2 4126   0.487   3.138   1.124  1.2033 -0.4232 -1.2710
    1SOL    HW3 4127   0.422   3.270   1.087  0.6398  0.0454  1.3200
    1SOL    MW4 4128   0.437   3.186   1.070  0.2442  0.2012  0.1471
    1SOL     OW 4129   0.289   3.292   2.272 -0.1556 -0.5848  0.0529
    1SOL    HW2 4130   0.272   3.379   2.307 -0.0208 -0.1003 -1.0765
    1SOL    HW3 4131   0.366   3.303   2.216 -0.3243 -1.3619 -0.3405
    1SOL    MW4 4132   0.297   3.305   2.270 -0.1601 -0.6235 -0.1478
    1SOL     OW 4133   1.095   2.627   2.212 -0.0471  0.2416 -0.0451
    1SOL    HW2 4134   1.035   2.645   2.285 -1.5251  1.0796 -1.4324
    1SOL    HW3 4135   1.130   2.713   2.188  0.3716 -0.0218 -0.3801
    1SOL    MW4 4136   1.092   2.641   2.219 -0.1868  0.3176 -0.2725
    1SOL     OW 4137   0.598   0.571   2.386 -0.1996  0.1405  0.3513
    1SOL    HW2 4138   0.624   0.655   2.424 -0.5256  1.0491 -1.3677
    1SOL    HW3 4139   0.680   0.525   2.371 -0.0719 -0.2535  2.1707
    1SOL    MW4 4140   0.612   0.576   2.389 -0.2258  0.2083  0.3645
    1SOL     OW 4141   0.374   2.325   1.008  0.0946 -0.2444 -0.2927
    1SOL    HW2 4142   0.387   2.268   1.084  1.6807  0.6847  0.1657
    1SOL    HW3 4143   0.287   2.303   0.976  0.1549 -1.9720  0.6743
    1SOL    MW4 4144   0.364   2.315   1.014  0.3118 -0.3495 -0.1045
    1SOL     OW 4145   1.703   1.143   2.333 -0.2206  0.4310  0.1992
    1SOL    HW2 4146   1.657   1.162   2.414  0.9583 -0.1479  1.0155
    1SOL    HW3 4147   1.654   1.190   2.265 -1.9686 -0.1354  1.0594
    1SOL    MW4 4148   1.691   1.151   2.334 -0.2958  0.2799  0.4206
    1SOL     OW 4149   2.112   2.554   2.158  0.2760  0.6580  0.2999
    1SOL    HW2 4150   2.169   2.540   2.233  0.5156 -0.5752 -0.0937
    1SOL    HW3 4151   2.025   2.531   2.188  0.6931 -2.0161 -0.3932
    1SOL    MW4 4152   2.108   2.549   2.172  0.3629  0.1426  0.1566
    1SOL     OW 4153   1.071   3.747   1.573 -0.1915  0.0968  0.9008
    1SOL    HW2 4154   1.032   3.677   1.625  0.3333  1.3124  2.9951
    1SOL    HW3 4155   0.997   3.801   1.544 -0.4577 -0.3923  0.6726
    1SOL    MW4 4156   1.056   3.745   1.576 -0.1575  0.1924  1.1470
    1SOL     OW 4157   0.699   0.469   1.420  0.0956 -0.0379 -0.1731
    1SOL    HW2 4158   0.725   0.464   1.328 -0.6849  0.5669 -0.4276
    1SOL    HW3 4159   0.656   0.554   1.429  0.3974  0.0226  0.8147
    1SOL    MW4 4160   0.697   0.479   1.409  0.0324  0.0499 -0.0764
    1SOL     OW 4161   3.992   3.840   1.603  0.5505  0.2142 -0.1490
    1SOL    HW2 4162   4.008   3.873   1.691 -1.7570  0.3998  0.2189
    1SOL    HW3 4163   4.009   3.914   1.546  0.9472  0.4169  0.2293
    1SOL    MW4 4164   3.996   3.854   1.607  0.2983  0.2654 -0.0505
    1SOL     OW 4165   0.404   4.187   2.272  0.3656  0.9851  0.1114
    1SOL    HW2 4166   0.485   4.141   2.249 -0.7225 -0.4026 -1.0438
    1SOL    HW3 4167   0.367   4.214   2.188 -0.6753  1.0907  0.5975
    1SOL    MW4 4168   0.410   4.185   2.258  0.0847  0.8159  0.0234
    1SOL     OW 4169   2.375   4.020   0.545 -0.2492  0.2104 -0.3098
    1SOL    HW2 4170   2.403   4.111   0.555 -0.9584  0.4028 -0.1020
    1SOL    HW3 4171   2.288   4.016   0.583 -1.4304  0.1091 -2.8813
    1SOL    MW4 4172   2.367   4.031   0.551 -0.4988  0.2222 -0.6216
    1SOL     OW 4173   1.316   0.530   2.219 -0.1072 -0.7607  0.0457
    1SOL    HW2 4174   1.388   0.589   2.242 -0.7916  0.5108 -1.0032
    1SOL    HW3 4175   1.309   0.536   2.124 -1.0190 -1.5781  0.0512
    1SOL    MW4 4176   1.325   0.539   2.210 -0.3178 -0.7008 -0.0920
    1SOL     OW 4177   2.479   4.613   1.632 -0.0546  0.0040  0.1479
    1SOL    HW2 4178   2.540   4.542   1.616 -1.6182 -1.3865  0.2813
    1SOL    HW3 4179   2.411   4.603   1.565 -1.3464  0.1454  1.4015
    1SOL    MW4 4180   2.478   4.603   1.621 -0.4311 -0.1607  0.3310
    1SOL     OW 4181   1.531   3.971   0.691  0.1303 -0.0953  0.2763
    1SOL    HW2 4182   1.532   3.991   0.785 -1.2270  1.6823 -0.0540
    1SOL    HW3 4183   1.441   3.944   0.674  0.4950 -0.8564 -0.4311
    1SOL    MW4 4184   1.519   3.970   0.701 -0.0008  0.0389  0.1395
    1SOL     OW 4185   0.615   1.849   2.285  1.0588 -0.1708  0.0907
    1SOL    HW2 4186   0.673   1.925   2.272 -0.8071  1.2988  0.1757
    1SOL    HW3 4187   0.632   1.823   2.376  1.3573  0.4476  0.2199
    1SOL    MW4 4188   0.625   1.856   2.296  0.8520  0.1047  0.1190
    1SOL     OW 4189   0.220   4.324   2.864 -0.0501 -0.1538 -0.1890
    1SOL    HW2 4190   0.304   4.279   2.852  0.3818  0.7247 -0.5361
    1SOL    HW3 4191   0.235   4.383   2.938 -0.6486 -0.6785  0.3455
    1SOL    MW4 4192   0.233   4.326   2.872 -0.0721 -0.1068 -0.1643
    1SOL     OW 4193   1.179   1.497   1.763 -0.0576 -0.1555 -0.2595
    1SOL    HW2 4194   1.263   1.535   1.739  0.0300 -0.8303 -1.0581
    1SOL    HW3 4195   1.114   1.561   1.732  0.0926 -0.5809 -1.5108
    1SOL    MW4 4196   1.181   1.510   1.755 -0.0261 -0.3006 -0.5300
    1SOL     OW 4197   2.004   3.798   1.253 -0.2851 -0.0308 -0.0767
    1SOL    HW2 4198   1.965   3.735   1.192 -1.2253  1.1125 -0.6680
    1SOL    HW3 4199   1.929   3.838   1.297  0.3636 -0.3053  1.2881
    1SOL    MW4 4200   1.989   3.795   1.251 -0.3235  0.0839  0.0253
    1SOL     OW 4201   3.232   0.831   1.088 -0.5516  0.4776  0.0434
    1SOL    HW2 4202   3.276   0.864   1.166 -1.3952  0.6596  0.4472
    1SOL    HW3 4203   3.259   0.890   1.018  0.1373  0.3651  0.2126
    1SOL    MW4 4204   3.241   0.843   1.089 -0.5720  0.4868  0.1191
    1SOL     OW 4205   0.183   0.377   1.482 -0.6037 -0.3786  0.5104
    1SOL    HW2 4206   0.268   0.390   1.526 -1.6421 -0.4500  2.6267
    1SOL    HW3 4207   0.144   0.304   1.530 -1.9496 -0.1979 -0.3160
    1SOL    MW4 4208   0.189   0.369   1.494 -0.9183 -0.3642  0.6807
    1SOL     OW 4209   1.401   3.742   2.151 -0.4779 -0.1412 -0.5314
    1SOL    HW2 4210   1.420   3.668   2.208 -0.9427 -0.5602 -0.9163
    1SOL    HW3 4211   1.484   3.761   2.107  0.4418  1.5237  1.8109
    1SOL    MW4 4212   1.414   3.735   2.153 -0.4179  0.0234 -0.2730
    1SOL     OW 4213   4.172   0.789   2.254 -0.0505  0.3968 -0.3296
    1SOL    HW2 4214   4.234   0.730   2.212 -0.8380 -0.5733 -0.1438
    1SOL    HW3 4215   4.189   0.779   2.348  0.6977  1.4486 -0.3433
    1SOL    MW4 4216   4.183   0.780   2.261 -0.0558  0.4075 -0.3066
    1SOL     OW 4217   3.454   2.920   1.287  0.2060  0.3976 -0.0080
    1SOL    HW2 4218   3.469   2.925   1.382 -0.6115  0.0622  0.1437
    1SOL    HW3 4219   3.463   3.010   1.257  1.1934  0.3994  0.2752
    1SOL    MW4 4220   3.457   2.932   1.296  0.2286  0.3536  0.0494
    1SOL     OW 4221   1.371   0.466   0.723 -0.1967 -0.2849  0.0237
    1SOL    HW2 4222   1.452   0.517   0.721  0.4067 -1.2021  0.1743
    1SOL    HW3 4223   1.340   0.473   0.814 -0.6837  0.6701 -0.2182
    1SOL    MW4 4224   1.378   0.473   0.735 -0.1813 -0.2799  0.0116
    1SOL     OW 4225   1.075   3.056   2.322  0.0520 -0.3336  0.1716
    1SOL    HW2 4226   1.076   3.150   2.342 -0.1284 -0.0417 -1.2043
    1SOL    HW3 4227   1.010   3.019   2.383  0.0342  0.4426  0.6278
    1SOL    MW4 4228   1.067   3.063   2.333  0.0260 -0.1929  0.0501
    1SOL     OW 4229   1.086   3.273   1.679  0.1623 -0.7217  0.4547
    1SOL    HW2 4230   1.160   3.227   1.641 -0.0127 -1.1254  0.6072
    1SOL    HW3 4231   1.059   3.219   1.754 -0.8625 -1.0510 -0.1420
    1SOL    MW4 4232   1.092   3.260   1.684  0.0041 -0.8183  0.3961
    1SOL     OW 4233   1.749   1.985   1.194 -0.0793  0.1388  0.4154
    1SOL    HW2 4234   1.788   2.017   1.113 -0.2109  1.3305  0.8117
    1SOL    HW3 4235   1.791   2.037   1.263 -0.7736 -0.0848  1.0180
    1SOL    MW4 4236   1.760   1.996   1.193 -0.1885  0.2664  0.5473
    1SOL     OW 4237   4.364   3.816   3.118  0.4835  0.1426  0.0712
    1SOL    HW2 4238   4.308   3.827   3.041 -0.1424  0.6591  0.5954
    1SOL    HW3 4239   4.451   3.843   3.088  0.2120  0.5008 -0.4097
    1SOL    MW4 4240   4.368   3.821   3.104  0.3648  0.2580  0.0768
    1SOL     OW 4241   0.710   2.440   1.704  0.0747 -0.1365 -0.1539
    1SOL    HW2 4242   0.778   2.405   1.647 -0.7563 -0.9068 -0.6907
    1SOL    HW3 4243   0.723   2.534   1.704 -0.1829 -0.0955 -1.9454
    1SOL    MW4 4244   0.721   2.448   1.697 -0.0690 -0.2327 -0.4612
    1SOL     OW 4245   1.924   3.020   1.981  0.2138 -0.2853  0.0485
    1SOL    HW2 4246   1.982   3.096   1.980 -1.6274  1.1919  1.9553
    1SOL    HW3 4247   1.950   2.971   2.059 -0.2332 -0.2881  0.1997
    1SOL    MW4 4248   1.935   3.023   1.991 -0.0881 -0.0906  0.3200
    1SOL     OW 4249   1.855   3.137   1.057 -0.2358 -0.1866  0.3248
    1SOL    HW2 4250   1.925   3.101   1.112  1.2953 -0.6264 -1.8491
    1SOL    HW3 4251   1.774   3.116   1.104  1.0809  0.5536  3.0100
    1SOL    MW4 4252   1.854   3.130   1.070  0.1400 -0.1466  0.3922
    1SOL     OW 4253   0.974   3.530   1.732 -0.6170 -0.0452  0.6929
    1SOL    HW2 4254   1.023   3.518   1.813  0.9537  0.1285 -0.1911
    1SOL    HW3 4255   0.996   3.452   1.680 -1.0412  0.1894  0.1615
    1SOL    MW4 4256   0.984   3.518   1.736 -0.4658  0.0086  0.5063
    1SOL     OW 4257   2.772   3.678   1.061  0.1686  0.3071 -0.0769
    1SOL    HW2 4258   2.739   3.765   1.039 -1.1796 -0.1276  0.1495
    1SOL    HW3 4259   2.757   3.625   0.983 -1.3031 -0.3283  0.6046
    1SOL    MW4 4260   2.766   3.682   1.048 -0.2034  0.1659  0.0429
    1SOL     OW 4261   2.633   3.927   1.401 -0.0762  0.0264 -0.7348
    1SOL    HW2 4262   2.559   3.874   1.430 -0.6112  1.4681  0.6129
    1SOL    HW3 4263   2.710   3.872   1.418 -0.7217 -0.9081 -0.7725
    1SOL    MW4 4264   2.633   3.913   1.407 -0.2317  0.0935 -0.5617
    1SOL     OW 4265   0.899   3.014   1.508  0.7977  0.7062 -0.2514
    1SOL    HW2 4266   0.879   2.970   1.426  1.1944 -0.0207  0.0420
    1SOL    HW3 4267   0.845   3.094   1.506 -0.4922 -0.1594 -0.4307
    1SOL    MW4 4268   0.889   3.019   1.497  0.6799  0.4959 -0.2365
    1SOL     OW 4269   1.427   0.075   3.228 -0.0834 -0.6391 -0.0255
    1SOL    HW2 4270   1.418   0.139   3.299  0.8716 -0.3681 -0.1387
    1SOL    HW3 4271   1.338   0.059   3.199 -0.1917  2.6360 -1.7651
    1SOL    MW4 4272   1.414   0.081   3.234  0.0283 -0.1712 -0.2701
    1SOL     OW 4273   3.751   4.608   2.606 -0.4572  0.0665 -0.2580
    1SOL    HW2 4274   3.736   4.533   2.664  0.8527  0.4812  0.6695
    1SOL    HW3 4275   3.665   4.630   2.571 -1.3234 -0.0747  1.7069
    1SOL    MW4 4276   3.738   4.601   2.609 -0.3986  0.1020  0.1237
    1SOL     OW 4277   1.365   3.980   3.016 -0.5918 -0.2968 -0.1372
    1SOL    HW2 4278   1.378   4.074   3.008  0.6867 -0.4714 -0.3652
    1SOL    HW3 4279   1.424   3.953   3.086 -0.4607 -1.0142 -0.5127
    1SOL    MW4 4280   1.375   3.989   3.024 -0.4058 -0.4144 -0.2167
    1SOL     OW 4281   3.917   1.876   1.166 -0.0727 -0.1002 -0.1104
    1SOL    HW2 4282   3.956   1.843   1.246 -1.4376  0.8932  0.9834
    1SOL    HW3 4283   3.832   1.831   1.160 -0.3706  0.5046 -0.5089
    1SOL    MW4 4284   3.911   1.865   1.176 -0.2923  0.1107 -0.0186
    1SOL     OW 4285   1.165   1.527   2.047 -0.1880 -0.2677 -0.5307
    1SOL    HW2 4286   1.165   1.621   2.065  1.7454 -0.4728  0.6823
    1SOL    HW3 4287   1.186   1.521   1.954 -0.1064  0.5008 -0.5672
    1SOL    MW4 4288   1.168   1.538   2.037  0.0778 -0.1935 -0.3753
    1SOL     OW 4289   4.463   1.716   2.143 -0.1712 -0.2400 -0.6808
    1SOL    HW2 4290   4.416   1.738   2.224 -0.5746 -0.7656 -0.7698
    1SOL    HW3 4291   4.396   1.680   2.086  0.1193  0.1017 -1.2437
    1SOL    MW4 4292   4.448   1.714   2.146 -0.1860 -0.2643 -0.7668
    1SOL     OW 4293   2.208   0.914   2.131 -0.3879  0.2046 -0.2576
    1SOL    HW2 4294   2.174   0.974   2.065  0.8523  1.5132  0.2785
    1SOL    HW3 4295   2.226   0.833   2.083  2.1180  1.6631 -1.9125
    1SOL    MW4 4296   2.206   0.911   2.116  0.1063  0.5697 -0.4051
    1SOL     OW 4297   3.031   4.115   1.329  0.3705  0.0879  0.0136
    1SOL    HW2 4298   3.107   4.072   1.289  0.2435  1.0484 -1.2891
    1SOL    HW3 4299   2.955   4.079   1.283  0.1852  0.7475 -0.2085
    1SOL    MW4 4300   3.031   4.104   1.318  0.3293  0.3014 -0.1875
    1SOL     OW 4301   0.643   1.776   2.540 -0.4624  0.3609  0.1827
    1SOL    HW2 4302   0.628   1.683   2.559  0.0594  0.2819  0.2060
    1SOL    HW3 4303   0.706   1.805   2.606 -2.1143  1.2359  1.4048
    1SOL    MW4 4304   0.649   1.767   2.551 -0.6115  0.4659  0.3469
    1SOL     OW 4305   0.503   4.517   0.783  0.2592  0.5753  0.0979
    1SOL    HW2 4306   0.511   4.541   0.875  0.0270  0.0531  0.2519
    1SOL    HW3 4307   0.585   4.548   0.743  0.5889  0.3204  0.5778
    1SOL    MW4 4308   0.515   4.525   0.790  0.2720  0.4725  0.1815
    1SOL     OW 4309   1.144   2.467   1.824 -0.0093 -0.0078 -0.4096
    1SOL    HW2 4310   1.138   2.386   1.773  1.3589 -1.2516  1.2996
    1SOL    HW3 4311   1.099   2.447   1.906  0.9621  0.7223  0.3116
    1SOL    MW4 4312   1.138   2.454   1.828  0.2993 -0.0756 -0.0892
    1SOL     OW 4313   1.905   3.139   2.583  0.2062  0.2758  0.5754
    1SOL    HW2 4314   1.877   3.159   2.494 -0.5386 -0.9490  0.5148
    1SOL    HW3 4315   1.831   3.166   2.638  0.3312  0.2660  0.7503
    1SOL    MW4 4316   1.891   3.145   2.578  0.1243  0.1130  0.5906
    1SOL     OW 4317   1.065   1.994   3.104 -0.1848  0.1439  0.1535
    1SOL    HW2 4318   1.111   1.910   3.099 -1.1065 -0.3852  0.4398
    1SOL    HW3 4319   0.993   1.978   3.165 -0.8330  0.9286 -0.3955
    1SOL    MW4 4320   1.062   1.981   3.112 -0.3918  0.1776  0.1187
    1SOL     OW 4321   3.371   2.455   1.561 -0.3768  0.1883 -0.7766
    1SOL    HW2 4322   3.378   2.546   1.590 -1.0202 -0.2417  0.8071
    1SOL    HW3 4323   3.417   2.452   1.478  2.3221  1.2906  0.6412
    1SOL    MW4 4324   3.378   2.467   1.554 -0.1056  0.2770 -0.3805
    1SOL     OW 4325   0.193   3.140   1.227  0.4879 -0.4158  0.0508
    1SOL    HW2 4326   0.122   3.152   1.163 -0.2003 -0.0167  0.8709
    1SOL    HW3 4327   0.273   3.154   1.177 -0.0323 -0.2797 -0.7641
    1SOL    MW4 4328   0.194   3.143   1.212  0.3285 -0.3452  0.0514
    1SOL     OW 4329   1.552   3.642   0.802  0.0079 -0.2965 -0.4113
    1SOL    HW2 4330   1.578   3.552   0.822 -0.1659  0.0581  1.4135
    1SOL    HW3 4331   1.523   3.679   0.885  0.1137  1.4734 -1.1311
    1SOL    MW4 4332   1.552   3.635   0.815 -0.0012 -0.0162 -0.2655
    1SOL     OW 4333   0.510   1.886   0.562 -0.5553 -0.3903  0.0776
    1SOL    HW2 4334   0.439   1.864   0.623 -0.5850 -0.7777 -0.0960
    1SOL    HW3 4335   0.501   1.981   0.549 -0.8677 -0.3893  0.2723
    1SOL    MW4 4336   0.499   1.896   0.569 -0.6004 -0.4413  0.0804
    1SOL     OW 4337   2.911   3.831   0.554 -0.2901 -0.0522 -0.0523
    1SOL    HW2 4338   2.885   3.748   0.595  1.3788 -0.4988  0.1311
    1SOL    HW3 4339   2.852   3.839   0.478 -0.8178 -1.1407  0.2223
    1SOL    MW4 4340   2.900   3.821   0.549 -0.1395 -0.2549  0.0082
    1SOL     OW 4341   1.636   3.811   2.040  0.0682 -0.1964  0.1508
    1SOL    HW2 4342   1.598   3.898   2.029  0.0480 -0.2500 -0.1834
    1SOL    HW3 4343   1.694   3.820   2.116 -1.1762 -0.3020  1.1245
    1SOL    MW4 4344   1.639   3.824   2.049 -0.0987 -0.2174  0.2353
    1SOL     OW 4345   2.370   3.357   1.980  0.2580  0.3117  0.1602
    1SOL    HW2 4346   2.409   3.438   1.948  0.1132  0.7639  1.1314
    1SOL    HW3 4347   2.387   3.356   2.074 -0.7969 -0.1845  0.3629
    1SOL    MW4 4348   2.377   3.368   1.988  0.0997  0.3059  0.3151
    1SOL     OW 4349   0.031   4.095   2.333  0.1927 -0.4058  0.1678
    1SOL    HW2 4350  -0.035   4.164   2.329  1.4308  0.8060  0.5770
    1SOL    HW3 4351   0.113   4.138   2.311  1.1758 -1.4822  1.6212
    1SOL    MW4 4352   0.033   4.110   2.329  0.4857 -0.3881  0.4137
    1SOL     OW 4353   2.448   0.620   1.063 -0.1880 -0.4536 -0.0317
    1SOL    HW2 4354   2.409   0.671   1.134  1.9639  1.1210  0.0526
    1SOL    HW3 4355   2.464   0.534   1.102  0.2363  0.1560  1.1581
    1SOL    MW4 4356   2.445   0.615   1.077  0.1521 -0.1654  0.1365
    1SOL     OW 4357   1.755   4.613   3.148  0.2787 -0.1195 -0.1249
    1SOL    HW2 4358   1.695   4.670   3.100  0.4886 -0.0299 -0.2808
    1SOL    HW3 4359   1.726   4.524   3.125 -0.3366 -0.0783  0.4789
    1SOL    MW4 4360   1.743   4.609   3.138  0.2251 -0.1020 -0.0658
    1SOL     OW 4361   0.399   0.970   2.224 -0.0299  0.4894 -0.3443
    1SOL    HW2 4362   0.427   0.882   2.199  1.9807  0.2379  2.5687
    1SOL    HW3 4363   0.464   1.028   2.185  0.5433  0.4252  0.5056
    1SOL    MW4 4364   0.411   0.966   2.215  0.3110  0.4477  0.1521
    1SOL     OW 4365   2.564   1.720   1.100 -0.2582  0.0759  0.1341
    1SOL    HW2 4366   2.551   1.667   1.178 -0.0687  0.7811  0.6453
    1SOL    HW3 4367   2.554   1.811   1.130 -1.4793  0.3058 -0.8996
    1SOL    MW4 4368   2.561   1.725   1.114 -0.3941  0.1993  0.0652
    1SOL     OW 4369   2.536   4.303   2.967  0.2522 -0.4034  0.1609
    1SOL    HW2 4370   2.445   4.292   2.938 -0.1918 -1.1850  1.7623
    1SOL    HW3 4371   2.583   4.328   2.888 -1.0771 -1.5436 -1.0463
    1SOL    MW4 4372   2.530   4.305   2.952  0.0179 -0.6571  0.2129
    1SOL     OW 4373   3.278   0.018   2.458  0.5028 -0.1452 -0.1878
    1SOL    HW2 4374   3.202  -0.039   2.445  0.9869 -0.8065 -0.1435
    1SOL    HW3 4375   3.270   0.085   2.390  0.4295 -0.7999 -0.8305
    1SOL    MW4 4376   3.267   0.019   2.447  0.5569 -0.3189 -0.2666
    1SOL     OW 4377   1.142   1.000   0.353 -0.2339  0.2574  0.2999
    1SOL    HW2 4378   1.197   1.076   0.332 -0.5246  0.9352  1.8953
    1SOL    HW3 4379   1.202   0.925   0.348  0.3438  0.7396 -0.0781
    1SOL    MW4 4380   1.157   1.000   0.349 -0.1961  0.4104  0.4605
    1SOL     OW 4381   0.785   1.347   2.211 -0.1644 -0.0470 -0.4432
    1SOL    HW2 4382   0.774   1.440   2.189  0.4033  0.4977  1.4933
    1SOL    HW3 4383   0.860   1.345   2.269  0.2249 -1.8224 -0.9971
    1SOL    MW4 4384   0.793   1.359   2.216 -0.0380 -0.2095 -0.2608
    1SOL     OW 4385   4.004   0.598   1.015  0.4190 -0.0164  0.5858
    1SOL    HW2 4386   4.071   0.666   1.013  0.4242 -0.0439 -1.5812
    1SOL    HW3 4387   4.038   0.533   1.077  2.2872  0.0906 -0.3009
    1SOL    MW4 4388   4.017   0.598   1.023  0.6661 -0.0058  0.1830
    1SOL     OW 4389   0.798   2.440   0.752 -0.1017  0.2971  0.1288
    1SOL    HW2 4390   0.874   2.471   0.801 -0.7290  0.4476  0.9975
    1SOL    HW3 4391   0.787   2.349   0.779  0.9556 -0.3234 -1.4629
    1SOL    MW4 4392   0.807   2.432   0.762 -0.0451  0.2348  0.0334
    1SOL     OW 4393   1.989   0.915   2.311  0.0292 -0.3443 -0.8450
    1SOL    HW2 4394   1.986   1.011   2.305 -1.0902 -0.1210  2.1422
    1SOL    HW3 4395   2.056   0.889   2.248  0.8658  2.4597 -1.1993
    1SOL    MW4 4396   1.997   0.924   2.302 -0.0081  0.0551 -0.4976
    1SOL     OW 4397   2.504   2.973   1.430 -0.1857  0.1381  0.1122
    1SOL    HW2 4398   2.463   2.964   1.344  0.2466 -1.3951  0.0425
    1SOL    HW3 4399   2.591   3.008   1.412  0.0353 -0.5137 -0.1277
    1SOL    MW4 4400   2.510   2.976   1.416 -0.0999 -0.1502  0.0712
    1SOL     OW 4401   3.121   3.095   3.675 -0.2782 -0.2076 -0.2609
    1SOL    HW2 4402   3.196   3.119   3.621  0.5753 -1.4505  0.3493
    1SOL    HW3 4403   3.085   3.017   3.634  0.0352 -0.8273  0.6175
    1SOL    MW4 4404   3.127   3.088   3.663 -0.1240 -0.4532 -0.0646
    1SOL     OW 4405   1.571   2.908   0.706 -0.4057 -0.1003  0.1219
    1SOL    HW2 4406   1.565   2.820   0.668  0.1236 -0.1613  0.1780
    1SOL    HW3 4407   1.536   2.898   0.794  0.1461 -0.3691  0.3107
    1SOL    MW4 4408   1.565   2.895   0.712 -0.2631 -0.1438  0.1542
    1SOL     OW 4409   1.977   2.504   2.716 -0.0468  0.8821 -0.3461
    1SOL    HW2 4410   2.049   2.462   2.669 -0.0866  0.5868 -0.1465
    1SOL    HW3 4411   2.016   2.581   2.756  0.4823 -0.0003  0.8851
    1SOL    MW4 4412   1.991   2.508   2.715  0.0179  0.7267 -0.1574
    1SOL     OW 4413   2.612   1.920   0.646 -0.2362 -0.3581 -0.4309
    1SOL    HW2 4414   2.634   2.003   0.603  0.6079 -0.4057 -0.1012
    1SOL    HW3 4415   2.559   1.945   0.721 -1.5227 -0.2558 -1.3529
    1SOL    MW4 4416   2.608   1.934   0.650 -0.2944 -0.3510 -0.5091
    1SOL     OW 4417   2.843   3.055   0.372  0.4168  0.2221 -0.0161
    1SOL    HW2 4418   2.854   3.072   0.466 -0.1712  0.4216  0.0185
    1SOL    HW3 4419   2.820   3.140   0.335  0.8300  0.1817 -0.3725
    1SOL    MW4 4420   2.842   3.068   0.380  0.3939  0.2432 -0.0586
    1SOL     OW 4421   0.957   2.881   2.011  0.4606 -0.1313 -0.2825
    1SOL    HW2 4422   1.047   2.891   2.041  0.8264 -0.3681 -1.2676
    1SOL    HW3 4423   0.960   2.807   1.950 -0.3651 -0.0257 -0.4669
    1SOL    MW4 4424   0.969   2.873   2.007  0.3999 -0.1488 -0.4368
    1SOL     OW 4425   3.049   4.431   1.901  0.1519 -0.3008  0.0318
    1SOL    HW2 4426   3.132   4.410   1.860  1.0036  0.1801  1.4946
    1SOL    HW3 4427   2.985   4.378   1.853  1.4528 -1.6423 -0.2699
    1SOL    MW4 4428   3.051   4.421   1.890  0.4361 -0.4144  0.1851
    1SOL     OW 4429   0.987   4.332   0.843 -0.1664  0.1851 -0.1994
    1SOL    HW2 4430   1.064   4.281   0.868  0.4278  0.7330 -0.8816
    1SOL    HW3 4431   0.953   4.367   0.925 -0.2213 -0.7938  0.2080
    1SOL    MW4 4432   0.993   4.330   0.857 -0.0952  0.1283 -0.2356
    1SOL     OW 4433   4.119   0.510   0.553 -0.5096  0.3603  0.5531
    1SOL    HW2 4434   4.142   0.441   0.616 -0.4913  1.1061  1.3740
    1SOL    HW3 4435   4.026   0.496   0.535 -0.0878 -1.0007 -0.6971
    1SOL    MW4 4436   4.110   0.499   0.559 -0.4520  0.2792  0.4964
    1SOL     OW 4437   3.164   3.288   1.408  0.3665 -0.2131  0.4919
    1SOL    HW2 4438   3.214   3.340   1.470  0.8506  0.2546 -0.2783
    1SOL    HW3 4439   3.084   3.338   1.393  0.2911 -0.2810  0.6731
    1SOL    MW4 4440   3.160   3.302   1.414  0.4206 -0.1605  0.4143
    1SOL     OW 4441   4.021   4.656   0.611 -0.5676  0.2523  0.2474
    1SOL    HW2 4442   4.047   4.565   0.627 -0.0877  0.4016  0.3400
    1SOL    HW3 4443   4.084   4.688   0.547 -0.6216  0.5769  0.3561
    1SOL    MW4 4444   4.033   4.648   0.605 -0.5116  0.3152  0.2739
    1SOL     OW 4445   1.941   4.121   2.623  0.2819  0.0540  0.0059
    1SOL    HW2 4446   1.868   4.183   2.621  0.2057 -0.0432 -1.3684
    1SOL    HW3 4447   1.998   4.150   2.551  0.3853 -1.2895 -0.4649
    1SOL    MW4 4448   1.939   4.133   2.613  0.2855 -0.1359 -0.2377
    1SOL     OW 4449   0.435   0.651   1.750 -0.1066 -0.0208  0.3415
    1SOL    HW2 4450   0.416   0.737   1.711 -1.3272  0.1503  1.2891
    1SOL    HW3 4451   0.508   0.668   1.810 -0.0751  0.2755  0.2238
    1SOL    MW4 4452   0.442   0.665   1.752 -0.2635  0.0409  0.4510
    1SOL     OW 4453   3.159   0.521   2.394 -0.0753 -0.2250 -0.6287
    1SOL    HW2 4454   3.135   0.540   2.304 -0.0632 -1.0307 -0.8006
    1SOL    HW3 4455   3.249   0.554   2.403 -0.5973  1.2078 -0.4755
    1SOL    MW4 4456   3.168   0.528   2.384 -0.1423 -0.1423 -0.6311
    1SOL     OW 4457   1.403   0.985   2.718 -0.8094  0.0800 -0.2783
    1SOL    HW2 4458   1.340   0.926   2.676 -0.5590  0.0683 -0.6462
    1SOL    HW3 4459   1.350   1.048   2.765 -1.0607 -1.7083  1.8908
    1SOL    MW4 4460   1.388   0.986   2.718 -0.8094 -0.1575 -0.0410
    1SOL     OW 4461   2.382   0.834   2.332  0.1319 -0.1620  0.1748
    1SOL    HW2 4462   2.325   0.871   2.265 -1.0575  0.3256  1.4380
    1SOL    HW3 4463   2.407   0.748   2.298 -0.1524  0.2395 -1.0597
    1SOL    MW4 4464   2.378   0.827   2.319 -0.0625 -0.0447  0.1783
    1SOL     OW 4465   1.140   4.517   1.157 -0.2640  0.0048  0.2442
    1SOL    HW2 4466   1.182   4.604   1.155  0.6825 -0.4630 -1.3931
    1SOL    HW3 4467   1.049   4.534   1.136 -0.0777  0.6070 -0.1058
    1SOL    MW4 4468   1.134   4.531   1.154 -0.1147  0.0229 -0.0181
    1SOL     OW 4469   3.657   0.747   1.880 -0.2907  0.1347  0.3969
    1SOL    HW2 4470   3.568   0.780   1.870 -0.5915 -0.2321  1.7613
    1SOL    HW3 4471   3.708   0.823   1.907 -0.5901 -0.0743  1.5736
    1SOL    MW4 4472   3.652   0.762   1.882 -0.3703  0.0587  0.7322
    1SOL     OW 4473   1.817   1.512   2.622 -0.2919  0.0057 -0.0106
    1SOL    HW2 4474   1.846   1.510   2.531  2.8421 -0.3128  0.9431
    1SOL    HW3 4475   1.884   1.563   2.668 -2.7756  1.7812  1.8503
    1SOL    MW4 4476   1.829   1.519   2.616 -0.2061  0.1979  0.3605
    1SOL     OW 4477   0.874   1.964   1.126  0.1903  0.3552 -0.1564
    1SOL    HW2 4478   0.884   2.054   1.095  0.8024  0.6824  0.9586
    1SOL    HW3 4479   0.805   1.970   1.193  0.1956 -0.0057 -0.1194
    1SOL    MW4 4480   0.866   1.977   1.131  0.2717  0.3508 -0.0044
    1SOL     OW 4481   3.300   0.193   2.233  0.2998 -0.3928 -0.2069
    1SOL    HW2 4482   3.367   0.260   2.248  0.7529 -0.9827  0.4253
    1SOL    HW3 4483   3.324   0.153   2.149  0.4309 -0.2435 -0.2408
    1SOL    MW4 4484   3.312   0.197   2.224  0.3767 -0.4510 -0.1280
    1SOL     OW 4485   1.443   0.967   3.188 -0.4222 -0.7591 -0.2302
    1SOL    HW2 4486   1.401   0.888   3.222  0.9600 -0.8222  1.4166
    1SOL    HW3 4487   1.438   1.029   3.260 -0.2264  0.1833 -1.0191
    1SOL    MW4 4488   1.437   0.965   3.202 -0.2140 -0.6431 -0.1173
    1SOL     OW 4489   2.070   0.678   1.243  0.0791 -0.2428  0.6478
    1SOL    HW2 4490   2.157   0.700   1.274  0.3721  0.6808 -0.8122
    1SOL    HW3 4491   2.022   0.761   1.241 -1.1531 -0.8807  2.3916
    1SOL    MW4 4492   2.075   0.691   1.247 -0.0451 -0.2051  0.6852
    1SOL     OW 4493   4.244   1.459   2.595 -0.1735  0.2179  0.3768
    1SOL    HW2 4494   4.298   1.462   2.674 -0.7887 -1.1755  0.8688
    1SOL    HW3 4495   4.236   1.365   2.575 -1.7289  0.4455 -0.1373
    1SOL    MW4 4496   4.250   1.447   2.603 -0.4601  0.0641  0.3741
    1SOL     OW 4497   2.640   2.688   1.938 -0.1101 -0.3131 -0.1255
    1SOL    HW2 4498   2.597   2.619   1.887 -2.0168  1.3377 -0.8279
    1SOL    HW3 4499   2.588   2.695   2.017 -0.1308  0.5504 -0.2138
    1SOL    MW4 4500   2.627   2.680   1.941 -0.3643  0.0186 -0.2300
    1SOL     OW 4501   2.425   1.452   0.448  0.4714  0.1540 -0.3309
    1SOL    HW2 4502   2.461   1.372   0.487  0.0236  0.2169  0.2061
    1SOL    HW3 4503   2.473   1.523   0.490  0.6441  0.1842 -0.5762
    1SOL    MW4 4504   2.436   1.451   0.458  0.4351  0.1662 -0.2924
    1SOL     OW 4505   0.904   1.784   1.991  0.2335  0.1701 -0.3667
    1SOL    HW2 4506   0.857   1.864   1.970 -0.0235  0.3115  0.7167
    1SOL    HW3 4507   0.994   1.813   2.006  0.4765  0.0286 -1.5404
    1SOL    MW4 4508   0.910   1.799   1.990  0.2317  0.1702 -0.3785
    1SOL     OW 4509   1.699   2.232   2.659  0.4104 -0.4773 -0.2229
    1SOL    HW2 4510   1.765   2.250   2.592  1.5952 -0.8054  0.8281
    1SOL    HW3 4511   1.678   2.318   2.696 -0.1753 -0.3069 -0.9453
    1SOL    MW4 4512   1.705   2.246   2.655  0.4895 -0.4978 -0.1795
    1SOL     OW 4513   3.182   1.732   1.517  0.1536 -0.3106 -0.2576
    1SOL    HW2 4514   3.166   1.638   1.524 -1.5121 -0.0316 -0.0961
    1SOL    HW3 4515   3.132   1.770   1.589  1.3689  0.6610  0.0950
    1SOL    MW4 4516   3.174   1.724   1.527  0.0939 -0.1456 -0.1897
    1SOL     OW 4517   4.391   3.621   4.446  0.0765 -0.5205 -0.1021
    1SOL    HW2 4518   4.408   3.714   4.435 -2.6816 -0.0684 -1.0158
    1SOL    HW3 4519   4.343   3.615   4.529  1.5646 -1.3320  0.7276
    1SOL    MW4 4520   4.387   3.632   4.456 -0.0916 -0.5679 -0.1135
    1SOL     OW 4521   3.791   1.991   1.553  0.1924  0.3157 -0.2465
    1SOL    HW2 4522   3.773   2.085   1.564  0.9072  0.3019  1.0706
    1SOL    HW3 4523   3.886   1.984   1.560  0.2205 -0.4049 -1.2264
    1SOL    MW4 4524   3.801   2.003   1.555  0.2902  0.2189 -0.2019
    1SOL     OW 4525   2.071   3.735   2.676  0.5529 -0.2240 -0.0397
    1SOL    HW2 4526   2.053   3.642   2.660 -0.4533  0.2471 -1.7459
    1SOL    HW3 4527   1.993   3.781   2.643  2.3181  1.4327 -2.1031
    1SOL    MW4 4528   2.058   3.729   2.669  0.6533  0.0570 -0.5372
    1SOL     OW 4529   4.324   4.287   2.326  0.1963 -0.5810  0.2597
    1SOL    HW2 4530   4.260   4.317   2.390 -0.5591 -1.6989  0.0587
    1SOL    HW3 4531   4.313   4.345   2.251 -0.7619 -0.9236  0.1333
    1SOL    MW4 4532   4.314   4.298   2.325 -0.0300 -0.7744  0.2165
    1SOL     OW 4533   3.089   4.086   2.831 -0.2150 -0.4184 -0.5064
    1SOL    HW2 4534   3.105   4.006   2.781 -0.5470 -0.0181 -1.2670
    1SOL    HW3 4535   2.994   4.086   2.846 -0.0854 -0.6576  0.3366
    1SOL    MW4 4536   3.078   4.076   2.826 -0.2418 -0.3972 -0.4957
    1SOL     OW 4537   2.131   3.785   2.032 -0.4949 -0.0185  0.2062
    1SOL    HW2 4538   2.108   3.859   2.088 -0.3673 -0.0984  0.3658
    1SOL    HW3 4539   2.223   3.767   2.052 -0.3568  0.1588 -0.2706
    1SOL    MW4 4540   2.140   3.792   2.042 -0.4599 -0.0055  0.1643
    1SOL     OW 4541   3.321   3.980   1.987  0.0293  0.1005  0.1046
    1SOL    HW2 4542   3.260   4.044   2.023 -0.4753 -1.4811  2.1197
    1SOL    HW3 4543   3.283   3.895   2.010  1.6660 -0.9167 -0.8637
    1SOL    MW4 4544   3.308   3.977   1.995  0.1786 -0.2422  0.2427
    1SOL     OW 4545   0.095   1.333   2.116  0.0068 -0.1394 -0.2602
    1SOL    HW2 4546   0.127   1.260   2.064 -0.2385 -0.3894 -0.0605
    1SOL    HW3 4547   0.151   1.335   2.194  0.8955  0.7375 -0.9144
    1SOL    MW4 4548   0.106   1.324   2.120  0.0917 -0.0566 -0.3202
    1SOL     OW 4549   2.878   0.017   2.757 -0.4247  0.0289  0.1720
    1SOL    HW2 4550   2.864   0.051   2.669  0.8054  0.3230  0.0707
    1SOL    HW3 4551   2.893  -0.077   2.745  0.7631  0.2303 -0.0675
    1SOL    MW4 4552   2.878   0.009   2.744 -0.1059  0.0943  0.1271
    1SOL     OW 4553   0.161   3.611   1.659 -0.0697 -0.0740 -0.3203
    1SOL    HW2 4554   0.099   3.571   1.598  1.0555 -1.4532 -0.5834
    1SOL    HW3 4555   0.131   3.701   1.667 -1.7354 -0.5454 -0.9398
    1SOL    MW4 4556   0.149   3.617   1.652 -0.1410 -0.3181 -0.4369
    1SOL     OW 4557   3.200   0.604   2.773 -0.1470 -0.0334 -0.3831
    1SOL    HW2 4558   3.153   0.535   2.726  1.7874 -0.6211 -1.4918
    1SOL    HW3 4559   3.157   0.685   2.745 -2.0970 -0.7146  0.5380
    1SOL    MW4 4560   3.188   0.606   2.763 -0.1490 -0.2008 -0.4075
    1SOL     OW 4561   4.418   1.460   2.818 -0.3766 -0.1001 -0.2833
    1SOL    HW2 4562   4.391   1.552   2.826  0.0704  0.0674 -0.6323
    1SOL    HW3 4563   4.414   1.426   2.908  1.4524  0.8513  0.1949
    1SOL    MW4 4564   4.414   1.468   2.831 -0.0758  0.0476 -0.2663
    1SOL     OW 4565   2.225   0.267   0.728 -0.2405  0.1170 -0.3921
    1SOL    HW2 4566   2.217   0.283   0.822 -0.8698  1.0873 -0.5981
    1SOL    HW3 4567   2.263   0.348   0.693  0.9905 -0.6381 -0.8312
    1SOL    MW4 4568   2.229   0.280   0.736 -0.1609  0.1454 -0.4772
    1SOL     OW 4569   1.356   1.578   2.573  0.2373 -0.3475  0.5266
    1SOL    HW2 4570   1.354   1.605   2.481 -0.5814 -1.5072  0.2023
    1SOL    HW3 4571   1.418   1.639   2.614 -0.5910  1.1867 -0.4580
    1SOL    MW4 4572   1.364   1.589   2.566  0.0200 -0.2981  0.3538
    1SOL     OW 4573   2.807   0.911   3.024  0.0950 -0.5613 -0.3834
    1SOL    HW2 4574   2.737   0.862   2.981  2.1127 -4.0842  0.1696
    1SOL    HW3 4575   2.845   0.964   2.954 -2.2960  0.4700 -0.9532
    1SOL    MW4 4576   2.803   0.911   3.009  0.0460 -0.8900 -0.3855
    1SOL     OW 4577   2.645   1.165   3.060  0.0677  0.3871 -0.1142
    1SOL    HW2 4578   2.668   1.072   3.071 -0.0763  0.2224 -1.0900
    1SOL    HW3 4579   2.553   1.170   3.088  0.0171  0.1935 -0.2407
    1SOL    MW4 4580   2.636   1.153   3.065  0.0417  0.3400 -0.2596
    1SOL     OW 4581   1.885   1.666   0.980 -0.2783 -0.3461  0.4285
    1SOL    HW2 4582   1.951   1.709   1.035  0.9959 -1.2506 -0.3612
    1SOL    HW3 4583   1.841   1.738   0.935  0.9784  0.2056  0.0702
    1SOL    MW4 4584   1.888   1.682   0.981  0.0558 -0.3927  0.2770
    1SOL     OW 4585   3.935   0.024   1.682 -0.1996  0.0205  0.2268
    1SOL    HW2 4586   3.915   0.068   1.764  0.9036 -0.3831  0.7215
    1SOL    HW3 4587   3.851  -0.014   1.654 -0.6861  0.5857  0.8986
    1SOL    MW4 4588   3.921   0.025   1.689 -0.1185  0.0418  0.3808
    1SOL     OW 4589   3.981   1.796   2.820  0.3104 -0.0249  0.5566
    1SOL    HW2 4590   3.908   1.857   2.810  0.4352  0.0993  0.3910
    1SOL    HW3 4591   3.953   1.735   2.888  0.4950  0.6703  1.2619
    1SOL    MW4 4592   3.968   1.796   2.827  0.3512  0.0831  0.6275
    1SOL     OW 4593   2.195   0.429   1.912  0.2730  0.0080  0.0262
    1SOL    HW2 4594   2.135   0.466   1.848  0.1351 -0.0671  0.1118
    1SOL    HW3 4595   2.268   0.396   1.860 -1.1013 -2.5506 -0.3563
    1SOL    MW4 4596   2.197   0.429   1.897  0.0737 -0.3395 -0.0130
    1SOL     OW 4597   2.297   4.273   2.802 -0.3025  0.3196 -0.1108
    1SOL    HW2 4598   2.233   4.202   2.806 -0.5878  0.5360 -0.7533
    1SOL    HW3 4599   2.246   4.352   2.823 -0.0985  0.4003  0.0797
    1SOL    MW4 4600   2.282   4.274   2.805 -0.3130  0.3586 -0.1705
    1SOL     OW 4601   4.470   0.930   3.696 -0.2460 -0.0280 -0.1993
    1SOL    HW2 4602   4.386   0.931   3.650 -0.7779  0.7275  0.7747
    1SOL    HW3 4603   4.482   0.838   3.720 -0.5818 -0.2137 -0.7314
    1SOL    MW4 4604   4.460   0.918   3.693 -0.3604  0.0472 -0.1411
    1SOL     OW 4605   3.314   3.734   1.648 -0.1631  0.0422 -0.1028
    1SOL    HW2 4606   3.370   3.812   1.640 -0.7349  0.3678 -0.9942
    1SOL    HW3 4607   3.315   3.713   1.741  0.4986  0.7509  0.0519
    1SOL    MW4 4608   3.322   3.741   1.659 -0.1512  0.1786 -0.2000
    1SOL     OW 4609   3.388   4.299   2.597 -0.6055  0.1020 -0.5616
    1SOL    HW2 4610   3.437   4.361   2.542 -1.9657  1.4944 -0.2425
    1SOL    HW3 4611   3.299   4.302   2.562 -1.0820 -0.3188  0.6170
    1SOL    MW4 4612   3.383   4.308   2.585 -0.8478  0.2303 -0.3638
    1SOL     OW 4613   2.922   1.489   1.169 -0.0804 -0.0678 -0.2614
    1SOL    HW2 4614   2.860   1.425   1.205  0.6597 -0.7988 -0.2641
    1SOL    HW3 4615   3.006   1.465   1.207  0.2114  0.8944 -0.2954
    1SOL    MW4 4616   2.925   1.477   1.179  0.0558 -0.0372 -0.2662
    1SOL     OW 4617   3.865   3.367   1.297 -0.0607  0.0535  0.3823
    1SOL    HW2 4618   3.858   3.365   1.202  1.2748 -0.6966  0.2958
    1SOL    HW3 4619   3.955   3.340   1.316  0.0301  1.3034  1.8153
    1SOL    MW4 4620   3.876   3.363   1.287  0.1273  0.1197  0.5599
    1SOL     OW 4621   1.005   4.517   2.582 -0.3433 -0.2390 -0.0498
    1SOL    HW2 4622   0.975   4.530   2.492  1.3413  0.5746 -0.5375
    1SOL    HW3 4623   1.101   4.517   2.575 -0.2063 -1.5029  1.5732
    1SOL    MW4 4624   1.014   4.519   2.569 -0.1030 -0.2980  0.0999
    1SOL     OW 4625   1.817   2.964   1.459  0.0345  0.4700  0.7957
    1SOL    HW2 4626   1.761   3.040   1.476 -0.5301 -0.0592  1.2897
    1SOL    HW3 4627   1.861   2.947   1.542 -0.0762  0.0595  0.7722
    1SOL    MW4 4628   1.815   2.972   1.472 -0.0547  0.3464  0.8577
    1SOL     OW 4629   3.605   3.710   0.240 -0.4518  0.0931  0.0127
    1SOL    HW2 4630   3.565   3.782   0.191 -0.3102  0.2933  0.1943
    1SOL    HW3 4631   3.538   3.686   0.305 -0.9921 -0.7462 -0.8372
    1SOL    MW4 4632   3.591   3.716   0.242 -0.5045  0.0091 -0.0754
    1SOL     OW 4633   3.289   4.079   1.730  0.2414 -0.0693  0.2535
    1SOL    HW2 4634   3.301   4.171   1.754  1.1544 -0.3107  0.7408
    1SOL    HW3 4635   3.293   4.032   1.812 -1.2531 -0.4591  0.1148
    1SOL    MW4 4636   3.291   4.085   1.744  0.1647 -0.1531  0.2996
    1SOL     OW 4637   3.905   4.636   1.365 -0.2199  0.4281 -0.2908
    1SOL    HW2 4638   3.850   4.710   1.340 -1.2592 -0.3035 -0.1839
    1SOL    HW3 4639   3.931   4.597   1.282 -1.1731 -0.1779 -0.3083
    1SOL    MW4 4640   3.902   4.641   1.351 -0.4828  0.2513 -0.2791
    1SOL     OW 4641   3.089   0.253   1.829  0.1888  0.3866  0.0537
    1SOL    HW2 4642   3.013   0.306   1.851  0.1949 -0.3474  1.8751
    1SOL    HW3 4643   3.052   0.174   1.789  0.2060  2.0236 -3.4347
    1SOL    MW4 4644   3.074   0.249   1.826  0.1915  0.5057 -0.1662
    1SOL     OW 4645   2.460   3.807   2.364 -0.5001  0.1909  0.0363
    1SOL    HW2 4646   2.368   3.810   2.390 -0.4816  1.6226 -0.0246
    1SOL    HW3 4647   2.458   3.791   2.270 -0.6253 -2.2344  0.4327
    1SOL    MW4 4648   2.448   3.806   2.355 -0.5143  0.0598  0.0806
    1SOL     OW 4649   3.019   3.761   2.564  0.1542 -0.4135  0.2681
    1SOL    HW2 4650   2.992   3.824   2.497 -1.5602  0.6581  1.9182
    1SOL    HW3 4651   3.082   3.808   2.618  0.4818 -0.8239  0.2495
    1SOL    MW4 4652   3.024   3.775   2.562 -0.0288 -0.3262  0.4833
    1SOL     OW 4653   3.475   3.620   1.222  0.2083  0.1005  0.1343
    1SOL    HW2 4654   3.561   3.596   1.257  0.4097 -0.0877 -0.4806
    1SOL    HW3 4655   3.454   3.703   1.264  0.2410 -0.3440  1.0420
    1SOL    MW4 4656   3.483   3.628   1.232  0.2394  0.0172  0.1731
    1SOL     OW 4657   2.223   1.558   1.235 -0.1084  0.3959  0.1976
    1SOL    HW2 4658   2.200   1.612   1.310 -0.3422 -0.6988  0.9214
    1SOL    HW3 4659   2.159   1.486   1.236  1.0647 -0.6638  0.0845
    1SOL    MW4 4660   2.211   1.555   1.245  0.0155  0.1117  0.2781
    1SOL     OW 4661   2.622   0.928   1.108  0.2920  0.1410  0.1830
    1SOL    HW2 4662   2.679   0.863   1.148 -0.2520  0.1673  1.0134
    1SOL    HW3 4663   2.669   1.011   1.118  0.3100  0.0967  0.4727
    1SOL    MW4 4664   2.636   0.930   1.115  0.2227  0.1386  0.3309
    1SOL     OW 4665   3.378   0.521   1.289  0.0800 -0.2256 -0.3922
    1SOL    HW2 4666   3.416   0.459   1.351  1.6240 -0.9997 -2.0479
    1SOL    HW3 4667   3.452   0.578   1.264 -0.4615 -0.0471 -1.6355
    1SOL    MW4 4668   3.393   0.520   1.294  0.2122 -0.3041 -0.7746
    1SOL     OW 4669   3.606   0.577   2.556 -0.2303  0.0689 -0.3172
    1SOL    HW2 4670   3.565   0.617   2.632 -0.5502 -0.2245 -0.3329
    1SOL    HW3 4671   3.581   0.484   2.560 -0.9872  0.2201 -1.2590
    1SOL    MW4 4672   3.597   0.570   2.566 -0.3722  0.0501 -0.4435
    1SOL     OW 4673   0.151   0.900   2.127  0.0471  0.1122 -0.2818
    1SOL    HW2 4674   0.233   0.941   2.155  0.0940 -0.4343  0.3872
    1SOL    HW3 4675   0.179   0.822   2.078 -0.0792 -0.1958  0.1386
    1SOL    MW4 4676   0.165   0.895   2.124  0.0366 -0.0005 -0.1378
    1SOL     OW 4677   0.193   1.425   0.806  0.0588  0.3517  0.4380
    1SOL    HW2 4678   0.149   1.508   0.790 -1.6145 -0.3905  1.0597
    1SOL    HW3 4679   0.166   1.399   0.894 -2.0542 -2.3922 -0.9187
    1SOL    MW4 4680   0.184   1.432   0.815 -0.4408 -0.1084  0.3410
    1SOL     OW 4681   0.117   1.025   0.920  0.0426 -0.1938  0.3810
    1SOL    HW2 4682   0.086   0.989   1.003 -1.2974  1.5723  0.6674
    1SOL    HW3 4683   0.197   1.072   0.943  0.9058 -1.5576  0.2690
    1SOL    MW4 4684   0.124   1.026   0.934 -0.0203 -0.1408  0.4040
    1SOL     OW 4685   2.790   2.200   0.852 -0.4812  0.0501  0.3429
    1SOL    HW2 4686   2.802   2.131   0.918  0.7448  0.1339  0.2208
    1SOL    HW3 4687   2.861   2.262   0.868 -1.3627  1.1216  0.2235
    1SOL    MW4 4688   2.801   2.199   0.863 -0.4358  0.2024  0.3111
    1SOL     OW 4689   3.620   0.198   1.550  0.1247 -0.2089  0.0338
    1SOL    HW2 4690   3.574   0.115   1.539  0.4106 -0.1064 -2.0401
    1SOL    HW3 4691   3.687   0.198   1.482 -0.0573  1.8329 -0.1760
    1SOL    MW4 4692   3.622   0.187   1.540  0.1385  0.0740 -0.2676
    1SOL     OW 4693   2.953   3.289   2.022  0.0115 -0.5238  0.3492
    1SOL    HW2 4694   2.953   3.318   1.931 -1.3687 -0.9214  0.2026
    1SOL    HW3 4695   2.961   3.194   2.017  1.1400 -0.4561  0.6981
    1SOL    MW4 4696   2.954   3.280   2.009 -0.0217 -0.5674  0.3757
    1SOL     OW 4697   3.815   2.632   1.301 -0.1590  0.2931  0.0258
    1SOL    HW2 4698   3.730   2.632   1.257  0.0058 -0.5384 -0.3009
    1SOL    HW3 4699   3.868   2.569   1.252  0.7376  1.0069  0.0622
    1SOL    MW4 4700   3.811   2.624   1.289 -0.0188  0.2775 -0.0125
    1SOL     OW 4701   3.611   1.986   0.976 -0.5341 -0.7967 -0.4100
    1SOL    HW2 4702   3.596   1.967   0.883  0.1074  2.2419 -1.2080
    1SOL    HW3 4703   3.531   2.030   1.005  1.2825  3.1991 -1.0667
    1SOL    MW4 4704   3.599   1.989   0.968 -0.2098  0.1314 -0.6019
    1SOL     OW 4705   0.157   1.094   4.219  0.6914 -0.1703  0.9348
    1SOL    HW2 4706   0.173   1.140   4.301  0.6135 -0.6873  1.2387
    1SOL    HW3 4707   0.082   1.038   4.236  1.1571 -0.8656  0.7512
    1SOL    MW4 4708   0.150   1.092   4.232  0.7426 -0.3302  0.9503
    1SOL     OW 4709   4.332   3.704   1.978 -0.1084 -0.2196  0.3693
    1SOL    HW2 4710   4.400   3.753   2.025 -0.7624  0.6054  0.4615
    1SOL    HW3 4711   4.327   3.620   2.025  0.0668  0.1409  1.0506
    1SOL    MW4 4712   4.341   3.699   1.991 -0.1721 -0.0632  0.4714
    1SOL     OW 4713   1.095   3.758   2.472 -0.3681 -0.4942  0.0026
    1SOL    HW2 4714   1.008   3.721   2.486 -1.0567  1.2538  0.4415
    1SOL    HW3 4715   1.111   3.813   2.548  1.1215 -0.7601 -0.0946
    1SOL    MW4 4716   1.086   3.760   2.484 -0.2625 -0.2987  0.0474
    1SOL     OW 4717   3.155   3.749   2.065  0.2690 -0.1222 -0.0782
    1SOL    HW2 4718   3.212   3.689   2.017  1.3027  0.1964  0.7591
    1SOL    HW3 4719   3.109   3.693   2.127 -0.0893 -0.3223 -0.5166
    1SOL    MW4 4720   3.156   3.734   2.067  0.3581 -0.1068 -0.0253
    1SOL     OW 4721   4.018   2.044   3.194  0.3223 -0.4556  0.3710
    1SOL    HW2 4722   3.932   2.003   3.190  1.0945 -1.9670 -1.6815
    1SOL    HW3 4723   4.003   2.134   3.164 -0.5703 -0.6396  0.2502
    1SOL    MW4 4724   4.005   2.050   3.190  0.3066 -0.6793  0.0844
    1SOL     OW 4725   4.046   3.354   3.840 -0.3167 -0.2992 -0.6317
    1SOL    HW2 4726   3.985   3.282   3.857  0.2937 -0.6136  0.2586
    1SOL    HW3 4727   4.124   3.311   3.805  0.3000 -0.1583  0.5252
    1SOL    MW4 4728   4.048   3.339   3.838 -0.1545 -0.3221 -0.3617
    1SOL     OW 4729   3.117   3.034   1.040 -0.6498 -0.2134  0.1847
    1SOL    HW2 4730   3.148   2.969   1.103 -1.0123  1.4303  2.1449
    1SOL    HW3 4731   3.022   3.029   1.046 -0.6788  0.8047  0.7190
    1SOL    MW4 4732   3.109   3.025   1.049 -0.7012  0.1376  0.5139
    1SOL     OW 4733   2.466   3.354   2.242  0.3145  0.4170 -0.4453
    1SOL    HW2 4734   2.537   3.310   2.196 -1.3774 -0.3514 -2.3880
    1SOL    HW3 4735   2.428   3.286   2.298 -0.6313  0.0594 -1.4934
    1SOL    MW4 4736   2.470   3.339   2.243 -0.0334  0.2682 -0.8399
    1SOL     OW 4737   1.704   3.106   2.125 -0.0715 -0.3208 -0.2634
    1SOL    HW2 4738   1.774   3.068   2.073  1.7416  0.7847  1.2949
    1SOL    HW3 4739   1.653   3.030   2.156  1.7151 -1.2795  0.3655
    1SOL    MW4 4740   1.706   3.091   2.122  0.4035 -0.3016  0.0253
    1SOL     OW 4741   0.507   2.565   2.499  0.0851  0.7428  0.6471
    1SOL    HW2 4742   0.516   2.479   2.458  2.1214 -0.5272  3.5426
    1SOL    HW3 4743   0.414   2.572   2.521 -0.2307 -0.3984 -0.2905
    1SOL    MW4 4744   0.496   2.554   2.497  0.3121  0.4246  0.9053
    1SOL     OW 4745   2.203   2.874   2.654 -0.4892  0.1672  0.3065
    1SOL    HW2 4746   2.200   2.809   2.724 -1.6245 -1.6891 -1.4357
    1SOL    HW3 4747   2.113   2.882   2.624  0.0384  0.7055 -1.1809
    1SOL    MW4 4748   2.191   2.867   2.660 -0.5693 -0.0067 -0.1197
    1SOL     OW 4749   3.324   0.146   1.928  0.4375 -0.2396 -0.1739
    1SOL    HW2 4750   3.238   0.184   1.908  0.0218 -0.7641  0.5597
    1SOL    HW3 4751   3.380   0.222   1.945 -0.3284  0.0710  1.0617
    1SOL    MW4 4752   3.320   0.161   1.928  0.2818 -0.2678  0.0859
    1SOL     OW 4753   4.415   0.330   2.446 -0.2155  0.0348  0.1793
    1SOL    HW2 4754   4.401   0.403   2.505 -2.0705  0.8437 -1.1948
    1SOL    HW3 4755   4.481   0.275   2.489 -1.1723  0.8491  2.7167
    1SOL    MW4 4756   4.422   0.332   2.459 -0.5865  0.2490  0.3326
    1SOL     OW 4757   0.160   0.742   2.383  0.2058  0.3410  0.4431
    1SOL    HW2 4758   0.078   0.767   2.426 -0.4554  0.0849 -0.6260
    1SOL    HW3 4759   0.160   0.792   2.301  0.0517 -1.2580 -0.5759
    1SOL    MW4 4760   0.149   0.752   2.378  0.0982  0.0962  0.1678
    1SOL     OW 4761   3.577   2.368   0.972 -0.2759 -0.4186 -0.1274
    1SOL    HW2 4762   3.667   2.340   0.983 -0.3369 -0.4688  0.2462
    1SOL    HW3 4763   3.524   2.294   1.001 -0.4375 -0.1279  0.3194
    1SOL    MW4 4764   3.582   2.355   0.977 -0.3054 -0.3870 -0.0192
    1SOL     OW 4765   0.912   0.882   3.165 -0.0317 -0.1705  0.0038
    1SOL    HW2 4766   0.934   0.969   3.199 -1.9272  0.9204 -1.4596
    1SOL    HW3 4767   0.880   0.834   3.241 -1.9525  1.4659  0.2733
    1SOL    MW4 4768   0.911   0.887   3.179 -0.5352  0.1894 -0.1538
    1SOL     OW 4769   0.788   2.035   1.951  0.1828 -0.0353 -0.0761
    1SOL    HW2 4770   0.808   2.049   2.044 -2.0068  0.1933  0.3876
    1SOL    HW3 4771   0.709   2.087   1.935 -1.8754 -3.3004 -0.9960
    1SOL    MW4 4772   0.780   2.044   1.961 -0.3776 -0.4358 -0.1363
    1SOL     OW 4773   3.381   0.329   1.509 -0.1906 -0.0624  0.6032
    1SOL    HW2 4774   3.464   0.286   1.531  0.5375  0.2606 -1.3735
    1SOL    HW3 4775   3.329   0.259   1.468  0.2717  0.4424 -0.8829
    1SOL    MW4 4776   3.385   0.314   1.506 -0.0336  0.0468  0.1464
    1SOL     OW 4777   3.860   1.646   3.558  0.4151 -0.2952  0.5031
    1SOL    HW2 4778   3.946   1.681   3.583  0.6429 -0.2377 -0.3533
    1SOL    HW3 4779   3.854   1.663   3.464  0.7731 -3.0490 -0.0575
    1SOL    MW4 4780   3.871   1.653   3.549  0.4923 -0.6510  0.3159
    1SOL     OW 4781   2.427   2.264   2.412  0.1155  0.0066 -0.2935
    1SOL    HW2 4782   2.460   2.176   2.428 -0.3594  0.1512  1.6579
    1SOL    HW3 4783   2.468   2.318   2.480 -0.3428  1.1104 -0.8688
    1SOL    MW4 4784   2.437   2.260   2.423 -0.0076  0.1714 -0.1118
    1SOL     OW 4785   4.247   0.396   1.865  0.1871 -0.3094  0.3239
    1SOL    HW2 4786   4.198   0.349   1.797 -0.6349  1.1313 -0.1164
    1SOL    HW3 4787   4.184   0.409   1.935 -0.0617  1.4493 -0.1955
    1SOL    MW4 4788   4.232   0.392   1.865  0.0463  0.1127  0.1973
    1SOL     OW 4789   3.274   2.169   3.021  0.3552  0.3392  0.3482
    1SOL    HW2 4790   3.332   2.132   3.088 -0.5695 -0.0661  0.9428
    1SOL    HW3 4791   3.219   2.096   2.995 -1.4240  1.2381  1.4508
    1SOL    MW4 4792   3.275   2.155   3.027 -0.0017  0.4044  0.5722
    1SOL     OW 4793   3.013   4.193   2.355 -0.2262 -0.2667 -0.2260
    1SOL    HW2 4794   3.052   4.224   2.437  1.5756 -1.1441 -0.7272
    1SOL    HW3 4795   2.928   4.236   2.351  0.2689  0.8975  1.4088
    1SOL    MW4 4796   3.007   4.203   2.365  0.0770 -0.2289 -0.0763
    1SOL     OW 4797   4.352   3.330   1.716  0.2518  0.3335 -0.2584
    1SOL    HW2 4798   4.429   3.286   1.680 -0.4399 -0.2823 -0.9975
    1SOL    HW3 4799   4.291   3.258   1.736 -0.4584  0.8780 -0.4526
    1SOL    MW4 4800   4.354   3.315   1.714  0.0668  0.3242 -0.3816
    1SOL     OW 4801   0.585   3.596   2.005 -0.4134 -0.0634 -0.3706
    1SOL    HW2 4802   0.635   3.543   1.943 -1.3676 -1.6222  0.1866
    1SOL    HW3 4803   0.646   3.614   2.076  0.2540  0.5547 -1.0839
    1SOL    MW4 4804   0.600   3.592   2.006 -0.4513 -0.1876 -0.3910
    1SOL     OW 4805   3.997   4.025   1.845  0.1347 -0.1627 -0.3074
    1SOL    HW2 4806   4.052   3.994   1.917 -0.6390 -1.3427 -0.1976
    1SOL    HW3 4807   3.928   4.075   1.888 -0.2602 -0.7667 -0.2315
    1SOL    MW4 4808   3.995   4.028   1.860 -0.0196 -0.3977 -0.2829
    1SOL     OW 4809   0.279   3.747   2.073  0.2638  0.3033  0.1482
    1SOL    HW2 4810   0.363   3.760   2.030  0.1798  1.0552  0.2007
    1SOL    HW3 4811   0.239   3.673   2.027  0.5566  0.5337 -0.4822
    1SOL    MW4 4812   0.284   3.739   2.061  0.2913  0.4327  0.0718
    1SOL     OW 4813   3.555   2.661   1.212  0.0350 -0.0173  0.1087
    1SOL    HW2 4814   3.540   2.754   1.227  0.5871  0.3153 -1.2919
    1SOL    HW3 4815   3.573   2.655   1.118  0.8791 -1.4229  0.3538
    1SOL    MW4 4816   3.555   2.672   1.201  0.2191 -0.1588 -0.0437
    1SOL     OW 4817   3.241   3.135   1.874  0.2178  0.2801  0.0372
    1SOL    HW2 4818   3.230   3.230   1.875 -1.5204  0.0883  1.6829
    1SOL    HW3 4819   3.216   3.109   1.785 -1.4588  1.1380  0.2383
    1SOL    MW4 4820   3.236   3.144   1.862 -0.2325  0.3679  0.2809
    1SOL     OW 4821   1.648   3.442   1.326 -0.1932 -0.0433  0.5765
    1SOL    HW2 4822   1.713   3.472   1.390  0.3610 -0.8721  0.4081
    1SOL    HW3 4823   1.571   3.421   1.379  0.5390 -1.5445  1.1026
    1SOL    MW4 4824   1.647   3.443   1.342 -0.0236 -0.3507  0.6236
    1SOL     OW 4825   0.240   4.475   1.074 -0.0487  0.3213 -0.3381
    1SOL    HW2 4826   0.261   4.474   1.168 -1.8037 -0.7442  0.0654
    1SOL    HW3 4827   0.307   4.420   1.034 -0.7459 -1.2927  0.6485
    1SOL    MW4 4828   0.251   4.468   1.081 -0.3722 -0.0319 -0.1549
    1SOL     OW 4829   0.719   3.452   1.801  0.2732  0.4039  0.1977
    1SOL    HW2 4830   0.724   3.357   1.788 -1.0529  0.6329 -2.3235
    1SOL    HW3 4831   0.808   3.483   1.789  0.6525 -0.4733  0.6928
    1SOL    MW4 4832   0.731   3.444   1.798  0.1483  0.3185 -0.0696
    1SOL     OW 4833   0.007   3.849   2.160  0.0965 -0.1063  0.0985
    1SOL    HW2 4834   0.007   3.920   2.224  0.8798 -0.2402  0.2573
    1SOL    HW3 4835   0.085   3.798   2.181  0.5486  0.0363 -1.1755
    1SOL    MW4 4836   0.017   3.852   2.171  0.2594 -0.1051 -0.0486
    1SOL     OW 4837   0.656   4.566   1.681  0.3594  0.2114 -0.4017
    1SOL    HW2 4838   0.694   4.642   1.637  0.9913  0.2734  0.2253
    1SOL    HW3 4839   0.566   4.593   1.702  0.6677  0.9081  0.0799
    1SOL    MW4 4840   0.649   4.580   1.678  0.4834  0.3114 -0.2555
    1SOL     OW 4841   0.550   4.444   2.981  0.8818 -0.4045  0.6118
    1SOL    HW2 4842   0.566   4.434   2.887 -0.6394 -0.2288  0.3144
    1SOL    HW3 4843   0.554   4.356   3.016  1.0196 -0.5210  0.3004
    1SOL    MW4 4844   0.553   4.431   2.973  0.6993 -0.3963  0.5317
    1SOL     OW 4845   0.144   0.304   2.865  0.7008 -0.2040 -0.2390
    1SOL    HW2 4846   0.050   0.324   2.870  0.3620 -1.4928 -1.0726
    1SOL    HW3 4847   0.187   0.389   2.869 -0.6115  0.5655 -1.7637
    1SOL    MW4 4848   0.137   0.318   2.866  0.4829 -0.2725 -0.5500
    1SOL     OW 4849   4.363   0.976   2.166  0.3489  0.3108 -0.3384
    1SOL    HW2 4850   4.305   0.908   2.201  1.1830  0.1507  0.7516
    1SOL    HW3 4851   4.449   0.935   2.163  0.2894  0.3175 -2.6466
    1SOL    MW4 4852   4.367   0.961   2.170  0.4516  0.2905 -0.4992
    1SOL     OW 4853   1.167   3.915   2.691  0.6686  0.2292 -0.8129
    1SOL    HW2 4854   1.175   4.010   2.676  0.0202  0.6829  1.4332
    1SOL    HW3 4855   1.257   3.885   2.698  0.8908  0.5928 -2.0516
    1SOL    MW4 4856   1.180   3.924   2.690  0.6124  0.3374 -0.6802
    1SOL     OW 4857   4.319   1.246   2.194 -0.2583 -0.2861  0.0385
    1SOL    HW2 4858   4.402   1.291   2.179 -1.7752  1.8531 -2.2396
    1SOL    HW3 4859   4.337   1.155   2.171  1.6394 -0.0103  0.3274
    1SOL    MW4 4860   4.333   1.240   2.189 -0.2079  0.0325 -0.2241
    1SOL     OW 4861   3.109   2.367   1.574  0.3423  0.0176  0.2552
    1SOL    HW2 4862   3.073   2.410   1.652  1.0293  0.4863  0.3182
    1SOL    HW3 4863   3.200   2.397   1.570  0.5057 -0.5497 -0.3379
    1SOL    MW4 4864   3.117   2.377   1.584  0.4547  0.0048  0.1853
    1SOL     OW 4865   1.115   1.078   1.386  0.1645  0.0924  0.1284
    1SOL    HW2 4866   1.169   1.085   1.307  0.1531 -1.0572  0.0052
    1SOL    HW3 4867   1.148   1.146   1.444 -0.0222  1.1584 -0.9784
    1SOL    MW4 4868   1.126   1.088   1.383  0.1384  0.0814 -0.0339
    1SOL     OW 4869   1.162   2.734   3.344 -0.1300 -0.1015 -0.0267
    1SOL    HW2 4870   1.249   2.698   3.364 -1.0133 -0.5780  3.3298
    1SOL    HW3 4871   1.103   2.658   3.347 -0.7923  0.3215 -1.6335
    1SOL    MW4 4872   1.166   2.719   3.347 -0.3340 -0.1087  0.2038
    1SOL     OW 4873   1.003   2.203   3.708 -0.3182 -0.1020  0.6121
    1SOL    HW2 4874   1.096   2.187   3.694  0.0301  0.7030  1.9671
    1SOL    HW3 4875   0.987   2.176   3.798 -0.9548  1.7151  1.0665
    1SOL    MW4 4876   1.013   2.197   3.718 -0.3563  0.2437  0.8509
    1SOL     OW 4877   0.739   3.563   3.841 -0.4574  0.3534 -0.1344
    1SOL    HW2 4878   0.813   3.515   3.805 -0.0378  0.0615  1.0836
    1SOL    HW3 4879   0.777   3.642   3.880 -0.7641  0.1555  0.5833
    1SOL    MW4 4880   0.754   3.567   3.841 -0.4425  0.2890  0.1211
    1SOL     OW 4881   0.733   0.195   2.633 -0.5124  0.1183  0.4037
    1SOL    HW2 4882   0.788   0.138   2.686  0.7737  0.0124 -1.0285
    1SOL    HW3 4883   0.737   0.280   2.677 -0.6378 -0.3155  1.2772
    1SOL    MW4 4884   0.741   0.199   2.646 -0.3592  0.0471  0.3297
    1SOL     OW 4885   0.040   2.034   2.396  0.3586 -0.0568 -0.4525
    1SOL    HW2 4886   0.106   2.001   2.336  0.5460 -0.2752 -0.1308
    1SOL    HW3 4887   0.061   2.127   2.406  1.0215 -0.2677  0.1611
    1SOL    MW4 4888   0.052   2.042   2.390  0.4708 -0.1132 -0.3290
    1SOL     OW 4889   2.069   2.548   1.180  0.2921  0.4638  0.1898
    1SOL    HW2 4890   2.120   2.482   1.132  0.0181  0.6003 -0.2993
    1SOL    HW3 4891   2.126   2.573   1.253  1.1064  0.9146 -0.5807
    1SOL    MW4 4892   2.084   2.543   1.183  0.3633  0.5412  0.0236
    1SOL     OW 4893   0.321   2.517   3.167 -0.2299  0.1483 -0.1193
    1SOL    HW2 4894   0.337   2.424   3.183  0.2022  0.1996 -0.2632
    1SOL    HW3 4895   0.238   2.535   3.213  0.0141 -0.1524  0.4417
    1SOL    MW4 4896   0.312   2.507   3.175 -0.1407  0.1159 -0.0644
    1SOL     OW 4897   1.389   3.519   3.537  0.0140  0.0340 -0.2560
    1SOL    HW2 4898   1.302   3.485   3.515  0.0892  0.7146 -1.6952
    1SOL    HW3 4899   1.436   3.444   3.573 -0.5914 -0.7966 -1.1672
    1SOL    MW4 4900   1.384   3.505   3.539 -0.0559  0.0143 -0.5660
    1SOL     OW 4901   3.791   0.236   1.328  0.2707  0.4247  0.1251
    1SOL    HW2 4902   3.816   0.233   1.235 -0.1227  0.3833  0.0224
    1SOL    HW3 4903   3.850   0.301   1.366  0.2852  0.5982 -0.1962
    1SOL    MW4 4904   3.802   0.244   1.320  0.2205  0.4422  0.0691
    1SOL     OW 4905   2.644   4.003   2.477  0.3079 -0.1529  0.1754
    1SOL    HW2 4906   2.588   4.080   2.490 -0.4455 -0.8511  1.1614
    1SOL    HW3 4907   2.586   3.939   2.436  0.3539 -0.9016  1.2606
    1SOL    MW4 4908   2.629   4.005   2.473  0.2148 -0.3443  0.4489
    1SOL     OW 4909   4.469   2.576   1.646  0.3692  0.3841 -0.2309
    1SOL    HW2 4910   4.404   2.520   1.603  0.6809 -0.4254  0.3464
    1SOL    HW3 4911   4.475   2.654   1.590 -0.4211  0.0564 -0.7741
    1SOL    MW4 4912   4.461   2.579   1.633  0.3061  0.2341 -0.2264
    1SOL     OW 4913   2.798   4.120   2.929 -0.1487 -0.3185  0.1684
    1SOL    HW2 4914   2.745   4.080   2.860 -2.1341  0.9670  0.9346
    1SOL    HW3 4915   2.809   4.050   2.994 -0.8748 -0.6009 -0.0073
    1SOL    MW4 4916   2.793   4.105   2.928 -0.5064 -0.1864  0.2463
    1SOL     OW 4917   1.332   3.601   1.932  0.0342  0.4688  0.0552
    1SOL    HW2 4918   1.297   3.671   1.876  0.5080  0.7111  0.0619
    1SOL    HW3 4919   1.356   3.646   2.013 -1.5535 -0.0353  0.8195
    1SOL    MW4 4920   1.330   3.616   1.935 -0.1127  0.4344  0.1570
    1SOL     OW 4921   0.884   0.492   1.625 -0.5792  0.0385 -0.6299
    1SOL    HW2 4922   0.828   0.487   1.547  0.2032 -0.3427 -1.1841
    1SOL    HW3 4923   0.833   0.451   1.694 -0.7549 -0.8679 -1.2794
    1SOL    MW4 4924   0.870   0.486   1.624 -0.4992 -0.1314 -0.7888
    1SOL     OW 4925   0.313   3.329   1.856  0.0179  0.5374 -0.4332
    1SOL    HW2 4926   0.259   3.406   1.877 -0.6773 -0.1660  0.3778
    1SOL    HW3 4927   0.382   3.329   1.923  0.1499  0.5768 -0.5682
    1SOL    MW4 4928   0.315   3.339   1.868 -0.0564  0.4497 -0.3439
    1SOL     OW 4929   0.043   4.405   0.853 -0.2448  0.2830  0.0651
    1SOL    HW2 4930   0.077   4.319   0.827 -0.4111  0.4138 -0.5898
    1SOL    HW3 4931   0.100   4.432   0.925  1.2139  0.6046 -1.1796
    1SOL    MW4 4932   0.055   4.397   0.859 -0.0743  0.3428 -0.1855
    1SOL     OW 4933   0.166   3.799   2.513  0.3708 -0.0207 -0.1087
    1SOL    HW2 4934   0.205   3.852   2.443 -1.7750 -0.1263 -1.4026
    1SOL    HW3 4935   0.192   3.709   2.492  1.2625  0.1324  0.2811
    1SOL    MW4 4936   0.175   3.794   2.501  0.2053 -0.0143 -0.2279
    1SOL     OW 4937   1.081   0.658   2.328  0.0306 -0.2048 -0.2652
    1SOL    HW2 4938   1.072   0.740   2.279  0.5759 -0.0962 -0.1786
    1SOL    HW3 4939   1.156   0.614   2.289 -0.8063 -1.0981 -0.9219
    1SOL    MW4 4940   1.089   0.663   2.316 -0.0079 -0.3083 -0.3402
    1SOL     OW 4941   1.177   1.151   2.776 -0.2670 -0.3072  0.4165
    1SOL    HW2 4942   1.172   1.237   2.734  0.0961 -0.8984 -0.8712
    1SOL    HW3 4943   1.087   1.132   2.803 -0.4124  0.3153  0.3670
    1SOL    MW4 4944   1.165   1.160   2.774 -0.2383 -0.3030  0.2398
    1SOL     OW 4945   4.331   0.304   1.492  0.3440 -0.1266 -0.1313
    1SOL    HW2 4946   4.410   0.256   1.518  0.5142 -0.2986 -0.9579
    1SOL    HW3 4947   4.321   0.285   1.399 -0.8186 -0.3117  0.0293
    1SOL    MW4 4948   4.340   0.295   1.483  0.2127 -0.1737 -0.2191
    1SOL     OW 4949   1.499   1.194   2.550  0.0966 -0.1843  0.5298
    1SOL    HW2 4950   1.514   1.267   2.610 -1.3855  0.4754  0.1144
    1SOL    HW3 4951   1.477   1.120   2.607  0.8731 -0.1366  0.9047
    1SOL    MW4 4952   1.498   1.194   2.565  0.0035 -0.0910  0.5245
    1SOL     OW 4953   0.846   3.361   4.622  0.3845 -0.1024  0.1122
    1SOL    HW2 4954   0.807   3.428   4.567 -1.7968 -1.1042  0.3677
    1SOL    HW3 4955   0.805   3.373   4.707 -0.1013 -1.8123  0.1355
    1SOL    MW4 4956   0.836   3.371   4.626  0.0326 -0.4599  0.1493
    1SOL     OW 4957   1.118   1.844   3.768  0.1213  0.1029 -0.1529
    1SOL    HW2 4958   1.078   1.877   3.687 -0.5692 -1.3926 -0.4515
    1SOL    HW3 4959   1.211   1.864   3.759 -0.2173  1.5642 -0.4970
    1SOL    MW4 4960   1.125   1.851   3.756 -0.0145  0.0985 -0.2377
    1SOL     OW 4961   0.525   2.163   1.930 -0.1740 -0.1815  0.2657
    1SOL    HW2 4962   0.499   2.077   1.962 -0.5134  0.3840  1.5555
    1SOL    HW3 4963   0.483   2.224   1.990 -0.7407  0.9233 -1.2178
    1SOL    MW4 4964   0.516   2.160   1.942 -0.2936  0.0386  0.2401
    1SOL     OW 4965   4.078   1.029   3.096  0.2473 -0.4901  0.0711
    1SOL    HW2 4966   4.003   1.059   3.045  0.1297  0.1258  0.5866
    1SOL    HW3 4967   4.154   1.068   3.053  0.0253  1.4458  1.3088
    1SOL    MW4 4968   4.078   1.038   3.084  0.2027 -0.1534  0.3023
    1SOL     OW 4969   1.049   2.038   1.803  0.4875 -0.2792 -0.4855
    1SOL    HW2 4970   1.079   2.053   1.892 -0.0389 -0.0924 -0.3401
    1SOL    HW3 4971   0.953   2.044   1.808  0.3553 -1.9612 -0.7381
    1SOL    MW4 4972   1.040   2.041   1.815  0.4005 -0.4764 -0.4996
    1SOL     OW 4973   0.156   1.265   3.206 -0.3931  0.4243 -0.1996
    1SOL    HW2 4974   0.075   1.313   3.194 -0.7420  0.2869  1.4436
    1SOL    HW3 4975   0.225   1.327   3.181 -0.9556  0.8500 -0.6928
    1SOL    MW4 4976   0.155   1.279   3.201 -0.5133  0.4623 -0.0479
    1SOL     OW 4977   3.553   1.552   3.109  0.2815  0.5252 -0.3190
    1SOL    HW2 4978   3.592   1.502   3.038 -0.5420  0.4381 -0.7133
    1SOL    HW3 4979   3.539   1.488   3.179  1.3485  0.6640  0.0445
    1SOL    MW4 4980   3.556   1.537   3.109  0.3138  0.5319 -0.3231
    1SOL     OW 4981   0.593   4.613   2.381 -0.1588 -0.5166 -0.1267
    1SOL    HW2 4982   0.507   4.653   2.393 -0.2453 -0.9913  0.8199
    1SOL    HW3 4983   0.581   4.521   2.402 -0.0038 -1.1185 -2.5342
    1SOL    MW4 4984   0.580   4.606   2.385 -0.1497 -0.6585 -0.3192
    1SOL     OW 4985   4.221   2.850   1.366 -0.2704 -0.2590 -0.2760
    1SOL    HW2 4986   4.193   2.758   1.365 -0.1009 -0.3557  1.4275
    1SOL    HW3 4987   4.151   2.896   1.413  0.5501  0.1511  0.5699
    1SOL    MW4 4988   4.208   2.844   1.372 -0.1397 -0.2179  0.0603
    1SOL     OW 4989   0.867   2.935   2.458  0.5553  0.2153 -0.5593
    1SOL    HW2 4990   0.827   2.936   2.371  0.3509 -0.2155 -0.4683
    1SOL    HW3 4991   0.796   2.956   2.518  0.0743 -2.2615 -0.2368
    1SOL    MW4 4992   0.853   2.938   2.454  0.4649 -0.1686 -0.5045
    1SOL     OW 4993   1.934   1.287   2.043 -0.5200  0.2435  0.3903
    1SOL    HW2 4994   1.840   1.281   2.060 -0.2898 -0.5737  1.4292
    1SOL    HW3 4995   1.975   1.272   2.128  0.6285 -2.3243 -0.5561
    1SOL    MW4 4996   1.927   1.285   2.056 -0.3381 -0.2031  0.4027
    1SOL     OW 4997   0.358   2.951   2.349  0.0140  0.5614  0.1635
    1SOL    HW2 4998   0.302   2.934   2.274  1.3217  1.3982 -1.0153
    1SOL    HW3 4999   0.345   3.044   2.368 -0.0429  0.4365  0.7628
    1SOL    MW4 5000   0.349   2.961   2.342  0.1791  0.6554  0.0870
    1SOL     OW 5001   0.264   4.187   2.021 -0.1278 -0.5757 -0.1589
    1SOL    HW2 5002   0.196   4.250   1.996 -0.9011 -1.5843 -0.6486
    1SOL    HW3 5003   0.333   4.199   1.955 -1.1902 -1.6799 -1.5012
    1SOL    MW4 5004   0.264   4.197   2.009 -0.3700 -0.8545 -0.4005
    1SOL     OW 5005   1.422   3.492   2.290  0.3474  0.3513  0.3836
    1SOL    HW2 5006   1.353   3.466   2.228  0.3060 -3.1396  1.7538
    1SOL    HW3 5007   1.378   3.497   2.374  1.1258  1.5041  0.7339
    1SOL    MW4 5008   1.407   3.489   2.293  0.4448  0.0429  0.6106
    1SOL     OW 5009   0.996   3.759   2.074  0.0851  0.0077 -0.3993
    1SOL    HW2 5010   0.926   3.730   2.133 -0.1640  1.4022  0.0113
    1SOL    HW3 5011   1.059   3.803   2.132  1.6958 -1.9329 -0.6527
    1SOL    MW4 5012   0.995   3.761   2.089  0.2647 -0.0641 -0.3786
    1SOL     OW 5013   3.866   0.711   2.477  0.2688  0.1643  0.1542
    1SOL    HW2 5014   3.784   0.673   2.511  0.1737  0.7277  0.5620
    1SOL    HW3 5015   3.838   0.769   2.406  0.4985 -1.3002 -1.1558
    1SOL    MW4 5016   3.851   0.714   2.472  0.2866  0.0454  0.0353
    1SOL     OW 5017   3.536   1.414   3.375  0.1779 -0.0203 -0.1828
    1SOL    HW2 5018   3.531   1.478   3.445  0.1205 -0.0958 -0.1180
    1SOL    HW3 5019   3.584   1.341   3.412 -1.1027 -0.6609  0.2439
    1SOL    MW4 5020   3.542   1.413   3.389  0.0014 -0.1148 -0.1180
    1SOL     OW 5021   0.885   4.598   2.020 -0.0282  0.0213 -0.0788
    1SOL    HW2 5022   0.790   4.590   2.029  0.0048  0.7922  1.0294
    1SOL    HW3 5023   0.917   4.614   2.109  1.0972  0.2431 -0.5057
    1SOL    MW4 5024   0.877   4.599   2.033  0.1246  0.1526  0.0107
    1SOL     OW 5025   0.096   3.810   1.352  0.1652 -0.0102  0.1467
    1SOL    HW2 5026   0.181   3.815   1.309 -0.6391  0.7270 -1.3862
    1SOL    HW3 5027   0.034   3.846   1.288 -1.1711  0.2875  1.5752
    1SOL    MW4 5028   0.099   3.816   1.338 -0.1172  0.1261  0.1329
    1SOL     OW 5029   0.841   3.699   2.609 -0.5230  0.0377 -0.0245
    1SOL    HW2 5030   0.905   3.648   2.660 -1.1726  0.9218  1.7119
    1SOL    HW3 5031   0.790   3.633   2.562  1.1499 -0.7144 -0.8336
    1SOL    MW4 5032   0.843   3.683   2.610 -0.3880  0.0551  0.0978
    1SOL     OW 5033   0.272   0.636   2.779 -0.0012  0.4573 -0.2650
    1SOL    HW2 5034   0.341   0.574   2.801 -0.5223  0.0844  0.3612
    1SOL    HW3 5035   0.308   0.689   2.708  1.0734  0.5247  0.3239
    1SOL    MW4 5036   0.286   0.635   2.773  0.0718  0.4171 -0.1047
    1SOL     OW 5037   3.834   0.960   1.951  0.0164 -0.3349 -0.3050
    1SOL    HW2 5038   3.828   0.937   2.044  0.5527  0.2734 -0.1256
    1SOL    HW3 5039   3.889   0.891   1.913 -1.7864 -1.6780 -0.5410
    1SOL    MW4 5040   3.840   0.948   1.958 -0.1507 -0.4318 -0.3126
    1SOL     OW 5041   1.180   4.496   1.456  0.2224 -0.1082 -0.0994
    1SOL    HW2 5042   1.169   4.482   1.362 -1.0661  0.4367 -0.0464
    1SOL    HW3 5043   1.118   4.435   1.497 -0.0138  0.4159  0.3463
    1SOL    MW4 5044   1.170   4.486   1.449  0.0212  0.0324 -0.0337
    1SOL     OW 5045   0.363   1.211   1.420 -0.4831  0.1436 -0.0070
    1SOL    HW2 5046   0.409   1.183   1.499 -0.1879  0.4510 -0.0644
    1SOL    HW3 5047   0.274   1.230   1.449 -0.0611  1.3957  0.4883
    1SOL    MW4 5048   0.357   1.210   1.434 -0.3884  0.3494  0.0508
    1SOL     OW 5049   1.183   0.073   3.100 -0.1616 -0.2579  0.3291
    1SOL    HW2 5050   1.150   0.163   3.094 -0.7911 -0.5061  0.0479
    1SOL    HW3 5051   1.116   0.027   3.150  0.4048 -0.4555  0.9005
    1SOL    MW4 5052   1.170   0.079   3.105 -0.1700 -0.3167  0.3672
    1SOL     OW 5053   1.297   2.011   2.712 -0.0355  0.0233 -0.0001
    1SOL    HW2 5054   1.219   2.014   2.656  0.1405  0.8682 -0.2115
    1SOL    HW3 5055   1.371   2.015   2.651  0.1597  0.4993  0.2700
    1SOL    MW4 5056   1.296   2.012   2.697  0.0135  0.1976  0.0076
    1SOL     OW 5057   1.458   1.335   1.448 -0.0299 -0.2674  0.3029
    1SOL    HW2 5058   1.403   1.360   1.374 -1.0900 -0.6391  0.9525
    1SOL    HW3 5059   1.461   1.412   1.504 -0.3843 -0.4416  0.5631
    1SOL    MW4 5060   1.452   1.348   1.445 -0.2165 -0.3394  0.4230
    1SOL     OW 5061   1.426   1.550   1.635  0.1139 -0.0636 -0.4552
    1SOL    HW2 5062   1.409   1.607   1.559  1.3309  0.0857 -0.6329
    1SOL    HW3 5063   1.485   1.602   1.690 -0.4313 -0.3412  0.3884
    1SOL    MW4 5064   1.432   1.565   1.632  0.2024 -0.0807 -0.3673
    1SOL     OW 5065   0.202   1.552   2.001  0.0829  0.2819 -0.0512
    1SOL    HW2 5066   0.151   1.624   2.039 -0.6975 -0.0140 -0.5204
    1SOL    HW3 5067   0.173   1.475   2.050  0.3040  0.1588 -0.1163
    1SOL    MW4 5068   0.191   1.551   2.012  0.0091  0.2267 -0.1216
    1SOL     OW 5069   1.903   1.944   1.619 -0.1727  0.5094  0.0230
    1SOL    HW2 5070   1.973   1.981   1.673 -0.5281  0.6523  0.3860
    1SOL    HW3 5071   1.910   1.990   1.535 -0.9969  1.8486  0.6654
    1SOL    MW4 5072   1.913   1.955   1.615 -0.3282  0.7051  0.1557
    1SOL     OW 5073   0.896   1.573   2.663 -0.6261 -0.8798  0.1248
    1SOL    HW2 5074   0.916   1.659   2.703  1.3223 -1.8195  1.2846
    1SOL    HW3 5075   0.980   1.528   2.663 -1.8524 -3.2016  0.4965
    1SOL    MW4 5076   0.910   1.579   2.669 -0.5308 -1.3102  0.3269
    1SOL     OW 5077   0.228   3.230   3.021 -0.2459 -0.3900  0.2344
    1SOL    HW2 5078   0.184   3.261   3.100  0.1629 -0.7649  0.6106
    1SOL    HW3 5079   0.209   3.136   3.018 -0.5459 -0.3126 -0.2991
    1SOL    MW4 5080   0.220   3.222   3.031 -0.2315 -0.4292  0.2134
    1SOL     OW 5081   1.140   1.424   2.699  0.0680 -0.2924  0.3664
    1SOL    HW2 5082   1.213   1.475   2.665 -1.6965  1.7662 -0.4818
    1SOL    HW3 5083   1.143   1.438   2.794  1.1362 -0.7436  0.4066
    1SOL    MW4 5084   1.150   1.433   2.707 -0.0238 -0.0803  0.2599
    1SOL     OW 5085   0.934   3.169   3.416 -0.5060  0.0860 -0.0734
    1SOL    HW2 5086   1.016   3.120   3.416  0.1314  1.1478 -1.0611
    1SOL    HW3 5087   0.920   3.192   3.324 -1.7608  0.1748  0.1262
    1SOL    MW4 5088   0.943   3.165   3.404 -0.5875  0.2377 -0.1774
    1SOL     OW 5089   1.248   1.977   1.544 -0.4441  0.0923 -0.6376
    1SOL    HW2 5090   1.157   1.951   1.533 -0.5171 -0.4919  1.1843
    1SOL    HW3 5091   1.298   1.904   1.508 -0.6903 -0.8861  0.9368
    1SOL    MW4 5092   1.243   1.964   1.538 -0.4863 -0.1138 -0.1894
    1SOL     OW 5093   0.308   1.806   3.382 -0.7488  0.0907 -0.1524
    1SOL    HW2 5094   0.324   1.881   3.325 -2.0852 -0.0227 -0.7003
    1SOL    HW3 5095   0.308   1.731   3.323  1.2806 -0.4470  0.4885
    1SOL    MW4 5096   0.310   1.806   3.367 -0.6574  0.0049 -0.1402
    1SOL     OW 5097   2.181   2.769   1.532 -0.1904  0.2180  0.3470
    1SOL    HW2 5098   2.222   2.726   1.607  0.3522 -1.4810 -0.8853
    1SOL    HW3 5099   2.179   2.861   1.555  0.8320 -0.1645  2.0524
    1SOL    MW4 5100   2.186   2.775   1.545  0.0160 -0.0567  0.4095
    1SOL     OW 5101   0.727   3.400   2.770 -0.5954 -0.1415 -0.0058
    1SOL    HW2 5102   0.778   3.407   2.851 -1.7089 -1.6808  0.8664
    1SOL    HW3 5103   0.767   3.327   2.723 -0.1196  0.5811 -0.7263
    1SOL    MW4 5104   0.739   3.391   2.775 -0.6796 -0.2491  0.0141
    1SOL     OW 5105   0.601   3.512   2.555 -0.0363  0.1307 -0.1471
    1SOL    HW2 5106   0.633   3.470   2.635  1.0004  2.2268  0.5635
    1SOL    HW3 5107   0.512   3.541   2.576  0.1194  0.3980  0.1319
    1SOL    MW4 5108   0.593   3.510   2.568  0.1211  0.4423 -0.0167
    1SOL     OW 5109   2.763   3.393   2.485  0.5259  0.4015 -0.0443
    1SOL    HW2 5110   2.700   3.460   2.460 -0.4937 -0.9394 -1.1981
    1SOL    HW3 5111   2.848   3.436   2.482 -0.0269  1.3921 -1.6778
    1SOL    MW4 5112   2.766   3.407   2.481  0.3188  0.3552 -0.4120
    1SOL     OW 5113   0.449   4.198   1.811  0.4533 -0.2235  0.0606
    1SOL    HW2 5114   0.540   4.192   1.841  0.2786 -0.5060  0.5382
    1SOL    HW3 5115   0.433   4.115   1.767 -0.2494 -1.0604  1.8734
    1SOL    MW4 5116   0.459   4.186   1.809  0.3375 -0.3715  0.3628
    1SOL     OW 5117   0.691   3.925   2.482 -0.0935  0.1821 -0.0798
    1SOL    HW2 5118   0.675   4.004   2.534 -1.4440  0.4425 -0.8783
    1SOL    HW3 5119   0.729   3.862   2.545 -0.5433  0.9087  0.9241
    1SOL    MW4 5120   0.694   3.927   2.497 -0.3310  0.3126 -0.0527
    1SOL     OW 5121   2.936   1.988   1.593 -0.2681 -0.1374 -0.4939
    1SOL    HW2 5122   2.874   2.062   1.598  0.7508  0.6778  0.2744
    1SOL    HW3 5123   3.017   2.022   1.631  0.2079 -1.6795 -0.0913
    1SOL    MW4 5124   2.938   2.003   1.599 -0.0708 -0.2334 -0.3394
    1SOL     OW 5125   1.708   0.057   1.251 -0.4598 -0.1170  0.1873
    1SOL    HW2 5126   1.748  -0.020   1.292 -0.1055  0.5641  1.1474
    1SOL    HW3 5127   1.780   0.098   1.202 -0.4958 -0.0526  0.1883
    1SOL    MW4 5128   1.723   0.052   1.250 -0.4179 -0.0187  0.3141
    1SOL     OW 5129   0.847   4.404   1.817 -0.6119 -0.3176  0.0914
    1SOL    HW2 5130   0.887   4.457   1.886 -1.2203 -0.0165  0.2235
    1SOL    HW3 5131   0.798   4.467   1.764 -2.1925 -0.8619  0.8576
    1SOL    MW4 5132   0.845   4.419   1.820 -0.9007 -0.3495  0.2099
    1SOL     OW 5133   2.662   4.478   1.238  0.0853  0.0132 -0.2512
    1SOL    HW2 5134   2.592   4.428   1.280 -0.0606  0.9146  0.5871
    1SOL    HW3 5135   2.649   4.464   1.144 -1.6705  0.7743 -0.1350
    1SOL    MW4 5136   2.651   4.469   1.231 -0.1657  0.2327 -0.1252
    1SOL     OW 5137   1.282   0.089   1.106 -0.0610 -0.0068  0.1954
    1SOL    HW2 5138   1.342   0.110   1.177  1.1200  0.0781 -0.8239
    1SOL    HW3 5139   1.256   0.173   1.070 -0.6841 -0.0489  0.5399
    1SOL    MW4 5140   1.286   0.103   1.111  0.0126 -0.0011  0.1063
    1SOL     OW 5141   0.096   0.482   2.284 -0.2216  0.4616  0.3054
    1SOL    HW2 5142   0.104   0.563   2.335 -0.1284  0.5917  0.0821
    1SOL    HW3 5143   0.038   0.427   2.337  1.8040 -0.3386  1.7654
    1SOL    MW4 5144   0.090   0.486   2.298  0.0579  0.3732  0.4685
    1SOL     OW 5145   1.377   1.376   2.148  0.0687  0.4169  0.2892
    1SOL    HW2 5146   1.362   1.297   2.096  0.2107  0.2523  0.5028
    1SOL    HW3 5147   1.307   1.435   2.120 -1.2068 -0.4872  1.5350
    1SOL    MW4 5148   1.366   1.374   2.137 -0.0809  0.2760  0.4816
    1SOL     OW 5149   0.719   2.577   2.681  0.0198 -0.5014 -0.2304
    1SOL    HW2 5150   0.703   2.524   2.759 -0.3681 -0.2524 -0.1426
    1SOL    HW3 5151   0.635   2.578   2.635 -0.0046  0.1444 -0.1733
    1SOL    MW4 5152   0.706   2.570   2.685 -0.0346 -0.3834 -0.2115
    1SOL     OW 5153   0.749   1.095   3.503  0.1959 -0.0740  0.2023
    1SOL    HW2 5154   0.755   1.016   3.557 -0.0132 -0.0590  0.2454
    1SOL    HW3 5155   0.770   1.166   3.564 -0.2189 -0.0406  0.3070
    1SOL    MW4 5156   0.753   1.094   3.518  0.1135 -0.0675  0.2217
    1SOL     OW 5157   4.128   1.431   3.122 -0.6404  0.2955 -0.0648
    1SOL    HW2 5158   4.112   1.383   3.203 -1.1088  1.3549  0.4840
    1SOL    HW3 5159   4.091   1.376   3.054 -0.6506 -0.3914  0.4852
    1SOL    MW4 5160   4.121   1.417   3.124 -0.7043  0.3445  0.0801
    1SOL     OW 5161   1.299   0.040   0.755  0.6316  0.1217  0.0822
    1SOL    HW2 5162   1.248   0.112   0.791  0.1332  0.7680 -1.8421
    1SOL    HW3 5163   1.390   0.063   0.775  0.4010  0.7122  0.4758
    1SOL    MW4 5164   1.305   0.052   0.763  0.5354  0.2849 -0.1198
    1SOL     OW 5165   1.866   1.570   1.794 -0.3799 -0.3588  0.5621
    1SOL    HW2 5166   1.940   1.532   1.841 -0.1539  0.4439  0.8653
    1SOL    HW3 5167   1.836   1.641   1.850 -0.0564  0.6646 -0.5439
    1SOL    MW4 5168   1.872   1.574   1.807 -0.3074 -0.1178  0.4562
    1SOL     OW 5169   1.371   1.748   1.449  0.1866  0.1523 -0.0007
    1SOL    HW2 5170   1.444   1.760   1.388  1.4862 -0.2286  1.4566
    1SOL    HW3 5171   1.295   1.732   1.393  1.6894 -2.0044 -1.4826
    1SOL    MW4 5172   1.370   1.748   1.433  0.5562 -0.1824 -0.0041
    1SOL     OW 5173   1.341   2.291   3.900 -0.0817  0.1514 -0.2854
    1SOL    HW2 5174   1.366   2.251   3.984  1.3707 -1.3781 -1.4014
    1SOL    HW3 5175   1.394   2.370   3.894 -0.3145  0.3566  0.3062
    1SOL    MW4 5176   1.351   2.296   3.911  0.0793 -0.0234 -0.3548
    1SOL     OW 5177   1.402   2.566   1.816 -0.2528 -0.1459  0.2810
    1SOL    HW2 5178   1.311   2.539   1.829 -0.4599  0.6669  0.4936
    1SOL    HW3 5179   1.452   2.508   1.875 -0.6229 -0.6046  0.1513
    1SOL    MW4 5180   1.397   2.555   1.826 -0.3290 -0.0992  0.2919
    1SOL     OW 5181   0.151   2.288   2.476 -0.1455 -0.0778 -0.5023
    1SOL    HW2 5182   0.105   2.289   2.560 -1.1271 -0.4510 -1.0237
    1SOL    HW3 5183   0.175   2.379   2.460 -0.0059  0.0037  0.1484
    1SOL    MW4 5184   0.148   2.300   2.485 -0.2566 -0.1161 -0.4847
    1SOL     OW 5185   2.422   3.987   2.938 -0.3224 -0.4276 -0.2173
    1SOL    HW2 5186   2.501   3.999   2.886 -1.0387  0.2268 -1.1803
    1SOL    HW3 5187   2.354   3.966   2.874 -1.5250  1.8130  0.2722
    1SOL    MW4 5188   2.423   3.986   2.923 -0.5753 -0.0458 -0.2797
    1SOL     OW 5189   1.594   2.773   1.418  0.0437  0.4710  0.3009
    1SOL    HW2 5190   1.678   2.819   1.424  0.5339 -0.3518 -0.1514
    1SOL    HW3 5191   1.612   2.686   1.453 -0.6045  0.2721  0.1410
    1SOL    MW4 5192   1.608   2.768   1.423  0.0226  0.3362  0.2203
    1SOL     OW 5193   0.583   0.569   3.033  0.0386 -0.0170  0.1903
    1SOL    HW2 5194   0.545   0.527   2.955 -0.8333 -0.3494  0.7863
    1SOL    HW3 5195   0.507   0.593   3.087  0.4965  2.6856 -0.3021
    1SOL    MW4 5196   0.568   0.566   3.030 -0.0160  0.2957  0.2041
    1SOL     OW 5197   0.989   0.064   1.503 -0.2600 -0.1410  0.1088
    1SOL    HW2 5198   1.033   0.144   1.531 -0.0679 -0.6294  1.2353
    1SOL    HW3 5199   1.060   0.000   1.493 -0.5164 -0.4335  0.1474
    1SOL    MW4 5200   1.004   0.066   1.505 -0.2685 -0.2440  0.2627
    1SOL     OW 5201   1.436   3.847   1.599  0.1530 -0.1728 -0.0028
    1SOL    HW2 5202   1.413   3.819   1.511 -1.0566 -1.5798  0.7416
    1SOL    HW3 5203   1.488   3.927   1.586 -3.0775  1.7535 -1.8765
    1SOL    MW4 5204   1.440   3.854   1.586 -0.4328 -0.1044 -0.1519
    1SOL     OW 5205   1.438   0.386   1.498  0.2402  0.5730  0.3096
    1SOL    HW2 5206   1.346   0.401   1.476  0.3064  0.0769 -0.3436
    1SOL    HW3 5207   1.451   0.431   1.581 -0.8795 -0.2964  0.9667
    1SOL    MW4 5208   1.427   0.394   1.506  0.1013  0.3929  0.3102
    1SOL     OW 5209   1.273   3.295   2.147  0.0083  0.2531  0.5499
    1SOL    HW2 5210   1.184   3.280   2.117  0.3034 -1.5229  0.5071
    1SOL    HW3 5211   1.283   3.237   2.223  1.4574 -0.4172 -0.1229
    1SOL    MW4 5212   1.263   3.285   2.153  0.2384 -0.0699  0.4554
    1SOL     OW 5213   1.840   2.192   2.053  0.0756  0.0431 -0.7063
    1SOL    HW2 5214   1.802   2.214   1.968  0.1970  0.3749 -0.6794
    1SOL    HW3 5215   1.925   2.153   2.032 -0.1856 -0.5018 -0.7591
    1SOL    MW4 5216   1.847   2.190   2.039  0.0572  0.0150 -0.7098
    1SOL     OW 5217   2.095   0.438   3.196  0.8031  0.3848  0.3311
    1SOL    HW2 5218   2.188   0.462   3.200  1.1092 -0.7955  0.5449
    1SOL    HW3 5219   2.057   0.480   3.274  0.9954  1.5026 -0.1663
    1SOL    MW4 5220   2.103   0.447   3.207  0.8688  0.3765  0.2940
    1SOL     OW 5221   0.447   0.704   2.187  0.1661 -0.2513  0.1067
    1SOL    HW2 5222   0.500   0.652   2.248 -1.0640 -1.0887  0.4765
    1SOL    HW3 5223   0.409   0.640   2.128  0.7768  0.5027 -1.1166
    1SOL    MW4 5224   0.449   0.689   2.187  0.0844 -0.2623 -0.0060
    1SOL     OW 5225   0.861   0.485   2.307  0.8769  0.1274  0.2648
    1SOL    HW2 5226   0.942   0.536   2.314  0.7441  0.2101  1.3216
    1SOL    HW3 5227   0.884   0.399   2.343 -0.4209  1.2340  3.9176
    1SOL    MW4 5228   0.875   0.480   2.313  0.6881  0.2843  0.8860
    1SOL     OW 5229   2.060   1.433   3.397  0.3661  0.8735 -0.0184
    1SOL    HW2 5230   2.075   1.513   3.347  0.2919  0.3257 -0.9218
    1SOL    HW3 5231   2.068   1.363   3.333  0.2623  0.1647  0.7382
    1SOL    MW4 5232   2.063   1.435   3.382  0.3426  0.7077 -0.0377
    1SOL     OW 5233   2.313   0.723   2.906 -0.0065 -0.0177  0.2739
    1SOL    HW2 5234   2.405   0.746   2.907  0.4223 -1.7341  2.5007
    1SOL    HW3 5235   2.271   0.796   2.859  2.3262  1.1968  0.0003
    1SOL    MW4 5236   2.319   0.735   2.900  0.3576 -0.0839  0.5314
    1SOL     OW 5237   1.649   4.345   1.529 -0.2912  0.1004 -0.2563
    1SOL    HW2 5238   1.576   4.399   1.499  0.2605  1.1512  0.2491
    1SOL    HW3 5239   1.673   4.382   1.614  0.4287 -0.6274 -0.1322
    1SOL    MW4 5240   1.643   4.357   1.536 -0.1234  0.1426 -0.1732
    1SOL     OW 5241   2.373   0.476   3.185  0.1040  0.5656  0.0749
    1SOL    HW2 5242   2.407   0.386   3.195 -0.2225  0.4394  0.0567
    1SOL    HW3 5243   2.393   0.518   3.269  1.6199  0.9315 -0.4708
    1SOL    MW4 5244   2.380   0.469   3.198  0.2608  0.5972  0.0005
    1SOL     OW 5245   1.840   1.203   0.984 -0.2263 -0.0619 -0.1833
    1SOL    HW2 5246   1.926   1.170   1.008 -0.6988 -0.7815  0.5472
    1SOL    HW3 5247   1.843   1.211   0.888  0.2031 -1.3524 -0.2890
    1SOL    MW4 5248   1.852   1.200   0.974 -0.2319 -0.3272 -0.1009
    1SOL     OW 5249   2.119   1.625   2.145 -0.1454 -0.0033 -0.5062
    1SOL    HW2 5250   2.174   1.685   2.196 -0.6490  1.0692 -1.2087
    1SOL    HW3 5251   2.056   1.591   2.208  2.2326 -2.4757  0.6908
    1SOL    MW4 5252   2.118   1.628   2.160  0.1018 -0.1880 -0.4413
    1SOL     OW 5253   2.372   1.735   2.795 -0.1334 -0.3932  0.5886
    1SOL    HW2 5254   2.306   1.749   2.862 -0.6653  0.6452 -0.1332
    1SOL    HW3 5255   2.329   1.680   2.729 -0.7992  1.4844 -0.5950
    1SOL    MW4 5256   2.358   1.729   2.795 -0.2916 -0.0085  0.3374
    1SOL     OW 5257   1.454   2.703   2.533  0.3118  0.6462 -0.7353
    1SOL    HW2 5258   1.493   2.617   2.515 -0.3493 -0.0052  0.9165
    1SOL    HW3 5259   1.361   2.691   2.513  0.0121  0.6334  0.6319
    1SOL    MW4 5260   1.447   2.690   2.528  0.1851  0.5586 -0.3369
    1SOL     OW 5261   1.192   2.166   2.921  0.3377  0.3100  0.4409
    1SOL    HW2 5262   1.163   2.111   2.994  1.9372  0.1008  0.9420
    1SOL    HW3 5263   1.230   2.104   2.858 -1.5437  0.4223 -0.8575
    1SOL    MW4 5264   1.193   2.150   2.922  0.3005  0.2973  0.3359
    1SOL     OW 5265   1.586   1.762   1.262  0.0084 -0.3476 -0.2243
    1SOL    HW2 5266   1.650   1.827   1.234 -0.2005  0.6453  1.5193
    1SOL    HW3 5267   1.636   1.700   1.315 -0.5133  0.6825  1.5252
    1SOL    MW4 5268   1.601   1.763   1.265 -0.0879 -0.0807  0.2366
    1SOL     OW 5269   3.374   2.117   1.390  0.1032 -0.2059  0.0848
    1SOL    HW2 5270   3.452   2.072   1.356  0.0932 -0.2194  0.0800
    1SOL    HW3 5271   3.399   2.144   1.478 -0.2677 -1.1648  0.4832
    1SOL    MW4 5272   3.388   2.115   1.397  0.0529 -0.3340  0.1367
    1SOL     OW 5273   1.361   2.128   1.952 -0.3285  0.1711  0.0753
    1SOL    HW2 5274   1.277   2.149   1.994 -0.8424 -0.0067 -0.8250
    1SOL    HW3 5275   1.427   2.153   2.016 -1.1014 -0.4867  1.1503
    1SOL    MW4 5276   1.358   2.134   1.966 -0.4982  0.0608  0.0983
    1SOL     OW 5277   1.034   2.736   1.771  0.0611  0.2620 -0.1173
    1SOL    HW2 5278   1.067   2.648   1.785 -0.0295  0.0924 -0.9548
    1SOL    HW3 5279   1.102   2.779   1.718 -0.2627  0.4420 -0.3882
    1SOL    MW4 5280   1.048   2.730   1.766  0.0064  0.2635 -0.2636
    1SOL     OW 5281   0.746   2.013   2.910  0.5755 -0.3406 -0.2088
    1SOL    HW2 5282   0.776   2.075   2.976  3.3070 -0.2326 -1.4991
    1SOL    HW3 5283   0.711   2.068   2.840  1.1942 -0.3064 -0.4962
    1SOL    MW4 5284   0.745   2.028   2.909  1.0175 -0.3219 -0.4170
    1SOL     OW 5285   1.687   3.385   1.666  0.1129 -0.0336  0.1542
    1SOL    HW2 5286   1.700   3.358   1.757 -0.2872  1.5409  0.6930
    1SOL    HW3 5287   1.616   3.448   1.670 -0.1230 -0.2007 -1.3114
    1SOL    MW4 5288   1.679   3.390   1.679  0.0290  0.1521  0.0318
    1SOL     OW 5289   1.205   3.884   3.391  0.0245  0.1341 -0.0128
    1SOL    HW2 5290   1.166   3.969   3.406 -0.9584 -0.0536 -1.3957
    1SOL    HW3 5291   1.243   3.859   3.475  1.5220  2.5329  0.0406
    1SOL    MW4 5292   1.205   3.892   3.404  0.0923  0.4258 -0.1881
    1SOL     OW 5293   1.863   2.457   2.219  0.3495 -0.1577  0.1511
    1SOL    HW2 5294   1.861   2.370   2.179 -0.1587 -0.2113  0.2953
    1SOL    HW3 5295   1.790   2.504   2.178  0.0152 -0.1143  0.7844
    1SOL    MW4 5296   1.853   2.452   2.208  0.2384 -0.1590  0.2537
    1SOL     OW 5297   1.533   2.888   2.191 -0.1165  0.4181  0.6588
    1SOL    HW2 5298   1.480   2.914   2.266 -1.1321  0.1326  0.0526
    1SOL    HW3 5299   1.481   2.913   2.115  1.0664  1.0317  0.0464
    1SOL    MW4 5300   1.519   2.895   2.191 -0.0944  0.4616  0.4978
    1SOL     OW 5301   1.921   1.281   3.574  0.4764  0.1621 -0.3677
    1SOL    HW2 5302   1.915   1.193   3.535  1.3247  0.0863 -0.3345
    1SOL    HW3 5303   1.976   1.330   3.513  0.6006  0.4603 -0.0158
    1SOL    MW4 5304   1.928   1.276   3.561  0.6046  0.1915 -0.3166
    1SOL     OW 5305   0.893   0.625   3.886 -0.0646 -0.3398  0.1506
    1SOL    HW2 5306   0.916   0.538   3.921 -0.6625 -0.8418 -0.6874
    1SOL    HW3 5307   0.958   0.641   3.818  0.7007  0.3511  1.0344
    1SOL    MW4 5308   0.905   0.615   3.882 -0.0426 -0.3148  0.1566
    1SOL     OW 5309   2.550   4.639   2.142  0.1841  0.2406  0.2695
    1SOL    HW2 5310   2.608   4.702   2.186 -0.2791 -0.3006  1.6794
    1SOL    HW3 5311   2.491   4.609   2.211 -0.8255 -0.3190 -0.8342
    1SOL    MW4 5312   2.550   4.643   2.157 -0.0103  0.0954  0.3097
    1SOL     OW 5313   0.732   3.732   2.858 -0.0818 -0.4393 -0.0794
    1SOL    HW2 5314   0.717   3.822   2.885  2.1781 -0.0071 -0.1706
    1SOL    HW3 5315   0.773   3.739   2.772 -0.6962 -1.5809 -0.4739
    1SOL    MW4 5316   0.736   3.744   2.850  0.1353 -0.5329 -0.1433
    1SOL     OW 5317   2.760   1.517   3.304 -0.5714 -0.0299 -0.2993
    1SOL    HW2 5318   2.780   1.449   3.240  0.4113  0.1410 -0.1940
    1SOL    HW3 5319   2.673   1.549   3.281 -0.4119 -0.2897 -1.2594
    1SOL    MW4 5320   2.751   1.513   3.293 -0.4206 -0.0417 -0.4120
    1SOL     OW 5321   0.504   1.269   2.249 -0.3025 -0.1311 -0.6157
    1SOL    HW2 5322   0.585   1.309   2.217 -0.7926  0.7302 -0.7793
    1SOL    HW3 5323   0.451   1.342   2.279  0.2213 -0.9245  2.4268
    1SOL    MW4 5324   0.508   1.284   2.249 -0.2981 -0.1222 -0.2360
    1SOL     OW 5325   3.436   4.610   1.782  0.4528 -0.0521  0.0046
    1SOL    HW2 5326   3.404   4.636   1.695  1.1610  0.3446 -0.1416
    1SOL    HW3 5327   3.402   4.677   1.841  1.4509  0.6632 -0.2276
    1SOL    MW4 5328   3.427   4.622   1.778  0.6781  0.0944 -0.0453
    1SOL     OW 5329   2.030   1.333   1.263  0.1563  0.1777  0.3149
    1SOL    HW2 5330   1.952   1.372   1.224  0.4292  0.9129  0.5093
    1SOL    HW3 5331   2.005   1.319   1.355 -0.2789 -1.0072  0.0281
    1SOL    MW4 5332   2.016   1.336   1.270  0.1347  0.1184  0.3027
    1SOL     OW 5333   2.627   0.465   1.928 -0.5040 -0.2130  0.4146
    1SOL    HW2 5334   2.625   0.556   1.958  1.4641 -0.2927  0.8993
    1SOL    HW3 5335   2.598   0.414   2.004 -0.7143 -0.0365  0.4507
    1SOL    MW4 5336   2.623   0.470   1.942 -0.2723 -0.2002  0.4833
    1SOL     OW 5337   2.270   2.460   1.917 -0.0733 -0.5429 -0.4773
    1SOL    HW2 5338   2.215   2.480   1.992 -1.1625 -1.2080 -1.0866
    1SOL    HW3 5339   2.265   2.540   1.863  1.8655  0.4892  0.8186
    1SOL    MW4 5340   2.262   2.473   1.919  0.0389 -0.4945 -0.3867
    1SOL     OW 5341   0.851   1.857   2.707  0.1379 -0.2593 -0.0498
    1SOL    HW2 5342   0.917   1.911   2.663 -0.4864 -0.7087 -1.5952
    1SOL    HW3 5343   0.824   1.909   2.783 -0.1494  1.4281 -1.2626
    1SOL    MW4 5344   0.857   1.871   2.711  0.0176 -0.0961 -0.4137
    1SOL     OW 5345   2.876   0.789   1.810 -0.4320  0.1658  0.3545
    1SOL    HW2 5346   2.835   0.715   1.765 -1.8860  0.7746  0.6528
    1SOL    HW3 5347   2.905   0.753   1.894  0.1970 -0.4108 -0.1000
    1SOL    MW4 5348   2.875   0.774   1.815 -0.5407  0.1700  0.3339
    1SOL     OW 5349   2.718   3.010   2.236 -0.5100 -0.2376 -0.3813
    1SOL    HW2 5350   2.788   2.952   2.206 -0.2954  0.1526 -0.6358
    1SOL    HW3 5351   2.754   3.050   2.316 -0.4572 -0.0653 -0.4915
    1SOL    MW4 5352   2.732   3.008   2.243 -0.4747 -0.1633 -0.4294
    1SOL     OW 5353   3.030   0.532   3.452 -0.2825  0.0530 -0.0674
    1SOL    HW2 5354   2.969   0.601   3.479 -1.2037 -0.5077 -0.6995
    1SOL    HW3 5355   2.974   0.456   3.433  0.7616 -1.0277  1.1050
    1SOL    MW4 5356   3.014   0.531   3.453 -0.2661 -0.1636  0.0036
    1SOL     OW 5357   2.077   1.710   2.521  0.7327 -0.0011 -0.7211
    1SOL    HW2 5358   2.138   1.648   2.562  0.0093 -0.9534 -1.0476
    1SOL    HW3 5359   2.126   1.748   2.448  1.5718  0.6841  0.1867
    1SOL    MW4 5360   2.091   1.707   2.517  0.7479 -0.0364 -0.6442
    1SOL     OW 5361   0.227   0.487   1.216  0.5109  0.3395 -0.0965
    1SOL    HW2 5362   0.265   0.574   1.231 -0.0966  0.5210  0.4289
    1SOL    HW3 5363   0.222   0.448   1.304 -0.2806  0.2264 -0.1885
    1SOL    MW4 5364   0.232   0.493   1.230  0.3263  0.3486 -0.0393
    1SOL     OW 5365   2.395   3.760   2.087 -0.0194 -0.1769  0.1349
    1SOL    HW2 5366   2.417   3.852   2.070  1.6175 -0.1496  2.2219
    1SOL    HW3 5367   2.453   3.710   2.030 -0.6214  0.0462 -0.6937
    1SOL    MW4 5368   2.405   3.766   2.077  0.1173 -0.1440  0.3014
    1SOL     OW 5369   3.507   4.523   2.470  0.6467  0.1440  0.2477
    1SOL    HW2 5370   3.427   4.576   2.467  0.8893  0.4833 -0.3841
    1SOL    HW3 5371   3.556   4.549   2.392  1.1287 -0.4511  0.3466
    1SOL    MW4 5372   3.503   4.534   2.459  0.7422  0.1106  0.1771
    1SOL     OW 5373   2.110   3.199   2.246 -0.1200 -0.1984  0.2415
    1SOL    HW2 5374   2.099   3.205   2.151 -0.3361  1.6261  0.3540
    1SOL    HW3 5375   2.026   3.227   2.282 -0.4232 -1.9834  0.9798
    1SOL    MW4 5376   2.098   3.204   2.238 -0.1886 -0.1934  0.3538
    1SOL     OW 5377   1.679   2.667   2.091  0.1995  0.4792 -0.2735
    1SOL    HW2 5378   1.648   2.740   2.145  0.2765  1.1963 -1.2001
    1SOL    HW3 5379   1.703   2.706   2.008  1.1580 -0.4638 -0.4597
    1SOL    MW4 5380   1.678   2.682   2.087  0.3362  0.4497 -0.4203
    1SOL     OW 5381   3.633   4.290   3.165  0.2575 -0.0726 -0.1594
    1SOL    HW2 5382   3.665   4.244   3.243 -1.6053 -0.0174  0.6731
    1SOL    HW3 5383   3.588   4.222   3.114 -0.5505  0.3524 -0.0255
    1SOL    MW4 5384   3.631   4.275   3.168 -0.0947 -0.0091 -0.0317
    1SOL     OW 5385   2.240   4.235   1.141  0.6214  0.0418  0.1071
    1SOL    HW2 5386   2.187   4.311   1.116 -0.4801 -0.2174  1.5355
    1SOL    HW3 5387   2.178   4.163   1.144  1.2781 -0.5021  0.6944
    1SOL    MW4 5388   2.225   4.236   1.138  0.5624 -0.0644  0.3731
    1SOL     OW 5389   1.464   2.257   3.445 -0.3390 -0.0221  0.4676
    1SOL    HW2 5390   1.445   2.314   3.520 -1.8547 -0.3155  0.3316
    1SOL    HW3 5391   1.437   2.307   3.369  0.9171  0.1525  0.1239
    1SOL    MW4 5392   1.458   2.271   3.445 -0.3734 -0.0379  0.4044
    1SOL     OW 5393   4.176   3.976   2.060  0.2943  0.4820  0.3321
    1SOL    HW2 5394   4.153   3.997   2.151 -1.7600  0.2262 -0.1240
    1SOL    HW3 5395   4.213   3.888   2.065 -1.1576 -0.1222  0.7341
    1SOL    MW4 5396   4.178   3.967   2.073 -0.1683  0.3686  0.3250
    1SOL     OW 5397   1.819   4.338   3.799  0.2361 -0.0002  0.0904
    1SOL    HW2 5398   1.826   4.422   3.755  3.1189 -1.4749 -2.4561
    1SOL    HW3 5399   1.903   4.326   3.842 -0.5103 -1.1476  1.2675
    1SOL    MW4 5400   1.831   4.347   3.799  0.5180 -0.3462 -0.0904
    1SOL     OW 5401   1.299   3.542   2.797 -0.1953  0.3640  0.2249
    1SOL    HW2 5402   1.332   3.502   2.877  0.9505 -0.3764 -0.6018
    1SOL    HW3 5403   1.333   3.631   2.799 -0.3101  0.3989  0.6406
    1SOL    MW4 5404   1.308   3.548   2.808 -0.0594  0.2711  0.1705
    1SOL     OW 5405   1.822   4.494   1.339 -0.1610 -0.5213  0.0249
    1SOL    HW2 5406   1.775   4.432   1.395 -2.8839  0.6906 -0.8672
    1SOL    HW3 5407   1.812   4.460   1.250 -0.6886  0.5595 -0.3419
    1SOL    MW4 5408   1.815   4.481   1.335 -0.5900 -0.2189 -0.1413
    1SOL     OW 5409   3.179   3.995   0.955  0.1298  0.1724  0.0376
    1SOL    HW2 5410   3.260   4.036   0.925 -0.3974  1.0737 -0.1774
    1SOL    HW3 5411   3.178   3.908   0.914 -0.9451  1.6440 -3.1991
    1SOL    MW4 5412   3.189   3.989   0.946 -0.0818  0.4857 -0.4179
    1SOL     OW 5413   3.751   0.045   3.172  0.2551  0.3862  0.3152
    1SOL    HW2 5414   3.750   0.005   3.258 -0.4318 -0.2036  0.0304
    1SOL    HW3 5415   3.676   0.104   3.171 -1.4005 -1.6913 -0.8641
    1SOL    MW4 5416   3.741   0.048   3.183 -0.0541  0.0343  0.1223
    1SOL     OW 5417   2.663   0.163   2.295 -0.0393 -0.1740 -0.1150
    1SOL    HW2 5418   2.733   0.216   2.259 -0.8576  0.6075 -0.5711
    1SOL    HW3 5419   2.657   0.190   2.387 -0.7370  0.8336 -0.4521
    1SOL    MW4 5420   2.671   0.174   2.303 -0.2391  0.0621 -0.2196
    1SOL     OW 5421   2.969   1.198   1.345 -0.2782 -0.4418  0.0089
    1SOL    HW2 5422   2.916   1.118   1.340  1.3575 -1.6713  1.7542
    1SOL    HW3 5423   3.038   1.184   1.281  0.2562 -0.6058  0.6242
    1SOL    MW4 5424   2.971   1.186   1.336  0.0079 -0.6256  0.3204
    1SOL     OW 5425   3.698   2.666   3.551  0.0529 -0.0633 -0.3651
    1SOL    HW2 5426   3.635   2.665   3.622 -2.2054  1.4947 -2.2802
    1SOL    HW3 5427   3.777   2.704   3.590 -0.7886 -0.2205  1.5634
    1SOL    MW4 5428   3.700   2.671   3.565 -0.3557  0.1214 -0.3636
    1SOL     OW 5429   2.908   3.817   3.514 -0.3601  0.4273 -0.0139
    1SOL    HW2 5430   2.842   3.860   3.567 -0.9935  0.1832 -0.5941
    1SOL    HW3 5431   2.991   3.853   3.545 -0.6757 -0.1104  1.5113
    1SOL    MW4 5432   2.910   3.827   3.525 -0.4854  0.3242  0.1106
    1SOL     OW 5433   1.767   2.520   1.730  0.1932 -0.0633  0.3089
    1SOL    HW2 5434   1.749   2.609   1.760  0.8302 -0.6950  2.6310
    1SOL    HW3 5435   1.720   2.513   1.647 -0.8091  2.0514  0.6642
    1SOL    MW4 5436   1.758   2.531   1.723  0.1450  0.1321  0.6621
    1SOL     OW 5437   0.968   1.643   2.393 -0.5773 -0.0232  0.2940
    1SOL    HW2 5438   0.895   1.643   2.331  0.2333 -1.7365 -0.6916
    1SOL    HW3 5439   0.927   1.626   2.478 -1.4940  0.6087 -0.0073
    1SOL    MW4 5440   0.953   1.641   2.396 -0.5913 -0.1658  0.1240
    1SOL     OW 5441   1.614   1.966   1.598 -0.4022 -0.2202  0.2024
    1SOL    HW2 5442   1.710   1.971   1.605 -0.4430  0.3005  0.4602
    1SOL    HW3 5443   1.593   1.877   1.624  0.1785 -1.0006 -1.9727
    1SOL    MW4 5444   1.624   1.955   1.603 -0.3309 -0.2545 -0.0505
    1SOL     OW 5445   0.698   2.274   0.380 -0.5088  0.2138  0.1391
    1SOL    HW2 5446   0.771   2.326   0.414 -1.0553  0.5135  0.8590
    1SOL    HW3 5447   0.636   2.338   0.347 -1.3855  0.0671  1.4381
    1SOL    MW4 5448   0.699   2.289   0.380 -0.6965  0.2339  0.4054
    1SOL     OW 5449   4.278   3.238   3.033  0.3170 -0.2230  0.1636
    1SOL    HW2 5450   4.233   3.155   3.016  0.9383 -0.7390  0.9903
    1SOL    HW3 5451   4.365   3.211   3.065  0.3183  0.7493  0.9771
    1SOL    MW4 5452   4.284   3.223   3.035  0.3986 -0.1631  0.3800
    1SOL     OW 5453   2.113   2.696   3.126 -0.2912 -0.0940  0.3514
    1SOL    HW2 5454   2.179   2.664   3.187 -0.4480 -0.0070  0.5677
    1SOL    HW3 5455   2.121   2.791   3.130 -0.1035 -0.0945  0.0162
    1SOL    MW4 5456   2.122   2.704   3.135 -0.2871 -0.0825  0.3357
    1SOL     OW 5457   4.353   1.794   2.396 -0.4315 -0.1230 -0.1627
    1SOL    HW2 5458   4.283   1.806   2.460 -0.9326  0.4338 -0.8067
    1SOL    HW3 5459   4.387   1.882   2.381  0.3245 -0.3791  0.0550
    1SOL    MW4 5460   4.348   1.807   2.402 -0.3982 -0.0833 -0.2189
    1SOL     OW 5461   3.803   2.455   3.867 -0.1163  0.2064 -0.1494
    1SOL    HW2 5462   3.716   2.445   3.907  0.1406 -0.7934  0.1836
    1SOL    HW3 5463   3.789   2.432   3.775 -0.0493 -0.7628  0.0752
    1SOL    MW4 5464   3.790   2.451   3.861 -0.0737 -0.0534 -0.0756
    1SOL     OW 5465   1.913   4.017   0.901  0.0625  0.3415  0.0316
    1SOL    HW2 5466   1.979   3.997   0.967  0.6324 -0.2283 -0.6985
    1SOL    HW3 5467   1.874   3.932   0.879 -1.4322  0.7654  0.9872
    1SOL    MW4 5468   1.917   4.003   0.907 -0.0595  0.3219  0.0613
    1SOL     OW 5469   1.733   2.265   1.805  0.4983 -0.3956 -0.3824
    1SOL    HW2 5470   1.739   2.358   1.781  1.2946 -0.4150 -0.2621
    1SOL    HW3 5471   1.643   2.241   1.781  0.8917 -0.0989 -2.2543
    1SOL    MW4 5472   1.722   2.274   1.799  0.6552 -0.3591 -0.6136
    1SOL     OW 5473   4.247   3.217   3.730 -0.0378  0.0425 -0.6386
    1SOL    HW2 5474   4.343   3.217   3.733 -0.0347 -0.6711 -0.7528
    1SOL    HW3 5475   4.225   3.169   3.651 -0.4934  0.3714 -0.7165
    1SOL    MW4 5476   4.257   3.211   3.720 -0.0973 -0.0083 -0.6638
    1SOL     OW 5477   3.717   4.613   2.298  0.0562 -0.7478 -0.0413
    1SOL    HW2 5478   3.692   4.706   2.296 -0.5542 -0.9136 -0.3907
    1SOL    HW3 5479   3.811   4.614   2.317  0.5706  0.0220 -2.4414
    1SOL    MW4 5480   3.726   4.626   2.300  0.0434 -0.6676 -0.4044
    1SOL     OW 5481   1.744   3.977   3.173 -0.2760  0.1806 -0.2331
    1SOL    HW2 5482   1.663   3.965   3.222 -1.4242 -0.2328 -2.1967
    1SOL    HW3 5483   1.727   3.938   3.088  1.9267  0.2631 -0.7558
    1SOL    MW4 5484   1.731   3.970   3.168 -0.1369  0.1371 -0.5608
    1SOL     OW 5485   0.589   0.171   2.971 -0.0080 -0.2024 -0.2463
    1SOL    HW2 5486   0.649   0.103   3.000 -0.8168 -1.1200 -0.6885
    1SOL    HW3 5487   0.560   0.215   3.051  0.2025 -0.6508  0.0748
    1SOL    MW4 5488   0.593   0.168   2.985 -0.0869 -0.3826 -0.2620
    1SOL     OW 5489   2.781   4.028   1.752  0.1993  0.2499  0.1632
    1SOL    HW2 5490   2.851   4.039   1.688 -0.5347  0.8353 -0.5567
    1SOL    HW3 5491   2.825   4.001   1.832  1.3073  1.2123 -0.1110
    1SOL    MW4 5492   2.796   4.026   1.754  0.2484  0.4549  0.0322
    1SOL     OW 5493   2.179   2.670   2.850  0.4834  0.1422 -0.0976
    1SOL    HW2 5494   2.235   2.592   2.850 -0.0303 -0.2324 -0.3823
    1SOL    HW3 5495   2.150   2.679   2.940  0.6964  0.1124 -0.0262
    1SOL    MW4 5496   2.183   2.661   2.862  0.4435  0.0889 -0.1259
    1SOL     OW 5497   2.570   0.344   2.948 -0.1241 -0.5762 -0.0765
    1SOL    HW2 5498   2.641   0.280   2.949 -0.1158 -0.5564  1.1822
    1SOL    HW3 5499   2.584   0.396   3.027 -0.7354  0.3179 -0.5520
    1SOL    MW4 5500   2.582   0.343   2.959 -0.2036 -0.4556  0.0267
    1SOL     OW 5501   3.731   3.761   1.571 -0.0870  0.2820  0.0710
    1SOL    HW2 5502   3.738   3.697   1.500  0.6475 -2.3894  2.4378
    1SOL    HW3 5503   3.819   3.797   1.581 -0.3835  1.2890 -0.9225
    1SOL    MW4 5504   3.743   3.757   1.563 -0.0291  0.0625  0.2522
    1SOL     OW 5505   2.356   4.611   4.287 -0.1327  0.2341  0.0432
    1SOL    HW2 5506   2.444   4.625   4.324  0.2507 -2.0781  0.1094
    1SOL    HW3 5507   2.370   4.547   4.217 -1.7601 -0.0967  0.0073
    1SOL    MW4 5508   2.370   4.604   4.283 -0.2966 -0.1149  0.0472
    1SOL     OW 5509   4.185   0.271   2.273  0.3006 -0.5295  0.0541
    1SOL    HW2 5510   4.211   0.180   2.286  0.2482 -0.5752 -0.1535
    1SOL    HW3 5511   4.252   0.322   2.319  0.5408 -0.6595 -0.1480
    1SOL    MW4 5512   4.197   0.266   2.280  0.3252 -0.5526  0.0000
    1SOL     OW 5513   1.921   0.950   2.863  0.0296 -0.3874 -0.4407
    1SOL    HW2 5514   1.844   0.997   2.832 -0.2201 -1.2165 -1.0852
    1SOL    HW3 5515   1.896   0.919   2.950  0.0126  0.2263 -0.2215
    1SOL    MW4 5516   1.908   0.952   2.870 -0.0056 -0.4158 -0.4969
    1SOL     OW 5517   2.356   4.271   2.370  0.5115 -0.0359  0.0169
    1SOL    HW2 5518   2.409   4.240   2.297 -0.5473 -1.1883 -0.2623
    1SOL    HW3 5519   2.350   4.366   2.356  1.7806 -0.0026 -0.4075
    1SOL    MW4 5520   2.362   4.279   2.359  0.5391 -0.1841 -0.0761
    1SOL     OW 5521   3.360   0.568   1.921  0.3817 -0.6283 -0.3126
    1SOL    HW2 5522   3.307   0.526   1.853 -0.2257  0.3709 -0.4581
    1SOL    HW3 5523   3.398   0.645   1.879  1.2326 -0.8411  0.0494
    1SOL    MW4 5524   3.358   0.572   1.907  0.4137 -0.5245 -0.2840
    1SOL     OW 5525   3.970   4.580   2.412  0.0035 -0.1981 -0.0572
    1SOL    HW2 5526   3.913   4.585   2.489  0.3633  0.5868  0.1679
    1SOL    HW3 5527   4.016   4.497   2.421  0.0299 -0.1177  0.5675
    1SOL    MW4 5528   3.969   4.570   2.423  0.0546 -0.0839  0.0551
    1SOL     OW 5529   3.518   0.349   1.960  0.1898  0.0702 -0.3873
    1SOL    HW2 5530   3.476   0.431   1.934  0.6868  0.5634  0.3306
    1SOL    HW3 5531   3.599   0.346   1.910  0.2411  0.0918 -0.3065
    1SOL    MW4 5532   3.523   0.360   1.950  0.2620  0.1381 -0.2818
    1SOL     OW 5533   2.739   1.791   1.527 -0.3991  0.2642  0.1578
    1SOL    HW2 5534   2.807   1.845   1.568 -0.3720 -0.1620  0.6820
    1SOL    HW3 5535   2.735   1.712   1.581 -0.0756 -0.4959 -0.8937
    1SOL    MW4 5536   2.747   1.788   1.539 -0.3529  0.1076  0.0883
    1SOL     OW 5537   2.740   0.554   2.380 -0.4240 -0.5806  0.3437
    1SOL    HW2 5538   2.789   0.490   2.327 -1.2871 -0.7294 -0.2959
    1SOL    HW3 5539   2.790   0.562   2.461  1.3902  0.2838 -0.8269
    1SOL    MW4 5540   2.753   0.546   2.384 -0.2987 -0.4861  0.1049
    1SOL     OW 5541   2.241   1.498   2.612 -0.2211 -0.0593 -0.3104
    1SOL    HW2 5542   2.266   1.459   2.696 -0.1886  0.2399 -0.1793
    1SOL    HW3 5543   2.315   1.482   2.554  0.3231  0.8923  0.0960
    1SOL    MW4 5544   2.254   1.491   2.616 -0.1452  0.1057 -0.2394
    1SOL     OW 5545   1.535   2.432   2.378 -0.1946 -0.3044 -0.2778
    1SOL    HW2 5546   1.496   2.380   2.448  0.9913 -0.6587  0.1272
    1SOL    HW3 5547   1.608   2.478   2.420  1.4514 -1.6583 -1.5832
    1SOL    MW4 5548   1.539   2.431   2.393  0.1789 -0.5298 -0.3967
    1SOL     OW 5549   1.558   0.442   1.097 -0.2588  0.0148 -0.7099
    1SOL    HW2 5550   1.579   0.450   1.190 -1.4143  1.5054 -0.5457
    1SOL    HW3 5551   1.642   0.429   1.055  0.4462  0.8156  0.4102
    1SOL    MW4 5552   1.572   0.442   1.104 -0.3182  0.3171 -0.5404
    1SOL     OW 5553   2.135   2.050   1.741  0.2795  0.1382  0.4439
    1SOL    HW2 5554   2.202   1.984   1.723  1.0010  0.9244  0.2278
    1SOL    HW3 5555   2.174   2.133   1.713 -1.4050  0.4051 -1.1826
    1SOL    MW4 5556   2.149   2.052   1.735  0.1523  0.2773  0.2007
    1SOL     OW 5557   1.174   2.511   3.891 -0.1680 -0.0572 -0.7293
    1SOL    HW2 5558   1.160   2.543   3.802  0.3656 -0.1013 -0.8325
    1SOL    HW3 5559   1.206   2.422   3.880 -0.8527 -0.3425 -0.4661
    1SOL    MW4 5560   1.176   2.504   3.878 -0.1880 -0.1006 -0.7083
    1SOL     OW 5561   2.971   0.669   2.035  0.2426  0.1434  0.5133
    1SOL    HW2 5562   3.062   0.656   2.063 -0.5545 -1.7319  2.2998
    1SOL    HW3 5563   2.932   0.724   2.103  0.2814  1.7914 -0.7665
    1SOL    MW4 5564   2.978   0.674   2.048  0.1428  0.1134  0.5801
    1SOL     OW 5565   4.172   1.743   2.594 -0.2813 -0.1589  0.1002
    1SOL    HW2 5566   4.172   1.649   2.572  0.0779  0.0285 -0.7445
    1SOL    HW3 5567   4.091   1.756   2.642 -0.6038 -0.8011 -0.2547
    1SOL    MW4 5568   4.161   1.732   2.597 -0.2766 -0.2190 -0.0579
    1SOL     OW 5569   1.607   3.695   1.228  0.1116 -0.3781  0.0605
    1SOL    HW2 5570   1.636   3.604   1.234  1.4293 -0.1172 -1.9396
    1SOL    HW3 5571   1.676   3.745   1.273  0.5515 -0.1590 -0.8556
    1SOL    MW4 5572   1.620   3.690   1.235  0.3437 -0.3147 -0.3244
    1SOL     OW 5573   2.632   2.593   0.738 -0.3105 -0.5355 -0.2782
    1SOL    HW2 5574   2.594   2.558   0.657 -0.3585 -0.3911 -0.3183
    1SOL    HW3 5575   2.567   2.656   0.770 -0.1545 -0.3688 -0.2890
    1SOL    MW4 5576   2.618   2.597   0.732 -0.2964 -0.4945 -0.2850
    1SOL     OW 5577   0.390   3.179   2.547 -0.0487  0.5386 -0.0317
    1SOL    HW2 5578   0.324   3.211   2.608  0.0401 -1.1653  0.9812
    1SOL    HW3 5579   0.423   3.258   2.505 -0.3264  1.7166  1.8973
    1SOL    MW4 5580   0.385   3.194   2.549 -0.0736  0.4692  0.3564
    1SOL     OW 5581   3.236   3.403   1.826  0.0808  0.1021  0.0900
    1SOL    HW2 5582   3.273   3.406   1.738  0.9666  0.3486  0.4604
    1SOL    HW3 5583   3.142   3.418   1.814  0.5608  2.9922 -0.5840
    1SOL    MW4 5584   3.228   3.406   1.813  0.2611  0.5162  0.0499
    1SOL     OW 5585   3.131   3.316   3.257 -0.1525  0.6595 -0.1592
    1SOL    HW2 5586   3.170   3.294   3.173  0.8110  0.2509  0.3850
    1SOL    HW3 5587   3.061   3.251   3.269  1.3121 -0.8514  0.4700
    1SOL    MW4 5588   3.127   3.305   3.248  0.1676  0.4063 -0.0045
    1SOL     OW 5589   2.879   4.289   1.080  0.3112  0.1920  0.1380
    1SOL    HW2 5590   2.850   4.210   1.125 -0.0628  0.3708  0.2126
    1SOL    HW3 5591   2.798   4.331   1.051  0.6078 -0.6452 -1.9609
    1SOL    MW4 5592   2.865   4.284   1.082  0.3011  0.1054 -0.1291
    1SOL     OW 5593   3.067   3.603   3.294 -0.2935  0.7483 -0.3597
    1SOL    HW2 5594   3.152   3.645   3.313 -0.2192  1.0581 -1.3569
    1SOL    HW3 5595   3.084   3.510   3.306 -0.6860  1.0141  2.7732
    1SOL    MW4 5596   3.081   3.597   3.298 -0.3357  0.8245 -0.0780
    1SOL     OW 5597   3.020   0.179   2.276  0.0120  0.1803  0.2098
    1SOL    HW2 5598   3.111   0.202   2.259  0.3071 -1.1613 -0.0976
    1SOL    HW3 5599   3.005   0.101   2.223 -2.0400  1.7804 -1.6770
    1SOL    MW4 5600   3.030   0.172   2.267 -0.2198  0.2144 -0.0799
    1SOL     OW 5601   3.596   4.456   1.411  0.0771  0.2190  0.0054
    1SOL    HW2 5602   3.614   4.363   1.426 -0.7139  0.2745  1.3510
    1SOL    HW3 5603   3.624   4.499   1.491 -0.3288  1.0390 -0.2891
    1SOL    MW4 5604   3.602   4.449   1.423 -0.0806  0.3347  0.1442
    1SOL     OW 5605   0.823   4.119   2.326 -0.1441  0.0705  0.1510
    1SOL    HW2 5606   0.811   4.037   2.373  2.1481 -0.7644 -0.6257
    1SOL    HW3 5607   0.918   4.130   2.321 -0.4013  2.2629 -0.6249
    1SOL    MW4 5608   0.834   4.110   2.331  0.1244  0.2499 -0.0539
    1SOL     OW 5609   4.330   3.916   2.481  0.2321 -0.1862 -0.3522
    1SOL    HW2 5610   4.415   3.941   2.445  0.5951 -2.7185 -1.3610
    1SOL    HW3 5611   4.352   3.856   2.553 -0.6955 -1.6186 -1.2421
    1SOL    MW4 5612   4.344   3.911   2.486  0.1574 -0.7095 -0.6025
    1SOL     OW 5613   0.016   1.552   3.492  0.1727  0.2977 -0.4737
    1SOL    HW2 5614  -0.065   1.539   3.541  0.4953  1.4166  0.3816
    1SOL    HW3 5615   0.085   1.516   3.549  0.2895 -0.5959 -1.1686
    1SOL    MW4 5616   0.015   1.545   3.506  0.2313  0.3275 -0.4523
    1SOL     OW 5617   0.098   1.271   1.464 -0.5062 -0.0442  0.1967
    1SOL    HW2 5618   0.100   1.298   1.556  0.3076  0.1527  0.1264
    1SOL    HW3 5619   0.032   1.202   1.460 -0.8433  0.2365  0.8485
    1SOL    MW4 5620   0.090   1.266   1.476 -0.4433  0.0187  0.2735
    1SOL     OW 5621   3.690   4.556   1.657 -0.1876 -0.0996  0.8886
    1SOL    HW2 5622   3.711   4.467   1.686 -1.5357 -0.2017  1.6020
    1SOL    HW3 5623   3.631   4.589   1.725 -1.0002  0.7458 -0.2232
    1SOL    MW4 5624   3.685   4.548   1.670 -0.4728 -0.0014  0.8361
    1SOL     OW 5625   4.153   1.780   1.749  0.3052 -0.0678 -0.1591
    1SOL    HW2 5626   4.119   1.862   1.714 -0.0191  0.7532  1.9905
    1SOL    HW3 5627   4.081   1.718   1.738 -0.2559  0.5064  0.2200
    1SOL    MW4 5628   4.139   1.783   1.743  0.1884  0.1161  0.1748
    1SOL     OW 5629   0.021   0.565   3.433 -0.1251  0.5312 -0.3239
    1SOL    HW2 5630   0.097   0.621   3.417  1.0294 -0.5486  1.1970
    1SOL    HW3 5631   0.024   0.500   3.363  0.5630  0.2877 -0.0754
    1SOL    MW4 5632   0.031   0.564   3.422  0.1187  0.3566 -0.0906
    1SOL     OW 5633   2.190   1.416   1.635  0.1371 -0.6482  0.3663
    1SOL    HW2 5634   2.109   1.392   1.590 -0.1201  1.8150 -0.5233
    1SOL    HW3 5635   2.164   1.427   1.726 -0.4039 -0.4141  0.1829
    1SOL    MW4 5636   2.176   1.414   1.641  0.0317 -0.2922  0.2248
    1SOL     OW 5637   0.659   0.951   1.976  0.0243 -0.3408  0.2598
    1SOL    HW2 5638   0.744   0.947   1.933 -0.2282 -0.7473 -0.2073
    1SOL    HW3 5639   0.615   1.026   1.936  0.0308 -0.3425  0.2496
    1SOL    MW4 5640   0.664   0.960   1.965 -0.0081 -0.3946  0.1968
    1SOL     OW 5641   2.774   1.633   2.750 -0.2793  0.0168 -0.2927
    1SOL    HW2 5642   2.719   1.563   2.717  0.3916 -1.4354  1.5934
    1SOL    HW3 5643   2.856   1.590   2.774  0.5699  1.6387 -0.2225
    1SOL    MW4 5644   2.777   1.618   2.749 -0.0784  0.0391 -0.0346
    1SOL     OW 5645   0.511   1.887   2.973 -0.6706  0.0776  0.4615
    1SOL    HW2 5646   0.589   1.941   2.960 -0.3511 -0.5112 -0.0886
    1SOL    HW3 5647   0.439   1.940   2.939 -0.2873 -0.0618 -0.5859
    1SOL    MW4 5648   0.512   1.901   2.967 -0.5779 -0.0184  0.2506
    1SOL     OW 5649   0.028   2.220   1.828  0.0530  0.0887  0.3037
    1SOL    HW2 5650  -0.028   2.152   1.791  0.3827  0.0418 -0.1145
    1SOL    HW3 5651  -0.033   2.288   1.858 -0.2711 -0.3700  0.6773
    1SOL    MW4 5652   0.012   2.220   1.827  0.0536  0.0219  0.2978
    1SOL     OW 5653   2.608   2.758   2.668 -0.2715  0.2903  0.0320
    1SOL    HW2 5654   2.533   2.749   2.609  0.6184  0.4484 -1.1415
    1SOL    HW3 5655   2.680   2.714   2.623  0.0788 -0.8677  1.6544
    1SOL    MW4 5656   2.608   2.751   2.655 -0.1075  0.1583  0.0916
    1SOL     OW 5657   3.273   3.268   3.011  0.1326  0.1590  0.2680
    1SOL    HW2 5658   3.333   3.197   3.031  0.2520 -0.2148 -1.3384
    1SOL    HW3 5659   3.324   3.348   3.025  0.7917 -0.1394 -0.4066
    1SOL    MW4 5660   3.287   3.270   3.016  0.2351  0.0703 -0.0329
    1SOL     OW 5661   2.525   1.968   1.470 -0.1574  0.1376  0.2598
    1SOL    HW2 5662   2.600   1.908   1.476  0.0181  0.3581  0.2680
    1SOL    HW3 5663   2.561   2.054   1.489 -0.1634  0.4307 -0.9738
    1SOL    MW4 5664   2.540   1.971   1.473 -0.1352  0.2054  0.0982
    1SOL     OW 5665   2.113   3.246   1.960 -0.5319  0.4349 -0.6082
    1SOL    HW2 5666   2.079   3.331   1.985  0.3126  0.0683  1.9586
    1SOL    HW3 5667   2.208   3.259   1.953 -0.3500 -0.3815  0.2419
    1SOL    MW4 5668   2.121   3.259   1.962 -0.3965  0.2789 -0.1574
    1SOL     OW 5669   3.330   2.775   1.936 -0.0994  0.0930 -0.4094
    1SOL    HW2 5670   3.420   2.787   1.967 -0.4819 -1.0602  1.2322
    1SOL    HW3 5671   3.277   2.827   1.997 -0.8836 -2.3136  1.0310
    1SOL    MW4 5672   3.335   2.784   1.948 -0.2534 -0.3769 -0.0029
    1SOL     OW 5673   1.739   4.296   2.709 -0.4587 -0.1163  0.1790
    1SOL    HW2 5674   1.759   4.268   2.798  2.2603  1.2235  0.0172
    1SOL    HW3 5675   1.644   4.308   2.709 -0.3950  0.8301  3.1968
    1SOL    MW4 5676   1.729   4.294   2.721 -0.0916  0.1855  0.5562
    1SOL     OW 5677   0.379   3.924   2.684  0.1699  0.3513 -0.2712
    1SOL    HW2 5678   0.302   3.902   2.632  0.0999 -0.3503  0.1220
    1SOL    HW3 5679   0.408   3.840   2.720  0.2547  0.8150  0.7577
    1SOL    MW4 5680   0.372   3.910   2.682  0.1719  0.3200 -0.0837
    1SOL     OW 5681   0.660   3.730   1.680  0.0400  0.2950 -0.4338
    1SOL    HW2 5682   0.669   3.641   1.714 -0.2645  0.0421 -1.0020
    1SOL    HW3 5683   0.572   3.732   1.642 -0.3985  1.1938  0.5997
    1SOL    MW4 5684   0.650   3.718   1.679 -0.0581  0.3805 -0.3725
    1SOL     OW 5685   2.444   0.197   3.206 -0.1802  0.4788 -0.1899
    1SOL    HW2 5686   2.390   0.153   3.272  0.7376  0.2690  0.4321
    1SOL    HW3 5687   2.391   0.194   3.126 -0.6709 -0.6164  0.1605
    1SOL    MW4 5688   2.430   0.191   3.204 -0.1237  0.3066 -0.0618
    1SOL     OW 5689   2.768   3.313   3.130 -0.0488  0.0333  0.0532
    1SOL    HW2 5690   2.781   3.363   3.211  2.0862  0.3696 -0.4532
    1SOL    HW3 5691   2.739   3.226   3.160  1.3310 -0.0442  1.2404
    1SOL    MW4 5692   2.766   3.308   3.145  0.4146  0.0677  0.1431
    1SOL     OW 5693   2.979   4.657   2.080 -0.2819  0.6865 -0.4204
    1SOL    HW2 5694   3.004   4.575   2.037 -1.2107 -0.3885  1.0236
    1SOL    HW3 5695   2.916   4.697   2.021 -1.4022 -0.6771 -0.1726
    1SOL    MW4 5696   2.974   4.651   2.067 -0.5522  0.3648 -0.1972
    1SOL     OW 5697   2.816   4.592   2.317  0.0470 -0.1981 -0.0288
    1SOL    HW2 5698   2.851   4.601   2.229  1.3073  0.4214  0.5320
    1SOL    HW3 5699   2.740   4.651   2.319  0.3695  0.2348 -0.5079
    1SOL    MW4 5700   2.810   4.601   2.306  0.2558 -0.0587 -0.0181
    1SOL     OW 5701   2.760   4.308   2.382  0.0461  0.1077  0.2800
    1SOL    HW2 5702   2.689   4.276   2.326  1.5983 -0.4345 -1.4454
    1SOL    HW3 5703   2.758   4.403   2.371 -1.9457  0.3061  2.1612
    1SOL    MW4 5704   2.750   4.316   2.373 -0.0119  0.0625  0.3004
    1SOL     OW 5705   4.219   0.796   3.045 -0.0138 -0.0344 -0.7067
    1SOL    HW2 5706   4.150   0.858   3.067 -0.4493 -0.5590 -0.5793
    1SOL    HW3 5707   4.249   0.823   2.958 -1.0454 -0.3945 -1.1809
    1SOL    MW4 5708   4.214   0.808   3.037 -0.2079 -0.1511 -0.7522
    1SOL     OW 5709   0.612   4.322   2.414 -0.5089 -0.0648 -0.0841
    1SOL    HW2 5710   0.527   4.283   2.394 -0.1689 -1.3292  0.9344
    1SOL    HW3 5711   0.674   4.274   2.359 -0.1281 -0.7647  0.9581
    1SOL    MW4 5712   0.609   4.311   2.404 -0.4138 -0.3233  0.1881
    1SOL     OW 5713   0.635   1.958   1.321  0.0277  0.0238  0.4635
    1SOL    HW2 5714   0.621   1.885   1.381 -0.9161  0.5711  0.9231
    1SOL    HW3 5715   0.547   1.991   1.302  0.4119  0.7301 -0.1160
    1SOL    MW4 5716   0.621   1.953   1.327 -0.0461  0.1893  0.4476
    1SOL     OW 5717   0.628   0.598   0.987 -0.2247 -0.5066 -0.1570
    1SOL    HW2 5718   0.539   0.633   0.986  0.0626  0.2539  0.4464
    1SOL    HW3 5719   0.644   0.571   0.896 -1.6212 -2.1045  0.0416
    1SOL    MW4 5720   0.618   0.599   0.975 -0.3710 -0.6171 -0.0512
    1SOL     OW 5721   0.204   1.364   2.368 -0.3000 -0.1112  0.3336
    1SOL    HW2 5722   0.137   1.412   2.417  0.6593  0.4552  1.1317
    1SOL    HW3 5723   0.193   1.273   2.393 -0.0348  0.1335  1.3748
    1SOL    MW4 5724   0.194   1.359   2.378 -0.1384 -0.0042  0.5765
    1SOL     OW 5725   2.365   1.123   3.125  0.9300  0.1612  0.1134
    1SOL    HW2 5726   2.312   1.148   3.201  1.1702 -0.2031  0.4016
    1SOL    HW3 5727   2.351   1.029   3.115 -0.5426  0.5133 -1.4064
    1SOL    MW4 5728   2.356   1.114   3.133  0.7677  0.1596 -0.0491
    1SOL     OW 5729   1.446   1.240   3.023  0.1819 -0.0430 -0.4932
    1SOL    HW2 5730   1.372   1.182   3.010 -0.4052  1.2527 -3.2054
    1SOL    HW3 5731   1.413   1.308   3.082  0.1123 -1.0250  0.6179
    1SOL    MW4 5732   1.432   1.241   3.029  0.0952 -0.0015 -0.7045
    1SOL     OW 5733   0.062   1.285   2.626 -0.0964 -0.1423  0.0564
    1SOL    HW2 5734   0.022   1.339   2.694 -0.1035 -0.4137  0.2693
    1SOL    HW3 5735   0.155   1.304   2.631 -0.3913  1.9825 -1.7481
    1SOL    MW4 5736   0.069   1.295   2.636 -0.1362  0.1022 -0.1535
    1SOL     OW 5737   4.029   4.590   3.627  0.2648  0.8307 -0.4193
    1SOL    HW2 5738   4.013   4.682   3.606  0.2048  1.0928  0.7276
    1SOL    HW3 5739   3.942   4.554   3.646  0.3030  0.5709 -0.7224
    1SOL    MW4 5740   4.016   4.597   3.627  0.2623  0.8311 -0.3080
    1SOL     OW 5741   0.268   2.013   2.896  0.0177 -0.4971 -0.0841
    1SOL    HW2 5742   0.195   1.957   2.923  1.0938 -1.9569 -0.1496
    1SOL    HW3 5743   0.227   2.083   2.845 -1.3876 -1.0338  0.2809
    1SOL    MW4 5744   0.253   2.015   2.893 -0.0257 -0.7603 -0.0448
    1SOL     OW 5745   0.395   1.400   3.146 -0.3382  0.8379 -0.4521
    1SOL    HW2 5746   0.420   1.482   3.104 -0.4647  0.3732 -1.4546
    1SOL    HW3 5747   0.470   1.342   3.133  0.4709  1.3412  1.7998
    1SOL    MW4 5748   0.408   1.403   3.139 -0.2481  0.8430 -0.2871
    1SOL     OW 5749   1.312   2.402   2.836 -0.0648 -0.2850  0.0347
    1SOL    HW2 5750   1.239   2.462   2.820 -1.0849 -1.4920  0.1164
    1SOL    HW3 5751   1.272   2.325   2.877  1.3128 -0.7885  0.4846
    1SOL    MW4 5752   1.297   2.400   2.840 -0.0176 -0.5107  0.1047
    1SOL     OW 5753   3.017   3.520   2.182 -0.7947 -0.0767  0.1096
    1SOL    HW2 5754   2.925   3.534   2.162 -0.5344  0.3185 -0.8099
    1SOL    HW3 5755   3.041   3.441   2.135 -0.3698  0.4525 -0.5673
    1SOL    MW4 5756   3.008   3.511   2.173 -0.7043  0.0453 -0.1011
    1SOL     OW 5757   1.192   3.903   2.227  0.2022  0.1260  0.1911
    1SOL    HW2 5758   1.265   3.862   2.181  0.2751 -0.3130  0.6817
    1SOL    HW3 5759   1.186   3.854   2.310  0.2880  1.1160  0.7829
    1SOL    MW4 5760   1.201   3.891   2.232  0.2232  0.1986  0.3340
    1SOL     OW 5761   0.604   2.698   3.559 -0.1103  0.6784  0.0658
    1SOL    HW2 5762   0.543   2.673   3.490 -0.4182 -0.0386  0.5920
    1SOL    HW3 5763   0.690   2.696   3.517 -0.1404 -1.1569  0.0606
    1SOL    MW4 5764   0.608   2.695   3.545 -0.1549  0.3417  0.1342
    1SOL     OW 5765   4.197   2.429   2.869 -0.2310  0.2929  0.1598
    1SOL    HW2 5766   4.251   2.366   2.916 -1.0646 -0.4071  0.1794
    1SOL    HW3 5767   4.107   2.403   2.889 -0.5898  1.8719  0.6982
    1SOL    MW4 5768   4.192   2.417   2.878 -0.3881  0.4091  0.2334
    1SOL     OW 5769   2.560   4.221   2.190 -0.2644  0.4374  0.4023
    1SOL    HW2 5770   2.556   4.138   2.142 -1.4420  0.8077 -0.1608
    1SOL    HW3 5771   2.599   4.283   2.129 -2.2083  1.0267 -0.2838
    1SOL    MW4 5772   2.564   4.218   2.176 -0.6762  0.5646  0.2372
    1SOL     OW 5773   3.225   4.123   3.061 -0.1207  0.0292 -0.1498
    1SOL    HW2 5774   3.309   4.156   3.028 -0.3601  0.9048  0.1201
    1SOL    HW3 5775   3.172   4.109   2.982  1.2845 -3.4212 -0.6068
    1SOL    MW4 5776   3.229   4.125   3.046  0.0331 -0.3099 -0.1745
    1SOL     OW 5777   4.170   0.022   1.460  0.1531  0.2333  0.0525
    1SOL    HW2 5778   4.209  -0.040   1.399 -0.2607  0.4509 -0.4339
    1SOL    HW3 5779   4.076   0.004   1.457  0.0012  1.0641 -0.2943
    1SOL    MW4 5780   4.163   0.012   1.452  0.0782  0.3716 -0.0575
    1SOL     OW 5781   0.201   4.599   1.594  0.0901  0.0374  0.0013
    1SOL    HW2 5782   0.143   4.543   1.645 -0.0920 -0.7124 -1.0269
    1SOL    HW3 5783   0.270   4.624   1.656  0.1088 -1.2055  0.4955
    1SOL    MW4 5784   0.202   4.595   1.609  0.0686 -0.2255 -0.0693
    1SOL     OW 5785   0.934   4.282   2.713  0.0751 -0.1420 -0.0355
    1SOL    HW2 5786   0.859   4.240   2.671  0.2732 -0.6697  0.1306
    1SOL    HW3 5787   0.943   4.365   2.668  0.5588 -0.8948 -1.3497
    1SOL    MW4 5788   0.925   4.287   2.701  0.1651 -0.3109 -0.1872
    1SOL     OW 5789   0.628   4.208   3.078  0.5894 -0.0843  0.7013
    1SOL    HW2 5790   0.610   4.201   3.172  2.0479 -3.1144  0.8171
    1SOL    HW3 5791   0.718   4.239   3.073  0.8330 -0.8580  0.3126
    1SOL    MW4 5792   0.637   4.211   3.090  0.8139 -0.5860  0.6654
    1SOL     OW 5793   2.938   0.375   1.415  0.0241  0.3022  0.2323
    1SOL    HW2 5794   3.016   0.425   1.441 -0.0940  0.5270  0.1513
    1SOL    HW3 5795   2.972   0.305   1.360  0.3131 -0.3398  1.2043
    1SOL    MW4 5796   2.953   0.372   1.411  0.0465  0.2472  0.3498
    1SOL     OW 5797   0.364   1.420   3.433 -0.2559  0.0554  0.7041
    1SOL    HW2 5798   0.406   1.338   3.458 -0.0611  0.0382  0.3137
    1SOL    HW3 5799   0.380   1.429   3.339  0.1324  0.7780  0.8320
    1SOL    MW4 5800   0.372   1.411   3.424 -0.1790  0.1484  0.6695
    1SOL     OW 5801   1.433   0.114   2.641  0.0732 -0.6251 -0.4625
    1SOL    HW2 5802   1.388   0.135   2.723  1.0984  1.3223 -0.3900
    1SOL    HW3 5803   1.516   0.077   2.669 -0.0572 -1.0496 -0.6294
    1SOL    MW4 5804   1.438   0.112   2.655  0.1912 -0.4241 -0.4752
    1SOL     OW 5805   0.368   0.121   2.393 -0.3012  0.3647  0.3320
    1SOL    HW2 5806   0.335   0.035   2.369 -0.5534  0.4264  0.4587
    1SOL    HW3 5807   0.359   0.174   2.314 -0.4175  0.3569  0.3410
    1SOL    MW4 5808   0.363   0.116   2.380 -0.3498  0.3718  0.3498
    1SOL     OW 5809   1.491   1.221   3.844 -0.0640  0.0411  0.3186
    1SOL    HW2 5810   1.550   1.285   3.804  0.8175 -0.8970  0.0751
    1SOL    HW3 5811   1.505   1.141   3.792 -1.5468 -0.1962  0.2677
    1SOL    MW4 5812   1.500   1.219   3.832 -0.1432 -0.1140  0.2799
    1SOL     OW 5813   1.464   0.367   2.485  0.1695  0.1764 -0.2668
    1SOL    HW2 5814   1.417   0.348   2.404  1.3890  0.3004 -1.0142
    1SOL    HW3 5815   1.477   0.281   2.526 -0.4519  0.1138 -0.1984
    1SOL    MW4 5816   1.460   0.353   2.480  0.2483  0.1845 -0.3567
    1SOL     OW 5817   0.453   1.540   2.305  0.4160  0.0521 -0.4109
    1SOL    HW2 5818   0.369   1.582   2.323  0.4458 -0.2450  0.4579
    1SOL    HW3 5819   0.482   1.577   2.222 -0.4928  0.2828 -0.6200
    1SOL    MW4 5820   0.446   1.550   2.297  0.3000  0.0433 -0.3240
    1SOL     OW 5821   3.936   0.391   2.407  0.0924  0.2340 -0.1730
    1SOL    HW2 5822   3.918   0.470   2.356 -0.7712 -0.9224 -1.6997
    1SOL    HW3 5823   4.014   0.353   2.366 -0.4641 -0.5692 -0.4992
    1SOL    MW4 5824   3.944   0.396   2.395 -0.0951 -0.0246 -0.4172
    1SOL     OW 5825   4.035   2.034   3.456  0.3635 -0.0979 -0.1833
    1SOL    HW2 5826   4.040   2.026   3.361  0.2682  0.3860 -0.2296
    1SOL    HW3 5827   3.963   1.976   3.481  1.5133 -1.5863 -0.2238
    1SOL    MW4 5828   4.026   2.025   3.447  0.5026 -0.2306 -0.1945
    1SOL     OW 5829   2.840   1.750   1.087 -0.4451  0.3974 -0.1919
    1SOL    HW2 5830   2.871   1.664   1.114  0.8854  1.1243  0.6708
    1SOL    HW3 5831   2.745   1.740   1.078 -0.5693 -0.6537  1.9142
    1SOL    MW4 5832   2.831   1.738   1.090 -0.2859  0.3546  0.1998
    1SOL     OW 5833   0.467   1.625   2.042  0.0092  0.0407 -0.2766
    1SOL    HW2 5834   0.378   1.602   2.016  0.2755 -0.3013 -0.9127
    1SOL    HW3 5835   0.468   1.720   2.045 -0.6073  0.0262  0.5680
    1SOL    MW4 5836   0.456   1.634   2.039 -0.0370 -0.0064 -0.2489
    1SOL     OW 5837   1.306   1.891   1.807  0.3255 -0.3360  0.1237
    1SOL    HW2 5838   1.242   1.921   1.743 -0.6040 -1.1655  0.6515
    1SOL    HW3 5839   1.320   1.966   1.864  0.6110  0.1763 -0.6268
    1SOL    MW4 5840   1.299   1.905   1.806  0.2407 -0.3779  0.0943
    1SOL     OW 5841   2.766   2.064   4.475  0.2804 -0.1023 -0.1552
    1SOL    HW2 5842   2.685   2.114   4.462  0.6339  0.5009 -0.0734
    1SOL    HW3 5843   2.795   2.089   4.563 -0.6904 -2.1262  0.7635
    1SOL    MW4 5844   2.759   2.074   4.485  0.1991 -0.2897 -0.0234
    1SOL     OW 5845   4.348   1.201   1.773 -0.3954  0.2095 -0.0145
    1SOL    HW2 5846   4.301   1.252   1.839 -0.2300 -0.3592  0.5468
    1SOL    HW3 5847   4.343   1.111   1.805  0.7213  0.0882 -0.1584
    1SOL    MW4 5848   4.341   1.196   1.786 -0.2260  0.1185  0.0407
    1SOL     OW 5849   0.461   1.909   2.067  0.0261  0.1854 -0.5421
    1SOL    HW2 5850   0.501   1.908   2.154  1.1602  2.2999 -1.0081
    1SOL    HW3 5851   0.368   1.923   2.084  0.5304  2.7730  0.2773
    1SOL    MW4 5852   0.454   1.911   2.081  0.2423  0.8057 -0.4957
    1SOL     OW 5853   4.367   1.775   3.724 -0.0007 -0.5801 -0.0735
    1SOL    HW2 5854   4.388   1.697   3.775 -1.0277 -0.1902  0.9600
    1SOL    HW3 5855   4.288   1.751   3.675 -0.0281 -0.3532 -0.1405
    1SOL    MW4 5856   4.359   1.762   3.724 -0.1392 -0.4987  0.0541
    1SOL     OW 5857   3.387   2.593   3.097 -0.7668  0.6364  0.3807
    1SOL    HW2 5858   3.315   2.560   3.152 -0.3242 -0.5642  0.2440
    1SOL    HW3 5859   3.456   2.614   3.160 -1.3796  2.2047  0.5528
    1SOL    MW4 5860   3.387   2.591   3.113 -0.7892  0.6847  0.3855
    1SOL     OW 5861   0.616   2.171   2.730  0.1622 -0.0734 -0.1349
    1SOL    HW2 5862   0.538   2.149   2.678 -0.2563  0.5722  0.2133
    1SOL    HW3 5863   0.590   2.247   2.781  0.2498 -1.3057  1.7811
    1SOL    MW4 5864   0.602   2.178   2.730  0.1186 -0.1509  0.1640
    1SOL     OW 5865   0.925   2.658   2.430  0.1471  0.3797  0.3115
    1SOL    HW2 5866   0.849   2.600   2.420 -0.3450  1.3486 -1.8648
    1SOL    HW3 5867   0.891   2.746   2.414  1.9568  0.7035 -2.1392
    1SOL    MW4 5868   0.910   2.662   2.426  0.3210  0.5500 -0.2987
    1SOL     OW 5869   4.384   4.144   2.652 -0.5043 -0.6764  0.2655
    1SOL    HW2 5870   4.373   4.096   2.570 -1.5971 -0.3471  0.2140
    1SOL    HW3 5871   4.436   4.221   2.628 -0.1742 -0.9707  0.0304
    1SOL    MW4 5872   4.389   4.148   2.638 -0.6051 -0.6714  0.2277
    1SOL     OW 5873   0.150   4.246   3.766  0.1178 -0.1016 -0.0423
    1SOL    HW2 5874   0.239   4.228   3.796  0.5256 -1.2968 -1.9010
    1SOL    HW3 5875   0.113   4.301   3.835  1.8420 -0.6815  1.4006
    1SOL    MW4 5876   0.157   4.251   3.779  0.3991 -0.3362 -0.0973
    1SOL     OW 5877   0.423   3.334   1.595  0.0726 -0.0734 -0.2687
    1SOL    HW2 5878   0.346   3.359   1.544  0.2542  1.7246  0.3100
    1SOL    HW3 5879   0.393   3.335   1.686  0.9421  1.2536  0.0059
    1SOL    MW4 5880   0.409   3.337   1.600  0.2113  0.3388 -0.1560
    1SOL     OW 5881   2.954   4.548   3.384 -0.1010  0.3207  0.0424
    1SOL    HW2 5882   3.049   4.559   3.380 -0.1057  0.2325 -0.4150
    1SOL    HW3 5883   2.920   4.612   3.321 -0.4088  1.1208  1.0124
    1SOL    MW4 5884   2.962   4.558   3.375 -0.1423  0.4148  0.1099
    1SOL     OW 5885   0.355   0.799   2.566 -0.2673 -0.1484 -0.1578
    1SOL    HW2 5886   0.288   0.793   2.498  0.9062 -2.9998 -1.1697
    1SOL    HW3 5887   0.438   0.795   2.517  0.6010 -0.5615  1.3237
    1SOL    MW4 5888   0.357   0.797   2.550  0.0021 -0.5791 -0.0958
    1SOL     OW 5889   1.437   0.518   2.859 -0.1931  0.0501 -0.0407
    1SOL    HW2 5890   1.463   0.560   2.777  1.3806  0.5438  0.7101
    1SOL    HW3 5891   1.518   0.503   2.906 -1.0390 -0.7447  1.2048
    1SOL    MW4 5892   1.451   0.521   2.854 -0.0970  0.0104  0.2227
    1SOL     OW 5893   1.670   0.279   3.475  0.2397  0.2778 -0.4604
    1SOL    HW2 5894   1.689   0.272   3.569  0.4280  0.8296 -0.4557
    1SOL    HW3 5895   1.702   0.197   3.438  0.5211  0.2229 -0.0993
    1SOL    MW4 5896   1.677   0.267   3.482  0.3016  0.3434 -0.4120
    1SOL     OW 5897   0.620   3.479   3.578  0.1253 -0.5758 -0.6446
    1SOL    HW2 5898   0.548   3.417   3.593 -1.7250  1.8592  0.9783
    1SOL    HW3 5899   0.646   3.507   3.666 -0.1277  2.1011 -1.3918
    1SOL    MW4 5900   0.614   3.475   3.591 -0.1522  0.0985 -0.5291
    1SOL     OW 5901   1.236   4.074   1.904  0.3512 -0.5340  0.0990
    1SOL    HW2 5902   1.163   4.103   1.959  1.1652  1.2137  0.2749
    1SOL    HW3 5903   1.214   3.983   1.882 -1.7094 -0.1347  0.4070
    1SOL    MW4 5904   1.223   4.066   1.909  0.1868 -0.2503  0.1630
    1SOL     OW 5905   0.316   3.557   2.367  0.4924  0.3264  0.2127
    1SOL    HW2 5906   0.390   3.615   2.348  0.5253  0.3878  0.5258
    1SOL    HW3 5907   0.324   3.538   2.461  0.0255  0.4533  0.2777
    1SOL    MW4 5908   0.327   3.562   2.377  0.4352  0.3512  0.2625
    1SOL     OW 5909   3.063   3.229   2.811 -0.2704 -0.4367  0.3038
    1SOL    HW2 5910   3.146   3.238   2.858 -0.3806 -0.8301  0.5765
    1SOL    HW3 5911   3.088   3.226   2.719  0.2194 -2.8637  0.4771
    1SOL    MW4 5912   3.077   3.230   2.805 -0.2203 -0.8090  0.3626
    1SOL     OW 5913   0.967   4.144   3.708  0.7009  0.6071  0.5896
    1SOL    HW2 5914   0.951   4.154   3.802  0.9235  2.9855  0.4114
    1SOL    HW3 5915   0.971   4.050   3.694  1.7326  0.2370  3.1408
    1SOL    MW4 5916   0.965   4.133   3.718  0.8664  0.8721  0.9027
    1SOL     OW 5917   0.464   1.697   3.881  0.3062 -0.0973  0.2108
    1SOL    HW2 5918   0.430   1.767   3.937 -1.1496 -0.8957  0.3656
    1SOL    HW3 5919   0.559   1.701   3.892  0.1069  0.4810  1.8759
    1SOL    MW4 5920   0.472   1.707   3.890  0.0878 -0.1264  0.4513
    1SOL     OW 5921   0.345   4.384   4.147 -0.5219  0.4140 -0.5158
    1SOL    HW2 5922   0.358   4.440   4.069  1.0472  1.7152  0.6396
    1SOL    HW3 5923   0.427   4.337   4.156 -0.0805  1.4832  1.2828
    1SOL    MW4 5924   0.358   4.385   4.138 -0.2567  0.7272 -0.1259
    1SOL     OW 5925   0.050   2.507   3.253 -0.2340 -0.0908 -0.0125
    1SOL    HW2 5926  -0.007   2.555   3.192 -1.1662  0.1107  1.0019
    1SOL    HW3 5927   0.013   2.525   3.339  0.5338 -1.1288  0.5410
    1SOL    MW4 5928   0.038   2.516   3.256 -0.2557 -0.2012  0.1943
    1SOL     OW 5929   0.863   2.423   3.655 -0.4711 -0.4788  0.1138
    1SOL    HW2 5930   0.805   2.413   3.580 -0.9052  0.1028  0.3644
    1SOL    HW3 5931   0.912   2.341   3.659 -1.4101 -1.0489  0.0217
    1SOL    MW4 5932   0.862   2.411   3.645 -0.6522 -0.4771  0.1347
    1SOL     OW 5933   1.008   1.983   3.541  0.4030 -0.3498  0.2247
    1SOL    HW2 5934   0.992   2.055   3.601 -1.7480  0.4180 -1.1983
    1SOL    HW3 5935   1.081   2.012   3.487 -0.0142  0.4829  0.1015
    1SOL    MW4 5936   1.015   1.996   3.542  0.0641 -0.1386  0.0203
    1SOL     OW 5937   0.875   1.674   3.063 -0.1518  0.5282 -0.1123
    1SOL    HW2 5938   0.830   1.608   3.116  0.1740  0.0619 -0.4050
    1SOL    HW3 5939   0.888   1.748   3.122 -0.3527  0.2563  0.2770
    1SOL    MW4 5940   0.871   1.675   3.077 -0.1354  0.4307 -0.0997
    1SOL     OW 5941   4.383   1.727   2.782  0.0758  0.4876 -0.1981
    1SOL    HW2 5942   4.295   1.717   2.746  0.4531  0.3761 -1.1032
    1SOL    HW3 5943   4.427   1.787   2.721  0.9073 -0.1781 -0.2685
    1SOL    MW4 5944   4.377   1.733   2.769  0.2351  0.3852 -0.3269
    1SOL     OW 5945   0.919   1.111   2.872  0.4803  0.1592 -0.0465
    1SOL    HW2 5946   0.834   1.150   2.851  0.4975 -0.2981 -0.9752
    1SOL    HW3 5947   0.943   1.150   2.956 -0.2926  0.8717 -0.1524
    1SOL    MW4 5948   0.911   1.122   2.880  0.3806  0.1928 -0.1831
    1SOL     OW 5949   1.019   1.905   4.407 -0.4602  0.5023  0.0327
    1SOL    HW2 5950   1.013   1.981   4.350 -1.4309  0.4662  0.0776
    1SOL    HW3 5951   1.112   1.893   4.422 -0.1931  0.4744 -1.5961
    1SOL    MW4 5952   1.030   1.913   4.402 -0.5530  0.4939 -0.1764
    1SOL     OW 5953   0.709   2.471   3.179  0.4032 -0.2224 -0.3662
    1SOL    HW2 5954   0.779   2.515   3.131  0.5828 -0.0038  0.0995
    1SOL    HW3 5955   0.646   2.541   3.199  0.0869 -0.4017 -0.7102
    1SOL    MW4 5956   0.710   2.486   3.175  0.3852 -0.2172 -0.3500
    1SOL     OW 5957   1.451   2.499   3.604  0.1933 -0.5389  0.0329
    1SOL    HW2 5958   1.461   2.524   3.696 -2.1174  0.3236  0.0754
    1SOL    HW3 5959   1.427   2.580   3.559  1.3775 -0.9306 -1.3669
    1SOL    MW4 5960   1.449   2.513   3.610  0.0447 -0.4768 -0.1462
    1SOL     OW 5961   4.185   3.678   1.475  0.6146  0.1028  0.3057
    1SOL    HW2 5962   4.113   3.725   1.517 -1.0261 -2.7240  0.7947
    1SOL    HW3 5963   4.227   3.630   1.547  1.3126 -0.3437 -0.4003
    1SOL    MW4 5964   4.181   3.678   1.490  0.4897 -0.3290  0.2772
    1SOL     OW 5965   4.115   3.233   1.330 -0.2161 -0.3897  0.1275
    1SOL    HW2 5966   4.141   3.321   1.303 -0.6636 -0.3891 -0.3190
    1SOL    HW3 5967   4.106   3.184   1.248 -3.4700  0.1430  0.0849
    1SOL    MW4 5968   4.117   3.238   1.316 -0.7048 -0.3195  0.0629
    1SOL     OW 5969   0.755   4.208   4.321  0.1141  0.3570 -0.1769
    1SOL    HW2 5970   0.704   4.148   4.375 -1.2313  1.5219 -0.1497
    1SOL    HW3 5971   0.844   4.172   4.324 -0.0210  0.1538  2.4551
    1SOL    MW4 5972   0.760   4.195   4.329 -0.0813  0.4845  0.1740
    1SOL     OW 5973   1.579   2.191   2.126  0.1740  0.0861 -0.0972
    1SOL    HW2 5974   1.544   2.280   2.113  0.6169  0.0529 -1.6662
    1SOL    HW3 5975   1.673   2.201   2.119  0.2060 -0.5676 -0.6868
    1SOL    MW4 5976   1.586   2.204   2.123  0.2369 -0.0045 -0.3819
    1SOL     OW 5977   1.883   2.297   2.464 -0.0322  0.1045 -0.4718
    1SOL    HW2 5978   1.973   2.325   2.481  0.3606 -0.9303 -0.8355
    1SOL    HW3 5979   1.846   2.367   2.410  0.2612  0.9839  0.4561
    1SOL    MW4 5980   1.890   2.310   2.459  0.0582  0.0842 -0.3972
    1SOL     OW 5981   3.894   0.235   1.076 -0.0020 -0.0997  0.2358
    1SOL    HW2 5982   3.930   0.169   1.017  0.1076  0.7315 -0.6407
    1SOL    HW3 5983   3.968   0.290   1.099 -0.1541 -0.0901  0.7134
    1SOL    MW4 5984   3.908   0.233   1.072 -0.0079  0.0113  0.1833
    1SOL     OW 5985   1.466   4.407   2.753 -0.2738 -0.1409 -0.7527
    1SOL    HW2 5986   1.533   4.476   2.755 -1.3807  0.9802 -1.1748
    1SOL    HW3 5987   1.391   4.449   2.711 -1.1601 -1.4499 -0.4885
    1SOL    MW4 5988   1.465   4.422   2.748 -0.5367 -0.1659 -0.7732
    1SOL     OW 5989   2.551   3.586   1.949 -0.0019  0.6445 -0.0620
    1SOL    HW2 5990   2.632   3.576   1.999  0.4659  0.1313 -0.9204
    1SOL    HW3 5991   2.578   3.577   1.858 -1.4832 -2.6009 -0.2210
    1SOL    MW4 5992   2.565   3.584   1.944 -0.1359  0.1485 -0.1962
    1SOL     OW 5993   1.727   3.253   2.757  0.2860 -0.4290  0.2635
    1SOL    HW2 5994   1.756   3.263   2.847 -1.3940 -0.2249  0.8097
    1SOL    HW3 5995   1.649   3.199   2.763 -0.1579  0.0475 -1.0016
    1SOL    MW4 5996   1.720   3.247   2.769  0.0058 -0.3390  0.1686
    1SOL     OW 5997   1.242   0.942   1.802 -0.5216  0.2006  0.6065
    1SOL    HW2 5998   1.238   0.863   1.855 -0.2433  0.3127  0.7952
    1SOL    HW3 5999   1.224   1.013   1.864  0.2464  0.3692  0.6439
    1SOL    MW4 6000   1.239   0.941   1.817 -0.3836  0.2376  0.6363
    1SOL     OW 6001   4.241   0.171   3.523  0.3255  0.1318 -0.2114
    1SOL    HW2 6002   4.191   0.198   3.599  1.0440 -0.0495  0.3264
    1SOL    HW3 6003   4.200   0.218   3.450 -1.1100 -0.6000  0.1035
    1SOL    MW4 6004   4.229   0.181   3.523  0.2303  0.0114 -0.0987
    1SOL     OW 6005   1.295   0.539   1.927 -0.0386 -0.1258 -0.1306
    1SOL    HW2 6006   1.214   0.586   1.906  0.0673  0.5098  0.8644
    1SOL    HW3 6007   1.352   0.553   1.851 -0.9634 -0.8148 -0.9599
    1SOL    MW4 6008   1.292   0.547   1.914 -0.1465 -0.1328 -0.1087
    1SOL     OW 6009   0.754   4.632   3.053  0.0061  0.2643 -0.2966
    1SOL    HW2 6010   0.805   4.632   2.972  0.9625 -1.4262  0.2834
    1SOL    HW3 6011   0.680   4.574   3.034 -1.0599  1.7307 -0.7213
    1SOL    MW4 6012   0.751   4.625   3.040 -0.0084  0.2356 -0.2763
    1SOL     OW 6013   0.373   0.941   0.573 -0.2376  0.3340 -0.1504
    1SOL    HW2 6014   0.411   1.022   0.540  2.1081 -0.1474  1.2904
    1SOL    HW3 6015   0.296   0.969   0.622  0.7697  1.7437  0.6516
    1SOL    MW4 6016   0.368   0.955   0.575  0.2048  0.4565  0.1456
    1SOL     OW 6017   1.355   2.337   3.208  0.0507 -0.1660  0.4273
    1SOL    HW2 6018   1.414   2.288   3.152  0.0227  0.7138 -0.3784
    1SOL    HW3 6019   1.269   2.296   3.193  0.1012 -0.1489  0.0822
    1SOL    MW4 6020   1.351   2.325   3.199  0.0539 -0.0474  0.2754
    1SOL     OW 6021   1.789   2.392   3.814 -0.0140  0.0904 -0.2724
    1SOL    HW2 6022   1.776   2.330   3.741  2.8434 -1.1907  0.2467
    1SOL    HW3 6023   1.795   2.477   3.772  0.8557 -0.5483 -1.4769
    1SOL    MW4 6024   1.788   2.395   3.799  0.4778 -0.1631 -0.3631
    1SOL     OW 6025   0.766   2.951   2.198  0.5550 -0.3909  0.0603
    1SOL    HW2 6026   0.707   2.876   2.207  0.4668 -0.4233 -0.7853
    1SOL    HW3 6027   0.830   2.923   2.132  0.5593  0.2520 -0.2080
    1SOL    MW4 6028   0.766   2.937   2.190  0.5439 -0.3104 -0.0868
    1SOL     OW 6029   0.997   1.856   1.538  0.3646  0.3165  0.6452
    1SOL    HW2 6030   0.979   1.820   1.625  2.6276 -0.3202  0.8974
    1SOL    HW3 6031   0.967   1.789   1.477 -0.7235  0.5242  0.9387
    1SOL    MW4 6032   0.991   1.843   1.542  0.5196  0.2598  0.7172
    1SOL     OW 6033   2.147   3.021   1.611  0.2470  0.0229 -0.0156
    1SOL    HW2 6034   2.155   3.116   1.602 -0.7110 -0.0233 -1.3816
    1SOL    HW3 6035   2.208   2.999   1.681  1.2253  1.5164 -0.3763
    1SOL    MW4 6036   2.156   3.031   1.619  0.2496  0.2139 -0.2434
    1SOL     OW 6037   0.056   0.172   1.635 -0.3041  0.2827 -0.0595
    1SOL    HW2 6038   0.120   0.102   1.654  0.0356  0.5356 -0.2679
    1SOL    HW3 6039  -0.007   0.167   1.707  0.3004  0.4391  0.4835
    1SOL    MW4 6040   0.056   0.162   1.647 -0.1795  0.3367 -0.0153
    1SOL     OW 6041   1.962   2.603   3.935  0.7936 -0.2100  0.2886
    1SOL    HW2 6042   2.040   2.639   3.977  1.3832 -0.0380 -0.9484
    1SOL    HW3 6043   1.894   2.667   3.953  1.1577  0.1092  0.5478
    1SOL    MW4 6044   1.963   2.616   3.943  0.9195 -0.1452  0.1595
    1SOL     OW 6045   2.138   0.919   3.372 -0.0033  0.3679  0.4479
    1SOL    HW2 6046   2.180   1.005   3.383 -0.0478  0.3916  0.4352
    1SOL    HW3 6047   2.184   0.879   3.299  0.5945  0.0227  1.0173
    1SOL    MW4 6048   2.149   0.925   3.364  0.0701  0.3255  0.5214
    1SOL     OW 6049   1.083   2.832   3.092  0.0000  0.0000 -0.1084
    1SOL    HW2 6050   1.106   2.825   3.185  0.0000  0.0000 -0.1069
    1SOL    HW3 6051   1.159   2.795   3.046  0.0000  0.0000 -0.1021
    1SOL    MW4 6052   1.096   2.826   3.098  0.0000  0.0000 -0.1075
    1SOL     OW 6053   1.148   3.096   3.034  0.0000  0.0000  0.3817
    1SOL    HW2 6054   1.122   3.007   3.057  0.0000  0.0000  0.3870
    1SOL    HW3 6055   1.136   3.101   2.939  0.0000  0.0000  0.3818
    1SOL    MW4 6056   1.143   3.085   3.024  0.0000  0.0000  0.3827
    1SOL     OW 6057   0.919   3.208   3.141  0.0000  0.0000  0.1879
    1SOL    HW2 6058   0.903   3.287   3.089  0.0000  0.0000  0.1751
    1SOL    HW3 6059   1.006   3.179   3.113  0.0000  0.0000  0.2220
    1SOL    MW4 6060   0.928   3.215   3.130  0.0000  0.0000  0.1910
    1SOL     OW 6061   0.887   3.462   3.001  0.0000  0.0000  0.1124
    1SOL    HW2 6062   0.961   3.508   3.041  0.0000  0.0000  0.0794
    1SOL    HW3 6063   0.810   3.511   3.031  0.0000  0.0000  0.1584
    1SOL    MW4 6064   0.887   3.475   3.010  0.0000  0.0000  0.1142
    1SOL     OW 6065   1.102   3.599   3.113  0.0000  0.0000  0.5912
    1SOL    HW2 6066   1.101   3.626   3.205  0.0000  0.0000  0.5916
    1SOL    HW3 6067   1.100   3.681   3.064  0.0000  0.0000  0.5921
    1SOL    MW4 6068   1.102   3.613   3.118  0.0000  0.0000  0.5913
    1SOL     OW 6069   1.098   3.851   2.971  0.0000  0.0000 -0.1068
    1SOL    HW2 6070   1.178   3.889   3.008  0.0000  0.0000 -0.1041
    1SOL    HW3 6071   1.110   3.859   2.876  0.0000  0.0000 -0.1065
    1SOL    MW4 6072   1.110   3.857   2.963  0.0000  0.0000 -0.1068
    1SOL     OW 6073   0.893   4.008   3.080  0.0000  0.0000 -0.0329
    1SOL    HW2 6074   0.957   3.963   3.025  0.0000  0.0000 -0.0269
    1SOL    HW3 6075   0.809   3.969   3.054  0.0000  0.0000 -0.0361
    1SOL    MW4 6076   0.890   3.997   3.069  0.0000  0.0000 -0.0327
    1SOL     OW 6077   0.888   4.266   2.991  0.0000  0.0000 -0.3454
    1SOL    HW2 6078   0.892   4.173   3.016  0.0000  0.0000 -0.3515
    1SOL    HW3 6079   0.884   4.265   2.895  0.0000  0.0000 -0.3453
    1SOL    MW4 6080   0.888   4.254   2.982  0.0000  0.0000 -0.3459
    1SOL     OW 6081   1.144   4.351   3.062  0.0000  0.0000  0.1093
    1SOL    HW2 6082   1.137   4.378   3.153  0.0000  0.0000  0.1097
    1SOL    HW3 6083   1.055   4.327   3.037  0.0000  0.0000  0.1123
    1SOL    MW4 6084   1.131   4.351   3.070  0.0000  0.0000  0.1099
    1SOL     OW 6085   1.076   4.425   3.320 -0.4111 -0.1957  0.1837
    1SOL    HW2 6086   1.045   4.342   3.355 -1.0873  0.2418  0.6231
    1SOL    HW3 6087   1.166   4.433   3.354 -0.4141 -0.6532  0.2955
    1SOL    MW4 6088   1.084   4.415   3.329 -0.5007 -0.1988  0.2565
    1SOL     OW 6089   0.487   0.102   2.722 -0.0073 -0.1820  0.4658
    1SOL    HW2 6090   0.556   0.145   2.671 -0.6755 -0.2618 -0.5145
    1SOL    HW3 6091   0.502   0.132   2.812  0.9678  0.2378  0.1716
    1SOL    MW4 6092   0.498   0.112   2.727  0.0332 -0.1372  0.2978
    1SOL     OW 6093   4.486   1.006   2.777  0.2518 -0.0501 -0.0063
    1SOL    HW2 6094   4.559   1.036   2.723 -0.6330  2.5129  0.1584
    1SOL    HW3 6095   4.506   1.038   2.865 -1.3808  1.2851 -0.0940
    1SOL    MW4 6096   4.498   1.014   2.782 -0.0803  0.4641  0.0041
    1SOL     OW 6097   2.108   1.262   2.551  0.3612 -0.5778 -0.1476
    1SOL    HW2 6098   2.130   1.355   2.563 -0.4976 -0.4404  0.3792
    1SOL    HW3 6099   2.022   1.252   2.592 -0.3787 -1.2098 -1.8162
    1SOL    MW4 6100   2.100   1.273   2.558  0.1504 -0.6431 -0.2983
    1SOL     OW 6101   0.874   1.902   3.286 -0.5724 -0.8086 -0.2174
    1SOL    HW2 6102   0.815   1.975   3.307 -0.4933 -0.4666 -1.1528
    1SOL    HW3 6103   0.919   1.883   3.368 -0.6020  0.1940  0.0332
    1SOL    MW4 6104   0.872   1.909   3.300 -0.5659 -0.6313 -0.3078
    1SOL     OW 6105   0.493   1.618   3.001  0.0907 -0.0078 -0.7940
    1SOL    HW2 6106   0.572   1.592   2.954  1.8909  1.1665  1.4504
    1SOL    HW3 6107   0.494   1.714   2.998 -1.4105  0.0108 -0.9782
    1SOL    MW4 6108   0.504   1.627   2.995  0.1301  0.1496 -0.5221
    1SOL     OW 6109   1.643   0.419   3.017  0.3121 -0.2776  0.0391
    1SOL    HW2 6110   1.653   0.458   3.104 -0.3575 -0.0149  0.0035
    1SOL    HW3 6111   1.724   0.443   2.970 -1.1686  3.3374 -0.8394
    1SOL    MW4 6112   1.655   0.427   3.022  0.0284  0.2340 -0.0818
    1SOL     OW 6113   2.081   0.522   1.669 -0.4268 -0.3369 -0.1863
    1SOL    HW2 6114   2.018   0.526   1.598 -0.9447 -1.2757  0.2042
    1SOL    HW3 6115   2.132   0.603   1.661  0.1715 -0.8963 -2.2019
    1SOL    MW4 6116   2.080   0.533   1.659 -0.4163 -0.5345 -0.4008
    1SOL     OW 6117   1.929   2.095   1.392  0.2969  0.1406 -0.2105
    1SOL    HW2 6118   1.994   2.052   1.336  0.1734 -0.3731  0.0321
    1SOL    HW3 6119   1.953   2.187   1.391  1.4297 -0.1337  0.4146
    1SOL    MW4 6120   1.941   2.101   1.385  0.4301  0.0365 -0.0958
    1SOL     OW 6121   1.930   3.475   3.163  0.4997  0.3328  0.0382
    1SOL    HW2 6122   1.869   3.509   3.229  1.0547 -1.9799  1.8114
    1SOL    HW3 6123   2.004   3.443   3.214  0.3653 -2.6920 -1.5629
    1SOL    MW4 6124   1.931   3.475   3.179  0.5553 -0.3715  0.0610
    1SOL     OW 6125   0.727   0.360   1.823 -0.2509 -0.1843 -0.1502
    1SOL    HW2 6126   0.668   0.295   1.785 -1.0651  0.0611  0.6643
    1SOL    HW3 6127   0.795   0.309   1.867 -0.3193 -0.4733 -0.3843
    1SOL    MW4 6128   0.728   0.345   1.824 -0.3673 -0.1901 -0.0736
    1SOL     OW 6129   2.319   4.037   4.037  0.2956 -0.6065  0.1862
    1SOL    HW2 6130   2.363   4.084   3.967  0.5037 -0.0395  0.6979
    1SOL    HW3 6131   2.253   4.098   4.069  1.5270 -0.1292  1.8178
    1SOL    MW4 6132   2.316   4.051   4.032  0.4857 -0.4683  0.4697
    1SOL     OW 6133   1.186   4.573   2.875  0.1090 -0.3414 -0.3268
    1SOL    HW2 6134   1.175   4.646   2.936 -0.0036 -0.0716 -0.6719
    1SOL    HW3 6135   1.194   4.496   2.932 -1.1846 -0.2459  0.0075
    1SOL    MW4 6136   1.186   4.572   2.891 -0.0765 -0.2937 -0.3283
    1SOL     OW 6137   1.006   3.276   2.096  0.1618  0.2691  0.3487
    1SOL    HW2 6138   1.022   3.367   2.069 -0.5231  0.3817  0.2893
    1SOL    HW3 6139   0.974   3.233   2.017  1.2651 -0.2285  0.1812
    1SOL    MW4 6140   1.004   3.283   2.082  0.2171  0.2184  0.3185
    1SOL     OW 6141   1.065   3.519   1.988  0.2306  0.2438  0.3645
    1SOL    HW2 6142   1.033   3.607   2.008  0.5185 -0.0487  2.2475
    1SOL    HW3 6143   1.158   3.531   1.969  0.7218  0.1515  2.5071
    1SOL    MW4 6144   1.073   3.532   1.988  0.3333  0.1931  0.8956
    1SOL     OW 6145   0.152   2.450   1.426 -0.1247 -0.4098  0.1914
    1SOL    HW2 6146   0.097   2.373   1.439 -1.3558  0.2495 -0.9931
    1SOL    HW3 6147   0.130   2.508   1.498 -1.6017  0.1923 -0.7254
    1SOL    MW4 6148   0.142   2.447   1.437 -0.4820 -0.2434 -0.0858
    1SOL     OW 6149   2.533   0.657   3.906  0.4384  0.0942  0.5820
    1SOL    HW2 6150   2.585   0.578   3.921  0.6836  0.4436  1.6473
    1SOL    HW3 6151   2.546   0.709   3.985  1.2634  1.7667 -0.6291
    1SOL    MW4 6152   2.541   0.654   3.919  0.5796  0.3610  0.5629
    1SOL     OW 6153   2.544   3.137   3.752  0.4165 -0.4416  0.8401
    1SOL    HW2 6154   2.499   3.053   3.738  1.0078 -0.9740  2.0800
    1SOL    HW3 6155   2.537   3.182   3.667  0.7139 -2.0357 -0.0468
    1SOL    MW4 6156   2.537   3.132   3.739  0.5341 -0.7222  0.8872
    1SOL     OW 6157   4.420   3.430   2.011 -0.0926 -0.0071  0.2902
    1SOL    HW2 6158   4.394   3.382   1.932  1.2138  0.6912 -0.5794
    1SOL    HW3 6159   4.460   3.364   2.067 -0.1872 -0.3299 -0.0187
    1SOL    MW4 6160   4.422   3.415   2.008  0.0672  0.0422  0.1347
    1SOL     OW 6161   1.827   2.848   2.871  0.6794 -0.0036  0.3253
    1SOL    HW2 6162   1.744   2.803   2.858  1.7691 -2.3907  1.2842
    1SOL    HW3 6163   1.816   2.897   2.953  0.3440 -0.6662  0.6799
    1SOL    MW4 6164   1.815   2.848   2.880  0.7788 -0.4060  0.4988
    1SOL     OW 6165   0.865   3.210   2.639 -0.1792  0.2746  0.1346
    1SOL    HW2 6166   0.813   3.137   2.603 -0.2843 -0.3590  1.5304
    1SOL    HW3 6167   0.917   3.241   2.565 -0.5936 -0.8191 -0.6332
    1SOL    MW4 6168   0.865   3.204   2.624 -0.2478  0.0470  0.2174
    1SOL     OW 6169   2.320   0.267   2.904 -0.0353  0.2427 -0.0569
    1SOL    HW2 6170   2.409   0.297   2.920 -0.6408  1.8776  0.2802
    1SOL    HW3 6171   2.275   0.342   2.865 -1.6005 -0.1615  0.9198
    1SOL    MW4 6172   2.326   0.281   2.901 -0.3216  0.4051  0.1166
    1SOL     OW 6173   0.874   3.867   3.655  0.1765 -0.0393 -0.0752
    1SOL    HW2 6174   0.848   3.886   3.565  0.2389 -0.3900 -0.1690
    1SOL    HW3 6175   0.794   3.836   3.698  0.3232 -0.6174 -0.2208
    1SOL    MW4 6176   0.860   3.865   3.649  0.2041 -0.1616 -0.1068
    1SOL     OW 6177   1.398   4.255   2.981  0.1810  0.1522  0.0568
    1SOL    HW2 6178   1.309   4.275   3.009 -0.2560 -0.4309 -0.8840
    1SOL    HW3 6179   1.415   4.318   2.910 -0.5862 -1.6697 -1.7814
    1SOL    MW4 6180   1.389   4.266   2.975  0.0222 -0.1650 -0.3097
    1SOL     OW 6181   2.001   3.480   2.553 -0.5832 -0.6691  0.3221
    1SOL    HW2 6182   1.994   3.521   2.467  0.9164 -0.0255  0.4890
    1SOL    HW3 6183   2.093   3.455   2.560 -0.6502 -0.5358  1.8167
    1SOL    MW4 6184   2.012   3.482   2.543 -0.3941 -0.5665  0.5412
    1SOL     OW 6185   2.559   0.312   3.615  0.5607  0.1778  0.6053
    1SOL    HW2 6186   2.623   0.245   3.593 -0.0272  0.0656 -0.8194
    1SOL    HW3 6187   2.476   0.263   3.624  0.3547  0.5535  0.7482
    1SOL    MW4 6188   2.556   0.296   3.613  0.4561  0.2126  0.4363
    1SOL     OW 6189   1.028   3.548   2.747 -0.4743 -0.1169 -0.0588
    1SOL    HW2 6190   0.970   3.516   2.816 -0.7169 -0.9586 -0.6457
    1SOL    HW3 6191   1.114   3.553   2.790 -0.6360 -0.5629  0.3327
    1SOL    MW4 6192   1.032   3.544   2.762 -0.5276 -0.2871 -0.0846
    1SOL     OW 6193   2.106   4.069   2.834  0.0390  0.0157 -0.2287
    1SOL    HW2 6194   2.082   3.983   2.867  0.8326 -0.1562 -0.0945
    1SOL    HW3 6195   2.036   4.092   2.772 -0.0304 -0.8340 -0.4652
    1SOL    MW4 6196   2.093   4.061   2.830  0.1345 -0.1192 -0.2422
    1SOL     OW 6197   2.801   0.292   1.645 -0.1141  0.1100  0.6408
    1SOL    HW2 6198   2.716   0.266   1.611  0.1374  0.2725 -0.1351
    1SOL    HW3 6199   2.854   0.308   1.566  0.8023 -0.5676  1.1194
    1SOL    MW4 6200   2.797   0.291   1.630  0.0401  0.0421  0.6016
    1SOL     OW 6201   3.963   1.195   1.860  0.2659  0.3553 -0.0554
    1SOL    HW2 6202   3.906   1.124   1.890  0.0214  0.0366 -1.2376
    1SOL    HW3 6203   4.007   1.160   1.782  1.2175  1.0003  0.1771
    1SOL    MW4 6204   3.961   1.181   1.853  0.3588  0.3984 -0.1807
    1SOL     OW 6205   2.640   0.212   2.570  0.5883 -0.2034 -0.0203
    1SOL    HW2 6206   2.615   0.299   2.599  2.0977  0.9472 -2.0046
    1SOL    HW3 6207   2.736   0.214   2.568  0.6158 -1.5268 -1.1867
    1SOL    MW4 6208   2.650   0.224   2.573  0.7911 -0.2262 -0.4358
    1SOL     OW 6209   2.772   0.585   1.656 -0.0705 -0.4055  0.1477
    1SOL    HW2 6210   2.776   0.597   1.561  0.4126  1.1094  0.3417
    1SOL    HW3 6211   2.771   0.490   1.669  0.1421 -0.6186 -1.3621
    1SOL    MW4 6212   2.773   0.574   1.645  0.0212 -0.2337 -0.0257
    1SOL     OW 6213   3.742   0.296   1.781 -0.0209 -0.0350 -0.0381
    1SOL    HW2 6214   3.762   0.388   1.766 -2.7847  0.6528  0.2226
    1SOL    HW3 6215   3.699   0.267   1.701 -1.1628 -0.4572  0.6983
    1SOL    MW4 6216   3.739   0.304   1.769 -0.5360  0.0000  0.0933
    1SOL     OW 6217   2.065   1.491   3.773 -0.0487 -0.2226  0.1245
    1SOL    HW2 6218   2.110   1.570   3.803  0.0148  0.3335 -1.3616
    1SOL    HW3 6219   1.984   1.488   3.824 -1.1659  2.0999 -1.4125
    1SOL    MW4 6220   2.060   1.501   3.784 -0.1876  0.1572 -0.2739
    1SOL     OW 6221   2.252   2.127   2.692 -0.4329  0.4691  0.2266
    1SOL    HW2 6222   2.335   2.082   2.673  0.4309  0.8761  2.7087
    1SOL    HW3 6223   2.188   2.057   2.703 -0.3478  0.1336 -1.3844
    1SOL    MW4 6224   2.255   2.112   2.691 -0.3078  0.4785  0.3412
    1SOL     OW 6225   2.297   1.133   2.837  0.2245 -0.4949 -0.0969
    1SOL    HW2 6226   2.247   1.053   2.825 -0.6316  0.1522 -0.9249
    1SOL    HW3 6227   2.315   1.136   2.931  0.3397 -1.6894 -0.0753
    1SOL    MW4 6228   2.292   1.123   2.848  0.1268 -0.5671 -0.2031
    1SOL     OW 6229   0.552   2.921   1.761  0.3312 -0.2888  0.2556
    1SOL    HW2 6230   0.481   2.892   1.818 -0.4562 -2.1074 -1.5798
    1SOL    HW3 6231   0.508   2.949   1.680  1.6156 -0.4303 -0.5105
    1SOL    MW4 6232   0.537   2.921   1.758  0.3967 -0.5472 -0.0876
    1SOL     OW 6233   2.098   2.106   2.018  0.4261  0.3253  0.2066
    1SOL    HW2 6234   2.075   2.015   2.040  1.5346  0.2317  0.9913
    1SOL    HW3 6235   2.116   2.103   1.924 -0.9082  0.0245 -0.0611
    1SOL    MW4 6236   2.097   2.093   2.008  0.3960  0.2735  0.2749
    1SOL     OW 6237   3.547   0.991   1.569  0.0095 -0.4931  0.1570
    1SOL    HW2 6238   3.624   0.952   1.527 -0.5659 -0.5265 -0.8860
    1SOL    HW3 6239   3.571   1.083   1.583  0.4441 -0.6347  0.3424
    1SOL    MW4 6240   3.560   0.998   1.565 -0.0091 -0.5162  0.0439
    1SOL     OW 6241   2.877   3.645   1.804 -0.1683  0.0338 -0.3114
    1SOL    HW2 6242   2.928   3.702   1.746 -0.2850  1.0943  0.5905
    1SOL    HW3 6243   2.786   3.666   1.783 -0.2143 -0.3304 -0.4681
    1SOL    MW4 6244   2.872   3.656   1.794 -0.1900  0.1256 -0.2130
    1SOL     OW 6245   3.616   2.821   1.936 -0.0575 -0.5607 -0.7655
    1SOL    HW2 6246   3.688   2.814   1.999 -0.5712  1.6615  0.1247
    1SOL    HW3 6247   3.654   2.795   1.853  1.8479  0.7299 -0.3398
    1SOL    MW4 6248   3.630   2.817   1.934  0.1261 -0.0973 -0.5919
    1SOL     OW 6249   1.982   4.510   2.434 -0.1335 -0.0125 -0.2044
    1SOL    HW2 6250   1.945   4.545   2.516 -0.8203  0.0835 -0.5511
    1SOL    HW3 6251   2.047   4.576   2.408 -0.9767  0.7066 -0.5220
    1SOL    MW4 6252   1.985   4.523   2.442 -0.3353  0.0954 -0.2921
    1SOL     OW 6253   0.496   2.943   3.556 -0.0542 -0.0545 -0.2894
    1SOL    HW2 6254   0.540   2.858   3.568 -0.2918 -0.2402 -0.7397
    1SOL    HW3 6255   0.558   2.994   3.504  0.6439  0.4909  1.0370
    1SOL    MW4 6256   0.510   2.939   3.551  0.0066 -0.0069 -0.1736
    1SOL     OW 6257   0.640   3.026   2.605 -0.3913  0.1208 -0.8070
    1SOL    HW2 6258   0.554   3.049   2.569 -0.8774 -0.3081  0.0465
    1SOL    HW3 6259   0.620   2.994   2.693  0.7162  0.6989 -0.3379
    1SOL    MW4 6260   0.626   3.025   2.612 -0.3092  0.1404 -0.6325
    1SOL     OW 6261   1.927   0.486   2.979  0.3085 -0.3119 -0.0454
    1SOL    HW2 6262   2.000   0.496   2.918 -0.8936 -1.8502 -1.8035
    1SOL    HW3 6263   1.965   0.443   3.056  1.5648  0.3883 -0.2735
    1SOL    MW4 6264   1.942   0.481   2.981  0.3155 -0.4225 -0.3076
    1SOL     OW 6265   2.069   2.992   3.176  0.3814 -0.2584  0.3875
    1SOL    HW2 6266   2.093   3.048   3.103  0.3413 -1.3091 -0.4486
    1SOL    HW3 6267   2.117   3.028   3.251 -0.3931  1.4403  0.0737
    1SOL    MW4 6268   2.079   3.004   3.176  0.2739 -0.1731  0.2360
    1SOL     OW 6269   1.864   3.861   2.535  0.2083  0.0330 -0.2153
    1SOL    HW2 6270   1.881   3.951   2.564  1.0286  0.3724 -1.7302
    1SOL    HW3 6271   1.782   3.838   2.579  0.2652  1.3177  0.6195
    1SOL    MW4 6272   1.856   3.870   2.545  0.3240  0.2472 -0.3052
    1SOL     OW 6273   2.647   4.402   2.707 -0.0502 -0.1296 -0.0778
    1SOL    HW2 6274   2.618   4.325   2.658 -0.0898 -0.5574  0.6196
    1SOL    HW3 6275   2.599   4.475   2.667  1.6304 -0.1489 -2.1970
    1SOL    MW4 6276   2.636   4.401   2.695  0.1664 -0.1888 -0.2654
    1SOL     OW 6277   3.454   0.805   3.009  0.1608  0.2381 -0.4108
    1SOL    HW2 6278   3.484   0.754   3.084 -0.8558  0.0828 -0.1047
    1SOL    HW3 6279   3.477   0.752   2.933 -1.7356 -1.1161 -0.0529
    1SOL    MW4 6280   3.461   0.791   3.009 -0.2234  0.0389 -0.3233
    1SOL     OW 6281   1.476   4.073   0.963 -0.1991  0.1810 -0.0189
    1SOL    HW2 6282   1.406   4.133   0.940 -0.3940  0.3938  1.0962
    1SOL    HW3 6283   1.481   4.077   1.059 -0.6756 -2.0791  0.1267
    1SOL    MW4 6284   1.468   4.081   0.973 -0.2877 -0.0892  0.1474
    1SOL     OW 6285   1.658   1.187   1.833  0.1682 -0.2190  0.2339
    1SOL    HW2 6286   1.687   1.243   1.761  0.6428 -0.5807  0.1371
    1SOL    HW3 6287   1.602   1.121   1.792 -2.9760  2.0082  0.7748
    1SOL    MW4 6288   1.655   1.185   1.818 -0.1839  0.0272  0.2924
    1SOL     OW 6289   1.074   1.470   2.983 -0.1498 -0.3333  0.0725
    1SOL    HW2 6290   1.049   1.391   3.030 -0.1579 -0.9380 -0.9204
    1SOL    HW3 6291   1.007   1.534   3.006 -0.0817 -0.5813  0.9729
    1SOL    MW4 6292   1.062   1.468   2.992 -0.1419 -0.4458  0.0606
    1SOL     OW 6293   3.187   1.053   3.281  0.4358 -0.2830  0.0983
    1SOL    HW2 6294   3.112   0.996   3.262  0.1914 -0.0286  0.3133
    1SOL    HW3 6295   3.150   1.141   3.287  0.4024 -0.4268  2.4244
    1SOL    MW4 6296   3.172   1.057   3.279  0.3994 -0.2683  0.4337
    1SOL     OW 6297   3.646   2.038   3.418  0.1140  0.1005 -0.0679
    1SOL    HW2 6298   3.635   2.133   3.412  0.4151  0.1574  0.3060
    1SOL    HW3 6299   3.643   2.019   3.511  1.8650 -0.0374 -0.0119
    1SOL    MW4 6300   3.644   2.048   3.429  0.3846  0.0899 -0.0112
    1SOL     OW 6301   4.463   1.045   1.400 -0.5763 -0.2888  0.4236
    1SOL    HW2 6302   4.478   1.049   1.305  1.5906 -0.4500  0.7319
    1SOL    HW3 6303   4.503   0.963   1.427  0.3612  0.5784  1.7377
    1SOL    MW4 6304   4.470   1.035   1.391 -0.1667 -0.1956  0.6378
    1SOL     OW 6305   0.389   0.697   3.197  0.1912  0.0290 -0.9894
    1SOL    HW2 6306   0.456   0.746   3.246  0.2498 -0.3470 -0.6957
    1SOL    HW3 6307   0.366   0.755   3.125 -1.6854  1.6508  0.8555
    1SOL    MW4 6308   0.395   0.711   3.194 -0.0487  0.1933 -0.7076
    1SOL     OW 6309   2.045   2.210   3.044 -0.4002  0.0617 -0.3530
    1SOL    HW2 6310   1.967   2.229   2.991 -0.0192  0.4909 -0.7694
    1SOL    HW3 6311   2.021   2.239   3.132 -0.5270  0.6775 -0.5867
    1SOL    MW4 6312   2.031   2.216   3.049 -0.3664  0.1996 -0.4392
    1SOL     OW 6313   2.520   2.463   1.747 -0.1499 -0.3160 -0.2463
    1SOL    HW2 6314   2.471   2.438   1.669 -0.2312 -0.2703 -0.2106
    1SOL    HW3 6315   2.456   2.455   1.818 -0.4160  0.8136 -0.3451
    1SOL    MW4 6316   2.505   2.459   1.746 -0.1960 -0.1607 -0.2545
    1SOL     OW 6317   2.324   1.870   1.652  0.3418 -0.5189 -0.0839
    1SOL    HW2 6318   2.346   1.777   1.645  0.1675 -0.5243 -0.6083
    1SOL    HW3 6319   2.399   1.914   1.612  1.2219 -0.3480  1.7139
    1SOL    MW4 6320   2.337   1.863   1.646  0.4349 -0.4971  0.0840
    1SOL     OW 6321   1.166   2.650   2.763 -0.0238 -0.4276 -0.0585
    1SOL    HW2 6322   1.217   2.698   2.828  0.0934 -0.9708  0.2577
    1SOL    HW3 6323   1.077   2.685   2.771 -0.1897 -1.0795  0.9805
    1SOL    MW4 6324   1.161   2.661   2.772 -0.0302 -0.5856  0.1202
    1SOL     OW 6325   1.327   2.775   2.958 -0.1067  0.3471  0.1716
    1SOL    HW2 6326   1.345   2.704   3.020  1.4531 -0.8682 -1.6319
    1SOL    HW3 6327   1.383   2.847   2.987 -1.1994  0.6430  1.6062
    1SOL    MW4 6328   1.336   2.775   2.970 -0.0452  0.2260  0.1230
    1SOL     OW 6329   2.953   2.067   1.330  0.2672 -0.0965 -0.0080
    1SOL    HW2 6330   2.938   2.031   1.418  0.5969 -2.1380 -0.7666
    1SOL    HW3 6331   3.041   2.037   1.306 -0.0746 -0.1113 -1.2891
    1SOL    MW4 6332   2.963   2.058   1.338  0.2656 -0.3679 -0.2772
    1SOL     OW 6333   1.212   2.196   2.331  0.2525 -0.3927  0.0392
    1SOL    HW2 6334   1.240   2.271   2.279 -2.1064  1.7368  1.6960
    1SOL    HW3 6335   1.247   2.213   2.419  0.8726 -1.9404  0.0937
    1SOL    MW4 6336   1.220   2.208   2.336  0.0230 -0.3159  0.2649
    1SOL     OW 6337   2.571   3.599   2.976  0.1308 -0.0897 -0.0536
    1SOL    HW2 6338   2.482   3.632   2.959  0.2807 -0.2674 -1.2226
    1SOL    HW3 6339   2.605   3.657   3.044 -0.6639  0.3569 -0.0290
    1SOL    MW4 6340   2.564   3.611   2.983  0.0460 -0.0541 -0.2046
    1SOL     OW 6341   1.769   3.857   1.407 -0.1624  0.1727  0.2694
    1SOL    HW2 6342   1.718   3.919   1.460  1.0529  0.7129  0.8339
    1SOL    HW3 6343   1.785   3.783   1.465  0.1891  0.2685  0.3017
    1SOL    MW4 6344   1.765   3.856   1.421  0.0443  0.2565  0.3482
    1SOL     OW 6345   2.581   1.631   2.946  0.1665  0.0957 -0.1081
    1SOL    HW2 6346   2.519   1.662   2.880  0.0311  1.3987  0.6176
    1SOL    HW3 6347   2.665   1.625   2.899  0.1736  1.4809 -0.2839
    1SOL    MW4 6348   2.584   1.634   2.931  0.1495  0.4504 -0.0358
    1SOL     OW 6349   1.724   2.564   2.552 -0.0581  0.5066 -0.2445
    1SOL    HW2 6350   1.753   2.644   2.508 -1.3209  2.0391  1.6145
    1SOL    HW3 6351   1.789   2.548   2.620 -0.4887  0.7076  0.2228
    1SOL    MW4 6352   1.736   2.573   2.555 -0.2817  0.7353  0.0625
    1SOL     OW 6353   1.733   3.824   2.950 -0.2536 -0.3916  0.1548
    1SOL    HW2 6354   1.732   3.743   3.001 -1.1842 -0.2585  0.3670
    1SOL    HW3 6355   1.825   3.844   2.939 -0.0168 -0.3093  2.0093
    1SOL    MW4 6356   1.745   3.816   2.955 -0.3451 -0.3631  0.4275
    1SOL     OW 6357   2.735   0.020   4.188  0.0960 -0.0729  0.5576
    1SOL    HW2 6358   2.804   0.060   4.240 -0.5987  0.6021  0.9717
    1SOL    HW3 6359   2.761  -0.071   4.178 -0.0115 -0.3398  2.5253
    1SOL    MW4 6360   2.747   0.013   4.193 -0.0098 -0.0191  0.8717
    1SOL     OW 6361   1.829   3.836   2.258  0.0335  0.0537 -0.2453
    1SOL    HW2 6362   1.909   3.886   2.243  0.5945 -1.0166 -0.8685
    1SOL    HW3 6363   1.812   3.846   2.352  0.3753  1.0374 -0.2817
    1SOL    MW4 6364   1.837   3.844   2.269  0.1526  0.0422 -0.3324
    1SOL     OW 6365   2.604   0.851   2.533  0.2960  0.1479 -0.5575
    1SOL    HW2 6366   2.559   0.839   2.449  0.3924  0.6272 -0.6778
    1SOL    HW3 6367   2.549   0.913   2.581 -0.3535 -0.9706  0.1809
    1SOL    MW4 6368   2.591   0.858   2.528  0.2232  0.0635 -0.4761
    1SOL     OW 6369   2.483   0.339   2.137 -0.2917  0.2101  0.1487
    1SOL    HW2 6370   2.395   0.303   2.127 -0.7373  0.9433  1.4192
    1SOL    HW3 6371   2.530   0.273   2.188  0.1482 -0.5559 -1.2068
    1SOL    MW4 6372   2.478   0.325   2.142 -0.2923  0.2058  0.1376
    1SOL     OW 6373   3.681   2.980   3.199 -0.5440 -0.1956 -0.1803
    1SOL    HW2 6374   3.759   2.927   3.178  0.5189  1.4485 -0.4616
    1SOL    HW3 6375   3.710   3.037   3.270 -1.3987  0.6355 -0.4966
    1SOL    MW4 6376   3.695   2.980   3.206 -0.5164  0.1311 -0.2594
    1SOL     OW 6377   2.951   4.663   1.748 -0.2870  0.1235 -0.1670
    1SOL    HW2 6378   2.868   4.679   1.792  0.0475 -0.8485  0.8308
    1SOL    HW3 6379   2.998   4.602   1.806 -0.0577 -1.5939 -2.1014
    1SOL    MW4 6380   2.946   4.657   1.761 -0.2124 -0.2308 -0.2904
    1SOL     OW 6381   2.923   4.408   2.768 -0.3310 -0.3080 -0.1061
    1SOL    HW2 6382   2.901   4.423   2.860  1.0110 -1.9456  0.5111
    1SOL    HW3 6383   2.840   4.384   2.727 -0.6187 -1.4107  1.0899
    1SOL    MW4 6384   2.910   4.407   2.775 -0.1919 -0.6695  0.1328
    1SOL     OW 6385   0.061   2.452   3.738  0.7713  0.0098 -0.4217
    1SOL    HW2 6386   0.063   2.362   3.769 -1.9204  0.1294  0.2503
    1SOL    HW3 6387   0.046   2.504   3.817  0.7754  0.9094 -1.0090
    1SOL    MW4 6388   0.059   2.447   3.753  0.4167  0.1445 -0.4106
    1SOL     OW 6389   2.504   1.079   2.652 -0.6398 -0.9949 -0.4837
    1SOL    HW2 6390   2.468   1.113   2.571  0.1519  0.9918 -0.0238
    1SOL    HW3 6391   2.430   1.080   2.714 -0.4908  0.3686 -0.3306
    1SOL    MW4 6392   2.489   1.083   2.650 -0.5157 -0.5530 -0.4027
    1SOL     OW 6393   2.839   4.283   3.385  0.6136  0.3168 -0.1152
    1SOL    HW2 6394   2.903   4.353   3.376  0.7876  0.5823  2.6078
    1SOL    HW3 6395   2.776   4.298   3.315  2.5748  1.0738 -1.7521
    1SOL    MW4 6396   2.839   4.294   3.375  0.8953  0.4520  0.0281
    1SOL     OW 6397   2.464   1.965   2.616 -0.5922 -0.0929 -0.4491
    1SOL    HW2 6398   2.548   1.984   2.658  0.2881  0.3934 -2.3286
    1SOL    HW3 6399   2.429   1.891   2.665  0.6681  0.0670  0.7335
    1SOL    MW4 6400   2.471   1.958   2.628 -0.3099 -0.0076 -0.5407
    1SOL     OW 6401   3.144   1.290   2.829  0.0845 -0.6417 -0.0884
    1SOL    HW2 6402   3.215   1.300   2.766 -0.1502 -2.4600 -0.6633
    1SOL    HW3 6403   3.185   1.309   2.914  1.0594 -0.8985 -0.4965
    1SOL    MW4 6404   3.159   1.294   2.832  0.1824 -0.9155 -0.2179
    1SOL     OW 6405   3.606   1.979   1.349 -0.2422 -0.4060 -0.1311
    1SOL    HW2 6406   3.685   1.980   1.403  0.4490 -0.3661 -1.1269
    1SOL    HW3 6407   3.619   1.905   1.290 -0.2148  0.5741 -1.3732
    1SOL    MW4 6408   3.618   1.969   1.348 -0.1473 -0.2714 -0.4263
    1SOL     OW 6409   2.950   2.858   2.122  0.2001  0.2592  0.3360
    1SOL    HW2 6410   3.038   2.881   2.152  0.4825  0.3860 -0.5724
    1SOL    HW3 6411   2.946   2.892   2.032 -0.5987 -0.1827  0.2045
    1SOL    MW4 6412   2.961   2.866   2.114  0.1318  0.2174  0.1988
    1SOL     OW 6413   0.188   1.400   3.645  0.0761 -0.4722  0.1844
    1SOL    HW2 6414   0.258   1.408   3.580 -0.3677 -1.0027 -0.3649
    1SOL    HW3 6415   0.229   1.425   3.728  1.3834 -2.4266  0.1496
    1SOL    MW4 6416   0.202   1.404   3.648  0.1900 -0.8000  0.1075
    1SOL     OW 6417   0.965   1.087   3.341  0.1251 -0.1853 -0.1574
    1SOL    HW2 6418   0.894   1.095   3.403  1.5948  0.0181  1.5377
    1SOL    HW3 6419   1.044   1.079   3.395  1.4202 -0.1422 -1.9784
    1SOL    MW4 6420   0.966   1.087   3.356  0.4898 -0.1528 -0.1738
    1SOL     OW 6421   2.876   1.336   3.126  0.0220 -0.0048 -0.1408
    1SOL    HW2 6422   2.908   1.379   3.047 -1.4147  0.5448 -0.4521
    1SOL    HW3 6423   2.799   1.287   3.096  0.0674 -0.6049  0.7215
    1SOL    MW4 6424   2.870   1.335   3.112 -0.1614 -0.0114 -0.0682
    1SOL     OW 6425   2.239   0.587   3.937 -0.0873 -0.4984 -0.3683
    1SOL    HW2 6426   2.331   0.603   3.917  0.8375 -2.6194  1.9163
    1SOL    HW3 6427   2.202   0.674   3.951  1.6905  0.3591 -0.8667
    1SOL    MW4 6428   2.247   0.601   3.936  0.2689 -0.6651 -0.1328
    1SOL     OW 6429   2.257   2.904   2.086 -0.1834 -0.0758 -0.2498
    1SOL    HW2 6430   2.317   2.830   2.094 -0.8342 -0.6398 -0.5109
    1SOL    HW3 6431   2.174   2.870   2.119 -0.3555  0.7051  0.1315
    1SOL    MW4 6432   2.254   2.890   2.092 -0.2918 -0.0472 -0.2337
    1SOL     OW 6433   2.704   0.092   1.230  0.1374 -0.1081  0.0026
    1SOL    HW2 6434   2.674   0.004   1.251 -0.6738  0.0447 -0.4624
    1SOL    HW3 6435   2.791   0.098   1.268 -0.1647 -0.8006  0.8196
    1SOL    MW4 6436   2.711   0.081   1.238 -0.0095 -0.1793  0.0491
    1SOL     OW 6437   1.801   2.807   2.367 -0.0355 -0.6630  0.8326
    1SOL    HW2 6438   1.724   2.859   2.387  1.3174  1.7595 -0.1009
    1SOL    HW3 6439   1.861   2.824   2.440  1.2956  0.9268 -0.5982
    1SOL    MW4 6440   1.799   2.816   2.380  0.3185 -0.1338  0.5207
    1SOL     OW 6441   1.425   2.595   3.130 -0.1523  0.2605 -0.0762
    1SOL    HW2 6442   1.395   2.506   3.146  0.3585  0.0931 -0.0353
    1SOL    HW3 6443   1.519   2.586   3.114 -0.2646  0.6806 -1.0214
    1SOL    MW4 6444   1.433   2.582   3.130 -0.0997  0.2937 -0.1955
    1SOL     OW 6445   2.656   0.362   3.278 -0.3043  0.0614  0.5023
    1SOL    HW2 6446   2.706   0.338   3.357 -0.3117  0.4587  0.6242
    1SOL    HW3 6447   2.595   0.289   3.266 -0.0901 -0.1503  0.6853
    1SOL    MW4 6448   2.655   0.349   3.287 -0.2770  0.0859  0.5426
    1SOL     OW 6449   2.025   3.847   2.952 -0.1028  0.5931  0.0094
    1SOL    HW2 6450   2.073   3.838   3.034 -0.1561 -0.4760 -0.0688
    1SOL    HW3 6451   2.030   3.761   2.912  1.5321  1.5939 -2.0041
    1SOL    MW4 6452   2.032   3.835   2.958  0.1056  0.5841 -0.2666
    1SOL     OW 6453   2.752   3.347   4.048  0.4775 -0.0127 -0.1983
    1SOL    HW2 6454   2.736   3.304   4.132 -0.5039 -0.5877 -0.6684
    1SOL    HW3 6455   2.778   3.276   3.990  0.2924  0.2531 -0.6035
    1SOL    MW4 6456   2.753   3.332   4.052  0.3235 -0.0534 -0.3138
    1SOL     OW 6457   4.406   1.383   3.121 -0.2494  0.1997  0.4101
    1SOL    HW2 6458   4.310   1.388   3.129 -0.4625 -1.4812 -0.7052
    1SOL    HW3 6459   4.438   1.466   3.156 -2.1290  0.8260  0.6950
    1SOL    MW4 6460   4.397   1.395   3.127 -0.5250  0.0606  0.3006
    1SOL     OW 6461   1.934   2.848   2.605 -0.0417 -0.3065 -0.1286
    1SOL    HW2 6462   1.919   2.822   2.696  0.6940  0.7193  0.2890
    1SOL    HW3 6463   1.909   2.940   2.602 -0.7752 -0.5323 -1.1498
    1SOL    MW4 6464   1.929   2.857   2.617 -0.0415 -0.2010 -0.2081
    1SOL     OW 6465   1.566   0.150   2.996  0.2885 -0.5335 -0.0061
    1SOL    HW2 6466   1.521   0.118   3.074  1.0420 -1.5872  0.0240
    1SOL    HW3 6467   1.604   0.233   3.022 -1.0900  0.0538  0.1546
    1SOL    MW4 6468   1.565   0.157   3.010  0.2060 -0.5950  0.0188
    1SOL     OW 6469   3.212   4.308   3.436  0.1828  0.5556  0.5137
    1SOL    HW2 6470   3.294   4.353   3.416 -0.4318  2.1319  1.4910
    1SOL    HW3 6471   3.164   4.308   3.352  0.7512  0.5237  0.1873
    1SOL    MW4 6472   3.216   4.314   3.422  0.1764  0.7596  0.5994
    1SOL     OW 6473   2.142   0.358   4.729 -0.4137  0.3589  0.2657
    1SOL    HW2 6474   2.090   0.422   4.680 -1.9311 -0.6614  0.4934
    1SOL    HW3 6475   2.197   0.316   4.662 -0.3707  0.9833 -0.0951
    1SOL    MW4 6476   2.143   0.360   4.713 -0.6082  0.3067  0.2489
    1SOL     OW 6477   2.600   0.755   2.915 -0.3185  0.0302 -0.3577
    1SOL    HW2 6478   2.640   0.772   2.830  0.6949 -0.4208  0.0190
    1SOL    HW3 6479   2.643   0.675   2.947 -1.1026 -0.1305  0.3158
    1SOL    MW4 6480   2.611   0.747   2.908 -0.2882 -0.0506 -0.2191
    1SOL     OW 6481   3.570   0.969   3.296  0.2928 -0.1922  0.0934
    1SOL    HW2 6482   3.499   0.925   3.341  0.2611  0.4811  0.7158
    1SOL    HW3 6483   3.526   1.019   3.226  0.1563  0.1675  0.4330
    1SOL    MW4 6484   3.555   0.970   3.293  0.2706 -0.0560  0.2201
    1SOL     OW 6485   3.251   0.132   1.346  0.2510 -0.2146 -0.0049
    1SOL    HW2 6486   3.283   0.177   1.268 -0.4245 -1.0159 -0.7388
    1SOL    HW3 6487   3.156   0.128   1.336  0.1207 -0.0259  1.0203
    1SOL    MW4 6488   3.243   0.138   1.335  0.1447 -0.2954  0.0336
    1SOL     OW 6489   2.055   1.239   3.162 -0.3620  0.1325  0.2372
    1SOL    HW2 6490   2.054   1.253   3.068 -0.5779  0.5887  0.3013
    1SOL    HW3 6491   1.965   1.215   3.184 -0.4670  0.6703  0.4133
    1SOL    MW4 6492   2.043   1.238   3.153 -0.4041  0.2637  0.2692
    1SOL     OW 6493   3.422   0.617   2.346  0.1703  0.5407 -0.1252
    1SOL    HW2 6494   3.442   0.537   2.297 -0.9230  0.3067 -0.2059
    1SOL    HW3 6495   3.488   0.620   2.415  0.4728 -0.2096 -0.3762
    1SOL    MW4 6496   3.433   0.607   2.349  0.0658  0.4109 -0.1690
    1SOL     OW 6497   1.806   1.448   1.131 -0.0446  0.0050  0.0847
    1SOL    HW2 6498   1.838   1.513   1.069  1.3017  0.7392  1.5140
    1SOL    HW3 6499   1.801   1.367   1.080 -0.1872  0.8791 -1.2999
    1SOL    MW4 6500   1.810   1.446   1.116  0.1142  0.2172  0.0906
    1SOL     OW 6501   4.177   2.673   3.797 -0.3186  0.4001 -0.3589
    1SOL    HW2 6502   4.209   2.658   3.886 -0.1132  0.9006 -0.3513
    1SOL    HW3 6503   4.245   2.726   3.756 -0.9161  1.0697 -0.4839
    1SOL    MW4 6504   4.190   2.678   3.804 -0.3700  0.5546 -0.3741
    1SOL     OW 6505   2.793   3.156   2.866 -0.0053 -0.3968  0.3820
    1SOL    HW2 6506   2.888   3.168   2.866 -0.0040 -0.4039  0.7760
    1SOL    HW3 6507   2.775   3.100   2.941 -0.3965  0.2303  0.7641
    1SOL    MW4 6508   2.803   3.150   2.876 -0.0567 -0.3150  0.4845
    1SOL     OW 6509   4.161   1.972   2.980  0.1128 -0.3583  0.2326
    1SOL    HW2 6510   4.113   1.995   3.059  0.2841  1.1133 -0.0773
    1SOL    HW3 6511   4.100   1.919   2.928 -0.0888 -1.0978  1.2136
    1SOL    MW4 6512   4.147   1.968   2.983  0.1087 -0.2618  0.3209
    1SOL     OW 6513   1.706   1.387   1.638 -0.2530  0.3983  0.0690
    1SOL    HW2 6514   1.729   1.463   1.692  0.5708  0.9488 -1.0533
    1SOL    HW3 6515   1.688   1.423   1.552 -0.2134 -0.6525 -0.3844
    1SOL    MW4 6516   1.706   1.402   1.634 -0.1391  0.3322 -0.1389
    1SOL     OW 6517   2.269   3.434   2.964 -0.0497 -0.3992 -0.1129
    1SOL    HW2 6518   2.282   3.480   3.047 -2.3542 -0.5571  0.3620
    1SOL    HW3 6519   2.282   3.500   2.897 -2.7130  0.8329  0.5412
    1SOL    MW4 6520   2.272   3.449   2.966 -0.7050 -0.2575  0.0360
    1SOL     OW 6521   2.498   2.387   3.224  0.1758 -0.4998 -0.1779
    1SOL    HW2 6522   2.431   2.330   3.261 -0.1941 -0.3255 -0.5741
    1SOL    HW3 6523   2.563   2.397   3.294  0.3288 -1.5449 -0.1763
    1SOL    MW4 6524   2.498   2.381   3.238  0.1473 -0.6149 -0.2298
    1SOL     OW 6525   0.163   2.258   4.112 -0.0362  0.5086 -0.2804
    1SOL    HW2 6526   0.252   2.292   4.119 -0.0905  0.4616  0.7242
    1SOL    HW3 6527   0.111   2.313   4.171 -0.8019  0.9620 -1.3719
    1SOL    MW4 6528   0.168   2.269   4.121 -0.1444  0.5622 -0.2918
    1SOL     OW 6529   2.854   4.366   3.064 -0.2067 -0.3686  0.2438
    1SOL    HW2 6530   2.833   4.277   3.038  0.6026 -0.3918 -0.3490
    1SOL    HW3 6531   2.769   4.409   3.074 -0.5866 -1.0917  0.1618
    1SOL    MW4 6532   2.840   4.360   3.062 -0.1502 -0.4673  0.1550
    1SOL     OW 6533   2.388   2.503   2.829  0.7259 -0.1173  0.0730
    1SOL    HW2 6534   2.378   2.424   2.883 -1.1077 -0.8113 -1.2471
    1SOL    HW3 6535   2.437   2.473   2.752  2.2213  0.5958  0.7246
    1SOL    MW4 6536   2.393   2.488   2.826  0.6814 -0.1149 -0.0150
    1SOL     OW 6537   1.853   3.256   2.331 -0.5568 -0.6060  0.0643
    1SOL    HW2 6538   1.814   3.344   2.328  0.9016  0.0180 -0.7657
    1SOL    HW3 6539   1.796   3.203   2.275 -1.2657 -0.1320  0.3218
    1SOL    MW4 6540   1.840   3.260   2.323 -0.4579 -0.4613 -0.0112
    1SOL     OW 6541   3.792   2.954   1.493  0.5430  0.3438  0.5971
    1SOL    HW2 6542   3.755   3.039   1.472  1.2752  0.1079 -1.7343
    1SOL    HW3 6543   3.826   2.920   1.410  1.9745 -1.3823  1.8269
    1SOL    MW4 6544   3.792   2.960   1.479  0.8283  0.0851  0.4517
    1SOL     OW 6545   0.326   3.856   3.388  0.0666 -0.5170 -0.0408
    1SOL    HW2 6546   0.325   3.945   3.422  1.4677 -0.4382 -0.1594
    1SOL    HW3 6547   0.377   3.806   3.452  0.8807 -0.8291 -0.9193
    1SOL    MW4 6548   0.333   3.861   3.401  0.3589 -0.5481 -0.1724
    1SOL     OW 6549   3.086   1.789   3.014  0.4004  0.3730  0.7305
    1SOL    HW2 6550   3.166   1.748   2.981 -0.3153 -1.5486  1.2780
    1SOL    HW3 6551   3.078   1.870   2.965  0.6041 -1.2647 -2.1356
    1SOL    MW4 6552   3.096   1.794   3.003  0.3326 -0.0964  0.4246
    1SOL     OW 6553   4.117   1.166   1.615  0.6403  0.0012 -0.3382
    1SOL    HW2 6554   4.086   1.252   1.589 -0.2102 -0.4993 -1.0267
    1SOL    HW3 6555   4.203   1.182   1.654 -0.4288  1.4158  1.5635
    1SOL    MW4 6556   4.125   1.179   1.617  0.3872  0.1218 -0.1783
    1SOL     OW 6557   2.263   0.749   1.739 -0.7181  0.3953 -0.1598
    1SOL    HW2 6558   2.353   0.732   1.709 -1.1342 -0.6239 -0.8780
    1SOL    HW3 6559   2.263   0.722   1.831 -0.1639  0.8569 -0.0195
    1SOL    MW4 6560   2.275   0.743   1.747 -0.6998  0.3217 -0.2360
    1SOL     OW 6561   0.004   0.693   3.108  0.0097  0.5688 -0.2979
    1SOL    HW2 6562  -0.089   0.710   3.090 -0.4825  0.8189  2.2486
    1SOL    HW3 6563   0.047   0.701   3.023 -2.4009 -0.2614 -1.6497
    1SOL    MW4 6564  -0.003   0.696   3.094 -0.3729  0.4922 -0.1402
    1SOL     OW 6565   0.033   1.586   1.781 -0.2955  0.7146  0.2137
    1SOL    HW2 6566   0.106   1.580   1.844 -1.5961 -1.8756  1.5644
    1SOL    HW3 6567  -0.045   1.587   1.836 -1.4630 -1.5464 -1.3387
    1SOL    MW4 6568   0.033   1.586   1.797 -0.6211  0.0745  0.1872
    1SOL     OW 6569   3.819   0.865   3.357  0.1019 -0.4074  0.2309
    1SOL    HW2 6570   3.735   0.909   3.344 -0.9638 -1.7202  2.4004
    1SOL    HW3 6571   3.827   0.805   3.283 -0.9917 -0.4637  0.1615
    1SOL    MW4 6572   3.809   0.863   3.346 -0.1829 -0.5881  0.5083
    1SOL     OW 6573   4.441   0.843   2.520 -0.2327 -0.2288 -0.1489
    1SOL    HW2 6574   4.440   0.928   2.476  3.4890 -0.3236 -0.5422
    1SOL    HW3 6575   4.417   0.863   2.610  0.3674  1.2332 -0.2941
    1SOL    MW4 6576   4.438   0.857   2.526  0.3376 -0.0483 -0.2196
    1SOL     OW 6577   0.231   2.954   2.973 -0.4715 -0.3971 -0.4035
    1SOL    HW2 6578   0.288   2.893   2.926  0.1889 -1.2932  1.5045
    1SOL    HW3 6579   0.237   2.927   3.064 -1.6958  1.3337  0.2204
    1SOL    MW4 6580   0.239   2.942   2.979 -0.5459 -0.2871 -0.0696
    1SOL     OW 6581   4.169   0.816   1.690 -0.1102 -0.0341  0.1779
    1SOL    HW2 6582   4.180   0.859   1.605  1.5867 -0.7155  0.0322
    1SOL    HW3 6583   4.225   0.866   1.749  0.6054 -1.0247  0.3568
    1SOL    MW4 6584   4.178   0.828   1.686  0.2079 -0.2547  0.1823
    1SOL     OW 6585   2.633   2.778   3.187  0.2899 -0.3046 -0.1021
    1SOL    HW2 6586   2.702   2.712   3.185  1.0141  0.4591 -0.9812
    1SOL    HW3 6587   2.587   2.766   3.103 -1.0309 -1.2120  0.7423
    1SOL    MW4 6588   2.636   2.767   3.175  0.2112 -0.3238 -0.1068
    1SOL     OW 6589   2.477   2.764   2.943 -0.2894 -0.0269 -0.6802
    1SOL    HW2 6590   2.551   2.756   2.883  0.1997 -0.5080 -0.0212
    1SOL    HW3 6591   2.410   2.706   2.906  0.8648 -2.1785  0.4966
    1SOL    MW4 6592   2.478   2.755   2.930 -0.0725 -0.3743 -0.4380
    1SOL     OW 6593   0.518   2.304   2.377 -0.1488  0.1630  0.1489
    1SOL    HW2 6594   0.479   2.237   2.432  0.7347 -0.3720  0.1290
    1SOL    HW3 6595   0.470   2.299   2.294  0.4329 -0.9752 -0.1255
    1SOL    MW4 6596   0.507   2.295   2.373  0.0446 -0.0577  0.1101
    1SOL     OW 6597   2.358   1.392   2.839 -0.2478 -0.3685 -0.0246
    1SOL    HW2 6598   2.349   1.297   2.828  0.4809 -0.4053 -0.2974
    1SOL    HW3 6599   2.335   1.408   2.931 -1.4978 -0.6640 -0.2668
    1SOL    MW4 6600   2.354   1.381   2.850 -0.3166 -0.4123 -0.0927
    1SOL     OW 6601   0.294   3.926   2.298 -0.2096 -0.2923  0.2293
    1SOL    HW2 6602   0.300   3.895   2.208  1.7605 -2.6560  1.1065
    1SOL    HW3 6603   0.332   4.014   2.297  0.5799 -0.6509 -1.0767
    1SOL    MW4 6604   0.300   3.934   2.286  0.1545 -0.6514  0.1726
    1SOL     OW 6605   4.239   1.149   2.737 -0.3048  0.1242 -0.1103
    1SOL    HW2 6606   4.304   1.122   2.802 -0.6399  0.1934  0.2507
    1SOL    HW3 6607   4.285   1.141   2.653  0.1359  0.0687  0.1358
    1SOL    MW4 6608   4.254   1.144   2.734 -0.2904  0.1260 -0.0303
    1SOL     OW 6609   4.319   0.940   1.887 -0.0871  0.0358 -0.4408
    1SOL    HW2 6610   4.323   0.951   1.982 -0.0389 -1.6054 -0.2403
    1SOL    HW3 6611   4.410   0.923   1.861  0.0293  1.2874 -0.8955
    1SOL    MW4 6612   4.332   0.939   1.896 -0.0653 -0.0155 -0.4743
    1SOL     OW 6613   0.927   2.250   2.417 -0.1556 -0.0611 -0.3316
    1SOL    HW2 6614   0.887   2.331   2.386  1.6268  0.9302 -0.1037
    1SOL    HW3 6615   1.010   2.245   2.369  1.1677 -0.1377  1.9137
    1SOL    MW4 6616   0.933   2.260   2.407  0.2542  0.0598 -0.0055
    1SOL     OW 6617   2.719   3.119   1.354 -0.4118 -0.5066 -0.5262
    1SOL    HW2 6618   2.667   3.174   1.296 -0.9757 -0.7547 -0.2620
    1SOL    HW3 6619   2.788   3.084   1.298 -0.9276 -0.7084 -1.0394
    1SOL    MW4 6620   2.721   3.121   1.339 -0.5543 -0.5660 -0.5591
    1SOL     OW 6621   4.390   2.614   2.829 -0.0112 -0.1531  0.2889
    1SOL    HW2 6622   4.318   2.551   2.830  0.9729 -1.3077 -0.5256
    1SOL    HW3 6623   4.466   2.564   2.799  0.5147  1.6794 -1.5999
    1SOL    MW4 6624   4.391   2.599   2.825  0.1884 -0.0637 -0.0679
    1SOL     OW 6625   2.760   0.665   2.654  0.3308 -0.0935 -0.0148
    1SOL    HW2 6626   2.701   0.724   2.607  1.4021  0.7951 -0.2868
    1SOL    HW3 6627   2.705   0.594   2.684 -0.7994  0.5187 -0.6137
    1SOL    MW4 6628   2.745   0.664   2.652  0.3228  0.1045 -0.1297
    1SOL     OW 6629   2.973   2.141   3.376  0.2004 -0.2694 -0.0166
    1SOL    HW2 6630   2.953   2.212   3.437 -0.6181  0.6127 -1.2712
    1SOL    HW3 6631   2.900   2.081   3.383 -0.1016  0.0434 -0.4043
    1SOL    MW4 6632   2.961   2.143   3.385  0.0527 -0.1118 -0.2332
    1SOL     OW 6633   2.434   1.033   3.910 -0.3587  0.0903  0.3821
    1SOL    HW2 6634   2.433   0.972   3.984 -1.5098  1.7386  1.7638
    1SOL    HW3 6635   2.343   1.034   3.879 -0.6245  2.0029  1.1588
    1SOL    MW4 6636   2.422   1.025   3.916 -0.5455  0.5600  0.6671
    1SOL     OW 6637   2.784   3.872   2.135  0.4310 -0.1598  0.0804
    1SOL    HW2 6638   2.853   3.901   2.075 -0.6182  0.2517 -0.9481
    1SOL    HW3 6639   2.818   3.893   2.222  0.8934  1.6041 -0.5005
    1SOL    MW4 6640   2.798   3.879   2.139  0.3533  0.1268 -0.1318
    1SOL     OW 6641   0.321   4.358   2.577 -0.0788 -0.7238  0.1745
    1SOL    HW2 6642   0.329   4.426   2.643  0.4704 -2.7173  2.2453
    1SOL    HW3 6643   0.229   4.332   2.579 -0.7413  1.2846 -2.0446
    1SOL    MW4 6644   0.310   4.363   2.586 -0.0937 -0.7224  0.1550
    1SOL     OW 6645   0.661   3.605   3.103 -0.1802 -0.1423  0.1933
    1SOL    HW2 6646   0.669   3.656   3.022  1.4918 -2.3547 -1.0852
    1SOL    HW3 6647   0.568   3.580   3.106 -0.7325  1.8058  0.1510
    1SOL    MW4 6648   0.650   3.608   3.093 -0.0324 -0.1769  0.0188
    1SOL     OW 6649   1.995   4.567   3.269 -0.1932  0.3686 -0.1850
    1SOL    HW2 6650   1.995   4.510   3.347 -0.1117 -0.7014 -0.9550
    1SOL    HW3 6651   1.907   4.559   3.233 -0.5111  1.5863  0.3060
    1SOL    MW4 6652   1.984   4.558   3.275 -0.2244  0.3881 -0.2220
    1SOL     OW 6653   0.773   0.495   3.399 -0.2258 -0.3751 -0.6965
    1SOL    HW2 6654   0.716   0.430   3.358 -0.5767 -0.4044 -0.1759
    1SOL    HW3 6655   0.734   0.510   3.485  0.3666 -0.1483 -0.4606
    1SOL    MW4 6656   0.761   0.488   3.405 -0.1940 -0.3490 -0.5965
    1SOL     OW 6657   0.795   3.425   2.376 -0.0475  0.1752  0.1334
    1SOL    HW2 6658   0.754   3.359   2.321 -0.2707 -0.3007  0.8644
    1SOL    HW3 6659   0.726   3.453   2.436  0.0550  1.0391 -0.1341
    1SOL    MW4 6660   0.781   3.420   2.377 -0.0634  0.2265  0.1948
    1SOL     OW 6661   0.760   1.286   2.544  0.1201  0.2378  0.5392
    1SOL    HW2 6662   0.852   1.304   2.524 -0.1922  2.2448  0.7509
    1SOL    HW3 6663   0.741   1.204   2.500  1.6046  0.5833 -0.7874
    1SOL    MW4 6664   0.770   1.278   2.536  0.2747  0.5481  0.3922
    1SOL     OW 6665   4.071   0.402   2.062  0.0124 -0.5287 -0.3881
    1SOL    HW2 6666   4.112   0.356   2.134 -0.7158  0.1504  0.4702
    1SOL    HW3 6667   4.028   0.477   2.102 -0.6254 -0.2880 -1.4856
    1SOL    MW4 6668   4.070   0.406   2.077 -0.1683 -0.4073 -0.4196
    1SOL     OW 6669   2.759   3.593   2.133 -0.5690 -0.3355 -0.0118
    1SOL    HW2 6670   2.748   3.687   2.121 -0.7709 -0.4288 -0.5655
    1SOL    HW3 6671   2.711   3.573   2.214  0.0063  0.1395  0.4511
    1SOL    MW4 6672   2.751   3.602   2.142 -0.5198 -0.2849 -0.0238
    1SOL     OW 6673   3.948   4.376   1.499 -0.2930 -0.1611  0.2439
    1SOL    HW2 6674   3.925   4.464   1.468  1.1751  0.1127 -0.0933
    1SOL    HW3 6675   3.952   4.323   1.419 -0.7079 -0.4399  0.4023
    1SOL    MW4 6676   3.945   4.381   1.484 -0.1540 -0.1616  0.2203
    1SOL     OW 6677   1.579   1.340   2.770 -0.1662 -0.0185  0.2520
    1SOL    HW2 6678   1.514   1.312   2.835 -2.7379  1.6629 -1.4905
    1SOL    HW3 6679   1.599   1.431   2.795 -0.4550  0.3154 -0.7323
    1SOL    MW4 6680   1.573   1.348   2.782 -0.5436  0.2474 -0.1078
    1SOL     OW 6681   3.309   1.633   2.956 -0.3489 -0.1117 -0.2649
    1SOL    HW2 6682   3.376   1.700   2.947 -1.0970  0.6749 -0.0336
    1SOL    HW3 6683   3.339   1.577   3.027  0.3842 -0.1579 -0.6051
    1SOL    MW4 6684   3.322   1.634   2.964 -0.3507 -0.0141 -0.2792
    1SOL     OW 6685   0.579   1.496   2.547  0.7979  0.1642  0.4013
    1SOL    HW2 6686   0.547   1.500   2.457 -0.6852 -0.5894  0.8712
    1SOL    HW3 6687   0.655   1.438   2.544  0.2809 -0.4916 -0.2508
    1SOL    MW4 6688   0.585   1.489   2.535  0.5339 -0.0218  0.3772
    1SOL     OW 6689   2.278   1.461   3.083 -0.2300 -0.0338 -0.0028
    1SOL    HW2 6690   2.249   1.395   3.146 -0.8371 -0.7193 -0.9792
    1SOL    HW3 6691   2.229   1.540   3.107  0.7877  0.1918  1.4105
    1SOL    MW4 6692   2.268   1.463   3.095 -0.1757 -0.0945  0.0546
    1SOL     OW 6693   1.723   0.887   2.241 -0.1603  0.9572 -0.2304
    1SOL    HW2 6694   1.813   0.870   2.269 -0.6335  0.0277  0.7546
    1SOL    HW3 6695   1.704   0.975   2.273 -0.1272  0.5503  0.9117
    1SOL    MW4 6696   1.732   0.896   2.249 -0.2184  0.7809  0.0501
    1SOL     OW 6697   4.198   1.754   4.087  0.1791  0.2606 -0.1192
    1SOL    HW2 6698   4.274   1.800   4.123 -0.9967  0.9471  1.5315
    1SOL    HW3 6699   4.163   1.705   4.161 -0.0780 -1.2974 -1.2620
    1SOL    MW4 6700   4.204   1.754   4.102 -0.0095  0.1454 -0.0525
    1SOL     OW 6701   2.881   0.928   2.448  0.0901 -0.4028 -0.5704
    1SOL    HW2 6702   2.943   0.896   2.515  0.1890  0.2727 -0.3413
    1SOL    HW3 6703   2.796   0.929   2.493  0.4680  1.9223  0.1567
    1SOL    MW4 6704   2.878   0.924   2.463  0.1533 -0.0069 -0.4442
    1SOL     OW 6705   0.607   2.423   2.900  0.2918  0.4162  0.5043
    1SOL    HW2 6706   0.634   2.425   2.992 -0.0153  1.2773  0.5798
    1SOL    HW3 6707   0.522   2.467   2.899  0.4460  0.7014 -0.2409
    1SOL    MW4 6708   0.600   2.429   2.912  0.2716  0.5674  0.4158
    1SOL     OW 6709   4.341   1.173   2.483 -0.3282 -0.0907 -0.3120
    1SOL    HW2 6710   4.421   1.217   2.511 -0.8626  0.5571  0.2263
    1SOL    HW3 6711   4.346   1.171   2.388 -0.4703  1.4975 -0.3711
    1SOL    MW4 6712   4.352   1.178   2.474 -0.4172  0.2043 -0.2491
    1SOL     OW 6713   1.649   2.897   3.386 -0.3238 -0.2024 -0.4850
    1SOL    HW2 6714   1.717   2.888   3.320 -0.0769 -2.0475  0.0046
    1SOL    HW3 6715   1.696   2.910   3.468 -0.6270  1.9702 -0.6144
    1SOL    MW4 6716   1.664   2.898   3.388 -0.3314 -0.1593 -0.4377
    1SOL     OW 6717   4.127   4.044   2.332 -0.5498  0.0982  0.4530
    1SOL    HW2 6718   4.179   4.123   2.319  2.8928 -2.0106  1.0078
    1SOL    HW3 6719   4.180   3.988   2.389 -2.9065 -2.6112  0.1124
    1SOL    MW4 6720   4.141   4.047   2.337 -0.4058 -0.5379  0.4811
    1SOL     OW 6721   0.486   3.102   3.258  0.0027 -0.1143  0.3029
    1SOL    HW2 6722   0.499   3.139   3.171  2.0020 -0.6894  0.3378
    1SOL    HW3 6723   0.458   3.175   3.313  2.6415  1.1121  0.0806
    1SOL    MW4 6724   0.484   3.116   3.254  0.6147 -0.0281  0.2782
    1SOL     OW 6725   0.956   3.404   3.738 -0.4006  0.3057  0.0812
    1SOL    HW2 6726   1.016   3.421   3.665 -0.3767 -0.9706 -0.2101
    1SOL    HW3 6727   1.013   3.378   3.811 -0.4057  1.8247  0.6473
    1SOL    MW4 6728   0.972   3.403   3.738 -0.3982  0.3376  0.1175
    1SOL     OW 6729   0.822   2.229   3.108  0.0669 -0.2922  0.0864
    1SOL    HW2 6730   0.769   2.300   3.145 -1.6388 -0.1316 -2.5270
    1SOL    HW3 6731   0.878   2.272   3.044  1.3620 -0.8800  0.8075
    1SOL    MW4 6732   0.822   2.244   3.104  0.0127 -0.3488 -0.1633
    1SOL     OW 6733   0.501   3.349   2.064 -0.0103 -0.1388 -0.2743
    1SOL    HW2 6734   0.519   3.438   2.033  0.1180 -0.1391 -0.1972
    1SOL    HW3 6735   0.587   3.312   2.081  0.1188 -1.2637 -3.0713
    1SOL    MW4 6736   0.515   3.356   2.062  0.0237 -0.2875 -0.6330
    1SOL     OW 6737   3.861   0.869   2.215  0.3785  0.5784  0.2437
    1SOL    HW2 6738   3.886   0.779   2.196 -1.6287 -0.6207  2.9925
    1SOL    HW3 6739   3.945   0.914   2.230  1.3950 -0.8060 -1.1118
    1SOL    MW4 6740   3.876   0.863   2.215  0.2482  0.2375  0.4275
    1SOL     OW 6741   4.010   4.149   2.552  0.0460 -0.0777 -0.6676
    1SOL    HW2 6742   4.035   4.097   2.475 -0.4511 -0.6986 -0.4163
    1SOL    HW3 6743   4.053   4.105   2.625 -1.4537 -0.9429 -0.2780
    1SOL    MW4 6744   4.019   4.136   2.551 -0.2170 -0.2737 -0.5832
    1SOL     OW 6745   3.919   0.053   2.787 -0.1007 -0.1632  0.6238
    1SOL    HW2 6746   3.850   0.010   2.737  0.1296 -0.5553  0.6461
    1SOL    HW3 6747   3.938   0.133   2.737 -0.4704 -0.1261  0.5424
    1SOL    MW4 6748   3.913   0.058   2.774 -0.1192 -0.2100  0.6158
    1SOL     OW 6749   2.482   4.202   2.589 -0.1512 -0.2747 -0.3272
    1SOL    HW2 6750   2.422   4.214   2.515 -0.5904  0.1147  0.0891
    1SOL    HW3 6751   2.430   4.226   2.666  0.2966 -0.7021  0.1121
    1SOL    MW4 6752   2.467   4.207   2.589 -0.1500 -0.2794 -0.2146
    1SOL     OW 6753   4.246   4.655   2.280  0.1101 -0.1327  0.0802
    1SOL    HW2 6754   4.186   4.624   2.348 -1.9936  2.1409 -0.6698
    1SOL    HW3 6755   4.213   4.614   2.200 -0.8817  1.6438 -0.4398
    1SOL    MW4 6756   4.234   4.646   2.279 -0.2985  0.4016 -0.0875
    1SOL     OW 6757   0.017   4.544   2.214  0.4791 -0.1952 -0.2942
    1SOL    HW2 6758   0.033   4.617   2.154 -2.2862  0.0955 -0.7617
    1SOL    HW3 6759  -0.060   4.571   2.264 -0.1955 -2.5250 -0.0311
    1SOL    MW4 6760   0.009   4.557   2.213  0.0253 -0.4649 -0.3209
    1SOL     OW 6761   3.531   0.223   3.152  0.3603 -0.9074 -0.1309
    1SOL    HW2 6762   3.537   0.290   3.220  1.4671 -1.2019  0.0727
    1SOL    HW3 6763   3.441   0.192   3.157  0.0088  0.1463  0.1698
    1SOL    MW4 6764   3.520   0.228   3.162  0.4601 -0.8072 -0.0641
    1SOL     OW 6765   1.749   0.620   3.547  0.0118  0.2523 -0.4602
    1SOL    HW2 6766   1.819   0.656   3.602  0.2195  0.8917 -1.1471
    1SOL    HW3 6767   1.696   0.568   3.608 -0.2278  1.6004  0.5036
    1SOL    MW4 6768   1.751   0.618   3.562  0.0075  0.5145 -0.4239
    1SOL     OW 6769   0.639   4.521   2.721  0.3809 -0.3634  0.1162
    1SOL    HW2 6770   0.730   4.548   2.721 -0.4306  2.6746 -1.7794
    1SOL    HW3 6771   0.590   4.603   2.725 -2.2651 -1.9342  1.1783
    1SOL    MW4 6772   0.644   4.535   2.721 -0.0753 -0.1698  0.0064
    1SOL     OW 6773   0.015   0.048   2.925 -0.2237  0.1830 -0.1510
    1SOL    HW2 6774   0.093   0.073   2.874  0.5844 -0.3315  0.8203
    1SOL    HW3 6775   0.015   0.109   2.999  0.2000 -0.9030  0.7476
    1SOL    MW4 6776   0.026   0.059   2.928 -0.0612 -0.0282  0.0956
    1SOL     OW 6777   3.837   0.705   3.152  0.2753 -0.2809 -0.0113
    1SOL    HW2 6778   3.864   0.624   3.109 -0.2636 -0.2064 -0.4995
    1SOL    HW3 6779   3.796   0.757   3.082 -1.0125 -0.3478  0.6780
    1SOL    MW4 6780   3.835   0.702   3.137  0.0341 -0.2798  0.0153
    1SOL     OW 6781   0.793   1.047   2.204 -0.0205  0.1526 -0.1315
    1SOL    HW2 6782   0.794   1.142   2.218 -0.5615 -0.1681  2.2787
    1SOL    HW3 6783   0.745   1.036   2.122  0.4357  1.9883 -0.6749
    1SOL    MW4 6784   0.787   1.058   2.195 -0.0317  0.3525  0.1147
    1SOL     OW 6785   0.217   1.153   1.933  0.0779 -0.5695 -0.4440
    1SOL    HW2 6786   0.181   1.071   1.899 -2.0894  0.3832 -0.5131
    1SOL    HW3 6787   0.199   1.217   1.864  0.0978  0.3418  0.3839
    1SOL    MW4 6788   0.210   1.151   1.919 -0.2054 -0.3237 -0.3439
    1SOL     OW 6789   1.396   1.331   4.600 -0.6195  0.8812  0.0495
    1SOL    HW2 6790   1.314   1.327   4.552  0.3199 -0.1011 -1.5472
    1SOL    HW3 6791   1.447   1.398   4.554  0.1858  0.1162 -0.2016
    1SOL    MW4 6792   1.392   1.339   4.587 -0.3893  0.6506 -0.1941
    1SOL     OW 6793   0.629   0.657   1.949  0.1616  0.6623 -0.4737
    1SOL    HW2 6794   0.715   0.615   1.951 -0.6331 -0.9775  0.4331
    1SOL    HW3 6795   0.642   0.740   1.995  1.3589  0.6461 -0.7617
    1SOL    MW4 6796   0.643   0.662   1.955  0.2146  0.4438 -0.3922
    1SOL     OW 6797   0.911   2.752   2.805 -0.2703  0.0124 -0.0809
    1SOL    HW2 6798   0.851   2.711   2.743 -0.4329 -0.2161  0.2237
    1SOL    HW3 6799   0.882   2.720   2.891  0.1370  0.0856  0.0860
    1SOL    MW4 6800   0.899   2.742   2.809 -0.2380 -0.0081 -0.0186
    1SOL     OW 6801   1.431   3.103   3.422  0.2859  0.1337 -0.1911
    1SOL    HW2 6802   1.454   3.126   3.512 -0.0787 -0.2378 -0.0042
    1SOL    HW3 6803   1.507   3.055   3.390  0.2953  0.0075  0.0162
    1SOL    MW4 6804   1.444   3.100   3.430  0.2390  0.0679 -0.1390
    1SOL     OW 6805   4.012   0.550   2.821 -0.9043 -0.2618 -0.1130
    1SOL    HW2 6806   4.067   0.527   2.896 -2.2932 -1.5048  0.5465
    1SOL    HW3 6807   4.001   0.468   2.773 -0.9909  0.2844 -1.0532
    1SOL    MW4 6808   4.018   0.536   2.824 -1.0986 -0.3538 -0.1497
    1SOL     OW 6809   0.239   1.698   2.381  0.3376 -0.0268 -0.0264
    1SOL    HW2 6810   0.174   1.642   2.424  0.8353 -0.4849  0.1302
    1SOL    HW3 6811   0.289   1.738   2.452 -0.8581  1.6551 -0.0923
    1SOL    MW4 6812   0.237   1.696   2.396  0.2455  0.1346 -0.0145
    1SOL     OW 6813   3.282   3.103   2.347  0.3785 -0.2014 -0.5156
    1SOL    HW2 6814   3.358   3.155   2.374  0.9325 -1.5065  0.5781
    1SOL    HW3 6815   3.210   3.133   2.402  0.7911 -0.8227  0.3856
    1SOL    MW4 6816   3.283   3.114   2.358  0.5057 -0.4554 -0.2520
    1SOL     OW 6817   0.066   2.192   2.743  0.0855  0.1483 -0.7447
    1SOL    HW2 6818   0.014   2.197   2.823  0.8195  0.1378 -0.2661
    1SOL    HW3 6819   0.057   2.102   2.714  0.0189  0.0863 -0.5335
    1SOL    MW4 6820   0.058   2.181   2.750  0.1735  0.1388 -0.6535
    1SOL     OW 6821   0.598   3.965   2.947  0.0325 -0.1061 -0.2122
    1SOL    HW2 6822   0.540   3.923   3.011 -1.7832  0.5648 -1.4013
    1SOL    HW3 6823   0.593   4.058   2.967 -1.1397  0.1851 -1.7932
    1SOL    MW4 6824   0.590   3.971   2.958 -0.3617  0.0207 -0.5777
    1SOL     OW 6825   0.757   3.091   4.513 -0.2097 -0.2521 -0.0029
    1SOL    HW2 6826   0.712   3.033   4.574 -0.7467  0.5935  0.4233
    1SOL    HW3 6827   0.789   3.163   4.568 -1.9629  1.2703 -0.9161
    1SOL    MW4 6828   0.755   3.093   4.528 -0.5119  0.0601 -0.0672
    1SOL     OW 6829   0.689   4.173   2.638  0.5796 -0.2225 -0.1322
    1SOL    HW2 6830   0.661   4.234   2.569 -0.9430 -1.7767 -0.9006
    1SOL    HW3 6831   0.614   4.167   2.697  1.2644 -0.2486  0.7592
    1SOL    MW4 6832   0.676   4.180   2.637  0.4691 -0.4311 -0.1159
    1SOL     OW 6833   0.356   3.379   3.655 -0.3319 -0.3875 -0.0744
    1SOL    HW2 6834   0.327   3.297   3.696 -0.6415 -0.1048  0.2741
    1SOL    HW3 6835   0.278   3.434   3.655  0.5166  0.8997  2.1410
    1SOL    MW4 6836   0.342   3.375   3.661 -0.2608 -0.1802  0.2639
    1SOL     OW 6837   0.624   4.072   2.140 -0.0729  0.4572  0.1229
    1SOL    HW2 6838   0.650   4.123   2.064  0.1532  0.1550 -0.0017
    1SOL    HW3 6839   0.686   4.097   2.208 -1.0755  1.7044  0.5907
    1SOL    MW4 6840   0.636   4.082   2.139 -0.1754  0.5822  0.1683
    1SOL     OW 6841   3.996   4.086   1.002 -0.0909 -0.4050  0.1448
    1SOL    HW2 6842   4.082   4.071   0.963 -0.2972 -0.8286 -0.1585
    1SOL    HW3 6843   3.940   4.109   0.928 -0.2664 -0.2487  0.3262
    1SOL    MW4 6844   4.000   4.087   0.987 -0.1416 -0.4401  0.1286
    1SOL     OW 6845   1.827   3.243   3.039 -0.1492 -0.5016  0.0565
    1SOL    HW2 6846   1.920   3.230   3.018  0.3446  1.2483  1.0358
    1SOL    HW3 6847   1.827   3.316   3.101 -2.0305 -1.7403  1.5475
    1SOL    MW4 6848   1.839   3.251   3.044 -0.3321 -0.4342  0.3824
    1SOL     OW 6849   3.620   1.148   3.499  0.2685  0.1631  0.3040
    1SOL    HW2 6850   3.550   1.115   3.555 -0.4517  1.1361  0.0118
    1SOL    HW3 6851   3.610   1.100   3.417  0.6001 -0.4513  0.6294
    1SOL    MW4 6852   3.609   1.138   3.496  0.2174  0.2104  0.3083
    1SOL     OW 6853   0.993   1.344   2.390 -0.2070  0.4740  0.4810
    1SOL    HW2 6854   1.077   1.301   2.374 -1.2508 -1.2598 -0.4538
    1SOL    HW3 6855   1.016   1.433   2.415  1.8471  0.5416 -1.5748
    1SOL    MW4 6856   1.007   1.350   2.392 -0.0737  0.2542  0.0863
    1SOL     OW 6857   1.882   1.029   3.465 -0.2557 -0.0394  0.6091
    1SOL    HW2 6858   1.808   1.014   3.406 -1.0508  0.4527  1.4566
    1SOL    HW3 6859   1.958   0.998   3.416 -1.2453 -2.4210  0.4724
    1SOL    MW4 6860   1.882   1.023   3.451 -0.4911 -0.2887  0.7029
    1SOL     OW 6861   0.264   1.517   4.318  0.2405  0.1810 -0.1598
    1SOL    HW2 6862   0.334   1.510   4.254  0.4534  1.1106 -0.0371
    1SOL    HW3 6863   0.186   1.539   4.267 -0.0500 -1.2638 -0.3425
    1SOL    MW4 6864   0.263   1.519   4.303  0.2303  0.1130 -0.1678
    1SOL     OW 6865   0.884   4.570   4.363  0.2921 -0.1317  0.1715
    1SOL    HW2 6866   0.851   4.517   4.435  0.6356 -0.3540  0.1657
    1SOL    HW3 6867   0.968   4.530   4.340 -0.6137 -1.1583 -1.5183
    1SOL    MW4 6868   0.890   4.558   4.370  0.2179 -0.2966 -0.0520
    1SOL     OW 6869   1.214   1.036   3.035 -0.4631 -0.1007 -0.4522
    1SOL    HW2 6870   1.284   1.010   3.095 -1.3523 -0.9400  0.2597
    1SOL    HW3 6871   1.179   0.953   3.003 -0.9633  0.3167 -0.9962
    1SOL    MW4 6872   1.219   1.021   3.039 -0.6464 -0.1563 -0.4301
    1SOL     OW 6873   0.612   0.178   3.465 -0.2432  0.4311 -0.4679
    1SOL    HW2 6874   0.598   0.088   3.435  0.5890  0.3924 -0.7608
    1SOL    HW3 6875   0.707   0.186   3.470 -0.3386  0.9439  0.6224
    1SOL    MW4 6876   0.623   0.167   3.462 -0.1459  0.4937 -0.3626
    1SOL     OW 6877   2.293   0.724   4.234  0.7589  0.0129  0.5648
    1SOL    HW2 6878   2.238   0.662   4.282  1.2192  0.1073  1.2139
    1SOL    HW3 6879   2.233   0.770   4.176  0.2015 -0.0817  1.0684
    1SOL    MW4 6880   2.278   0.722   4.232  0.7463  0.0128  0.7172
    1SOL     OW 6881   0.458   1.163   3.463 -0.3583 -0.1612  0.1568
    1SOL    HW2 6882   0.400   1.102   3.508  0.2083 -0.3595  0.6103
    1SOL    HW3 6883   0.546   1.137   3.488 -0.1361  1.4015  1.0788
    1SOL    MW4 6884   0.462   1.152   3.472 -0.2542  0.0190  0.3383
    1SOL     OW 6885   4.241   3.815   3.366  0.0087 -0.2105  0.0231
    1SOL    HW2 6886   4.310   3.851   3.421  0.6537 -1.1864 -0.1364
    1SOL    HW3 6887   4.272   3.828   3.276  1.2412 -3.0157 -0.0142
    1SOL    MW4 6888   4.254   3.822   3.361  0.2561 -0.7093 -0.0031
    1SOL     OW 6889   1.595   2.431   2.814 -0.1866 -0.5780  0.1097
    1SOL    HW2 6890   1.602   2.526   2.809 -0.7106 -0.5604 -0.3162
    1SOL    HW3 6891   1.504   2.415   2.840  0.0890 -0.9406  0.8637
    1SOL    MW4 6892   1.584   2.442   2.817 -0.2193 -0.6239  0.1533
    1SOL     OW 6893   0.227   3.554   2.926 -0.3207 -0.0549 -0.2373
    1SOL    HW2 6894   0.191   3.639   2.952 -0.6526 -0.5997  1.1472
    1SOL    HW3 6895   0.150   3.499   2.910 -0.1065 -0.0194 -1.3823
    1SOL    MW4 6896   0.212   3.558   2.928 -0.3362 -0.1221 -0.2058
    1SOL     OW 6897   0.960   4.450   3.572 -0.1851 -0.4510 -0.1553
    1SOL    HW2 6898   0.951   4.530   3.623 -0.2084 -0.5983  0.0717
    1SOL    HW3 6899   1.022   4.473   3.503 -0.6281 -0.0743 -0.4313
    1SOL    MW4 6900   0.967   4.464   3.570 -0.2466 -0.4201 -0.1619
    1SOL     OW 6901   1.439   2.703   3.394 -0.0467  0.5201  0.2034
    1SOL    HW2 6902   1.509   2.765   3.414  0.2460 -0.4498  2.4539
    1SOL    HW3 6903   1.462   2.667   3.308  0.8193  2.0991 -0.2401
    1SOL    MW4 6904   1.451   2.706   3.386  0.1062  0.6006  0.4418
    1SOL     OW 6905   4.318   2.886   2.771 -0.2811 -0.0382  0.1364
    1SOL    HW2 6906   4.345   2.796   2.791  2.2772  0.4019 -1.0711
    1SOL    HW3 6907   4.297   2.884   2.677  1.5466  0.9876 -0.3227
    1SOL    MW4 6908   4.319   2.874   2.761  0.2980  0.1550 -0.0834
    1SOL     OW 6909   1.821   3.001   4.214  0.1188 -0.1239 -0.1295
    1SOL    HW2 6910   1.860   2.914   4.204 -0.2395 -0.3165  0.1352
    1SOL    HW3 6911   1.896   3.060   4.219  0.4268 -0.6154  1.6264
    1SOL    MW4 6912   1.836   2.997   4.214  0.1121 -0.2143  0.1369
    1SOL     OW 6913   4.396   3.750   2.701 -0.6379 -0.1179 -0.1319
    1SOL    HW2 6914   4.393   3.658   2.725  0.1403 -0.1182 -0.0425
    1SOL    HW3 6915   4.484   3.764   2.666 -1.1166  0.3355 -1.1805
    1SOL    MW4 6916   4.407   3.740   2.700 -0.5984 -0.0582 -0.2582
    1SOL     OW 6917   0.174   3.370   3.266 -0.6925 -0.3994  0.1974
    1SOL    HW2 6918   0.101   3.430   3.251 -0.0687  0.9919  2.3922
    1SOL    HW3 6919   0.138   3.305   3.327 -0.4680 -0.4053  0.3245
    1SOL    MW4 6920   0.160   3.369   3.272 -0.5806 -0.2167  0.5038
    1SOL     OW 6921   2.769   1.945   3.376  0.3974  0.4642 -0.4235
    1SOL    HW2 6922   2.807   1.899   3.451  1.1050 -0.7635 -1.5107
    1SOL    HW3 6923   2.792   1.890   3.301 -1.5948  0.8939 -1.3593
    1SOL    MW4 6924   2.777   1.932   3.376  0.2282  0.3589 -0.6905
    1SOL     OW 6925   0.924   2.599   3.042 -0.3390  0.0351 -0.1863
    1SOL    HW2 6926   1.002   2.641   3.078  0.2177 -0.8875 -0.2803
    1SOL    HW3 6927   0.956   2.516   3.006 -1.2762 -0.1095 -0.7138
    1SOL    MW4 6928   0.938   2.593   3.042 -0.3893 -0.1054 -0.2682
    1SOL     OW 6929   4.363   4.196   3.130  0.1338 -0.2124  0.0648
    1SOL    HW2 6930   4.412   4.277   3.120 -1.2293  0.4508 -1.5628
    1SOL    HW3 6931   4.410   4.132   3.076  1.0595 -0.4425  1.1362
    1SOL    MW4 6932   4.375   4.199   3.121  0.0763 -0.1559 -0.0083
    1SOL     OW 6933   3.203   4.569   3.010 -0.0681  0.0977 -0.1403
    1SOL    HW2 6934   3.170   4.511   3.079  1.5176  1.2075  1.5721
    1SOL    HW3 6935   3.233   4.647   3.056 -0.8015  1.6870 -2.2890
    1SOL    MW4 6936   3.203   4.571   3.025  0.0441  0.4539 -0.1979
    1SOL     OW 6937   4.024   1.057   3.375 -0.2163  0.0663 -0.1777
    1SOL    HW2 6938   3.966   0.982   3.387  1.1755 -0.8325  1.1440
    1SOL    HW3 6939   4.065   1.042   3.290 -0.5739 -0.2375 -0.2967
    1SOL    MW4 6940   4.022   1.045   3.365 -0.0796 -0.0924 -0.0191
    1SOL     OW 6941   1.010   3.017   2.795  0.5029 -0.3476  0.2639
    1SOL    HW2 6942   0.955   3.081   2.751 -0.4403 -1.5153 -0.2954
    1SOL    HW3 6943   0.957   2.937   2.797  1.2064 -0.7997  1.9599
    1SOL    MW4 6944   0.996   3.015   2.790  0.4712 -0.5617  0.4139
    1SOL     OW 6945   4.299   2.047   3.859  0.0312  0.3553 -0.9438
    1SOL    HW2 6946   4.379   2.095   3.839  1.2656 -0.6641  1.3283
    1SOL    HW3 6947   4.317   1.958   3.830  0.1353 -0.1086  0.5230
    1SOL    MW4 6948   4.312   2.042   3.852  0.2079  0.1595 -0.4506
    1SOL     OW 6949   1.309   4.390   3.447 -0.5116  0.0342  0.4602
    1SOL    HW2 6950   1.309   4.320   3.513 -0.3857 -0.2961  0.1137
    1SOL    HW3 6951   1.357   4.462   3.489 -0.4179 -0.1794  0.7238
    1SOL    MW4 6952   1.315   4.390   3.461 -0.4827 -0.0381  0.4492
    1SOL     OW 6953   0.446   0.587   4.027 -0.0694 -0.6096 -0.1324
    1SOL    HW2 6954   0.384   0.601   3.956 -0.6347 -2.1681  0.0331
    1SOL    HW3 6955   0.529   0.619   3.993 -1.1674  2.5965  0.0691
    1SOL    MW4 6956   0.449   0.593   4.013 -0.2888 -0.3921 -0.0844
    1SOL     OW 6957   1.028   3.664   3.389  0.4082 -0.3596 -0.1568
    1SOL    HW2 6958   1.079   3.742   3.408 -0.2652  0.9455 -3.4877
    1SOL    HW3 6959   0.937   3.690   3.403  0.3323 -1.5711  1.9557
    1SOL    MW4 6960   1.023   3.677   3.393  0.3093 -0.3474 -0.3176
    1SOL     OW 6961   2.049   1.283   2.893  0.5088  0.3479  0.0746
    1SOL    HW2 6962   2.124   1.249   2.845 -0.4988 -1.0232 -0.5475
    1SOL    HW3 6963   1.973   1.262   2.838 -0.2519  2.6460  0.1881
    1SOL    MW4 6964   2.049   1.276   2.879  0.2756  0.4703  0.0076
    1SOL     OW 6965   1.435   0.572   3.419 -0.1860 -0.1083 -0.3462
    1SOL    HW2 6966   1.508   0.553   3.359  0.8019 -1.0426  1.1145
    1SOL    HW3 6967   1.478   0.593   3.502 -1.5896 -0.4815  0.4813
    1SOL    MW4 6968   1.451   0.572   3.422 -0.2409 -0.2807 -0.0443
    1SOL     OW 6969   3.906   4.218   4.260  0.1521  0.0708  0.2414
    1SOL    HW2 6970   3.850   4.274   4.206  1.0683 -0.0998 -0.9019
    1SOL    HW3 6971   3.935   4.275   4.331  0.0039  0.6710 -0.1722
    1SOL    MW4 6972   3.902   4.233   4.262  0.2534  0.1268  0.0353
    1SOL     OW 6973   1.126   0.656   3.710 -0.5171 -0.3578  0.0902
    1SOL    HW2 6974   1.109   0.693   3.623  0.9986  1.9084  0.7184
    1SOL    HW3 6975   1.173   0.574   3.693 -1.6659 -0.7638 -1.2572
    1SOL    MW4 6976   1.130   0.650   3.696 -0.4689 -0.1124 -0.0043
    1SOL     OW 6977   4.344   1.118   3.039  0.3196  0.2107 -0.7120
    1SOL    HW2 6978   4.404   1.058   3.084 -0.5567  0.0108  0.2171
    1SOL    HW3 6979   4.382   1.205   3.052 -0.7886  0.3465  1.8886
    1SOL    MW4 6980   4.357   1.122   3.047  0.0577  0.2022 -0.2463
    1SOL     OW 6981   0.753   2.015   3.854 -0.0311  0.0376  0.2466
    1SOL    HW2 6982   0.693   2.039   3.924 -0.5440 -0.1948 -0.1116
    1SOL    HW3 6983   0.704   2.030   3.773 -0.0751 -1.3603 -0.0098
    1SOL    MW4 6984   0.739   2.020   3.853 -0.1045 -0.1774  0.1655
    1SOL     OW 6985   1.184   0.464   1.411 -0.0744 -0.0840  0.0954
    1SOL    HW2 6986   1.110   0.498   1.361  0.1434  0.4451  0.1205
    1SOL    HW3 6987   1.145   0.415   1.483 -0.4198  1.0733  0.7074
    1SOL    MW4 6988   1.169   0.462   1.414 -0.0912  0.1385  0.1794
    1SOL     OW 6989   1.576   2.971   4.863  0.4589 -0.0792  0.1645
    1SOL    HW2 6990   1.493   2.930   4.840  1.3508 -1.6895 -0.2691
    1SOL    HW3 6991   1.610   2.919   4.936  0.2791  1.6400  1.5159
    1SOL    MW4 6992   1.570   2.959   4.869  0.5529 -0.0651  0.2856
    1SOL     OW 6993   1.815   1.808   2.314  0.3142 -0.5348 -0.2462
    1SOL    HW2 6994   1.863   1.864   2.375  0.2564 -0.0162 -0.6805
    1SOL    HW3 6995   1.732   1.853   2.299  1.1557  0.3859 -2.3167
    1SOL    MW4 6996   1.810   1.821   2.320  0.4176 -0.3450 -0.5767
    1SOL     OW 6997   0.668   0.997   3.118  0.1517 -0.3149 -0.6484
    1SOL    HW2 6998   0.757   0.967   3.136  0.5883  0.3292 -1.7176
    1SOL    HW3 6999   0.656   0.985   3.024 -0.1305  1.6138 -0.8746
    1SOL    MW4 7000   0.678   0.991   3.108  0.1721  0.0246 -0.8194
    1SOL     OW 7001   0.718   3.236   3.775 -0.2357  0.2063 -0.5003
    1SOL    HW2 7002   0.785   3.300   3.750  0.1274  0.1929  0.3881
    1SOL    HW3 7003   0.679   3.208   3.693 -0.6287  1.8116 -0.8680
    1SOL    MW4 7004   0.722   3.240   3.761 -0.2396  0.4160 -0.4313
    1SOL     OW 7005   2.801   3.126   2.485 -0.2324  0.7307 -0.5033
    1SOL    HW2 7006   2.790   3.220   2.479  2.5832  1.2886  2.1650
    1SOL    HW3 7007   2.734   3.097   2.546 -0.4253  1.1552 -0.5175
    1SOL    MW4 7008   2.791   3.134   2.492  0.1135  0.8605 -0.1533
    1SOL     OW 7009   0.267   1.659   2.814  0.4189 -0.0651 -0.2866
    1SOL    HW2 7010   0.195   1.691   2.868  0.4215 -1.5942  0.6334
    1SOL    HW3 7011   0.339   1.644   2.875  0.6622 -1.1026 -0.8151
    1SOL    MW4 7012   0.267   1.662   2.829  0.4513 -0.4036 -0.2348
    1SOL     OW 7013   2.299   2.252   2.945 -0.1122 -0.6045  0.7660
    1SOL    HW2 7014   2.300   2.217   2.856 -0.4750 -1.7096  1.1971
    1SOL    HW3 7015   2.210   2.238   2.976 -0.0520 -0.0072  1.2301
    1SOL    MW4 7016   2.288   2.246   2.937 -0.1521 -0.6716  0.8845
    1SOL     OW 7017   0.659   3.175   3.499 -0.2714 -0.0058  0.3162
    1SOL    HW2 7018   0.632   3.217   3.417 -0.4791 -0.1363  0.3161
    1SOL    HW3 7019   0.754   3.176   3.496 -0.2021  3.0734  1.6215
    1SOL    MW4 7020   0.668   3.181   3.488 -0.2897  0.3834  0.4883
    1SOL     OW 7021   1.116   3.429   3.485  0.0198 -0.1461  0.0305
    1SOL    HW2 7022   1.053   3.365   3.452  0.2022 -0.3997  0.1681
    1SOL    HW3 7023   1.080   3.514   3.460 -0.5513 -0.2745  0.4099
    1SOL    MW4 7024   1.103   3.432   3.478 -0.0317 -0.1965  0.0987
    1SOL     OW 7025   0.551   3.149   3.992 -0.0978  0.4837 -0.2062
    1SOL    HW2 7026   0.496   3.117   3.920 -0.4148  1.9658 -0.6224
    1SOL    HW3 7027   0.615   3.206   3.951  1.0615 -0.3352  0.4338
    1SOL    MW4 7028   0.552   3.152   3.977  0.0134  0.5710 -0.1769
    1SOL     OW 7029   4.254   3.612   3.557 -0.0667 -0.2161 -0.3682
    1SOL    HW2 7030   4.165   3.604   3.591  0.0545 -1.2647 -0.2677
    1SOL    HW3 7031   4.248   3.678   3.488 -0.8287  0.0632 -0.0313
    1SOL    MW4 7032   4.241   3.620   3.552 -0.1507 -0.3178 -0.3104
    1SOL     OW 7033   2.496   3.767   3.584 -0.1483  0.0083  0.2707
    1SOL    HW2 7034   2.403   3.749   3.600 -0.1567  0.5596  0.8309
    1SOL    HW3 7035   2.541   3.721   3.654  0.1203 -1.6324 -0.9245
    1SOL    MW4 7036   2.489   3.758   3.595 -0.1140 -0.1357  0.1867
    1SOL     OW 7037   0.526   4.592   3.399 -0.0170 -0.2247  0.5335
    1SOL    HW2 7038   0.569   4.519   3.443  0.2141 -0.3723  0.0671
    1SOL    HW3 7039   0.446   4.553   3.361 -0.7064  0.1046  1.6276
    1SOL    MW4 7040   0.521   4.577   3.400 -0.0775 -0.2007  0.6163
    1SOL     OW 7041   1.889   4.532   2.699  0.2541 -0.2381 -0.3192
    1SOL    HW2 7042   1.964   4.517   2.757 -0.9589 -1.2648  1.0183
    1SOL    HW3 7043   1.854   4.445   2.682 -1.2167  0.3004 -0.1390
    1SOL    MW4 7044   1.894   4.519   2.704 -0.1001 -0.3023 -0.1190
    1SOL     OW 7045   0.710   4.185   1.893 -0.0513 -0.1609  0.1806
    1SOL    HW2 7046   0.751   4.269   1.872 -0.8226 -0.4183 -2.5957
    1SOL    HW3 7047   0.783   4.125   1.907  0.5122  0.3299 -0.6157
    1SOL    MW4 7048   0.725   4.188   1.892 -0.0787 -0.1302 -0.2906
    1SOL     OW 7049   1.542   4.242   3.384 -0.4130  0.1160 -0.2733
    1SOL    HW2 7050   1.574   4.236   3.474 -0.2526 -1.4295 -0.4159
    1SOL    HW3 7051   1.463   4.295   3.389 -0.9795 -0.8187  0.9505
    1SOL    MW4 7052   1.536   4.248   3.396 -0.4665 -0.2122 -0.1304
    1SOL     OW 7053   0.606   0.890   4.168 -0.4492  0.0940 -0.1205
    1SOL    HW2 7054   0.620   0.847   4.084 -2.8749 -0.7768 -0.1174
    1SOL    HW3 7055   0.516   0.869   4.191  0.0152  0.7242  2.4771
    1SOL    MW4 7056   0.596   0.881   4.160 -0.7080  0.0622  0.2227
    1SOL     OW 7057   0.881   2.830   3.930  0.0868  0.0156  0.2696
    1SOL    HW2 7058   0.884   2.735   3.918  0.1547 -0.0731  0.9901
    1SOL    HW3 7059   0.799   2.846   3.978  0.0327  0.3298  0.0770
    1SOL    MW4 7060   0.871   2.820   3.935  0.0886  0.0453  0.3390
    1SOL     OW 7061   1.974   2.004   2.454  0.4203 -0.2110 -0.3240
    1SOL    HW2 7062   1.921   2.081   2.471 -0.5293 -1.2304  1.4369
    1SOL    HW3 7063   2.052   2.038   2.411 -0.0784  1.7006  0.2235
    1SOL    MW4 7064   1.977   2.018   2.450  0.2292 -0.0932 -0.0193
    1SOL     OW 7065   2.008   2.862   3.705  0.2065 -0.5134  0.1499
    1SOL    HW2 7066   2.072   2.801   3.741 -1.0432 -1.8214  0.2044
    1SOL    HW3 7067   2.008   2.936   3.765  0.5225 -1.2215  1.0256
    1SOL    MW4 7068   2.016   2.864   3.717  0.0834 -0.7794  0.2728
    1SOL     OW 7069   1.800   0.172   4.024 -0.1192 -0.0176 -0.9044
    1SOL    HW2 7070   1.857   0.244   4.050 -1.6757  0.4900  1.1694
    1SOL    HW3 7071   1.841   0.137   3.944  1.0537  2.6462 -1.5172
    1SOL    MW4 7072   1.813   0.177   4.017 -0.1698  0.4009 -0.7124
    1SOL     OW 7073   1.016   1.233   3.091  0.0891 -0.0357 -0.1967
    1SOL    HW2 7074   0.990   1.191   3.174  0.1690  0.3790  0.0378
    1SOL    HW3 7075   1.093   1.184   3.063  0.3079  0.0873  0.1872
    1SOL    MW4 7076   1.022   1.221   3.098  0.1285  0.0354 -0.1152
    1SOL     OW 7077   0.985   1.600   3.811  0.4315 -0.3793  0.2409
    1SOL    HW2 7078   1.042   1.675   3.793 -1.2263  1.0448  0.6478
    1SOL    HW3 7079   1.003   1.538   3.741  2.7892 -0.1703  0.6419
    1SOL    MW4 7080   0.995   1.602   3.799  0.5239 -0.1639  0.3476
    1SOL     OW 7081   3.352   2.279   3.997  0.5134  0.7147 -0.1256
    1SOL    HW2 7082   3.354   2.356   4.053  0.9680  1.1578 -0.7392
    1SOL    HW3 7083   3.363   2.205   4.057 -2.0097  0.9868  0.7026
    1SOL    MW4 7084   3.354   2.279   4.012  0.2406  0.8087 -0.0973
    1SOL     OW 7085   0.502   3.461   3.956  0.3196  0.3589 -0.1541
    1SOL    HW2 7086   0.483   3.383   3.904 -0.7117 -0.4297  1.3600
    1SOL    HW3 7087   0.594   3.479   3.939  0.4148 -0.8357 -1.0004
    1SOL    MW4 7088   0.511   3.453   3.947  0.1961  0.0973 -0.0658
    1SOL     OW 7089   0.738   1.740   3.904 -0.0174 -0.9452  0.3584
    1SOL    HW2 7090   0.804   1.680   3.868  0.9358 -0.4081  1.1945
    1SOL    HW3 7091   0.765   1.826   3.874 -0.3084 -0.7108  0.7646
    1SOL    MW4 7092   0.750   1.743   3.895  0.0700 -0.8434  0.5224
    1SOL     OW 7093   3.004   2.849   3.582 -0.4029  0.7052 -0.2716
    1SOL    HW2 7094   3.057   2.804   3.648 -1.4570 -2.5672 -1.5326
    1SOL    HW3 7095   2.914   2.841   3.614 -0.7214  0.8103 -1.1298
    1SOL    MW4 7096   2.999   2.842   3.595 -0.5841  0.2873 -0.5510
    1SOL     OW 7097   1.800   1.831   1.869  0.1000  0.3577  0.0853
    1SOL    HW2 7098   1.867   1.835   1.938  1.5503 -0.8842 -1.2137
    1SOL    HW3 7099   1.839   1.874   1.794 -1.0086  0.6066 -0.3656
    1SOL    MW4 7100   1.814   1.837   1.868  0.1451  0.2266 -0.1457
    1SOL     OW 7101   1.397   3.199   3.160 -0.3680 -0.2313  0.4074
    1SOL    HW2 7102   1.390   3.191   3.255 -0.7217 -1.8960  0.2551
    1SOL    HW3 7103   1.319   3.156   3.127  0.0597 -0.2019 -0.6515
    1SOL    MW4 7104   1.386   3.192   3.168 -0.3582 -0.4473  0.2475
    1SOL     OW 7105   0.709   2.373   3.431  0.1854 -0.3021 -0.2028
    1SOL    HW2 7106   0.708   2.429   3.353  0.2163  0.4043  0.3000
    1SOL    HW3 7107   0.617   2.360   3.453  0.1237 -1.7037 -1.2006
    1SOL    MW4 7108   0.697   2.378   3.424  0.1813 -0.3936 -0.2682
    1SOL     OW 7109   1.512   3.071   2.739  0.1244  0.2675 -0.0082
    1SOL    HW2 7110   1.418   3.067   2.725  0.2741 -0.0006 -0.9663
    1SOL    HW3 7111   1.525   3.039   2.829 -0.6319 -0.3243 -0.1115
    1SOL    MW4 7112   1.502   3.066   2.749  0.0443  0.1538 -0.1481
    1SOL     OW 7113   1.721   3.254   3.429  0.0034 -0.0293  0.0084
    1SOL    HW2 7114   1.748   3.220   3.343  2.4617  0.4327  0.5481
    1SOL    HW3 7115   1.681   3.339   3.411 -1.0754 -0.7018 -0.8227
    1SOL    MW4 7116   1.720   3.261   3.415  0.1854 -0.0570 -0.0303
    1SOL     OW 7117   1.523   1.004   3.674 -0.4891 -0.1771 -0.1742
    1SOL    HW2 7118   1.617   1.000   3.689 -0.6113 -1.2330  0.3529
    1SOL    HW3 7119   1.513   1.005   3.579 -0.0127 -2.2662 -0.2675
    1SOL    MW4 7120   1.534   1.004   3.664 -0.4424 -0.5919 -0.1173
    1SOL     OW 7121   2.219   3.665   3.677 -0.3458  0.0384  0.4701
    1SOL    HW2 7122   2.203   3.713   3.758  0.4269  0.2535  0.5015
    1SOL    HW3 7123   2.269   3.588   3.703 -0.4445 -0.1038  0.2473
    1SOL    MW4 7124   2.224   3.661   3.691 -0.2570  0.0482  0.4449
    1SOL     OW 7125   2.524   3.998   2.030 -0.1385 -0.4367  0.1496
    1SOL    HW2 7126   2.613   3.966   2.042  0.2031  1.0827  1.9898
    1SOL    HW3 7127   2.515   4.012   1.936  1.2610 -1.4442 -0.1361
    1SOL    MW4 7128   2.534   3.996   2.019  0.0911 -0.3693  0.3543
    1SOL     OW 7129   0.866   0.213   2.374  0.3996  0.1356  0.1619
    1SOL    HW2 7130   0.953   0.222   2.413 -0.2042 -0.6201  1.7455
    1SOL    HW3 7131   0.808   0.205   2.449 -0.8946 -0.6063 -0.9102
    1SOL    MW4 7132   0.870   0.213   2.389  0.1491 -0.0620  0.2294
    1SOL     OW 7133   1.906   1.589   3.570 -0.2254 -0.0121 -0.1204
    1SOL    HW2 7134   1.920   1.521   3.504  1.0108  0.7928 -0.6916
    1SOL    HW3 7135   1.950   1.556   3.648 -2.4375 -1.3803  0.6179
    1SOL    MW4 7136   1.913   1.575   3.571 -0.3542 -0.0865 -0.0985
    1SOL     OW 7137   1.954   4.156   3.227 -0.1733 -0.1902 -0.0019
    1SOL    HW2 7138   1.942   4.169   3.321 -0.7416  0.6457 -0.1795
    1SOL    HW3 7139   1.892   4.086   3.205 -1.3707  0.8711 -0.0688
    1SOL    MW4 7140   1.944   4.148   3.236 -0.4063  0.0601 -0.0341
    1SOL     OW 7141   0.947   0.000   3.255  0.2237 -0.6383 -0.8375
    1SOL    HW2 7142   0.964  -0.089   3.285 -2.2229 -1.3106 -1.3410
    1SOL    HW3 7143   0.884  -0.010   3.184 -2.4445  1.6621  1.0979
    1SOL    MW4 7144   0.941  -0.013   3.250 -0.4512 -0.4239 -0.6485
    1SOL     OW 7145   3.070   4.518   2.381 -0.1861  0.1986 -0.1348
    1SOL    HW2 7146   3.088   4.431   2.345 -2.0102  0.4199 -1.6001
    1SOL    HW3 7147   2.975   4.527   2.379 -0.0464  2.1240  0.2655
    1SOL    MW4 7148   3.060   4.508   2.376 -0.4084  0.4821 -0.2751
    1SOL     OW 7149   1.337   0.247   2.887  0.8427 -0.3375  0.0779
    1SOL    HW2 7150   1.361   0.335   2.858  2.4029 -0.9977 -0.6825
    1SOL    HW3 7151   1.410   0.220   2.944  0.6721 -1.3784 -0.1842
    1SOL    MW4 7152   1.350   0.255   2.891  1.0260 -0.5619 -0.0570
    1SOL     OW 7153   2.384   1.453   4.182 -0.1440  0.2272  0.7067
    1SOL    HW2 7154   2.406   1.402   4.105  1.5514 -0.8608  1.8862
    1SOL    HW3 7155   2.399   1.544   4.156  0.6478 -0.1472 -0.1766
    1SOL    MW4 7156   2.389   1.459   4.169  0.1841  0.0343  0.7467
    1SOL     OW 7157   2.001   1.927   3.125 -0.4653  0.0153 -0.0167
    1SOL    HW2 7158   2.010   2.020   3.105 -1.3419  0.2949  0.8100
    1SOL    HW3 7159   1.909   1.908   3.107 -0.3678 -0.6076  0.1524
    1SOL    MW4 7160   1.990   1.937   3.120 -0.5679 -0.0299  0.1149
    1SOL     OW 7161   1.556   1.211   4.120 -0.1505  0.0174 -0.4118
    1SOL    HW2 7162   1.474   1.215   4.169  0.2248  0.1491  0.2018
    1SOL    HW3 7163   1.530   1.223   4.028 -0.6463  1.5128 -0.0759
    1SOL    MW4 7164   1.542   1.213   4.114 -0.1664  0.2321 -0.2866
    1SOL     OW 7165   2.169   0.810   2.520  0.4196  0.6633 -0.0932
    1SOL    HW2 7166   2.098   0.847   2.468 -0.4724  1.0682  1.3628
    1SOL    HW3 7167   2.248   0.826   2.469 -0.2363  2.5169 -0.5584
    1SOL    MW4 7168   2.170   0.817   2.507  0.2153  0.9612  0.0377
    1SOL     OW 7169   1.328   1.950   2.248 -0.0472  0.1848 -0.3949
    1SOL    HW2 7170   1.418   1.924   2.267 -0.1446 -1.1808 -1.7415
    1SOL    HW3 7171   1.322   2.040   2.282  1.6378  0.0868  0.2257
    1SOL    MW4 7172   1.339   1.959   2.255  0.1622 -0.0083 -0.4907
    1SOL     OW 7173   1.404   1.545   3.082 -0.0474  0.3865 -0.2405
    1SOL    HW2 7174   1.334   1.605   3.057  0.6388  1.0622 -0.5540
    1SOL    HW3 7175   1.453   1.592   3.150  1.9482  1.1950 -2.1806
    1SOL    MW4 7176   1.401   1.559   3.088  0.3064  0.5825 -0.5379
    1SOL     OW 7177   0.384   0.844   2.958 -0.1343 -0.3971  0.0520
    1SOL    HW2 7178   0.321   0.913   2.979  0.1015 -0.4595  0.9808
    1SOL    HW3 7179   0.332   0.778   2.911 -0.7317 -0.3785  0.6785
    1SOL    MW4 7180   0.369   0.844   2.955 -0.1820 -0.4029  0.2573
    1SOL     OW 7181   1.582   2.195   3.056 -0.2625 -0.0532  0.2622
    1SOL    HW2 7182   1.624   2.156   3.133  0.9430 -1.7288 -1.2142
    1SOL    HW3 7183   1.655   2.229   3.004 -1.1297  1.8166  0.2269
    1SOL    MW4 7184   1.597   2.194   3.059 -0.2179 -0.0274  0.0629
    1SOL     OW 7185   2.708   2.377   3.010 -0.1659  0.1285  0.6580
    1SOL    HW2 7186   2.629   2.362   3.062 -0.1099 -0.5613  0.5497
    1SOL    HW3 7187   2.751   2.451   3.052 -0.1193 -0.4179  1.5909
    1SOL    MW4 7188   2.703   2.385   3.022 -0.1521 -0.0346  0.7670
    1SOL     OW 7189   1.053   3.309   2.444 -0.1456  0.2668  0.2941
    1SOL    HW2 7190   0.992   3.369   2.401  0.1170 -0.2403 -0.8196
    1SOL    HW3 7191   1.129   3.364   2.466 -0.1181  0.4620 -0.2646
    1SOL    MW4 7192   1.055   3.324   2.441 -0.1073  0.2258  0.0734
    1SOL     OW 7193   1.553   1.980   3.288  0.4240  0.5422  0.1118
    1SOL    HW2 7194   1.635   2.027   3.298  0.5898  0.4614 -0.8656
    1SOL    HW3 7195   1.491   2.028   3.342 -0.1073  3.5771 -3.0574
    1SOL    MW4 7196   1.556   1.992   3.297  0.3757  0.9320 -0.4354
    1SOL     OW 7197   1.576   3.611   3.107 -0.2039 -0.4437 -0.1366
    1SOL    HW2 7198   1.624   3.554   3.047 -0.1122 -0.3275 -0.1745
    1SOL    HW3 7199   1.484   3.586   3.096 -0.1889 -0.4076 -0.3431
    1SOL    MW4 7200   1.570   3.600   3.098 -0.1899 -0.4237 -0.1688
    1SOL     OW 7201   2.406   4.351   4.141  0.5670  0.3603  0.5102
    1SOL    HW2 7202   2.472   4.339   4.209  1.1619  0.2208 -0.0928
    1SOL    HW3 7203   2.456   4.360   4.060 -0.2216 -1.1903 -0.1534
    1SOL    MW4 7204   2.421   4.351   4.139  0.5414  0.1373  0.3433
    1SOL     OW 7205   2.012   2.821   2.186  0.2360 -0.2435  0.3347
    1SOL    HW2 7206   2.035   2.733   2.159  0.1819  0.0711 -0.7697
    1SOL    HW3 7207   1.933   2.811   2.238 -0.5319 -0.7146 -0.9153
    1SOL    MW4 7208   2.005   2.808   2.189  0.1276 -0.2642  0.0243
    1SOL     OW 7209   1.229   1.781   3.051  0.1282  0.5711  0.4380
    1SOL    HW2 7210   1.294   1.851   3.045 -0.8433  1.3856 -0.9360
    1SOL    HW3 7211   1.191   1.776   2.963 -0.7593 -0.7633  0.8861
    1SOL    MW4 7212   1.233   1.790   3.039 -0.1172  0.5023  0.3159
    1SOL     OW 7213   3.139   1.033   3.576  0.2598 -0.6500  0.2245
    1SOL    HW2 7214   3.152   1.017   3.483 -1.4002 -1.7751  0.1635
    1SOL    HW3 7215   3.067   1.097   3.579 -0.5206 -1.5346  0.7480
    1SOL    MW4 7216   3.131   1.040   3.564 -0.0620 -0.9151  0.2859
    1SOL     OW 7217   2.568   2.396   2.613 -0.4124  0.4797 -0.0903
    1SOL    HW2 7218   2.635   2.458   2.584 -0.2673 -0.5825 -2.0789
    1SOL    HW3 7219   2.613   2.340   2.675  0.2400  0.4986 -0.5405
    1SOL    MW4 7220   2.583   2.397   2.617 -0.3073  0.3419 -0.4122
    1SOL     OW 7221   1.738   3.503   2.640 -0.4963 -0.3377 -0.4091
    1SOL    HW2 7222   1.727   3.409   2.628 -1.1473 -0.5008  1.3647
    1SOL    HW3 7223   1.832   3.517   2.629 -0.4543 -1.1316 -1.0993
    1SOL    MW4 7224   1.749   3.493   2.637 -0.5767 -0.4640 -0.2663
    1SOL     OW 7225   2.365   0.227   1.380 -0.0242  0.4557 -0.6248
    1SOL    HW2 7226   2.343   0.307   1.427 -0.4890  0.9304 -1.6356
    1SOL    HW3 7227   2.388   0.256   1.292  1.9840 -0.3106 -0.3873
    1SOL    MW4 7228   2.365   0.241   1.375  0.1795  0.4173 -0.7269
    1SOL     OW 7229   2.722   3.509   1.429  0.4737 -0.1372  0.0765
    1SOL    HW2 7230   2.657   3.526   1.360 -0.0956  0.2613  0.6990
    1SOL    HW3 7231   2.768   3.593   1.438 -0.6455  0.3458  1.4074
    1SOL    MW4 7232   2.719   3.523   1.421  0.2511 -0.0207  0.3341
    1SOL     OW 7233   2.383   1.737   3.401  0.3706  0.0969  0.0214
    1SOL    HW2 7234   2.369   1.830   3.380 -0.4870  0.0253  0.2648
    1SOL    HW3 7235   2.433   1.703   3.327 -0.4060  0.4515 -0.6691
    1SOL    MW4 7236   2.388   1.745   3.389  0.1550  0.1342 -0.0377
    1SOL     OW 7237   0.798   0.771   3.380 -0.5832 -0.4542  0.1360
    1SOL    HW2 7238   0.706   0.795   3.394 -0.1202 -0.1570  2.8125
    1SOL    HW3 7239   0.800   0.676   3.393 -0.7033 -0.6394 -1.1131
    1SOL    MW4 7240   0.786   0.761   3.383 -0.5380 -0.4395  0.3242
    1SOL     OW 7241   2.260   4.420   4.645  0.2201  0.1587 -0.2721
    1SOL    HW2 7242   2.293   4.481   4.711  1.8991 -1.0284  0.0154
    1SOL    HW3 7243   2.208   4.474   4.586  1.1421  1.7452  0.3465
    1SOL    MW4 7244   2.257   4.435   4.646  0.5634  0.2108 -0.1526
    1SOL     OW 7245   2.191   0.486   2.818  0.0351  0.2602  0.4842
    1SOL    HW2 7246   2.202   0.496   2.723 -0.1403 -0.9255  0.3339
    1SOL    HW3 7247   2.231   0.565   2.854  1.0283  0.2408 -0.5276
    1SOL    MW4 7248   2.198   0.498   2.810  0.1431  0.1012  0.3309
    1SOL     OW 7249   2.080   3.437   1.454 -0.3385  0.3839 -0.1800
    1SOL    HW2 7250   2.106   3.394   1.535 -0.7067  1.0601  0.3032
    1SOL    HW3 7251   2.088   3.369   1.387 -0.8365 -0.4091  0.5572
    1SOL    MW4 7252   2.085   3.423   1.456 -0.4530  0.3686 -0.0190
    1SOL     OW 7253   1.664   1.055   2.809 -0.4151  0.0540 -0.1588
    1SOL    HW2 7254   1.593   1.001   2.774 -0.1314  0.6832 -1.7680
    1SOL    HW3 7255   1.621   1.117   2.868 -1.1626  0.1956 -0.8414
    1SOL    MW4 7256   1.649   1.056   2.812 -0.4764  0.1558 -0.4611
    1SOL     OW 7257   2.560   0.213   1.583  0.0942 -0.0644  0.0201
    1SOL    HW2 7258   2.537   0.125   1.612  2.0889 -0.4132  0.6457
    1SOL    HW3 7259   2.521   0.221   1.496 -1.0634 -1.1379  0.4387
    1SOL    MW4 7260   2.552   0.203   1.575  0.2048 -0.2521  0.1580
    1SOL     OW 7261   1.938   4.181   3.493 -0.1450 -0.8055 -0.4324
    1SOL    HW2 7262   1.944   4.274   3.513 -0.7862 -0.5373 -1.4669
    1SOL    HW3 7263   1.858   4.152   3.538  0.3365 -0.9785  0.3247
    1SOL    MW4 7264   1.928   4.189   3.502 -0.1661 -0.7930 -0.4690
    1SOL     OW 7265   2.170   0.908   2.776 -0.2628 -0.5780 -1.0897
    1SOL    HW2 7266   2.159   0.875   2.687 -0.9937 -1.5192 -0.6572
    1SOL    HW3 7267   2.082   0.910   2.812  0.2039 -1.7572  0.1550
    1SOL    MW4 7268   2.157   0.904   2.769 -0.2978 -0.8578 -0.8686
    1SOL     OW 7269   0.750   1.506   3.272 -0.3223  0.0985 -0.0350
    1SOL    HW2 7270   0.702   1.532   3.351  0.2178 -2.0812  1.0350
    1SOL    HW3 7271   0.690   1.447   3.227  0.6532 -1.2360  0.4090
    1SOL    MW4 7272   0.736   1.502   3.277 -0.1224 -0.3650  0.1647
    1SOL     OW 7273   2.471   2.909   2.319  0.4995  0.5386  0.0747
    1SOL    HW2 7274   2.563   2.930   2.299  0.8815  0.6531  1.8845
    1SOL    HW3 7275   2.429   2.995   2.325  0.6351  0.5540  0.8696
    1SOL    MW4 7276   2.478   2.923   2.317  0.5677  0.5560  0.4182
    1SOL     OW 7277   1.459   4.599   3.560  0.3133 -0.4288  0.1087
    1SOL    HW2 7278   1.403   4.672   3.535  0.7260 -0.3011 -0.4617
    1SOL    HW3 7279   1.461   4.601   3.656  1.5818  1.2588  0.0687
    1SOL    MW4 7280   1.452   4.609   3.569  0.5351 -0.1893  0.0279
    1SOL     OW 7281   1.846   1.253   2.690  0.0752  0.1869  1.0008
    1SOL    HW2 7282   1.822   1.345   2.675 -0.8192 -0.0745  0.7804
    1SOL    HW3 7283   1.764   1.211   2.715  0.6594 -0.3686  2.0234
    1SOL    MW4 7284   1.832   1.260   2.691  0.0342  0.0790  1.1065
    1SOL     OW 7285   2.978   1.509   2.930 -0.0690 -0.3126 -0.2180
    1SOL    HW2 7286   3.023   1.591   2.948 -1.2037  0.2602  0.0385
    1SOL    HW3 7287   3.041   1.458   2.879  0.7072  0.6418 -0.2295
    1SOL    MW4 7288   2.992   1.513   2.926 -0.1163 -0.1112 -0.1855
    1SOL     OW 7289   1.905   2.719   3.296  0.2829 -0.2686  0.4011
    1SOL    HW2 7290   1.941   2.665   3.366  0.9242 -1.1162 -0.5674
    1SOL    HW3 7291   1.972   2.717   3.227 -1.0509 -0.8331 -0.9108
    1SOL    MW4 7292   1.919   2.712   3.296  0.1915 -0.4549  0.1001
    1SOL     OW 7293   3.955   3.147   0.901 -0.1895  0.2589  0.4263
    1SOL    HW2 7294   4.010   3.176   0.828 -1.2039 -0.2422 -0.5616
    1SOL    HW3 7295   3.930   3.227   0.947  0.4472  0.5800  0.2052
    1SOL    MW4 7296   3.959   3.161   0.897 -0.2394  0.2351  0.2668
    1SOL     OW 7297   3.777   4.153   2.690 -0.0188  0.0652 -0.2826
    1SOL    HW2 7298   3.753   4.244   2.708  1.2245  0.1446  1.0516
    1SOL    HW3 7299   3.859   4.159   2.642  0.4542 -0.3857  0.4770
    1SOL    MW4 7300   3.784   4.166   2.686  0.2074  0.0162 -0.0062
    1SOL     OW 7301   2.147   3.787   3.194  0.1947  0.4700  0.6429
    1SOL    HW2 7302   2.060   3.779   3.234  0.2043  2.2663  1.0781
    1SOL    HW3 7303   2.198   3.836   3.258  1.2249  0.3524 -0.0806
    1SOL    MW4 7304   2.142   3.792   3.208  0.3319  0.6917  0.6051
    1SOL     OW 7305   1.673   2.859   3.725 -0.0725 -0.0243 -0.5037
    1SOL    HW2 7306   1.584   2.863   3.761  0.2387 -0.6639  0.3557
    1SOL    HW3 7307   1.697   2.950   3.707 -0.4813  0.2359  0.2893
    1SOL    MW4 7308   1.664   2.871   3.727 -0.0854 -0.0744 -0.2859
    1SOL     OW 7309   1.754   2.147   3.277  0.0828 -0.2755  0.2267
    1SOL    HW2 7310   1.849   2.147   3.284  0.0266  0.0592  1.0769
    1SOL    HW3 7311   1.727   2.231   3.315 -0.5628 -0.4807  0.2342
    1SOL    MW4 7312   1.763   2.158   3.283 -0.0099 -0.2584  0.3397
    1SOL     OW 7313   2.489   3.269   3.024 -0.5291  0.1378  0.0487
    1SOL    HW2 7314   2.455   3.190   2.983 -0.2719 -0.0154  0.1352
    1SOL    HW3 7315   2.425   3.337   3.001  0.1939  0.2883 -1.5320
    1SOL    MW4 7316   2.476   3.268   3.016 -0.3996  0.1373 -0.1483
    1SOL     OW 7317   2.227   1.776   3.022  0.0037 -0.2224  0.2704
    1SOL    HW2 7318   2.136   1.805   3.023 -0.0432 -0.3787  1.9787
    1SOL    HW3 7319   2.277   1.856   3.038  0.2096 -0.0681 -1.0445
    1SOL    MW4 7320   2.221   1.791   3.024  0.0246 -0.2228  0.3221
    1SOL     OW 7321   2.425   3.509   4.311 -0.2996 -0.6322 -0.0694
    1SOL    HW2 7322   2.338   3.487   4.278 -0.6707  0.8122 -0.0882
    1SOL    HW3 7323   2.410   3.544   4.398  0.1174  0.8668 -0.5825
    1SOL    MW4 7324   2.412   3.511   4.318 -0.2935 -0.2439 -0.1392
    1SOL     OW 7325   0.903   0.038   2.800 -0.0615  0.5996 -0.0601
    1SOL    HW2 7326   0.953   0.118   2.816 -1.1170  1.6434 -1.8035
    1SOL    HW3 7327   0.960  -0.014   2.744  0.5954  0.1423  1.0122
    1SOL    MW4 7328   0.917   0.042   2.795 -0.1141  0.6771 -0.1488
    1SOL     OW 7329   0.747   0.483   2.709  0.1406  0.6947  0.3655
    1SOL    HW2 7330   0.830   0.505   2.752  0.6390  0.6682 -0.5716
    1SOL    HW3 7331   0.754   0.524   2.622 -1.5410  2.1611  0.9128
    1SOL    MW4 7332   0.759   0.491   2.703 -0.0155  0.8847  0.3142
    1SOL     OW 7333   2.135   4.616   4.470  0.2567  0.2692 -0.2631
    1SOL    HW2 7334   2.203   4.603   4.404 -0.5153  2.0995 -1.4738
    1SOL    HW3 7335   2.112   4.709   4.463 -1.6520 -0.0834  0.8237
    1SOL    MW4 7336   2.141   4.627   4.460 -0.0968  0.4644 -0.2799
    1SOL     OW 7337   1.226   0.582   3.041  0.0580  0.4303 -0.4723
    1SOL    HW2 7338   1.299   0.567   2.981  1.6223  1.8731  1.0090
    1SOL    HW3 7339   1.172   0.647   2.998  1.0462  1.2862 -0.4329
    1SOL    MW4 7340   1.228   0.588   3.027  0.3947  0.7336 -0.2716
    1SOL     OW 7341   2.381   2.717   2.505 -0.3365 -0.3543 -0.0641
    1SOL    HW2 7342   2.398   2.788   2.443  0.3892  0.2939  0.8627
    1SOL    HW3 7343   2.315   2.752   2.565  2.5779  0.9066  2.5727
    1SOL    MW4 7344   2.374   2.731   2.505  0.1438 -0.1020  0.4058
    1SOL     OW 7345   3.124   4.163   2.069  0.2723 -0.1281 -0.2090
    1SOL    HW2 7346   3.089   4.165   2.158  0.5778 -0.8960 -0.0726
    1SOL    HW3 7347   3.124   4.255   2.042  0.2343  0.1146  0.5999
    1SOL    MW4 7348   3.119   4.176   2.077  0.3076 -0.1969 -0.0842
    1SOL     OW 7349   3.499   0.430   3.369 -0.1458  0.0620 -0.3495
    1SOL    HW2 7350   3.574   0.425   3.429  0.0524  2.0023 -0.3989
    1SOL    HW3 7351   3.423   0.414   3.423  0.1996 -0.4659 -0.0175
    1SOL    MW4 7352   3.499   0.427   3.384 -0.0739  0.2484 -0.3126
    1SOL     OW 7353   2.553   1.680   2.293 -0.3435  0.0173  0.5707
    1SOL    HW2 7354   2.628   1.657   2.237 -1.9270 -1.6524 -0.9396
    1SOL    HW3 7355   2.529   1.597   2.335 -2.2693  0.1792 -0.1398
    1SOL    MW4 7356   2.560   1.666   2.291 -0.8066 -0.1817  0.2775
    1SOL     OW 7357   3.963   0.631   2.155  0.3386  0.1664  0.0787
    1SOL    HW2 7358   4.033   0.683   2.196 -0.1596  0.5790  0.4220
    1SOL    HW3 7359   3.966   0.655   2.063  1.1927 -0.4442 -0.0510
    1SOL    MW4 7360   3.973   0.641   2.148  0.3858  0.1403  0.1070
    1SOL     OW 7361   2.503   1.606   3.209  0.3636  0.0794 -0.1923
    1SOL    HW2 7362   2.434   1.544   3.183 -1.1054  1.8954 -0.7505
    1SOL    HW3 7363   2.538   1.638   3.126  2.1741 -1.1122  0.0889
    1SOL    MW4 7364   2.499   1.602   3.195  0.4084  0.1619 -0.2289
    1SOL     OW 7365   3.231   0.678   2.140 -0.1671 -0.3579 -0.4420
    1SOL    HW2 7366   3.280   0.687   2.222  0.1746  2.9262 -0.9598
    1SOL    HW3 7367   3.296   0.651   2.076 -0.0514 -0.9417 -0.0899
    1SOL    MW4 7368   3.246   0.675   2.142 -0.1066 -0.0016 -0.4637
    1SOL     OW 7369   3.378   2.263   3.341  0.5064 -0.3458  0.3960
    1SOL    HW2 7370   3.389   2.271   3.436  0.9606  1.5198  0.1928
    1SOL    HW3 7371   3.467   2.254   3.307  0.7380  3.8801 -0.2694
    1SOL    MW4 7372   3.391   2.263   3.349  0.5968  0.4578  0.2813
    1SOL     OW 7373   1.751   3.529   2.902 -0.3425 -0.1024  0.1593
    1SOL    HW2 7374   1.737   3.512   2.809 -0.9521  2.0255 -0.1711
    1SOL    HW3 7375   1.846   3.539   2.911 -0.3719  0.9373 -0.4993
    1SOL    MW4 7376   1.761   3.528   2.891 -0.4267  0.3154  0.0291
    1SOL     OW 7377   2.311   2.949   3.493  0.3211  0.5288 -0.2095
    1SOL    HW2 7378   2.397   2.972   3.458  0.1751 -0.0944 -1.0068
    1SOL    HW3 7379   2.323   2.944   3.588  1.3230 -0.1848 -0.3627
    1SOL    MW4 7380   2.324   2.951   3.501  0.4342  0.3524 -0.3350
    1SOL     OW 7381   3.477   4.162   2.960 -0.1380  0.0763 -0.2441
    1SOL    HW2 7382   3.479   4.256   2.946  0.0317 -0.0242 -0.8941
    1SOL    HW3 7383   3.464   4.124   2.873  0.2312 -0.5142 -0.0482
    1SOL    MW4 7384   3.476   4.169   2.947 -0.0670 -0.0148 -0.3040
    1SOL     OW 7385   2.930   2.635   2.841  0.0064  0.3551 -0.1547
    1SOL    HW2 7386   2.943   2.554   2.890 -1.0639 -0.3458 -0.9817
    1SOL    HW3 7387   2.946   2.705   2.904 -0.3940 -0.5159  0.9375
    1SOL    MW4 7388   2.933   2.633   2.855 -0.1879  0.1476 -0.1197
    1SOL     OW 7389   2.700   1.991   3.024 -0.2269  0.2138 -0.2536
    1SOL    HW2 7390   2.731   1.914   3.072  0.1505  0.0685 -0.7383
    1SOL    HW3 7391   2.756   2.063   3.055 -1.2594  0.5170  0.9903
    1SOL    MW4 7392   2.711   1.991   3.035 -0.3135  0.2346 -0.1535
    1SOL     OW 7393   2.600   0.911   1.846 -0.0892 -0.5364 -0.3153
    1SOL    HW2 7394   2.570   0.978   1.784  0.4908  0.5731  0.5853
    1SOL    HW3 7395   2.692   0.897   1.824  0.1268 -0.1196  0.2900
    1SOL    MW4 7396   2.608   0.918   1.835  0.0157 -0.3350 -0.1167
    1SOL     OW 7397   2.179   3.162   2.685  0.0186  0.1150 -0.1203
    1SOL    HW2 7398   2.202   3.072   2.707 -0.1325  0.0632 -0.1760
    1SOL    HW3 7399   2.093   3.156   2.643  0.3300  0.2018 -0.7797
    1SOL    MW4 7400   2.171   3.149   2.682  0.0398  0.1194 -0.2148
    1SOL     OW 7401   2.546   3.655   3.330 -0.4119  0.3802 -0.6593
    1SOL    HW2 7402   2.553   3.725   3.265 -1.6519  1.7192  0.5986
    1SOL    HW3 7403   2.523   3.701   3.411 -0.4021 -1.4123  0.3699
    1SOL    MW4 7404   2.544   3.670   3.332 -0.5744  0.3204 -0.3574
    1SOL     OW 7405   3.751   2.506   3.244  0.0684 -0.1656  0.0074
    1SOL    HW2 7406   3.684   2.575   3.245 -0.9796 -1.1593  1.3962
    1SOL    HW3 7407   3.827   2.546   3.286 -0.2217  0.4470 -0.0403
    1SOL    MW4 7408   3.752   2.521   3.250 -0.1082 -0.2158  0.1843
    1SOL     OW 7409   2.391   4.555   3.277  0.0376  0.2539  0.2963
    1SOL    HW2 7410   2.459   4.489   3.295  1.3216  1.0372 -1.5115
    1SOL    HW3 7411   2.320   4.505   3.236  1.2065  0.0508 -1.5124
    1SOL    MW4 7412   2.391   4.539   3.274  0.3612  0.3304 -0.1810
    1SOL     OW 7413   3.225   3.596   4.140 -0.1535  0.3783  0.5093
    1SOL    HW2 7414   3.156   3.547   4.094  0.2547 -0.3301  0.6371
    1SOL    HW3 7415   3.304   3.582   4.087  0.5911 -1.4427  2.0465
    1SOL    MW4 7416   3.226   3.587   4.127 -0.0014  0.0446  0.7286
    1SOL     OW 7417   2.536   4.572   2.994 -0.2526 -0.6650 -0.0159
    1SOL    HW2 7418   2.539   4.476   2.989  0.3585 -0.6285 -0.3012
    1SOL    HW3 7419   2.490   4.590   3.077  0.1012 -1.1983  0.2976
    1SOL    MW4 7420   2.530   4.562   3.005 -0.1252 -0.7305 -0.0122
    1SOL     OW 7421   4.170   0.172   4.338  0.2555 -0.0336  0.1061
    1SOL    HW2 7422   4.242   0.169   4.274  1.2218  0.3764  1.1595
    1SOL    HW3 7423   4.118   0.248   4.311 -0.9643 -1.5261 -1.8823
    1SOL    MW4 7424   4.173   0.182   4.326  0.2222 -0.1764 -0.0172
    1SOL     OW 7425   3.199   1.761   3.269  0.8507 -0.2041  0.1454
    1SOL    HW2 7426   3.216   1.835   3.327 -1.3353  0.0086  0.5742
    1SOL    HW3 7427   3.181   1.801   3.184 -1.4077 -0.1205  0.6223
    1SOL    MW4 7428   3.199   1.776   3.266  0.2646 -0.1651  0.2649
    1SOL     OW 7429   4.487   0.731   2.807 -0.5112  0.0971 -0.1322
    1SOL    HW2 7430   4.490   0.826   2.800  0.8923  0.3253  2.9343
    1SOL    HW3 7431   4.574   0.702   2.778 -0.2167 -0.0827  0.9114
    1SOL    MW4 7432   4.499   0.740   2.802 -0.2871  0.1035  0.4098
    1SOL     OW 7433   3.712   4.072   3.927  0.2301 -0.4216 -0.4893
    1SOL    HW2 7434   3.774   4.143   3.908 -2.4931  2.5035  1.1688
    1SOL    HW3 7435   3.634   4.095   3.877 -0.9455 -1.8677  0.6671
    1SOL    MW4 7436   3.710   4.084   3.918 -0.2842 -0.2265 -0.1180
    1SOL     OW 7437   3.092   4.260   2.624  0.1255 -0.6169  0.1840
    1SOL    HW2 7438   3.038   4.329   2.662  0.8700 -0.4478  0.9419
    1SOL    HW3 7439   3.101   4.195   2.694 -0.1621 -1.2591 -0.3623
    1SOL    MW4 7440   3.086   4.260   2.638  0.1857 -0.6790  0.2117
    1SOL     OW 7441   2.446   0.539   3.469 -0.0323  0.3301 -0.5419
    1SOL    HW2 7442   2.483   0.461   3.511 -2.6805 -1.2995 -1.0375
    1SOL    HW3 7443   2.465   0.611   3.528  2.0803 -0.7851  0.1578
    1SOL    MW4 7444   2.453   0.538   3.482 -0.1030 -0.0320 -0.5152
    1SOL     OW 7445   0.083   1.831   2.976  0.0730 -0.2741 -0.0582
    1SOL    HW2 7446   0.045   1.815   3.063 -0.0806 -1.4898 -0.3530
    1SOL    HW3 7447   0.013   1.809   2.915  1.0011 -1.8064 -0.5773
    1SOL    MW4 7448   0.069   1.826   2.980  0.1752 -0.6366 -0.1655
    1SOL     OW 7449   4.131   4.533   2.754 -0.1972 -0.0247  0.4324
    1SOL    HW2 7450   4.120   4.469   2.823  1.3750  1.3019  1.9618
    1SOL    HW3 7451   4.072   4.605   2.778 -0.3587  0.0296 -0.1169
    1SOL    MW4 7452   4.122   4.534   2.766 -0.0114  0.1574  0.5615
    1SOL     OW 7453   3.076   2.433   2.982 -0.2278 -0.2187  0.2803
    1SOL    HW2 7454   3.113   2.465   2.899 -1.2117  0.8852  0.2712
    1SOL    HW3 7455   3.123   2.350   2.997  0.6750  0.0590 -0.8632
    1SOL    MW4 7456   3.087   2.426   2.973 -0.2389 -0.0362  0.1280
    1SOL     OW 7457   4.074   0.316   3.323 -0.0953  0.0081  0.1092
    1SOL    HW2 7458   4.048   0.383   3.387  0.1043  0.0152  0.1840
    1SOL    HW3 7459   4.083   0.364   3.240  1.1001  0.2783  0.3858
    1SOL    MW4 7460   4.072   0.332   3.320  0.0887  0.0446  0.1552
    1SOL     OW 7461   2.569   0.729   2.045 -0.2724 -0.2220 -0.2717
    1SOL    HW2 7462   2.579   0.798   1.980  0.4865  0.4769  0.5640
    1SOL    HW3 7463   2.631   0.753   2.115  1.1315 -2.5509 -0.6697
    1SOL    MW4 7464   2.579   0.741   2.046  0.0131 -0.4371 -0.2141
    1SOL     OW 7465   0.376   1.231   2.854  0.4820  0.0505  0.2036
    1SOL    HW2 7466   0.357   1.298   2.787  0.8808  0.3501  0.3838
    1SOL    HW3 7467   0.472   1.223   2.853  0.3525 -1.5501 -0.8062
    1SOL    MW4 7468   0.386   1.239   2.845  0.5175 -0.1212  0.0944
    1SOL     OW 7469   2.538   1.093   3.456 -0.2476 -0.3728  0.3136
    1SOL    HW2 7470   2.537   1.063   3.547 -1.7109 -0.8193  0.1764
    1SOL    HW3 7471   2.586   1.176   3.458  0.3200 -0.7169  1.3762
    1SOL    MW4 7472   2.544   1.100   3.469 -0.3657 -0.4772  0.4358
    1SOL     OW 7473   3.302   1.833   4.004  0.2649 -0.1032  0.0853
    1SOL    HW2 7474   3.302   1.886   3.924 -0.2913 -1.1667 -0.6311
    1SOL    HW3 7475   3.224   1.778   3.997  0.0306  0.0125  1.5225
    1SOL    MW4 7476   3.292   1.833   3.993  0.1607 -0.2283  0.1805
    1SOL     OW 7477   4.009   2.300   3.515  0.5116  0.7132 -0.0061
    1SOL    HW2 7478   4.051   2.331   3.595  1.2692  1.8027 -0.8029
    1SOL    HW3 7479   4.025   2.206   3.514 -0.6741  0.4727  1.7935
    1SOL    MW4 7480   4.017   2.292   3.525  0.4554  0.8252  0.1261
    1SOL     OW 7481   2.568   3.410   2.699 -0.1916 -0.1702  0.1921
    1SOL    HW2 7482   2.579   3.504   2.690 -0.4766 -0.0905  0.6877
    1SOL    HW3 7483   2.636   3.372   2.643 -0.6184  0.3275 -0.6764
    1SOL    MW4 7484   2.578   3.417   2.690 -0.2854 -0.0942  0.1431
    1SOL     OW 7485   3.577   2.709   3.307 -0.0486  0.4177  0.6549
    1SOL    HW2 7486   3.621   2.693   3.391  3.4406 -1.0501 -1.3508
    1SOL    HW3 7487   3.594   2.801   3.288  2.5275 -0.2271 -0.2666
    1SOL    MW4 7488   3.585   2.719   3.316  0.7517  0.1392  0.2685
    1SOL     OW 7489   0.463   3.673   2.787  0.8407  0.1377 -0.2999
    1SOL    HW2 7490   0.554   3.678   2.816  0.4886 -1.5548  1.1781
    1SOL    HW3 7491   0.417   3.634   2.861 -1.1998  1.5609 -0.8018
    1SOL    MW4 7492   0.469   3.669   2.800  0.5251  0.1023 -0.1709
    1SOL     OW 7493   0.156   2.845   4.514 -0.0122  0.5139 -0.0784
    1SOL    HW2 7494   0.133   2.938   4.517  0.5033  0.6234  0.6407
    1SOL    HW3 7495   0.222   2.834   4.582 -0.2653 -0.4370  0.0265
    1SOL    MW4 7496   0.161   2.856   4.523  0.0224  0.4027  0.0300
    1SOL     OW 7497   4.072   3.590   3.253 -0.2349 -0.0339  0.1447
    1SOL    HW2 7498   4.007   3.577   3.323  0.0828  1.1726  0.6808
    1SOL    HW3 7499   4.140   3.644   3.294  1.1773 -1.4010 -0.3768
    1SOL    MW4 7500   4.072   3.596   3.268 -0.0062 -0.0553  0.1469
    1SOL     OW 7501   0.077   2.981   2.735 -0.4974 -0.3699 -0.2408
    1SOL    HW2 7502   0.122   2.971   2.818  0.3527 -1.0020 -0.7782
    1SOL    HW3 7503  -0.008   2.939   2.749  0.3068 -2.0392 -0.2270
    1SOL    MW4 7504   0.071   2.974   2.748 -0.2791 -0.6738 -0.3099
    1SOL     OW 7505   2.580   4.345   3.251  0.4564  0.1007 -0.7125
    1SOL    HW2 7506   2.539   4.292   3.319  0.9254 -0.2748 -0.7171
    1SOL    HW3 7507   2.561   4.298   3.170 -2.1062  1.7644 -1.1312
    1SOL    MW4 7508   2.572   4.331   3.249  0.1802  0.2704 -0.7684
    1SOL     OW 7509   1.380   4.391   1.086 -0.1800 -0.0571 -0.3495
    1SOL    HW2 7510   1.295   4.434   1.100 -0.6476 -0.8926 -0.6275
    1SOL    HW3 7511   1.442   4.464   1.077 -1.0564  0.5800 -1.3738
    1SOL    MW4 7512   1.377   4.406   1.086 -0.3574 -0.0830 -0.5213
    1SOL     OW 7513   4.120   4.442   2.116  0.2619 -0.2686 -0.2442
    1SOL    HW2 7514   4.158   4.375   2.060  1.5087  0.4404 -0.2761
    1SOL    HW3 7515   4.034   4.460   2.077 -0.1057 -1.8788 -0.1848
    1SOL    MW4 7516   4.114   4.436   2.103  0.3786 -0.3877 -0.2406
    1SOL     OW 7517   2.070   4.219   2.382 -0.5252 -0.1518 -0.2844
    1SOL    HW2 7518   2.034   4.308   2.383 -1.2006 -0.3623 -3.1346
    1SOL    HW3 7519   2.165   4.232   2.379 -0.6584  0.5202 -2.1528
    1SOL    MW4 7520   2.078   4.233   2.382 -0.6318 -0.0906 -0.9069
    1SOL     OW 7521   2.616   0.985   3.718 -0.4526 -0.3274 -0.8778
    1SOL    HW2 7522   2.558   1.016   3.788  0.0934 -0.4875 -0.3588
    1SOL    HW3 7523   2.584   0.897   3.698  0.7920 -1.1669  0.7186
    1SOL    MW4 7524   2.604   0.978   3.724 -0.2165 -0.4593 -0.5989
    1SOL     OW 7525   0.208   3.811   4.562  0.4307  0.3233  0.4762
    1SOL    HW2 7526   0.186   3.804   4.655  3.1162 -1.6902  1.0325
    1SOL    HW3 7527   0.294   3.770   4.555 -0.2866 -0.7304 -3.1274
    1SOL    MW4 7528   0.216   3.805   4.574  0.6904 -0.0815  0.0739
    1SOL     OW 7529   0.174   0.184   3.370  0.3261  0.0739  0.6199
    1SOL    HW2 7530   0.243   0.119   3.353  0.5151  0.6886 -1.0991
    1SOL    HW3 7531   0.096   0.146   3.330 -0.2800 -0.4943  2.3256
    1SOL    MW4 7532   0.173   0.170   3.362  0.2711  0.0800  0.6182
    1SOL     OW 7533   1.051   0.399   3.381 -0.1753  0.0768 -0.4841
    1SOL    HW2 7534   1.057   0.403   3.285 -0.4425 -0.6233 -0.5354
    1SOL    HW3 7535   0.963   0.432   3.400 -0.2253 -0.0438 -0.5025
    1SOL    MW4 7536   1.040   0.404   3.371 -0.2173 -0.0315 -0.4930
    1SOL     OW 7537   0.805   0.397   3.052  0.6288 -0.2957 -0.1726
    1SOL    HW2 7538   0.762   0.313   3.037  1.5816 -0.7677 -0.2793
    1SOL    HW3 7539   0.735   0.462   3.040 -0.3618 -1.1244  1.0037
    1SOL    MW4 7540   0.790   0.395   3.048  0.6238 -0.4673 -0.0317
    1SOL     OW 7541   3.573   1.715   3.978  1.1177 -0.1278 -0.1625
    1SOL    HW2 7542   3.594   1.721   3.885 -0.0278 -0.7570 -0.4789
    1SOL    HW3 7543   3.484   1.748   3.984  1.4091  0.4772  0.8064
    1SOL    MW4 7544   3.564   1.720   3.966  1.0049 -0.1311 -0.0768
    1SOL     OW 7545   1.538   1.498   4.244 -0.4218 -0.0240 -0.8335
    1SOL    HW2 7546   1.589   1.422   4.272 -0.5802  0.3225  0.4401
    1SOL    HW3 7547   1.604   1.561   4.215 -0.2042 -0.1653 -0.6535
    1SOL    MW4 7548   1.553   1.496   4.244 -0.4140  0.0032 -0.6418
    1SOL     OW 7549   3.273   1.490   3.282 -0.0434  0.1891 -0.6692
    1SOL    HW2 7550   3.364   1.477   3.309 -0.1449  0.2248 -0.2936
    1SOL    HW3 7551   3.261   1.585   3.281  0.2350  0.2060 -1.7944
    1SOL    MW4 7552   3.283   1.501   3.286 -0.0198  0.1961 -0.7679
    1SOL     OW 7553   3.152   2.820   0.425 -0.3828 -0.7297  0.1598
    1SOL    HW2 7554   3.072   2.816   0.478 -0.9186 -0.4834 -0.6156
    1SOL    HW3 7555   3.153   2.910   0.390  0.8463 -0.3656  1.0987
    1SOL    MW4 7556   3.142   2.832   0.427 -0.2913 -0.6490  0.1814
    1SOL     OW 7557   3.752   0.392   3.932  0.0182 -0.5960  0.2266
    1SOL    HW2 7558   3.776   0.333   4.003  0.5740 -0.4104  0.1964
    1SOL    HW3 7559   3.725   0.473   3.976 -0.8789 -0.9192  0.2727
    1SOL    MW4 7560   3.751   0.395   3.947 -0.0269 -0.6141  0.2284
    1SOL     OW 7561   0.267   1.041   2.668 -0.1786 -0.0124 -0.0136
    1SOL    HW2 7562   0.310   0.956   2.665 -1.4444 -0.7654  1.7418
    1SOL    HW3 7563   0.323   1.095   2.724 -1.0190 -0.7256  1.5601
    1SOL    MW4 7564   0.280   1.037   2.675 -0.4565 -0.2060  0.4256
    1SOL     OW 7565   2.582   2.606   3.549  0.1359 -0.2405  0.1684
    1SOL    HW2 7566   2.632   2.536   3.506  0.3681 -0.0994  0.2022
    1SOL    HW3 7567   2.498   2.607   3.504  0.3747 -0.1005 -0.2829
    1SOL    MW4 7568   2.578   2.597   3.537  0.1981 -0.2034  0.1135
    1SOL     OW 7569   3.412   1.322   3.833 -0.0332  0.3936  0.1733
    1SOL    HW2 7570   3.491   1.346   3.882 -0.0005  0.1177  0.2558
    1SOL    HW3 7571   3.339   1.355   3.886 -0.0222 -0.3948  0.6912
    1SOL    MW4 7572   3.413   1.330   3.846 -0.0274  0.2531  0.2525
    1SOL     OW 7573   0.688   2.085   3.383  0.4718 -0.3041  0.1754
    1SOL    HW2 7574   0.712   2.177   3.369 -2.8068  0.2984 -1.9672
    1SOL    HW3 7575   0.646   2.085   3.469 -0.0485  0.3478 -0.0670
    1SOL    MW4 7576   0.685   2.097   3.393 -0.0294 -0.1385 -0.1392
    1SOL     OW 7577   0.280   2.535   3.554 -0.1681 -0.1271  0.0140
    1SOL    HW2 7578   0.195   2.508   3.589  0.3533  0.3653  1.6568
    1SOL    HW3 7579   0.331   2.559   3.630  0.4629  2.4512 -1.1925
    1SOL    MW4 7580   0.275   2.534   3.568 -0.0161  0.2780  0.0715
    1SOL     OW 7581   2.032   3.576   2.915 -0.1350  0.1184 -0.1233
    1SOL    HW2 7582   2.101   3.509   2.910 -0.2936 -0.0043 -0.7921
    1SOL    HW3 7583   2.002   3.574   3.006 -0.8892 -1.4722 -0.4014
    1SOL    MW4 7584   2.037   3.567   2.926 -0.2558 -0.1078 -0.2482
    1SOL     OW 7585   2.105   3.206   2.954 -0.3354 -0.0852  0.4394
    1SOL    HW2 7586   2.120   3.170   2.867  0.2522 -1.0818  0.9407
    1SOL    HW3 7587   2.167   3.278   2.962 -1.0041  0.5783 -0.2941
    1SOL    MW4 7588   2.115   3.211   2.944 -0.3459 -0.1292  0.4086
    1SOL     OW 7589   4.339   3.402   3.384 -0.3377 -0.2807 -0.0724
    1SOL    HW2 7590   4.299   3.470   3.438 -1.9969 -0.1191 -1.4779
    1SOL    HW3 7591   4.266   3.363   3.336  0.8017 -2.0488 -0.4142
    1SOL    MW4 7592   4.324   3.406   3.385 -0.4063 -0.4923 -0.3030
    1SOL     OW 7593   3.934   0.135   3.498 -0.3804 -0.1038  0.0957
    1SOL    HW2 7594   3.858   0.182   3.531  1.1174  1.0417  2.0390
    1SOL    HW3 7595   3.966   0.188   3.425 -2.0272 -1.1456 -1.4281
    1SOL    MW4 7596   3.928   0.148   3.493 -0.4001 -0.0901  0.1509
    1SOL     OW 7597   0.520   3.831   4.600 -0.1892  0.2433  0.0083
    1SOL    HW2 7598   0.592   3.797   4.654  0.8199  0.7939 -0.9611
    1SOL    HW3 7599   0.527   3.782   4.517 -0.2790  1.0476 -0.4761
    1SOL    MW4 7600   0.530   3.820   4.596 -0.0679  0.4222 -0.1831
    1SOL     OW 7601   3.997   3.991   3.260 -0.1836 -0.0173 -0.4003
    1SOL    HW2 7602   4.074   3.971   3.311  0.5832  0.0023 -1.5222
    1SOL    HW3 7603   3.985   3.916   3.202 -1.8557 -0.6703  0.7389
    1SOL    MW4 7604   4.005   3.979   3.259 -0.3033 -0.1011 -0.3982
    1SOL     OW 7605   3.726   2.259   2.958 -0.3930  0.3236  0.2860
    1SOL    HW2 7606   3.787   2.332   2.951 -0.4022  0.2439 -0.6711
    1SOL    HW3 7607   3.639   2.300   2.956 -0.3944  0.3086 -0.0636
    1SOL    MW4 7608   3.722   2.274   2.957 -0.3943  0.3111  0.1135
    1SOL     OW 7609   3.805   0.483   2.979 -0.4246 -0.5044 -0.6576
    1SOL    HW2 7610   3.867   0.522   2.917  0.5201  1.5031  1.4918
    1SOL    HW3 7611   3.840   0.395   2.996  2.9451  1.2614  1.9773
    1SOL    MW4 7612   3.817   0.476   2.973  0.1447 -0.0065 -0.0265
    1SOL     OW 7613   3.658   1.774   1.151 -0.5931  0.0371  0.5724
    1SOL    HW2 7614   3.627   1.829   1.079 -0.4745 -0.9506 -0.2397
    1SOL    HW3 7615   3.651   1.684   1.118  0.9698 -0.3306  1.1975
    1SOL    MW4 7616   3.653   1.769   1.137 -0.3715 -0.1417  0.5478
    1SOL     OW 7617   0.447   3.687   3.558 -0.1748 -0.1849 -0.0875
    1SOL    HW2 7618   0.413   3.689   3.647 -0.8546  1.1773 -0.3697
    1SOL    HW3 7619   0.516   3.620   3.560  0.5843  0.6106  1.7358
    1SOL    MW4 7620   0.452   3.679   3.570 -0.1643  0.0999  0.1161
    1SOL     OW 7621   0.143   0.222   2.583  0.5670 -0.2618 -0.2818
    1SOL    HW2 7622   0.210   0.168   2.542  1.4313  1.7153 -1.5913
    1SOL    HW3 7623   0.181   0.248   2.667  0.5571 -0.8686 -0.0890
    1SOL    MW4 7624   0.157   0.219   2.589  0.6797 -0.0810 -0.4294
    1SOL     OW 7625   3.301   0.202   2.667  0.2701  0.1658  0.1120
    1SOL    HW2 7626   3.290   0.124   2.612  0.3791 -0.3170  0.7726
    1SOL    HW3 7627   3.261   0.178   2.750  0.0448  0.9239  0.2246
    1SOL    MW4 7628   3.294   0.188   2.671  0.2546  0.2022  0.2141
    1SOL     OW 7629   4.279   4.227   1.990  0.4895 -0.0490 -0.2884
    1SOL    HW2 7630   4.244   4.237   1.902 -1.4518 -0.9868  0.3441
    1SOL    HW3 7631   4.269   4.134   2.010 -0.4817  0.4140  1.4872
    1SOL    MW4 7632   4.273   4.216   1.981  0.1049 -0.1116  0.0293
    1SOL     OW 7633   4.271   0.225   2.666  0.6566  0.6190  0.6202
    1SOL    HW2 7634   4.305   0.135   2.660 -0.4993  0.2656 -0.9045
    1SOL    HW3 7635   4.315   0.271   2.594 -1.5303  0.3316 -0.9319
    1SOL    MW4 7636   4.282   0.219   2.655  0.2160  0.5345  0.2141
    1SOL     OW 7637   1.157   1.669   3.290 -0.2089  0.5048  0.1797
    1SOL    HW2 7638   1.188   1.699   3.204 -1.2496  1.8657  0.2689
    1SOL    HW3 7639   1.209   1.719   3.353 -0.8797  0.9964  0.3397
    1SOL    MW4 7640   1.168   1.679   3.287 -0.4348  0.7492  0.2124
    1SOL     OW 7641   3.051   0.284   3.084  0.0398  0.1765  0.0605
    1SOL    HW2 7642   3.067   0.377   3.066  0.0720  0.2917  0.6969
    1SOL    HW3 7643   3.043   0.244   2.997 -1.2396  0.9853 -0.2099
    1SOL    MW4 7644   3.052   0.291   3.070 -0.1249  0.2984  0.1090
    1SOL     OW 7645   3.987   0.738   1.883 -0.0567  0.1809  0.2295
    1SOL    HW2 7646   3.945   0.667   1.835 -0.1886  1.3073 -1.3517
    1SOL    HW3 7647   4.068   0.754   1.835 -0.4225  1.6505  0.0780
    1SOL    MW4 7648   3.992   0.731   1.870 -0.1225  0.5234  0.0010
    1SOL     OW 7649   1.107   0.802   2.918  0.1217  0.3399 -0.1379
    1SOL    HW2 7650   1.137   0.806   2.827  0.3533  0.7761 -0.0397
    1SOL    HW3 7651   1.020   0.843   2.916 -0.2173 -0.3809 -0.3105
    1SOL    MW4 7652   1.099   0.808   2.906  0.1075  0.3023 -0.1476
    1SOL     OW 7653   2.607   1.418   2.707  0.1695 -0.1049 -0.2201
    1SOL    HW2 7654   2.653   1.338   2.734 -0.5287 -0.7685 -0.9562
    1SOL    HW3 7655   2.525   1.416   2.756  0.5915  0.6905  0.5255
    1SOL    MW4 7656   2.602   1.407   2.717  0.1333 -0.0875 -0.2191
    1SOL     OW 7657   0.430   0.733   3.635 -0.2108  0.4060  0.1264
    1SOL    HW2 7658   0.385   0.719   3.718  1.9421 -1.3599  1.0540
    1SOL    HW3 7659   0.410   0.653   3.584  0.1964  0.5453 -0.2500
    1SOL    MW4 7660   0.421   0.720   3.639  0.1270  0.1914  0.1991
    1SOL     OW 7661   3.231   2.965   2.113 -0.2886  0.1960 -0.1287
    1SOL    HW2 7662   3.251   3.009   2.195 -1.3071 -0.4991  0.5107
    1SOL    HW3 7663   3.222   3.036   2.049 -0.5260  0.8213  0.5872
    1SOL    MW4 7664   3.232   2.980   2.115 -0.4544  0.1869  0.0501
    1SOL     OW 7665   0.618   4.154   3.372  0.1839 -0.3336  0.2417
    1SOL    HW2 7666   0.690   4.092   3.385 -0.3072 -1.5608 -2.5974
    1SOL    HW3 7667   0.551   4.127   3.435  1.7354  0.0985  2.0930
    1SOL    MW4 7668   0.619   4.142   3.382  0.3238 -0.4387  0.1113
    1SOL     OW 7669   3.519   3.703   2.975 -0.0591  0.6458 -0.0736
    1SOL    HW2 7670   3.565   3.771   3.024  0.4238  1.1816 -1.2518
    1SOL    HW3 7671   3.564   3.699   2.891  0.5028 -1.7914  0.3074
    1SOL    MW4 7672   3.531   3.712   2.970  0.0787  0.3946 -0.1786
    1SOL     OW 7673   1.274   2.165   3.671 -0.0528 -0.0843  0.4134
    1SOL    HW2 7674   1.293   2.081   3.711  0.8860 -1.0504 -1.9547
    1SOL    HW3 7675   1.306   2.230   3.734 -1.5611 -1.4397  2.6385
    1SOL    MW4 7676   1.281   2.163   3.684 -0.1279 -0.3905  0.3946
    1SOL     OW 7677   2.555   2.135   3.437  0.0561 -0.0587  0.1411
    1SOL    HW2 7678   2.476   2.084   3.427  0.6491 -0.7166 -1.3491
    1SOL    HW3 7679   2.626   2.076   3.411  1.0088  0.6211  1.1202
    1SOL    MW4 7680   2.554   2.121   3.433  0.2601 -0.0560  0.0737
    1SOL     OW 7681   2.312   3.692   2.821 -0.5951 -0.0661  0.3551
    1SOL    HW2 7682   2.229   3.711   2.777  0.1867  1.6111 -0.4475
    1SOL    HW3 7683   2.378   3.703   2.753  0.5065  1.1702  1.5865
    1SOL    MW4 7684   2.310   3.696   2.806 -0.3467  0.3183  0.4117
    1SOL     OW 7685   0.119   3.809   2.993 -0.2340 -0.5667  0.2248
    1SOL    HW2 7686   0.121   3.885   2.935  0.6605 -0.0977  0.8500
    1SOL    HW3 7687   0.181   3.830   3.063 -0.1469 -1.7683  0.5342
    1SOL    MW4 7688   0.128   3.822   2.994 -0.1045 -0.6633  0.3483
    1SOL     OW 7689   0.776   3.653   2.217  0.0540  0.2349  0.1715
    1SOL    HW2 7690   0.703   3.702   2.256  0.0000  0.1559  0.1704
    1SOL    HW3 7691   0.785   3.576   2.272 -0.4225 -0.1831 -0.3382
    1SOL    MW4 7692   0.767   3.650   2.230 -0.0160  0.1695  0.1040
    1SOL     OW 7693   2.422   3.044   2.873 -0.3458 -0.1687 -0.0178
    1SOL    HW2 7694   2.432   2.955   2.908  0.4575 -0.1135 -0.0993
    1SOL    HW3 7695   2.456   3.038   2.784  2.4845  0.9045  0.9438
    1SOL    MW4 7696   2.427   3.031   2.866  0.1335 -0.0198  0.0982
    1SOL     OW 7697   4.293   2.866   3.225 -0.0756 -1.2685 -0.2028
    1SOL    HW2 7698   4.317   2.788   3.175  2.9416 -0.6050  0.0873
    1SOL    HW3 7699   4.347   2.861   3.304  0.5621  1.3376 -0.4066
    1SOL    MW4 7700   4.304   2.855   3.229  0.4067 -0.8371 -0.1915
    1SOL     OW 7701   3.978   2.741   3.592 -0.3754 -0.4483 -0.0852
    1SOL    HW2 7702   4.024   2.824   3.582  0.2576 -0.9058 -1.1898
    1SOL    HW3 7703   4.021   2.699   3.667  0.0406 -0.2434 -0.2017
    1SOL    MW4 7704   3.990   2.746   3.600 -0.2367 -0.4816 -0.2465
    1SOL     OW 7705   4.113   1.750   3.606 -0.2969 -0.0013 -0.2796
    1SOL    HW2 7706   4.125   1.740   3.511  0.6779  0.8057 -0.2494
    1SOL    HW3 7707   4.109   1.845   3.620  1.4842 -0.0622  0.7162
    1SOL    MW4 7708   4.114   1.762   3.595  0.0668  0.0970 -0.1440
    1SOL     OW 7709   0.411   3.814   3.123 -0.1823 -0.0562 -0.0217
    1SOL    HW2 7710   0.395   3.850   3.210 -0.7884  1.1756 -0.6254
    1SOL    HW3 7711   0.401   3.719   3.134  1.4437 -0.0635  1.5929
    1SOL    MW4 7712   0.407   3.806   3.136 -0.0477  0.1051  0.1118
    1SOL     OW 7713   1.088   4.421   3.843 -0.3276  0.0552  0.4401
    1SOL    HW2 7714   1.161   4.360   3.842  1.3196  1.9743  1.0942
    1SOL    HW3 7715   1.069   4.439   3.751  0.4763  0.0626  0.2724
    1SOL    MW4 7716   1.095   4.415   3.831 -0.0042  0.3095  0.5043
    1SOL     OW 7717   4.176   0.145   2.991 -0.1021 -0.6615  0.0934
    1SOL    HW2 7718   4.173   0.051   2.976 -2.8943 -0.5404 -0.2233
    1SOL    HW3 7719   4.085   0.174   2.989  0.7776  2.2718 -1.2172
    1SOL    MW4 7720   4.164   0.137   2.989 -0.3548 -0.2585 -0.1214
    1SOL     OW 7721   0.396   4.187   3.887  0.4900  0.2387  0.0861
    1SOL    HW2 7722   0.358   4.107   3.924 -0.3401  0.9209  0.7224
    1SOL    HW3 7723   0.437   4.230   3.962  1.1503  0.2934 -0.3035
    1SOL    MW4 7724   0.397   4.182   3.902  0.4676  0.3366  0.1185
    1SOL     OW 7725   3.227   4.634   3.367 -0.4588 -0.2649  0.3254
    1SOL    HW2 7726   3.242   4.672   3.454 -1.8753  0.3079  0.3390
    1SOL    HW3 7727   3.312   4.599   3.341  0.3336  0.8775  1.3140
    1SOL    MW4 7728   3.240   4.635   3.375 -0.5410 -0.0391  0.4578
    1SOL     OW 7729   4.047   4.334   2.947 -0.1033 -0.2022 -0.3544
    1SOL    HW2 7730   3.960   4.372   2.944  1.0973  2.6068 -1.3401
    1SOL    HW3 7731   4.056   4.299   3.036 -1.6245  0.9348  0.2555
    1SOL    MW4 7732   4.037   4.334   2.958 -0.1454  0.3185 -0.4041
    1SOL     OW 7733   2.024   1.572   4.343 -0.5871 -1.1582 -0.2191
    1SOL    HW2 7734   2.055   1.511   4.276 -0.1149 -1.0513 -0.0967
    1SOL    HW3 7735   2.086   1.561   4.415  1.2735  1.6338 -1.3173
    1SOL    MW4 7736   2.036   1.562   4.344 -0.2792 -0.7757 -0.3481
    1SOL     OW 7737   0.500   1.454   4.133 -0.3138  0.6436  1.4899
    1SOL    HW2 7738   0.566   1.422   4.196  0.9681  1.1628  0.4392
    1SOL    HW3 7739   0.519   1.547   4.124 -1.2607  0.8156  1.2298
    1SOL    MW4 7740   0.511   1.462   4.141 -0.2696  0.7349  1.3170
    1SOL     OW 7741   3.660   0.235   3.682  0.3871  0.2342  0.0242
    1SOL    HW2 7742   3.634   0.166   3.742  0.1388  0.7545  0.5232
    1SOL    HW3 7743   3.611   0.312   3.712  1.1257  0.7711 -0.1499
    1SOL    MW4 7744   3.650   0.236   3.694  0.4516  0.3737  0.0672
    1SOL     OW 7745   1.047   1.364   3.613 -0.5137 -0.2465  0.0510
    1SOL    HW2 7746   1.048   1.368   3.517  0.3330 -0.9399  0.0332
    1SOL    HW3 7747   0.957   1.339   3.634 -0.3509 -1.4107 -0.6100
    1SOL    MW4 7748   1.035   1.362   3.603 -0.3806 -0.4915 -0.0384
    1SOL     OW 7749   0.457   2.500   4.284  0.5320 -0.0865 -0.3272
    1SOL    HW2 7750   0.398   2.446   4.337 -0.6607  0.0404 -1.5067
    1SOL    HW3 7751   0.473   2.578   4.338  0.6827 -0.7101  0.5468
    1SOL    MW4 7752   0.451   2.503   4.298  0.3945 -0.1521 -0.3681
    1SOL     OW 7753   1.329   1.342   3.633 -0.2353 -0.6127 -0.2300
    1SOL    HW2 7754   1.355   1.297   3.714 -1.6059 -0.4773  0.3052
    1SOL    HW3 7755   1.234   1.332   3.631 -0.4888  1.7373 -0.4219
    1SOL    MW4 7756   1.320   1.334   3.644 -0.4497 -0.2849 -0.1850
    1SOL     OW 7757   4.315   1.312   3.874  0.1768  0.1042  0.4569
    1SOL    HW2 7758   4.275   1.340   3.791  0.3001  0.0309  0.3734
    1SOL    HW3 7759   4.401   1.278   3.849 -0.0623 -0.5644  0.5295
    1SOL    MW4 7760   4.321   1.311   3.860  0.1612  0.0063  0.4554
    1SOL     OW 7761   1.752   1.635   4.132  0.1834 -0.0928 -0.1555
    1SOL    HW2 7762   1.815   1.691   4.178  0.6495 -1.0828  0.4295
    1SOL    HW3 7763   1.703   1.695   4.076  1.7916  0.6712 -0.7851
    1SOL    MW4 7764   1.754   1.651   4.131  0.4570 -0.1224 -0.1612
    1SOL     OW 7765   0.896   2.247   2.685  0.3086 -0.2437  0.0695
    1SOL    HW2 7766   0.809   2.209   2.697 -0.3157  0.9984 -0.3941
    1SOL    HW3 7767   0.899   2.271   2.592  1.3020 -0.6447 -0.0071
    1SOL    MW4 7768   0.885   2.245   2.674  0.3573 -0.1326 -0.0014
    1SOL     OW 7769   4.275   2.313   3.992  0.1869  0.0291 -0.2505
    1SOL    HW2 7770   4.216   2.250   4.034  1.3875  0.0364  1.4894
    1SOL    HW3 7771   4.344   2.259   3.955  1.7345  0.3519  2.0825
    1SOL    MW4 7772   4.276   2.297   3.993  0.5498  0.0727  0.2868
    1SOL     OW 7773   2.349   3.155   2.384  0.1247  0.1356 -0.2338
    1SOL    HW2 7774   2.266   3.154   2.335  0.5005 -1.2686 -0.8709
    1SOL    HW3 7775   2.322   3.151   2.476 -0.5463  0.6445 -0.4054
    1SOL    MW4 7776   2.334   3.154   2.389  0.0856  0.0174 -0.3405
    1SOL     OW 7777   0.189   3.275   2.724  0.2678  0.0741 -0.3530
    1SOL    HW2 7778   0.143   3.196   2.698  0.6668 -0.4787  0.6234
    1SOL    HW3 7779   0.202   3.267   2.818 -0.0228  1.4717 -0.1703
    1SOL    MW4 7780   0.185   3.264   2.733  0.2821  0.1855 -0.2000
    1SOL     OW 7781   0.026   3.376   4.428 -0.4250 -0.5019 -0.2860
    1SOL    HW2 7782   0.074   3.376   4.345 -0.7683  0.1044 -0.4865
    1SOL    HW3 7783  -0.015   3.463   4.433  0.1064 -0.3029  0.8164
    1SOL    MW4 7784   0.027   3.387   4.418 -0.4002 -0.3955 -0.1669
    1SOL     OW 7785   0.205   0.776   3.358  0.1071  0.6360  0.2718
    1SOL    HW2 7786   0.236   0.842   3.420 -0.4531  1.7271 -0.5929
    1SOL    HW3 7787   0.280   0.758   3.302 -0.0575  1.3343 -0.1705
    1SOL    MW4 7788   0.219   0.782   3.359  0.0115  0.8722  0.0994
    1SOL     OW 7789   3.242   3.839   2.995  0.4949 -0.2646  0.2859
    1SOL    HW2 7790   3.262   3.932   3.003  0.1142 -0.3159  1.9667
    1SOL    HW3 7791   3.326   3.795   3.011  0.1945 -0.2901  1.7832
    1SOL    MW4 7792   3.256   3.846   2.998  0.4051 -0.2747  0.7052
    1SOL     OW 7793   0.600   2.982   2.877 -0.1063  0.2244 -0.2364
    1SOL    HW2 7794   0.563   3.069   2.890  0.1332  0.4230 -0.8670
    1SOL    HW3 7795   0.679   2.981   2.931 -0.6994  0.0013  0.6519
    1SOL    MW4 7796   0.606   2.993   2.886 -0.1529  0.2210 -0.2024
    1SOL     OW 7797   4.385   4.640   2.683  0.4034 -0.2336 -0.1691
    1SOL    HW2 7798   4.432   4.664   2.763  0.0884  1.3135 -0.4369
    1SOL    HW3 7799   4.299   4.611   2.714  0.5668 -0.4275  0.1082
    1SOL    MW4 7800   4.380   4.639   2.698  0.3834 -0.0548 -0.1681
    1SOL     OW 7801   1.368   3.828   4.208  0.3174  0.8748 -0.0757
    1SOL    HW2 7802   1.454   3.789   4.225 -0.6473 -1.4662 -0.3922
    1SOL    HW3 7803   1.334   3.780   4.133 -1.2737  1.8126  0.0171
    1SOL    MW4 7804   1.375   3.817   4.200 -0.0198  0.6897 -0.1054
    1SOL     OW 7805   1.509   3.622   4.952  1.0789 -0.6652  0.0127
    1SOL    HW2 7806   1.445   3.563   4.912  3.3763 -2.6161 -0.8671
    1SOL    HW3 7807   1.488   3.620   5.046 -0.4342 -0.8847 -0.3142
    1SOL    MW4 7808   1.498   3.614   4.960  1.1824 -0.9511 -0.1469
    1SOL     OW 7809   4.247   2.074   4.275 -0.5498  0.4899 -0.3560
    1SOL    HW2 7810   4.196   2.074   4.194  1.2958 -0.3513 -1.5751
    1SOL    HW3 7811   4.313   2.005   4.261  0.2934  0.8808  1.5453
    1SOL    MW4 7812   4.249   2.065   4.263 -0.1950  0.4306 -0.2656
    1SOL     OW 7813   3.413   3.143   4.575 -0.2971 -0.0495 -0.2718
    1SOL    HW2 7814   3.481   3.195   4.531  0.1356 -2.5282 -2.6650
    1SOL    HW3 7815   3.461   3.077   4.624 -0.8959  0.7339  1.3981
    1SOL    MW4 7816   3.428   3.141   4.576 -0.3190 -0.2735 -0.3672
    1SOL     OW 7817   1.474   0.491   4.096 -0.1122  0.2697  0.0177
    1SOL    HW2 7818   1.515   0.573   4.068 -0.3308  0.1654 -0.6006
    1SOL    HW3 7819   1.451   0.447   4.015  1.6170 -1.2193  0.3079
    1SOL    MW4 7820   1.477   0.496   4.082  0.0870  0.0596 -0.0257
    1SOL     OW 7821   2.707   0.047   3.602  0.0477 -0.2004 -0.6251
    1SOL    HW2 7822   2.666   0.065   3.687 -0.0015  1.1165 -0.9199
    1SOL    HW3 7823   2.801   0.054   3.618  0.0485 -0.2069 -0.6272
    1SOL    MW4 7824   2.714   0.050   3.615  0.0415 -0.0275 -0.6642
    1SOL     OW 7825   1.842   2.398   4.109 -0.0641 -0.2615 -0.3048
    1SOL    HW2 7826   1.887   2.481   4.093  0.0046 -0.2919 -0.2700
    1SOL    HW3 7827   1.814   2.368   4.023 -0.4346 -0.0074 -0.2770
    1SOL    MW4 7828   1.844   2.405   4.096 -0.1040 -0.2320 -0.2966
    1SOL     OW 7829   3.997   2.208   4.443  0.2532 -0.0361  0.9193
    1SOL    HW2 7830   4.056   2.260   4.497 -0.7761 -1.4162  3.4175
    1SOL    HW3 7831   4.037   2.120   4.442  0.1944 -0.0582 -0.4820
    1SOL    MW4 7832   4.010   2.203   4.450  0.1097 -0.2210  1.0638
    1SOL     OW 7833   0.667   0.807   2.514  0.1368 -0.1778  0.4153
    1SOL    HW2 7834   0.665   0.900   2.492 -0.3356 -0.1142  0.7333
    1SOL    HW3 7835   0.671   0.805   2.610  0.9613 -0.4753  0.3848
    1SOL    MW4 7836   0.667   0.819   2.524  0.1833 -0.2087  0.4532
    1SOL     OW 7837   4.360   2.833   4.585  0.2153 -0.6693  0.4352
    1SOL    HW2 7838   4.450   2.801   4.589  0.4802 -0.1866 -1.2999
    1SOL    HW3 7839   4.344   2.847   4.492 -1.3299  0.1581  0.8156
    1SOL    MW4 7840   4.370   2.831   4.574  0.0463 -0.4964  0.2561
    1SOL     OW 7841   0.620   1.548   3.500  0.1881  0.3293  0.2078
    1SOL    HW2 7842   0.599   1.635   3.532  0.5792 -0.1206  1.7687
    1SOL    HW3 7843   0.536   1.508   3.480 -0.0088  0.9695 -0.2234
    1SOL    MW4 7844   0.606   1.554   3.502  0.2137  0.3545  0.3567
    1SOL     OW 7845   4.105   1.360   3.410  0.0033  0.1589 -0.4421
    1SOL    HW2 7846   4.011   1.369   3.423  0.0797  0.4428 -0.0957
    1SOL    HW3 7847   4.119   1.265   3.402 -0.0763 -0.0231  1.3637
    1SOL    MW4 7848   4.095   1.348   3.411  0.0029  0.1724 -0.1578
    1SOL     OW 7849   0.696   1.965   4.279 -0.1557 -0.8164 -0.2032
    1SOL    HW2 7850   0.746   1.895   4.237  1.5561  0.2932 -0.0467
    1SOL    HW3 7851   0.762   2.022   4.318 -1.5958  0.0328  1.0429
    1SOL    MW4 7852   0.711   1.963   4.278 -0.1198 -0.5579 -0.0181
    1SOL     OW 7853   0.252   2.607   4.116 -0.4948  0.1009 -0.2100
    1SOL    HW2 7854   0.325   2.568   4.164  0.0964 -0.7028 -1.7250
    1SOL    HW3 7855   0.223   2.680   4.171  1.2970  0.2843  0.5194
    1SOL    MW4 7856   0.258   2.612   4.129 -0.1804  0.0191 -0.3142
    1SOL     OW 7857   1.403   2.157   4.128  0.0277  0.3753  0.4278
    1SOL    HW2 7858   1.490   2.117   4.118  0.7305  1.8295  0.6156
    1SOL    HW3 7859   1.418   2.232   4.185 -1.6183 -0.1827  1.6200
    1SOL    MW4 7860   1.417   2.162   4.134 -0.0967  0.4935  0.6094
    1SOL     OW 7861   0.894   2.551   3.903  0.4738 -0.2370 -0.1995
    1SOL    HW2 7862   0.858   2.501   3.830 -0.4112 -1.9119  1.3256
    1SOL    HW3 7863   0.989   2.534   3.900  0.3612 -0.7975 -0.6034
    1SOL    MW4 7864   0.902   2.542   3.893  0.3422 -0.5319 -0.0515
    1SOL     OW 7865   4.196   3.085   1.768  0.1218 -0.0515  0.3710
    1SOL    HW2 7866   4.148   3.077   1.686 -0.7693  1.0639  0.7599
    1SOL    HW3 7867   4.274   3.031   1.756  0.2098  0.4228 -1.3666
    1SOL    MW4 7868   4.200   3.077   1.756  0.0162  0.1581  0.1931
    1SOL     OW 7869   0.830   0.116   3.924  0.0417 -0.1817 -0.8546
    1SOL    HW2 7870   0.884   0.187   3.958  0.9477 -0.9921 -0.5816
    1SOL    HW3 7871   0.766   0.159   3.867 -0.8247  1.0774  1.0271
    1SOL    MW4 7872   0.828   0.131   3.921  0.0469 -0.1225 -0.5701
    1SOL     OW 7873   1.793   2.612   3.648 -0.3191 -0.5905 -0.2329
    1SOL    HW2 7874   1.719   2.573   3.602 -2.3203  2.3520  0.3972
    1SOL    HW3 7875   1.764   2.700   3.672  3.1420  0.4268  0.6124
    1SOL    MW4 7876   1.780   2.618   3.645 -0.1264 -0.0682 -0.0381
    1SOL     OW 7877   0.528   2.647   3.291  0.2058 -0.2971  0.0822
    1SOL    HW2 7878   0.550   2.738   3.274  0.9490 -0.5358 -0.2518
    1SOL    HW3 7879   0.454   2.628   3.232  1.0892 -0.3742 -1.0137
    1SOL    MW4 7880   0.521   2.656   3.281  0.4204 -0.3388 -0.1061
    1SOL     OW 7881   3.233   3.870   2.723 -0.2176 -0.2576 -0.0439
    1SOL    HW2 7882   3.243   3.830   2.810  0.7499 -0.3320 -0.1856
    1SOL    HW3 7883   3.311   3.924   2.713  0.3027 -1.2511 -1.3996
    1SOL    MW4 7884   3.245   3.872   2.733 -0.0212 -0.3986 -0.2415
    1SOL     OW 7885   3.287   2.843   3.007  0.1747 -0.2671 -0.0870
    1SOL    HW2 7886   3.320   2.757   3.035 -0.6474 -0.5659 -0.0228
    1SOL    HW3 7887   3.195   2.843   3.034  0.2699  0.7952  0.2674
    1SOL    MW4 7888   3.280   2.831   3.015  0.0787 -0.1664 -0.0315
    1SOL     OW 7889   1.071   3.680   3.756 -0.0399 -0.6721 -0.1493
    1SOL    HW2 7890   1.013   3.748   3.722  0.7501  1.0645  1.8886
    1SOL    HW3 7891   1.158   3.703   3.724  0.2770 -0.5220  0.7927
    1SOL    MW4 7892   1.075   3.692   3.748  0.1062 -0.4232  0.2439
    1SOL     OW 7893   1.154   1.021   3.539 -0.6052  0.0661 -0.8917
    1SOL    HW2 7894   1.156   0.928   3.517  0.6671  0.0154 -0.5981
    1SOL    HW3 7895   1.080   1.030   3.598 -0.3101 -0.8813 -0.3662
    1SOL    MW4 7896   1.144   1.010   3.544 -0.3984 -0.0654 -0.7837
    1SOL     OW 7897   0.742   3.693   3.373  0.0166  0.1711  0.1564
    1SOL    HW2 7898   0.703   3.667   3.289 -0.6099 -0.0053  0.5047
    1SOL    HW3 7899   0.692   3.645   3.439 -0.3210  1.2834  0.7182
    1SOL    MW4 7900   0.730   3.683   3.370 -0.1106  0.2944  0.2766
    1SOL     OW 7901   0.390   2.784   3.941 -0.3766  0.0090  0.2567
    1SOL    HW2 7902   0.480   2.808   3.963 -0.9312  0.8276  1.6642
    1SOL    HW3 7903   0.360   2.729   4.013 -1.1048 -0.0465 -0.0760
    1SOL    MW4 7904   0.398   2.780   3.953 -0.5459  0.1094  0.3986
    1SOL     OW 7905   1.885   0.758   3.101  0.6042  0.0049 -0.2800
    1SOL    HW2 7906   1.980   0.759   3.114  0.6423 -2.3287 -0.1760
    1SOL    HW3 7907   1.867   0.675   3.057 -1.3764  0.5329 -0.5403
    1SOL    MW4 7908   1.895   0.747   3.097  0.3480 -0.2333 -0.3009
    1SOL     OW 7909   0.730   3.865   4.098 -0.2439  0.3823 -0.1151
    1SOL    HW2 7910   0.775   3.949   4.089 -2.6606  1.6667 -0.5995
    1SOL    HW3 7911   0.717   3.836   4.008  1.3370 -0.9707  0.0638
    1SOL    MW4 7912   0.735   3.872   4.085 -0.3541  0.3734 -0.1554
    1SOL     OW 7913   0.759   1.330   3.655  0.1806 -0.2680 -0.1646
    1SOL    HW2 7914   0.697   1.387   3.609  0.7179 -1.8569 -3.0458
    1SOL    HW3 7915   0.729   1.329   3.745 -2.8370  0.5602 -1.0879
    1SOL    MW4 7916   0.747   1.337   3.661 -0.1467 -0.3684 -0.6664
    1SOL     OW 7917   3.418   3.416   3.690 -0.2279 -0.0403  0.0944
    1SOL    HW2 7918   3.466   3.420   3.608  0.5845  1.5874  0.6292
    1SOL    HW3 7919   3.477   3.373   3.751 -1.4904 -2.8561 -0.5778
    1SOL    MW4 7920   3.432   3.411   3.687 -0.2873 -0.1967  0.0763
    1SOL     OW 7921   1.394   0.195   3.479  0.2130 -0.0024 -0.4024
    1SOL    HW2 7922   1.344   0.273   3.506 -0.6714 -0.1359 -1.6493
    1SOL    HW3 7923   1.482   0.210   3.515  0.2904  1.9809 -1.3452
    1SOL    MW4 7924   1.399   0.207   3.487  0.1065  0.2416 -0.6912
    1SOL     OW 7925   1.273   0.808   4.202  0.1325  0.1421  0.0701
    1SOL    HW2 7926   1.281   0.879   4.138 -0.9185  0.7727  0.6415
    1SOL    HW3 7927   1.219   0.742   4.158 -0.4858  0.5210  0.2704
    1SOL    MW4 7928   1.267   0.808   4.188 -0.0876  0.2753  0.1721
    1SOL     OW 7929   0.680   1.285   3.131 -0.0346  0.1390 -0.3416
    1SOL    HW2 7930   0.698   1.292   3.037 -1.7428 -1.8863 -0.8743
    1SOL    HW3 7931   0.696   1.193   3.151  1.4527  0.8109  1.6259
    1SOL    MW4 7932   0.684   1.274   3.121 -0.0638 -0.0396 -0.1523
    1SOL     OW 7933   1.196   0.790   2.643 -0.3678  0.3197 -0.1985
    1SOL    HW2 7934   1.254   0.714   2.641  0.3883  0.9128 -1.0800
    1SOL    HW3 7935   1.112   0.757   2.611 -0.0663 -0.1597 -0.5022
    1SOL    MW4 7936   1.192   0.775   2.639 -0.2284  0.3347 -0.3548
    1SOL     OW 7937   1.647   4.652   2.766 -0.1606  0.2668 -0.4058
    1SOL    HW2 7938   1.628   4.692   2.851 -1.8868 -1.2814 -0.0204
    1SOL    HW3 7939   1.738   4.623   2.773 -0.2496  0.2492  0.8814
    1SOL    MW4 7940   1.656   4.653   2.779 -0.4002  0.0602 -0.1853
    1SOL     OW 7941   2.018   1.582   2.821 -0.2409  0.2946 -0.1803
    1SOL    HW2 7942   2.055   1.494   2.833 -0.6409  0.3006  1.1986
    1SOL    HW3 7943   1.967   1.597   2.900 -0.1092  1.8116 -0.3749
    1SOL    MW4 7944   2.016   1.572   2.833 -0.2763  0.4956 -0.0243
    1SOL     OW 7945   1.270   1.264   2.377 -0.0819  0.0756  0.3937
    1SOL    HW2 7946   1.333   1.257   2.449 -1.2193 -0.9382  1.2987
    1SOL    HW3 7947   1.319   1.307   2.307  0.9350  1.3944  1.8888
    1SOL    MW4 7948   1.285   1.269   2.377 -0.0979  0.1158  0.7105
    1SOL     OW 7949   2.170   1.513   4.817 -0.3890  0.7162  0.5900
    1SOL    HW2 7950   2.227   1.457   4.869  0.8052  0.6840 -0.7206
    1SOL    HW3 7951   2.217   1.525   4.735 -1.3239  2.4231  0.2909
    1SOL    MW4 7952   2.183   1.507   4.813 -0.3548  0.9372  0.3777
    1SOL     OW 7953   0.020   0.942   3.215  0.5409  0.2406  0.2180
    1SOL    HW2 7954   0.092   0.912   3.270  1.6188  1.9619 -0.2145
    1SOL    HW3 7955   0.001   0.868   3.157  0.6917 -0.8957  1.5902
    1SOL    MW4 7956   0.027   0.928   3.215  0.7033  0.3178  0.3421
    1SOL     OW 7957   1.541   1.705   3.277  0.4808 -0.0170 -0.1254
    1SOL    HW2 7958   1.584   1.674   3.357 -2.2523 -0.7302  1.1264
    1SOL    HW3 7959   1.551   1.800   3.278  1.5630 -0.1373  0.3955
    1SOL    MW4 7960   1.548   1.713   3.287  0.2630 -0.1270  0.1082
    1SOL     OW 7961   0.454   2.751   4.402 -0.1916  0.3198  0.0979
    1SOL    HW2 7962   0.538   2.786   4.372  0.2465  0.5278  1.5585
    1SOL    HW3 7963   0.455   2.763   4.497 -1.0752 -1.3898  0.3498
    1SOL    MW4 7964   0.466   2.757   4.410 -0.2504  0.1216  0.3238
    1SOL     OW 7965   2.775   3.035   3.547 -0.3565  0.2694  0.3131
    1SOL    HW2 7966   2.785   3.119   3.591 -0.2566  0.6991 -0.5199
    1SOL    HW3 7967   2.749   2.975   3.616 -2.0582  1.3308  0.6169
    1SOL    MW4 7968   2.773   3.038   3.562 -0.5679  0.4663  0.2432
    1SOL     OW 7969   1.093   2.586   3.628  0.2012  1.1016  0.2201
    1SOL    HW2 7970   1.078   2.679   3.607  0.1735  0.9232 -0.5527
    1SOL    HW3 7971   1.006   2.547   3.625  0.2297  1.0222  0.4255
    1SOL    MW4 7972   1.080   2.593   3.625  0.2012  1.0676  0.1454
    1SOL     OW 7973   1.518   2.979   3.037 -0.3738  0.5817 -0.4328
    1SOL    HW2 7974   1.613   2.986   3.047 -0.3402 -1.1869  0.8130
    1SOL    HW3 7975   1.484   3.057   3.080  0.5244  1.3235 -1.0475
    1SOL    MW4 7976   1.526   2.990   3.044 -0.2508  0.4463 -0.3495
    1SOL     OW 7977   2.247   1.282   3.664  0.5350  0.0922  0.1774
    1SOL    HW2 7978   2.173   1.338   3.687  0.5517  0.7500 -1.2709
    1SOL    HW3 7979   2.324   1.332   3.691  0.5054  0.1815  0.0987
    1SOL    MW4 7980   2.247   1.296   3.670  0.5331  0.1907 -0.0238
    1SOL     OW 7981   4.117   2.400   3.761 -0.2932 -0.1529  0.1540
    1SOL    HW2 7982   4.146   2.491   3.760  0.0343 -0.2353  1.4066
    1SOL    HW3 7983   4.173   2.357   3.826  0.8224 -1.6853 -1.7789
    1SOL    MW4 7984   4.128   2.406   3.770 -0.1035 -0.3657  0.0644
    1SOL     OW 7985   1.373   3.087   2.356  0.4371 -0.0106  0.0321
    1SOL    HW2 7986   1.446   3.093   2.417 -1.1191  0.3245  1.9028
    1SOL    HW3 7987   1.298   3.060   2.410 -0.7104 -0.9386 -1.9344
    1SOL    MW4 7988   1.373   3.084   2.371  0.0805 -0.0889  0.0193
    1SOL     OW 7989   0.592   3.280   4.366  0.9998 -0.1528 -0.1784
    1SOL    HW2 7990   0.638   3.222   4.427 -1.1732  0.0736  1.7611
    1SOL    HW3 7991   0.628   3.367   4.384  2.0238 -0.4297 -0.8731
    1SOL    MW4 7992   0.603   3.284   4.377  0.8482 -0.1595 -0.0143
    1SOL     OW 7993   0.801   2.954   3.070  0.3962 -0.4435 -0.0778
    1SOL    HW2 7994   0.839   3.042   3.080 -0.0830 -0.1018 -1.1585
    1SOL    HW3 7995   0.873   2.900   3.038  0.2499 -0.0253 -1.1455
    1SOL    MW4 7996   0.815   2.959   3.067  0.3136 -0.3436 -0.3614
    1SOL     OW 7997   0.815   3.967   3.368 -0.1319  0.5460 -0.4336
    1SOL    HW2 7998   0.824   3.996   3.277 -0.7189  0.6171 -0.4735
    1SOL    HW3 7999   0.773   3.882   3.362  0.3192  0.3094 -0.2501
    1SOL    MW4 8000   0.810   3.960   3.355 -0.1498  0.5240 -0.4148
    1SOL     OW 8001   2.255   0.187   2.066  0.5354  0.1589 -0.5790
    1SOL    HW2 8002   2.312   0.166   1.992 -1.5112 -0.0779 -2.1308
    1SOL    HW3 8003   2.195   0.253   2.032 -0.6051 -0.1377  0.8066
    1SOL    MW4 8004   2.255   0.193   2.052  0.1152  0.0885 -0.6008
    1SOL     OW 8005   0.801   4.409   3.941 -0.5530 -0.1729  0.0694
    1SOL    HW2 8006   0.790   4.481   4.004 -0.7423  0.9427 -1.2343
    1SOL    HW3 8007   0.891   4.417   3.911 -1.1666  0.7634 -1.5724
    1SOL    MW4 8008   0.811   4.419   3.946 -0.6590  0.0978 -0.3192
    1SOL     OW 8009   4.474   4.458   3.626 -0.5061 -0.4147 -0.4527
    1SOL    HW2 8010   4.465   4.492   3.538 -0.8549 -0.0654 -0.2813
    1SOL    HW3 8011   4.390   4.417   3.645 -0.9121  0.7042  0.2257
    1SOL    MW4 8012   4.462   4.457   3.617 -0.6056 -0.2208 -0.3405
    1SOL     OW 8013   2.170   3.829   3.888  0.0113  0.1937  0.3779
    1SOL    HW2 8014   2.217   3.905   3.921  2.0301 -0.4342 -1.0032
    1SOL    HW3 8015   2.147   3.779   3.967 -0.2295  1.5748  1.2031
    1SOL    MW4 8016   2.173   3.832   3.903  0.2460  0.2928  0.3047
    1SOL     OW 8017   2.957   3.555   3.634  0.1880  0.3701  0.7513
    1SOL    HW2 8018   3.052   3.561   3.645  0.4765 -1.4226 -0.6383
    1SOL    HW3 8019   2.934   3.632   3.581  0.5978  1.6938  2.4233
    1SOL    MW4 8020   2.966   3.566   3.629  0.2804  0.3083  0.7885
    1SOL     OW 8021   1.834   1.450   3.913 -0.5732  0.2872 -0.1127
    1SOL    HW2 8022   1.755   1.451   3.859 -1.2850 -0.5084  0.8884
    1SOL    HW3 8023   1.815   1.511   3.984 -1.3010 -1.6877  1.4761
    1SOL    MW4 8024   1.821   1.458   3.915 -0.7631 -0.0783  0.2289
    1SOL     OW 8025   1.618   3.529   3.365  0.4912  0.2038 -0.5808
    1SOL    HW2 8026   1.602   3.568   3.279 -0.7629  0.6356 -0.1576
    1SOL    HW3 8027   1.533   3.529   3.408  1.3334  1.1215  1.1387
    1SOL    MW4 8028   1.605   3.534   3.359  0.4369  0.3819 -0.2980
    1SOL     OW 8029   1.165   0.244   3.849  0.6616  0.3351 -0.4251
    1SOL    HW2 8030   1.189   0.155   3.874 -1.1281  0.5778  2.4319
    1SOL    HW3 8031   1.126   0.235   3.762  1.3303 -1.5125 -0.5666
    1SOL    MW4 8032   1.163   0.231   3.841  0.5138  0.1233 -0.0668
    1SOL     OW 8033   2.520   1.956   2.332 -0.3249 -0.3165  0.0255
    1SOL    HW2 8034   2.559   1.871   2.311  2.5288  0.8240  0.4061
    1SOL    HW3 8035   2.512   1.956   2.427  2.3300  0.8602  0.3000
    1SOL    MW4 8036   2.524   1.944   2.342  0.4020 -0.0106  0.1118
    1SOL     OW 8037   1.596   1.706   2.648 -0.2465 -0.2474  0.6505
    1SOL    HW2 8038   1.609   1.694   2.742  1.5657  0.9194  0.5643
    1SOL    HW3 8039   1.657   1.644   2.608 -1.3332 -1.0603  0.2237
    1SOL    MW4 8040   1.605   1.696   2.655 -0.1508 -0.2007  0.5829
    1SOL     OW 8041   0.972   1.517   4.567  0.1588 -0.2175 -0.5681
    1SOL    HW2 8042   0.961   1.548   4.477  0.3678  1.1254 -0.1425
    1SOL    HW3 8043   0.897   1.459   4.581 -0.6057  0.6025 -1.1773
    1SOL    MW4 8044   0.961   1.513   4.557  0.0855  0.0678 -0.5922
    1SOL     OW 8045   0.975   0.517   2.866 -0.6040  0.1223 -0.2715
    1SOL    HW2 8046   0.908   0.483   2.925 -1.8588  0.5652 -1.4182
    1SOL    HW3 8047   0.963   0.612   2.867 -0.8042  0.1148 -1.4347
    1SOL    MW4 8048   0.965   0.525   2.874 -0.7960  0.1798 -0.5760
    1SOL     OW 8049   1.080   1.844   4.060  0.1130  0.5434  0.0641
    1SOL    HW2 8050   1.107   1.923   4.108  2.7581  0.5982 -1.4533
    1SOL    HW3 8051   1.083   1.870   3.968 -0.8583 -0.8032 -0.3584
    1SOL    MW4 8052   1.084   1.858   4.055  0.3339  0.3730 -0.1917
    1SOL     OW 8053   2.826   1.055   4.864 -0.1634 -0.2556  0.0450
    1SOL    HW2 8054   2.873   1.064   4.781 -0.0403  0.3510  0.1768
    1SOL    HW3 8055   2.800   0.963   4.867  0.6865 -0.5115 -0.2058
    1SOL    MW4 8056   2.829   1.044   4.854 -0.0350 -0.2093  0.0291
    1SOL     OW 8057   1.028   2.495   3.377 -0.7500 -0.2268  0.4851
    1SOL    HW2 8058   0.944   2.539   3.383 -0.9969 -0.8609  1.8072
    1SOL    HW3 8059   1.056   2.483   3.468  0.2564 -0.9806  0.0877
    1SOL    MW4 8060   1.021   2.499   3.390 -0.6498 -0.4101  0.6073
    1SOL     OW 8061   2.319   2.010   3.345 -0.5282 -0.4565 -0.1377
    1SOL    HW2 8062   2.304   2.100   3.373  1.2371 -0.4503  0.8726
    1SOL    HW3 8063   2.331   2.015   3.250  0.8455  0.5676  0.0771
    1SOL    MW4 8064   2.319   2.022   3.336 -0.1140 -0.3207  0.0238
    1SOL     OW 8065   1.772   3.132   3.672  0.2897  0.0078 -0.0967
    1SOL    HW2 8066   1.762   3.172   3.585 -0.2721  0.2582  0.0762
    1SOL    HW3 8067   1.835   3.189   3.716  0.2160  0.1576 -0.1801
    1SOL    MW4 8068   1.779   3.145   3.666  0.2059  0.0610 -0.0849
    1SOL     OW 8069   1.997   2.529   3.483 -0.0360  0.3845  0.0840
    1SOL    HW2 8070   1.944   2.545   3.561  0.1355  1.4561 -0.0001
    1SOL    HW3 8071   2.086   2.518   3.516  0.0081  0.6536  0.0557
    1SOL    MW4 8072   2.002   2.530   3.498 -0.0076  0.5612  0.0691
    1SOL     OW 8073   0.410   3.456   4.222 -0.2968  0.4319  0.2330
    1SOL    HW2 8074   0.440   3.439   4.133 -1.6627 -0.6051 -0.0643
    1SOL    HW3 8075   0.461   3.396   4.276 -0.4950  0.0009 -0.0459
    1SOL    MW4 8076   0.420   3.446   4.217 -0.5032  0.2382  0.1569
    1SOL     OW 8077   0.315   2.880   3.231 -0.5488 -0.3392 -0.0318
    1SOL    HW2 8078   0.371   2.951   3.262 -0.9012  0.3263 -0.8885
    1SOL    HW3 8079   0.265   2.854   3.309 -0.1123  0.0588  0.3892
    1SOL    MW4 8080   0.316   2.886   3.246 -0.5377 -0.1986 -0.0892
    1SOL     OW 8081   1.978   3.253   4.267 -0.0241  0.1059  0.2932
    1SOL    HW2 8082   2.058   3.288   4.230  0.5451 -1.4201  0.0384
    1SOL    HW3 8083   1.909   3.283   4.208  0.6814 -0.8541 -1.0399
    1SOL    MW4 8084   1.979   3.262   4.254  0.1440 -0.2220  0.0834
    1SOL     OW 8085   1.403   3.828   2.791  0.3310 -0.2152 -0.0758
    1SOL    HW2 8086   1.399   3.883   2.870 -1.8964 -0.7836  0.2279
    1SOL    HW3 8087   1.493   3.838   2.760  1.2215  0.1229  2.4741
    1SOL    MW4 8088   1.415   3.837   2.798  0.1547 -0.2458  0.3006
    1SOL     OW 8089   1.162   3.006   3.432  0.2387  0.5487  0.0752
    1SOL    HW2 8090   1.254   3.032   3.441  0.3299  1.1597 -2.1702
    1SOL    HW3 8091   1.166   2.912   3.411  0.2579  0.2412  1.4094
    1SOL    MW4 8092   1.175   2.997   3.430  0.2533  0.5887 -0.0451
    1SOL     OW 8093   1.803   3.641   4.078  0.7976  0.4659  0.1388
    1SOL    HW2 8094   1.791   3.546   4.075  0.3382  0.5475 -0.8425
    1SOL    HW3 8095   1.746   3.671   4.149  0.8720  0.0207  0.3861
    1SOL    MW4 8096   1.794   3.632   4.087  0.7467  0.4179  0.0415
    1SOL     OW 8097   0.604   4.102   3.742 -0.5947  0.0798  0.2298
    1SOL    HW2 8098   0.672   4.169   3.741 -0.2987 -0.2130 -1.8456
    1SOL    HW3 8099   0.536   4.137   3.800  1.0038  0.6748  1.7909
    1SOL    MW4 8100   0.604   4.115   3.750 -0.3448  0.1197  0.1619
    1SOL     OW 8101   0.305   4.578   3.000  0.1998  0.3325 -0.2851
    1SOL    HW2 8102   0.309   4.672   3.020 -0.8418  0.0665  1.2694
    1SOL    HW3 8103   0.396   4.551   2.993  0.5419  1.1375  0.9294
    1SOL    MW4 8104   0.317   4.587   3.002  0.1075  0.4039  0.0803
    1SOL     OW 8105   3.042   0.207   4.033 -0.1495  0.1798  0.2670
    1SOL    HW2 8106   3.094   0.143   3.984  0.2868  0.3431  0.5158
    1SOL    HW3 8107   3.079   0.292   4.008 -0.2345  0.2899  0.5141
    1SOL    MW4 8108   3.054   0.210   4.023 -0.1030  0.2159  0.3328
    1SOL     OW 8109   1.385   1.135   3.406  0.0665  0.1642 -0.0319
    1SOL    HW2 8110   1.351   1.208   3.354 -1.1776 -0.0476  0.4805
    1SOL    HW3 8111   1.317   1.117   3.470  0.5533 -1.1825  0.1171
    1SOL    MW4 8112   1.372   1.142   3.407 -0.0334 -0.0414  0.0551
    1SOL     OW 8113   3.442   1.110   4.321  0.5126 -0.0205  0.2735
    1SOL    HW2 8114   3.499   1.106   4.244  2.5541 -0.0425  1.7615
    1SOL    HW3 8115   3.440   1.020   4.355 -0.1044  0.0575  0.4576
    1SOL    MW4 8116   3.449   1.097   4.315  0.7005 -0.0131  0.4940
    1SOL     OW 8117   2.668   4.455   3.576  0.2611  0.4670  0.7065
    1SOL    HW2 8118   2.713   4.438   3.494 -2.5432 -0.2449 -0.7383
    1SOL    HW3 8119   2.668   4.550   3.584  0.5847  0.5396 -0.1063
    1SOL    MW4 8120   2.674   4.465   3.566 -0.0660  0.3824  0.4086
    1SOL     OW 8121   2.455   0.570   2.313 -0.0974  0.4100 -0.1096
    1SOL    HW2 8122   2.449   0.499   2.250 -1.0943 -0.0012  0.4264
    1SOL    HW3 8123   2.544   0.565   2.347 -0.4330 -1.2112  0.6198
    1SOL    MW4 8124   2.466   0.560   2.309 -0.2728  0.1418  0.0572
    1SOL     OW 8125   2.660   3.986   3.528 -0.4447 -0.5383 -0.0096
    1SOL    HW2 8126   2.607   4.057   3.491  0.0024  0.2558  0.8645
    1SOL    HW3 8127   2.597   3.916   3.545 -1.1404  0.2001  0.5185
    1SOL    MW4 8128   2.645   3.987   3.525 -0.4776 -0.3362  0.1755
    1SOL     OW 8129   0.028   0.233   3.601  0.2279 -0.4742  0.0405
    1SOL    HW2 8130  -0.064   0.211   3.587 -0.2708  1.1566  0.6505
    1SOL    HW3 8131   0.072   0.204   3.520 -1.1000  0.3763 -1.0073
    1SOL    MW4 8132   0.022   0.226   3.588 -0.0131 -0.1468 -0.0172
    1SOL     OW 8133   3.256   2.390   3.742  0.4644 -0.1394 -0.1356
    1SOL    HW2 8134   3.338   2.349   3.717  1.3386  1.5821 -0.1920
    1SOL    HW3 8135   3.262   2.402   3.837 -0.1960 -1.0051  0.0224
    1SOL    MW4 8136   3.267   2.386   3.751  0.4926 -0.0265 -0.1223
    1SOL     OW 8137   1.380   1.895   3.728  0.1688  0.3032  0.2958
    1SOL    HW2 8138   1.473   1.913   3.714 -0.2202  0.4331 -2.3291
    1SOL    HW3 8139   1.357   1.832   3.660 -1.4973 -0.3391  1.4167
    1SOL    MW4 8140   1.389   1.889   3.717 -0.1023  0.2356  0.0975
    1SOL     OW 8141   1.591   1.781   3.984 -0.0165 -0.2748  0.1720
    1SOL    HW2 8142   1.592   1.774   3.888 -1.2767 -3.3256  0.3462
    1SOL    HW3 8143   1.498   1.779   4.007  0.2804  0.3435  1.4986
    1SOL    MW4 8144   1.579   1.780   3.974 -0.1436 -0.5957  0.3700
    1SOL     OW 8145   2.228   2.001   4.937 -0.1214  0.0733  0.4884
    1SOL    HW2 8146   2.169   1.925   4.935  0.3015 -0.2411 -0.4273
    1SOL    HW3 8147   2.265   2.000   5.026 -0.9848 -0.1205  0.8491
    1SOL    MW4 8148   2.225   1.991   4.949 -0.1795  0.0061  0.4148
    1SOL     OW 8149   2.061   1.939   2.707  0.1733  0.1298  0.2880
    1SOL    HW2 8150   2.036   1.942   2.615 -0.0316  0.8085  0.3632
    1SOL    HW3 8151   2.061   1.846   2.729 -1.1000  0.0425 -0.0403
    1SOL    MW4 8152   2.057   1.927   2.698 -0.0217  0.2077  0.2546
    1SOL     OW 8153   2.306   1.270   4.928 -0.1614 -0.2421  1.0992
    1SOL    HW2 8154   2.399   1.254   4.944  0.0746 -1.0615 -0.9744
    1SOL    HW3 8155   2.268   1.182   4.922 -0.5945  0.0445 -0.6129
    1SOL    MW4 8156   2.313   1.256   4.929 -0.1874 -0.3124  0.5999
    1SOL     OW 8157   1.744   1.881   3.019 -0.0179  0.1141  0.1670
    1SOL    HW2 8158   1.649   1.890   3.017  0.0612  1.3579  1.2886
    1SOL    HW3 8159   1.776   1.956   2.969  0.3845  0.1852  0.5259
    1SOL    MW4 8160   1.736   1.892   3.012  0.0457  0.2877  0.3622
    1SOL     OW 8161   2.413   2.025   3.060 -0.2029 -0.0890  0.4759
    1SOL    HW2 8162   2.400   2.099   3.000 -1.0718  0.0914  0.8885
    1SOL    HW3 8163   2.501   1.994   3.040 -0.7811 -0.5387 -1.4761
    1SOL    MW4 8164   2.423   2.030   3.049 -0.3939 -0.1245  0.2728
    1SOL     OW 8165   2.924   3.546   4.164  0.0867  0.2665 -0.1703
    1SOL    HW2 8166   2.881   3.489   4.099  0.2888  0.7967 -0.7746
    1SOL    HW3 8167   2.949   3.486   4.234  1.7062 -0.6950 -1.5110
    1SOL    MW4 8168   2.921   3.530   4.165  0.3269  0.2096 -0.4268
    1SOL     OW 8169   2.105   4.554   3.955  0.3607  0.1137  0.0239
    1SOL    HW2 8170   2.066   4.534   4.040 -0.6201  0.0039 -0.4437
    1SOL    HW3 8171   2.118   4.469   3.914  0.1879  0.1959 -0.2072
    1SOL    MW4 8172   2.101   4.540   3.960  0.2086  0.1101 -0.0682
    1SOL     OW 8173   1.353   3.455   3.043  0.1097  0.1159 -0.0481
    1SOL    HW2 8174   1.270   3.487   3.079  0.4580 -0.2571  1.1078
    1SOL    HW3 8175   1.373   3.376   3.094  0.9428 -0.0490 -0.6176
    1SOL    MW4 8176   1.345   3.449   3.055  0.2656  0.0448  0.0291
    1SOL     OW 8177   1.820   0.426   4.381 -0.2194 -0.0009 -0.4726
    1SOL    HW2 8178   1.727   0.401   4.381 -0.6583  1.5545  0.1465
    1SOL    HW3 8179   1.866   0.346   4.357 -1.6547 -1.0852  0.2708
    1SOL    MW4 8180   1.814   0.412   4.378 -0.4668  0.0613 -0.2928
    1SOL     OW 8181   2.087   4.288   3.875  0.0958 -0.4415 -0.4603
    1SOL    HW2 8182   2.129   4.232   3.809  0.1749  0.6882 -1.3714
    1SOL    HW3 8183   2.071   4.229   3.949 -1.8595 -2.2085 -2.2418
    1SOL    MW4 8184   2.091   4.273   3.876 -0.1516 -0.5255 -0.8154
    1SOL     OW 8185   1.823   2.404   2.980 -0.0915 -0.1017 -0.4540
    1SOL    HW2 8186   1.749   2.402   2.919 -1.0837  0.4885  0.6909
    1SOL    HW3 8187   1.895   2.442   2.930 -0.6532 -0.3977 -1.5009
    1SOL    MW4 8188   1.823   2.409   2.966 -0.2967 -0.0627 -0.4411
    1SOL     OW 8189   1.345   3.701   3.952 -0.6136  0.2030  0.5336
    1SOL    HW2 8190   1.333   3.735   3.864  0.5052 -2.7758 -0.8137
    1SOL    HW3 8191   1.308   3.613   3.950 -0.2348 -0.0532  2.9386
    1SOL    MW4 8192   1.339   3.694   3.940 -0.4160 -0.2239  0.6731
    1SOL     OW 8193   2.872   1.803   3.584 -0.7884  0.0992  0.1377
    1SOL    HW2 8194   2.913   1.730   3.538 -1.0965  0.0389 -0.0477
    1SOL    HW3 8195   2.928   1.820   3.659  1.2775  1.9933 -1.7480
    1SOL    MW4 8196   2.885   1.796   3.588 -0.5565  0.3412 -0.1357
    1SOL     OW 8197   1.277   1.353   3.236 -0.2106 -0.1204  0.3242
    1SOL    HW2 8198   1.186   1.373   3.259  0.1849  3.2008 -0.7182
    1SOL    HW3 8199   1.312   1.435   3.203  2.3344 -2.0806 -2.1277
    1SOL    MW4 8200   1.269   1.366   3.234  0.1774  0.0591 -0.1369
    1SOL     OW 8201   1.437   1.946   2.998 -0.5907 -0.2835 -0.3896
    1SOL    HW2 8202   1.467   2.025   3.044 -0.3252 -0.9806  0.6344
    1SOL    HW3 8203   1.415   1.977   2.910  1.7954  0.4958 -0.7426
    1SOL    MW4 8204   1.438   1.961   2.992 -0.2409 -0.2726 -0.3014
    1SOL     OW 8205   1.075   0.329   3.113  0.0096  0.0571 -0.3061
    1SOL    HW2 8206   1.132   0.402   3.090  0.1122 -0.0490 -0.3849
    1SOL    HW3 8207   0.987   0.360   3.090 -0.0899  0.6396  0.8500
    1SOL    MW4 8208   1.071   0.343   3.107  0.0100  0.1199 -0.1640
    1SOL     OW 8209   2.000   2.277   3.323 -0.0588 -0.0341  0.4082
    1SOL    HW2 8210   1.985   2.367   3.350  0.8522 -0.1154  1.1626
    1SOL    HW3 8211   1.986   2.225   3.402  0.3370 -0.4717  0.1931
    1SOL    MW4 8212   1.996   2.282   3.337  0.1136 -0.1025  0.4792
    1SOL     OW 8213   2.776   0.548   3.093 -0.0838  0.2757 -0.2157
    1SOL    HW2 8214   2.768   0.461   3.133  0.3497  0.0503 -0.6125
    1SOL    HW3 8215   2.868   0.553   3.065 -0.0699  0.9215 -0.0536
    1SOL    MW4 8216   2.787   0.537   3.094 -0.0248  0.3312 -0.2465
    1SOL     OW 8217   2.799   0.996   3.434  0.0215 -0.4512  0.1056
    1SOL    HW2 8218   2.816   1.057   3.506 -1.5163 -1.0218  0.9684
    1SOL    HW3 8219   2.706   1.007   3.414  0.1236 -1.2823 -0.8792
    1SOL    MW4 8220   2.789   1.006   3.441 -0.1681 -0.6362  0.0894
    1SOL     OW 8221   1.308   2.345   2.557  0.1896 -0.2047  0.4787
    1SOL    HW2 8222   1.274   2.433   2.541  0.4130 -0.0453  0.8667
    1SOL    HW3 8223   1.295   2.331   2.651 -1.8750 -1.4554  0.0476
    1SOL    MW4 8224   1.302   2.355   2.567 -0.0533 -0.3486  0.4730
    1SOL     OW 8225   2.714   2.805   3.698 -0.3205 -0.0116 -0.0371
    1SOL    HW2 8226   2.699   2.787   3.791  0.3919 -0.5127 -0.0089
    1SOL    HW3 8227   2.659   2.742   3.652  1.0534 -1.3263  0.0613
    1SOL    MW4 8228   2.705   2.794   3.704 -0.0453 -0.2511 -0.0200
    1SOL     OW 8229   1.431   1.562   3.744  0.3105  0.0433 -0.1376
    1SOL    HW2 8230   1.416   1.541   3.836  0.1467  0.3704 -0.0899
    1SOL    HW3 8231   1.383   1.495   3.696 -0.3679  0.4162  0.0124
    1SOL    MW4 8232   1.423   1.551   3.750  0.1996  0.1358 -0.1116
    1SOL     OW 8233   2.314   3.557   3.209  0.3849  0.2057  0.0553
    1SOL    HW2 8234   2.386   3.592   3.262  0.9690  0.0470 -0.6328
    1SOL    HW3 8235   2.253   3.631   3.200  1.1885  0.7922 -0.6381
    1SOL    MW4 8236   2.315   3.572   3.215  0.5682  0.2620 -0.1271
    1SOL     OW 8237   2.926   2.563   4.067  0.5399  0.1577  0.2975
    1SOL    HW2 8238   2.900   2.556   3.976 -0.6233 -1.7701  0.7647
    1SOL    HW3 8239   2.875   2.637   4.101  0.0298  0.0690 -0.2737
    1SOL    MW4 8240   2.916   2.572   4.060  0.3192 -0.1085  0.2837
    1SOL     OW 8241   2.252   1.169   3.405 -0.1461  0.5055 -0.0818
    1SOL    HW2 8242   2.344   1.147   3.420  0.0789  1.3256 -0.2397
    1SOL    HW3 8243   2.229   1.224   3.480 -0.8046 -0.5587  0.4984
    1SOL    MW4 8244   2.261   1.173   3.417 -0.2031  0.4734 -0.0262
    1SOL     OW 8245   1.889   1.854   3.871 -0.1983  0.2160 -0.0637
    1SOL    HW2 8246   1.910   1.938   3.914  0.1781 -0.3110  0.8025
    1SOL    HW3 8247   1.967   1.801   3.885 -0.6277 -0.4437 -0.1898
    1SOL    MW4 8248   1.902   1.858   3.879 -0.2053  0.0594  0.0341
    1SOL     OW 8249   1.647   2.063   4.027  0.3465  0.3589 -0.1935
    1SOL    HW2 8250   1.741   2.079   4.030  0.4761 -0.2374 -0.9034
    1SOL    HW3 8251   1.638   1.969   4.011 -0.4026 -0.0781  2.5946
    1SOL    MW4 8252   1.658   2.053   4.025  0.2648  0.2224  0.0811
    1SOL     OW 8253   2.783   2.614   2.476  0.2775  0.0438 -0.3494
    1SOL    HW2 8254   2.824   2.648   2.396  1.1226  2.4952  1.0808
    1SOL    HW3 8255   2.841   2.543   2.504  1.4503  0.9496 -0.4587
    1SOL    MW4 8256   2.796   2.609   2.469  0.5436  0.4869 -0.1755
    1SOL     OW 8257   2.068   0.225   3.563 -0.0805 -0.5744 -0.1649
    1SOL    HW2 8258   2.153   0.230   3.605 -0.1732 -1.4144  0.1305
    1SOL    HW3 8259   2.087   0.198   3.473 -0.0169 -0.5217 -0.1673
    1SOL    MW4 8260   2.081   0.222   3.557 -0.0844 -0.6783 -0.1264
    1SOL     OW 8261   2.311   2.509   2.336  0.1185  0.0489 -0.5858
    1SOL    HW2 8262   2.362   2.428   2.345 -0.2650  0.0106  1.4963
    1SOL    HW3 8263   2.333   2.560   2.415 -2.0086  0.6309 -0.3521
    1SOL    MW4 8264   2.321   2.505   2.348 -0.2127  0.1206 -0.2804
    1SOL     OW 8265   1.593   2.725   2.794 -0.0626 -0.0433 -0.1139
    1SOL    HW2 8266   1.519   2.746   2.851  0.8446  0.9265  0.7276
    1SOL    HW3 8267   1.554   2.713   2.707 -1.2977 -0.3372  0.4682
    1SOL    MW4 8268   1.578   2.726   2.790 -0.1059  0.0455  0.0739
    1SOL     OW 8269   3.069   3.928   3.722  0.7707  0.1727  0.7759
    1SOL    HW2 8270   3.068   4.014   3.681  0.9214  0.9861  2.4483
    1SOL    HW3 8271   3.155   3.922   3.763  0.7168 -0.7291  0.7724
    1SOL    MW4 8272   3.080   3.938   3.722  0.7839  0.1609  0.9959
    1SOL     OW 8273   2.997   3.711   3.047  0.1445  0.2153 -0.0233
    1SOL    HW2 8274   3.008   3.675   3.135 -2.3208  1.4440  0.8508
    1SOL    HW3 8275   3.074   3.767   3.034  0.2069  0.5556  1.6320
    1SOL    MW4 8276   3.008   3.714   3.057 -0.1726  0.4225  0.3107
    1SOL     OW 8277   2.261   3.201   3.959 -0.0457  0.6687  0.2937
    1SOL    HW2 8278   2.286   3.111   3.979  0.9232  0.8560 -0.0897
    1SOL    HW3 8279   2.254   3.203   3.864 -0.3532  0.9283  0.3210
    1SOL    MW4 8280   2.263   3.189   3.949  0.0417  0.7277  0.2468
    1SOL     OW 8281   2.571   4.451   3.925  0.5408 -0.5490  0.4290
    1SOL    HW2 8282   2.580   4.541   3.893  0.0572 -0.7026 -0.1609
    1SOL    HW3 8283   2.654   4.432   3.968  0.3776  0.4316  1.1921
    1SOL    MW4 8284   2.583   4.460   3.926  0.4551 -0.4401  0.4518
    1SOL     OW 8285   2.081   3.956   2.255  0.0639  0.1100  0.2370
    1SOL    HW2 8286   2.066   4.042   2.294  0.2409  0.2474  0.0114
    1SOL    HW3 8287   2.131   3.907   2.320 -3.1246 -1.0777  1.8646
    1SOL    MW4 8288   2.086   3.961   2.268 -0.3333 -0.0288  0.4218
    1SOL     OW 8289   2.134   3.404   3.354  0.2858 -0.2129  0.0265
    1SOL    HW2 8290   2.154   3.311   3.360  1.9344  0.1259 -0.1411
    1SOL    HW3 8291   2.219   3.447   3.342 -0.3532  1.3924  1.0366
    1SOL    MW4 8292   2.148   3.397   3.353  0.4189  0.0439  0.1376
    1SOL     OW 8293   2.448   1.873   4.258  0.4098 -0.1075  0.5682
    1SOL    HW2 8294   2.544   1.871   4.263  0.4528 -0.6638 -0.4334
    1SOL    HW3 8295   2.420   1.885   4.349  1.4419  0.6528  0.8066
    1SOL    MW4 8296   2.457   1.874   4.270  0.5515 -0.0806  0.4673
    1SOL     OW 8297   1.058   0.259   2.790  0.2742  0.3679  0.2564
    1SOL    HW2 8298   1.144   0.248   2.829 -0.3665 -2.0415  1.0912
    1SOL    HW3 8299   1.030   0.346   2.818  0.8545 -0.3216  3.1871
    1SOL    MW4 8300   1.066   0.269   2.799  0.2663 -0.0409  0.7532
    1SOL     OW 8301   3.410   0.773   3.401  0.1231 -0.3308 -0.0871
    1SOL    HW2 8302   3.330   0.750   3.354  0.0026  2.2202 -1.2183
    1SOL    HW3 8303   3.477   0.717   3.363 -1.0341 -2.1902  0.5786
    1SOL    MW4 8304   3.408   0.763   3.390 -0.0458 -0.2396 -0.1485
    1SOL     OW 8305   2.710   0.442   3.865 -0.1589 -0.3280  0.0609
    1SOL    HW2 8306   2.652   0.414   3.794 -0.2807 -0.7956  0.3446
    1SOL    HW3 8307   2.726   0.362   3.916 -1.6609  0.4079  1.6989
    1SOL    MW4 8308   2.704   0.428   3.862 -0.3731 -0.2926  0.3142
    1SOL     OW 8309   2.467   4.165   3.443 -0.3705  0.5783 -0.2592
    1SOL    HW2 8310   2.431   4.222   3.511 -0.1214 -0.8924  1.1413
    1SOL    HW3 8311   2.412   4.087   3.445  1.1128 -0.4974 -0.0326
    1SOL    MW4 8312   2.455   4.163   3.452 -0.1419  0.2422 -0.0443
    1SOL     OW 8313   3.395   1.064   3.080  0.1390 -0.1830 -0.3657
    1SOL    HW2 8314   3.324   1.049   3.143 -0.7458  1.5625 -0.9402
    1SOL    HW3 8315   3.416   0.976   3.047 -0.3836 -0.9461  1.2647
    1SOL    MW4 8316   3.388   1.050   3.084 -0.0467 -0.0533 -0.2265
    1SOL     OW 8317   3.557   0.654   3.208  0.9157  0.0066 -0.0011
    1SOL    HW2 8318   3.544   0.575   3.260  0.6199  1.4466  2.1842
    1SOL    HW3 8319   3.651   0.656   3.191  0.5270 -2.4180 -2.7547
    1SOL    MW4 8320   3.568   0.644   3.213  0.8254 -0.1233 -0.0761
    1SOL     OW 8321   3.165   1.592   3.665 -0.1895  0.0972  0.2345
    1SOL    HW2 8322   3.112   1.610   3.587  0.4134 -0.2327 -0.2618
    1SOL    HW3 8323   3.110   1.533   3.717 -0.5190  0.1583 -0.0353
    1SOL    MW4 8324   3.150   1.586   3.661 -0.1535  0.0616  0.1333
    1SOL     OW 8325   1.499   1.815   4.341  0.7351  0.0393  0.2896
    1SOL    HW2 8326   1.446   1.788   4.266  0.8639  1.6124 -0.3777
    1SOL    HW3 8327   1.506   1.736   4.395 -0.3634 -0.7820 -0.7513
    1SOL    MW4 8328   1.493   1.801   4.338  0.6071  0.1385  0.0648
    1SOL     OW 8329   0.686   2.908   4.715  0.0777 -0.7258  0.0067
    1SOL    HW2 8330   0.718   2.960   4.789 -2.3618  0.7323  0.0992
    1SOL    HW3 8331   0.719   2.820   4.731  0.4549 -0.2002  2.2682
    1SOL    MW4 8332   0.695   2.904   4.727 -0.1944 -0.4640  0.3166
    1SOL     OW 8333   1.139   2.095   4.185 -0.3830  0.4576 -0.0416
    1SOL    HW2 8334   1.087   2.148   4.124  0.4905  0.4445 -0.8069
    1SOL    HW3 8335   1.229   2.106   4.156 -0.1679 -1.2634 -0.0619
    1SOL    MW4 8336   1.144   2.104   4.173 -0.2393  0.2286 -0.1450
    1SOL     OW 8337   1.831   1.617   3.066  0.2229  0.2849  0.1514
    1SOL    HW2 8338   1.792   1.601   3.152 -0.0567  0.0741 -0.0108
    1SOL    HW3 8339   1.809   1.708   3.047  0.0752  0.2606  0.1993
    1SOL    MW4 8340   1.823   1.627   3.075  0.1667  0.2538  0.1364
    1SOL     OW 8341   0.238   2.567   2.552  0.1319  0.0441 -0.4349
    1SOL    HW2 8342   0.194   2.544   2.634  0.5416 -0.1653 -0.2762
    1SOL    HW3 8343   0.224   2.662   2.544 -0.3153 -0.0154 -0.3644
    1SOL    MW4 8344   0.230   2.577   2.562  0.1270  0.0083 -0.4046
    1SOL     OW 8345   2.773   3.025   3.133  0.3034 -0.0453  0.3261
    1SOL    HW2 8346   2.724   2.944   3.151  0.9181 -0.4367  0.2601
    1SOL    HW3 8347   2.845   3.024   3.196  1.5703 -0.6529 -1.0845
    1SOL    MW4 8348   2.776   3.014   3.143  0.5517 -0.1774  0.1316
    1SOL     OW 8349   4.187   3.864   4.558  0.0266 -0.7639 -0.1459
    1SOL    HW2 8350   4.142   3.942   4.590 -0.7563 -0.8804 -0.9628
    1SOL    HW3 8351   4.270   3.897   4.524  0.4269 -0.5060  1.0465
    1SOL    MW4 8352   4.192   3.879   4.558 -0.0238 -0.7455 -0.0963
    1SOL     OW 8353   1.765   1.467   3.311 -0.3085 -0.8371  0.2424
    1SOL    HW2 8354   1.787   1.388   3.261 -3.3857 -1.2021 -0.6840
    1SOL    HW3 8355   1.682   1.446   3.354  0.0006  1.0908  1.8795
    1SOL    MW4 8356   1.757   1.454   3.310 -0.6738 -0.6310  0.3359
    1SOL     OW 8357   1.778   3.679   3.543  0.0716  0.5346  0.7536
    1SOL    HW2 8358   1.704   3.628   3.511 -0.5465  1.3656  0.8475
    1SOL    HW3 8359   1.835   3.615   3.585 -0.0213 -0.2779 -0.3555
    1SOL    MW4 8360   1.776   3.664   3.545 -0.0222  0.5369  0.6196
    1SOL     OW 8361   1.785   2.818   3.968 -0.2302  0.8473  0.0036
    1SOL    HW2 8362   1.766   2.836   3.876  0.2023 -1.2312 -0.5338
    1SOL    HW3 8363   1.849   2.884   3.994 -0.7678  1.7855 -1.0273
    1SOL    MW4 8364   1.791   2.829   3.960 -0.2440  0.6967 -0.2036
    1SOL     OW 8365   2.289   4.599   3.559 -0.6376 -0.2539 -0.1957
    1SOL    HW2 8366   2.340   4.522   3.585 -1.1024 -0.8428 -1.0370
    1SOL    HW3 8367   2.317   4.617   3.469  0.1837  1.1523  0.3137
    1SOL    MW4 8368   2.300   4.591   3.551 -0.5906 -0.1459 -0.2394
    1SOL     OW 8369   3.999   0.478   3.818 -0.8257 -0.0437  0.2400
    1SOL    HW2 8370   4.064   0.408   3.811  1.0811  1.6026  0.8061
    1SOL    HW3 8371   3.922   0.435   3.855  2.0821 -0.9008  5.9345
    1SOL    MW4 8372   3.997   0.463   3.822 -0.1905  0.0605  1.0660
    1SOL     OW 8373   1.745   4.225   4.718 -0.1796 -0.7380  0.0894
    1SOL    HW2 8374   1.807   4.229   4.645 -0.5194  1.5756 -0.1061
    1SOL    HW3 8375   1.718   4.316   4.732 -0.6863 -1.2501  2.6237
    1SOL    MW4 8376   1.749   4.237   4.710 -0.2913 -0.5002  0.3982
    1SOL     OW 8377   1.927   0.064   3.792  0.4829 -0.2184 -0.3934
    1SOL    HW2 8378   1.987   0.107   3.731  1.1771  0.0416  0.4501
    1SOL    HW3 8379   1.981  -0.003   3.835  0.9105  1.6988  2.2157
    1SOL    MW4 8380   1.942   0.061   3.790  0.6309  0.0689  0.0620
    1SOL     OW 8381   3.028   3.483   2.448  0.1002  0.4255 -0.1891
    1SOL    HW2 8382   3.056   3.573   2.465  0.1872  0.5927 -1.1527
    1SOL    HW3 8383   3.018   3.479   2.353 -0.7739 -0.3344 -0.0724
    1SOL    MW4 8384   3.031   3.494   2.437 -0.0036  0.3471 -0.3006
    1SOL     OW 8385   2.519   3.682   2.628 -0.1815  0.2058  0.0532
    1SOL    HW2 8386   2.605   3.723   2.630 -0.4743  0.8254 -0.0504
    1SOL    HW3 8387   2.500   3.670   2.535 -0.4263  0.5269  0.0617
    1SOL    MW4 8388   2.528   3.686   2.616 -0.2525  0.3302  0.0408
    1SOL     OW 8389   3.952   0.799   3.619  0.1557 -0.1601 -0.1426
    1SOL    HW2 8390   3.878   0.761   3.668 -0.7297  0.8184 -0.7234
    1SOL    HW3 8391   3.921   0.805   3.529  1.1905 -0.3629 -0.5185
    1SOL    MW4 8392   3.938   0.794   3.614  0.1755 -0.0578 -0.2689
    1SOL     OW 8393   0.234   2.073   4.447  0.5029 -0.1697  0.6945
    1SOL    HW2 8394   0.241   2.168   4.444 -1.2557 -0.0374  0.4173
    1SOL    HW3 8395   0.321   2.044   4.476  1.7748  1.3680 -1.4267
    1SOL    MW4 8396   0.247   2.082   4.450  0.4387  0.0508  0.3786
    1SOL     OW 8397   3.229   3.982   3.309 -0.1699 -0.0226  0.2557
    1SOL    HW2 8398   3.134   3.990   3.321 -0.1316 -0.3690  0.8192
    1SOL    HW3 8399   3.248   4.038   3.234 -0.6423  1.0186  0.9002
    1SOL    MW4 8400   3.219   3.991   3.301 -0.2272  0.0689  0.4148
    1SOL     OW 8401   0.686   0.513   3.667 -0.4129  0.1466 -0.0798
    1SOL    HW2 8402   0.605   0.475   3.702 -0.9033  1.6983  0.5159
    1SOL    HW3 8403   0.732   0.546   3.744  0.4464 -0.0696 -0.4950
    1SOL    MW4 8404   0.681   0.513   3.682 -0.3642  0.3227 -0.0560
    1SOL     OW 8405   4.152   0.691   3.898 -0.0252  0.2678 -0.7541
    1SOL    HW2 8406   4.099   0.771   3.900  0.0567  0.4121 -3.4131
    1SOL    HW3 8407   4.092   0.624   3.864  0.5485 -0.3254 -0.5911
    1SOL    MW4 8408   4.137   0.693   3.894  0.0620  0.2086 -1.0836
    1SOL     OW 8409   3.941   4.096   3.568 -0.1415 -0.3133 -0.2131
    1SOL    HW2 8410   3.904   4.015   3.604  1.4575 -0.6092  0.8043
    1SOL    HW3 8411   4.035   4.080   3.563  0.2870  1.6895  0.5938
    1SOL    MW4 8412   3.948   4.083   3.572  0.1259 -0.0882  0.0277
    1SOL     OW 8413   0.284   0.439   3.235  0.6298 -0.1361 -0.1771
    1SOL    HW2 8414   0.273   0.425   3.329 -1.1553 -1.4177 -0.5505
    1SOL    HW3 8415   0.315   0.530   3.228 -0.0272  0.2506  1.5981
    1SOL    MW4 8416   0.286   0.449   3.247  0.3076 -0.2542  0.0081
    1SOL     OW 8417   2.463   0.753   3.661  0.0806 -0.0390  0.1892
    1SOL    HW2 8418   2.367   0.758   3.659  0.1052  0.9348  0.6108
    1SOL    HW3 8419   2.483   0.717   3.747  0.1158  1.2558  0.7461
    1SOL    MW4 8420   2.453   0.749   3.672  0.0885  0.2604  0.3183
    1SOL     OW 8421   3.697   0.657   4.005 -0.2906  0.0573  0.0057
    1SOL    HW2 8422   3.611   0.694   4.025 -0.5205  0.7195 -2.1177
    1SOL    HW3 8423   3.757   0.731   4.007 -0.3628  0.1868 -1.9524
    1SOL    MW4 8424   3.693   0.672   4.008 -0.3304  0.1618 -0.5331
    1SOL     OW 8425   2.822   3.910   3.118  0.5785  0.0665  0.2382
    1SOL    HW2 8426   2.884   3.838   3.105  0.3521 -0.0001 -0.5431
    1SOL    HW3 8427   2.851   3.954   3.197  0.3913 -1.2244  1.0340
    1SOL    MW4 8428   2.834   3.906   3.127  0.5240 -0.1123  0.2401
    1SOL     OW 8429   3.576   2.406   4.506  0.2966  0.0739 -0.7806
    1SOL    HW2 8430   3.630   2.467   4.556 -0.3052  1.1806 -1.4616
    1SOL    HW3 8431   3.637   2.360   4.449  0.7285  0.1761 -0.4027
    1SOL    MW4 8432   3.591   2.408   4.505  0.2742  0.2334 -0.8206
    1SOL     OW 8433   0.721   3.386   4.862  0.5607  0.2244 -0.0117
    1SOL    HW2 8434   0.626   3.394   4.867  0.5093 -0.5248  0.2345
    1SOL    HW3 8435   0.754   3.470   4.895 -0.0127  0.5375 -0.2242
    1SOL    MW4 8436   0.713   3.398   4.867  0.4783  0.1669 -0.0076
    1SOL     OW 8437   3.680   2.123   4.088 -0.3079  0.1341  0.0324
    1SOL    HW2 8438   3.707   2.159   4.172  1.6785  1.3940 -1.1004
    1SOL    HW3 8439   3.740   2.162   4.025 -0.8852 -1.8417 -1.8033
    1SOL    MW4 8440   3.691   2.133   4.091 -0.1221  0.0396 -0.3586
    1SOL     OW 8441   3.133   3.075   1.599  0.4940 -0.3733 -0.4447
    1SOL    HW2 8442   3.101   2.992   1.566  0.4998 -0.6027  0.1130
    1SOL    HW3 8443   3.119   3.137   1.528  0.3108 -0.8121 -0.7891
    1SOL    MW4 8444   3.127   3.072   1.586  0.4706 -0.4613 -0.4165
    1SOL     OW 8445   3.295   3.220   3.472  0.1278  0.0282  0.2588
    1SOL    HW2 8446   3.237   3.256   3.405 -0.1587 -0.4540  0.2453
    1SOL    HW3 8447   3.296   3.287   3.541  1.7524  1.2801 -0.9584
    1SOL    MW4 8448   3.287   3.233   3.472  0.3042  0.1299  0.0968
    1SOL     OW 8449   2.914   2.892   3.924  1.0928  0.2717 -0.0015
    1SOL    HW2 8450   2.856   2.962   3.894  1.5050  0.7849  0.3958
    1SOL    HW3 8451   2.924   2.907   4.018  0.5525 -0.7863  0.2370
    1SOL    MW4 8452   2.908   2.903   3.932  1.0760  0.2000  0.0825
    1SOL     OW 8453   4.002   2.487   4.091 -0.5382 -0.6561  0.4975
    1SOL    HW2 8454   3.950   2.473   4.012 -0.3401  0.5419  0.1387
    1SOL    HW3 8455   3.940   2.475   4.163 -0.9526 -0.7714  0.1235
    1SOL    MW4 8456   3.987   2.483   4.090 -0.5667 -0.5133  0.4015
    1SOL     OW 8457   1.642   1.646   3.555 -0.0618 -0.0172 -0.0180
    1SOL    HW2 8458   1.587   1.592   3.611 -2.1341  1.6271 -0.3991
    1SOL    HW3 8459   1.730   1.612   3.568 -0.8556 -1.2944  2.2887
    1SOL    MW4 8460   1.646   1.635   3.564 -0.4400  0.0312  0.2358
    1SOL     OW 8461   4.441   3.918   3.534  0.3330 -0.1896  0.6151
    1SOL    HW2 8462   4.513   3.855   3.528  0.0382 -0.5479  0.7558
    1SOL    HW3 8463   4.469   3.993   3.483 -0.5480 -1.6176 -2.0402
    1SOL    MW4 8464   4.454   3.919   3.527  0.1783 -0.4253  0.2835
    1SOL     OW 8465   2.880   3.460   2.881  0.0873  0.6005  0.3291
    1SOL    HW2 8466   2.914   3.517   2.950 -0.3319  0.6505  0.4981
    1SOL    HW3 8467   2.947   3.393   2.870  0.3565  0.8431  0.4793
    1SOL    MW4 8468   2.893   3.459   2.889  0.0677  0.6392  0.3715
    1SOL     OW 8469   2.655   3.634   3.763  0.1268 -0.2707  0.4306
    1SOL    HW2 8470   2.613   3.572   3.822  0.4777  0.3293  1.3179
    1SOL    HW3 8471   2.743   3.646   3.798  0.1376  0.5438  0.1355
    1SOL    MW4 8472   2.661   3.628   3.776  0.1743 -0.0839  0.5088
    1SOL     OW 8473   2.602   3.577   2.354 -0.1865  0.4948 -0.0495
    1SOL    HW2 8474   2.551   3.657   2.338  0.1971  1.0024  1.2373
    1SOL    HW3 8475   2.548   3.508   2.317 -0.9424  1.2536 -0.3968
    1SOL    MW4 8476   2.588   3.579   2.347 -0.2356  0.6621  0.0744
    1SOL     OW 8477   3.499   0.648   2.800 -0.0800  0.1266 -0.5004
    1SOL    HW2 8478   3.517   0.563   2.841  0.0301 -0.1092 -1.0284
    1SOL    HW3 8479   3.405   0.648   2.784 -0.2410  0.5232  0.4172
    1SOL    MW4 8480   3.489   0.637   2.803 -0.0865  0.1478 -0.4489
    1SOL     OW 8481   3.299   1.318   3.057 -0.2793 -0.1889  0.2314
    1SOL    HW2 8482   3.336   1.231   3.073 -1.5745 -0.6594  0.7454
    1SOL    HW3 8483   3.273   1.349   3.144 -0.9627  0.1858 -0.1037
    1SOL    MW4 8484   3.301   1.311   3.071 -0.5403 -0.2017  0.2549
    1SOL     OW 8485   4.041   0.873   4.257  0.0960 -0.2963  0.1847
    1SOL    HW2 8486   4.102   0.944   4.278  2.2680 -2.5057  1.5773
    1SOL    HW3 8487   4.082   0.795   4.292 -3.4588 -1.9218  0.9879
    1SOL    MW4 8488   4.054   0.872   4.264 -0.0868 -0.8023  0.4745
    1SOL     OW 8489   2.863   3.954   4.346 -0.1026  0.2876 -0.1075
    1SOL    HW2 8490   2.827   4.018   4.284  0.0994 -0.1802 -0.7078
    1SOL    HW3 8491   2.835   3.869   4.311  3.8896 -0.3021 -2.1416
    1SOL    MW4 8492   2.854   3.951   4.333  0.4508  0.1481 -0.4549
    1SOL     OW 8493   0.798   3.094   4.873  0.1359 -0.1845  0.7319
    1SOL    HW2 8494   0.779   3.188   4.881 -0.1284 -0.1254 -0.4644
    1SOL    HW3 8495   0.885   3.084   4.910  1.3261  1.0224 -1.6536
    1SOL    MW4 8496   0.807   3.105   4.879  0.2581 -0.0176  0.2594
    1SOL     OW 8497   4.169   0.654   4.380  0.0138 -0.2668 -0.1780
    1SOL    HW2 8498   4.237   0.677   4.443  0.6656  0.8996 -1.2864
    1SOL    HW3 8499   4.172   0.558   4.375 -0.6608 -0.4526  2.2215
    1SOL    MW4 8500   4.178   0.644   4.387  0.0110 -0.1374 -0.0076
    1SOL     OW 8501   2.557   0.921   3.219  0.0206 -0.3776  0.3766
    1SOL    HW2 8502   2.537   0.983   3.289 -1.2454  0.5435 -0.7821
    1SOL    HW3 8503   2.612   0.855   3.261  1.7111  1.7109  1.5572
    1SOL    MW4 8504   2.562   0.920   3.234  0.0765  0.0196  0.3796
    1SOL     OW 8505   2.648   0.662   3.320  0.2903 -0.5216 -0.1501
    1SOL    HW2 8506   2.579   0.612   3.365  0.2153  0.3101  0.6802
    1SOL    HW3 8507   2.676   0.605   3.249  0.0581 -1.6671  0.6553
    1SOL    MW4 8508   2.642   0.648   3.317  0.2499 -0.5630  0.0656
    1SOL     OW 8509   3.449   2.367   4.256  0.0843  0.0594 -0.0022
    1SOL    HW2 8510   3.511   2.389   4.326  0.4170  0.2619 -0.3602
    1SOL    HW3 8511   3.397   2.295   4.292  0.6565 -0.2408  0.2375
    1SOL    MW4 8512   3.450   2.360   4.270  0.2036  0.0467 -0.0181
    1SOL     OW 8513   3.690   2.840   4.097  0.0218  0.3789  0.5214
    1SOL    HW2 8514   3.745   2.914   4.123  0.4787  0.1924  0.0935
    1SOL    HW3 8515   3.740   2.796   4.028  0.5140 -1.2915  1.9133
    1SOL    MW4 8516   3.704   2.844   4.091  0.1471  0.1338  0.6480
    1SOL     OW 8517   3.731   0.679   3.717 -0.2084 -0.1093  0.3802
    1SOL    HW2 8518   3.722   0.615   3.647  0.0211  0.0982  0.1607
    1SOL    HW3 8519   3.741   0.626   3.796  0.9175 -0.3549  0.0808
    1SOL    MW4 8520   3.731   0.664   3.718 -0.0298 -0.1143  0.3116
    1SOL     OW 8521   0.054   1.186   3.782  0.0952  0.1144 -0.1191
    1SOL    HW2 8522   0.031   1.102   3.741 -0.4519 -0.1549  0.7268
    1SOL    HW3 8523   0.110   1.229   3.718  0.3385 -0.8819 -0.5871
    1SOL    MW4 8524   0.058   1.180   3.768  0.0551 -0.0527 -0.0691
    1SOL     OW 8525   2.063   1.668   3.254 -0.1123 -0.0630 -0.3256
    1SOL    HW2 8526   1.972   1.664   3.223 -0.7008  0.5545  1.2630
    1SOL    HW3 8527   2.099   1.747   3.213 -0.4807  0.0409 -0.4534
    1SOL    MW4 8528   2.056   1.678   3.244 -0.2387  0.0322 -0.1330
    1SOL     OW 8529   2.971   0.894   3.244  0.3829 -0.2968 -0.2446
    1SOL    HW2 8530   2.912   0.900   3.169  2.0085 -0.7037 -1.5896
    1SOL    HW3 8531   2.924   0.937   3.315 -0.4596  1.7248 -1.9660
    1SOL    MW4 8532   2.957   0.901   3.243  0.4864 -0.0837 -0.6490
    1SOL     OW 8533   4.264   1.454   3.649 -0.4578 -0.1797 -0.2026
    1SOL    HW2 8534   4.214   1.419   3.575  0.1821 -1.3624 -0.0869
    1SOL    HW3 8535   4.200   1.504   3.699 -1.3199 -0.8948 -0.5705
    1SOL    MW4 8536   4.249   1.456   3.646 -0.4873 -0.4300 -0.2358
    1SOL     OW 8537   4.384   2.831   4.291 -0.2463  0.4745  0.5885
    1SOL    HW2 8538   4.323   2.901   4.266 -1.2167 -0.6981 -0.3993
    1SOL    HW3 8539   4.373   2.765   4.223 -0.7426 -1.4806  2.5243
    1SOL    MW4 8540   4.374   2.832   4.278 -0.4396  0.0618  0.7138
    1SOL     OW 8541   2.199   4.169   3.114 -0.1992  0.3243  0.7329
    1SOL    HW2 8542   2.185   4.118   3.034  0.0550  3.4349 -1.4073
    1SOL    HW3 8543   2.114   4.168   3.159 -0.7822 -0.1673 -0.3716
    1SOL    MW4 8544   2.186   4.162   3.109 -0.2427  0.6700  0.3049
    1SOL     OW 8545   0.304   3.499   2.628 -0.0726  0.3385  0.0195
    1SOL    HW2 8546   0.301   3.561   2.701 -0.6483  1.5632 -1.0180
    1SOL    HW3 8547   0.255   3.423   2.659 -0.4438  0.9114  0.8645
    1SOL    MW4 8548   0.297   3.497   2.642 -0.1975  0.5758 -0.0060
    1SOL     OW 8549   0.003   4.435   3.087 -0.0707 -0.5305 -0.3392
    1SOL    HW2 8550  -0.075   4.488   3.103  0.4303 -0.1446  0.8778
    1SOL    HW3 8551   0.050   4.482   3.019  0.3256  0.5554  0.6696
    1SOL    MW4 8552  -0.001   4.448   3.080  0.0472 -0.3366 -0.0455
    1SOL     OW 8553   3.899   0.227   3.004  0.3181  0.3302 -0.2812
    1SOL    HW2 8554   3.890   0.171   2.927  1.4631 -1.0897  0.5968
    1SOL    HW3 8555   3.851   0.180   3.073 -0.3851  1.4077 -0.0344
    1SOL    MW4 8556   3.892   0.213   3.003  0.3762  0.2850 -0.1328
    1SOL     OW 8557   0.501   3.245   2.999  0.2799  0.0010 -0.3355
    1SOL    HW2 8558   0.406   3.235   3.001  0.2612 -0.2173 -1.6841
    1SOL    HW3 8559   0.514   3.340   2.995  0.1784  0.1184  1.7395
    1SOL    MW4 8560   0.490   3.256   2.999  0.2640 -0.0124 -0.2396
    1SOL     OW 8561   3.636   2.021   4.526  0.0142 -0.2301  0.2638
    1SOL    HW2 8562   3.546   1.999   4.551  0.3028 -2.1285 -0.2900
    1SOL    HW3 8563   3.680   2.040   4.608  0.0080 -2.8021  0.9080
    1SOL    MW4 8564   3.630   2.020   4.540  0.0517 -0.8199  0.2756
    1SOL     OW 8565   3.629   1.237   1.597  0.4830  0.3292  0.3029
    1SOL    HW2 8566   3.625   1.267   1.507  0.1251  1.8162  0.8082
    1SOL    HW3 8567   3.549   1.270   1.638  0.4810 -0.6063  1.0898
    1SOL    MW4 8568   3.618   1.245   1.591  0.4354  0.4021  0.4733
    1SOL     OW 8569   2.547   3.872   3.166  0.0483 -0.2489 -0.0279
    1SOL    HW2 8570   2.633   3.912   3.181  0.2743 -0.6807 -0.1796
    1SOL    HW3 8571   2.517   3.909   3.083 -0.8198  1.4755  1.0124
    1SOL    MW4 8572   2.554   3.882   3.157 -0.0367 -0.0784  0.0892
    1SOL     OW 8573   3.618   1.734   3.703  0.3825  0.2008  0.2074
    1SOL    HW2 8574   3.554   1.669   3.673  1.0186 -1.7151  2.8488
    1SOL    HW3 8575   3.695   1.718   3.648  0.6715 -1.5833  1.1039
    1SOL    MW4 8576   3.620   1.723   3.691  0.5043 -0.2873  0.6740
    1SOL     OW 8577   4.020   0.409   4.268  0.0209 -0.2263 -0.0909
    1SOL    HW2 8578   3.934   0.452   4.268 -0.2444 -0.7543 -0.8607
    1SOL    HW3 8579   4.073   0.463   4.209 -0.3864 -1.0997 -1.2600
    1SOL    MW4 8580   4.015   0.422   4.260 -0.0682 -0.4112 -0.3471
    1SOL     OW 8581   0.409   3.342   3.386 -0.1505 -0.5203  0.1131
    1SOL    HW2 8582   0.391   3.318   3.477 -0.6709 -1.3036 -0.1826
    1SOL    HW3 8583   0.322   3.359   3.348  0.0761 -0.0495 -0.1956
    1SOL    MW4 8584   0.395   3.341   3.393 -0.1893 -0.5612  0.0334
    1SOL     OW 8585   4.187   0.884   2.753 -0.2565  0.1205 -0.8434
    1SOL    HW2 8586   4.212   0.975   2.741 -0.6122  0.2871 -0.3279
    1SOL    HW3 8587   4.092   0.886   2.767 -0.2789 -0.3333 -0.9038
    1SOL    MW4 8588   4.178   0.896   2.753 -0.3066  0.0826 -0.7834
    1SOL     OW 8589   3.305   0.121   3.602  0.5134  0.2514 -0.0879
    1SOL    HW2 8590   3.383   0.139   3.655  0.4252  1.6594 -0.4005
    1SOL    HW3 8591   3.297   0.198   3.546 -0.3273 -0.5025 -1.0100
    1SOL    MW4 8592   3.314   0.134   3.602  0.3908  0.3377 -0.2506
    1SOL     OW 8593   4.136   4.395   2.519 -0.5671 -0.1416  0.0597
    1SOL    HW2 8594   4.090   4.316   2.548 -1.8924  0.6706  0.1809
    1SOL    HW3 8595   4.127   4.456   2.592  1.1625 -0.1418  0.3084
    1SOL    MW4 8596   4.129   4.393   2.533 -0.5136 -0.0353  0.1087
    1SOL     OW 8597   1.248   4.658   3.894 -0.2718 -0.0344  1.2693
    1SOL    HW2 8598   1.195   4.579   3.883 -3.1287  1.8164  1.2047
    1SOL    HW3 8599   1.226   4.689   3.981 -0.6924  1.7327  0.5543
    1SOL    MW4 8600   1.238   4.652   3.904 -0.7042  0.4430  1.1666
    1SOL     OW 8601   2.842   0.731   3.531  0.2811  0.0974 -0.0133
    1SOL    HW2 8602   2.839   0.824   3.508 -0.7524  0.4092  1.3011
    1SOL    HW3 8603   2.782   0.689   3.468  1.2753  0.2022 -1.0486
    1SOL    MW4 8604   2.833   0.737   3.520  0.2759  0.1524  0.0236
    1SOL     OW 8605   4.276   4.509   4.102  0.2840  0.0565 -0.1463
    1SOL    HW2 8606   4.321   4.460   4.172 -0.8571  0.8248  1.1346
    1SOL    HW3 8607   4.300   4.600   4.117  2.3208 -0.0239 -2.4758
    1SOL    MW4 8608   4.285   4.514   4.113  0.4025  0.1473 -0.2851
    1SOL     OW 8609   0.133   3.770   3.919 -0.2441  0.1172  0.0826
    1SOL    HW2 8610   0.053   3.719   3.932  0.2102 -1.0037 -1.3581
    1SOL    HW3 8611   0.105   3.846   3.869 -0.5517  0.1354  0.2811
    1SOL    MW4 8612   0.119   3.773   3.914 -0.2247 -0.0284 -0.0815
    1SOL     OW 8613   3.003   0.803   2.685 -0.0051 -0.1898 -0.5682
    1SOL    HW2 8614   3.000   0.875   2.748 -0.7089 -2.7259  2.3890
    1SOL    HW3 8615   2.915   0.765   2.688  0.4540 -1.4020 -1.8401
    1SOL    MW4 8616   2.991   0.807   2.693 -0.0374 -0.6843 -0.3457
    1SOL     OW 8617   2.884   2.143   4.706 -0.6392 -0.5528 -0.2096
    1SOL    HW2 8618   2.931   2.220   4.674 -0.9606  0.1559  0.9728
    1SOL    HW3 8619   2.952   2.077   4.720 -0.0938  0.1913  0.7100
    1SOL    MW4 8620   2.899   2.145   4.704 -0.6096 -0.3612  0.0677
    1SOL     OW 8621   0.451   0.405   2.553 -0.2975 -0.0316 -0.0106
    1SOL    HW2 8622   0.388   0.366   2.492  0.4047 -0.6205 -0.3676
    1SOL    HW3 8623   0.496   0.471   2.501  0.9436 -1.1659 -0.4159
    1SOL    MW4 8624   0.449   0.408   2.538 -0.0411 -0.2590 -0.1109
    1SOL     OW 8625   2.892   2.181   3.097  0.1063 -0.3804  0.0901
    1SOL    HW2 8626   2.846   2.261   3.071  1.3447  0.0723 -0.7277
    1SOL    HW3 8627   2.894   2.184   3.193 -0.8391 -0.0046  0.1061
    1SOL    MW4 8628   2.886   2.192   3.106  0.1447 -0.2713 -0.0157
    1SOL     OW 8629   0.026   4.117   3.378 -0.2349 -0.1696 -0.2272
    1SOL    HW2 8630  -0.032   4.146   3.307  1.7486  0.7693 -1.5060
    1SOL    HW3 8631   0.098   4.180   3.378 -0.0588 -0.2970  2.4881
    1SOL    MW4 8632   0.028   4.129   3.369  0.0501 -0.0625 -0.0372
    1SOL     OW 8633   2.990   1.389   3.793  0.3888 -0.6284 -0.4207
    1SOL    HW2 8634   2.979   1.307   3.842 -1.0854 -0.7220 -0.8650
    1SOL    HW3 8635   2.933   1.451   3.839 -1.3234 -0.8251 -2.2347
    1SOL    MW4 8636   2.981   1.386   3.806 -0.0317 -0.6667 -0.7186
    1SOL     OW 8637   0.186   1.898   2.204  0.0045  0.2984 -0.1497
    1SOL    HW2 8638   0.222   1.827   2.256 -0.3971  0.5842  0.5290
    1SOL    HW3 8639   0.106   1.861   2.165 -0.0565  0.2914 -0.0184
    1SOL    MW4 8640   0.180   1.884   2.205 -0.0565  0.3351 -0.0432
    1SOL     OW 8641   0.037   2.236   3.180 -0.2408  0.2941 -0.2228
    1SOL    HW2 8642   0.039   2.326   3.210  0.9766  0.0949  0.3398
    1SOL    HW3 8643   0.009   2.185   3.257 -0.9087  0.1818 -0.5315
    1SOL    MW4 8644   0.033   2.241   3.194 -0.1683  0.2532 -0.1893
    1SOL     OW 8645   0.813   2.352   4.753 -0.1788  0.9393 -0.0060
    1SOL    HW2 8646   0.887   2.309   4.710  0.6265  1.0284  1.2606
    1SOL    HW3 8647   0.736   2.324   4.703  0.5760 -0.1220 -0.5885
    1SOL    MW4 8648   0.813   2.343   4.741  0.0271  0.8111  0.0844
    1SOL     OW 8649   4.137   2.657   4.618  0.1241  0.4912  0.2127
    1SOL    HW2 8650   4.207   2.722   4.618  0.5443  0.1106 -2.0987
    1SOL    HW3 8651   4.073   2.691   4.556  0.0905 -1.0029 -0.6001
    1SOL    MW4 8652   4.138   2.670   4.610  0.1750  0.2437 -0.1988
    1SOL     OW 8653   2.973   0.098   3.620  0.2921  0.2856  0.5867
    1SOL    HW2 8654   2.992   0.030   3.556  3.1047  1.7042 -0.1532
    1SOL    HW3 8655   3.038   0.086   3.689  1.0985  2.4107  0.2525
    1SOL    MW4 8656   2.984   0.088   3.621  0.7694  0.7532  0.4451
    1SOL     OW 8657   0.052   4.386   2.642  0.4340  0.1951 -0.3082
    1SOL    HW2 8658  -0.003   4.464   2.637  0.8207  0.3855 -1.5702
    1SOL    HW3 8659   0.105   4.400   2.721 -1.4399 -0.0907  1.0534
    1SOL    MW4 8660   0.051   4.398   2.652  0.2377  0.1822 -0.2949
    1SOL     OW 8661   3.569   0.388   2.899 -0.1060 -0.3433 -0.0691
    1SOL    HW2 8662   3.649   0.426   2.936 -0.8341 -0.5653  1.7930
    1SOL    HW3 8663   3.531   0.339   2.972 -1.5370 -0.8756 -1.1714
    1SOL    MW4 8664   3.575   0.387   2.914 -0.3910 -0.4428  0.0312
    1SOL     OW 8665   3.861   2.728   3.903 -0.2295  0.0339  0.2338
    1SOL    HW2 8666   3.944   2.736   3.949  0.7077 -0.2024 -1.3800
    1SOL    HW3 8667   3.851   2.633   3.889 -0.9370  0.0333  0.7199
    1SOL    MW4 8668   3.870   2.716   3.907 -0.1996  0.0026  0.0849
    1SOL     OW 8669   0.983   3.029   4.335 -0.7243  0.2694  0.0383
    1SOL    HW2 8670   1.013   3.016   4.425 -0.5397  0.5426  0.0161
    1SOL    HW3 8671   0.996   2.944   4.292  0.2570  0.4593 -0.0446
    1SOL    MW4 8672   0.988   3.016   4.341 -0.5705  0.3307  0.0243
    1SOL     OW 8673   4.168   0.295   3.771  0.4128  0.4785 -0.2673
    1SOL    HW2 8674   4.246   0.325   3.819  2.5775 -0.0121 -3.3673
    1SOL    HW3 8675   4.142   0.215   3.817  2.1248  0.2925  0.4470
    1SOL    MW4 8676   4.175   0.289   3.784  0.9241  0.3892 -0.5817
    1SOL     OW 8677   0.324   0.473   3.540  0.1751  0.2299  0.1610
    1SOL    HW2 8678   0.379   0.408   3.583  0.9579  1.0969  0.4688
    1SOL    HW3 8679   0.241   0.469   3.588  0.4517 -0.0587  0.6180
    1SOL    MW4 8680   0.320   0.464   3.552  0.3149  0.3062  0.2620
    1SOL     OW 8681   4.080   1.536   4.236 -0.3264  0.2415 -0.2447
    1SOL    HW2 8682   4.023   1.534   4.313 -1.6247  0.3087 -1.2076
    1SOL    HW3 8683   4.044   1.471   4.176  2.4360 -2.0138  0.3969
    1SOL    MW4 8684   4.068   1.527   4.238 -0.1330 -0.0472 -0.2871
    1SOL     OW 8685   0.123   4.642   3.779 -0.0881 -0.1661 -0.1509
    1SOL    HW2 8686   0.069   4.582   3.727  1.3983  1.2382 -3.4796
    1SOL    HW3 8687   0.085   4.728   3.764  0.7960  0.3612  0.5704
    1SOL    MW4 8688   0.111   4.645   3.770  0.2246  0.0887 -0.4950
    1SOL     OW 8689   4.414   0.944   4.221  0.1800  0.2436  0.3282
    1SOL    HW2 8690   4.350   1.010   4.247  0.0157  0.7402 -1.3038
    1SOL    HW3 8691   4.400   0.872   4.283  0.3054  1.6888  2.0706
    1SOL    MW4 8692   4.404   0.943   4.233  0.1755  0.4998  0.3438
    1SOL     OW 8693   1.211   0.059   4.154  0.4686  0.3840  0.1187
    1SOL    HW2 8694   1.153   0.133   4.173  0.7573  0.9010 -0.9874
    1SOL    HW3 8695   1.290   0.076   4.206 -0.6196 -0.6809  2.1798
    1SOL    MW4 8696   1.214   0.071   4.164  0.3632  0.3117  0.2446
    1SOL     OW 8697   3.884   3.519   3.450  0.3050 -0.3578  0.1110
    1SOL    HW2 8698   3.929   3.508   3.534 -0.7480  3.1364  1.1936
    1SOL    HW3 8699   3.809   3.575   3.470 -2.3513 -2.8570 -2.4113
    1SOL    MW4 8700   3.880   3.525   3.464 -0.1845 -0.2263 -0.0789
    1SOL     OW 8701   1.472   0.913   4.778  0.2398 -0.1041 -0.0424
    1SOL    HW2 8702   1.557   0.873   4.761  0.5554 -0.5174  2.3515
    1SOL    HW3 8703   1.411   0.839   4.779  0.3023 -0.1467  1.0453
    1SOL    MW4 8704   1.475   0.898   4.776  0.2896 -0.1643  0.4168
    1SOL     OW 8705   3.864   3.921   4.416 -0.2732  0.1088 -0.2031
    1SOL    HW2 8706   3.857   3.942   4.323 -1.7060 -0.9125 -0.3337
    1SOL    HW3 8707   3.905   3.998   4.455 -0.4919  0.9068 -1.5341
    1SOL    MW4 8708   3.868   3.934   4.409 -0.4911  0.0792 -0.3958
    1SOL     OW 8709   0.367   2.155   3.674  0.2130  0.1963  0.3777
    1SOL    HW2 8710   0.381   2.214   3.748 -1.6917  0.7975  0.2838
    1SOL    HW3 8711   0.366   2.212   3.598 -1.0834 -0.0286  0.2235
    1SOL    MW4 8712   0.369   2.170   3.674 -0.2094  0.2458  0.3450
    1SOL     OW 8713   1.752   1.949   4.833 -0.2054  0.2420 -0.6100
    1SOL    HW2 8714   1.674   1.960   4.778 -1.8119 -0.2590  1.4859
    1SOL    HW3 8715   1.774   2.037   4.862 -0.0066  0.3768 -1.1542
    1SOL    MW4 8716   1.745   1.962   4.829 -0.3911  0.1938 -0.4053
    1SOL     OW 8717   3.320   3.730   3.298  0.1135  0.2512 -0.3809
    1SOL    HW2 8718   3.364   3.718   3.382 -1.9126 -1.9322  0.4205
    1SOL    HW3 8719   3.284   3.818   3.302  0.3422  0.2950  0.8907
    1SOL    MW4 8720   3.321   3.740   3.310 -0.1237 -0.0310 -0.1073
    1SOL     OW 8721   0.735   0.792   4.606  0.4476  0.5751  0.6544
    1SOL    HW2 8722   0.721   0.884   4.630  1.0801  0.7967  0.1670
    1SOL    HW3 8723   0.796   0.760   4.673  1.6657  1.0073 -0.2312
    1SOL    MW4 8724   0.741   0.800   4.618  0.6917  0.6614  0.4730
    1SOL     OW 8725   1.819   1.207   4.640  0.0510 -0.2912 -0.4798
    1SOL    HW2 8726   1.853   1.276   4.696 -0.4111  0.2029 -0.7979
    1SOL    HW3 8727   1.732   1.189   4.674  0.6340 -1.5788  0.3569
    1SOL    MW4 8728   1.812   1.214   4.652  0.0669 -0.3959 -0.4106
    1SOL     OW 8729   3.732   1.769   4.377  0.3690 -0.0069 -0.1850
    1SOL    HW2 8730   3.695   1.845   4.422 -2.3183 -1.0619 -0.5478
    1SOL    HW3 8731   3.733   1.794   4.285  0.0325 -0.1834 -0.2376
    1SOL    MW4 8732   3.727   1.782   4.371 -0.0298 -0.1694 -0.2394
    1SOL     OW 8733   1.033   4.144   3.438 -0.4464  0.2697 -0.2827
    1SOL    HW2 8734   0.962   4.087   3.407 -0.3080  0.2142 -0.4949
    1SOL    HW3 8735   1.013   4.157   3.531  0.2880 -1.2796  0.1185
    1SOL    MW4 8736   1.021   4.138   3.446 -0.3312  0.0587 -0.2580
    1SOL     OW 8737   3.930   0.807   2.762  0.3133 -0.4087  0.3023
    1SOL    HW2 8738   3.901   0.792   2.672  1.6388  0.4946 -0.2788
    1SOL    HW3 8739   3.969   0.723   2.789 -0.6220 -0.8674  0.2647
    1SOL    MW4 8740   3.931   0.794   2.754  0.3648 -0.3501  0.2208
    1SOL     OW 8741   0.607   4.517   3.761  0.1596  0.1434 -0.0399
    1SOL    HW2 8742   0.691   4.501   3.805 -0.3519 -1.8680  0.2399
    1SOL    HW3 8743   0.625   4.500   3.669  0.1357 -0.0112 -0.0165
    1SOL    MW4 8744   0.621   4.513   3.755  0.0890 -0.1426  0.0002
    1SOL     OW 8745   0.092   4.080   2.841  0.7079 -0.2074  0.1803
    1SOL    HW2 8746   0.024   4.095   2.776 -0.1510 -1.0234  0.8707
    1SOL    HW3 8747   0.137   4.164   2.848  1.1348 -0.2539 -1.8153
    1SOL    MW4 8748   0.089   4.093   2.833  0.6509 -0.3209  0.0081
    1SOL     OW 8749   0.856   2.168   4.392 -0.2487  0.1421 -0.1647
    1SOL    HW2 8750   0.818   2.255   4.380 -0.8462 -0.3134 -1.7648
    1SOL    HW3 8751   0.929   2.181   4.452 -0.3527  1.7411 -0.3740
    1SOL    MW4 8752   0.861   2.181   4.398 -0.3412  0.2928 -0.4034
    1SOL     OW 8753   1.789   0.360   3.724 -0.0410 -0.5295  0.2573
    1SOL    HW2 8754   1.768   0.423   3.793  0.3592 -0.4348  0.2925
    1SOL    HW3 8755   1.764   0.275   3.761 -0.4913 -0.4035  0.2448
    1SOL    MW4 8756   1.783   0.357   3.738 -0.0477 -0.5004  0.2601
    1SOL     OW 8757   4.367   3.665   4.160  0.2825 -0.3868 -0.2436
    1SOL    HW2 8758   4.294   3.727   4.164  0.1834 -0.4164 -1.3272
    1SOL    HW3 8759   4.371   3.627   4.247 -0.9312 -0.2998 -0.1408
    1SOL    MW4 8760   4.358   3.668   4.172  0.1087 -0.3793 -0.3729
    1SOL     OW 8761   3.601   3.931   3.356 -0.0475  0.2517  0.2401
    1SOL    HW2 8762   3.653   4.009   3.373  0.3365  0.1921 -0.6289
    1SOL    HW3 8763   3.624   3.906   3.267  0.1781 -1.1300  0.6802
    1SOL    MW4 8764   3.611   3.938   3.346  0.0331  0.0613  0.1836
    1SOL     OW 8765   4.156   0.719   2.534  0.5623 -0.7599  0.1035
    1SOL    HW2 8766   4.061   0.722   2.525  0.5976  0.2141 -0.0246
    1SOL    HW3 8767   4.176   0.788   2.596  1.1496 -1.2807  0.4997
    1SOL    MW4 8768   4.146   0.728   2.541  0.6447 -0.7001  0.1390
    1SOL     OW 8769   4.440   4.570   3.355  0.1440 -0.3665 -0.5515
    1SOL    HW2 8770   4.344   4.567   3.359  0.1072  0.7164 -0.5469
    1SOL    HW3 8771   4.459   4.622   3.277  0.7098  2.2669  1.2761
    1SOL    MW4 8772   4.430   4.577   3.345  0.2136  0.1240 -0.3097
    1SOL     OW 8773   0.103   0.459   3.725  0.3287 -0.7888 -0.6151
    1SOL    HW2 8774   0.078   0.386   3.669  0.0212 -0.8401 -0.4118
    1SOL    HW3 8775   0.028   0.519   3.722  0.4191 -0.6662 -0.4691
    1SOL    MW4 8776   0.090   0.457   3.717  0.3000 -0.7794 -0.5693
    1SOL     OW 8777   3.996   4.331   3.430  0.2442 -0.3894  0.2219
    1SOL    HW2 8778   4.024   4.303   3.343 -2.1368 -0.3231 -0.6036
    1SOL    HW3 8779   3.967   4.250   3.473 -2.3359  0.1200 -0.5108
    1SOL    MW4 8780   3.996   4.317   3.424 -0.4106 -0.3138  0.0162
    1SOL     OW 8781   1.276   4.546   2.614 -0.2460  0.1792  0.4137
    1SOL    HW2 8782   1.242   4.562   2.702 -1.3445  0.5698 -0.0827
    1SOL    HW3 8783   1.342   4.614   2.601  0.4304 -0.3179  1.2111
    1SOL    MW4 8784   1.280   4.557   2.624 -0.3017  0.1655  0.4532
    1SOL     OW 8785   0.099   1.182   3.460 -0.0780 -0.6292 -0.1255
    1SOL    HW2 8786   0.130   1.212   3.374 -0.7161 -2.7489 -1.1074
    1SOL    HW3 8787   0.113   1.258   3.518  1.0776  0.5583 -1.9127
    1SOL    MW4 8788   0.105   1.196   3.457 -0.0097 -0.7522 -0.4909
    1SOL     OW 8789   4.379   0.645   3.758  0.0357 -0.6556 -0.1868
    1SOL    HW2 8790   4.346   0.654   3.668 -1.1399 -0.0612  0.2872
    1SOL    HW3 8791   4.302   0.659   3.813  1.2799  1.7256  1.0022
    1SOL    MW4 8792   4.364   0.648   3.753  0.0448 -0.2630  0.0327
    1SOL     OW 8793   3.806   1.231   3.261  0.4483  0.1382  0.2630
    1SOL    HW2 8794   3.855   1.158   3.297 -0.0120 -0.0767  0.4594
    1SOL    HW3 8795   3.802   1.295   3.332  1.0956  0.4723 -0.0020
    1SOL    MW4 8796   3.812   1.230   3.275  0.4730  0.1539  0.2539
    1SOL     OW 8797   3.260   2.163   4.326 -0.6891  0.1993  0.1830
    1SOL    HW2 8798   3.164   2.157   4.319 -0.5993 -1.3124  0.2012
    1SOL    HW3 8799   3.292   2.110   4.253  0.1442  0.6097  0.2515
    1SOL    MW4 8800   3.251   2.155   4.315 -0.5672  0.0544  0.1945
    1SOL     OW 8801   4.138   1.698   3.326  0.8116  0.4180  0.0301
    1SOL    HW2 8802   4.202   1.748   3.276  0.1136  0.7555 -0.5440
    1SOL    HW3 8803   4.165   1.607   3.316  2.7370  0.7615  2.0133
    1SOL    MW4 8804   4.150   1.692   3.318  0.9737  0.5078  0.2158
    1SOL     OW 8805   0.255   1.097   3.962 -0.1896  0.3196 -0.4309
    1SOL    HW2 8806   0.185   1.143   3.916 -0.2276  0.2714 -0.4202
    1SOL    HW3 8807   0.227   1.095   4.053 -0.4716 -0.2687 -0.5306
    1SOL    MW4 8808   0.242   1.103   3.968 -0.2318  0.2357 -0.4427
    1SOL     OW 8809   0.474   2.556   3.758 -0.1758  0.1653  0.0008
    1SOL    HW2 8810   0.441   2.617   3.824  0.9236  1.2334 -0.4184
    1SOL    HW3 8811   0.541   2.605   3.711  1.6704 -1.7740  0.5082
    1SOL    MW4 8812   0.478   2.570   3.760  0.2128  0.0503  0.0124
    1SOL     OW 8813   0.430   2.299   3.916  0.3994 -0.4102  0.1051
    1SOL    HW2 8814   0.503   2.281   3.974  0.5113  1.4606  0.5948
    1SOL    HW3 8815   0.459   2.374   3.863 -1.1465  0.3694  0.3242
    1SOL    MW4 8816   0.443   2.307   3.916  0.2102 -0.0608  0.1986
    1SOL     OW 8817   0.044   2.209   3.872 -0.7171  0.4756  0.5642
    1SOL    HW2 8818   0.104   2.141   3.842 -1.3320  0.1519  0.0474
    1SOL    HW3 8819   0.086   2.246   3.950 -0.7788 -1.0718  1.3481
    1SOL    MW4 8820   0.057   2.205   3.878 -0.8064  0.2289  0.5994
    1SOL     OW 8821   0.064   1.895   3.540 -0.3073 -0.0840 -0.1692
    1SOL    HW2 8822   0.004   1.827   3.569 -1.5441 -0.1415 -2.6794
    1SOL    HW3 8823   0.137   1.848   3.499 -0.4476  0.0643 -0.5928
    1SOL    MW4 8824   0.066   1.880   3.538 -0.4890 -0.0719 -0.5562
    1SOL     OW 8825   1.502   2.033   4.687  0.1748  0.1131 -0.0070
    1SOL    HW2 8826   1.443   1.972   4.644  1.6232 -1.5239  0.2494
    1SOL    HW3 8827   1.553   2.072   4.616 -0.5438  0.8140 -0.1440
    1SOL    MW4 8828   1.501   2.030   4.672  0.2712 -0.0105  0.0091
    1SOL     OW 8829   0.559   1.719   4.486  0.4268 -0.0638  0.0869
    1SOL    HW2 8830   0.645   1.747   4.517  0.5308  0.1407 -0.3868
    1SOL    HW3 8831   0.555   1.749   4.396 -0.9532  1.7070  0.7218
    1SOL    MW4 8832   0.570   1.726   4.478  0.2585  0.1968  0.1082
    1SOL     OW 8833   1.521   2.488   3.868  0.0176  0.5460  0.2373
    1SOL    HW2 8834   1.600   2.435   3.857 -0.5507 -0.0206 -1.2771
    1SOL    HW3 8835   1.526   2.521   3.957  1.5610 -0.1498  0.4184
    1SOL    MW4 8836   1.532   2.485   3.878  0.1464  0.3796  0.0615
    1SOL     OW 8837   2.000   3.492   3.588  0.0729 -0.6361  0.0759
    1SOL    HW2 8838   2.065   3.556   3.616 -0.4752 -0.7649  1.7231
    1SOL    HW3 8839   2.036   3.454   3.508  1.6375 -0.1292  0.5247
    1SOL    MW4 8840   2.013   3.495   3.581  0.2072 -0.5863  0.3526
    1SOL     OW 8841   0.415   4.076   3.527  0.2440  0.4743 -0.9268
    1SOL    HW2 8842   0.350   4.145   3.512  1.3030  1.3386 -1.5847
    1SOL    HW3 8843   0.435   4.082   3.620  1.3330  1.9644 -1.2449
    1SOL    MW4 8844   0.409   4.086   3.537  0.5274  0.7858 -1.0557
    1SOL     OW 8845   0.346   2.526   2.904 -0.0750 -0.1318  0.0501
    1SOL    HW2 8846   0.378   2.615   2.886  2.2624 -0.6835  1.3601
    1SOL    HW3 8847   0.326   2.526   2.998 -0.0129 -0.9954  0.0678
    1SOL    MW4 8848   0.347   2.538   2.914  0.2416 -0.3185  0.2253
    1SOL     OW 8849   2.723   0.116   2.985 -0.1830 -0.2326 -0.2722
    1SOL    HW2 8850   2.782   0.076   2.922  1.1315 -1.1560  1.5212
    1SOL    HW3 8851   2.652   0.053   2.995 -0.2531 -0.2081 -0.6069
    1SOL    MW4 8852   2.721   0.103   2.978 -0.0186 -0.3512 -0.0796
    1SOL     OW 8853   0.461   0.368   3.766  0.2946  0.1082  0.3556
    1SOL    HW2 8854   0.384   0.354   3.821 -0.0964  1.3901  0.1418
    1SOL    HW3 8855   0.502   0.281   3.760 -1.0124 -0.5388  0.6266
    1SOL    MW4 8856   0.456   0.354   3.772  0.0706  0.1920  0.3631
    1SOL     OW 8857   0.423   0.542   4.353 -0.2830 -0.1210 -0.3057
    1SOL    HW2 8858   0.423   0.628   4.310 -2.1211  0.1383  0.1701
    1SOL    HW3 8859   0.506   0.503   4.327  0.1339  1.3908 -1.3603
    1SOL    MW4 8860   0.434   0.548   4.344 -0.4705  0.1127 -0.3819
    1SOL     OW 8861   0.664   0.753   3.947 -0.3917 -0.3365 -0.1899
    1SOL    HW2 8862   0.750   0.713   3.936  0.2992  0.9177  0.5649
    1SOL    HW3 8863   0.656   0.813   3.873 -0.5480 -0.3128 -0.1535
    1SOL    MW4 8864   0.674   0.755   3.936 -0.3211 -0.1680 -0.0854
    1SOL     OW 8865   1.215   1.279   4.159  0.2736 -0.0468 -0.1673
    1SOL    HW2 8866   1.212   1.190   4.125  1.4351  0.3398 -1.3030
    1SOL    HW3 8867   1.146   1.326   4.112  2.0309  0.5498 -2.2475
    1SOL    MW4 8868   1.206   1.273   4.149  0.6586  0.0829 -0.5918
    1SOL     OW 8869   1.796   2.995   3.105  0.5192 -0.3758 -0.2370
    1SOL    HW2 8870   1.787   3.086   3.079 -0.6192 -0.8603 -1.5799
    1SOL    HW3 8871   1.887   2.987   3.134  0.3417  1.4310  0.9246
    1SOL    MW4 8872   1.806   3.006   3.106  0.3457 -0.2015 -0.2611
    1SOL     OW 8873   3.384   4.587   4.206 -0.0468  1.1390  0.2280
    1SOL    HW2 8874   3.401   4.552   4.118 -0.1180  2.4714 -0.3331
    1SOL    HW3 8875   3.415   4.519   4.266  1.3714  0.8370 -0.8207
    1SOL    MW4 8876   3.390   4.574   4.202  0.1311  1.2746  0.0162
    1SOL     OW 8877   0.790   4.391   4.534 -0.0922  0.3544  0.4169
    1SOL    HW2 8878   0.775   4.319   4.472 -0.6559  1.1491 -0.3943
    1SOL    HW3 8879   0.869   4.366   4.581 -0.5459 -1.0222  0.4771
    1SOL    MW4 8880   0.798   4.378   4.532 -0.2264  0.2775  0.3181
    1SOL     OW 8881   1.926   0.531   4.623  0.4611  0.0464 -0.0332
    1SOL    HW2 8882   1.861   0.594   4.655  0.1085 -1.3202  2.0534
    1SOL    HW3 8883   1.888   0.496   4.543 -0.1761  1.1392 -0.2307
    1SOL    MW4 8884   1.912   0.535   4.617  0.3304  0.0103  0.2165
    1SOL     OW 8885   0.693   0.480   4.200 -0.2252 -0.1464  0.5546
    1SOL    HW2 8886   0.729   0.565   4.227 -0.9243  0.3554 -0.0781
    1SOL    HW3 8887   0.631   0.502   4.130 -1.3406 -1.0597  1.2426
    1SOL    MW4 8888   0.690   0.494   4.194 -0.4646 -0.2007  0.5617
    1SOL     OW 8889   4.398   0.733   4.521 -0.3292  0.2127 -0.1787
    1SOL    HW2 8890   4.473   0.676   4.535 -1.8426 -1.7539  0.1703
    1SOL    HW3 8891   4.378   0.769   4.607 -1.2981 -1.2485  0.2364
    1SOL    MW4 8892   4.405   0.730   4.534 -0.6566 -0.2396 -0.0782
    1SOL     OW 8893   0.537   0.882   3.349 -0.2161  0.0485 -0.2796
    1SOL    HW2 8894   0.571   0.930   3.273 -1.5308 -1.0340 -1.5845
    1SOL    HW3 8895   0.526   0.949   3.416 -0.9368  1.4033 -1.6949
    1SOL    MW4 8896   0.540   0.897   3.348 -0.4846  0.0845 -0.6385
    1SOL     OW 8897   1.042   0.273   4.203 -0.1895  0.2607  0.2246
    1SOL    HW2 8898   1.116   0.330   4.223 -0.0907  0.0494  0.4626
    1SOL    HW3 8899   1.009   0.245   4.289 -2.0024  2.2065  0.2087
    1SOL    MW4 8900   1.047   0.277   4.217 -0.4157  0.4896  0.2537
    1SOL     OW 8901   4.467   2.809   3.438 -0.3652 -0.6555 -0.7156
    1SOL    HW2 8902   4.433   2.838   3.522 -0.2707  0.4247 -1.0345
    1SOL    HW3 8903   4.561   2.797   3.453 -0.1538  0.6474 -0.9493
    1SOL    MW4 8904   4.475   2.812   3.451 -0.3252 -0.3409 -0.7887
    1SOL     OW 8905   2.245   2.470   3.610  0.0956 -0.4533  0.1957
    1SOL    HW2 8906   2.242   2.389   3.661 -0.9355 -0.5414  0.0033
    1SOL    HW3 8907   2.226   2.539   3.674 -0.6411 -0.5119  0.0392
    1SOL    MW4 8908   2.242   2.469   3.625 -0.1378 -0.4728  0.1497
    1SOL     OW 8909   1.290   2.726   4.066 -0.2380 -0.8853  0.3493
    1SOL    HW2 8910   1.263   2.653   4.010  0.7096 -1.0418  0.0989
    1SOL    HW3 8911   1.369   2.695   4.110  0.0653 -0.0849  0.3848
    1SOL    MW4 8912   1.297   2.712   4.064 -0.0730 -0.8001  0.3209
    1SOL     OW 8913   1.398   0.387   3.862  0.2249 -0.0483  0.4266
    1SOL    HW2 8914   1.309   0.351   3.865 -0.3717  1.4520  1.3379
    1SOL    HW3 8915   1.450   0.320   3.818 -1.6355 -0.3800 -1.3243
    1SOL    MW4 8916   1.393   0.373   3.857 -0.0994  0.1058  0.3161
    1SOL     OW 8917   1.978   3.142   4.710 -0.0874 -0.0926 -0.7056
    1SOL    HW2 8918   1.929   3.191   4.777 -2.1689 -0.9728 -1.5327
    1SOL    HW3 8919   2.070   3.157   4.732 -0.7148  0.7629  1.5368
    1SOL    MW4 8920   1.984   3.150   4.722 -0.4448 -0.0958 -0.5193
    1SOL     OW 8921   0.261   2.393   1.881 -0.0542  0.4147 -0.0676
    1SOL    HW2 8922   0.326   2.365   1.817  1.2112 -0.1988  1.4626
    1SOL    HW3 8923   0.185   2.338   1.864  0.3254  0.1521 -0.9297
    1SOL    MW4 8924   0.259   2.382   1.870  0.1628  0.2990  0.0206
    1SOL     OW 8925   1.156   1.304   4.461  0.1190 -0.0603  0.0069
    1SOL    HW2 8926   1.111   1.385   4.485 -0.9057 -0.5889 -0.1289
    1SOL    HW3 8927   1.188   1.321   4.372  0.0900  0.2708  0.0581
    1SOL    MW4 8928   1.154   1.317   4.452 -0.0200 -0.0864 -0.0043
    1SOL     OW 8929   0.031   1.618   3.218  0.3259  0.0442  0.1293
    1SOL    HW2 8930   0.038   1.616   3.314 -1.7483 -1.3952  0.2805
    1SOL    HW3 8931  -0.026   1.693   3.201  1.5627  0.9516 -0.0532
    1SOL    MW4 8932   0.024   1.628   3.229  0.2155 -0.0261  0.1252
    1SOL     OW 8933   4.377   2.643   3.092 -0.2149  0.1163  0.7159
    1SOL    HW2 8934   4.379   2.634   2.997  1.7636 -0.8077  0.8247
    1SOL    HW3 8935   4.320   2.572   3.121  0.5919 -0.7018  0.3262
    1SOL    MW4 8936   4.369   2.632   3.083  0.1531 -0.1137  0.6788
    1SOL     OW 8937   1.340   3.272   3.874  0.5464  0.6429 -0.1679
    1SOL    HW2 8938   1.273   3.338   3.894  0.4247  0.2701  0.6574
    1SOL    HW3 8939   1.299   3.215   3.809 -0.4760 -0.4389  1.3944
    1SOL    MW4 8940   1.326   3.274   3.868  0.3953  0.4511  0.1469
    1SOL     OW 8941   2.317   3.975   3.302 -0.0791  0.6187 -0.0594
    1SOL    HW2 8942   2.381   3.948   3.236  0.1913  1.4114 -0.1342
    1SOL    HW3 8943   2.265   4.043   3.259 -0.4153  0.5829  0.2820
    1SOL    MW4 8944   2.319   3.981   3.288 -0.0880  0.7186 -0.0243
    1SOL     OW 8945   1.152   2.929   4.568 -0.0214 -0.6149  0.6447
    1SOL    HW2 8946   1.178   3.005   4.620  0.8976 -0.5531  0.1112
    1SOL    HW3 8947   1.136   2.860   4.631 -1.0253  0.0718  1.1500
    1SOL    MW4 8948   1.154   2.930   4.583 -0.0327 -0.5162  0.6409
    1SOL     OW 8949   1.161   4.178   2.596  0.1381  0.0939  0.2375
    1SOL    HW2 8950   1.097   4.221   2.654  0.9285  0.8669  0.5504
    1SOL    HW3 8951   1.226   4.246   2.578  1.3322 -0.9488  0.6071
    1SOL    MW4 8952   1.161   4.193   2.601  0.3999  0.0582  0.3276
    1SOL     OW 8953   0.887   3.695   4.304  0.1992  0.3321  0.0116
    1SOL    HW2 8954   0.850   3.774   4.264  0.0125  0.5677  0.6283
    1SOL    HW3 8955   0.945   3.728   4.373 -1.4306 -0.0559  1.6341
    1SOL    MW4 8956   0.890   3.710   4.308 -0.0404  0.3123  0.3071
    1SOL     OW 8957   1.483   3.999   3.276  0.1270  0.1117  0.3829
    1SOL    HW2 8958   1.492   4.092   3.299 -0.2712  0.1671  0.3145
    1SOL    HW3 8959   1.417   3.966   3.336  0.8181 -0.3130  0.9201
    1SOL    MW4 8960   1.476   4.007   3.287  0.1656  0.0629  0.4447
    1SOL     OW 8961   1.442   2.470   4.565 -0.2600 -0.1831  0.0314
    1SOL    HW2 8962   1.445   2.415   4.643 -0.5486  1.0794  0.9481
    1SOL    HW3 8963   1.505   2.540   4.582 -0.4330  0.1851 -0.7996
    1SOL    MW4 8964   1.451   2.472   4.578 -0.3210  0.0322  0.0420
    1SOL     OW 8965   2.874   0.109   3.229  0.5088  0.4213 -0.3922
    1SOL    HW2 8966   2.939   0.172   3.196  0.6982 -0.1839 -1.1884
    1SOL    HW3 8967   2.802   0.114   3.166  0.2731  0.2802 -0.1307
    1SOL    MW4 8968   2.873   0.118   3.216  0.5028  0.3228 -0.4630
    1SOL     OW 8969   2.235   0.197   4.174  0.4285  0.0163  0.2199
    1SOL    HW2 8970   2.304   0.261   4.190  2.3509 -1.3501 -2.2106
    1SOL    HW3 8971   2.265   0.117   4.219  0.0831 -0.3769 -0.2396
    1SOL    MW4 8972   2.248   0.195   4.182  0.6366 -0.2158 -0.1616
    1SOL     OW 8973   1.922   1.867   4.629  0.0040  0.2211  0.2155
    1SOL    HW2 8974   1.859   1.814   4.580 -0.1013  0.6155 -0.0829
    1SOL    HW3 8975   1.870   1.907   4.699  0.6130 -2.1545  2.0635
    1SOL    MW4 8976   1.906   1.865   4.632  0.0706 -0.0403  0.4206
    1SOL     OW 8977   3.531   0.046   4.421 -0.2782  0.5164  0.0456
    1SOL    HW2 8978   3.501   0.119   4.476  0.5759  1.3546 -0.6070
    1SOL    HW3 8979   3.483   0.057   4.339  1.6429  1.7449 -0.9331
    1SOL    MW4 8980   3.520   0.057   4.418  0.0880  0.7892 -0.1693
    1SOL     OW 8981   1.290   0.744   3.257 -0.2376  0.3297  0.0002
    1SOL    HW2 8982   1.330   0.692   3.327 -0.7620 -0.1642 -0.0730
    1SOL    HW3 8983   1.292   0.688   3.180  1.0760  1.1613 -0.6037
    1SOL    MW4 8984   1.295   0.730   3.256 -0.1336  0.3743 -0.0892
    1SOL     OW 8985   1.507   1.580   4.505  0.4083 -0.0575 -0.6160
    1SOL    HW2 8986   1.509   1.556   4.412  0.2293  0.3315 -0.7202
    1SOL    HW3 8987   1.599   1.586   4.530  0.4949  1.5457 -1.2173
    1SOL    MW4 8988   1.520   1.578   4.496  0.3961  0.2055 -0.7086
    1SOL     OW 8989   2.067   1.683   4.024 -0.2600 -0.4480  0.5149
    1SOL    HW2 8990   2.041   1.751   4.085 -0.6948  1.1663 -1.4316
    1SOL    HW3 8991   2.152   1.712   3.990 -1.3733  0.1506 -1.8128
    1SOL    MW4 8992   2.075   1.696   4.028 -0.4644 -0.1560 -0.0491
    1SOL     OW 8993   1.920   1.181   3.925  0.0434  0.1012  0.0709
    1SOL    HW2 8994   1.921   1.187   4.020 -0.6543  1.2212  0.0087
    1SOL    HW3 8995   1.896   1.268   3.895  0.6171 -0.1506 -1.1472
    1SOL    MW4 8996   1.917   1.193   3.933  0.0271  0.2158 -0.0980
    1SOL     OW 8997   3.542   0.043   3.843  0.6269 -0.2984 -0.4537
    1SOL    HW2 8998   3.532  -0.044   3.881  0.5924 -0.2749 -0.4090
    1SOL    HW3 8999   3.512   0.103   3.911 -0.2663 -0.3045 -0.8267
    1SOL    MW4 9000   3.537   0.040   3.857  0.5045 -0.2960 -0.4969
    1SOL     OW 9001   1.031   1.437   3.324 -0.0011  0.4910  0.3162
    1SOL    HW2 9002   1.065   1.527   3.318 -0.2337  0.6227  0.9503
    1SOL    HW3 9003   0.940   1.444   3.293 -0.0698  0.5056  0.5202
    1SOL    MW4 9004   1.023   1.450   3.319 -0.0408  0.5101  0.4268
    1SOL     OW 9005   0.602   2.034   3.631  0.0005 -0.6705  0.0490
    1SOL    HW2 9006   0.575   1.945   3.609  2.1727 -1.0531 -1.1047
    1SOL    HW3 9007   0.519   2.080   3.647 -1.2185 -2.4468 -0.9580
    1SOL    MW4 9008   0.587   2.028   3.630  0.1262 -0.9553 -0.2358
    1SOL     OW 9009   1.017   2.802   4.174 -0.2643  0.5149 -0.2012
    1SOL    HW2 9010   1.107   2.821   4.147  0.1080  0.5257  1.0258
    1SOL    HW3 9011   0.963   2.848   4.110  0.6053  2.3255  0.3451
    1SOL    MW4 9012   1.022   2.810   4.162 -0.1005  0.7553  0.0324
    1SOL     OW 9013   1.791   1.011   3.735 -0.7768 -0.4096 -0.4389
    1SOL    HW2 9014   1.844   1.073   3.785 -1.7507  0.1019 -0.0199
    1SOL    HW3 9015   1.820   1.023   3.644  0.1750 -0.5024 -0.1506
    1SOL    MW4 9016   1.802   1.021   3.729 -0.7797 -0.3544 -0.3457
    1SOL     OW 9017   0.112   3.698   3.466 -0.1678 -0.2104 -0.4545
    1SOL    HW2 9018   0.087   3.644   3.391  1.8589 -1.3247 -0.3426
    1SOL    HW3 9019   0.196   3.736   3.441  0.9287 -1.2370  1.5844
    1SOL    MW4 9020   0.119   3.696   3.453  0.2443 -0.4933 -0.1702
    1SOL     OW 9021   1.775   2.955   4.649 -0.1345  0.5024 -0.0625
    1SOL    HW2 9022   1.857   3.005   4.648  0.1845 -0.0296 -0.5608
    1SOL    HW3 9023   1.726   2.993   4.722  0.5133  0.8918  0.1835
    1SOL    MW4 9024   1.780   2.967   4.659 -0.0069  0.4835 -0.0958
    1SOL     OW 9025   0.151   3.108   4.092 -0.0872 -0.2060 -0.2470
    1SOL    HW2 9026   0.055   3.103   4.095 -0.0431 -1.5035 -0.6060
    1SOL    HW3 9027   0.180   3.038   4.151  0.6423 -0.2223 -0.6199
    1SOL    MW4 9028   0.142   3.098   4.100  0.0149 -0.3793 -0.3433
    1SOL     OW 9029   2.901   3.662   3.875 -0.2396  0.3539 -0.3948
    1SOL    HW2 9030   2.932   3.603   3.944  0.6185  0.4780 -0.6709
    1SOL    HW3 9031   2.939   3.626   3.795 -0.8661  0.4758 -0.7447
    1SOL    MW4 9032   2.910   3.649   3.874 -0.2091  0.3862 -0.4776
    1SOL     OW 9033   0.169   2.001   4.188 -0.7537 -0.1680  0.4968
    1SOL    HW2 9034   0.179   2.007   4.283 -0.2984  0.1834  0.4268
    1SOL    HW3 9035   0.192   2.088   4.156 -0.5796 -0.3834  0.0360
    1SOL    MW4 9036   0.174   2.013   4.196 -0.6706 -0.1504  0.4268
    1SOL     OW 9037   1.228   1.751   2.745  0.0391  0.1249  0.0514
    1SOL    HW2 9038   1.263   1.688   2.683  0.1533  0.3919 -0.1580
    1SOL    HW3 9039   1.283   1.829   2.734  1.1648 -0.4252  1.7120
    1SOL    MW4 9040   1.240   1.753   2.735  0.2027  0.0875  0.2427
    1SOL     OW 9041   3.601   1.337   4.331  0.0378 -0.2141 -0.1241
    1SOL    HW2 9042   3.572   1.377   4.249  1.3824 -0.8526 -0.9420
    1SOL    HW3 9043   3.540   1.265   4.346  0.4317 -0.7719 -1.1519
    1SOL    MW4 9044   3.589   1.333   4.322  0.2673 -0.3719 -0.3676
    1SOL     OW 9045   1.966   4.426   4.166 -0.4088  0.1443  0.7089
    1SOL    HW2 9046   2.027   4.353   4.155  0.4336  0.7377  1.3812
    1SOL    HW3 9047   1.942   4.423   4.259 -2.5490 -0.9648  0.1780
    1SOL    MW4 9048   1.971   4.416   4.177 -0.5801  0.0768  0.7281
    1SOL     OW 9049   1.602   3.819   3.935  0.2367  0.0703 -0.8841
    1SOL    HW2 9050   1.676   3.768   3.969 -0.3704  0.5568  1.2208
    1SOL    HW3 9051   1.526   3.761   3.945  0.1027  0.0562 -1.8666
    1SOL    MW4 9052   1.602   3.804   3.941  0.1389  0.1328 -0.7358
    1SOL     OW 9053   1.302   0.855   3.810 -0.0520  0.4094  0.1260
    1SOL    HW2 9054   1.224   0.806   3.783 -0.1629  0.9373 -0.5335
    1SOL    HW3 9055   1.343   0.882   3.728  0.9287 -0.0167  0.4691
    1SOL    MW4 9056   1.297   0.852   3.796  0.0628  0.4228  0.0842
    1SOL     OW 9057   0.023   2.647   3.949 -0.1072 -0.4176  0.1648
    1SOL    HW2 9058  -0.046   2.633   4.015  0.8370 -0.4967  1.1605
    1SOL    HW3 9059   0.104   2.640   3.999  0.5964  0.6997 -0.8141
    1SOL    MW4 9060   0.024   2.644   3.965  0.1102 -0.2804  0.1671
    1SOL     OW 9061   3.075   1.639   4.059  0.0849 -0.2358 -0.3247
    1SOL    HW2 9062   2.992   1.620   4.013  0.6824 -3.4714 -0.1948
    1SOL    HW3 9063   3.050   1.647   4.151 -0.1333 -0.9453 -0.3192
    1SOL    MW4 9064   3.060   1.638   4.065  0.1347 -0.7563 -0.3076
    1SOL     OW 9065   2.166   1.060   3.808 -0.5629 -0.2611 -0.0821
    1SOL    HW2 9066   2.107   1.100   3.871  0.2439  0.8186  0.0070
    1SOL    HW3 9067   2.188   1.130   3.747  0.6929 -0.6137 -0.0586
    1SOL    MW4 9068   2.161   1.074   3.808 -0.2909 -0.1651 -0.0672
    1SOL     OW 9069   0.978   1.074   4.417 -0.6673 -0.1112 -0.0858
    1SOL    HW2 9070   1.038   1.008   4.454 -0.3625 -0.5542 -1.3293
    1SOL    HW3 9071   1.029   1.155   4.416 -0.2005 -0.4037 -0.7849
    1SOL    MW4 9072   0.993   1.076   4.422 -0.5655 -0.2083 -0.3424
    1SOL     OW 9073   1.888   3.769   3.293  0.1515  0.0864 -0.0027
    1SOL    HW2 9074   1.849   3.744   3.377 -0.7982 -0.7214 -0.6784
    1SOL    HW3 9075   1.834   3.843   3.263  1.2146  1.1441  0.6453
    1SOL    MW4 9076   1.875   3.775   3.300  0.1664  0.1197 -0.0064
    1SOL     OW 9077   4.122   1.576   3.873  0.0451 -0.0930 -0.0420
    1SOL    HW2 9078   4.079   1.657   3.844 -0.8623 -0.1521  1.0842
    1SOL    HW3 9079   4.164   1.600   3.955  1.0642 -0.3881 -0.4733
    1SOL    MW4 9080   4.122   1.590   3.880  0.0601 -0.1397  0.0498
    1SOL     OW 9081   3.880   4.259   3.834 -0.3084  0.1944  0.0771
    1SOL    HW2 9082   3.899   4.203   3.758  0.5775  1.8239 -0.9263
    1SOL    HW3 9083   3.963   4.265   3.881 -0.8584 -0.8073  1.1769
    1SOL    MW4 9084   3.893   4.252   3.830 -0.2639  0.2775  0.0896
    1SOL     OW 9085   1.689   0.510   3.291  0.1427  0.1752  0.2386
    1SOL    HW2 9086   1.721   0.568   3.360  1.5217 -0.1541 -0.1124
    1SOL    HW3 9087   1.713   0.422   3.320  1.1283  0.0713 -0.8539
    1SOL    MW4 9088   1.697   0.506   3.304  0.4547  0.1181  0.0484
    1SOL     OW 9089   1.202   1.035   4.022  0.0738  0.4030 -0.4909
    1SOL    HW2 9090   1.226   0.977   3.949  0.4620 -0.4509  0.3115
    1SOL    HW3 9091   1.121   1.077   3.993  1.4323  1.8036 -2.3790
    1SOL    MW4 9092   1.194   1.033   4.008  0.3043  0.4752 -0.6342
    1SOL     OW 9093   4.086   3.005   3.595  0.0439  0.1602 -0.1607
    1SOL    HW2 9094   4.011   3.013   3.653  0.6765 -0.8224  0.8055
    1SOL    HW3 9095   4.054   3.036   3.510 -1.4137 -0.1352  0.2653
    1SOL    MW4 9096   4.072   3.010   3.591 -0.0644 -0.0083  0.0229
    1SOL     OW 9097   2.131   3.139   3.406 -0.2289  0.1885  0.3091
    1SOL    HW2 9098   2.044   3.106   3.426 -0.7897  1.6145  0.3193
    1SOL    HW3 9099   2.191   3.068   3.430 -1.4449 -1.1554 -0.5953
    1SOL    MW4 9100   2.128   3.125   3.412 -0.4632  0.1991  0.1912
    1SOL     OW 9101   2.216   3.195   3.672 -0.0513  0.0271  0.1256
    1SOL    HW2 9102   2.173   3.187   3.587  0.0572  0.2916  0.0461
    1SOL    HW3 9103   2.263   3.278   3.668 -1.5592  0.9448  1.1354
    1SOL    MW4 9104   2.217   3.205   3.661 -0.2360  0.1831  0.2482
    1SOL     OW 9105   1.568   0.364   4.321  0.3778 -0.1292 -0.3409
    1SOL    HW2 9106   1.542   0.407   4.239 -1.4826  0.0360  0.3038
    1SOL    HW3 9107   1.539   0.424   4.389 -2.5068 -2.4387  0.6015
    1SOL    MW4 9108   1.561   0.378   4.319 -0.2482 -0.4122 -0.1316
    1SOL     OW 9109   2.194   1.777   3.779  0.4227  0.0361  0.1578
    1SOL    HW2 9110   2.226   1.859   3.814  1.0760  0.0920 -0.5420
    1SOL    HW3 9111   2.170   1.797   3.688  1.9779 -0.8536 -0.4827
    1SOL    MW4 9112   2.195   1.790   3.771  0.7138 -0.0739 -0.0193
    1SOL     OW 9113   1.564   2.942   4.148 -0.0693  0.3487  0.4486
    1SOL    HW2 9114   1.657   2.950   4.165 -0.1237 -0.8418  1.3295
    1SOL    HW3 9115   1.530   3.031   4.155  0.9368  0.7261  0.4993
    1SOL    MW4 9116   1.572   2.955   4.151  0.0561  0.2415  0.5717
    1SOL     OW 9117   3.182   0.240   4.521 -0.3150  0.5822 -0.4114
    1SOL    HW2 9118   3.105   0.218   4.574  0.5908  0.7841  0.9986
    1SOL    HW3 9119   3.172   0.187   4.442  0.3233 -2.6822  1.6491
    1SOL    MW4 9120   3.170   0.230   4.518 -0.1113  0.1781  0.0463
    1SOL     OW 9121   2.641   2.210   2.789 -0.1101  0.2453 -0.7012
    1SOL    HW2 9122   2.659   2.250   2.874  0.3206 -1.0983 -0.1426
    1SOL    HW3 9123   2.721   2.163   2.767 -1.3621 -2.2119 -0.2322
    1SOL    MW4 9124   2.654   2.209   2.798 -0.2184 -0.2558 -0.5658
    1SOL     OW 9125   0.024   3.179   3.424  0.0541  0.0627 -0.5196
    1SOL    HW2 9126   0.034   3.149   3.515 -0.4128 -1.7233 -1.0453
    1SOL    HW3 9127  -0.037   3.253   3.429  2.2627  1.8624  0.9622
    1SOL    MW4 9128   0.018   3.185   3.437  0.2839  0.0646 -0.3936
    1SOL     OW 9129   2.722   4.083   3.792 -0.1484 -0.2593  0.1693
    1SOL    HW2 9130   2.754   4.005   3.837  0.7511  0.7791  1.3708
    1SOL    HW3 9131   2.726   4.061   3.699 -0.8226 -1.9846  0.5204
    1SOL    MW4 9132   2.727   4.070   3.786 -0.1187 -0.3495  0.3738
    1SOL     OW 9133   1.237   2.594   4.441  0.4735  0.1183 -0.0747
    1SOL    HW2 9134   1.293   2.531   4.486  2.0983  0.1666 -1.9595
    1SOL    HW3 9135   1.296   2.645   4.386 -1.3276  0.6159 -1.6236
    1SOL    MW4 9136   1.252   2.592   4.440  0.4501  0.1903 -0.5279
    1SOL     OW 9137   1.133   3.385   4.657 -0.7540  0.1545  0.7322
    1SOL    HW2 9138   1.159   3.432   4.578  0.0064 -0.0847  0.8349
    1SOL    HW3 9139   1.037   3.383   4.653 -0.8117  2.0004  0.9162
    1SOL    MW4 9140   1.124   3.391   4.646 -0.6613  0.3662  0.7701
    1SOL     OW 9141   2.471   3.284   4.602  0.2391  0.1498 -0.3058
    1SOL    HW2 9142   2.391   3.238   4.625  0.5977  0.0621  0.7877
    1SOL    HW3 9143   2.479   3.273   4.507 -0.1920 -1.1927 -0.1954
    1SOL    MW4 9144   2.462   3.277   4.593  0.2298 -0.0391 -0.1469
    1SOL     OW 9145   2.404   4.345   3.628  0.6974 -0.1271  0.4287
    1SOL    HW2 9146   2.493   4.377   3.643  0.9020 -0.4050 -0.1872
    1SOL    HW3 9147   2.382   4.296   3.708  0.6169  0.9939  1.1133
    1SOL    MW4 9148   2.413   4.343   3.641  0.7138 -0.0162  0.4380
    1SOL     OW 9149   4.432   3.493   2.903  0.2923 -0.4901 -0.1716
    1SOL    HW2 9150   4.432   3.510   2.997  0.9149  0.5180 -0.3547
    1SOL    HW3 9151   4.382   3.412   2.894  1.8868 -1.6716  1.2146
    1SOL    MW4 9152   4.425   3.484   2.914  0.5851 -0.5131 -0.0129
    1SOL     OW 9153   2.373   3.421   3.713  0.1077 -0.1449  0.2289
    1SOL    HW2 9154   2.432   3.414   3.788  0.2070 -0.8623  0.0892
    1SOL    HW3 9155   2.428   3.403   3.637 -0.1122  0.0249  0.0278
    1SOL    MW4 9156   2.388   3.418   3.713  0.0920 -0.2172  0.1841
    1SOL     OW 9157   2.151   0.175   3.289 -0.2040 -0.0492 -0.6351
    1SOL    HW2 9158   2.093   0.104   3.262 -0.9257 -0.1162  1.0290
    1SOL    HW3 9159   2.127   0.249   3.233 -2.3985  0.1368  0.4968
    1SOL    MW4 9160   2.140   0.176   3.278 -0.5889 -0.0335 -0.2663
    1SOL     OW 9161   3.840   0.235   4.140  0.3856  0.4267 -0.2556
    1SOL    HW2 9162   3.908   0.294   4.172  1.1082 -0.2538 -0.5215
    1SOL    HW3 9163   3.809   0.189   4.219  1.3144 -0.3689 -0.3392
    1SOL    MW4 9164   3.845   0.237   4.155  0.6034  0.2320 -0.3018
    1SOL     OW 9165   2.290   0.088   3.916 -0.1893  0.1029  0.2156
    1SOL    HW2 9166   2.273   0.168   3.965 -1.0172 -0.1745  0.3891
    1SOL    HW3 9167   2.218   0.030   3.940  0.9712 -1.0813  0.9271
    1SOL    MW4 9168   2.278   0.091   3.926 -0.1452 -0.0899  0.3324
    1SOL     OW 9169   3.078   1.293   3.309  0.0536 -0.3146  0.0321
    1SOL    HW2 9170   3.127   1.375   3.309 -2.0282  0.9725  0.9018
    1SOL    HW3 9171   3.011   1.305   3.242 -0.8590 -0.9033  0.8166
    1SOL    MW4 9172   3.076   1.305   3.300 -0.3414 -0.2222  0.2506
    1SOL     OW 9173   1.718   1.315   4.370  0.1749  0.1174  0.3199
    1SOL    HW2 9174   1.799   1.297   4.321  0.3853 -1.2909  1.1621
    1SOL    HW3 9175   1.739   1.291   4.460 -0.4952  1.8692  0.9472
    1SOL    MW4 9176   1.732   1.309   4.375  0.1142  0.1626  0.5140
    1SOL     OW 9177   4.422   2.536   3.518 -0.4584  0.0456  0.1884
    1SOL    HW2 9178   4.470   2.514   3.597  1.3739  0.2438 -0.8474
    1SOL    HW3 9179   4.423   2.632   3.515  0.0449  0.0263 -0.4010
    1SOL    MW4 9180   4.428   2.546   3.528 -0.1502  0.0691 -0.0257
    1SOL     OW 9181   0.960   0.021   3.693 -0.2066 -0.3749 -0.3713
    1SOL    HW2 9182   0.911   0.049   3.771 -1.0567  0.1639 -1.0808
    1SOL    HW3 9183   0.917   0.067   3.621  0.9462 -0.4140 -1.0906
    1SOL    MW4 9184   0.948   0.031   3.694 -0.1667 -0.3090 -0.5596
    1SOL     OW 9185   2.495   1.285   3.984  0.2502 -0.6526  0.4352
    1SOL    HW2 9186   2.455   1.198   3.982 -0.3827 -0.3675  0.4820
    1SOL    HW3 9187   2.486   1.318   3.895  0.6604 -0.7110  0.3719
    1SOL    MW4 9188   2.488   1.278   3.972  0.2210 -0.6226  0.4330
    1SOL     OW 9189   2.313   2.089   4.132 -0.1120 -0.0384 -0.8738
    1SOL    HW2 9190   2.357   2.015   4.174 -0.6643 -0.3381 -0.8151
    1SOL    HW3 9191   2.372   2.162   4.145  0.3926 -0.4485 -0.8359
    1SOL    MW4 9192   2.326   2.089   4.140 -0.1185 -0.1318 -0.8607
    1SOL     OW 9193   2.125   2.364   3.933 -0.1139 -0.0035 -0.3249
    1SOL    HW2 9194   2.205   2.411   3.955 -0.2458 -0.1581  0.4933
    1SOL    HW3 9195   2.055   2.427   3.950 -0.2546 -0.3148  0.2564
    1SOL    MW4 9196   2.126   2.378   3.938 -0.1500 -0.0648 -0.1404
    1SOL     OW 9197   2.817   1.768   3.157  0.0368  0.3168 -0.0526
    1SOL    HW2 9198   2.814   1.675   3.182  0.3558  0.9920  2.6342
    1SOL    HW3 9199   2.899   1.777   3.108 -0.1416 -0.8656 -0.5927
    1SOL    MW4 9200   2.827   1.757   3.154  0.0556  0.2497  0.2306
    1SOL     OW 9201   2.683   2.383   3.426  0.0617  0.1517 -0.5168
    1SOL    HW2 9202   2.775   2.367   3.446 -0.0835 -0.7742 -0.5972
    1SOL    HW3 9203   2.641   2.297   3.432 -0.7190  0.5001 -0.8974
    1SOL    MW4 9204   2.690   2.370   3.429 -0.0606  0.0753 -0.5774
    1SOL     OW 9205   1.108   2.678   4.683 -0.2733  0.8071 -0.5020
    1SOL    HW2 9206   1.178   2.643   4.739 -0.0216  1.5243 -0.3656
    1SOL    HW3 9207   1.130   2.646   4.596 -0.5311 -0.1116 -0.2374
    1SOL    MW4 9208   1.120   2.669   4.679 -0.2739  0.7806 -0.4487
    1SOL     OW 9209   0.274   2.360   4.432 -0.1079 -0.4558 -0.0631
    1SOL    HW2 9210   0.324   2.364   4.514  0.2510  0.9241 -0.3490
    1SOL    HW3 9211   0.208   2.428   4.440  0.0352 -0.2023 -1.0026
    1SOL    MW4 9212   0.272   2.369   4.444 -0.0417 -0.2403 -0.2246
    1SOL     OW 9213   1.261   3.068   3.716 -0.0157  0.2465 -0.1073
    1SOL    HW2 9214   1.169   3.043   3.716  0.2199 -0.6684 -0.4353
    1SOL    HW3 9215   1.300   3.013   3.785  0.3652  0.2854 -0.2925
    1SOL    MW4 9216   1.254   3.057   3.725  0.0657  0.1309 -0.1748
    1SOL     OW 9217   3.050   4.167   3.601 -0.4348 -0.2847  0.0096
    1SOL    HW2 9218   3.113   4.206   3.541 -0.0549 -1.0799 -0.1062
    1SOL    HW3 9219   2.976   4.229   3.601  0.9348  1.4013  1.2858
    1SOL    MW4 9220   3.048   4.180   3.593 -0.2041 -0.1669  0.1628
    1SOL     OW 9221   1.748   2.567   4.318  0.0189  0.8270 -0.3950
    1SOL    HW2 9222   1.767   2.488   4.267  0.4873  0.0819  0.9131
    1SOL    HW3 9223   1.816   2.629   4.291  1.4195 -0.1996  0.6821
    1SOL    MW4 9224   1.759   2.565   4.308  0.2656  0.5932 -0.0806
    1SOL     OW 9225   3.004   3.384   4.375 -0.0682 -0.5952  0.1337
    1SOL    HW2 9226   2.951   3.441   4.430 -1.1973 -0.8441 -0.6660
    1SOL    HW3 9227   3.043   3.321   4.436 -0.5621 -0.3092  0.7516
    1SOL    MW4 9228   3.002   3.383   4.390 -0.2823 -0.5903  0.1097
    1SOL     OW 9229   2.975   1.133   3.917  0.3463 -0.3210 -0.3302
    1SOL    HW2 9230   2.940   1.052   3.880 -0.4544 -0.1665  0.0921
    1SOL    HW3 9231   3.070   1.118   3.920  0.2453 -1.0670 -0.6728
    1SOL    MW4 9232   2.983   1.120   3.913  0.2272 -0.3991 -0.3197
    1SOL     OW 9233   1.949   3.322   3.799  0.2541 -0.0322  0.9293
    1SOL    HW2 9234   2.038   3.286   3.803  0.1096 -0.4292  0.6001
    1SOL    HW3 9235   1.951   3.382   3.725 -0.1373 -1.1066  0.0399
    1SOL    MW4 9236   1.961   3.325   3.790  0.1835 -0.2265  0.7687
    1SOL     OW 9237   2.061   4.183   4.457 -0.1607  0.1360  0.7161
    1SOL    HW2 9238   2.032   4.096   4.429  0.2193 -0.0954  1.0259
    1SOL    HW3 9239   2.149   4.168   4.492 -0.5877  0.4293  1.9311
    1SOL    MW4 9240   2.069   4.169   4.458 -0.1669  0.1445  0.9170
    1SOL     OW 9241   3.702   0.233   2.358  0.1509  0.0319 -0.2027
    1SOL    HW2 9242   3.655   0.226   2.441 -0.3578  0.0202 -0.4904
    1SOL    HW3 9243   3.785   0.275   2.381 -0.0664  0.1978  0.2829
    1SOL    MW4 9244   3.707   0.238   2.372  0.0553  0.0522 -0.1769
    1SOL     OW 9245   2.149   4.075   3.716 -0.0410  0.2248  0.1333
    1SOL    HW2 9246   2.121   4.107   3.630  2.3352  0.1553 -0.6951
    1SOL    HW3 9247   2.129   3.982   3.714 -1.3417  0.4891  0.2293
    1SOL    MW4 9248   2.142   4.067   3.704  0.1006  0.2508  0.0365
    1SOL     OW 9249   3.773   4.102   2.975  0.0145  0.0905 -0.5601
    1SOL    HW2 9250   3.812   4.182   3.011  0.1270  0.8709 -2.3630
    1SOL    HW3 9251   3.782   4.112   2.880  0.2187 -2.1604 -0.8042
    1SOL    MW4 9252   3.779   4.114   2.967  0.0563 -0.1035 -0.8299
    1SOL     OW 9253   4.116   0.044   3.886  0.0611 -0.4867 -0.0487
    1SOL    HW2 9254   4.065  -0.008   3.949 -0.4476 -0.8154 -0.7170
    1SOL    HW3 9255   4.123  -0.013   3.809 -1.3769  0.8263 -1.1669
    1SOL    MW4 9256   4.110   0.030   3.884 -0.1960 -0.3567 -0.2842
    1SOL     OW 9257   2.827   4.345   4.018  0.2566 -0.2230 -0.5079
    1SOL    HW2 9258   2.852   4.341   3.925  0.8259  0.1934 -0.3684
    1SOL    HW3 9259   2.807   4.254   4.040  1.1456 -0.4826 -0.7531
    1SOL    MW4 9260   2.827   4.332   4.008  0.4489 -0.2027 -0.5212
    1SOL     OW 9261   3.502   4.072   4.158  0.2854 -0.1877 -0.1405
    1SOL    HW2 9262   3.494   4.128   4.235  0.8640  1.0793 -0.9789
    1SOL    HW3 9263   3.583   4.101   4.115 -0.8426  0.2154 -2.0738
    1SOL    MW4 9264   3.512   4.083   4.162  0.2129  0.0324 -0.5064
    1SOL     OW 9265   2.417   0.427   4.137 -0.0500  0.1808  0.3221
    1SOL    HW2 9266   2.356   0.482   4.089  0.3331  0.1517 -0.2151
    1SOL    HW3 9267   2.476   0.488   4.181 -0.6065  0.2101  1.0281
    1SOL    MW4 9268   2.417   0.442   4.136 -0.0730  0.1808  0.3443
    1SOL     OW 9269   2.141   1.028   4.880 -0.3954  0.3819  0.3255
    1SOL    HW2 9270   2.062   0.976   4.897 -0.7751  0.5512 -0.8925
    1SOL    HW3 9271   2.131   1.059   4.790  0.3171  1.7022  0.6817
    1SOL    MW4 9272   2.129   1.025   4.871 -0.3514  0.5785  0.2122
    1SOL     OW 9273   1.225   0.480   4.233 -0.0814 -0.6007  0.2212
    1SOL    HW2 9274   1.316   0.505   4.217  0.6029 -1.9839  1.8282
    1SOL    HW3 9275   1.174   0.547   4.187  1.7235 -1.1252 -2.6866
    1SOL    MW4 9276   1.231   0.492   4.225  0.2469 -0.8523  0.0491
    1SOL     OW 9277   3.224   2.498   3.299  0.2089  0.2225 -0.6146
    1SOL    HW2 9278   3.243   2.545   3.380  2.7570 -1.3110 -0.2634
    1SOL    HW3 9279   3.254   2.409   3.316 -0.2859 -0.3915 -2.8586
    1SOL    MW4 9280   3.231   2.492   3.312  0.4797 -0.0608 -0.8645
    1SOL     OW 9281   3.568   0.280   2.617 -0.3592  0.3860  0.1856
    1SOL    HW2 9282   3.476   0.252   2.628  0.3000 -2.1841 -0.4009
    1SOL    HW3 9283   3.596   0.303   2.705 -0.5101 -2.4711  1.0516
    1SOL    MW4 9284   3.559   0.279   2.630 -0.2921 -0.3301  0.2224
    1SOL     OW 9285   2.608   3.779   4.528 -0.2191 -0.0973 -0.2187
    1SOL    HW2 9286   2.558   3.704   4.562 -0.1528 -0.5639 -1.1444
    1SOL    HW3 9287   2.674   3.740   4.471  1.7948  0.4335  1.6735
    1SOL    MW4 9288   2.610   3.764   4.525  0.0556 -0.0889 -0.0911
    1SOL     OW 9289   2.911   2.168   2.681 -0.9040 -0.1833  0.3727
    1SOL    HW2 9290   2.895   2.113   2.604  0.4183 -0.6616  0.4280
    1SOL    HW3 9291   2.922   2.256   2.647 -0.1969 -0.4156 -0.0035
    1SOL    MW4 9292   2.910   2.172   2.666 -0.6363 -0.2770  0.3304
    1SOL     OW 9293   2.640   2.788   3.954  0.2791  0.1701  0.1159
    1SOL    HW2 9294   2.564   2.772   4.010  0.8743 -0.6389  0.7039
    1SOL    HW3 9295   2.711   2.809   4.015  0.8763 -0.4899 -0.3484
    1SOL    MW4 9296   2.639   2.789   3.969  0.4363 -0.0236  0.1323
    1SOL     OW 9297   3.096   0.480   3.949  0.1880 -0.1886 -0.5187
    1SOL    HW2 9298   3.059   0.523   3.872  0.5482  0.5907 -0.2603
    1SOL    HW3 9299   3.023   0.475   4.011  0.0168 -0.4062 -0.7358
    1SOL    MW4 9300   3.081   0.485   3.947  0.2127 -0.1145 -0.5131
    1SOL     OW 9301   0.340   0.801   4.257  0.3849  0.0979  0.3500
    1SOL    HW2 9302   0.314   0.833   4.344  0.7127 -0.6377  0.7237
    1SOL    HW3 9303   0.260   0.809   4.204  0.7275  2.5224  0.1227
    1SOL    MW4 9304   0.326   0.806   4.262  0.4734  0.3206  0.3700
    1SOL     OW 9305   3.306   3.145   4.267  0.2226 -0.2281  0.2492
    1SOL    HW2 9306   3.324   3.076   4.204 -0.9871 -0.5675  0.2592
    1SOL    HW3 9307   3.273   3.218   4.214 -0.1621 -0.2782  0.4187
    1SOL    MW4 9308   3.304   3.146   4.252  0.0126 -0.2794  0.2728
    1SOL     OW 9309   2.831   2.575   3.168 -0.7276 -0.3451 -0.4999
    1SOL    HW2 9310   2.887   2.648   3.141 -2.0673 -0.2049 -3.0367
    1SOL    HW3 9311   2.870   2.544   3.249  1.5073  1.4010 -0.8542
    1SOL    MW4 9312   2.844   2.581   3.175 -0.6094 -0.0961 -0.8812
    1SOL     OW 9313   2.568   2.916   4.264 -0.4187  0.0100 -0.0198
    1SOL    HW2 9314   2.566   2.984   4.196 -0.7205 -1.1775 -1.2276
    1SOL    HW3 9315   2.499   2.855   4.237 -0.5329 -0.4729  1.3688
    1SOL    MW4 9316   2.558   2.917   4.251 -0.4737 -0.2105  0.0038
    1SOL     OW 9317   3.281   2.002   3.758  0.4312 -0.0168  0.0915
    1SOL    HW2 9318   3.299   1.999   3.664  0.6085  1.5032  0.0603
    1SOL    HW3 9319   3.218   2.073   3.768  0.1837 -0.3778  1.0814
    1SOL    MW4 9320   3.275   2.011   3.747  0.4218  0.1364  0.2182
    1SOL     OW 9321   3.829   1.158   2.988 -0.4357 -0.6630 -0.1580
    1SOL    HW2 9322   3.790   1.071   2.979  0.2927 -1.0253  0.1300
    1SOL    HW3 9323   3.810   1.183   3.079  0.8610 -1.2683  0.2887
    1SOL    MW4 9324   3.822   1.150   2.999 -0.1686 -0.7906 -0.0610
    1SOL     OW 9325   2.786   3.708   2.721 -0.2816 -0.5649  0.3011
    1SOL    HW2 9326   2.812   3.638   2.781  1.0166 -0.3762 -0.0430
    1SOL    HW3 9327   2.864   3.727   2.669 -1.1027 -0.0225 -0.7687
    1SOL    MW4 9328   2.799   3.701   2.722 -0.2189 -0.4685  0.1144
    1SOL     OW 9329   1.615   3.696   4.281 -0.2923 -0.0433 -0.0202
    1SOL    HW2 9330   1.561   3.620   4.259  1.3242 -0.9615 -0.8666
    1SOL    HW3 9331   1.671   3.666   4.352  1.1981 -0.0312 -1.1745
    1SOL    MW4 9332   1.615   3.682   4.287  0.1177 -0.1631 -0.2837
    1SOL     OW 9333   2.061   4.431   3.506 -0.4164 -0.6498  0.0303
    1SOL    HW2 9334   1.999   4.475   3.564  0.3226 -0.3370  0.5887
    1SOL    HW3 9335   2.146   4.470   3.528 -0.2004 -0.1731 -1.6100
    1SOL    MW4 9336   2.064   4.442   3.517 -0.2904 -0.5460 -0.1123
    1SOL     OW 9337   0.813   3.253   4.186  0.0279  0.1858  0.0644
    1SOL    HW2 9338   0.873   3.195   4.231  0.5304  0.8063  0.1977
    1SOL    HW3 9339   0.735   3.257   4.242  0.9256  1.5160  1.2453
    1SOL    MW4 9340   0.810   3.246   4.199  0.2127  0.4432  0.2379
    1SOL     OW 9341   0.968   0.387   3.971  0.0891  0.3242  0.3514
    1SOL    HW2 9342   0.966   0.352   4.060 -2.2309 -0.6605 -0.0709
    1SOL    HW3 9343   1.041   0.340   3.929  1.6321  1.2845  1.8960
    1SOL    MW4 9344   0.978   0.376   3.977 -0.0134  0.3209  0.4997
    1SOL     OW 9345   0.133   1.854   4.750 -0.2970  0.1423 -0.0850
    1SOL    HW2 9346   0.194   1.802   4.697 -1.3020 -0.4364 -0.7021
    1SOL    HW3 9347   0.145   1.821   4.839 -0.1822 -0.4383 -0.3088
    1SOL    MW4 9348   0.143   1.843   4.754 -0.4145 -0.0107 -0.1955
    1SOL     OW 9349   3.780   1.681   3.269  0.9587  0.2368 -0.3100
    1SOL    HW2 9350   3.692   1.646   3.253  0.4435  1.3881 -0.0039
    1SOL    HW3 9351   3.833   1.645   3.198  0.2299 -0.4194 -0.5313
    1SOL    MW4 9352   3.776   1.671   3.257  0.7946  0.3022 -0.2987
    1SOL     OW 9353   0.882   0.157   3.465 -0.4908 -0.3925  0.2873
    1SOL    HW2 9354   0.937   0.232   3.442  1.7042 -1.7400  1.0165
    1SOL    HW3 9355   0.892   0.096   3.392  0.4630 -1.4156  1.2501
    1SOL    MW4 9356   0.891   0.159   3.453 -0.0753 -0.7053  0.5107
    1SOL     OW 9357   3.147   0.034   3.830 -0.3659 -0.4862 -0.0292
    1SOL    HW2 9358   3.111  -0.053   3.817  0.8218 -1.0467  0.4113
    1SOL    HW3 9359   3.213   0.044   3.761 -0.0503 -0.1843  0.3108
    1SOL    MW4 9360   3.151   0.024   3.819 -0.1676 -0.5204  0.0739
    1SOL     OW 9361   4.367   1.364   4.305 -0.1578 -0.1284  0.0576
    1SOL    HW2 9362   4.296   1.384   4.365 -1.0260  0.0953 -1.0177
    1SOL    HW3 9363   4.344   1.278   4.269  0.9514 -0.7944  0.8966
    1SOL    MW4 9364   4.355   1.355   4.308 -0.1254 -0.1867  0.0267
    1SOL     OW 9365   0.108   2.561   4.487 -0.1732  0.2732 -0.0539
    1SOL    HW2 9366   0.023   2.538   4.450 -0.3643  2.1012 -0.8438
    1SOL    HW3 9367   0.119   2.653   4.463  0.3512  1.1207  3.2239
    1SOL    MW4 9368   0.098   2.570   4.479 -0.1292  0.6261  0.2747
    1SOL     OW 9369   0.646   2.156   4.069  0.0238  0.5767 -0.3975
    1SOL    HW2 9370   0.718   2.217   4.087 -1.1263  2.3730 -1.7651
    1SOL    HW3 9371   0.645   2.098   4.145  2.2456  1.1686  0.1355
    1SOL    MW4 9372   0.655   2.156   4.082  0.1652  0.8917 -0.5078
    1SOL     OW 9373   2.869   0.777   4.060 -0.3746 -0.3572  0.4560
    1SOL    HW2 9374   2.832   0.855   4.102 -1.2382 -0.3071 -0.3935
    1SOL    HW3 9375   2.879   0.801   3.968 -0.3472 -1.1381  0.2518
    1SOL    MW4 9376   2.865   0.791   4.054 -0.4849 -0.4537  0.3176
    1SOL     OW 9377   2.171   0.716   3.596 -0.1322  0.0539  0.0591
    1SOL    HW2 9378   2.132   0.777   3.533 -0.4059 -0.4175 -0.2309
    1SOL    HW3 9379   2.155   0.629   3.559 -0.0313 -0.2136  0.6274
    1SOL    MW4 9380   2.163   0.712   3.583 -0.1550 -0.0436  0.0958
    1SOL     OW 9381   4.042   1.297   2.906 -0.3295 -0.0876  0.1858
    1SOL    HW2 9382   4.092   1.255   2.836  0.2990 -0.1716  0.6856
    1SOL    HW3 9383   3.966   1.240   2.919  0.2677 -0.8129  0.5293
    1SOL    MW4 9384   4.039   1.284   2.898 -0.1674 -0.1942  0.2971
    1SOL     OW 9385   4.472   0.626   4.243 -0.3262 -0.2622 -0.1491
    1SOL    HW2 9386   4.492   0.652   4.333  0.5633  0.0229 -0.4241
    1SOL    HW3 9387   4.524   0.546   4.229  0.0996  0.0954 -0.6412
    1SOL    MW4 9388   4.482   0.619   4.253 -0.1531 -0.1774 -0.2503
    1SOL     OW 9389   2.909   2.170   4.050 -0.2450  0.5344 -0.6080
    1SOL    HW2 9390   2.872   2.082   4.047  0.3830  0.2367  0.1743
    1SOL    HW3 9391   2.980   2.168   3.985 -0.2821  0.4843 -0.6470
    1SOL    MW4 9392   2.914   2.159   4.041 -0.1671  0.4888 -0.5102
    1SOL     OW 9393   0.665   1.305   3.911  0.6835 -0.1466  0.5766
    1SOL    HW2 9394   0.733   1.254   3.955  2.4295  0.7597 -1.0071
    1SOL    HW3 9395   0.629   1.361   3.979  0.6316 -1.5471  1.7162
    1SOL    MW4 9396   0.669   1.306   3.925  0.9070 -0.2117  0.5181
    1SOL     OW 9397   3.734   0.901   2.987  0.4576  0.2922  0.1340
    1SOL    HW2 9398   3.757   0.890   2.894  0.4776 -1.9407  0.3635
    1SOL    HW3 9399   3.641   0.879   2.991  0.3257  0.9402  0.5481
    1SOL    MW4 9400   3.725   0.897   2.975  0.4430  0.0831  0.2189
    1SOL     OW 9401   3.081   3.212   2.518  0.5338 -0.1749  0.0776
    1SOL    HW2 9402   2.997   3.167   2.506  0.6985 -0.2610 -0.8171
    1SOL    HW3 9403   3.063   3.302   2.489  0.6243 -0.0669  0.3561
    1SOL    MW4 9404   3.067   3.218   2.513  0.5674 -0.1719 -0.0038
    1SOL     OW 9405   3.408   1.083   3.696  0.3256  0.0283 -0.0026
    1SOL    HW2 9406   3.321   1.070   3.658 -0.3667 -1.2315  1.9491
    1SOL    HW3 9407   3.402   1.168   3.740  0.1812  0.0713 -0.1043
    1SOL    MW4 9408   3.396   1.093   3.696  0.2153 -0.1322  0.2415
    1SOL     OW 9409   2.467   3.235   4.333  0.0085  0.7902 -0.5893
    1SOL    HW2 9410   2.452   3.325   4.305  1.0288  1.2021  0.1590
    1SOL    HW3 9411   2.485   3.188   4.252 -0.7356  1.2107 -1.0067
    1SOL    MW4 9412   2.468   3.241   4.319  0.0448  0.9000 -0.5460
    1SOL     OW 9413   3.777   3.581   3.848  0.4474  0.5945  0.2052
    1SOL    HW2 9414   3.810   3.604   3.935  1.8034  1.3576 -0.5091
    1SOL    HW3 9415   3.850   3.596   3.789 -0.7930  1.1014 -1.2328
    1SOL    MW4 9416   3.791   3.586   3.852  0.4628  0.7617 -0.0789
    1SOL     OW 9417   2.827   1.558   3.963  0.4383  0.2139  0.2383
    1SOL    HW2 9418   2.748   1.599   3.926  0.0300 -1.7676 -1.1280
    1SOL    HW3 9419   2.794   1.497   4.028  0.8479 -0.5071 -0.2253
    1SOL    MW4 9420   2.812   1.556   3.966  0.4385 -0.1427 -0.0029
    1SOL     OW 9421   3.412   3.738   3.563 -0.0485  0.0137  0.3076
    1SOL    HW2 9422   3.392   3.830   3.579 -1.0692 -0.4978  2.1140
    1SOL    HW3 9423   3.336   3.691   3.595 -0.1512 -1.4023 -1.9123
    1SOL    MW4 9424   3.400   3.744   3.569 -0.1969 -0.2403  0.2530
    1SOL     OW 9425   2.311   0.424   4.951 -0.1924  0.0927 -0.0430
    1SOL    HW2 9426   2.313   0.357   5.019 -1.0005  1.5020  1.4216
    1SOL    HW3 9427   2.248   0.392   4.887 -0.2853 -0.7232  0.4554
    1SOL    MW4 9428   2.303   0.411   4.951 -0.3111  0.1709  0.2155
    1SOL     OW 9429   1.813   3.368   4.066  0.3164 -0.4212  0.0528
    1SOL    HW2 9430   1.729   3.325   4.051  0.4937 -0.6201 -0.3747
    1SOL    HW3 9431   1.868   3.341   3.992  1.0839 -1.0998  0.8515
    1SOL    MW4 9432   1.809   3.359   4.054  0.4412 -0.5369  0.1016
    1SOL     OW 9433   2.200   4.453   3.124  0.1330  0.3562 -0.0856
    1SOL    HW2 9434   2.136   4.469   3.193  1.2409 -1.0889  1.2987
    1SOL    HW3 9435   2.200   4.358   3.112  0.5475  0.5161 -1.5129
    1SOL    MW4 9436   2.191   4.442   3.131  0.3340  0.1869 -0.0913
    1SOL     OW 9437   2.064   1.096   4.584  0.4273 -0.0873  0.1433
    1SOL    HW2 9438   2.130   1.166   4.588 -0.3667  0.6603  0.3119
    1SOL    HW3 9439   1.982   1.142   4.570  0.0148 -1.0646 -0.7267
    1SOL    MW4 9440   2.062   1.112   4.583  0.2680 -0.1178  0.0510
    1SOL     OW 9441   3.484   0.428   3.755  0.2120 -0.7382  0.3251
    1SOL    HW2 9442   3.458   0.446   3.846 -0.1010 -1.3094  0.3493
    1SOL    HW3 9443   3.503   0.515   3.719 -2.0416 -0.2636  0.2135
    1SOL    MW4 9444   3.483   0.442   3.763 -0.1264 -0.7509  0.3135
    1SOL     OW 9445   2.084   3.615   4.120  0.1525  0.1593 -0.2511
    1SOL    HW2 9446   1.998   3.646   4.093 -0.5306  0.0015  1.6754
    1SOL    HW3 9447   2.091   3.640   4.213  1.9374 -0.3436 -0.2251
    1SOL    MW4 9448   2.074   3.623   4.129  0.2980  0.0722  0.0067
    1SOL     OW 9449   2.980   1.045   2.852 -0.4456 -0.1123 -0.3018
    1SOL    HW2 9450   2.916   1.087   2.795 -0.6614  0.7143  0.5466
    1SOL    HW3 9451   3.035   1.116   2.884 -0.7232 -0.4750  1.0196
    1SOL    MW4 9452   2.979   1.060   2.849 -0.5107 -0.0510 -0.0157
    1SOL     OW 9453   3.804   4.566   3.402  0.2600  0.2282 -0.1856
    1SOL    HW2 9454   3.849   4.481   3.401 -0.4560 -0.1467 -1.6662
    1SOL    HW3 9455   3.870   4.626   3.437  1.5937 -0.5140 -1.3231
    1SOL    MW4 9456   3.819   4.562   3.406  0.3414  0.0811 -0.5307
    1SOL     OW 9457   4.476   3.860   4.406  0.0306  0.1254 -0.0135
    1SOL    HW2 9458   4.551   3.867   4.465 -0.8975  0.5144  1.1419
    1SOL    HW3 9459   4.514   3.870   4.318  1.3590  0.0318  0.5344
    1SOL    MW4 9460   4.491   3.863   4.402  0.0834  0.1645  0.2117
    1SOL     OW 9461   0.714   1.380   4.548  0.0942  0.0342  0.4308
    1SOL    HW2 9462   0.733   1.299   4.595 -0.1072 -0.3326 -0.1193
    1SOL    HW3 9463   0.630   1.409   4.584 -0.0738 -0.2602  0.2712
    1SOL    MW4 9464   0.705   1.373   4.559  0.0455 -0.0529  0.3371
    1SOL     OW 9465   1.964   2.111   3.552  0.3068 -0.1465  0.2086
    1SOL    HW2 9466   1.871   2.127   3.567  0.3699  0.0364  0.4045
    1SOL    HW3 9467   1.969   2.018   3.532 -0.3166  0.4022 -2.7447
    1SOL    MW4 9468   1.952   2.101   3.551  0.2329 -0.0498 -0.1552
    1SOL     OW 9469   3.892   4.647   4.089  0.0340 -0.4555 -0.7768
    1SOL    HW2 9470   3.890   4.742   4.093  1.5725 -0.3777 -1.5802
    1SOL    HW3 9471   3.945   4.621   4.164  0.3876 -0.6370 -1.0893
    1SOL    MW4 9472   3.899   4.656   4.099  0.2835 -0.4687 -0.9246
    1SOL     OW 9473   4.336   1.130   3.345  0.1769 -0.3638  0.4451
    1SOL    HW2 9474   4.379   1.060   3.296  0.8266  1.1618 -1.2191
    1SOL    HW3 9475   4.407   1.173   3.393  0.4010  1.5171 -1.5057
    1SOL    MW4 9476   4.351   1.127   3.345  0.2918  0.0857 -0.0317
    1SOL     OW 9477   3.037   2.038   2.920 -0.4706  0.2362 -0.2118
    1SOL    HW2 9478   3.005   2.060   2.833 -1.6084 -0.4915  0.0185
    1SOL    HW3 9479   2.989   2.097   2.979  0.2597  0.6918 -0.0672
    1SOL    MW4 9480   3.026   2.049   2.916 -0.5245  0.2003 -0.1621
    1SOL     OW 9481   0.171   0.593   4.544  0.0370  0.6004 -0.0673
    1SOL    HW2 9482   0.214   0.553   4.619  0.6468  2.1679  0.4462
    1SOL    HW3 9483   0.243   0.614   4.484  0.0155  3.1103  0.7395
    1SOL    MW4 9484   0.186   0.591   4.546  0.1146  1.1384  0.1063
    1SOL     OW 9485   2.556   2.984   3.358  0.7360  0.4365 -0.3031
    1SOL    HW2 9486   2.579   2.914   3.296  0.1597  0.2469 -0.3086
    1SOL    HW3 9487   2.635   2.997   3.411  0.7419 -0.4303 -0.1000
    1SOL    MW4 9488   2.569   2.976   3.357  0.6607  0.2968 -0.2770
    1SOL     OW 9489   1.930   2.958   3.446 -0.6497  0.3481  0.2519
    1SOL    HW2 9490   1.964   2.925   3.529 -0.8474 -0.6275 -0.0490
    1SOL    HW3 9491   1.936   2.884   3.387  1.6289  1.6627 -1.2527
    1SOL    MW4 9492   1.936   2.944   3.449 -0.3752  0.3929  0.0136
    1SOL     OW 9493   4.402   2.829   3.725  0.4197 -0.1325 -0.7443
    1SOL    HW2 9494   4.468   2.789   3.782 -1.5893 -0.8690  1.1506
    1SOL    HW3 9495   4.367   2.902   3.777 -0.4528  0.0811 -1.6169
    1SOL    MW4 9496   4.406   2.834   3.739  0.0396 -0.2017 -0.6094
    1SOL     OW 9497   0.170   2.365   4.731  0.0252  0.0899  0.0912
    1SOL    HW2 9498   0.112   2.439   4.710  0.5818  0.1630 -1.2163
    1SOL    HW3 9499   0.124   2.288   4.699 -1.6336 -0.4399  3.5238
    1SOL    MW4 9500   0.156   2.365   4.724 -0.1202  0.0296  0.3719
    1SOL     OW 9501   0.371   3.086   4.397  0.2438  0.3691  0.2027
    1SOL    HW2 9502   0.439   3.136   4.353  1.0492 -1.2319 -0.4244
    1SOL    HW3 9503   0.415   3.005   4.425 -0.7202  0.5221  2.2490
    1SOL    MW4 9504   0.386   3.082   4.395  0.2228  0.1779  0.3901
    1SOL     OW 9505   3.349   2.671   4.170 -0.7277 -0.5245  0.3547
    1SOL    HW2 9506   3.434   2.633   4.195 -0.3448 -0.6522 -1.0904
    1SOL    HW3 9507   3.307   2.692   4.253  1.0566  0.2750  1.0730
    1SOL    MW4 9508   3.355   2.668   4.184 -0.4416 -0.4358  0.2584
    1SOL     OW 9509   2.738   4.111   4.137  0.0205 -0.2518 -0.7629
    1SOL    HW2 9510   2.757   4.038   4.079  0.1322 -0.2357 -0.7459
    1SOL    HW3 9511   2.665   4.080   4.191  0.7074 -0.7150 -0.0940
    1SOL    MW4 9512   2.731   4.097   4.137  0.1259 -0.3104 -0.6723
    1SOL     OW 9513   4.130   3.311   3.246 -0.3692  0.0758 -0.2360
    1SOL    HW2 9514   4.106   3.402   3.229 -1.8296 -0.3274 -0.4196
    1SOL    HW3 9515   4.183   3.286   3.170 -1.5355  0.2115 -1.1149
    1SOL    MW4 9516   4.134   3.320   3.233 -0.7157  0.0405 -0.3762
    1SOL     OW 9517   3.453   3.073   3.094 -0.0267  0.4744  0.0263
    1SOL    HW2 9518   3.548   3.084   3.084  0.0564 -1.2801 -1.3339
    1SOL    HW3 9519   3.433   2.994   3.044 -2.0803  0.3381  1.0291
    1SOL    MW4 9520   3.463   3.064   3.086 -0.2871  0.2248 -0.0207
    1SOL     OW 9521   0.139   3.951   4.190  0.0772 -0.3281 -0.5092
    1SOL    HW2 9522   0.075   4.006   4.145  0.2477 -0.2578 -0.6661
    1SOL    HW3 9523   0.175   4.007   4.259 -1.4213 -0.9760  0.8216
    1SOL    MW4 9524   0.136   3.966   4.193 -0.0980 -0.4044 -0.3548
    1SOL     OW 9525   4.127   4.289   3.954  0.3751 -0.3785  0.1591
    1SOL    HW2 9526   4.137   4.204   3.997 -1.8718 -1.2641 -0.9778
    1SOL    HW3 9527   4.164   4.352   4.016  1.6314 -2.1165  1.2291
    1SOL    MW4 9528   4.133   4.286   3.968  0.2446 -0.7248  0.1504
    1SOL     OW 9529   2.201   3.790   2.436 -0.2462 -0.4593  0.1808
    1SOL    HW2 9530   2.178   3.787   2.529 -0.0911  1.2456  0.2896
    1SOL    HW3 9531   2.155   3.715   2.397 -0.6532 -0.9280  1.5513
    1SOL    MW4 9532   2.192   3.780   2.443 -0.2794 -0.2959  0.3757
    1SOL     OW 9533   0.595   0.129   3.746  0.0313  0.2465  0.2180
    1SOL    HW2 9534   0.590   0.034   3.762 -0.1799  0.5227  1.8781
    1SOL    HW3 9535   0.582   0.138   3.652  1.9948 -1.5231 -0.2568
    1SOL    MW4 9536   0.593   0.117   3.736  0.2626  0.0495  0.3743
    1SOL     OW 9537   0.014   0.427   3.194  0.4489 -0.0288 -0.6066
    1SOL    HW2 9538   0.006   0.519   3.169  0.4113  0.1071 -0.1013
    1SOL    HW3 9539   0.108   0.415   3.208  0.3062  0.2990  0.6909
    1SOL    MW4 9540   0.026   0.438   3.192  0.4251  0.0323 -0.3688
    1SOL     OW 9541   3.253   0.383   3.496 -0.1972 -0.1173  0.0744
    1SOL    HW2 9542   3.263   0.409   3.588 -0.2413 -0.5215  0.1964
    1SOL    HW3 9543   3.173   0.427   3.467 -1.5544 -1.9217  0.9476
    1SOL    MW4 9544   3.244   0.392   3.505 -0.3822 -0.4087  0.2058
    1SOL     OW 9545   2.764   0.213   3.992 -0.1371  0.1794  0.3392
    1SOL    HW2 9546   2.751   0.156   4.068 -0.1442 -0.6402 -0.2711
    1SOL    HW3 9547   2.859   0.219   3.984 -0.1232 -1.0877 -0.5811
    1SOL    MW4 9548   2.775   0.206   4.001 -0.1361 -0.0959  0.1378
    1SOL     OW 9549   0.102   4.596   4.419 -0.2514 -0.7176  0.0602
    1SOL    HW2 9550   0.090   4.611   4.512 -0.2855  0.4145 -0.1223
    1SOL    HW3 9551   0.197   4.585   4.408  0.1421  2.6126 -0.2518
    1SOL    MW4 9552   0.113   4.597   4.430 -0.2040 -0.1287 -0.0048
    1SOL     OW 9553   0.370   4.555   3.928 -0.5083  0.0618 -0.1901
    1SOL    HW2 9554   0.299   4.566   3.865  1.0608 -0.3096 -2.0855
    1SOL    HW3 9555   0.447   4.537   3.874  1.1301  0.9368  1.7901
    1SOL    MW4 9556   0.371   4.554   3.913 -0.0851  0.1283 -0.1786
    1SOL     OW 9557   4.000   0.989   3.797  0.2775  0.2106  0.2888
    1SOL    HW2 9558   4.001   0.925   3.726 -0.1154 -0.1658  0.6235
    1SOL    HW3 9559   3.960   1.067   3.758  0.2758  0.0844  0.0333
    1SOL    MW4 9560   3.995   0.991   3.782  0.2258  0.1442  0.2992
    1SOL     OW 9561   0.002   4.422   3.946  0.0860 -0.1295 -0.1023
    1SOL    HW2 9562  -0.080   4.445   3.991  0.5240 -0.2289  0.7598
    1SOL    HW3 9563   0.037   4.506   3.916 -1.0448 -0.2112 -1.7574
    1SOL    MW4 9564  -0.004   4.437   3.948 -0.0057 -0.1531 -0.2069
    1SOL     OW 9565   4.447   2.441   4.193 -0.1490 -0.1492  0.1077
    1SOL    HW2 9566   4.378   2.398   4.141 -0.8461 -0.1166  0.9927
    1SOL    HW3 9567   4.402   2.472   4.271  0.7562  0.4319  0.4063
    1SOL    MW4 9568   4.432   2.439   4.196 -0.1211 -0.0679  0.2642
    1SOL     OW 9569   3.355   1.282   1.663  0.0810 -0.3900  0.1558
    1SOL    HW2 9570   3.296   1.208   1.649  0.3897 -0.4133 -1.0972
    1SOL    HW3 9571   3.369   1.284   1.757  0.6201 -2.3636  0.1474
    1SOL    MW4 9572   3.349   1.272   1.673  0.1926 -0.6534 -0.0106
    1SOL     OW 9573   4.083   2.074   4.050  0.4682  0.2638 -0.3478
    1SOL    HW2 9574   4.038   1.990   4.055 -0.2695  0.6225 -0.7716
    1SOL    HW3 9575   4.143   2.065   3.976  3.0066 -1.1031  1.8360
    1SOL    MW4 9576   4.085   2.062   4.041  0.7057  0.1309 -0.1154
    1SOL     OW 9577   3.095   0.386   2.628 -0.0045  0.5183  0.1570
    1SOL    HW2 9578   3.112   0.422   2.541 -0.1847 -0.6247 -0.3657
    1SOL    HW3 9579   3.173   0.334   2.648  0.4280  1.4993  1.0710
    1SOL    MW4 9580   3.108   0.384   2.619  0.0286  0.4970  0.2086
    1SOL     OW 9581   0.667   4.422   6.927  0.4239  0.0847  0.1457
    1SOL    HW2 9582   0.669   4.413   6.832 -3.5039  0.1505 -0.0090
    1SOL    HW3 9583   0.669   4.332   6.959 -2.7385 -0.1588 -0.2049
    1SOL    MW4 9584   0.668   4.409   6.919 -0.5116  0.0610  0.0792
    1SOL     OW 9585   3.232   1.972   3.444  0.0286 -0.6157  0.4478
    1SOL    HW2 9586   3.303   2.001   3.387  0.5947 -0.1976  1.3398
    1SOL    HW3 9587   3.157   2.026   3.419 -0.0682 -1.2722 -0.7087
    1SOL    MW4 9588   3.232   1.983   3.434  0.0908 -0.6472  0.4127
    1SOL     OW 9589   0.603   4.092   4.512  0.2265  0.6185  0.5937
    1SOL    HW2 9590   0.547   4.154   4.559 -2.4461  0.8775 -2.7003
    1SOL    HW3 9591   0.576   4.006   4.544  0.0837  0.9050  1.2435
    1SOL    MW4 9592   0.592   4.089   4.522 -0.1449  0.6909  0.2441
    1SOL     OW 9593   3.229   3.879   4.136 -0.1306  0.3652 -0.0545
    1SOL    HW2 9594   3.214   3.787   4.153  1.2943 -0.1168 -1.2851
    1SOL    HW3 9595   3.204   3.923   4.217 -2.1221 -0.9395  0.0836
    1SOL    MW4 9596   3.224   3.873   4.149 -0.2055  0.1292 -0.1993
    1SOL     OW 9597   0.925   0.163   4.445 -0.1451  0.2062 -0.0374
    1SOL    HW2 9598   0.917   0.073   4.414  1.0844  0.0847 -0.0409
    1SOL    HW3 9599   0.836   0.198   4.442 -0.5636 -0.8754 -0.4330
    1SOL    MW4 9600   0.913   0.156   4.441 -0.0380  0.0475 -0.0906
    1SOL     OW 9601   0.239   2.795   3.491 -0.0037 -0.3369  0.4371
    1SOL    HW2 9602   0.258   2.703   3.511  1.3432 -0.1449  0.0985
    1SOL    HW3 9603   0.310   2.844   3.532 -1.3314  0.6561  1.5883
    1SOL    MW4 9604   0.251   2.789   3.499 -0.0011 -0.1807  0.5441
    1SOL     OW 9605   4.165   4.594   3.383 -0.3238  0.1485  0.0979
    1SOL    HW2 9606   4.117   4.552   3.454  0.5599 -1.1312 -0.0434
    1SOL    HW3 9607   4.191   4.679   3.418 -0.4712 -0.1972  1.0585
    1SOL    MW4 9608   4.162   4.599   3.397 -0.2270 -0.0663  0.2060
    1SOL     OW 9609   3.036   1.815   3.806  0.1984 -0.0303 -0.0709
    1SOL    HW2 9610   3.084   1.739   3.775  2.0800  1.3186 -0.5280
    1SOL    HW3 9611   3.100   1.886   3.806 -1.2081  1.2899  1.5071
    1SOL    MW4 9612   3.051   1.814   3.802  0.2608  0.3219  0.0768
    1SOL     OW 9613   0.396   2.768   4.685  0.0320 -0.6233 -0.3697
    1SOL    HW2 9614   0.459   2.828   4.725 -0.2992  0.2835 -1.1605
    1SOL    HW3 9615   0.426   2.681   4.710  0.3282 -0.1146  1.0849
    1SOL    MW4 9616   0.408   2.764   4.693  0.0274 -0.4365 -0.2823
    1SOL     OW 9617   0.435   2.325   3.459 -0.3135 -0.4047 -0.1825
    1SOL    HW2 9618   0.386   2.405   3.478 -0.1049  0.2660 -2.2741
    1SOL    HW3 9619   0.403   2.298   3.373  1.2873 -1.2555 -0.5347
    1SOL    MW4 9620   0.424   2.332   3.450 -0.0748 -0.4287 -0.5047
    1SOL     OW 9621   0.268   0.191   3.099 -0.0030 -0.7463  0.0517
    1SOL    HW2 9622   0.249   0.248   3.173  1.2696 -1.5928  1.0463
    1SOL    HW3 9623   0.214   0.225   3.027 -0.7341  0.4802  1.1793
    1SOL    MW4 9624   0.258   0.203   3.099  0.0684 -0.6962  0.3316
    1SOL     OW 9625   3.490   4.180   3.769 -0.6976 -0.1915  0.0873
    1SOL    HW2 9626   3.416   4.201   3.827  0.5370 -1.3756  2.1547
    1SOL    HW3 9627   3.460   4.104   3.719 -1.3813  0.1707 -0.0626
    1SOL    MW4 9628   3.476   4.173   3.770 -0.6247 -0.2999  0.3405
    1SOL     OW 9629   2.885   0.304   3.444 -0.2325 -0.1418 -0.1911
    1SOL    HW2 9630   2.878   0.235   3.378  0.7578  0.0714 -0.5212
    1SOL    HW3 9631   2.919   0.260   3.522  0.7166  0.0338 -0.5031
    1SOL    MW4 9632   2.889   0.289   3.445  0.0234 -0.0905 -0.2761
    1SOL     OW 9633   4.026   3.581   3.693  0.1147 -0.2433 -0.6132
    1SOL    HW2 9634   4.070   3.640   3.755 -0.1191 -0.2297 -0.4603
    1SOL    HW3 9635   4.002   3.504   3.746 -0.4349 -0.0638 -0.5969
    1SOL    MW4 9636   4.029   3.579   3.708  0.0119 -0.2179 -0.5908
    1SOL     OW 9637   3.724   0.453   3.551  0.0743 -0.3187  0.3802
    1SOL    HW2 9638   3.709   0.367   3.590 -1.3366 -0.8309 -1.2720
    1SOL    HW3 9639   3.820   0.462   3.551  0.1512 -0.5907  3.2651
    1SOL    MW4 9640   3.735   0.443   3.557 -0.1013 -0.4221  0.5424
    1SOL     OW 9641   1.660   4.659   4.201 -0.1399 -0.6419  0.4343
    1SOL    HW2 9642   1.663   4.596   4.129 -0.7636 -0.2287  0.0512
    1SOL    HW3 9643   1.698   4.738   4.164 -1.0916 -0.2213  0.3538
    1SOL    MW4 9644   1.666   4.661   4.187 -0.3479 -0.5322  0.3734
    1SOL     OW 9645   2.538   0.217   4.477  0.3305 -0.0537 -0.4163
    1SOL    HW2 9646   2.590   0.248   4.552  1.2079  0.4124 -1.2029
    1SOL    HW3 9647   2.450   0.250   4.493  0.4367 -0.2198  0.5679
    1SOL    MW4 9648   2.534   0.225   4.489  0.4601 -0.0141 -0.3901
    1SOL     OW 9649   1.720   4.421   4.052 -0.2509  0.0165  0.2377
    1SOL    HW2 9650   1.742   4.388   3.965 -0.8846  2.3838 -0.8577
    1SOL    HW3 9651   1.805   4.431   4.096  0.0667 -1.1929 -0.0734
    1SOL    MW4 9652   1.734   4.418   4.047 -0.2927  0.1693  0.0520
    1SOL     OW 9653   4.258   0.640   3.490  0.4302 -0.1162  0.0167
    1SOL    HW2 9654   4.343   0.608   3.459 -0.4279  1.1856 -3.9612
    1SOL    HW3 9655   4.264   0.735   3.483 -0.9981  0.0297  0.7135
    1SOL    MW4 9656   4.270   0.648   3.485  0.1287  0.0749 -0.4163
    1SOL     OW 9657   2.835   2.535   3.799 -0.0936  0.0990  0.1073
    1SOL    HW2 9658   2.826   2.614   3.746 -1.6546  0.1894  0.5058
    1SOL    HW3 9659   2.746   2.501   3.808  0.2406 -0.2879  2.1066
    1SOL    MW4 9660   2.822   2.541   3.793 -0.2556  0.0598  0.4239
    1SOL     OW 9661   4.078   4.580   4.289  0.1910  0.0067 -0.3122
    1SOL    HW2 9662   4.144   4.538   4.234  0.4903 -2.4092  1.8007
    1SOL    HW3 9663   4.112   4.668   4.304  2.2921 -0.7824 -0.3022
    1SOL    MW4 9664   4.091   4.586   4.283  0.5078 -0.4163 -0.0319
    1SOL     OW 9665   3.146   3.231   4.566  0.0332  0.1380  0.3157
    1SOL    HW2 9666   3.240   3.225   4.548 -0.0270  1.4847 -0.4882
    1SOL    HW3 9667   3.139   3.292   4.639 -0.2438  0.2884  0.1644
    1SOL    MW4 9668   3.157   3.238   4.573 -0.0110  0.3355  0.1893
    1SOL     OW 9669   0.318   0.909   4.517  0.7702  0.7462 -0.2025
    1SOL    HW2 9670   0.374   0.836   4.540  0.8382  0.8422 -0.0630
    1SOL    HW3 9671   0.337   0.976   4.583 -0.8116  0.1112  0.9139
    1SOL    MW4 9672   0.328   0.908   4.528  0.5704  0.6750 -0.0367
    1SOL     OW 9673   3.918   1.615   3.013 -0.4591 -0.0055  0.0630
    1SOL    HW2 9674   3.862   1.547   2.977 -1.0372 -0.8823  2.5454
    1SOL    HW3 9675   4.000   1.570   3.036  0.6712  0.9425 -2.0034
    1SOL    MW4 9676   3.921   1.600   3.011 -0.3860  0.0039  0.1180
    1SOL     OW 9677   3.302   3.828   3.869 -0.2269  0.3496 -0.1542
    1SOL    HW2 9678   3.397   3.823   3.866 -0.2346 -0.7268  1.2700
    1SOL    HW3 9679   3.281   3.856   3.958 -1.3003 -1.3788  0.1668
    1SOL    MW4 9680   3.312   3.831   3.880 -0.3693 -0.0205  0.0761
    1SOL     OW 9681   0.175   2.957   3.849  0.4382  0.6790  0.1883
    1SOL    HW2 9682   0.168   2.997   3.936  2.6545  1.3403  0.1003
    1SOL    HW3 9683   0.235   2.884   3.862 -0.3002 -0.0537 -0.5191
    1SOL    MW4 9684   0.182   2.953   3.863  0.6332  0.6695  0.0832
    1SOL     OW 9685   3.647   3.319   3.882  0.8558 -0.6055 -0.1390
    1SOL    HW2 9686   3.637   3.359   3.968  1.0413 -0.9513  0.0400
    1SOL    HW3 9687   3.691   3.387   3.830  0.7940 -0.4201  0.0493
    1SOL    MW4 9688   3.652   3.333   3.886  0.8721 -0.6268 -0.0906
    1SOL     OW 9689   2.351   4.184   4.492 -0.1946 -0.0615  0.2765
    1SOL    HW2 9690   2.431   4.217   4.453  0.3363  0.6920  1.9478
    1SOL    HW3 9691   2.327   4.250   4.558 -0.7114 -1.5678  1.6362
    1SOL    MW4 9692   2.358   4.197   4.496 -0.1926 -0.1612  0.6771
    1SOL     OW 9693   3.339   2.024   4.556 -0.1265  0.1933 -0.1335
    1SOL    HW2 9694   3.305   2.064   4.475 -0.4121  1.1744  0.4629
    1SOL    HW3 9695   3.389   2.094   4.598  0.4870 -0.4818  0.2745
    1SOL    MW4 9696   3.341   2.039   4.551 -0.0830  0.2337 -0.0010
    1SOL     OW 9697   0.241   4.450   7.648  0.2654 -0.2317  0.1501
    1SOL    HW2 9698   0.223   4.530   7.599 -4.9551 -1.4474 -0.2534
    1SOL    HW3 9699   0.333   4.430   7.630  0.5578  3.4200 -3.0230
    1SOL    MW4 9700   0.250   4.458   7.639 -0.3848  0.0892 -0.3219
    1SOL     OW 9701   3.804   0.121   4.396  0.3229 -0.1056 -0.4611
    1SOL    HW2 9702   3.859   0.113   4.474  0.0762  2.5003  0.0262
    1SOL    HW3 9703   3.716   0.098   4.426  0.3552  0.1850 -0.1442
    1SOL    MW4 9704   3.800   0.117   4.410  0.2947  0.2765 -0.3552
    1SOL     OW 9705   2.724   1.190   2.803  0.7159  0.3828  0.0485
    1SOL    HW2 9706   2.690   1.189   2.892  0.2289 -1.4487 -0.1226
    1SOL    HW3 9707   2.650   1.160   2.749  1.1962  0.8639 -0.8914
    1SOL    MW4 9708   2.710   1.186   2.808  0.7153  0.2047 -0.0980
    1SOL     OW 9709   0.845   2.372   4.107 -0.5384  0.1366 -0.1962
    1SOL    HW2 9710   0.909   2.404   4.171 -0.7530  0.5347 -0.1805
    1SOL    HW3 9711   0.842   2.440   4.040  0.9716 -1.0635 -1.5264
    1SOL    MW4 9712   0.853   2.385   4.106 -0.3675  0.0310 -0.3700
    1SOL     OW 9713   3.229   2.716   4.435  0.3157 -0.5000  0.2106
    1SOL    HW2 9714   3.218   2.811   4.433  1.4236 -0.3809 -0.4598
    1SOL    HW3 9715   3.140   2.682   4.446 -0.2330  0.5784 -0.8108
    1SOL    MW4 9716   3.216   2.724   4.436  0.3896 -0.3419 -0.0129
    1SOL     OW 9717   2.340   1.718   4.046 -0.1802  0.4506 -0.0122
    1SOL    HW2 9718   2.380   1.764   4.120 -0.1663  0.9868 -0.3481
    1SOL    HW3 9719   2.410   1.709   3.982 -0.1014 -0.3262  0.1759
    1SOL    MW4 9720   2.354   1.723   4.047 -0.1683  0.4190 -0.0315
    1SOL     OW 9721   0.173   2.865   4.240  0.0278  0.0799  0.7269
    1SOL    HW2 9722   0.202   2.876   4.331 -2.3493  1.2224  1.3751
    1SOL    HW3 9723   0.078   2.864   4.245 -0.1592  1.0319 -1.8755
    1SOL    MW4 9724   0.165   2.866   4.253 -0.3105  0.3564  0.4692
    1SOL     OW 9725   3.401   2.046   4.125 -0.4074  0.0202  0.0718
    1SOL    HW2 9726   3.370   1.965   4.086  1.2930 -1.4138  1.6312
    1SOL    HW3 9727   3.477   2.071   4.072 -1.1908  0.8653 -0.6812
    1SOL    MW4 9728   3.407   2.039   4.113 -0.2863 -0.0577  0.1783
    1SOL     OW 9729   3.520   1.827   2.975 -0.3160  0.1134 -0.3117
    1SOL    HW2 9730   3.557   1.747   3.012 -1.6175 -0.2946  0.1303
    1SOL    HW3 9731   3.594   1.870   2.932  0.6763 -0.6585  0.5990
    1SOL    MW4 9732   3.535   1.822   2.974 -0.3567 -0.0422 -0.1333
    1SOL     OW 9733   0.130   1.294   4.432 -0.7060  0.0616 -0.3461
    1SOL    HW2 9734   0.187   1.350   4.380 -0.7154 -1.6926 -2.3320
    1SOL    HW3 9735   0.041   1.313   4.401 -0.9380  0.6712  0.6676
    1SOL    MW4 9736   0.126   1.304   4.421 -0.7379 -0.0895 -0.4745
    1SOL     OW 9737   4.215   4.077   3.553 -0.1741 -0.4467 -0.3620
    1SOL    HW2 9738   4.301   4.035   3.554  0.2359  0.3486 -1.0936
    1SOL    HW3 9739   4.232   4.168   3.577 -0.9443 -0.5058  0.4317
    1SOL    MW4 9740   4.228   4.083   3.556 -0.2217 -0.3500 -0.3541
    1SOL     OW 9741   0.035   3.991   3.792  0.6439 -0.5172  0.2833
    1SOL    HW2 9742   0.056   4.083   3.774  2.2680 -0.9547 -0.1924
    1SOL    HW3 9743  -0.004   3.959   3.710  0.7447 -0.4401  0.2052
    1SOL    MW4 9744   0.033   3.999   3.779  0.8712 -0.5648  0.2103
    1SOL     OW 9745   4.377   0.334   3.965  0.8555  0.6911  0.0738
    1SOL    HW2 9746   4.332   0.405   4.011  1.9550  0.3558  1.6900
    1SOL    HW3 9747   4.457   0.374   3.931  0.2474  0.8344 -1.2308
    1SOL    MW4 9748   4.381   0.349   3.967  0.9203  0.6658  0.1149
    1SOL     OW 9749   3.559   2.453   3.961 -0.3034 -0.1477 -0.0784
    1SOL    HW2 9750   3.493   2.385   3.950  0.4716 -1.3651  2.2803
    1SOL    HW3 9751   3.564   2.467   4.056  1.3314  1.4147 -0.3484
    1SOL    MW4 9752   3.551   2.446   3.972  0.0148 -0.1020  0.1969
    1SOL     OW 9753   3.852   3.044   4.180 -0.4063  0.3451 -0.0493
    1SOL    HW2 9754   3.860   3.094   4.098 -1.0538  0.3292 -0.1241
    1SOL    HW3 9755   3.881   3.104   4.248  1.2881 -0.0415 -0.4235
    1SOL    MW4 9756   3.857   3.059   4.178 -0.2685  0.2921 -0.1087
    1SOL     OW 9757   1.798   1.602   4.529  0.2913  0.3928 -0.1153
    1SOL    HW2 9758   1.836   1.555   4.603  1.1996  0.9711 -0.2028
    1SOL    HW3 9759   1.845   1.570   4.453  1.6720  2.1876 -0.0585
    1SOL    MW4 9760   1.809   1.592   4.529  0.5933  0.7060 -0.1187
    1SOL     OW 9761   3.949   2.878   3.208 -0.3236  0.3050  0.3077
    1SOL    HW2 9762   3.982   2.918   3.128  0.2094 -0.2571  0.2423
    1SOL    HW3 9763   3.968   2.942   3.277  2.2693 -0.6029  0.5133
    1SOL    MW4 9764   3.956   2.891   3.207  0.0889  0.1111  0.3262
    1SOL     OW 9765   2.236   1.539   4.536  0.5615  0.6615 -0.6002
    1SOL    HW2 9766   2.263   1.449   4.554  1.1688  0.0408 -4.2937
    1SOL    HW3 9767   2.318   1.588   4.529  0.2538  1.3760  0.5646
    1SOL    MW4 9768   2.250   1.534   4.538  0.6011  0.6739 -0.9341
    1SOL     OW 9769   2.412   2.575   4.345 -0.0525  0.0896 -0.2456
    1SOL    HW2 9770   2.414   2.642   4.276  0.7414 -0.3138 -0.6254
    1SOL    HW3 9771   2.322   2.576   4.378  0.7439  3.6620  2.0583
    1SOL    MW4 9772   2.400   2.584   4.340  0.1578  0.5076  0.0081
    1SOL     OW 9773   0.938   1.008   3.721 -0.0529 -0.1604 -0.1639
    1SOL    HW2 9774   0.952   1.070   3.793  0.7396  0.5320 -0.8941
    1SOL    HW3 9775   0.849   0.976   3.733 -0.3890  0.9537  0.3600
    1SOL    MW4 9776   0.928   1.012   3.732  0.0073  0.0778 -0.1912
    1SOL     OW 9777   0.814   2.642   4.430 -0.5270  0.5650  0.1665
    1SOL    HW2 9778   0.895   2.642   4.380 -1.2533 -0.4020 -1.0203
    1SOL    HW3 9779   0.841   2.613   4.518  0.3386 -0.1911 -0.3361
    1SOL    MW4 9780   0.828   2.638   4.435 -0.5087  0.3376 -0.0563
    1SOL     OW 9781   1.317   3.447   4.858  0.0225 -0.5702  0.2311
    1SOL    HW2 9782   1.241   3.429   4.802 -0.5307  0.8257  0.5194
    1SOL    HW3 9783   1.373   3.369   4.848 -0.8325 -1.0473 -0.9862
    1SOL    MW4 9784   1.315   3.434   4.849 -0.1634 -0.4487  0.1082
    1SOL     OW 9785   2.609   4.622   4.430  0.5159  0.3995  0.8592
    1SOL    HW2 9786   2.661   4.634   4.350  0.5850 -0.3680  0.7892
    1SOL    HW3 9787   2.597   4.711   4.464  0.4207  0.7372 -0.0479
    1SOL    MW4 9788   2.615   4.635   4.424  0.5126  0.3424  0.7305
    1SOL     OW 9789   0.985   3.475   4.131 -0.0285 -0.3251 -0.0643
    1SOL    HW2 9790   0.925   3.400   4.136  0.7303 -0.9756 -0.6846
    1SOL    HW3 9791   0.933   3.548   4.163 -0.5659 -1.2443  1.2267
    1SOL    MW4 9792   0.970   3.474   4.136  0.0007 -0.5324  0.0238
    1SOL     OW 9793   1.460   3.436   4.300  0.0411  0.5829  0.1179
    1SOL    HW2 9794   1.369   3.434   4.329  0.5142 -1.2393  1.5540
    1SOL    HW3 9795   1.511   3.411   4.376  1.6843  0.5265 -0.9644
    1SOL    MW4 9796   1.455   3.432   4.314  0.3203  0.3350  0.1640
    1SOL     OW 9797   1.898   4.016   4.800 -0.5285 -0.5005 -0.4412
    1SOL    HW2 9798   1.832   4.083   4.816 -0.7727 -0.8635  0.0685
    1SOL    HW3 9799   1.978   4.051   4.841  0.0748  0.7596 -2.5901
    1SOL    MW4 9800   1.900   4.030   4.807 -0.4811 -0.3819 -0.6576
    1SOL     OW 9801   3.684   4.416   2.796 -0.2406 -0.3809  0.0079
    1SOL    HW2 9802   3.590   4.426   2.807 -0.0973  1.1928 -0.0393
    1SOL    HW3 9803   3.721   4.442   2.881  0.2674  1.4777 -0.7446
    1SOL    MW4 9804   3.677   4.421   2.809 -0.1550  0.0720 -0.0978
    1SOL     OW 9805   1.383   1.475   4.010 -0.3957  0.2513 -0.0974
    1SOL    HW2 9806   1.450   1.468   4.077 -0.4074 -1.8989 -0.2751
    1SOL    HW3 9807   1.326   1.399   4.024 -0.8545  0.1954 -2.0279
    1SOL    MW4 9808   1.384   1.464   4.020 -0.4579 -0.0398 -0.3757
    1SOL     OW 9809   2.459   3.239   3.289  0.1647 -0.3625  0.2629
    1SOL    HW2 9810   2.479   3.249   3.196  2.2992 -0.4983  0.6687
    1SOL    HW3 9811   2.480   3.148   3.309 -0.6207 -0.4302  0.8078
    1SOL    MW4 9812   2.465   3.228   3.279  0.3426 -0.3896  0.3879
    1SOL     OW 9813   4.478   3.555   3.212  0.0260 -0.1383  0.3922
    1SOL    HW2 9814   4.422   3.518   3.280 -1.1033 -0.6050 -0.7617
    1SOL    HW3 9815   4.433   3.635   3.186 -0.9801 -1.2915 -1.6079
    1SOL    MW4 9816   4.464   3.560   3.217 -0.2561 -0.3517 -0.0241
    1SOL     OW 9817   3.289   0.634   4.319  0.1085  0.3009 -0.1483
    1SOL    HW2 9818   3.248   0.674   4.242 -2.1907 -1.6338  0.0071
    1SOL    HW3 9819   3.309   0.708   4.376 -0.0325  1.5862 -1.7140
    1SOL    MW4 9820   3.286   0.649   4.316 -0.2134  0.2152 -0.3343
    1SOL     OW 9821   1.427   0.112   4.315  0.2951 -0.3727  0.0528
    1SOL    HW2 9822   1.456   0.203   4.312  0.7034 -0.5056 -0.0457
    1SOL    HW3 9823   1.500   0.062   4.280 -0.8166 -0.5336 -2.1477
    1SOL    MW4 9824   1.440   0.117   4.310  0.2023 -0.4115 -0.2508
    1SOL     OW 9825   1.270   4.423   4.502  0.4290  0.0406 -0.2687
    1SOL    HW2 9826   1.215   4.390   4.572  1.1146  0.3298  0.4117
    1SOL    HW3 9827   1.310   4.502   4.537  1.2601 -0.1512 -0.7573
    1SOL    MW4 9828   1.268   4.429   4.516  0.6292  0.0534 -0.2437
    1SOL     OW 9829   0.109   3.108   4.455  0.1754 -0.2962 -0.4803
    1SOL    HW2 9830   0.079   3.194   4.485  0.6120 -0.4084  0.2855
    1SOL    HW3 9831   0.203   3.118   4.441  0.6923 -1.2966  2.0010
    1SOL    MW4 9832   0.117   3.120   4.457  0.3012 -0.4430 -0.0520
    1SOL     OW 9833   0.518   4.355   4.596 -0.0796  0.7896 -0.7365
    1SOL    HW2 9834   0.461   4.422   4.559 -0.4174  0.2732 -1.1559
    1SOL    HW3 9835   0.606   4.381   4.568 -0.3248  0.4376 -1.8645
    1SOL    MW4 9836   0.522   4.367   4.587 -0.1565  0.6747 -0.9413
    1SOL     OW 9837   1.596   4.203   4.170  0.7877 -0.4561 -0.1089
    1SOL    HW2 9838   1.658   4.274   4.152 -0.9018  0.8156 -1.1063
    1SOL    HW3 9839   1.559   4.224   4.255 -1.5104  1.2858 -1.4577
    1SOL    MW4 9840   1.599   4.215   4.179  0.2617 -0.0587 -0.4182
    1SOL     OW 9841   0.257   0.675   3.837 -0.4282  0.0907  0.0009
    1SOL    HW2 9842   0.191   0.607   3.822 -0.7467  0.5749 -0.7846
    1SOL    HW3 9843   0.223   0.726   3.910 -0.1443 -0.6429  0.6589
    1SOL    MW4 9844   0.244   0.673   3.845 -0.4327  0.0577 -0.0157
    1SOL     OW 9845   3.982   2.296   3.119 -0.0671 -0.2418 -0.8128
    1SOL    HW2 9846   4.056   2.355   3.135  0.2202 -0.3868 -1.5625
    1SOL    HW3 9847   3.911   2.331   3.172  0.5833 -0.1837  0.0340
    1SOL    MW4 9848   3.983   2.308   3.128  0.0565 -0.2534 -0.8001
    1SOL     OW 9849   1.483   4.075   4.647  0.3652 -0.0182  0.0914
    1SOL    HW2 9850   1.495   3.983   4.667 -0.0051  0.1427  1.0595
    1SOL    HW3 9851   1.564   4.117   4.674 -0.2854  0.2585  1.6487
    1SOL    MW4 9852   1.495   4.069   4.653  0.2306  0.0391  0.4244
    1SOL     OW 9853   1.504   4.560   3.827  0.2044  0.0437  0.3474
    1SOL    HW2 9854   1.543   4.507   3.897  0.2254  0.9113  0.9984
    1SOL    HW3 9855   1.421   4.590   3.863  0.4740  0.9633  0.2098
    1SOL    MW4 9856   1.498   4.557   3.841  0.2428  0.2799  0.4153
    1SOL     OW 9857   1.531   3.277   4.789 -0.0761  0.3129  0.0374
    1SOL    HW2 9858   1.557   3.298   4.699  0.0312  0.2053  0.0443
    1SOL    HW3 9859   1.464   3.210   4.779  0.7595 -0.5368  0.0878
    1SOL    MW4 9860   1.525   3.271   4.775  0.0484  0.1869  0.0448
    1SOL     OW 9861   0.983   4.092   4.442  0.3424  0.2376 -0.5250
    1SOL    HW2 9862   0.996   4.156   4.511 -1.0703 -0.8824  0.8246
    1SOL    HW3 9863   1.067   4.086   4.398  1.3113  0.8559  1.2089
    1SOL    MW4 9864   0.995   4.100   4.445  0.2838  0.1717 -0.1183
    1SOL     OW 9865   0.487   3.919   4.246  0.1709 -0.3665 -0.3505
    1SOL    HW2 9866   0.437   3.933   4.165 -0.1116 -1.0340 -0.3008
    1SOL    HW3 9867   0.574   3.893   4.216  0.1756 -0.2442 -0.4425
    1SOL    MW4 9868   0.492   3.917   4.231  0.1343 -0.4382 -0.3557
    1SOL     OW 9869   0.597   2.276   4.593  0.0668 -0.5031 -0.0093
    1SOL    HW2 9870   0.569   2.189   4.566  0.4001 -0.4687 -0.4731
    1SOL    HW3 9871   0.629   2.317   4.513  0.5649 -0.2057  0.3347
    1SOL    MW4 9872   0.598   2.270   4.579  0.1765 -0.4594 -0.0248
    1SOL     OW 9873   1.730   1.932   4.282  0.1712 -0.0804  0.2791
    1SOL    HW2 9874   1.654   1.875   4.297 -0.6934  1.1607  0.6843
    1SOL    HW3 9875   1.722   1.957   4.189 -0.3943  0.7070  0.5292
    1SOL    MW4 9876   1.719   1.928   4.272 -0.0174  0.1872  0.3653
    1SOL     OW 9877   2.822   3.199   4.274  0.6731 -0.4866  0.0065
    1SOL    HW2 9878   2.896   3.253   4.302  0.4058 -0.1603  0.0802
    1SOL    HW3 9879   2.785   3.165   4.355  0.3419 -0.1239  0.0073
    1SOL    MW4 9880   2.827   3.201   4.288  0.5941 -0.3958  0.0162
    1SOL     OW 9881   1.759   3.561   4.532  0.5014 -0.3675 -0.2523
    1SOL    HW2 9882   1.766   3.614   4.612  1.9230 -1.5225  0.4281
    1SOL    HW3 9883   1.839   3.508   4.532  0.5810 -0.2979 -2.5150
    1SOL    MW4 9884   1.771   3.561   4.543  0.6994 -0.5107 -0.4606
    1SOL     OW 9885   3.987   1.832   3.924  0.4796  0.0596 -0.5433
    1SOL    HW2 9886   3.922   1.825   3.994 -0.2862  0.3281 -1.2095
    1SOL    HW3 9887   4.071   1.815   3.966 -0.0629 -0.6089  0.2699
    1SOL    MW4 9888   3.989   1.829   3.939  0.3068  0.0068 -0.5240
    1SOL     OW 9889   0.546   0.304   3.215 -0.2419 -0.1519  0.3166
    1SOL    HW2 9890   0.552   0.250   3.294 -2.1214 -1.1686 -0.2064
    1SOL    HW3 9891   0.460   0.345   3.221  0.4262  1.3505 -0.2174
    1SOL    MW4 9892   0.535   0.302   3.226 -0.4017 -0.0878  0.1771
    1SOL     OW 9893   1.563   2.626   4.105 -0.5963  0.5710  0.0168
    1SOL    HW2 9894   1.627   2.605   4.172  0.9315 -0.6816 -1.7919
    1SOL    HW3 9895   1.599   2.703   4.060 -0.7156  0.3109 -0.5334
    1SOL    MW4 9896   1.576   2.633   4.108 -0.4106  0.3715 -0.2952
    1SOL     OW 9897   4.215   4.336   3.681  0.0535  0.2933  0.1058
    1SOL    HW2 9898   4.189   4.304   3.767 -0.0912  0.5788  0.1669
    1SOL    HW3 9899   4.153   4.406   3.662  0.5467  0.7225  0.0885
    1SOL    MW4 9900   4.203   4.341   3.690  0.0997  0.3872  0.1118
    1SOL     OW 9901   2.500   3.733   4.116 -0.3424 -0.5890  0.4842
    1SOL    HW2 9902   2.447   3.672   4.166 -0.3247 -1.1554 -0.1813
    1SOL    HW3 9903   2.488   3.817   4.160 -1.6134 -0.7519  0.4711
    1SOL    MW4 9904   2.491   3.736   4.128 -0.5078 -0.6855  0.3948
    1SOL     OW 9905   0.459   1.999   3.230 -0.1125  0.5774 -0.3607
    1SOL    HW2 9906   0.487   1.965   3.146 -0.4506  1.3352 -0.7902
    1SOL    HW3 9907   0.540   2.027   3.274  0.0368  0.4198 -0.5377
    1SOL    MW4 9908   0.473   1.998   3.225 -0.1374  0.6566 -0.4406
    1SOL     OW 9909   3.157   3.583   4.644  0.0648 -0.2409 -0.4996
    1SOL    HW2 9910   3.116   3.668   4.655  0.6694  0.1617 -1.2484
    1SOL    HW3 9911   3.108   3.524   4.702 -1.8090  0.1379 -1.6385
    1SOL    MW4 9912   3.145   3.586   4.653 -0.1025 -0.1378 -0.7486
    1SOL     OW 9913   3.454   2.217   4.700 -0.3850  0.6600 -0.3019
    1SOL    HW2 9914   3.454   2.266   4.782 -0.7531 -0.2198  0.2257
    1SOL    HW3 9915   3.477   2.283   4.634 -1.7918  1.7425  0.2631
    1SOL    MW4 9916   3.457   2.233   4.702 -0.6192  0.6866 -0.1574
    1SOL     OW 9917   1.294   4.280   3.932  0.2907 -0.0601 -0.3833
    1SOL    HW2 9918   1.231   4.247   3.996  1.2545  1.4499  1.3938
    1SOL    HW3 9919   1.379   4.255   3.967  0.8566  1.3209 -0.7289
    1SOL    MW4 9920   1.297   4.272   3.945  0.4925  0.3214 -0.1943
    1SOL     OW 9921   3.484   0.443   4.313 -0.3594  0.8442 -0.1856
    1SOL    HW2 9922   3.472   0.372   4.250 -0.5249 -1.4770  2.3473
    1SOL    HW3 9923   3.401   0.492   4.310 -0.8822 -0.0616 -0.7902
    1SOL    MW4 9924   3.471   0.440   4.304 -0.4504  0.4185  0.0691
    1SOL     OW 9925   4.402   3.618   3.895 -0.0817  0.0111 -0.0760
    1SOL    HW2 9926   4.396   3.649   3.986  1.1418 -1.2494  0.4533
    1SOL    HW3 9927   4.324   3.654   3.853 -0.6967  0.5797  1.4852
    1SOL    MW4 9928   4.391   3.627   3.902 -0.0019 -0.0801  0.1998
    1SOL     OW 9929   1.805   4.222   2.960 -0.1889 -0.0342  0.2279
    1SOL    HW2 9930   1.752   4.273   3.021 -0.4506  0.4272 -0.3830
    1SOL    HW3 9931   1.884   4.201   3.009 -0.3194  0.4929  0.6661
    1SOL    MW4 9932   1.809   4.226   2.974 -0.2406  0.0968  0.2053
    1SOL     OW 9933   2.456   1.976   4.774 -0.1632  0.1501 -0.1282
    1SOL    HW2 9934   2.379   1.978   4.831 -0.0406  0.8140  0.0215
    1SOL    HW3 9935   2.505   2.055   4.798 -0.6249  0.9780 -1.8643
    1SOL    MW4 9936   2.452   1.987   4.785 -0.2079  0.3469 -0.3371
    1SOL     OW 9937   0.995   3.810   4.530  0.1265 -0.1806 -0.1394
    1SOL    HW2 9938   1.089   3.798   4.515 -0.0521  0.6520 -2.0540
    1SOL    HW3 9939   0.977   3.900   4.503 -1.3622 -0.5712 -0.5268
    1SOL    MW4 9940   1.005   3.820   4.524 -0.0933 -0.1223 -0.4430
    1SOL     OW 9941   2.444   0.980   4.786  0.0259  0.0933 -0.2575
    1SOL    HW2 9942   2.477   1.069   4.791  1.8664 -0.5934  0.5747
    1SOL    HW3 9943   2.376   0.975   4.853  0.6838  0.5808  0.4540
    1SOL    MW4 9944   2.440   0.991   4.796  0.3555  0.0670 -0.0539
    1SOL     OW 9945   1.528   0.575   3.709 -0.2245  0.1475 -0.0305
    1SOL    HW2 9946   1.482   0.511   3.763 -1.9565  1.4169  0.0134
    1SOL    HW3 9947   1.552   0.645   3.769  0.7977  0.0289 -0.2771
    1SOL    MW4 9948   1.525   0.576   3.724 -0.3183  0.2993 -0.0572
    1SOL     OW 9949   1.443   2.765   4.352 -0.1225  0.1973 -0.2025
    1SOL    HW2 9950   1.500   2.808   4.289 -1.2574  1.1885 -0.5846
    1SOL    HW3 9951   1.497   2.756   4.431  0.6508  0.8505 -0.6455
    1SOL    MW4 9952   1.457   2.769   4.354 -0.1702  0.4144 -0.3109
    1SOL     OW 9953   3.037   0.492   4.404 -0.4235  0.2035 -0.0844
    1SOL    HW2 9954   3.112   0.550   4.391 -1.2589  1.3851  0.3727
    1SOL    HW3 9955   3.076   0.410   4.434  0.4885  1.7069  3.0052
    1SOL    MW4 9956   3.052   0.488   4.406 -0.4132  0.5578  0.3834
    1SOL     OW 9957   3.383   2.974   3.359 -0.8076  0.4416  0.3415
    1SOL    HW2 9958   3.360   3.060   3.394  1.1095  0.3753  1.8153
    1SOL    HW3 9959   3.415   2.992   3.271  2.3837  1.6409  1.6724
    1SOL    MW4 9960   3.384   2.988   3.352 -0.1335  0.5910  0.7114
    1SOL     OW 9961   3.385   4.420   2.847 -0.1965 -0.1512 -0.4948
    1SOL    HW2 9962   3.353   4.406   2.758 -0.9075 -0.5322 -0.1765
    1SOL    HW3 9963   3.320   4.477   2.888 -0.3222 -0.6887  0.0553
    1SOL    MW4 9964   3.373   4.425   2.841 -0.3068 -0.2728 -0.3800
    1SOL     OW 9965   2.774   2.838   4.594  0.1194  0.1119 -0.4553
    1SOL    HW2 9966   2.688   2.798   4.583  0.3643 -0.3278 -0.7938
    1SOL    HW3 9967   2.836   2.769   4.569  0.5575  0.5697 -0.6357
    1SOL    MW4 9968   2.771   2.823   4.589  0.2096  0.1144 -0.5236
    1SOL     OW 9969   1.508   0.596   4.501  0.3751  0.1285  0.5395
    1SOL    HW2 9970   1.442   0.637   4.557  0.0754 -1.4801  1.4102
    1SOL    HW3 9971   1.509   0.649   4.422 -0.6635  1.2428  1.2534
    1SOL    MW4 9972   1.499   0.608   4.498  0.1986  0.0632  0.7482
    1SOL     OW 9973   4.280   2.312   3.422 -0.1125 -0.2704 -0.0084
    1SOL    HW2 9974   4.189   2.333   3.444 -0.0943  0.8806 -0.9915
    1SOL    HW3 9975   4.331   2.384   3.459  0.1791  0.2280 -1.3421
    1SOL    MW4 9976   4.274   2.324   3.430 -0.0710 -0.0529 -0.3142
    1SOL     OW 9977   4.411   4.379   4.313 -0.8324  0.3276  0.3769
    1SOL    HW2 9978   4.491   4.329   4.298 -1.1364 -0.0899  0.1631
    1SOL    HW3 9979   4.439   4.452   4.369 -0.1742  0.5536 -0.2398
    1SOL    MW4 9980   4.425   4.382   4.319 -0.7854  0.3018  0.2675
    1SOL     OW 9981   2.157   4.227   4.174  0.3852 -0.2212  0.0013
    1SOL    HW2 9982   2.242   4.272   4.180  0.0753  0.2031  1.3112
    1SOL    HW3 9983   2.140   4.196   4.263 -0.4817 -0.9698 -0.4184
    1SOL    MW4 9984   2.166   4.228   4.187  0.2301 -0.2637  0.1187
    1SOL     OW 9985   0.711   2.881   4.349  0.5212 -0.4383 -0.1293
    1SOL    HW2 9986   0.748   2.948   4.407  1.1081  0.2462 -1.2662
    1SOL    HW3 9987   0.744   2.798   4.383 -1.1208 -0.2701  1.9804
    1SOL    MW4 9988   0.720   2.879   4.361  0.3820 -0.3259 -0.0010
    1SOL     OW 9989   2.961   2.473   3.381  0.7183 -0.1357 -0.0977
    1SOL    HW2 9990   2.951   2.486   3.475  2.0388 -0.5777  0.1101
    1SOL    HW3 9991   3.055   2.479   3.365  0.2883  2.8311 -1.8599
    1SOL    MW4 9992   2.972   2.475   3.391  0.8359  0.1974 -0.3028
    1SOL     OW 9993   2.907   0.615   3.774  0.2057  0.4829  0.1564
    1SOL    HW2 9994   2.874   0.633   3.685  0.3700 -0.1024 -0.0264
    1SOL    HW3 9995   2.837   0.565   3.815  0.9758 -1.0119 -0.3283
    1SOL    MW4 9996   2.893   0.611   3.767  0.3288  0.2085  0.0679
    1SOL     OW 9997   2.508   3.111   4.070 -0.6259 -0.0343 -0.2988
    1SOL    HW2 9998   2.495   3.168   3.994 -2.1516  0.4576  0.3051
    1SOL    HW3 9999   2.440   3.044   4.061 -0.6618 -0.1058  0.5050
    1SOL    MW410000   2.497   3.110   4.059 -0.8321  0.0212 -0.1130
    1SOL     OW10001   1.244   0.911   4.474  0.1034 -0.7981  0.3189
    1SOL    HW210002   1.303   0.986   4.482 -0.8156 -0.1809  1.4394
    1SOL    HW310003   1.260   0.878   4.386  0.3363  0.8759 -0.2925
    1SOL    MW410004   1.254   0.917   4.463  0.0129 -0.4958  0.3862
    1SOL     OW10005   2.098   0.538   4.325  0.3385 -0.0682 -0.7172
    1SOL    HW210006   2.023   0.576   4.371  0.8994  1.1550 -0.8025
    1SOL    HW310007   2.060   0.493   4.249 -0.3567  0.0205 -0.4211
    1SOL    MW410008   2.083   0.537   4.321  0.3204  0.1049 -0.6895
    1SOL     OW10009   0.481   0.700   4.596 -0.1334  0.1281  0.1838
    1SOL    HW210010   0.570   0.731   4.606 -0.3900  1.1049 -0.4711
    1SOL    HW310011   0.488   0.623   4.540  0.1780  0.9035 -0.8493
    1SOL    MW410012   0.493   0.694   4.590 -0.1262  0.3592 -0.0391
    1SOL     OW10013   1.541   3.792   4.699  0.2133  0.0974  0.2845
    1SOL    HW210014   1.522   3.727   4.632 -0.9568  0.5788  0.1302
    1SOL    HW310015   1.527   3.747   4.782 -1.3789  0.3487  0.1767
    1SOL    MW410016   1.536   3.778   4.701 -0.1510  0.1938  0.2503
    1SOL     OW10017   3.470   3.583   4.019 -0.4203  0.0458  0.6031
    1SOL    HW210018   3.487   3.674   4.046  0.5623 -0.2857  1.1066
    1SOL    HW310019   3.523   3.530   4.078 -0.4263 -0.8243 -0.1670
    1SOL    MW410020   3.479   3.588   4.030 -0.2913 -0.1125  0.5679
    1SOL     OW10021   1.538   3.260   4.091  0.0175 -0.4357  0.0818
    1SOL    HW210022   1.468   3.260   4.025  1.4353  1.7187 -1.4931
    1SOL    HW310023   1.505   3.316   4.161 -0.0652  0.0946 -0.3837
    1SOL    MW410024   1.524   3.267   4.091  0.1937 -0.0815 -0.1869
    1SOL     OW10025   3.134   3.166   3.984 -0.7991 -0.5095  0.5042
    1SOL    HW210026   3.098   3.114   4.056 -0.9070 -1.1698 -0.0252
    1SOL    HW310027   3.143   3.104   3.912 -1.6744  0.3799 -0.3767
    1SOL    MW410028   3.131   3.151   3.984 -0.9286 -0.4792  0.3181
    1SOL     OW10029   1.875   0.906   4.536 -0.3990 -0.3700  0.5575
    1SOL    HW210030   1.820   0.969   4.489 -1.2366  0.5123  2.6497
    1SOL    HW310031   1.954   0.956   4.558  0.5366 -1.1479 -0.9808
    1SOL    MW410032   1.878   0.921   4.533 -0.3862 -0.3562  0.6304
    1SOL     OW10033   2.920   0.179   4.605  0.2831 -0.1852 -0.1918
    1SOL    HW210034   2.905   0.183   4.510 -0.9465 -0.9523 -0.0406
    1SOL    HW310035   2.868   0.250   4.641  1.7946  0.9436 -0.1998
    1SOL    MW410036   2.911   0.189   4.597  0.3202 -0.1375 -0.1731
    1SOL     OW10037   1.600   0.158   3.839  0.2356  0.0647  0.0838
    1SOL    HW210038   1.580   0.064   3.830 -0.3719  0.0662  1.2974
    1SOL    HW310039   1.641   0.165   3.925 -0.6151  1.0546  0.4260
    1SOL    MW410040   1.603   0.146   3.849  0.0433  0.1955  0.2890
    1SOL     OW10041   3.847   3.626   4.104 -0.2067 -0.4838  0.1183
    1SOL    HW210042   3.939   3.605   4.118 -0.3748 -0.0955  2.0297
    1SOL    HW310043   3.840   3.720   4.120 -0.7295 -0.2914 -1.1975
    1SOL    MW410044   3.858   3.635   4.108 -0.2980 -0.4072  0.1969
    1SOL     OW10045   1.076   2.267   3.225 -0.1630 -0.1471  0.3009
    1SOL    HW210046   1.045   2.348   3.267  1.3360  0.7346 -0.2470
    1SOL    HW310047   0.997   2.226   3.190 -0.9422  1.0827  0.5878
    1SOL    MW410048   1.061   2.273   3.226 -0.0679  0.1314  0.2666
    1SOL     OW10049   3.058   2.330   4.562  0.0229  0.2945 -0.8564
    1SOL    HW210050   3.060   2.272   4.486 -0.1534 -0.7363 -0.0710
    1SOL    HW310051   3.144   2.372   4.562 -0.4736  1.3911 -2.4522
    1SOL    MW410052   3.070   2.328   4.552 -0.0660  0.3030 -0.9637
    1SOL     OW10053   2.295   0.844   3.154  0.2936 -0.4122 -0.0272
    1SOL    HW210054   2.288   0.770   3.093 -0.2494 -0.8086  0.5143
    1SOL    HW310055   2.383   0.838   3.190  0.4319 -0.4845 -0.3738
    1SOL    MW410056   2.305   0.834   3.151  0.2403 -0.4740 -0.0017
    1SOL     OW10057   1.206   3.176   4.296  0.1564  0.1191  0.4543
    1SOL    HW210058   1.282   3.122   4.318 -1.5577 -2.0413  1.1365
    1SOL    HW310059   1.131   3.118   4.304 -1.8114  2.7422  1.7448
    1SOL    MW410060   1.206   3.161   4.300 -0.3294  0.1802  0.7148
    1SOL     OW10061   1.351   1.764   4.113 -0.8039 -0.4209 -0.1513
    1SOL    HW210062   1.350   1.670   4.093 -0.6888 -0.3463 -0.5083
    1SOL    HW310063   1.260   1.792   4.099 -0.9618 -0.5995  0.5252
    1SOL    MW410064   1.339   1.755   4.108 -0.8096 -0.4345 -0.1087
    1SOL     OW10065   1.692   3.097   4.430 -0.9396  0.4993 -0.2698
    1SOL    HW210066   1.717   3.048   4.508 -0.5889  1.2512  0.0957
    1SOL    HW310067   1.737   3.052   4.358 -3.3184 -1.7801 -0.4048
    1SOL    MW410068   1.702   3.084   4.430 -1.2070  0.2975 -0.2389
    1SOL     OW10069   3.065   2.711   3.104  0.0207  0.6278  0.1124
    1SOL    HW210070   3.090   2.619   3.111  0.6896  0.8070  0.0572
    1SOL    HW310071   3.105   2.753   3.180 -0.9714  0.7213  0.5932
    1SOL    MW410072   3.073   2.704   3.115 -0.0219  0.6638  0.1686
    1SOL     OW10073   3.376   2.926   3.834 -0.3004  0.2575  0.0931
    1SOL    HW210074   3.291   2.883   3.844 -0.0689 -0.1480  0.3004
    1SOL    HW310075   3.414   2.926   3.921  1.4703 -2.7812 -0.6187
    1SOL    MW410076   3.370   2.921   3.847 -0.0362 -0.1969  0.0265
    1SOL     OW10077   2.525   2.210   4.460  0.3725 -0.2815  0.2743
    1SOL    HW210078   2.501   2.248   4.376  0.8505 -1.5031 -0.4174
    1SOL    HW310079   2.453   2.151   4.481  0.9927 -1.1323 -0.0053
    1SOL    MW410080   2.512   2.207   4.452  0.5174 -0.5550  0.1464
    1SOL     OW10081   2.326   0.181   3.664  0.4967  0.0773  0.3796
    1SOL    HW210082   2.307   0.180   3.758 -1.2154 -0.7881  0.0540
    1SOL    HW310083   2.303   0.093   3.635  1.5421  0.1782 -0.7555
    1SOL    MW410084   2.320   0.169   3.673  0.4086 -0.0235  0.1867
    1SOL     OW10085   3.195   2.552   3.978  0.0917  0.0739 -0.2967
    1SOL    HW210086   3.110   2.554   4.022  0.3291  0.5422  0.1554
    1SOL    HW310087   3.257   2.580   4.046  0.4660  0.7963 -0.9341
    1SOL    MW410088   3.192   2.556   3.993  0.1724  0.2310 -0.3214
    1SOL     OW10089   2.005   1.845   3.513 -0.0026 -0.0275 -0.5106
    1SOL    HW210090   1.977   1.755   3.529  0.0812 -0.2997 -1.8514
    1SOL    HW310091   2.063   1.839   3.438 -0.4312  1.2243 -0.9473
    1SOL    MW410092   2.009   1.832   3.506 -0.0482  0.1018 -0.7453
    1SOL     OW10093   2.422   2.896   3.777  0.1902 -0.2387 -0.1179
    1SOL    HW210094   2.377   2.918   3.858 -0.6415 -1.3576 -0.2629
    1SOL    HW310095   2.511   2.872   3.804  1.1905  3.2445  0.0443
    1SOL    MW410096   2.428   2.896   3.791  0.2122  0.0732 -0.1156
    1SOL     OW10097   1.395   2.804   4.724  0.3434 -0.1211 -0.3179
    1SOL    HW210098   1.476   2.767   4.689  0.9028  1.9653 -1.2875
    1SOL    HW310099   1.347   2.835   4.647 -0.6593  0.0840  0.3753
    1SOL    MW410100   1.399   2.803   4.710  0.2849  0.1812 -0.3543
    1SOL     OW10101   1.800   0.556   3.930  0.0645  0.1375 -0.4202
    1SOL    HW210102   1.765   0.591   4.012  0.8945  0.6722 -0.2832
    1SOL    HW310103   1.837   0.632   3.886  1.7355 -0.5275 -0.2039
    1SOL    MW410104   1.800   0.571   3.935  0.3945  0.1203 -0.3736
    1SOL     OW10105   1.528   0.762   4.286  0.6076 -0.4711 -0.1340
    1SOL    HW210106   1.438   0.776   4.257  0.9357  0.9086 -0.5150
    1SOL    HW310107   1.563   0.851   4.298  1.5586 -1.0067  1.0977
    1SOL    MW410108   1.520   0.776   4.284  0.7763 -0.3597 -0.0215
    1SOL     OW10109   1.706   4.664   3.427 -0.6008 -0.3645  0.5326
    1SOL    HW210110   1.622   4.630   3.455 -0.8000 -0.2194  0.1176
    1SOL    HW310111   1.719   4.628   3.339  0.1861 -1.1105  0.9518
    1SOL    MW410112   1.697   4.655   3.419 -0.5234 -0.4438  0.5333
    1SOL     OW10113   3.509   0.845   4.417 -0.2288  0.2073 -0.0989
    1SOL    HW210114   3.523   0.760   4.458  1.4657  0.3392 -0.3416
    1SOL    HW310115   3.595   0.887   4.421 -0.1931  0.5047 -3.1325
    1SOL    MW410116   3.522   0.839   4.423 -0.0005  0.2640 -0.5312
    1SOL     OW10117   2.366   1.042   4.266  0.5663  0.5683  0.0683
    1SOL    HW210118   2.407   0.971   4.217  0.5275  2.0668 -2.2265
    1SOL    HW310119   2.272   1.027   4.256  0.5570  0.9843 -0.5364
    1SOL    MW410120   2.359   1.031   4.258  0.5600  0.8209 -0.3142
    1SOL     OW10121   0.939   3.055   3.776 -0.0041  0.0904 -0.3399
    1SOL    HW210122   0.864   3.114   3.783 -0.8499 -0.9146 -0.7371
    1SOL    HW310123   0.926   2.991   3.845  1.8262  1.3272  1.2251
    1SOL    MW410124   0.927   3.054   3.786  0.1257  0.1209 -0.1860
    1SOL     OW10125   0.348   1.193   4.625 -0.5890  0.3316  0.2765
    1SOL    HW210126   0.263   1.221   4.592 -0.6347 -0.0555  0.0529
    1SOL    HW310127   0.396   1.274   4.643 -0.9975  0.5465  0.3861
    1SOL    MW410128   0.343   1.207   4.623 -0.6489  0.3088  0.2618
    1SOL     OW10129   2.659   0.571   4.209  0.1758  0.1266  0.4962
    1SOL    HW210130   2.733   0.631   4.198  0.3411 -0.1359  0.1411
    1SOL    HW310131   2.670   0.535   4.296  0.7284 -0.2538  0.2734
    1SOL    MW410132   2.670   0.574   4.219  0.2706  0.0418  0.4201
    1SOL     OW10133   3.860   3.151   3.919  0.0598 -0.3283  0.0704
    1SOL    HW210134   3.857   3.082   3.852  0.4871 -0.3929  0.1170
    1SOL    HW310135   3.772   3.188   3.918 -0.2123 -0.9664  0.1414
    1SOL    MW410136   3.848   3.147   3.910  0.0803 -0.4210  0.0858
    1SOL     OW10137   3.338   4.238   3.988  0.2260  0.3929 -0.7210
    1SOL    HW210138   3.379   4.178   4.051  0.5652  1.8493  0.4752
    1SOL    HW310139   3.245   4.239   4.013  0.0899 -0.1723 -1.1913
    1SOL    MW410140   3.331   4.230   4.000  0.2527  0.5102 -0.6254
    1SOL     OW10141   0.506   1.124   3.776 -0.0425  0.3929 -0.4645
    1SOL    HW210142   0.428   1.107   3.828  0.7108  0.1086  0.5931
    1SOL    HW310143   0.543   1.204   3.812 -0.0677  0.7536 -1.2266
    1SOL    MW410144   0.501   1.132   3.788  0.0536  0.4029 -0.4253
    1SOL     OW10145   0.971   2.140   3.971 -0.4904 -0.8127  0.1181
    1SOL    HW210146   0.896   2.103   3.925 -0.1757  2.1233 -2.9425
    1SOL    HW310147   0.933   2.209   4.026 -0.2039 -0.0683 -0.5999
    1SOL    MW410148   0.956   2.144   3.972 -0.4111 -0.3271 -0.3803
    1SOL     OW10149   3.163   0.696   3.257  0.5365  0.3956 -0.1307
    1SOL    HW210150   3.134   0.644   3.332 -0.6638 -0.3949 -1.1065
    1SOL    HW310151   3.093   0.761   3.246  0.9214  0.7768 -0.3004
    1SOL    MW410152   3.150   0.698   3.266  0.4289  0.3416 -0.2818
    1SOL     OW10153   1.882   2.205   4.812  0.4449  0.6411  0.1412
    1SOL    HW210154   1.853   2.288   4.850 -1.9899 -0.4190  0.7020
    1SOL    HW310155   1.870   2.216   4.718  1.4651  1.4215  0.1043
    1SOL    MW410156   1.877   2.217   4.805  0.2582  0.6039  0.2098
    1SOL     OW10157   3.110   4.451   3.721  0.6464 -0.2609 -0.2184
    1SOL    HW210158   3.027   4.403   3.725  0.5748 -0.1901 -0.7808
    1SOL    HW310159   3.167   4.396   3.668  0.3961  0.5187 -1.3189
    1SOL    MW410160   3.107   4.438   3.714  0.6039 -0.1488 -0.4377
    1SOL     OW10161   1.521   3.270   3.666 -0.4476 -0.2729  0.0364
    1SOL    HW210162   1.471   3.257   3.747  0.8798 -0.5247  0.8328
    1SOL    HW310163   1.610   3.244   3.689 -0.1452 -0.7207 -1.6298
    1SOL    MW410164   1.526   3.265   3.680 -0.2326 -0.3653 -0.0784
    1SOL     OW10165   4.109   4.070   4.133 -0.0460 -0.1290  0.1797
    1SOL    HW210166   4.028   4.101   4.173  0.0190  0.6892 -0.3178
    1SOL    HW310167   4.175   4.079   4.202  0.0592  1.2542 -0.0855
    1SOL    MW410168   4.107   4.075   4.148 -0.0234  0.1616  0.0787
    1SOL     OW10169   1.975   1.183   2.294  0.3769  0.6311 -0.2697
    1SOL    HW210170   2.013   1.235   2.365  1.0065  1.4409 -1.1861
    1SOL    HW310171   1.882   1.179   2.315  0.4828  1.2697  0.3605
    1SOL    MW410172   1.968   1.190   2.306  0.4740  0.8224 -0.3073
    1SOL     OW10173   2.608   2.402   4.674  0.6464  0.6642 -0.1319
    1SOL    HW210174   2.613   2.329   4.612  0.9413  0.1928  0.4320
    1SOL    HW310175   2.517   2.405   4.701  0.5763  0.6848 -0.3747
    1SOL    MW410176   2.597   2.392   4.669  0.6762  0.6051 -0.0896
    1SOL     OW10177   0.471   3.686   4.374 -0.1980 -0.4606 -0.5948
    1SOL    HW210178   0.460   3.769   4.327 -3.2007  0.3686  1.4312
    1SOL    HW310179   0.418   3.623   4.325 -0.1707 -0.5325 -0.5321
    1SOL    MW410180   0.463   3.689   4.361 -0.5906 -0.3607 -0.3190
    1SOL     OW10181   3.392   3.488   3.128  0.1491 -0.0065 -0.2844
    1SOL    HW210182   3.451   3.541   3.074 -0.6013  1.2321  0.0752
    1SOL    HW310183   3.334   3.552   3.170 -1.2707 -1.1696 -0.4127
    1SOL    MW410184   3.392   3.504   3.127 -0.1373  0.0033 -0.2537
    1SOL     OW10185   1.235   2.070   3.366  0.0297 -0.2029 -0.3381
    1SOL    HW210186   1.174   2.107   3.303 -1.2928 -0.7833  0.5663
    1SOL    HW310187   1.269   2.145   3.414 -1.8350 -0.0423  0.7742
    1SOL    MW410188   1.232   2.085   3.364 -0.3908 -0.2582 -0.0718
    1SOL     OW10189   1.304   3.772   3.644 -0.0877  0.0001  0.1910
    1SOL    HW210190   1.337   3.689   3.611 -2.1955 -1.1892  1.0180
    1SOL    HW310191   1.381   3.830   3.645  1.2330 -1.7083 -1.0655
    1SOL    MW410192   1.318   3.769   3.640 -0.1917 -0.3822  0.1345
    1SOL     OW10193   0.504   0.060   4.237  0.0690  0.1170  0.0780
    1SOL    HW210194   0.434   0.098   4.183  0.1301  0.7063  0.4162
    1SOL    HW310195   0.553   0.005   4.176 -0.1773  0.3710 -0.3571
    1SOL    MW410196   0.501   0.058   4.221  0.0446  0.2283  0.0658
    1SOL     OW10197   4.170   3.770   3.862 -0.7346 -0.1342  0.1787
    1SOL    HW210198   4.158   3.861   3.834 -0.2322 -0.3882 -0.8831
    1SOL    HW310199   4.172   3.774   3.958 -0.1964  1.0310  0.1233
    1SOL    MW410200   4.169   3.782   3.871 -0.5975 -0.0141  0.0315
    1SOL     OW10201   2.348   0.008   2.783 -0.3723 -0.6027  0.2404
    1SOL    HW210202   2.389  -0.014   2.867  1.8856  0.3970 -0.5746
    1SOL    HW310203   2.338   0.103   2.786  0.1245 -0.5116 -0.8019
    1SOL    MW410204   2.352   0.018   2.795 -0.0088 -0.4588 -0.0043
    1SOL     OW10205   1.395   4.213   3.675  0.3476  0.5562  0.2868
    1SOL    HW210206   1.481   4.171   3.670 -0.7744 -1.8124  0.1597
    1SOL    HW310207   1.372   4.208   3.768 -0.0526  0.3320  0.1758
    1SOL    MW410208   1.403   4.207   3.686  0.1467  0.2136  0.2553
    1SOL     OW10209   3.812   1.386   3.487  0.2112  0.7223 -0.6890
    1SOL    HW210210   3.833   1.471   3.525  1.4948  0.9648 -1.9459
    1SOL    HW310211   3.832   1.324   3.557  0.9723  1.2977 -0.3899
    1SOL    MW410212   3.817   1.389   3.501  0.4811  0.8301 -0.8154
    1SOL     OW10213   1.525   0.734   3.952 -0.3160 -0.0196 -0.0402
    1SOL    HW210214   1.457   0.776   3.900 -0.3067  0.0398 -0.0039
    1SOL    HW310215   1.581   0.805   3.981 -0.7988  0.0466  0.7638
    1SOL    MW410216   1.523   0.749   3.949 -0.3785 -0.0031  0.0706
    1SOL     OW10217   2.497   3.992   4.257 -0.5597 -0.1645 -0.1939
    1SOL    HW210218   2.435   4.023   4.192 -0.4733  0.0083 -0.1944
    1SOL    HW310219   2.443   3.966   4.332 -0.5902  0.5822  0.0487
    1SOL    MW410220   2.482   3.993   4.258 -0.5522 -0.0432 -0.1621
    1SOL     OW10221   0.821   1.761   4.545 -0.1365  0.0928 -0.0066
    1SOL    HW210222   0.868   1.686   4.581  0.5796  1.5521  2.2174
    1SOL    HW310223   0.885   1.806   4.490  0.6595  1.1315  1.6827
    1SOL    MW410224   0.836   1.757   4.543  0.0631  0.4224  0.5102
    1SOL     OW10225   1.623   4.350   3.134 -0.3329 -0.2966  0.3195
    1SOL    HW210226   1.541   4.328   3.089 -0.1758  0.7539 -0.5263
    1SOL    HW310227   1.611   4.319   3.223 -1.0026 -1.6510 -0.2329
    1SOL    MW410228   1.611   4.343   3.140 -0.4005 -0.3362  0.1352
    1SOL     OW10229   4.093   4.242   3.183  0.1510 -0.6703 -0.0061
    1SOL    HW210230   4.051   4.158   3.203  1.7069 -1.2612  0.8937
    1SOL    HW310231   4.184   4.219   3.165  0.8805  0.9466  1.4244
    1SOL    MW410232   4.100   4.228   3.183  0.4530 -0.5345  0.3014
    1SOL     OW10233   3.123   1.965   4.740 -0.0250 -0.1270  0.3900
    1SOL    HW210234   3.195   1.984   4.679 -0.6287 -0.3301 -0.4034
    1SOL    HW310235   3.165   1.922   4.814  0.9957  1.9484  1.0521
    1SOL    MW410236   3.138   1.962   4.742  0.0300  0.1202  0.3729
    1SOL     OW10237   2.949   4.019   3.342  0.0126 -0.5129 -0.0844
    1SOL    HW210238   2.912   4.097   3.382  0.6401 -0.0140 -0.4706
    1SOL    HW310239   2.919   3.947   3.397  0.5659  0.1252  1.0632
    1SOL    MW410240   2.940   4.020   3.354  0.1686 -0.3629  0.0165
    1SOL     OW10241   1.039   2.546   4.261 -0.0672  0.4360 -0.2658
    1SOL    HW210242   1.020   2.629   4.218  0.1047  0.4745 -0.2706
    1SOL    HW310243   1.121   2.562   4.308  0.1288  0.1782 -0.5175
    1SOL    MW410244   1.048   2.559   4.261 -0.0186  0.4072 -0.2999
    1SOL     OW10245   2.686   0.814   4.815 -0.1001  0.2832  0.0755
    1SOL    HW210246   2.616   0.879   4.806 -1.0815 -0.7646  0.0588
    1SOL    HW310247   2.640   0.731   4.827  1.1107 -0.7135 -1.9521
    1SOL    MW410248   2.671   0.812   4.815 -0.0699  0.0135 -0.1945
    1SOL     OW10249   3.441   1.522   3.624  0.4115 -0.1288 -0.7110
    1SOL    HW210250   3.458   1.456   3.691  0.0421  0.5956  0.1031
    1SOL    HW310251   3.349   1.544   3.634  0.8989  1.6953  0.1207
    1SOL    MW410252   3.431   1.516   3.634  0.4270  0.2074 -0.4940
    1SOL     OW10253   3.101   4.333   3.188 -0.0588 -0.6439  0.2093
    1SOL    HW210254   3.013   4.342   3.151 -0.4399 -1.7918  0.7997
    1SOL    HW310255   3.137   4.256   3.145  0.5283 -0.3721  0.2178
    1SOL    MW410256   3.094   4.324   3.177 -0.0315 -0.7591  0.2885
    1SOL     OW10257   3.214   1.024   4.092 -0.0969 -0.3302 -0.2305
    1SOL    HW210258   3.188   0.932   4.094  0.3017 -0.4227  1.1522
    1SOL    HW310259   3.195   1.056   4.179  1.7494  0.3382 -0.0458
    1SOL    MW410260   3.208   1.016   4.103  0.1991 -0.2542 -0.0238
    1SOL     OW10261   1.167   0.266   4.601 -0.0660  0.3475 -0.0940
    1SOL    HW210262   1.112   0.269   4.680  0.9561  0.7499  0.6258
    1SOL    HW310263   1.106   0.249   4.530 -1.1135  0.7192  0.6939
    1SOL    MW410264   1.152   0.264   4.602 -0.0693  0.4497  0.1049
    1SOL     OW10265   1.458   1.085   4.497  0.0138 -0.0781  0.1881
    1SOL    HW210266   1.479   1.178   4.507 -0.9087  0.1860 -0.2814
    1SOL    HW310267   1.457   1.051   4.587 -2.9956  1.1207  0.6650
    1SOL    MW410268   1.461   1.092   4.511 -0.5051  0.1148  0.1888
    1SOL     OW10269   1.801   3.275   4.868  0.2756 -0.1385  0.2968
    1SOL    HW210270   1.710   3.248   4.850  0.1071  1.1830 -0.9724
    1SOL    HW310271   1.796   3.370   4.876  1.6714  0.0254 -0.5863
    1SOL    MW410272   1.788   3.284   4.866  0.4375  0.0575  0.0124
    1SOL     OW10273   2.688   1.544   4.341  0.0437  0.0884  0.2097
    1SOL    HW210274   2.764   1.529   4.396  0.3474  0.0431 -0.2150
    1SOL    HW310275   2.688   1.470   4.280  0.3133  0.6792 -0.5138
    1SOL    MW410276   2.698   1.532   4.340  0.1194  0.1605  0.0582
    1SOL     OW10277   0.134   0.833   4.055 -0.3699 -0.0711 -0.4756
    1SOL    HW210278   0.165   0.916   4.018  0.7304 -0.2817 -0.0338
    1SOL    HW310279   0.057   0.858   4.107  0.3032  0.7656  0.1358
    1SOL    MW410280   0.128   0.848   4.057 -0.1359  0.0114 -0.3366
    1SOL     OW10281   4.418   1.839   4.215 -0.1222 -0.1074  0.0446
    1SOL    HW210282   4.453   1.750   4.207 -1.8433 -0.6836 -1.4250
    1SOL    HW310283   4.492   1.896   4.193  0.6462 -1.2021 -0.2629
    1SOL    MW410284   4.432   1.835   4.211 -0.2480 -0.3277 -0.1903
    1SOL     OW10285   3.573   1.455   4.074  0.5033 -0.4652 -0.0190
    1SOL    HW210286   3.586   1.543   4.039 -1.4643 -0.3756 -0.5571
    1SOL    HW310287   3.654   1.409   4.053  1.4723  1.1435  0.0936
    1SOL    MW410288   3.586   1.461   4.067  0.3717 -0.2410 -0.0749
    1SOL     OW10289   2.585   1.991   3.893 -0.1696  0.1415 -0.1696
    1SOL    HW210290   2.490   1.995   3.900 -0.3985  0.5071 -2.9346
    1SOL    HW310291   2.607   2.051   3.822  2.1268 -0.0516  0.3190
    1SOL    MW410292   2.576   1.999   3.885  0.1030  0.1643 -0.4702
    1SOL     OW10293   2.576   4.317   4.372  0.0878 -0.4377 -0.8743
    1SOL    HW210294   2.580   4.405   4.410 -1.5626 -1.1454  1.0063
    1SOL    HW310295   2.667   4.298   4.347  0.7669  1.0790  0.3432
    1SOL    MW410296   2.589   4.326   4.373 -0.0408 -0.3300 -0.4659
    1SOL     OW10297   3.443   1.437   2.839  0.2331  0.0504  0.5802
    1SOL    HW210298   3.422   1.383   2.915  0.4928 -0.5392  0.2336
    1SOL    HW310299   3.394   1.518   2.853  0.3344 -0.0316  1.4077
    1SOL    MW410300   3.434   1.441   2.851  0.2806 -0.0383  0.6437
    1SOL     OW10301   1.635   2.709   4.569 -0.8032  0.2173 -0.0075
    1SOL    HW210302   1.690   2.776   4.610 -2.0921  1.1323  0.2513
    1SOL    HW310303   1.697   2.648   4.529  0.4199  0.4271  1.5561
    1SOL    MW410304   1.650   2.710   4.569 -0.8119  0.3657  0.2332
    1SOL     OW10305   3.112   0.112   2.856 -0.2503 -0.2296  0.2457
    1SOL    HW210306   3.152   0.037   2.901  0.9788  0.7930  0.9174
    1SOL    HW310307   3.034   0.076   2.814 -0.3147 -1.6413  1.5190
    1SOL    MW410308   3.107   0.097   2.856 -0.0966 -0.2810  0.5023
    1SOL     OW10309   3.395   3.816   4.480  0.2672  0.3076 -0.1529
    1SOL    HW210310   3.311   3.858   4.500  0.3175  1.6895 -2.6245
    1SOL    HW310311   3.376   3.723   4.479 -1.2707  0.6054 -0.6629
    1SOL    MW410312   3.381   3.810   4.482  0.0710  0.5293 -0.5460
    1SOL     OW10313   2.445   0.884   4.523 -0.6838 -0.6051 -0.3533
    1SOL    HW210314   2.409   0.930   4.447  0.3790 -0.1659 -0.5985
    1SOL    HW310315   2.425   0.940   4.598 -0.5459 -0.3814 -0.4843
    1SOL    MW410316   2.437   0.897   4.523 -0.5252 -0.5176 -0.4034
    1SOL     OW10317   3.718   4.158   3.388 -0.2142  0.5367  0.3603
    1SOL    HW210318   3.804   4.126   3.416  0.7523  1.8326 -1.0332
    1SOL    HW310319   3.685   4.208   3.463  0.4013  0.3190  0.7820
    1SOL    MW410320   3.725   4.161   3.401 -0.0057  0.6790  0.2322
    1SOL     OW10321   2.081   1.009   4.289 -0.7314 -0.2749 -0.5646
    1SOL    HW210322   2.071   1.005   4.384  0.4231 -0.1621 -0.4339
    1SOL    HW310323   2.035   0.931   4.257 -0.2246 -0.8816  0.1634
    1SOL    MW410324   2.074   0.998   4.297 -0.5124 -0.3402 -0.4516
    1SOL     OW10325   2.471   4.199   3.858  0.2618  0.3461  0.2718
    1SOL    HW210326   2.507   4.285   3.881  0.1037  0.6009 -0.4240
    1SOL    HW310327   2.548   4.144   3.843  0.3804 -0.0571  2.2221
    1SOL    MW410328   2.486   4.203   3.859  0.2563  0.3266  0.4373
    1SOL     OW10329   3.406   2.933   4.118 -0.0657  0.1298  0.3709
    1SOL    HW210330   3.390   2.840   4.136  0.2576  0.3592  1.9119
    1SOL    HW310331   3.500   2.939   4.106 -0.0395  0.3078  0.6466
    1SOL    MW410332   3.416   2.921   4.119 -0.0196  0.1836  0.6113
    1SOL     OW10333   2.725   0.906   4.273 -0.3468  0.1573 -0.4488
    1SOL    HW210334   2.772   0.988   4.255 -0.2532  0.2151  0.0554
    1SOL    HW310335   2.756   0.880   4.360  0.0134 -0.6814 -0.8246
    1SOL    MW410336   2.736   0.914   4.282 -0.2868  0.0542 -0.4315
    1SOL     OW10337   0.664   0.255   4.372  0.6070  0.6237 -0.1838
    1SOL    HW210338   0.675   0.326   4.309  0.6394 -0.2663 -1.1916
    1SOL    HW310339   0.605   0.193   4.329  1.7526 -0.6668  0.0915
    1SOL    MW410340   0.657   0.256   4.358  0.7625  0.3360 -0.2799
    1SOL     OW10341   1.326   4.283   4.764  0.1788 -0.3961 -0.1388
    1SOL    HW210342   1.359   4.200   4.730  0.4160  0.0263 -0.9586
    1SOL    HW310343   1.395   4.347   4.743 -0.1329  0.0618  0.2175
    1SOL    MW410344   1.339   4.281   4.756  0.1690 -0.2799 -0.2003
    1SOL     OW10345   1.923   0.835   4.117 -0.1140 -0.3540 -0.0397
    1SOL    HW210346   1.853   0.893   4.086 -0.5508 -1.1571 -0.5759
    1SOL    HW310347   1.880   0.751   4.132  0.5396 -0.5711  0.6209
    1SOL    MW410348   1.908   0.831   4.115 -0.0854 -0.4887 -0.0234
    1SOL     OW10349   4.435   4.092   4.036  0.1683 -0.1136  0.1338
    1SOL    HW210350   4.459   4.050   3.953  0.8057 -0.2640  0.3931
    1SOL    HW310351   4.459   4.183   4.025 -3.1046  0.6605 -1.1990
    1SOL    MW410352   4.441   4.098   4.024 -0.1798 -0.0315 -0.0076
    1SOL     OW10353   2.372   2.487   3.994  0.2682  0.6933 -0.4881
    1SOL    HW210354   2.386   2.576   4.027  0.3647  0.8594 -0.9850
    1SOL    HW310355   2.406   2.431   4.064 -0.3608  1.0353  0.0943
    1SOL    MW410356   2.379   2.491   4.008  0.1981  0.7603 -0.4768
    1SOL     OW10357   3.449   0.983   3.950  0.2855  0.0828 -0.3739
    1SOL    HW210358   3.364   1.011   3.986  0.1752  0.0600 -0.6146
    1SOL    HW310359   3.446   1.010   3.859  0.2297 -0.6095 -0.5764
    1SOL    MW410360   3.437   0.990   3.943  0.2637 -0.0116 -0.4325
    1SOL     OW10361   1.380   2.278   4.772  0.0023 -0.1111  0.1969
    1SOL    HW210362   1.288   2.281   4.748  0.1691 -1.5461 -0.7306
    1SOL    HW310363   1.408   2.189   4.748  1.7184  0.4354  0.0670
    1SOL    MW410364   1.372   2.266   4.765  0.2506 -0.2284  0.0582
    1SOL     OW10365   3.220   2.480   2.694 -0.0464  0.1687  0.0458
    1SOL    HW210366   3.233   2.573   2.712  0.0204  0.0956  0.3743
    1SOL    HW310367   3.297   2.438   2.732  0.1621  0.0287 -0.5244
    1SOL    MW410368   3.232   2.487   2.701 -0.0098  0.1402  0.0141
    1SOL     OW10369   2.363   3.883   4.459  0.5277 -0.2177  0.0821
    1SOL    HW210370   2.448   3.849   4.489 -0.7329 -2.0186  1.7703
    1SOL    HW310371   2.348   3.961   4.512  1.0562  0.0046 -0.0941
    1SOL    MW410372   2.372   3.889   4.470  0.4313 -0.4261  0.2813
    1SOL     OW10373   3.533   3.789   4.197 -0.3625 -0.6432 -0.2130
    1SOL    HW210374   3.516   3.734   4.273 -0.0375 -1.8785 -1.0305
    1SOL    HW310375   3.489   3.872   4.218 -1.6843 -1.5189  0.6022
    1SOL    MW410376   3.525   3.793   4.210 -0.4940 -0.9217 -0.2131
    1SOL     OW10377   1.922   2.092   3.992 -0.2175 -0.3231 -0.0865
    1SOL    HW210378   1.945   2.175   3.950  1.0974 -1.8491 -2.5135
    1SOL    HW310379   1.951   2.102   4.082 -1.6961  2.4890  0.1325
    1SOL    MW410380   1.929   2.104   3.998 -0.2390 -0.1533 -0.3777
    1SOL     OW10381   4.152   4.096   2.789  0.2725  0.6744 -0.6548
    1SOL    HW210382   4.135   4.174   2.843  0.1506  1.3487 -1.6549
    1SOL    HW310383   4.226   4.122   2.733  1.2873 -0.4832  0.1270
    1SOL    MW410384   4.160   4.110   2.789  0.3901  0.6113 -0.6835
    1SOL     OW10385   3.585   4.017   4.479 -0.1487  0.0034  0.1271
    1SOL    HW210386   3.666   3.974   4.452 -1.3240 -1.0991 -1.7733
    1SOL    HW310387   3.523   3.945   4.491 -0.4982  0.7156  2.9267
    1SOL    MW410388   3.587   4.001   4.477 -0.3500 -0.0482  0.2460
    1SOL     OW10389   0.319   4.032   4.437  0.0097  0.0640 -0.0100
    1SOL    HW210390   0.279   3.958   4.482 -1.8899  0.5362 -0.8615
    1SOL    HW310391   0.389   3.994   4.384  0.6556 -0.7964  1.4515
    1SOL    MW410392   0.323   4.017   4.436 -0.1557  0.0129  0.0701
    1SOL     OW10393   4.146   2.983   2.992 -0.6063  0.3689 -0.7253
    1SOL    HW210394   4.170   2.928   2.917 -2.7031 -2.3035  0.4738
    1SOL    HW310395   4.197   2.948   3.065 -1.7613  0.1769 -0.0008
    1SOL    MW410396   4.156   2.971   2.992 -1.0357 -0.0093 -0.4714
    1SOL     OW10397   1.027   4.255   4.664 -0.2266 -0.0741 -0.2626
    1SOL    HW210398   0.959   4.201   4.704 -0.4120 -0.1832 -0.7289
    1SOL    HW310399   1.099   4.252   4.727 -0.6565  0.0534  0.2357
    1SOL    MW410400   1.028   4.247   4.678 -0.3077 -0.0715 -0.2584
    1SOL     OW10401   4.034   3.700   4.389  0.1320 -0.6292  0.1668
    1SOL    HW210402   3.955   3.753   4.398  0.6470  0.2790 -0.4588
    1SOL    HW310403   4.101   3.749   4.437  0.8063 -0.2778 -1.1088
    1SOL    MW410404   4.033   3.714   4.396  0.2885 -0.4630 -0.0844
    1SOL     OW10405   3.523   3.404   3.437  0.1230  0.3466  0.5676
    1SOL    HW210406   3.473   3.323   3.423 -1.3074  1.0970  1.3037
    1SOL    HW310407   3.518   3.450   3.353 -1.3776  0.9483  0.9865
    1SOL    MW410408   3.516   3.399   3.424 -0.2637  0.5252  0.7198
    1SOL     OW10409   2.656   1.857   4.618  0.3827  0.2752  0.2904
    1SOL    HW210410   2.701   1.921   4.564  0.5752  1.0567  1.3654
    1SOL    HW310411   2.594   1.908   4.670  1.2534 -0.2526  1.9050
    1SOL    MW410412   2.654   1.872   4.618  0.5229  0.3085  0.6452
    1SOL     OW10413   2.034   0.227   4.400  0.1175 -0.0818 -0.4376
    1SOL    HW210414   2.090   0.296   4.434 -0.2748  0.2532 -0.4632
    1SOL    HW310415   2.068   0.209   4.313  0.8429 -0.6267 -0.0473
    1SOL    MW410416   2.046   0.234   4.393  0.1614 -0.1095 -0.3891
    1SOL     OW10417   3.444   4.445   3.337 -0.2034  0.0021  0.1175
    1SOL    HW210418   3.498   4.404   3.271  0.9716  0.3046  0.8817
    1SOL    HW310419   3.494   4.437   3.418 -1.5092 -0.1484  0.9336
    1SOL    MW410420   3.458   4.439   3.339 -0.2205  0.0219  0.3262
    1SOL     OW10421   0.666   3.842   3.835 -0.8344  0.3821  0.3428
    1SOL    HW210422   0.577   3.807   3.833 -1.2252  1.2749  1.6106
    1SOL    HW310423   0.655   3.936   3.826  0.1366  0.3226 -1.7138
    1SOL    MW410424   0.653   3.850   3.833 -0.7578  0.4921  0.2389
    1SOL     OW10425   2.382   0.643   4.632  0.4209 -0.4599  0.6164
    1SOL    HW210426   2.310   0.675   4.686 -0.3560 -0.2118 -0.5474
    1SOL    HW310427   2.405   0.717   4.576  0.6852 -0.9579  0.0607
    1SOL    MW410428   2.376   0.657   4.632  0.3533 -0.4929  0.3896
    1SOL     OW10429   1.308   0.722   4.666 -0.4346 -0.1391  0.3772
    1SOL    HW210430   1.286   0.794   4.607 -1.7277 -0.8271  0.0123
    1SOL    HW310431   1.259   0.648   4.632  2.4838 -1.7442 -0.4988
    1SOL    MW410432   1.299   0.722   4.654 -0.2202 -0.4417  0.2136
    1SOL     OW10433   4.200   1.134   4.263 -0.6373 -0.2782  0.2455
    1SOL    HW210434   4.137   1.200   4.290  0.5327  1.2516 -0.6659
    1SOL    HW310435   4.198   1.136   4.167  0.6513 -0.3330  0.1990
    1SOL    MW410436   4.192   1.143   4.254 -0.3138 -0.0836  0.1192
    1SOL     OW10437   2.726   1.916   2.749  0.6361 -0.2682 -0.4777
    1SOL    HW210438   2.763   1.828   2.761 -1.6063 -1.2447 -0.6044
    1SOL    HW310439   2.722   1.952   2.838 -1.4778 -1.5574 -0.0281
    1SOL    MW410440   2.731   1.909   2.762  0.0610 -0.5673 -0.4351
    1SOL     OW10441   4.015   1.374   4.011  0.2842 -0.0817 -0.6075
    1SOL    HW210442   4.084   1.310   4.028  1.9447  1.4126 -1.5481
    1SOL    HW310443   4.056   1.438   3.953 -1.1903  2.1223  0.7450
    1SOL    MW410444   4.029   1.374   4.006  0.3085  0.4063 -0.5531
    1SOL     OW10445   1.683   1.349   3.692 -0.0996 -0.4436 -0.6452
    1SOL    HW210446   1.629   1.346   3.613 -0.7493 -0.4020 -0.2018
    1SOL    HW310447   1.773   1.342   3.660 -0.4193 -1.5277 -1.3107
    1SOL    MW410448   1.688   1.348   3.677 -0.2275 -0.5811 -0.6742
    1SOL     OW10449   2.911   0.451   4.143  0.2163 -0.3840 -0.2598
    1SOL    HW210450   2.819   0.474   4.161  0.0515 -1.1215 -0.1492
    1SOL    HW310451   2.960   0.488   4.217 -0.1942 -1.4436  0.5594
    1SOL    MW410452   2.905   0.459   4.155  0.1404 -0.6211 -0.1369
    1SOL     OW10453   1.580   1.197   4.763 -0.2626  0.5158 -0.7092
    1SOL    HW210454   1.551   1.134   4.828  0.4812  1.3551  0.4491
    1SOL    HW310455   1.501   1.247   4.741 -0.2499  1.0471  0.4578
    1SOL    MW410456   1.566   1.195   4.768 -0.1628  0.6967 -0.4020
    1SOL     OW10457   3.008   1.609   3.420 -0.6760  0.4923 -0.2005
    1SOL    HW210458   3.065   1.655   3.358 -1.7012 -0.5164 -1.9254
    1SOL    HW310459   2.932   1.582   3.368 -0.6948 -2.0212  1.0643
    1SOL    MW410460   3.005   1.612   3.405 -0.8137  0.0275 -0.2613
    1SOL     OW10461   0.197   0.445   4.223 -0.2662 -0.2803 -0.1148
    1SOL    HW210462   0.175   0.373   4.281 -0.3353 -0.4766 -0.3814
    1SOL    HW310463   0.284   0.472   4.250 -0.7266  0.3183  0.7632
    1SOL    MW410464   0.206   0.439   4.234 -0.3361 -0.2272 -0.0343
    1SOL     OW10465   1.656   2.130   4.476  0.2546 -0.0885 -0.0067
    1SOL    HW210466   1.680   2.070   4.405 -0.8251  1.4939 -1.7580
    1SOL    HW310467   1.737   2.178   4.496  0.6395 -0.7720  0.0631
    1SOL    MW410468   1.670   2.129   4.469  0.1628  0.0300 -0.2289
    1SOL     OW10469   0.053   3.164   3.716 -0.0505  0.2435 -0.3378
    1SOL    HW210470   0.105   3.091   3.751 -0.7845  0.2654  0.8255
    1SOL    HW310471   0.064   3.234   3.781 -0.5360  0.6667 -0.7111
    1SOL    MW410472   0.061   3.164   3.729 -0.2114  0.3026 -0.2337
    1SOL     OW10473   3.790   3.900   4.140 -0.1422  0.2584  0.1129
    1SOL    HW210474   3.779   3.960   4.065 -1.3587 -1.4525 -1.1297
    1SOL    HW310475   3.702   3.864   4.154 -0.3186  1.9108  3.5772
    1SOL    MW410476   3.777   3.903   4.132 -0.3257  0.2508  0.4063
    1SOL     OW10477   3.577   3.786   3.802 -0.2979  0.3221 -0.2445
    1SOL    HW210478   3.622   3.712   3.844  1.5868  1.3327 -0.4164
    1SOL    HW310479   3.563   3.758   3.712 -2.2188 -0.9275  0.3985
    1SOL    MW410480   3.581   3.772   3.796 -0.3026  0.2902 -0.1826
    1SOL     OW10481   1.696   2.421   3.382 -0.6276 -0.5088  0.1791
    1SOL    HW210482   1.618   2.414   3.437 -1.6445 -1.1097 -1.3194
    1SOL    HW310483   1.683   2.502   3.333  0.7639  0.5678  1.5437
    1SOL    MW410484   1.684   2.431   3.383 -0.5783 -0.4461  0.1614
    1SOL     OW10485   0.064   2.115   4.664 -0.1955  0.2231 -0.4008
    1SOL    HW210486   0.112   2.096   4.583  1.1839  0.4377  0.3515
    1SOL    HW310487   0.071   2.034   4.715  0.8294  0.8323  0.4299
    1SOL    MW410488   0.071   2.102   4.660  0.1217  0.3316 -0.1922
    1SOL     OW10489   1.501   4.075   3.938  0.2524  0.0169 -0.3503
    1SOL    HW210490   1.543   3.989   3.947  0.5529  0.1794 -0.1865
    1SOL    HW310491   1.517   4.118   4.022  1.1753  0.7160 -0.8849
    1SOL    MW410492   1.508   4.069   3.950  0.4139  0.1311 -0.3994
    1SOL     OW10493   2.137   3.560   4.578 -0.2231  0.0917 -0.1576
    1SOL    HW210494   2.119   3.634   4.519  0.5363 -1.2100 -2.0879
    1SOL    HW310495   2.073   3.494   4.554 -0.0906 -0.3491  0.6918
    1SOL    MW410496   2.127   3.561   4.567 -0.1054 -0.1383 -0.2999
    1SOL     OW10497   0.363   4.532   4.384 -0.2547  0.0231 -0.2149
    1SOL    HW210498   0.424   4.605   4.373  0.1439 -0.0157  1.5819
    1SOL    HW310499   0.360   4.490   4.298 -0.2234  1.9463 -1.1765
    1SOL    MW410500   0.371   4.536   4.371 -0.1980  0.2718 -0.1049
    1SOL     OW10501   0.241   4.510   3.303 -0.3666  0.2122 -0.3485
    1SOL    HW210502   0.146   4.502   3.314 -0.4159  0.7679 -0.3611
    1SOL    HW310503   0.256   4.491   3.210 -0.1251 -2.8766  0.2579
    1SOL    MW410504   0.230   4.507   3.292 -0.3413 -0.1221 -0.2701
    1SOL     OW10505   0.932   1.522   4.276 -0.1169  0.3387  0.0366
    1SOL    HW210506   0.893   1.601   4.239 -0.1524 -0.4773 -1.6912
    1SOL    HW310507   0.859   1.460   4.284  0.6849 -1.0113 -2.7095
    1SOL    MW410508   0.917   1.524   4.272 -0.0158  0.0529 -0.5536
    1SOL     OW10509   1.367   0.045   4.578  0.2940 -0.1744 -0.1223
    1SOL    HW210510   1.351   0.137   4.600  0.6128  0.1161 -1.0888
    1SOL    HW310511   1.398   0.047   4.487  1.5711 -1.1155  0.2796
    1SOL    MW410512   1.369   0.058   4.569  0.5046 -0.2602 -0.1969
    1SOL     OW10513   1.708   1.033   4.367  0.4921  0.2937 -0.5639
    1SOL    HW210514   1.622   1.046   4.409  0.7897  0.3457  0.0391
    1SOL    HW310515   1.731   1.119   4.332  1.5132  0.9674  1.6145
    1SOL    MW410516   1.700   1.046   4.368  0.6660  0.3895 -0.1974
    1SOL     OW10517   2.858   4.337   3.737  0.3137 -0.4017  0.1261
    1SOL    HW210518   2.811   4.255   3.753  0.0748 -0.3997 -0.5675
    1SOL    HW310519   2.797   4.390   3.686  0.2121  0.4642  1.1222
    1SOL    MW410520   2.844   4.333   3.732  0.2689 -0.2875  0.1659
    1SOL     OW10521   4.088   3.418   4.355 -0.1131 -0.6322  0.0073
    1SOL    HW210522   4.079   3.419   4.259 -1.9322  0.2246  0.1659
    1SOL    HW310523   4.076   3.510   4.381 -0.7987 -1.0353  1.1526
    1SOL    MW410524   4.085   3.430   4.346 -0.4439 -0.5722  0.1798
    1SOL     OW10525   3.265   0.134   3.157  0.0132 -0.2794  0.0574
    1SOL    HW210526   3.259   0.094   3.244  0.5698  0.2263  0.3326
    1SOL    HW310527   3.187   0.190   3.152 -0.5155 -1.0337 -0.1409
    1SOL    MW410528   3.254   0.136   3.168  0.0169 -0.3122  0.0677
    1SOL     OW10529   2.511   1.612   4.527 -0.2586 -0.0504 -0.0141
    1SOL    HW210530   2.566   1.592   4.451 -0.8760  0.4654 -0.6098
    1SOL    HW310531   2.537   1.701   4.553 -0.5431  0.0467 -0.0605
    1SOL    MW410532   2.522   1.621   4.520 -0.3777  0.0304 -0.0987
    1SOL     OW10533   4.335   1.855   3.169  0.5989 -0.2421  0.1948
    1SOL    HW210534   4.355   1.928   3.228  0.1221 -1.0911  1.4280
    1SOL    HW310535   4.282   1.895   3.100  2.3057  1.0293 -0.4080
    1SOL    MW410536   4.331   1.870   3.168  0.7615 -0.1863  0.2780
    1SOL     OW10537   1.995   0.486   3.465 -0.1111  0.5846  0.1606
    1SOL    HW210538   2.012   0.399   3.500 -0.8561 -0.0817 -1.1002
    1SOL    HW310539   1.905   0.506   3.490  0.4509  1.5028  1.4811
    1SOL    MW410540   1.985   0.477   3.473 -0.1353  0.6179  0.1686
    1SOL     OW10541   3.606   2.619   4.233 -0.0117  0.7615 -0.8098
    1SOL    HW210542   3.686   2.591   4.278 -0.6568 -0.1501 -0.2037
    1SOL    HW310543   3.632   2.695   4.182  0.9639  1.2411  0.3762
    1SOL    MW410544   3.620   2.625   4.232  0.0319  0.7043 -0.5736
    1SOL     OW10545   0.127   3.550   3.699  0.2688  0.0539  0.0378
    1SOL    HW210546   0.063   3.594   3.755  0.8168 -1.8829  2.2595
    1SOL    HW310547   0.117   3.592   3.614 -1.9259  1.7659  1.0860
    1SOL    MW410548   0.117   3.562   3.696  0.0515  0.0243  0.4694
    1SOL     OW10549   2.575   1.693   3.872 -0.4585  0.7908  0.6094
    1SOL    HW210550   2.587   1.788   3.868 -2.4095  1.0529  0.3738
    1SOL    HW310551   2.514   1.673   3.801  1.0565 -0.8495 -0.2743
    1SOL    MW410552   2.568   1.703   3.862 -0.5159  0.6089  0.4621
    1SOL     OW10553   3.556   2.971   3.595 -0.1561  0.0178 -0.4669
    1SOL    HW210554   3.494   2.958   3.666 -0.7842  0.8781 -0.8398
    1SOL    HW310555   3.507   2.947   3.516  0.4640 -0.7206 -0.6306
    1SOL    MW410556   3.541   2.966   3.594 -0.1574  0.0336 -0.5376
    1SOL     OW10557   3.453   2.352   2.907 -0.2486  0.1099 -0.0398
    1SOL    HW210558   3.432   2.433   2.953  2.2867 -1.2387  3.7657
    1SOL    HW310559   3.406   2.284   2.956  0.7857 -1.1452 -0.7617
    1SOL    MW410560   3.444   2.354   2.920  0.2227 -0.2337  0.3672
    1SOL     OW10561   1.420   3.043   4.457  0.1528  0.3113 -0.1237
    1SOL    HW210562   1.509   3.042   4.422  0.0635  0.8951 -0.3728
    1SOL    HW310563   1.388   2.954   4.443  0.8585 -0.0242  0.3852
    1SOL    MW410564   1.428   3.031   4.450  0.2341  0.3440 -0.0896
    1SOL     OW10565   4.220   4.526   3.096 -0.6276  0.3383 -0.1445
    1SOL    HW210566   4.172   4.450   3.064  0.3452 -0.7508  0.9267
    1SOL    HW310567   4.186   4.540   3.184 -0.2523  0.6616 -0.0521
    1SOL    MW410568   4.209   4.518   3.103 -0.4497  0.2370  0.0091
    1SOL     OW10569   4.372   0.107   4.154 -0.0327 -0.0947  0.3822
    1SOL    HW210570   4.442   0.133   4.213  0.1758  0.1665  0.0240
    1SOL    HW310571   4.361   0.182   4.095  0.6407 -0.8584 -0.7351
    1SOL    MW410572   4.380   0.121   4.154  0.0839 -0.1610  0.1879
    1SOL     OW10573   3.458   0.734   3.676  0.0763 -0.1752  0.0407
    1SOL    HW210574   3.443   0.751   3.583  0.5098 -1.6965 -0.3089
    1SOL    HW310575   3.549   0.761   3.690  0.6221 -1.7445 -0.4148
    1SOL    MW410576   3.468   0.740   3.665  0.2055 -0.5830 -0.0656
    1SOL     OW10577   3.701   3.879   3.111 -0.6412  0.7627  0.2014
    1SOL    HW210578   3.717   3.953   3.052 -0.4142  0.7997  0.3082
    1SOL    HW310579   3.786   3.836   3.119 -0.6961  0.6933  0.4160
    1SOL    MW410580   3.714   3.883   3.105 -0.6185  0.7584  0.2439
    1SOL     OW10581   3.980   3.103   3.371 -0.1473  0.1586 -0.3171
    1SOL    HW210582   3.904   3.139   3.417 -0.0965  0.9639 -0.8641
    1SOL    HW310583   4.012   3.175   3.317  2.5802  0.6582  1.8625
    1SOL    MW410584   3.974   3.117   3.370  0.2191  0.3309 -0.1016
    1SOL     OW10585   1.235   4.070   4.309  0.1632  0.0381 -0.2033
    1SOL    HW210586   1.313   4.117   4.337  0.6552 -0.9687  0.1504
    1SOL    HW310587   1.269   3.992   4.265 -0.6341 -0.0897 -0.5918
    1SOL    MW410588   1.250   4.066   4.307  0.1229 -0.1121 -0.2074
    1SOL     OW10589   2.575   0.053   3.847 -0.4378  0.3677 -0.0388
    1SOL    HW210590   2.485   0.072   3.873 -0.4699 -0.3947  0.4240
    1SOL    HW310591   2.627   0.121   3.889 -0.9989  2.0443 -1.9799
    1SOL    MW410592   2.570   0.064   3.856 -0.5157  0.4883 -0.2337
    1SOL     OW10593   4.226   0.536   4.107 -0.4606  0.2329  0.5452
    1SOL    HW210594   4.301   0.569   4.158  0.0627  0.7547 -0.5527
    1SOL    HW310595   4.201   0.610   4.052 -0.1577 -0.7667 -0.9446
    1SOL    MW410596   4.233   0.550   4.107 -0.3514  0.1698  0.2041
    1SOL     OW10597   0.658   2.899   4.068  0.7692 -0.3999  0.2351
    1SOL    HW210598   0.664   2.901   4.164 -1.3151  0.3804  0.3748
    1SOL    HW310599   0.620   2.984   4.045  0.8089 -0.7773 -1.2636
    1SOL    MW410600   0.654   2.910   4.078  0.4995 -0.3469  0.0558
    1SOL     OW10601   0.833   0.731   4.281  0.5362  0.2676 -0.4298
    1SOL    HW210602   0.760   0.786   4.252 -1.6547 -2.7232 -0.7215
    1SOL    HW310603   0.840   0.749   4.375 -1.3532 -0.2689 -0.1633
    1SOL    MW410604   0.824   0.741   4.290 -0.0021 -0.1978 -0.4325
    1SOL     OW10605   3.888   1.999   3.705  0.0640  0.5135  0.4158
    1SOL    HW210606   3.913   2.088   3.727 -0.7599  0.5870  1.0716
    1SOL    HW310607   3.925   1.946   3.776  0.3615  0.3577  0.1452
    1SOL    MW410608   3.896   2.003   3.718 -0.0052  0.5026  0.4666
    1SOL     OW10609   0.223   4.283   3.466  0.7636 -0.1196  0.3783
    1SOL    HW210610   0.187   4.317   3.548  1.7214  1.2649  0.2368
    1SOL    HW310611   0.250   4.361   3.417  0.5532 -0.9493 -1.0950
    1SOL    MW410612   0.221   4.298   3.470  0.8622 -0.0467  0.1652
    1SOL     OW10613   2.465   1.246   4.398 -0.0577 -1.1398 -0.1749
    1SOL    HW210614   2.467   1.322   4.341  2.6893 -1.8538 -1.0935
    1SOL    HW310615   2.429   1.176   4.343  1.1549 -1.4543 -0.5824
    1SOL    MW410616   2.460   1.247   4.383  0.4644 -1.2755 -0.3505
    1SOL     OW10617   2.867   1.123   4.184 -0.2284 -0.0013 -0.0164
    1SOL    HW210618   2.892   1.145   4.095  0.3179  1.0548  0.3881
    1SOL    HW310619   2.939   1.156   4.238 -0.3829 -0.9440  0.7828
    1SOL    MW410620   2.880   1.130   4.180 -0.1767  0.0137  0.1426
    1SOL     OW10621   2.530   2.655   4.569  0.7574  0.2271 -0.5271
    1SOL    HW210622   2.504   2.639   4.478  1.2110 -0.4348 -0.5474
    1SOL    HW310623   2.579   2.576   4.593  0.3123  0.2389  0.4102
    1SOL    MW410624   2.533   2.642   4.560  0.7586  0.1414 -0.4058
    1SOL     OW10625   4.365   2.174   2.952 -0.9221  0.3123  0.1895
    1SOL    HW210626   4.412   2.198   3.033  0.2954 -0.6507 -0.2072
    1SOL    HW310627   4.304   2.105   2.980 -1.2441  0.7137  0.4829
    1SOL    MW410628   4.363   2.168   2.967 -0.8039  0.2382  0.1757
    1SOL     OW10629   3.493   3.341   4.371 -0.3994 -0.4994 -0.3336
    1SOL    HW210630   3.430   3.273   4.345 -0.6971 -0.1351 -0.5743
    1SOL    HW310631   3.439   3.420   4.381  0.2115  0.1064 -1.7632
    1SOL    MW410632   3.477   3.343   4.369 -0.3581 -0.3715 -0.5536
    1SOL     OW10633   1.770   1.198   3.191 -0.1762 -0.2537  0.1826
    1SOL    HW210634   1.685   1.219   3.152 -0.9983 -1.6845  1.1321
    1SOL    HW310635   1.769   1.103   3.201  1.8558 -0.3716 -0.4826
    1SOL    MW410636   1.759   1.188   3.187 -0.0166 -0.4582  0.2198
    1SOL     OW10637   4.008   0.486   3.540  0.1232 -0.1345 -0.2159
    1SOL    HW210638   4.071   0.555   3.520  1.5271 -0.9749  1.1928
    1SOL    HW310639   4.009   0.479   3.636  1.2288 -3.1764 -0.3709
    1SOL    MW410640   4.016   0.494   3.550  0.4544 -0.6467 -0.0505
    1SOL     OW10641   2.958   1.276   4.496  0.1171 -0.2925  0.0181
    1SOL    HW210642   2.929   1.367   4.497 -0.8049 -0.5862  1.4887
    1SOL    HW310643   2.878   1.226   4.481  0.2844 -0.9668  1.3101
    1SOL    MW410644   2.944   1.281   4.494  0.0174 -0.4201  0.3824
    1SOL     OW10645   2.033   3.002   3.990 -0.2099 -0.6928  0.1535
    1SOL    HW210646   2.091   2.926   3.989 -1.0128 -1.3628  1.9723
    1SOL    HW310647   2.091   3.076   3.972  1.2893 -1.3102  2.2027
    1SOL    MW410648   2.048   3.002   3.988 -0.1180 -0.8626  0.6635
    1SOL     OW10649   3.797   4.508   3.719 -0.7028 -0.0399  0.4709
    1SOL    HW210650   3.760   4.573   3.778  1.1244  1.1034  0.4058
    1SOL    HW310651   3.802   4.428   3.771  0.0325  0.7138  1.5897
    1SOL    MW410652   3.793   4.506   3.734 -0.3645  0.2098  0.6101
    1SOL     OW10653   0.143   3.380   4.171  0.0371 -0.1869 -0.2465
    1SOL    HW210654   0.229   3.411   4.199 -0.5043  0.7813  0.3455
    1SOL    HW310655   0.155   3.286   4.158  0.7690 -0.3395  1.4295
    1SOL    MW410656   0.156   3.371   4.173  0.0623 -0.0789  0.0525
    1SOL     OW10657   3.697   3.719   3.512  0.0395 -0.6012  0.4567
    1SOL    HW210658   3.611   3.678   3.507 -0.1145 -0.2212 -0.0373
    1SOL    HW310659   3.689   3.800   3.462  1.2206 -1.5035 -1.2335
    1SOL    MW410660   3.685   3.724   3.505  0.1750 -0.6700  0.1683
    1SOL     OW10661   4.252   0.936   3.538  0.0760  0.2411 -0.6287
    1SOL    HW210662   4.243   1.001   3.468 -0.4867 -0.3762 -1.1421
    1SOL    HW310663   4.173   0.947   3.591  0.6449  0.9100  0.0890
    1SOL    MW410664   4.240   0.946   3.536  0.0772  0.2479 -0.6015
    1SOL     OW10665   2.538   3.461   3.939  0.5062 -0.4354  0.2173
    1SOL    HW210666   2.611   3.415   3.980 -0.7760 -1.3986  1.4733
    1SOL    HW310667   2.519   3.533   4.000  1.2741  0.6260 -0.7852
    1SOL    MW410668   2.545   3.464   3.953  0.4385 -0.4225  0.2506
    1SOL     OW10669   1.056   0.665   4.109  0.0937  0.6376  0.2797
    1SOL    HW210670   0.989   0.699   4.169 -0.7912  0.7428 -0.7533
    1SOL    HW310671   1.012   0.659   4.025  0.8651 -1.0005 -0.0345
    1SOL    MW410672   1.041   0.669   4.106  0.0787  0.4353  0.1016
    1SOL     OW10673   4.486   3.090   3.157 -0.2073 -0.0591  0.3439
    1SOL    HW210674   4.422   3.018   3.157  0.1013 -0.3387 -0.9020
    1SOL    HW310675   4.496   3.112   3.250  0.7510 -2.5746  0.8952
    1SOL    MW410676   4.479   3.083   3.169 -0.0405 -0.4280  0.2522
    1SOL     OW10677   2.703   1.352   4.150  0.3255 -0.3349 -0.2376
    1SOL    HW210678   2.752   1.271   4.167  0.4817 -0.5827 -1.7973
    1SOL    HW310679   2.637   1.327   4.086 -1.3665  0.1798  1.2680
    1SOL    MW410680   2.701   1.338   4.144  0.1228 -0.2998 -0.2451
    1SOL     OW10681   2.853   4.395   4.320  0.0498  0.2073  0.0973
    1SOL    HW210682   2.903   4.340   4.260 -0.0624 -0.7974  0.9124
    1SOL    HW310683   2.887   4.373   4.407 -0.4359  0.9557  0.4782
    1SOL    MW410684   2.864   4.385   4.323 -0.0293  0.1736  0.2551
    1SOL     OW10685   3.461   4.046   2.715  0.6928 -0.1807  0.3221
    1SOL    HW210686   3.435   4.132   2.683 -0.8888 -0.4872  0.7661
    1SOL    HW310687   3.550   4.034   2.681  0.0285  0.5975 -1.7640
    1SOL    MW410688   3.469   4.056   2.706  0.3965 -0.1183  0.1054
    1SOL     OW10689   3.471   0.271   4.559 -0.0302 -0.3322  0.3511
    1SOL    HW210690   3.475   0.335   4.488 -1.7950 -0.1243  0.4270
    1SOL    HW310691   3.378   0.262   4.578  0.4070 -0.7195  2.3562
    1SOL    MW410692   3.460   0.278   4.552 -0.2055 -0.3559  0.6256
    1SOL     OW10693   2.712   0.790   4.533 -0.0239  0.5144 -0.3005
    1SOL    HW210694   2.624   0.814   4.502  0.2284  0.9041 -0.7250
    1SOL    HW310695   2.705   0.794   4.628 -1.7162 -3.9593 -0.1373
    1SOL    MW410696   2.699   0.794   4.541 -0.2136 -0.0244 -0.3347
    1SOL     OW10697   0.733   3.656   4.948 -0.3925 -0.4183 -0.0845
    1SOL    HW210698   0.734   3.699   5.034  2.3534 -0.3118 -0.1015
    1SOL    HW310699   0.743   3.728   4.886  2.5236 -0.8537 -0.1968
    1SOL    MW410700   0.735   3.671   4.951  0.3545 -0.4616 -0.1011
    1SOL     OW10701   3.608   2.012   3.688  0.0622 -0.2053 -0.8301
    1SOL    HW210702   3.586   1.919   3.695  1.0660 -0.5056 -1.5443
    1SOL    HW310703   3.702   2.017   3.707  0.2289  0.5186 -1.7843
    1SOL    MW410704   3.617   2.001   3.691  0.2167 -0.1493 -1.0502
    1SOL     OW10705   3.655   3.413   4.135 -0.8179  0.3149 -0.2413
    1SOL    HW210706   3.713   3.488   4.149 -0.0981 -0.2287 -0.2281
    1SOL    HW310707   3.621   3.392   4.222 -1.2744  0.8228 -0.2951
    1SOL    MW410708   3.658   3.420   4.148 -0.7832  0.3102 -0.2465
    1SOL     OW10709   3.020   3.981   3.986  0.0934 -0.0661  0.2989
    1SOL    HW210710   3.074   3.921   4.037 -0.8911 -0.7538  0.5407
    1SOL    HW310711   3.010   3.938   3.901  0.3129  0.2836  0.0930
    1SOL    MW410712   3.026   3.967   3.982 -0.0074 -0.1104  0.3037
    1SOL     OW10713   2.738   3.703   4.294  0.0134 -0.0012  0.2100
    1SOL    HW210714   2.792   3.648   4.237 -0.9392 -0.2763 -0.4404
    1SOL    HW310715   2.662   3.727   4.240 -0.5711  0.2793  1.1424
    1SOL    MW410716   2.735   3.699   4.279 -0.1893 -0.0005  0.2480
    1SOL     OW10717   2.118   1.427   4.127  0.0794 -0.0330  0.4218
    1SOL    HW210718   2.106   1.513   4.087 -0.0765 -0.0070  0.5288
    1SOL    HW310719   2.213   1.420   4.141  0.2623 -0.4690 -0.9381
    1SOL    MW410720   2.129   1.437   4.123  0.0827 -0.0870  0.2570
    1SOL     OW10721   2.505   0.856   4.123  0.1383 -0.1969 -0.1418
    1SOL    HW210722   2.583   0.880   4.173 -0.2191 -0.6759  0.6732
    1SOL    HW310723   2.464   0.787   4.176 -0.7294 -0.0765 -0.6533
    1SOL    MW410724   2.510   0.850   4.137 -0.0234 -0.2442 -0.1016
    1SOL     OW10725   2.348   2.457   4.763  0.4610 -0.1005 -0.1230
    1SOL    HW210726   2.274   2.397   4.763 -0.7267  1.3101  0.9417
    1SOL    HW310727   2.323   2.526   4.701  0.4127  0.8920  0.9683
    1SOL    MW410728   2.335   2.459   4.755  0.2983  0.2167  0.1612
    1SOL     OW10729   1.901   1.444   4.756 -0.0173  0.1185 -0.2350
    1SOL    HW210730   1.848   1.501   4.813 -0.2261 -1.3329  1.0494
    1SOL    HW310731   1.990   1.451   4.791  0.0250 -0.0638 -0.3060
    1SOL    MW410732   1.906   1.453   4.768 -0.0392 -0.0970 -0.0749
    1SOL     OW10733   0.283   0.129   4.088 -0.2786  0.1698  0.4010
    1SOL    HW210734   0.272   0.194   4.018  0.9983 -0.1727 -0.1217
    1SOL    HW310735   0.294   0.046   4.043 -1.6428 -0.4070  1.0671
    1SOL    MW410736   0.283   0.127   4.073 -0.2902  0.0486  0.4201
    1SOL     OW10737   2.710   1.139   4.476  0.1105 -0.2997  0.0890
    1SOL    HW210738   2.678   1.050   4.493 -0.0706 -0.8411 -2.8490
    1SOL    HW310739   2.630   1.191   4.462  0.2751 -0.0142  0.1995
    1SOL    MW410740   2.695   1.134   4.477  0.1082 -0.3337 -0.2842
    1SOL     OW10741   1.255   0.422   3.575 -0.2523  0.4514  0.0290
    1SOL    HW210742   1.325   0.463   3.524 -0.3602 -1.2388 -1.5365
    1SOL    HW310743   1.179   0.425   3.517 -0.3327 -1.6533  0.0029
    1SOL    MW410744   1.254   0.428   3.560 -0.2772 -0.0492 -0.1810
    1SOL     OW10745   2.037   2.122   4.241 -0.0961  0.0433 -0.1672
    1SOL    HW210746   2.111   2.088   4.191 -1.3716 -1.7733 -0.8632
    1SOL    HW310747   2.045   2.080   4.327  0.6838  1.2352  0.3507
    1SOL    MW410748   2.048   2.112   4.246 -0.1616 -0.0391 -0.1912
    1SOL     OW10749   4.195   3.832   2.878 -0.2330  0.2709 -0.1100
    1SOL    HW210750   4.266   3.809   2.819 -1.4312 -0.5924 -1.2328
    1SOL    HW310751   4.165   3.918   2.848 -0.9427 -0.2350 -0.8772
    1SOL    MW410752   4.201   3.840   2.866 -0.4840  0.0904 -0.3593
    1SOL     OW10753   3.930   3.189   4.419 -0.6015  0.0657 -0.4228
    1SOL    HW210754   3.994   3.133   4.462 -2.2196 -1.4072  0.0896
    1SOL    HW310755   3.974   3.274   4.412  1.4295 -0.9295 -0.1583
    1SOL    MW410756   3.945   3.193   4.423 -0.5469 -0.2599 -0.3200
    1SOL     OW10757   3.513   0.233   4.047  0.2869  0.1601 -0.0349
    1SOL    HW210758   3.474   0.317   4.022 -1.3651 -0.1365  1.4271
    1SOL    HW310759   3.605   0.241   4.023 -0.7040  0.7260 -4.0127
    1SOL    MW410760   3.520   0.245   4.040 -0.0618  0.1956 -0.3662
    1SOL     OW10761   2.506   1.398   3.718  0.4613 -0.6759 -0.3857
    1SOL    HW210762   2.559   1.371   3.643  0.3866 -0.2236 -0.6043
    1SOL    HW310763   2.463   1.479   3.689  1.4206  0.1998  0.5998
    1SOL    MW410764   2.507   1.405   3.704  0.5782 -0.5007 -0.2844
    1SOL     OW10765   2.650   1.519   4.753  0.1056 -0.3064 -0.7591
    1SOL    HW210766   2.727   1.575   4.764  0.8145 -1.1182 -1.4387
    1SOL    HW310767   2.607   1.553   4.674 -0.4060  0.3342 -0.2113
    1SOL    MW410768   2.654   1.531   4.744  0.1316 -0.3290 -0.7768
    1SOL     OW10769   1.739   3.990   4.254  0.2029 -0.2177  0.0427
    1SOL    HW210770   1.691   4.064   4.215  2.4584  0.9630 -0.5686
    1SOL    HW310771   1.689   3.913   4.228 -1.9526  1.0432  0.3141
    1SOL    MW410772   1.726   3.989   4.245  0.2161  0.1044 -0.0019
    1SOL     OW10773   3.832   2.966   3.717  0.3644 -0.3762 -0.5760
    1SOL    HW210774   3.852   2.879   3.753  1.3622 -0.2059 -0.7106
    1SOL    HW310775   3.745   2.955   3.677 -0.1352 -0.9353  0.6151
    1SOL    MW410776   3.823   2.953   3.716  0.4303 -0.4277 -0.4368
    1SOL     OW10777   2.293   0.397   4.486 -0.3196 -0.3624 -0.4475
    1SOL    HW210778   2.333   0.464   4.541 -3.4075  0.9852  0.2398
    1SOL    HW310779   2.257   0.445   4.412 -0.5826 -1.5528 -1.0989
    1SOL    MW410780   2.294   0.412   4.484 -0.7617 -0.3417 -0.4425
    1SOL     OW10781   1.755   3.562   4.812  0.0172  0.4597 -0.0728
    1SOL    HW210782   1.806   3.640   4.790 -1.4395  1.3214 -0.5050
    1SOL    HW310783   1.700   3.589   4.885 -1.0561  0.0902 -0.7256
    1SOL    MW410784   1.754   3.576   4.818 -0.3167  0.5248 -0.2165
    1SOL     OW10785   2.787   3.132   3.878  0.2306  0.0808  0.0147
    1SOL    HW210786   2.699   3.119   3.841  0.7595  1.3207 -1.7469
    1SOL    HW310787   2.832   3.186   3.814  1.5871  1.3355  1.9733
    1SOL    MW410788   2.781   3.137   3.865  0.4795  0.4098  0.0408
    1SOL     OW10789   2.207   3.375   4.187  0.3298 -0.4812  0.0509
    1SOL    HW210790   2.163   3.456   4.164  0.7730 -0.2376  0.0592
    1SOL    HW310791   2.239   3.340   4.104 -1.1248 -1.3957 -0.1442
    1SOL    MW410792   2.206   3.381   4.173  0.1965 -0.5698  0.0262
    1SOL     OW10793   4.249   2.641   4.069  0.3594 -0.0221 -0.2129
    1SOL    HW210794   4.188   2.715   4.061 -0.9758 -1.0226  0.4125
    1SOL    HW310795   4.194   2.568   4.097  2.2142 -0.4443  2.5113
    1SOL    MW410796   4.234   2.641   4.072  0.4282 -0.2100  0.2289
    1SOL     OW10797   4.420   0.161   3.193  0.1104 -0.2606 -0.6625
    1SOL    HW210798   4.433   0.256   3.189  0.1258 -0.1347  1.7295
    1SOL    HW310799   4.339   0.146   3.145 -0.7577  1.1838  0.2975
    1SOL    MW410800   4.411   0.172   3.186 -0.0019 -0.0534 -0.2205
    1SOL     OW10801   2.928   1.551   4.492 -0.2755  0.0565  0.5269
    1SOL    HW210802   2.941   1.594   4.576  1.2454  0.5711  0.0516
    1SOL    HW310803   2.954   1.617   4.427 -1.9773 -0.1305 -0.3781
    1SOL    MW410804   2.933   1.566   4.494 -0.2997  0.0999  0.3452
    1SOL     OW10805   3.768   0.528   4.246  0.1695 -0.2020  0.3252
    1SOL    HW210806   3.739   0.592   4.181 -1.5422 -0.4831  0.7784
    1SOL    HW310807   3.688   0.480   4.269  0.6380  0.2235  2.9855
    1SOL    MW410808   3.753   0.530   4.240  0.0052 -0.1830  0.7367
    1SOL     OW10809   1.168   3.434   4.375 -0.4453 -0.3797 -0.1206
    1SOL    HW210810   1.189   3.355   4.326 -0.4183 -1.0453  0.9650
    1SOL    HW310811   1.082   3.461   4.341 -1.0550 -1.5991  0.4155
    1SOL    MW410812   1.159   3.427   4.364 -0.5221 -0.6285  0.0930
    1SOL     OW10813   4.108   3.790   4.151 -0.3297  0.4221 -0.3437
    1SOL    HW210814   4.077   3.769   4.239  0.4173  0.1019 -0.1499
    1SOL    HW310815   4.094   3.884   4.142  1.9015  0.9387  1.0659
    1SOL    MW410816   4.102   3.800   4.162  0.0629  0.4480 -0.1321
    1SOL     OW10817   0.009   3.355   3.938  0.6774 -0.0932  0.1931
    1SOL    HW210818  -0.039   3.430   3.903  1.0916  0.4116  0.7022
    1SOL    HW310819   0.072   3.393   3.999  0.3659 -0.9163  1.0317
    1SOL    MW410820   0.011   3.370   3.941  0.6909 -0.1352  0.3710
    1SOL     OW10821   1.438   2.910   3.911 -0.4298 -0.6423 -0.7681
    1SOL    HW210822   1.497   2.930   3.983 -0.8599  0.7106 -0.7706
    1SOL    HW310823   1.368   2.857   3.951 -0.9651  0.5813 -0.0588
    1SOL    MW410824   1.436   2.906   3.926 -0.5573 -0.3026 -0.6747
    1SOL     OW10825   2.126   0.711   4.746  0.0946 -0.0348  0.1265
    1SOL    HW210826   2.109   0.684   4.836 -0.3126 -1.9078 -0.4849
    1SOL    HW310827   2.067   0.657   4.693  2.2868 -0.9556 -1.4734
    1SOL    MW410828   2.116   0.701   4.751  0.3302 -0.4033 -0.1655
    1SOL     OW10829   2.718   3.857   3.977  0.1654 -0.5224 -0.2066
    1SOL    HW210830   2.787   3.796   3.951  0.4019 -0.1102 -0.5393
    1SOL    HW310831   2.643   3.801   3.997  0.7597 -1.0074  0.6879
    1SOL    MW410832   2.717   3.841   3.977  0.2749 -0.5317 -0.1323
    1SOL     OW10833   1.597   3.858   3.652  0.4255 -0.2735 -0.0112
    1SOL    HW210834   1.608   3.836   3.744  1.1927 -0.2257 -0.0911
    1SOL    HW310835   1.648   3.792   3.605 -2.9533 -2.5928 -0.6093
    1SOL    MW410836   1.605   3.847   3.658  0.0809 -0.5732 -0.1006
    1SOL     OW10837   4.331   2.210   4.512 -0.0553 -0.3700 -0.4635
    1SOL    HW210838   4.315   2.170   4.426  1.7922 -1.4104 -0.3445
    1SOL    HW310839   4.398   2.155   4.552 -1.4682 -0.3787  2.0047
    1SOL    MW410840   4.338   2.198   4.506  0.0024 -0.5085 -0.1225
    1SOL     OW10841   2.360   2.631   3.292 -0.1746 -0.2711 -0.0388
    1SOL    HW210842   2.425   2.695   3.262 -0.2334 -0.2163 -0.0485
    1SOL    HW310843   2.399   2.546   3.271  0.5508 -0.2785  1.2903
    1SOL    MW410844   2.374   2.628   3.285 -0.0865 -0.2649  0.1354
    1SOL     OW10845   1.687   0.942   4.011  0.3089 -0.7053  0.5093
    1SOL    HW210846   1.669   1.030   4.044 -0.8359 -0.6027 -0.3524
    1SOL    HW310847   1.724   0.956   3.924 -0.6210 -1.0776  0.0368
    1SOL    MW410848   1.689   0.955   4.004  0.0352 -0.7409  0.3333
    1SOL     OW10849   2.287   1.266   4.633 -0.9038 -0.2092 -0.5419
    1SOL    HW210850   2.319   1.283   4.722 -0.9194 -1.6013 -0.2710
    1SOL    HW310851   2.367   1.258   4.581 -0.8736 -0.5193 -0.4481
    1SOL    MW410852   2.302   1.267   4.638 -0.9017 -0.4338 -0.4940
    1SOL     OW10853   3.138   2.984   4.410  0.3498 -0.1324  0.2103
    1SOL    HW210854   3.217   3.028   4.382  0.8168 -0.7200  0.5769
    1SOL    HW310855   3.108   3.033   4.487  0.1533  0.3095 -0.1509
    1SOL    MW410856   3.144   2.996   4.417  0.3855 -0.1516  0.2112
    1SOL     OW10857   3.491   2.643   3.726 -0.2409  0.0733  0.2741
    1SOL    HW210858   3.451   2.724   3.757 -1.8380 -0.5247 -0.1468
    1SOL    HW310859   3.500   2.589   3.805  1.5303  0.9243  0.6801
    1SOL    MW410860   3.487   2.646   3.740 -0.2177  0.1068  0.2723
    1SOL     OW10861   3.127   3.951   4.432  0.1258  0.4016  0.0121
    1SOL    HW210862   3.033   3.938   4.420 -0.1207  0.6763  1.5736
    1SOL    HW310863   3.137   4.046   4.439  0.4706  0.3530  0.1720
    1SOL    MW410864   3.116   3.961   4.432  0.1388  0.4315  0.2389
    1SOL     OW10865   2.933   1.242   3.552  0.0647 -0.1859  0.1687
    1SOL    HW210866   2.964   1.308   3.614 -0.6471 -0.9483  1.3489
    1SOL    HW310867   2.980   1.262   3.470  0.0421  1.6171  0.5725
    1SOL    MW410868   2.943   1.254   3.549 -0.0324 -0.0486  0.3777
    1SOL     OW10869   2.195   2.211   3.706  0.2697 -0.1436  0.0607
    1SOL    HW210870   2.117   2.177   3.663  0.4980  0.5522 -0.9187
    1SOL    HW310871   2.162   2.262   3.780 -0.1947  0.1840 -0.3767
    1SOL    MW410872   2.181   2.213   3.710  0.2384 -0.0086 -0.1264
    1SOL     OW10873   0.719   1.346   4.267  0.0720  0.5353 -0.0701
    1SOL    HW210874   0.697   1.332   4.359  0.8852 -0.2372  0.0040
    1SOL    HW310875   0.746   1.260   4.235  1.1603  1.0927 -0.6583
    1SOL    MW410876   0.720   1.333   4.275  0.3228  0.5069 -0.1383
    1SOL     OW10877   4.149   0.497   3.069  0.1585 -0.7694  0.3360
    1SOL    HW210878   4.226   0.458   3.028 -0.0164 -1.2242  0.4423
    1SOL    HW310879   4.171   0.590   3.078  0.1921 -0.6634 -0.7950
    1SOL    MW410880   4.162   0.504   3.065  0.1402 -0.8154  0.2007
    1SOL     OW10881   2.115   3.756   4.389  0.3249 -0.1417  1.0899
    1SOL    HW210882   2.052   3.825   4.412  0.2701 -0.2754  1.3365
    1SOL    HW310883   2.200   3.790   4.418  0.0784 -0.9073  2.7848
    1SOL    MW410884   2.118   3.770   4.396  0.2847 -0.2604  1.3466
    1SOL     OW10885   3.737   4.430   4.148 -0.0742  0.1161  0.0831
    1SOL    HW210886   3.723   4.465   4.236 -0.5259 -0.9307  0.4374
    1SOL    HW310887   3.786   4.498   4.102 -0.8856  1.1837  0.7744
    1SOL    MW410888   3.741   4.443   4.154 -0.2408  0.1187  0.2208
    1SOL     OW10889   0.386   3.109   3.767 -0.1139 -0.3081 -0.3718
    1SOL    HW210890   0.308   3.071   3.806  1.1500 -2.6722 -0.0682
    1SOL    HW310891   0.410   3.049   3.696  1.5636  0.2449 -0.3054
    1SOL    MW410892   0.379   3.096   3.763  0.2742 -0.5469 -0.3231
    1SOL     OW10893   2.915   0.181   4.323 -0.0914  0.1348  0.2273
    1SOL    HW210894   2.914   0.258   4.266 -0.9597  1.4994  2.0362
    1SOL    HW310895   3.001   0.142   4.309  0.3444  1.4069 -0.7442
    1SOL    MW410896   2.926   0.186   4.313 -0.1485  0.4827  0.3376
    1SOL     OW10897   3.142   2.836   3.331 -0.2061  0.2524 -0.2938
    1SOL    HW210898   3.116   2.813   3.421  0.3996 -2.0293 -0.6638
    1SOL    HW310899   3.231   2.869   3.340  0.3743 -1.2762 -0.1822
    1SOL    MW410900   3.150   2.837   3.344 -0.0494 -0.2506 -0.3278
    1SOL     OW10901   3.888   0.844   4.010 -0.4835 -0.0547 -0.1628
    1SOL    HW210902   3.926   0.917   3.961 -3.5491  1.1648 -0.8416
    1SOL    HW310903   3.941   0.838   4.089  1.8589  0.7620 -1.6244
    1SOL    MW410904   3.900   0.853   4.014 -0.5789  0.2140 -0.4454
    1SOL     OW10905   2.092   2.059   4.531  0.2620  0.4466 -0.2785
    1SOL    HW210906   2.115   2.109   4.609 -2.6573 -0.8413  1.4873
    1SOL    HW310907   2.031   1.992   4.562  0.1539 -1.0142 -3.4266
    1SOL    MW410908   2.087   2.057   4.546 -0.1378  0.0839 -0.4606
    1SOL     OW10909   1.137   4.469   4.253  0.2109 -0.9812  0.1356
    1SOL    HW210910   1.165   4.552   4.215 -2.2233  0.2076  0.8273
    1SOL    HW310911   1.188   4.460   4.333 -0.7630  0.7678  0.9874
    1SOL    MW410912   1.147   4.479   4.258 -0.2388 -0.5937  0.3390
    1SOL     OW10913   3.254   2.614   3.563  0.0326  0.1819  0.0756
    1SOL    HW210914   3.224   2.543   3.620 -1.9523  1.9314  1.2581
    1SOL    HW310915   3.341   2.636   3.596 -0.5682  0.2987  1.6269
    1SOL    MW410916   3.262   2.608   3.575 -0.3088  0.4280  0.4365
    1SOL     OW10917   3.793   4.461   3.043 -0.6022 -0.0579 -0.2438
    1SOL    HW210918   3.743   4.402   3.099 -0.1165  0.8043  1.1215
    1SOL    HW310919   3.789   4.545   3.087  1.5284  0.1662 -0.4406
    1SOL    MW410920   3.786   4.464   3.056 -0.2570  0.0858 -0.0894
    1SOL     OW10921   0.307   1.653   4.590 -0.5015 -0.4562 -0.0478
    1SOL    HW210922   0.280   1.607   4.511 -0.0373  1.1729 -1.1693
    1SOL    HW310923   0.390   1.695   4.566  0.5171 -1.3007  1.8173
    1SOL    MW410924   0.315   1.652   4.577 -0.3059 -0.3527  0.0501
    1SOL     OW10925   0.881   4.141   3.985 -0.4903  0.1157 -0.5250
    1SOL    HW210926   0.968   4.166   4.017 -0.6414 -0.6345  0.5271
    1SOL    HW310927   0.830   4.222   3.990  0.3017  0.7110 -1.7469
    1SOL    MW410928   0.886   4.155   3.990 -0.4057  0.0949 -0.5474
    1SOL     OW10929   2.713   0.358   4.663  0.2208  0.0544  0.4896
    1SOL    HW210930   2.745   0.417   4.595  0.3551  1.2136  1.5518
    1SOL    HW310931   2.679   0.415   4.731  0.7360 -1.0722  1.7160
    1SOL    MW410932   2.713   0.373   4.663  0.3064  0.0587  0.7915
    1SOL     OW10933   3.695   1.038   4.096  0.0274 -0.2827  0.2569
    1SOL    HW210934   3.613   1.028   4.047  0.2966  1.5247 -0.6185
    1SOL    HW310935   3.753   0.971   4.060 -0.4726 -0.3647 -0.4039
    1SOL    MW410936   3.692   1.028   4.085 -0.0031 -0.0551  0.0544
    1SOL     OW10937   0.701   2.395   4.378 -0.0898  0.3301  0.3173
    1SOL    HW210938   0.632   2.419   4.316  0.3617 -0.4920 -0.5049
    1SOL    HW310939   0.734   2.479   4.410 -1.5056  0.7241  0.7542
    1SOL    MW410940   0.696   2.410   4.374 -0.2171  0.2737  0.2666
    1SOL     OW10941   3.938   1.254   4.301 -0.1893 -0.2431 -0.1421
    1SOL    HW210942   3.908   1.336   4.341  1.2360  0.2460 -0.0445
    1SOL    HW310943   3.889   1.186   4.347 -1.0230  0.5252  0.1190
    1SOL    MW410944   3.928   1.256   4.313 -0.1111 -0.0772 -0.0949
    1SOL     OW10945   3.220   2.766   2.750  0.3677  0.1028 -0.1520
    1SOL    HW210946   3.150   2.829   2.735  1.8199  1.4781 -1.3757
    1SOL    HW310947   3.263   2.796   2.830  1.8944  1.5099 -1.4530
    1SOL    MW410948   3.216   2.778   2.759  0.7608  0.4699 -0.4852
    1SOL     OW10949   1.924   3.945   4.452  0.3765  0.1090  0.7826
    1SOL    HW210950   1.879   3.890   4.516 -0.0676 -0.8196 -0.3054
    1SOL    HW310951   1.858   3.961   4.384  1.6575 -1.2751 -0.8348
    1SOL    MW410952   1.909   3.940   4.452  0.4870 -0.1965  0.4258
    1SOL     OW10953   1.268   2.177   4.414 -0.2469 -0.0536 -0.0123
    1SOL    HW210954   1.209   2.147   4.345 -0.3015  0.4640 -0.1897
    1SOL    HW310955   1.336   2.227   4.368  0.2112 -0.4573  0.2140
    1SOL    MW410956   1.269   2.180   4.399 -0.1936 -0.0386 -0.0057
    1SOL     OW10957   3.638   2.269   3.252 -0.1484  0.1144  0.1364
    1SOL    HW210958   3.676   2.356   3.248  0.0899  0.1093  1.7300
    1SOL    HW310959   3.659   2.229   3.168  1.4705  0.8824  0.1544
    1SOL    MW410960   3.646   2.275   3.240  0.0968  0.2151  0.3490
    1SOL     OW10961   3.602   4.365   3.566 -0.2010  0.4128  0.2452
    1SOL    HW210962   3.652   4.431   3.613  2.1669 -0.4143 -1.0539
    1SOL    HW310963   3.561   4.313   3.635  2.9329 -0.5574  1.4503
    1SOL    MW410964   3.603   4.367   3.582  0.5250  0.1760  0.2329
    1SOL     OW10965   1.977   0.393   4.098 -0.0918 -0.0903 -0.1773
    1SOL    HW210966   1.918   0.446   4.044  0.0963  0.4991  0.1951
    1SOL    HW310967   2.047   0.369   4.038  0.9493  1.9129  0.1970
    1SOL    MW410968   1.978   0.397   4.083  0.0703  0.2518 -0.0787
    1SOL     OW10969   3.821   3.908   3.740 -0.3480 -0.1232 -0.2522
    1SOL    HW210970   3.778   3.977   3.791  1.5002 -0.8971  2.4299
    1SOL    HW310971   3.758   3.836   3.739 -0.3566 -0.1339  0.9889
    1SOL    MW410972   3.807   3.908   3.747 -0.1049 -0.2265  0.2654
    1SOL     OW10973   0.019   1.583   4.181 -0.0328  0.2947  0.3421
    1SOL    HW210974   0.006   1.580   4.086 -1.4505  0.4208  0.5322
    1SOL    HW310975  -0.032   1.510   4.215 -1.3924  1.6245  1.2108
    1SOL    MW410976   0.011   1.573   4.173 -0.3992  0.4867  0.4821
    1SOL     OW10977   2.366   1.970   4.500  0.2739 -0.0917  0.0645
    1SOL    HW210978   2.387   1.969   4.593 -0.7741 -3.2576  0.3425
    1SOL    HW310979   2.272   1.989   4.497  0.5319  1.1290 -0.4142
    1SOL    MW410980   2.356   1.972   4.512  0.1698 -0.3483  0.0381
    1SOL     OW10981   2.772   0.525   4.462  0.3892  0.1383  0.1739
    1SOL    HW210982   2.862   0.508   4.434 -0.4085 -0.5285 -2.0437
    1SOL    HW310983   2.774   0.614   4.497  1.4739  0.8703 -1.7304
    1SOL    MW410984   2.784   0.534   4.463  0.4272  0.1469 -0.3700
    1SOL     OW10985   0.736   4.615   4.122  0.4389 -0.1778  0.9828
    1SOL    HW210986   0.766   4.694   4.077 -1.4344  0.9735  1.6525
    1SOL    HW310987   0.785   4.615   4.205  1.1479 -0.2418  0.5647
    1SOL    MW410988   0.746   4.626   4.127  0.2853 -0.0339  1.0161
    1SOL     OW10989   2.384   1.635   3.649 -0.0061 -0.1795  0.0840
    1SOL    HW210990   2.308   1.674   3.692 -0.1585 -1.7747  1.3217
    1SOL    HW310991   2.378   1.663   3.558  0.0020  2.8145  0.9788
    1SOL    MW410992   2.373   1.644   3.643 -0.0250  0.0050  0.3653
    1SOL     OW10993   2.159   2.217   4.761 -0.3334  0.2534 -0.0163
    1SOL    HW210994   2.188   2.143   4.815  1.3832  0.8257 -0.1115
    1SOL    HW310995   2.064   2.220   4.773 -0.3474 -1.5651  0.4983
    1SOL    MW410996   2.150   2.208   4.770 -0.1087  0.0889  0.0391
    1SOL     OW10997   3.415   4.026   3.549  0.4268  0.1102  0.3144
    1SOL    HW210998   3.334   4.059   3.508  0.4007  0.3692  0.5721
    1SOL    HW310999   3.473   4.008   3.476 -0.4021 -1.5001  0.0398
    1SOL    MW411000   3.412   4.028   3.534  0.3140 -0.0682  0.3123
    1SOL     OW11001   3.368   0.472   4.023  0.6271 -0.1829 -0.2047
    1SOL    HW211002   3.407   0.554   4.052 -0.3329  0.5445 -0.9010
    1SOL    HW311003   3.275   0.494   4.009  0.2091 -1.5663  0.3044
    1SOL    MW411004   3.361   0.486   4.025  0.4451 -0.2694 -0.2298
    1SOL     OW11005   0.350   1.913   3.999 -0.2319  0.2188  0.6472
    1SOL    HW211006   0.307   1.928   3.915  0.7428 -0.9919 -0.0910
    1SOL    HW311007   0.283   1.934   4.065 -1.4454 -0.1608 -0.4485
    1SOL    MW411008   0.335   1.918   3.997 -0.2634  0.0089  0.4053
    1SOL     OW11009   1.600   3.353   4.526  0.4176  0.3266 -0.2904
    1SOL    HW211010   1.647   3.280   4.486  0.7124 -0.7948  2.0282
    1SOL    HW311011   1.666   3.422   4.536  0.3318  0.6293 -1.7292
    1SOL    MW411012   1.615   3.353   4.522  0.4451  0.2186 -0.1740
    1SOL     OW11013   4.410   2.061   3.367 -0.3023  0.1051  0.2875
    1SOL    HW211014   4.463   2.011   3.429 -0.3517  0.8441  0.9262
    1SOL    HW311015   4.367   2.128   3.420 -0.0482  0.9895 -0.6042
    1SOL    MW411016   4.411   2.063   3.382 -0.2751  0.3192  0.2544
    1SOL     OW11017   2.425   3.565   4.576  0.2362 -0.1668 -0.0116
    1SOL    HW211018   2.437   3.472   4.596 -0.8497 -0.6762 -1.6636
    1SOL    HW311019   2.331   3.580   4.583  0.3651  0.7301 -0.1053
    1SOL    MW411020   2.414   3.554   4.579  0.1101 -0.1156 -0.2418
    1SOL     OW11021   3.134   0.751   4.115  0.5924  0.3083 -0.2194
    1SOL    HW211022   3.180   0.742   4.031  0.2239  1.5630 -0.5663
    1SOL    HW311023   3.042   0.744   4.092  0.5420 -0.5376  0.2477
    1SOL    MW411024   3.128   0.749   4.101  0.5372  0.3622 -0.2036
    1SOL     OW11025   3.802   1.003   4.349  0.0493  0.0539  0.7811
    1SOL    HW211026   3.877   0.945   4.332 -0.3809 -0.6725  1.3160
    1SOL    HW311027   3.783   1.043   4.265  2.4175  1.9271  1.0718
    1SOL    MW411028   3.810   1.000   4.336  0.3049  0.2052  0.8907
    1SOL     OW11029   0.442   2.477   4.713 -0.4102 -0.1603  0.2626
    1SOL    HW211030   0.359   2.447   4.750 -0.5592  0.6450  0.6021
    1SOL    HW311031   0.484   2.398   4.679 -1.3093 -0.5723  0.1064
    1SOL    MW411032   0.437   2.463   4.713 -0.5485 -0.1082  0.2871
    1SOL     OW11033   0.978   1.414   4.037  0.0769  0.1434 -0.0348
    1SOL    HW211034   0.965   1.459   4.120 -2.6061 -0.7624  0.0873
    1SOL    HW311035   0.981   1.484   3.972  1.2791  0.7970  0.6983
    1SOL    MW411036   0.977   1.429   4.040 -0.1185  0.1100  0.0782
    1SOL     OW11037   2.318   2.009   3.871  0.1538 -0.4186  0.2583
    1SOL    HW211038   2.276   2.081   3.826  0.7610 -1.3023 -1.7517
    1SOL    HW311039   2.300   2.025   3.964 -1.8902  0.9049 -0.3457
    1SOL    MW411040   2.310   2.021   3.878 -0.0358 -0.3605 -0.0865
    1SOL     OW11041   2.825   4.576   4.622 -0.0672 -0.1041 -0.1394
    1SOL    HW211042   2.754   4.602   4.563 -0.5207 -2.4070 -0.6749
    1SOL    HW311043   2.877   4.655   4.634 -1.8604  1.2368 -0.9724
    1SOL    MW411044   2.822   4.590   4.615 -0.3636 -0.2308 -0.3204
    1SOL     OW11045   0.274   0.986   3.541 -0.0974 -0.2204  0.4077
    1SOL    HW211046   0.260   0.913   3.601  0.5794 -1.2659 -0.6727
    1SOL    HW311047   0.188   1.029   3.535 -0.8102 -1.6716  0.1009
    1SOL    MW411048   0.261   0.982   3.548 -0.1021 -0.5497  0.2248
    1SOL     OW11049   3.172   4.212   4.395 -0.0421 -0.1285 -0.0039
    1SOL    HW211050   3.114   4.263   4.452  0.9537 -0.1050  1.0108
    1SOL    HW311051   3.136   4.223   4.307 -1.0854  0.5584  0.5049
    1SOL    MW411052   3.160   4.220   4.391 -0.0484 -0.0353  0.1969
    1SOL     OW11053   1.560   1.342   3.456  0.1899  0.0520  0.1528
    1SOL    HW211054   1.543   1.248   3.455  0.4539  0.0053 -0.4743
    1SOL    HW311055   1.477   1.382   3.482 -0.1777 -0.3026 -0.4677
    1SOL    MW411056   1.547   1.335   3.459  0.1762 -0.0008 -0.0117
    1SOL     OW11057   1.444   4.218   4.405 -0.3241 -0.5307 -0.1852
    1SOL    HW211058   1.461   4.166   4.483  1.3873 -0.3499 -0.4228
    1SOL    HW311059   1.403   4.298   4.439  3.0794  0.8330  0.8668
    1SOL    MW411060   1.441   4.222   4.420  0.3507 -0.3262 -0.0772
    1SOL     OW11061   2.981   2.137   4.329 -0.0094  0.4550 -0.3190
    1SOL    HW211062   2.905   2.119   4.384 -0.7187  2.7718 -0.4919
    1SOL    HW311063   2.945   2.153   4.242  0.7029  1.2718 -0.4738
    1SOL    MW411064   2.966   2.137   4.324 -0.0091  0.8683 -0.3619
    1SOL     OW11065   4.265   2.987   3.911 -0.3882 -0.0974  0.3795
    1SOL    HW211066   4.249   3.052   3.842  1.3234 -0.8928 -0.8117
    1SOL    HW311067   4.316   3.035   3.977  0.6043 -0.1332 -0.3514
    1SOL    MW411068   4.270   3.002   3.911 -0.0315 -0.2072  0.1259
    1SOL     OW11069   3.769   1.951   3.186 -0.4981 -0.4660  0.1336
    1SOL    HW211070   3.768   1.857   3.201  0.1414 -0.6191 -0.7234
    1SOL    HW311071   3.749   1.989   3.271  0.3157 -1.3615  0.7415
    1SOL    MW411072   3.766   1.944   3.199 -0.3061 -0.6044  0.1006
    1SOL     OW11073   0.235   0.337   3.933  0.5845 -0.2503  0.6259
    1SOL    HW211074   0.173   0.364   3.865  0.2398 -1.2024  0.5520
    1SOL    HW311075   0.216   0.395   4.007 -0.5619 -0.6817  0.6865
    1SOL    MW411076   0.224   0.348   3.934  0.3878 -0.4328  0.6239
    1SOL     OW11077   2.978   2.611   4.453  0.4540 -0.4885  0.5336
    1SOL    HW211078   2.924   2.617   4.375  0.7630 -1.0425  0.2784
    1SOL    HW311079   2.969   2.521   4.483  0.8498 -0.4533  0.7686
    1SOL    MW411080   2.970   2.600   4.447  0.5469 -0.5572  0.5307
    1SOL     OW11081   2.765   3.469   3.355  0.3690 -0.4414 -0.1348
    1SOL    HW211082   2.842   3.524   3.370 -0.5113  0.7203  0.2220
    1SOL    HW311083   2.691   3.530   3.361 -0.5025 -1.3220 -1.6586
    1SOL    MW411084   2.765   3.484   3.358  0.1378 -0.4044 -0.2887
    1SOL     OW11085   2.591   1.224   4.808  0.1105 -0.1488  0.3829
    1SOL    HW211086   2.669   1.172   4.826  0.2331  0.1970  0.8657
    1SOL    HW311087   2.624   1.314   4.799 -0.0071 -0.2489 -1.1262
    1SOL    MW411088   2.606   1.229   4.810  0.1113 -0.1162  0.2475
    1SOL     OW11089   0.497   1.774   3.609  0.5207  0.3027 -0.2463
    1SOL    HW211090   0.455   1.739   3.688  0.3133 -1.1494 -1.0011
    1SOL    HW311091   0.429   1.770   3.542  0.8804  0.9913 -0.6498
    1SOL    MW411092   0.482   1.769   3.611  0.5408  0.2018 -0.3991
    1SOL     OW11093   3.720   1.431   2.913 -0.2163  0.2797 -0.2282
    1SOL    HW211094   3.654   1.444   2.846 -0.9955  1.6159  0.7691
    1SOL    HW311095   3.725   1.336   2.925 -0.8552  0.0972 -1.3785
    1SOL    MW411096   3.712   1.420   2.906 -0.4036  0.4320 -0.2482
    1SOL     OW11097   2.750   4.127   4.531 -0.2773  0.0100 -0.1784
    1SOL    HW211098   2.776   4.054   4.475 -0.4872  0.3792 -0.7589
    1SOL    HW311099   2.658   4.111   4.551 -0.3064  0.0921 -0.2536
    1SOL    MW411100   2.742   4.115   4.526 -0.3090  0.0701 -0.2651
    1SOL     OW11101   4.194   1.083   3.989  0.6545 -0.4959  0.1650
    1SOL    HW211102   4.244   1.149   3.941 -2.2172  0.2431 -1.8869
    1SOL    HW311103   4.142   1.038   3.923 -0.6773 -1.9171  2.1122
    1SOL    MW411104   4.194   1.086   3.974  0.0997 -0.5859  0.1514
    1SOL     OW11105   2.166   0.841   3.971 -0.2270 -0.4972 -0.1614
    1SOL    HW211106   2.079   0.848   4.012  0.4822  1.4819  1.0819
    1SOL    HW311107   2.166   0.908   3.903  0.4168 -0.3308  0.0015
    1SOL    MW411108   2.154   0.851   3.968 -0.0486 -0.2141  0.0243
    1SOL     OW11109   1.958   3.362   4.504 -0.3717  0.0509 -0.1920
    1SOL    HW211110   1.972   3.290   4.566  1.7109 -0.1033 -0.7946
    1SOL    HW311111   1.968   3.322   4.418  0.1385  0.9347 -0.5482
    1SOL    MW411112   1.961   3.347   4.501 -0.0297  0.1473 -0.3176
    1SOL     OW11113   2.554   3.294   3.532 -0.5258 -0.2239  0.1347
    1SOL    HW211114   2.517   3.293   3.444  0.9392 -1.4931 -0.4933
    1SOL    HW311115   2.649   3.297   3.519 -0.2006 -2.3827  1.6042
    1SOL    MW411116   2.562   3.294   3.519 -0.2897 -0.6764  0.2458
    1SOL     OW11117   0.115   0.172   4.296 -0.5852 -0.3117  1.0589
    1SOL    HW211118   0.123   0.092   4.347  0.3150 -0.9465 -0.0482
    1SOL    HW311119   0.174   0.159   4.221  0.4093  1.8341  1.4240
    1SOL    MW411120   0.124   0.160   4.293 -0.3352 -0.1123  0.9613
    1SOL     OW11121   1.169   0.513   4.500  0.1416  0.0591  0.3789
    1SOL    HW211122   1.193   0.497   4.409 -0.5134 -0.4892  0.2913
    1SOL    HW311123   1.170   0.426   4.540 -5.0405 -0.6025 -0.4871
    1SOL    MW411124   1.172   0.499   4.493 -0.6285 -0.1005  0.2532
    1SOL     OW11125   3.873   2.196   3.914 -0.4226  0.1291  0.2596
    1SOL    HW211126   3.951   2.204   3.969 -0.1102 -0.5184 -0.0779
    1SOL    HW311127   3.853   2.286   3.888 -1.3622  0.5888  2.4766
    1SOL    MW411128   3.881   2.209   3.918 -0.5054  0.1042  0.5076
    1SOL     OW11129   4.047   4.089   4.637  0.0458 -0.0833  0.3096
    1SOL    HW211130   4.075   4.177   4.610  0.2116 -0.0350  0.6313
    1SOL    HW311131   3.999   4.103   4.719 -0.3645 -0.2378  0.0959
    1SOL    MW411132   4.044   4.103   4.644  0.0129 -0.0973  0.3242
    1SOL     OW11133   1.976   1.818   4.240 -0.2437  0.0922  0.7964
    1SOL    HW211134   2.008   1.755   4.305  3.0688  2.1955  1.2761
    1SOL    HW311135   1.896   1.853   4.278 -0.5086 -1.6407  1.8856
    1SOL    MW411136   1.970   1.814   4.253  0.1584  0.1411  1.0037
    1SOL     OW11137   2.477   2.328   4.209 -0.3057 -0.1370 -0.2173
    1SOL    HW211138   2.440   2.396   4.265 -0.6757 -1.7348  1.4912
    1SOL    HW311139   2.571   2.348   4.207 -0.3258  0.0704  0.7693
    1SOL    MW411140   2.485   2.340   4.216 -0.3574 -0.3204  0.1383
    1SOL     OW11141   2.666   2.199   3.707 -0.1994  0.0186 -0.3226
    1SOL    HW211142   2.617   2.271   3.747  1.2072  0.9402 -0.2199
    1SOL    HW311143   2.614   2.175   3.630 -0.5595  1.3352 -0.5060
    1SOL    MW411144   2.652   2.205   3.702 -0.0613  0.3142 -0.3333
    1SOL     OW11145   2.267   2.279   3.384  0.2750 -0.0315 -0.0294
    1SOL    HW211146   2.178   2.289   3.348  0.1596 -1.1602 -0.0873
    1SOL    HW311147   2.266   2.329   3.465 -0.4431 -0.1097  0.0147
    1SOL    MW411148   2.255   2.287   3.390  0.1647 -0.1907 -0.0315
    1SOL     OW11149   4.301   4.092   4.353  0.0021 -0.7673 -0.0729
    1SOL    HW211150   4.377   4.034   4.353  0.5334 -0.0872 -0.7080
    1SOL    HW311151   4.337   4.179   4.335 -0.7640 -0.2156  0.9919
    1SOL    MW411152   4.315   4.096   4.351 -0.0291 -0.6046 -0.0162
    1SOL     OW11153   0.527   1.763   4.185  0.3549  0.9479 -0.4243
    1SOL    HW211154   0.585   1.835   4.210  0.7242  1.4453 -2.5857
    1SOL    HW311155   0.455   1.806   4.138 -0.5098  0.1085  0.1153
    1SOL    MW411156   0.525   1.778   4.182  0.2896  0.9028 -0.6385
    1SOL     OW11157   0.841   1.757   4.150  0.2155  0.8674 -0.1425
    1SOL    HW211158   0.919   1.808   4.129 -0.5802  1.3497 -2.0598
    1SOL    HW311159   0.788   1.761   4.070 -1.6674  0.3688  1.0543
    1SOL    MW411160   0.844   1.765   4.137 -0.1380  0.8652 -0.2375
    1SOL     OW11161   2.760   3.293   4.694  0.3907  0.3195 -0.1542
    1SOL    HW211162   2.762   3.218   4.634  0.7208 -0.1503  0.4359
    1SOL    HW311163   2.668   3.299   4.720  0.2921  0.3677 -0.5157
    1SOL    MW411164   2.748   3.284   4.690  0.4215  0.2642 -0.1240
    1SOL     OW11165   4.376   3.151   4.082  0.0178 -0.3899  0.1690
    1SOL    HW211166   4.403   3.232   4.038 -1.7242 -0.4859 -1.1095
    1SOL    HW311167   4.328   3.181   4.159  0.0842 -0.2181  0.1460
    1SOL    MW411168   4.373   3.166   4.086 -0.2031 -0.3798 -0.0029
    1SOL     OW11169   3.979   3.772   3.076  0.5224 -0.1423  0.1433
    1SOL    HW211170   4.044   3.776   3.006  2.1167  0.2094  1.6143
    1SOL    HW311171   4.000   3.691   3.123  0.6271  0.5440  1.2988
    1SOL    MW411172   3.991   3.762   3.073  0.7467 -0.0055  0.4900
    1SOL     OW11173   3.136   1.144   4.324  0.3700  0.0054 -0.3069
    1SOL    HW211174   3.227   1.168   4.341  0.6116 -1.0118 -0.1399
    1SOL    HW311175   3.088   1.183   4.398  0.8605 -0.6912  0.3914
    1SOL    MW411176   3.142   1.152   4.336  0.4668 -0.2207 -0.1931
    1SOL     OW11177   1.942   1.222   4.192  0.3170 -0.2797  0.5644
    1SOL    HW211178   2.006   1.290   4.175 -0.0167 -0.3805 -1.1828
    1SOL    HW311179   1.992   1.151   4.232  0.9093  0.4295  1.0978
    1SOL    MW411180   1.957   1.221   4.195  0.3511 -0.1994  0.4044
    1SOL     OW11181   1.302   1.918   4.517 -0.0981 -0.1616  0.2127
    1SOL    HW211182   1.358   1.890   4.445 -1.3241  0.4495 -1.0017
    1SOL    HW311183   1.284   2.011   4.499 -2.1551 -0.5555  0.1271
    1SOL    MW411184   1.307   1.927   4.505 -0.5311 -0.1328  0.0415
    1SOL     OW11185   0.727   1.070   4.594  0.2553  0.3386 -0.2492
    1SOL    HW211186   0.810   1.075   4.546  0.6806  0.0089  0.4541
    1SOL    HW311187   0.661   1.093   4.528  1.0321  2.2480 -0.4013
    1SOL    MW411188   0.730   1.073   4.579  0.4140  0.5471 -0.1760
    1SOL     OW11189   2.972   2.982   4.181  0.3252  0.0684 -0.3816
    1SOL    HW211190   3.047   2.976   4.241 -0.2898 -0.7772  0.3152
    1SOL    HW311191   2.925   3.060   4.210  0.6547  0.3059 -0.4868
    1SOL    MW411192   2.976   2.992   4.193  0.2878 -0.0117 -0.3037
    1SOL     OW11193   1.170   3.471   3.904 -0.5854 -0.2362 -0.1294
    1SOL    HW211194   1.125   3.475   3.988  1.8014  0.4540  1.1546
    1SOL    HW311195   1.114   3.522   3.845 -1.8982 -0.0846  1.2110
    1SOL    MW411196   1.157   3.478   3.907 -0.4438 -0.1252  0.2170
    1SOL     OW11197   0.787   2.656   4.739  0.2230 -0.1440 -0.6239
    1SOL    HW211198   0.883   2.665   4.743  0.2741 -1.2107  0.9470
    1SOL    HW311199   0.771   2.563   4.750 -1.0167 -0.0026 -1.0881
    1SOL    MW411200   0.798   2.645   4.741  0.0662 -0.2663 -0.4783
    1SOL     OW11201   2.911   2.323   3.619  0.2428 -0.5281 -0.1090
    1SOL    HW211202   2.919   2.387   3.690  1.6477 -0.7187 -0.0944
    1SOL    HW311203   2.838   2.268   3.645 -1.6067  1.6150 -0.5505
    1SOL    MW411204   2.902   2.324   3.632  0.1841 -0.2704 -0.1655
    1SOL     OW11205   3.224   3.595   3.720 -0.0060 -0.5952  0.2128
    1SOL    HW211206   3.254   3.667   3.774  0.2179 -0.4503 -0.1013
    1SOL    HW311207   3.299   3.535   3.715  0.5758  0.2209 -1.3480
    1SOL    MW411208   3.238   3.597   3.726  0.1001 -0.4687 -0.0346
    1SOL     OW11209   1.260   3.776   4.479 -0.2450 -0.0422  0.5620
    1SOL    HW211210   1.323   3.709   4.509 -1.2725 -0.8543  0.9509
    1SOL    HW311211   1.295   3.806   4.395  0.4008 -0.8396  0.5362
    1SOL    MW411212   1.273   3.771   4.472 -0.2954 -0.2544  0.6094
    1SOL     OW11213   2.715   1.824   4.251  0.0174 -0.2642  0.1707
    1SOL    HW211214   2.711   1.730   4.268  3.3959 -0.8145 -1.4775
    1SOL    HW311215   2.706   1.831   4.155  0.0409  1.0637  0.2579
    1SOL    MW411216   2.713   1.813   4.240  0.4659 -0.1618 -0.0353
    1SOL     OW11217   2.679   1.339   3.494 -0.0044 -0.2255 -0.0792
    1SOL    HW211218   2.705   1.406   3.431 -0.0010  0.8055  1.0063
    1SOL    HW311219   2.761   1.302   3.526  0.0433  0.5322  0.6822
    1SOL    MW411220   2.693   1.343   3.490  0.0024  0.0105  0.1645
    1SOL     OW11221   0.764   4.147   4.742 -0.0790 -0.1271  0.4792
    1SOL    HW211222   0.730   4.134   4.654  1.2255 -1.3176  0.1326
    1SOL    HW311223   0.697   4.200   4.786 -2.5492 -2.6677 -0.0521
    1SOL    MW411224   0.750   4.153   4.736 -0.2328 -0.6194  0.3633
    1SOL     OW11225   2.076   1.765   4.897 -0.2456 -0.0668 -0.4090
    1SOL    HW211226   2.125   1.683   4.890  0.4066  0.4013 -1.3827
    1SOL    HW311227   2.013   1.761   4.824  0.0182  0.4503 -0.6658
    1SOL    MW411228   2.074   1.754   4.886 -0.1247  0.0631 -0.5708
    1SOL     OW11229   3.750   2.378   3.593  0.0957  0.8954  0.1439
    1SOL    HW211230   3.759   2.467   3.560 -1.1447  1.9890  2.6370
    1SOL    HW311231   3.829   2.333   3.563 -0.6510  1.9682 -3.6719
    1SOL    MW411232   3.761   2.384   3.585 -0.1662  1.1814 -0.0308
    1SOL     OW11233   3.087   2.192   3.810 -0.3230  0.1139  0.1205
    1SOL    HW211234   3.027   2.202   3.736 -0.2338  0.3565  0.0786
    1SOL    HW311235   3.145   2.268   3.803  0.1359 -0.2499  0.0208
    1SOL    MW411236   3.087   2.204   3.799 -0.2506  0.0980  0.1020
    1SOL     OW11237   0.178   4.240   4.297  0.0176  0.6398 -0.2794
    1SOL    HW211238   0.235   4.203   4.363 -1.0281 -0.4697  0.0290
    1SOL    HW311239   0.237   4.273   4.229  1.0131 -1.6459 -0.5848
    1SOL    MW411240   0.193   4.239   4.297  0.0109  0.1917 -0.2789
    1SOL     OW11241   3.301   2.503   4.591  0.3786 -0.3392  0.1984
    1SOL    HW211242   3.287   2.589   4.552  0.5399 -0.1467  0.5680
    1SOL    HW311243   3.370   2.463   4.539  1.3353  0.3336  0.9379
    1SOL    MW411244   3.308   2.509   4.579  0.5260 -0.2248  0.3443
    1SOL     OW11245   4.325   2.480   4.447 -0.9346 -0.1679  0.4174
    1SOL    HW211246   4.277   2.534   4.509  0.1516  0.4519  0.7422
    1SOL    HW311247   4.325   2.393   4.487  0.0467  0.2963  1.4770
    1SOL    MW411248   4.319   2.476   4.461 -0.6614 -0.0250  0.5999
    1SOL     OW11249   3.700   3.148   3.423 -0.0095 -0.1710  0.4840
    1SOL    HW211250   3.649   3.104   3.491 -1.1546  0.6591  0.1614
    1SOL    HW311251   3.662   3.235   3.417  0.8597  0.1517 -0.4012
    1SOL    MW411252   3.688   3.154   3.432 -0.0460 -0.0191  0.3242
    1SOL     OW11253   0.482   1.458   4.686  0.5440  0.8700  0.2487
    1SOL    HW211254   0.502   1.465   4.780 -0.7590  0.2767  0.5778
    1SOL    HW311255   0.434   1.539   4.666  1.6347  1.4340 -0.1269
    1SOL    MW411256   0.478   1.470   4.696  0.5159  0.8661  0.2427
    1SOL     OW11257   0.807   1.101   4.195  0.4618  0.1500  0.4344
    1SOL    HW211258   0.734   1.040   4.206  0.2847  0.3464  0.3541
    1SOL    HW311259   0.870   1.076   4.263  0.2806  0.0384  0.5610
    1SOL    MW411260   0.806   1.090   4.206  0.4146  0.1611  0.4401
    1SOL     OW11261   4.140   3.043   4.522  0.0567 -0.1678  0.6832
    1SOL    HW211262   4.170   3.005   4.605  2.0228  0.8203  0.4294
    1SOL    HW311263   4.216   3.089   4.487 -1.0343  0.2324 -1.2175
    1SOL    MW411264   4.154   3.044   4.528  0.1721  0.0153  0.3991
    1SOL     OW11265   3.176   0.115   4.271 -0.0831 -0.1756  0.1949
    1SOL    HW211266   3.251   0.057   4.258 -0.0251  0.0201 -0.3599
    1SOL    HW311267   3.156   0.148   4.183 -0.2248  0.5134  0.4889
    1SOL    MW411268   3.183   0.112   4.258 -0.0939 -0.0589  0.1607
    1SOL     OW11269   0.660   2.889   3.302  0.3520 -0.1828 -0.3507
    1SOL    HW211270   0.724   2.908   3.233  0.4686  1.2723  0.1326
    1SOL    HW311271   0.595   2.959   3.293 -2.1507 -2.6127 -1.9741
    1SOL    MW411272   0.660   2.901   3.292  0.0371 -0.3114 -0.5012
    1SOL     OW11273   2.867   1.711   4.717 -0.4636 -0.0517 -0.2901
    1SOL    HW211274   2.794   1.760   4.678 -0.0893  1.5797  0.9746
    1SOL    HW311275   2.940   1.774   4.717 -0.2400 -0.2771  2.2533
    1SOL    MW411276   2.867   1.726   4.712 -0.3848  0.1339  0.2122
    1SOL     OW11277   4.055   2.860   4.074  0.2439  0.4866  0.2217
    1SOL    HW211278   4.112   2.921   4.026  1.4834 -0.3235  0.6194
    1SOL    HW311279   3.994   2.916   4.121 -0.8779  1.3195 -2.1213
    1SOL    MW411280   4.055   2.875   4.074  0.2599  0.4897 -0.0343
    1SOL     OW11281   3.978   2.632   3.346  0.5544 -0.1937  0.0033
    1SOL    HW211282   3.961   2.709   3.293 -0.5073  0.8413  1.7968
    1SOL    HW311283   3.987   2.665   3.435  1.7161 -1.9566  0.5706
    1SOL    MW411284   3.977   2.646   3.351  0.5677 -0.2897  0.3150
    1SOL     OW11285   1.831   4.554   3.633 -0.1256  0.2019  0.0753
    1SOL    HW211286   1.869   4.636   3.665  2.0145  0.1018 -2.0525
    1SOL    HW311287   1.794   4.576   3.548 -0.3139 -0.8382 -0.1200
    1SOL    MW411288   1.831   4.568   3.626  0.1320  0.0515 -0.2315
    1SOL     OW11289   3.490   2.275   3.626 -0.3808 -0.0023 -0.1649
    1SOL    HW211290   3.509   2.189   3.662  0.4800  1.2249  2.4526
    1SOL    HW311291   3.576   2.315   3.612 -0.7247  2.3122  3.5590
    1SOL    MW411292   3.504   2.269   3.629 -0.3126  0.4652  0.6719
    1SOL     OW11293   3.932   4.389   4.485  0.0449  0.3349 -0.1847
    1SOL    HW211294   3.977   4.462   4.442 -2.0459  1.6819 -0.1469
    1SOL    HW311295   3.839   4.410   4.478 -0.5783 -2.1080  0.2590
    1SOL    MW411296   3.926   4.401   4.479 -0.3130  0.1903 -0.1211
    1SOL     OW11297   2.564   2.446   3.794  0.2079  0.4082 -0.2062
    1SOL    HW211298   2.500   2.469   3.861  0.3317 -1.3676  0.5461
    1SOL    HW311299   2.536   2.494   3.716 -1.4867  0.4013  0.3851
    1SOL    MW411300   2.552   2.455   3.792  0.0007  0.1731 -0.0288
    1SOL     OW11301   3.214   0.765   3.836 -0.0762  0.1608 -0.4015
    1SOL    HW211302   3.302   0.761   3.799  0.2586  2.4847  0.0957
    1SOL    HW311303   3.165   0.822   3.777 -0.3387  1.5341  1.1280
    1SOL    MW411304   3.219   0.772   3.823 -0.0668  0.6486 -0.1340
    1SOL     OW11305   1.659   1.869   3.720  0.1571 -0.1159 -0.5419
    1SOL    HW211306   1.656   1.798   3.655  0.3417 -0.2019 -0.4589
    1SOL    HW311307   1.742   1.855   3.766 -0.1732 -0.3133  0.0018
    1SOL    MW411308   1.670   1.858   3.718  0.1379 -0.1532 -0.4592
    1SOL     OW11309   2.131   0.350   3.858 -0.0586  0.3234 -0.1595
    1SOL    HW211310   2.060   0.349   3.794 -0.3028 -0.4101  0.1131
    1SOL    HW311311   2.142   0.443   3.881 -2.8024  0.2397  1.8069
    1SOL    MW411312   2.123   0.362   3.853 -0.4528  0.2155  0.1361
    1SOL     OW11313   3.758   1.964   2.901  0.1690 -0.0855  0.1244
    1SOL    HW211314   3.736   2.055   2.880 -0.3238 -0.4879 -1.1122
    1SOL    HW311315   3.764   1.963   2.997 -0.1919  1.1606  0.1747
    1SOL    MW411316   3.756   1.976   2.911  0.0563  0.0257 -0.0324
    1SOL     OW11317   2.771   2.348   4.178 -0.2494 -0.9565  0.1595
    1SOL    HW211318   2.809   2.276   4.128 -1.6842 -1.1182 -0.7248
    1SOL    HW311319   2.825   2.424   4.155  1.3733 -1.7777  1.2366
    1SOL    MW411320   2.783   2.349   4.168 -0.2248 -1.0862  0.1845
    1SOL     OW11321   2.961   4.330   4.563 -0.3365  0.2015 -0.0530
    1SOL    HW211322   2.901   4.262   4.591  0.0128 -0.2499 -0.3867
    1SOL    HW311323   2.922   4.412   4.594 -0.7983 -0.1447  0.2719
    1SOL    MW411324   2.948   4.332   4.571 -0.3514  0.0958 -0.0544
    1SOL     OW11325   4.102   3.478   4.082 -0.4758  0.4279  0.0856
    1SOL    HW211326   4.071   3.465   3.993 -0.1777  2.1057 -0.2732
    1SOL    HW311327   4.193   3.506   4.072 -0.3921  0.4782  0.9279
    1SOL    MW411328   4.110   3.480   4.069 -0.4258  0.6561  0.1488
    1SOL     OW11329   0.628   4.602   2.109  0.1126 -0.0355 -0.0102
    1SOL    HW211330   0.615   4.581   2.201 -1.6789  1.3716  0.0723
    1SOL    HW311331   0.542   4.591   2.069  0.6574  0.3204 -1.3279
    1SOL    MW411332   0.615   4.598   2.116 -0.0519  0.1974 -0.1733
    1SOL     OW11333   1.425   3.554   4.605  0.3736  0.2468 -0.2257
    1SOL    HW211334   1.482   3.492   4.560  1.3101  1.7155 -1.1188
    1SOL    HW311335   1.384   3.503   4.675  2.2375 -1.0040 -0.0212
    1SOL    MW411336   1.427   3.539   4.608  0.7430  0.2754 -0.3161
    1SOL     OW11337   0.180   1.982   3.775  0.3284 -0.5117  0.2253
    1SOL    HW211338   0.118   1.945   3.713 -0.8753  2.4831 -0.4333
    1SOL    HW311339   0.244   2.027   3.721  1.2003 -0.7184  1.0597
    1SOL    MW411340   0.181   1.983   3.760  0.2846 -0.1438  0.2484
    1SOL     OW11341   1.917   0.744   3.740 -0.4043  0.0881 -0.2249
    1SOL    HW211342   2.010   0.743   3.718  0.0500  1.0051  1.5609
    1SOL    HW311343   1.887   0.831   3.717 -0.9478 -0.3680 -1.2627
    1SOL    MW411344   1.925   0.755   3.734 -0.4160  0.1490 -0.1264
    1SOL     OW11345   0.661   1.189   2.827  0.4875 -0.3748  0.5140
    1SOL    HW211346   0.630   1.101   2.809 -0.5903  0.2968 -1.0753
    1SOL    HW311347   0.692   1.221   2.742  0.4596  0.9262  0.9818
    1SOL    MW411348   0.661   1.182   2.813  0.3417 -0.1147  0.3660
    1SOL     OW11349   0.653   0.900   3.700  0.0156  0.0914 -0.3439
    1SOL    HW211350   0.594   0.973   3.718  1.4904  1.6049 -1.4499
    1SOL    HW311351   0.598   0.835   3.656 -0.9331  1.3021 -0.9778
    1SOL    MW411352   0.638   0.901   3.696  0.0850  0.4508 -0.5734
    1SOL     OW11353   1.708   0.927   3.256  0.0723  0.3675  0.3236
    1SOL    HW211354   1.623   0.930   3.213 -0.3429 -1.3535  0.9713
    1SOL    HW311355   1.759   0.866   3.202  0.1541 -0.3317  1.1757
    1SOL    MW411356   1.704   0.919   3.243  0.0285  0.0482  0.5217
    1SOL     OW11357   0.254   1.479   3.898 -0.2421 -0.2558 -0.0186
    1SOL    HW211358   0.279   1.422   3.971 -0.9058  0.9939  1.2016
    1SOL    HW311359   0.328   1.540   3.889 -0.4339 -0.0132  0.0275
    1SOL    MW411360   0.267   1.480   3.907 -0.3549 -0.0589  0.1485
    1SOL     OW11361   2.968   3.065   3.340 -0.4094 -0.0853 -0.1637
    1SOL    HW211362   2.911   3.071   3.417  1.6499  1.4495  1.3132
    1SOL    HW311363   3.023   2.989   3.357 -0.6188 -0.3261 -0.5773
    1SOL    MW411364   2.967   3.056   3.353 -0.1655  0.0856 -0.0234
    1SOL     OW11365   3.049   3.419   3.931  0.2257 -0.2324  0.5387
    1SOL    HW211366   3.123   3.441   3.874 -0.6934 -0.8446 -0.9281
    1SOL    HW311367   3.065   3.327   3.955  0.5815  0.0072  1.2443
    1SOL    MW411368   3.061   3.410   3.927  0.1514 -0.2816  0.4380
    1SOL     OW11369   1.071   2.212   4.594  0.1287  0.2180 -0.1399
    1SOL    HW211370   1.157   2.210   4.552  0.0008 -3.2909 -0.3918
    1SOL    HW311371   1.055   2.121   4.620 -2.8017  1.1043  1.3478
    1SOL    MW411372   1.080   2.199   4.592 -0.2749 -0.1283  0.0238
    1SOL     OW11373   2.868   0.899   3.815 -0.0678  0.4691 -0.1755
    1SOL    HW211374   2.776   0.920   3.800  0.2256  0.8408 -1.4669
    1SOL    HW311375   2.877   0.809   3.786 -0.0928  0.3237  0.2618
    1SOL    MW411376   2.857   0.890   3.809 -0.0327  0.4989 -0.2882
    1SOL     OW11377   3.023   3.372   4.795  0.6917 -0.1503  0.0241
    1SOL    HW211378   2.935   3.348   4.767  0.7670  0.3009 -0.6085
    1SOL    HW311379   3.014   3.394   4.888 -0.3615  2.3717 -0.6192
    1SOL    MW411380   3.010   3.372   4.803  0.5627  0.2420 -0.1445
    1SOL     OW11381   3.851   1.189   3.693  0.0715 -0.9205  0.0752
    1SOL    HW211382   3.771   1.169   3.644 -0.2498 -1.6871  0.8947
    1SOL    HW311383   3.819   1.215   3.780  0.6776 -0.4105  0.1480
    1SOL    MW411384   3.836   1.190   3.698  0.1092 -0.9544  0.1934
    1SOL     OW11385   3.084   4.235   4.118 -0.0565 -0.2307 -0.2005
    1SOL    HW211386   3.018   4.294   4.081 -1.4419  0.2189  2.8323
    1SOL    HW311387   3.061   4.149   4.083 -0.7517  0.3105 -1.1059
    1SOL    MW411388   3.072   4.232   4.108 -0.3309 -0.0997  0.0801
    1SOL     OW11389   0.701   3.532   4.430 -0.1351  0.5010 -0.4519
    1SOL    HW211390   0.768   3.580   4.381 -0.7317  2.8186  0.9340
    1SOL    HW311391   0.618   3.573   4.405 -0.7637 -0.5200 -0.0699
    1SOL    MW411392   0.699   3.544   4.420 -0.2968  0.6719 -0.2184
    1SOL     OW11393   3.845   2.516   4.359  0.0245  0.4378  0.2417
    1SOL    HW211394   3.895   2.598   4.360 -0.5737  0.8519 -1.7330
    1SOL    HW311395   3.905   2.451   4.396  1.3544  1.3015 -0.3484
    1SOL    MW411396   3.860   2.518   4.364  0.1211  0.6063 -0.0973
    1SOL     OW11397   3.813   1.498   4.408 -0.0196 -0.0244 -0.1317
    1SOL    HW211398   3.732   1.450   4.395  0.7337 -1.4171  0.2515
    1SOL    HW311399   3.789   1.590   4.394 -1.1388 -0.6387 -2.4096
    1SOL    MW411400   3.799   1.504   4.405 -0.0677 -0.2892 -0.3819
    1SOL     OW11401   1.815   3.798   4.673 -0.7989 -0.0625 -1.0847
    1SOL    HW211402   1.721   3.804   4.694 -0.7301  1.0971 -1.0747
    1SOL    HW311403   1.856   3.864   4.729  0.2580 -1.7577  0.1837
    1SOL    MW411404   1.808   3.807   4.683 -0.6503 -0.1333 -0.9160
    1SOL     OW11405   2.798   2.757   4.223 -0.1088 -0.2967 -0.1096
    1SOL    HW211406   2.723   2.805   4.258  0.4598  0.9898 -0.6268
    1SOL    HW311407   2.873   2.815   4.237  0.5184 -0.8476 -1.1149
    1SOL    MW411408   2.798   2.771   4.229  0.0491 -0.1996 -0.3104
    1SOL     OW11409   3.467   4.254   4.400 -0.1312 -0.1129 -0.3614
    1SOL    HW211410   3.376   4.263   4.430  0.0997 -0.1982  0.3598
    1SOL    HW311411   3.499   4.175   4.443  0.6048  0.4733  0.1723
    1SOL    MW411412   3.459   4.244   4.410 -0.0036 -0.0472 -0.1960
    1SOL     OW11413   3.758   1.861   4.102  0.0320 -0.2049  0.1385
    1SOL    HW211414   3.732   1.953   4.099 -0.2243 -0.3117 -1.4892
    1SOL    HW311415   3.690   1.815   4.053  0.2896 -1.2332  0.7314
    1SOL    MW411416   3.746   1.867   4.095  0.0324 -0.3548  0.0019
    1SOL     OW11417   2.212   2.697   3.780 -0.6114  0.0698 -0.3455
    1SOL    HW211418   2.194   2.696   3.874  1.0083 -0.6457 -0.0320
    1SOL    HW311419   2.282   2.761   3.770 -1.1387  0.5332 -1.1439
    1SOL    MW411420   2.218   2.705   3.791 -0.4673  0.0365 -0.4096
    1SOL     OW11421   1.636   4.457   4.389 -0.5195 -0.1486  0.1313
    1SOL    HW211422   1.728   4.445   4.415 -0.6662 -0.8361  0.3317
    1SOL    HW311423   1.640   4.522   4.319  0.2808 -1.3570 -0.9702
    1SOL    MW411424   1.649   4.464   4.383 -0.4333 -0.3986  0.0124
    1SOL     OW11425   3.141   2.773   3.837 -0.1886 -0.2706 -0.4242
    1SOL    HW211426   3.163   2.693   3.884 -0.8093  0.3352  0.9071
    1SOL    HW311427   3.062   2.805   3.880 -0.2195  0.8012 -1.2661
    1SOL    MW411428   3.133   2.767   3.849 -0.2749 -0.0491 -0.3595
    1SOL     OW11429   3.668   4.447   4.422 -0.7333 -0.0491 -0.4607
    1SOL    HW211430   3.598   4.384   4.408 -0.3875 -0.3660 -0.7549
    1SOL    HW311431   3.623   4.531   4.431 -1.2469 -0.4532  0.7446
    1SOL    MW411432   3.653   4.450   4.421 -0.7555 -0.1445 -0.3405
    1SOL     OW11433   3.510   4.464   3.964 -0.2887 -0.2438  0.0254
    1SOL    HW211434   3.449   4.391   3.967  0.8607 -1.3019 -1.5831
    1SOL    HW311435   3.587   4.433   4.011  0.1230  0.0140 -0.4819
    1SOL    MW411436   3.512   4.451   3.971 -0.0827 -0.3495 -0.2539
    1SOL     OW11437   0.397   3.688   3.837 -0.6872 -0.3906 -0.8850
    1SOL    HW211438   0.303   3.688   3.851 -0.5222  0.1393  0.2541
    1SOL    HW311439   0.426   3.602   3.866 -0.6575 -0.1196 -0.1105
    1SOL    MW411440   0.389   3.677   3.843 -0.6615 -0.2849 -0.6323
    1SOL     OW11441   1.788   1.672   4.885 -0.2614 -0.2415 -0.3578
    1SOL    HW211442   1.861   1.674   4.948  0.6179  0.8133 -1.3887
    1SOL    HW311443   1.762   1.764   4.877 -1.8051 -0.6291  0.1028
    1SOL    MW411444   1.795   1.685   4.893 -0.3492 -0.1534 -0.4330
    1SOL     OW11445   0.964   1.144   3.958  0.4502 -0.1429  0.3674
    1SOL    HW211446   0.974   1.239   3.969 -2.5551  0.6889 -3.2457
    1SOL    HW311447   0.906   1.118   4.030  1.2096  0.7468  1.3179
    1SOL    MW411448   0.958   1.153   3.969  0.1539  0.0842  0.0165
    1SOL     OW11449   2.788   3.524   4.516  0.1325  0.2314  0.3615
    1SOL    HW211450   2.721   3.526   4.447 -0.0296 -0.7828  0.4751
    1SOL    HW311451   2.756   3.458   4.578  1.2238 -0.2550  0.4214
    1SOL    MW411452   2.775   3.515   4.515  0.2551  0.0336  0.3843
    1SOL     OW11453   1.495   2.314   4.357 -0.3063 -0.4522 -0.1434
    1SOL    HW211454   1.479   2.377   4.427 -0.1246 -0.1809 -0.3413
    1SOL    HW311455   1.559   2.253   4.392  2.1501  1.4890 -1.1289
    1SOL    MW411456   1.501   2.314   4.371  0.0417 -0.1600 -0.2999
    1SOL     OW11457   3.989   2.770   4.394  0.0330  0.0454  0.2104
    1SOL    HW211458   4.043   2.826   4.338  0.9844 -0.3899  0.6793
    1SOL    HW311459   3.939   2.832   4.447  1.6601  0.4959  1.2818
    1SOL    MW411460   3.990   2.786   4.394  0.3729  0.0472  0.4139
    1SOL     OW11461   3.468   0.748   4.096  0.8769  0.4856 -0.1683
    1SOL    HW211462   3.468   0.831   4.049 -0.2424  0.7696  0.3227
    1SOL    HW311463   3.452   0.772   4.187 -0.9363 -0.3686 -0.2330
    1SOL    MW411464   3.466   0.762   4.102  0.4900  0.4104 -0.1121
    1SOL     OW11465   1.099   4.238   4.115  0.1266  0.1324  0.1586
    1SOL    HW211466   1.145   4.177   4.173  0.2834 -0.1365 -0.2477
    1SOL    HW311467   1.122   4.325   4.149 -0.5917 -0.0427  1.1138
    1SOL    MW411468   1.108   4.241   4.127  0.0523  0.0739  0.2303
    1SOL     OW11469   0.350   3.935   4.024 -0.0113 -0.0201 -0.0235
    1SOL    HW211470   0.355   3.849   3.982 -0.3721 -0.8663  1.5900
    1SOL    HW311471   0.266   3.935   4.069  0.1506  1.0394  0.2922
    1SOL    MW411472   0.340   3.924   4.025 -0.0375  0.0081  0.2313
    1SOL     OW11473   3.306   3.545   4.399 -0.0041  0.2403  0.0400
    1SOL    HW211474   3.257   3.553   4.317  0.5028  0.0835 -0.2844
    1SOL    HW311475   3.239   3.543   4.467 -0.4559 -0.0691 -0.4046
    1SOL    MW411476   3.291   3.545   4.397  0.0029  0.1788 -0.0615
    1SOL     OW11477   2.622   2.171   4.859 -0.0215 -0.0320  0.1155
    1SOL    HW211478   2.616   2.254   4.813  1.3752  0.6787  1.1962
    1SOL    HW311479   2.716   2.152   4.864 -0.2424 -0.9246  1.1999
    1SOL    MW411480   2.633   2.179   4.853  0.1338 -0.0560  0.4015
    1SOL     OW11481   1.703   0.715   4.664 -0.5896  0.1870  0.4498
    1SOL    HW211482   1.633   0.682   4.607 -1.0435  0.9846  0.5386
    1SOL    HW311483   1.755   0.773   4.607  0.2749 -0.7668  0.2614
    1SOL    MW411484   1.701   0.719   4.649 -0.5354  0.1664  0.4368
    1SOL     OW11485   1.682   2.173   3.635  0.1673 -0.3281 -0.0957
    1SOL    HW211486   1.621   2.174   3.561  0.0706 -0.6060 -0.0195
    1SOL    HW311487   1.664   2.091   3.680 -1.2188  0.8073  1.4477
    1SOL    MW411488   1.672   2.162   3.631 -0.0283 -0.2151  0.1178
    1SOL     OW11489   2.706   3.068   4.469 -0.0750 -0.2885  0.5724
    1SOL    HW211490   2.631   3.038   4.417  0.1242  0.8889 -0.4188
    1SOL    HW311491   2.752   2.987   4.492 -1.3299 -0.9839  0.7102
    1SOL    MW411492   2.702   3.053   4.465 -0.2139 -0.2248  0.4601
    1SOL     OW11493   1.554   4.457   4.672  0.4146  0.4733  0.2138
    1SOL    HW211494   1.583   4.442   4.582  0.9363  2.6123 -0.0133
    1SOL    HW311495   1.526   4.549   4.672 -2.1640 -0.2618  1.5508
    1SOL    MW411496   1.554   4.467   4.660  0.1432  0.6590  0.3600
    1SOL     OW11497   0.786   3.852   4.735 -0.5616 -0.2213 -0.5201
    1SOL    HW211498   0.871   3.836   4.693 -0.1253 -1.8540  0.9210
    1SOL    HW311499   0.777   3.947   4.735  0.8777 -0.0657 -1.4586
    1SOL    MW411500   0.796   3.862   4.729 -0.3142 -0.4160 -0.4535
    1SOL     OW11501   0.542   1.118   4.405 -0.5272 -0.2895 -0.4743
    1SOL    HW211502   0.496   1.041   4.370 -0.7012 -1.2193  1.7580
    1SOL    HW311503   0.488   1.147   4.478  0.1646  1.2714 -0.5685
    1SOL    MW411504   0.529   1.111   4.410 -0.4589 -0.2061 -0.1922
    1SOL     OW11505   0.528   2.019   4.500  0.4502 -0.0336  0.1165
    1SOL    HW211506   0.555   1.957   4.567 -0.8662 -1.6995 -0.8411
    1SOL    HW311507   0.592   2.008   4.429 -0.0895 -0.6861 -0.2712
    1SOL    MW411508   0.540   2.009   4.500  0.2053 -0.3395 -0.0606
    1SOL     OW11509   2.997   1.743   4.310  0.4545 -0.1116 -0.1109
    1SOL    HW211510   3.050   1.819   4.334 -1.5396  0.5437  2.4663
    1SOL    HW311511   2.914   1.780   4.280  0.6579 -1.1878 -2.0693
    1SOL    MW411512   2.993   1.758   4.309  0.2184 -0.1673 -0.0291
    1SOL     OW11513   2.542   0.531   4.812 -0.0105  0.0909 -0.2904
    1SOL    HW211514   2.495   0.571   4.739 -0.3020  0.5345  0.1373
    1SOL    HW311515   2.474   0.488   4.864 -0.0169  1.0997  0.5634
    1SOL    MW411516   2.527   0.530   4.810 -0.0501  0.2825 -0.1211
    1SOL     OW11517   1.922   4.422   4.449  0.2646  0.1835  0.2779
    1SOL    HW211518   1.989   4.484   4.478  1.2664 -0.4055 -0.7404
    1SOL    HW311519   1.965   4.337   4.450 -0.5108 -0.2214 -0.2303
    1SOL    MW411520   1.936   4.419   4.453  0.2946  0.0525  0.0763
    1SOL     OW11521   1.949   2.760   4.233 -0.7321  0.1305 -0.0087
    1SOL    HW211522   2.017   2.761   4.166  0.2954 -0.7358  0.9856
    1SOL    HW311523   1.996   2.777   4.315 -1.6600 -0.7606  0.7242
    1SOL    MW411524   1.964   2.762   4.235 -0.7190 -0.1013  0.2193
    1SOL     OW11525   2.815   1.913   3.997 -0.1577  0.2710  0.2447
    1SOL    HW211526   2.867   1.882   3.923  0.2426  1.5046 -0.0150
    1SOL    HW311527   2.733   1.942   3.957 -0.5459 -0.4923  0.4873
    1SOL    MW411528   2.811   1.913   3.982 -0.1564  0.3331  0.2425
    1SOL     OW11529   4.292   3.235   4.357  0.5477 -0.5356 -0.1973
    1SOL    HW211530   4.220   3.297   4.362  0.7792 -0.2485 -0.3798
    1SOL    HW311531   4.370   3.286   4.378  0.4240 -1.3881  2.5247
    1SOL    MW411532   4.293   3.250   4.361  0.5622 -0.6101  0.1383
    1SOL     OW11533   3.739   2.214   4.345 -0.6297 -0.1824 -0.5059
    1SOL    HW211534   3.689   2.147   4.393 -2.1986 -0.6478 -2.6934
    1SOL    HW311535   3.829   2.200   4.372 -1.2809 -1.4220  1.1427
    1SOL    MW411536   3.744   2.203   4.355 -0.9227 -0.4072 -0.5765
    1SOL     OW11537   2.870   3.279   3.672  0.1460  0.0544  0.4965
    1SOL    HW211538   2.882   3.374   3.665 -0.1063 -0.0094 -0.9479
    1SOL    HW311539   2.958   3.243   3.661  0.0722  0.0696 -0.1746
    1SOL    MW411540   2.883   3.287   3.670  0.1030  0.0482  0.2172
    1SOL     OW11541   3.448   1.998   3.186 -0.4001  0.0976  0.4864
    1SOL    HW211542   3.496   1.954   3.116  0.8649  0.4524  1.1336
    1SOL    HW311543   3.501   1.985   3.264 -0.8060  1.4217  0.9980
    1SOL    MW411544   3.461   1.990   3.187 -0.2868  0.3192  0.6392
    1SOL     OW11545   0.688   4.384   3.516  0.6878 -0.4753 -0.3121
    1SOL    HW211546   0.674   4.299   3.475  0.0498  0.3223 -1.7863
    1SOL    HW311547   0.783   4.392   3.523  0.8373 -0.3757 -2.2182
    1SOL    MW411548   0.699   4.374   3.512  0.6233 -0.3562 -0.7582
    1SOL     OW11549   1.292   3.135   4.676 -0.3760 -0.1270 -0.1163
    1SOL    HW211550   1.341   3.107   4.599 -0.2038 -0.5785  0.1571
    1SOL    HW311551   1.246   3.215   4.648  0.8886  0.5646 -0.2285
    1SOL    MW411552   1.292   3.142   4.662 -0.1864 -0.0954 -0.0949
    1SOL     OW11553   1.758   0.630   4.189  0.5465 -0.1177  0.3867
    1SOL    HW211554   1.777   0.560   4.251  0.3341 -0.8272 -0.3320
    1SOL    HW311555   1.671   0.663   4.214  0.5414 -0.2820  0.5771
    1SOL    MW411556   1.749   0.625   4.200  0.5178 -0.2330  0.3171
    1NA      NA11557   2.662   3.386   2.935  0.4895  0.2055  0.0795
    1NA      NA11558   1.317   2.201   1.525 -0.3184  0.0084 -0.4166
   4.49070   4.66690  10.00000
