Average structure
   36
    1RG35     P    1   0.334  -0.078  -0.188
    1RG35   O1P    2   0.448  -0.018  -0.160
    1RG35   O2P    3   0.324  -0.194  -0.126
    1RG35   O5'    4   0.220   0.008  -0.134
    1RG35   C5'    5   0.193   0.133  -0.178
    1RG35  H5'1    6   0.163   0.129  -0.277
    1RG35  H5'2    7   0.283   0.190  -0.172
    1RG35   C4'    8   0.083   0.203  -0.103
    1RG35   H4'    9   0.080   0.300  -0.137
    1RG35   O4'   10  -0.045   0.147  -0.121
    1RG35   C1'   11  -0.117   0.160  -0.000
    1RG35   H1'   12  -0.177   0.250  -0.006
    1RG35    N9   13  -0.207   0.045   0.021
    1RG35    C8   14  -0.342   0.045   0.016
    1RG35    H8   15  -0.396   0.133  -0.004
    1RG35    N7   16  -0.397  -0.071   0.037
    1RG35    C5   17  -0.291  -0.156   0.057
    1RG35    C6   18  -0.286  -0.296   0.083
    1RG35    O6   19  -0.374  -0.378   0.094
    1RG35    N1   20  -0.161  -0.343   0.094
    1RG35    H1   21  -0.150  -0.439   0.106
    1RG35    C2   22  -0.054  -0.265   0.082
    1RG35    N2   23   0.057  -0.324   0.086
    1RG35   H21   24   0.067  -0.411   0.094
    1RG35   H22   25   0.133  -0.276   0.068
    1RG35    N3   26  -0.053  -0.137   0.058
    1RG35    C4   27  -0.175  -0.085   0.047
    1RG35   C3'   28   0.107   0.207   0.042
    1RG35   H3'   29   0.169   0.141   0.062
    1RG35   C2'   30  -0.015   0.180   0.110
    1RG35  H2'1   31  -0.004   0.097   0.163
    1RG35   O2'   32  -0.042   0.280   0.190
    1RG35  HO'2   33  -0.014   0.288   0.226
    1RG35   O3'   34   0.146   0.315   0.080
    1RG35   H3T   35   0.185   0.305   0.105
    1RG35   O3P   36   0.307  -0.084  -0.313
   0.00000   0.00000   0.00000
