Gromacs Runs On Most of All Computer Systems in water
11585
    1C      O5'    1   0.601   0.599   3.739 -0.3196  0.7350 -0.2733
    1C      H5T    2   0.671   0.597   3.805 -0.0551 -0.5185 -0.5893
    1C      C5'    3   0.498   0.529   3.807  0.4788  0.0776  0.1732
    1C     H5'1    4   0.408   0.589   3.814  1.3368  1.5587 -1.0876
    1C     H5'2    5   0.527   0.512   3.910 -1.1810  0.4126  0.6966
    1C      C4'    6   0.470   0.398   3.737  0.1223 -0.7812  0.9585
    1C      H4'    7   0.396   0.346   3.798  0.3014 -0.2777  1.6075
    1C      O4'    8   0.411   0.423   3.614 -0.0698 -0.9347 -0.5398
    1C      C1'    9   0.442   0.308   3.533  0.6510  0.0911  0.4072
    1C      H1'   10   0.349   0.255   3.514 -0.6015  1.9501  1.1717
    1C       N1   11   0.501   0.354   3.406  0.3231  0.2014  0.3851
    1C       C6   12   0.590   0.455   3.402  0.6316 -0.1821 -0.4732
    1C       H6   13   0.611   0.514   3.490 -0.0162  0.6881 -0.8845
    1C       C5   14   0.639   0.495   3.286 -0.3756 -0.5545  0.3714
    1C       H5   15   0.701   0.583   3.291  0.4184 -1.0681 -0.2316
    1C       C4   16   0.611   0.423   3.168  0.4849  0.0771  1.0151
    1C       N4   17   0.651   0.461   3.047 -0.3684  0.5208 -0.3558
    1C      H41   18   0.716   0.536   3.030 -1.1107  1.0721 -0.7837
    1C      H42   19   0.617   0.402   2.972  0.0972  0.6397 -0.6652
    1C       N3   20   0.528   0.319   3.168 -0.6385 -0.4606 -0.3027
    1C       C2   21   0.472   0.283   3.286  0.3200  0.2069 -0.3105
    1C       O2   22   0.399   0.187   3.284 -0.4866  0.4926 -0.0859
    1C      C3'   23   0.594   0.305   3.719  0.0656 -0.0343 -0.4276
    1C      H3'   24   0.679   0.366   3.689  0.3278  0.0234  0.4470
    1C      C2'   25   0.532   0.205   3.612 -0.0917 -0.5493 -0.4803
    1C     H2'1   26   0.610   0.163   3.550  0.1031  0.5799 -1.0174
    1C      O2'   27   0.442   0.118   3.683 -0.0897  0.2297 -0.2639
    1C     HO'2   28   0.480   0.122   3.771  0.4976  1.8966 -0.5826
    1C      O3'   29   0.616   0.234   3.839 -0.6140  0.1682  0.1902
    2G        P   30   0.763   0.187   3.881  0.1015 -0.0736  0.4015
    2G      O1P   31   0.757   0.134   4.018 -0.5968  0.2396  0.8279
    2G      O2P   32   0.849   0.303   3.857  0.3200 -0.3742  0.6096
    2G      O5'   33   0.814   0.077   3.792  0.7357  0.2700  0.0653
    2G      C5'   34   0.734  -0.043   3.785  0.5308 -0.4876 -1.2095
    2G     H5'1   35   0.626  -0.033   3.773  0.7036  2.5740 -0.8041
    2G     H5'2   36   0.749  -0.094   3.880 -1.6942  0.4916 -0.3018
    2G      C4'   37   0.767  -0.134   3.665 -0.0641 -0.3003 -0.3010
    2G      H4'   38   0.703  -0.222   3.680 -1.1217  0.7058  1.2859
    2G      O4'   39   0.728  -0.062   3.547 -0.8415  0.6754 -0.2082
    2G      C1'   40   0.839  -0.059   3.459  0.1487 -0.3975 -0.1355
    2G      H1'   41   0.848  -0.154   3.407  0.6887  0.3841 -1.4883
    2G       N9   42   0.839   0.060   3.373  0.4705 -0.1710 -0.2424
    2G       C8   43   0.811   0.060   3.238 -0.6818 -0.0770  0.0570
    2G       H8   44   0.767  -0.025   3.189 -1.2216 -0.9271  1.9730
    2G       N7   45   0.832   0.173   3.182 -0.0504  0.7502 -0.1339
    2G       C5   46   0.883   0.257   3.283  0.1129 -0.1473 -0.6116
    2G       C6   47   0.931   0.393   3.285  0.3049  0.4308 -0.3164
    2G       O6   48   0.943   0.482   3.193 -0.2655  0.2557  0.0251
    2G       N1   49   0.956   0.441   3.411 -0.2117  0.1831 -0.3154
    2G       H1   50   0.986   0.537   3.421 -3.7085  1.4750 -1.6464
    2G       C2   51   0.950   0.366   3.525  0.0443  0.1496 -0.0954
    2G       N2   52   0.972   0.426   3.639 -0.3942  0.1407  0.0630
    2G      H21   53   0.986   0.526   3.643 -0.5119  0.1206  1.5942
    2G      H22   54   0.940   0.381   3.724 -0.7743  0.3604  0.0385
    2G       N3   55   0.900   0.245   3.529 -0.3214 -0.0458 -0.0229
    2G       C4   56   0.873   0.193   3.403 -0.1483  0.0912 -0.0401
    2G      C3'   57   0.911  -0.170   3.665  0.4233  0.9231  0.1762
    2G      H3'   58   0.957  -0.149   3.761  0.6543  1.7465 -0.1073
    2G      C2'   59   0.955  -0.074   3.556 -0.3286  1.2506 -0.0425
    2G     H2'1   60   0.978   0.020   3.604  0.0201  1.2666 -0.2445
    2G      O2'   61   1.073  -0.113   3.486  0.0033 -0.3391  0.2531
    2G     HO'2   62   1.149  -0.143   3.536  3.3771  2.4945 -2.8876
    2G      O3'   63   0.931  -0.304   3.625  0.0123  0.2879 -0.5058
    2G      H3T   64   0.925  -0.362   3.702 -2.9798  0.5666 -0.4461
    5SOL     OW   65   1.579   2.702   1.598  0.1816  0.6525 -0.5991
    5SOL    HW2   66   1.613   2.613   1.610 -0.7992  0.1581 -1.3523
    5SOL    HW3   67   1.655   2.754   1.571  1.0894  0.3941  1.3656
    5SOL    MW4   68   1.593   2.697   1.596  0.1719  0.5534 -0.4392
    6SOL     OW   69   0.195   1.337   3.831  0.1618 -0.3728 -0.6989
    6SOL    HW2   70   0.169   1.318   3.741 -1.8498  1.3188 -0.5112
    6SOL    HW3   71   0.156   1.266   3.883 -0.6605 -0.0687 -0.8964
    6SOL    MW4   72   0.186   1.325   3.826 -0.2121 -0.1094 -0.7005
    7SOL     OW   73   2.505   0.812   0.859  0.0501  0.6276 -0.0123
    7SOL    HW2   74   2.462   0.739   0.815 -1.4716  2.0039 -0.8607
    7SOL    HW3   75   2.554   0.856   0.790 -0.5865  1.5239  0.0985
    7SOL    MW4   76   2.506   0.808   0.844 -0.2351  0.9275 -0.1097
    8SOL     OW   77   1.000   3.534   1.892  0.4244 -0.2631 -0.5817
    8SOL    HW2   78   0.934   3.597   1.922  1.4857  1.2499 -1.3297
    8SOL    HW3   79   0.989   3.533   1.796  1.5468  0.0967 -0.7239
    8SOL    MW4   80   0.990   3.542   1.883  0.7125 -0.0162 -0.6992
    9SOL     OW   81   3.718   2.172   2.368  0.5585 -0.1179 -0.3473
    9SOL    HW2   82   3.763   2.158   2.451 -0.6205 -0.4032  0.2413
    9SOL    HW3   83   3.683   2.087   2.344 -0.2026  0.2282 -0.4904
    9SOL    MW4   84   3.719   2.159   2.375  0.3028 -0.1099 -0.2885
   10SOL     OW   85   4.233   3.061   4.155  0.2834 -0.6888  0.0746
   10SOL    HW2   86   4.272   2.999   4.092 -0.3694 -1.3768  0.3405
   10SOL    HW3   87   4.287   3.140   4.147  1.2697 -1.3654 -0.1150
   10SOL    MW4   88   4.246   3.063   4.146  0.3276 -0.8688  0.0839
   11SOL     OW   89   3.176   2.621   1.706 -0.0860 -0.0143 -0.3577
   11SOL    HW2   90   3.086   2.622   1.674 -0.0323 -0.5845 -0.5283
   11SOL    HW3   91   3.229   2.605   1.628  0.0222 -1.7531  0.0514
   11SOL    MW4   92   3.171   2.619   1.692 -0.0646 -0.3190 -0.3262
   12SOL     OW   93   4.325   0.145   4.515 -0.0426  0.2527  0.2100
   12SOL    HW2   94   4.243   0.193   4.506  0.7439  1.6206  0.3015
   12SOL    HW3   95   4.303   0.073   4.575 -0.9070  1.2379  1.1016
   12SOL    MW4   96   4.311   0.142   4.522 -0.0534  0.5631  0.3395
   13SOL     OW   97   4.470   1.259   2.220  0.2124  0.4068  0.8819
   13SOL    HW2   98   4.396   1.205   2.193  1.2287 -0.8999  0.6454
   13SOL    HW3   99   4.529   1.258   2.145  1.3658 -0.1833  1.7834
   13SOL    MW4  100   4.468   1.252   2.207  0.4983  0.1565  0.9694
   14SOL     OW  101   1.062   1.462   1.025  0.6854  0.1908  0.7270
   14SOL    HW2  102   1.039   1.534   1.084 -2.6416 -0.9772  1.0106
   14SOL    HW3  103   1.081   1.504   0.941  2.3218  1.6339  1.7907
   14SOL    MW4  104   1.061   1.477   1.022  0.4624  0.2271  0.9048
   15SOL     OW  105   4.485   0.526   1.257  0.4450  0.3107 -0.3473
   15SOL    HW2  106   4.527   0.454   1.305  2.2084  1.7141  0.2781
   15SOL    HW3  107   4.491   0.601   1.317  0.9923  1.6226 -2.0078
   15SOL    MW4  108   4.492   0.527   1.272  0.7499  0.6689 -0.4839
   16SOL     OW  109   2.426   4.119   0.614 -0.0383  0.1387  0.1328
   16SOL    HW2  110   2.476   4.103   0.534 -0.4063  0.5778 -0.1876
   16SOL    HW3  111   2.349   4.063   0.606 -0.5806  0.9339 -0.2946
   16SOL    MW4  112   2.423   4.109   0.602 -0.1583  0.3014  0.0341
   17SOL     OW  113   1.853   2.273   1.086 -0.7304 -0.1525  0.0253
   17SOL    HW2  114   1.764   2.298   1.065 -0.6532 -2.5118 -3.6039
   17SOL    HW3  115   1.846   2.184   1.121  0.3542 -1.6438 -3.2972
   17SOL    MW4  116   1.841   2.264   1.087 -0.5771 -0.6604 -0.8920
   18SOL     OW  117   0.922   0.350   2.119  0.0104 -0.2317  0.4094
   18SOL    HW2  118   0.973   0.431   2.113 -0.4998  0.0350 -0.4504
   18SOL    HW3  119   0.848   0.364   2.060  0.4446 -1.7306 -0.5211
   18SOL    MW4  120   0.919   0.363   2.111  0.0003 -0.3943  0.1733
   19SOL     OW  121   3.475   1.195   3.899  0.0134  0.3476  0.0271
   19SOL    HW2  122   3.500   1.106   3.877 -0.8428  0.1348 -0.1094
   19SOL    HW3  123   3.427   1.226   3.822 -0.3204  0.6682  0.3615
   19SOL    MW4  124   3.472   1.188   3.886 -0.1435  0.3618  0.0529
   20SOL     OW  125   0.088   2.749   0.959 -0.3387  0.3129  0.7100
   20SOL    HW2  126   0.112   2.667   0.916  0.1804  0.6070  0.4384
   20SOL    HW3  127  -0.007   2.754   0.950 -0.1918  0.5741 -0.7466
   20SOL    MW4  128   0.078   2.739   0.952 -0.2508  0.3862  0.4820
   21SOL     OW  129   2.292   1.979   2.523  0.3897 -0.4600  0.4623
   21SOL    HW2  130   2.380   2.016   2.534  0.4202  0.3681 -2.0748
   21SOL    HW3  131   2.236   2.033   2.579  0.8919  1.6398 -0.9936
   21SOL    MW4  132   2.297   1.991   2.532  0.4601 -0.0737 -0.0646
   22SOL     OW  133   0.629   2.229   0.868 -0.2605  0.0628  0.4795
   22SOL    HW2  134   0.546   2.275   0.859  0.8850  2.1247  0.1504
   22SOL    HW3  135   0.650   2.199   0.780 -0.1649  0.4508  0.3676
   22SOL    MW4  136   0.621   2.231   0.855 -0.0967  0.3860  0.4213
   23SOL     OW  137   2.465   1.651   1.441  0.1614  0.0777  0.4591
   23SOL    HW2  138   2.516   1.570   1.435 -0.6164 -0.3948  0.1412
   23SOL    HW3  139   2.490   1.689   1.525 -0.1278 -0.9432  1.0171
   23SOL    MW4  140   2.475   1.645   1.451  0.0205 -0.1193  0.4907
   24SOL     OW  141   0.977   2.938   1.520  0.2716 -0.0039 -0.4269
   24SOL    HW2  142   1.065   2.932   1.558 -0.1841  0.2523  0.6630
   24SOL    HW3  143   0.985   2.891   1.437  1.9243  1.6213 -1.2286
   24SOL    MW4  144   0.990   2.931   1.514  0.4296  0.2444 -0.3887
   25SOL     OW  145   1.724   3.949   0.715  0.2043  0.0505  0.3932
   25SOL    HW2  146   1.774   3.954   0.796  0.2088 -1.5433  0.5171
   25SOL    HW3  147   1.785   3.976   0.647  0.2155  1.3388  0.9097
   25SOL    MW4  148   1.738   3.953   0.716  0.2065  0.0103  0.4777
   26SOL     OW  149   3.069   0.954   0.742 -0.4199 -0.0076 -0.3383
   26SOL    HW2  150   3.005   0.884   0.758  1.2299 -1.4491  0.0822
   26SOL    HW3  151   3.092   0.944   0.649  1.7883 -1.7473  0.3626
   26SOL    MW4  152   3.064   0.943   0.732  0.0892 -0.4274 -0.1904
   27SOL     OW  153   1.413   1.304   0.689 -0.1831  0.2346  0.1847
   27SOL    HW2  154   1.462   1.246   0.748  0.4965  1.0000  0.3694
   27SOL    HW3  155   1.478   1.334   0.625 -1.0819 -1.2794 -1.5100
   27SOL    MW4  156   1.428   1.300   0.688 -0.2120  0.1359 -0.0145
   28SOL     OW  157   4.112   4.448   3.030  0.2639  0.1493  0.5289
   28SOL    HW2  158   4.039   4.386   3.028  0.4382 -0.0305 -0.4056
   28SOL    HW3  159   4.118   4.474   3.122 -0.9845  0.1829  0.6153
   28SOL    MW4  160   4.103   4.443   3.042  0.1221  0.1307  0.4170
   29SOL     OW  161   3.270   1.192   1.635 -0.0173  0.2670  0.2943
   29SOL    HW2  162   3.346   1.133   1.634 -0.7694 -0.7287  1.3127
   29SOL    HW3  163   3.304   1.274   1.598  1.1237 -0.6760 -0.8101
   29SOL    MW4  164   3.285   1.195   1.630  0.0341  0.0113  0.2830
   30SOL     OW  165   0.511   2.135   1.851 -0.0689 -0.1114 -0.3177
   30SOL    HW2  166   0.589   2.133   1.796 -0.3928 -1.8065 -0.7742
   30SOL    HW3  167   0.514   2.219   1.896 -0.1758  1.6618 -3.4946
   30SOL    MW4  168   0.522   2.146   1.849 -0.1257 -0.1011 -0.7970
   31SOL     OW  169   0.780   1.358   1.397 -0.0569  0.4725  0.0130
   31SOL    HW2  170   0.792   1.310   1.479  1.0474 -1.3597 -1.1854
   31SOL    HW3  171   0.863   1.345   1.350 -0.8340  1.1454 -1.5715
   31SOL    MW4  172   0.793   1.350   1.402 -0.0137  0.3196 -0.3541
   32SOL     OW  173   0.462   0.413   4.381  0.8323  0.1892  0.2193
   32SOL    HW2  174   0.516   0.469   4.436 -1.1452  1.6347  0.7665
   32SOL    HW3  175   0.505   0.414   4.295  2.2917  0.3546  0.9472
   32SOL    MW4  176   0.474   0.421   4.377  0.7639  0.4017  0.3877
   33SOL     OW  177   0.297   1.538   4.248 -0.2756  0.0692  0.8168
   33SOL    HW2  178   0.287   1.536   4.153 -1.4909  0.0946  0.9371
   33SOL    HW3  179   0.209   1.519   4.282  0.4194 -1.2449  1.9284
   33SOL    MW4  180   0.284   1.535   4.240 -0.3442 -0.1010  0.9794
   34SOL     OW  181   2.717   0.196   3.274 -0.4583  0.1813 -0.0496
   34SOL    HW2  182   2.674   0.254   3.336 -0.3636 -0.5471  0.7060
   34SOL    HW3  183   2.759   0.255   3.211 -0.7639  0.9217  0.4338
   34SOL    MW4  184   2.717   0.212   3.274 -0.4861  0.1829  0.1137
   35SOL     OW  185   0.888   3.278   0.603  0.1876 -0.3175  0.1424
   35SOL    HW2  186   0.845   3.202   0.566 -2.0141  1.5226 -1.2334
   35SOL    HW3  187   0.859   3.281   0.694 -0.2394 -0.7497  0.0164
   35SOL    MW4  188   0.879   3.269   0.610 -0.1591 -0.1318 -0.0557
   36SOL     OW  189   1.418   3.863   0.729 -0.3947  0.2106 -0.1311
   36SOL    HW2  190   1.421   3.768   0.741 -2.1163 -0.1043 -1.9827
   36SOL    HW3  191   1.500   3.884   0.685 -0.9946 -0.7510 -1.7497
   36SOL    MW4  192   1.429   3.853   0.725 -0.7010  0.0422 -0.5890
   37SOL     OW  193   2.186   2.633   2.036  0.4866 -0.4135  0.3396
   37SOL    HW2  194   2.091   2.641   2.022  0.2974 -0.5007  1.5146
   37SOL    HW3  195   2.224   2.696   1.975 -0.3630  0.0326  0.2526
   37SOL    MW4  196   2.178   2.642   2.026  0.3498 -0.3662  0.4830
   38SOL     OW  197   4.433   4.044   1.716 -0.4235  0.5685 -0.3708
   38SOL    HW2  198   4.375   4.011   1.647  0.7813 -0.7066 -0.8020
   38SOL    HW3  199   4.457   4.132   1.688 -0.7227  0.4221 -1.1014
   38SOL    MW4  200   4.429   4.051   1.703 -0.3042  0.3810 -0.5239
   39SOL     OW  201   0.452   0.061   1.521 -0.3126  0.4615 -0.5946
   39SOL    HW2  202   0.444   0.065   1.617 -0.9538  1.6753 -0.6934
   39SOL    HW3  203   0.393  -0.010   1.496  0.7158 -0.6386 -0.0096
   39SOL    MW4  204   0.443   0.052   1.531 -0.2615  0.4765 -0.5304
   40SOL     OW  205   2.264   4.404   2.852 -0.0343 -0.0412  0.2015
   40SOL    HW2  206   2.172   4.412   2.878 -0.8613  0.6185 -2.7737
   40SOL    HW3  207   2.296   4.495   2.850 -0.3230  0.0382 -2.1210
   40SOL    MW4  208   2.256   4.417   2.855 -0.1812  0.0563 -0.4973
   41SOL     OW  209   2.564   1.420   4.151  0.0595 -0.0514  0.3670
   41SOL    HW2  210   2.563   1.399   4.245  1.4912  1.2846  0.6880
   41SOL    HW3  211   2.535   1.511   4.147  1.0206  0.2166 -0.4165
   41SOL    MW4  212   2.560   1.429   4.163  0.3753  0.1601  0.3061
   42SOL     OW  213   2.599   0.454   1.769  0.4005  0.6738  0.4296
   42SOL    HW2  214   2.608   0.360   1.788  0.3514  0.6228  0.1965
   42SOL    HW3  215   2.579   0.458   1.676 -1.0305  0.8277  0.7351
   42SOL    MW4  216   2.597   0.442   1.759  0.2053  0.6874  0.4392
   43SOL     OW  217   0.721   2.252   1.162  0.6546  0.6940 -0.2235
   43SOL    HW2  218   0.656   2.280   1.226 -0.0239 -0.3409 -0.4568
   43SOL    HW3  219   0.675   2.253   1.078  0.2267 -2.3755 -0.0648
   43SOL    MW4  220   0.707   2.256   1.160  0.5085  0.1526 -0.2333
   44SOL     OW  221   3.988   4.595   0.688  0.3871  0.2174 -0.5251
   44SOL    HW2  222   3.965   4.646   0.765  0.6824 -0.0378 -0.2660
   44SOL    HW3  223   3.952   4.644   0.614 -0.3600  0.1929 -0.1837
   44SOL    MW4  224   3.980   4.608   0.689  0.3276  0.1802 -0.4458
   45SOL     OW  225   1.891   1.290   0.655  0.2391  0.3678  0.4615
   45SOL    HW2  226   1.911   1.336   0.736 -0.0117 -0.4645  1.0071
   45SOL    HW3  227   1.852   1.207   0.684 -2.1397  1.1020 -0.5357
   45SOL    MW4  228   1.888   1.285   0.669 -0.1078  0.3548  0.4019
   46SOL     OW  229   1.029   4.213   3.847 -0.0170  0.8251  0.2455
   46SOL    HW2  230   1.103   4.170   3.805 -0.1756 -0.1895  0.9936
   46SOL    HW3  231   1.055   4.224   3.938 -0.4141  1.3051  0.3025
   46SOL    MW4  232   1.042   4.209   3.853 -0.0902  0.7544  0.3517
   47SOL     OW  233   3.949   0.106   1.750 -0.4179  0.3904 -0.7522
   47SOL    HW2  234   4.034   0.077   1.715 -0.1798  0.0505  0.0912
   47SOL    HW3  235   3.887   0.040   1.718 -0.4065  0.7517 -1.5407
   47SOL    MW4  236   3.952   0.093   1.741 -0.3850  0.3932 -0.7451
   48SOL     OW  237   0.142   0.836   1.873 -0.1901 -0.5859  0.6151
   48SOL    HW2  238   0.193   0.904   1.829  0.8684 -0.4321  2.0185
   48SOL    HW3  239   0.105   0.784   1.802  1.9646 -0.6986 -0.4738
   48SOL    MW4  240   0.144   0.838   1.858  0.2338 -0.5805  0.6566
   49SOL     OW  241   4.437   1.500   3.452 -0.2529 -0.1810  0.0543
   49SOL    HW2  242   4.359   1.444   3.461  0.5433 -1.1464  1.0899
   49SOL    HW3  243   4.408   1.587   3.477 -1.3649 -0.2400 -0.9814
   49SOL    MW4  244   4.423   1.504   3.456 -0.2952 -0.3163  0.0544
   50SOL     OW  245   1.428   3.347   1.938 -0.0632  0.7007 -1.3799
   50SOL    HW2  246   1.364   3.363   2.007 -0.2528 -0.8341 -1.1768
   50SOL    HW3  247   1.425   3.252   1.924  3.3383  0.3670 -0.2413
   50SOL    MW4  248   1.419   3.337   1.945  0.3605  0.4542 -1.2029
   51SOL     OW  249   1.166   0.493   1.897  0.5455 -0.2646  0.1001
   51SOL    HW2  250   1.244   0.444   1.871 -0.2824 -1.5668  0.0142
   51SOL    HW3  251   1.101   0.475   1.829  0.6605  2.1173 -0.6936
   51SOL    MW4  252   1.167   0.484   1.885  0.4513 -0.1222 -0.0159
   52SOL     OW  253   1.397   3.615   3.594 -0.3042  0.1649 -0.2405
   52SOL    HW2  254   1.325   3.552   3.582 -0.6317  0.1356  1.8120
   52SOL    HW3  255   1.405   3.624   3.688  1.7258  0.9724 -0.4845
   52SOL    MW4  256   1.388   3.608   3.605 -0.0795  0.2675 -0.0019
   53SOL     OW  257   1.962   1.024   2.984  0.3604 -0.1722 -0.4883
   53SOL    HW2  258   1.941   1.036   2.892 -0.1039 -1.5791 -0.5809
   53SOL    HW3  259   2.054   0.998   2.984 -0.2257 -2.3582 -0.7509
   53SOL    MW4  260   1.972   1.022   2.972  0.2218 -0.6462 -0.5352
   54SOL     OW  261   0.294   3.532   1.373  0.2469  0.0711  0.3730
   54SOL    HW2  262   0.225   3.467   1.359  1.1381 -0.6526 -0.7332
   54SOL    HW3  263   0.260   3.612   1.332 -0.2554 -0.0788  0.4968
   54SOL    MW4  264   0.280   3.534   1.366  0.2982 -0.0441  0.2435
   55SOL     OW  265   3.416   3.587   3.873 -0.2238 -0.1033 -0.1175
   55SOL    HW2  266   3.380   3.520   3.815  0.0653 -0.9706  0.6902
   55SOL    HW3  267   3.449   3.538   3.949 -1.7134  1.0976  1.3573
   55SOL    MW4  268   3.416   3.571   3.875 -0.3819 -0.0596  0.1841
   56SOL     OW  269   2.579   2.042   2.534  0.5204 -0.6771  0.4286
   56SOL    HW2  270   2.648   2.026   2.470 -0.6419  0.3130 -1.1071
   56SOL    HW3  271   2.582   1.967   2.592  0.9940 -2.0543 -1.3448
   56SOL    MW4  272   2.589   2.030   2.533  0.4294 -0.7279 -0.0079
   57SOL     OW  273   0.415   0.085   1.841 -0.4710 -0.0835  0.5771
   57SOL    HW2  274   0.501   0.061   1.875  0.3842  0.9910 -0.7573
   57SOL    HW3  275   0.359   0.010   1.862  1.7446 -2.6117 -2.1823
   57SOL    MW4  276   0.419   0.072   1.849 -0.0659 -0.2753  0.0370
   58SOL     OW  277   0.559   3.577   2.025 -0.4228  0.3365 -0.2950
   58SOL    HW2  278   0.650   3.588   1.999 -0.1482 -1.4353 -0.1806
   58SOL    HW3  279   0.523   3.516   1.960 -1.1690  0.0159  0.4092
   58SOL    MW4  280   0.566   3.570   2.013 -0.4851  0.0603 -0.1869
   59SOL     OW  281   4.188   0.087   1.612  0.0799 -0.0598 -0.4109
   59SOL    HW2  282   4.209   0.166   1.562 -0.8069  0.6370  0.2886
   59SOL    HW3  283   4.144   0.030   1.549  0.8408 -0.0515 -0.9519
   59SOL    MW4  284   4.185   0.090   1.597  0.0639  0.0332 -0.3901
   60SOL     OW  285   3.349   1.584   1.790  0.2114  0.4400 -0.1246
   60SOL    HW2  286   3.393   1.520   1.847 -0.6551 -1.4479 -1.5053
   60SOL    HW3  287   3.268   1.605   1.835  0.8877  1.2333  0.7413
   60SOL    MW4  288   3.344   1.578   1.804  0.1867  0.2956 -0.1925
   61SOL     OW  289   3.379   2.711   3.872 -0.3796  0.4076  0.2418
   61SOL    HW2  290   3.370   2.652   3.797  0.5507 -0.0050  0.4453
   61SOL    HW3  291   3.442   2.777   3.843 -0.7031  0.7568  0.3426
   61SOL    MW4  292   3.387   2.712   3.858 -0.2995  0.3991  0.2823
   62SOL     OW  293   4.344   2.162   0.577  0.3840 -0.2958  0.0949
   62SOL    HW2  294   4.301   2.215   0.643  0.9254 -0.8843  0.9247
   62SOL    HW3  295   4.287   2.169   0.500 -1.1087 -0.9273  1.1226
   62SOL    MW4  296   4.331   2.170   0.575  0.2589 -0.4570  0.3400
   63SOL     OW  297   3.490   2.361   1.553 -0.6319 -0.4878 -0.0330
   63SOL    HW2  298   3.558   2.296   1.535 -0.4415 -0.0735 -0.8197
   63SOL    HW3  299   3.489   2.368   1.648  0.9483  0.0485 -0.0360
   63SOL    MW4  300   3.499   2.353   1.563 -0.3982 -0.3624 -0.1371
   64SOL     OW  301   3.278   4.162   3.413  0.1973  0.3698 -0.6773
   64SOL    HW2  302   3.248   4.252   3.403 -2.0926 -0.2082  0.6623
   64SOL    HW3  303   3.232   4.114   3.344 -1.9318 -0.4942  1.2803
   64SOL    MW4  304   3.268   4.168   3.402 -0.3860  0.1798 -0.2422
   65SOL     OW  305   3.098   1.556   2.632 -0.2450 -0.4243  0.1577
   65SOL    HW2  306   3.016   1.600   2.611  0.6609  1.0502 -0.3416
   65SOL    HW3  307   3.116   1.500   2.557  0.1685  0.6759 -0.5648
   65SOL    MW4  308   3.090   1.554   2.620 -0.0710 -0.0846 -0.0038
   66SOL     OW  309   4.165   3.723   0.706  0.1502 -0.2845  0.2363
   66SOL    HW2  310   4.128   3.798   0.658 -1.1048 -0.6673  0.5837
   66SOL    HW3  311   4.091   3.664   0.718  1.1720 -1.6658 -0.1778
   66SOL    MW4  312   4.150   3.725   0.701  0.1192 -0.5171  0.2275
   67SOL     OW  313   2.894   0.739   1.921 -0.4252 -0.1773  0.0021
   67SOL    HW2  314   2.830   0.799   1.959 -0.2759  0.0646 -0.1341
   67SOL    HW3  315   2.865   0.652   1.952 -1.5069 -0.1926 -0.9995
   67SOL    MW4  316   2.881   0.735   1.930 -0.5481 -0.1473 -0.1479
   68SOL     OW  317   0.550   3.505   0.851 -0.8423 -0.4906 -0.5210
   68SOL    HW2  318   0.638   3.535   0.871 -0.0387 -2.5476 -0.8063
   68SOL    HW3  319   0.542   3.421   0.897 -2.8228 -0.1301 -0.1272
   68SOL    MW4  320   0.560   3.498   0.860 -0.9976 -0.7148 -0.5066
   69SOL     OW  321   3.251   2.989   1.452  0.0412 -0.6806  0.6793
   69SOL    HW2  322   3.193   2.926   1.408 -0.6944  1.5389 -1.6518
   69SOL    HW3  323   3.216   2.996   1.541 -1.2040 -1.9217  0.3040
   69SOL    MW4  324   3.239   2.982   1.458 -0.2201 -0.5517  0.3222
   70SOL     OW  325   0.055   4.508   0.809  0.1102 -0.5163 -0.0986
   70SOL    HW2  326   0.148   4.516   0.784 -0.5511  0.0956 -2.4738
   70SOL    HW3  327   0.015   4.460   0.736 -1.2662 -1.6863  1.3924
   70SOL    MW4  328   0.062   4.502   0.796 -0.1587 -0.5898 -0.2153
   71SOL     OW  329   4.229   1.858   3.307  0.4428 -0.2367  0.1728
   71SOL    HW2  330   4.230   1.945   3.347 -1.1545 -1.0141  1.9624
   71SOL    HW3  331   4.137   1.832   3.307  0.6890 -1.2380 -1.9337
   71SOL    MW4  332   4.217   1.866   3.312  0.2646 -0.4715  0.1314
   72SOL     OW  333   4.264   2.925   1.862  0.4520  0.0295  0.1619
   72SOL    HW2  334   4.262   3.020   1.875 -0.7711 -0.1655  1.4046
   72SOL    HW3  335   4.343   2.897   1.908  1.2531  0.5363 -0.8847
   72SOL    MW4  336   4.274   2.934   1.870  0.3963  0.0706  0.1878
   73SOL     OW  337   0.342   1.276   4.350  0.1014  0.1247  0.2394
   73SOL    HW2  338   0.317   1.366   4.329  0.7891  0.0978 -0.7139
   73SOL    HW3  339   0.401   1.250   4.279  0.7274 -0.7200  1.0582
   73SOL    MW4  340   0.347   1.284   4.338  0.2747  0.0097  0.2217
   74SOL     OW  341   3.135   2.224   3.842 -0.3190 -0.5548 -0.1921
   74SOL    HW2  342   3.073   2.189   3.906  0.0978 -1.7509 -0.4154
   74SOL    HW3  343   3.081   2.272   3.780 -1.1951 -2.6983 -1.1217
   74SOL    MW4  344   3.120   2.226   3.842 -0.3796 -0.9952 -0.3443
   75SOL     OW  345   4.234   1.416   2.787 -0.4215  0.4825  0.3082
   75SOL    HW2  346   4.276   1.380   2.709 -0.6994 -0.2804  0.5059
   75SOL    HW3  347   4.185   1.342   2.824 -2.1450  1.4423 -0.0553
   75SOL    MW4  348   4.233   1.401   2.782 -0.6862  0.5085  0.2861
   76SOL     OW  349   2.633   2.522   2.779 -0.2682  0.5275 -0.0497
   76SOL    HW2  350   2.678   2.439   2.761 -1.8147 -0.5995  1.1667
   76SOL    HW3  351   2.543   2.508   2.749 -0.9871  1.1589  1.7788
   76SOL    MW4  352   2.627   2.509   2.772 -0.5670  0.4623  0.3519
   77SOL     OW  353   4.409   0.086   1.787 -0.1981 -0.2838 -0.0110
   77SOL    HW2  354   4.396   0.101   1.881 -0.1783 -1.5654  0.1970
   77SOL    HW3  355   4.322   0.096   1.749 -0.5190 -1.4805  0.3855
   77SOL    MW4  356   4.396   0.090   1.794 -0.2375 -0.6108  0.0688
   78SOL     OW  357   4.468   3.179   2.419 -0.3808 -0.0443 -0.1009
   78SOL    HW2  358   4.554   3.185   2.378 -0.8130  1.0878 -0.8617
   78SOL    HW3  359   4.406   3.181   2.346 -1.0401 -1.0722  0.4279
   78SOL    MW4  360   4.471   3.180   2.404 -0.5245 -0.0308 -0.1316
   79SOL     OW  361   3.075   4.637   2.750  0.2029 -0.1411 -0.1874
   79SOL    HW2  362   3.111   4.661   2.835  0.8471 -0.8669 -0.2512
   79SOL    HW3  363   3.135   4.570   2.716  1.6797  2.3155 -2.5643
   79SOL    MW4  364   3.087   4.631   2.757  0.4830  0.0873 -0.5093
   80SOL     OW  365   2.760   1.356   1.918  0.0230 -0.1070  0.1167
   80SOL    HW2  366   2.673   1.347   1.959  0.3618  1.0668  1.1427
   80SOL    HW3  367   2.780   1.269   1.885 -1.1240 -0.6311  0.7595
   80SOL    MW4  368   2.751   1.344   1.919 -0.0839 -0.0211  0.3369
   81SOL     OW  369   3.404   1.727   0.925  0.1504  0.0609  0.1149
   81SOL    HW2  370   3.376   1.637   0.936  1.5665 -0.5477 -1.0784
   81SOL    HW3  371   3.325   1.775   0.900 -0.3575 -1.0705 -0.4523
   81SOL    MW4  372   3.390   1.722   0.924  0.2704 -0.1688 -0.1175
   82SOL     OW  373   2.227   1.030   4.417 -0.2834 -0.1984 -0.0127
   82SOL    HW2  374   2.145   1.009   4.462 -0.3674  0.0160 -0.0672
   82SOL    HW3  375   2.272   0.946   4.410  0.3163 -0.0102  1.6082
   82SOL    MW4  376   2.222   1.016   4.422 -0.2155 -0.1453  0.1945
   83SOL     OW  377   3.608   2.849   0.681  0.1957 -0.4034 -0.1715
   83SOL    HW2  378   3.646   2.934   0.661 -1.0014  0.6939  2.0636
   83SOL    HW3  379   3.519   2.853   0.645  0.0860 -0.6473  0.0692
   83SOL    MW4  380   3.601   2.861   0.673  0.0231 -0.2909  0.1552
   84SOL     OW  381   2.594   3.683   0.977  0.2459 -0.4604  0.2895
   84SOL    HW2  382   2.523   3.695   0.915 -0.3718 -0.9556  0.8938
   84SOL    HW3  383   2.611   3.770   1.013 -2.2079 -0.8513  2.4865
   84SOL    MW4  384   2.587   3.696   0.974 -0.1593 -0.5774  0.6591
   85SOL     OW  385   1.669   2.069   2.121  0.2664  0.4366  0.8608
   85SOL    HW2  386   1.652   2.163   2.109  1.1981  0.6955  1.4759
   85SOL    HW3  387   1.763   2.059   2.102  0.2316 -0.3177  1.0785
   85SOL    MW4  388   1.680   2.080   2.117  0.3847  0.3710  0.9706
   86SOL     OW  389   1.807   1.383   3.719 -0.1703  0.4257 -0.4019
   86SOL    HW2  390   1.870   1.323   3.679  0.9187  0.3576  1.3773
   86SOL    HW3  391   1.737   1.327   3.752  0.6223  0.1513  0.8501
   86SOL    MW4  392   1.806   1.368   3.718  0.0780  0.3804 -0.0019
   87SOL     OW  393   0.242   2.936   2.105  0.1491 -0.0867  0.0806
   87SOL    HW2  394   0.281   2.853   2.131  1.0579  0.2583 -0.1549
   87SOL    HW3  395   0.259   2.994   2.180  2.3287  0.7667 -1.0262
   87SOL    MW4  396   0.250   2.933   2.119  0.5566  0.0715 -0.0963
   88SOL     OW  397   4.261   3.869   3.278  0.1175 -0.2297 -0.3323
   88SOL    HW2  398   4.223   3.956   3.261 -2.6536 -1.1377  0.9436
   88SOL    HW3  399   4.314   3.880   3.356  1.5303  0.7683 -1.3978
   88SOL    MW4  400   4.263   3.882   3.286 -0.0615 -0.2179 -0.3045
   89SOL     OW  401   0.582   2.788   1.408  0.4081 -0.2204 -0.0178
   89SOL    HW2  402   0.604   2.743   1.489  1.9993  1.5701  0.5643
   89SOL    HW3  403   0.655   2.769   1.349 -0.2006 -0.5828 -0.6625
   89SOL    MW4  404   0.594   2.780   1.411  0.5377 -0.0317 -0.0260
   90SOL     OW  405   2.717   0.164   2.782 -0.0896  0.3819 -0.2772
   90SOL    HW2  406   2.800   0.199   2.813 -0.3754  1.0369 -0.2503
   90SOL    HW3  407   2.738   0.124   2.697  0.2541  0.5314 -0.2630
   90SOL    MW4  408   2.731   0.163   2.775 -0.0820  0.4881 -0.2718
   91SOL     OW  409   3.887   3.996   3.491  0.5208 -0.3466 -0.1527
   91SOL    HW2  410   3.821   4.022   3.555 -0.7542 -1.8971 -0.8217
   91SOL    HW3  411   3.970   4.026   3.528 -0.2249 -1.0268  2.1001
   91SOL    MW4  412   3.889   4.004   3.504  0.2542 -0.6409  0.0560
   92SOL     OW  413   3.486   3.763   2.678  0.4894 -0.3174 -0.5470
   92SOL    HW2  414   3.497   3.671   2.655  1.4758 -0.3751  0.1286
   92SOL    HW3  415   3.517   3.769   2.768 -0.2480  0.5431 -0.3392
   92SOL    MW4  416   3.491   3.751   2.687  0.5224 -0.2112 -0.4303
   93SOL     OW  417   1.770   0.243   1.910  0.0482  0.0878  0.2574
   93SOL    HW2  418   1.856   0.202   1.901  0.3853  0.4335  1.7907
   93SOL    HW3  419   1.759   0.257   2.004 -1.3071  0.8728  0.0050
   93SOL    MW4  420   1.780   0.240   1.921 -0.0862  0.2370  0.4263
   94SOL     OW  421   0.089   1.191   2.455 -0.5412  0.6984 -0.2392
   94SOL    HW2  422   0.184   1.186   2.445 -0.3001  2.3530  1.0647
   94SOL    HW3  423   0.057   1.204   2.365  0.3148 -1.5092 -0.8934
   94SOL    MW4  424   0.097   1.192   2.442 -0.3965  0.6255 -0.1538
   95SOL     OW  425   2.801   0.445   4.388  0.1627  0.0141  0.2428
   95SOL    HW2  426   2.890   0.419   4.411  0.1503 -0.3591 -0.1239
   95SOL    HW3  427   2.745   0.387   4.440  0.1317  0.9877  1.2969
   95SOL    MW4  428   2.806   0.434   4.398  0.1566  0.0933  0.3338
   96SOL     OW  429   1.466   1.213   2.829  0.7395  0.5341  0.7759
   96SOL    HW2  430   1.507   1.233   2.913  2.1099 -1.3520  0.5847
   96SOL    HW3  431   1.536   1.174   2.777 -0.9461 -1.4853 -0.0434
   96SOL    MW4  432   1.481   1.210   2.833  0.6979  0.0188  0.6425
   97SOL     OW  433   0.332   1.192   2.768  0.2191 -0.7244 -0.3643
   97SOL    HW2  434   0.245   1.231   2.757  0.9874  1.1676  0.0678
   97SOL    HW3  435   0.316   1.109   2.812 -1.3894 -0.4792 -0.4610
   97SOL    MW4  436   0.318   1.186   2.772  0.1082 -0.4424 -0.3200
   98SOL     OW  437   2.232   0.682   2.812  0.1771 -0.0694  0.1779
   98SOL    HW2  438   2.248   0.588   2.810 -0.5303 -0.1825 -0.4727
   98SOL    HW3  439   2.136   0.690   2.806  0.3233  0.7223 -1.4866
   98SOL    MW4  440   2.221   0.670   2.811  0.1030  0.0201 -0.1276
   99SOL     OW  441   2.521   2.822   0.746  0.0432  0.4027  0.3756
   99SOL    HW2  442   2.489   2.901   0.703  1.6563  1.9044  1.8357
   99SOL    HW3  443   2.469   2.816   0.826  0.2431  0.2804  0.4974
   99SOL    MW4  444   2.510   2.832   0.751  0.2825  0.5848  0.5843
  100SOL     OW  445   3.737   0.761   2.379  0.6670 -0.2981 -0.2982
  100SOL    HW2  446   3.796   0.803   2.442  1.7935 -1.7251 -0.3959
  100SOL    HW3  447   3.685   0.701   2.432  1.4131 -1.2836 -0.6731
  100SOL    MW4  448   3.738   0.759   2.394  0.9143 -0.6163 -0.3605
  101SOL     OW  449   3.410   2.025   2.183 -0.5217 -0.4583  0.1403
  101SOL    HW2  450   3.315   2.014   2.179 -0.7606  1.7695 -1.6886
  101SOL    HW3  451   3.440   2.011   2.093  0.6833  0.2392  0.4116
  101SOL    MW4  452   3.402   2.022   2.171 -0.3943 -0.0725 -0.0656
  102SOL     OW  453   0.116   2.345   0.547 -0.0512  0.1707 -0.7681
  102SOL    HW2  454   0.021   2.334   0.548 -0.1311  0.7340 -1.6860
  102SOL    HW3  455   0.130   2.439   0.533  0.6410 -0.0421 -1.5367
  102SOL    MW4  456   0.106   2.356   0.546  0.0296  0.2170 -0.9906
  103SOL     OW  457   2.142   1.035   2.221  0.0036 -0.0362 -0.2959
  103SOL    HW2  458   2.152   1.045   2.127 -1.3039  0.0870 -0.4194
  103SOL    HW3  459   2.222   0.989   2.248  1.0205  1.1287 -1.2503
  103SOL    MW4  460   2.154   1.030   2.213 -0.0343  0.1338 -0.4382
  104SOL     OW  461   4.064   2.911   3.264  0.5913  0.6554 -0.2591
  104SOL    HW2  462   4.013   2.990   3.286  0.4494 -0.6097  4.5360
  104SOL    HW3  463   4.148   2.924   3.308  0.9091 -1.4973 -0.2014
  104SOL    MW4  464   4.068   2.923   3.273  0.6146  0.2041  0.3812
  105SOL     OW  465   3.519   0.927   3.858  0.3655 -0.2579  0.6898
  105SOL    HW2  466   3.609   0.893   3.862  0.6328  0.1666 -1.4254
  105SOL    HW3  467   3.465   0.853   3.886  1.1279 -1.6565 -1.4322
  105SOL    MW4  468   3.524   0.913   3.862  0.5014 -0.3865  0.1309
  106SOL     OW  469   2.039   4.190   2.656  0.1317  0.3211 -0.0009
  106SOL    HW2  470   2.093   4.244   2.598 -1.0935  2.1369  0.5181
  106SOL    HW3  471   1.957   4.178   2.608  0.7970 -2.0764 -0.6069
  106SOL    MW4  472   2.036   4.195   2.642  0.0577  0.2446 -0.0122
  107SOL     OW  473   2.387   2.980   4.146  0.2141 -0.2277 -0.1797
  107SOL    HW2  474   2.435   2.922   4.087  0.1835 -1.0425  0.5873
  107SOL    HW3  475   2.405   2.945   4.233  0.3217  1.0077  0.3047
  107SOL    MW4  476   2.396   2.968   4.150  0.2244 -0.1721 -0.0148
  108SOL     OW  477   2.981   3.346   1.589  0.1774  0.3773 -0.1418
  108SOL    HW2  478   2.973   3.419   1.527  0.1718  0.5833  0.0965
  108SOL    HW3  479   3.075   3.337   1.603  0.1482  0.8490  0.4161
  108SOL    MW4  480   2.993   3.355   1.583  0.1729  0.4668 -0.0367
  109SOL     OW  481   0.361   2.515   2.620 -0.1686 -0.1073 -0.3283
  109SOL    HW2  482   0.429   2.574   2.588  0.4023 -0.4201  0.2855
  109SOL    HW3  483   0.314   2.566   2.687  0.4055 -0.3852  0.2920
  109SOL    MW4  484   0.364   2.530   2.625 -0.0175 -0.1853 -0.1657
  110SOL     OW  485   0.211   3.640   2.783  0.4815 -0.4462  0.5639
  110SOL    HW2  486   0.302   3.630   2.809  0.1852  0.2057  1.9114
  110SOL    HW3  487   0.206   3.729   2.747  0.2618 -0.2733  1.0177
  110SOL    MW4  488   0.222   3.651   2.781  0.4134 -0.3374  0.8016
  111SOL     OW  489   0.699   0.594   1.918 -0.0146  0.4159  0.0356
  111SOL    HW2  490   0.724   0.623   2.006  0.3173  0.1804  0.0189
  111SOL    HW3  491   0.688   0.499   1.926 -0.9907  0.5251  0.0597
  111SOL    MW4  492   0.701   0.586   1.931 -0.0995  0.3993  0.0366
  112SOL     OW  493   1.285   4.069   1.589 -0.1756 -0.1353  0.1845
  112SOL    HW2  494   1.256   4.047   1.677 -0.1928 -0.4245  0.1075
  112SOL    HW3  495   1.215   4.038   1.532  0.0182 -0.3195  0.0424
  112SOL    MW4  496   1.272   4.062   1.593 -0.1522 -0.1974  0.1556
  113SOL     OW  497   1.205   2.980   2.809  0.0316  0.4413  0.1452
  113SOL    HW2  498   1.158   3.058   2.779 -1.0699 -0.2708  0.0110
  113SOL    HW3  499   1.201   2.985   2.904  0.2010  0.6795  0.1430
  113SOL    MW4  500   1.198   2.991   2.817 -0.0914  0.3786  0.1271
  114SOL     OW  501   2.702   4.242   0.836 -0.3867  0.3394 -0.2430
  114SOL    HW2  502   2.648   4.163   0.837 -1.1139  0.8405  0.5467
  114SOL    HW3  503   2.679   4.288   0.917  1.0485  0.6813 -0.0084
  114SOL    MW4  504   2.692   4.238   0.847 -0.2935  0.4506 -0.1079
  115SOL     OW  505   0.529   4.144   2.861 -0.8123  0.5588 -0.2189
  115SOL    HW2  506   0.581   4.216   2.898  0.0711 -0.1760 -0.0129
  115SOL    HW3  507   0.531   4.159   2.767 -1.8944  1.6498 -0.0772
  115SOL    MW4  508   0.536   4.156   2.853 -0.8385  0.6061 -0.1733
  116SOL     OW  509   3.498   1.481   2.279  0.5817 -0.6727 -0.4874
  116SOL    HW2  510   3.508   1.440   2.193  4.4413  1.7342 -1.3106
  116SOL    HW3  511   3.437   1.553   2.264 -0.0450 -1.2683 -0.8253
  116SOL    MW4  512   3.491   1.485   2.266  1.0080 -0.4338 -0.6409
  117SOL     OW  513   2.144   2.210   4.417 -0.8782  0.5078  0.1365
  117SOL    HW2  514   2.075   2.253   4.468 -0.3432  3.4968 -1.5303
  117SOL    HW3  515   2.131   2.243   4.328  1.9707  0.1810 -0.4257
  117SOL    MW4  516   2.133   2.220   4.412 -0.4318  0.8590 -0.1583
  118SOL     OW  517   3.750   2.191   1.286  0.5174  0.1598 -0.2933
  118SOL    HW2  518   3.819   2.129   1.263 -0.7813 -1.1724 -0.6638
  118SOL    HW3  519   3.740   2.181   1.381  0.1541 -0.3718 -0.3844
  118SOL    MW4  520   3.758   2.181   1.296  0.2980 -0.0861 -0.3542
  119SOL     OW  521   1.035   1.570   4.465  0.3027 -0.3351 -0.1101
  119SOL    HW2  522   0.943   1.555   4.443 -0.4630  0.5253  2.3878
  119SOL    HW3  523   1.060   1.646   4.412 -0.4896 -0.3928 -0.5843
  119SOL    MW4  524   1.026   1.578   4.455  0.0972 -0.2291  0.1569
  120SOL     OW  525   3.630   1.588   1.260  0.4314 -0.0001  0.1999
  120SOL    HW2  526   3.555   1.644   1.279  0.8359  0.7924 -0.5450
  120SOL    HW3  527   3.651   1.605   1.169  1.1256 -0.6964  0.2215
  120SOL    MW4  528   3.623   1.597   1.251  0.5763  0.0126  0.1044
  121SOL     OW  529   0.535   1.041   1.223 -0.6262  0.3119  0.0255
  121SOL    HW2  530   0.579   1.118   1.188  0.2491 -0.4932 -0.6379
  121SOL    HW3  531   0.461   1.027   1.164 -0.6857  0.5241  0.0467
  121SOL    MW4  532   0.531   1.049   1.211 -0.5186  0.2337 -0.0592
  122SOL     OW  533   2.555   1.383   1.394  0.2717 -0.9651  0.4899
  122SOL    HW2  534   2.573   1.332   1.473  1.0462 -2.3462 -0.5520
  122SOL    HW3  535   2.511   1.322   1.336 -0.0026 -0.0525 -0.2665
  122SOL    MW4  536   2.552   1.369   1.397  0.3376 -1.0267  0.2527
  123SOL     OW  537   1.126   0.061   3.813  0.3242  0.6237  0.3081
  123SOL    HW2  538   1.032   0.071   3.826  0.3857  1.4849  0.0728
  123SOL    HW3  539   1.144   0.105   3.730  0.8067 -0.2407 -0.0496
  123SOL    MW4  540   1.116   0.068   3.804  0.3960  0.6233  0.2298
  124SOL     OW  541   2.739   1.976   3.572  0.1373  0.4483  0.6726
  124SOL    HW2  542   2.828   1.969   3.606  0.3779 -1.6919 -0.2858
  124SOL    HW3  543   2.684   1.972   3.650  0.8414  0.5603  1.1824
  124SOL    MW4  544   2.743   1.974   3.587  0.2618  0.1806  0.6135
  125SOL     OW  545   3.114   1.136   1.875  0.4590  0.6257  0.0662
  125SOL    HW2  546   3.170   1.142   1.952 -1.7105  0.5720  1.7123
  125SOL    HW3  547   3.174   1.141   1.801  2.6401  0.2871  1.7488
  125SOL    MW4  548   3.129   1.137   1.876  0.4606  0.5739  0.5054
  126SOL     OW  549   4.195   3.026   3.034 -0.0870  0.1333  0.1032
  126SOL    HW2  550   4.205   3.113   3.073  0.1924  0.3069 -0.3515
  126SOL    HW3  551   4.140   2.979   3.096  0.9376  0.1813  1.0749
  126SOL    MW4  552   4.189   3.032   3.047  0.0849  0.1626  0.1714
  127SOL     OW  553   0.365   2.656   1.285  0.4885  0.0459  0.4680
  127SOL    HW2  554   0.446   2.704   1.302  1.6416 -1.3652 -0.9593
  127SOL    HW3  555   0.306   2.682   1.357  2.1470  1.1699  1.4407
  127SOL    MW4  556   0.368   2.666   1.297  0.8595  0.0081  0.4081
  128SOL     OW  557   3.543   3.545   0.754  0.2574 -0.6774  0.3349
  128SOL    HW2  558   3.472   3.542   0.819  0.5162  0.2956  0.6749
  128SOL    HW3  559   3.513   3.610   0.690  0.5092 -0.8065  0.0858
  128SOL    MW4  560   3.529   3.553   0.754  0.3247 -0.5662  0.3469
  129SOL     OW  561   1.415   3.885   3.343  0.0323  0.2664  0.0326
  129SOL    HW2  562   1.504   3.915   3.324 -1.2651  2.3883 -3.2158
  129SOL    HW3  563   1.425   3.791   3.360  3.0486  0.7122  1.1014
  129SOL    MW4  564   1.428   3.876   3.342  0.2592  0.6051 -0.2551
  130SOL     OW  565   3.139   1.040   2.589 -0.4344 -0.0712 -0.7516
  130SOL    HW2  566   3.191   1.023   2.511 -0.3497 -1.6951 -0.3701
  130SOL    HW3  567   3.202   1.071   2.654 -0.0538 -1.2794 -0.5284
  130SOL    MW4  568   3.154   1.042   2.588 -0.3729 -0.4449 -0.6719
  131SOL     OW  569   4.327   2.896   0.658 -0.0982  0.2329  0.3726
  131SOL    HW2  570   4.318   2.846   0.739  0.3542 -0.0578  0.2457
  131SOL    HW3  571   4.259   2.962   0.663 -1.1488 -0.8162  0.2386
  131SOL    MW4  572   4.317   2.898   0.669 -0.1774  0.0560  0.3381
  132SOL     OW  573   0.390   0.400   2.129  0.1143 -0.3095 -0.1184
  132SOL    HW2  574   0.381   0.318   2.177  0.1750 -0.9943 -1.2808
  132SOL    HW3  575   0.407   0.465   2.197  3.2657 -1.7551  0.5360
  132SOL    MW4  576   0.391   0.398   2.145  0.5381 -0.5906 -0.1855
  133SOL     OW  577   0.658   1.783   0.413  0.3952 -0.2025  0.0759
  133SOL    HW2  578   0.615   1.834   0.481  0.1877  0.9497 -0.9120
  133SOL    HW3  579   0.651   1.692   0.443 -2.5500 -0.0210  0.0293
  133SOL    MW4  580   0.651   1.778   0.426 -0.0207 -0.0266 -0.0606
  134SOL     OW  581   2.284   1.685   0.890  0.9364  0.1991 -0.3112
  134SOL    HW2  582   2.361   1.741   0.897  0.6814  0.4263  0.9094
  134SOL    HW3  583   2.294   1.639   0.807  1.2914  1.8264 -1.1744
  134SOL    MW4  584   2.296   1.686   0.880  0.9494  0.4437 -0.2640
  135SOL     OW  585   0.718   1.508   2.574 -0.0684  0.1899  0.2617
  135SOL    HW2  586   0.786   1.572   2.592 -0.3640  0.7453 -0.5545
  135SOL    HW3  587   0.636   1.558   2.577 -0.2509 -0.0156 -0.9721
  135SOL    MW4  588   0.716   1.523   2.577 -0.1315  0.2362 -0.0086
  136SOL     OW  589   2.718   0.573   2.084 -0.2201  0.2735  0.0121
  136SOL    HW2  590   2.724   0.481   2.110  1.7014 -0.4608 -2.7993
  136SOL    HW3  591   2.779   0.618   2.143  1.2226 -0.7506 -0.6732
  136SOL    MW4  592   2.726   0.567   2.095  0.2239  0.0415 -0.4492
  137SOL     OW  593   1.220   1.119   1.591  0.4780  0.4324 -0.0996
  137SOL    HW2  594   1.144   1.069   1.561  0.5581 -0.2338  0.8095
  137SOL    HW3  595   1.295   1.061   1.574  0.8597  1.2961 -1.5026
  137SOL    MW4  596   1.220   1.105   1.585  0.5389  0.4584 -0.1649
  138SOL     OW  597   0.269   3.385   2.164  0.5873 -0.3658 -0.8637
  138SOL    HW2  598   0.260   3.444   2.239  1.6643 -1.0962 -0.1356
  138SOL    HW3  599   0.359   3.353   2.170  0.2493 -1.5054 -1.6654
  138SOL    MW4  600   0.280   3.388   2.175  0.6849 -0.6127 -0.8733
  139SOL     OW  601   4.079   0.175   0.412  0.5222  0.0460  0.0914
  139SOL    HW2  602   4.104   0.259   0.373  1.5675  0.2719  1.1982
  139SOL    HW3  603   4.160   0.142   0.451 -0.1748 -0.8353  0.8222
  139SOL    MW4  604   4.093   0.182   0.412  0.5679 -0.0405  0.3338
  140SOL     OW  605   3.214   0.014   3.608 -0.4350  0.3407 -0.1572
  140SOL    HW2  606   3.173   0.010   3.695 -0.6768  0.9369 -0.2390
  140SOL    HW3  607   3.139   0.017   3.548 -0.2689 -0.3627 -0.4022
  140SOL    MW4  608   3.198   0.014   3.612 -0.4451  0.3266 -0.2005
  141SOL     OW  609   3.771   1.430   2.306 -0.1809 -0.7923  0.3125
  141SOL    HW2  610   3.677   1.439   2.292 -0.3225 -1.9057  0.5230
  141SOL    HW3  611   3.811   1.479   2.233 -0.8996  1.2557  1.2626
  141SOL    MW4  612   3.764   1.438   2.295 -0.2942 -0.6690  0.4656
  142SOL     OW  613   3.477   3.722   4.398 -0.3298 -0.2514  0.0878
  142SOL    HW2  614   3.551   3.777   4.425 -2.0606  1.0696  2.3073
  142SOL    HW3  615   3.487   3.641   4.449 -0.2824 -0.1568  0.2288
  142SOL    MW4  616   3.488   3.718   4.408 -0.5522 -0.0646  0.3991
  143SOL     OW  617   3.082   3.238   3.806  0.0899  0.0489 -0.4729
  143SOL    HW2  618   2.988   3.228   3.794 -0.0582  0.8149  0.0260
  143SOL    HW3  619   3.092   3.272   3.895  0.6912  2.1474 -1.2994
  143SOL    MW4  620   3.071   3.241   3.816  0.1497  0.4268 -0.5162
  144SOL     OW  621   1.108   4.310   1.646 -0.0829  0.0655  0.1394
  144SOL    HW2  622   1.190   4.358   1.650 -0.4198  0.5600  1.3988
  144SOL    HW3  623   1.131   4.224   1.613  0.9170  0.2364  0.4036
  144SOL    MW4  624   1.122   4.305   1.642  0.0045  0.1531  0.3403
  145SOL     OW  625   2.802   2.186   4.654 -0.3577 -0.1355  0.1652
  145SOL    HW2  626   2.811   2.281   4.662  0.3918 -0.2274  0.4561
  145SOL    HW3  627   2.813   2.168   4.561 -0.6106  0.0752  0.0957
  145SOL    MW4  628   2.805   2.196   4.643 -0.2918 -0.1202  0.1945
  146SOL     OW  629   2.469   3.139   1.918 -0.1846 -0.6651 -0.0216
  146SOL    HW2  630   2.443   3.087   1.994 -1.0231  1.2569  1.0557
  146SOL    HW3  631   2.512   3.216   1.956  0.5580 -0.3146 -1.5525
  146SOL    MW4  632   2.472   3.143   1.933 -0.1972 -0.3653 -0.0814
  147SOL     OW  633   1.529   2.244   3.490  0.6771  0.3585  0.0758
  147SOL    HW2  634   1.442   2.205   3.498  1.3214 -0.7663  1.8365
  147SOL    HW3  635   1.587   2.170   3.474  1.5220  0.9280  0.4684
  147SOL    MW4  636   1.525   2.229   3.489  0.8737  0.2854  0.3600
  148SOL     OW  637   1.387   1.646   4.089 -0.4783 -0.1529  0.6599
  148SOL    HW2  638   1.386   1.563   4.135  2.3189 -1.4487 -1.4553
  148SOL    HW3  639   1.434   1.706   4.148 -1.4261 -0.3956  1.6623
  148SOL    MW4  640   1.393   1.643   4.103 -0.2344 -0.3558  0.5126
  149SOL     OW  641   0.987   1.213   0.552  0.2843  0.6439  0.1072
  149SOL    HW2  642   0.967   1.307   0.559 -0.3812  0.5535 -0.5378
  149SOL    HW3  643   0.928   1.181   0.484  0.4460 -0.2669  0.3914
  149SOL    MW4  644   0.976   1.222   0.544  0.2179  0.5118  0.0595
  150SOL     OW  645   0.364   1.243   2.290 -0.7256  0.4603 -0.4326
  150SOL    HW2  646   0.381   1.220   2.382 -0.3720  1.6104 -0.2101
  150SOL    HW3  647   0.438   1.206   2.242 -1.2069 -0.6601 -0.3444
  150SOL    MW4  648   0.376   1.235   2.296 -0.7425  0.4642 -0.3917
  151SOL     OW  649   4.449   4.486   2.704 -0.0479  0.4299 -0.2827
  151SOL    HW2  650   4.416   4.496   2.793  0.7930 -0.2499  0.1078
  151SOL    HW3  651   4.374   4.510   2.648 -0.8042  0.1320  0.5941
  151SOL    MW4  652   4.435   4.491   2.708 -0.0367  0.3009 -0.1152
  152SOL     OW  653   1.678   1.133   3.766  0.2197  0.1997 -0.0457
  152SOL    HW2  654   1.704   1.113   3.856 -0.5761  3.0269  0.8734
  152SOL    HW3  655   1.584   1.118   3.765  0.1648  0.5619 -0.2953
  152SOL    MW4  656   1.669   1.128   3.778  0.1074  0.6205  0.0427
  153SOL     OW  657   1.057   1.668   0.711 -0.0150  0.0594 -0.3874
  153SOL    HW2  658   1.144   1.693   0.681 -0.4266  0.4073 -1.3075
  153SOL    HW3  659   1.015   1.751   0.735 -0.8269  0.1207 -1.9465
  153SOL    MW4  660   1.063   1.682   0.710 -0.1763  0.1135 -0.7144
  154SOL     OW  661   0.176   0.824   2.716  0.0891 -0.0669 -0.8234
  154SOL    HW2  662   0.224   0.852   2.794 -0.3898  1.2032 -0.9804
  154SOL    HW3  663   0.117   0.896   2.697 -0.5230 -0.8129 -1.7675
  154SOL    MW4  664   0.175   0.837   2.724 -0.0549  0.0021 -0.9687
  155SOL     OW  665   0.359   3.776   2.064  0.1704 -0.6544 -0.4768
  155SOL    HW2  666   0.424   3.713   2.035  2.1054  1.7017 -1.3839
  155SOL    HW3  667   0.303   3.790   1.987 -0.3723 -1.3868 -0.2192
  155SOL    MW4  668   0.360   3.770   2.050  0.3541 -0.4399 -0.5627
  156SOL     OW  669   4.395   1.390   2.558  0.4369  0.4930  0.3703
  156SOL    HW2  670   4.347   1.445   2.496 -0.2484 -0.2108  0.2746
  156SOL    HW3  671   4.462   1.346   2.505  0.4978  0.6514  0.3147
  156SOL    MW4  672   4.398   1.391   2.543  0.3548  0.4210  0.3502
  157SOL     OW  673   2.093   0.562   1.601 -0.0973  0.0056 -0.2252
  157SOL    HW2  674   2.126   0.610   1.676 -2.0252  1.5020 -0.3046
  157SOL    HW3  675   2.057   0.481   1.638  0.2296  0.0937  0.2837
  157SOL    MW4  676   2.093   0.557   1.616 -0.3085  0.2146 -0.1684
  158SOL     OW  677   1.968   1.637   4.707 -0.1316 -0.4731  0.2161
  158SOL    HW2  678   1.959   1.553   4.661 -0.0338  0.7079 -2.0125
  158SOL    HW3  679   2.039   1.682   4.662  0.2613  0.5643  1.8245
  158SOL    MW4  680   1.976   1.632   4.695 -0.0668 -0.1805  0.1340
  159SOL     OW  681   4.277   3.274   2.232 -0.8226  0.7480  0.4748
  159SOL    HW2  682   4.279   3.228   2.148  0.2988 -0.0601  0.9375
  159SOL    HW3  683   4.324   3.355   2.216  0.2348  0.1547  0.5752
  159SOL    MW4  684   4.283   3.279   2.219 -0.5350  0.5631  0.5491
  160SOL     OW  685   1.064   1.009   2.921 -0.1020  0.1333 -0.1419
  160SOL    HW2  686   0.985   0.975   2.963  0.6715 -1.3404  0.1488
  160SOL    HW3  687   1.116   1.043   2.994  0.7297 -1.3846  0.0003
  160SOL    MW4  688   1.060   1.009   2.936  0.1098 -0.2614 -0.0849
  161SOL     OW  689   4.385   0.784   3.786 -0.2810 -0.1898 -0.4752
  161SOL    HW2  690   4.386   0.763   3.693  0.3638 -0.6734 -0.3636
  161SOL    HW3  691   4.456   0.731   3.823  0.5452  1.2376  0.0127
  161SOL    MW4  692   4.394   0.774   3.779 -0.0868 -0.0653 -0.3963
  162SOL     OW  693   3.252   0.198   0.876 -0.4276  0.2890 -0.0604
  162SOL    HW2  694   3.228   0.125   0.820 -0.3310 -0.0813  0.3735
  162SOL    HW3  695   3.266   0.271   0.817 -0.3211 -0.0998 -0.5152
  162SOL    MW4  696   3.251   0.198   0.861 -0.4010  0.1888 -0.0631
  163SOL     OW  697   0.383   1.612   1.971  0.0802 -0.0342  0.3701
  163SOL    HW2  698   0.433   1.591   1.892  0.7934  0.4058  0.6991
  163SOL    HW3  699   0.393   1.706   1.982 -0.1499 -0.0705  0.8982
  163SOL    MW4  700   0.391   1.621   1.962  0.1439  0.0191  0.4832
  164SOL     OW  701   3.528   1.385   4.094 -0.1071 -0.0262  0.0025
  164SOL    HW2  702   3.509   1.330   4.018  3.1261  0.1636 -1.0281
  164SOL    HW3  703   3.569   1.463   4.057 -1.1409  1.4015  1.7518
  164SOL    MW4  704   3.531   1.388   4.079  0.1833  0.1873  0.0968
  165SOL     OW  705   3.475   3.133   1.027  0.0408 -0.1597 -0.3196
  165SOL    HW2  706   3.563   3.154   1.058  0.4028 -0.5754 -1.0709
  165SOL    HW3  707   3.464   3.184   0.947 -0.7945  0.6882  0.3148
  165SOL    MW4  708   3.485   3.142   1.021 -0.0217 -0.1025 -0.3350
  166SOL     OW  709   3.507   1.987   1.924 -0.3905 -0.2904 -0.3164
  166SOL    HW2  710   3.454   2.035   1.860  1.6197  0.4999 -1.4389
  166SOL    HW3  711   3.581   2.045   1.943 -0.6878 -0.7217  2.3869
  166SOL    MW4  712   3.510   2.001   1.918 -0.1645 -0.2429 -0.1078
  167SOL     OW  713   0.542   1.974   0.882  0.4684 -0.1340  0.2418
  167SOL    HW2  714   0.504   1.944   0.964  0.3757  0.0104  0.2521
  167SOL    HW3  715   0.568   2.065   0.898 -0.7504  0.3250 -0.2744
  167SOL    MW4  716   0.540   1.982   0.895  0.2953 -0.0544  0.1751
  168SOL     OW  717   2.296   3.471   2.241 -0.4081 -0.8216 -0.4279
  168SOL    HW2  718   2.341   3.485   2.325  0.9274  0.8646 -1.3806
  168SOL    HW3  719   2.207   3.503   2.255  0.0823  0.3274  0.0700
  168SOL    MW4  720   2.290   3.477   2.254 -0.1674 -0.4475 -0.4880
  169SOL     OW  721   0.417   3.954   2.252 -0.0568  0.4686 -0.1691
  169SOL    HW2  722   0.385   4.039   2.223  0.2439  0.3060 -0.9819
  169SOL    HW3  723   0.384   3.892   2.187  0.9620  0.1563 -0.3960
  169SOL    MW4  724   0.409   3.957   2.240  0.1172  0.4060 -0.3061
  170SOL     OW  725   2.704   0.599   0.622  0.0413 -0.2000 -0.4507
  170SOL    HW2  726   2.647   0.557   0.687 -1.0375  0.5200 -0.9256
  170SOL    HW3  727   2.768   0.647   0.675  0.8319 -1.7935  0.0941
  170SOL    MW4  728   2.705   0.600   0.638  0.0033 -0.3152 -0.4415
  171SOL     OW  729   2.632   3.597   0.677 -0.0832 -0.3415  0.4621
  171SOL    HW2  730   2.584   3.517   0.697 -1.1866  0.4586  1.0604
  171SOL    HW3  731   2.700   3.601   0.744  0.1649 -0.9294  0.2504
  171SOL    MW4  732   2.635   3.587   0.689 -0.1960 -0.3133  0.5131
  172SOL     OW  733   2.860   0.990   0.480  0.3768 -0.4057  0.0374
  172SOL    HW2  734   2.909   0.911   0.457 -0.1306 -0.8957  0.6196
  172SOL    HW3  735   2.840   1.031   0.396  1.0719 -0.6322 -0.2471
  172SOL    MW4  736   2.864   0.985   0.466  0.4013 -0.5003  0.0767
  173SOL     OW  737   1.139   2.464   1.954 -0.1784  0.0049 -0.4941
  173SOL    HW2  738   1.108   2.554   1.957 -1.5086 -0.4897  1.1529
  173SOL    HW3  739   1.199   2.456   2.028  1.1093 -0.0722 -1.5169
  173SOL    MW4  740   1.143   2.475   1.964 -0.1841 -0.0703 -0.4117
  174SOL     OW  741   0.121   2.424   3.526  0.4398  0.2711 -0.0398
  174SOL    HW2  742   0.075   2.423   3.610 -0.9918 -1.4498 -0.7887
  174SOL    HW3  743   0.133   2.517   3.506 -1.0498  0.7368  1.0990
  174SOL    MW4  744   0.116   2.436   3.534  0.0544  0.1054  0.0114
  175SOL     OW  745   2.122   0.001   2.700 -0.0775 -1.0568  0.1952
  175SOL    HW2  746   2.036  -0.040   2.713 -2.5099  3.0426 -1.8157
  175SOL    HW3  747   2.128   0.013   2.605  1.4272  1.2480  0.5448
  175SOL    MW4  748   2.111  -0.003   2.689 -0.1998 -0.2119 -0.0241
  176SOL     OW  749   3.443   0.393   1.982  0.0632  0.1089  0.1439
  176SOL    HW2  750   3.414   0.317   1.931 -1.1618  1.3313 -1.0441
  176SOL    HW3  751   3.532   0.409   1.951 -0.7086  0.9176 -1.7970
  176SOL    MW4  752   3.451   0.385   1.971 -0.2005  0.3769 -0.2688
  177SOL     OW  753   0.160   1.697   1.538 -0.0171  0.2299 -0.1699
  177SOL    HW2  754   0.100   1.627   1.563  0.3685 -0.2388 -0.5384
  177SOL    HW3  755   0.111   1.749   1.475 -0.3895  0.4307  0.2831
  177SOL    MW4  756   0.146   1.695   1.533 -0.0153  0.1947 -0.1588
  178SOL     OW  757   0.196   0.330   3.979 -0.1373 -0.1600  0.4686
  178SOL    HW2  758   0.170   0.421   3.962 -0.8922 -0.4112  0.2806
  178SOL    HW3  759   0.167   0.282   3.901 -1.4669 -0.9043  1.4221
  178SOL    MW4  760   0.189   0.336   3.966 -0.4123 -0.2913  0.5696
  179SOL     OW  761   3.237   2.365   1.857  0.3201 -0.6194 -0.5852
  179SOL    HW2  762   3.329   2.361   1.882 -0.1697 -1.2366  1.2000
  179SOL    HW3  763   3.227   2.451   1.815  1.2752  0.2674  0.9630
  179SOL    MW4  764   3.248   2.376   1.854  0.3815 -0.5841 -0.1453
  180SOL     OW  765   3.922   1.558   1.463  0.0117 -0.4493  0.2694
  180SOL    HW2  766   3.921   1.522   1.374  2.2529 -1.3474  0.5510
  180SOL    HW3  767   3.930   1.652   1.451  1.7473 -0.6647 -0.5361
  180SOL    MW4  768   3.923   1.565   1.450  0.5364 -0.5963  0.2004
  181SOL     OW  769   2.695   4.346   2.783  0.3789  0.4207  0.4852
  181SOL    HW2  770   2.782   4.307   2.777 -0.2539 -1.1950  1.5387
  181SOL    HW3  771   2.685   4.369   2.876 -0.4795  0.1992  0.4535
  181SOL    MW4  772   2.705   4.344   2.795  0.1824  0.1783  0.6201
  182SOL     OW  773   0.216   2.896   4.370 -0.1990  0.8279 -0.3685
  182SOL    HW2  774   0.279   2.939   4.429  0.8620 -1.5831  0.3061
  182SOL    HW3  775   0.174   2.968   4.323  2.5920  2.5344 -0.3444
  182SOL    MW4  776   0.219   2.911   4.372  0.3092  0.7350 -0.2756
  183SOL     OW  777   1.660   3.718   2.301  0.3069  0.3080 -0.0980
  183SOL    HW2  778   1.627   3.714   2.390  0.6205  0.8073  0.0401
  183SOL    HW3  779   1.705   3.634   2.288  1.2434  0.7062  0.5931
  183SOL    MW4  780   1.662   3.706   2.311  0.4719  0.4265  0.0114
  184SOL     OW  781   4.036   1.663   2.921  0.1159 -0.3792 -0.3740
  184SOL    HW2  782   4.064   1.622   2.839  0.1489 -0.2511 -0.4272
  184SOL    HW3  783   4.115   1.706   2.955 -0.0536  0.1084 -0.6015
  184SOL    MW4  784   4.050   1.663   2.915  0.0973 -0.2980 -0.4110
  185SOL     OW  785   1.703   0.265   2.614 -0.5049 -0.6783  0.2191
  185SOL    HW2  786   1.661   0.205   2.552 -0.0831 -0.7049 -0.0419
  185SOL    HW3  787   1.639   0.335   2.627 -1.1769 -1.3839  0.8364
  185SOL    MW4  788   1.689   0.266   2.607 -0.5378 -0.7749  0.2661
  186SOL     OW  789   1.823   0.930   1.914 -0.4507  0.4427  0.4448
  186SOL    HW2  790   1.748   0.983   1.886 -0.9060 -0.9394 -1.0209
  186SOL    HW3  791   1.789   0.841   1.920  0.5019  0.1726  2.1435
  186SOL    MW4  792   1.809   0.925   1.911 -0.3850  0.2247  0.4756
  187SOL     OW  793   4.104   4.596   0.962  0.1158 -0.2378 -0.3476
  187SOL    HW2  794   4.128   4.688   0.955  0.4674 -0.2729  0.3642
  187SOL    HW3  795   4.132   4.557   0.879 -4.2986  1.2219 -2.6712
  187SOL    MW4  796   4.111   4.603   0.950 -0.4206 -0.0501 -0.5602
  188SOL     OW  797   3.116   4.184   1.576 -0.2495 -0.5995 -0.4526
  188SOL    HW2  798   3.179   4.129   1.623 -0.3704 -0.1391  0.2476
  188SOL    HW3  799   3.042   4.126   1.558 -0.2420 -0.7531  0.0048
  188SOL    MW4  800   3.115   4.169   1.580 -0.2644 -0.5593 -0.2999
  189SOL     OW  801   1.332   2.502   2.151 -0.4235  0.1373  0.1310
  189SOL    HW2  802   1.410   2.446   2.158 -0.2412  0.3475 -0.1914
  189SOL    HW3  803   1.295   2.502   2.239 -1.6638 -2.2514 -0.3447
  189SOL    MW4  804   1.337   2.495   2.164 -0.5633 -0.1504  0.0257
  190SOL     OW  805   2.732   0.750   3.960 -0.6376 -0.0237 -0.1368
  190SOL    HW2  806   2.661   0.811   3.938 -0.5689  0.0780 -0.0777
  190SOL    HW3  807   2.689   0.677   4.004 -0.9429 -0.8182 -1.7151
  190SOL    MW4  808   2.717   0.748   3.963 -0.6688 -0.1151 -0.3376
  191SOL     OW  809   3.678   0.806   1.089  0.0632 -0.4794 -0.0981
  191SOL    HW2  810   3.719   0.847   1.012  1.9390 -1.5996  0.2849
  191SOL    HW3  811   3.613   0.871   1.118  2.8976  2.2348  0.4468
  191SOL    MW4  812   3.675   0.820   1.083  0.6847 -0.2691  0.0243
  192SOL     OW  813   3.254   2.211   1.484  0.2554 -0.7937  0.0966
  192SOL    HW2  814   3.238   2.186   1.393 -1.9716  0.3309  0.1421
  192SOL    HW3  815   3.314   2.285   1.479  0.2678 -0.8444 -0.4521
  192SOL    MW4  816   3.260   2.217   1.472 -0.0367 -0.6521  0.0302
  193SOL     OW  817   3.181   2.470   3.255 -0.3407  0.2937 -0.0049
  193SOL    HW2  818   3.229   2.550   3.278  0.9122 -0.1275 -1.0568
  193SOL    HW3  819   3.229   2.400   3.299 -1.0700  0.0574  0.4132
  193SOL    MW4  820   3.194   2.472   3.264 -0.2718  0.2069 -0.0885
  194SOL     OW  821   3.768   4.425   2.615  0.5584 -0.6509 -0.2678
  194SOL    HW2  822   3.744   4.464   2.699  1.8972 -2.4033  0.9742
  194SOL    HW3  823   3.757   4.495   2.552 -0.9795  0.5603  1.2916
  194SOL    MW4  824   3.763   4.439   2.618  0.5324 -0.7224  0.1018
  195SOL     OW  825   3.952   4.321   0.631  0.0137  0.1888 -0.0328
  195SOL    HW2  826   3.865   4.361   0.635 -0.4802 -0.9004  0.4769
  195SOL    HW3  827   4.012   4.391   0.655 -0.8106  0.6986  0.5810
  195SOL    MW4  828   3.948   4.335   0.635 -0.1602  0.1121  0.1154
  196SOL     OW  829   0.191   1.072   4.416 -0.1486 -0.2485 -0.3757
  196SOL    HW2  830   0.232   1.155   4.393  0.1733 -0.2226  0.2848
  196SOL    HW3  831   0.194   1.020   4.335  2.1660 -0.6484 -0.0589
  196SOL    MW4  832   0.197   1.076   4.402  0.1993 -0.2979 -0.2465
  197SOL     OW  833   0.110   0.459   3.616  0.4768  0.2159  0.7064
  197SOL    HW2  834   0.091   0.509   3.696  0.1918  0.9949  0.1537
  197SOL    HW3  835   0.151   0.522   3.558  0.1390 -0.2037  0.0117
  197SOL    MW4  836   0.113   0.474   3.619  0.3947  0.2633  0.5417
  198SOL     OW  837   0.798   1.416   3.861 -0.9701 -0.4022  0.0345
  198SOL    HW2  838   0.785   1.507   3.836 -0.9328 -0.3566  0.1792
  198SOL    HW3  839   0.748   1.406   3.942  1.0044  0.1393  1.3473
  198SOL    MW4  840   0.790   1.427   3.868 -0.7047 -0.3247  0.2267
  199SOL     OW  841   2.513   0.718   3.162  0.0130 -0.1909  0.5596
  199SOL    HW2  842   2.526   0.656   3.090 -1.0084  0.0504  0.1603
  199SOL    HW3  843   2.579   0.693   3.227  0.5461 -0.7926 -0.1998
  199SOL    MW4  844   2.524   0.707   3.162 -0.0515 -0.2384  0.4067
  200SOL     OW  845   1.784   3.326   2.651  0.3559  0.4092 -0.0100
  200SOL    HW2  846   1.878   3.324   2.637  0.2221  0.3491 -0.9263
  200SOL    HW3  847   1.747   3.281   2.575 -0.4199  0.5317  0.2845
  200SOL    MW4  848   1.791   3.320   2.639  0.2358  0.4175 -0.0920
  201SOL     OW  849   1.006   1.042   2.213  0.0430  0.2418  0.2410
  201SOL    HW2  850   1.068   0.986   2.166 -2.5527 -0.8900 -1.9955
  201SOL    HW3  851   0.982   1.110   2.150 -1.3766  0.3408  0.8621
  201SOL    MW4  852   1.011   1.044   2.199 -0.4869  0.1056  0.0281
  202SOL     OW  853   2.343   0.083   2.079 -0.2646 -0.0383  0.1018
  202SOL    HW2  854   2.292   0.005   2.099 -0.2737 -0.3582 -1.1297
  202SOL    HW3  855   2.420   0.076   2.136 -0.1892 -1.0331 -0.1051
  202SOL    MW4  856   2.347   0.072   2.089 -0.2561 -0.2117 -0.0880
  203SOL     OW  857   4.116   1.180   2.896  0.0962 -0.0244 -0.4065
  203SOL    HW2  858   4.074   1.122   2.958 -1.1513  1.6804  0.3776
  203SOL    HW3  859   4.046   1.207   2.836  0.4859  1.1871 -0.3419
  203SOL    MW4  860   4.101   1.176   2.896 -0.0172  0.3604 -0.2944
  204SOL     OW  861   3.679   0.323   1.028 -0.3875  0.2479  0.2044
  204SOL    HW2  862   3.604   0.382   1.023 -1.9371 -1.7031 -0.0215
  204SOL    HW3  863   3.643   0.241   1.062  1.2689 -1.2965 -1.6899
  204SOL    MW4  864   3.664   0.320   1.032 -0.3736 -0.2132 -0.0753
  205SOL     OW  865   2.797   3.337   1.265  0.0674  0.1587 -0.3062
  205SOL    HW2  866   2.862   3.394   1.307 -0.8835 -0.1688  1.6740
  205SOL    HW3  867   2.818   3.249   1.297 -0.3309 -0.1711 -0.9564
  205SOL    MW4  868   2.808   3.333   1.275 -0.1106  0.0720 -0.1308
  206SOL     OW  869   1.759   3.928   3.698 -0.5959 -0.1758 -0.0535
  206SOL    HW2  870   1.769   4.009   3.647  0.2486  0.1191  0.5452
  206SOL    HW3  871   1.677   3.890   3.668 -1.3734  1.2800  0.1599
  206SOL    MW4  872   1.750   3.934   3.687 -0.5870  0.0553  0.0534
  207SOL     OW  873   0.434   2.026   1.449  0.3910  0.1388  0.0975
  207SOL    HW2  874   0.372   2.057   1.515  0.5786 -0.6078  0.6315
  207SOL    HW3  875   0.493   1.969   1.497 -0.5398 -1.8289 -1.0405
  207SOL    MW4  876   0.434   2.023   1.464  0.2930 -0.2196  0.0179
  208SOL     OW  877   0.889   3.986   3.914 -0.2605 -0.2218  0.0765
  208SOL    HW2  878   0.834   3.996   3.992  1.3088  0.4636  1.1310
  208SOL    HW3  879   0.928   4.073   3.902  2.1880 -1.2106  0.5875
  208SOL    MW4  880   0.887   3.999   3.922  0.2696 -0.2615  0.2832
  209SOL     OW  881   1.941   4.108   2.928 -0.0401 -0.3927  0.2968
  209SOL    HW2  882   1.997   4.154   2.991 -0.4460  0.0398  0.3444
  209SOL    HW3  883   2.001   4.053   2.879  0.4626  0.2490  0.1927
  209SOL    MW4  884   1.956   4.107   2.930 -0.0273 -0.2508  0.2894
  210SOL     OW  885   1.596   3.267   3.282 -0.2884 -0.1119  0.4267
  210SOL    HW2  886   1.592   3.359   3.309  0.8315 -0.0057  0.2461
  210SOL    HW3  887   1.551   3.265   3.197 -1.2045  0.0829  0.9018
  210SOL    MW4  888   1.589   3.279   3.274 -0.2615 -0.0722  0.4656
  211SOL     OW  889   1.428   0.367   2.944 -0.4014 -0.2116 -0.0884
  211SOL    HW2  890   1.358   0.431   2.959 -0.1146  0.0650  0.0866
  211SOL    HW3  891   1.493   0.386   3.012  0.3029  0.1914 -0.8595
  211SOL    MW4  892   1.427   0.378   2.955 -0.2706 -0.1219 -0.1669
  212SOL     OW  893   1.894   3.713   1.544 -0.1995  0.4928  0.1196
  212SOL    HW2  894   1.825   3.669   1.494 -0.2645  1.3643 -0.5624
  212SOL    HW3  895   1.972   3.660   1.529 -0.9053 -1.0501  1.6623
  212SOL    MW4  896   1.895   3.700   1.536 -0.3011  0.4041  0.2331
  213SOL     OW  897   1.749   0.255   2.243  0.4277  0.8863  0.3552
  213SOL    HW2  898   1.720   0.195   2.312  3.4468 -0.3328  0.6316
  213SOL    HW3  899   1.800   0.321   2.289  0.4191  1.4581 -0.4394
  213SOL    MW4  900   1.752   0.256   2.258  0.8248  0.8009  0.2868
  214SOL     OW  901   1.829   3.428   1.256  0.0052  0.2025  0.3488
  214SOL    HW2  902   1.851   3.485   1.182  1.0673 -0.5584  0.0731
  214SOL    HW3  903   1.912   3.413   1.300 -0.7358  1.2714  2.1624
  214SOL    MW4  904   1.843   3.434   1.252  0.0477  0.2432  0.5516
  215SOL     OW  905   3.945   3.300   3.610 -0.0062  0.1671  0.6405
  215SOL    HW2  906   3.889   3.330   3.539 -1.2892  0.0692  1.6017
  215SOL    HW3  907   3.946   3.372   3.673  3.0740  1.2445 -0.5351
  215SOL    MW4  908   3.938   3.313   3.609  0.2310  0.2964  0.6123
  216SOL     OW  909   2.839   3.855   4.442 -0.1463  0.2402  0.6897
  216SOL    HW2  910   2.922   3.849   4.394  0.1511  0.5763  1.1603
  216SOL    HW3  911   2.840   3.779   4.500  0.0721  0.5333  1.0708
  216SOL    MW4  912   2.850   3.844   4.443 -0.0784  0.3233  0.8020
  217SOL     OW  913   2.489   2.409   0.840  0.4422 -0.1674 -0.1550
  217SOL    HW2  914   2.499   2.429   0.747  0.2605  1.4189  0.1595
  217SOL    HW3  915   2.396   2.389   0.850  0.6508 -1.3934 -0.4917
  217SOL    MW4  916   2.478   2.409   0.829  0.4458 -0.1199 -0.1580
  218SOL     OW  917   3.858   0.565   3.191  0.3843  0.2528 -0.3757
  218SOL    HW2  918   3.932   0.514   3.159 -0.7855 -0.6939 -1.6337
  218SOL    HW3  919   3.785   0.540   3.135 -0.8119  1.4558  0.5927
  218SOL    MW4  920   3.858   0.555   3.179  0.0720  0.2866 -0.4137
  219SOL     OW  921   1.148   3.520   0.711  0.2039  0.5382  0.0934
  219SOL    HW2  922   1.242   3.538   0.724  0.6226 -2.2711  1.2348
  219SOL    HW3  923   1.144   3.428   0.687 -2.3107  0.5697  0.2590
  219SOL    MW4  924   1.160   3.510   0.710 -0.0726  0.1714  0.2658
  220SOL     OW  925   2.435   0.863   1.964  0.7482  0.1202 -0.0360
  220SOL    HW2  926   2.371   0.933   1.955  0.9544  0.2824 -0.2550
  220SOL    HW3  927   2.399   0.806   2.032  1.4772  1.4484  1.4923
  220SOL    MW4  928   2.422   0.864   1.972  0.8717  0.3169  0.1365
  221SOL     OW  929   1.621   2.550   1.263  0.1024 -0.4367 -0.5955
  221SOL    HW2  930   1.596   2.460   1.241 -2.2980 -0.4415  1.8960
  221SOL    HW3  931   1.687   2.540   1.332 -0.1998 -0.2669 -0.2855
  221SOL    MW4  932   1.627   2.537   1.269 -0.2543 -0.4148 -0.2259
  222SOL     OW  933   1.875   2.359   3.947 -0.1185  0.1413  0.0247
  222SOL    HW2  934   1.944   2.421   3.922  0.2253 -1.0314 -2.0543
  222SOL    HW3  935   1.814   2.360   3.873 -2.7060  1.5830  2.0614
  222SOL    MW4  936   1.876   2.367   3.934 -0.4145  0.1769  0.0193
  223SOL     OW  937   3.559   3.159   0.365 -0.2677 -0.7599  0.0271
  223SOL    HW2  938   3.612   3.106   0.305  1.0686  0.7209 -0.1533
  223SOL    HW3  939   3.607   3.156   0.447 -0.5859 -0.4492  0.2230
  223SOL    MW4  940   3.572   3.151   0.368 -0.1335 -0.5233  0.0291
  224SOL     OW  941   2.112   4.545   3.073  0.0049 -0.6718  0.0401
  224SOL    HW2  942   2.018   4.557   3.086  0.3079  0.9360  0.8166
  224SOL    HW3  943   2.131   4.459   3.112 -0.8085 -0.1576  1.5976
  224SOL    MW4  944   2.103   4.535   3.080 -0.0625 -0.3915  0.3481
  225SOL     OW  945   4.470   3.425   1.111  0.5193  0.0446 -0.2969
  225SOL    HW2  946   4.403   3.487   1.140  0.6197  0.2115 -0.4272
  225SOL    HW3  947   4.534   3.478   1.064  2.1840  0.3449  2.1676
  225SOL    MW4  948   4.470   3.440   1.109  0.7524  0.1061  0.0110
  226SOL     OW  949   0.894   3.557   1.641  0.5780 -0.0733  0.5311
  226SOL    HW2  950   0.898   3.470   1.602 -1.3273 -0.7755  1.8284
  226SOL    HW3  951   0.931   3.615   1.575 -2.4577 -1.2037 -2.3022
  226SOL    MW4  952   0.900   3.553   1.627 -0.0739 -0.3152  0.3284
  227SOL     OW  953   1.605   2.957   1.772 -0.2908 -0.2502 -0.0799
  227SOL    HW2  954   1.592   2.874   1.725 -1.0458 -0.7357  0.9800
  227SOL    HW3  955   1.613   3.022   1.702 -1.9138 -0.8813 -0.8873
  227SOL    MW4  956   1.605   2.954   1.756 -0.6045 -0.3979 -0.0466
  228SOL     OW  957   2.254   4.111   3.220 -0.2232  0.0679 -0.7939
  228SOL    HW2  958   2.304   4.129   3.299  0.0607 -0.5324 -0.8377
  228SOL    HW3  959   2.227   4.020   3.228 -1.2932  0.3686 -0.7791
  228SOL    MW4  960   2.257   4.101   3.231 -0.3269  0.0281 -0.7980
  229SOL     OW  961   3.980   3.010   1.012  0.5080 -0.1478  0.1593
  229SOL    HW2  962   3.955   2.965   1.092 -0.9081 -1.4325 -0.9630
  229SOL    HW3  963   3.902   3.060   0.987  0.5624 -0.6281 -0.9980
  229SOL    MW4  964   3.966   3.011   1.019  0.3283 -0.3808 -0.1415
  230SOL     OW  965   1.146   1.119   1.864  0.6754 -0.1032  0.0765
  230SOL    HW2  966   1.213   1.185   1.886  0.0170  0.2719  1.0154
  230SOL    HW3  967   1.160   1.100   1.772  1.8486  0.2473  0.1744
  230SOL    MW4  968   1.157   1.125   1.855  0.7432 -0.0075  0.2133
  231SOL     OW  969   2.640   4.310   3.099  0.0511 -0.2190  0.2911
  231SOL    HW2  970   2.545   4.322   3.092  0.0583 -0.4551 -0.2332
  231SOL    HW3  971   2.661   4.341   3.187 -0.6238 -0.8553  0.6914
  231SOL    MW4  972   2.630   4.315   3.110 -0.0370 -0.3347  0.2742
  232SOL     OW  973   0.516   3.988   0.607 -0.2583 -0.4025  0.0943
  232SOL    HW2  974   0.571   3.977   0.530 -1.0129  0.5596 -0.5778
  232SOL    HW3  975   0.435   4.028   0.575 -0.4354  0.3537  1.4233
  232SOL    MW4  976   0.513   3.992   0.593 -0.3812 -0.1760  0.1810
  233SOL     OW  977   2.880   0.779   0.805 -0.0648  0.1547 -0.1877
  233SOL    HW2  978   2.809   0.830   0.767  0.0460 -0.5808 -1.4283
  233SOL    HW3  979   2.857   0.771   0.898 -1.1415  0.6855 -0.3964
  233SOL    MW4  980   2.867   0.785   0.812 -0.1922  0.1277 -0.3790
  234SOL     OW  981   3.500   0.183   1.491  0.7377  0.3008 -0.2116
  234SOL    HW2  982   3.541   0.251   1.545  0.1003  0.5648 -0.0555
  234SOL    HW3  983   3.411   0.215   1.476  0.3688 -0.5985  0.0371
  234SOL    MW4  984   3.494   0.196   1.496  0.6049  0.2170 -0.1582
  235SOL     OW  985   2.878   1.253   4.425  0.3110  0.0946 -0.8466
  235SOL    HW2  986   2.918   1.323   4.373  0.9695 -0.7644 -1.5305
  235SOL    HW3  987   2.949   1.188   4.435 -0.0595 -0.1283  0.4146
  235SOL    MW4  988   2.893   1.253   4.420  0.3488 -0.0483 -0.7706
  236SOL     OW  989   3.074   2.462   4.214  0.2916  0.1037  0.0267
  236SOL    HW2  990   3.085   2.500   4.127 -0.5406  1.6887  0.5931
  236SOL    HW3  991   3.142   2.504   4.267 -1.9272  2.4426  1.1458
  236SOL    MW4  992   3.084   2.473   4.210 -0.1106  0.6213  0.2489
  237SOL     OW  993   1.360   4.157   2.805 -0.3031 -0.0657  0.2248
  237SOL    HW2  994   1.357   4.249   2.777  1.6882 -0.4439 -1.3210
  237SOL    HW3  995   1.274   4.122   2.784 -0.5560  1.0506 -0.6244
  237SOL    MW4  996   1.349   4.165   2.799 -0.0738  0.0315 -0.0911
  238SOL     OW  997   2.181   2.364   4.189 -0.5923  0.2990  0.7044
  238SOL    HW2  998   2.275   2.348   4.192 -0.8401 -1.6043 -0.5203
  238SOL    HW3  999   2.170   2.429   4.119 -0.4078 -1.4385 -0.9620
  238SOL    MW4 1000   2.192   2.371   4.180 -0.6006 -0.1814  0.3228
  239SOL     OW 1001   4.277   0.933   1.512  0.6200  0.1814 -0.2760
  239SOL    HW2 1002   4.261   0.955   1.420  0.9498 -0.7008 -0.5568
  239SOL    HW3 1003   4.190   0.922   1.550  0.4686  1.2212 -0.3078
  239SOL    MW4 1004   4.264   0.934   1.505  0.6437  0.2021 -0.3173
  240SOL     OW 1005   1.584   0.742   1.582 -0.5007  0.0390  0.2744
  240SOL    HW2 1006   1.674   0.711   1.589 -0.1934 -0.0563 -3.1807
  240SOL    HW3 1007   1.532   0.663   1.571 -0.5799  0.2663 -1.1006
  240SOL    MW4 1008   1.589   0.727   1.581 -0.4706  0.0565 -0.3629
  241SOL     OW 1009   0.456   1.607   2.549  0.3882  0.0669 -0.1183
  241SOL    HW2 1010   0.457   1.598   2.644 -0.4087  0.3757 -0.0748
  241SOL    HW3 1011   0.443   1.700   2.533 -1.6816 -0.2686 -0.5155
  241SOL    MW4 1012   0.455   1.618   2.559  0.0100  0.0633 -0.1650
  242SOL     OW 1013   3.679   3.265   3.907  0.3306 -0.5238  0.0258
  242SOL    HW2 1014   3.591   3.255   3.944  0.4205 -0.5808  0.2272
  242SOL    HW3 1015   3.669   3.244   3.814  0.0973 -0.3626  0.0143
  242SOL    MW4 1016   3.666   3.261   3.900  0.3119 -0.5100  0.0510
  243SOL     OW 1017   4.008   4.032   2.541 -0.0960 -0.0637  0.7269
  243SOL    HW2 1018   4.077   4.098   2.550 -0.9023  0.7990  0.5930
  243SOL    HW3 1019   4.053   3.957   2.501  0.5031  0.9460 -0.5700
  243SOL    MW4 1020   4.023   4.031   2.537 -0.1230  0.1831  0.5379
  244SOL     OW 1021   1.187   3.382   3.284 -0.1857 -0.6392 -0.2002
  244SOL    HW2 1022   1.227   3.339   3.359 -1.2809  0.0479  0.8076
  244SOL    HW3 1023   1.191   3.475   3.304  0.0281 -0.4056 -1.2641
  244SOL    MW4 1024   1.193   3.388   3.296 -0.3021 -0.5178 -0.2074
  245SOL     OW 1025   3.539   2.384   1.840  0.0855  0.1416 -0.2815
  245SOL    HW2 1026   3.564   2.456   1.898 -0.0435 -1.5305  1.9203
  245SOL    HW3 1027   3.601   2.314   1.861 -1.7150 -1.4512 -0.1184
  245SOL    MW4 1028   3.551   2.385   1.851 -0.1690 -0.2894  0.0305
  246SOL     OW 1029   2.503   4.171   2.672  0.4344 -0.5226  0.4938
  246SOL    HW2 1030   2.430   4.221   2.636 -1.2059 -1.8733  1.8571
  246SOL    HW3 1031   2.551   4.234   2.725 -0.1056  0.2233  0.1062
  246SOL    MW4 1032   2.500   4.186   2.674  0.1466 -0.6018  0.6227
  247SOL     OW 1033   1.381   2.955   4.133 -0.7926 -0.0824  0.0530
  247SOL    HW2 1034   1.458   2.951   4.190 -1.7762  0.8523  1.5018
  247SOL    HW3 1035   1.415   2.981   4.048  0.7120 -1.4934  0.2025
  247SOL    MW4 1036   1.395   2.958   4.129 -0.7238 -0.1454  0.2642
  248SOL     OW 1037   1.914   0.846   1.061  0.0810  0.2655  0.5631
  248SOL    HW2 1038   1.829   0.870   1.099  0.5023 -0.3044  1.8951
  248SOL    HW3 1039   1.969   0.825   1.136  1.1578 -0.1895 -0.3340
  248SOL    MW4 1040   1.910   0.846   1.076  0.2786  0.1303  0.6205
  249SOL     OW 1041   3.613   2.482   1.187 -0.1541 -0.0542  0.1317
  249SOL    HW2 1042   3.696   2.439   1.206  1.0156  1.3070 -1.7178
  249SOL    HW3 1043   3.593   2.457   1.096 -2.0535 -0.7971  0.7122
  249SOL    MW4 1044   3.621   2.473   1.177 -0.2506  0.0277 -0.0356
  250SOL     OW 1045   0.696   3.430   4.038  0.3515 -0.2955 -1.0151
  250SOL    HW2 1046   0.726   3.518   4.061  0.4958 -0.1096 -1.9209
  250SOL    HW3 1047   0.768   3.373   4.067 -0.0046 -0.1829  0.1270
  250SOL    MW4 1048   0.710   3.434   4.045  0.3235 -0.2561 -0.9837
  251SOL     OW 1049   1.644   3.194   4.268 -0.6602 -0.1020  0.1890
  251SOL    HW2 1050   1.658   3.099   4.264 -0.7693 -0.0851 -0.7848
  251SOL    HW3 1051   1.620   3.211   4.359  2.0362 -0.6245  1.0340
  251SOL    MW4 1052   1.643   3.184   4.279 -0.3189 -0.1690  0.1717
  252SOL     OW 1053   1.125   2.208   2.577  0.0116 -0.1199 -0.1798
  252SOL    HW2 1054   1.083   2.124   2.559 -0.2415  0.3513 -1.8294
  252SOL    HW3 1055   1.064   2.253   2.635 -0.9537 -0.1470 -1.1589
  252SOL    MW4 1056   1.112   2.203   2.582 -0.1490 -0.0613 -0.5267
  253SOL     OW 1057   1.856   0.977   4.231  0.5420 -0.0649  0.1427
  253SOL    HW2 1058   1.795   1.029   4.179 -1.7794 -0.0292  2.7568
  253SOL    HW3 1059   1.836   0.886   4.207 -0.3629 -0.0386  0.7524
  253SOL    MW4 1060   1.845   0.972   4.221  0.1162 -0.0567  0.5679
  254SOL     OW 1061   2.124   1.952   4.314 -0.0161 -0.8427 -0.1933
  254SOL    HW2 1062   2.143   1.884   4.379  0.6180 -0.9682 -0.5033
  254SOL    HW3 1063   2.133   2.034   4.362  1.6303 -0.8888 -0.4016
  254SOL    MW4 1064   2.128   1.954   4.329  0.2849 -0.8653 -0.2608
  255SOL     OW 1065   1.523   4.613   3.018 -0.1319 -0.2835 -0.0733
  255SOL    HW2 1066   1.564   4.646   2.939  0.4216  0.3860  0.4891
  255SOL    HW3 1067   1.430   4.606   2.996 -0.0338  0.2465 -0.6546
  255SOL    MW4 1068   1.516   4.616   3.005 -0.0460 -0.1253 -0.0758
  256SOL     OW 1069   1.419   1.529   4.428  0.1766 -0.3580 -0.7818
  256SOL    HW2 1070   1.429   1.476   4.507  0.9794  0.8217 -0.0945
  256SOL    HW3 1071   1.354   1.595   4.451  2.7537  1.9716 -0.0599
  256SOL    MW4 1072   1.412   1.530   4.441  0.6226  0.1049 -0.5960
  257SOL     OW 1073   2.034   2.246   3.607 -0.2473  0.2965  0.3493
  257SOL    HW2 1074   2.097   2.228   3.676 -0.5433  1.6019  0.9754
  257SOL    HW3 1075   2.085   2.244   3.526  0.3085 -0.1399  0.7133
  257SOL    MW4 1076   2.049   2.243   3.605 -0.2131  0.4110  0.4797
  258SOL     OW 1077   1.446   3.544   2.173 -0.7861  0.2288 -0.4433
  258SOL    HW2 1078   1.379   3.600   2.133 -0.6577  1.0532  0.4980
  258SOL    HW3 1079   1.512   3.604   2.205  0.2178 -0.5669 -0.9808
  258SOL    MW4 1080   1.446   3.559   2.172 -0.6367  0.2327 -0.3903
  259SOL     OW 1081   0.786   2.696   1.208 -0.3395 -0.2983  0.8172
  259SOL    HW2 1082   0.831   2.614   1.225 -1.2326 -0.6831  1.3602
  259SOL    HW3 1083   0.791   2.707   1.113 -1.3729 -1.6666  0.5969
  259SOL    MW4 1084   0.793   2.687   1.197 -0.5937 -0.5295  0.8597
  260SOL     OW 1085   0.935   0.551   2.891 -0.1072  0.3148  0.1880
  260SOL    HW2 1086   0.964   0.476   2.943 -0.0188  0.6905  0.6972
  260SOL    HW3 1087   0.939   0.521   2.801 -0.3789 -0.3909  0.4057
  260SOL    MW4 1088   0.940   0.537   2.886 -0.1314  0.2713  0.2840
  261SOL     OW 1089   2.778   2.285   2.880  0.2118  0.1263  0.0817
  261SOL    HW2 1090   2.692   2.289   2.922 -0.1174 -0.9466 -0.4645
  261SOL    HW3 1091   2.840   2.282   2.953 -0.4025 -2.9026  0.5533
  261SOL    MW4 1092   2.774   2.285   2.895  0.0873 -0.4151  0.0718
  262SOL     OW 1093   2.765   0.106   4.456 -0.1899 -0.0169  0.6938
  262SOL    HW2 1094   2.694   0.170   4.463  0.5301  0.6071  2.6861
  262SOL    HW3 1095   2.721   0.022   4.439 -1.5070  0.1780  2.9536
  262SOL    MW4 1096   2.750   0.103   4.455 -0.2685  0.0911  1.2546
  263SOL     OW 1097   2.620   1.711   1.948 -0.2262  0.1070  0.0859
  263SOL    HW2 1098   2.712   1.706   1.974 -0.0905  1.8936 -0.0288
  263SOL    HW3 1099   2.578   1.639   1.996  0.8511  0.5576  1.7552
  263SOL    MW4 1100   2.627   1.701   1.958 -0.0658  0.4022  0.2910
  264SOL     OW 1101   0.185   3.691   4.525  0.5011 -0.2089  0.3430
  264SOL    HW2 1102   0.263   3.673   4.577 -0.6706 -2.4138  1.4073
  264SOL    HW3 1103   0.116   3.639   4.566 -1.1957  0.5222 -1.4808
  264SOL    MW4 1104   0.186   3.682   4.537  0.1227 -0.4034  0.2422
  265SOL     OW 1105   0.162   1.653   2.805 -0.2528 -0.5377  0.0379
  265SOL    HW2 1106   0.183   1.560   2.802 -0.6599 -0.7016  1.5903
  265SOL    HW3 1107   0.239   1.693   2.845 -0.6916 -0.4245  0.7831
  265SOL    MW4 1108   0.175   1.646   2.810 -0.3644 -0.5444  0.3409
  266SOL     OW 1109   1.817   4.073   2.531 -0.2861  0.2129 -0.4977
  266SOL    HW2 1110   1.842   3.983   2.551 -1.5516  0.0671  0.5071
  266SOL    HW3 1111   1.746   4.092   2.592 -0.3466  1.7360 -1.0248
  266SOL    MW4 1112   1.811   4.063   2.542 -0.4611  0.3948 -0.4349
  267SOL     OW 1113   1.290   2.690   4.095 -0.0239  0.3804  0.2058
  267SOL    HW2 1114   1.314   2.775   4.132 -1.4974  1.0539 -0.3664
  267SOL    HW3 1115   1.357   2.673   4.029 -0.6112  1.8484 -0.7906
  267SOL    MW4 1116   1.302   2.699   4.091 -0.2958  0.6633 -0.0005
  268SOL     OW 1117   3.101   0.859   2.054  0.0669  0.0320 -0.7772
  268SOL    HW2 1118   3.079   0.952   2.053 -0.4300 -0.0858 -0.5666
  268SOL    HW3 1119   3.027   0.816   2.012 -0.4021 -0.4203  0.4891
  268SOL    MW4 1120   3.089   0.866   2.048 -0.0606 -0.0432 -0.5820
  269SOL     OW 1121   1.063   2.287   2.296  0.3280 -0.1611 -0.3647
  269SOL    HW2 1122   1.134   2.228   2.267  0.2312 -0.1907 -0.5446
  269SOL    HW3 1123   1.055   2.270   2.390  1.1875  0.5130 -0.1679
  269SOL    MW4 1124   1.071   2.277   2.304  0.4286 -0.0763 -0.3626
  270SOL     OW 1125   3.149   0.046   3.014  0.0146 -0.0976  0.1878
  270SOL    HW2 1126   3.156   0.097   3.094  0.9841  0.2926 -0.1418
  270SOL    HW3 1127   3.108  -0.037   3.042 -1.9554  0.9902  0.6493
  270SOL    MW4 1128   3.144   0.042   3.028 -0.1171  0.0975  0.2055
  271SOL     OW 1129   4.454   0.548   1.698  0.1291  0.0490  0.3291
  271SOL    HW2 1130   4.498   0.463   1.698  0.5550  0.2575  1.6880
  271SOL    HW3 1131   4.364   0.529   1.671  0.4496 -0.7051 -0.2344
  271SOL    MW4 1132   4.448   0.534   1.694  0.2275 -0.0231  0.4340
  272SOL     OW 1133   3.853   3.970   2.777  0.4730 -0.0731  0.6474
  272SOL    HW2 1134   3.902   3.930   2.849 -0.0131 -0.2959  0.8515
  272SOL    HW3 1135   3.918   3.977   2.706  0.6742 -0.8546  0.7418
  272SOL    MW4 1136   3.868   3.966   2.777  0.4354 -0.2058  0.6869
  273SOL     OW 1137   3.671   2.334   3.159 -0.0246  0.1995 -0.0759
  273SOL    HW2 1138   3.673   2.319   3.253 -1.3500 -1.0259 -0.2303
  273SOL    HW3 1139   3.618   2.414   3.149  1.9304  1.5814  0.3376
  273SOL    MW4 1140   3.664   2.343   3.170  0.0584  0.2203 -0.0422
  274SOL     OW 1141   3.999   0.945   3.041  0.1501 -0.0078 -0.3022
  274SOL    HW2 1142   3.924   0.987   3.084 -0.5915 -1.4682 -0.1586
  274SOL    HW3 1143   4.038   0.890   3.109  1.1956  0.5079 -0.4655
  274SOL    MW4 1144   3.994   0.943   3.056  0.1903 -0.1324 -0.3049
  275SOL     OW 1145   3.438   0.529   2.235 -0.7576 -0.1319 -0.1822
  275SOL    HW2 1146   3.459   0.623   2.231 -1.4055  0.0579  0.7639
  275SOL    HW3 1147   3.427   0.503   2.143 -1.0294  0.8152 -0.4241
  275SOL    MW4 1148   3.439   0.538   2.222 -0.8788  0.0181 -0.0892
  276SOL     OW 1149   1.477   3.922   3.635 -0.1756  0.6156 -0.0383
  276SOL    HW2 1150   1.396   3.971   3.648  0.2564  1.3971 -0.3173
  276SOL    HW3 1151   1.448   3.833   3.616 -0.9438  0.6524  0.9295
  276SOL    MW4 1152   1.463   3.916   3.634 -0.2199  0.7234  0.0525
  277SOL     OW 1153   1.014   1.936   0.748  0.3532  0.4063 -0.0767
  277SOL    HW2 1154   0.986   1.934   0.656 -1.4981  2.7183  0.3797
  277SOL    HW3 1155   0.935   1.921   0.798  1.0581  0.8014  1.1779
  277SOL    MW4 1156   1.000   1.934   0.742  0.2019  0.7634  0.1490
  278SOL     OW 1157   0.548   1.486   1.764  0.2078  0.1269  0.3027
  278SOL    HW2 1158   0.508   1.464   1.680 -1.3402 -0.6211  1.2164
  278SOL    HW3 1159   0.586   1.573   1.750 -1.9508  0.9841 -0.5403
  278SOL    MW4 1160   0.548   1.495   1.751 -0.2813  0.1415  0.3121
  279SOL     OW 1161   3.153   1.414   2.112 -0.3432  0.5975 -0.2218
  279SOL    HW2 1162   3.114   1.441   2.029  1.3631 -3.1844 -2.3550
  279SOL    HW3 1163   3.206   1.490   2.139 -1.2392  2.0244 -2.3455
  279SOL    MW4 1164   3.155   1.428   2.105 -0.2365  0.2867 -0.7834
  280SOL     OW 1165   3.202   4.300   2.935 -0.2769  0.3186 -0.3476
  280SOL    HW2 1166   3.221   4.208   2.955 -1.0166  0.3130  0.3582
  280SOL    HW3 1167   3.288   4.342   2.932 -0.1034  0.2908  2.7564
  280SOL    MW4 1168   3.216   4.293   2.937 -0.3517  0.3142  0.1547
  281SOL     OW 1169   2.179   1.732   4.488 -0.4875  0.1197 -0.6474
  281SOL    HW2 1170   2.202   1.660   4.429 -2.1145 -0.3057 -0.7887
  281SOL    HW3 1171   2.254   1.740   4.547 -0.3301 -1.7623 -0.5724
  281SOL    MW4 1172   2.192   1.724   4.488 -0.6816 -0.1847 -0.6561
  282SOL     OW 1173   1.026   4.471   2.898  0.0757 -0.0500 -0.8000
  282SOL    HW2 1174   0.941   4.513   2.908 -0.8051 -2.1157  1.0633
  282SOL    HW3 1175   1.026   4.438   2.808 -0.4107  1.3836 -1.3327
  282SOL    MW4 1176   1.015   4.472   2.888 -0.1047 -0.1335 -0.6244
  283SOL     OW 1177   2.267   4.288   0.935  0.2100  0.0217  0.2926
  283SOL    HW2 1178   2.256   4.308   0.842  1.0904 -0.0607  0.1713
  283SOL    HW3 1179   2.349   4.332   0.960 -1.2969  2.2009  1.6450
  283SOL    MW4 1180   2.276   4.297   0.926  0.1271  0.2985  0.4550
  284SOL     OW 1181   2.428   1.768   4.647  0.1581 -0.1509 -0.2924
  284SOL    HW2 1182   2.467   1.855   4.651  1.8104 -0.8915  0.8787
  284SOL    HW3 1183   2.478   1.723   4.579 -0.3474 -0.3444 -0.5370
  284SOL    MW4 1184   2.440   1.773   4.639  0.3095 -0.2739 -0.1693
  285SOL     OW 1185   2.261   1.187   3.275  0.0716 -0.1005 -0.2199
  285SOL    HW2 1186   2.351   1.156   3.288  0.0347 -0.1123 -0.0005
  285SOL    HW3 1187   2.239   1.234   3.355  0.2175  0.7266 -0.6616
  285SOL    MW4 1188   2.270   1.189   3.287  0.0861  0.0070 -0.2489
  286SOL     OW 1189   1.193   2.827   0.534 -0.0750  0.2562  0.1051
  286SOL    HW2 1190   1.147   2.898   0.579  0.2181  0.1267  0.6184
  286SOL    HW3 1191   1.278   2.821   0.579 -0.1479 -0.5007  0.1542
  286SOL    MW4 1192   1.198   2.835   0.546 -0.0460  0.1390  0.1794
  287SOL     OW 1193   0.520   1.953   0.606  0.2220  0.1049  0.0299
  287SOL    HW2 1194   0.522   1.949   0.702  0.0466 -1.4918 -0.0129
  287SOL    HW3 1195   0.459   2.023   0.586  2.1985  2.2137  1.0860
  287SOL    MW4 1196   0.512   1.961   0.616  0.4596  0.1724  0.1636
  288SOL     OW 1197   1.483   3.033   3.886  0.5714  0.4173 -0.2561
  288SOL    HW2 1198   1.463   2.987   3.805  0.9010  1.3365 -0.8532
  288SOL    HW3 1199   1.579   3.039   3.887  0.7949 -2.1519  1.5996
  288SOL    MW4 1200   1.493   3.027   3.876  0.6443  0.1993 -0.0901
  289SOL     OW 1201   2.891   2.861   2.584 -0.1269 -0.0669 -0.0726
  289SOL    HW2 1202   2.803   2.832   2.560 -0.2894  1.2588 -1.1638
  289SOL    HW3 1203   2.945   2.839   2.508  0.3581 -0.2780  0.3300
  289SOL    MW4 1204   2.886   2.854   2.571 -0.0842  0.0799 -0.1636
  290SOL     OW 1205   3.376   3.577   3.007 -0.3449  0.4081 -0.2392
  290SOL    HW2 1206   3.426   3.530   3.074 -0.4945  1.0497  0.3261
  290SOL    HW3 1207   3.439   3.637   2.968 -0.8073  1.6600  0.8973
  290SOL    MW4 1208   3.391   3.578   3.011 -0.4258  0.6580 -0.0145
  291SOL     OW 1209   1.455   3.908   2.056 -0.0542 -0.4141 -0.4197
  291SOL    HW2 1210   1.500   3.987   2.086  1.9596 -2.0322  0.9745
  291SOL    HW3 1211   1.395   3.886   2.127 -0.5651 -0.1997 -0.7785
  291SOL    MW4 1212   1.453   3.916   2.069  0.1441 -0.5989 -0.2832
  292SOL     OW 1213   3.894   4.339   1.315 -0.1034  0.1791 -0.0494
  292SOL    HW2 1214   3.908   4.390   1.235 -0.8835  0.5784  0.0605
  292SOL    HW3 1215   3.800   4.342   1.328 -0.1018 -0.9515  0.1918
  292SOL    MW4 1216   3.884   4.346   1.306 -0.2062  0.0825 -0.0032
  293SOL     OW 1217   1.975   4.533   1.629  0.1272  0.5199 -0.2239
  293SOL    HW2 1218   2.018   4.570   1.705  1.2333  1.8442 -1.4665
  293SOL    HW3 1219   1.917   4.466   1.664 -0.1867  1.8584  1.8679
  293SOL    MW4 1220   1.973   4.529   1.643  0.2317  0.8712 -0.1118
  294SOL     OW 1221   4.070   2.537   1.928  0.3589  0.0454  0.2151
  294SOL    HW2 1222   4.060   2.629   1.903  2.6708  0.3940  0.4094
  294SOL    HW3 1223   4.163   2.529   1.951  0.2177 -2.3868  0.0524
  294SOL    MW4 1224   4.081   2.548   1.928  0.6456 -0.2296  0.2192
  295SOL     OW 1225   0.812   1.713   2.235  0.2573  0.1395  0.0121
  295SOL    HW2 1226   0.815   1.738   2.142  1.7586 -1.4325 -0.3834
  295SOL    HW3 1227   0.732   1.661   2.242 -0.5887  1.4111 -0.0954
  295SOL    MW4 1228   0.802   1.709   2.224  0.3438  0.0999 -0.0544
  296SOL     OW 1229   3.714   3.729   3.715 -0.0043 -0.1206 -0.6032
  296SOL    HW2 1230   3.742   3.667   3.783 -1.3374 -0.7341 -0.6132
  296SOL    HW3 1231   3.648   3.682   3.664 -1.6619  1.5804 -0.0851
  296SOL    MW4 1232   3.709   3.715   3.717 -0.3986  0.0226 -0.5360
  297SOL     OW 1233   2.828   1.312   3.485  0.0936  0.2534  0.9780
  297SOL    HW2 1234   2.862   1.331   3.573  2.4789 -1.2891  0.4323
  297SOL    HW3 1235   2.786   1.226   3.494  0.8371 -0.1654  0.4965
  297SOL    MW4 1236   2.827   1.303   3.498  0.5066 -0.0054  0.8426
  298SOL     OW 1237   2.304   0.382   2.831 -0.0960 -0.2229  0.6676
  298SOL    HW2 1238   2.251   0.370   2.752  0.7675 -2.5025  0.3906
  298SOL    HW3 1239   2.251   0.346   2.902  0.4723 -1.2401  0.5953
  298SOL    MW4 1240   2.290   0.376   2.830  0.0927 -0.6579  0.6213
  299SOL     OW 1241   2.994   2.297   1.573  0.2378 -0.2077 -0.3944
  299SOL    HW2 1242   3.088   2.283   1.564  0.5638  2.0117 -0.7292
  299SOL    HW3 1243   2.957   2.277   1.487  0.1522 -2.7853  0.2150
  299SOL    MW4 1244   3.001   2.293   1.560  0.2697 -0.2546 -0.3581
  300SOL     OW 1245   3.204   3.230   1.308  0.7686 -0.1884  0.1092
  300SOL    HW2 1246   3.279   3.273   1.266  1.1618 -1.0327 -0.0748
  300SOL    HW3 1247   3.239   3.146   1.338  0.0976 -0.2325  0.7656
  300SOL    MW4 1248   3.218   3.225   1.306  0.7319 -0.3052  0.1715
  301SOL     OW 1249   2.158   4.578   1.843  0.4231  0.4541 -0.1528
  301SOL    HW2 1250   2.173   4.484   1.831  1.6225  0.6646 -0.4029
  301SOL    HW3 1251   2.209   4.619   1.773  1.7791  1.3882  1.3315
  301SOL    MW4 1252   2.167   4.571   1.832  0.7601  0.6046  0.0099
  302SOL     OW 1253   2.174   1.379   4.013 -0.0884  0.1307  0.1729
  302SOL    HW2 1254   2.083   1.396   3.990 -0.5034 -3.3071 -1.0145
  302SOL    HW3 1255   2.172   1.297   4.061  2.1832  1.0438  1.9354
  302SOL    MW4 1256   2.162   1.371   4.016  0.1566 -0.2024  0.2489
  303SOL     OW 1257   0.912   2.077   1.267  0.1652  0.2564  0.0751
  303SOL    HW2 1258   0.846   2.131   1.224 -1.1065  0.8159  2.6446
  303SOL    HW3 1259   0.929   2.006   1.205 -2.1407  0.6274 -1.0354
  303SOL    MW4 1260   0.906   2.074   1.253 -0.3068  0.3793  0.2677
  304SOL     OW 1261   2.048   0.288   2.140 -0.2389  0.4127  0.3682
  304SOL    HW2 1262   1.995   0.268   2.217 -0.1865 -1.2516 -0.0071
  304SOL    HW3 1263   2.024   0.221   2.076  0.6710  0.9936 -0.6018
  304SOL    MW4 1264   2.038   0.277   2.142 -0.1121  0.2697  0.1907
  305SOL     OW 1265   3.049   2.903   1.024  0.0026 -0.3798 -0.5489
  305SOL    HW2 1266   2.965   2.878   0.985  0.3905 -0.7060 -1.1777
  305SOL    HW3 1267   3.058   2.996   1.004 -0.3088 -0.2902 -0.2880
  305SOL    MW4 1268   3.039   2.912   1.016  0.0129 -0.4110 -0.5974
  306SOL     OW 1269   1.174   0.763   1.828  0.1087  0.4881  0.4077
  306SOL    HW2 1270   1.184   0.668   1.837  0.5896  0.3919 -0.9935
  306SOL    HW3 1271   1.080   0.778   1.831  0.1015  0.1645  2.3676
  306SOL    MW4 1272   1.163   0.752   1.830  0.1713  0.4327  0.4815
  307SOL     OW 1273   0.434   4.434   4.186  0.3336 -0.2111 -0.1226
  307SOL    HW2 1274   0.374   4.481   4.127 -1.1311 -0.1486  1.3787
  307SOL    HW3 1275   0.507   4.494   4.199 -1.2720  1.4796  1.3610
  307SOL    MW4 1276   0.435   4.448   4.180 -0.0715  0.0205  0.2708
  308SOL     OW 1277   2.581   2.795   1.978  0.1084 -0.5010 -0.0951
  308SOL    HW2 1278   2.520   2.842   2.036 -0.9616 -2.0547  0.0736
  308SOL    HW3 1279   2.564   2.832   1.891 -1.5795 -1.3591 -0.1649
  308SOL    MW4 1280   2.570   2.806   1.974 -0.2553 -0.8192 -0.0820
  309SOL     OW 1281   4.244   3.368   0.932  0.4253  0.6158  0.0471
  309SOL    HW2 1282   4.332   3.359   0.970 -0.2675 -2.3402  1.0130
  309SOL    HW3 1283   4.231   3.288   0.882 -0.8259  2.0913 -2.0605
  309SOL    MW4 1284   4.254   3.357   0.931  0.1688  0.4206 -0.1035
  310SOL     OW 1285   3.809   0.558   4.569  0.4869  0.5419 -0.4540
  310SOL    HW2 1286   3.804   0.610   4.488 -0.9420  0.9813 -0.0942
  310SOL    HW3 1287   3.760   0.479   4.549  2.1990 -0.4533 -0.8180
  310SOL    MW4 1288   3.802   0.555   4.555  0.5243  0.4686 -0.4539
  311SOL     OW 1289   3.516   3.962   1.393 -0.0266  0.2754  0.2567
  311SOL    HW2 1290   3.513   4.048   1.351 -1.7156 -0.2876 -0.8299
  311SOL    HW3 1291   3.491   3.901   1.324 -0.1866 -0.9413  1.3803
  311SOL    MW4 1292   3.512   3.965   1.379 -0.2704  0.0403  0.2615
  312SOL     OW 1293   2.795   0.956   3.293  0.1950 -0.1481  0.4247
  312SOL    HW2 1294   2.797   0.910   3.209  0.4057 -0.8975  0.8380
  312SOL    HW3 1295   2.874   1.009   3.294 -0.3228  0.6419 -0.2890
  312SOL    MW4 1296   2.805   0.957   3.282  0.1545 -0.1427  0.3850
  313SOL     OW 1297   1.942   3.728   3.763  0.1420 -0.0551 -0.1343
  313SOL    HW2 1298   1.874   3.795   3.755  1.2387  0.8178 -2.7438
  313SOL    HW3 1299   1.989   3.751   3.843  0.4603  2.2857 -0.9576
  313SOL    MW4 1300   1.939   3.740   3.773  0.3285  0.3688 -0.5872
  314SOL     OW 1301   2.509   0.963   3.018 -0.1073  0.3777 -0.0856
  314SOL    HW2 1302   2.500   1.025   3.090 -1.4561  0.2940 -0.1693
  314SOL    HW3 1303   2.523   0.879   3.060  0.5049  0.5433  0.0481
  314SOL    MW4 1304   2.509   0.960   3.033 -0.2043  0.3885 -0.0789
  315SOL     OW 1305   0.998   0.534   2.561 -0.4416 -0.2578  0.4129
  315SOL    HW2 1306   0.927   0.525   2.498  1.0269  0.2948 -1.3418
  315SOL    HW3 1307   1.069   0.480   2.526  0.7462  0.8381  1.0747
  315SOL    MW4 1308   0.998   0.526   2.548 -0.0911 -0.0403  0.2687
  316SOL     OW 1309   0.249   1.960   1.048  0.1442  0.2311  0.1458
  316SOL    HW2 1310   0.335   1.960   1.091 -0.6224  1.2302  1.7271
  316SOL    HW3 1311   0.255   2.029   0.982  0.4034  0.6212  0.5758
  316SOL    MW4 1312   0.261   1.969   1.045  0.0773  0.4144  0.4112
  317SOL     OW 1313   0.305   0.662   4.341 -0.7827  0.0809  0.9251
  317SOL    HW2 1314   0.319   0.721   4.415  1.0799  0.0726  0.5976
  317SOL    HW3 1315   0.357   0.584   4.362  0.5912  0.4925 -0.8651
  317SOL    MW4 1316   0.313   0.659   4.354 -0.3558  0.1341  0.6456
  318SOL     OW 1317   0.609   0.577   4.571 -0.1016 -0.2358  0.1390
  318SOL    HW2 1318   0.563   0.633   4.634 -0.1464  1.0531 -1.0242
  318SOL    HW3 1319   0.679   0.537   4.622 -0.7443  0.0319  1.2507
  318SOL    MW4 1320   0.612   0.579   4.586 -0.1923 -0.0304  0.1330
  319SOL     OW 1321   3.946   3.730   3.566 -0.2905 -0.2954  0.5804
  319SOL    HW2 1322   3.860   3.717   3.607 -1.6329 -0.3152 -2.1440
  319SOL    HW3 1323   3.951   3.825   3.552  1.2226  0.0195  2.9214
  319SOL    MW4 1324   3.935   3.741   3.569 -0.2680 -0.2565  0.5300
  320SOL     OW 1325   1.513   3.914   3.041  0.6444  0.0591 -0.0590
  320SOL    HW2 1326   1.492   3.847   3.107  0.8186 -1.2461 -1.2979
  320SOL    HW3 1327   1.470   3.993   3.073 -0.8779 -1.0191  0.6428
  320SOL    MW4 1328   1.505   3.915   3.054  0.4666 -0.2556 -0.1297
  321SOL     OW 1329   0.639   1.923   2.276  0.3191 -0.2663  0.5867
  321SOL    HW2 1330   0.693   2.000   2.295 -0.3482  0.3702 -0.0618
  321SOL    HW3 1331   0.702   1.852   2.262  0.9630  0.3201  0.4798
  321SOL    MW4 1332   0.654   1.924   2.277  0.3161 -0.1050  0.4871
  322SOL     OW 1333   1.274   2.049   4.360 -0.7817  0.2001  0.1212
  322SOL    HW2 1334   1.324   1.989   4.304 -0.4940  1.0518 -0.5543
  322SOL    HW3 1335   1.213   2.091   4.300 -0.3746  1.2235  0.4159
  322SOL    MW4 1336   1.273   2.047   4.345 -0.6900  0.4473  0.0715
  323SOL     OW 1337   2.861   2.582   2.267  0.1678 -0.1606  0.1040
  323SOL    HW2 1338   2.903   2.534   2.196  0.5952  2.9493 -1.8355
  323SOL    HW3 1339   2.929   2.641   2.300 -0.7058  0.0678  1.5671
  323SOL    MW4 1340   2.875   2.583   2.262  0.1090  0.2799  0.0412
  324SOL     OW 1341   1.420   4.658   0.902  0.1588 -0.1920  0.1669
  324SOL    HW2 1342   1.393   4.603   0.829  0.9714  0.8406 -0.9272
  324SOL    HW3 1343   1.340   4.670   0.954 -0.3804 -1.0763 -0.4451
  324SOL    MW4 1344   1.406   4.652   0.899  0.1949 -0.1721 -0.0582
  325SOL     OW 1345   1.362   1.411   2.219  0.2110  0.5802 -0.5341
  325SOL    HW2 1346   1.389   1.503   2.211  1.1643  0.1347 -2.9222
  325SOL    HW3 1347   1.267   1.415   2.230 -0.0139  1.7907 -2.7169
  325SOL    MW4 1348   1.353   1.424   2.220  0.3072  0.6812 -1.1373
  326SOL     OW 1349   1.521   1.044   4.624 -0.0626 -0.4033 -0.1803
  326SOL    HW2 1350   1.447   1.056   4.684 -1.0997 -2.5939 -0.9861
  326SOL    HW3 1351   1.488   1.074   4.539  0.5109  0.0916 -0.2352
  326SOL    MW4 1352   1.507   1.050   4.621 -0.1237 -0.6272 -0.2937
  327SOL     OW 1353   1.523   3.219   4.526 -0.0157 -0.0460  0.1306
  327SOL    HW2 1354   1.516   3.314   4.514 -1.2865 -0.2410 -0.8753
  327SOL    HW3 1355   1.434   3.192   4.550  0.2678 -1.0233  0.0976
  327SOL    MW4 1356   1.510   3.228   4.528 -0.1459 -0.2007 -0.0067
  328SOL     OW 1357   2.217   4.368   4.043  0.3745  0.3818  0.3959
  328SOL    HW2 1358   2.215   4.404   3.954 -0.2826 -0.2366  0.1521
  328SOL    HW3 1359   2.222   4.274   4.031  2.1688  0.3908  1.0399
  328SOL    MW4 1360   2.217   4.361   4.030  0.5248  0.3018  0.4487
  329SOL     OW 1361   1.262   2.578   3.260  0.1954  0.2438 -0.0835
  329SOL    HW2 1362   1.213   2.578   3.178 -0.6116  1.3990  0.3767
  329SOL    HW3 1363   1.332   2.515   3.247 -0.7963 -0.6599 -1.1426
  329SOL    MW4 1364   1.264   2.570   3.248 -0.0420  0.2768 -0.1624
  330SOL     OW 1365   4.447   3.880   3.059 -0.1267 -0.0884 -0.1679
  330SOL    HW2 1366   4.389   3.868   3.135 -0.2662  2.6073  0.1728
  330SOL    HW3 1367   4.527   3.832   3.082 -1.4442 -2.2209  0.1706
  330SOL    MW4 1368   4.450   3.872   3.072 -0.3190 -0.0141 -0.0784
  331SOL     OW 1369   1.475   0.316   3.956 -0.1230 -0.5595  0.1883
  331SOL    HW2 1370   1.530   0.285   3.883 -1.3896  0.3909 -1.2068
  331SOL    HW3 1371   1.412   0.245   3.970  0.9975 -1.3477  1.3190
  331SOL    MW4 1372   1.474   0.302   3.948 -0.1422 -0.5381  0.1533
  332SOL     OW 1373   3.778   4.103   4.143 -0.7656  0.3071  0.0193
  332SOL    HW2 1374   3.827   4.158   4.204 -0.7318  0.1195  0.1626
  332SOL    HW3 1375   3.795   4.014   4.173 -0.4579  0.1933 -0.4791
  332SOL    MW4 1376   3.787   4.098   4.155 -0.7207  0.2675 -0.0277
  333SOL     OW 1377   1.408   2.242   0.763 -0.2693  0.1689  0.5763
  333SOL    HW2 1378   1.443   2.153   0.757 -0.4299  0.0972  0.7020
  333SOL    HW3 1379   1.485   2.298   0.758 -0.0303 -0.0255  1.9739
  333SOL    MW4 1380   1.423   2.238   0.762 -0.2590  0.1335  0.7773
  334SOL     OW 1381   2.601   4.061   3.715 -0.1252  0.0321 -0.9892
  334SOL    HW2 1382   2.601   4.062   3.620  0.5152  1.4210 -0.9884
  334SOL    HW3 1383   2.621   4.152   3.740  0.0349 -0.3883  0.4568
  334SOL    MW4 1384   2.604   4.073   3.706 -0.0196  0.1607 -0.7982
  335SOL     OW 1385   2.925   1.242   2.546 -0.0817  0.6069  0.2472
  335SOL    HW2 1386   2.975   1.311   2.502  1.5274 -0.5374  0.2547
  335SOL    HW3 1387   2.980   1.164   2.540 -1.7749 -0.6346  0.4544
  335SOL    MW4 1388   2.938   1.241   2.540 -0.0927  0.2922  0.2761
  336SOL     OW 1389   2.649   0.119   4.063 -0.1841  0.0291 -0.0904
  336SOL    HW2 1390   2.740   0.093   4.076 -0.1326  0.7733  1.0903
  336SOL    HW3 1391   2.603   0.036   4.046  0.4012 -0.5752  1.1808
  336SOL    MW4 1392   2.655   0.105   4.063 -0.1001  0.0476  0.2332
  337SOL     OW 1393   0.060   3.377   4.384 -0.1722  0.2838 -0.1803
  337SOL    HW2 1394   0.118   3.437   4.337 -0.2425  1.4995  1.2547
  337SOL    HW3 1395  -0.014   3.431   4.411 -1.4707 -1.0176 -1.0359
  337SOL    MW4 1396   0.058   3.392   4.381 -0.3528  0.2725 -0.1040
  338SOL     OW 1397   3.361   2.683   3.330 -0.1193 -0.0404  0.0601
  338SOL    HW2 1398   3.424   2.662   3.399  0.9250  0.7594 -0.6487
  338SOL    HW3 1399   3.319   2.764   3.359  1.3766  1.1174 -0.9356
  338SOL    MW4 1400   3.363   2.691   3.343  0.2158  0.2179 -0.1650
  339SOL     OW 1401   1.825   1.566   2.581  0.1236 -0.2313 -0.2024
  339SOL    HW2 1402   1.737   1.534   2.600 -0.8415  2.3855 -0.0320
  339SOL    HW3 1403   1.816   1.661   2.581  2.5447  0.0357 -2.2389
  339SOL    MW4 1404   1.812   1.574   2.584  0.3157  0.1490 -0.4487
  340SOL     OW 1405   2.282   0.604   4.206 -0.4157  0.0920 -0.5580
  340SOL    HW2 1406   2.370   0.578   4.177  0.1364  1.8122 -0.4941
  340SOL    HW3 1407   2.259   0.678   4.150 -1.3016  0.4468  0.2575
  340SOL    MW4 1408   2.291   0.611   4.195 -0.4594  0.3657 -0.4416
  341SOL     OW 1409   2.598   0.584   2.551  0.2325  0.1829  0.2300
  341SOL    HW2 1410   2.575   0.494   2.574  0.3777  0.0595 -0.1031
  341SOL    HW3 1411   2.666   0.574   2.484 -1.6529  0.5473 -1.7626
  341SOL    MW4 1412   2.604   0.570   2.545  0.0029  0.2147 -0.0765
  342SOL     OW 1413   0.943   0.097   2.507 -0.3643 -0.0408 -0.1859
  342SOL    HW2 1414   0.898   0.146   2.438 -0.5222  1.3809  0.8938
  342SOL    HW3 1415   0.891   0.114   2.586  1.9910  1.5982  1.0733
  342SOL    MW4 1416   0.930   0.106   2.508 -0.0743  0.3631  0.1225
  343SOL     OW 1417   3.200   2.592   2.611 -0.8005  0.0701 -0.0338
  343SOL    HW2 1418   3.132   2.563   2.673 -0.2347  0.9962  1.0343
  343SOL    HW3 1419   3.226   2.511   2.566  1.0361 -1.2569  3.1860
  343SOL    MW4 1420   3.194   2.577   2.613 -0.4838  0.0174  0.5317
  344SOL     OW 1421   0.345   3.732   1.541 -0.0112  0.0950  0.0315
  344SOL    HW2 1422   0.354   3.647   1.499  0.4137 -0.5740  1.4723
  344SOL    HW3 1423   0.252   3.740   1.560  0.0485 -0.3431  0.5098
  344SOL    MW4 1424   0.334   3.722   1.538  0.0528 -0.0510  0.2848
  345SOL     OW 1425   2.988   2.934   4.685  0.3452 -0.2606  0.3434
  345SOL    HW2 1426   2.906   2.964   4.646  1.5865  0.3585 -1.8768
  345SOL    HW3 1427   2.972   2.843   4.709 -1.3807  0.2225  1.1073
  345SOL    MW4 1428   2.975   2.926   4.683  0.2813 -0.1152  0.1507
  346SOL     OW 1429   2.756   2.123   3.121 -0.0207  0.4282  0.0596
  346SOL    HW2 1430   2.715   2.099   3.038  0.9285  0.6756 -0.4926
  346SOL    HW3 1431   2.850   2.112   3.105  0.0538 -2.1694  1.9211
  346SOL    MW4 1432   2.763   2.118   3.108  0.1144  0.1180  0.2327
  347SOL     OW 1433   4.129   2.137   2.636 -0.1179  0.0389  0.6690
  347SOL    HW2 1434   4.178   2.165   2.558 -1.8728  0.0371 -0.4625
  347SOL    HW3 1435   4.190   2.080   2.683  1.0982  0.3246 -0.5260
  347SOL    MW4 1436   4.144   2.133   2.632 -0.1893  0.0763  0.3622
  348SOL     OW 1437   2.926   0.847   2.576 -0.1869 -0.0663  0.1531
  348SOL    HW2 1438   3.003   0.900   2.594  0.7055 -1.3793  0.3083
  348SOL    HW3 1439   2.853   0.909   2.578  0.7957  1.1050  0.5333
  348SOL    MW4 1440   2.927   0.862   2.579  0.0606 -0.0851  0.2239
  349SOL     OW 1441   1.122   0.010   3.241  0.7374  0.0126  0.4488
  349SOL    HW2 1442   1.147   0.100   3.222 -2.0896  0.8097  0.4078
  349SOL    HW3 1443   1.109   0.008   3.336  1.9015 -0.6677  0.6105
  349SOL    MW4 1444   1.124   0.021   3.251  0.5180  0.0281  0.4649
  350SOL     OW 1445   2.539   2.023   4.554  0.1670  0.1711 -0.1094
  350SOL    HW2 1446   2.618   2.050   4.600  0.7579  1.8834 -2.0696
  350SOL    HW3 1447   2.500   2.105   4.523 -1.3059 -0.7979 -0.8921
  350SOL    MW4 1448   2.544   2.037   4.556  0.0508  0.2692 -0.4716
  351SOL     OW 1449   0.332   2.623   0.797  0.3516 -0.0315  0.2074
  351SOL    HW2 1450   0.319   2.704   0.847  0.5131  0.3104 -0.2972
  351SOL    HW3 1451   0.424   2.625   0.772  0.1827 -0.0245 -0.4076
  351SOL    MW4 1452   0.342   2.634   0.800  0.3506  0.0143  0.0597
  352SOL     OW 1453   1.506   1.880   3.660  0.3211  0.6859 -0.0300
  352SOL    HW2 1454   1.505   1.803   3.716  0.2131  0.7139  0.0055
  352SOL    HW3 1455   1.581   1.931   3.692  0.4663  0.5392 -0.1330
  352SOL    MW4 1456   1.516   1.877   3.672  0.3260  0.6704 -0.0389
  353SOL     OW 1457   2.868   3.229   1.819  0.0678  0.5365  0.0796
  353SOL    HW2 1458   2.832   3.313   1.849  0.0959  0.0915  1.3681
  353SOL    HW3 1459   2.921   3.253   1.743  0.6968  1.8046  0.8906
  353SOL    MW4 1460   2.870   3.243   1.813  0.1543  0.6452  0.3566
  354SOL     OW 1461   2.906   2.580   0.866 -0.3115  0.0931 -0.1472
  354SOL    HW2 1462   2.827   2.549   0.910  0.1140  0.3552  0.8187
  354SOL    HW3 1463   2.894   2.675   0.858  0.8821  0.4785  2.0775
  354SOL    MW4 1464   2.894   2.589   0.871 -0.0978  0.1788  0.2738
  355SOL     OW 1465   0.106   2.084   4.306  0.0930  0.0440 -0.1876
  355SOL    HW2 1466   0.100   2.175   4.277  0.9930  0.2926  0.3858
  355SOL    HW3 1467   0.198   2.073   4.332  0.1012 -1.1672 -0.7063
  355SOL    MW4 1468   0.118   2.095   4.306  0.2128 -0.0832 -0.1802
  356SOL     OW 1469   1.033   2.818   3.729 -0.1659  0.0328  0.1654
  356SOL    HW2 1470   1.052   2.852   3.641  1.1109  0.0288  0.4274
  356SOL    HW3 1471   0.939   2.832   3.740 -0.3193  0.1280 -1.1615
  356SOL    MW4 1472   1.023   2.825   3.719 -0.0179  0.0448  0.0248
  357SOL     OW 1473   0.332   2.660   2.132  0.5236 -0.0400  0.5889
  357SOL    HW2 1474   0.260   2.660   2.196 -1.0201  1.5218 -1.1176
  357SOL    HW3 1475   0.295   2.618   2.055  1.0471  1.8388 -0.7112
  357SOL    MW4 1476   0.317   2.654   2.130  0.3890  0.4137  0.1924
  358SOL     OW 1477   3.855   4.497   3.672  0.2132  0.0967 -0.1865
  358SOL    HW2 1478   3.941   4.458   3.684 -0.4902 -1.3786  0.2170
  358SOL    HW3 1479   3.801   4.459   3.742 -1.0097  0.2428 -1.0294
  358SOL    MW4 1480   3.859   4.487   3.683 -0.0410 -0.0792 -0.2449
  359SOL     OW 1481   1.437   1.025   3.491  0.5518 -0.1240 -0.7202
  359SOL    HW2 1482   1.448   1.115   3.522  1.3763 -0.0614 -1.1763
  359SOL    HW3 1483   1.524   0.986   3.501  0.1283 -0.9544 -0.2677
  359SOL    MW4 1484   1.450   1.032   3.496  0.6047 -0.2253 -0.7210
  360SOL     OW 1485   4.128   0.366   4.466  0.0941 -0.2944 -0.1523
  360SOL    HW2 1486   4.064   0.357   4.396  1.9454 -0.3345 -1.8814
  360SOL    HW3 1487   4.076   0.364   4.547 -2.0274 -0.6032 -1.4924
  360SOL    MW4 1488   4.113   0.365   4.468  0.0582 -0.3404 -0.5574
  361SOL     OW 1489   3.525   3.488   2.648  0.1068 -0.1190 -0.3856
  361SOL    HW2 1490   3.598   3.438   2.685 -0.9263 -0.9307  0.5769
  361SOL    HW3 1491   3.449   3.463   2.700 -0.6214  1.7425 -0.5208
  361SOL    MW4 1492   3.525   3.478   2.660 -0.1256  0.0193 -0.2763
  362SOL     OW 1493   3.320   3.035   2.948  0.3186  0.1747  0.2965
  362SOL    HW2 1494   3.343   3.064   2.860 -0.6224  1.2193  0.3798
  362SOL    HW3 1495   3.243   3.087   2.971  0.5522 -0.0918  1.7351
  362SOL    MW4 1496   3.313   3.046   2.940  0.2253  0.2773  0.4973
  363SOL     OW 1497   0.626   2.654   1.678  0.3398  0.0048 -0.2834
  363SOL    HW2 1498   0.534   2.629   1.671  0.1433  0.1633  1.4845
  363SOL    HW3 1499   0.626   2.735   1.729  1.4015  0.4467 -0.9569
  363SOL    MW4 1500   0.614   2.661   1.684  0.4539  0.0842 -0.1389
  364SOL     OW 1501   2.551   0.556   4.058 -0.2467 -0.1717  0.0174
  364SOL    HW2 1502   2.634   0.509   4.066 -1.0153 -1.7286 -0.8723
  364SOL    HW3 1503   2.500   0.504   3.995 -1.0851  1.9119 -1.0741
  364SOL    MW4 1504   2.555   0.543   4.051 -0.4585 -0.1023 -0.2437
  365SOL     OW 1505   2.290   2.333   2.189  0.1070  0.2453 -0.6408
  365SOL    HW2 1506   2.307   2.423   2.218 -0.6129  0.2551 -0.2158
  365SOL    HW3 1507   2.221   2.343   2.123 -0.6415 -0.0669  0.0809
  365SOL    MW4 1508   2.283   2.346   2.184 -0.0868  0.2055 -0.4897
  366SOL     OW 1509   3.729   0.762   1.395 -0.3437  0.0917  0.4525
  366SOL    HW2 1510   3.708   0.676   1.360  0.5483  0.2303 -0.4263
  366SOL    HW3 1511   3.780   0.805   1.326 -2.0048  1.8666  0.2993
  366SOL    MW4 1512   3.733   0.756   1.382 -0.4451  0.3441  0.3164
  367SOL     OW 1513   2.869   2.818   2.054  0.1358 -0.4425  0.1989
  367SOL    HW2 1514   2.783   2.805   2.015  1.1371  2.0698 -3.0187
  367SOL    HW3 1515   2.917   2.737   2.034 -0.7290 -0.9048 -0.0352
  367SOL    MW4 1516   2.864   2.806   2.046  0.1538 -0.1719 -0.2565
  368SOL     OW 1517   2.476   0.233   4.253  0.4196  0.1792  0.0386
  368SOL    HW2 1518   2.389   0.207   4.223  0.7837  0.8134 -1.6153
  368SOL    HW3 1519   2.536   0.181   4.200  1.0892  2.1317 -1.2008
  368SOL    MW4 1520   2.472   0.223   4.242  0.5558  0.5205 -0.3433
  369SOL     OW 1521   0.968   3.283   1.544 -0.5151  0.2395 -0.0818
  369SOL    HW2 1522   0.944   3.253   1.456  0.5417  2.9813 -1.3604
  369SOL    HW3 1523   1.061   3.261   1.552 -1.0978 -1.8847  1.2010
  369SOL    MW4 1524   0.977   3.276   1.534 -0.4525  0.3209 -0.0811
  370SOL     OW 1525   0.191   0.612   3.394 -0.2929  0.2362  0.0091
  370SOL    HW2 1526   0.276   0.640   3.359  0.3593 -2.7617 -0.9802
  370SOL    HW3 1527   0.127   0.643   3.330  0.4084 -0.5461 -1.0881
  370SOL    MW4 1528   0.194   0.620   3.381 -0.1143 -0.2626 -0.2661
  371SOL     OW 1529   1.352   0.064   3.989  0.6404  0.7828 -0.2667
  371SOL    HW2 1530   1.273   0.066   3.934  0.6453  0.3924 -0.2900
  371SOL    HW3 1531   1.365  -0.029   4.008  2.8809  0.5036 -2.8678
  371SOL    MW4 1532   1.343   0.052   3.984  0.9365  0.6945 -0.6130
  372SOL     OW 1533   2.278   2.946   3.165  0.5274 -0.3349  0.1906
  372SOL    HW2 1534   2.238   2.999   3.096 -0.5028 -2.0598 -0.5621
  372SOL    HW3 1535   2.301   3.009   3.234 -0.8631  1.0558 -0.5971
  372SOL    MW4 1536   2.276   2.961   3.165  0.2081 -0.3788 -0.0126
  373SOL     OW 1537   3.289   1.177   2.082  0.2129 -0.1936 -0.3170
  373SOL    HW2 1538   3.239   1.258   2.092  0.1402 -0.3525  0.6908
  373SOL    HW3 1539   3.279   1.133   2.166  1.4327 -0.5808 -0.3726
  373SOL    MW4 1540   3.281   1.182   2.094  0.3643 -0.2657 -0.1912
  374SOL     OW 1541   0.907   2.363   2.014  0.2840  0.3601 -0.2435
  374SOL    HW2 1542   0.993   2.393   1.983  0.3670  1.0623  0.6354
  374SOL    HW3 1543   0.845   2.406   1.955  0.4745  1.0445  0.0474
  374SOL    MW4 1544   0.910   2.373   2.002  0.3201  0.5429 -0.0894
  375SOL     OW 1545   1.518   1.655   2.230  0.2377  0.3363 -0.1958
  375SOL    HW2 1546   1.545   1.731   2.179 -0.0148  1.0620  0.7551
  375SOL    HW3 1547   1.521   1.684   2.321 -2.3341  0.0010  0.0377
  375SOL    MW4 1548   1.522   1.669   2.235 -0.1349  0.3878 -0.0396
  376SOL     OW 1549   4.110   2.527   3.923  0.7130 -0.6898 -0.6644
  376SOL    HW2 1550   4.175   2.581   3.970 -0.8809  1.4586 -0.8606
  376SOL    HW3 1551   4.045   2.505   3.989  1.1053 -2.0133 -0.7050
  376SOL    MW4 1552   4.110   2.532   3.938  0.5546 -0.5808 -0.6955
  377SOL     OW 1553   1.555   2.632   4.458 -0.4296 -0.6556 -0.1734
  377SOL    HW2 1554   1.621   2.648   4.391 -0.6415  1.6871  0.1517
  377SOL    HW3 1555   1.595   2.567   4.516 -0.3354 -2.8598 -2.6359
  377SOL    MW4 1556   1.569   2.625   4.457 -0.4451 -0.6373 -0.4554
  378SOL     OW 1557   0.204   1.028   2.174  0.0830  0.5612 -0.4432
  378SOL    HW2 1558   0.266   0.958   2.156 -0.4898  0.1166 -0.6945
  378SOL    HW3 1559   0.256   1.095   2.218  0.8191  0.3322 -0.9428
  378SOL    MW4 1560   0.219   1.028   2.177  0.1045  0.4724 -0.5422
  379SOL     OW 1561   3.978   3.611   3.298  0.2893 -0.0156  0.4113
  379SOL    HW2 1562   4.072   3.597   3.287  0.6775  3.5254 -1.2678
  379SOL    HW3 1563   3.969   3.648   3.385  0.6680  1.1617 -0.0366
  379SOL    MW4 1564   3.989   3.614   3.308  0.3905  0.6070  0.1307
  380SOL     OW 1565   1.111   2.613   3.900 -0.2604  0.4528 -0.4410
  380SOL    HW2 1566   1.169   2.643   3.969  0.7923 -2.0792 -0.1759
  380SOL    HW3 1567   1.124   2.675   3.828  0.6784  1.5024  0.6283
  380SOL    MW4 1568   1.120   2.625   3.900  0.0024  0.2573 -0.2651
  381SOL     OW 1569   0.757   1.189   1.622 -0.1494 -0.4890 -0.1383
  381SOL    HW2 1570   0.758   1.200   1.717 -0.8042 -1.0741 -0.0647
  381SOL    HW3 1571   0.667   1.167   1.601 -0.5951  2.1519 -1.2027
  381SOL    MW4 1572   0.746   1.188   1.632 -0.2946 -0.2177 -0.2691
  382SOL     OW 1573   0.049   4.558   1.648 -0.8371 -0.1056  0.2309
  382SOL    HW2 1574  -0.015   4.612   1.694 -0.3972  0.0208  0.6996
  382SOL    HW3 1575   0.021   4.560   1.556 -0.9519  0.7310  0.2813
  382SOL    MW4 1576   0.037   4.565   1.642 -0.7942  0.0215  0.2993
  383SOL     OW 1577   0.169   3.725   3.407  0.4157 -0.1504 -0.2968
  383SOL    HW2 1578   0.252   3.698   3.446  0.4445  0.5128  0.0992
  383SOL    HW3 1579   0.153   3.660   3.338  0.3260 -1.3874  0.8571
  383SOL    MW4 1580   0.177   3.713   3.403  0.4077 -0.2263 -0.0923
  384SOL     OW 1581   0.757   2.089   3.992 -0.2669  0.0321  1.1277
  384SOL    HW2 1582   0.845   2.050   3.988 -0.1625  0.3779 -0.3145
  384SOL    HW3 1583   0.710   2.050   3.919 -1.6131 -0.7967  2.4000
  384SOL    MW4 1584   0.763   2.079   3.982 -0.4308 -0.0317  1.1055
  385SOL     OW 1585   4.124   1.937   1.045 -0.4111  0.2212 -0.0749
  385SOL    HW2 1586   4.193   1.988   1.002 -0.4986 -1.5346 -2.3441
  385SOL    HW3 1587   4.171   1.880   1.106 -0.0140  0.4646 -0.1493
  385SOL    MW4 1588   4.139   1.936   1.048 -0.3705  0.0217 -0.3841
  386SOL     OW 1589   3.152   4.297   3.863  0.0766  0.6758 -0.0164
  386SOL    HW2 1590   3.061   4.268   3.870  0.6208 -0.7649  1.2783
  386SOL    HW3 1591   3.175   4.325   3.952  0.4961  2.2992 -0.6195
  386SOL    MW4 1592   3.143   4.297   3.876  0.2036  0.7000  0.0751
  387SOL     OW 1593   1.139   3.000   3.479  0.0455 -0.0810  0.3084
  387SOL    HW2 1594   1.209   2.961   3.426 -0.6448  0.4285 -1.0045
  387SOL    HW3 1595   1.184   3.064   3.534  0.5752  0.5423 -0.8177
  387SOL    MW4 1596   1.154   3.003   3.479  0.0243  0.0684 -0.0136
  388SOL     OW 1597   3.878   1.537   2.078  0.2424 -0.1542 -0.1164
  388SOL    HW2 1598   3.924   1.613   2.111  0.9879  0.3273 -2.1940
  388SOL    HW3 1599   3.818   1.571   2.012  1.3449 -1.4732 -1.8305
  388SOL    MW4 1600   3.876   1.551   2.074  0.4861 -0.2646 -0.6170
  389SOL     OW 1601   0.028   4.582   4.079  0.2449  0.7019 -0.0840
  389SOL    HW2 1602   0.022   4.674   4.106  0.3753  0.4170  0.9716
  389SOL    HW3 1603  -0.000   4.533   4.157  0.4812 -0.1579 -0.5323
  389SOL    MW4 1604   0.023   4.587   4.093  0.2932  0.5507 -0.0038
  390SOL     OW 1605   1.369   3.477   1.159 -0.4537 -0.0616 -0.0997
  390SOL    HW2 1606   1.274   3.488   1.154 -0.3316  0.7879 -0.7978
  390SOL    HW3 1607   1.392   3.502   1.249 -1.0828 -1.9131  0.5908
  390SOL    MW4 1608   1.360   3.482   1.170 -0.5206 -0.1938 -0.1006
  391SOL     OW 1609   1.895   1.570   4.345 -0.1464 -0.0032  0.2798
  391SOL    HW2 1610   1.987   1.599   4.340  0.4530 -1.4828  2.3688
  391SOL    HW3 1611   1.900   1.475   4.350 -1.6955  0.0186  2.5598
  391SOL    MW4 1612   1.908   1.562   4.345 -0.2716 -0.1956  0.8564
  392SOL     OW 1613   4.339   0.650   0.398 -0.4692 -0.3228 -0.0205
  392SOL    HW2 1614   4.282   0.577   0.425  0.4191 -1.6828 -1.7218
  392SOL    HW3 1615   4.314   0.668   0.308  0.5734  0.2642 -0.2027
  392SOL    MW4 1616   4.328   0.642   0.390 -0.2151 -0.4248 -0.2690
  393SOL     OW 1617   3.037   0.490   0.829  0.1406  0.4161  0.2148
  393SOL    HW2 1618   3.018   0.511   0.738 -0.4370 -0.5896  0.0929
  393SOL    HW3 1619   3.131   0.472   0.831 -0.1477 -1.2752 -0.5370
  393SOL    MW4 1620   3.047   0.491   0.817  0.0265  0.0602  0.0995
  394SOL     OW 1621   0.406   3.396   3.177 -0.0137 -0.4541 -0.0091
  394SOL    HW2 1622   0.487   3.446   3.170 -0.8319  0.8833  0.0148
  394SOL    HW3 1623   0.399   3.375   3.270 -0.3429  0.5108  0.1841
  394SOL    MW4 1624   0.416   3.400   3.188 -0.1650 -0.1502  0.0196
  395SOL     OW 1625   1.964   0.318   1.665 -0.0173 -0.3327 -0.0644
  395SOL    HW2 1626   2.018   0.260   1.718  0.2122 -0.0863 -0.0264
  395SOL    HW3 1627   1.880   0.274   1.658  0.2703 -0.8399 -0.3357
  395SOL    MW4 1628   1.960   0.305   1.671  0.0510 -0.3671 -0.0951
  396SOL     OW 1629   2.182   3.915   1.607  0.7542 -0.6319 -0.0318
  396SOL    HW2 1630   2.257   3.921   1.548  1.2690  0.3520  0.6965
  396SOL    HW3 1631   2.219   3.890   1.691  0.2747 -0.0967  0.3472
  396SOL    MW4 1632   2.197   3.913   1.610  0.7591 -0.4313  0.1143
  397SOL     OW 1633   1.656   4.385   3.045  0.4669 -0.1889 -0.5262
  397SOL    HW2 1634   1.587   4.448   3.025 -0.4989 -0.5565  1.5276
  397SOL    HW3 1635   1.611   4.312   3.087  2.0575 -0.5082  0.6962
  397SOL    MW4 1636   1.641   4.384   3.048  0.5494 -0.2794 -0.0937
  398SOL     OW 1637   0.227   2.648   3.892 -0.2414 -0.3902  0.4568
  398SOL    HW2 1638   0.262   2.632   3.979  1.1504  1.2898  0.2254
  398SOL    HW3 1639   0.300   2.630   3.833 -0.6232  0.2748 -0.2281
  398SOL    MW4 1640   0.241   2.643   3.896 -0.1081 -0.0806  0.3359
  399SOL     OW 1641   2.468   1.690   4.076 -0.1842  0.1334  0.3688
  399SOL    HW2 1642   2.447   1.643   3.996 -0.6579 -2.5978  2.0249
  399SOL    HW3 1643   2.553   1.731   4.058 -1.2748  1.3589 -2.2274
  399SOL    MW4 1644   2.477   1.689   4.063 -0.3908 -0.0652  0.2446
  400SOL     OW 1645   3.936   3.227   0.710 -0.1728  0.0174 -0.1883
  400SOL    HW2 1646   3.947   3.322   0.710 -2.1689  0.2796  0.2868
  400SOL    HW3 1647   4.025   3.192   0.707  0.6310  1.8959  0.8691
  400SOL    MW4 1648   3.949   3.235   0.709 -0.3300  0.2997  0.0139
  401SOL     OW 1649   4.317   2.918   1.157 -0.0267 -0.4111 -0.2175
  401SOL    HW2 1650   4.306   2.868   1.238  1.6814 -0.4302  0.0263
  401SOL    HW3 1651   4.398   2.968   1.171  0.6193 -0.8799 -2.1513
  401SOL    MW4 1652   4.327   2.918   1.170  0.2842 -0.4756 -0.4406
  402SOL     OW 1653   0.673   0.052   1.947  0.4581  0.3503  0.8023
  402SOL    HW2 1654   0.688  -0.027   1.998  2.5478  0.0704 -0.2224
  402SOL    HW3 1655   0.740   0.051   1.879 -0.9643  1.7859 -0.6978
  402SOL    MW4 1656   0.684   0.042   1.944  0.5462  0.5028  0.4692
  403SOL     OW 1657   2.883   0.450   1.829 -0.0473  0.4459  0.4844
  403SOL    HW2 1658   2.788   0.463   1.826 -0.0762  0.0932 -0.3812
  403SOL    HW3 1659   2.916   0.499   1.753  0.3538 -0.3197  0.1611
  403SOL    MW4 1660   2.875   0.458   1.819  0.0017  0.2984  0.3275
  404SOL     OW 1661   4.198   0.681   3.968  0.5026  0.8844 -0.0328
  404SOL    HW2 1662   4.241   0.722   3.893  1.7938  1.1226  0.8201
  404SOL    HW3 1663   4.117   0.644   3.932  0.6037  1.8811 -1.3365
  404SOL    MW4 1664   4.193   0.682   3.953  0.6866  1.0474 -0.0920
  405SOL     OW 1665   0.856   4.054   1.849 -0.3427  0.2523  0.6387
  405SOL    HW2 1666   0.861   4.018   1.761  0.1517 -0.6136  1.0103
  405SOL    HW3 1667   0.772   4.024   1.883  0.4626 -1.3626  1.2776
  405SOL    MW4 1668   0.846   4.045   1.842 -0.1712 -0.0749  0.7720
  406SOL     OW 1669   1.879   2.039   1.244  0.1205 -0.2711 -0.3236
  406SOL    HW2 1670   1.896   1.958   1.196  2.5414  0.0308 -0.0774
  406SOL    HW3 1671   1.966   2.068   1.272 -1.0108  0.8472  2.1427
  406SOL    MW4 1672   1.893   2.032   1.241  0.2905 -0.0837  0.0343
  407SOL     OW 1673   3.007   0.828   3.994  0.3946  0.0438 -0.0037
  407SOL    HW2 1674   2.913   0.807   3.992  0.0416  1.5845 -0.1057
  407SOL    HW3 1675   3.042   0.772   4.063 -0.8873  0.5414  1.0839
  407SOL    MW4 1676   2.999   0.818   4.003  0.1788  0.3127  0.1264
  408SOL     OW 1677   4.022   1.993   3.914 -0.6643  0.3034 -0.2230
  408SOL    HW2 1678   4.073   1.935   3.970 -0.8657  0.4748  0.1367
  408SOL    HW3 1679   3.932   1.964   3.924 -1.2271  2.8376  2.6197
  408SOL    MW4 1680   4.017   1.981   3.923 -0.7648  0.6603  0.1993
  409SOL     OW 1681   2.746   1.089   1.089  0.2567 -0.2989  0.0241
  409SOL    HW2 1682   2.762   1.179   1.119  0.3381  0.0886 -1.1400
  409SOL    HW3 1683   2.653   1.088   1.066  0.2606 -0.5151  0.0201
  409SOL    MW4 1684   2.736   1.101   1.090  0.2680 -0.2763 -0.1302
  410SOL     OW 1685   2.033   3.992   2.218  0.4872  0.0467 -0.3386
  410SOL    HW2 1686   1.938   4.003   2.217  0.6662  1.7320 -1.1242
  410SOL    HW3 1687   2.057   3.981   2.126  1.1421  0.6666 -0.2513
  410SOL    MW4 1688   2.024   3.992   2.206  0.5972  0.3510 -0.4308
  411SOL     OW 1689   1.624   0.770   4.592 -1.1611  0.0394  0.2693
  411SOL    HW2 1690   1.596   0.859   4.615  0.5008  0.6959 -0.1517
  411SOL    HW3 1691   1.720   0.776   4.587 -1.1402 -1.3404 -1.5223
  411SOL    MW4 1692   1.633   0.783   4.594 -0.9390 -0.0560 -0.0229
  412SOL     OW 1693   0.404   1.471   1.134 -0.4167  0.5354 -0.1385
  412SOL    HW2 1694   0.344   1.398   1.116 -0.0440  0.3185 -0.4820
  412SOL    HW3 1695   0.374   1.505   1.219  1.1107 -1.7389  1.3718
  412SOL    MW4 1696   0.392   1.466   1.143 -0.1660  0.2067  0.0154
  413SOL     OW 1697   2.218   1.841   3.318 -0.2173 -0.7410 -0.2045
  413SOL    HW2 1698   2.302   1.818   3.279 -0.5150 -0.0250 -1.2809
  413SOL    HW3 1699   2.170   1.758   3.323  0.3575 -1.0702 -0.0239
  413SOL    MW4 1700   2.223   1.827   3.314 -0.1810 -0.6901 -0.3228
  414SOL     OW 1701   3.612   2.617   3.482 -0.2230 -0.6047  0.2519
  414SOL    HW2 1702   3.641   2.708   3.491  0.7364 -0.9644  0.8250
  414SOL    HW3 1703   3.573   2.596   3.567 -0.0852 -0.8560  0.2534
  414SOL    MW4 1704   3.611   2.627   3.494 -0.0780 -0.6855  0.3276
  415SOL     OW 1705   0.977   0.267   2.956 -0.3719 -0.1510  0.0012
  415SOL    HW2 1706   0.920   0.241   2.884  0.3659 -0.1626 -0.5819
  415SOL    HW3 1707   0.928   0.244   3.035 -1.1476 -0.2141 -0.4913
  415SOL    MW4 1708   0.963   0.261   2.957 -0.3769 -0.1609 -0.1404
  416SOL     OW 1709   3.699   4.492   0.717 -0.3645  0.2412  0.3784
  416SOL    HW2 1710   3.667   4.547   0.645 -2.7864 -0.9983  0.4758
  416SOL    HW3 1711   3.771   4.543   0.755  0.3937  1.3321 -2.3327
  416SOL    MW4 1712   3.704   4.506   0.712 -0.5839  0.2217  0.0336
  417SOL     OW 1713   1.665   3.010   3.414  0.3660 -0.1931  0.5520
  417SOL    HW2 1714   1.649   3.086   3.359 -0.0908  1.0859  2.3859
  417SOL    HW3 1715   1.759   2.995   3.409  0.3652  0.1159 -0.3135
  417SOL    MW4 1716   1.675   3.018   3.406  0.3057  0.0165  0.6797
  418SOL     OW 1717   2.726   4.118   1.378  0.6318 -0.0442  0.2530
  418SOL    HW2 1718   2.640   4.086   1.351  0.0508  1.7668 -0.1320
  418SOL    HW3 1719   2.720   4.213   1.369  2.6212  0.1193  0.3895
  418SOL    MW4 1720   2.714   4.127   1.373  0.8175  0.2165  0.2201
  419SOL     OW 1721   3.008   3.640   2.844  0.1176 -0.6799 -0.0894
  419SOL    HW2 1722   2.932   3.583   2.855 -0.5682  0.2160 -0.1224
  419SOL    HW3 1723   3.025   3.675   2.931  0.4699 -0.8466 -0.0901
  419SOL    MW4 1724   3.000   3.637   2.857  0.0737 -0.5834 -0.0939
  420SOL     OW 1725   0.571   2.753   3.616  0.1109 -0.2632 -0.3818
  420SOL    HW2 1726   0.624   2.788   3.688 -0.5387 -1.1537  0.5390
  420SOL    HW3 1727   0.527   2.677   3.653  0.2203 -1.0947 -1.8941
  420SOL    MW4 1728   0.572   2.748   3.630  0.0397 -0.4904 -0.4599
  421SOL     OW 1729   3.788   1.131   1.277 -0.7558 -0.3171 -0.7829
  421SOL    HW2 1730   3.760   1.145   1.368  0.5734 -3.0307  0.0749
  421SOL    HW3 1731   3.712   1.092   1.234 -1.7049  1.8051 -1.1371
  421SOL    MW4 1732   3.774   1.128   1.284 -0.7060 -0.3951 -0.7164
  422SOL     OW 1733   3.903   0.288   0.651 -0.0608  0.6718  0.0946
  422SOL    HW2 1734   3.959   0.252   0.582  0.8393  1.6965  0.2774
  422SOL    HW3 1735   3.929   0.242   0.730  1.8141  2.3877  0.5308
  422SOL    MW4 1736   3.914   0.277   0.652  0.3054  1.0334  0.1764
  423SOL     OW 1737   1.806   3.594   2.751 -0.1001 -0.3422  0.1497
  423SOL    HW2 1738   1.807   3.505   2.714 -0.3274 -0.6122  0.7889
  423SOL    HW3 1739   1.783   3.581   2.843  1.5054  0.2372  0.6515
  423SOL    MW4 1740   1.803   3.580   2.758  0.0818 -0.3016  0.3002
  424SOL     OW 1741   4.332   1.676   0.860 -0.6066 -0.2925 -0.2569
  424SOL    HW2 1742   4.325   1.635   0.774 -2.6776  2.4796 -1.4814
  424SOL    HW3 1743   4.254   1.648   0.907 -1.2631  1.0139 -0.5576
  424SOL    MW4 1744   4.321   1.667   0.855 -0.9665  0.2456 -0.4581
  425SOL     OW 1745   0.249   0.946   3.162 -0.1184 -0.1938  0.2139
  425SOL    HW2 1746   0.292   0.900   3.234  0.5707 -0.0942 -0.1232
  425SOL    HW3 1747   0.251   1.038   3.188  0.3221 -0.1346 -0.0282
  425SOL    MW4 1748   0.255   0.952   3.175  0.0306 -0.1728  0.1376
  426SOL     OW 1749   3.612   3.503   1.139 -0.2642 -0.3230 -0.4877
  426SOL    HW2 1750   3.585   3.589   1.171  0.3730  0.0536 -0.9306
  426SOL    HW3 1751   3.685   3.479   1.196  0.8459  0.3315 -1.5873
  426SOL    MW4 1752   3.618   3.511   1.150 -0.0336 -0.1872 -0.6911
  427SOL     OW 1753   3.243   2.728   0.959 -0.0839  0.4820  0.2632
  427SOL    HW2 1754   3.328   2.770   0.972 -0.1896  0.2860  1.6483
  427SOL    HW3 1755   3.179   2.794   0.986 -0.2685 -0.3771  1.9860
  427SOL    MW4 1756   3.246   2.742   0.964 -0.1223  0.3428  0.6733
  428SOL     OW 1757   1.922   0.755   0.797  1.2222  0.0064 -0.4632
  428SOL    HW2 1758   1.915   0.787   0.887 -1.6964 -1.8852  0.0455
  428SOL    HW3 1759   1.932   0.834   0.744  1.8442  1.2115  1.4042
  428SOL    MW4 1760   1.923   0.770   0.802  0.9193 -0.0841 -0.1497
  429SOL     OW 1761   0.018   3.920   2.311  0.3078  0.0368 -0.4618
  429SOL    HW2 1762   0.021   3.826   2.327 -1.5223  0.0419  0.0410
  429SOL    HW3 1763   0.046   3.930   2.220  0.7930 -0.9560 -0.4283
  429SOL    MW4 1764   0.022   3.909   2.301  0.1307 -0.0937 -0.3912
  430SOL     OW 1765   0.583   2.830   2.222 -0.3943 -0.2958  0.2338
  430SOL    HW2 1766   0.518   2.793   2.161  0.7418 -0.8412 -0.6555
  430SOL    HW3 1767   0.563   2.788   2.305 -0.4487 -1.3577 -0.3017
  430SOL    MW4 1768   0.571   2.819   2.225 -0.2516 -0.5078  0.0458
  431SOL     OW 1769   3.869   2.496   4.387 -0.3033  0.0880  0.4966
  431SOL    HW2 1770   3.861   2.410   4.428 -0.5945  0.0861  0.4345
  431SOL    HW3 1771   3.949   2.533   4.425 -1.2073  0.5720  1.9854
  431SOL    MW4 1772   3.879   2.489   4.398 -0.4609  0.1516  0.6847
  432SOL     OW 1773   2.528   3.365   2.063 -0.1616  0.2089  0.2144
  432SOL    HW2 1774   2.465   3.420   2.109 -0.7458  0.6093 -1.0330
  432SOL    HW3 1775   2.605   3.363   2.120 -1.1182  0.1405  1.4995
  432SOL    MW4 1776   2.530   3.372   2.076 -0.3650  0.2525  0.2196
  433SOL     OW 1777   0.490   3.656   2.863  0.7582 -0.5144  0.0524
  433SOL    HW2 1778   0.527   3.589   2.921  0.3681 -1.0042 -0.2632
  433SOL    HW3 1779   0.523   3.633   2.776  1.5851  0.3925  0.1185
  433SOL    MW4 1780   0.499   3.644   2.859  0.8158 -0.4594  0.0196
  434SOL     OW 1781   2.369   3.942   2.894 -0.3748 -0.0316  0.1943
  434SOL    HW2 1782   2.414   3.923   2.812 -0.2997  1.2454 -0.0737
  434SOL    HW3 1783   2.403   4.027   2.921 -2.6173  0.9610 -0.0181
  434SOL    MW4 1784   2.379   3.951   2.887 -0.6607  0.2680  0.1311
  435SOL     OW 1785   1.785   1.042   0.743 -0.4743 -0.3030  0.1470
  435SOL    HW2 1786   1.695   1.074   0.749 -0.2893  0.1135  0.7323
  435SOL    HW3 1787   1.782   0.955   0.782 -0.7485 -0.5301 -0.3884
  435SOL    MW4 1788   1.773   1.035   0.749 -0.4860 -0.2781  0.1536
  436SOL     OW 1789   3.220   2.252   2.943 -0.2224 -0.1360  0.1630
  436SOL    HW2 1790   3.279   2.242   3.018  0.6448  0.2910 -0.4516
  436SOL    HW3 1791   3.196   2.345   2.944 -1.6912 -0.5071  0.9965
  436SOL    MW4 1792   3.225   2.263   2.953 -0.3018 -0.1287  0.1919
  437SOL     OW 1793   0.058   2.115   2.418 -0.0619  0.4730 -0.6496
  437SOL    HW2 1794   0.130   2.178   2.406  0.8336 -0.4599 -0.2157
  437SOL    HW3 1795   0.068   2.083   2.508 -0.0559 -0.8416 -1.1056
  437SOL    MW4 1796   0.069   2.119   2.428  0.0570  0.1764 -0.6526
  438SOL     OW 1797   0.931   0.885   1.311  0.9636 -0.5472  0.1122
  438SOL    HW2 1798   0.930   0.923   1.223  1.9421  1.4092  0.8999
  438SOL    HW3 1799   0.842   0.852   1.324  0.7983 -0.8341 -1.5809
  438SOL    MW4 1800   0.919   0.886   1.301  1.0709 -0.3270 -0.0073
  439SOL     OW 1801   4.182   4.286   1.661  0.0483 -0.2325  0.7362
  439SOL    HW2 1802   4.107   4.304   1.717 -0.1383  1.7921 -0.1326
  439SOL    HW3 1803   4.257   4.281   1.721 -0.1390  1.9785  1.1860
  439SOL    MW4 1804   4.182   4.288   1.676 -0.0010  0.3262  0.6808
  440SOL     OW 1805   1.418   1.099   3.912  0.4353 -0.3085 -0.1852
  440SOL    HW2 1806   1.466   1.038   3.969 -2.0896  0.0313  2.4230
  440SOL    HW3 1807   1.359   1.043   3.861 -1.8032 -0.1508  2.1299
  440SOL    MW4 1808   1.417   1.083   3.913 -0.1934 -0.2429  0.4644
  441SOL     OW 1809   0.804   0.170   2.763 -0.2012  0.0135  0.2566
  441SOL    HW2 1810   0.732   0.229   2.743  0.4084  0.5998 -0.2619
  441SOL    HW3 1811   0.762   0.090   2.793 -1.0273  0.7944  1.2163
  441SOL    MW4 1812   0.789   0.167   2.764 -0.2297  0.1938  0.3150
  442SOL     OW 1813   3.259   3.815   4.017 -0.0408 -0.0526 -0.2662
  442SOL    HW2 1814   3.331   3.757   3.990 -0.0495  0.2936 -1.0507
  442SOL    HW3 1815   3.284   3.845   4.104  0.3963 -0.5383 -0.2201
  442SOL    MW4 1816   3.272   3.811   4.025  0.0157 -0.0710 -0.3638
  443SOL     OW 1817   3.242   4.430   3.307 -0.2518 -0.0962  0.4291
  443SOL    HW2 1818   3.275   4.516   3.333  1.1454  0.2418 -2.3363
  443SOL    HW3 1819   3.162   4.450   3.257 -0.2921 -0.4602  0.3493
  443SOL    MW4 1820   3.236   4.444   3.304 -0.0727 -0.1001  0.0539
  444SOL     OW 1821   3.178   3.209   2.443 -0.3209 -0.0693  0.7889
  444SOL    HW2 1822   3.174   3.130   2.390  0.8454 -1.2262  2.3762
  444SOL    HW3 1823   3.229   3.271   2.390  0.0236 -0.8795  0.1581
  444SOL    MW4 1824   3.184   3.207   2.429 -0.1218 -0.3288  0.9151
  445SOL     OW 1825   1.081   1.652   1.221 -0.1007 -0.2181 -0.2576
  445SOL    HW2 1826   1.060   1.733   1.174 -0.6035  1.2820  2.4039
  445SOL    HW3 1827   1.030   1.658   1.302  1.8696 -1.9699  1.1602
  445SOL    MW4 1828   1.072   1.664   1.226  0.0929 -0.2512  0.2806
  446SOL     OW 1829   4.308   1.523   0.617  0.3440  0.5503  0.7199
  446SOL    HW2 1830   4.326   1.575   0.539  1.1602 -1.1004 -0.2154
  446SOL    HW3 1831   4.355   1.441   0.603 -1.7195 -0.8454  1.7189
  446SOL    MW4 1832   4.317   1.519   0.605  0.1793  0.1484  0.7284
  447SOL     OW 1833   1.235   1.229   4.257 -0.3671  0.1727  0.7313
  447SOL    HW2 1834   1.169   1.233   4.326 -1.2995 -2.3848  0.0445
  447SOL    HW3 1835   1.202   1.286   4.188 -1.7990 -0.9795  0.4505
  447SOL    MW4 1836   1.222   1.237   4.257 -0.6789 -0.3167  0.6032
  448SOL     OW 1837   1.426   2.708   2.613 -0.0197 -0.1065 -0.0122
  448SOL    HW2 1838   1.335   2.692   2.639 -0.5447  2.3901 -0.1205
  448SOL    HW3 1839   1.443   2.798   2.643  2.1327 -0.2400 -0.7673
  448SOL    MW4 1840   1.416   2.718   2.621  0.1950  0.2053 -0.1264
  449SOL     OW 1841   2.912   2.391   3.100  0.1243  0.1585 -0.7692
  449SOL    HW2 1842   3.000   2.426   3.111  0.0035  0.5207 -0.9163
  449SOL    HW3 1843   2.892   2.349   3.183  0.4233  0.1098 -0.7246
  449SOL    MW4 1844   2.921   2.390   3.112  0.1476  0.1998 -0.7832
  450SOL     OW 1845   0.650   3.509   3.092  0.1110 -0.4774  0.5123
  450SOL    HW2 1846   0.718   3.576   3.102  1.2056 -1.7044  1.4044
  450SOL    HW3 1847   0.696   3.432   3.059 -1.2097 -0.6944 -0.8931
  450SOL    MW4 1848   0.665   3.508   3.089  0.0812 -0.6678  0.4447
  451SOL     OW 1849   3.450   1.832   1.274  0.1645 -0.3999 -0.4366
  451SOL    HW2 1850   3.486   1.903   1.221  0.3490 -0.9697 -1.0806
  451SOL    HW3 1851   3.355   1.848   1.274  0.1554 -0.4553 -1.0162
  451SOL    MW4 1852   3.442   1.843   1.267  0.1879 -0.4823 -0.5981
  452SOL     OW 1853   1.178   2.691   2.987  0.4914 -0.4664  0.7225
  452SOL    HW2 1854   1.102   2.635   3.002  0.6536 -0.5862  1.0972
  452SOL    HW3 1855   1.182   2.699   2.892  0.1990 -0.7215  0.6844
  452SOL    MW4 1856   1.168   2.684   2.977  0.4743 -0.5162  0.7670
  453SOL     OW 1857   4.184   2.792   2.686  0.1703  0.3447 -0.9586
  453SOL    HW2 1858   4.163   2.872   2.638  0.3613  0.4174 -0.9218
  453SOL    HW3 1859   4.276   2.775   2.665  0.0543 -0.0109 -1.1768
  453SOL    MW4 1860   4.194   2.801   2.677  0.1802  0.3076 -0.9823
  454SOL     OW 1861   0.902   1.479   0.565  0.0261  0.0507  0.0864
  454SOL    HW2 1862   0.951   1.536   0.624  0.0331 -0.6841  0.7970
  454SOL    HW3 1863   0.817   1.469   0.606 -0.0345 -0.3164 -0.1252
  454SOL    MW4 1864   0.897   1.485   0.578  0.0190 -0.0948  0.1523
  455SOL     OW 1865   0.725   0.456   1.364 -0.4171  0.2160  0.3813
  455SOL    HW2 1866   0.775   0.376   1.374  0.3856  0.7072  0.3743
  455SOL    HW3 1867   0.647   0.444   1.419 -0.0255 -0.3318  0.8147
  455SOL    MW4 1868   0.721   0.444   1.372 -0.2595  0.2086  0.4375
  456SOL     OW 1869   2.616   4.525   3.609  0.2817  0.2606 -0.2451
  456SOL    HW2 1870   2.534   4.568   3.586  1.1069  1.2757 -1.3611
  456SOL    HW3 1871   2.680   4.596   3.613  1.3054 -0.6447 -0.3503
  456SOL    MW4 1872   2.614   4.540   3.606  0.5257  0.2751 -0.4060
  457SOL     OW 1873   1.989   1.715   0.816 -0.1180 -0.3121 -0.2356
  457SOL    HW2 1874   2.078   1.736   0.787 -0.0965 -0.2729 -0.1421
  457SOL    HW3 1875   1.946   1.800   0.825  0.1020 -0.2809  0.5624
  457SOL    MW4 1876   1.995   1.729   0.813 -0.0861 -0.3028 -0.1180
  458SOL     OW 1877   2.969   4.213   2.516  0.3918 -0.2539  0.6964
  458SOL    HW2 1878   2.985   4.251   2.602  1.4684  0.5366  0.1562
  458SOL    HW3 1879   3.046   4.158   2.500  0.5662  0.2226 -0.1002
  458SOL    MW4 1880   2.982   4.211   2.525  0.5569 -0.0863  0.5200
  459SOL     OW 1881   4.368   2.928   3.942 -0.1879  0.4531 -0.1571
  459SOL    HW2 1882   4.463   2.917   3.943 -0.1749  0.1398 -2.2818
  459SOL    HW3 1883   4.340   2.887   3.860 -2.2385 -0.0573  0.7724
  459SOL    MW4 1884   4.376   2.921   3.931 -0.4568  0.3443 -0.3147
  460SOL     OW 1885   3.107   3.342   3.216 -0.0406 -0.3452  0.0475
  460SOL    HW2 1886   3.068   3.429   3.208  0.0741 -0.1984  1.0063
  460SOL    HW3 1887   3.071   3.307   3.298 -0.6870 -1.5104 -0.7047
  460SOL    MW4 1888   3.097   3.349   3.226 -0.1109 -0.4795  0.0746
  461SOL     OW 1889   0.522   2.411   4.166  0.0213 -0.5407  0.2372
  461SOL    HW2 1890   0.543   2.325   4.202  0.4267 -0.5946 -0.1340
  461SOL    HW3 1891   0.528   2.470   4.241 -0.9942 -0.9480  0.6503
  461SOL    MW4 1892   0.526   2.407   4.181 -0.0591 -0.6015  0.2432
  462SOL     OW 1893   2.804   1.652   2.615 -0.1103  0.3927  0.0912
  462SOL    HW2 1894   2.744   1.673   2.687 -0.8459  0.7292 -0.6113
  462SOL    HW3 1895   2.771   1.570   2.579 -0.6950  1.0230 -0.8549
  462SOL    MW4 1896   2.791   1.644   2.620 -0.2847  0.5202 -0.1264
  463SOL     OW 1897   1.785   0.258   1.319 -0.4595 -0.2623  0.2377
  463SOL    HW2 1898   1.849   0.188   1.302 -0.3554  0.1880 -1.3077
  463SOL    HW3 1899   1.839   0.336   1.335 -0.5978  0.2703 -1.7457
  463SOL    MW4 1900   1.801   0.259   1.319 -0.4641 -0.1327 -0.2279
  464SOL     OW 1901   1.284   1.839   2.826 -0.2692 -0.3490 -0.4080
  464SOL    HW2 1902   1.251   1.764   2.776  0.2300 -0.4123 -0.6493
  464SOL    HW3 1903   1.298   1.906   2.759  0.0232 -0.2992 -0.2923
  464SOL    MW4 1904   1.281   1.838   2.810 -0.1647 -0.3508 -0.4244
  465SOL     OW 1905   2.671   0.969   0.710 -0.5976 -0.4312  0.0509
  465SOL    HW2 1906   2.719   0.964   0.627 -1.4271  0.2496 -0.4821
  465SOL    HW3 1907   2.691   1.056   0.744  0.6297 -1.1125  1.1349
  465SOL    MW4 1908   2.680   0.980   0.703 -0.5450 -0.4312  0.1236
  466SOL     OW 1909   3.184   4.362   2.229  0.3175  0.2242 -0.1421
  466SOL    HW2 1910   3.134   4.319   2.159  0.2073  0.3245 -0.1258
  466SOL    HW3 1911   3.119   4.415   2.276  0.2007 -0.5896  0.6334
  466SOL    MW4 1912   3.169   4.363   2.226  0.2873  0.1307 -0.0374
  467SOL     OW 1913   0.799   1.224   4.433  0.0099 -0.0983 -0.2482
  467SOL    HW2 1914   0.730   1.287   4.413  2.0146  1.8307 -1.3405
  467SOL    HW3 1915   0.831   1.195   4.348  0.5245 -0.9954  0.2357
  467SOL    MW4 1916   0.794   1.229   4.419  0.3423  0.0378 -0.3290
  468SOL     OW 1917   3.477   1.425   1.990 -0.0753  0.0049  0.2832
  468SOL    HW2 1918   3.437   1.344   2.022 -1.5876  0.2505 -0.9303
  468SOL    HW3 1919   3.549   1.395   1.934 -0.9939 -0.5285 -0.6362
  468SOL    MW4 1920   3.481   1.410   1.987 -0.3960 -0.0330  0.0018
  469SOL     OW 1921   2.413   2.787   1.037  0.2160  0.0877  0.2507
  469SOL    HW2 1922   2.379   2.711   1.084  0.0690  0.0273  0.0471
  469SOL    HW3 1923   2.336   2.833   1.005  0.3159  0.0944  0.0130
  469SOL    MW4 1924   2.399   2.783   1.039  0.2098  0.0806  0.1924
  470SOL     OW 1925   0.953   1.184   3.264  0.1553 -0.1976  0.1966
  470SOL    HW2 1926   1.034   1.194   3.214  0.7427  2.4911  1.5975
  470SOL    HW3 1927   0.883   1.196   3.199  0.8778 -0.8633 -0.7181
  470SOL    MW4 1928   0.954   1.187   3.249  0.3282  0.0693  0.2611
  471SOL     OW 1929   1.547   1.678   3.842 -0.2509  0.0707 -0.2005
  471SOL    HW2 1930   1.636   1.711   3.836 -1.1761  2.5442 -0.9166
  471SOL    HW3 1931   1.516   1.707   3.928 -0.1074 -1.4644  0.3772
  471SOL    MW4 1932   1.554   1.686   3.852 -0.3541  0.1943 -0.2186
  472SOL     OW 1933   2.263   1.544   3.028 -0.4411 -0.5155  0.2259
  472SOL    HW2 1934   2.222   1.458   3.013 -1.1471 -0.2439  0.5799
  472SOL    HW3 1935   2.357   1.525   3.033 -0.5883 -1.2608  0.2391
  472SOL    MW4 1936   2.270   1.530   3.027 -0.5538 -0.5779  0.2742
  473SOL     OW 1937   3.421   1.776   4.251 -0.5371 -0.0801  0.1423
  473SOL    HW2 1938   3.473   1.709   4.296  0.6164  0.3533 -0.5315
  473SOL    HW3 1939   3.341   1.731   4.227 -0.6756 -0.6486  1.5796
  473SOL    MW4 1940   3.418   1.761   4.254 -0.4032 -0.0979  0.2432
  474SOL     OW 1941   3.311   0.725   3.363  0.2067 -0.1799  0.7609
  474SOL    HW2 1942   3.274   0.746   3.449 -0.9800  0.8117  0.0331
  474SOL    HW3 1943   3.264   0.647   3.335 -1.0050  0.7667  0.0746
  474SOL    MW4 1944   3.300   0.718   3.371 -0.1099  0.0758  0.5744
  475SOL     OW 1945   3.898   4.189   3.276  0.2739  0.0348  0.0216
  475SOL    HW2 1946   3.876   4.270   3.323  1.3815  0.5738 -0.3651
  475SOL    HW3 1947   3.882   4.119   3.340 -1.0226  0.5329  0.2448
  475SOL    MW4 1948   3.893   4.190   3.291  0.2491  0.1717  0.0002
  476SOL     OW 1949   3.619   0.212   3.618 -0.2669  0.0411  0.0523
  476SOL    HW2 1950   3.636   0.260   3.537  0.0803 -0.3486 -0.1156
  476SOL    HW3 1951   3.562   0.269   3.669 -0.0199  0.5403 -0.2231
  476SOL    MW4 1952   3.614   0.226   3.614 -0.1886  0.0556 -0.0062
  477SOL     OW 1953   2.311   2.565   3.036 -0.6526  0.2057 -0.0945
  477SOL    HW2 1954   2.336   2.656   3.017 -0.7163  0.1647 -0.3788
  477SOL    HW3 1955   2.267   2.536   2.956 -1.4149  0.2044  0.3275
  477SOL    MW4 1956   2.308   2.573   3.023 -0.7615  0.2000 -0.0763
  478SOL     OW 1957   1.873   3.845   1.204  0.3526  0.8029 -0.2011
  478SOL    HW2 1958   1.790   3.872   1.244  0.7316  0.7252  0.6326
  478SOL    HW3 1959   1.878   3.897   1.123  0.2727  2.0328  0.5634
  478SOL    MW4 1960   1.863   3.855   1.199  0.3920  0.9549  0.0097
  479SOL     OW 1961   0.456   3.118   1.173 -0.3704  0.0942 -0.1851
  479SOL    HW2 1962   0.475   3.180   1.243 -0.2956 -1.6168  1.3457
  479SOL    HW3 1963   0.400   3.051   1.214  0.3143 -1.3479 -1.5410
  479SOL    MW4 1964   0.451   3.117   1.188 -0.2702 -0.3219 -0.1620
  480SOL     OW 1965   3.320   1.066   2.363  0.0331 -0.1825  0.0353
  480SOL    HW2 1966   3.409   1.031   2.371  0.0592 -0.0342  0.3761
  480SOL    HW3 1967   3.324   1.153   2.403  0.1557  0.5227 -1.4608
  480SOL    MW4 1968   3.332   1.073   2.369  0.0527 -0.0700 -0.1173
  481SOL     OW 1969   3.695   1.392   1.837  0.3852 -0.0135  0.3556
  481SOL    HW2 1970   3.755   1.370   1.766  1.1532 -0.3188  1.0832
  481SOL    HW3 1971   3.709   1.486   1.852 -1.3614  0.5552 -1.3361
  481SOL    MW4 1972   3.705   1.402   1.830  0.2561  0.0213  0.2284
  482SOL     OW 1973   0.366   2.033   3.924  0.3130 -0.0345 -0.2482
  482SOL    HW2 1974   0.313   1.956   3.905  2.4474 -1.0352 -2.3693
  482SOL    HW3 1975   0.389   2.025   4.016 -1.0235 -0.9458  0.0052
  482SOL    MW4 1976   0.362   2.022   3.934  0.4183 -0.2863 -0.4945
  483SOL     OW 1977   2.040   3.070   0.826 -0.4584 -0.1731 -0.2214
  483SOL    HW2 1978   1.962   3.016   0.817 -0.0389 -0.7356 -0.4879
  483SOL    HW3 1979   2.101   3.018   0.878  0.2290 -0.2707 -1.1059
  483SOL    MW4 1980   2.038   3.056   0.832 -0.3121 -0.2604 -0.3733
  484SOL     OW 1981   3.924   4.068   0.748  0.1584 -0.0028  0.1018
  484SOL    HW2 1982   3.836   4.037   0.728 -0.5877  0.8041  1.9977
  484SOL    HW3 1983   3.930   4.154   0.706 -0.1527  0.1639  0.3939
  484SOL    MW4 1984   3.913   4.075   0.740  0.0188  0.1259  0.3905
  485SOL     OW 1985   4.088   2.580   2.536  0.6564 -0.0815 -0.1641
  485SOL    HW2 1986   4.069   2.517   2.605  0.9718 -1.1614 -1.0457
  485SOL    HW3 1987   4.123   2.656   2.581 -0.1297 -0.3722  0.9526
  485SOL    MW4 1988   4.090   2.581   2.551  0.5941 -0.2623 -0.1333
  486SOL     OW 1989   1.436   4.301   3.755 -0.1498  0.7895 -0.4619
  486SOL    HW2 1990   1.481   4.318   3.838  0.0747  0.6530 -0.5546
  486SOL    HW3 1991   1.367   4.368   3.751 -0.4290  0.5335  0.0313
  486SOL    MW4 1992   1.433   4.312   3.766 -0.1571  0.7372 -0.4089
  487SOL     OW 1993   3.114   0.858   1.378 -0.3161 -0.4431 -0.2107
  487SOL    HW2 1994   3.052   0.859   1.451  1.7877 -0.2013  1.6499
  487SOL    HW3 1995   3.169   0.782   1.395  0.8399  0.1979 -0.9920
  487SOL    MW4 1996   3.113   0.848   1.390  0.1137 -0.3266 -0.0683
  488SOL     OW 1997   2.857   3.902   1.732  0.0967 -0.3721  0.3142
  488SOL    HW2 1998   2.932   3.916   1.791  2.0609 -2.1250 -1.6570
  488SOL    HW3 1999   2.822   3.816   1.758 -0.0865 -0.3806  0.0427
  488SOL    MW4 2000   2.862   3.892   1.743  0.3319 -0.6046  0.0185
  489SOL     OW 2001   0.428   0.789   3.605  0.4798 -0.2844  0.1096
  489SOL    HW2 2002   0.459   0.705   3.638  0.3586 -0.7096 -0.8607
  489SOL    HW3 2003   0.450   0.851   3.674  2.3848 -0.7784 -0.0347
  489SOL    MW4 2004   0.435   0.786   3.618  0.7151 -0.4057 -0.0374
  490SOL     OW 2005   1.670   2.971   4.536 -0.4284  0.0080  0.1815
  490SOL    HW2 2006   1.649   3.064   4.543 -1.0942 -0.1644  0.5650
  490SOL    HW3 2007   1.758   2.963   4.572  0.0949  0.6714 -0.9539
  490SOL    MW4 2008   1.679   2.982   4.542 -0.4472  0.0727  0.0825
  491SOL     OW 2009   3.261   4.649   2.118 -0.4201  0.1580 -0.8422
  491SOL    HW2 2010   3.229   4.568   2.157  0.0857  0.0422 -0.6768
  491SOL    HW3 2011   3.184   4.686   2.075 -0.7418 -0.2156 -0.5921
  491SOL    MW4 2012   3.246   4.643   2.117 -0.3960  0.0935 -0.7873
  492SOL     OW 2013   1.762   2.679   4.218 -0.3488  0.2489  0.1367
  492SOL    HW2 2014   1.765   2.706   4.126  0.6750 -0.4725 -0.0610
  492SOL    HW3 2015   1.849   2.703   4.252 -0.8281  0.7772  0.9886
  492SOL    MW4 2016   1.774   2.686   4.211 -0.2769  0.2234  0.2227
  493SOL     OW 2017   0.499   3.392   4.243  0.3874 -0.0351 -0.1393
  493SOL    HW2 2018   0.572   3.428   4.193  0.3953 -0.3181 -0.3297
  493SOL    HW3 2019   0.533   3.309   4.278  0.8303  0.7660  1.4068
  493SOL    MW4 2020   0.513   3.386   4.241  0.4469  0.0331  0.0396
  494SOL     OW 2021   2.509   4.424   0.991 -0.1124  0.3779 -0.2749
  494SOL    HW2 2022   2.500   4.504   1.042 -0.8934  0.9091 -1.2230
  494SOL    HW3 2023   2.526   4.454   0.902 -0.9065 -0.4977 -0.7306
  494SOL    MW4 2024   2.510   4.438   0.986 -0.3202  0.3328 -0.4601
  495SOL     OW 2025   3.266   0.220   2.471 -0.2925 -0.0512  0.1511
  495SOL    HW2 2026   3.308   0.245   2.388 -1.8762 -1.7425 -1.2308
  495SOL    HW3 2027   3.177   0.255   2.464 -0.9736 -1.7041  0.3638
  495SOL    MW4 2028   3.259   0.228   2.459 -0.5918 -0.4924 -0.0031
  496SOL     OW 2029   0.642   1.101   3.502  0.2103  0.4140  0.1875
  496SOL    HW2 2030   0.674   1.076   3.415 -0.1680 -0.7032  0.3704
  496SOL    HW3 2031   0.548   1.110   3.491  0.0066 -0.9122  0.7597
  496SOL    MW4 2032   0.634   1.099   3.489  0.1335  0.0916  0.2871
  497SOL     OW 2033   0.966   0.775   3.138  0.3182  0.0597  0.1486
  497SOL    HW2 2034   1.059   0.783   3.119  0.5506 -0.4866  1.0405
  497SOL    HW3 2035   0.949   0.681   3.140 -0.0054  0.1271  1.1224
  497SOL    MW4 2036   0.976   0.764   3.136  0.3061 -0.0036  0.3946
  498SOL     OW 2037   3.410   2.236   2.737 -0.9535 -0.7722 -0.2643
  498SOL    HW2 2038   3.336   2.229   2.798 -0.9549 -1.7220 -0.3597
  498SOL    HW3 2039   3.487   2.227   2.792 -0.8823  0.8611 -0.0793
  498SOL    MW4 2040   3.410   2.234   2.752 -0.9439 -0.6819 -0.2522
  499SOL     OW 2041   4.173   4.085   4.524  0.2368 -0.1955  0.4295
  499SOL    HW2 2042   4.235   4.013   4.529 -0.5795 -0.9819 -0.6148
  499SOL    HW3 2043   4.218   4.159   4.565  1.0631 -1.3018  1.5510
  499SOL    MW4 2044   4.187   4.085   4.530  0.2384 -0.4449  0.4396
  500SOL     OW 2045   0.441   2.013   4.213  0.3650  0.3036  0.2598
  500SOL    HW2 2046   0.520   2.063   4.235 -0.0881  0.7033  0.9747
  500SOL    HW3 2047   0.467   1.922   4.227  1.4546  0.2727 -1.8798
  500SOL    MW4 2048   0.455   2.007   4.218  0.4490  0.3521  0.0720
  501SOL     OW 2049   2.340   3.429   3.095  0.6302 -0.2725  0.2390
  501SOL    HW2 2050   2.280   3.362   3.062  0.7398 -0.6336  0.7755
  501SOL    HW3 2051   2.320   3.506   3.042  1.1978 -1.0011 -1.0750
  501SOL    MW4 2052   2.330   3.430   3.084  0.7195 -0.4163  0.1364
  502SOL     OW 2053   2.111   2.969   4.042  0.5654 -0.7018 -0.2970
  502SOL    HW2 2054   2.202   2.975   4.071 -0.4055  0.7769  2.5869
  502SOL    HW3 2055   2.064   3.035   4.094 -2.4363 -2.5073 -0.6001
  502SOL    MW4 2056   2.117   2.979   4.053  0.0412 -0.7451  0.0434
  503SOL     OW 2057   2.070   3.230   2.725 -0.3813  0.5072 -0.1555
  503SOL    HW2 2058   2.098   3.141   2.703  1.9566  0.9824  0.6902
  503SOL    HW3 2059   2.074   3.278   2.643 -1.1334 -0.0360 -0.5128
  503SOL    MW4 2060   2.075   3.225   2.711 -0.1719  0.4983 -0.0913
  504SOL     OW 2061   3.384   2.004   4.467 -0.4953 -0.1740  0.1343
  504SOL    HW2 2062   3.459   2.031   4.520  0.3474 -1.5045 -0.3425
  504SOL    HW3 2063   3.414   1.925   4.421 -1.9418 -0.3050 -0.6303
  504SOL    MW4 2064   3.398   1.997   4.468 -0.5748 -0.3668 -0.0291
  505SOL     OW 2065   0.359   2.560   1.651 -0.3944  0.2639  0.1222
  505SOL    HW2 2066   0.318   2.502   1.587 -2.0653  1.3605  0.1645
  505SOL    HW3 2067   0.318   2.537   1.734  0.0526  0.4441  0.3923
  505SOL    MW4 2068   0.348   2.549   1.653 -0.5559  0.4325  0.1633
  506SOL     OW 2069   3.278   1.142   2.808 -0.3921  0.0867  0.3020
  506SOL    HW2 2070   3.236   1.097   2.881  0.3793  0.5211  1.0145
  506SOL    HW3 2071   3.361   1.096   2.796 -0.9242 -0.5759 -0.9058
  506SOL    MW4 2072   3.283   1.130   2.816 -0.3603  0.0566  0.2365
  507SOL     OW 2073   4.251   4.612   2.445  0.1693  0.0772  0.1320
  507SOL    HW2 2074   4.173   4.597   2.390  0.9623  1.7891 -1.5125
  507SOL    HW3 2075   4.219   4.602   2.535 -2.2367  1.8683 -0.4546
  507SOL    MW4 2076   4.237   4.609   2.449 -0.0434  0.5393 -0.1624
  508SOL     OW 2077   4.245   1.292   3.889 -0.1864 -0.2227 -0.1455
  508SOL    HW2 2078   4.196   1.265   3.967  0.8283 -0.8045  0.2961
  508SOL    HW3 2079   4.292   1.214   3.862  0.6107  0.3717 -0.4909
  508SOL    MW4 2080   4.245   1.278   3.896  0.0525 -0.2211 -0.1326
  509SOL     OW 2081   3.723   3.822   2.573 -0.1223  0.0746 -0.0056
  509SOL    HW2 2082   3.638   3.819   2.618  1.5167 -1.9117  3.1308
  509SOL    HW3 2083   3.784   3.858   2.637  1.3557  2.1227 -2.4394
  509SOL    MW4 2084   3.720   3.826   2.587  0.2890  0.0825  0.0870
  510SOL     OW 2085   0.826   0.474   0.525  0.1072  0.0188  0.1689
  510SOL    HW2 2086   0.788   0.412   0.587  0.6467 -0.7117 -0.2227
  510SOL    HW3 2087   0.824   0.558   0.570 -1.3871 -0.1202  0.4060
  510SOL    MW4 2088   0.821   0.477   0.539 -0.0188 -0.0959  0.1485
  511SOL     OW 2089   2.049   2.250   0.829 -0.0393  0.0054 -0.8896
  511SOL    HW2 2090   2.136   2.269   0.864  0.8737 -1.5253 -2.2111
  511SOL    HW3 2091   1.993   2.319   0.863  2.2937  2.7079 -2.3379
  511SOL    MW4 2092   2.053   2.262   0.838  0.3886  0.1600 -1.2550
  512SOL     OW 2093   0.830   2.116   2.339  0.2303 -0.1098  0.0091
  512SOL    HW2 2094   0.897   2.158   2.285  0.6760  1.1760  1.5229
  512SOL    HW3 2095   0.783   2.189   2.380 -1.3304 -1.0255 -0.1192
  512SOL    MW4 2096   0.832   2.131   2.337  0.0832 -0.0610  0.1919
  513SOL     OW 2097   2.653   3.081   1.721  0.3749  0.0109  0.2568
  513SOL    HW2 2098   2.595   3.090   1.796  0.5736  0.1355  0.3967
  513SOL    HW3 2099   2.735   3.121   1.749  0.0718  1.1800 -0.4582
  513SOL    MW4 2100   2.656   3.088   1.734  0.3610  0.1814  0.1808
  514SOL     OW 2101   2.957   1.745   4.608  0.3599  0.2344 -0.1948
  514SOL    HW2 2102   2.908   1.789   4.677 -0.4489 -1.6629  0.4987
  514SOL    HW3 2103   3.049   1.759   4.631  0.1150  1.1266  0.2665
  514SOL    MW4 2104   2.963   1.752   4.620  0.2213  0.1018 -0.0429
  515SOL     OW 2105   2.233   0.164   4.088 -0.5770 -0.0119  0.1742
  515SOL    HW2 2106   2.183   0.121   4.018  0.0298 -0.5249  0.0521
  515SOL    HW3 2107   2.205   0.255   4.086 -2.0046 -0.4269  0.5358
  515SOL    MW4 2108   2.223   0.170   4.079 -0.6852 -0.1343  0.2060
  516SOL     OW 2109   0.077   0.280   4.439 -0.3170 -0.3429  0.7739
  516SOL    HW2 2110   0.152   0.222   4.455  0.2629  0.6220  1.5658
  516SOL    HW3 2111   0.006   0.243   4.492 -0.8393 -2.0908 -1.0650
  516SOL    MW4 2112   0.078   0.268   4.448 -0.3093 -0.4462  0.6356
  517SOL     OW 2113   0.168   1.743   3.554  0.0832  0.1461  0.0502
  517SOL    HW2 2114   0.259   1.749   3.524 -0.4814  1.9628 -1.3941
  517SOL    HW3 2115   0.117   1.735   3.473 -1.1550  0.4908  0.7865
  517SOL    MW4 2116   0.173   1.743   3.539 -0.1547  0.4314 -0.0432
  518SOL     OW 2117   1.005   2.766   3.437  0.2039 -0.0806  0.3223
  518SOL    HW2 2118   1.061   2.712   3.492 -0.1512  0.0910  0.8630
  518SOL    HW3 2119   1.043   2.854   3.443 -0.4272  0.1389  1.1094
  518SOL    MW4 2120   1.017   2.771   3.445  0.0738 -0.0293  0.4976
  519SOL     OW 2121   2.744   4.604   0.698  0.4235 -0.3753  0.1559
  519SOL    HW2 2122   2.814   4.547   0.665 -0.7807 -1.7537 -0.0883
  519SOL    HW3 2123   2.785   4.690   0.706  1.3986 -0.4924 -2.7202
  519SOL    MW4 2124   2.759   4.608   0.695  0.3932 -0.5722 -0.2557
  520SOL     OW 2125   0.079   0.298   1.676  0.1332  0.0115 -0.4991
  520SOL    HW2 2126   0.023   0.225   1.698 -0.5896  0.5124 -0.6677
  520SOL    HW3 2127   0.157   0.286   1.730 -0.9748  0.4099  1.2221
  520SOL    MW4 2128   0.082   0.287   1.686 -0.1083  0.1301 -0.2943
  521SOL     OW 2129   2.226   1.055   1.947 -0.2050  0.3415 -0.0853
  521SOL    HW2 2130   2.154   1.034   1.887  0.4298 -0.5544 -0.5413
  521SOL    HW3 2131   2.260   1.139   1.914 -0.7872  0.5769 -0.0982
  521SOL    MW4 2132   2.221   1.064   1.935 -0.1984  0.2545 -0.1471
  522SOL     OW 2133   1.393   1.462   1.689 -0.0214 -0.5283 -0.2549
  522SOL    HW2 2134   1.451   1.427   1.621 -0.6469  1.0643 -1.6505
  522SOL    HW3 2135   1.320   1.501   1.640 -1.9558 -1.9206  1.4363
  522SOL    MW4 2136   1.391   1.463   1.674 -0.3592 -0.5018 -0.2158
  523SOL     OW 2137   3.569   1.974   1.042  0.2450  0.3433  0.1397
  523SOL    HW2 2138   3.492   1.927   1.010  1.1337 -1.3674  0.4748
  523SOL    HW3 2139   3.533   2.053   1.083 -1.1976  0.3895 -1.1769
  523SOL    MW4 2140   3.554   1.978   1.043  0.1721  0.1239  0.0101
  524SOL     OW 2141   1.866   0.949   1.512 -0.1528  0.3569 -0.2715
  524SOL    HW2 2142   1.913   0.966   1.593  0.4196 -0.6113 -0.3847
  524SOL    HW3 2143   1.918   0.993   1.444 -0.3532  0.7366 -0.1797
  524SOL    MW4 2144   1.879   0.957   1.514 -0.1037  0.2792 -0.2742
  525SOL     OW 2145   4.189   1.231   4.446  0.1710  0.4834 -0.0397
  525SOL    HW2 2146   4.232   1.308   4.408  0.7784 -0.2157 -0.7756
  525SOL    HW3 2147   4.260   1.177   4.479 -0.2425  0.1203  0.2624
  525SOL    MW4 2148   4.204   1.234   4.445  0.1965  0.3433 -0.0968
  526SOL     OW 2149   3.287   0.764   1.867 -0.0562  0.7852  0.1994
  526SOL    HW2 2150   3.234   0.822   1.922 -0.0761  0.7743  0.1922
  526SOL    HW3 2151   3.364   0.815   1.845 -0.4193  1.0832 -0.4164
  526SOL    MW4 2152   3.290   0.778   1.871 -0.1068  0.8231  0.1173
  527SOL     OW 2153   0.076   4.224   4.476 -0.5642  0.1688 -0.0336
  527SOL    HW2 2154   0.086   4.135   4.441  0.0204  0.6224 -1.0604
  527SOL    HW3 2155   0.166   4.257   4.482 -0.7015  0.2917  1.4286
  527SOL    MW4 2156   0.089   4.216   4.472 -0.5052  0.2451  0.0234
  528SOL     OW 2157   0.147   0.669   0.465 -0.2497  0.1750  0.0980
  528SOL    HW2 2158   0.071   0.687   0.409  0.4656  0.1628 -0.8976
  528SOL    HW3 2159   0.110   0.656   0.552 -1.4307 -0.2464 -0.4532
  528SOL    MW4 2160   0.132   0.670   0.469 -0.3112  0.1178 -0.1061
  529SOL     OW 2161   0.665   2.217   3.127 -0.0762 -0.1880 -0.0892
  529SOL    HW2 2162   0.607   2.151   3.163 -1.0669 -0.5872 -2.2931
  529SOL    HW3 2163   0.615   2.257   3.055  1.3317  1.3970 -0.2397
  529SOL    MW4 2164   0.651   2.214   3.122 -0.0212 -0.0317 -0.4003
  530SOL     OW 2165   0.739   3.033   0.596 -0.4136  0.5647 -0.8605
  530SOL    HW2 2166   0.669   2.984   0.552  1.3405 -1.9198 -1.0093
  530SOL    HW3 2167   0.712   3.036   0.688 -2.1182  2.2264 -1.3762
  530SOL    MW4 2168   0.726   3.027   0.602 -0.4071  0.4559 -0.9482
  531SOL     OW 2169   2.848   3.927   3.996 -0.3010 -0.1987  0.4848
  531SOL    HW2 2170   2.782   3.891   3.937 -0.7729 -0.9328  1.4521
  531SOL    HW3 2171   2.797   3.972   4.064  0.2637  2.5212 -0.8076
  531SOL    MW4 2172   2.833   3.929   3.997 -0.2890  0.0632  0.4418
  532SOL     OW 2173   1.495   0.576   1.088  0.6045 -0.6088 -0.3053
  532SOL    HW2 2174   1.500   0.647   1.151  0.9871 -1.9536  1.2085
  532SOL    HW3 2175   1.583   0.539   1.087  0.0443 -1.9631 -0.0048
  532SOL    MW4 2176   1.507   0.580   1.096  0.5811 -0.9649 -0.0660
  533SOL     OW 2177   0.747   2.590   3.009  0.2420 -0.1688  0.1483
  533SOL    HW2 2178   0.670   2.594   3.065 -0.7242  1.0664 -1.2213
  533SOL    HW3 2179   0.821   2.597   3.069 -0.7418 -0.0868  1.3692
  533SOL    MW4 2180   0.747   2.592   3.024 -0.0153  0.0048  0.1287
  534SOL     OW 2181   0.457   2.803   4.280  0.3968 -0.5251 -0.1009
  534SOL    HW2 2182   0.481   2.728   4.335  1.7255  0.9486  1.3810
  534SOL    HW3 2183   0.368   2.825   4.306  0.7728 -0.2700  0.9928
  534SOL    MW4 2184   0.448   2.796   4.290  0.6217 -0.2968  0.2389
  535SOL     OW 2185   1.277   0.819   4.031 -0.2316  0.2554 -0.0823
  535SOL    HW2 2186   1.257   0.830   3.938  2.2504  2.4971 -0.4193
  535SOL    HW3 2187   1.220   0.883   4.075 -2.0300 -1.3971  0.0756
  535SOL    MW4 2188   1.267   0.829   4.024 -0.1415  0.3331 -0.1063
  536SOL     OW 2189   0.712   3.524   0.595 -0.4328 -0.0490 -0.4349
  536SOL    HW2 2190   0.766   3.445   0.592  1.3783  1.1688 -0.3592
  536SOL    HW3 2191   0.643   3.503   0.658 -0.1648 -1.6879 -0.6721
  536SOL    MW4 2192   0.710   3.511   0.603 -0.1585 -0.1044 -0.4562
  537SOL     OW 2193   2.490   3.195   1.537  0.9430  0.3788 -0.2985
  537SOL    HW2 2194   2.426   3.243   1.589  0.1752  1.0432 -1.8438
  537SOL    HW3 2195   2.555   3.165   1.601  0.6792  2.2445  0.8840
  537SOL    MW4 2196   2.490   3.197   1.552  0.8066  0.7122 -0.3462
  538SOL     OW 2197   0.434   1.807   3.479 -0.2333 -0.8836 -0.3463
  538SOL    HW2 2198   0.516   1.781   3.522  0.1864  0.0483 -0.5680
  538SOL    HW3 2199   0.426   1.900   3.496 -0.9948 -0.8675 -0.7600
  538SOL    MW4 2200   0.444   1.816   3.487 -0.2784 -0.7585 -0.4303
  539SOL     OW 2201   0.080   0.596   3.891  0.6871 -0.1273 -0.2548
  539SOL    HW2 2202   0.156   0.633   3.935 -0.0304  0.5322  0.4587
  539SOL    HW3 2203   0.028   0.557   3.961 -0.7014  1.3437 -0.4202
  539SOL    MW4 2204   0.083   0.596   3.906  0.4092  0.1538 -0.1824
  540SOL     OW 2205   2.036   0.938   1.750  0.3040 -0.4026 -0.1996
  540SOL    HW2 2206   1.956   0.929   1.803  0.3540 -1.9780 -0.3880
  540SOL    HW3 2207   2.088   0.861   1.772  1.1424 -0.1195 -1.1813
  540SOL    MW4 2208   2.032   0.927   1.760  0.4213 -0.5731 -0.3541
  541SOL     OW 2209   1.980   0.234   4.336 -0.2783 -0.4629  0.3073
  541SOL    HW2 2210   2.017   0.320   4.357 -4.0825  0.9115  1.7719
  541SOL    HW3 2211   1.944   0.244   4.248 -1.6910 -0.1757  0.9019
  541SOL    MW4 2212   1.980   0.246   4.328 -0.9667 -0.2437  0.5784
  542SOL     OW 2213   1.142   2.662   2.704  0.2371  0.1827 -0.0745
  542SOL    HW2 2214   1.095   2.734   2.662 -0.7732 -0.0039  0.7196
  542SOL    HW3 2215   1.093   2.583   2.680  1.7814 -0.3536 -1.5806
  542SOL    MW4 2216   1.130   2.661   2.695  0.3076  0.0873 -0.1686
  543SOL     OW 2217   0.304   3.140   1.677  0.1793 -0.3640  0.6353
  543SOL    HW2 2218   0.348   3.141   1.762  0.1183 -0.9646  0.6763
  543SOL    HW3 2219   0.232   3.078   1.689 -2.1676  2.3712  1.3373
  543SOL    MW4 2220   0.300   3.132   1.690 -0.1384 -0.0820  0.7333
  544SOL     OW 2221   2.644   0.191   1.862  0.0247  0.0207  0.1392
  544SOL    HW2 2222   2.726   0.158   1.825  0.2161  0.5834  0.0688
  544SOL    HW3 2223   2.578   0.128   1.833  0.0641  0.8087 -1.7196
  544SOL    MW4 2224   2.646   0.178   1.853  0.0551  0.1989 -0.1154
  545SOL     OW 2225   3.124   0.716   1.045 -0.1579 -0.6286 -0.1338
  545SOL    HW2 2226   3.119   0.669   0.963 -1.5564  1.7847 -1.4850
  545SOL    HW3 2227   3.040   0.761   1.053  1.0159  1.4343  1.1829
  545SOL    MW4 2228   3.112   0.716   1.036 -0.1874 -0.0380 -0.1384
  546SOL     OW 2229   0.213   3.179   1.023 -0.0320 -0.4317  0.0209
  546SOL    HW2 2230   0.269   3.184   1.100 -0.7886  0.3255  0.5317
  546SOL    HW3 2231   0.263   3.224   0.954  0.2733 -0.3389  0.3037
  546SOL    MW4 2232   0.227   3.186   1.024 -0.0916 -0.3195  0.1255
  547SOL     OW 2233   2.910   1.292   2.839 -0.0378 -0.4392  0.6182
  547SOL    HW2 2234   2.928   1.265   2.749  0.6903 -1.7608  1.1485
  547SOL    HW3 2235   2.836   1.238   2.866 -0.9598  0.7163  0.4713
  547SOL    MW4 2236   2.903   1.282   2.830 -0.0634 -0.4611  0.6688
  548SOL     OW 2237   3.955   2.702   3.665  0.1170 -0.0250  0.0166
  548SOL    HW2 2238   3.899   2.721   3.590  0.3382  1.1648  0.1390
  548SOL    HW3 2239   4.042   2.689   3.627 -0.0846 -1.0958 -0.0946
  548SOL    MW4 2240   3.959   2.703   3.650  0.1199 -0.0093  0.0181
  549SOL     OW 2241   1.195   0.207   0.704 -0.6699  0.3392  0.1098
  549SOL    HW2 2242   1.165   0.264   0.632 -0.3755  1.5183  0.9018
  549SOL    HW3 2243   1.290   0.221   0.706 -0.5111 -0.7107 -0.1330
  549SOL    MW4 2244   1.204   0.217   0.695 -0.6100  0.3563  0.1823
  550SOL     OW 2245   3.636   3.316   3.625 -0.1545 -0.0285  0.0772
  550SOL    HW2 2246   3.651   3.398   3.577 -0.1127 -0.5022 -0.7207
  550SOL    HW3 2247   3.570   3.270   3.573 -0.6629 -0.2056  0.8793
  550SOL    MW4 2248   3.629   3.321   3.612 -0.2160 -0.1144  0.0777
  551SOL     OW 2249   4.310   0.280   1.416 -0.3082  0.4635  0.4465
  551SOL    HW2 2250   4.279   0.231   1.339 -0.0562  0.9325  0.0439
  551SOL    HW3 2251   4.404   0.288   1.402 -0.0895 -0.4683  1.3875
  551SOL    MW4 2252   4.318   0.274   1.404 -0.2460  0.4025  0.5175
  552SOL     OW 2253   3.127   3.556   4.423 -0.0278  0.1760  0.3683
  552SOL    HW2 2254   3.118   3.648   4.396  0.6195  0.4549  1.0612
  552SOL    HW3 2255   3.195   3.521   4.365  0.6558  0.5038  0.9499
  552SOL    MW4 2256   3.135   3.564   4.412  0.1476  0.2563  0.5364
  553SOL     OW 2257   1.985   0.163   3.439 -0.2110  0.4490  0.2047
  553SOL    HW2 2258   1.946   0.079   3.416  0.0203  0.4245 -0.1077
  553SOL    HW3 2259   1.928   0.228   3.397  0.3231  0.3968 -0.6211
  553SOL    MW4 2260   1.972   0.160   3.430 -0.1100  0.4389  0.0544
  554SOL     OW 2261   0.831   4.347   4.114 -0.2908 -0.3840 -0.1353
  554SOL    HW2 2262   0.811   4.391   4.196 -1.8885  0.1962 -0.8085
  554SOL    HW3 2263   0.901   4.286   4.135 -1.9725 -1.6179  2.0896
  554SOL    MW4 2264   0.837   4.344   4.128 -0.7235 -0.4711  0.0696
  555SOL     OW 2265   1.261   2.130   3.485  0.2143 -0.3352 -0.1625
  555SOL    HW2 2266   1.271   2.119   3.390 -1.1923  1.2067 -0.4983
  555SOL    HW3 2267   1.223   2.217   3.496  1.9975  0.2207  1.9288
  555SOL    MW4 2268   1.258   2.140   3.474  0.2639 -0.0584  0.0691
  556SOL     OW 2269   2.375   3.492   0.785  0.3998 -0.0062  0.4470
  556SOL    HW2 2270   2.289   3.496   0.742  1.0849  2.6582 -0.7538
  556SOL    HW3 2271   2.355   3.496   0.878 -0.7493  3.7707  0.1493
  556SOL    MW4 2272   2.361   3.493   0.791  0.3383  0.8438  0.2493
  557SOL     OW 2273   3.946   2.430   4.139  0.3270 -0.2112  0.1469
  557SOL    HW2 2274   4.012   2.361   4.148 -0.9588 -1.6214 -0.8583
  557SOL    HW3 2275   3.945   2.474   4.224  1.8752 -0.7802  0.4730
  557SOL    MW4 2276   3.954   2.427   4.152  0.3617 -0.4723  0.0572
  558SOL     OW 2277   0.050   1.887   4.089 -0.0470 -0.0223  0.0700
  558SOL    HW2 2278  -0.012   1.844   4.147  1.4719 -2.2801  0.0865
  558SOL    HW3 2279   0.086   1.960   4.141  0.1142 -1.0392  1.4076
  558SOL    MW4 2280   0.047   1.891   4.104  0.1747 -0.4543  0.2489
  559SOL     OW 2281   1.052   0.597   2.135  0.0691  0.3697 -0.1983
  559SOL    HW2 2282   1.115   0.629   2.200  1.5654 -2.5593 -0.1420
  559SOL    HW3 2283   1.104   0.587   2.055 -0.3998 -1.6666 -0.2736
  559SOL    MW4 2284   1.067   0.600   2.133  0.2046 -0.2853 -0.2007
  560SOL     OW 2285   1.069   0.652   1.331 -0.1800  0.1812 -0.4684
  560SOL    HW2 2286   1.026   0.729   1.295  1.6376  0.7646 -1.4143
  560SOL    HW3 2287   1.094   0.600   1.255 -0.4217 -0.8386  0.1274
  560SOL    MW4 2288   1.066   0.655   1.316  0.0281  0.1236 -0.5146
  561SOL     OW 2289   3.398   3.483   1.871  0.2047 -0.1643 -0.2751
  561SOL    HW2 2290   3.487   3.461   1.897  0.6546 -0.2718 -1.8993
  561SOL    HW3 2291   3.405   3.572   1.837 -0.6106  0.4367  1.0610
  561SOL    MW4 2292   3.411   3.492   1.870  0.1564 -0.0992 -0.3130
  562SOL     OW 2293   1.377   1.668   0.817 -0.1382 -0.0417  0.3056
  562SOL    HW2 2294   1.422   1.586   0.794  0.0302  0.0101  0.4535
  562SOL    HW3 2295   1.351   1.657   0.908  0.4046  0.3077  0.5032
  562SOL    MW4 2296   1.380   1.656   0.826 -0.0442  0.0112  0.3511
  563SOL     OW 2297   0.216   2.541   1.899 -0.3752 -0.3275  0.0029
  563SOL    HW2 2298   0.136   2.589   1.878 -0.5465 -1.3139 -1.6767
  563SOL    HW3 2299   0.187   2.451   1.915  0.1067 -0.1774  1.7584
  563SOL    MW4 2300   0.202   2.536   1.898 -0.3342 -0.4377  0.0129
  564SOL     OW 2301   2.362   0.007   3.794  0.3176 -0.2804  0.1320
  564SOL    HW2 2302   2.355   0.025   3.700 -1.8919 -0.6559  0.1854
  564SOL    HW3 2303   2.392   0.090   3.832  0.9168 -0.0336 -0.8724
  564SOL    MW4 2304   2.365   0.020   3.787  0.1051 -0.2974  0.0064
  565SOL     OW 2305   4.296   0.103   4.193  0.4070 -0.1815 -0.1810
  565SOL    HW2 2306   4.288   0.107   4.289 -0.2116  1.6354 -0.2731
  565SOL    HW3 2307   4.379   0.147   4.175 -0.5668  1.5400 -0.5923
  565SOL    MW4 2308   4.306   0.110   4.204  0.1969  0.2853 -0.2475
  566SOL     OW 2309   3.186   0.409   4.180  0.1710  0.2950 -0.0784
  566SOL    HW2 2310   3.152   0.368   4.259  1.4688  1.7367  1.2578
  566SOL    HW3 2311   3.281   0.400   4.187  0.3194  0.8229 -1.2631
  566SOL    MW4 2312   3.194   0.402   4.191  0.3619  0.5549 -0.0587
  567SOL     OW 2313   3.575   2.607   1.991 -0.3587 -0.3300  0.0899
  567SOL    HW2 2314   3.624   2.631   2.070  1.5000 -0.8585 -0.8690
  567SOL    HW3 2315   3.599   2.674   1.927 -0.6404 -0.7659 -0.4779
  567SOL    MW4 2316   3.585   2.619   1.993 -0.1504 -0.4575 -0.1117
  568SOL     OW 2317   0.365   3.347   3.442  0.0192 -0.4835  0.2752
  568SOL    HW2 2318   0.294   3.283   3.431  0.2833 -0.7646  0.1859
  568SOL    HW3 2319   0.415   3.314   3.517  1.5100 -1.6637 -1.1892
  568SOL    MW4 2320   0.363   3.334   3.451  0.2508 -0.6764  0.0701
  569SOL     OW 2321   4.034   3.789   2.931 -0.1629  0.2577  0.3051
  569SOL    HW2 2322   4.118   3.751   2.957  0.5491  1.6621  0.0741
  569SOL    HW3 2323   3.977   3.778   3.007  0.2641 -0.5548  0.5130
  569SOL    MW4 2324   4.037   3.782   2.944 -0.0124  0.3359  0.3021
  570SOL     OW 2325   0.621   3.909   2.951 -0.0769  0.5015 -0.2096
  570SOL    HW2 2326   0.550   3.845   2.947 -0.3129  0.5689  2.1287
  570SOL    HW3 2327   0.583   3.989   2.915 -1.2915  0.5910  1.1955
  570SOL    MW4 2328   0.606   3.912   2.946 -0.2683  0.5219  0.2844
  571SOL     OW 2329   1.927   0.567   3.425 -0.0724 -0.4744  0.1351
  571SOL    HW2 2330   2.019   0.549   3.441  0.2299  0.5815 -0.3450
  571SOL    HW3 2331   1.896   0.608   3.506 -0.0322 -0.5232  0.1750
  571SOL    MW4 2332   1.935   0.570   3.438 -0.0272 -0.3415  0.0772
  572SOL     OW 2333   3.035   1.447   4.595  0.4534  0.0122 -0.7950
  572SOL    HW2 2334   2.983   1.526   4.609 -0.5335 -1.1802  2.8556
  572SOL    HW3 2335   2.971   1.377   4.586  1.3531 -0.7324 -1.4891
  572SOL    MW4 2336   3.020   1.448   4.596  0.4418 -0.2434 -0.4053
  573SOL     OW 2337   2.804   4.022   2.769  0.3523 -0.4406  0.2539
  573SOL    HW2 2338   2.720   3.984   2.741  0.6214  0.1061 -1.3188
  573SOL    HW3 2339   2.870   3.969   2.725  0.7476  1.4779 -1.5254
  573SOL    MW4 2340   2.801   4.010   2.760  0.4399 -0.1154 -0.1888
  574SOL     OW 2341   3.031   1.873   3.221  0.4272  0.1206 -0.1288
  574SOL    HW2 2342   3.126   1.866   3.219  0.3264 -1.2452 -1.0499
  574SOL    HW3 2343   3.005   1.815   3.292  0.1924 -0.8850 -1.0183
  574SOL    MW4 2344   3.040   1.864   3.230  0.3829 -0.1924 -0.3674
  575SOL     OW 2345   0.825   3.781   2.791  0.0613 -0.0131  0.1935
  575SOL    HW2 2346   0.777   3.701   2.769 -1.1255  1.1742 -1.6284
  575SOL    HW3 2347   0.767   3.828   2.851  0.0769  0.2021  0.0411
  575SOL    MW4 2348   0.811   3.776   2.796 -0.0932  0.1719 -0.0670
  576SOL     OW 2349   1.488   0.461   1.554 -0.0448  0.6154 -0.1392
  576SOL    HW2 2350   1.445   0.462   1.640  0.5230  2.2110  0.1434
  576SOL    HW3 2351   1.545   0.384   1.557  0.6645  1.1766  1.2814
  576SOL    MW4 2352   1.490   0.451   1.566  0.1236  0.9000  0.0855
  577SOL     OW 2353   1.534   3.789   4.251  0.0116  0.4097 -0.4132
  577SOL    HW2 2354   1.621   3.757   4.232 -0.1187  0.9496 -1.9761
  577SOL    HW3 2355   1.504   3.830   4.169 -1.6267  0.3845  0.1436
  577SOL    MW4 2356   1.541   3.790   4.238 -0.2220  0.4773 -0.5465
  578SOL     OW 2357   4.303   1.021   3.371  0.2987 -0.1100 -0.3756
  578SOL    HW2 2358   4.287   1.114   3.387 -2.2227 -0.6659  0.6185
  578SOL    HW3 2359   4.371   1.019   3.304  2.7381  2.4012  1.9322
  578SOL    MW4 2360   4.310   1.033   3.364  0.2875  0.1479  0.0601
  579SOL     OW 2361   1.124   2.491   1.108 -0.0283  0.0641  0.1522
  579SOL    HW2 2362   1.173   2.410   1.094 -0.2533  0.1001 -0.8707
  579SOL    HW3 2363   1.044   2.463   1.151 -0.8189 -0.4684 -1.6015
  579SOL    MW4 2364   1.120   2.477   1.112 -0.1624 -0.0014 -0.2141
  580SOL     OW 2365   2.256   0.875   3.585  0.2152  1.0947  0.1639
  580SOL    HW2 2366   2.203   0.894   3.508  0.0348 -1.4216 -0.3595
  580SOL    HW3 2367   2.322   0.944   3.586 -0.7903  2.0927 -1.2951
  580SOL    MW4 2368   2.258   0.887   3.575  0.0587  0.8943 -0.0978
  581SOL     OW 2369   1.496   2.625   3.894  0.1260  0.2729 -0.2117
  581SOL    HW2 2370   1.484   2.660   3.805 -1.6862 -1.4715 -0.6935
  581SOL    HW3 2371   1.476   2.532   3.886 -2.2502  0.4728  2.4303
  581SOL    MW4 2372   1.492   2.618   3.881 -0.4267  0.0691  0.0734
  582SOL     OW 2373   0.601   1.644   3.282 -0.3898  0.0103 -0.2792
  582SOL    HW2 2374   0.539   1.571   3.277 -1.0676  0.5154  0.6359
  582SOL    HW3 2375   0.576   1.692   3.361  0.4089  0.9136 -0.5610
  582SOL    MW4 2376   0.589   1.641   3.292 -0.3738  0.1961 -0.1957
  583SOL     OW 2377   2.152   1.858   3.590  0.0494  0.0621 -0.2615
  583SOL    HW2 2378   2.183   1.860   3.500  1.7307 -1.2429  0.2526
  583SOL    HW3 2379   2.063   1.893   3.586 -0.0287 -0.3219 -2.4651
  583SOL    MW4 2380   2.144   1.863   3.578  0.2608 -0.1608 -0.4845
  584SOL     OW 2381   2.453   4.563   0.711  0.2282  1.0341 -0.1409
  584SOL    HW2 2382   2.547   4.571   0.695  0.3525  2.0806  1.0847
  584SOL    HW3 2383   2.420   4.652   0.701 -0.6160  0.6852 -0.4482
  584SOL    MW4 2384   2.461   4.575   0.707  0.1333  1.1258 -0.0197
  585SOL     OW 2385   3.531   0.135   4.120 -0.3753 -0.1774  0.3544
  585SOL    HW2 2386   3.482   0.095   4.048  0.6402 -0.6166 -0.1054
  585SOL    HW3 2387   3.598   0.188   4.076 -1.3335  1.5732  0.9648
  585SOL    MW4 2388   3.533   0.137   4.105 -0.3679 -0.0044  0.3743
  586SOL     OW 2389   2.809   4.189   0.584  0.1135  0.4443 -0.2937
  586SOL    HW2 2390   2.765   4.215   0.665 -0.2331 -0.5562 -0.1607
  586SOL    HW3 2391   2.738   4.165   0.525  0.3705  1.1072 -0.8807
  586SOL    MW4 2392   2.794   4.189   0.587  0.1016  0.3996 -0.3536
  587SOL     OW 2393   3.266   3.966   0.546  0.5112 -0.3840 -0.2609
  587SOL    HW2 2394   3.306   4.047   0.515  0.3669 -0.1516  0.1517
  587SOL    HW3 2395   3.173   3.985   0.550  0.3072 -1.0619 -1.6258
  587SOL    MW4 2396   3.259   3.979   0.543  0.4652 -0.4425 -0.3866
  588SOL     OW 2397   1.121   3.809   3.625 -0.7275  0.2551  0.8187
  588SOL    HW2 2398   1.169   3.854   3.694  1.3093  1.1389 -1.1033
  588SOL    HW3 2399   1.056   3.873   3.596 -1.0429  0.1806  1.3584
  588SOL    MW4 2400   1.119   3.824   3.630 -0.5003  0.3617  0.6366
  589SOL     OW 2401   1.118   1.574   3.302  0.4414 -0.0740 -0.1393
  589SOL    HW2 2402   1.027   1.558   3.279  0.2309  0.5936  0.1906
  589SOL    HW3 2403   1.126   1.670   3.302  1.0438 -0.1200  0.2044
  589SOL    MW4 2404   1.107   1.585   3.299  0.4929  0.0079 -0.0505
  590SOL     OW 2405   0.320   0.167   4.395  0.2016  0.1945  0.1069
  590SOL    HW2 2406   0.362   0.104   4.454  0.5445 -0.6952 -1.0647
  590SOL    HW3 2407   0.374   0.246   4.402 -0.2251  0.3818  1.5809
  590SOL    MW4 2408   0.333   0.169   4.404  0.1905  0.1019  0.1469
  591SOL     OW 2409   3.488   3.046   1.828  0.4346  0.5220  0.2534
  591SOL    HW2 2410   3.422   3.026   1.762  2.1618 -0.4632 -1.2100
  591SOL    HW3 2411   3.443   3.033   1.912 -1.6833  1.4534 -0.6996
  591SOL    MW4 2412   3.473   3.042   1.830  0.3829  0.5150 -0.0656
  592SOL     OW 2413   1.261   3.798   4.527  0.3305  0.7374 -0.1879
  592SOL    HW2 2414   1.333   3.862   4.529  1.4110 -0.4246 -0.9419
  592SOL    HW3 2415   1.268   3.752   4.611 -1.4712  2.6760  1.0691
  592SOL    MW4 2416   1.272   3.800   4.538  0.2353  0.8397 -0.1216
  593SOL     OW 2417   1.930   3.006   3.411 -0.6913  0.4121  0.3609
  593SOL    HW2 2418   1.966   2.941   3.351 -1.2523  1.0104 -0.6372
  593SOL    HW3 2419   1.971   3.089   3.385 -2.4390  1.0281 -0.5183
  593SOL    MW4 2420   1.940   3.009   3.400 -0.9960  0.5722  0.1132
  594SOL     OW 2421   1.061   4.195   4.119 -0.1485 -0.0578 -0.2836
  594SOL    HW2 2422   1.013   4.128   4.168  0.5330 -0.1875  0.2031
  594SOL    HW3 2423   1.108   4.244   4.185  2.5326 -1.6094 -0.9826
  594SOL    MW4 2424   1.061   4.193   4.134  0.2950 -0.2799 -0.3114
  595SOL     OW 2425   0.322   3.245   2.932 -0.1336 -0.3115  0.0913
  595SOL    HW2 2426   0.363   3.285   3.009 -0.0316 -0.5132  0.1412
  595SOL    HW3 2427   0.285   3.163   2.964  0.0456 -0.4700 -0.1083
  595SOL    MW4 2428   0.323   3.240   2.946 -0.0965 -0.3591  0.0715
  596SOL     OW 2429   0.190   2.115   3.019  0.1932 -0.0835  0.5004
  596SOL    HW2 2430   0.105   2.123   2.975  0.3720  0.2645  0.2120
  596SOL    HW3 2431   0.234   2.044   2.973  0.6180  0.6730 -0.2917
  596SOL    MW4 2432   0.185   2.107   3.007  0.2728  0.0622  0.3579
  597SOL     OW 2433   0.437   0.048   2.721  0.3991 -0.1617 -0.1455
  597SOL    HW2 2434   0.478   0.054   2.808  0.4584 -0.0250 -0.1836
  597SOL    HW3 2435   0.368  -0.017   2.732 -0.5807  0.9652  0.3871
  597SOL    MW4 2436   0.434   0.040   2.734  0.2777  0.0050 -0.0801
  598SOL     OW 2437   4.200   4.248   2.534 -0.0645 -0.1347  0.3222
  598SOL    HW2 2438   4.247   4.184   2.587  0.5369 -0.0222 -0.0711
  598SOL    HW3 2439   4.151   4.300   2.598 -0.1171 -0.6258  0.6885
  598SOL    MW4 2440   4.200   4.246   2.550  0.0076 -0.1845  0.3185
  599SOL     OW 2441   4.233   1.730   1.241 -0.1252 -0.5199 -0.5742
  599SOL    HW2 2442   4.164   1.690   1.188  0.0263  0.7778 -1.7820
  599SOL    HW3 2443   4.314   1.692   1.207  0.0025  0.6011 -1.5851
  599SOL    MW4 2444   4.235   1.720   1.229 -0.0887 -0.2009 -0.8669
  600SOL     OW 2445   0.991   2.624   0.464  0.0844 -0.7214 -0.0569
  600SOL    HW2 2446   1.064   2.685   0.476  1.5729 -2.2657 -0.9421
  600SOL    HW3 2447   0.964   2.636   0.373  0.2765 -1.2390 -0.1877
  600SOL    MW4 2448   0.997   2.634   0.453  0.3062 -0.9935 -0.1910
  601SOL     OW 2449   4.166   0.539   1.686 -0.1904 -0.1381  0.2351
  601SOL    HW2 2450   4.159   0.600   1.758  1.6485  1.6114 -1.0223
  601SOL    HW3 2451   4.185   0.455   1.727  0.5488  0.7790  1.7760
  601SOL    MW4 2452   4.167   0.536   1.701  0.1497  0.2138  0.2724
  602SOL     OW 2453   1.511   1.929   1.843 -0.0991 -0.0636  0.0497
  602SOL    HW2 2454   1.421   1.909   1.819 -0.2631  0.5888  0.1216
  602SOL    HW3 2455   1.556   1.844   1.843 -0.6046 -0.3256 -0.4337
  602SOL    MW4 2456   1.505   1.915   1.840 -0.1874 -0.0120 -0.0045
  603SOL     OW 2457   2.809   1.107   1.828  0.0671 -0.3092  0.3731
  603SOL    HW2 2458   2.777   1.055   1.754 -0.0202  0.3938 -0.0792
  603SOL    HW3 2459   2.899   1.075   1.842 -1.1990 -3.1550  2.4424
  603SOL    MW4 2460   2.817   1.096   1.820 -0.1111 -0.5918  0.5866
  604SOL     OW 2461   3.983   1.286   4.620 -0.3011 -0.0184 -0.5443
  604SOL    HW2 2462   3.951   1.198   4.642 -1.3342  0.2426 -0.9560
  604SOL    HW3 2463   4.070   1.271   4.582 -0.7912 -0.9439 -1.3282
  604SOL    MW4 2464   3.990   1.272   4.618 -0.5019 -0.1061 -0.7019
  605SOL     OW 2465   1.262   3.068   4.542 -0.0301  0.1829  0.0114
  605SOL    HW2 2466   1.177   3.076   4.498 -0.2378  0.3622  0.4455
  605SOL    HW3 2467   1.291   2.979   4.520  0.0270  0.3907 -0.7714
  605SOL    MW4 2468   1.255   3.057   4.533 -0.0498  0.2339 -0.0348
  606SOL     OW 2469   4.068   3.724   1.474 -0.3981  0.0534  0.2224
  606SOL    HW2 2470   3.999   3.745   1.411  0.4792  0.2624 -0.6809
  606SOL    HW3 2471   4.050   3.781   1.549 -0.2396  1.2987 -0.6742
  606SOL    MW4 2472   4.056   3.734   1.476 -0.2618  0.2453 -0.0149
  607SOL     OW 2473   0.005   3.649   2.405 -0.2243  0.3068  0.3065
  607SOL    HW2 2474  -0.050   3.642   2.483 -0.2576 -0.6720  0.2010
  607SOL    HW3 2475  -0.052   3.622   2.333 -0.5832  2.4197 -0.2429
  607SOL    MW4 2476  -0.010   3.644   2.406 -0.2756  0.4566  0.2201
  608SOL     OW 2477   1.234   2.622   1.330 -0.0187  0.1149 -0.6184
  608SOL    HW2 2478   1.206   2.571   1.254 -0.4698 -0.5082 -0.0331
  608SOL    HW3 2479   1.317   2.662   1.302 -1.8328  2.6669 -2.6827
  608SOL    MW4 2480   1.241   2.621   1.316 -0.3176  0.3693 -0.8137
  609SOL     OW 2481   4.119   2.942   2.236  0.3022  0.1549  0.3681
  609SOL    HW2 2482   4.037   2.948   2.186  1.0486 -0.8860 -1.0061
  609SOL    HW3 2483   4.100   2.988   2.318 -1.1566  1.3266 -0.5868
  609SOL    MW4 2484   4.106   2.949   2.241  0.2084  0.1721  0.0610
  610SOL     OW 2485   2.209   1.409   3.495 -0.4277  0.2624 -0.4162
  610SOL    HW2 2486   2.225   1.474   3.563 -0.3707 -0.7733  0.5711
  610SOL    HW3 2487   2.183   1.460   3.418 -0.4610  1.4361  0.3710
  610SOL    MW4 2488   2.208   1.424   3.494 -0.4249  0.2805 -0.1822
  611SOL     OW 2489   1.205   4.465   2.419 -0.7487  0.5292 -0.6104
  611SOL    HW2 2490   1.196   4.512   2.501 -1.0937  0.4244 -0.5829
  611SOL    HW3 2491   1.197   4.372   2.443  0.5992  0.4164 -0.5769
  611SOL    MW4 2492   1.202   4.459   2.433 -0.6164  0.5007 -0.6025
  612SOL     OW 2493   2.143   1.443   1.999  0.3927  0.1482  0.1096
  612SOL    HW2 2494   2.165   1.384   2.071 -0.5188 -1.2059 -0.6986
  612SOL    HW3 2495   2.063   1.487   2.028 -1.4355 -2.2779 -1.1068
  612SOL    MW4 2496   2.136   1.441   2.013  0.0312 -0.3505 -0.1574
  613SOL     OW 2497   0.382   0.173   2.326 -0.3557  0.1186 -0.0989
  613SOL    HW2 2498   0.325   0.118   2.379 -1.5487 -0.1981 -1.6759
  613SOL    HW3 2499   0.469   0.135   2.336 -0.7664 -0.6304  0.6785
  613SOL    MW4 2500   0.386   0.161   2.334 -0.5673 -0.0220 -0.2046
  614SOL     OW 2501   0.309   4.202   0.583 -0.0404  0.4746  0.0965
  614SOL    HW2 2502   0.382   4.264   0.577 -1.2287  2.2286  2.8263
  614SOL    HW3 2503   0.231   4.253   0.561 -0.9097 -0.3193  1.2562
  614SOL    MW4 2504   0.308   4.217   0.579 -0.3119  0.6022  0.6096
  615SOL     OW 2505   3.369   2.297   4.606  0.3015 -0.1675 -0.1147
  615SOL    HW2 2506   3.331   2.378   4.639  1.5244 -0.8302  3.1248
  615SOL    HW3 2507   3.296   2.251   4.565 -0.8050  1.7317 -0.3143
  615SOL    MW4 2508   3.354   2.301   4.605  0.3171 -0.0043  0.2861
  616SOL     OW 2509   3.109   3.700   3.515  0.4863 -0.1987  0.3650
  616SOL    HW2 2510   3.054   3.767   3.474 -0.5079 -1.0110  0.3307
  616SOL    HW3 2511   3.178   3.748   3.559  0.2423  0.8075 -0.3420
  616SOL    MW4 2512   3.111   3.715   3.515  0.3231 -0.1731  0.2673
  617SOL     OW 2513   2.679   2.121   1.397 -0.2705  0.0810 -1.1803
  617SOL    HW2 2514   2.642   2.185   1.458 -0.9635 -1.5590  0.1639
  617SOL    HW3 2515   2.603   2.071   1.367  0.5024 -1.4139 -0.6694
  617SOL    MW4 2516   2.664   2.123   1.401 -0.2599 -0.3326 -0.9354
  618SOL     OW 2517   1.855   4.567   3.428  0.6044 -0.1730  0.0260
  618SOL    HW2 2518   1.926   4.521   3.473 -0.4579 -0.4596  1.4487
  618SOL    HW3 2519   1.775   4.532   3.467 -0.4130 -1.3395 -2.9836
  618SOL    MW4 2520   1.854   4.556   3.439  0.3300 -0.3643 -0.1833
  619SOL     OW 2521   0.689   2.862   2.939  0.1295  0.2352 -0.3708
  619SOL    HW2 2522   0.709   2.769   2.951 -1.9875 -0.2713 -0.4879
  619SOL    HW3 2523   0.737   2.887   2.859  2.5875 -0.1147  0.9553
  619SOL    MW4 2524   0.698   2.853   2.930  0.1745  0.1221 -0.2115
  620SOL     OW 2525   0.762   0.850   4.182  0.6564  0.0679 -0.2777
  620SOL    HW2 2526   0.842   0.809   4.149  1.2479  0.5223  0.5801
  620SOL    HW3 2527   0.769   0.842   4.277 -0.0508  0.6238 -0.1784
  620SOL    MW4 2528   0.773   0.843   4.190  0.6412  0.2012 -0.1516
  621SOL     OW 2529   1.128   2.766   0.843 -0.2171 -0.3990  0.4738
  621SOL    HW2 2530   1.202   2.770   0.904 -0.6363  0.0752  0.9530
  621SOL    HW3 2531   1.147   2.690   0.788  1.7179  1.0032 -0.8407
  621SOL    MW4 2532   1.140   2.756   0.844 -0.0173 -0.1514  0.3636
  622SOL     OW 2533   2.631   1.713   1.646 -0.1017  0.0291 -0.2706
  622SOL    HW2 2534   2.668   1.802   1.646  0.4378 -0.1976 -0.7345
  622SOL    HW3 2535   2.638   1.685   1.737  0.6900  0.0614 -0.3184
  622SOL    MW4 2536   2.637   1.721   1.658  0.0737  0.0035 -0.3381
  623SOL     OW 2537   0.552   2.569   4.387 -0.1112  0.2726 -0.0208
  623SOL    HW2 2538   0.548   2.503   4.457 -0.7510  0.6973  0.3464
  623SOL    HW3 2539   0.636   2.613   4.400  0.0710 -0.0988  0.0683
  623SOL    MW4 2540   0.562   2.566   4.398 -0.1717  0.2797  0.0391
  624SOL     OW 2541   1.094   1.384   4.075 -0.3703  0.3689  0.0528
  624SOL    HW2 2542   1.013   1.434   4.079  0.7446  2.3682 -0.8472
  624SOL    HW3 2543   1.120   1.389   3.982 -0.0009 -1.5436  0.0324
  624SOL    MW4 2544   1.087   1.391   4.063 -0.1745  0.3804 -0.0691
  625SOL     OW 2545   2.814   2.872   4.040 -0.2112  0.0872  0.1275
  625SOL    HW2 2546   2.853   2.859   3.954  1.6191 -1.6993  1.1790
  625SOL    HW3 2547   2.861   2.811   4.097 -1.9194  0.6736  2.2372
  625SOL    MW4 2548   2.825   2.862   4.036 -0.1950 -0.0713  0.5450
  626SOL     OW 2549   4.224   3.250   3.558 -0.1632  0.0725  0.3901
  626SOL    HW2 2550   4.130   3.264   3.571 -0.2824 -1.1448  0.9268
  626SOL    HW3 2551   4.256   3.225   3.644  0.5669  0.0301  0.1035
  626SOL    MW4 2552   4.216   3.249   3.571 -0.0825 -0.0937  0.4230
  627SOL     OW 2553   4.301   3.188   1.973  0.2983 -0.2970 -0.1645
  627SOL    HW2 2554   4.372   3.236   1.931  0.1852  2.2893  2.4213
  627SOL    HW3 2555   4.222   3.232   1.942  0.0588 -0.5611  0.0732
  627SOL    MW4 2556   4.300   3.201   1.964  0.2518  0.0095  0.2080
  628SOL     OW 2557   2.694   2.730   2.952 -0.1279  0.0253 -0.1797
  628SOL    HW2 2558   2.706   2.714   3.046 -0.3751  0.6528 -0.0380
  628SOL    HW3 2559   2.652   2.651   2.919 -0.6058  0.0581  0.3578
  628SOL    MW4 2560   2.690   2.718   2.960 -0.2236  0.1123 -0.0901
  629SOL     OW 2561   2.029   0.896   2.587  0.0327  0.0148  0.1244
  629SOL    HW2 2562   2.000   0.870   2.499  0.6887 -1.4539  0.3232
  629SOL    HW3 2563   1.982   0.837   2.646 -0.0134  0.6522  0.7383
  629SOL    MW4 2564   2.019   0.885   2.583  0.1130 -0.0949  0.2317
  630SOL     OW 2565   2.788   2.462   4.646 -0.3052 -0.1187 -0.1307
  630SOL    HW2 2566   2.789   2.449   4.551  0.1221 -1.2866  0.0285
  630SOL    HW3 2567   2.696   2.454   4.670 -0.6455  1.8881 -0.6612
  630SOL    MW4 2568   2.776   2.459   4.636 -0.2937 -0.0079 -0.1798
  631SOL     OW 2569   0.907   3.323   3.289 -0.3164  0.0591 -0.2753
  631SOL    HW2 2570   0.998   3.349   3.274 -0.8142  1.5918 -0.7505
  631SOL    HW3 2571   0.876   3.382   3.357 -1.8865  1.7710 -2.3687
  631SOL    MW4 2572   0.915   3.334   3.296 -0.5893  0.4869 -0.6142
  632SOL     OW 2573   2.072   3.284   3.668  0.5286 -0.1518 -0.3429
  632SOL    HW2 2574   2.156   3.284   3.714  0.0171 -0.6698  0.6062
  632SOL    HW3 2575   2.094   3.257   3.579  1.1622 -1.8770  0.3108
  632SOL    MW4 2576   2.086   3.281   3.662  0.5448 -0.4480 -0.1316
  633SOL     OW 2577   1.909   1.991   3.586  0.2174  0.2646  0.0267
  633SOL    HW2 2578   1.944   2.079   3.603 -0.6137  0.4478  0.8565
  633SOL    HW3 2579   1.847   2.004   3.514 -0.8621  0.5939  1.0058
  633SOL    MW4 2580   1.906   2.004   3.579 -0.0348  0.3321  0.2654
  634SOL     OW 2581   4.227   1.584   1.473  0.4967  0.1775  0.3334
  634SOL    HW2 2582   4.237   1.618   1.384  1.2985  0.8349  0.6557
  634SOL    HW3 2583   4.133   1.576   1.486  0.4336 -2.1921 -1.4041
  634SOL    MW4 2584   4.216   1.588   1.463  0.5937 -0.0484  0.1465
  635SOL     OW 2585   3.575   3.773   2.953 -0.2592  0.3322  0.3882
  635SOL    HW2 2586   3.657   3.753   2.998  0.2625  1.3427 -0.0768
  635SOL    HW3 2587   3.558   3.865   2.975 -0.5332  0.5341 -0.6310
  635SOL    MW4 2588   3.583   3.783   2.962 -0.2265  0.4921  0.1924
  636SOL     OW 2589   1.720   4.554   0.795 -0.0510 -0.1836 -0.1339
  636SOL    HW2 2590   1.635   4.526   0.759 -1.3872  1.0972  1.9170
  636SOL    HW3 2591   1.756   4.613   0.728 -1.4258  0.3563 -0.4157
  636SOL    MW4 2592   1.713   4.558   0.781 -0.4088  0.0563  0.0995
  637SOL     OW 2593   0.449   4.400   1.833  0.2638 -0.2247 -0.3190
  637SOL    HW2 2594   0.491   4.378   1.916  1.4085  0.4989 -0.6986
  637SOL    HW3 2595   0.371   4.450   1.858  1.1007  0.7992  0.2962
  637SOL    MW4 2596   0.444   4.404   1.848  0.5252  0.0057 -0.2879
  638SOL     OW 2597   1.168   2.499   0.817  0.3649 -0.6808  0.5503
  638SOL    HW2 2598   1.121   2.512   0.899 -0.5160  0.6479 -0.1376
  638SOL    HW3 2599   1.115   2.434   0.769  1.4871 -2.3160  1.4735
  638SOL    MW4 2600   1.154   2.492   0.821  0.3967 -0.7212  0.5813
  639SOL     OW 2601   0.673   1.270   0.885  0.1255 -0.3472 -0.1394
  639SOL    HW2 2602   0.740   1.204   0.870 -0.1930 -0.5556 -0.6675
  639SOL    HW3 2603   0.651   1.262   0.978  1.2401  0.1195  0.1744
  639SOL    MW4 2604   0.679   1.260   0.895  0.2306 -0.3132 -0.1677
  640SOL     OW 2605   2.509   2.411   4.680 -0.5001  0.0603  0.0692
  640SOL    HW2 2606   2.467   2.379   4.760  1.0230 -0.5683  0.6425
  640SOL    HW3 2607   2.473   2.355   4.610 -1.7833  0.5723  0.2986
  640SOL    MW4 2608   2.498   2.399   4.681 -0.4685  0.0451  0.1750
  641SOL     OW 2609   3.296   0.229   1.227  0.3864 -0.1475 -0.3378
  641SOL    HW2 2610   3.291   0.320   1.199  1.4045 -0.1212 -0.4390
  641SOL    HW3 2611   3.369   0.192   1.177  1.2099 -0.5235  1.1172
  641SOL    MW4 2612   3.305   0.236   1.217  0.6294 -0.1936 -0.1591
  642SOL     OW 2613   2.610   3.976   0.766 -0.5165  0.2173  0.0138
  642SOL    HW2 2614   2.661   3.930   0.699 -0.8290 -0.3765  0.1850
  642SOL    HW3 2615   2.548   4.029   0.717 -0.9216 -0.4177 -0.1717
  642SOL    MW4 2616   2.609   3.977   0.751 -0.6113  0.0551  0.0119
  643SOL     OW 2617   1.878   2.002   4.197  0.0050  0.6279  0.1946
  643SOL    HW2 2618   1.806   2.007   4.260  1.6488  0.5299  2.1498
  643SOL    HW3 2619   1.953   1.972   4.249  1.4027  0.5008 -1.8355
  643SOL    MW4 2620   1.879   1.999   4.212  0.4063  0.5983  0.1845
  644SOL     OW 2621   1.530   1.817   2.941  0.0602 -0.0009  0.6931
  644SOL    HW2 2622   1.441   1.844   2.918  0.3155  2.0678  1.9771
  644SOL    HW3 2623   1.583   1.840   2.865 -0.3922 -0.6154  0.1929
  644SOL    MW4 2624   1.525   1.824   2.928  0.0342  0.1909  0.7966
  645SOL     OW 2625   3.572   4.612   3.535 -0.1537 -0.1527  0.1455
  645SOL    HW2 2626   3.591   4.695   3.580  1.9805  0.0699 -1.1391
  645SOL    HW3 2627   3.507   4.635   3.469 -1.2033  0.0501  1.2180
  645SOL    MW4 2628   3.566   4.626   3.532 -0.0103 -0.0968  0.1175
  646SOL     OW 2629   2.444   0.601   2.161  0.6391 -0.2479  0.3523
  646SOL    HW2 2630   2.538   0.588   2.153  0.9249  1.0420  1.4028
  646SOL    HW3 2631   2.420   0.558   2.243 -0.0777 -2.4489 -0.9817
  646SOL    MW4 2632   2.453   0.594   2.171  0.5820 -0.3681  0.3147
  647SOL     OW 2633   2.690   3.327   2.512 -0.5841 -0.3234 -0.2124
  647SOL    HW2 2634   2.671   3.365   2.598 -2.4031 -1.5870 -0.0283
  647SOL    HW3 2635   2.776   3.286   2.522 -0.8371 -0.5599  1.0427
  647SOL    MW4 2636   2.699   3.327   2.524 -0.8576 -0.5214 -0.0224
  648SOL     OW 2637   0.896   2.186   4.454  0.5763 -0.2526  0.2638
  648SOL    HW2 2638   0.950   2.117   4.492  1.1360 -1.0855 -1.9760
  648SOL    HW3 2639   0.957   2.259   4.441  0.6397 -0.3672 -0.0835
  648SOL    MW4 2640   0.911   2.187   4.458  0.6585 -0.3777 -0.0777
  649SOL     OW 2641   3.493   0.532   0.597  0.4525  0.6775  0.0151
  649SOL    HW2 2642   3.486   0.552   0.504  0.7966  3.7863  0.6168
  649SOL    HW3 2643   3.556   0.459   0.601  0.6366  0.6850 -2.1433
  649SOL    MW4 2644   3.501   0.525   0.586  0.5219  1.0887 -0.1903
  650SOL     OW 2645   4.410   0.310   3.498 -0.1449  0.2098  0.0050
  650SOL    HW2 2646   4.396   0.331   3.406 -1.1332 -0.8825 -0.0932
  650SOL    HW3 2647   4.461   0.384   3.532  1.0511  0.1624 -1.6398
  650SOL    MW4 2648   4.415   0.323   3.491 -0.1173  0.0594 -0.2251
  651SOL     OW 2649   2.960   3.848   2.136 -0.1403 -0.4478  0.2151
  651SOL    HW2 2650   3.009   3.895   2.068  0.4409  0.2327  1.0810
  651SOL    HW3 2651   2.937   3.764   2.096  0.6912 -0.2876 -0.6232
  651SOL    MW4 2652   2.964   3.843   2.122  0.0460 -0.3366  0.2189
  652SOL     OW 2653   1.528   3.245   2.753  0.1848 -0.1375  0.0212
  652SOL    HW2 2654   1.522   3.157   2.715  1.5079 -0.0899 -0.3365
  652SOL    HW3 2655   1.620   3.270   2.741 -0.1675  1.2786  0.1575
  652SOL    MW4 2656   1.539   3.237   2.746  0.3129  0.0556 -0.0081
  653SOL     OW 2657   3.907   4.625   4.387  0.1444 -0.4266  0.2070
  653SOL    HW2 2658   3.824   4.614   4.433  0.6554 -1.8817  0.7973
  653SOL    HW3 2659   3.883   4.653   4.299 -0.9375 -0.3079  0.5327
  653SOL    MW4 2660   3.893   4.627   4.382  0.0691 -0.6027  0.3281
  654SOL     OW 2661   2.564   3.748   3.215 -0.2651  0.4278  0.2136
  654SOL    HW2 2662   2.618   3.825   3.201 -0.1098  0.5187  1.2578
  654SOL    HW3 2663   2.524   3.762   3.301 -1.7728  0.2589 -0.4379
  654SOL    MW4 2664   2.566   3.760   3.224 -0.4435  0.4177  0.2654
  655SOL     OW 2665   3.581   3.760   1.965 -0.4371  0.3351 -0.5829
  655SOL    HW2 2666   3.666   3.717   1.969  0.6184  2.3298 -0.8958
  655SOL    HW3 2667   3.566   3.775   1.871 -2.0955 -1.8287 -0.6950
  655SOL    MW4 2668   3.590   3.757   1.953 -0.5164  0.3130 -0.6391
  656SOL     OW 2669   0.522   1.743   4.258  0.5443  0.0912 -0.0109
  656SOL    HW2 2670   0.538   1.739   4.163 -0.8913 -0.1561 -0.2456
  656SOL    HW3 2671   0.452   1.679   4.273 -1.3531  2.3164  0.7666
  656SOL    MW4 2672   0.515   1.734   4.247  0.1045  0.3521  0.0606
  657SOL     OW 2673   0.885   1.734   2.662 -0.0328  0.7330  0.1684
  657SOL    HW2 2674   0.837   1.777   2.732 -0.2060  2.7493 -1.1482
  657SOL    HW3 2675   0.965   1.701   2.704 -0.2527  1.6927  1.3492
  657SOL    MW4 2676   0.889   1.735   2.677 -0.0846  1.1257  0.1502
  658SOL     OW 2677   3.334   3.454   3.392 -0.4385  0.0074 -0.2768
  658SOL    HW2 2678   3.386   3.379   3.419 -1.1333 -0.7383 -0.9812
  658SOL    HW3 2679   3.265   3.417   3.337 -0.1852  1.2545 -1.4778
  658SOL    MW4 2680   3.332   3.439   3.388 -0.4969  0.0737 -0.5283
  659SOL     OW 2681   2.084   3.530   2.900  0.1637 -0.0716 -0.4997
  659SOL    HW2 2682   2.151   3.577   2.849 -0.5452  1.0082 -0.4528
  659SOL    HW3 2683   2.003   3.543   2.852 -0.4448  0.6194  0.6841
  659SOL    MW4 2684   2.082   3.538   2.887 -0.0100  0.1624 -0.3374
  660SOL     OW 2685   1.655   2.813   2.951  0.1457  0.8282  0.3081
  660SOL    HW2 2686   1.731   2.871   2.956  0.3061  0.5377  1.4724
  660SOL    HW3 2687   1.618   2.815   3.039 -0.3807 -0.1164  0.1145
  660SOL    MW4 2688   1.660   2.821   2.963  0.0974  0.6652  0.4363
  661SOL     OW 2689   2.516   3.420   1.055  0.8642 -0.2605 -0.0105
  661SOL    HW2 2690   2.542   3.507   1.023 -1.2128  0.1597 -0.6286
  661SOL    HW3 2691   2.518   3.428   1.150  1.6261  0.1718 -0.0564
  661SOL    MW4 2692   2.520   3.433   1.063  0.6907 -0.1478 -0.0982
  662SOL     OW 2693   3.728   2.307   4.030 -0.0898 -0.0127 -0.3808
  662SOL    HW2 2694   3.800   2.367   4.048 -0.9083  0.7608  0.3922
  662SOL    HW3 2695   3.651   2.364   4.024 -0.6484 -0.8300 -1.1640
  662SOL    MW4 2696   3.727   2.323   4.031 -0.2716 -0.0186 -0.3824
  663SOL     OW 2697   0.761   1.106   0.436 -0.7406 -0.0795  0.2267
  663SOL    HW2 2698   0.743   1.109   0.342 -0.3011 -2.4677  0.0497
  663SOL    HW3 2699   0.723   1.024   0.465  0.9521 -0.3462  1.7420
  663SOL    MW4 2700   0.754   1.096   0.427 -0.4593 -0.4297  0.4033
  664SOL     OW 2701   1.319   0.913   2.548 -0.2860  0.7443 -0.8088
  664SOL    HW2 2702   1.331   0.875   2.461 -0.2316 -0.5175 -0.2476
  664SOL    HW3 2703   1.400   0.893   2.595 -1.5210 -1.3025  0.5418
  664SOL    MW4 2704   1.331   0.906   2.543 -0.4418  0.3078 -0.5565
  665SOL     OW 2705   2.765   4.119   4.448  0.2973  0.2461 -0.4888
  665SOL    HW2 2706   2.751   4.131   4.354 -0.3770  0.1753 -0.4033
  665SOL    HW3 2707   2.805   4.033   4.455  1.8702  0.9350 -0.8342
  665SOL    MW4 2708   2.768   4.109   4.436  0.4160  0.3271 -0.5226
  666SOL     OW 2709   0.589   1.583   1.435  0.6869  0.1996  0.3024
  666SOL    HW2 2710   0.496   1.563   1.420  0.5612  1.1110 -0.1783
  666SOL    HW3 2711   0.630   1.498   1.448 -0.2826 -0.1910  0.8966
  666SOL    MW4 2712   0.582   1.570   1.435  0.5424  0.2683  0.3173
  667SOL     OW 2713   4.359   3.594   4.501  0.2087  0.0942  0.3762
  667SOL    HW2 2714   4.343   3.688   4.492 -0.2158  0.2460  2.4424
  667SOL    HW3 2715   4.274   3.554   4.483 -0.5396  0.3722  3.0035
  667SOL    MW4 2716   4.346   3.601   4.497  0.0539  0.1509  0.9956
  668SOL     OW 2717   4.367   1.070   2.902 -0.3428 -0.5921 -0.2086
  668SOL    HW2 2718   4.284   1.117   2.898  0.4872  0.8458 -1.0629
  668SOL    HW3 2719   4.408   1.086   2.817  2.3097  1.5250  1.3795
  668SOL    MW4 2720   4.362   1.078   2.890  0.1163 -0.1231 -0.1118
  669SOL     OW 2721   1.258   1.926   4.918 -0.6865 -0.3715 -0.0051
  669SOL    HW2 2722   1.183   1.974   4.883 -0.1370  1.1770  0.9302
  669SOL    HW3 2723   1.331   1.950   4.861 -1.3274 -3.6815 -2.3569
  669SOL    MW4 2724   1.258   1.935   4.906 -0.6986 -0.6038 -0.1917
  670SOL     OW 2725   0.980   2.697   4.240 -0.1506  0.1575  0.1384
  670SOL    HW2 2726   1.020   2.635   4.301 -0.1078 -0.1081 -0.1572
  670SOL    HW3 2727   1.052   2.751   4.209  0.0620 -0.6110 -0.7360
  670SOL    MW4 2728   0.995   2.696   4.244 -0.1170  0.0210 -0.0157
  671SOL     OW 2729   4.132   1.743   4.028  0.3778  0.1907 -0.3702
  671SOL    HW2 2730   4.132   1.753   4.123  0.6957  0.7118 -0.4224
  671SOL    HW3 2731   4.215   1.701   4.008 -0.3438 -1.3013 -0.2835
  671SOL    MW4 2732   4.143   1.739   4.038  0.3247  0.0626 -0.3653
  672SOL     OW 2733   1.309   1.582   3.743 -0.1697  0.3219 -0.5446
  672SOL    HW2 2734   1.380   1.624   3.791 -0.4051  0.3875 -0.2507
  672SOL    HW3 2735   1.283   1.508   3.798 -0.2279  0.2118 -0.7210
  672SOL    MW4 2736   1.315   1.578   3.757 -0.2084  0.3161 -0.5288
  673SOL     OW 2737   0.419   0.516   2.714 -0.9531  0.5586  0.3429
  673SOL    HW2 2738   0.370   0.454   2.659 -0.9378 -1.1071  2.1333
  673SOL    HW3 2739   0.355   0.547   2.778 -0.6961  1.5982  0.0951
  673SOL    MW4 2740   0.405   0.512   2.715 -0.9172  0.4760  0.5465
  674SOL     OW 2741   0.930   2.076   1.973 -0.5486 -0.5636 -0.0157
  674SOL    HW2 2742   0.977   2.046   2.050 -0.2830  0.2755  0.1488
  674SOL    HW3 2743   0.910   2.168   1.990 -0.9496 -0.5106 -0.7184
  674SOL    MW4 2744   0.933   2.084   1.985 -0.5664 -0.4461 -0.0868
  675SOL     OW 2745   0.560   1.773   3.981  0.2163 -0.1865  0.2376
  675SOL    HW2 2746   0.650   1.762   3.949  0.1102  1.1790 -0.5680
  675SOL    HW3 2747   0.505   1.758   3.904 -0.1399  1.0613  0.2370
  675SOL    MW4 2748   0.565   1.770   3.967  0.1553  0.1583  0.1311
  676SOL     OW 2749   1.463   1.107   4.355  0.4702  0.2208 -0.0019
  676SOL    HW2 2750   1.395   1.158   4.312  0.8811  0.5247 -0.2891
  676SOL    HW3 2751   1.463   1.023   4.308 -0.2346 -0.0687  0.4990
  676SOL    MW4 2752   1.454   1.103   4.343  0.4314  0.2228  0.0262
  677SOL     OW 2753   2.383   1.789   1.241 -0.1908  0.3099 -0.4050
  677SOL    HW2 2754   2.413   1.748   1.322 -0.8387 -0.8465 -0.7441
  677SOL    HW3 2755   2.291   1.765   1.235 -0.4215  1.3209 -0.9183
  677SOL    MW4 2756   2.375   1.780   1.251 -0.3066  0.2908 -0.5175
  678SOL     OW 2757   0.714   3.877   0.996  0.2210  0.5676 -0.1414
  678SOL    HW2 2758   0.763   3.812   0.947  0.7836  0.4707  0.5317
  678SOL    HW3 2759   0.630   3.836   1.014  0.6038 -0.0151  0.3507
  678SOL    MW4 2760   0.709   3.863   0.992  0.3457  0.4778  0.0123
  679SOL     OW 2761   0.520   2.279   1.368  0.1893  0.2570  0.4810
  679SOL    HW2 2762   0.447   2.321   1.322  0.6338  0.2667 -0.2309
  679SOL    HW3 2763   0.491   2.189   1.382 -1.3247  1.1267  3.2393
  679SOL    MW4 2764   0.507   2.272   1.364  0.0482  0.3729  0.7510
  680SOL     OW 2765   0.665   0.308   0.694  0.4219  0.1124  0.4912
  680SOL    HW2 2766   0.574   0.334   0.679  0.3645  0.2263  1.0439
  680SOL    HW3 2767   0.671   0.296   0.789  1.2420  1.0747  0.5637
  680SOL    MW4 2768   0.654   0.310   0.705  0.5226  0.2544  0.5736
  681SOL     OW 2769   3.895   0.012   2.997 -0.4960 -0.1212 -0.2383
  681SOL    HW2 2770   3.947  -0.056   3.040 -0.2363 -0.2593 -0.7613
  681SOL    HW3 2771   3.860   0.064   3.069  0.2966 -0.0809  0.1266
  681SOL    MW4 2772   3.897   0.010   3.012 -0.3572 -0.1341 -0.2592
  682SOL     OW 2773   2.983   2.907   1.785 -0.4312  0.1202 -0.4051
  682SOL    HW2 2774   3.066   2.955   1.788  0.2684 -1.0036 -1.1768
  682SOL    HW3 2775   2.956   2.900   1.877  0.3405  0.4609 -0.1477
  682SOL    MW4 2776   2.991   2.913   1.798 -0.2370  0.0167 -0.4730
  683SOL     OW 2777   0.016   2.856   3.585  0.1057 -0.1730  0.3506
  683SOL    HW2 2778  -0.013   2.781   3.637 -0.7921 -1.3274 -1.7349
  683SOL    HW3 2779   0.057   2.817   3.508  0.8233  1.4970 -0.1277
  683SOL    MW4 2780   0.017   2.841   3.582  0.0820 -0.1051  0.0124
  684SOL     OW 2781   1.489   0.309   2.188 -0.1997 -0.4662  0.3141
  684SOL    HW2 2782   1.581   0.285   2.203  0.0549  0.5321  0.3425
  684SOL    HW3 2783   1.451   0.231   2.148  0.8581 -0.6093 -0.4449
  684SOL    MW4 2784   1.496   0.295   2.185 -0.0266 -0.3533  0.2177
  685SOL     OW 2785   4.010   4.352   2.739  0.1227 -0.1242 -0.0291
  685SOL    HW2 2786   3.931   4.382   2.693 -0.0205 -0.5263 -0.0466
  685SOL    HW3 2787   3.978   4.287   2.801  0.4896 -0.5648 -0.2986
  685SOL    MW4 2788   3.995   4.348   2.741  0.1523 -0.2351 -0.0670
  686SOL     OW 2789   4.174   1.885   2.052 -0.0148  0.5492 -0.2037
  686SOL    HW2 2790   4.117   1.829   2.104 -2.2918  1.6449 -1.4202
  686SOL    HW3 2791   4.261   1.874   2.090 -1.0099 -1.2791  1.6174
  686SOL    MW4 2792   4.178   1.876   2.064 -0.4463  0.4525 -0.1240
  687SOL     OW 2793   0.771   3.161   3.585  0.0648 -0.7073  0.5353
  687SOL    HW2 2794   0.754   3.125   3.498  0.8564 -0.6598  0.3611
  687SOL    HW3 2795   0.814   3.245   3.569  0.2119 -0.6978  0.9707
  687SOL    MW4 2796   0.774   3.167   3.572  0.1886 -0.6995  0.5701
  688SOL     OW 2797   0.108   1.311   3.572 -0.1989  0.8751  0.5314
  688SOL    HW2 2798   0.080   1.221   3.555  1.0548  0.6083 -0.2071
  688SOL    HW3 2799   0.043   1.365   3.527 -0.3132  0.3102  0.0153
  688SOL    MW4 2800   0.096   1.307   3.564 -0.0485  0.7654  0.3657
  689SOL     OW 2801   3.044   4.426   1.301 -0.0123 -0.1635  0.3861
  689SOL    HW2 2802   2.956   4.425   1.339 -0.3367  0.4928 -0.3423
  689SOL    HW3 2803   3.065   4.519   1.292  0.9743 -0.3205  1.0528
  689SOL    MW4 2804   3.035   4.438   1.305  0.0751 -0.0978  0.3780
  690SOL     OW 2805   2.374   4.329   3.095  0.0759 -0.2758 -0.3735
  690SOL    HW2 2806   2.343   4.366   3.013 -0.7577 -0.4130 -0.1231
  690SOL    HW3 2807   2.333   4.242   3.100 -1.8909  0.6788  1.3462
  690SOL    MW4 2808   2.364   4.322   3.085 -0.2935 -0.1683 -0.1137
  691SOL     OW 2809   3.251   0.523   4.541  0.2023 -0.3061 -0.5118
  691SOL    HW2 2810   3.294   0.586   4.600  0.4980  0.6442 -1.7253
  691SOL    HW3 2811   3.321   0.462   4.516 -0.1554 -1.3277  0.9129
  691SOL    MW4 2812   3.266   0.523   4.546  0.1938 -0.3155 -0.4835
  692SOL     OW 2813   0.110   0.550   1.965 -0.1182  0.0901  0.3532
  692SOL    HW2 2814   0.110   0.493   1.888 -0.8502 -0.2995  0.6415
  692SOL    HW3 2815   0.181   0.612   1.948 -0.2971  0.0287 -0.6512
  692SOL    MW4 2816   0.119   0.550   1.953 -0.2384  0.0306  0.2587
  693SOL     OW 2817   1.500   0.722   3.636 -0.4244 -0.6344  0.4283
  693SOL    HW2 2818   1.519   0.765   3.719 -1.3268 -1.6956  1.1982
  693SOL    HW3 2819   1.408   0.695   3.643 -1.6725  2.4717 -2.3266
  693SOL    MW4 2820   1.490   0.724   3.648 -0.7082 -0.3646  0.1662
  694SOL     OW 2821   2.088   0.449   4.095  0.0333  0.1325 -0.3909
  694SOL    HW2 2822   2.164   0.506   4.108  0.2587  0.0476 -1.2805
  694SOL    HW3 2823   2.063   0.464   4.004 -1.0654  0.2128 -0.0811
  694SOL    MW4 2824   2.095   0.458   4.085 -0.0820  0.1319 -0.4678
  695SOL     OW 2825   0.059   1.172   4.011  0.3615 -0.1043 -0.2903
  695SOL    HW2 2826   0.083   1.099   4.069  0.2127 -0.8124 -1.1133
  695SOL    HW3 2827  -0.008   1.136   3.953  0.0099  0.7999 -0.4597
  695SOL    MW4 2828   0.054   1.158   4.011  0.2955 -0.0784 -0.4215
  696SOL     OW 2829   1.124   1.170   0.914  0.6369 -0.6059  0.0299
  696SOL    HW2 2830   1.038   1.206   0.891 -0.7437 -3.1330  1.0669
  696SOL    HW3 2831   1.168   1.156   0.831 -0.4405 -0.4215 -0.5764
  696SOL    MW4 2832   1.119   1.173   0.900  0.3126 -0.9151  0.0867
  697SOL     OW 2833   0.222   3.135   2.321 -0.0896  0.3164 -0.5514
  697SOL    HW2 2834   0.278   3.148   2.398 -0.3507  0.4372 -0.3806
  697SOL    HW3 2835   0.228   3.217   2.273  0.8177 -0.0954 -1.1498
  697SOL    MW4 2836   0.230   3.147   2.325 -0.0043  0.2780 -0.6077
  698SOL     OW 2837   0.933   3.703   0.639  0.1655 -0.1277  0.7788
  698SOL    HW2 2838   0.876   3.644   0.589  0.9885 -0.1512 -0.1686
  698SOL    HW3 2839   1.017   3.658   0.640  0.0525 -0.3226  2.5963
  698SOL    MW4 2840   0.936   3.689   0.632  0.2592 -0.1566  0.8936
  699SOL     OW 2841   0.339   2.059   3.597  0.2070  0.4629 -0.8061
  699SOL    HW2 2842   0.275   2.019   3.537  0.0015  0.5696 -0.6573
  699SOL    HW3 2843   0.350   2.148   3.565 -1.9214  1.3677  0.9008
  699SOL    MW4 2844   0.332   2.065   3.585 -0.1009  0.5965 -0.5610
  700SOL     OW 2845   0.148   3.937   4.397 -0.0093 -0.1262  0.0874
  700SOL    HW2 2846   0.171   3.849   4.425 -0.6191  0.1393  1.4460
  700SOL    HW3 2847   0.203   3.953   4.320  2.7340 -0.3300  1.9571
  700SOL    MW4 2848   0.158   3.927   4.390  0.2722 -0.1178  0.5131
  701SOL     OW 2849   2.245   1.237   1.358  0.3321  0.3128 -0.1849
  701SOL    HW2 2850   2.240   1.205   1.448  0.1360  0.5542 -0.1062
  701SOL    HW3 2851   2.221   1.330   1.365 -1.1372 -0.0099 -0.6739
  701SOL    MW4 2852   2.241   1.245   1.371  0.1123  0.3020 -0.2389
  702SOL     OW 2853   3.026   3.762   2.387  0.0511  0.1506 -0.1241
  702SOL    HW2 2854   2.994   3.816   2.315 -2.6732  0.1119  0.9995
  702SOL    HW3 2855   3.010   3.815   2.465 -0.5824 -1.3662  0.7828
  702SOL    MW4 2856   3.019   3.776   2.388 -0.3917 -0.0546  0.1435
  703SOL     OW 2857   4.001   0.985   4.553 -0.2200 -0.2703  0.1830
  703SOL    HW2 2858   3.961   0.941   4.628 -0.3938  0.5774  0.5954
  703SOL    HW3 2859   4.095   0.970   4.563 -0.2198  0.1106  0.7491
  703SOL    MW4 2860   4.008   0.977   4.564 -0.2432 -0.1082  0.3119
  704SOL     OW 2861   3.088   4.452   1.734  0.0205 -0.0850 -0.1598
  704SOL    HW2 2862   3.020   4.435   1.799  0.0637 -2.2289 -0.6519
  704SOL    HW3 2863   3.073   4.387   1.666  0.8275  1.2473 -1.6408
  704SOL    MW4 2864   3.077   4.441   1.734  0.1328 -0.1917 -0.4202
  705SOL     OW 2865   1.982   3.451   4.125 -0.3814 -0.6698  0.0415
  705SOL    HW2 2866   1.889   3.435   4.143 -0.5458 -0.1361 -0.3125
  705SOL    HW3 2867   2.023   3.454   4.211 -0.8843  0.2104  0.2525
  705SOL    MW4 2868   1.975   3.449   4.139 -0.4696 -0.4835  0.0234
  706SOL     OW 2869   4.448   0.850   1.142 -0.0792 -0.1705  0.9325
  706SOL    HW2 2870   4.387   0.905   1.191  0.6546 -0.3484  2.0761
  706SOL    HW3 2871   4.410   0.842   1.055 -2.0224 -0.8223  1.8239
  706SOL    MW4 2872   4.435   0.856   1.137 -0.2389 -0.2800  1.2009
  707SOL     OW 2873   2.972   3.907   3.390 -0.4837 -0.0253 -0.2278
  707SOL    HW2 2874   2.954   3.959   3.468 -0.0080 -1.0774  0.6118
  707SOL    HW3 2875   3.014   3.967   3.329 -2.1017  1.1478 -0.2076
  707SOL    MW4 2876   2.975   3.922   3.392 -0.6344 -0.0091 -0.1144
  708SOL     OW 2877   2.159   3.612   1.055  0.3588  0.2811 -0.0522
  708SOL    HW2 2878   2.173   3.517   1.050  1.0998  0.1023  3.4950
  708SOL    HW3 2879   2.066   3.622   1.076  0.6681  0.1817  1.4823
  708SOL    MW4 2880   2.149   3.601   1.057  0.4973  0.2446  0.6182
  709SOL     OW 2881   2.937   4.072   3.611 -0.1795 -0.1171 -0.0311
  709SOL    HW2 2882   2.953   4.160   3.576  1.4479  0.7731  2.7293
  709SOL    HW3 2883   3.021   4.045   3.647 -0.5803 -2.9892 -1.1515
  709SOL    MW4 2884   2.950   4.080   3.611 -0.0174 -0.3786  0.1853
  710SOL     OW 2885   1.548   1.333   3.076  0.6458  0.7378 -0.0021
  710SOL    HW2 2886   1.587   1.409   3.033 -1.1736  0.8515 -1.5158
  710SOL    HW3 2887   1.458   1.360   3.094 -0.7234 -1.8610 -2.7016
  710SOL    MW4 2888   1.541   1.347   3.073  0.2252  0.4098 -0.5577
  711SOL     OW 2889   1.465   4.531   1.195  0.0918  0.5013  0.0936
  711SOL    HW2 2890   1.427   4.464   1.138  1.1263 -0.2424  0.2700
  711SOL    HW3 2891   1.406   4.537   1.269 -0.3589  0.2667 -0.2476
  711SOL    MW4 2892   1.452   4.523   1.197  0.1687  0.3719  0.0716
  712SOL     OW 2893   0.219   4.553   1.867 -0.4282 -0.0381 -0.0162
  712SOL    HW2 2894   0.177   4.545   1.781 -0.0864  2.5795 -0.4532
  712SOL    HW3 2895   0.148   4.541   1.930 -1.1442  0.5774 -0.6994
  712SOL    MW4 2896   0.204   4.550   1.864 -0.4776  0.3881 -0.1639
  713SOL     OW 2897   4.104   0.670   4.367  0.2942  0.1884  0.0743
  713SOL    HW2 2898   4.175   0.724   4.400 -0.2407 -0.0093  1.5917
  713SOL    HW3 2899   4.121   0.583   4.403  0.5940 -0.4136 -1.5185
  713SOL    MW4 2900   4.115   0.666   4.376  0.2632  0.0829  0.0644
  714SOL     OW 2901   0.880   4.398   4.378  0.1683  0.5615 -0.2077
  714SOL    HW2 2902   0.899   4.483   4.419  0.0471  0.7731 -0.5803
  714SOL    HW3 2903   0.965   4.356   4.370  0.4525  1.3679 -1.5729
  714SOL    MW4 2904   0.894   4.404   4.383  0.1898  0.6962 -0.4363
  715SOL     OW 2905   0.096   1.352   2.755  0.5265  0.0639  0.2035
  715SOL    HW2 2906   0.063   1.374   2.667  0.8522 -0.5194 -0.0705
  715SOL    HW3 2907   0.022   1.370   2.813  0.2981  0.4345 -0.1956
  715SOL    MW4 2908   0.082   1.357   2.751  0.5393  0.0359  0.1147
  716SOL     OW 2909   1.504   2.286   4.234 -0.1265  0.0004 -0.3721
  716SOL    HW2 2910   1.455   2.353   4.281 -1.6518 -0.1652 -1.6794
  716SOL    HW3 2911   1.596   2.311   4.245 -0.4604  0.1993  2.2963
  716SOL    MW4 2912   1.510   2.298   4.242 -0.3719  0.0045 -0.1926
  717SOL     OW 2913   2.164   2.007   1.046 -0.1191 -0.0773 -0.1494
  717SOL    HW2 2914   2.087   1.998   0.990  0.0821 -1.5460 -0.1932
  717SOL    HW3 2915   2.198   1.918   1.056  0.2375  0.2421  1.7596
  717SOL    MW4 2916   2.159   1.994   1.040 -0.0453 -0.2290  0.0968
  718SOL     OW 2917   1.583   4.382   2.052  0.3046  0.2126  0.2673
  718SOL    HW2 2918   1.589   4.396   2.146  0.6246 -0.6573  0.3799
  718SOL    HW3 2919   1.588   4.287   2.041 -1.2995  0.2033 -0.5136
  718SOL    MW4 2920   1.585   4.371   2.063  0.1352  0.0968  0.1793
  719SOL     OW 2921   4.216   4.209   4.266 -0.3452  0.4811  0.2766
  719SOL    HW2 2922   4.196   4.135   4.208  1.3516 -0.0995  0.4005
  719SOL    HW3 2923   4.204   4.174   4.354  2.8114 -0.3985  0.4032
  719SOL    MW4 2924   4.212   4.194   4.270  0.2952  0.2890  0.3095
  720SOL     OW 2925   3.501   0.976   3.570  0.1785  0.1325 -0.3073
  720SOL    HW2 2926   3.509   0.964   3.665 -0.2763  1.3879 -0.0934
  720SOL    HW3 2927   3.550   1.056   3.552  0.1163 -0.0050 -1.1048
  720SOL    MW4 2928   3.508   0.985   3.581  0.1101  0.2800 -0.3843
  721SOL     OW 2929   2.766   4.588   1.660  0.1716 -0.1532  0.2973
  721SOL    HW2 2930   2.798   4.656   1.600  0.9618  1.1564  2.1505
  721SOL    HW3 2931   2.837   4.578   1.724 -1.3229 -0.3635  1.9385
  721SOL    MW4 2932   2.780   4.595   1.660  0.0787 -0.0076  0.7583
  722SOL     OW 2933   1.348   2.164   3.213  0.0102 -0.5747  0.8175
  722SOL    HW2 2934   1.412   2.095   3.198  0.6668  0.2411 -0.1458
  722SOL    HW3 2935   1.308   2.179   3.127  0.5628  0.9152  0.8027
  722SOL    MW4 2936   1.351   2.157   3.200  0.1698 -0.2706  0.6886
  723SOL     OW 2937   2.420   2.768   2.658 -0.0573  0.2593 -0.3101
  723SOL    HW2 2938   2.436   2.769   2.753  1.4912 -0.0556 -0.5627
  723SOL    HW3 2939   2.505   2.787   2.619 -0.9832  1.7916 -1.6179
  723SOL    MW4 2940   2.433   2.770   2.666  0.0248  0.4201 -0.5159
  724SOL     OW 2941   0.575   1.548   0.574 -0.1233  0.0809 -0.3601
  724SOL    HW2 2942   0.561   1.454   0.575  1.2925 -0.1329 -0.1303
  724SOL    HW3 2943   0.608   1.568   0.662 -1.8902  1.0306  0.1237
  724SOL    MW4 2944   0.577   1.539   0.586 -0.1697  0.1780 -0.2660
  725SOL     OW 2945   2.533   0.597   4.517 -0.1293  0.2664 -0.2614
  725SOL    HW2 2946   2.467   0.666   4.519 -0.7723 -0.2998 -1.3193
  725SOL    HW3 2947   2.614   0.642   4.497  0.0045  1.1042  2.0463
  725SOL    MW4 2948   2.535   0.612   4.514 -0.1967  0.3023 -0.0968
  726SOL     OW 2949   2.705   1.131   4.276  0.2789  0.1163  0.4127
  726SOL    HW2 2950   2.766   1.164   4.342 -2.4581  1.4060  2.3769
  726SOL    HW3 2951   2.744   1.157   4.193  2.4125  0.8603  1.5980
  726SOL    MW4 2952   2.719   1.139   4.274  0.1991  0.3848  0.8283
  727SOL     OW 2953   2.997   0.467   2.656  0.2898  0.1081  0.3658
  727SOL    HW2 2954   3.068   0.530   2.639 -1.4243  1.4375 -2.1004
  727SOL    HW3 2955   2.935   0.515   2.711 -0.5912  0.3235 -0.7876
  727SOL    MW4 2956   2.998   0.482   2.661 -0.0525  0.3119 -0.1121
  728SOL     OW 2957   1.388   2.811   4.579 -0.0589 -0.2528  0.4241
  728SOL    HW2 2958   1.445   2.761   4.520 -0.1376 -0.5162  0.5737
  728SOL    HW3 2959   1.446   2.842   4.649  0.0789  0.2441  0.0980
  728SOL    MW4 2960   1.403   2.809   4.580 -0.0511 -0.2222  0.4015
  729SOL     OW 2961   0.504   1.845   3.075  0.1075  0.1107 -0.0316
  729SOL    HW2 2962   0.581   1.826   3.021  0.6356  0.2204  0.6865
  729SOL    HW3 2963   0.500   1.774   3.138 -1.0359 -0.5011 -0.7683
  729SOL    MW4 2964   0.514   1.833   3.076  0.0263  0.0445 -0.0339
  730SOL     OW 2965   0.023   4.527   1.368 -0.1339  0.2122 -0.1013
  730SOL    HW2 2966   0.007   4.596   1.303  1.6424  2.0133  1.2911
  730SOL    HW3 2967  -0.045   4.462   1.352 -1.7724  2.2295 -1.5584
  730SOL    MW4 2968   0.012   4.527   1.357 -0.1157  0.7167 -0.1099
  731SOL     OW 2969   3.943   3.140   3.352 -0.1405  0.0243 -0.4338
  731SOL    HW2 2970   3.883   3.210   3.326 -0.0444 -0.3485 -1.7304
  731SOL    HW3 2971   3.917   3.117   3.441 -1.4688  0.3292 -0.7366
  731SOL    MW4 2972   3.932   3.146   3.360 -0.3033  0.0155 -0.6449
  732SOL     OW 2973   3.903   0.548   0.609 -0.4080  0.0282 -0.7776
  732SOL    HW2 2974   3.908   0.461   0.649 -0.1495  0.6221  0.5205
  732SOL    HW3 2975   3.812   0.575   0.620 -0.4866 -0.0702 -1.1749
  732SOL    MW4 2976   3.892   0.540   0.616 -0.3843  0.0936 -0.6587
  733SOL     OW 2977   3.484   0.538   4.017  0.0294  0.3997 -0.0311
  733SOL    HW2 2978   3.565   0.586   4.037 -0.8287  2.1559 -0.7288
  733SOL    HW3 2979   3.469   0.484   4.095  0.2345  2.3384  1.3834
  733SOL    MW4 2980   3.493   0.537   4.030 -0.0567  0.8873  0.0634
  734SOL     OW 2981   1.467   3.273   3.034  0.0913  0.1695 -0.0309
  734SOL    HW2 2982   1.378   3.239   3.040  0.1304  0.0916  0.1050
  734SOL    HW3 2983   1.492   3.257   2.943  0.4796 -1.0831  0.2892
  734SOL    MW4 2984   1.458   3.266   3.023  0.1477 -0.0062  0.0293
  735SOL     OW 2985   0.132   4.289   1.650  0.3579  0.2668  0.3838
  735SOL    HW2 2986   0.094   4.377   1.658 -0.4477  0.0663 -1.0484
  735SOL    HW3 2987   0.226   4.306   1.642  0.3025  0.9445  1.0863
  735SOL    MW4 2988   0.140   4.303   1.650  0.2443  0.3300  0.2875
  736SOL     OW 2989   4.388   2.033   3.922  0.2260  0.0824  0.3830
  736SOL    HW2 2990   4.457   2.068   3.866 -0.5067  2.0507  0.6836
  736SOL    HW3 2991   4.434   1.973   3.981  1.2103 -0.9381 -1.3760
  736SOL    MW4 2992   4.403   2.029   3.922  0.2599  0.2074  0.1905
  737SOL     OW 2993   4.138   1.119   0.631 -0.4164 -0.3324 -0.3588
  737SOL    HW2 2994   4.095   1.203   0.650 -0.7622 -0.3130 -1.2338
  737SOL    HW3 2995   4.180   1.095   0.714 -1.6332 -0.0696  0.3513
  737SOL    MW4 2996   4.138   1.127   0.645 -0.6227 -0.2953 -0.3806
  738SOL     OW 2997   2.225   4.005   4.347  0.3014 -0.4829  0.1803
  738SOL    HW2 2998   2.268   4.088   4.326  0.3692 -0.5338  0.1164
  738SOL    HW3 2999   2.286   3.961   4.406 -0.1265 -0.1118  0.9062
  738SOL    MW4 3000   2.239   4.010   4.352  0.2539 -0.4411  0.2680
  739SOL     OW 3001   2.193   1.679   1.821 -0.1715  0.6051  0.2672
  739SOL    HW2 3002   2.164   1.659   1.910  0.2329 -0.8822  0.0736
  739SOL    HW3 3003   2.269   1.736   1.833 -0.1545  0.4545  0.8653
  739SOL    MW4 3004   2.199   1.684   1.834 -0.1159  0.3890  0.3207
  740SOL     OW 3005   0.091   1.507   3.197 -0.1232 -0.2546 -0.5718
  740SOL    HW2 3006   0.042   1.530   3.276 -1.6777 -2.3914 -0.8646
  740SOL    HW3 3007   0.025   1.509   3.127  0.2893 -2.7072 -1.0513
  740SOL    MW4 3008   0.076   1.511   3.198 -0.2738 -0.8602 -0.6738
  741SOL     OW 3009   1.483   3.499   4.500 -0.2109  0.3538 -0.0247
  741SOL    HW2 3010   1.437   3.542   4.427 -1.0823  1.2442  1.0317
  741SOL    HW3 3011   1.561   3.552   4.514 -0.7195  0.9555  0.5518
  741SOL    MW4 3012   1.487   3.511   4.492 -0.3929  0.5505  0.1907
  742SOL     OW 3013   1.387   1.861   3.389 -0.0800  0.3689  0.0319
  742SOL    HW2 3014   1.411   1.769   3.393 -3.8285 -0.6605  0.7729
  742SOL    HW3 3015   1.422   1.899   3.470 -0.0433 -0.8003  0.5761
  742SOL    MW4 3016   1.395   1.854   3.400 -0.5697  0.0789  0.2015
  743SOL     OW 3017   1.719   3.546   3.002 -0.5169 -0.4767 -0.0763
  743SOL    HW2 3018   1.625   3.561   3.016 -0.6662 -0.5446 -1.0300
  743SOL    HW3 3019   1.746   3.492   3.076 -1.3685 -1.0151 -0.1576
  743SOL    MW4 3020   1.710   3.541   3.014 -0.6490 -0.5569 -0.2129
  744SOL     OW 3021   0.282   0.311   1.869  0.0223  0.1960 -0.0968
  744SOL    HW2 3022   0.327   0.227   1.869  0.0318  0.2043 -0.9213
  744SOL    HW3 3023   0.294   0.344   1.958  0.5287 -0.3983  0.0580
  744SOL    MW4 3024   0.289   0.305   1.881  0.0903  0.1187 -0.1851
  745SOL     OW 3025   0.475   0.988   1.918  0.0448 -0.0600  0.2131
  745SOL    HW2 3026   0.445   0.900   1.941 -0.4418 -0.0061 -0.1932
  745SOL    HW3 3027   0.569   0.980   1.906  0.1033 -0.3767  0.8707
  745SOL    MW4 3028   0.483   0.976   1.919 -0.0117 -0.0947  0.2462
  746SOL     OW 3029   4.121   4.064   3.613 -0.4477  0.0265 -0.3520
  746SOL    HW2 3030   4.171   3.995   3.657  0.2534 -0.2806 -1.5929
  746SOL    HW3 3031   4.187   4.115   3.565 -1.2360 -0.0285 -1.5263
  746SOL    MW4 3032   4.136   4.061   3.612 -0.4592 -0.0210 -0.6707
  747SOL     OW 3033   2.349   4.320   1.346  0.0118 -0.2856 -0.0361
  747SOL    HW2 3034   2.268   4.360   1.378  0.5678  0.0362  0.9943
  747SOL    HW3 3035   2.320   4.252   1.285 -1.0673 -1.0091  1.2760
  747SOL    MW4 3036   2.335   4.317   1.342 -0.0575 -0.3390  0.2730
  748SOL     OW 3037   0.387   0.654   0.763 -0.0169 -0.0301 -0.6546
  748SOL    HW2 3038   0.367   0.709   0.687  1.6013  2.5041  0.6810
  748SOL    HW3 3039   0.481   0.664   0.776  0.4176 -3.5053 -0.5751
  748SOL    MW4 3040   0.396   0.663   0.755  0.2540 -0.1543 -0.4678
  749SOL     OW 3041   0.974   0.989   1.562 -0.1321 -0.4556 -0.1806
  749SOL    HW2 3042   0.913   1.063   1.572 -1.2919 -1.4878  0.4296
  749SOL    HW3 3043   0.953   0.952   1.476 -0.2351 -0.7019 -0.0486
  749SOL    MW4 3044   0.963   0.994   1.552 -0.2987 -0.6242 -0.0826
  750SOL     OW 3045   2.837   1.368   2.185  0.4837 -0.1133 -0.2953
  750SOL    HW2 3046   2.780   1.425   2.236  1.6712 -0.8901  1.9605
  750SOL    HW3 3047   2.796   1.364   2.098 -0.6276  2.6354  0.0517
  750SOL    MW4 3048   2.824   1.375   2.180  0.4935  0.1469  0.0482
  751SOL     OW 3049   1.889   0.770   4.603 -0.2109 -0.7044 -0.5465
  751SOL    HW2 3050   1.899   0.864   4.584  0.4140 -0.4207  1.1008
  751SOL    HW3 3051   1.940   0.757   4.683 -2.5459 -1.8923  0.7805
  751SOL    MW4 3052   1.897   0.781   4.611 -0.4365 -0.8237 -0.1540
  752SOL     OW 3053   2.241   2.890   4.638  0.2382 -0.0026  0.1096
  752SOL    HW2 3054   2.294   2.951   4.690  0.5136 -0.7722  0.7477
  752SOL    HW3 3055   2.274   2.803   4.662  0.4192 -0.3760 -1.4075
  752SOL    MW4 3056   2.252   2.887   4.648  0.2985 -0.1535 -0.0062
  753SOL     OW 3057   0.841   2.909   2.704 -0.5778  0.1754  0.1208
  753SOL    HW2 3058   0.799   2.984   2.661  0.1218  0.4600 -0.0721
  753SOL    HW3 3059   0.912   2.947   2.755  0.9078 -0.5181 -1.3798
  753SOL    MW4 3060   0.845   2.924   2.705 -0.2894  0.1214 -0.1025
  754SOL     OW 3061   4.310   0.491   2.851 -0.3789 -0.2136 -0.1213
  754SOL    HW2 3062   4.343   0.406   2.822  1.2786  0.1385  0.6203
  754SOL    HW3 3063   4.389   0.539   2.877 -1.4525  0.8722  1.2336
  754SOL    MW4 3064   4.325   0.486   2.851 -0.3018 -0.0239  0.1554
  755SOL     OW 3065   4.328   1.860   0.566 -0.0125 -0.0202 -0.0744
  755SOL    HW2 3066   4.421   1.843   0.558  0.2003  0.2161  1.5964
  755SOL    HW3 3067   4.321   1.956   0.568 -0.3283 -0.0310 -0.5325
  755SOL    MW4 3068   4.339   1.870   0.565 -0.0257  0.0095  0.0856
  756SOL     OW 3069   1.626   4.380   2.326 -0.4075 -0.0067  0.4268
  756SOL    HW2 3070   1.711   4.406   2.363 -0.2891  0.7178 -0.3387
  756SOL    HW3 3071   1.600   4.303   2.377 -0.0952  0.7798  1.7969
  756SOL    MW4 3072   1.634   4.373   2.337 -0.3507  0.1922  0.5066
  757SOL     OW 3073   4.262   2.029   3.001 -1.0226 -0.3724 -0.0194
  757SOL    HW2 3074   4.244   1.944   3.041  0.9726  0.0892  1.9462
  757SOL    HW3 3075   4.209   2.091   3.051 -1.5776 -0.2954 -0.6929
  757SOL    MW4 3076   4.253   2.026   3.013 -0.8326 -0.3016  0.1512
  758SOL     OW 3077   0.847   1.512   3.205  0.1780 -0.3220 -0.0521
  758SOL    HW2 3078   0.770   1.563   3.234  0.2251 -1.1523  1.6327
  758SOL    HW3 3079   0.875   1.554   3.124 -1.0584  1.0284  0.1993
  758SOL    MW4 3080   0.840   1.524   3.198  0.0211 -0.2533  0.2034
  759SOL     OW 3081   1.722   2.094   2.999  0.6027  0.2683  0.3495
  759SOL    HW2 3082   1.654   2.159   2.983 -1.5181 -1.6699  1.3014
  759SOL    HW3 3083   1.775   2.131   3.069 -0.9396  0.7309  1.2966
  759SOL    MW4 3084   1.720   2.107   3.006  0.1194  0.0737  0.6001
  760SOL     OW 3085   0.741   3.986   3.175  0.1166  0.0716 -0.0042
  760SOL    HW2 3086   0.687   3.975   3.097  0.3627 -0.8540 -0.0526
  760SOL    HW3 3087   0.789   3.903   3.183 -1.5441 -0.7143  2.3787
  760SOL    MW4 3088   0.740   3.973   3.166 -0.0702 -0.1543  0.3040
  761SOL     OW 3089   4.343   0.815   2.505 -0.0175 -0.0052 -0.3861
  761SOL    HW2 3090   4.406   0.827   2.434 -0.6623 -1.9273 -1.3182
  761SOL    HW3 3091   4.265   0.863   2.476  0.7032  1.7118  0.4128
  761SOL    MW4 3092   4.341   0.823   2.491 -0.0072 -0.0323 -0.4036
  762SOL     OW 3093   1.394   1.487   2.776  0.1082  0.4692  0.4003
  762SOL    HW2 3094   1.399   1.392   2.790 -1.6435  0.3740  0.5550
  762SOL    HW3 3095   1.458   1.524   2.836  1.3189 -0.6497 -0.1742
  762SOL    MW4 3096   1.403   1.479   2.786  0.0368  0.3090  0.3448
  763SOL     OW 3097   4.039   3.615   2.533 -0.2231 -0.2566  0.4243
  763SOL    HW2 3098   4.123   3.660   2.520 -0.9179  1.3899  1.5109
  763SOL    HW3 3099   3.987   3.640   2.456 -0.1840 -0.1648  0.4269
  763SOL    MW4 3100   4.043   3.624   2.521 -0.3095 -0.0272  0.5682
  764SOL     OW 3101   2.254   1.058   1.592  0.1913 -0.4649 -0.3113
  764SOL    HW2 3102   2.308   1.103   1.657  0.9039 -1.6084 -0.0887
  764SOL    HW3 3103   2.172   1.040   1.637  0.9280 -1.8680  0.5413
  764SOL    MW4 3104   2.250   1.061   1.607  0.3822 -0.8010 -0.1694
  765SOL     OW 3105   0.780   3.090   3.983 -0.6998 -0.2943 -0.5899
  765SOL    HW2 3106   0.790   3.026   4.054  0.4198  0.6486  0.1149
  765SOL    HW3 3107   0.687   3.112   3.985 -0.6934 -0.3262  0.5430
  765SOL    MW4 3108   0.769   3.084   3.993 -0.5512 -0.1738 -0.3474
  766SOL     OW 3109   0.734   0.536   2.420 -0.2317 -0.2484 -0.6531
  766SOL    HW2 3110   0.758   0.572   2.335 -1.1414  0.0030 -0.8105
  766SOL    HW3 3111   0.717   0.443   2.404 -0.3596 -0.2099 -0.7434
  766SOL    MW4 3112   0.735   0.529   2.407 -0.3687 -0.2101 -0.6857
  767SOL     OW 3113   2.717   1.887   4.029  0.0129  0.1141  0.1746
  767SOL    HW2 3114   2.790   1.939   3.994 -0.0079  0.6389  0.9042
  767SOL    HW3 3115   2.722   1.898   4.124 -1.4207  0.6954  0.1986
  767SOL    MW4 3116   2.727   1.895   4.037 -0.1791  0.2601  0.2742
  768SOL     OW 3117   2.801   3.228   3.855  0.0194  0.5423 -0.0963
  768SOL    HW2 3118   2.836   3.316   3.867  0.0455  0.3678  1.1659
  768SOL    HW3 3119   2.747   3.213   3.933 -1.1118 -0.0219 -0.9742
  768SOL    MW4 3120   2.798   3.238   3.867 -0.1264  0.4451 -0.0455
  769SOL     OW 3121   4.041   3.082   2.756  0.3147  0.2885  0.2259
  769SOL    HW2 3122   4.126   3.061   2.796 -0.2488 -0.1003  1.2381
  769SOL    HW3 3123   3.983   3.012   2.787 -0.5056  0.8710 -0.0016
  769SOL    MW4 3124   4.044   3.070   2.766  0.1326  0.3142  0.3295
  770SOL     OW 3125   1.378   3.822   1.420 -0.0627 -0.5692 -0.4541
  770SOL    HW2 3126   1.343   3.864   1.342 -0.6416 -0.2355 -0.0275
  770SOL    HW3 3127   1.384   3.893   1.485 -0.7211 -1.0684  0.1650
  770SOL    MW4 3128   1.374   3.837   1.419 -0.2259 -0.5913 -0.3161
  771SOL     OW 3129   2.830   0.374   3.094 -0.1924  0.0342 -0.4780
  771SOL    HW2 3130   2.878   0.323   3.028  0.1302 -0.9356  0.5025
  771SOL    HW3 3131   2.876   0.459   3.096  0.7186 -0.4523 -0.4415
  771SOL    MW4 3132   2.842   0.379   3.085 -0.0296 -0.1579 -0.3438
  772SOL     OW 3133   2.762   3.949   3.198  0.5647  0.4088  0.1575
  772SOL    HW2 3134   2.810   4.003   3.134  2.8547 -1.1572  0.4623
  772SOL    HW3 3135   2.823   3.939   3.271 -1.5426  1.0856  2.0503
  772SOL    MW4 3136   2.777   3.955   3.199  0.5887  0.2913  0.4475
  773SOL     OW 3137   1.064   3.655   4.250  0.2465  0.4374 -0.7396
  773SOL    HW2 3138   1.109   3.616   4.174 -1.7421  1.2237 -2.3699
  773SOL    HW3 3139   1.092   3.746   4.251  1.4137  0.0858  0.3927
  773SOL    MW4 3140   1.074   3.662   4.240  0.1382  0.4947 -0.8059
  774SOL     OW 3141   3.930   1.106   3.288  0.3942 -0.4807 -0.0638
  774SOL    HW2 3142   3.843   1.146   3.291 -0.4625 -2.2902 -0.0983
  774SOL    HW3 3143   3.921   1.025   3.338  2.3639 -0.1533  0.8697
  774SOL    MW4 3144   3.917   1.101   3.295  0.5410 -0.6763  0.0548
  775SOL     OW 3145   1.912   3.779   1.844  0.0239  0.0657  0.3111
  775SOL    HW2 3146   1.912   3.762   1.750 -0.5035 -0.5480  0.4276
  775SOL    HW3 3147   1.821   3.800   1.865 -0.1598 -1.3493  0.9705
  775SOL    MW4 3148   1.900   3.780   1.835 -0.0700 -0.2019  0.4135
  776SOL     OW 3149   2.094   4.428   3.542 -0.2156  0.7311 -0.6205
  776SOL    HW2 3150   2.061   4.338   3.534  0.7786  0.2114  0.8203
  776SOL    HW3 3151   2.145   4.442   3.462  1.4050 -0.7853  0.1057
  776SOL    MW4 3152   2.097   4.418   3.531  0.1295  0.4621 -0.3345
  777SOL     OW 3153   2.624   0.720   3.642  0.5946  0.2249 -0.0915
  777SOL    HW2 3154   2.638   0.799   3.695  0.2472 -0.5046  1.1045
  777SOL    HW3 3155   2.532   0.699   3.654  1.0916 -1.3852  1.0630
  777SOL    MW4 3156   2.614   0.728   3.650  0.6146 -0.0837  0.2189
  778SOL     OW 3157   3.331   1.344   2.429 -0.0354  0.4526 -0.5168
  778SOL    HW2 3158   3.356   1.370   2.518 -1.9464  1.1714 -0.1656
  778SOL    HW3 3159   3.390   1.393   2.372  1.5290 -0.3777  0.3468
  778SOL    MW4 3160   3.342   1.354   2.433 -0.0811  0.4380 -0.3564
  779SOL     OW 3161   1.646   1.546   0.785  0.1613 -0.1489 -0.3039
  779SOL    HW2 3162   1.609   1.501   0.709 -1.0013  1.7166 -0.8874
  779SOL    HW3 3163   1.695   1.619   0.748  0.2596  0.2968  0.6878
  779SOL    MW4 3164   1.647   1.550   0.770  0.0207  0.1560 -0.2500
  780SOL     OW 3165   0.534   0.067   3.010 -0.2295  0.4800 -0.4697
  780SOL    HW2 3166   0.443   0.037   3.011  0.1321 -0.7479 -2.0342
  780SOL    HW3 3167   0.533   0.150   3.057 -2.4010  1.1754 -1.7007
  780SOL    MW4 3168   0.522   0.074   3.016 -0.4683  0.4098 -0.8383
  781SOL     OW 3169   4.451   4.511   2.027  0.2189  0.3911  0.3638
  781SOL    HW2 3170   4.441   4.603   2.002  2.1725  0.7522  0.8988
  781SOL    HW3 3171   4.461   4.512   2.122 -0.6892 -0.4751  0.4921
  781SOL    MW4 3172   4.451   4.523   2.036  0.3572  0.3242  0.4513
  782SOL     OW 3173   3.094   1.745   1.512  0.0460 -0.0183  0.3786
  782SOL    HW2 3174   3.116   1.802   1.585 -0.2617 -0.5203  0.8636
  782SOL    HW3 3175   3.152   1.669   1.521  0.8731  0.4763 -0.6056
  782SOL    MW4 3176   3.105   1.742   1.523  0.1144 -0.0193  0.3127
  783SOL     OW 3177   1.177   3.212   0.592 -0.0740 -0.2522  0.1650
  783SOL    HW2 3178   1.122   3.146   0.634  0.3041 -2.6884 -2.9473
  783SOL    HW3 3179   1.117   3.261   0.536  0.0515  0.5603  0.7333
  783SOL    MW4 3180   1.162   3.210   0.590 -0.0075 -0.4663 -0.1706
  784SOL     OW 3181   3.676   2.017   3.290 -0.2190  0.3665  0.1864
  784SOL    HW2 3182   3.760   2.063   3.291  0.1136 -0.2479  0.7730
  784SOL    HW3 3183   3.691   1.942   3.233 -0.8296  1.1017 -0.9579
  784SOL    MW4 3184   3.689   2.013   3.283 -0.2556  0.3824  0.1130
  785SOL     OW 3185   1.451   1.963   0.792  0.0863 -0.2907  0.1022
  785SOL    HW2 3186   1.525   1.979   0.851 -0.2571  1.5792  0.0323
  785SOL    HW3 3187   1.441   1.867   0.793  0.3617 -0.3472  2.7239
  785SOL    MW4 3188   1.460   1.952   0.800  0.0774 -0.0514  0.4389
  786SOL     OW 3189   1.459   2.970   3.599 -0.4941  0.1608 -0.2694
  786SOL    HW2 3190   1.550   2.969   3.571 -0.6060 -0.7338 -0.5947
  786SOL    HW3 3191   1.421   3.046   3.554 -0.1239  0.0388 -0.7890
  786SOL    MW4 3192   1.466   2.980   3.589 -0.4600  0.0269 -0.3810
  787SOL     OW 3193   0.134   3.896   2.707 -0.0631 -0.5216 -0.3679
  787SOL    HW2 3194   0.045   3.931   2.708  0.0310 -0.3027  0.7062
  787SOL    HW3 3195   0.171   3.927   2.625  0.0724  2.0523  0.6477
  787SOL    MW4 3196   0.127   3.904   2.697 -0.0328 -0.1533 -0.0923
  788SOL     OW 3197   0.417   1.868   2.470 -0.0306 -0.1575  0.5417
  788SOL    HW2 3198   0.481   1.860   2.399 -1.2193 -0.9460 -0.4767
  788SOL    HW3 3199   0.332   1.865   2.425 -0.7988 -0.9441  2.0327
  788SOL    MW4 3200   0.414   1.866   2.455 -0.2888 -0.3651  0.6042
  789SOL     OW 3201   1.520   2.453   2.513 -0.3868  0.3978 -0.1042
  789SOL    HW2 3202   1.546   2.543   2.530  0.2622 -0.1411  1.9635
  789SOL    HW3 3203   1.425   2.455   2.510 -0.3299  1.3863 -1.5706
  789SOL    MW4 3204   1.511   2.465   2.515 -0.2937  0.4570 -0.0246
  790SOL     OW 3205   1.620   3.040   2.202  0.0790 -0.8505  0.5444
  790SOL    HW2 3206   1.655   2.951   2.205 -0.4252 -1.0990 -0.4509
  790SOL    HW3 3207   1.658   3.084   2.277  0.5953 -1.8183  0.8564
  790SOL    MW4 3208   1.630   3.034   2.212  0.0807 -1.0111  0.4539
  791SOL     OW 3209   1.222   1.886   1.821 -0.3377  0.1094  0.0708
  791SOL    HW2 3210   1.166   1.820   1.862  0.5064  0.4997  1.9200
  791SOL    HW3 3211   1.165   1.962   1.809 -0.4533  0.1819  1.0519
  791SOL    MW4 3212   1.207   1.888   1.825 -0.2416  0.1705  0.4442
  792SOL     OW 3213   3.385   1.317   3.667 -0.5961  0.2530 -0.0876
  792SOL    HW2 3214   3.297   1.332   3.632 -0.8564 -0.0551  0.4387
  792SOL    HW3 3215   3.430   1.401   3.658 -1.3346  0.7355  0.7960
  792SOL    MW4 3216   3.380   1.330   3.661 -0.7279  0.2760  0.0985
  793SOL     OW 3217   2.819   2.285   3.320  0.0803 -0.0222 -0.3214
  793SOL    HW2 3218   2.884   2.219   3.342 -1.4805 -0.9536  1.6813
  793SOL    HW3 3219   2.760   2.241   3.258  0.4548  0.3005 -0.9068
  793SOL    MW4 3220   2.820   2.270   3.315 -0.0763 -0.1025 -0.1342
  794SOL     OW 3221   1.251   3.588   4.047 -0.0177  0.1714 -0.0749
  794SOL    HW2 3222   1.300   3.572   4.127 -1.0072  0.0394  0.5131
  794SOL    HW3 3223   1.220   3.501   4.020 -2.0096  0.5385  0.9204
  794SOL    MW4 3224   1.253   3.574   4.054 -0.4110  0.2024  0.1340
  795SOL     OW 3225   4.087   2.399   2.754  0.6982 -0.1238  0.0401
  795SOL    HW2 3226   4.170   2.432   2.789  1.5778 -0.6824 -1.4818
  795SOL    HW3 3227   4.111   2.321   2.705 -0.9919 -1.4212  1.2007
  795SOL    MW4 3228   4.101   2.393   2.752  0.5913 -0.3688 -0.0076
  796SOL     OW 3229   3.214   0.713   3.643  0.1097 -0.5673  0.5073
  796SOL    HW2 3230   3.139   0.771   3.656 -0.1753 -1.1756  1.6579
  796SOL    HW3 3231   3.254   0.706   3.729  1.6431 -0.0572 -0.1479
  796SOL    MW4 3232   3.210   0.719   3.656  0.2744 -0.5803  0.5727
  797SOL     OW 3233   1.657   1.710   4.437  0.3129  0.2888  0.2546
  797SOL    HW2 3234   1.738   1.659   4.436 -0.2926 -0.7343  1.8826
  797SOL    HW3 3235   1.587   1.646   4.428 -0.4784  0.7137  2.8271
  797SOL    MW4 3236   1.658   1.695   4.436  0.1285  0.2100  0.8082
  798SOL     OW 3237   0.554   4.277   3.499  0.1161 -0.1493 -0.2568
  798SOL    HW2 3238   0.491   4.348   3.507 -1.7802 -1.9586  1.3899
  798SOL    HW3 3239   0.531   4.233   3.417 -1.4364 -1.4224  0.8473
  798SOL    MW4 3240   0.543   4.281   3.489 -0.3389 -0.5555  0.1063
  799SOL     OW 3241   0.692   0.307   1.692  0.3699 -0.0905  0.1904
  799SOL    HW2 3242   0.765   0.245   1.687  0.8231  0.4499  0.0288
  799SOL    HW3 3243   0.652   0.292   1.777  0.8335 -0.2132  0.3867
  799SOL    MW4 3244   0.696   0.297   1.702  0.4908 -0.0354  0.1949
  800SOL     OW 3245   0.693   3.596   1.270 -0.4609 -0.0665  0.0206
  800SOL    HW2 3246   0.615   3.641   1.237 -0.3753 -0.3741 -0.6186
  800SOL    HW3 3247   0.661   3.510   1.298 -0.4278 -0.0326  0.1594
  800SOL    MW4 3248   0.678   3.591   1.269 -0.4452 -0.1023 -0.0453
  801SOL     OW 3249   3.073   0.549   2.270 -0.3584 -0.1011 -0.0737
  801SOL    HW2 3250   3.100   0.519   2.183  1.7675  0.6219  0.3065
  801SOL    HW3 3251   3.142   0.609   2.298 -1.4303  0.3340  1.7768
  801SOL    MW4 3252   3.086   0.553   2.262 -0.2191  0.0517  0.2205
  802SOL     OW 3253   3.540   4.060   3.044  0.3747  0.3106  0.6966
  802SOL    HW2 3254   3.596   4.116   2.991  1.6470 -0.8663  0.7527
  802SOL    HW3 3255   3.551   4.093   3.133 -0.3138  1.1262  0.4759
  802SOL    MW4 3256   3.549   4.072   3.049  0.4516  0.2627  0.6750
  803SOL     OW 3257   1.659   3.046   1.133 -0.0219 -0.7233  0.4069
  803SOL    HW2 3258   1.676   3.138   1.113  1.7313 -0.7034  1.7540
  803SOL    HW3 3259   1.627   3.047   1.223 -0.0851 -1.4096  0.3946
  803SOL    MW4 3260   1.657   3.058   1.142  0.2012 -0.8113  0.5831
  804SOL     OW 3261   3.323   0.484   0.812  0.1063  0.0649  0.0521
  804SOL    HW2 3262   3.374   0.493   0.731 -0.2662  0.6231 -0.1210
  804SOL    HW3 3263   3.380   0.519   0.880  0.3979 -0.3530  0.0265
  804SOL    MW4 3264   3.337   0.490   0.810  0.0958  0.0834  0.0259
  805SOL     OW 3265   2.986   1.929   3.719  0.2582 -0.3246  0.2437
  805SOL    HW2 3266   2.987   1.833   3.718  0.5862 -0.3696  2.2175
  805SOL    HW3 3267   3.072   1.953   3.684 -0.1223 -0.7301 -0.9882
  805SOL    MW4 3268   2.998   1.919   3.714  0.2515 -0.3840  0.3417
  806SOL     OW 3269   3.817   0.021   4.133  0.5327  0.7050 -0.8417
  806SOL    HW2 3270   3.731  -0.018   4.114  0.8053 -0.7281  0.7029
  806SOL    HW3 3271   3.801   0.116   4.131 -0.7501  0.4793 -2.0321
  806SOL    MW4 3272   3.803   0.029   4.130  0.3994  0.4862 -0.7954
  807SOL     OW 3273   2.264   0.267   1.857 -0.1634  0.7555 -0.2831
  807SOL    HW2 3274   2.309   0.210   1.920  1.4275 -1.1448 -2.9768
  807SOL    HW3 3275   2.300   0.354   1.873  0.3185  0.2669  1.3410
  807SOL    MW4 3276   2.275   0.271   1.867  0.1099  0.4404 -0.4244
  808SOL     OW 3277   2.519   3.722   3.477  0.6507 -0.1694 -0.2085
  808SOL    HW2 3278   2.441   3.667   3.485  0.4751  0.3945  2.4906
  808SOL    HW3 3279   2.587   3.674   3.525  0.8454  1.2918  1.0203
  808SOL    MW4 3280   2.517   3.708   3.485  0.6530  0.0978  0.3097
  809SOL     OW 3281   2.726   1.989   0.634 -0.4248 -0.7829 -0.6729
  809SOL    HW2 3282   2.650   2.028   0.677  0.9214  0.5032  0.5459
  809SOL    HW3 3283   2.774   2.063   0.597  0.1707 -1.5993 -1.5730
  809SOL    MW4 3284   2.722   2.004   0.635 -0.1690 -0.7210 -0.6309
  810SOL     OW 3285   0.053   4.647   3.163  0.1064 -0.2123  0.0123
  810SOL    HW2 3286   0.130   4.657   3.108 -0.0300 -0.9038 -0.2987
  810SOL    HW3 3287  -0.021   4.664   3.104 -0.1708 -3.5314 -0.6635
  810SOL    MW4 3288   0.053   4.651   3.148  0.0519 -0.7414 -0.1180
  811SOL     OW 3289   4.214   1.701   4.306  0.2422 -0.5037 -0.1668
  811SOL    HW2 3290   4.274   1.771   4.333  0.3653 -0.9229  0.6608
  811SOL    HW3 3291   4.260   1.621   4.328 -0.9115 -0.8288  1.1031
  811SOL    MW4 3292   4.228   1.700   4.313  0.1059 -0.6020  0.1097
  812SOL     OW 3293   3.926   1.826   3.385  0.0730 -0.3939 -0.7546
  812SOL    HW2 3294   3.934   1.921   3.379  0.5203 -0.4261 -0.6786
  812SOL    HW3 3295   3.941   1.806   3.477  0.0071 -0.5414 -0.7755
  812SOL    MW4 3296   3.929   1.836   3.396  0.1233 -0.4176 -0.7472
  813SOL     OW 3297   3.230   3.695   1.770 -0.1214 -0.4528 -0.3201
  813SOL    HW2 3298   3.248   3.724   1.859  0.5911 -1.3445 -0.1601
  813SOL    HW3 3299   3.135   3.684   1.766 -0.5502  2.7112 -0.6593
  813SOL    MW4 3300   3.220   3.697   1.781 -0.0839 -0.1531 -0.3437
  814SOL     OW 3301   0.884   1.060   0.749  0.2480  0.4553 -0.3736
  814SOL    HW2 3302   0.916   1.106   0.672  1.3787  0.9155  0.3481
  814SOL    HW3 3303   0.956   1.001   0.773  0.8475  1.9239  1.6124
  814SOL    MW4 3304   0.898   1.058   0.742  0.4762  0.7099 -0.0163
  815SOL     OW 3305   0.116   2.947   1.703  0.3014 -0.4573 -0.0156
  815SOL    HW2 3306   0.158   2.884   1.644  0.1624  0.3761 -1.0073
  815SOL    HW3 3307   0.047   2.986   1.651  0.8057  0.9997  0.3863
  815SOL    MW4 3308   0.113   2.943   1.689  0.3496 -0.1547 -0.0935
  816SOL     OW 3309   3.100   2.088   4.658  1.3370 -0.3519 -0.4965
  816SOL    HW2 3310   3.012   2.080   4.620  0.9041  0.7162  0.2522
  816SOL    HW3 3311   3.085   2.132   4.742  2.5584 -0.4466 -0.2271
  816SOL    MW4 3312   3.086   2.092   4.664  1.4408 -0.2234 -0.3619
  817SOL     OW 3313   3.972   2.515   2.178  0.9758  0.3109 -0.4874
  817SOL    HW2 3314   3.990   2.527   2.085 -0.1264  0.6023 -0.6681
  817SOL    HW3 3315   4.058   2.520   2.220  1.8418 -2.5928 -1.7764
  817SOL    MW4 3316   3.986   2.517   2.171  0.9449 -0.0339 -0.6812
  818SOL     OW 3317   1.892   2.940   2.970  0.0976 -0.0026  0.4860
  818SOL    HW2 3318   1.910   2.888   3.048 -0.3107  0.0195  0.5980
  818SOL    HW3 3319   1.942   2.898   2.900 -0.7281 -0.9237  0.4343
  818SOL    MW4 3320   1.901   2.928   2.971 -0.0653 -0.1214  0.4940
  819SOL     OW 3321   0.725   2.482   3.974  0.2754  0.5024  0.0532
  819SOL    HW2 3322   0.663   2.447   4.038 -0.9689 -1.3631 -2.1034
  819SOL    HW3 3323   0.809   2.444   3.998 -0.6622 -2.2884 -0.9311
  819SOL    MW4 3324   0.728   2.473   3.986 -0.0125 -0.1118 -0.3612
  820SOL     OW 3325   3.718   4.036   2.409  0.1391 -0.0748 -0.2536
  820SOL    HW2 3326   3.637   4.021   2.359 -1.0272  1.6618  1.0515
  820SOL    HW3 3327   3.721   3.963   2.471 -1.2877  0.6825  0.7476
  820SOL    MW4 3328   3.708   4.024   2.411 -0.2034  0.2537  0.0508
  821SOL     OW 3329   1.681   1.733   3.430 -0.0681 -0.1950  0.1299
  821SOL    HW2 3330   1.714   1.715   3.518  1.5107 -0.7689 -0.5636
  821SOL    HW3 3331   1.644   1.821   3.436  2.9953  1.1345  0.5709
  821SOL    MW4 3332   1.680   1.742   3.443  0.5444 -0.0955  0.0963
  822SOL     OW 3333   1.324   0.834   4.462  0.3142  0.1228  0.0387
  822SOL    HW2 3334   1.353   0.763   4.518 -0.7494 -0.1146  0.3027
  822SOL    HW3 3335   1.399   0.893   4.456  0.7179 -0.2982  0.9806
  822SOL    MW4 3336   1.337   0.832   4.468  0.2271  0.0359  0.1979
  823SOL     OW 3337   1.561   4.357   4.549 -0.6907  0.3196  0.3827
  823SOL    HW2 3338   1.633   4.421   4.541  0.6457 -1.1255  0.5339
  823SOL    HW3 3339   1.525   4.372   4.636 -0.4110  0.8908  0.4030
  823SOL    MW4 3340   1.566   4.368   4.559 -0.4777  0.2050  0.4053
  824SOL     OW 3341   3.268   2.541   4.689 -0.1891  0.8471  0.3244
  824SOL    HW2 3342   3.176   2.566   4.683 -0.2909  0.5463  0.6172
  824SOL    HW3 3343   3.308   2.609   4.743 -0.5275  0.2255  1.3779
  824SOL    MW4 3344   3.261   2.553   4.695 -0.2470  0.7255  0.5021
  825SOL     OW 3345   2.804   0.793   3.053 -0.1839 -0.2388  0.7860
  825SOL    HW2 3346   2.759   0.789   2.969  0.6689 -2.1477  0.3998
  825SOL    HW3 3347   2.876   0.730   3.045 -0.8443 -1.3855  3.3969
  825SOL    MW4 3348   2.808   0.784   3.041 -0.1585 -0.6419  1.0793
  826SOL     OW 3349   1.257   0.326   4.413  0.2889  0.4548 -0.0642
  826SOL    HW2 3350   1.245   0.258   4.347  2.3234 -0.4129  0.3996
  826SOL    HW3 3351   1.250   0.408   4.365  1.0321 -0.1549 -1.2492
  826SOL    MW4 3352   1.255   0.328   4.398  0.6554  0.2599 -0.1593
  827SOL     OW 3353   1.663   4.104   1.083  0.2200 -0.2889  0.1422
  827SOL    HW2 3354   1.594   4.159   1.120  0.6817 -1.3277  2.6578
  827SOL    HW3 3355   1.744   4.141   1.118  0.7467 -0.7783 -0.5457
  827SOL    MW4 3356   1.665   4.116   1.092  0.3505 -0.4902  0.3833
  828SOL     OW 3357   2.501   4.114   4.016  0.4512  0.4271 -0.4283
  828SOL    HW2 3358   2.464   4.165   4.087  0.7311  0.1982 -0.1160
  828SOL    HW3 3359   2.506   4.175   3.942 -0.4808  0.4730 -0.4568
  828SOL    MW4 3360   2.497   4.129   4.015  0.3650  0.4029 -0.3905
  829SOL     OW 3361   1.276   2.099   2.220  0.2721 -0.5847  0.5730
  829SOL    HW2 3362   1.310   2.107   2.131  1.1203  0.3049  0.9646
  829SOL    HW3 3363   1.352   2.075   2.273  0.3836  1.6655  1.4896
  829SOL    MW4 3364   1.290   2.097   2.215  0.3986 -0.1705  0.7460
  830SOL     OW 3365   2.148   1.079   3.809  0.2763 -0.3495  0.0678
  830SOL    HW2 3366   2.182   1.017   3.744 -0.7329  0.5163 -1.3366
  830SOL    HW3 3367   2.070   1.036   3.844  0.7937 -0.7980  0.6625
  830SOL    MW4 3368   2.142   1.065   3.805  0.2117 -0.2944 -0.0391
  831SOL     OW 3369   0.491   0.882   4.083 -0.2160 -0.3829  0.2716
  831SOL    HW2 3370   0.577   0.849   4.106  0.2764  0.5199 -0.2354
  831SOL    HW3 3371   0.497   0.902   3.989 -0.2381  1.8883  0.7204
  831SOL    MW4 3372   0.503   0.881   4.074 -0.1540  0.0359  0.2637
  832SOL     OW 3373   3.343   3.917   4.251 -0.1031  0.3930  0.0671
  832SOL    HW2 3374   3.401   3.864   4.306 -0.1159  0.3117  0.0015
  832SOL    HW3 3375   3.372   4.007   4.267  0.0392  0.3530  0.0365
  832SOL    MW4 3376   3.355   3.922   4.261 -0.0858  0.3769  0.0544
  833SOL     OW 3377   3.398   0.788   4.239 -0.0930 -0.0126  0.1077
  833SOL    HW2 3378   3.434   0.872   4.213 -1.5063  0.5372 -0.1102
  833SOL    HW3 3379   3.443   0.766   4.321  0.1907  1.0131  0.2244
  833SOL    MW4 3380   3.409   0.796   4.247 -0.2420  0.1953  0.0944
  834SOL     OW 3381   1.093   3.717   1.476  0.0978  0.0571  0.5549
  834SOL    HW2 3382   1.171   3.709   1.532 -0.4309 -1.2716  1.1011
  834SOL    HW3 3383   1.091   3.810   1.452 -0.1504  0.8407  3.4306
  834SOL    MW4 3384   1.103   3.728   1.481 -0.0044 -0.0148  1.0062
  835SOL     OW 3385   4.238   0.535   2.092  0.4052 -0.0224  0.4652
  835SOL    HW2 3386   4.318   0.558   2.139  0.5231  0.9637 -0.1941
  835SOL    HW3 3387   4.168   0.550   2.155  0.5955  0.8837  0.4645
  835SOL    MW4 3388   4.240   0.540   2.106  0.4463  0.2272  0.3781
  836SOL     OW 3389   3.914   0.619   1.090 -0.0037 -0.1010 -0.0831
  836SOL    HW2 3390   3.889   0.699   1.044 -0.2126  0.6265  1.2616
  836SOL    HW3 3391   4.001   0.637   1.126 -0.4203 -0.1365  0.9757
  836SOL    MW4 3392   3.922   0.632   1.089 -0.0863 -0.0098  0.2339
  837SOL     OW 3393   3.726   2.617   2.218  0.4469  0.5231 -0.4104
  837SOL    HW2 3394   3.810   2.583   2.188  0.6160  1.1663 -0.6924
  837SOL    HW3 3395   3.684   2.544   2.262  0.0544 -0.5524 -2.5184
  837SOL    MW4 3396   3.731   2.603   2.219  0.4177  0.4663 -0.7260
  838SOL     OW 3397   1.140   4.580   0.980  0.1353  0.0036  0.1619
  838SOL    HW2 3398   1.066   4.636   1.005  0.4612  0.6944 -0.3948
  838SOL    HW3 3399   1.136   4.506   1.040 -0.2470  0.6828  0.9877
  838SOL    MW4 3400   1.130   4.578   0.991  0.1279  0.1845  0.1974
  839SOL     OW 3401   3.444   2.333   3.551 -0.6190 -0.1206 -0.0782
  839SOL    HW2 3402   3.449   2.278   3.629  0.1066 -1.2751 -0.9262
  839SOL    HW3 3403   3.534   2.342   3.522 -0.8629  0.5272 -0.6439
  839SOL    MW4 3404   3.456   2.327   3.558 -0.5553 -0.1872 -0.2646
  840SOL     OW 3405   3.553   4.112   3.344 -0.1729  0.0635 -0.4539
  840SOL    HW2 3406   3.588   4.200   3.352 -0.1612  0.0492 -0.3486
  840SOL    HW3 3407   3.465   4.117   3.380 -0.0889 -0.0202 -0.2340
  840SOL    MW4 3408   3.546   4.124   3.350 -0.1605  0.0505 -0.4108
  841SOL     OW 3409   4.145   3.305   3.168  0.3185  0.1092 -0.2856
  841SOL    HW2 3410   4.076   3.320   3.103  0.3429  3.8993  0.4743
  841SOL    HW3 3411   4.100   3.267   3.243 -0.6730  0.9821 -0.4340
  841SOL    MW4 3412   4.130   3.302   3.169  0.1907  0.7243 -0.2048
  842SOL     OW 3413   2.873   2.524   1.198  0.1174  0.0813  0.3912
  842SOL    HW2 3414   2.961   2.525   1.162  0.4226  1.3419  1.1575
  842SOL    HW3 3415   2.817   2.554   1.127  0.5535  1.2226  0.5237
  842SOL    MW4 3416   2.877   2.528   1.184  0.2153  0.3982  0.5099
  843SOL     OW 3417   1.944   3.425   3.188 -0.0297 -0.4367  0.1134
  843SOL    HW2 3418   2.001   3.493   3.152  0.1657 -1.0843 -0.8062
  843SOL    HW3 3419   1.935   3.361   3.118  1.0740 -2.1654  1.5093
  843SOL    MW4 3420   1.950   3.426   3.174  0.1416 -0.7501  0.1764
  844SOL     OW 3421   3.074   4.074   3.199  0.1277 -0.6831 -0.0265
  844SOL    HW2 3422   3.137   4.051   3.130  1.3163 -0.0609  0.8452
  844SOL    HW3 3423   2.999   4.109   3.152  0.5444 -1.1574 -1.0650
  844SOL    MW4 3424   3.072   4.075   3.184  0.3395 -0.6633 -0.0484
  845SOL     OW 3425   0.976   1.422   3.484 -0.4914 -0.1433 -0.3136
  845SOL    HW2 3426   1.026   1.488   3.436  0.8302 -0.0532  1.1670
  845SOL    HW3 3427   0.985   1.342   3.431 -0.6622  0.4290 -1.2168
  845SOL    MW4 3428   0.984   1.420   3.471 -0.3396 -0.0560 -0.2375
  846SOL     OW 3429   2.815   4.534   2.154  0.2507 -0.1197  0.7274
  846SOL    HW2 3430   2.839   4.591   2.226 -0.8256 -1.4463  2.1772
  846SOL    HW3 3431   2.839   4.446   2.183 -1.4323 -0.8304  0.0563
  846SOL    MW4 3432   2.821   4.530   2.167 -0.1132 -0.3886  0.8302
  847SOL     OW 3433   4.335   0.864   4.151 -0.0203 -0.5448 -0.5718
  847SOL    HW2 3434   4.277   0.811   4.097 -0.4722 -1.3130  0.6417
  847SOL    HW3 3435   4.288   0.947   4.162 -0.2740 -0.6695 -0.7180
  847SOL    MW4 3436   4.321   0.868   4.145 -0.1135 -0.6627 -0.4306
  848SOL     OW 3437   0.989   0.740   4.034 -0.3489  0.2618  0.1244
  848SOL    HW2 3438   1.075   0.703   4.011 -0.0467  1.4721 -0.7594
  848SOL    HW3 3439   0.929   0.666   4.031  0.6230 -0.5488  0.4847
  848SOL    MW4 3440   0.993   0.726   4.031 -0.1808  0.3145  0.0553
  849SOL     OW 3441   3.754   0.743   4.297  0.4943  0.1178 -0.2580
  849SOL    HW2 3442   3.827   0.805   4.303  1.6597 -1.2279 -0.4713
  849SOL    HW3 3443   3.689   0.777   4.359  1.1853  1.4618 -0.2520
  849SOL    MW4 3444   3.755   0.756   4.306  0.7389  0.1177 -0.2856
  850SOL     OW 3445   3.320   3.366   2.228 -0.1433  0.3317 -0.4127
  850SOL    HW2 3446   3.366   3.431   2.281  0.9150  0.4533 -1.4756
  850SOL    HW3 3447   3.265   3.417   2.169 -0.6443  0.2183 -0.0449
  850SOL    MW4 3448   3.319   3.381   2.227 -0.0696  0.3326 -0.5043
  851SOL     OW 3449   1.366   0.923   2.850  0.6359 -0.2746  0.1924
  851SOL    HW2 3450   1.409   1.002   2.884 -0.7273  1.6550 -2.4038
  851SOL    HW3 3451   1.433   0.855   2.854  3.2712  2.0980 -1.6636
  851SOL    MW4 3452   1.381   0.925   2.855  0.8037  0.2931 -0.3948
  852SOL     OW 3453   3.820   4.636   2.446  0.2456  0.3150  0.4263
  852SOL    HW2 3454   3.813   4.721   2.489 -0.4731  0.3448  0.2528
  852SOL    HW3 3455   3.740   4.629   2.394  0.0900 -0.6512  0.7854
  852SOL    MW4 3456   3.809   4.646   2.445  0.1304  0.1912  0.4508
  853SOL     OW 3457   0.048   4.164   4.058 -0.1823 -0.0990  0.3739
  853SOL    HW2 3458   0.030   4.237   4.118  0.6564 -0.0236  0.5469
  853SOL    HW3 3459   0.010   4.192   3.974  0.3381  0.6465  0.3795
  853SOL    MW4 3460   0.041   4.177   4.055 -0.0030  0.0095  0.3972
  854SOL     OW 3461   0.476   4.168   2.599  0.1927  0.0586 -0.0411
  854SOL    HW2 3462   0.428   4.088   2.579 -0.6563  0.0450  1.8840
  854SOL    HW3 3463   0.567   4.149   2.576 -0.0934 -1.2826 -0.0513
  854SOL    MW4 3464   0.482   4.155   2.594  0.0429 -0.1197  0.2115
  855SOL     OW 3465   3.543   3.791   1.665  0.2407  0.1454  0.6132
  855SOL    HW2 3466   3.633   3.794   1.634 -0.4308 -0.3522 -1.4645
  855SOL    HW3 3467   3.495   3.848   1.605 -1.0396 -0.5357  0.9720
  855SOL    MW4 3468   3.548   3.799   1.653 -0.0169 -0.0100  0.3865
  856SOL     OW 3469   2.582   3.678   1.413  0.4726  0.2107  0.3803
  856SOL    HW2 3470   2.537   3.598   1.388  1.0159  0.7806 -2.5560
  856SOL    HW3 3471   2.512   3.741   1.429  0.0802 -0.5622  1.7872
  856SOL    MW4 3472   2.567   3.676   1.412  0.4928  0.1836  0.1785
  857SOL     OW 3473   2.665   3.626   2.595 -0.7794 -0.0545 -0.2354
  857SOL    HW2 3474   2.623   3.709   2.614 -2.6506 -0.9956 -0.1066
  857SOL    HW3 3475   2.704   3.598   2.678 -2.8800 -0.7961  0.5320
  857SOL    MW4 3476   2.665   3.633   2.608 -1.3034 -0.2766 -0.1171
  858SOL     OW 3477   2.834   0.525   3.800  0.1773  0.3123  0.0318
  858SOL    HW2 3478   2.820   0.478   3.882  0.0920 -1.5085 -1.0037
  858SOL    HW3 3479   2.768   0.594   3.800  0.0800  0.2288  1.4136
  858SOL    MW4 3480   2.823   0.528   3.811  0.1533  0.0610  0.0775
  859SOL     OW 3481   1.808   1.659   3.719  0.4162  0.2271 -0.1836
  859SOL    HW2 3482   1.800   1.568   3.747  1.0577  0.3798  0.5157
  859SOL    HW3 3483   1.901   1.672   3.706  0.3234  0.7728 -0.3207
  859SOL    MW4 3484   1.819   1.649   3.721  0.4886  0.3191 -0.1094
  860SOL     OW 3485   2.245   3.682   4.360 -0.3210  0.2328  0.0985
  860SOL    HW2 3486   2.306   3.739   4.405  0.0268 -0.7906  0.9592
  860SOL    HW3 3487   2.287   3.661   4.277 -0.2832  0.9055 -0.0540
  860SOL    MW4 3488   2.258   3.687   4.355 -0.2699  0.1869  0.1917
  861SOL     OW 3489   0.912   2.442   1.305 -0.2016  0.0932  0.2083
  861SOL    HW2 3490   0.859   2.456   1.384 -2.0978  2.4182 -1.4330
  861SOL    HW3 3491   0.872   2.365   1.263  0.7326 -1.0715  1.3967
  861SOL    MW4 3492   0.900   2.434   1.310 -0.3285  0.2463  0.1487
  862SOL     OW 3493   3.593   4.437   4.162 -0.2227  0.2386 -0.1200
  862SOL    HW2 3494   3.640   4.410   4.083  0.4198  0.7199  0.0962
  862SOL    HW3 3495   3.639   4.392   4.234 -1.5714 -1.1917 -0.1280
  862SOL    MW4 3496   3.605   4.427   4.161 -0.3161  0.1140 -0.0935
  863SOL     OW 3497   3.936   3.912   1.072  0.7455 -0.2982 -0.5449
  863SOL    HW2 3498   4.020   3.888   1.033  0.6521 -0.5713 -0.5762
  863SOL    HW3 3499   3.940   4.008   1.079  1.7988 -0.4423  1.1757
  863SOL    MW4 3500   3.948   3.922   1.067  0.8721 -0.3536 -0.3220
  864SOL     OW 3501   1.620   2.396   1.661 -1.1796  0.0566 -0.7479
  864SOL    HW2 3502   1.605   2.308   1.693 -0.7483 -0.1975 -1.2308
  864SOL    HW3 3503   1.666   2.384   1.578 -0.1569  0.7485 -0.3056
  864SOL    MW4 3504   1.624   2.383   1.654 -0.9876  0.1144 -0.7533
  865SOL     OW 3505   2.298   0.569   1.399  0.6190  0.1128  0.1903
  865SOL    HW2 3506   2.224   0.556   1.459 -0.7017  0.0401 -1.4292
  865SOL    HW3 3507   2.326   0.659   1.415  0.2564  0.1076  0.8828
  865SOL    MW4 3508   2.292   0.579   1.409  0.3967  0.1025  0.0678
  866SOL     OW 3509   1.587   2.570   2.802 -0.2492  0.0146 -0.1282
  866SOL    HW2 3510   1.536   2.609   2.731 -2.1837  0.7756  1.6204
  866SOL    HW3 3511   1.624   2.644   2.849  0.3474 -0.4466  0.1283
  866SOL    MW4 3512   1.585   2.585   2.798 -0.4257  0.0539  0.1364
  867SOL     OW 3513   4.485   1.630   1.131 -0.3863  0.0341  0.3127
  867SOL    HW2 3514   4.470   1.617   1.038 -0.6208  0.0850  0.3424
  867SOL    HW3 3515   4.456   1.548   1.172  1.1146 -0.5678  0.2038
  867SOL    MW4 3516   4.479   1.617   1.124 -0.2198 -0.0385  0.3022
  868SOL     OW 3517   2.393   3.129   4.666 -0.3234  0.1498 -0.4420
  868SOL    HW2 3518   2.468   3.182   4.694 -1.0027  1.1136 -0.4173
  868SOL    HW3 3519   2.338   3.190   4.617 -2.0572 -0.0447  1.2208
  868SOL    MW4 3520   2.396   3.144   4.664 -0.6418  0.2511 -0.2193
  869SOL     OW 3521   2.270   0.905   1.269  0.1027  0.0176 -0.3808
  869SOL    HW2 3522   2.303   0.877   1.354 -1.2851 -1.1109 -0.2008
  869SOL    HW3 3523   2.319   0.853   1.206 -0.0672 -0.3626 -0.1983
  869SOL    MW4 3524   2.281   0.895   1.272 -0.1028 -0.1814 -0.3328
  870SOL     OW 3525   3.258   1.491   1.547  0.1692  0.1549  0.1187
  870SOL    HW2 3526   3.337   1.474   1.496  0.9428  0.4994  1.1887
  870SOL    HW3 3527   3.290   1.522   1.632 -1.1327  2.5805 -0.2176
  870SOL    MW4 3528   3.273   1.493   1.551  0.0994  0.5205  0.2154
  871SOL     OW 3529   0.437   3.681   4.622 -0.8522 -0.1597 -0.2111
  871SOL    HW2 3530   0.447   3.775   4.635 -0.6539 -0.2430  0.2466
  871SOL    HW3 3531   0.496   3.661   4.550 -0.7430  0.0341 -0.1771
  871SOL    MW4 3532   0.446   3.691   4.614 -0.8116 -0.1452 -0.1459
  872SOL     OW 3533   1.856   3.588   1.039  0.0510 -0.2254  0.4678
  872SOL    HW2 3534   1.860   3.670   1.087  0.2781 -0.4292  0.7978
  872SOL    HW3 3535   1.768   3.587   1.001  0.1043  0.2405  0.3295
  872SOL    MW4 3536   1.845   3.599   1.040  0.0880 -0.1907  0.4930
  873SOL     OW 3537   0.404   4.379   1.557 -0.0620 -0.0733 -0.5864
  873SOL    HW2 3538   0.434   4.405   1.644  0.8119 -0.5256 -0.7476
  873SOL    HW3 3539   0.422   4.285   1.553 -0.5337 -0.1415 -1.0824
  873SOL    MW4 3540   0.411   4.370   1.568 -0.0089 -0.1421 -0.6732
  874SOL     OW 3541   2.802   1.141   4.002 -0.2539  0.6349  0.2208
  874SOL    HW2 3542   2.817   1.234   3.985  1.7760  0.1513 -0.8051
  874SOL    HW3 3543   2.883   1.110   4.042 -0.0106 -1.1935 -1.5609
  874SOL    MW4 3544   2.815   1.149   4.005  0.0458  0.3299 -0.1497
  875SOL     OW 3545   1.310   1.744   4.571  0.1020  0.6458  0.1092
  875SOL    HW2 3546   1.294   1.702   4.656 -0.2322  1.1650  0.3081
  875SOL    HW3 3547   1.245   1.814   4.567  0.8063  1.2920 -0.1195
  875SOL    MW4 3548   1.299   1.747   4.582  0.1508  0.7994  0.1054
  876SOL     OW 3549   0.367   3.135   0.679  0.7390  0.5093 -0.3241
  876SOL    HW2 3550   0.284   3.089   0.693  0.8979  1.1559  3.2195
  876SOL    HW3 3551   0.419   3.075   0.626 -0.6441 -1.5319  0.5553
  876SOL    MW4 3552   0.362   3.121   0.674  0.5775  0.3252  0.2595
  877SOL     OW 3553   0.708   2.416   3.469 -0.0849  0.3473 -0.3110
  877SOL    HW2 3554   0.727   2.508   3.449  0.1915  0.9538  2.4591
  877SOL    HW3 3555   0.711   2.412   3.565  0.2262 -2.6373 -0.4085
  877SOL    MW4 3556   0.711   2.428   3.479 -0.0075  0.0331  0.0415
  878SOL     OW 3557   1.313   1.321   1.933  0.1033 -0.0298  0.0276
  878SOL    HW2 3558   1.383   1.300   1.995  0.6491  1.4467 -0.0761
  878SOL    HW3 3559   1.358   1.365   1.860 -0.9187  0.8677 -0.0750
  878SOL    MW4 3560   1.328   1.324   1.931  0.0404  0.2835  0.0004
  879SOL     OW 3561   3.748   0.277   4.029  0.4859 -0.0385 -0.0680
  879SOL    HW2 3562   3.740   0.371   4.045 -0.0901  0.0326 -0.7166
  879SOL    HW3 3563   3.794   0.271   3.946  0.0199 -0.3141 -0.3105
  879SOL    MW4 3564   3.753   0.289   4.020  0.3486 -0.0655 -0.1855
  880SOL     OW 3565   3.001   3.696   4.055  0.0356  0.1619  0.2968
  880SOL    HW2 3566   3.087   3.720   4.022 -0.2238  0.0346 -0.4829
  880SOL    HW3 3567   2.949   3.776   4.046 -0.2513 -0.0958 -0.3435
  880SOL    MW4 3568   3.006   3.710   4.049 -0.0365  0.1113  0.1092
  881SOL     OW 3569   1.375   2.453   4.683  0.3937  0.0276 -0.1063
  881SOL    HW2 3570   1.466   2.424   4.685 -0.0284 -1.4000 -0.5806
  881SOL    HW3 3571   1.359   2.471   4.590  0.3446  0.7704  0.0490
  881SOL    MW4 3572   1.385   2.451   4.671  0.3313 -0.0629 -0.1483
  882SOL     OW 3573   3.971   3.551   2.792 -0.1548 -0.0220  0.5993
  882SOL    HW2 3574   3.996   3.572   2.702  0.6309 -0.6330  0.6735
  882SOL    HW3 3575   3.989   3.631   2.842 -1.1380  0.5101  0.1130
  882SOL    MW4 3576   3.976   3.564   2.787 -0.1810 -0.0324  0.5450
  883SOL     OW 3577   0.629   1.456   4.340  0.4290  0.2779 -0.8340
  883SOL    HW2 3578   0.684   1.533   4.355  0.9424 -0.2446  0.0264
  883SOL    HW3 3579   0.544   1.480   4.376  0.2171  0.9176 -1.7443
  883SOL    MW4 3580   0.625   1.470   4.347  0.4688  0.2934 -0.8402
  884SOL     OW 3581   4.428   2.360   3.738  0.7004 -0.2192 -0.2188
  884SOL    HW2 3582   4.488   2.288   3.756 -1.3023 -1.6191  1.1753
  884SOL    HW3 3583   4.343   2.318   3.727 -0.4131  1.8810  0.0437
  884SOL    MW4 3584   4.425   2.345   3.739  0.2890 -0.1266 -0.0002
  885SOL     OW 3585   1.357   4.410   1.661 -0.0095 -0.3836  0.1444
  885SOL    HW2 3586   1.403   4.328   1.647  0.4850 -0.1077  0.1559
  885SOL    HW3 3587   1.370   4.431   1.753 -1.2225 -0.9480  0.4567
  885SOL    MW4 3588   1.365   4.402   1.671 -0.1043 -0.4220  0.1870
  886SOL     OW 3589   2.557   0.461   1.499 -0.4751  0.4234 -0.1768
  886SOL    HW2 3590   2.573   0.547   1.459 -1.2407  0.0500 -1.2975
  886SOL    HW3 3591   2.465   0.442   1.478 -0.2978 -0.6771  0.0567
  886SOL    MW4 3592   2.547   0.470   1.491 -0.5527  0.2289 -0.2939
  887SOL     OW 3593   1.581   0.773   3.879  0.2554  0.0354  0.0639
  887SOL    HW2 3594   1.519   0.788   3.950  1.0313  0.7991  0.5791
  887SOL    HW3 3595   1.640   0.705   3.911  0.0234 -0.2998 -0.2160
  887SOL    MW4 3596   1.581   0.766   3.892  0.3272  0.0920  0.0949
  888SOL     OW 3597   1.660   1.146   2.649  0.3195  0.5203 -0.4236
  888SOL    HW2 3598   1.651   1.238   2.622 -0.2156  0.4411 -0.5189
  888SOL    HW3 3599   1.752   1.138   2.677  0.2207  1.2281  0.1221
  888SOL    MW4 3600   1.671   1.157   2.649  0.2359  0.6032 -0.3641
  889SOL     OW 3601   3.741   1.777   3.164 -0.1721 -0.1365 -1.0891
  889SOL    HW2 3602   3.807   1.784   3.233 -1.5523  1.9574  0.0712
  889SOL    HW3 3603   3.784   1.814   3.086  1.3105 -2.3113 -1.3639
  889SOL    MW4 3604   3.755   1.783   3.163 -0.1585 -0.1471 -0.9723
  890SOL     OW 3605   3.673   0.667   1.828 -0.5293  0.1564  0.3539
  890SOL    HW2 3606   3.750   0.667   1.770 -0.7481 -1.9853  0.0435
  890SOL    HW3 3607   3.605   0.622   1.778 -0.8785 -1.2611  2.0695
  890SOL    MW4 3608   3.675   0.661   1.813 -0.6042 -0.3132  0.5392
  891SOL     OW 3609   2.287   3.652   1.306 -0.1887  0.4852  0.3089
  891SOL    HW2 3610   2.233   3.731   1.299  1.2961  1.4346 -0.9009
  891SOL    HW3 3611   2.272   3.606   1.223  1.0097  0.8930 -0.1585
  891SOL    MW4 3612   2.278   3.656   1.294  0.1655  0.6645  0.0875
  892SOL     OW 3613   3.022   4.412   4.415  0.9279 -0.2558 -0.2921
  892SOL    HW2 3614   2.941   4.437   4.370  1.2818 -1.3338 -1.5657
  892SOL    HW3 3615   2.996   4.341   4.473  0.4454  1.2208  1.3407
  892SOL    MW4 3616   3.008   4.406   4.417  0.9105 -0.2031 -0.2446
  893SOL     OW 3617   1.272   0.707   1.536  0.2397 -0.4836  0.3487
  893SOL    HW2 3618   1.228   0.766   1.597  0.0291 -0.2889  0.0124
  893SOL    HW3 3619   1.207   0.691   1.467 -0.1061 -2.0007  1.0051
  893SOL    MW4 3620   1.258   0.713   1.535  0.1664 -0.6581  0.3908
  894SOL     OW 3621   0.450   4.006   1.237 -0.3518 -0.2307 -0.0214
  894SOL    HW2 3622   0.461   4.057   1.317  1.2585 -0.3436 -0.1638
  894SOL    HW3 3623   0.457   4.070   1.167  0.1552 -0.4164 -0.1418
  894SOL    MW4 3624   0.452   4.021   1.239 -0.0725 -0.2704 -0.0560
  895SOL     OW 3625   1.060   1.643   2.300  0.2755 -0.3595 -0.2035
  895SOL    HW2 3626   1.092   1.595   2.223  0.9283  0.5854 -0.5226
  895SOL    HW3 3627   0.969   1.664   2.278 -0.2583 -2.0709  0.2446
  895SOL    MW4 3628   1.052   1.639   2.287  0.2912 -0.4607 -0.1867
  896SOL     OW 3629   0.310   2.164   1.634 -0.3700  0.1375 -0.6396
  896SOL    HW2 3630   0.242   2.109   1.674  0.4689 -0.2081  0.3352
  896SOL    HW3 3631   0.377   2.171   1.702  1.1689 -0.5928 -2.0507
  896SOL    MW4 3632   0.310   2.157   1.648 -0.0563 -0.0043 -0.6971
  897SOL     OW 3633   2.938   3.988   1.487 -0.1170 -0.4108  0.3682
  897SOL    HW2 3634   2.866   4.045   1.461  0.8504  0.7673  0.2371
  897SOL    HW3 3635   2.908   3.948   1.569 -2.1273 -2.2054 -1.2009
  897SOL    MW4 3636   2.924   3.990   1.494 -0.2544 -0.4923  0.1440
  898SOL     OW 3637   3.947   1.823   1.720  0.4412  0.7443  0.1026
  898SOL    HW2 3638   4.031   1.795   1.756  0.2189 -1.3503 -0.8964
  898SOL    HW3 3639   3.964   1.832   1.626 -0.5926 -0.2920 -0.1890
  898SOL    MW4 3640   3.961   1.820   1.712  0.2756  0.3312 -0.0676
  899SOL     OW 3641   3.822   0.185   3.226  0.1105 -0.0335 -0.5534
  899SOL    HW2 3642   3.784   0.269   3.251  0.8936  0.5091 -1.1398
  899SOL    HW3 3643   3.892   0.170   3.290 -0.7224 -0.7596  0.1916
  899SOL    MW4 3644   3.826   0.194   3.238  0.1040 -0.0577 -0.5326
  900SOL     OW 3645   1.300   4.546   4.350  0.3667 -0.2934  0.2569
  900SOL    HW2 3646   1.295   4.640   4.331 -0.2367 -0.4804 -0.5857
  900SOL    HW3 3647   1.391   4.523   4.336  0.6015  0.2632  0.8975
  900SOL    MW4 3648   1.311   4.556   4.345  0.3181 -0.2446  0.2298
  901SOL     OW 3649   2.130   2.568   1.010  0.3679  0.1867  0.6138
  901SOL    HW2 3650   2.165   2.495   1.062  0.6913  0.0813  0.2502
  901SOL    HW3 3651   2.084   2.526   0.938  1.2206  0.3494 -0.0310
  901SOL    MW4 3652   2.129   2.553   1.008  0.5231  0.1943  0.4807
  902SOL     OW 3653   2.825   1.416   4.050 -0.4425 -0.0396 -0.1814
  902SOL    HW2 3654   2.890   1.427   4.120 -0.0470  2.1546 -0.8524
  902SOL    HW3 3655   2.741   1.419   4.095 -0.1417 -0.4930  0.4221
  902SOL    MW4 3656   2.823   1.418   4.065 -0.3507  0.1900 -0.1903
  903SOL     OW 3657   0.514   0.977   3.817  0.1962 -0.0625 -0.0774
  903SOL    HW2 3658   0.607   0.971   3.797  0.0827  0.1176 -0.6804
  903SOL    HW3 3659   0.497   1.071   3.824 -0.4812  0.0365 -2.6456
  903SOL    MW4 3660   0.524   0.989   3.816  0.0919 -0.0256 -0.4959
  904SOL     OW 3661   3.613   2.535   3.756 -0.3350  0.3457 -0.0652
  904SOL    HW2 3662   3.650   2.448   3.771  1.3234  0.6291 -2.3389
  904SOL    HW3 3663   3.675   2.595   3.796  0.7469  0.7082 -2.2160
  904SOL    MW4 3664   3.626   2.531   3.763  0.0267  0.4308 -0.6487
  905SOL     OW 3665   0.150   1.892   2.012 -0.5362 -0.3414 -0.3178
  905SOL    HW2 3666   0.121   1.819   2.066  1.1151 -0.1004  0.9255
  905SOL    HW3 3667   0.244   1.897   2.026 -0.2848  0.6283 -2.1268
  905SOL    MW4 3668   0.159   1.883   2.021 -0.2852 -0.1814 -0.3924
  906SOL     OW 3669   0.782   0.665   2.174  1.0486  0.9038  0.1597
  906SOL    HW2 3670   0.764   0.754   2.203  0.2147  0.8978 -0.3169
  906SOL    HW3 3671   0.877   0.663   2.161  1.1265  1.5966  0.5646
  906SOL    MW4 3672   0.792   0.676   2.176  0.9489  0.9944  0.1500
  907SOL     OW 3673   0.354   3.982   4.586  0.0475  0.3758 -0.2835
  907SOL    HW2 3674   0.322   4.035   4.659 -0.8627 -1.7733  0.8989
  907SOL    HW3 3675   0.282   3.983   4.523  0.3380  1.1700 -0.6140
  907SOL    MW4 3676   0.341   3.989   4.587 -0.0343  0.1972 -0.1712
  908SOL     OW 3677   1.256   4.104   3.688  0.0576 -0.0084  0.6807
  908SOL    HW2 3678   1.225   4.133   3.602  0.8228  0.1742  0.4641
  908SOL    HW3 3679   1.316   4.173   3.716 -0.6790  0.2526  1.6538
  908SOL    MW4 3680   1.259   4.117   3.680  0.0615  0.0505  0.7806
  909SOL     OW 3681   2.341   1.913   1.561 -0.0139  0.4782 -0.3667
  909SOL    HW2 3682   2.355   1.922   1.655  1.7325  0.1105 -0.5627
  909SOL    HW3 3683   2.272   1.848   1.552  0.9105 -0.6788  0.6460
  909SOL    MW4 3684   2.334   1.906   1.572  0.3383  0.2770 -0.2589
  910SOL     OW 3685   2.063   3.453   2.551  0.0884  1.1081  0.1351
  910SOL    HW2 3686   2.041   3.492   2.467 -0.0657  2.1350  0.6421
  910SOL    HW3 3687   2.108   3.523   2.599  2.5742 -0.2754 -0.0877
  910SOL    MW4 3688   2.066   3.468   2.546  0.3960  1.0610  0.1726
  911SOL     OW 3689   1.303   2.210   2.936 -0.0831  0.4307 -0.0965
  911SOL    HW2 3690   1.306   2.158   2.855 -0.5515 -1.5374  1.1320
  911SOL    HW3 3691   1.210   2.214   2.958 -0.0191  1.5546 -0.0084
  911SOL    MW4 3692   1.291   2.204   2.928 -0.1365  0.3192  0.0775
  912SOL     OW 3693   3.054   0.348   4.423 -0.2427 -0.3229  0.5989
  912SOL    HW2 3694   3.022   0.274   4.476  0.0743 -1.1477 -0.3506
  912SOL    HW3 3695   3.114   0.395   4.482 -1.2554 -0.2003  1.5574
  912SOL    MW4 3696   3.058   0.344   4.438 -0.3347 -0.4155  0.5999
  913SOL     OW 3697   1.528   0.102   1.831 -0.3491  0.0319 -0.0772
  913SOL    HW2 3698   1.598   0.162   1.856 -0.7547 -0.7254  3.0969
  913SOL    HW3 3699   1.474   0.095   1.909 -1.5237 -2.7889 -1.0859
  913SOL    MW4 3700   1.530   0.109   1.844 -0.5575 -0.4402  0.2086
  914SOL     OW 3701   2.789   0.658   2.743 -0.0146  0.2698 -0.2981
  914SOL    HW2 3702   2.713   0.634   2.691 -2.0767  3.2443  1.1796
  914SOL    HW3 3703   2.844   0.710   2.684 -0.4621  0.3549 -0.6377
  914SOL    MW4 3704   2.787   0.662   2.729 -0.3455  0.6735 -0.1478
  915SOL     OW 3705   4.245   0.514   0.931  0.3122  0.1245 -0.4799
  915SOL    HW2 3706   4.209   0.582   0.873 -0.8716  0.8327  1.0328
  915SOL    HW3 3707   4.288   0.452   0.872 -1.1707  0.6357 -2.1444
  915SOL    MW4 3708   4.246   0.515   0.916 -0.0391  0.2853 -0.5000
  916SOL     OW 3709   3.791   0.618   3.448 -0.0170  0.1972 -0.3750
  916SOL    HW2 3710   3.832   0.604   3.363 -1.9095  0.6238 -1.3844
  916SOL    HW3 3711   3.770   0.712   3.449  0.6142  0.3336  0.8531
  916SOL    MW4 3712   3.794   0.629   3.437 -0.1833  0.2714 -0.3459
  917SOL     OW 3713   4.440   3.111   0.907 -0.1381  0.3438 -0.2326
  917SOL    HW2 3714   4.498   3.039   0.883  1.3688  1.4914 -0.1848
  917SOL    HW3 3715   4.500   3.183   0.929 -1.5934  2.2049 -2.1162
  917SOL    MW4 3716   4.456   3.111   0.907 -0.1316  0.7410 -0.4747
  918SOL     OW 3717   3.288   4.390   3.640 -0.3596 -0.4346 -0.2026
  918SOL    HW2 3718   3.267   4.373   3.732  4.7885 -2.2448  0.8127
  918SOL    HW3 3719   3.297   4.486   3.635  0.5345 -0.4067  1.5165
  918SOL    MW4 3720   3.287   4.401   3.652  0.4377 -0.6700  0.1583
  919SOL     OW 3721   0.069   0.828   2.325 -0.1691  0.1875 -0.1363
  919SOL    HW2 3722   0.139   0.801   2.384  0.0965 -0.9972 -0.9733
  919SOL    HW3 3723   0.109   0.897   2.272  0.7106 -1.1605 -1.2836
  919SOL    MW4 3724   0.084   0.833   2.325 -0.0180 -0.1467 -0.3982
  920SOL     OW 3725   1.378   4.630   3.469  0.2898 -0.0019 -0.3840
  920SOL    HW2 3726   1.406   4.681   3.394 -0.4526 -0.6520 -1.1119
  920SOL    HW3 3727   1.458   4.589   3.502  0.6112  0.2610 -0.8284
  920SOL    MW4 3728   1.392   4.631   3.464  0.2341 -0.0529 -0.5386
  921SOL     OW 3729   4.351   0.127   2.039  0.0957 -0.0367  0.1923
  921SOL    HW2 3730   4.269   0.079   2.029  0.0677 -0.1493  0.9722
  921SOL    HW3 3731   4.349   0.162   2.128  1.0695 -0.3735  0.3547
  921SOL    MW4 3732   4.340   0.125   2.049  0.2203 -0.0960  0.3166
  922SOL     OW 3733   3.529   1.775   1.732 -0.7155  0.4065  0.2722
  922SOL    HW2 3734   3.533   1.825   1.814  0.0183 -1.9153  1.6831
  922SOL    HW3 3735   3.464   1.707   1.748  0.0071 -0.5525 -0.7990
  922SOL    MW4 3736   3.521   1.773   1.745 -0.5233 -0.0265  0.3170
  923SOL     OW 3737   4.047   2.648   1.377  0.5479 -0.2173 -0.4131
  923SOL    HW2 3738   4.004   2.712   1.320 -0.8952  0.2384  1.1397
  923SOL    HW3 3739   4.022   2.563   1.341 -0.2912  0.0608 -0.4921
  923SOL    MW4 3740   4.038   2.645   1.365  0.2470 -0.1206 -0.2186
  924SOL     OW 3741   2.810   4.482   4.268 -0.6441 -0.2250 -0.2043
  924SOL    HW2 3742   2.788   4.419   4.200  0.0268 -2.9412  1.9760
  924SOL    HW3 3743   2.726   4.514   4.300 -1.1081 -2.0243  0.4243
  924SOL    MW4 3744   2.796   4.478   4.263 -0.6170 -0.8211  0.1659
  925SOL     OW 3745   2.268   0.771   3.958 -0.2934 -0.0913 -0.2038
  925SOL    HW2 3746   2.281   0.680   3.931 -0.9849 -0.7696  1.6729
  925SOL    HW3 3747   2.356   0.809   3.958  0.1032 -0.9973 -0.1304
  925SOL    MW4 3748   2.281   0.764   3.954 -0.3321 -0.3002  0.0534
  926SOL     OW 3749   2.564   1.830   2.701  0.2636  0.6022  0.2218
  926SOL    HW2 3750   2.484   1.819   2.751 -0.0441 -0.2440 -0.4522
  926SOL    HW3 3751   2.621   1.883   2.757 -0.5140  0.6454  0.9690
  926SOL    MW4 3752   2.561   1.836   2.715  0.1204  0.4963  0.2313
  927SOL     OW 3753   0.993   2.719   1.973  0.4085  0.1145 -0.5409
  927SOL    HW2 3754   1.078   2.747   1.939  0.7953  0.9623  1.0476
  927SOL    HW3 3755   0.938   2.797   1.968  0.9740  0.7707  2.2684
  927SOL    MW4 3756   0.997   2.733   1.968  0.5341  0.3128  0.0393
  928SOL     OW 3757   2.621   3.043   2.592  0.5185 -0.3871  0.3563
  928SOL    HW2 3758   2.557   3.030   2.663 -1.2858 -1.0014 -1.3452
  928SOL    HW3 3759   2.657   3.130   2.609  1.8361 -1.4306  3.3334
  928SOL    MW4 3760   2.617   3.053   2.604  0.4542 -0.6061  0.5243
  929SOL     OW 3761   2.413   4.250   4.245 -0.2637 -0.3772  0.5609
  929SOL    HW2 3762   2.468   4.274   4.320  0.9686 -1.5069  0.0305
  929SOL    HW3 3763   2.380   4.334   4.212  0.8611  0.2837  1.0966
  929SOL    MW4 3764   2.416   4.264   4.250  0.0474 -0.4387  0.5617
  930SOL     OW 3765   1.881   4.462   2.426 -0.0472  0.3476 -0.2495
  930SOL    HW2 3766   1.942   4.390   2.411  1.0271  1.0744  0.5500
  930SOL    HW3 3767   1.887   4.480   2.520 -0.3150  1.4491 -0.4286
  930SOL    MW4 3768   1.890   4.455   2.437  0.0591  0.5889 -0.1676
  931SOL     OW 3769   0.966   0.753   3.747 -0.0327  0.2933 -0.2852
  931SOL    HW2 3770   0.884   0.793   3.718 -0.7551 -1.4132 -0.6263
  931SOL    HW3 3771   0.961   0.753   3.842  0.3542  1.7715 -0.2465
  931SOL    MW4 3772   0.954   0.758   3.756 -0.0770  0.2632 -0.3252
  932SOL     OW 3773   1.352   2.786   1.039 -0.2746 -0.2137 -0.6731
  932SOL    HW2 3774   1.370   2.871   0.999  2.0041 -0.3914 -0.0702
  932SOL    HW3 3775   1.383   2.794   1.129 -1.3318 -1.2466 -0.1875
  932SOL    MW4 3776   1.358   2.798   1.045 -0.1136 -0.3734 -0.5294
  933SOL     OW 3777   2.561   1.068   2.193 -0.3667 -0.1744 -0.1529
  933SOL    HW2 3778   2.605   1.088   2.276 -1.4696  1.7953 -0.0273
  933SOL    HW3 3779   2.631   1.031   2.138  1.0397  1.2283  0.6559
  933SOL    MW4 3780   2.576   1.065   2.197 -0.3266  0.2705 -0.0298
  934SOL     OW 3781   0.574   0.908   2.479 -0.1898 -0.4062  0.1322
  934SOL    HW2 3782   0.580   0.819   2.511  1.8256 -0.0024  0.9672
  934SOL    HW3 3783   0.628   0.909   2.400 -1.6393 -0.3461 -0.8722
  934SOL    MW4 3784   0.582   0.897   2.473 -0.1152 -0.3450  0.1097
  935SOL     OW 3785   4.176   1.751   1.819  0.2156  0.2916 -0.2149
  935SOL    HW2 3786   4.168   1.818   1.887 -1.2004  0.3068 -0.3842
  935SOL    HW3 3787   4.209   1.800   1.743  0.6730  0.4972  0.1106
  935SOL    MW4 3788   4.179   1.766   1.818  0.0892  0.3207 -0.1942
  936SOL     OW 3789   0.765   1.029   1.907 -0.2044 -0.2321  0.1689
  936SOL    HW2 3790   0.812   1.085   1.969 -0.8852  0.0012  0.4818
  936SOL    HW3 3791   0.831   0.968   1.874  0.2840  0.0087  0.6974
  936SOL    MW4 3792   0.780   1.029   1.911 -0.2297 -0.1696  0.2799
  937SOL     OW 3793   3.672   4.608   3.268 -0.0350  0.5673 -0.0186
  937SOL    HW2 3794   3.697   4.698   3.245  1.8100  0.2153  0.4792
  937SOL    HW3 3795   3.651   4.613   3.362 -0.5427  0.6044 -0.1357
  937SOL    MW4 3796   3.673   4.621   3.278  0.1414  0.5255  0.0315
  938SOL     OW 3797   1.947   2.644   3.783 -0.0147 -0.1097  0.0821
  938SOL    HW2 3798   1.936   2.585   3.708  0.1858 -0.1572  0.0901
  938SOL    HW3 3799   1.978   2.726   3.745 -0.5394  0.0685  0.0447
  938SOL    MW4 3800   1.950   2.647   3.768 -0.0573 -0.0923  0.0782
  939SOL     OW 3801   4.064   2.281   1.003 -0.2110  0.3850 -0.1416
  939SOL    HW2 3802   4.108   2.259   1.085  0.8497  1.6903 -0.3488
  939SOL    HW3 3803   3.988   2.222   1.000  1.2019 -1.5113  0.4670
  939SOL    MW4 3804   4.060   2.271   1.013  0.1159  0.3071 -0.0887
  940SOL     OW 3805   3.951   3.172   4.013 -0.4942 -1.0331  0.2158
  940SOL    HW2 3806   3.863   3.210   4.009  0.3535  1.0210  0.1168
  940SOL    HW3 3807   3.982   3.194   4.101  0.5647 -0.1768 -0.3558
  940SOL    MW4 3808   3.944   3.180   4.024 -0.2427 -0.6492  0.1273
  941SOL     OW 3809   1.211   1.538   1.506  0.2674 -0.4426 -0.3451
  941SOL    HW2 3810   1.219   1.633   1.495 -0.0477 -0.5114 -1.2636
  941SOL    HW3 3811   1.125   1.526   1.546  0.4339 -0.3223  0.0481
  941SOL    MW4 3812   1.200   1.549   1.510  0.2478 -0.4358 -0.4145
  942SOL     OW 3813   0.720   3.161   2.582  0.3579  0.4532  0.6827
  942SOL    HW2 3814   0.655   3.187   2.648  0.1799  0.0711  0.6632
  942SOL    HW3 3815   0.667   3.136   2.506  0.4923 -0.5893  0.9255
  942SOL    MW4 3816   0.704   3.161   2.581  0.3522  0.2651  0.7119
  943SOL     OW 3817   3.170   2.116   4.315  0.4149 -0.9310 -0.7256
  943SOL    HW2 3818   3.235   2.085   4.378 -1.4763 -2.1867  0.6853
  943SOL    HW3 3819   3.215   2.182   4.264  1.7521  0.8373  2.6002
  943SOL    MW4 3820   3.184   2.120   4.317  0.3421 -0.8636 -0.1006
  944SOL     OW 3821   4.488   0.026   3.432 -0.7698 -0.3238 -0.4434
  944SOL    HW2 3822   4.516   0.015   3.341 -0.0898 -0.8370 -0.1770
  944SOL    HW3 3823   4.461   0.118   3.438 -0.3392 -0.1550 -1.0335
  944SOL    MW4 3824   4.489   0.037   3.421 -0.6233 -0.3692 -0.4864
  945SOL     OW 3825   4.318   0.537   2.588  0.1100 -0.4968 -0.0102
  945SOL    HW2 3826   4.317   0.631   2.568 -0.2080 -0.2336  1.1652
  945SOL    HW3 3827   4.306   0.533   2.683  0.3175 -1.7261 -0.0263
  945SOL    MW4 3828   4.316   0.549   2.598  0.0949 -0.6243  0.1428
  946SOL     OW 3829   2.653   4.288   1.778 -0.6525 -0.0031  0.1537
  946SOL    HW2 3830   2.577   4.277   1.721 -1.7412  0.1890  1.5687
  946SOL    HW3 3831   2.654   4.209   1.832  0.1308  0.0181  0.1744
  946SOL    MW4 3832   2.643   4.276   1.778 -0.6926  0.0248  0.3431
  947SOL     OW 3833   0.441   2.927   2.643  0.1792  0.1894  0.0975
  947SOL    HW2 3834   0.348   2.914   2.625  0.3896 -0.6342 -0.4591
  947SOL    HW3 3835   0.459   3.017   2.617 -0.0245 -0.2843 -1.7696
  947SOL    MW4 3836   0.431   2.937   2.637  0.1801  0.0184 -0.2222
  948SOL     OW 3837   2.892   0.117   2.255 -0.1785 -0.1132  0.4478
  948SOL    HW2 3838   2.954   0.156   2.317  0.0869 -0.6966  0.5529
  948SOL    HW3 3839   2.839   0.191   2.225  0.5280  0.3826  0.3968
  948SOL    MW4 3840   2.893   0.132   2.259 -0.0503 -0.1248  0.4547
  949SOL     OW 3841   3.977   2.339   3.724 -0.0328  0.3044 -0.2219
  949SOL    HW2 3842   3.899   2.302   3.766  0.6588 -0.4937  0.3916
  949SOL    HW3 3843   3.990   2.423   3.768  0.0312 -0.0152  0.3759
  949SOL    MW4 3844   3.968   2.345   3.735  0.0670  0.1569 -0.0618
  950SOL     OW 3845   0.318   4.623   1.013  0.2345  0.4412 -0.3415
  950SOL    HW2 3846   0.339   4.535   1.042  0.5528  0.6467  0.0598
  950SOL    HW3 3847   0.297   4.613   0.920 -1.9403 -0.4004  0.2114
  950SOL    MW4 3848   0.318   4.610   1.004 -0.0104  0.3572 -0.2156
  951SOL     OW 3849   4.083   3.773   1.770  0.0610 -0.1748 -0.1373
  951SOL    HW2 3850   4.157   3.714   1.756  0.1422 -0.1257  0.0883
  951SOL    HW3 3851   4.123   3.853   1.805 -0.1421 -0.2738  0.3137
  951SOL    MW4 3852   4.098   3.776   1.773  0.0443 -0.1810 -0.0480
  952SOL     OW 3853   2.666   3.139   2.973  0.4049  0.4047  0.2243
  952SOL    HW2 3854   2.638   3.225   3.005  0.5692  0.1598  1.0481
  952SOL    HW3 3855   2.737   3.158   2.913 -1.4066  1.0370 -1.8081
  952SOL    MW4 3856   2.671   3.153   2.970  0.1876  0.4559  0.0648
  953SOL     OW 3857   3.490   1.619   3.284  0.0752  0.0328 -0.1517
  953SOL    HW2 3858   3.519   1.620   3.193  0.2834  0.2156 -0.0832
  953SOL    HW3 3859   3.562   1.578   3.332 -0.5837 -1.2815 -0.2543
  953SOL    MW4 3860   3.503   1.613   3.278  0.0160 -0.1165 -0.1562
  954SOL     OW 3861   0.056   1.429   4.112 -0.2257  0.1759  0.4803
  954SOL    HW2 3862   0.057   1.339   4.078 -0.4415  0.0519  0.8033
  954SOL    HW3 3863   0.022   1.482   4.040  2.0241  0.3305 -0.5253
  954SOL    MW4 3864   0.052   1.424   4.098  0.0427  0.1799  0.3905
  955SOL     OW 3865   0.790   2.679   4.449 -0.1678  0.1023 -0.0435
  955SOL    HW2 3866   0.787   2.772   4.471  0.5158 -0.0582  0.7423
  955SOL    HW3 3867   0.861   2.672   4.385 -0.6509  0.2143 -0.6008
  955SOL    MW4 3868   0.799   2.690   4.444 -0.1413  0.0958 -0.0134
  956SOL     OW 3869   4.174   2.323   0.748  0.1250 -0.1639  0.4739
  956SOL    HW2 3870   4.152   2.314   0.840 -0.0613  1.8565  0.6388
  956SOL    HW3 3871   4.184   2.417   0.734  1.9107 -0.5439 -1.1487
  956SOL    MW4 3872   4.173   2.334   0.758  0.3362  0.0527  0.2816
  957SOL     OW 3873   3.206   0.242   1.558  0.3034  0.2493 -0.1510
  957SOL    HW2 3874   3.218   0.154   1.594 -1.9542 -0.1075 -0.1951
  957SOL    HW3 3875   3.249   0.300   1.621  2.3243 -0.9156 -0.4202
  957SOL    MW4 3876   3.213   0.238   1.571  0.2723  0.0485 -0.1923
  958SOL     OW 3877   1.066   2.107   1.739 -0.0727 -0.6170 -0.1498
  958SOL    HW2 3878   1.131   2.176   1.753  0.2606 -0.9437 -0.0797
  958SOL    HW3 3879   1.012   2.109   1.818  0.0435 -0.5486 -0.0711
  958SOL    MW4 3880   1.068   2.116   1.751 -0.0134 -0.6511 -0.1301
  959SOL     OW 3881   2.134   4.448   1.141  0.4529 -0.3151  0.2714
  959SOL    HW2 3882   2.159   4.363   1.106 -2.5457 -1.2973  0.3090
  959SOL    HW3 3883   2.122   4.433   1.234  0.4533  0.2789  0.3695
  959SOL    MW4 3884   2.135   4.435   1.148  0.0572 -0.3662  0.2893
  960SOL     OW 3885   1.361   0.971   1.202 -0.4279 -0.4453  0.3203
  960SOL    HW2 3886   1.348   1.063   1.177 -0.3999 -0.4566  0.2634
  960SOL    HW3 3887   1.289   0.924   1.160 -0.0888 -0.5376 -0.1713
  960SOL    MW4 3888   1.350   0.977   1.193 -0.3796 -0.4590  0.2480
  961SOL     OW 3889   3.698   0.732   2.798  0.1981 -0.2858  0.6313
  961SOL    HW2 3890   3.680   0.693   2.712  1.0977  0.0916  0.2544
  961SOL    HW3 3891   3.794   0.731   2.804  0.1389 -0.3200  1.6409
  961SOL    MW4 3892   3.709   0.726   2.787  0.3092 -0.2406  0.7145
  962SOL     OW 3893   2.967   4.406   0.661 -0.4873  0.4801  0.3796
  962SOL    HW2 3894   2.901   4.341   0.638 -0.2807  0.5560 -0.4613
  962SOL    HW3 3895   3.035   4.357   0.707  1.3448 -0.5813 -3.3122
  962SOL    MW4 3896   2.967   4.391   0.664 -0.2182  0.3505 -0.2185
  963SOL     OW 3897   3.420   4.145   1.811 -0.6069  0.7071  0.1909
  963SOL    HW2 3898   3.377   4.079   1.757  0.8117 -1.0147  1.1157
  963SOL    HW3 3899   3.467   4.201   1.748 -0.5802 -0.0726 -0.4889
  963SOL    MW4 3900   3.420   4.144   1.796 -0.4163  0.3767  0.2232
  964SOL     OW 3901   3.964   0.005   3.857 -0.1334  0.2878  0.3663
  964SOL    HW2 3902   3.945   0.097   3.838  0.8285  0.7615  1.6547
  964SOL    HW3 3903   3.899  -0.043   3.806 -2.2819  1.7646  1.6219
  964SOL    MW4 3904   3.953   0.011   3.848 -0.2899  0.5445  0.7021
  965SOL     OW 3905   4.191   2.683   2.957 -0.7354 -0.4324  0.0553
  965SOL    HW2 3906   4.230   2.755   3.006 -1.4846 -0.8598  1.3264
  965SOL    HW3 3907   4.172   2.719   2.871  0.5960  0.3482  0.0856
  965SOL    MW4 3908   4.194   2.697   2.952 -0.6590 -0.3858  0.2265
  966SOL     OW 3909   4.059   1.252   2.180  0.4077 -0.1534 -0.4546
  966SOL    HW2 3910   4.138   1.202   2.160  1.5238  1.4194 -0.0956
  966SOL    HW3 3911   4.051   1.314   2.107  1.5452  2.0821  1.2417
  966SOL    MW4 3912   4.068   1.254   2.168  0.7052  0.3490 -0.1836
  967SOL     OW 3913   3.901   0.730   2.013 -0.0492  0.5849  0.1524
  967SOL    HW2 3914   3.869   0.803   2.067 -1.0115  1.0961 -1.0866
  967SOL    HW3 3915   3.824   0.675   2.000  0.5855 -0.4515  0.7295
  967SOL    MW4 3916   3.887   0.732   2.019 -0.0923  0.5156  0.0648
  968SOL     OW 3917   1.835   4.601   3.145 -0.5200 -0.0827  0.1361
  968SOL    HW2 3918   1.841   4.596   3.241 -0.0018 -1.3013  0.0469
  968SOL    HW3 3919   1.779   4.527   3.121 -0.5507  0.1521 -0.5219
  968SOL    MW4 3920   1.828   4.590   3.155 -0.4556 -0.2127  0.0374
  969SOL     OW 3921   3.894   3.901   2.140 -0.3200  0.6200 -1.0071
  969SOL    HW2 3922   3.834   3.919   2.068  0.8922  1.3902 -1.8331
  969SOL    HW3 3923   3.921   3.987   2.171  0.6247  0.2793 -0.8642
  969SOL    MW4 3924   3.889   3.915   2.135 -0.0358  0.6766 -1.0974
  970SOL     OW 3925   0.900   1.615   4.110  0.2352 -0.1850 -0.3089
  970SOL    HW2 3926   0.853   1.582   4.033  0.8600  0.5282 -0.9979
  970SOL    HW3 3927   0.968   1.672   4.074  0.2014  0.5581  0.7984
  970SOL    MW4 3928   0.903   1.618   4.095  0.3132  0.0072 -0.2537
  971SOL     OW 3929   4.363   1.394   1.216  0.0636  0.2889  0.4484
  971SOL    HW2 3930   4.430   1.326   1.217 -0.5592 -0.3513 -0.5508
  971SOL    HW3 3931   4.285   1.351   1.251  0.1654  1.0460  1.6548
  971SOL    MW4 3932   4.362   1.379   1.221 -0.0052  0.3042  0.4758
  972SOL     OW 3933   1.096   0.722   2.733  0.0035 -0.2367 -0.2016
  972SOL    HW2 3934   1.082   0.650   2.670 -0.0938  0.9065 -1.5039
  972SOL    HW3 3935   1.042   0.698   2.808 -0.7712 -1.0720 -1.0053
  972SOL    MW4 3936   1.087   0.709   2.735 -0.1116 -0.1961 -0.4792
  973SOL     OW 3937   1.555   0.125   2.413 -0.3348  0.4749  0.0834
  973SOL    HW2 3938   1.470   0.165   2.393 -0.6917  0.0394  0.6825
  973SOL    HW3 3939   1.540   0.031   2.401  0.0244  0.3854  0.3172
  973SOL    MW4 3940   1.542   0.118   2.409 -0.3346  0.4056  0.1934
  974SOL     OW 3941   2.661   0.226   1.380  0.1685 -0.0135  0.1473
  974SOL    HW2 3942   2.727   0.241   1.312  0.7781 -0.7872  0.5525
  974SOL    HW3 3943   2.648   0.312   1.421  2.5382 -0.2736  1.5020
  974SOL    MW4 3944   2.668   0.239   1.376  0.5615 -0.1499  0.3794
  975SOL     OW 3945   1.651   2.055   0.974  0.4076 -0.6257 -0.1705
  975SOL    HW2 3946   1.644   1.997   1.050 -0.6377 -1.1905 -0.6942
  975SOL    HW3 3947   1.628   2.141   1.006  1.2521 -0.6254  0.4488
  975SOL    MW4 3948   1.647   2.058   0.988  0.3811 -0.7002 -0.1579
  976SOL     OW 3949   4.045   3.335   2.546  0.6877 -0.1288  0.4782
  976SOL    HW2 3950   4.037   3.333   2.450  1.6404 -1.0971  0.4011
  976SOL    HW3 3951   4.055   3.427   2.567  1.7903 -0.0099 -0.4917
  976SOL    MW4 3952   4.046   3.347   2.536  0.9589 -0.2410  0.3400
  977SOL     OW 3953   1.642   4.227   0.714 -0.1637  0.3334  0.0162
  977SOL    HW2 3954   1.562   4.238   0.765 -1.6999  0.7175 -2.3700
  977SOL    HW3 3955   1.658   4.133   0.714 -2.1125 -0.0408 -1.6198
  977SOL    MW4 3956   1.633   4.216   0.721 -0.6235  0.3347 -0.5145
  978SOL     OW 3957   4.473   2.541   0.802  0.1026 -0.2645  0.0386
  978SOL    HW2 3958   4.512   2.537   0.715 -1.2818 -2.4190 -0.5561
  978SOL    HW3 3959   4.386   2.579   0.788  0.3923  0.6626  0.7022
  978SOL    MW4 3960   4.467   2.545   0.789 -0.0420 -0.4263  0.0476
  979SOL     OW 3961   3.141   0.015   3.876 -0.1714 -0.1522 -0.0735
  979SOL    HW2 3962   3.110   0.096   3.917  0.2038 -0.5715  1.0790
  979SOL    HW3 3963   3.230   0.003   3.912 -0.7298 -1.7630  0.8135
  979SOL    MW4 3964   3.149   0.024   3.886 -0.1955 -0.4201  0.1955
  980SOL     OW 3965   0.208   4.640   2.463 -0.5948  0.8332  0.0491
  980SOL    HW2 3966   0.144   4.610   2.400 -0.2406  1.8545 -0.7992
  980SOL    HW3 3967   0.278   4.575   2.459 -1.1671  0.1842  0.3667
  980SOL    MW4 3968   0.209   4.628   2.454 -0.6236  0.8821 -0.0210
  981SOL     OW 3969   3.307   3.879   0.823  0.3913  0.2179 -0.4991
  981SOL    HW2 3970   3.370   3.831   0.769 -1.6561 -1.2402 -1.6674
  981SOL    HW3 3971   3.272   3.946   0.764  1.4562  1.5902  0.4034
  981SOL    MW4 3972   3.311   3.882   0.808  0.2618  0.2065 -0.5342
  982SOL     OW 3973   2.244   0.674   3.241  0.1237 -0.4021 -0.3170
  982SOL    HW2 3974   2.241   0.764   3.274  0.1367 -0.3549 -0.4438
  982SOL    HW3 3975   2.331   0.666   3.203  0.3619 -0.6819  0.2982
  982SOL    MW4 3976   2.255   0.685   3.240  0.1569 -0.4327 -0.2522
  983SOL     OW 3977   2.373   0.627   3.620 -0.0662 -0.5319 -0.1694
  983SOL    HW2 3978   2.324   0.566   3.565  0.2779 -0.2633 -0.7765
  983SOL    HW3 3979   2.326   0.710   3.612 -0.3864 -0.6532  0.4522
  983SOL    MW4 3980   2.361   0.630   3.611 -0.0629 -0.5124 -0.1676
  984SOL     OW 3981   2.213   1.296   2.215 -0.4197  0.0594 -0.0903
  984SOL    HW2 3982   2.237   1.306   2.307  3.1509 -1.7316 -0.7450
  984SOL    HW3 3983   2.186   1.204   2.208 -0.6882  0.1958 -0.8547
  984SOL    MW4 3984   2.213   1.285   2.226  0.0160 -0.1590 -0.2775
  985SOL     OW 3985   0.056   4.189   1.417 -0.3055  0.3445 -0.1049
  985SOL    HW2 3986   0.087   4.218   1.503 -0.0450  0.1085 -0.1171
  985SOL    HW3 3987  -0.029   4.231   1.407 -1.9806 -2.3889  1.8140
  985SOL    MW4 3988   0.049   4.198   1.427 -0.4922 -0.0477  0.1466
  986SOL     OW 3989   2.999   2.096   3.431  0.4012  0.5496 -0.0821
  986SOL    HW2 3990   3.091   2.118   3.418  0.5692 -0.5394 -0.8275
  986SOL    HW3 3991   2.977   2.040   3.356 -0.7203  0.3607  0.3752
  986SOL    MW4 3992   3.008   2.091   3.419  0.2754  0.3812 -0.1202
  987SOL     OW 3993   4.154   2.525   3.378 -0.0911 -0.3951  0.0646
  987SOL    HW2 3994   4.083   2.586   3.398 -0.1530 -0.5850  0.4322
  987SOL    HW3 3995   4.209   2.526   3.457  0.1521 -0.4729 -0.1044
  987SOL    MW4 3996   4.152   2.533   3.391 -0.0672 -0.4303  0.0908
  988SOL     OW 3997   1.548   3.858   1.684  0.3968 -0.5544  0.7102
  988SOL    HW2 3998   1.546   3.951   1.708 -2.3516 -0.8759  2.0050
  988SOL    HW3 3999   1.573   3.813   1.765  1.5432 -0.9589  0.1346
  988SOL    MW4 4000   1.551   3.865   1.698  0.1855 -0.6504  0.8050
  989SOL     OW 4001   3.943   0.349   1.595 -0.5658 -0.1801  0.0338
  989SOL    HW2 4002   3.965   0.271   1.646 -0.7192  0.0344  0.4306
  989SOL    HW3 4003   4.003   0.416   1.629  0.0010 -0.2872 -0.7426
  989SOL    MW4 4004   3.954   0.347   1.606 -0.5112 -0.1659 -0.0162
  990SOL     OW 4005   3.453   0.065   3.847  0.2060  0.3952  0.3751
  990SOL    HW2 4006   3.543   0.070   3.816  0.4383  0.8626  1.1144
  990SOL    HW3 4007   3.400   0.092   3.772  0.5387 -1.8934 -0.7343
  990SOL    MW4 4008   3.458   0.069   3.833  0.2806  0.1549  0.3264
  991SOL     OW 4009   1.172   4.180   2.429  0.1813  0.0654 -0.3869
  991SOL    HW2 4010   1.235   4.109   2.442  0.0285 -0.3213 -1.6981
  991SOL    HW3 4011   1.122   4.182   2.511  0.4517 -1.0725 -0.1794
  991SOL    MW4 4012   1.174   4.171   2.442  0.1968 -0.1359 -0.5324
  992SOL     OW 4013   0.222   0.677   2.486  0.1688 -0.1134 -0.1406
  992SOL    HW2 4014   0.161   0.604   2.491  0.4564 -0.3528 -0.1254
  992SOL    HW3 4015   0.208   0.726   2.567 -0.0151 -0.1575 -0.1458
  992SOL    MW4 4016   0.212   0.674   2.497  0.1824 -0.1509 -0.1392
  993SOL     OW 4017   1.079   4.093   2.810  0.1589 -0.1071 -0.3836
  993SOL    HW2 4018   1.034   4.125   2.888  0.2066 -0.9709  0.0069
  993SOL    HW3 4019   1.009   4.057   2.755  0.3328 -1.2558  0.1288
  993SOL    MW4 4020   1.063   4.092   2.813  0.1881 -0.3724 -0.2644
  994SOL     OW 4021   0.273   3.958   3.238 -0.0584  0.0329  0.2361
  994SOL    HW2 4022   0.291   3.899   3.166  0.2689 -0.6152  0.8427
  994SOL    HW3 4023   0.255   3.901   3.313 -3.1859  0.6760  0.0143
  994SOL    MW4 4024   0.273   3.943   3.238 -0.4278  0.0324  0.2871
  995SOL     OW 4025   3.267   2.230   3.386  0.5353 -0.0768  0.6008
  995SOL    HW2 4026   3.324   2.272   3.450 -0.2613 -0.0582  1.2947
  995SOL    HW3 4027   3.324   2.216   3.310  1.1701  0.9704  0.8699
  995SOL    MW4 4028   3.282   2.233   3.384  0.5140  0.0639  0.7277
  996SOL     OW 4029   3.290   2.416   0.896 -0.2651  0.4605  0.6109
  996SOL    HW2 4030   3.379   2.384   0.909 -0.6799 -1.0932 -0.2195
  996SOL    HW3 4031   3.300   2.510   0.882  1.1167  0.5032  1.7562
  996SOL    MW4 4032   3.303   2.424   0.896 -0.1373  0.2611  0.6525
  997SOL     OW 4033   0.660   4.411   1.241  0.1848  0.4255  0.0868
  997SOL    HW2 4034   0.738   4.400   1.186  0.4174  0.0010  0.5009
  997SOL    HW3 4035   0.674   4.352   1.315 -1.4158 -1.1346 -0.8173
  997SOL    MW4 4036   0.672   4.402   1.243  0.0044  0.1640  0.0221
  998SOL     OW 4037   0.433   4.343   3.117  0.2715 -0.7765 -0.0556
  998SOL    HW2 4038   0.447   4.282   3.189 -0.3189 -2.3058 -1.2121
  998SOL    HW3 4039   0.407   4.425   3.159  0.4830 -1.4882  1.4799
  998SOL    MW4 4040   0.431   4.346   3.132  0.2215 -1.0719 -0.0057
  999SOL     OW 4041   1.610   1.548   2.938 -0.2707  0.2871 -0.7865
  999SOL    HW2 4042   1.697   1.544   2.899  0.0738  2.1717 -0.2579
  999SOL    HW3 4043   1.592   1.642   2.949 -1.3333 -0.1156  1.3727
  999SOL    MW4 4044   1.619   1.560   2.935 -0.3655  0.4826 -0.4320
 1000SOL     OW 4045   0.092   4.360   3.488 -0.2361 -0.7716 -0.3278
 1000SOL    HW2 4046   0.041   4.351   3.408  1.1507 -0.6867 -1.2226
 1000SOL    HW3 4047   0.096   4.271   3.524  0.0193 -0.9932 -0.8993
 1000SOL    MW4 4048   0.086   4.347   3.482 -0.0194 -0.7896 -0.5212
 1001SOL     OW 4049   2.770   0.982   1.360 -0.1651  0.0892  0.2286
 1001SOL    HW2 4050   2.851   1.021   1.394  1.0991 -2.0026 -0.3112
 1001SOL    HW3 4051   2.746   1.038   1.287  0.3416  1.2101  0.9009
 1001SOL    MW4 4052   2.778   0.995   1.355  0.0687 -0.0389  0.2463
 1002SOL     OW 4053   0.110   3.754   1.261 -0.0239 -0.0287 -0.0524
 1002SOL    HW2 4054   0.016   3.737   1.273  0.1803 -3.3779 -2.3273
 1002SOL    HW3 4055   0.113   3.834   1.208 -1.6638 -0.1972 -0.4320
 1002SOL    MW4 4056   0.098   3.762   1.255 -0.2134 -0.4928 -0.4026
 1003SOL     OW 4057   3.387   3.353   1.154 -0.1086  0.1843  0.4449
 1003SOL    HW2 4058   3.467   3.404   1.143 -0.4221  0.5996  0.0454
 1003SOL    HW3 4059   3.407   3.268   1.114  0.0141  0.4101  0.0229
 1003SOL    MW4 4060   3.400   3.348   1.147 -0.1335  0.2689  0.3364
 1004SOL     OW 4061   1.427   2.351   3.845 -0.4838  0.0580 -0.3171
 1004SOL    HW2 4062   1.434   2.301   3.927  0.3800  1.4851  0.5153
 1004SOL    HW3 4063   1.511   2.338   3.802 -1.1509 -1.1526 -1.2571
 1004SOL    MW4 4064   1.439   2.343   3.850 -0.4580  0.0865 -0.3314
 1005SOL     OW 4065   4.117   3.376   3.932  0.5863  0.6352 -0.5309
 1005SOL    HW2 4066   4.047   3.318   3.964  2.1768 -0.1994  1.4900
 1005SOL    HW3 4067   4.072   3.459   3.914 -0.7869  0.3685  1.5371
 1005SOL    MW4 4068   4.102   3.380   3.934  0.6146  0.4897  0.0088
 1006SOL     OW 4069   1.292   0.250   2.391  0.7764  0.3700 -0.0434
 1006SOL    HW2 4070   1.275   0.184   2.459  0.2328  0.3202 -0.2231
 1006SOL    HW3 4071   1.243   0.218   2.314  0.2711  1.1367 -0.0453
 1006SOL    MW4 4072   1.283   0.237   2.390  0.6380  0.4646 -0.0675
 1007SOL     OW 4073   2.880   0.287   1.216 -0.2725 -0.7638  0.2220
 1007SOL    HW2 4074   2.863   0.355   1.151 -0.7377 -1.7478 -0.6950
 1007SOL    HW3 4075   2.943   0.327   1.276  2.0997 -0.6723 -2.2006
 1007SOL    MW4 4076   2.886   0.301   1.215 -0.0210 -0.8815 -0.2186
 1008SOL     OW 4077   3.844   4.101   1.621 -0.0905  0.1397  0.4926
 1008SOL    HW2 4078   3.849   4.022   1.567  0.1342  0.5490 -0.0991
 1008SOL    HW3 4079   3.861   4.173   1.559 -0.2503  0.6437  1.0310
 1008SOL    MW4 4080   3.847   4.100   1.606 -0.0818  0.2604  0.4855
 1009SOL     OW 4081   2.443   3.585   4.614 -0.1724  0.1739  0.5680
 1009SOL    HW2 4082   2.418   3.677   4.603  1.1106  0.3743 -0.7991
 1009SOL    HW3 4083   2.385   3.552   4.683 -2.1579  1.4040 -0.4861
 1009SOL    MW4 4084   2.432   3.593   4.622 -0.2649  0.3629  0.2484
 1010SOL     OW 4085   0.816   3.409   2.467 -0.3872  0.3630 -0.1543
 1010SOL    HW2 4086   0.868   3.331   2.447  0.1882  0.3707  1.2911
 1010SOL    HW3 4087   0.874   3.482   2.447 -0.6622  0.4105 -0.7821
 1010SOL    MW4 4088   0.831   3.408   2.462 -0.3476  0.3700 -0.0465
 1011SOL     OW 4089   3.659   1.639   4.037 -0.4131  0.4240  0.0120
 1011SOL    HW2 4090   3.710   1.696   4.094 -0.6739  0.5479  0.1207
 1011SOL    HW3 4091   3.573   1.682   4.030 -0.4006  0.3854 -0.4261
 1011SOL    MW4 4092   3.654   1.652   4.043 -0.4458  0.4354 -0.0319
 1012SOL     OW 4093   0.544   1.572   3.723 -0.7446 -0.1711 -0.1794
 1012SOL    HW2 4094   0.451   1.553   3.712 -0.2036 -2.2804 -1.5721
 1012SOL    HW3 4095   0.588   1.506   3.668  1.6031 -0.0666  1.5156
 1012SOL    MW4 4096   0.537   1.560   3.714 -0.3633 -0.4356 -0.1395
 1013SOL     OW 4097   0.912   4.160   3.024 -0.0381 -0.0751 -0.2369
 1013SOL    HW2 4098   0.967   4.209   3.085 -0.0952 -0.4637  0.1316
 1013SOL    HW3 4099   0.872   4.092   3.078 -0.8483  0.1804 -0.5112
 1013SOL    MW4 4100   0.914   4.158   3.039 -0.1526 -0.0925 -0.2246
 1014SOL     OW 4101   3.620   0.022   0.544  0.0497 -0.2793 -0.3001
 1014SOL    HW2 4102   3.702   0.007   0.497  1.5594 -0.1582  2.1862
 1014SOL    HW3 4103   3.605   0.116   0.536  0.0248 -0.3454 -0.9953
 1014SOL    MW4 4104   3.629   0.033   0.537  0.2458 -0.2720 -0.0638
 1015SOL     OW 4105   0.184   1.587   0.703  0.5405 -0.2773  0.6630
 1015SOL    HW2 4106   0.256   1.631   0.657  0.8629 -0.8435  0.6234
 1015SOL    HW3 4107   0.136   1.658   0.746  0.9466  0.1326  0.4431
 1015SOL    MW4 4108   0.187   1.602   0.702  0.6367 -0.2978  0.6288
 1016SOL     OW 4109   0.364   3.689   0.931  0.3259 -0.2488 -0.0858
 1016SOL    HW2 4110   0.276   3.653   0.928  0.2869 -0.1295 -0.3504
 1016SOL    HW3 4111   0.420   3.619   0.896  0.3585 -0.3947  0.2583
 1016SOL    MW4 4112   0.360   3.675   0.926  0.3251 -0.2522 -0.0753
 1017SOL     OW 4113   2.913   2.264   3.646  0.0851 -0.8430 -0.2924
 1017SOL    HW2 4114   2.901   2.337   3.585 -0.5938 -1.4164 -0.8661
 1017SOL    HW3 4115   2.937   2.190   3.590 -0.4009 -1.3380  0.1468
 1017SOL    MW4 4116   2.914   2.264   3.630 -0.0684 -0.9840 -0.3102
 1018SOL     OW 4117   0.283   1.525   2.327  0.4294 -0.6419 -0.5009
 1018SOL    HW2 4118   0.327   1.548   2.408 -0.3978 -0.5186 -0.0819
 1018SOL    HW3 4119   0.300   1.432   2.315  0.3776 -0.7050 -0.0791
 1018SOL    MW4 4120   0.291   1.516   2.336  0.3134 -0.6341 -0.3898
 1019SOL     OW 4121   0.909   0.547   4.655  0.1108  0.1839  0.1969
 1019SOL    HW2 4122   0.944   0.575   4.570 -1.1623  0.5012 -0.2339
 1019SOL    HW3 4123   0.960   0.597   4.719 -0.0779  1.2200 -0.4517
 1019SOL    MW4 4124   0.921   0.557   4.652 -0.0821  0.3625  0.0544
 1020SOL     OW 4125   3.758   3.277   2.423 -0.0832 -0.4923 -0.0921
 1020SOL    HW2 4126   3.765   3.296   2.517  1.5173  1.1554 -0.5142
 1020SOL    HW3 4127   3.834   3.221   2.405  1.3613  1.6749 -0.9571
 1020SOL    MW4 4128   3.769   3.272   2.433  0.3185  0.0107 -0.2620
 1021SOL     OW 4129   2.472   2.974   4.440 -0.0296 -0.1529  0.1473
 1021SOL    HW2 4130   2.566   2.982   4.455 -0.1819 -0.4462  1.3308
 1021SOL    HW3 4131   2.432   3.006   4.521 -0.9418 -0.1375 -0.3059
 1021SOL    MW4 4132   2.479   2.979   4.453 -0.1700 -0.1895  0.2437
 1022SOL     OW 4133   3.696   2.161   1.545 -0.0145  0.6557 -0.0231
 1022SOL    HW2 4134   3.650   2.077   1.544  0.2162  0.5361 -0.6293
 1022SOL    HW3 4135   3.777   2.145   1.593  0.9636  0.0324 -1.8335
 1022SOL    MW4 4136   3.700   2.148   1.551  0.1447  0.5579 -0.3420
 1023SOL     OW 4137   0.713   1.824   2.890 -0.1406  0.4740 -0.3493
 1023SOL    HW2 4138   0.741   1.915   2.890 -0.0024  0.4317 -0.4063
 1023SOL    HW3 4139   0.790   1.775   2.917  0.1609  0.2567 -1.5652
 1023SOL    MW4 4140   0.727   1.829   2.894 -0.0826  0.4398 -0.5176
 1024SOL     OW 4141   1.748   4.007   2.258 -0.1424  0.2797  0.7603
 1024SOL    HW2 4142   1.714   3.918   2.258  0.7674 -0.0886  1.9290
 1024SOL    HW3 4143   1.760   4.028   2.351  2.7395  0.4016  0.4069
 1024SOL    MW4 4144   1.745   3.998   2.271  0.3580  0.2475  0.8678
 1025SOL     OW 4145   3.495   3.771   1.173 -0.3523  0.4808 -0.2177
 1025SOL    HW2 4146   3.408   3.768   1.134  0.4127 -0.0642 -1.9406
 1025SOL    HW3 4147   3.554   3.782   1.099  1.1757 -0.9804  0.7390
 1025SOL    MW4 4148   3.491   3.772   1.158 -0.0498  0.2160 -0.3188
 1026SOL     OW 4149   2.170   4.125   1.198 -0.7691 -0.1540 -0.2804
 1026SOL    HW2 4150   2.156   4.048   1.253 -3.1059  0.8977  0.7076
 1026SOL    HW3 4151   2.202   4.090   1.115  1.8116 -1.8589  1.3810
 1026SOL    MW4 4152   2.172   4.110   1.194 -0.7367 -0.2398  0.0691
 1027SOL     OW 4153   4.165   1.089   4.190 -0.0286  0.0814 -0.1188
 1027SOL    HW2 4154   4.070   1.081   4.200  0.1800 -1.7267  0.5653
 1027SOL    HW3 4155   4.191   1.153   4.257 -0.4716 -1.1827  1.2664
 1027SOL    MW4 4156   4.156   1.097   4.200 -0.0591 -0.3240  0.1540
 1028SOL     OW 4157   0.506   3.144   3.980 -0.8288 -0.8495 -0.6572
 1028SOL    HW2 4158   0.474   3.056   3.960 -1.5435 -0.5946 -0.6366
 1028SOL    HW3 4159   0.427   3.194   4.000 -0.7828  0.7134 -4.0848
 1028SOL    MW4 4160   0.491   3.139   3.980 -0.9170 -0.6096 -1.1065
 1029SOL     OW 4161   0.240   3.768   3.036  0.1317 -0.0296  0.6416
 1029SOL    HW2 4162   0.209   3.769   2.946  1.1714 -0.3185  0.2759
 1029SOL    HW3 4163   0.204   3.688   3.073 -0.9145  0.4668  0.7064
 1029SOL    MW4 4164   0.232   3.758   3.029  0.1308 -0.0024  0.6015
 1030SOL     OW 4165   2.385   2.464   2.616  0.0443  0.4359  0.1943
 1030SOL    HW2 4166   2.459   2.419   2.575 -0.6526 -0.9132  0.3665
 1030SOL    HW3 4167   2.375   2.545   2.566  0.4127 -0.2827 -1.0820
 1030SOL    MW4 4168   2.393   2.468   2.604  0.0012  0.1631  0.0486
 1031SOL     OW 4169   2.343   4.147   2.285  0.3205  0.4656 -0.1953
 1031SOL    HW2 4170   2.311   4.135   2.196  1.7490  0.9940 -0.7966
 1031SOL    HW3 4171   2.360   4.058   2.317  1.1390  0.3327 -0.9692
 1031SOL    MW4 4172   2.341   4.134   2.277  0.6170  0.5174 -0.3767
 1032SOL     OW 4173   4.036   4.566   2.273 -0.0529 -0.8489  0.0504
 1032SOL    HW2 4174   3.948   4.592   2.300 -1.0058 -2.3122 -1.5817
 1032SOL    HW3 4175   4.040   4.586   2.180  0.6302 -2.6845 -0.3313
 1032SOL    MW4 4176   4.025   4.572   2.265 -0.0887 -1.2846 -0.2153
 1033SOL     OW 4177   0.184   0.245   2.842  0.1775  0.1429  0.0121
 1033SOL    HW2 4178   0.091   0.249   2.822  0.1640 -1.1128 -0.2337
 1033SOL    HW3 4179   0.225   0.218   2.760  0.9613  2.4017 -0.3669
 1033SOL    MW4 4180   0.177   0.242   2.829  0.2791  0.2752 -0.0706
 1034SOL     OW 4181   4.448   2.910   3.043 -0.2134 -0.0468  0.0266
 1034SOL    HW2 4182   4.365   2.954   3.029  0.2265  1.1348  1.0640
 1034SOL    HW3 4183   4.509   2.980   3.066  0.6676 -1.1004  0.9676
 1034SOL    MW4 4184   4.445   2.925   3.044 -0.0391 -0.0298  0.2875
 1035SOL     OW 4185   3.648   3.449   1.690  0.2867  0.3349  0.1871
 1035SOL    HW2 4186   3.732   3.460   1.644  0.5761 -1.3189  0.2709
 1035SOL    HW3 4187   3.670   3.462   1.783  0.3239  0.6019  0.1388
 1035SOL    MW4 4188   3.662   3.452   1.697  0.3295  0.1519  0.1918
 1036SOL     OW 4189   4.302   4.212   3.463  0.3349  0.0768  0.5081
 1036SOL    HW2 4190   4.278   4.206   3.371  1.2406  1.3195  0.1926
 1036SOL    HW3 4191   4.306   4.306   3.482  1.4825 -0.1448  1.4584
 1036SOL    MW4 4192   4.299   4.223   3.453  0.6061  0.2112  0.5918
 1037SOL     OW 4193   3.398   1.371   3.031  0.2889  0.2217 -0.7197
 1037SOL    HW2 4194   3.473   1.331   2.987  0.8345  0.1154  0.3068
 1037SOL    HW3 4195   3.325   1.355   2.972  0.9829 -0.0814 -1.5094
 1037SOL    MW4 4196   3.398   1.364   3.017  0.4523  0.1677 -0.6883
 1038SOL     OW 4197   1.903   1.895   1.505  0.1058  0.0475 -0.2324
 1038SOL    HW2 4198   1.900   1.918   1.412 -1.3171 -1.4500 -0.5928
 1038SOL    HW3 4199   1.817   1.855   1.522  0.5884 -0.2633  1.5697
 1038SOL    MW4 4200   1.891   1.893   1.495 -0.0182 -0.1912 -0.0421
 1039SOL     OW 4201   2.875   3.044   3.534  0.1607  0.1099 -0.0192
 1039SOL    HW2 4202   2.862   2.955   3.501 -1.6876 -0.5834  2.4801
 1039SOL    HW3 4203   2.802   3.095   3.498  0.6338  0.4088 -0.5825
 1039SOL    MW4 4204   2.864   3.039   3.525 -0.0207  0.0579  0.2363
 1040SOL     OW 4205   1.278   0.332   1.407  0.1724 -0.0671 -0.1347
 1040SOL    HW2 4206   1.343   0.395   1.437 -0.4711  1.2237 -1.3727
 1040SOL    HW3 4207   1.304   0.249   1.447  1.7046  0.7432  0.5846
 1040SOL    MW4 4208   1.290   0.329   1.416  0.2897  0.2101 -0.2030
 1041SOL     OW 4209   3.069   0.719   4.428  0.0291 -0.3945 -0.2374
 1041SOL    HW2 4210   3.092   0.637   4.471  0.3624 -1.6497 -2.6755
 1041SOL    HW3 4211   3.099   0.707   4.338 -0.6709  2.0971 -0.8307
 1041SOL    MW4 4212   3.076   0.706   4.422 -0.0193 -0.2313 -0.6375
 1042SOL     OW 4213   1.464   4.151   1.367  0.1886  0.0306 -0.0349
 1042SOL    HW2 4214   1.432   4.179   1.281 -1.7233 -1.1997  0.2252
 1042SOL    HW3 4215   1.530   4.085   1.347 -0.9322 -0.9609 -0.5899
 1042SOL    MW4 4216   1.468   4.146   1.353 -0.2116 -0.2623 -0.0738
 1043SOL     OW 4217   0.695   2.161   4.261  0.1297  0.3455 -0.5723
 1043SOL    HW2 4218   0.734   2.142   4.175 -0.2399 -1.4753 -0.3582
 1043SOL    HW3 4219   0.769   2.156   4.322 -0.0091 -0.6807 -0.4846
 1043SOL    MW4 4220   0.710   2.158   4.257  0.0626 -0.0300 -0.5322
 1044SOL     OW 4221   0.139   4.262   1.151  0.5755 -0.3881 -0.5117
 1044SOL    HW2 4222   0.220   4.313   1.148  0.6164 -0.2700  1.7979
 1044SOL    HW3 4223   0.121   4.250   1.244 -2.0281 -0.4960 -0.9839
 1044SOL    MW4 4224   0.147   4.267   1.163  0.2374 -0.3872 -0.2693
 1045SOL     OW 4225   0.415   4.413   3.809 -0.4671  0.2271  0.8568
 1045SOL    HW2 4226   0.374   4.474   3.870  1.4582  1.6718  0.7562
 1045SOL    HW3 4227   0.413   4.457   3.724  0.8380  0.1222  0.7576
 1045SOL    MW4 4228   0.409   4.427   3.806 -0.0409  0.4039  0.8304
 1046SOL     OW 4229   1.475   0.863   0.906 -0.2088  0.0767  0.2464
 1046SOL    HW2 4230   1.488   0.795   0.840 -0.1983 -1.3196  1.6718
 1046SOL    HW3 4231   1.393   0.840   0.949  0.8006 -0.1712  2.0742
 1046SOL    MW4 4232   1.466   0.851   0.903 -0.0744 -0.1403  0.6756
 1047SOL     OW 4233   0.631   3.175   4.388  0.2973 -0.0825  0.0002
 1047SOL    HW2 4234   0.711   3.223   4.369  0.9020 -1.2730 -0.4549
 1047SOL    HW3 4235   0.660   3.088   4.415 -0.7592 -0.0098  1.4824
 1047SOL    MW4 4236   0.645   3.170   4.389  0.2377 -0.2301  0.1354
 1048SOL     OW 4237   1.044   2.477   4.401 -0.2296  0.0418 -0.0228
 1048SOL    HW2 4238   1.013   2.488   4.491  1.2951 -0.4312  0.5700
 1048SOL    HW3 4239   1.137   2.455   4.409 -0.2917 -0.9510 -1.6745
 1048SOL    MW4 4240   1.052   2.476   4.414 -0.0366 -0.1516 -0.1626
 1049SOL     OW 4241   1.916   1.269   2.188 -0.0118 -0.2390 -0.2367
 1049SOL    HW2 4242   1.854   1.329   2.229  0.0494 -1.0720  1.0936
 1049SOL    HW3 4243   2.000   1.289   2.230  0.1689 -0.6777 -0.3891
 1049SOL    MW4 4244   1.919   1.280   2.199  0.0201 -0.4069 -0.0815
 1050SOL     OW 4245   1.948   1.602   2.101  0.1328  0.3642  0.1053
 1050SOL    HW2 4246   1.959   1.672   2.166 -0.1745 -0.9262  1.5826
 1050SOL    HW3 4247   1.869   1.556   2.129  0.7808 -1.0622 -0.3673
 1050SOL    MW4 4248   1.939   1.605   2.114  0.1777  0.0058  0.2377
 1051SOL     OW 4249   3.445   4.490   0.854 -0.5112 -0.0757 -0.2158
 1051SOL    HW2 4250   3.506   4.475   0.926  0.2617 -1.1834 -1.0773
 1051SOL    HW3 4251   3.358   4.478   0.893 -0.1756  1.1242  0.9295
 1051SOL    MW4 4252   3.442   4.486   0.869 -0.3648 -0.0634 -0.1783
 1052SOL     OW 4253   2.010   2.768   2.783 -0.0968 -0.4081  0.1351
 1052SOL    HW2 4254   1.957   2.741   2.708  1.0562  0.3753 -0.9777
 1052SOL    HW3 4255   2.066   2.838   2.749  3.4185 -2.8723  0.5923
 1052SOL    MW4 4256   2.010   2.773   2.768  0.5193 -0.6297  0.0484
 1053SOL     OW 4257   4.294   4.171   0.651 -0.4905 -0.1939 -0.3467
 1053SOL    HW2 4258   4.223   4.112   0.627 -0.8371 -0.0854  0.4100
 1053SOL    HW3 4259   4.356   4.115   0.698 -0.0842 -0.2789 -0.9657
 1053SOL    MW4 4260   4.293   4.156   0.654 -0.4821 -0.1907 -0.3285
 1054SOL     OW 4261   0.502   0.432   1.533 -0.4382  0.1786  0.2406
 1054SOL    HW2 4262   0.451   0.384   1.467  0.1772  1.2054 -1.0114
 1054SOL    HW3 4263   0.553   0.364   1.577  0.3076 -0.3545 -1.4054
 1054SOL    MW4 4264   0.502   0.416   1.530 -0.2586  0.2437 -0.1417
 1055SOL     OW 4265   2.174   0.146   1.383  0.0313  0.0418 -0.3502
 1055SOL    HW2 4266   2.158   0.201   1.307  1.0867  2.5231  1.1503
 1055SOL    HW3 4267   2.100   0.086   1.386 -1.5633  1.9033 -1.6242
 1055SOL    MW4 4268   2.162   0.146   1.374 -0.0396  0.6148 -0.3202
 1056SOL     OW 4269   2.405   2.720   3.299  0.0205 -0.1260  0.4825
 1056SOL    HW2 4270   2.360   2.800   3.273  0.5532  0.0669  0.1468
 1056SOL    HW3 4271   2.464   2.748   3.369 -0.7268 -0.4680  1.2678
 1056SOL    MW4 4272   2.407   2.734   3.305 -0.0079 -0.1457  0.5419
 1057SOL     OW 4273   3.919   1.570   4.643 -0.2392 -0.4696 -0.2046
 1057SOL    HW2 4274   3.931   1.475   4.649 -1.1789 -0.7572 -2.1204
 1057SOL    HW3 4275   4.005   1.607   4.661  0.1761 -1.7052  0.3995
 1057SOL    MW4 4276   3.932   1.562   4.646 -0.3083 -0.6707 -0.3772
 1058SOL     OW 4277   1.140   4.147   0.858  0.4234 -0.4651  0.3747
 1058SOL    HW2 4278   1.051   4.180   0.842  0.4770 -0.4456  0.1058
 1058SOL    HW3 4279   1.135   4.054   0.835  0.9306 -0.0631 -1.4534
 1058SOL    MW4 4280   1.128   4.139   0.853  0.4975 -0.4101  0.0980
 1059SOL     OW 4281   3.403   2.762   2.301 -0.2480 -0.8773 -0.4616
 1059SOL    HW2 4282   3.375   2.679   2.263 -2.6166 -0.4254  0.1882
 1059SOL    HW3 4283   3.428   2.740   2.391 -0.9052 -0.9121 -0.2798
 1059SOL    MW4 4284   3.403   2.748   2.308 -0.6473 -0.8221 -0.3517
 1060SOL     OW 4285   0.738   0.781   4.443 -0.1325  0.0532 -0.1612
 1060SOL    HW2 4286   0.683   0.713   4.482 -0.0403  0.3334  0.4720
 1060SOL    HW3 4287   0.774   0.829   4.519  0.0130  0.6340 -0.5951
 1060SOL    MW4 4288   0.736   0.778   4.458 -0.1011  0.1668 -0.1354
 1061SOL     OW 4289   2.913   1.642   3.909  0.2088  0.0069  0.1450
 1061SOL    HW2 4290   2.836   1.658   3.856 -0.1815  0.9521  0.9812
 1061SOL    HW3 4291   2.902   1.552   3.942 -0.9471  0.4426  0.9498
 1061SOL    MW4 4292   2.902   1.632   3.907  0.0048  0.1889  0.3617
 1062SOL     OW 4293   2.246   2.192   3.858 -0.1184 -0.0582  0.4549
 1062SOL    HW2 4294   2.170   2.187   3.916 -0.4608 -0.5205 -0.0294
 1062SOL    HW3 4295   2.258   2.102   3.827  0.7204 -0.0233  0.6458
 1062SOL    MW4 4296   2.238   2.179   3.862 -0.0529 -0.1147  0.4163
 1063SOL     OW 4297   0.460   2.066   3.221 -0.4230  0.3300  0.1939
 1063SOL    HW2 4298   0.506   2.058   3.304 -0.4288 -0.3035  0.1399
 1063SOL    HW3 4299   0.481   1.986   3.174  2.0719  2.0094 -1.6808
 1063SOL    MW4 4300   0.469   2.055   3.226 -0.0946  0.4680 -0.0608
 1064SOL     OW 4301   3.185   0.658   2.598 -0.4642  0.3029 -0.5209
 1064SOL    HW2 4302   3.199   0.717   2.524  0.7855 -0.2082 -0.6988
 1064SOL    HW3 4303   3.180   0.715   2.674 -0.6305  0.7462 -0.8645
 1064SOL    MW4 4304   3.186   0.673   2.598 -0.3211  0.2939 -0.5901
 1065SOL     OW 4305   1.611   2.913   4.282  0.1489 -0.0843  0.3088
 1065SOL    HW2 4306   1.668   2.839   4.261  0.1361 -0.3457  1.1569
 1065SOL    HW3 4307   1.623   2.926   4.376 -0.4693  0.4680  0.3143
 1065SOL    MW4 4308   1.620   2.905   4.292  0.0657 -0.0455  0.4220
 1066SOL     OW 4309   2.671   1.649   3.765 -0.2791 -0.2991  0.2508
 1066SOL    HW2 4310   2.663   1.640   3.671  0.5966 -0.2160  0.1632
 1066SOL    HW3 4311   2.626   1.732   3.785 -0.5421 -0.3618 -0.0798
 1066SOL    MW4 4312   2.664   1.659   3.756 -0.1984 -0.2965  0.1957
 1067SOL     OW 4313   1.091   2.345   3.454 -0.3654  0.2621 -0.4094
 1067SOL    HW2 4314   1.131   2.421   3.497 -1.3606 -0.4602  1.9206
 1067SOL    HW3 4315   1.049   2.297   3.526 -2.3924 -0.8483 -2.2714
 1067SOL    MW4 4316   1.091   2.349   3.469 -0.7640  0.0205 -0.3474
 1068SOL     OW 4317   1.867   2.188   3.220  0.2423 -0.0630 -0.7694
 1068SOL    HW2 4318   1.871   2.281   3.196 -0.2648  0.3290  0.6118
 1068SOL    HW3 4319   1.959   2.160   3.220  0.5288  0.8574  0.4052
 1068SOL    MW4 4320   1.880   2.196   3.217  0.2131  0.1099 -0.4320
 1069SOL     OW 4321   0.992   0.419   1.708 -0.0321 -0.0904 -0.3258
 1069SOL    HW2 4322   0.897   0.430   1.711  0.0245  0.2081  0.6909
 1069SOL    HW3 4323   1.019   0.454   1.623 -0.8961 -0.6830 -0.8448
 1069SOL    MW4 4324   0.983   0.425   1.697 -0.1386 -0.1292 -0.2600
 1070SOL     OW 4325   1.646   0.737   3.374  0.2552  0.1552  0.4828
 1070SOL    HW2 4326   1.677   0.808   3.431 -2.7688  2.4771 -0.6387
 1070SOL    HW3 4327   1.554   0.727   3.396 -0.1964 -1.0657 -1.7936
 1070SOL    MW4 4328   1.638   0.745   3.384 -0.2034  0.3005  0.0346
 1071SOL     OW 4329   3.136   1.630   0.707  0.6885 -0.2048 -0.2735
 1071SOL    HW2 4330   3.049   1.663   0.685  0.4331 -0.9037 -0.3058
 1071SOL    HW3 4331   3.121   1.543   0.745  1.3679 -0.3247 -0.2639
 1071SOL    MW4 4332   3.123   1.623   0.709  0.7443 -0.3127 -0.2765
 1072SOL     OW 4333   1.466   1.919   4.185  0.5631  0.1302  0.0304
 1072SOL    HW2 4334   1.439   1.974   4.111 -0.5494 -0.9675 -0.3936
 1072SOL    HW3 4335   1.534   1.970   4.229  1.1306  0.8804 -1.6529
 1072SOL    MW4 4336   1.471   1.933   4.181  0.4913  0.0844 -0.2484
 1073SOL     OW 4337   3.184   1.900   1.291 -0.3122  0.4782  0.5248
 1073SOL    HW2 4338   3.156   1.841   1.222  0.0795  0.5093  0.3342
 1073SOL    HW3 4339   3.150   1.861   1.372 -1.8027  1.0786  0.2028
 1073SOL    MW4 4340   3.176   1.887   1.293 -0.4573  0.5615  0.4572
 1074SOL     OW 4341   1.688   3.424   4.110 -0.1496  0.0209  0.2131
 1074SOL    HW2 4342   1.672   3.414   4.016  1.6336 -0.0744 -0.0967
 1074SOL    HW3 4343   1.667   3.338   4.147  1.0488 -0.5493 -0.3888
 1074SOL    MW4 4344   1.683   3.411   4.102  0.2438 -0.0670  0.0930
 1075SOL     OW 4345   2.188   2.934   2.658 -0.3158 -0.3192  0.5066
 1075SOL    HW2 4346   2.266   2.886   2.686 -0.9149 -1.0349  0.9710
 1075SOL    HW3 4347   2.167   2.896   2.572 -0.2366 -0.2198  0.4425
 1075SOL    MW4 4348   2.196   2.922   2.650 -0.3843 -0.4005  0.5596
 1076SOL     OW 4349   3.690   1.441   3.411 -0.1678 -0.7476  0.6061
 1076SOL    HW2 4350   3.780   1.454   3.440  0.4886  1.4046 -2.1277
 1076SOL    HW3 4351   3.696   1.380   3.338 -0.8604 -0.1875  0.0682
 1076SOL    MW4 4352   3.702   1.435   3.405 -0.1724 -0.3897  0.1743
 1077SOL     OW 4353   2.283   3.594   3.530 -0.4932 -0.3011  0.3886
 1077SOL    HW2 4354   2.209   3.645   3.497  2.3009  3.2044 -0.8151
 1077SOL    HW3 4355   2.276   3.599   3.625 -2.0327 -0.3673  0.2826
 1077SOL    MW4 4356   2.273   3.601   3.538 -0.3278  0.1528  0.2158
 1078SOL     OW 4357   0.881   4.236   0.820 -0.7315  0.3767 -0.3732
 1078SOL    HW2 4358   0.858   4.304   0.758 -0.8833 -1.3776 -2.3062
 1078SOL    HW3 4359   0.805   4.178   0.822  0.8955 -1.9139 -1.8720
 1078SOL    MW4 4360   0.868   4.237   0.812 -0.5369 -0.1569 -0.8260
 1079SOL     OW 4361   2.743   2.479   3.987 -0.1817 -0.1519  0.5212
 1079SOL    HW2 4362   2.746   2.386   4.011  1.5326 -0.1791  0.3038
 1079SOL    HW3 4363   2.729   2.525   4.069 -0.8191 -0.5894  0.6594
 1079SOL    MW4 4364   2.742   2.473   4.001 -0.0401 -0.2131  0.5107
 1080SOL     OW 4365   0.237   2.387   1.467 -0.2360 -0.1178 -0.1236
 1080SOL    HW2 4366   0.142   2.398   1.476 -0.1969  0.0468  0.0833
 1080SOL    HW3 4367   0.256   2.308   1.517 -0.1000  0.4831  0.7703
 1080SOL    MW4 4368   0.227   2.378   1.474 -0.2129 -0.0169  0.0217
 1081SOL     OW 4369   0.442   1.240   3.042 -0.0045  0.4385 -0.1887
 1081SOL    HW2 4370   0.536   1.258   3.047 -0.3162  1.8854  0.8446
 1081SOL    HW3 4371   0.426   1.220   2.950  1.3145  0.1096 -0.3608
 1081SOL    MW4 4372   0.452   1.239   3.031  0.1284  0.5860 -0.0749
 1082SOL     OW 4373   2.970   0.527   0.562  0.4118  0.0539  0.2690
 1082SOL    HW2 4374   2.877   0.543   0.544  0.1297 -0.5535  1.1747
 1082SOL    HW3 4375   2.984   0.436   0.537  0.8783  0.2769 -0.2978
 1082SOL    MW4 4376   2.959   0.517   0.556  0.4363  0.0031  0.3137
 1083SOL     OW 4377   3.789   1.540   0.671 -0.2425 -0.2501 -0.2078
 1083SOL    HW2 4378   3.752   1.456   0.696  1.0973 -0.5555  0.8313
 1083SOL    HW3 4379   3.765   1.552   0.579 -0.4794 -1.7378 -0.3391
 1083SOL    MW4 4380   3.781   1.531   0.662 -0.0970 -0.4867 -0.0882
 1084SOL     OW 4381   0.230   2.872   0.464 -0.1642  0.3428  0.2253
 1084SOL    HW2 4382   0.164   2.923   0.417 -0.6123  0.4835  1.0050
 1084SOL    HW3 4383   0.213   2.889   0.556  0.4777 -0.2313  0.4572
 1084SOL    MW4 4384   0.219   2.881   0.470 -0.1387  0.2856  0.3587
 1085SOL     OW 4385   3.946   0.927   4.279 -0.1507 -0.1351  0.4686
 1085SOL    HW2 4386   3.948   0.967   4.366  0.1937 -0.6676  0.7148
 1085SOL    HW3 4387   4.012   0.858   4.284 -0.7553 -0.7517  0.0679
 1085SOL    MW4 4388   3.955   0.923   4.291 -0.1853 -0.2867  0.4482
 1086SOL     OW 4389   3.483   3.562   4.157  0.2325 -0.3075 -0.4993
 1086SOL    HW2 4390   3.441   3.488   4.200  0.2535 -0.5292 -0.8570
 1086SOL    HW3 4391   3.474   3.634   4.219  0.3367 -0.6454 -0.0925
 1086SOL    MW4 4392   3.476   3.562   4.171  0.2494 -0.3812 -0.4926
 1087SOL     OW 4393   3.894   0.420   2.774  0.2150  0.8870 -0.3617
 1087SOL    HW2 4394   3.914   0.332   2.742  0.0715  1.4406 -1.9926
 1087SOL    HW3 4395   3.947   0.428   2.853 -0.0291 -0.7891  0.0021
 1087SOL    MW4 4396   3.904   0.409   2.780  0.1638  0.7389 -0.5288
 1088SOL     OW 4397   3.001   4.205   2.024  0.2731  0.0008 -0.1284
 1088SOL    HW2 4398   2.949   4.199   2.104  0.2930  2.0026  0.0511
 1088SOL    HW3 4399   2.957   4.271   1.971  1.6402  0.4476 -0.7282
 1088SOL    MW4 4400   2.989   4.213   2.027  0.4561  0.3238 -0.1838
 1089SOL     OW 4401   2.609   2.266   1.637  0.4854 -0.3196 -0.5459
 1089SOL    HW2 4402   2.525   2.311   1.621  0.3329 -0.5944 -0.5175
 1089SOL    HW3 4403   2.587   2.195   1.698  0.5881 -0.9162 -1.2057
 1089SOL    MW4 4404   2.595   2.263   1.643  0.4787 -0.4346 -0.6292
 1090SOL     OW 4405   0.884   0.816   1.770  0.1291  0.0318 -0.1825
 1090SOL    HW2 4406   0.893   0.881   1.701  0.5508  0.2037  0.0290
 1090SOL    HW3 4407   0.825   0.750   1.734 -0.2721  0.5128 -0.4139
 1090SOL    MW4 4408   0.878   0.816   1.757  0.1317  0.1178 -0.1853
 1091SOL     OW 4409   2.577   3.732   2.219  0.5242  0.1049  0.0411
 1091SOL    HW2 4410   2.647   3.666   2.221 -0.0635 -0.5179  0.1416
 1091SOL    HW3 4411   2.623   3.816   2.216  1.2756 -0.2759  0.9503
 1091SOL    MW4 4412   2.592   3.734   2.219  0.5460 -0.0274  0.1745
 1092SOL     OW 4413   0.755   4.044   4.137 -0.1401 -0.1424  0.1932
 1092SOL    HW2 4414   0.705   3.965   4.159  0.2898 -0.2476  0.8175
 1092SOL    HW3 4415   0.690   4.114   4.133 -0.2625 -0.1426  1.7160
 1092SOL    MW4 4416   0.740   4.043   4.140 -0.0995 -0.1569  0.4768
 1093SOL     OW 4417   0.011   1.721   2.564  0.2559  0.1432 -0.4170
 1093SOL    HW2 4418   0.076   1.739   2.632  1.0843 -0.3871 -1.0570
 1093SOL    HW3 4419  -0.004   1.627   2.570 -2.3716  0.6323  1.4169
 1093SOL    MW4 4420   0.018   1.711   2.573  0.0185  0.1377 -0.2594
 1094SOL     OW 4421   1.013   0.063   1.319  0.1983 -0.1349 -0.3274
 1094SOL    HW2 4422   1.044   0.111   1.396  1.6217 -0.6740 -0.5498
 1094SOL    HW3 4423   0.929   0.025   1.346 -0.0153  0.8801  0.4671
 1094SOL    MW4 4424   1.006   0.065   1.333  0.3580 -0.0721 -0.2519
 1095SOL     OW 4425   2.004   0.233   3.719 -0.0470  0.3127 -0.3102
 1095SOL    HW2 4426   2.022   0.215   3.626  1.3967 -0.5426  0.1301
 1095SOL    HW3 4427   1.908   0.241   3.723 -0.1563 -0.0369 -1.8037
 1095SOL    MW4 4428   1.994   0.232   3.707  0.1291  0.1537 -0.4489
 1096SOL     OW 4429   0.513   1.587   2.817 -0.6595  0.2600  0.0200
 1096SOL    HW2 4430   0.475   1.564   2.901  1.1060  1.3419  1.1592
 1096SOL    HW3 4431   0.585   1.647   2.839 -0.5808  1.0707 -2.2997
 1096SOL    MW4 4432   0.518   1.592   2.831 -0.4162  0.5096 -0.1357
 1097SOL     OW 4433   2.841   1.719   0.729 -0.3702  0.1922  0.6401
 1097SOL    HW2 4434   2.804   1.804   0.706 -1.5068 -0.4162  0.1586
 1097SOL    HW3 4435   2.828   1.711   0.824  1.6519  1.4413  1.0528
 1097SOL    MW4 4436   2.834   1.729   0.739 -0.2534  0.2767  0.6310
 1098SOL     OW 4437   0.054   2.328   1.217 -0.3685 -0.7870  0.0494
 1098SOL    HW2 4438   0.020   2.239   1.231 -0.4466 -0.7592  0.0348
 1098SOL    HW3 4439   0.046   2.341   1.122  0.6857 -1.1915 -0.1088
 1098SOL    MW4 4440   0.048   2.318   1.206 -0.2397 -0.8368  0.0266
 1099SOL     OW 4441   0.869   0.008   4.428 -0.2507 -0.3290  0.1995
 1099SOL    HW2 4442   0.783   0.029   4.391 -0.4371 -0.9174  0.2906
 1099SOL    HW3 4443   0.886   0.078   4.491 -1.5664 -1.2791  1.6369
 1099SOL    MW4 4444   0.860   0.020   4.431 -0.4489 -0.5322  0.4015
 1100SOL     OW 4445   0.696   3.501   2.720 -0.2829 -0.3465 -0.4642
 1100SOL    HW2 4446   0.645   3.422   2.741 -0.3476 -0.6313 -1.6209
 1100SOL    HW3 4447   0.722   3.488   2.629  0.3866  0.6114 -0.4111
 1100SOL    MW4 4448   0.692   3.489   2.711 -0.2031 -0.2580 -0.6096
 1101SOL     OW 4449   1.449   3.652   3.854 -0.5285 -0.1634  0.2130
 1101SOL    HW2 4450   1.477   3.739   3.883 -1.4344  0.4337 -0.6303
 1101SOL    HW3 4451   1.378   3.629   3.914  0.7857 -1.0498  1.4566
 1101SOL    MW4 4452   1.443   3.661   3.866 -0.4747 -0.2017  0.2656
 1102SOL     OW 4453   2.573   2.683   2.290 -0.1531 -0.1508  0.3687
 1102SOL    HW2 4454   2.607   2.766   2.322 -1.9045  0.0486  1.7766
 1102SOL    HW3 4455   2.647   2.643   2.243  0.4606  2.5660 -1.0817
 1102SOL    MW4 4456   2.587   2.688   2.288 -0.3033  0.2341  0.3629
 1103SOL     OW 4457   0.120   3.216   3.339  0.3483  0.1077 -0.0481
 1103SOL    HW2 4458   0.069   3.192   3.416 -0.1555  0.1157 -0.3794
 1103SOL    HW3 4459   0.060   3.267   3.285  0.7301  0.1904 -0.3967
 1103SOL    MW4 4460   0.106   3.219   3.342  0.3322  0.1197 -0.1378
 1104SOL     OW 4461   2.274   1.174   2.803 -0.1018 -0.2033 -0.0871
 1104SOL    HW2 4462   2.211   1.195   2.872 -0.3042 -0.1599 -0.2851
 1104SOL    HW3 4463   2.284   1.079   2.808  0.9374 -0.0534  0.9167
 1104SOL    MW4 4464   2.267   1.164   2.813  0.0088 -0.1779  0.0193
 1105SOL     OW 4465   0.435   0.660   1.196  0.4724 -0.1792 -0.0469
 1105SOL    HW2 4466   0.425   0.725   1.126  1.2239  0.7589  0.7042
 1105SOL    HW3 4467   0.382   0.694   1.268  0.9836 -0.3227  0.3961
 1105SOL    MW4 4468   0.427   0.673   1.196  0.6390 -0.0744  0.1106
 1106SOL     OW 4469   4.118   4.544   4.067  0.1475 -0.2323 -0.4391
 1106SOL    HW2 4470   4.053   4.586   4.010  1.1039 -0.0823 -1.4230
 1106SOL    HW3 4471   4.194   4.602   4.064  0.1225 -0.0978  1.1936
 1106SOL    MW4 4472   4.119   4.557   4.059  0.2704 -0.1950 -0.3538
 1107SOL     OW 4473   3.109   3.990   1.138 -0.0344  0.4661  0.2879
 1107SOL    HW2 4474   3.047   4.014   1.068 -0.0083  0.8089  0.3820
 1107SOL    HW3 4475   3.122   4.071   1.187 -1.6255 -0.2396  1.9166
 1107SOL    MW4 4476   3.102   4.004   1.135 -0.2408  0.4182  0.5152
 1108SOL     OW 4477   1.725   2.314   2.340  0.3221 -0.5897  0.0325
 1108SOL    HW2 4478   1.682   2.343   2.259  0.1047 -1.4091 -0.1497
 1108SOL    HW3 4479   1.671   2.352   2.409  0.8862  0.6601 -0.2041
 1108SOL    MW4 4480   1.712   2.323   2.338  0.3678 -0.5331 -0.0226
 1109SOL     OW 4481   4.036   0.552   2.565  0.3314 -0.1350  0.2725
 1109SOL    HW2 4482   3.976   0.524   2.634 -0.8011 -0.7737 -0.9374
 1109SOL    HW3 4483   4.122   0.524   2.595 -0.1752 -0.5633  1.3488
 1109SOL    MW4 4484   4.039   0.544   2.578  0.1149 -0.2757  0.2546
 1110SOL     OW 4485   4.329   2.452   2.862  0.1294  0.5473 -0.3757
 1110SOL    HW2 4486   4.370   2.500   2.790  2.1343  0.7061  0.8436
 1110SOL    HW3 4487   4.289   2.519   2.917  1.5032  0.7026  0.4447
 1110SOL    MW4 4488   4.329   2.467   2.860  0.5755  0.5887 -0.1068
 1111SOL     OW 4489   3.212   3.565   1.292  0.6688  0.2947 -0.0009
 1111SOL    HW2 4490   3.257   3.495   1.244 -0.9431  0.2695 -1.5717
 1111SOL    HW3 4491   3.269   3.585   1.366  1.5666 -2.0912 -0.0093
 1111SOL    MW4 4492   3.225   3.559   1.295  0.5748 -0.0234 -0.2092
 1112SOL     OW 4493   2.230   2.173   2.948 -0.1222 -0.4491 -0.5843
 1112SOL    HW2 4494   2.312   2.210   2.983  0.4708 -1.4702 -0.8738
 1112SOL    HW3 4495   2.189   2.131   3.023 -1.2242  1.5116 -0.0576
 1112SOL    MW4 4496   2.236   2.172   2.962 -0.1893 -0.3254 -0.5529
 1113SOL     OW 4497   2.911   2.581   1.624  0.6475 -0.7395 -0.1855
 1113SOL    HW2 4498   2.837   2.592   1.563 -0.9775 -0.4809  1.7924
 1113SOL    HW3 4499   2.953   2.500   1.595 -1.3040 -1.7024 -0.4371
 1113SOL    MW4 4500   2.907   2.572   1.612  0.1755 -0.8326  0.0423
 1114SOL     OW 4501   1.913   4.010   0.526  0.2163  0.1698  0.0322
 1114SOL    HW2 4502   1.928   4.104   0.520 -1.0304  0.4446  0.9645
 1114SOL    HW3 4503   1.989   3.977   0.574 -0.2269  0.9701  1.3138
 1114SOL    MW4 4504   1.925   4.018   0.531 -0.0064  0.3119  0.3243
 1115SOL     OW 4505   2.692   1.152   2.437 -0.4328 -0.4608  0.2663
 1115SOL    HW2 4506   2.681   1.089   2.509 -1.6258  0.8100  1.2317
 1115SOL    HW3 4507   2.771   1.201   2.460 -0.6208 -0.2842  0.5462
 1115SOL    MW4 4508   2.701   1.150   2.450 -0.6149 -0.2698  0.4306
 1116SOL     OW 4509   3.297   0.709   3.901 -0.2048 -0.6879  0.0146
 1116SOL    HW2 4510   3.355   0.644   3.940  0.1915 -0.0704  0.4532
 1116SOL    HW3 4511   3.225   0.718   3.963 -0.6867 -1.3126 -0.4392
 1116SOL    MW4 4512   3.295   0.702   3.914 -0.2158 -0.6889  0.0124
 1117SOL     OW 4513   0.973   0.058   4.147 -0.0601 -0.2219  0.0304
 1117SOL    HW2 4514   0.908   0.119   4.112  0.9727  0.1479 -1.2943
 1117SOL    HW3 4515   0.944   0.041   4.237 -2.1393 -0.3064 -0.6411
 1117SOL    MW4 4516   0.961   0.064   4.155 -0.1982 -0.1843 -0.2332
 1118SOL     OW 4517   2.125   2.380   2.513  0.2808 -0.0142 -0.2940
 1118SOL    HW2 4518   2.217   2.403   2.506  0.1799  0.2403 -0.8403
 1118SOL    HW3 4519   2.123   2.305   2.572  0.7693  0.3854  0.2432
 1118SOL    MW4 4520   2.137   2.373   2.520  0.3321  0.0722 -0.2952
 1119SOL     OW 4521   1.273   0.908   3.749 -0.5974 -0.5408  0.0242
 1119SOL    HW2 4522   1.187   0.946   3.733 -0.3134 -0.1890 -0.7072
 1119SOL    HW3 4523   1.314   0.904   3.662  0.0219 -0.9408  0.3307
 1119SOL    MW4 4524   1.267   0.912   3.735 -0.4784 -0.5471 -0.0317
 1120SOL     OW 4525   1.397   4.203   3.077  0.1633  0.1731  0.3249
 1120SOL    HW2 4526   1.376   4.191   2.984  1.5809  1.1735 -0.1475
 1120SOL    HW3 4527   1.320   4.171   3.123 -0.1423 -1.3498 -1.1623
 1120SOL    MW4 4528   1.384   4.197   3.071  0.3101  0.1044  0.0663
 1121SOL     OW 4529   0.483   1.414   3.395  0.0367  0.0426 -0.0339
 1121SOL    HW2 4530   0.558   1.416   3.455 -0.3769 -0.5975  0.5081
 1121SOL    HW3 4531   0.413   1.459   3.443 -0.8157 -1.9925  0.6909
 1121SOL    MW4 4532   0.484   1.420   3.409 -0.1303 -0.3105  0.1333
 1122SOL     OW 4533   3.712   1.067   2.582 -0.0261  0.5645  0.1947
 1122SOL    HW2 4534   3.765   1.135   2.622 -1.4485  1.2185  1.0024
 1122SOL    HW3 4535   3.720   1.084   2.488  3.7062 -1.2773  0.0858
 1122SOL    MW4 4536   3.720   1.078   2.575  0.2785  0.4078  0.2871
 1123SOL     OW 4537   4.375   1.117   1.712  0.0827  0.4058 -0.7624
 1123SOL    HW2 4538   4.336   1.074   1.787 -0.6377  1.9981 -0.2003
 1123SOL    HW3 4539   4.367   1.054   1.641 -0.8034 -0.4410  0.0796
 1123SOL    MW4 4540   4.369   1.103   1.712 -0.1292  0.5043 -0.5772
 1124SOL     OW 4541   1.905   2.052   2.426 -0.0555  0.6102  0.1365
 1124SOL    HW2 4542   1.991   2.092   2.413  0.3690  0.0972  1.2578
 1124SOL    HW3 4543   1.843   2.123   2.412  0.6883  1.6780  2.1138
 1124SOL    MW4 4544   1.908   2.067   2.422  0.0986  0.6833  0.5453
 1125SOL     OW 4545   2.320   3.248   3.778 -0.0027 -0.8475 -0.4550
 1125SOL    HW2 4546   2.322   3.224   3.871 -0.6640 -0.5514 -0.3658
 1125SOL    HW3 4547   2.365   3.176   3.735  1.6652 -0.2537  0.2487
 1125SOL    MW4 4548   2.326   3.235   3.785  0.1302 -0.7303 -0.3505
 1126SOL     OW 4549   4.391   2.419   2.477 -0.0253  0.0999  0.6017
 1126SOL    HW2 4550   4.359   2.467   2.401 -0.7906  2.3900  2.2883
 1126SOL    HW3 4551   4.353   2.332   2.469 -2.3689  1.1561 -0.2250
 1126SOL    MW4 4552   4.381   2.414   2.466 -0.4358  0.5414  0.7153
 1127SOL     OW 4553   1.981   0.016   2.304 -0.6672  0.2224  0.0132
 1127SOL    HW2 4554   1.939   0.008   2.219 -0.4894  1.4361 -0.1969
 1127SOL    HW3 4555   1.962  -0.067   2.348 -2.5487  0.4088 -0.3974
 1127SOL    MW4 4556   1.973   0.004   2.299 -0.8919  0.4067 -0.0687
 1128SOL     OW 4557   2.937   3.015   4.289  0.0494  0.3473  0.5601
 1128SOL    HW2 4558   2.933   3.098   4.241  0.5675  0.5988  0.9446
 1128SOL    HW3 4559   2.993   3.034   4.365 -0.6305 -0.0898  1.1781
 1128SOL    MW4 4560   2.944   3.029   4.293  0.0284  0.3231  0.6924
 1129SOL     OW 4561   0.786   2.450   0.832  0.0973  0.2927 -0.4487
 1129SOL    HW2 4562   0.843   2.430   0.758 -0.6635  0.7439 -1.1618
 1129SOL    HW3 4563   0.728   2.374   0.839  1.4519 -0.6335  0.9311
 1129SOL    MW4 4564   0.786   2.437   0.823  0.1757  0.2301 -0.3607
 1130SOL     OW 4565   3.319   1.370   4.516 -0.2025 -0.5402 -0.3905
 1130SOL    HW2 4566   3.226   1.375   4.538 -0.2743  0.2548 -0.8521
 1130SOL    HW3 4567   3.361   1.436   4.572  0.1042 -0.9737 -0.1012
 1130SOL    MW4 4568   3.313   1.379   4.527 -0.1717 -0.4927 -0.4134
 1131SOL     OW 4569   3.590   4.175   4.453  0.1430  0.0706 -0.0967
 1131SOL    HW2 4570   3.556   4.233   4.521  0.0439  0.3170 -0.3528
 1131SOL    HW3 4571   3.671   4.217   4.425 -0.1337  0.3056 -0.5645
 1131SOL    MW4 4572   3.596   4.188   4.458  0.0932  0.1340 -0.1922
 1132SOL     OW 4573   4.067   3.625   1.085 -0.0138  0.3811 -0.5381
 1132SOL    HW2 4574   4.021   3.544   1.061  0.6226 -0.0335 -0.3921
 1132SOL    HW3 4575   4.137   3.595   1.144 -0.5890  1.1951  0.5666
 1132SOL    MW4 4576   4.070   3.610   1.089 -0.0057  0.4334 -0.3730
 1133SOL     OW 4577   3.458   3.333   1.463  0.2121  0.1050 -0.1372
 1133SOL    HW2 4578   3.536   3.349   1.517 -1.7692  1.0396  2.5422
 1133SOL    HW3 4579   3.423   3.421   1.446 -1.2711 -0.4125  0.2268
 1133SOL    MW4 4580   3.464   3.347   1.468 -0.2451  0.1597  0.2644
 1134SOL     OW 4581   1.548   0.597   4.291 -0.4158 -0.0053 -0.1214
 1134SOL    HW2 4582   1.527   0.561   4.377 -0.9248 -1.2603 -0.7592
 1134SOL    HW3 4583   1.639   0.625   4.299  0.6641 -3.2586 -0.1465
 1134SOL    MW4 4584   1.558   0.596   4.303 -0.3405 -0.6000 -0.2084
 1135SOL     OW 4585   3.992   3.896   3.885  0.1468 -0.7313 -0.2506
 1135SOL    HW2 4586   3.974   3.976   3.837 -0.0519 -0.5220  0.1637
 1135SOL    HW3 4587   4.057   3.849   3.832 -0.1151 -0.5357 -0.7441
 1135SOL    MW4 4588   3.999   3.900   3.872  0.0863 -0.6778 -0.2611
 1136SOL     OW 4589   2.516   2.244   2.929 -0.2616  0.1294 -0.0746
 1136SOL    HW2 4590   2.509   2.148   2.933 -1.8407  0.2961  1.1046
 1136SOL    HW3 4591   2.497   2.274   3.017 -1.1664  1.6238 -0.7563
 1136SOL    MW4 4592   2.513   2.235   2.941 -0.5894  0.3486 -0.0093
 1137SOL     OW 4593   2.572   3.307   0.709 -0.4730  0.3858 -0.0028
 1137SOL    HW2 4594   2.574   3.316   0.614  1.5802 -2.0726 -0.2179
 1137SOL    HW3 4595   2.497   3.360   0.736 -1.8673  0.0788 -3.0904
 1137SOL    MW4 4596   2.562   3.315   0.700 -0.3862  0.0207 -0.4385
 1138SOL     OW 4597   3.588   2.383   0.928 -0.5598 -0.4813  0.5951
 1138SOL    HW2 4598   3.654   2.317   0.951 -1.2412 -1.4412 -0.1301
 1138SOL    HW3 4599   3.626   2.429   0.853 -0.4804 -0.6867  0.5072
 1138SOL    MW4 4600   3.602   2.380   0.921 -0.6392 -0.6349  0.4878
 1139SOL     OW 4601   0.565   1.120   2.153 -0.4938  0.0509 -0.2363
 1139SOL    HW2 4602   0.523   1.093   2.071  1.0143 -0.9880 -0.6959
 1139SOL    HW3 4603   0.614   1.199   2.130 -1.3633  0.6846  0.0602
 1139SOL    MW4 4604   0.566   1.127   2.139 -0.4095 -0.0025 -0.2580
 1140SOL     OW 4605   2.692   1.268   0.787  0.2351  0.0098 -0.0379
 1140SOL    HW2 4606   2.666   1.325   0.715 -0.0628  1.1289  0.9343
 1140SOL    HW3 4607   2.788   1.266   0.784  0.2393  0.4466 -0.1630
 1140SOL    MW4 4608   2.701   1.275   0.777  0.1965  0.2151  0.0739
 1141SOL     OW 4609   3.741   4.330   2.097  0.2667 -0.5145  0.3821
 1141SOL    HW2 4610   3.647   4.318   2.115  0.1613 -0.0466  0.1696
 1141SOL    HW3 4611   3.785   4.272   2.158 -0.1755 -0.9173  0.3210
 1141SOL    MW4 4612   3.734   4.321   2.107  0.1943 -0.5059  0.3459
 1142SOL     OW 4613   4.099   1.873   0.738 -0.1791  0.2171  0.3690
 1142SOL    HW2 4614   4.164   1.854   0.670 -0.5004 -0.0897  0.1470
 1142SOL    HW3 4615   4.149   1.871   0.820  0.2949  1.0257  0.1059
 1142SOL    MW4 4616   4.115   1.871   0.740 -0.1593  0.2834  0.3051
 1143SOL     OW 4617   4.311   3.207   3.817  0.2416  0.1094  0.4237
 1143SOL    HW2 4618   4.262   3.272   3.867 -1.8214 -0.9979 -0.1032
 1143SOL    HW3 4619   4.308   3.128   3.871  2.6998  0.3878  1.0431
 1143SOL    MW4 4620   4.304   3.205   3.830  0.2933  0.0002  0.4361
 1144SOL     OW 4621   2.592   0.408   3.405  0.0151  0.4118 -0.6458
 1144SOL    HW2 4622   2.502   0.441   3.409  0.1411  0.6505  0.2905
 1144SOL    HW3 4623   2.646   0.486   3.393  0.0218  0.1655 -2.3283
 1144SOL    MW4 4624   2.587   0.423   3.404  0.0324  0.4108 -0.7441
 1145SOL     OW 4625   1.232   1.963   3.722  0.1224  0.4158  0.1429
 1145SOL    HW2 4626   1.211   2.001   3.637 -1.3643 -1.9124 -0.5701
 1145SOL    HW3 4627   1.324   1.936   3.714 -0.3375 -0.8024 -1.1196
 1145SOL    MW4 4628   1.242   1.965   3.710 -0.1345 -0.0519 -0.1178
 1146SOL     OW 4629   1.321   3.368   2.340 -0.7464  0.0184 -0.1149
 1146SOL    HW2 4630   1.376   3.432   2.295  0.7227 -0.1373  1.3910
 1146SOL    HW3 4631   1.306   3.407   2.427 -1.8442 -0.5963 -0.0191
 1146SOL    MW4 4632   1.326   3.382   2.346 -0.6973 -0.0832  0.0963
 1147SOL     OW 4633   1.285   1.150   4.728 -0.1807  0.2977 -0.2332
 1147SOL    HW2 4634   1.241   1.137   4.812  0.5148  1.5043  0.3251
 1147SOL    HW3 4635   1.214   1.150   4.664 -0.7773 -0.0009  0.4150
 1147SOL    MW4 4636   1.270   1.148   4.731 -0.1676  0.4175 -0.0739
 1148SOL     OW 4637   0.164   2.690   2.365  0.2774  0.8802 -0.3348
 1148SOL    HW2 4638   0.073   2.709   2.343  0.1819 -0.3848 -1.0995
 1148SOL    HW3 4639   0.169   2.594   2.368  1.5195  0.9387 -0.0200
 1148SOL    MW4 4640   0.153   2.680   2.363  0.4287  0.7212 -0.3941
 1149SOL     OW 4641   3.201   4.218   1.318  0.0192 -0.4243  0.0594
 1149SOL    HW2 4642   3.181   4.187   1.407 -1.3983 -0.8869 -0.4073
 1149SOL    HW3 4643   3.139   4.290   1.304  0.0698 -0.5139 -0.6416
 1149SOL    MW4 4644   3.190   4.223   1.328 -0.1614 -0.4969 -0.0945
 1150SOL     OW 4645   2.428   2.249   4.465 -0.0241  0.0539  0.1566
 1150SOL    HW2 4646   2.451   2.281   4.377 -0.9150  0.2581 -0.0072
 1150SOL    HW3 4647   2.333   2.240   4.462 -0.2605  1.8090  1.6980
 1150SOL    MW4 4648   2.419   2.252   4.453 -0.1726  0.3121  0.3381
 1151SOL     OW 4649   3.663   1.693   4.728 -0.4509  0.3912 -0.4311
 1151SOL    HW2 4650   3.736   1.634   4.708  0.0568  0.7620  0.3116
 1151SOL    HW3 4651   3.686   1.775   4.685 -0.9330  0.1993 -1.0677
 1151SOL    MW4 4652   3.676   1.696   4.720 -0.4475  0.4147 -0.4168
 1152SOL     OW 4653   3.168   3.347   4.630  0.1045 -0.3805  0.5388
 1152SOL    HW2 4654   3.147   3.402   4.554  1.4581  0.3147  0.6582
 1152SOL    HW3 4655   3.254   3.378   4.659 -0.2456 -0.8848  2.1441
 1152SOL    MW4 4656   3.177   3.358   4.624  0.2367 -0.3555  0.7663
 1153SOL     OW 4657   1.775   3.684   4.157  0.3096  0.2717 -0.7503
 1153SOL    HW2 4658   1.827   3.685   4.237  0.8157  0.2381 -1.0751
 1153SOL    HW3 4659   1.753   3.592   4.143 -2.9934  0.6559  1.3975
 1153SOL    MW4 4660   1.779   3.672   4.166 -0.0595  0.3181 -0.5102
 1154SOL     OW 4661   4.471   2.997   2.775 -0.2175  0.0487 -0.1737
 1154SOL    HW2 4662   4.492   3.089   2.790 -3.8824  0.7049  1.5934
 1154SOL    HW3 4663   4.476   2.957   2.862 -1.7365 -0.6972 -0.4210
 1154SOL    MW4 4664   4.474   3.004   2.789 -0.9015  0.0367  0.0269
 1155SOL     OW 4665   2.697   4.044   4.189 -0.0643  0.1143 -0.1736
 1155SOL    HW2 4666   2.628   4.077   4.131 -1.6052  1.5470  2.3687
 1155SOL    HW3 4667   2.660   3.963   4.225  0.4968 -0.2590 -0.4293
 1155SOL    MW4 4668   2.683   4.037   4.186 -0.1936  0.2542  0.1287
 1156SOL     OW 4669   3.318   2.538   2.883 -0.1617 -0.2363  0.1879
 1156SOL    HW2 4670   3.264   2.611   2.914 -1.5416 -0.8840 -0.6090
 1156SOL    HW3 4671   3.352   2.568   2.799 -2.0893 -1.0895 -0.9546
 1156SOL    MW4 4672   3.315   2.552   2.876 -0.5982 -0.4344 -0.0682
 1157SOL     OW 4673   3.294   1.214   0.609  0.4532  0.0555  0.0426
 1157SOL    HW2 4674   3.377   1.220   0.656  0.8994  1.4235 -0.8952
 1157SOL    HW3 4675   3.293   1.291   0.551 -0.4615 -1.1473 -1.5747
 1157SOL    MW4 4676   3.305   1.225   0.607  0.3915  0.0774 -0.2944
 1158SOL     OW 4677   2.403   3.924   1.448 -0.0411  0.4504 -0.0795
 1158SOL    HW2 4678   2.433   3.967   1.368 -0.4437 -0.6038 -0.8154
 1158SOL    HW3 4679   2.452   3.967   1.518  2.3045 -0.3952 -1.1323
 1158SOL    MW4 4680   2.413   3.935   1.447  0.2153  0.1998 -0.3155
 1159SOL     OW 4681   2.486   1.782   3.282 -0.0760  0.2642 -0.2603
 1159SOL    HW2 4682   2.536   1.772   3.201 -1.4732 -0.5089 -1.0556
 1159SOL    HW3 4683   2.507   1.870   3.313  1.3281  0.1552 -0.8780
 1159SOL    MW4 4684   2.495   1.792   3.275 -0.0749  0.1477 -0.4468
 1160SOL     OW 4685   2.349   4.664   2.848  0.2029  0.1493  0.8436
 1160SOL    HW2 4686   2.308   4.678   2.933 -1.4228 -0.9614  0.2615
 1160SOL    HW3 4687   2.280   4.683   2.784  0.6517 -1.5338 -0.1584
 1160SOL    MW4 4688   2.335   4.669   2.851  0.0477 -0.2193  0.6347
 1161SOL     OW 4689   0.054   4.218   2.368  0.0328  0.7845  0.5257
 1161SOL    HW2 4690   0.063   4.221   2.463 -2.1893 -0.4015  0.7886
 1161SOL    HW3 4691   0.060   4.125   2.346 -0.0369  1.0049 -0.4442
 1161SOL    MW4 4692   0.056   4.206   2.378 -0.2695  0.6576  0.4325
 1162SOL     OW 4693   2.696   1.115   2.870 -0.0377 -0.2047  0.2424
 1162SOL    HW2 4694   2.643   1.193   2.854 -0.3365 -0.6216 -0.8294
 1162SOL    HW3 4695   2.646   1.064   2.934 -0.5223 -0.1867 -0.1191
 1162SOL    MW4 4696   2.683   1.119   2.876 -0.1409 -0.2574  0.0534
 1163SOL     OW 4697   4.076   0.612   2.296  0.0198 -0.2821 -0.1110
 1163SOL    HW2 4698   3.995   0.572   2.265 -1.1498  1.2286  0.9512
 1163SOL    HW3 4699   4.071   0.607   2.391  0.4614  1.1822  0.0060
 1163SOL    MW4 4700   4.065   0.606   2.305 -0.0763  0.1104  0.0446
 1164SOL     OW 4701   1.285   4.566   2.901  0.3310 -0.8077  0.1618
 1164SOL    HW2 4702   1.201   4.526   2.923 -0.1119 -0.0916 -0.2149
 1164SOL    HW3 4703   1.264   4.656   2.876  1.2379 -0.5459  0.3005
 1164SOL    MW4 4704   1.271   4.572   2.900  0.3922 -0.6785  0.1304
 1165SOL     OW 4705   1.422   0.887   2.217 -0.0527  0.3647  0.0487
 1165SOL    HW2 4706   1.445   0.794   2.216  0.4288  0.4109  2.7173
 1165SOL    HW3 4707   1.340   0.892   2.168 -0.2119 -1.5041  0.0969
 1165SOL    MW4 4708   1.414   0.875   2.210 -0.0104  0.1243  0.4072
 1166SOL     OW 4709   0.314   4.615   0.737 -0.4235  0.0811 -0.1032
 1166SOL    HW2 4710   0.292   4.697   0.691  0.2407 -0.0431 -0.6544
 1166SOL    HW3 4711   0.346   4.558   0.667 -0.4374 -0.4867  0.3610
 1166SOL    MW4 4712   0.316   4.619   0.722 -0.3377 -0.0100 -0.1147
 1167SOL     OW 4713   2.174   2.890   1.264  0.1070 -0.4136 -0.0404
 1167SOL    HW2 4714   2.169   2.806   1.311  0.2769  0.6184  1.8657
 1167SOL    HW3 4715   2.267   2.912   1.263 -0.0577  0.3078  0.4523
 1167SOL    MW4 4716   2.185   2.881   1.270  0.1075 -0.1824  0.2761
 1168SOL     OW 4717   0.951   1.698   2.996  0.0748  0.0948 -0.1818
 1168SOL    HW2 4718   1.004   1.640   2.942 -0.5909  1.2265 -2.1172
 1168SOL    HW3 4719   1.009   1.770   3.019  0.0685  0.1258 -0.2621
 1168SOL    MW4 4720   0.966   1.700   2.992 -0.0138  0.2483 -0.4478
 1169SOL     OW 4721   2.437   2.951   2.144  0.5445  0.0505 -0.0864
 1169SOL    HW2 4722   2.348   2.959   2.178  0.7128  0.3845  0.2877
 1169SOL    HW3 4723   2.492   2.957   2.222  1.0243  2.4793 -0.5493
 1169SOL    MW4 4724   2.432   2.953   2.159  0.6299  0.4148 -0.0985
 1170SOL     OW 4725   0.883   2.885   3.141  0.3994  0.1634 -0.6414
 1170SOL    HW2 4726   0.844   2.931   3.215  0.6395 -0.3183 -0.2145
 1170SOL    HW3 4727   0.815   2.885   3.074 -0.5378 -1.1480  0.2906
 1170SOL    MW4 4728   0.869   2.891   3.142  0.3075 -0.0730 -0.4623
 1171SOL     OW 4729   3.450   4.002   2.301  0.3946  0.3548 -0.5421
 1171SOL    HW2 4730   3.423   4.049   2.222 -1.9140  3.0876  1.8047
 1171SOL    HW3 4731   3.398   3.922   2.300 -0.3237  0.8240 -1.3203
 1171SOL    MW4 4732   3.440   3.998   2.290 -0.0050  0.7768 -0.3355
 1172SOL     OW 4733   4.411   3.568   2.683  0.7247 -0.0251  0.2175
 1172SOL    HW2 4734   4.396   3.475   2.671 -0.5533  0.3679 -1.3756
 1172SOL    HW3 4735   4.505   3.576   2.697  0.9198 -1.4842 -0.2158
 1172SOL    MW4 4736   4.421   3.557   2.684  0.5817 -0.1657 -0.0496
 1173SOL     OW 4737   4.401   0.159   2.546  0.6854 -0.2124  0.1838
 1173SOL    HW2 4738   4.490   0.126   2.549  0.6734 -0.3491 -0.7578
 1173SOL    HW3 4739   4.351   0.091   2.501  0.4307  0.5731 -0.7458
 1173SOL    MW4 4740   4.406   0.146   2.540  0.6504 -0.1268 -0.0632
 1174SOL     OW 4741   3.835   3.030   4.273  0.0573  0.5390 -0.1582
 1174SOL    HW2 4742   3.890   2.956   4.247 -0.3702 -0.1195  0.7700
 1174SOL    HW3 4743   3.761   3.027   4.212  0.0009  0.1445 -0.0769
 1174SOL    MW4 4744   3.832   3.020   4.262 -0.0069  0.3998 -0.0248
 1175SOL     OW 4745   2.452   2.702   4.385 -0.6212 -0.2336  0.2862
 1175SOL    HW2 4746   2.462   2.793   4.414 -2.3917 -0.0756  0.4516
 1175SOL    HW3 4747   2.402   2.660   4.455 -1.4000 -0.8615 -0.6419
 1175SOL    MW4 4748   2.446   2.709   4.398 -0.9577 -0.2959  0.1855
 1176SOL     OW 4749   3.114   3.108   4.479 -0.0327 -0.6017  0.5729
 1176SOL    HW2 4750   3.133   3.052   4.555 -0.7313 -1.8627 -0.1665
 1176SOL    HW3 4751   3.101   3.195   4.516 -1.7701 -1.4738  2.0873
 1176SOL    MW4 4752   3.115   3.112   4.494 -0.3541 -0.8833  0.6757
 1177SOL     OW 4753   4.282   2.965   1.576 -0.1183  0.1390  0.4996
 1177SOL    HW2 4754   4.314   3.054   1.565 -1.2984  0.5774  0.5439
 1177SOL    HW3 4755   4.263   2.958   1.670 -1.4213  0.3370  0.2647
 1177SOL    MW4 4756   4.284   2.975   1.587 -0.4458  0.2229  0.4745
 1178SOL     OW 4757   2.307   1.926   3.816 -0.2649  0.1178 -0.3763
 1178SOL    HW2 4758   2.272   1.868   3.884 -0.8630  2.4462  1.3534
 1178SOL    HW3 4759   2.246   1.917   3.743 -0.0118 -1.8649 -0.3876
 1178SOL    MW4 4760   2.294   1.917   3.815 -0.3104  0.1634 -0.1495
 1179SOL     OW 4761   1.723   0.076   2.828 -0.6400 -0.1729  0.5699
 1179SOL    HW2 4762   1.764   0.113   2.907  0.6769  0.5429 -0.4329
 1179SOL    HW3 4763   1.713   0.150   2.769  0.7630 -1.1458 -0.9339
 1179SOL    MW4 4764   1.728   0.090   2.831 -0.2812 -0.2068  0.2391
 1180SOL     OW 4765   3.660   0.957   0.780 -0.3778 -0.0944 -0.3496
 1180SOL    HW2 4766   3.645   1.047   0.751 -2.6027  0.1873  1.5483
 1180SOL    HW3 4767   3.575   0.914   0.768  0.4101 -1.7017 -0.3245
 1180SOL    MW4 4768   3.646   0.963   0.774 -0.5672 -0.2693 -0.0958
 1181SOL     OW 4769   0.336   2.858   3.248  0.5907 -0.0190 -0.3910
 1181SOL    HW2 4770   0.362   2.887   3.335  0.7251 -0.3526 -0.3191
 1181SOL    HW3 4771   0.411   2.807   3.216  0.8593  0.7623 -1.0166
 1181SOL    MW4 4772   0.349   2.855   3.255  0.6439  0.0398 -0.4640
 1182SOL     OW 4773   3.620   2.178   4.638 -0.0024  0.5394  0.6054
 1182SOL    HW2 4774   3.546   2.237   4.655  0.9513  1.1482  2.7429
 1182SOL    HW3 4775   3.681   2.230   4.586 -0.2177  0.6441  0.4540
 1182SOL    MW4 4776   3.618   2.193   4.633  0.0949  0.6335  0.8674
 1183SOL     OW 4777   1.781   4.342   1.679  0.4753 -0.2199  0.4157
 1183SOL    HW2 4778   1.723   4.336   1.603 -1.0252  0.8975  1.4242
 1183SOL    HW3 4779   1.745   4.415   1.730  0.7192 -1.7105  2.7902
 1183SOL    MW4 4780   1.769   4.351   1.676  0.3096 -0.2694  0.8620
 1184SOL     OW 4781   1.353   2.501   4.330  0.1175 -0.1186  0.0764
 1184SOL    HW2 4782   1.430   2.548   4.363 -0.9166  1.8989 -0.3488
 1184SOL    HW3 4783   1.326   2.549   4.252 -2.1814 -0.1834  0.7800
 1184SOL    MW4 4784   1.360   2.513   4.324 -0.3222  0.1392  0.1130
 1185SOL     OW 4785   1.896   2.484   3.552  0.4767 -0.1180 -0.2442
 1185SOL    HW2 4786   1.913   2.394   3.581  1.1711  0.5863  1.5689
 1185SOL    HW3 4787   1.801   2.489   3.546  0.4107 -0.8347  0.1225
 1185SOL    MW4 4788   1.886   2.473   3.555  0.5596 -0.1197  0.0436
 1186SOL     OW 4789   3.811   0.817   4.716  0.1369  0.4327  0.4240
 1186SOL    HW2 4790   3.818   0.723   4.700  1.4859  0.5499  0.2717
 1186SOL    HW3 4791   3.764   0.824   4.800 -0.8674 -0.3348 -0.0617
 1186SOL    MW4 4792   3.805   0.805   4.725  0.1824  0.3469  0.3400
 1187SOL     OW 4793   2.119   1.710   1.533  0.2245  0.8261 -0.4005
 1187SOL    HW2 4794   2.130   1.703   1.628  2.1535  1.7335 -0.5335
 1187SOL    HW3 4795   2.040   1.762   1.521 -0.5135 -0.0271  0.6999
 1187SOL    MW4 4796   2.110   1.716   1.544  0.3815  0.8333 -0.2729
 1188SOL     OW 4797   2.008   1.234   3.622 -0.6731  0.3427  0.0029
 1188SOL    HW2 4798   2.071   1.299   3.592 -0.7509 -0.0616 -1.0377
 1188SOL    HW3 4799   2.057   1.180   3.684  0.4688 -0.9351 -1.9744
 1188SOL    MW4 4800   2.023   1.235   3.626 -0.5329  0.1209 -0.3953
 1189SOL     OW 4801   1.342   0.126   1.591  0.0218 -0.0038 -0.3308
 1189SOL    HW2 4802   1.401   0.107   1.664  0.6177  1.3421 -0.4428
 1189SOL    HW3 4803   1.319   0.040   1.556 -1.0095 -0.7293  2.0188
 1189SOL    MW4 4804   1.347   0.112   1.596 -0.0355  0.0780 -0.0356
 1190SOL     OW 4805   0.059   0.182   4.178  0.4733  0.1598 -0.0916
 1190SOL    HW2 4806   0.086   0.256   4.123 -0.1089  0.1259 -0.4234
 1190SOL    HW3 4807   0.063   0.216   4.267  0.3897  0.5366 -0.2281
 1190SOL    MW4 4808   0.063   0.196   4.182  0.3855  0.2051 -0.1535
 1191SOL     OW 4809   0.388   1.519   3.072 -0.1399 -0.7776  0.2183
 1191SOL    HW2 4810   0.426   1.435   3.097 -0.9174 -0.5153  2.3200
 1191SOL    HW3 4811   0.311   1.529   3.128  0.0604  1.4419  0.1369
 1191SOL    MW4 4812   0.383   1.509   3.083 -0.2160 -0.4500  0.4847
 1192SOL     OW 4813   2.708   0.920   2.016 -0.1090 -0.2651 -0.2663
 1192SOL    HW2 4814   2.620   0.891   1.991  0.2294 -1.2346 -0.3579
 1192SOL    HW3 4815   2.733   0.983   1.949 -0.3705 -0.6795 -0.7599
 1192SOL    MW4 4816   2.700   0.924   2.004 -0.0992 -0.4477 -0.3433
 1193SOL     OW 4817   1.317   3.248   4.210 -0.1975 -0.2846  0.6041
 1193SOL    HW2 4818   1.376   3.308   4.256  1.4076 -1.1455 -0.3030
 1193SOL    HW3 4819   1.355   3.161   4.224 -3.2740 -1.3526  3.1590
 1193SOL    MW4 4820   1.329   3.244   4.218 -0.3915 -0.5388  0.8216
 1194SOL     OW 4821   1.893   2.965   1.332  0.2672 -0.3200 -0.1107
 1194SOL    HW2 4822   1.871   3.030   1.265  1.1314  1.1617  1.0006
 1194SOL    HW3 4823   1.988   2.954   1.324  0.1576 -1.2794 -0.1282
 1194SOL    MW4 4824   1.903   2.972   1.322  0.3667 -0.2513  0.0336
 1195SOL     OW 4825   0.741   1.089   2.601  0.1380  0.2087 -0.0726
 1195SOL    HW2 4826   0.706   1.125   2.682  0.5404 -0.0641  0.2255
 1195SOL    HW3 4827   0.679   1.022   2.575  0.9471 -0.9756  0.9922
 1195SOL    MW4 4828   0.728   1.085   2.608  0.2978  0.0165  0.1075
 1196SOL     OW 4829   3.149   1.453   2.885 -0.7219  0.4047  0.5152
 1196SOL    HW2 4830   3.071   1.400   2.905 -0.9602 -0.2025 -1.7917
 1196SOL    HW3 4831   3.122   1.507   2.810  0.8957  0.6033  0.0690
 1196SOL    MW4 4832   3.135   1.453   2.878 -0.5400  0.3507  0.1521
 1197SOL     OW 4833   1.766   0.860   2.837  0.2502 -0.4455 -0.3372
 1197SOL    HW2 4834   1.760   0.878   2.931 -2.0075 -0.0018 -0.5428
 1197SOL    HW3 4835   1.840   0.800   2.829  0.1593 -0.8831  1.8066
 1197SOL    MW4 4836   1.775   0.854   2.848 -0.0596 -0.4447 -0.0818
 1198SOL     OW 4837   1.114   1.467   2.069 -0.1528 -0.7652  0.4988
 1198SOL    HW2 4838   1.196   1.430   2.038  0.1309  0.8635 -0.7590
 1198SOL    HW3 4839   1.048   1.403   2.042  0.6792 -2.0820  1.5271
 1198SOL    MW4 4840   1.116   1.454   2.061 -0.0056 -0.7242  0.4685
 1199SOL     OW 4841   2.398   2.457   3.804  0.4239  0.1486  0.1217
 1199SOL    HW2 4842   2.486   2.420   3.804  1.0794  1.6605  1.0824
 1199SOL    HW3 4843   2.341   2.382   3.820  1.5709 -0.7640  0.0232
 1199SOL    MW4 4844   2.402   2.442   3.806  0.6616  0.2279  0.2351
 1200SOL     OW 4845   4.167   0.720   1.909  0.3331  0.0228  0.2488
 1200SOL    HW2 4846   4.077   0.721   1.941  0.6682  0.8665  1.1833
 1200SOL    HW3 4847   4.210   0.652   1.961  0.0141 -1.0547 -0.8610
 1200SOL    MW4 4848   4.161   0.711   1.920  0.3357 -0.0081  0.2258
 1201SOL     OW 4849   3.507   1.034   1.625 -0.0931 -0.0651 -0.3333
 1201SOL    HW2 4850   3.526   0.996   1.711  0.0158 -0.1185 -0.3817
 1201SOL    HW3 4851   3.578   1.096   1.609  0.1647 -0.4318 -0.6139
 1201SOL    MW4 4852   3.519   1.037   1.634 -0.0448 -0.1205 -0.3767
 1202SOL     OW 4853   4.461   2.058   1.218  0.7693 -0.0034 -0.1334
 1202SOL    HW2 4854   4.516   1.984   1.244 -0.6699 -1.4466 -1.0511
 1202SOL    HW3 4855   4.439   2.041   1.126 -2.1307 -0.1348  0.5186
 1202SOL    MW4 4856   4.465   2.046   1.209  0.1969 -0.2110 -0.1686
 1203SOL     OW 4857   1.294   4.368   3.369 -0.3207 -0.0398  0.0147
 1203SOL    HW2 4858   1.304   4.360   3.274  0.7934 -1.1154  0.2145
 1203SOL    HW3 4859   1.332   4.453   3.391  0.0254 -0.0858 -0.4133
 1203SOL    MW4 4860   1.300   4.378   3.359 -0.1280 -0.1874 -0.0155
 1204SOL     OW 4861   3.092   0.035   1.302 -0.4225 -0.0598  0.1930
 1204SOL    HW2 4862   3.016   0.062   1.354 -0.3358 -0.1424  0.3626
 1204SOL    HW3 4863   3.139   0.116   1.285 -0.6928  0.0311 -0.1463
 1204SOL    MW4 4864   3.088   0.049   1.306 -0.4468 -0.0587  0.1706
 1205SOL     OW 4865   0.049   0.585   4.439 -0.0111  0.6494 -0.2695
 1205SOL    HW2 4866   0.050   0.489   4.437 -1.8169  0.5985  0.5105
 1205SOL    HW3 4867   0.132   0.610   4.398  0.3351 -1.2338 -0.7921
 1205SOL    MW4 4868   0.060   0.575   4.433 -0.2037  0.3942 -0.2351
 1206SOL     OW 4869   1.171   3.314   4.000 -0.1276 -0.1531  0.0516
 1206SOL    HW2 4870   1.165   3.234   3.947  0.6031 -0.8455  1.0045
 1206SOL    HW3 4871   1.214   3.287   4.081 -1.2028  0.9025  1.0050
 1206SOL    MW4 4872   1.176   3.300   4.004 -0.1730 -0.1049  0.3028
 1207SOL     OW 4873   2.107   1.035   1.031 -0.2056  0.4448 -0.0193
 1207SOL    HW2 4874   2.154   1.002   1.107  0.0547 -3.4063 -1.7351
 1207SOL    HW3 4875   2.028   0.981   1.026 -0.7400  1.3459 -1.8886
 1207SOL    MW4 4876   2.102   1.023   1.041 -0.2418  0.0554 -0.4923
 1208SOL     OW 4877   2.985   0.564   1.603 -0.1658  0.6025 -0.2456
 1208SOL    HW2 4878   3.011   0.538   1.515  1.8019  1.4736  0.0591
 1208SOL    HW3 4879   2.999   0.659   1.605 -1.7276  0.8341  0.4929
 1208SOL    MW4 4880   2.990   0.573   1.592 -0.1125  0.7480 -0.1080
 1209SOL     OW 4881   1.610   3.750   2.613  0.4943 -0.0406  0.1128
 1209SOL    HW2 4882   1.610   3.827   2.671  1.7899  0.4106 -0.4739
 1209SOL    HW3 4883   1.664   3.686   2.658 -0.3090 -0.4931  0.4390
 1209SOL    MW4 4884   1.617   3.752   2.627  0.5592 -0.0408  0.0784
 1210SOL     OW 4885   1.687   2.120   1.727 -0.0460  0.0174 -0.0186
 1210SOL    HW2 4886   1.624   2.053   1.752  0.3970 -0.9869 -1.5170
 1210SOL    HW3 4887   1.772   2.075   1.730  0.2005  0.3714 -1.4903
 1210SOL    MW4 4888   1.690   2.105   1.731  0.0451 -0.0684 -0.4106
 1211SOL     OW 4889   1.881   4.315   0.534 -0.1707 -0.1750  0.1258
 1211SOL    HW2 4890   1.934   4.379   0.582 -0.9359  0.3038  0.3447
 1211SOL    HW3 4891   1.798   4.312   0.582 -0.7025 -0.1889 -0.7842
 1211SOL    MW4 4892   1.877   4.323   0.547 -0.3418 -0.1135  0.0346
 1212SOL     OW 4893   0.298   3.305   4.057 -0.2082  0.1248  0.3197
 1212SOL    HW2 4894   0.349   3.353   4.123 -0.3444  0.2384  0.3427
 1212SOL    HW3 4895   0.256   3.235   4.106 -0.4192  0.2918  0.3790
 1212SOL    MW4 4896   0.299   3.302   4.072 -0.2540  0.1616  0.3300
 1213SOL     OW 4897   0.449   0.682   1.884 -0.1368 -0.2350  0.4983
 1213SOL    HW2 4898   0.539   0.653   1.895  0.3208  1.0983  0.3447
 1213SOL    HW3 4899   0.416   0.632   1.810  0.7476 -0.1149  0.0162
 1213SOL    MW4 4900   0.456   0.672   1.876  0.0403 -0.0433  0.4144
 1214SOL     OW 4901   3.193   3.898   1.394 -0.0840 -0.2388 -0.4433
 1214SOL    HW2 4902   3.182   3.918   1.301 -0.2588  1.3702 -0.1014
 1214SOL    HW3 4903   3.108   3.916   1.433  0.0935 -0.5454  0.0926
 1214SOL    MW4 4904   3.180   3.903   1.387 -0.0837 -0.0670 -0.3273
 1215SOL     OW 4905   2.086   2.683   1.652 -0.6390  0.0885 -0.2119
 1215SOL    HW2 4906   2.150   2.724   1.710  1.1673 -0.7347 -1.5574
 1215SOL    HW3 4907   2.068   2.598   1.692  0.7306 -0.5464 -0.8992
 1215SOL    MW4 4908   2.092   2.677   1.665 -0.2198 -0.1040 -0.4802
 1216SOL     OW 4909   1.442   2.702   3.644  0.0874 -0.2852 -0.0745
 1216SOL    HW2 4910   1.495   2.671   3.570  0.3554 -0.6854  0.2796
 1216SOL    HW3 4911   1.433   2.796   3.630 -0.2470 -0.4288 -0.8609
 1216SOL    MW4 4912   1.448   2.710   3.633  0.0787 -0.3572 -0.1316
 1217SOL     OW 4913   2.771   3.016   4.531  0.8778 -0.1309  0.5822
 1217SOL    HW2 4914   2.797   3.033   4.441 -0.7419 -0.8484 -0.0362
 1217SOL    HW3 4915   2.742   3.101   4.564  4.4414  0.8516  1.5025
 1217SOL    MW4 4916   2.771   3.029   4.524  1.1344 -0.0958  0.6223
 1218SOL     OW 4917   3.985   1.845   3.682 -0.1076 -0.0507 -0.0165
 1218SOL    HW2 4918   4.026   1.910   3.740  2.6261 -0.3669 -1.4972
 1218SOL    HW3 4919   3.918   1.804   3.736 -0.1130  2.1787  1.7702
 1218SOL    MW4 4920   3.982   1.848   3.697  0.2522  0.2017  0.0238
 1219SOL     OW 4921   3.328   2.915   0.652 -0.0233  0.0675 -0.1390
 1219SOL    HW2 4922   3.305   3.006   0.667 -1.6957  0.0899 -2.5196
 1219SOL    HW3 4923   3.250   2.865   0.678 -0.2719 -0.4074 -1.7080
 1219SOL    MW4 4924   3.315   2.920   0.657 -0.2768  0.0079 -0.6601
 1220SOL     OW 4925   4.471   0.970   3.145 -0.0946 -0.6549  0.1454
 1220SOL    HW2 4926   4.438   1.014   3.067 -1.1964 -0.8822  0.4731
 1220SOL    HW3 4927   4.566   0.963   3.131 -0.0958  0.6113 -0.5038
 1220SOL    MW4 4928   4.479   0.975   3.133 -0.2403 -0.5178  0.1030
 1221SOL     OW 4929   3.674   0.379   3.362  0.2583  0.3655 -0.7883
 1221SOL    HW2 4930   3.716   0.462   3.385 -0.8894  0.6531  0.2830
 1221SOL    HW3 4931   3.582   0.391   3.385  0.0946 -1.2222 -0.5927
 1221SOL    MW4 4932   3.668   0.392   3.368  0.0854  0.1940 -0.6211
 1222SOL     OW 4933   1.371   2.097   1.488 -0.6912  0.1108  0.4311
 1222SOL    HW2 4934   1.455   2.094   1.442 -0.2724 -1.7767  1.2825
 1222SOL    HW3 4935   1.305   2.092   1.418 -0.0969  0.8581 -0.1899
 1222SOL    MW4 4936   1.373   2.096   1.473 -0.5574 -0.0398  0.4616
 1223SOL     OW 4937   1.218   1.106   0.654  0.3467  0.3895 -0.3205
 1223SOL    HW2 4938   1.282   1.176   0.665 -0.0563  0.9151 -1.2577
 1223SOL    HW3 4939   1.145   1.148   0.607 -0.0301 -0.5783 -0.5992
 1223SOL    MW4 4940   1.217   1.121   0.650  0.2438  0.3312 -0.4809
 1224SOL     OW 4941   1.329   0.340   1.128 -0.3014 -0.1411 -0.0149
 1224SOL    HW2 4942   1.382   0.417   1.110  1.4148 -1.1198  0.7242
 1224SOL    HW3 4943   1.313   0.343   1.222 -0.4366 -0.5481 -0.0223
 1224SOL    MW4 4944   1.334   0.350   1.138 -0.0927 -0.3240  0.0815
 1225SOL     OW 4945   1.997   1.726   2.349 -0.1956 -0.8051  0.5305
 1225SOL    HW2 4946   1.969   1.776   2.425  1.7218 -3.3084  3.0268
 1225SOL    HW3 4947   1.927   1.663   2.335  0.5681 -2.0245  1.9338
 1225SOL    MW4 4948   1.984   1.724   2.357  0.1581 -1.2963  1.0450
 1226SOL     OW 4949   3.344   3.221   0.538 -0.0412 -0.0667  0.0892
 1226SOL    HW2 4950   3.297   3.279   0.478 -0.9005 -0.9255 -0.0803
 1226SOL    HW3 4951   3.415   3.184   0.485  1.7228  2.3035  0.7227
 1226SOL    MW4 4952   3.347   3.224   0.523  0.0780  0.1328  0.1503
 1227SOL     OW 4953   3.632   3.204   1.309 -0.0261 -0.2005  0.1955
 1227SOL    HW2 4954   3.623   3.110   1.325 -3.1128 -0.6064 -3.1888
 1227SOL    HW3 4955   3.551   3.243   1.342  0.4238  0.9945 -0.0760
 1227SOL    MW4 4956   3.620   3.197   1.315 -0.3741 -0.0966 -0.2869
 1228SOL     OW 4957   2.751   0.710   4.393 -0.0365  0.0234  0.7031
 1228SOL    HW2 4958   2.765   0.617   4.377  1.3574  0.4372 -0.6667
 1228SOL    HW3 4959   2.838   0.745   4.411 -0.4951  1.1106  0.8669
 1228SOL    MW4 4960   2.764   0.702   4.393  0.0868  0.2214  0.5441
 1229SOL     OW 4961   2.366   4.666   3.516  0.8778  0.3307  0.4821
 1229SOL    HW2 4962   2.322   4.741   3.475 -2.7502 -0.0463  3.4632
 1229SOL    HW3 4963   2.339   4.590   3.464  0.4564  0.4738  0.4947
 1229SOL    MW4 4964   2.357   4.666   3.504  0.3433  0.2999  0.8774
 1230SOL     OW 4965   4.346   3.964   1.150  0.9694  0.8714 -0.3505
 1230SOL    HW2 4966   4.288   3.932   1.081  1.7450  0.2746 -0.7282
 1230SOL    HW3 4967   4.432   3.970   1.109  1.4799  0.3032  0.6256
 1230SOL    MW4 4968   4.350   3.961   1.135  1.1387  0.7174 -0.2717
 1231SOL     OW 4969   3.293   0.652   1.472  0.0841 -0.0701 -0.1880
 1231SOL    HW2 4970   3.345   0.612   1.541  0.0329  0.1838 -0.0011
 1231SOL    HW3 4971   3.350   0.719   1.435  0.5258 -0.9540 -1.1464
 1231SOL    MW4 4972   3.307   0.655   1.476  0.1357 -0.1532 -0.2899
 1232SOL     OW 4973   0.642   2.402   0.476  0.4831 -0.0867  0.1750
 1232SOL    HW2 4974   0.720   2.452   0.449  0.3138  0.7238  1.1823
 1232SOL    HW3 4975   0.677   2.325   0.520  0.7252 -0.0595  0.0330
 1232SOL    MW4 4976   0.657   2.399   0.478  0.4928  0.0236  0.2892
 1233SOL     OW 4977   3.680   4.582   2.827  0.1620  0.1597 -0.1830
 1233SOL    HW2 4978   3.636   4.662   2.799  0.8098  0.8165  0.6322
 1233SOL    HW3 4979   3.751   4.612   2.884 -1.0111 -1.0968  2.0509
 1233SOL    MW4 4980   3.683   4.596   2.831  0.0927  0.0811  0.2193
 1234SOL     OW 4981   2.703   4.444   2.499  0.0638  0.0458  0.2922
 1234SOL    HW2 4982   2.638   4.396   2.448  1.2208 -0.8583 -0.3608
 1234SOL    HW3 4983   2.676   4.430   2.590 -0.0985 -1.1421  0.0709
 1234SOL    MW4 4984   2.691   4.436   2.505  0.1950 -0.2303  0.1769
 1235SOL     OW 4985   2.416   1.104   3.593 -0.2692  0.2072 -0.1316
 1235SOL    HW2 4986   2.508   1.097   3.568 -0.4008 -1.3022 -0.2288
 1235SOL    HW3 4987   2.418   1.131   3.685  0.2436  1.7084 -0.5670
 1235SOL    MW4 4988   2.428   1.107   3.602 -0.2193  0.2060 -0.2017
 1236SOL     OW 4989   3.479   0.585   1.015  0.2209  0.0806 -0.0476
 1236SOL    HW2 4990   3.424   0.585   1.093  0.8873 -0.1767  0.4269
 1236SOL    HW3 4991   3.479   0.676   0.985 -2.2378 -0.2991 -1.3284
 1236SOL    MW4 4992   3.472   0.597   1.021 -0.0155 -0.0035 -0.1540
 1237SOL     OW 4993   0.796   0.713   0.658  0.2401 -0.2192  0.3509
 1237SOL    HW2 4994   0.744   0.712   0.738 -1.7000  0.4515 -0.8735
 1237SOL    HW3 4995   0.862   0.780   0.673 -0.8248  0.7025  0.9536
 1237SOL    MW4 4996   0.798   0.722   0.670 -0.1563 -0.0091  0.2688
 1238SOL     OW 4997   0.807   1.420   1.865  0.1189  0.1477 -0.0837
 1238SOL    HW2 4998   0.722   1.430   1.822 -0.5488  0.9716  1.3850
 1238SOL    HW3 4999   0.792   1.452   1.954  1.7139 -0.6626  0.4795
 1238SOL    MW4 5000   0.794   1.426   1.871  0.2413  0.1495  0.1844
 1239SOL     OW 5001   3.986   2.909   3.898  0.1298  0.1837  0.2026
 1239SOL    HW2 5002   3.993   2.856   3.977 -1.9212  0.3361  0.5226
 1239SOL    HW3 5003   3.964   2.997   3.930  0.7260  0.5814 -0.4667
 1239SOL    MW4 5004   3.984   2.914   3.912 -0.0622  0.2561  0.1564
 1240SOL     OW 5005   3.845   2.221   4.451 -0.5610  0.5151 -0.2216
 1240SOL    HW2 5006   3.801   2.181   4.377 -0.4296 -1.7540  0.8658
 1240SOL    HW3 5007   3.932   2.181   4.451  0.1343  1.9897 -0.0090
 1240SOL    MW4 5008   3.851   2.210   4.441 -0.4518  0.4103 -0.0496
 1241SOL     OW 5009   3.156   3.553   2.629 -0.6297  0.2881  0.6577
 1241SOL    HW2 5010   3.116   3.596   2.705 -1.1626  0.5798  0.2121
 1241SOL    HW3 5011   3.121   3.600   2.554  1.9149  1.7191  0.3261
 1241SOL    MW4 5012   3.146   3.565   2.629 -0.3641  0.5152  0.5548
 1242SOL     OW 5013   3.354   4.188   2.634 -0.5892  0.0917 -0.1514
 1242SOL    HW2 5014   3.445   4.197   2.603 -0.6438  1.0323 -0.0428
 1242SOL    HW3 5015   3.304   4.171   2.554 -0.3914  0.1088 -0.2815
 1242SOL    MW4 5016   3.360   4.187   2.619 -0.5703  0.2174 -0.1543
 1243SOL     OW 5017   4.230   1.541   2.407 -0.0024  0.1054  0.1333
 1243SOL    HW2 5018   4.222   1.557   2.313 -0.4726  1.3645  0.3748
 1243SOL    HW3 5019   4.144   1.509   2.434  0.4199 -1.1771 -0.0366
 1243SOL    MW4 5020   4.218   1.539   2.398 -0.0086  0.1022  0.1426
 1244SOL     OW 5021   3.520   0.147   2.841  0.4029  0.2418  0.3266
 1244SOL    HW2 5022   3.472   0.110   2.916  0.3888 -2.3025 -0.8998
 1244SOL    HW3 5023   3.457   0.147   2.770  0.7692  1.5641 -0.0115
 1244SOL    MW4 5024   3.505   0.142   2.842  0.4494  0.0806  0.1204
 1245SOL     OW 5025   3.314   4.574   4.119  0.1382 -0.1121  0.3569
 1245SOL    HW2 5026   3.391   4.524   4.147  1.4252  0.5490 -1.9181
 1245SOL    HW3 5027   3.241   4.512   4.127  1.3154 -1.5616  0.0467
 1245SOL    MW4 5028   3.315   4.559   4.124  0.4632 -0.2165  0.0153
 1246SOL     OW 5029   1.799   0.645   1.906  0.5702  0.0621  0.2603
 1246SOL    HW2 5030   1.799   0.654   1.810 -1.0817 -0.0999  0.2347
 1246SOL    HW3 5031   1.719   0.598   1.926  1.8973 -1.7078  1.5879
 1246SOL    MW4 5032   1.789   0.640   1.896  0.5274 -0.1927  0.4319
 1247SOL     OW 5033   2.135   0.284   3.001 -0.0613 -0.1247  0.3289
 1247SOL    HW2 5034   2.191   0.221   3.046  1.4385 -1.5609 -3.3495
 1247SOL    HW3 5035   2.051   0.239   2.992 -0.1686 -0.0835  1.1329
 1247SOL    MW4 5036   2.131   0.270   3.006  0.1223 -0.3088 -0.0501
 1248SOL     OW 5037   1.024   1.987   3.950 -0.0775 -0.1574  0.2442
 1248SOL    HW2 5038   1.078   1.920   3.991 -0.3642  0.4131  1.6254
 1248SOL    HW3 5039   1.056   1.994   3.860 -0.3184 -2.3991 -0.0263
 1248SOL    MW4 5040   1.035   1.979   3.944 -0.1470 -0.3780  0.3908
 1249SOL     OW 5041   4.051   1.073   1.866 -0.2822 -0.2420  0.1408
 1249SOL    HW2 5042   4.056   1.168   1.879 -0.5259 -0.2085 -0.0114
 1249SOL    HW3 5043   4.135   1.040   1.898 -0.1942  0.0266  0.1875
 1249SOL    MW4 5044   4.063   1.081   1.872 -0.3028 -0.2022  0.1270
 1250SOL     OW 5045   2.772   1.752   0.988  0.3054  0.4808  0.2931
 1250SOL    HW2 5046   2.804   1.835   1.023 -0.0085  1.8652 -2.5464
 1250SOL    HW3 5047   2.787   1.689   1.058 -1.1072  3.2504  3.1944
 1250SOL    MW4 5048   2.778   1.755   1.002  0.0775  1.0288  0.3012
 1251SOL     OW 5049   2.285   4.324   2.566  0.1497  0.2332 -0.6384
 1251SOL    HW2 5050   2.302   4.411   2.529  1.2256  0.2364 -0.1413
 1251SOL    HW3 5051   2.267   4.341   2.658  1.2260 -0.1597 -0.3544
 1251SOL    MW4 5052   2.285   4.338   2.573  0.4337  0.1822 -0.5355
 1252SOL     OW 5053   3.555   4.557   2.368  0.0868  0.1823 -0.1336
 1252SOL    HW2 5054   3.521   4.470   2.349  0.5387  0.0245 -0.2188
 1252SOL    HW3 5055   3.571   4.596   2.282 -0.8476  0.6399 -0.1101
 1252SOL    MW4 5056   3.553   4.551   2.354  0.0231  0.2217 -0.1419
 1253SOL     OW 5057   3.578   4.228   0.771 -0.4497  0.2641  0.1620
 1253SOL    HW2 5058   3.556   4.198   0.859 -2.0444  0.6212 -0.1065
 1253SOL    HW3 5059   3.600   4.321   0.782  0.0908  0.1271  0.2855
 1253SOL    MW4 5060   3.578   4.237   0.784 -0.5889  0.2933  0.1428
 1254SOL     OW 5061   2.198   0.112   2.432  0.2793 -0.3079 -0.2727
 1254SOL    HW2 5062   2.123   0.090   2.377  1.3666 -1.2709 -1.3983
 1254SOL    HW3 5063   2.235   0.191   2.392  0.0257  0.0209  0.1350
 1254SOL    MW4 5064   2.193   0.120   2.420  0.3896 -0.3916 -0.3676
 1255SOL     OW 5065   0.778   0.556   3.942  0.2103  0.0242 -0.0202
 1255SOL    HW2 5066   0.720   0.511   4.003 -2.0435  0.7081 -1.5942
 1255SOL    HW3 5067   0.822   0.486   3.893 -0.4535 -0.4872  0.1132
 1255SOL    MW4 5068   0.776   0.541   3.944 -0.1746  0.0470 -0.2103
 1256SOL     OW 5069   1.487   1.387   4.665  0.6233  0.2386  0.3208
 1256SOL    HW2 5070   1.399   1.352   4.680  1.0775 -1.2809 -0.4433
 1256SOL    HW3 5071   1.508   1.434   4.745 -0.3087 -0.6374  1.0933
 1256SOL    MW4 5072   1.478   1.389   4.677  0.5603 -0.0774  0.3219
 1257SOL     OW 5073   0.906   2.586   2.180 -0.3276 -0.2666 -0.2201
 1257SOL    HW2 5074   0.936   2.636   2.105 -1.6683 -1.1450 -1.3857
 1257SOL    HW3 5075   0.922   2.495   2.156 -1.3131 -0.5896  0.2922
 1257SOL    MW4 5076   0.912   2.580   2.167 -0.6345 -0.4251 -0.3064
 1258SOL     OW 5077   2.915   0.053   4.204 -0.1063 -0.4463 -0.3548
 1258SOL    HW2 5078   2.888   0.094   4.286  2.7554 -0.6321  0.7574
 1258SOL    HW3 5079   2.889  -0.039   4.213  0.1230 -0.4466  0.3343
 1258SOL    MW4 5080   2.908   0.046   4.216  0.3016 -0.4708 -0.1173
 1259SOL     OW 5081   4.348   3.637   1.742  0.1354 -0.2851 -0.6710
 1259SOL    HW2 5082   4.377   3.546   1.729  2.4543  0.5249 -1.3404
 1259SOL    HW3 5083   4.412   3.689   1.694 -0.8005  1.7596  0.2805
 1259SOL    MW4 5084   4.360   3.632   1.734  0.3181  0.0913 -0.6337
 1260SOL     OW 5085   2.722   0.312   2.156 -0.4856  0.2482 -0.4549
 1260SOL    HW2 5086   2.658   0.297   2.225  1.9417  0.5684  1.9141
 1260SOL    HW3 5087   2.685   0.269   2.079 -2.5617 -1.3348  1.3781
 1260SOL    MW4 5088   2.709   0.305   2.155 -0.4394  0.0816  0.0997
 1261SOL     OW 5089   1.998   2.819   3.207  0.5250  0.4375 -0.4501
 1261SOL    HW2 5090   2.003   2.744   3.267 -0.0452  1.0241  0.3376
 1261SOL    HW3 5091   2.086   2.856   3.207  1.0198 -0.7175 -1.4741
 1261SOL    MW4 5092   2.010   2.814   3.215  0.5150  0.3624 -0.4811
 1262SOL     OW 5093   3.404   0.221   2.224  0.3742 -0.0402 -0.6623
 1262SOL    HW2 5094   3.357   0.145   2.190 -0.2421 -0.2559  0.6346
 1262SOL    HW3 5095   3.410   0.281   2.150 -1.7149 -0.1154 -0.9300
 1262SOL    MW4 5096   3.399   0.219   2.210  0.0172 -0.0785 -0.5264
 1263SOL     OW 5097   0.451   3.668   2.556  0.0519  0.2677  0.4201
 1263SOL    HW2 5098   0.520   3.672   2.489  1.9588 -0.6384  2.2812
 1263SOL    HW3 5099   0.387   3.607   2.519  1.3933 -0.7246 -0.3394
 1263SOL    MW4 5100   0.451   3.660   2.542  0.4804  0.0172  0.5655
 1264SOL     OW 5101   2.906   3.345   1.022 -0.0533  0.1667  0.0096
 1264SOL    HW2 5102   2.900   3.430   0.977  0.7576 -0.0728 -0.5451
 1264SOL    HW3 5103   2.864   3.361   1.107 -1.4104  0.6781 -0.7349
 1264SOL    MW4 5104   2.899   3.358   1.027 -0.1254  0.2024 -0.1619
 1265SOL     OW 5105   1.468   0.523   4.545 -0.1742 -0.4380  0.3944
 1265SOL    HW2 5106   1.491   0.430   4.551  2.0235  0.0875  0.8859
 1265SOL    HW3 5107   1.550   0.568   4.566 -1.0282  1.6076 -0.5856
 1265SOL    MW4 5108   1.482   0.516   4.549  0.0031 -0.0988  0.3300
 1266SOL     OW 5109   0.585   4.546   2.559 -0.0326  0.3599  0.2375
 1266SOL    HW2 5110   0.522   4.488   2.518 -0.3634  0.6779  0.2905
 1266SOL    HW3 5111   0.531   4.608   2.609  0.1776  2.3212 -1.9013
 1266SOL    MW4 5112   0.569   4.547   2.560 -0.0486  0.6609 -0.0379
 1267SOL     OW 5113   4.364   2.304   4.028  0.2505 -0.0169 -0.5423
 1267SOL    HW2 5114   4.390   2.214   4.006  1.8282  0.4352 -0.5916
 1267SOL    HW3 5115   4.365   2.351   3.945  0.3727  0.2753 -0.3759
 1267SOL    MW4 5116   4.368   2.298   4.014  0.4745  0.0813 -0.5269
 1268SOL     OW 5117   3.765   3.576   0.905 -0.3229  0.2224 -0.1341
 1268SOL    HW2 5118   3.697   3.544   0.847 -1.1003  1.1171  0.2818
 1268SOL    HW3 5119   3.734   3.553   0.993 -1.1542  2.5725  0.2157
 1268SOL    MW4 5120   3.752   3.569   0.909 -0.5348  0.6502 -0.0331
 1269SOL     OW 5121   3.446   0.704   2.934 -0.7650 -0.1295 -0.0454
 1269SOL    HW2 5122   3.460   0.658   3.016  0.2126 -1.1435 -0.7607
 1269SOL    HW3 5123   3.533   0.707   2.893 -0.9831  1.5258 -0.4373
 1269SOL    MW4 5124   3.460   0.698   2.939 -0.6647 -0.0448 -0.1912
 1270SOL     OW 5125   0.843   2.742   0.909  0.3080 -0.2351  0.3282
 1270SOL    HW2 5126   0.814   2.656   0.878  0.4210 -0.1621  0.0258
 1270SOL    HW3 5127   0.937   2.743   0.892  0.1863  0.2242 -0.3043
 1270SOL    MW4 5128   0.852   2.731   0.903  0.3068 -0.1647  0.2048
 1271SOL     OW 5129   0.200   3.038   3.681 -0.0774  0.2085  0.2705
 1271SOL    HW2 5130   0.142   2.973   3.641  1.2766 -1.5464  1.0533
 1271SOL    HW3 5131   0.151   3.120   3.678 -1.7970 -0.8269 -0.8350
 1271SOL    MW4 5132   0.186   3.040   3.675 -0.1256 -0.1597  0.2279
 1272SOL     OW 5133   2.540   2.809   3.988 -0.6336 -0.2465  0.0901
 1272SOL    HW2 5134   2.527   2.792   3.895 -0.3280 -1.0837  0.1960
 1272SOL    HW3 5135   2.634   2.816   3.999 -0.6306 -0.8725  0.4613
 1272SOL    MW4 5136   2.550   2.808   3.978 -0.5929 -0.4392  0.1528
 1273SOL     OW 5137   1.616   3.911   1.363 -0.3003 -0.7809 -0.0566
 1273SOL    HW2 5138   1.529   3.871   1.372 -1.2077  1.1167 -0.2384
 1273SOL    HW3 5139   1.659   3.893   1.447 -1.9693  0.8285  1.1750
 1273SOL    MW4 5140   1.610   3.903   1.375 -0.6402 -0.3181  0.0818
 1274SOL     OW 5141   3.351   4.123   2.084  0.1002 -0.1505 -0.4110
 1274SOL    HW2 5142   3.387   4.210   2.096  0.3267 -0.3243  0.1837
 1274SOL    HW3 5143   3.361   4.105   1.990  0.0094  0.4783 -0.5387
 1274SOL    MW4 5144   3.357   4.132   2.073  0.1178 -0.0906 -0.3495
 1275SOL     OW 5145   1.117   0.337   0.946 -0.6955 -0.6780  0.6316
 1275SOL    HW2 5146   1.142   0.312   0.857 -0.1626 -0.3154  0.6746
 1275SOL    HW3 5147   1.200   0.341   0.993 -0.9526 -0.6018  1.0764
 1275SOL    MW4 5148   1.132   0.334   0.940 -0.6591 -0.6201  0.6959
 1276SOL     OW 5149   3.801   3.375   3.299 -0.5476  0.3182  0.1459
 1276SOL    HW2 5150   3.860   3.450   3.296 -1.7976  1.4176  1.9421
 1276SOL    HW3 5151   3.715   3.412   3.276 -0.8107 -0.9699 -0.9855
 1276SOL    MW4 5152   3.797   3.390   3.296 -0.7472  0.2933  0.2337
 1277SOL     OW 5153   1.763   3.394   1.684 -0.1051 -0.0403 -0.1954
 1277SOL    HW2 5154   1.858   3.402   1.697 -0.0628  0.6801 -0.9173
 1277SOL    HW3 5155   1.740   3.469   1.630 -1.4178  0.8960  1.6175
 1277SOL    MW4 5156   1.773   3.405   1.679 -0.2726  0.1781 -0.0515
 1278SOL     OW 5157   2.380   3.207   2.570  0.1638  0.0331  0.0237
 1278SOL    HW2 5158   2.362   3.153   2.646  0.0925  0.2150  0.1384
 1278SOL    HW3 5159   2.457   3.168   2.529 -1.4844 -1.7952 -1.4437
 1278SOL    MW4 5160   2.388   3.195   2.575 -0.0632 -0.1843 -0.1545
 1279SOL     OW 5161   0.065   2.364   4.227  0.0567  0.0131  0.1367
 1279SOL    HW2 5162   0.000   2.361   4.157  0.1820 -0.2776  0.0329
 1279SOL    HW3 5163   0.131   2.426   4.196 -1.5615  2.5012  1.4451
 1279SOL    MW4 5164   0.066   2.372   4.214 -0.1402  0.3030  0.2956
 1280SOL     OW 5165   2.404   2.053   1.327 -0.0464  0.4440 -0.1956
 1280SOL    HW2 5166   2.395   1.973   1.275  2.3469  0.7507 -1.1183
 1280SOL    HW3 5167   2.380   2.026   1.416 -1.0520 -0.8407 -0.8262
 1280SOL    MW4 5168   2.400   2.039   1.332  0.1371  0.3147 -0.4005
 1281SOL     OW 5169   4.112   1.595   3.667 -0.6505 -0.3326  0.0004
 1281SOL    HW2 5170   4.062   1.539   3.607 -1.3574  0.9042 -0.5793
 1281SOL    HW3 5171   4.056   1.672   3.680  0.3217  0.2515  0.7850
 1281SOL    MW4 5172   4.098   1.598   3.661 -0.6161 -0.0925  0.0274
 1282SOL     OW 5173   3.620   1.907   2.361 -0.2974 -0.2329  0.3244
 1282SOL    HW2 5174   3.570   1.912   2.442 -1.2686  0.2606 -0.2914
 1282SOL    HW3 5175   3.553   1.899   2.292  0.4855  0.0505 -0.4747
 1282SOL    MW4 5176   3.604   1.907   2.362 -0.3223 -0.1304  0.1378
 1283SOL     OW 5177   3.736   0.273   4.526 -0.3568  0.7680  0.3287
 1283SOL    HW2 5178   3.798   0.230   4.585 -0.1828  1.6261  0.7696
 1283SOL    HW3 5179   3.768   0.250   4.438  0.5672  1.1823  0.5505
 1283SOL    MW4 5180   3.748   0.264   4.522 -0.2117  0.9359  0.4163
 1284SOL     OW 5181   1.411   4.243   4.094 -0.0692 -0.1732 -0.2121
 1284SOL    HW2 5182   1.360   4.323   4.090 -1.8985 -1.2608  0.5763
 1284SOL    HW3 5183   1.416   4.222   4.188  0.3362 -1.0012 -0.4112
 1284SOL    MW4 5184   1.405   4.250   4.106 -0.2570 -0.4263 -0.1345
 1285SOL     OW 5185   3.725   3.178   1.785 -0.5138 -0.1242 -0.9475
 1285SOL    HW2 5186   3.719   3.271   1.760  0.3569  0.6573  1.5732
 1285SOL    HW3 5187   3.635   3.148   1.786 -0.7835  0.6078 -2.0995
 1285SOL    MW4 5188   3.713   3.187   1.782 -0.4346  0.0753 -0.7668
 1286SOL     OW 5189   3.687   3.102   0.604 -0.0008  0.1998  0.3497
 1286SOL    HW2 5190   3.635   3.149   0.669  0.9027 -0.2186  1.3887
 1286SOL    HW3 5191   3.775   3.139   0.612  0.4108 -0.7317  0.2676
 1286SOL    MW4 5192   3.692   3.113   0.614  0.1729  0.0217  0.4759
 1287SOL     OW 5193   3.463   0.342   3.132 -0.6085 -0.4441  0.0444
 1287SOL    HW2 5194   3.513   0.343   3.050  0.9775  0.0983  0.9802
 1287SOL    HW3 5195   3.524   0.306   3.196 -1.9180 -1.0981  0.9416
 1287SOL    MW4 5196   3.478   0.337   3.130 -0.5720 -0.4588  0.2861
 1288SOL     OW 5197   1.910   0.499   1.312 -0.2112 -0.3599  0.0957
 1288SOL    HW2 5198   1.981   0.559   1.333 -0.4039 -1.1176  3.2095
 1288SOL    HW3 5199   1.831   0.544   1.344 -0.7843 -0.7681 -0.7329
 1288SOL    MW4 5200   1.909   0.513   1.319 -0.3122 -0.5137  0.3972
 1289SOL     OW 5201   4.428   3.334   3.128 -1.0032  0.1564  0.0064
 1289SOL    HW2 5202   4.334   3.331   3.147 -0.9225 -2.6161  0.2041
 1289SOL    HW3 5203   4.434   3.306   3.036 -0.2559 -1.5872  0.5623
 1289SOL    MW4 5204   4.416   3.330   3.118 -0.8941 -0.4392  0.1059
 1290SOL     OW 5205   1.376   0.083   2.083  0.5901  0.4002 -0.7029
 1290SOL    HW2 5206   1.283   0.099   2.096  0.6793  0.9865 -0.7521
 1290SOL    HW3 5207   1.404   0.034   2.160  0.2844  0.4021 -0.5933
 1290SOL    MW4 5208   1.367   0.079   2.095  0.5616  0.4778 -0.6950
 1291SOL     OW 5209   4.284   2.387   1.556  0.2605  0.1888  0.0405
 1291SOL    HW2 5210   4.247   2.368   1.469  0.4389 -2.1001  0.4153
 1291SOL    HW3 5211   4.356   2.448   1.538 -0.1843  0.3413 -1.3336
 1291SOL    MW4 5212   4.288   2.392   1.542  0.2255 -0.0932 -0.0913
 1292SOL     OW 5213   0.153   1.860   2.369 -0.3364  0.6880 -0.1332
 1292SOL    HW2 5214   0.099   1.938   2.356 -0.2213  1.0880  1.6814
 1292SOL    HW3 5215   0.111   1.813   2.441 -0.4872 -1.0229 -1.2963
 1292SOL    MW4 5216   0.140   1.864   2.377 -0.3411  0.5150 -0.0472
 1293SOL     OW 5217   2.305   3.770   1.806 -0.3707 -0.0997  0.0438
 1293SOL    HW2 5218   2.291   3.681   1.773  1.3075  0.1955 -1.5835
 1293SOL    HW3 5219   2.280   3.766   1.898 -2.0090 -1.8038 -0.4432
 1293SOL    MW4 5220   2.300   3.758   1.814 -0.3655 -0.2856 -0.2352
 1294SOL     OW 5221   3.786   2.709   3.892  0.0561 -0.0242  0.1244
 1294SOL    HW2 5222   3.855   2.720   3.826  0.3666  0.0707  0.4637
 1294SOL    HW3 5223   3.767   2.798   3.922 -0.8657  0.0437 -0.6228
 1294SOL    MW4 5224   3.793   2.722   3.887 -0.0246 -0.0029  0.0706
 1295SOL     OW 5225   3.459   0.049   2.583  0.2753  0.6651 -0.0559
 1295SOL    HW2 5226   3.510   0.006   2.514  0.8243  1.5352 -0.1919
 1295SOL    HW3 5227   3.392   0.099   2.537 -1.4171 -1.3331  0.1501
 1295SOL    MW4 5228   3.457   0.050   2.568  0.1245  0.5164 -0.0467
 1296SOL     OW 5229   1.892   4.240   1.149  0.0529 -0.4687  0.2349
 1296SOL    HW2 5230   1.926   4.266   1.063 -0.5793  3.0196  0.9609
 1296SOL    HW3 5231   1.969   4.212   1.198  0.7858  0.0050 -0.6290
 1296SOL    MW4 5232   1.906   4.240   1.144  0.0662  0.0544  0.2166
 1297SOL     OW 5233   2.493   2.162   4.005 -0.5662  0.3063  0.0102
 1297SOL    HW2 5234   2.403   2.156   3.974 -0.9128  1.2442  0.7995
 1297SOL    HW3 5235   2.545   2.122   3.936 -1.7627 -2.1056  0.4633
 1297SOL    MW4 5236   2.488   2.156   3.992 -0.7699  0.1118  0.1743
 1298SOL     OW 5237   0.299   1.515   3.570 -0.1756  0.2439 -0.3118
 1298SOL    HW2 5238   0.236   1.442   3.563  0.4499 -0.3918  0.5908
 1298SOL    HW3 5239   0.245   1.592   3.583 -0.7793 -0.3233  0.6222
 1298SOL    MW4 5240   0.284   1.515   3.571 -0.1727  0.0854 -0.0694
 1299SOL     OW 5241   4.217   2.584   0.675 -0.2725 -0.3482  0.2477
 1299SOL    HW2 5242   4.129   2.613   0.698 -0.8617 -1.1681 -0.8807
 1299SOL    HW3 5243   4.237   2.629   0.593  0.1897 -0.4688  0.2909
 1299SOL    MW4 5244   4.208   2.593   0.667 -0.2894 -0.4723  0.1045
 1300SOL     OW 5245   3.480   2.344   4.365 -0.1991  0.5034  0.2525
 1300SOL    HW2 5246   3.444   2.321   4.450  1.1384  0.1430  0.7353
 1300SOL    HW3 5247   3.507   2.436   4.374  1.5529 -0.0532  0.7844
 1300SOL    MW4 5248   3.479   2.353   4.377  0.2086  0.3824  0.3867
 1301SOL     OW 5249   1.734   2.748   3.961 -0.2484 -0.0357 -0.0720
 1301SOL    HW2 5250   1.809   2.710   3.915  0.6118 -1.7155  2.6363
 1301SOL    HW3 5251   1.658   2.700   3.928  0.3449 -1.0996  0.1024
 1301SOL    MW4 5252   1.734   2.737   3.951 -0.0566 -0.3974  0.3088
 1302SOL     OW 5253   0.444   1.605   0.897  0.3838  0.4159  0.2278
 1302SOL    HW2 5254   0.364   1.624   0.849  0.6033 -0.3837 -0.4749
 1302SOL    HW3 5255   0.415   1.579   0.984 -0.0287  1.7126  0.4849
 1302SOL    MW4 5256   0.430   1.604   0.902  0.3583  0.4815  0.1689
 1303SOL     OW 5257   2.859   4.428   1.909 -0.5612  0.0707  0.9148
 1303SOL    HW2 5258   2.781   4.394   1.865  0.8353 -0.3782 -1.2784
 1303SOL    HW3 5259   2.826   4.495   1.969 -2.5937  0.1869 -0.3025
 1303SOL    MW4 5260   2.845   4.432   1.911 -0.6449  0.0262  0.4648
 1304SOL     OW 5261   2.776   3.350   2.212 -0.5592 -0.0147 -0.2613
 1304SOL    HW2 5262   2.784   3.389   2.299  0.1749  0.0046 -0.3396
 1304SOL    HW3 5263   2.844   3.283   2.209 -0.3947  0.1812 -0.9336
 1304SOL    MW4 5264   2.786   3.346   2.223 -0.4406  0.0138 -0.3600
 1305SOL     OW 5265   2.090   0.518   2.473 -0.0405  0.1456 -0.2685
 1305SOL    HW2 5266   2.118   0.609   2.465 -1.3508  0.5914  0.0954
 1305SOL    HW3 5267   1.995   0.523   2.477 -0.1566 -1.3009 -1.0036
 1305SOL    MW4 5268   2.081   0.531   2.472 -0.2289  0.0135 -0.3176
 1306SOL     OW 5269   1.708   4.535   1.850  0.1547  0.4122 -0.1126
 1306SOL    HW2 5270   1.648   4.606   1.825  0.1526  0.6312  0.4961
 1306SOL    HW3 5271   1.659   4.485   1.916  0.9689  1.0999  1.0206
 1306SOL    MW4 5272   1.694   4.538   1.855  0.2619  0.5322  0.1173
 1307SOL     OW 5273   3.175   4.460   0.974  0.2057 -1.1853  0.6897
 1307SOL    HW2 5274   3.199   4.458   1.066  0.7466 -0.6727  0.5618
 1307SOL    HW3 5275   3.093   4.508   0.971  1.3879  0.9039  0.6523
 1307SOL    MW4 5276   3.168   4.466   0.986  0.4332 -0.8421  0.6679
 1308SOL     OW 5277   3.630   0.069   2.180 -0.6771  0.3625 -0.0975
 1308SOL    HW2 5278   3.561   0.133   2.201  0.3871  1.3785  0.3685
 1308SOL    HW3 5279   3.711   0.115   2.200  0.0610 -1.7028  1.7659
 1308SOL    MW4 5280   3.631   0.084   2.185 -0.4394  0.2240  0.2098
 1309SOL     OW 5281   1.570   2.332   1.074 -0.3820  0.2381 -0.1702
 1309SOL    HW2 5282   1.479   2.316   1.100 -0.4421 -0.3113 -0.6907
 1309SOL    HW3 5283   1.563   2.372   0.987 -0.1356  0.4855 -0.0757
 1309SOL    MW4 5284   1.557   2.335   1.066 -0.3575  0.1981 -0.2265
 1310SOL     OW 5285   2.720   2.067   2.058 -0.4041 -0.3212 -0.0912
 1310SOL    HW2 5286   2.686   2.049   1.970  1.7755 -1.0618 -0.8224
 1310SOL    HW3 5287   2.716   2.162   2.067  0.4538 -0.1435 -1.4603
 1310SOL    MW4 5288   2.715   2.077   2.048 -0.0033 -0.3955 -0.3684
 1311SOL     OW 5289   4.359   3.579   2.178 -0.0099 -0.0563  0.3081
 1311SOL    HW2 5290   4.399   3.616   2.099  2.3578  1.2386  2.0636
 1311SOL    HW3 5291   4.269   3.613   2.176  0.6717  1.7906 -0.6832
 1311SOL    MW4 5292   4.352   3.588   2.167  0.3929  0.3581  0.4089
 1312SOL     OW 5293   3.263   4.025   3.005 -0.0164 -0.1349 -0.2364
 1312SOL    HW2 5294   3.249   4.005   2.912  2.1347  0.4899 -0.7275
 1312SOL    HW3 5295   3.358   4.023   3.015 -0.2498 -0.6476  2.0743
 1312SOL    MW4 5296   3.274   4.022   2.994  0.2365 -0.1202  0.0038
 1313SOL     OW 5297   2.641   2.287   3.705  0.0197 -0.7692 -0.1922
 1313SOL    HW2 5298   2.721   2.241   3.681  1.0032 -0.7774  2.9504
 1313SOL    HW3 5299   2.667   2.379   3.709 -1.2481 -0.1885 -3.5579
 1313SOL    MW4 5300   2.655   2.293   3.702 -0.0179 -0.6936 -0.2215
 1314SOL     OW 5301   2.073   3.988   1.936 -0.4065  0.4713 -0.0390
 1314SOL    HW2 5302   2.033   3.927   1.874 -1.6586  1.1248  0.1187
 1314SOL    HW3 5303   2.017   4.065   1.934  0.2690  0.9992  0.9532
 1314SOL    MW4 5304   2.061   3.990   1.927 -0.4823  0.6273  0.1127
 1315SOL     OW 5305   2.022   3.126   1.603  0.5145  0.5418 -0.6295
 1315SOL    HW2 5306   2.025   3.173   1.519  2.8699  1.0252 -0.3087
 1315SOL    HW3 5307   2.092   3.062   1.597  0.2924  0.1553  0.7289
 1315SOL    MW4 5308   2.031   3.124   1.591  0.7958  0.5543 -0.4079
 1316SOL     OW 5309   2.536   4.516   1.251 -0.0162 -0.0842  0.3311
 1316SOL    HW2 5310   2.488   4.448   1.298  0.4533 -0.1817  0.6685
 1316SOL    HW3 5311   2.482   4.595   1.260 -1.0519 -0.6321 -0.8827
 1316SOL    MW4 5312   2.523   4.518   1.258 -0.0908 -0.1693  0.2156
 1317SOL     OW 5313   2.739   2.445   1.821 -0.8123  0.7788 -0.0626
 1317SOL    HW2 5314   2.765   2.501   1.748  1.6789  1.3608  1.2455
 1317SOL    HW3 5315   2.703   2.367   1.778 -0.7881  1.7459 -1.9059
 1317SOL    MW4 5316   2.737   2.442   1.806 -0.4804  0.9835 -0.1333
 1318SOL     OW 5317   3.697   2.581   0.782  0.0171  0.0357  0.4015
 1318SOL    HW2 5318   3.688   2.616   0.870  0.4905  1.9868 -0.3109
 1318SOL    HW3 5319   3.675   2.654   0.724 -1.2045 -1.4803 -1.0985
 1318SOL    MW4 5320   3.693   2.595   0.786 -0.0815  0.0932  0.1096
 1319SOL     OW 5321   3.044   0.140   2.020  0.1334 -0.1525 -0.3495
 1319SOL    HW2 5322   2.989   0.120   2.096  1.2351  1.6479  0.9685
 1319SOL    HW3 5323   3.070   0.231   2.033  0.4447  0.1393 -2.8495
 1319SOL    MW4 5324   3.040   0.149   2.032  0.3197  0.1235 -0.5054
 1320SOL     OW 5325   1.532   1.975   3.190 -0.1075 -0.1346  0.4858
 1320SOL    HW2 5326   1.559   1.948   3.102 -0.2794  0.8237  0.1435
 1320SOL    HW3 5327   1.475   1.904   3.219 -0.4321 -0.2346 -0.3619
 1320SOL    MW4 5328   1.528   1.962   3.182 -0.1730 -0.0213  0.3288
 1321SOL     OW 5329   3.118   1.902   1.739  0.4583  0.2443  0.2107
 1321SOL    HW2 5330   3.203   1.945   1.732  0.2473  0.8798  1.4254
 1321SOL    HW3 5331   3.057   1.973   1.755 -0.1809 -0.3014  0.1962
 1321SOL    MW4 5332   3.121   1.917   1.740  0.3462  0.2562  0.3691
 1322SOL     OW 5333   4.487   0.580   2.207  0.1689  0.3598  0.1387
 1322SOL    HW2 5334   4.508   0.670   2.234 -0.9910  0.6629  0.0367
 1322SOL    HW3 5335   4.545   0.564   2.132 -0.3745  1.4142 -0.5204
 1322SOL    MW4 5336   4.498   0.590   2.200 -0.0558  0.5389  0.0384
 1323SOL     OW 5337   3.458   4.377   2.134 -0.3474  0.3169  0.2255
 1323SOL    HW2 5338   3.458   4.413   2.045 -0.3456 -1.9871 -0.7289
 1323SOL    HW3 5339   3.373   4.403   2.169  0.1419  2.3041  0.0191
 1323SOL    MW4 5340   3.447   4.385   2.127 -0.2825  0.2747  0.0722
 1324SOL     OW 5341   2.365   0.917   2.303  0.4257  0.0320 -0.5688
 1324SOL    HW2 5342   2.427   0.978   2.262  2.5603 -1.6139  0.1286
 1324SOL    HW3 5343   2.354   0.950   2.392 -2.0105  1.9798 -1.5288
 1324SOL    MW4 5344   2.372   0.929   2.309  0.3860  0.0718 -0.6037
 1325SOL     OW 5345   0.508   1.933   1.192 -0.0684 -0.1948  0.3357
 1325SOL    HW2 5346   0.581   1.873   1.200  0.0659 -0.2317 -1.0159
 1325SOL    HW3 5347   0.480   1.950   1.282  0.6856 -1.2893  0.7782
 1325SOL    MW4 5348   0.514   1.928   1.205  0.0488 -0.3440  0.2158
 1326SOL     OW 5349   3.901   2.652   2.989  0.3503  0.1773 -0.3233
 1326SOL    HW2 5350   3.995   2.642   2.974  0.4884 -0.1909  0.7580
 1326SOL    HW3 5351   3.882   2.742   2.964  0.9283  0.1569 -0.8525
 1326SOL    MW4 5352   3.911   2.662   2.984  0.4447  0.1261 -0.2503
 1327SOL     OW 5353   2.031   3.714   3.099 -0.0630 -0.2992 -0.1425
 1327SOL    HW2 5354   1.960   3.769   3.066  0.5609  0.6812  0.1251
 1327SOL    HW3 5355   2.070   3.675   3.021  0.9420  1.4333 -0.5218
 1327SOL    MW4 5356   2.027   3.716   3.084  0.1519  0.0589 -0.1571
 1328SOL     OW 5357   1.687   3.944   3.353  0.5082  0.5977 -0.0245
 1328SOL    HW2 5358   1.690   4.032   3.316  0.2949 -0.6949 -3.2692
 1328SOL    HW3 5359   1.762   3.899   3.314 -0.2021 -1.0719  0.5009
 1328SOL    MW4 5360   1.698   3.949   3.343  0.3864  0.2069 -0.3834
 1329SOL     OW 5361   2.358   4.184   3.462  0.0144 -0.0332  0.4259
 1329SOL    HW2 5362   2.308   4.109   3.494 -0.2221  0.5674  1.4630
 1329SOL    HW3 5363   2.447   4.150   3.447 -0.2852 -0.6979  0.1445
 1329SOL    MW4 5364   2.363   4.169   3.464 -0.0565 -0.0415  0.5255
 1330SOL     OW 5365   3.014   2.639   4.657  0.4006  0.0374  0.2027
 1330SOL    HW2 5366   2.952   2.567   4.672  0.6324  0.1755  1.9670
 1330SOL    HW3 5367   2.997   2.667   4.567 -3.3076  1.1808  1.1562
 1330SOL    MW4 5368   3.003   2.633   4.647 -0.0584  0.2067  0.5612
 1331SOL     OW 5369   2.110   0.530   0.888 -0.2759 -0.2217  0.2143
 1331SOL    HW2 5370   2.053   0.602   0.859  1.5576  1.2477  0.1653
 1331SOL    HW3 5371   2.095   0.461   0.824 -2.3129 -0.0293  0.4353
 1331SOL    MW4 5372   2.101   0.530   0.876 -0.3030 -0.0025  0.2370
 1332SOL     OW 5373   3.595   1.988   3.709  1.0128  0.2475  0.0960
 1332SOL    HW2 5374   3.529   2.054   3.729 -0.8493 -2.2710  2.6619
 1332SOL    HW3 5375   3.561   1.944   3.631 -1.0204 -1.7841  2.0542
 1332SOL    MW4 5376   3.582   1.991   3.702  0.4988 -0.3527  0.6928
 1333SOL     OW 5377   2.172   3.002   2.201 -0.7307 -0.2035  1.0071
 1333SOL    HW2 5378   2.175   3.095   2.224 -0.0456  0.2614 -0.8725
 1333SOL    HW3 5379   2.166   2.957   2.285  0.5203  1.4800  2.0391
 1333SOL    MW4 5380   2.172   3.008   2.215 -0.4752  0.0801  0.8950
 1334SOL     OW 5381   2.748   2.592   3.212  0.3978 -0.3398  0.3157
 1334SOL    HW2 5382   2.667   2.552   3.245  0.3524 -1.7997 -1.4484
 1334SOL    HW3 5383   2.799   2.518   3.179  0.7143  0.9428 -2.2093
 1334SOL    MW4 5384   2.744   2.577   3.212  0.4337 -0.3633 -0.2501
 1335SOL     OW 5385   3.994   1.547   3.908  0.4525  0.1902  0.1866
 1335SOL    HW2 5386   4.053   1.545   3.832 -0.5993  0.4298 -0.6424
 1335SOL    HW3 5387   4.031   1.614   3.965  1.9487 -0.8371  0.4733
 1335SOL    MW4 5388   4.007   1.555   3.905  0.5112  0.0862  0.1147
 1336SOL     OW 5389   0.365   1.062   0.678 -0.0175 -0.1930 -0.2611
 1336SOL    HW2 5390   0.422   1.135   0.656  0.9621 -0.8678 -0.0309
 1336SOL    HW3 5391   0.277   1.092   0.656  0.3757  1.0320 -0.2040
 1336SOL    MW4 5392   0.361   1.075   0.672  0.1636 -0.1204 -0.2233
 1337SOL     OW 5393   3.366   4.251   0.598  0.5433 -0.1117 -0.7462
 1337SOL    HW2 5394   3.447   4.254   0.649 -0.8253 -0.6202  1.5577
 1337SOL    HW3 5395   3.353   4.341   0.569 -1.0207  1.2813  3.8302
 1337SOL    MW4 5396   3.375   4.263   0.601  0.1562  0.0052  0.1616
 1338SOL     OW 5397   2.489   2.411   3.157 -0.5536  0.2005  0.1373
 1338SOL    HW2 5398   2.511   2.442   3.245 -0.4217 -1.1269  0.5917
 1338SOL    HW3 5399   2.422   2.472   3.126  0.1726  1.3158  0.7290
 1338SOL    MW4 5400   2.483   2.423   3.165 -0.4406  0.1726  0.2754
 1339SOL     OW 5401   4.161   4.580   2.712 -0.3008 -0.0859 -0.2546
 1339SOL    HW2 5402   4.099   4.512   2.736 -0.8243  0.3899 -0.2357
 1339SOL    HW3 5403   4.115   4.662   2.730  0.2277  0.2717 -0.5077
 1339SOL    MW4 5404   4.147   4.582   2.717 -0.3004  0.0238 -0.2856
 1340SOL     OW 5405   2.054   1.307   1.077 -0.2520 -0.2467  0.5657
 1340SOL    HW2 5406   2.066   1.213   1.064  0.4986 -0.0721 -0.0597
 1340SOL    HW3 5407   2.012   1.337   0.996  1.1515  0.2535  0.0178
 1340SOL    MW4 5408   2.050   1.298   1.064  0.0324 -0.1576  0.4108
 1341SOL     OW 5409   1.323   1.864   1.213 -0.1110 -0.0831 -0.4110
 1341SOL    HW2 5410   1.411   1.902   1.203  0.0725 -0.3462  0.1504
 1341SOL    HW3 5411   1.326   1.784   1.161  1.0307 -1.7598  2.1044
 1341SOL    MW4 5412   1.335   1.858   1.205  0.0638 -0.3392 -0.0050
 1342SOL     OW 5413   1.999   2.698   0.663 -0.0906 -0.1458 -0.3020
 1342SOL    HW2 5414   1.933   2.672   0.598  0.0753 -0.4426 -0.3514
 1342SOL    HW3 5415   2.048   2.768   0.620 -2.0640  1.9122  0.7152
 1342SOL    MW4 5416   1.997   2.704   0.649 -0.3290  0.0865 -0.1744
 1343SOL     OW 5417   2.512   1.406   3.508 -0.6814 -0.3244  0.1727
 1343SOL    HW2 5418   2.535   1.314   3.492  0.1782 -0.4374  1.9479
 1343SOL    HW3 5419   2.417   1.410   3.495 -0.8931 -1.7170  1.1748
 1343SOL    MW4 5420   2.502   1.395   3.504 -0.5958 -0.5230  0.5391
 1344SOL     OW 5421   2.220   2.851   3.612  0.1313 -0.2648  0.3939
 1344SOL    HW2 5422   2.176   2.788   3.554 -0.7831  0.4208  0.3355
 1344SOL    HW3 5423   2.150   2.907   3.644  0.7317 -0.2286  1.6679
 1344SOL    MW4 5424   2.205   2.850   3.608  0.0899 -0.1693  0.5541
 1345SOL     OW 5425   4.472   3.258   2.858 -0.6869  0.2137 -0.7161
 1345SOL    HW2 5426   4.534   3.298   2.798  0.0980 -2.0228 -1.4122
 1345SOL    HW3 5427   4.387   3.271   2.816 -0.5425  1.7434 -0.5867
 1345SOL    MW4 5428   4.469   3.265   2.845 -0.5643  0.1206 -0.7911
 1346SOL     OW 5429   1.776   1.525   2.320  0.0094 -0.2181 -0.1053
 1346SOL    HW2 5430   1.779   1.523   2.416 -2.9027 -1.0784  0.0238
 1346SOL    HW3 5431   1.688   1.557   2.300  1.2278  1.7998 -2.5300
 1346SOL    MW4 5432   1.765   1.529   2.330 -0.2140 -0.0653 -0.4082
 1347SOL     OW 5433   0.729   2.689   3.380 -0.0414 -0.0736 -0.3191
 1347SOL    HW2 5434   0.815   2.727   3.363  2.0819 -3.9496  0.9372
 1347SOL    HW3 5435   0.709   2.715   3.470  1.3518 -1.7088  0.5003
 1347SOL    MW4 5436   0.737   2.697   3.390  0.4225 -0.8008 -0.0451
 1348SOL     OW 5437   3.359   3.073   4.338 -0.5695  0.4408 -0.7029
 1348SOL    HW2 5438   3.278   3.080   4.389 -0.8857 -1.3780 -0.8942
 1348SOL    HW3 5439   3.346   2.993   4.285  0.8090  0.8666 -1.7032
 1348SOL    MW4 5440   3.346   3.063   4.338 -0.4294  0.2570 -0.8602
 1349SOL     OW 5441   1.898   1.444   0.885  0.0657 -0.0319 -0.2868
 1349SOL    HW2 5442   1.952   1.523   0.882  1.7541 -1.2210 -3.0553
 1349SOL    HW3 5443   1.809   1.476   0.869  0.5010  1.4735  0.2131
 1349SOL    MW4 5444   1.893   1.459   0.883  0.3459  0.0098 -0.5861
 1350SOL     OW 5445   1.700   0.240   3.767  0.2507  0.0418 -0.3247
 1350SOL    HW2 5446   1.672   0.151   3.745  1.0689 -0.1915 -0.4165
 1350SOL    HW3 5447   1.666   0.294   3.696 -0.4358 -0.1576 -0.1596
 1350SOL    MW4 5448   1.692   0.236   3.755  0.2681 -0.0152 -0.3152
 1351SOL     OW 5449   1.199   2.113   1.275 -0.7288  0.6995 -0.3076
 1351SOL    HW2 5450   1.107   2.135   1.287 -0.7938  0.1540  0.2410
 1351SOL    HW3 5451   1.198   2.020   1.249 -0.1665 -0.3299  3.0435
 1351SOL    MW4 5452   1.187   2.103   1.273 -0.6632  0.4919  0.2069
 1352SOL     OW 5453   3.899   2.126   1.738 -0.0882 -0.3554 -0.2545
 1352SOL    HW2 5454   3.927   2.035   1.744 -0.9901 -0.6143  0.1002
 1352SOL    HW3 5455   3.979   2.175   1.719  0.0719 -1.4815 -2.7257
 1352SOL    MW4 5456   3.913   2.120   1.736 -0.1860 -0.5381 -0.5338
 1353SOL     OW 5457   3.689   1.224   1.529  0.2062 -0.1811  0.1893
 1353SOL    HW2 5458   3.630   1.284   1.484  1.0430 -0.0253 -0.7235
 1353SOL    HW3 5459   3.753   1.280   1.573  1.2794 -0.3920 -1.0685
 1353SOL    MW4 5460   3.690   1.239   1.529  0.4580 -0.1884 -0.0970
 1354SOL     OW 5461   4.111   2.586   1.037 -0.2697 -0.4782 -0.1595
 1354SOL    HW2 5462   4.169   2.541   1.098  0.3682 -1.5560 -1.5363
 1354SOL    HW3 5463   4.058   2.516   0.997 -2.2879  0.4418  0.8138
 1354SOL    MW4 5464   4.111   2.571   1.039 -0.4520 -0.4988 -0.2127
 1355SOL     OW 5465   2.859   0.837   1.090  0.2875 -0.1207 -0.1573
 1355SOL    HW2 5466   2.806   0.913   1.066  0.1999 -0.2611 -0.4051
 1355SOL    HW3 5467   2.847   0.829   1.185 -0.0463 -0.0849 -0.1957
 1355SOL    MW4 5468   2.850   0.846   1.099  0.2317 -0.1345 -0.1950
 1356SOL     OW 5469   1.443   4.562   2.285 -0.5099 -0.5154 -0.0217
 1356SOL    HW2 5470   1.515   4.499   2.293 -1.2793 -1.4551 -0.4227
 1356SOL    HW3 5471   1.374   4.525   2.340 -0.6412  0.4471  0.4562
 1356SOL    MW4 5472   1.444   4.549   2.293 -0.6287 -0.5126 -0.0117
 1357SOL     OW 5473   2.458   4.383   4.638  0.2556  0.5725 -0.4891
 1357SOL    HW2 5474   2.372   4.392   4.596 -0.2947 -1.0871  0.2275
 1357SOL    HW3 5475   2.446   4.422   4.725  0.1191 -0.0053 -0.2495
 1357SOL    MW4 5476   2.445   4.390   4.644  0.1650  0.2770 -0.3629
 1358SOL     OW 5477   3.349   0.828   0.945  0.1581  0.0022  0.2624
 1358SOL    HW2 5478   3.334   0.922   0.933 -1.5190 -0.4930 -1.6818
 1358SOL    HW3 5479   3.265   0.793   0.974  0.5810 -1.0276  0.2723
 1358SOL    MW4 5480   3.336   0.836   0.948 -0.0074 -0.1991  0.0072
 1359SOL     OW 5481   0.757   3.044   1.126 -0.6604  0.9626  0.1940
 1359SOL    HW2 5482   0.678   3.064   1.176  0.3767  2.2961  1.3169
 1359SOL    HW3 5483   0.827   3.087   1.174  0.8492 -0.7545 -0.4514
 1359SOL    MW4 5484   0.755   3.052   1.139 -0.3244  0.9120  0.2570
 1360SOL     OW 5485   0.277   1.875   1.732  0.3510 -0.1294 -0.0944
 1360SOL    HW2 5486   0.242   1.824   1.659  0.2885 -2.2935  1.3975
 1360SOL    HW3 5487   0.221   1.852   1.806 -0.0475  2.6037  0.4995
 1360SOL    MW4 5488   0.265   1.866   1.732  0.2902 -0.0542  0.1807
 1361SOL     OW 5489   4.444   2.193   2.862 -0.3475  0.2745  0.1979
 1361SOL    HW2 5490   4.436   2.286   2.883 -0.0589  0.4685 -0.5545
 1361SOL    HW3 5491   4.359   2.156   2.885 -0.7114  0.8578 -0.2049
 1361SOL    MW4 5492   4.432   2.201   2.868 -0.3572  0.3772  0.0455
 1362SOL     OW 5493   4.174   0.439   0.474  0.1578 -0.4913 -0.3419
 1362SOL    HW2 5494   4.241   0.427   0.542  0.9244  0.4025 -0.9322
 1362SOL    HW3 5495   4.101   0.482   0.519  0.6637  0.0982 -0.0873
 1362SOL    MW4 5496   4.173   0.443   0.489  0.3257 -0.2956 -0.3862
 1363SOL     OW 5497   2.953   4.094   0.920  0.2449 -0.2747 -0.3553
 1363SOL    HW2 5498   3.011   4.138   0.858 -0.5916  0.5393 -0.5612
 1363SOL    HW3 5499   2.870   4.140   0.912  0.3861  0.4483  2.0550
 1363SOL    MW4 5500   2.950   4.105   0.911  0.1531 -0.0720 -0.0644
 1364SOL     OW 5501   1.116   1.948   3.045  0.4406 -0.0854  0.0027
 1364SOL    HW2 5502   1.181   1.920   2.981 -0.2325  0.2967 -0.8525
 1364SOL    HW3 5503   1.092   2.036   3.018  1.3487  0.7220  1.7309
 1364SOL    MW4 5504   1.122   1.956   3.033  0.4717  0.0716  0.1178
 1365SOL     OW 5505   1.963   4.650   0.440 -0.2855  0.5942  0.6336
 1365SOL    HW2 5506   2.012   4.728   0.467 -0.0661  0.9999 -0.8931
 1365SOL    HW3 5507   1.991   4.634   0.350 -0.8513 -0.8467  0.7065
 1365SOL    MW4 5508   1.973   4.658   0.432 -0.3310  0.4578  0.4418
 1366SOL     OW 5509   2.136   2.088   3.191  0.0314  0.0791 -0.3195
 1366SOL    HW2 5510   2.175   2.136   3.264 -2.3164  1.8510 -0.1584
 1366SOL    HW3 5511   2.154   1.996   3.211 -2.5639  0.3208  3.8393
 1366SOL    MW4 5512   2.143   2.082   3.203 -0.6211  0.3450  0.2503
 1367SOL     OW 5513   1.271   1.437   3.090  0.0020 -0.3903  0.4939
 1367SOL    HW2 5514   1.213   1.485   3.150  0.0307 -1.2685  1.2350
 1367SOL    HW3 5515   1.233   1.451   3.004  0.4484  1.6017  0.6025
 1367SOL    MW4 5516   1.258   1.445   3.087  0.0647 -0.2433  0.6061
 1368SOL     OW 5517   3.977   4.324   4.145 -0.3430 -0.4624 -0.6065
 1368SOL    HW2 5518   4.008   4.405   4.105 -0.6375  0.5386  1.1207
 1368SOL    HW3 5519   4.057   4.280   4.175 -0.3153  0.3405  0.5480
 1368SOL    MW4 5520   3.992   4.329   4.144 -0.3781 -0.2246 -0.2265
 1369SOL     OW 5521   1.709   0.929   3.130  0.9938 -0.2925 -0.3328
 1369SOL    HW2 5522   1.722   0.870   3.205 -0.0048 -0.8261 -0.5673
 1369SOL    HW3 5523   1.795   0.968   3.115  1.5274 -1.2219  0.2286
 1369SOL    MW4 5524   1.722   0.926   3.138  0.9325 -0.4855 -0.2897
 1370SOL     OW 5525   0.492   2.414   2.296 -0.0292 -0.2691 -0.2467
 1370SOL    HW2 5526   0.547   2.374   2.363  1.1639  0.7099 -0.6220
 1370SOL    HW3 5527   0.511   2.507   2.301 -1.0997  0.0029 -0.8985
 1370SOL    MW4 5528   0.501   2.421   2.305 -0.0130 -0.1040 -0.3824
 1371SOL     OW 5529   0.976   1.521   1.670 -0.5372 -0.0182 -0.1923
 1371SOL    HW2 5530   0.914   1.455   1.702 -0.7205 -0.1312 -0.7868
 1371SOL    HW3 5531   0.994   1.575   1.747  0.1779 -1.1992  0.5048
 1371SOL    MW4 5532   0.970   1.519   1.685 -0.4669 -0.1891 -0.1787
 1372SOL     OW 5533   2.932   3.068   2.179  0.1764  0.0748 -0.0789
 1372SOL    HW2 5534   2.899   2.990   2.134  0.6776 -0.2974  0.1953
 1372SOL    HW3 5535   2.995   3.105   2.117  2.5098 -1.6604  1.2037
 1372SOL    MW4 5536   2.936   3.062   2.165  0.5505 -0.2031  0.1261
 1373SOL     OW 5537   3.634   1.348   2.846 -0.1315 -0.2643 -0.4098
 1373SOL    HW2 5538   3.683   1.428   2.865 -1.0417  0.3394 -0.5864
 1373SOL    HW3 5539   3.550   1.378   2.812 -0.9214 -1.2819  0.5996
 1373SOL    MW4 5540   3.629   1.362   2.844 -0.3560 -0.3188 -0.2999
 1374SOL     OW 5541   1.225   0.634   0.677 -0.6729  0.4140 -0.1096
 1374SOL    HW2 5542   1.321   0.641   0.685 -0.7165  2.1668 -0.7587
 1374SOL    HW3 5543   1.211   0.555   0.625  0.4284  0.0278  0.1610
 1374SOL    MW4 5544   1.236   0.625   0.671 -0.5333  0.5943 -0.1596
 1375SOL     OW 5545   4.292   4.490   3.503 -0.0670 -0.1487 -0.4901
 1375SOL    HW2 5546   4.352   4.550   3.460  1.4841 -1.7262 -0.5721
 1375SOL    HW3 5547   4.249   4.542   3.570  1.6532  0.9176 -0.1932
 1375SOL    MW4 5548   4.294   4.504   3.506  0.3648 -0.2165 -0.4621
 1376SOL     OW 5549   0.584   0.270   2.664 -0.0410 -0.0074 -0.3012
 1376SOL    HW2 5550   0.545   0.345   2.710  0.6901  0.4274 -0.3731
 1376SOL    HW3 5551   0.523   0.198   2.678  1.0280 -0.3938  2.9459
 1376SOL    MW4 5552   0.571   0.271   2.672  0.1965 -0.0010  0.1178
 1377SOL     OW 5553   2.142   1.599   3.710  0.3162  0.1097 -0.1644
 1377SOL    HW2 5554   2.162   1.686   3.674  2.7750 -0.6327 -0.7166
 1377SOL    HW3 5555   2.213   1.584   3.774  0.4083 -1.8539 -0.7243
 1377SOL    MW4 5556   2.154   1.609   3.714  0.6526 -0.2474 -0.3111
 1378SOL     OW 5557   2.418   3.674   2.990  0.1175 -0.5806 -0.4274
 1378SOL    HW2 5558   2.490   3.672   3.053 -2.3326 -2.0481  2.4830
 1378SOL    HW3 5559   2.409   3.767   2.967  1.0016  0.0111  1.5080
 1378SOL    MW4 5560   2.426   3.686   2.995 -0.0892 -0.6959  0.2122
 1379SOL     OW 5561   2.336   0.122   0.804  0.4044  0.3632 -0.2688
 1379SOL    HW2 5562   2.385   0.138   0.885  1.1856 -1.1981 -0.4327
 1379SOL    HW3 5563   2.262   0.068   0.832  0.6227 -0.0966 -0.5864
 1379SOL    MW4 5564   2.333   0.117   0.818  0.5360  0.0966 -0.3324
 1380SOL     OW 5565   2.558   2.519   2.011 -0.5066 -0.1766 -0.8326
 1380SOL    HW2 5566   2.563   2.614   2.022  2.0432 -0.4442  0.7759
 1380SOL    HW3 5567   2.627   2.499   1.948 -0.6514 -1.0478 -0.7165
 1380SOL    MW4 5568   2.568   2.529   2.004 -0.1891 -0.3266 -0.6049
 1381SOL     OW 5569   4.405   2.632   2.649  0.2114 -0.2049  0.5203
 1381SOL    HW2 5570   4.499   2.639   2.667  0.0754  0.6499  0.9470
 1381SOL    HW3 5571   4.398   2.569   2.577  0.9636 -1.7109  1.7615
 1381SOL    MW4 5572   4.416   2.625   2.642  0.2933 -0.2911  0.7405
 1382SOL     OW 5573   0.966   3.637   2.450 -0.1800  0.0244  0.1790
 1382SOL    HW2 5574   1.009   3.618   2.533 -1.6148 -0.6653  0.7775
 1382SOL    HW3 5575   1.019   3.590   2.385  0.5037 -0.0578  0.7897
 1382SOL    MW4 5576   0.979   3.628   2.452 -0.2791 -0.0772  0.3386
 1383SOL     OW 5577   1.955   3.752   4.448  0.5087  0.2362  0.3900
 1383SOL    HW2 5578   1.965   3.847   4.451  0.9614  0.1875  0.4519
 1383SOL    HW3 5579   2.037   3.721   4.410  0.9168 -0.2335  1.6542
 1383SOL    MW4 5580   1.967   3.761   4.443  0.6223  0.1678  0.5651
 1384SOL     OW 5581   0.278   0.777   0.993  0.4867 -1.0238  0.1146
 1384SOL    HW2 5582   0.315   0.741   0.913 -0.9723  1.4107 -1.7100
 1384SOL    HW3 5583   0.194   0.733   1.004 -0.7072  0.7929 -1.4121
 1384SOL    MW4 5584   0.272   0.766   0.984  0.1367 -0.4629 -0.3276
 1385SOL     OW 5585   2.750   1.351   1.193  0.3127  0.4208  0.7869
 1385SOL    HW2 5586   2.701   1.362   1.274  1.1311  0.3209  1.3107
 1385SOL    HW3 5587   2.700   1.397   1.127 -2.3960 -2.6617  0.5463
 1385SOL    MW4 5588   2.737   1.358   1.195  0.0632  0.0010  0.8243
 1386SOL     OW 5589   3.590   3.611   3.463 -0.1268 -0.0525  0.0607
 1386SOL    HW2 5590   3.593   3.671   3.389 -0.4572 -1.6243 -1.2704
 1386SOL    HW3 5591   3.498   3.607   3.488 -0.3031 -1.0493 -0.7397
 1386SOL    MW4 5592   3.578   3.618   3.457 -0.1936 -0.3915 -0.2208
 1387SOL     OW 5593   2.161   1.648   1.148  0.3167  0.7282  0.0818
 1387SOL    HW2 5594   2.198   1.645   1.059  2.3383  2.3185  0.8142
 1387SOL    HW3 5595   2.210   1.582   1.197 -0.1190  0.5306  0.2541
 1387SOL    MW4 5596   2.173   1.639   1.143  0.5260  0.9120  0.2011
 1388SOL     OW 5597   0.773   1.322   2.796 -0.3074  0.2778  0.1933
 1388SOL    HW2 5598   0.713   1.373   2.741 -1.9829 -0.9197  0.8726
 1388SOL    HW3 5599   0.848   1.303   2.740 -1.4855  0.0546 -1.3214
 1388SOL    MW4 5600   0.775   1.326   2.782 -0.6839  0.0905  0.0832
 1389SOL     OW 5601   3.105   1.743   1.963  0.3651 -0.1460 -0.2511
 1389SOL    HW2 5602   3.104   1.778   1.874 -0.2724  1.6765  0.4395
 1389SOL    HW3 5603   3.015   1.712   1.977  0.4570 -0.4048 -0.2517
 1389SOL    MW4 5604   3.093   1.744   1.954  0.2935  0.0603 -0.1601
 1390SOL     OW 5605   3.253   3.029   3.549 -0.6369  0.3991 -0.5022
 1390SOL    HW2 5606   3.207   2.946   3.557  0.7294 -0.3944 -0.7805
 1390SOL    HW3 5607   3.278   3.052   3.639 -1.1272  0.5737 -0.4105
 1390SOL    MW4 5608   3.250   3.021   3.562 -0.5212  0.3176 -0.5267
 1391SOL     OW 5609   1.615   1.210   1.115  0.0257  0.1424 -0.3859
 1391SOL    HW2 5610   1.531   1.253   1.129  0.0490 -0.4779  1.9104
 1391SOL    HW3 5611   1.679   1.267   1.158  0.4615 -0.5950 -0.0483
 1391SOL    MW4 5612   1.613   1.223   1.123  0.0862 -0.0367 -0.0384
 1392SOL     OW 5613   2.368   4.600   4.268 -0.3301  0.2566 -0.4531
 1392SOL    HW2 5614   2.283   4.644   4.262 -0.6517 -0.5092 -1.5995
 1392SOL    HW3 5615   2.392   4.581   4.177  1.1233  0.5508 -0.1531
 1392SOL    MW4 5616   2.360   4.604   4.255 -0.1810  0.1941 -0.5646
 1393SOL     OW 5617   0.854   4.489   2.562  0.0315  0.0564  0.2644
 1393SOL    HW2 5618   0.762   4.516   2.566  0.2799  1.1461 -1.0254
 1393SOL    HW3 5619   0.899   4.564   2.523  1.4649 -0.4792  0.8660
 1393SOL    MW4 5620   0.848   4.503   2.557  0.2534  0.1292  0.1733
 1394SOL     OW 5621   3.671   2.917   1.342  0.1054 -0.4241 -0.1248
 1394SOL    HW2 5622   3.598   2.888   1.397 -0.7927  1.0061 -0.5507
 1394SOL    HW3 5623   3.730   2.961   1.403 -0.9180  1.2158 -0.2888
 1394SOL    MW4 5624   3.669   2.919   1.357 -0.1481 -0.0191 -0.2025
 1395SOL     OW 5625   0.308   0.348   2.527 -0.8186  0.0348 -0.6115
 1395SOL    HW2 5626   0.355   0.310   2.453 -0.5362 -1.9638  0.5863
 1395SOL    HW3 5627   0.228   0.384   2.488 -0.3237 -0.3169 -1.9907
 1395SOL    MW4 5628   0.303   0.348   2.512 -0.7161 -0.2753 -0.6354
 1396SOL     OW 5629   3.472   2.543   3.112 -0.5764  0.2426  0.0002
 1396SOL    HW2 5630   3.417   2.524   3.036 -0.8955  0.5498  0.1512
 1396SOL    HW3 5631   3.421   2.607   3.162 -0.2935  0.1590  0.3887
 1396SOL    MW4 5632   3.458   2.549   3.108 -0.5810  0.2718  0.0715
 1397SOL     OW 5633   1.826   0.643   3.148  0.2968  0.3141  0.1349
 1397SOL    HW2 5634   1.815   0.616   3.239  0.6847  0.1335  0.1296
 1397SOL    HW3 5635   1.915   0.617   3.126 -0.2630 -0.8788 -0.7278
 1397SOL    MW4 5636   1.837   0.636   3.157  0.2742  0.1329  0.0205
 1398SOL     OW 5637   0.735   2.217   1.669 -0.2576 -0.4445 -0.4194
 1398SOL    HW2 5638   0.764   2.137   1.625  2.4658  0.8197 -1.0468
 1398SOL    HW3 5639   0.729   2.282   1.599 -1.1558  0.2390  0.2785
 1398SOL    MW4 5640   0.738   2.215   1.654 -0.0167 -0.1874 -0.4101
 1399SOL     OW 5641   2.365   1.561   3.868 -0.0699 -0.6228 -0.2214
 1399SOL    HW2 5642   2.440   1.502   3.858  0.2923 -0.0405 -1.0422
 1399SOL    HW3 5643   2.307   1.515   3.928  0.8804 -1.1474  0.3191
 1399SOL    MW4 5644   2.368   1.547   3.875  0.1032 -0.6152 -0.2582
 1400SOL     OW 5645   4.011   1.713   2.259 -0.3835 -0.2365  0.8216
 1400SOL    HW2 5646   4.076   1.753   2.316 -0.0849 -0.2644  0.5000
 1400SOL    HW3 5647   3.932   1.709   2.312 -0.0529 -0.4339  1.3012
 1400SOL    MW4 5648   4.009   1.717   2.273 -0.3004 -0.2662  0.8426
 1401SOL     OW 5649   2.316   1.562   0.649 -0.7234  0.1992  0.4106
 1401SOL    HW2 5650   2.412   1.565   0.657 -0.3939  0.1591 -2.7154
 1401SOL    HW3 5651   2.295   1.469   0.659 -0.0793 -0.2144 -1.7701
 1401SOL    MW4 5652   2.326   1.550   0.651 -0.5951  0.1394 -0.2896
 1402SOL     OW 5653   2.017   4.524   0.669  0.0212 -0.6167  0.3848
 1402SOL    HW2 5654   1.998   4.566   0.585 -0.6510 -1.3000  0.1825
 1402SOL    HW3 5655   2.094   4.469   0.652 -0.5924 -1.3710 -0.0032
 1402SOL    MW4 5656   2.025   4.522   0.656 -0.1485 -0.8059  0.3069
 1403SOL     OW 5657   3.543   0.816   4.508 -0.2741 -0.0806 -0.1750
 1403SOL    HW2 5658   3.508   0.904   4.490  0.2296  0.1428 -0.0883
 1403SOL    HW3 5659   3.597   0.828   4.586  1.4723 -0.0234 -1.3455
 1403SOL    MW4 5660   3.546   0.829   4.516  0.0226 -0.0435 -0.3185
 1404SOL     OW 5661   2.033   4.157   1.524  0.3535  0.0678  0.3178
 1404SOL    HW2 5662   2.089   4.087   1.556  0.5346 -0.8731 -1.9513
 1404SOL    HW3 5663   1.945   4.132   1.552  0.4253 -1.0300 -0.4217
 1404SOL    MW4 5664   2.029   4.145   1.532  0.3870 -0.2017 -0.0793
 1405SOL     OW 5665   1.681   2.523   1.912  0.3459  0.4887  0.1480
 1405SOL    HW2 5666   1.656   2.476   1.832  1.0689 -0.0721  0.2443
 1405SOL    HW3 5667   1.620   2.597   1.917 -1.6455 -1.1209  0.6422
 1405SOL    MW4 5668   1.669   2.526   1.902  0.1786  0.2024  0.2260
 1406SOL     OW 5669   0.111   0.305   1.382 -0.2891  0.2231  0.2109
 1406SOL    HW2 5670   0.201   0.314   1.350 -0.1473  1.2161  0.8919
 1406SOL    HW3 5671   0.120   0.298   1.477 -0.8325 -1.1073  0.1831
 1406SOL    MW4 5672   0.124   0.305   1.390 -0.3421  0.1786  0.2971
 1407SOL     OW 5673   1.681   0.253   1.570 -0.4234 -0.1478 -0.1431
 1407SOL    HW2 5674   1.694   0.264   1.476 -0.7981 -1.6747 -0.3974
 1407SOL    HW3 5675   1.657   0.161   1.580 -1.9863  0.3887  1.2802
 1407SOL    MW4 5676   1.680   0.242   1.559 -0.6791 -0.2785  0.0112
 1408SOL     OW 5677   2.929   3.466   3.886  0.0749 -0.0735 -0.5156
 1408SOL    HW2 5678   2.945   3.480   3.793 -2.4553 -0.6268 -1.0832
 1408SOL    HW3 5679   2.946   3.551   3.927  0.6864  0.3052 -1.5495
 1408SOL    MW4 5680   2.933   3.479   3.879 -0.1781 -0.0966 -0.7269
 1409SOL     OW 5681   4.455   0.000   1.149 -0.5003 -0.6839 -0.2709
 1409SOL    HW2 5682   4.470   0.086   1.110 -0.5449  0.0304  1.2543
 1409SOL    HW3 5683   4.524  -0.055   1.112  0.5773  0.4272  0.0420
 1409SOL    MW4 5684   4.466   0.004   1.139 -0.3643 -0.4431 -0.0284
 1410SOL     OW 5685   0.785   3.075   3.325  0.1531  0.1658 -0.0943
 1410SOL    HW2 5686   0.843   3.150   3.312 -0.2981  0.1998 -2.1515
 1410SOL    HW3 5687   0.702   3.103   3.285 -0.5692 -0.7401  0.7686
 1410SOL    MW4 5688   0.782   3.089   3.318 -0.0017  0.0508 -0.2518
 1411SOL     OW 5689   4.016   0.937   1.602 -0.0146 -0.5375 -0.1575
 1411SOL    HW2 5690   3.970   0.858   1.632 -1.9817  0.3483 -0.7153
 1411SOL    HW3 5691   4.017   0.994   1.679  0.0732 -0.5126 -0.1771
 1411SOL    MW4 5692   4.010   0.934   1.616 -0.2623 -0.4173 -0.2337
 1412SOL     OW 5693   1.138   1.559   2.841  0.3956 -0.2542 -0.1489
 1412SOL    HW2 5694   1.228   1.554   2.809  0.8632  1.0189  0.8908
 1412SOL    HW3 5695   1.086   1.514   2.775  1.4543  1.4176 -2.1717
 1412SOL    MW4 5696   1.143   1.553   2.828  0.5971  0.1345 -0.2785
 1413SOL     OW 5697   4.394   3.893   3.968 -0.2908 -0.4443 -0.8180
 1413SOL    HW2 5698   4.451   3.968   3.987  0.6213 -0.9621 -1.5007
 1413SOL    HW3 5699   4.379   3.898   3.874 -2.2789  0.3180 -0.4879
 1413SOL    MW4 5700   4.400   3.904   3.958 -0.4330 -0.4122 -0.8643
 1414SOL     OW 5701   4.196   3.336   1.379 -0.8892  0.1700  0.1661
 1414SOL    HW2 5702   4.148   3.276   1.437  0.0422 -1.1219 -0.3742
 1414SOL    HW3 5703   4.200   3.290   1.295  1.0689  0.3739  0.1291
 1414SOL    MW4 5704   4.190   3.322   1.376 -0.5078  0.0265  0.0900
 1415SOL     OW 5705   2.744   4.359   1.103 -0.0481 -0.9081  0.6185
 1415SOL    HW2 5706   2.661   4.407   1.100 -0.0671 -0.9360  0.7067
 1415SOL    HW3 5707   2.809   4.423   1.072 -0.1446 -0.9812  0.2673
 1415SOL    MW4 5708   2.742   4.374   1.098 -0.0634 -0.9217  0.5839
 1416SOL     OW 5709   0.809   3.716   3.834 -0.1612 -0.2126 -0.0493
 1416SOL    HW2 5710   0.814   3.683   3.924 -0.0137 -0.5430 -0.1797
 1416SOL    HW3 5711   0.835   3.808   3.841  0.6935 -0.4620  0.1186
 1416SOL    MW4 5712   0.813   3.724   3.847 -0.0290 -0.2890 -0.0443
 1417SOL     OW 5713   1.705   3.683   4.532 -0.3660  0.4059  0.4345
 1417SOL    HW2 5714   1.681   3.715   4.619  0.1616 -0.2492  0.8291
 1417SOL    HW3 5715   1.795   3.712   4.520 -0.4904  0.6285  0.0394
 1417SOL    MW4 5716   1.713   3.691   4.542 -0.3126  0.3488  0.4344
 1418SOL     OW 5717   0.332   2.380   1.183 -0.1868  0.5165 -0.2042
 1418SOL    HW2 5718   0.348   2.465   1.222  0.0508  0.5094 -0.2826
 1418SOL    HW3 5719   0.245   2.354   1.214 -0.1734  0.6965 -0.0208
 1418SOL    MW4 5720   0.323   2.388   1.192 -0.1537  0.5393 -0.1904
 1419SOL     OW 5721   3.466   4.185   1.249 -0.3448 -0.3059 -0.0032
 1419SOL    HW2 5722   3.375   4.207   1.269 -0.6429 -2.3899  1.0175
 1419SOL    HW3 5723   3.463   4.140   1.165 -0.2338 -0.3705  0.0267
 1419SOL    MW4 5724   3.454   4.182   1.241 -0.3693 -0.5894  0.1353
 1420SOL     OW 5725   2.122   3.947   2.774  0.0142  0.2716 -0.1494
 1420SOL    HW2 5726   2.117   4.026   2.719  1.3601 -1.2071 -2.4867
 1420SOL    HW3 5727   2.206   3.954   2.819  0.6128 -0.3166 -1.1607
 1420SOL    MW4 5728   2.132   3.959   2.772  0.2708 -0.0012 -0.5915
 1421SOL     OW 5729   0.390   4.546   3.538 -0.1160  0.1834  0.1100
 1421SOL    HW2 5730   0.298   4.541   3.561 -0.1532  0.9982  0.1545
 1421SOL    HW3 5731   0.424   4.620   3.587  0.7449 -0.5721  0.6819
 1421SOL    MW4 5732   0.382   4.555   3.547 -0.0073  0.1917  0.1912
 1422SOL     OW 5733   4.413   3.518   3.979  0.1536 -0.4804  0.0329
 1422SOL    HW2 5734   4.439   3.562   3.898 -0.4548 -1.2035 -0.5592
 1422SOL    HW3 5735   4.325   3.485   3.962 -0.6848  0.8764  1.5971
 1422SOL    MW4 5736   4.405   3.520   3.966 -0.0377 -0.3967  0.1609
 1423SOL     OW 5737   4.331   3.527   3.524 -0.0990  0.5598  0.2372
 1423SOL    HW2 5738   4.328   3.539   3.429 -1.0829  0.9533  0.3066
 1423SOL    HW3 5739   4.334   3.432   3.537 -3.0222  0.3636 -0.1528
 1423SOL    MW4 5740   4.331   3.516   3.513 -0.6142  0.5858  0.1948
 1424SOL     OW 5741   3.013   3.852   2.660 -0.2315 -0.3490 -0.4345
 1424SOL    HW2 5742   3.097   3.885   2.693 -0.1284 -0.8633 -0.1727
 1424SOL    HW3 5743   2.997   3.772   2.711 -0.5987 -0.5651 -0.8841
 1424SOL    MW4 5744   3.022   3.846   2.672 -0.2663 -0.4451 -0.4594
 1425SOL     OW 5745   3.841   4.424   3.409  0.1405  0.7613  0.0898
 1425SOL    HW2 5746   3.777   4.469   3.354 -1.7123 -0.2555  1.3685
 1425SOL    HW3 5747   3.826   4.458   3.497 -0.9004 -1.8617  0.9725
 1425SOL    MW4 5748   3.831   4.434   3.413 -0.2413  0.2813  0.3748
 1426SOL     OW 5749   1.660   4.125   2.023  0.3408  0.2778  0.4174
 1426SOL    HW2 5750   1.716   4.094   2.094  0.2824 -1.4087 -0.2490
 1426SOL    HW3 5751   1.719   4.135   1.948  0.6327  3.1843  0.9535
 1426SOL    MW4 5752   1.675   4.122   2.022  0.3717  0.4387  0.4003
 1427SOL     OW 5753   0.447   2.406   3.285 -0.0988  0.5867 -0.1731
 1427SOL    HW2 5754   0.533   2.362   3.285 -0.5178 -0.2495  0.0869
 1427SOL    HW3 5755   0.402   2.371   3.209 -0.2562  0.9390 -0.2425
 1427SOL    MW4 5756   0.453   2.395   3.275 -0.1748  0.5231 -0.1478
 1428SOL     OW 5757   0.723   2.454   1.503 -0.2288  0.2391 -0.0567
 1428SOL    HW2 5758   0.700   2.528   1.558  0.0173  1.1585 -1.1616
 1428SOL    HW3 5759   0.640   2.424   1.467 -0.3967 -0.4040  0.8532
 1428SOL    MW4 5760   0.709   2.459   1.505 -0.2184  0.2756 -0.0824
 1429SOL     OW 5761   3.253   3.316   1.656 -0.2476  0.1995  0.4440
 1429SOL    HW2 5762   3.295   3.361   1.729 -0.6619  0.9034  0.2518
 1429SOL    HW3 5763   3.322   3.309   1.590  0.1943 -0.6520  0.9852
 1429SOL    MW4 5764   3.268   3.321   1.657 -0.2444  0.1802  0.4902
 1430SOL     OW 5765   1.451   2.821   0.679  0.1616  0.3571 -0.0812
 1430SOL    HW2 5766   1.541   2.828   0.647  0.0113  0.6310 -0.4539
 1430SOL    HW3 5767   1.447   2.736   0.722 -0.1582 -0.9415 -2.5430
 1430SOL    MW4 5768   1.462   2.811   0.680  0.0995  0.2220 -0.4552
 1431SOL     OW 5769   1.642   2.409   0.820 -0.0034 -0.1283 -0.2403
 1431SOL    HW2 5770   1.733   2.436   0.807 -0.0246  0.4670  0.8603
 1431SOL    HW3 5771   1.592   2.491   0.824 -0.7570 -0.4714 -1.9408
 1431SOL    MW4 5772   1.647   2.423   0.819 -0.1055 -0.0951 -0.3194
 1432SOL     OW 5773   0.516   3.211   3.676  0.4236 -0.4258  0.7150
 1432SOL    HW2 5774   0.601   3.184   3.641 -0.6157 -1.1245 -1.3610
 1432SOL    HW3 5775   0.469   3.130   3.691 -0.1480 -0.0115  1.2290
 1432SOL    MW4 5776   0.521   3.197   3.674  0.2111 -0.4637  0.5088
 1433SOL     OW 5777   1.813   2.825   1.565 -0.1203  0.1291 -0.5410
 1433SOL    HW2 5778   1.873   2.751   1.567  0.0313  0.2153 -1.5369
 1433SOL    HW3 5779   1.837   2.873   1.486  0.1425  1.5379  0.3854
 1433SOL    MW4 5780   1.824   2.822   1.554 -0.0656  0.3264 -0.5500
 1434SOL     OW 5781   0.321   0.745   1.426  0.0875  0.1519  0.3841
 1434SOL    HW2 5782   0.377   0.766   1.501 -1.0059  1.5666  0.8112
 1434SOL    HW3 5783   0.250   0.694   1.463  0.4730 -0.6520  0.0230
 1434SOL    MW4 5784   0.319   0.741   1.441 -0.0059  0.2325  0.3927
 1435SOL     OW 5785   1.750   3.140   1.979 -0.5518 -0.4961 -0.4780
 1435SOL    HW2 5786   1.702   3.121   2.060  0.5298 -1.5539 -0.0718
 1435SOL    HW3 5787   1.683   3.148   1.912 -1.6461  2.3656  0.8561
 1435SOL    MW4 5788   1.735   3.139   1.981 -0.5536 -0.2580 -0.2484
 1436SOL     OW 5789   2.942   3.317   4.782  0.0715 -0.5821  0.3262
 1436SOL    HW2 5790   3.028   3.322   4.742  0.1902  0.5489  0.7000
 1436SOL    HW3 5791   2.950   3.248   4.848  0.4519 -1.0463 -0.2025
 1436SOL    MW4 5792   2.954   3.309   4.786  0.1371 -0.4945  0.3057
 1437SOL     OW 5793   0.161   0.218   3.733  0.0105 -0.2355 -0.9539
 1437SOL    HW2 5794   0.249   0.191   3.708  0.6145  0.1427  0.7077
 1437SOL    HW3 5795   0.147   0.300   3.686  1.2078  0.5722  0.0570
 1437SOL    MW4 5796   0.171   0.226   3.723  0.2481 -0.0790 -0.6013
 1438SOL     OW 5797   3.803   0.816   3.861 -0.3023  0.1102  0.1060
 1438SOL    HW2 5798   3.762   0.771   3.787  0.0150  0.5997 -0.3751
 1438SOL    HW3 5799   3.854   0.886   3.820 -0.3425  0.5467  0.8101
 1438SOL    MW4 5800   3.804   0.819   3.846 -0.2654  0.2324  0.1354
 1439SOL     OW 5801   4.036   3.208   4.318 -0.0245 -0.0869  0.2811
 1439SOL    HW2 5802   3.961   3.149   4.309 -0.5834  0.9997 -2.7299
 1439SOL    HW3 5803   4.111   3.155   4.291 -0.3496  0.1976 -1.1841
 1439SOL    MW4 5804   4.036   3.193   4.313 -0.1416  0.0937 -0.3090
 1440SOL     OW 5805   2.232   0.935   3.000 -0.5484  0.3529 -0.1446
 1440SOL    HW2 5806   2.327   0.947   3.004 -0.5721  1.1776 -1.5296
 1440SOL    HW3 5807   2.220   0.845   2.969 -0.1881  0.6628 -1.2064
 1440SOL    MW4 5808   2.243   0.925   2.996 -0.5040  0.5026 -0.4675
 1441SOL     OW 5809   1.666   0.706   1.316 -0.1281 -0.4032 -0.0896
 1441SOL    HW2 5810   1.678   0.792   1.278  0.6185 -0.8128 -0.7980
 1441SOL    HW3 5811   1.644   0.722   1.408  1.9399  0.4901  0.2791
 1441SOL    MW4 5812   1.665   0.719   1.323  0.2432 -0.3394 -0.1343
 1442SOL     OW 5813   2.421   3.080   2.838  0.1799 -0.3354  0.2109
 1442SOL    HW2 5814   2.408   2.997   2.883 -1.1920 -0.3729 -0.2214
 1442SOL    HW3 5815   2.504   3.114   2.872 -0.2095 -0.9606  1.8123
 1442SOL    MW4 5816   2.430   3.074   2.848 -0.0525 -0.4230  0.3650
 1443SOL     OW 5817   4.026   2.779   4.146  0.2059  0.0886 -0.1214
 1443SOL    HW2 5818   3.986   2.694   4.126  1.2275 -0.8335  1.5426
 1443SOL    HW3 5819   4.118   2.768   4.120  0.2774  0.7908 -0.1649
 1443SOL    MW4 5820   4.033   2.766   4.140  0.3505  0.0596  0.0925
 1444SOL     OW 5821   3.392   2.968   2.100  0.3025  0.3597 -0.2530
 1444SOL    HW2 5822   3.425   2.889   2.142 -1.0450 -0.0385  0.0878
 1444SOL    HW3 5823   3.431   3.040   2.151  0.9979 -0.0862 -0.1514
 1444SOL    MW4 5824   3.401   2.967   2.112  0.2162  0.2480 -0.1948
 1445SOL     OW 5825   0.736   0.918   2.265  0.1940 -0.3381  0.2176
 1445SOL    HW2 5826   0.830   0.935   2.259 -0.3332  2.5166 -0.6176
 1445SOL    HW3 5827   0.695   0.998   2.232 -2.5477 -1.2009  1.4172
 1445SOL    MW4 5828   0.743   0.931   2.260 -0.2373 -0.0753  0.2658
 1446SOL     OW 5829   1.927   3.227   2.978 -0.1962 -0.2379 -0.1434
 1446SOL    HW2 5830   1.955   3.242   2.888 -1.1963 -0.0785 -0.4319
 1446SOL    HW3 5831   1.905   3.134   2.981 -0.2680 -0.2192 -0.0943
 1446SOL    MW4 5832   1.928   3.217   2.966 -0.3376 -0.2146 -0.1748
 1447SOL     OW 5833   0.504   1.090   1.531  0.4271 -0.0485  0.7450
 1447SOL    HW2 5834   0.474   1.065   1.444  0.1082 -1.4881  1.2403
 1447SOL    HW3 5835   0.498   1.009   1.582  1.9577  0.4296  1.7326
 1447SOL    MW4 5836   0.499   1.076   1.527  0.5870 -0.1755  0.9408
 1448SOL     OW 5837   1.751   2.929   2.582 -0.2656  0.1809  0.2725
 1448SOL    HW2 5838   1.664   2.943   2.620 -0.1523  0.8662  0.2759
 1448SOL    HW3 5839   1.767   2.835   2.594 -1.0345  0.0384  0.2046
 1448SOL    MW4 5840   1.741   2.918   2.589 -0.3520  0.2525  0.2639
 1449SOL     OW 5841   2.804   3.618   2.361 -0.1620  0.4056  0.2057
 1449SOL    HW2 5842   2.883   3.671   2.372 -0.3246  0.9003 -0.9446
 1449SOL    HW3 5843   2.760   3.623   2.446  0.4859  1.0317  0.5100
 1449SOL    MW4 5844   2.808   3.625   2.374 -0.0980  0.5536  0.0942
 1450SOL     OW 5845   3.378   0.967   3.226 -0.6992 -0.4042 -0.1619
 1450SOL    HW2 5846   3.346   0.887   3.268 -0.5538 -0.8767 -0.9281
 1450SOL    HW3 5847   3.471   0.949   3.210 -0.4591  0.2615  0.4392
 1450SOL    MW4 5848   3.386   0.954   3.230 -0.6483 -0.3787 -0.1836
 1451SOL     OW 5849   0.544   2.705   2.502 -0.1136 -0.3176 -0.3189
 1451SOL    HW2 5850   0.505   2.781   2.545  0.4920 -0.8085  1.1146
 1451SOL    HW3 5851   0.638   2.715   2.515  0.2059  0.2819 -2.8045
 1451SOL    MW4 5852   0.551   2.716   2.509  0.0084 -0.3035 -0.4575
 1452SOL     OW 5853   1.693   3.555   1.453  0.0671 -0.5050  0.3843
 1452SOL    HW2 5854   1.600   3.558   1.431  0.2314  1.2689 -0.1532
 1452SOL    HW3 5855   1.732   3.503   1.383 -0.3721 -0.4089  0.0648
 1452SOL    MW4 5856   1.686   3.548   1.441  0.0309 -0.2580  0.2712
 1453SOL     OW 5857   4.374   2.938   2.537 -0.2612  0.4598 -0.4581
 1453SOL    HW2 5858   4.395   3.020   2.491  0.0242  0.0558 -1.0591
 1453SOL    HW3 5859   4.398   2.955   2.628 -1.0229  1.3384 -0.4140
 1453SOL    MW4 5860   4.380   2.951   2.543 -0.3242  0.5224 -0.5312
 1454SOL     OW 5861   2.876   2.119   4.386 -0.3204  0.1644  0.1830
 1454SOL    HW2 5862   2.969   2.119   4.363  0.0368  0.4953  1.5803
 1454SOL    HW3 5863   2.831   2.100   4.304  0.9698  0.2471 -0.5564
 1454SOL    MW4 5864   2.882   2.117   4.373 -0.1032  0.2189  0.2699
 1455SOL     OW 5865   4.044   3.256   1.884 -0.6383 -0.1212  0.1220
 1455SOL    HW2 5866   4.040   3.350   1.897 -0.2097  0.0806 -1.1627
 1455SOL    HW3 5867   3.959   3.223   1.915 -1.2016  0.8041 -0.4410
 1455SOL    MW4 5868   4.032   3.264   1.890 -0.6561  0.0274 -0.1218
 1456SOL     OW 5869   1.609   1.467   2.028 -0.6170  0.0200  0.0701
 1456SOL    HW2 5870   1.571   1.390   2.070  0.6608 -0.2750  0.7287
 1456SOL    HW3 5871   1.573   1.541   2.076  1.3079 -0.3312  2.1762
 1456SOL    MW4 5872   1.599   1.466   2.039 -0.1944 -0.0652  0.4349
 1457SOL     OW 5873   3.602   1.276   4.339 -0.1702  0.2244 -0.5822
 1457SOL    HW2 5874   3.585   1.325   4.258  2.4091  2.8161  0.3787
 1457SOL    HW3 5875   3.695   1.254   4.335 -0.5759 -1.8519  0.5385
 1457SOL    MW4 5876   3.612   1.280   4.328  0.1166  0.2923 -0.3080
 1458SOL     OW 5877   2.071   4.238   2.350 -0.3334  0.1206 -0.1584
 1458SOL    HW2 5878   2.062   4.148   2.317 -0.3268  0.1734 -0.3037
 1458SOL    HW3 5879   2.165   4.249   2.365 -0.2567  0.3337 -0.7921
 1458SOL    MW4 5880   2.082   4.228   2.348 -0.3221  0.1559 -0.2613
 1459SOL     OW 5881   1.300   3.390   2.650  0.0985  0.3300 -0.4175
 1459SOL    HW2 5882   1.379   3.346   2.680 -0.0732 -1.8452 -2.9246
 1459SOL    HW3 5883   1.229   3.331   2.674 -0.6159  1.5424  0.4678
 1459SOL    MW4 5884   1.301   3.376   2.657 -0.0185  0.2031 -0.6318
 1460SOL     OW 5885   0.808   3.712   3.425 -0.0066 -0.3401 -0.3020
 1460SOL    HW2 5886   0.721   3.749   3.438 -1.0163 -1.9974 -1.9891
 1460SOL    HW3 5887   0.806   3.629   3.473  0.6615 -0.3687 -0.3168
 1460SOL    MW4 5888   0.796   3.706   3.433 -0.0516 -0.5627 -0.5267
 1461SOL     OW 5889   4.156   4.191   2.016 -0.2960 -0.3282 -0.2996
 1461SOL    HW2 5890   4.062   4.193   1.995 -0.3333  0.5676 -0.1011
 1461SOL    HW3 5891   4.160   4.216   2.108  0.2783  1.9233 -0.8912
 1461SOL    MW4 5892   4.144   4.195   2.025 -0.2255  0.0868 -0.3514
 1462SOL     OW 5893   2.347   0.779   4.396 -0.4292  0.7149  0.6294
 1462SOL    HW2 5894   2.419   0.830   4.360  0.4913 -0.5725  0.6516
 1462SOL    HW3 5895   2.333   0.708   4.334 -0.3924 -0.1504  1.5938
 1462SOL    MW4 5896   2.354   0.777   4.383 -0.3030  0.4308  0.7596
 1463SOL     OW 5897   2.196   3.180   3.010 -0.2133  0.1091  0.2361
 1463SOL    HW2 5898   2.116   3.227   2.987  0.1059  0.0672 -1.0066
 1463SOL    HW3 5899   2.246   3.177   2.929  0.8899 -0.1879  0.9158
 1463SOL    MW4 5900   2.192   3.186   2.996 -0.0255  0.0644  0.1619
 1464SOL     OW 5901   0.616   4.660   4.255 -0.2024  0.4153  0.0477
 1464SOL    HW2 5902   0.549   4.722   4.227 -1.1314 -0.2901  0.6663
 1464SOL    HW3 5903   0.685   4.667   4.189 -1.2909  0.5086 -1.0954
 1464SOL    MW4 5904   0.617   4.669   4.242 -0.4686  0.3347 -0.0215
 1465SOL     OW 5905   2.001   2.125   3.980 -0.0841  0.0287  0.4337
 1465SOL    HW2 5906   1.950   2.096   4.055 -1.2560 -0.2593 -0.4586
 1465SOL    HW3 5907   1.963   2.211   3.957 -1.2566 -0.8915 -1.2077
 1465SOL    MW4 5908   1.989   2.133   3.987 -0.3934 -0.1304  0.0992
 1466SOL     OW 5909   2.597   4.605   2.918  0.1004 -0.1907  0.2315
 1466SOL    HW2 5910   2.665   4.665   2.887  2.0064 -1.4348  1.8373
 1466SOL    HW3 5911   2.518   4.632   2.871  1.9196  0.6330 -2.5055
 1466SOL    MW4 5912   2.596   4.616   2.907  0.5920 -0.2470  0.0823
 1467SOL     OW 5913   2.941   1.927   2.598 -0.0893  0.0468  0.6043
 1467SOL    HW2 5914   2.941   2.019   2.575 -0.3915 -0.2397 -0.5644
 1467SOL    HW3 5915   3.031   1.909   2.624  0.1302  0.5020  0.1592
 1467SOL    MW4 5916   2.953   1.936   2.598 -0.1004  0.0691  0.3912
 1468SOL     OW 5917   1.352   3.614   4.743 -0.3890  0.1044  0.2540
 1468SOL    HW2 5918   1.376   3.564   4.665 -2.0293  2.7879 -2.0413
 1468SOL    HW3 5919   1.336   3.547   4.810  0.9654 -2.2521 -1.6995
 1468SOL    MW4 5920   1.353   3.598   4.742 -0.4269  0.1476 -0.3071
 1469SOL     OW 5921   3.116   3.228   2.970 -0.3193 -0.0909  0.0931
 1469SOL    HW2 5922   3.081   3.272   3.047  0.6638  0.4213  0.2612
 1469SOL    HW3 5923   3.167   3.295   2.924 -0.8748 -0.4003 -0.9882
 1469SOL    MW4 5924   3.118   3.242   2.974 -0.2627 -0.0639 -0.0274
 1470SOL     OW 5925   1.881   2.899   1.837  0.1865 -0.1588  0.3072
 1470SOL    HW2 5926   1.845   2.873   1.752  1.1513  0.0881 -0.1769
 1470SOL    HW3 5927   1.823   2.969   1.866  1.2476  1.4117 -1.2522
 1470SOL    MW4 5928   1.868   2.905   1.829  0.4537  0.0808  0.0376
 1471SOL     OW 5929   3.289   3.970   1.657  0.2273  0.1214 -0.7199
 1471SOL    HW2 5930   3.266   3.901   1.720  2.3617 -1.0511 -1.1896
 1471SOL    HW3 5931   3.273   3.931   1.571  1.0444  0.3529 -0.9820
 1471SOL    MW4 5932   3.284   3.956   1.654  0.6166 -0.0029 -0.8165
 1472SOL     OW 5933   3.347   3.348   4.287  0.8344  0.2798  0.1245
 1472SOL    HW2 5934   3.365   3.262   4.326 -0.2539  0.1277  0.3009
 1472SOL    HW3 5935   3.280   3.331   4.221 -0.8358  1.2853  1.5256
 1472SOL    MW4 5936   3.340   3.334   4.284  0.4704  0.3927  0.3328
 1473SOL     OW 5937   1.935   3.177   4.430  0.4199  0.2275 -0.5291
 1473SOL    HW2 5938   1.898   3.171   4.343 -0.0739  1.2583 -0.3975
 1473SOL    HW3 5939   1.927   3.269   4.454  0.2793 -0.0863  0.7199
 1473SOL    MW4 5940   1.929   3.188   4.422  0.3362  0.3221 -0.3467
 1474SOL     OW 5941   0.437   2.311   2.791  0.2418  0.3366 -0.4394
 1474SOL    HW2 5942   0.431   2.397   2.750  1.3369  1.6698  2.1010
 1474SOL    HW3 5943   0.388   2.320   2.873 -3.1773 -2.6866 -1.9737
 1474SOL    MW4 5944   0.430   2.324   2.796 -0.0648  0.1137 -0.3068
 1475SOL     OW 5945   1.259   2.784   1.851 -0.5451 -0.2689  0.5983
 1475SOL    HW2 5946   1.253   2.860   1.794 -1.1804 -0.0111  0.9902
 1475SOL    HW3 5947   1.271   2.710   1.792  0.1416  0.1431  0.2185
 1475SOL    MW4 5948   1.259   2.784   1.836 -0.5382 -0.1805  0.6000
 1476SOL     OW 5949   3.860   1.021   2.096  0.3458 -0.6258 -0.6342
 1476SOL    HW2 5950   3.948   1.052   2.075  0.0065  0.1634 -0.9025
 1476SOL    HW3 5951   3.806   1.056   2.025 -0.2838 -0.6019 -0.1363
 1476SOL    MW4 5952   3.865   1.029   2.084  0.2174 -0.5184 -0.6042
 1477SOL     OW 5953   1.355   3.222   1.309 -0.0641 -0.2034  0.5299
 1477SOL    HW2 5954   1.292   3.166   1.264  2.0121 -1.8715 -0.4326
 1477SOL    HW3 5955   1.370   3.294   1.249 -0.4220 -0.2393  0.3949
 1477SOL    MW4 5956   1.349   3.224   1.295  0.1627 -0.4282  0.3850
 1478SOL     OW 5957   3.645   0.358   2.407 -0.1064  0.3283  0.4669
 1478SOL    HW2 5958   3.561   0.380   2.365  1.0736  3.0583 -0.5542
 1478SOL    HW3 5959   3.711   0.378   2.341  1.4752  0.0444  1.9362
 1478SOL    MW4 5960   3.642   0.364   2.392  0.2580  0.6510  0.5260
 1479SOL     OW 5961   1.041   4.508   2.207 -0.1746  0.1430 -0.0619
 1479SOL    HW2 5962   1.093   4.498   2.287 -0.4545  2.0041  0.3829
 1479SOL    HW3 5963   1.069   4.436   2.151  1.2719 -0.1801  1.0424
 1479SOL    MW4 5964   1.051   4.497   2.210 -0.0209  0.3457  0.1423
 1480SOL     OW 5965   0.423   2.317   3.926  0.5094 -0.8909  1.1537
 1480SOL    HW2 5966   0.462   2.330   4.012  0.0839 -2.1524  1.5460
 1480SOL    HW3 5967   0.413   2.222   3.918 -0.8263 -0.7015  0.3327
 1480SOL    MW4 5968   0.427   2.307   3.936  0.2770 -1.0324  1.0972
 1481SOL     OW 5969   2.170   4.098   3.948 -0.2745  0.0387  0.0152
 1481SOL    HW2 5970   2.130   4.037   4.010 -1.2830  0.9197  0.2567
 1481SOL    HW3 5971   2.095   4.141   3.905  0.4119  0.4434 -0.8037
 1481SOL    MW4 5972   2.155   4.096   3.950 -0.3171  0.2084 -0.0608
 1482SOL     OW 5973   0.465   4.610   4.500 -0.2283  0.2157 -0.2020
 1482SOL    HW2 5974   0.438   4.522   4.526  0.4577 -0.4120 -1.5396
 1482SOL    HW3 5975   0.527   4.596   4.428  0.2559  1.7747 -0.1131
 1482SOL    MW4 5976   0.469   4.597   4.494 -0.0739  0.3386 -0.3667
 1483SOL     OW 5977   1.915   4.212   3.831 -0.1388 -0.0266 -0.0309
 1483SOL    HW2 5978   1.826   4.187   3.857  0.0819 -1.6231 -0.8060
 1483SOL    HW3 5979   1.921   4.304   3.856 -2.5811  0.5829 -1.4600
 1483SOL    MW4 5980   1.904   4.221   3.838 -0.4319 -0.1564 -0.3216
 1484SOL     OW 5981   2.930   4.490   3.377  0.5639 -0.7336 -0.6022
 1484SOL    HW2 5982   2.961   4.434   3.447  0.4537 -0.2514 -0.1617
 1484SOL    HW3 5983   2.836   4.475   3.373  0.1856  1.0294  0.9890
 1484SOL    MW4 5984   2.922   4.481   3.385  0.4995 -0.4373 -0.3343
 1485SOL     OW 5985   1.222   0.834   1.019  0.1184 -0.1756 -0.0677
 1485SOL    HW2 5986   1.183   0.872   0.940  1.6061  1.2815 -0.1121
 1485SOL    HW3 5987   1.160   0.766   1.045 -1.9320  1.3981 -0.7238
 1485SOL    MW4 5988   1.209   0.830   1.012  0.0441  0.2242 -0.1601
 1486SOL     OW 5989   3.295   1.920   3.133 -0.2340 -0.1872  0.3809
 1486SOL    HW2 5990   3.354   1.846   3.152  0.1092  0.0487  0.2521
 1486SOL    HW3 5991   3.269   1.907   3.042  0.7627  0.4868 -0.0101
 1486SOL    MW4 5992   3.300   1.908   3.123 -0.0572 -0.0672  0.3126
 1487SOL     OW 5993   4.178   4.586   1.994  0.2035 -0.0925 -0.0900
 1487SOL    HW2 5994   4.108   4.554   1.937 -1.5211 -0.1551  2.0141
 1487SOL    HW3 5995   4.248   4.522   1.984  0.2465  0.2770 -2.6787
 1487SOL    MW4 5996   4.178   4.574   1.985 -0.0186 -0.0520 -0.1539
 1488SOL     OW 5997   4.357   1.575   3.921  0.7903 -0.0040  0.1576
 1488SOL    HW2 5998   4.392   1.628   3.849  0.0633  0.2003 -0.0526
 1488SOL    HW3 5999   4.319   1.498   3.878  1.2955 -0.3995  0.4128
 1488SOL    MW4 6000   4.357   1.572   3.906  0.7610 -0.0292  0.1638
 1489SOL     OW 6001   2.116   2.542   3.986 -0.3999 -0.4294 -0.3762
 1489SOL    HW2 6002   2.203   2.575   3.965  0.3886 -1.8588  0.5330
 1489SOL    HW3 6003   2.058   2.585   3.924  0.4157  3.3904  1.3708
 1489SOL    MW4 6004   2.120   2.552   3.975 -0.1881 -0.1140 -0.0260
 1490SOL     OW 6005   0.476   3.680   3.791  0.2748 -0.4621 -0.0194
 1490SOL    HW2 6006   0.400   3.628   3.816  0.6197 -0.8222  0.2823
 1490SOL    HW3 6007   0.549   3.619   3.793  0.3167 -0.5227 -1.9410
 1490SOL    MW4 6008   0.476   3.665   3.794  0.3259 -0.5176 -0.2332
 1491SOL     OW 6009   2.236   3.681   2.680  0.8999  0.3971  0.0105
 1491SOL    HW2 6010   2.292   3.658   2.606  0.3829  1.5065 -0.7448
 1491SOL    HW3 6011   2.204   3.769   2.659 -0.4886  0.0925  0.8096
 1491SOL    MW4 6012   2.239   3.690   2.668  0.6485  0.5031  0.0162
 1492SOL     OW 6013   2.930   1.799   2.963 -0.2103  0.5570 -0.0176
 1492SOL    HW2 6014   2.897   1.883   2.932  0.3712  0.6775 -0.3196
 1492SOL    HW3 6015   2.963   1.817   3.051  1.5509  1.0482 -0.7677
 1492SOL    MW4 6016   2.930   1.812   2.971  0.0989  0.6378 -0.1564
 1493SOL     OW 6017   0.197   3.219   4.582  0.3412 -0.3653 -0.0087
 1493SOL    HW2 6018   0.147   3.267   4.517  0.7939 -1.7841 -1.4223
 1493SOL    HW3 6019   0.141   3.146   4.608  0.5431 -0.3519  0.4751
 1493SOL    MW4 6020   0.183   3.216   4.577  0.4276 -0.5510 -0.1316
 1494SOL     OW 6021   3.851   1.568   4.372  0.1881  0.4553  0.0028
 1494SOL    HW2 6022   3.879   1.563   4.464  0.4576 -0.8624 -0.1468
 1494SOL    HW3 6023   3.760   1.540   4.374  0.6201 -0.9968 -0.3295
 1494SOL    MW4 6024   3.843   1.563   4.385  0.2806  0.0899 -0.0610
 1495SOL     OW 6025   0.176   4.158   1.908  0.0325 -0.2061 -0.0290
 1495SOL    HW2 6026   0.153   4.193   1.822 -0.2226 -1.4208 -0.4669
 1495SOL    HW3 6027   0.129   4.074   1.913  0.5902 -0.4607  1.0097
 1495SOL    MW4 6028   0.167   4.151   1.897  0.0725 -0.4001  0.0503
 1496SOL     OW 6029   4.271   3.950   1.927  0.0851  1.0257 -0.7094
 1496SOL    HW2 6030   4.335   3.985   1.865  0.8661  1.0438  0.0969
 1496SOL    HW3 6031   4.222   4.027   1.956 -0.4199  0.9893 -1.4553
 1496SOL    MW4 6032   4.273   3.965   1.923  0.1211  1.0235 -0.7013
 1497SOL     OW 6033   2.843   0.659   2.378 -0.2211 -0.5517 -0.2325
 1497SOL    HW2 6034   2.918   0.604   2.356 -0.6602 -0.8113 -1.1126
 1497SOL    HW3 6035   2.881   0.736   2.421  0.6147 -0.3323 -1.3335
 1497SOL    MW4 6036   2.858   0.662   2.381 -0.1686 -0.5570 -0.4940
 1498SOL     OW 6037   3.320   2.104   1.735 -0.2970 -0.5072  0.4638
 1498SOL    HW2 6038   3.293   2.179   1.789 -1.7199 -0.0755 -0.8157
 1498SOL    HW3 6039   3.298   2.130   1.646 -0.5337 -2.3450 -0.0301
 1498SOL    MW4 6040   3.314   2.118   1.731 -0.5159 -0.6928  0.2298
 1499SOL     OW 6041   0.879   1.960   0.477  0.1021  0.0846  0.0441
 1499SOL    HW2 6042   0.811   1.918   0.424  0.2342 -0.3027  0.1772
 1499SOL    HW3 6043   0.949   1.979   0.415  0.3043 -0.4732  0.0956
 1499SOL    MW4 6044   0.880   1.957   0.462  0.1462 -0.0401  0.0685
 1500SOL     OW 6045   0.329   1.523   3.956 -0.0563 -0.0397  0.3727
 1500SOL    HW2 6046   0.275   1.601   3.949  0.4840  0.1988 -1.4207
 1500SOL    HW3 6047   0.273   1.452   3.922  0.2026 -0.0559 -0.0252
 1500SOL    MW4 6048   0.314   1.524   3.951  0.0491 -0.0103  0.0837
 1501SOL     OW 6049   2.213   1.333   0.741 -0.3479 -0.3695  0.1049
 1501SOL    HW2 6050   2.232   1.240   0.734 -0.6110 -0.3639 -0.7346
 1501SOL    HW3 6051   2.133   1.345   0.690  0.9437  0.6950 -1.7313
 1501SOL    MW4 6052   2.205   1.322   0.734 -0.2122 -0.2284 -0.2481
 1502SOL     OW 6053   2.721   2.222   1.000 -0.1506 -0.4379  0.3559
 1502SOL    HW2 6054   2.659   2.181   0.939  0.2589 -1.9018  0.9042
 1502SOL    HW3 6055   2.790   2.257   0.945 -1.0027  0.4040 -0.1970
 1502SOL    MW4 6056   2.722   2.221   0.985 -0.2091 -0.5200  0.3554
 1503SOL     OW 6057   2.663   1.627   3.466 -0.2793 -0.2212  0.2422
 1503SOL    HW2 6058   2.599   1.559   3.488 -0.2381 -0.3009  0.1183
 1503SOL    HW3 6059   2.621   1.679   3.397 -0.9675  0.8755  1.4788
 1503SOL    MW4 6060   2.649   1.625   3.459 -0.3648 -0.0869  0.3893
 1504SOL     OW 6061   0.940   3.368   2.804  0.0055  0.1463 -0.3901
 1504SOL    HW2 6062   0.864   3.399   2.755 -1.5140 -1.8614  0.6173
 1504SOL    HW3 6063   0.981   3.447   2.839 -2.1562  1.1724 -0.1590
 1504SOL    MW4 6064   0.936   3.382   2.802 -0.4803  0.0169 -0.2265
 1505SOL     OW 6065   1.937   3.828   2.612  0.1241 -0.2318  0.3879
 1505SOL    HW2 6066   1.880   3.780   2.672 -1.4472  1.2433  0.1268
 1505SOL    HW3 6067   1.990   3.884   2.669 -0.8565  0.6322  0.4739
 1505SOL    MW4 6068   1.936   3.829   2.627 -0.2127  0.0768  0.3648
 1506SOL     OW 6069   2.131   2.847   1.002 -0.0178  0.2788  0.0503
 1506SOL    HW2 6070   2.108   2.754   0.999 -0.1130  0.2712  0.9288
 1506SOL    HW3 6071   2.134   2.868   1.095 -0.3517  1.2523 -0.1571
 1506SOL    MW4 6072   2.129   2.837   1.014 -0.0741  0.4063  0.1390
 1507SOL     OW 6073   2.863   2.365   2.076 -0.0586 -0.0360 -0.0390
 1507SOL    HW2 6074   2.782   2.354   2.125  1.0784 -1.9899  1.5214
 1507SOL    HW3 6075   2.836   2.394   1.989 -2.5175 -1.8053  0.0821
 1507SOL    MW4 6076   2.849   2.367   2.071 -0.2329 -0.5271  0.1831
 1508SOL     OW 6077   1.623   3.422   3.852 -0.1690  0.3144  0.0743
 1508SOL    HW2 6078   1.573   3.503   3.838  1.6238  1.5168  0.5384
 1508SOL    HW3 6079   1.695   3.427   3.789  0.0071 -0.8929  0.1676
 1508SOL    MW4 6080   1.626   3.433   3.841  0.0908  0.3138  0.1478
 1509SOL     OW 6081   1.148   3.096   1.163  0.0000  0.0000  0.1474
 1509SOL    HW2 6082   1.122   3.007   1.186  0.0000  0.0000  0.1367
 1509SOL    HW3 6083   1.136   3.101   1.068  0.0000  0.0000  0.1472
 1509SOL    MW4 6084   1.143   3.085   1.153  0.0000  0.0000  0.1459
 1510SOL     OW 6085   0.919   3.208   1.289  0.0000  0.0000  0.7564
 1510SOL    HW2 6086   0.902   3.287   1.237  0.0000  0.0000  0.7187
 1510SOL    HW3 6087   1.006   3.179   1.260  0.0000  0.0000  0.7866
 1510SOL    MW4 6088   0.928   3.215   1.279  0.0000  0.0000  0.7555
 1511SOL     OW 6089   0.887   3.462   1.106  0.0000  0.0000  0.5586
 1511SOL    HW2 6090   0.961   3.507   1.147  0.0000  0.0000  0.5523
 1511SOL    HW3 6091   0.810   3.511   1.137  0.0000  0.0000  0.5460
 1511SOL    MW4 6092   0.887   3.475   1.116  0.0000  0.0000  0.5561
 1512SOL     OW 6093   1.102   3.599   1.205  0.0000  0.0000 -0.3608
 1512SOL    HW2 6094   1.101   3.626   1.296  0.0000  0.0000 -0.3605
 1512SOL    HW3 6095   1.100   3.681   1.155  0.0000  0.0000 -0.3606
 1512SOL    MW4 6096   1.102   3.613   1.210  0.0000  0.0000 -0.3605
 1513SOL     OW 6097   1.098   3.851   1.045  0.0000  0.0000  0.0890
 1513SOL    HW2 6098   1.178   3.889   1.082  0.0000  0.0000  0.0923
 1513SOL    HW3 6099   1.110   3.859   0.950  0.0000  0.0000  0.0896
 1513SOL    MW4 6100   1.110   3.857   1.037  0.0000  0.0000  0.0895
 1514SOL     OW 6101   0.893   4.008   1.175  0.0000  0.0000 -0.7057
 1514SOL    HW2 6102   0.957   3.963   1.120  0.0000  0.0000 -0.6942
 1514SOL    HW3 6103   0.809   3.969   1.150  0.0000  0.0000 -0.7422
 1514SOL    MW4 6104   0.890   3.997   1.165  0.0000  0.0000 -0.7089
 1515SOL     OW 6105   0.888   4.266   1.092  0.0000  0.0000  0.0531
 1515SOL    HW2 6106   0.892   4.174   1.117  0.0000  0.0000  0.0475
 1515SOL    HW3 6107   0.884   4.265   0.996  0.0000  0.0000  0.0530
 1515SOL    MW4 6108   0.888   4.254   1.083  0.0000  0.0000  0.0523
 1516SOL     OW 6109   1.144   4.351   1.158  0.0000  0.0000  0.0176
 1516SOL    HW2 6110   1.137   4.378   1.250  0.0000  0.0000  0.0182
 1516SOL    HW3 6111   1.055   4.327   1.134  0.0000  0.0000  0.0115
 1516SOL    MW4 6112   1.131   4.351   1.167  0.0000  0.0000  0.0169
 1517SOL     OW 6113   1.593   4.643   1.500  0.0000  0.0000  0.0316
 1517SOL    HW2 6114   1.588   4.549   1.516  0.0000  0.0000  0.0513
 1517SOL    HW3 6115   1.581   4.652   1.406  0.0000  0.0000  0.0299
 1517SOL    MW4 6116   1.591   4.632   1.490  0.0000  0.0000  0.0339
 1518SOL     OW 6117   4.247   2.863   3.702  0.0807 -0.1707 -0.3193
 1518SOL    HW2 6118   4.256   2.907   3.618  2.0427 -0.6163 -0.3759
 1518SOL    HW3 6119   4.161   2.889   3.734 -0.7654 -0.1480 -2.5420
 1518SOL    MW4 6120   4.237   2.872   3.695  0.2279 -0.2265 -0.6201
 1519SOL     OW 6121   0.059   3.916   2.000  0.1881 -0.2756 -0.1319
 1519SOL    HW2 6122   0.034   3.827   1.976 -0.4727 -0.6795  1.9378
 1519SOL    HW3 6123  -0.024   3.964   2.003  0.3668  0.0084  0.3172
 1519SOL    MW4 6124   0.045   3.910   1.997  0.1245 -0.2913  0.2004
 1520SOL     OW 6125   3.111   2.794   1.317  0.4661 -0.4759 -0.0961
 1520SOL    HW2 6126   3.089   2.801   1.224 -0.4939  0.9798  0.2203
 1520SOL    HW3 6127   3.032   2.822   1.362  1.6954  1.1213  1.1310
 1520SOL    MW4 6128   3.098   2.798   1.311  0.5016 -0.0730  0.1075
 1521SOL     OW 6129   2.682   3.230   4.653 -0.0143  0.1118 -0.0366
 1521SOL    HW2 6130   2.769   3.246   4.690 -0.0934  3.5065 -1.1090
 1521SOL    HW3 6131   2.666   3.306   4.597 -3.7666 -0.3514  0.2889
 1521SOL    MW4 6132   2.692   3.242   4.650 -0.5202  0.4985 -0.1354
 1522SOL     OW 6133   3.422   0.814   0.690  0.5741 -0.6693  0.0459
 1522SOL    HW2 6134   3.400   0.798   0.781  1.2395 -0.7331  0.2015
 1522SOL    HW3 6135   3.458   0.731   0.659 -0.2423 -0.8422 -0.4589
 1522SOL    MW4 6136   3.424   0.801   0.698  0.5541 -0.7006 -0.0002
 1523SOL     OW 6137   3.047   3.610   3.253 -0.0294 -0.0330  0.3913
 1523SOL    HW2 6138   3.078   3.679   3.195 -0.5423  0.9410  1.2651
 1523SOL    HW3 6139   3.084   3.632   3.339 -0.5100 -0.6220  0.7572
 1523SOL    MW4 6140   3.056   3.622   3.257 -0.1607  0.0179  0.5548
 1524SOL     OW 6141   3.918   2.244   2.192  0.1397  0.3618 -0.1207
 1524SOL    HW2 6142   3.860   2.212   2.261 -0.6856  0.4019 -0.7900
 1524SOL    HW3 6143   3.929   2.337   2.211 -1.2262  0.6813 -0.8415
 1524SOL    MW4 6144   3.912   2.252   2.204 -0.1497  0.4094 -0.3042
 1525SOL     OW 6145   4.072   0.710   0.771 -0.3858  0.5660  0.1031
 1525SOL    HW2 6146   4.020   0.785   0.801 -1.6750 -0.6540  0.9941
 1525SOL    HW3 6147   4.011   0.659   0.718  0.1539 -0.4230  0.4238
 1525SOL    MW4 6148   4.057   0.713   0.768 -0.4849  0.2745  0.2630
 1526SOL     OW 6149   0.140   1.185   1.950 -0.0822 -0.3459 -0.0778
 1526SOL    HW2 6150   0.157   1.126   2.023 -1.8335  0.6562  1.1679
 1526SOL    HW3 6151   0.145   1.129   1.873  0.7056 -1.6301  0.8824
 1526SOL    MW4 6152   0.143   1.170   1.949 -0.2093 -0.3831  0.2133
 1527SOL     OW 6153   1.424   1.008   3.222 -0.6325  0.6267  0.5069
 1527SOL    HW2 6154   1.415   1.000   3.317 -0.2835  0.1449  0.5016
 1527SOL    HW3 6155   1.516   0.987   3.205 -1.1322 -1.0671 -0.1306
 1527SOL    MW4 6156   1.435   1.005   3.232 -0.6523  0.3397  0.4220
 1528SOL     OW 6157   2.861   3.834   1.040 -0.2248  0.0566 -0.4122
 1528SOL    HW2 6158   2.849   3.804   1.130 -1.5590 -0.8187 -0.8751
 1528SOL    HW3 6159   2.823   3.922   1.039 -1.0106 -0.2819 -0.3452
 1528SOL    MW4 6160   2.855   3.842   1.052 -0.5043 -0.1037 -0.4646
 1529SOL     OW 6161   1.155   2.945   3.101  0.5041 -0.5658 -0.3065
 1529SOL    HW2 6162   1.063   2.962   3.121  0.5596 -1.3290  0.6425
 1529SOL    HW3 6163   1.155   2.857   3.063  0.9555 -0.9594  0.6010
 1529SOL    MW4 6164   1.143   2.936   3.098  0.5708 -0.7184 -0.0618
 1530SOL     OW 6165   2.207   2.246   3.402 -0.3392 -0.5680 -0.2301
 1530SOL    HW2 6166   2.294   2.249   3.444 -0.5699  0.2090  0.1910
 1530SOL    HW3 6167   2.201   2.328   3.353 -0.5119 -0.9904 -0.9173
 1530SOL    MW4 6168   2.218   2.257   3.401 -0.3924 -0.5212 -0.2651
 1531SOL     OW 6169   3.894   1.247   4.327 -0.2498  0.1645  0.2766
 1531SOL    HW2 6170   3.939   1.239   4.411  0.3250 -0.7389 -0.1085
 1531SOL    HW3 6171   3.945   1.312   4.278 -0.3224  0.3561  0.4564
 1531SOL    MW4 6172   3.906   1.255   4.331 -0.1836  0.0706  0.2494
 1532SOL     OW 6173   3.980   3.499   2.013 -0.4848  0.5424 -0.4571
 1532SOL    HW2 6174   4.025   3.581   2.034  0.3760 -0.0817  0.1753
 1532SOL    HW3 6175   3.969   3.455   2.097  0.2198 -0.5753 -0.9281
 1532SOL    MW4 6176   3.984   3.504   2.027 -0.2782  0.3126 -0.4361
 1533SOL     OW 6177   1.728   3.152   2.446 -0.0457 -0.1489 -0.2798
 1533SOL    HW2 6178   1.766   3.072   2.483 -0.6711 -0.7563 -0.9225
 1533SOL    HW3 6179   1.786   3.175   2.374 -0.0107 -0.1769 -0.2604
 1533SOL    MW4 6180   1.741   3.145   2.441 -0.1237 -0.2327 -0.3622
 1534SOL     OW 6181   2.129   3.424   0.691 -0.2643 -0.3679 -0.4709
 1534SOL    HW2 6182   2.164   3.352   0.639 -1.4349 -0.9726 -0.4198
 1534SOL    HW3 6183   2.069   3.383   0.753  0.6101  0.4258  0.9173
 1534SOL    MW4 6184   2.126   3.409   0.692 -0.3035 -0.3428 -0.2809
 1535SOL     OW 6185   3.803   3.121   3.063 -0.4279 -0.0685 -0.2329
 1535SOL    HW2 6186   3.717   3.147   3.030 -0.4581  1.1451  0.7702
 1535SOL    HW3 6187   3.862   3.191   3.034 -0.1421  0.1164  0.7756
 1535SOL    MW4 6188   3.800   3.134   3.055 -0.3941  0.1161  0.0327
 1536SOL     OW 6189   1.856   4.117   4.204 -0.1914 -0.4012  0.4401
 1536SOL    HW2 6190   1.807   4.134   4.124  0.6483  1.3855  0.2891
 1536SOL    HW3 6191   1.789   4.114   4.273 -0.5012  2.4598  0.3051
 1536SOL    MW4 6192   1.841   4.119   4.202 -0.1215  0.2112  0.4025
 1537SOL     OW 6193   2.378   2.552   1.213  0.0339 -0.3131 -0.2922
 1537SOL    HW2 6194   2.417   2.465   1.205  0.6677  0.0196 -0.8938
 1537SOL    HW3 6195   2.369   2.566   1.307  0.5743 -0.7484 -0.1762
 1537SOL    MW4 6196   2.382   2.542   1.224  0.1891 -0.3266 -0.3561
 1538SOL     OW 6197   3.006   0.235   4.017  0.1719  0.1670 -0.3409
 1538SOL    HW2 6198   2.962   0.168   4.069  0.8607 -0.1267 -0.1254
 1538SOL    HW3 6199   3.075   0.268   4.075  0.4267  0.4103 -0.7814
 1538SOL    MW4 6200   3.009   0.230   4.032  0.2966  0.1604 -0.3715
 1539SOL     OW 6201   0.995   1.007   2.527 -0.2233 -0.1020  0.2125
 1539SOL    HW2 6202   1.003   1.023   2.433 -0.6140 -0.1529  0.1701
 1539SOL    HW3 6203   0.904   1.028   2.547 -0.4303 -1.1538  0.3710
 1539SOL    MW4 6204   0.984   1.012   2.517 -0.3022 -0.2475  0.2275
 1540SOL     OW 6205   1.632   1.898   2.701  0.5335  0.2890 -0.4021
 1540SOL    HW2 6206   1.714   1.879   2.654  0.2930  1.6420 -1.4112
 1540SOL    HW3 6207   1.631   1.994   2.708 -0.5963  0.2296  0.2819
 1540SOL    MW4 6208   1.643   1.908   2.695  0.3526  0.4597 -0.4451
 1541SOL     OW 6209   3.717   0.176   2.592  0.5238  0.1994 -0.6591
 1541SOL    HW2 6210   3.688   0.245   2.532  2.4556  0.0763 -1.7798
 1541SOL    HW3 6211   3.639   0.155   2.644 -0.3302  2.5819 -0.9022
 1541SOL    MW4 6212   3.703   0.182   2.591  0.6659  0.4975 -0.8392
 1542SOL     OW 6213   3.255   0.260   2.742 -0.7009  0.0233 -0.1412
 1542SOL    HW2 6214   3.311   0.337   2.753 -0.5925 -0.0896  0.1211
 1542SOL    HW3 6215   3.250   0.246   2.648  0.5743 -0.5914 -0.1316
 1542SOL    MW4 6216   3.262   0.268   2.731 -0.5183 -0.0727 -0.1049
 1543SOL     OW 6217   3.689   4.204   2.870  0.3001  0.1185  0.1193
 1543SOL    HW2 6218   3.646   4.241   2.792  0.2849 -0.6615 -0.2477
 1543SOL    HW3 6219   3.736   4.128   2.837  0.3551 -0.1717  0.8672
 1543SOL    MW4 6220   3.690   4.199   2.855  0.3054 -0.0229  0.1695
 1544SOL     OW 6221   0.743   2.300   3.760 -0.1519 -0.1230 -0.7781
 1544SOL    HW2 6222   0.748   2.361   3.833 -2.7875 -0.4601 -0.2442
 1544SOL    HW3 6223   0.734   2.214   3.801 -1.8971 -0.2883 -1.4463
 1544SOL    MW4 6224   0.742   2.297   3.775 -0.7299 -0.1888 -0.7956
 1545SOL     OW 6225   1.267   0.829   3.091  0.2764 -0.3041  0.4273
 1545SOL    HW2 6226   1.282   0.858   3.001  1.9707  0.6209  0.9900
 1545SOL    HW3 6227   1.305   0.898   3.145 -1.1678 -0.6090  1.8713
 1545SOL    MW4 6228   1.274   0.842   3.086  0.3092 -0.2222  0.6921
 1546SOL     OW 6229   1.625   1.212   4.880 -0.0630 -0.3023 -0.1684
 1546SOL    HW2 6230   1.566   1.232   4.808  0.3310  0.5264 -0.2674
 1546SOL    HW3 6231   1.608   1.120   4.901 -0.2290 -0.5238 -1.2660
 1546SOL    MW4 6232   1.615   1.202   4.873 -0.0328 -0.2222 -0.3262
 1547SOL     OW 6233   0.517   3.287   2.102 -0.0998 -0.1220  0.2884
 1547SOL    HW2 6234   0.502   3.199   2.068 -1.5108  0.5526 -0.8731
 1547SOL    HW3 6235   0.592   3.320   2.053  0.0310 -0.4450  0.2752
 1547SOL    MW4 6236   0.525   3.280   2.091 -0.2687 -0.0758  0.1335
 1548SOL     OW 6237   4.423   3.293   4.150 -0.0167  0.4688  0.3090
 1548SOL    HW2 6238   4.454   3.355   4.083  0.8427 -0.3263 -0.0577
 1548SOL    HW3 6239   4.469   3.320   4.230  1.5342 -0.5946 -0.1935
 1548SOL    MW4 6240   4.433   3.305   4.152  0.3014  0.2236  0.1945
 1549SOL     OW 6241   3.495   0.779   2.137  0.0482 -0.5478  0.3973
 1549SOL    HW2 6242   3.536   0.852   2.184 -1.6485  0.3225  0.5426
 1549SOL    HW3 6243   3.496   0.806   2.045  1.3546 -1.2900  0.1784
 1549SOL    MW4 6244   3.501   0.792   2.131 -0.0033 -0.5309  0.3877
 1550SOL     OW 6245   1.446   0.578   2.231  0.8993  0.3432 -0.1710
 1550SOL    HW2 6246   1.510   0.606   2.297 -0.3789 -0.5119  1.4535
 1550SOL    HW3 6247   1.440   0.483   2.242 -1.3283  0.5166  0.3495
 1550SOL    MW4 6248   1.454   0.569   2.241  0.4368  0.2533  0.1121
 1551SOL     OW 6249   2.877   1.352   1.598 -0.8563  0.1283  0.1060
 1551SOL    HW2 6250   2.937   1.373   1.670  0.6508 -0.8539 -0.8093
 1551SOL    HW3 6251   2.881   1.427   1.540 -0.5074  0.0718  0.0552
 1551SOL    MW4 6252   2.886   1.364   1.600 -0.6113 -0.0086 -0.0216
 1552SOL     OW 6253   4.215   3.851   2.490 -0.5753  0.0532 -0.5430
 1552SOL    HW2 6254   4.270   3.862   2.413  0.5736  0.6436  0.3517
 1552SOL    HW3 6255   4.248   3.915   2.553 -1.5809 -0.3373  0.3953
 1552SOL    MW4 6256   4.227   3.861   2.488 -0.5565  0.0796 -0.3011
 1553SOL     OW 6257   3.754   3.584   4.090  0.2156 -0.1518 -0.4988
 1553SOL    HW2 6258   3.762   3.679   4.103  2.3665 -0.5039  1.0056
 1553SOL    HW3 6259   3.666   3.563   4.121  0.3231  1.1185  0.7032
 1553SOL    MW4 6260   3.743   3.594   4.096  0.5138 -0.0305 -0.1416
 1554SOL     OW 6261   1.815   1.159   4.674 -0.5602 -0.1588 -0.0358
 1554SOL    HW2 6262   1.762   1.195   4.603 -0.5056 -0.0656 -0.0285
 1554SOL    HW3 6263   1.769   1.185   4.754 -0.0017  0.7244  0.0029
 1554SOL    MW4 6264   1.802   1.167   4.675 -0.4795 -0.0300 -0.0296
 1555SOL     OW 6265   3.539   3.181   2.267  0.1395  0.3332  0.4474
 1555SOL    HW2 6266   3.489   3.261   2.253  0.1559  0.1638 -0.6058
 1555SOL    HW3 6267   3.615   3.208   2.319  0.9804  1.2805 -1.2726
 1555SOL    MW4 6268   3.543   3.195   2.272  0.2525  0.4358  0.0813
 1556SOL     OW 6269   2.915   4.172   3.875  0.0115  0.2289 -0.3391
 1556SOL    HW2 6270   2.906   4.092   3.927 -1.1815  0.4907 -0.1314
 1556SOL    HW3 6271   2.900   4.145   3.785 -0.0419  0.1609 -0.3090
 1556SOL    MW4 6272   2.912   4.158   3.870 -0.1531  0.2546 -0.3073
 1557SOL     OW 6273   0.629   3.652   4.427  0.3616  0.3552 -0.7022
 1557SOL    HW2 6274   0.660   3.571   4.385  0.2858  0.1406 -0.3466
 1557SOL    HW3 6275   0.702   3.677   4.485  0.9655  1.3113 -1.8591
 1557SOL    MW4 6276   0.643   3.645   4.429  0.4313  0.4530 -0.8082
 1558SOL     OW 6277   3.258   1.453   3.423 -0.1111  0.6079  0.9871
 1558SOL    HW2 6278   3.292   1.522   3.366 -1.1183  1.4176  1.3484
 1558SOL    HW3 6279   3.322   1.382   3.415  0.5900  1.3194  0.0917
 1558SOL    MW4 6280   3.271   1.453   3.414 -0.1514  0.8086  0.9167
 1559SOL     OW 6281   0.721   2.344   2.444  0.2094 -0.4827 -0.1702
 1559SOL    HW2 6282   0.750   2.413   2.383 -1.9817 -0.6310 -1.4436
 1559SOL    HW3 6283   0.750   2.374   2.530  1.4645  0.8042 -1.0127
 1559SOL    MW4 6284   0.729   2.357   2.447  0.0859 -0.3326 -0.4494
 1560SOL     OW 6285   4.281   2.075   3.482  0.3034 -0.1192 -0.7720
 1560SOL    HW2 6286   4.350   2.024   3.526 -0.8061 -1.8503 -1.0268
 1560SOL    HW3 6287   4.226   2.107   3.554 -0.6242 -1.6698 -0.7616
 1560SOL    MW4 6288   4.283   2.072   3.497  0.0343 -0.5522 -0.8042
 1561SOL     OW 6289   2.603   2.043   3.347  0.1996  0.2303  0.3774
 1561SOL    HW2 6290   2.671   2.068   3.286  0.3344  2.2443  1.3006
 1561SOL    HW3 6291   2.650   2.004   3.421  0.1839 -0.3645  0.0757
 1561SOL    MW4 6292   2.618   2.042   3.349  0.2151  0.4175  0.4597
 1562SOL     OW 6293   1.616   0.451   3.585  0.2081 -0.1254  0.1319
 1562SOL    HW2 6294   1.552   0.521   3.595 -0.0601 -0.4720  0.8908
 1562SOL    HW3 6295   1.606   0.422   3.494  0.9178  1.3869 -0.4356
 1562SOL    MW4 6296   1.606   0.456   3.574  0.2663  0.0283  0.1569
 1563SOL     OW 6297   3.032   4.518   2.402 -0.4471  0.4982  0.1269
 1563SOL    HW2 6298   3.097   4.509   2.471  0.3238  0.6610 -0.5656
 1563SOL    HW3 6299   2.960   4.461   2.429  1.3423 -2.2492 -0.6993
 1563SOL    MW4 6300   3.031   4.509   2.415 -0.1094  0.1574 -0.0732
 1564SOL     OW 6301   4.312   4.318   1.387 -0.0134 -0.4400 -0.1936
 1564SOL    HW2 6302   4.254   4.317   1.464  0.9098 -1.5818  0.5033
 1564SOL    HW3 6303   4.259   4.358   1.319 -0.8264  0.6696  1.0529
 1564SOL    MW4 6304   4.297   4.323   1.388  0.0005 -0.4449  0.0627
 1565SOL     OW 6305   1.111   0.882   0.764 -0.1613 -0.0519  0.8316
 1565SOL    HW2 6306   1.171   0.947   0.727 -0.1741  0.8491  2.3112
 1565SOL    HW3 6307   1.144   0.798   0.734  0.8985  0.5430  0.3166
 1565SOL    MW4 6308   1.123   0.879   0.755 -0.0232  0.1456  0.9589
 1566SOL     OW 6309   1.529   2.124   4.544  0.2921 -0.3780  0.3381
 1566SOL    HW2 6310   1.444   2.145   4.507  0.5107  1.5792  0.8859
 1566SOL    HW3 6311   1.511   2.057   4.610 -0.9635  0.6322  1.0469
 1566SOL    MW4 6312   1.516   2.118   4.548  0.1552  0.0136  0.5045
 1567SOL     OW 6313   3.059   2.207   2.001  0.2806 -0.7912 -0.5003
 1567SOL    HW2 6314   3.124   2.269   1.967  1.3971 -1.6916 -0.0316
 1567SOL    HW3 6315   2.987   2.262   2.032  0.6040  0.1914 -1.4679
 1567SOL    MW4 6316   3.058   2.223   2.001  0.4704 -0.7801 -0.5660
 1568SOL     OW 6317   2.464   0.741   1.133 -0.6304  0.0771  0.2218
 1568SOL    HW2 6318   2.405   0.668   1.117  0.4558 -0.9723  0.9591
 1568SOL    HW3 6319   2.478   0.780   1.047 -1.3654 -0.4554 -0.1412
 1568SOL    MW4 6320   2.458   0.737   1.120 -0.5841 -0.1317  0.2712
 1569SOL     OW 6321   1.334   3.822   2.722 -0.0050  0.2039  0.0012
 1569SOL    HW2 6322   1.410   3.765   2.708 -1.1490 -1.3238 -0.1238
 1569SOL    HW3 6323   1.301   3.797   2.808  1.0923  2.6191  1.1681
 1569SOL    MW4 6324   1.339   3.811   2.732 -0.0112  0.3211  0.1385
 1570SOL     OW 6325   0.315   0.533   1.693  0.4236  0.0011 -0.3249
 1570SOL    HW2 6326   0.304   0.455   1.746  0.2255  0.2194 -0.0424
 1570SOL    HW3 6327   0.377   0.507   1.625  1.6151  0.0552  0.7069
 1570SOL    MW4 6328   0.322   0.520   1.691  0.5547  0.0370 -0.1514
 1571SOL     OW 6329   4.092   0.859   3.448  0.1196  0.0131  0.0225
 1571SOL    HW2 6330   4.156   0.929   3.434 -0.3353  0.4603  0.1803
 1571SOL    HW3 6331   4.080   0.821   3.361  1.9032 -1.2288  0.2715
 1571SOL    MW4 6332   4.099   0.863   3.434  0.2956 -0.0917  0.0763
 1572SOL     OW 6333   0.687   0.939   0.936  0.2512 -0.1710 -0.0201
 1572SOL    HW2 6334   0.744   0.962   1.009  0.5363  1.8192 -0.8570
 1572SOL    HW3 6335   0.735   0.968   0.858 -2.4449  2.7703 -0.6603
 1572SOL    MW4 6336   0.701   0.946   0.935 -0.0669  0.4797 -0.2150
 1573SOL     OW 6337   1.639   1.089   1.576  0.2071  0.1163  0.4719
 1573SOL    HW2 6338   1.574   1.030   1.538  1.7819 -1.6095  0.3830
 1573SOL    HW3 6339   1.723   1.048   1.556  1.2154  0.8386  3.0751
 1573SOL    MW4 6340   1.641   1.076   1.568  0.5479 -0.0160  0.8036
 1574SOL     OW 6341   1.501   1.779   2.487 -0.0402  0.8237  0.4536
 1574SOL    HW2 6342   1.412   1.745   2.494  0.1540  0.4376  1.1536
 1574SOL    HW3 6343   1.528   1.796   2.577  0.6912  0.6835  0.2696
 1574SOL    MW4 6344   1.493   1.777   2.500  0.0819  0.7542  0.5214
 1575SOL     OW 6345   2.736   3.136   0.910  0.4114  0.0449 -0.1443
 1575SOL    HW2 6346   2.800   3.196   0.947  1.5185 -0.2953 -1.4617
 1575SOL    HW3 6347   2.699   3.183   0.835 -0.8575  0.2176  0.5675
 1575SOL    MW4 6348   2.739   3.150   0.905  0.3901  0.0229 -0.2242
 1576SOL     OW 6349   1.977   4.051   4.494 -0.3159 -0.3646  0.1375
 1576SOL    HW2 6350   2.054   4.052   4.437 -1.4969 -0.8058 -1.5131
 1576SOL    HW3 6351   2.011   4.066   4.582  1.6066 -0.1984 -0.6258
 1576SOL    MW4 6352   1.991   4.053   4.498 -0.2180 -0.4005 -0.1807
 1577SOL     OW 6353   2.416   3.102   3.359 -0.3769 -0.3274  0.1341
 1577SOL    HW2 6354   2.401   3.196   3.352 -3.4268 -0.7605  0.1475
 1577SOL    HW3 6355   2.405   3.083   3.453  1.0065 -0.5828  0.2496
 1577SOL    MW4 6356   2.413   3.112   3.371 -0.5970 -0.4184  0.1512
 1578SOL     OW 6357   4.167   1.309   1.641  0.3590 -0.0050  0.6337
 1578SOL    HW2 6358   4.196   1.218   1.645  1.1588  0.2616  0.9748
 1578SOL    HW3 6359   4.226   1.356   1.699  0.3749  0.8432 -0.0498
 1578SOL    MW4 6360   4.179   1.303   1.649  0.4663  0.1421  0.5884
 1579SOL     OW 6361   3.991   3.339   2.239  0.5134 -0.0892  0.2986
 1579SOL    HW2 6362   3.928   3.268   2.228 -0.1294  0.3713  0.9485
 1579SOL    HW3 6363   4.077   3.297   2.229  0.1007 -0.5024 -1.7981
 1579SOL    MW4 6364   3.994   3.324   2.236  0.3741 -0.0830  0.1075
 1580SOL     OW 6365   2.713   0.653   3.375  0.4433  0.1366  0.5429
 1580SOL    HW2 6366   2.676   0.679   3.459 -0.5291  0.3931  0.0395
 1580SOL    HW3 6367   2.771   0.726   3.351 -1.1974  1.2104 -0.1910
 1580SOL    MW4 6368   2.716   0.666   3.383  0.0987  0.3121  0.3798
 1581SOL     OW 6369   1.782   0.717   4.169  0.3002  0.1019 -0.1129
 1581SOL    HW2 6370   1.849   0.687   4.231  1.4815  3.5039  0.3565
 1581SOL    HW3 6371   1.809   0.680   4.085  0.1107 -2.4212  0.8786
 1581SOL    MW4 6372   1.794   0.708   4.167  0.4311  0.2179  0.0801
 1582SOL     OW 6373   4.417   4.381   1.016 -0.1917  0.2267 -0.4133
 1582SOL    HW2 6374   4.480   4.324   1.059 -1.2249  0.5490  1.5990
 1582SOL    HW3 6375   4.467   4.425   0.948  1.8357  0.6867  1.3230
 1582SOL    MW4 6376   4.432   4.379   1.013 -0.0606  0.3300  0.0814
 1583SOL     OW 6377   1.669   0.398   4.140  0.3233  0.0690  0.2754
 1583SOL    HW2 6378   1.600   0.392   4.073 -0.7370  0.6457  1.2940
 1583SOL    HW3 6379   1.634   0.459   4.204  1.0547 -0.9715  1.6821
 1583SOL    MW4 6380   1.655   0.405   4.139  0.2799  0.0078  0.5956
 1584SOL     OW 6381   1.097   3.198   2.661  0.6569 -0.1765  0.5802
 1584SOL    HW2 6382   1.035   3.254   2.708  0.1593 -0.1723 -0.0679
 1584SOL    HW3 6383   1.069   3.204   2.569  1.1766 -0.7468  0.3839
 1584SOL    MW4 6384   1.085   3.206   2.655  0.6599 -0.2513  0.4687
 1585SOL     OW 6385   0.265   2.863   1.147 -0.0418  0.5005 -0.1795
 1585SOL    HW2 6386   0.275   2.801   1.219  0.1177 -0.5780 -1.1219
 1585SOL    HW3 6387   0.203   2.821   1.087 -0.6187  1.6404 -0.3995
 1585SOL    MW4 6388   0.258   2.849   1.149 -0.0969  0.5085 -0.3330
 1586SOL     OW 6389   3.146   3.457   2.026  0.3771  0.2813 -0.1463
 1586SOL    HW2 6390   3.080   3.527   2.029 -0.0391 -0.1472  1.0434
 1586SOL    HW3 6391   3.229   3.503   2.012 -0.0066  0.9369 -0.3104
 1586SOL    MW4 6392   3.148   3.472   2.024  0.2716  0.3111 -0.0107
 1587SOL     OW 6393   1.164   3.887   3.889 -0.3509  0.2735  0.0394
 1587SOL    HW2 6394   1.074   3.919   3.898  0.3099  2.1499  0.1362
 1587SOL    HW3 6395   1.166   3.808   3.943 -1.7839  0.5314  0.5092
 1587SOL    MW4 6396   1.152   3.881   3.897 -0.4526  0.5550  0.1142
 1588SOL     OW 6397   3.351   2.398   1.284  0.0896  0.3557 -0.3547
 1588SOL    HW2 6398   3.290   2.439   1.222  0.2423  0.2882 -0.5486
 1588SOL    HW3 6399   3.435   2.441   1.268 -0.0841  0.9903  0.4509
 1588SOL    MW4 6400   3.354   2.409   1.274  0.0868  0.4303 -0.2739
 1589SOL     OW 6401   0.426   3.063   1.939 -0.1379  0.0041 -0.2165
 1589SOL    HW2 6402   0.356   3.012   1.979 -1.2541  1.3008 -0.4626
 1589SOL    HW3 6403   0.484   2.998   1.900 -2.2240 -1.0407 -1.6850
 1589SOL    MW4 6404   0.425   3.048   1.939 -0.5604  0.0372 -0.4427
 1590SOL     OW 6405   0.239   4.532   2.747 -0.3829  0.0661  0.0442
 1590SOL    HW2 6406   0.165   4.531   2.686  0.3276  2.6417 -0.9300
 1590SOL    HW3 6407   0.238   4.445   2.787 -3.7774 -0.0219 -0.0932
 1590SOL    MW4 6408   0.229   4.520   2.744 -0.7370  0.3943 -0.1025
 1591SOL     OW 6409   4.406   0.254   1.036 -0.0671  0.2458 -0.1217
 1591SOL    HW2 6410   4.487   0.240   0.988  0.6984 -1.5503  1.5898
 1591SOL    HW3 6411   4.403   0.348   1.053  0.2786  0.7170 -2.4886
 1591SOL    MW4 6412   4.416   0.264   1.032  0.0796  0.0710 -0.2081
 1592SOL     OW 6413   0.065   1.648   2.131  0.1921  0.1776  0.2900
 1592SOL    HW2 6414   0.148   1.641   2.178 -0.8698 -0.8474  2.0699
 1592SOL    HW3 6415   0.070   1.580   2.063  0.2541 -0.8628  1.3125
 1592SOL    MW4 6416   0.077   1.638   2.129  0.0602 -0.0950  0.6597
 1593SOL     OW 6417   1.919   1.981   0.868  0.5758  0.3511 -0.6309
 1593SOL    HW2 6418   1.961   2.061   0.837 -0.1065  0.6287 -0.8472
 1593SOL    HW3 6419   1.830   2.008   0.892  0.9324  0.0259  1.0705
 1593SOL    MW4 6420   1.913   1.995   0.867  0.5330  0.3449 -0.4349
 1594SOL     OW 6421   2.121   1.575   3.305  0.2429 -0.0970  0.7899
 1594SOL    HW2 6422   2.025   1.568   3.298  0.2908 -0.5803  0.5725
 1594SOL    HW3 6423   2.151   1.583   3.214  0.5151 -1.4857  0.7508
 1594SOL    MW4 6424   2.112   1.575   3.292  0.2851 -0.3440  0.7563
 1595SOL     OW 6425   2.431   3.046   3.637 -0.0456  0.3900 -0.3634
 1595SOL    HW2 6426   2.514   3.006   3.665  0.9248  1.2452 -1.9451
 1595SOL    HW3 6427   2.372   2.971   3.623  0.3490 -0.2077  1.0271
 1595SOL    MW4 6428   2.434   3.031   3.639  0.1345  0.4239 -0.3884
 1596SOL     OW 6429   3.065   0.409   1.392 -0.0525  0.3791  0.3361
 1596SOL    HW2 6430   3.104   0.343   1.450 -1.2697 -1.4148 -0.8346
 1596SOL    HW3 6431   3.135   0.432   1.331  0.2005 -0.2949  0.3661
 1596SOL    MW4 6432   3.079   0.403   1.392 -0.1795  0.0535  0.1856
 1597SOL     OW 6433   2.419   0.237   1.029 -0.5575  0.3370 -0.0507
 1597SOL    HW2 6434   2.433   0.186   1.108  1.8230  1.1064  0.0479
 1597SOL    HW3 6435   2.400   0.325   1.060 -0.7734  0.3914 -0.3295
 1597SOL    MW4 6436   2.418   0.242   1.043 -0.2720  0.4457 -0.0745
 1598SOL     OW 6437   4.206   1.868   1.569 -0.2520  0.5061 -0.0188
 1598SOL    HW2 6438   4.259   1.947   1.555  0.5899 -0.0738 -0.1882
 1598SOL    HW3 6439   4.244   1.803   1.509 -1.8403  0.3840 -0.9225
 1598SOL    MW4 6440   4.218   1.870   1.559 -0.3505  0.4134 -0.1603
 1599SOL     OW 6441   2.986   2.477   3.457  0.1309 -0.0134  0.1273
 1599SOL    HW2 6442   3.056   2.455   3.396 -0.4664 -0.5786 -0.3674
 1599SOL    HW3 6443   2.905   2.463   3.407 -0.3239  1.4705  0.4081
 1599SOL    MW4 6444   2.984   2.472   3.443 -0.0076  0.1078  0.0989
 1600SOL     OW 6445   3.911   2.787   1.627 -0.0276 -0.0424  0.3555
 1600SOL    HW2 6446   3.862   2.721   1.676  0.9311  0.2681  1.7628
 1600SOL    HW3 6447   3.967   2.737   1.568  0.7327 -0.4980  1.4518
 1600SOL    MW4 6448   3.912   2.772   1.626  0.1993 -0.0615  0.6857
 1601SOL     OW 6449   2.971   3.632   1.671  0.0208  0.3393 -0.0139
 1601SOL    HW2 6450   2.875   3.630   1.670  0.0303 -0.1622 -1.1921
 1601SOL    HW3 6451   2.997   3.541   1.656  0.6838  0.7517 -1.4143
 1601SOL    MW4 6452   2.962   3.620   1.669  0.1094  0.3278 -0.3542
 1602SOL     OW 6453   1.879   1.537   2.869  0.2625  0.5191 -0.2997
 1602SOL    HW2 6454   1.912   1.532   2.959  0.3778  2.6533 -0.1988
 1602SOL    HW3 6455   1.947   1.495   2.817  1.1576  1.0852  0.3852
 1602SOL    MW4 6456   1.892   1.531   2.874  0.3958  0.8752 -0.1962
 1603SOL     OW 6457   1.080   4.167   3.474  0.4266  0.1561  0.4685
 1603SOL    HW2 6458   1.040   4.250   3.499  0.6840  0.1194  1.0116
 1603SOL    HW3 6459   1.011   4.102   3.488  0.4008  0.2079  0.5864
 1603SOL    MW4 6460   1.065   4.169   3.479  0.4570  0.1578  0.5558
 1604SOL     OW 6461   1.701   1.723   1.546  0.2911 -0.0194  0.4970
 1604SOL    HW2 6462   1.618   1.729   1.499  0.6665 -0.5411 -0.2578
 1604SOL    HW3 6463   1.678   1.688   1.632 -0.2422 -0.4751  0.1758
 1604SOL    MW4 6464   1.687   1.719   1.551  0.2701 -0.1482  0.3549
 1605SOL     OW 6465   2.540   2.073   0.808  0.6014 -0.2010 -0.2397
 1605SOL    HW2 6466   2.529   2.010   0.879  1.2337  0.8778  0.8300
 1605SOL    HW3 6467   2.470   2.136   0.821 -0.5326 -1.0831 -1.7878
 1605SOL    MW4 6468   2.530   2.073   0.819  0.5352 -0.1752 -0.3028
 1606SOL     OW 6469   0.116   3.541   0.870 -0.3748 -0.3359  0.4914
 1606SOL    HW2 6470   0.130   3.470   0.807 -0.3899  0.1983 -0.1235
 1606SOL    HW3 6471   0.051   3.598   0.828 -1.6438 -0.8496  1.7252
 1606SOL    MW4 6472   0.109   3.539   0.856 -0.5442 -0.3331  0.5731
 1607SOL     OW 6473   2.224   4.404   4.510  0.6685 -0.4463  0.4666
 1607SOL    HW2 6474   2.211   4.478   4.450  0.6759  0.2042  1.2480
 1607SOL    HW3 6475   2.155   4.342   4.488  0.0400  0.2467  0.4814
 1607SOL    MW4 6476   2.213   4.406   4.499  0.5867 -0.2689  0.5713
 1608SOL     OW 6477   0.605   3.988   2.006 -0.8561 -0.1963  0.4734
 1608SOL    HW2 6478   0.551   3.953   2.076 -0.7213  1.4651  1.4429
 1608SOL    HW3 6479   0.545   4.001   1.932 -2.1662  3.0347  2.0114
 1608SOL    MW4 6480   0.590   3.985   2.005 -1.0112  0.4492  0.8044
 1609SOL     OW 6481   4.196   0.243   3.138 -0.0019  0.1138  0.1177
 1609SOL    HW2 6482   4.275   0.291   3.159 -1.0380  1.4645  0.9692
 1609SOL    HW3 6483   4.155   0.224   3.222 -0.7999 -0.2232 -0.3329
 1609SOL    MW4 6484   4.201   0.247   3.152 -0.2441  0.2475  0.1707
 1610SOL     OW 6485   0.702   4.403   1.697 -0.3633  0.4079  0.0719
 1610SOL    HW2 6486   0.770   4.369   1.756 -1.2305  0.8972  1.3822
 1610SOL    HW3 6487   0.620   4.380   1.741 -0.9929  2.3096 -0.0833
 1610SOL    MW4 6488   0.700   4.395   1.711 -0.5608  0.7229  0.2244
 1611SOL     OW 6489   0.526   2.631   3.171 -0.5188  0.3417 -0.0475
 1611SOL    HW2 6490   0.480   2.561   3.217  0.7538 -0.3732  0.1505
 1611SOL    HW3 6491   0.581   2.671   3.239 -0.5181  0.9104 -0.3821
 1611SOL    MW4 6492   0.527   2.627   3.186 -0.3508  0.3226 -0.0656
 1612SOL     OW 6493   1.391   4.244   1.113 -0.2001  0.1663 -0.3195
 1612SOL    HW2 6494   1.306   4.284   1.127  0.8795  1.9081  1.7500
 1612SOL    HW3 6495   1.400   4.237   1.018 -1.5966  2.3011 -0.6471
 1612SOL    MW4 6496   1.381   4.249   1.103 -0.2419  0.6781 -0.0898
 1613SOL     OW 6497   4.286   4.657   0.568  0.0229 -0.2412  0.2593
 1613SOL    HW2 6498   4.332   4.702   0.639  1.1594 -1.0929  0.0696
 1613SOL    HW3 6499   4.235   4.588   0.612 -0.0458 -0.1413  0.3373
 1613SOL    MW4 6500   4.285   4.654   0.583  0.1640 -0.3405  0.2446
 1614SOL     OW 6501   1.288   1.847   1.568  0.4680 -0.0120 -0.5204
 1614SOL    HW2 6502   1.246   1.867   1.651 -1.5801  1.0564 -1.7720
 1614SOL    HW3 6503   1.321   1.932   1.538  2.1630 -0.5782 -0.3022
 1614SOL    MW4 6504   1.287   1.861   1.575  0.4214  0.0542 -0.6566
 1615SOL     OW 6505   2.535   3.390   1.327 -0.0835  0.0275  0.1610
 1615SOL    HW2 6506   2.504   3.332   1.397 -0.2936 -0.6148 -0.4619
 1615SOL    HW3 6507   2.627   3.368   1.316 -0.0246  0.1985  0.2947
 1615SOL    MW4 6508   2.543   3.380   1.335 -0.1037 -0.0343  0.0964
 1616SOL     OW 6509   3.103   1.712   1.115 -0.1104 -0.5854  0.0569
 1616SOL    HW2 6510   3.027   1.678   1.160 -1.2819  0.7662 -0.8398
 1616SOL    HW3 6511   3.067   1.767   1.045  1.6738  1.0775  0.3925
 1616SOL    MW4 6512   3.088   1.715   1.112 -0.0296 -0.1876 -0.0170
 1617SOL     OW 6513   1.345   1.253   1.128 -0.0131  0.2403 -0.0711
 1617SOL    HW2 6514   1.326   1.293   1.213 -0.4814 -2.0097  0.9113
 1617SOL    HW3 6515   1.264   1.263   1.078 -1.3065 -2.4925  1.3919
 1617SOL    MW4 6516   1.332   1.260   1.132 -0.2456 -0.4172  0.2514
 1618SOL     OW 6517   2.266   0.085   3.156 -0.5923 -0.0597 -0.0939
 1618SOL    HW2 6518   2.208   0.019   3.119 -0.8915 -1.1608  2.2726
 1618SOL    HW3 6519   2.343   0.037   3.185  0.0310  0.9079 -0.0979
 1618SOL    MW4 6520   2.268   0.070   3.155 -0.5496 -0.0773  0.2177
 1619SOL     OW 6521   1.465   1.252   2.439 -0.5799 -0.3615 -0.4924
 1619SOL    HW2 6522   1.439   1.302   2.361  0.3215  1.2048  0.1774
 1619SOL    HW3 6523   1.514   1.178   2.405  0.5166  0.7535 -1.4112
 1619SOL    MW4 6524   1.468   1.249   2.424 -0.3163 -0.0076 -0.5250
 1620SOL     OW 6525   2.385   1.564   2.066  0.3045 -0.2622  0.4741
 1620SOL    HW2 6526   2.320   1.506   2.026  0.4360  0.9275 -1.5030
 1620SOL    HW3 6527   2.336   1.613   2.132 -0.1929 -1.3144  0.9029
 1620SOL    MW4 6528   2.370   1.562   2.070  0.2563 -0.2439  0.2699
 1621SOL     OW 6529   3.971   2.334   3.430 -0.3892  0.0139  0.5771
 1621SOL    HW2 6530   4.036   2.395   3.393 -0.3345 -0.1502  0.4001
 1621SOL    HW3 6531   3.977   2.347   3.525 -0.1083  0.0128  0.5604
 1621SOL    MW4 6532   3.980   2.344   3.438 -0.3450 -0.0081  0.5515
 1622SOL     OW 6533   2.919   2.276   0.817 -1.1494 -0.0163 -0.1663
 1622SOL    HW2 6534   2.952   2.365   0.813 -1.0726 -0.1032 -2.2511
 1622SOL    HW3 6535   2.990   2.225   0.855 -0.9859  0.7102  0.5111
 1622SOL    MW4 6536   2.933   2.281   0.821 -1.1172  0.0682 -0.3520
 1623SOL     OW 6537   1.994   1.355   4.599  0.0278 -0.0125  0.2434
 1623SOL    HW2 6538   1.969   1.340   4.508  0.4919  0.2925  0.0636
 1623SOL    HW3 6539   1.951   1.285   4.648 -1.5366  0.7734 -0.0085
 1623SOL    MW4 6540   1.985   1.344   4.593 -0.1175  0.1315  0.1869
 1624SOL     OW 6541   3.147   0.673   4.160  0.1062  0.1078 -0.0738
 1624SOL    HW2 6542   3.234   0.700   4.191 -0.0044 -2.5433  2.8270
 1624SOL    HW3 6543   3.157   0.580   4.140 -1.9902 -0.1841  0.1369
 1624SOL    MW4 6544   3.160   0.664   4.162 -0.1850 -0.2805  0.3366
 1625SOL     OW 6545   0.550   3.385   2.398 -0.0475 -1.1451 -0.2168
 1625SOL    HW2 6546   0.543   3.330   2.321  1.0585 -0.6442 -0.6841
 1625SOL    HW3 6547   0.636   3.364   2.435 -1.1932 -2.5052  1.7502
 1625SOL    MW4 6548   0.560   3.375   2.393 -0.0528 -1.2586 -0.0191
 1626SOL     OW 6549   4.305   2.685   4.073 -0.5251  0.0030 -0.1458
 1626SOL    HW2 6550   4.373   2.676   4.141  0.6265  1.9224 -1.0061
 1626SOL    HW3 6551   4.335   2.758   4.019 -1.7591 -1.0922 -2.3654
 1626SOL    MW4 6552   4.318   2.693   4.075 -0.5360  0.1116 -0.5522
 1627SOL     OW 6553   0.930   3.987   2.598  0.3684 -0.2114 -0.1979
 1627SOL    HW2 6554   0.856   4.026   2.553 -0.5619 -1.6084  0.0881
 1627SOL    HW3 6555   0.895   3.907   2.639  2.0006 -0.8765 -0.0296
 1627SOL    MW4 6556   0.916   3.981   2.598  0.4610 -0.4835 -0.1380
 1628SOL     OW 6557   2.604   1.450   0.982  0.3330  0.1045  0.4805
 1628SOL    HW2 6558   2.639   1.397   0.910  0.9611 -2.0912  2.3380
 1628SOL    HW3 6559   2.510   1.433   0.980  0.4442 -0.5469  0.6429
 1628SOL    MW4 6560   2.597   1.441   0.972  0.4308 -0.2713  0.7470
 1629SOL     OW 6561   0.156   2.933   3.941  0.0044 -0.1758 -0.2488
 1629SOL    HW2 6562   0.177   2.968   3.854  1.5457 -0.0257  0.1693
 1629SOL    HW3 6563   0.186   2.842   3.939  1.3268  0.2260  0.5652
 1629SOL    MW4 6564   0.162   2.926   3.929  0.3823 -0.1028 -0.0863
 1630SOL     OW 6565   2.335   3.936   3.787 -0.1502 -0.0639  0.3377
 1630SOL    HW2 6566   2.428   3.957   3.797 -0.1481  0.4467 -0.6223
 1630SOL    HW3 6567   2.290   3.998   3.844 -0.0031  1.0327 -0.7055
 1630SOL    MW4 6568   2.341   3.947   3.796 -0.1307  0.1483  0.0734
 1631SOL     OW 6569   3.387   2.308   2.247 -0.5557  0.0687  0.1218
 1631SOL    HW2 6570   3.395   2.216   2.225 -1.7901 -0.5407  2.0698
 1631SOL    HW3 6571   3.472   2.333   2.282 -0.8840 -0.9341  1.6628
 1631SOL    MW4 6572   3.399   2.299   2.249 -0.7620 -0.1438  0.5822
 1632SOL     OW 6573   1.052   0.896   4.459  0.2277  0.3788  0.0615
 1632SOL    HW2 6574   1.145   0.890   4.480  0.6027  0.2220 -1.6120
 1632SOL    HW3 6575   1.049   0.920   4.367 -1.3958  1.3733  0.3477
 1632SOL    MW4 6576   1.064   0.898   4.450  0.0631  0.4894 -0.1221
 1633SOL     OW 6577   1.675   3.467   1.948 -0.1928  0.6120  0.3962
 1633SOL    HW2 6578   1.587   3.430   1.945  0.6243 -1.4603  1.2113
 1633SOL    HW3 6579   1.710   3.453   1.861  0.9513 -2.7260  1.3374
 1633SOL    MW4 6580   1.668   3.461   1.936  0.0659 -0.1020  0.6279
 1634SOL     OW 6581   3.151   0.804   2.867  0.1931 -0.0463 -0.0073
 1634SOL    HW2 6582   3.147   0.895   2.896 -0.6588 -0.5588  1.5401
 1634SOL    HW3 6583   3.233   0.771   2.904 -0.4046 -0.4177  1.0083
 1634SOL    MW4 6584   3.162   0.812   2.876  0.0019 -0.1630  0.3309
 1635SOL     OW 6585   1.687   4.643   1.067  0.1187  0.1637  0.0777
 1635SOL    HW2 6586   1.678   4.609   0.978  0.4571  0.2186  0.0208
 1635SOL    HW3 6587   1.599   4.639   1.103  0.0908 -0.4415 -0.0495
 1635SOL    MW4 6588   1.675   4.638   1.060  0.1596  0.0911  0.0534
 1636SOL     OW 6589   0.444   0.589   2.324 -0.4615  0.1091  0.3182
 1636SOL    HW2 6590   0.528   0.579   2.369 -0.6446 -0.8211  0.4622
 1636SOL    HW3 6591   0.381   0.606   2.394 -0.6512 -0.7691  0.3677
 1636SOL    MW4 6592   0.447   0.590   2.339 -0.5107 -0.1295  0.3436
 1637SOL     OW 6593   3.630   1.745   2.780  0.1055  0.0772  0.1697
 1637SOL    HW2 6594   3.670   1.815   2.832 -1.2781 -0.2461  1.7147
 1637SOL    HW3 6595   3.578   1.696   2.843 -1.8518 -0.1495 -1.5922
 1637SOL    MW4 6596   3.629   1.748   2.795 -0.3355  0.0046  0.1411
 1638SOL     OW 6597   1.636   2.535   3.511 -0.3026  0.0265 -0.0734
 1638SOL    HW2 6598   1.591   2.453   3.491  1.2185 -0.4893 -1.5522
 1638SOL    HW3 6599   1.653   2.574   3.425 -0.2463  1.4637  0.5812
 1638SOL    MW4 6600   1.633   2.529   3.497 -0.0945  0.1481 -0.1822
 1639SOL     OW 6601   3.613   4.213   2.587  0.1338 -0.5125  0.6410
 1639SOL    HW2 6602   3.656   4.152   2.527  0.5811 -0.7695  1.2146
 1639SOL    HW3 6603   3.668   4.291   2.584  1.0667 -1.0958  1.9192
 1639SOL    MW4 6604   3.626   4.215   2.579  0.3159 -0.6237  0.8857
 1640SOL     OW 6605   2.577   0.329   4.487 -0.1965  0.1338 -0.1301
 1640SOL    HW2 6606   2.557   0.422   4.496 -0.7884  0.1358 -1.3554
 1640SOL    HW3 6607   2.538   0.304   4.403  1.7035 -0.7340 -0.8001
 1640SOL    MW4 6608   2.570   0.338   4.477 -0.0238  0.0196 -0.3800
 1641SOL     OW 6609   0.691   2.977   0.871 -0.4165  0.1084 -0.4021
 1641SOL    HW2 6610   0.738   2.894   0.871 -0.6844 -0.0537  0.4990
 1641SOL    HW3 6611   0.699   3.008   0.961 -0.1737  1.1431 -0.7759
 1641SOL    MW4 6612   0.698   2.970   0.883 -0.4199  0.2232 -0.3325
 1642SOL     OW 6613   0.337   1.537   1.392 -0.2409 -0.2638  0.0572
 1642SOL    HW2 6614   0.276   1.605   1.420 -0.6612 -0.3334 -0.6681
 1642SOL    HW3 6615   0.322   1.465   1.453 -0.3401  0.0089  0.3551
 1642SOL    MW4 6616   0.327   1.537   1.404 -0.3094 -0.2371  0.0007
 1643SOL     OW 6617   3.885   0.861   0.903  0.1383  0.1972 -0.0953
 1643SOL    HW2 6618   3.905   0.930   0.966  1.6176  0.7497 -1.1464
 1643SOL    HW3 6619   3.820   0.901   0.845 -1.1013 -0.2563  0.9551
 1643SOL    MW4 6620   3.879   0.876   0.904  0.1700  0.2103 -0.0954
 1644SOL     OW 6621   1.402   4.198   4.364 -0.1637  0.1961 -0.1188
 1644SOL    HW2 6622   1.415   4.110   4.401  0.7731 -0.6030 -2.2504
 1644SOL    HW3 6623   1.470   4.251   4.405  1.9685 -1.0731 -1.8583
 1644SOL    MW4 6624   1.413   4.193   4.374  0.2412 -0.0768 -0.6289
 1645SOL     OW 6625   4.347   1.841   2.265 -0.5547 -0.1176 -0.0509
 1645SOL    HW2 6626   4.439   1.817   2.250 -1.3207 -2.5331 -1.1948
 1645SOL    HW3 6627   4.343   1.865   2.357  1.2171 -0.0301  0.0292
 1645SOL    MW4 6628   4.359   1.841   2.275 -0.4220 -0.4247 -0.1915
 1646SOL     OW 6629   2.863   1.769   2.344 -0.2153  0.1835  0.0519
 1646SOL    HW2 6630   2.823   1.754   2.430  1.0977 -0.5833  0.5481
 1646SOL    HW3 6631   2.856   1.863   2.330 -1.6753  0.1371  0.3760
 1646SOL    MW4 6632   2.857   1.779   2.353 -0.2344  0.0762  0.1600
 1647SOL     OW 6633   1.596   1.632   1.775  0.4486 -0.3594  0.4749
 1647SOL    HW2 6634   1.608   1.591   1.861 -0.6753 -1.8797 -0.0720
 1647SOL    HW3 6635   1.525   1.582   1.735  0.0896  1.1758 -0.8272
 1647SOL    MW4 6636   1.588   1.620   1.781  0.2530 -0.3575  0.2311
 1648SOL     OW 6637   4.358   2.796   2.289 -0.0016 -0.0186  0.7105
 1648SOL    HW2 6638   4.283   2.842   2.250  0.5851  1.2026  0.9959
 1648SOL    HW3 6639   4.365   2.834   2.377 -0.4517 -1.7524  1.5150
 1648SOL    MW4 6640   4.349   2.807   2.295  0.0167 -0.0863  0.8545
 1649SOL     OW 6641   1.271   1.659   4.855  0.0808 -0.6712  0.0400
 1649SOL    HW2 6642   1.254   1.741   4.903 -0.0659  0.4983 -1.9613
 1649SOL    HW3 6643   1.363   1.641   4.872  0.5863  0.8777 -0.8851
 1649SOL    MW4 6644   1.281   1.668   4.864  0.1280 -0.3127 -0.3462
 1650SOL     OW 6645   2.351   3.564   4.133  0.4238 -0.2926  0.1026
 1650SOL    HW2 6646   2.423   3.608   4.088  0.4719 -0.9857 -0.5075
 1650SOL    HW3 6647   2.272   3.597   4.090  0.3392  0.8082  1.0689
 1650SOL    MW4 6648   2.350   3.574   4.121  0.4189 -0.2389  0.1497
 1651SOL     OW 6649   0.333   3.721   4.091 -0.5970 -0.4563  0.0364
 1651SOL    HW2 6650   0.306   3.682   4.174 -2.8840  1.1768  0.1157
 1651SOL    HW3 6651   0.299   3.662   4.025  1.0511 -1.6543  0.2446
 1651SOL    MW4 6652   0.325   3.708   4.094 -0.6813 -0.3989  0.0749
 1652SOL     OW 6653   3.787   1.687   3.774 -0.4327  0.2755 -0.4085
 1652SOL    HW2 6654   3.837   1.620   3.821 -0.3970 -0.2625 -1.2070
 1652SOL    HW3 6655   3.749   1.741   3.843 -1.3421 -1.2015  0.2792
 1652SOL    MW4 6656   3.789   1.685   3.789 -0.5481  0.0097 -0.4232
 1653SOL     OW 6657   1.764   0.510   0.782 -0.3206  0.1390 -0.3050
 1653SOL    HW2 6658   1.826   0.582   0.781 -1.0212  0.7877  1.2057
 1653SOL    HW3 6659   1.760   0.483   0.874 -0.4911 -1.4471 -0.7643
 1653SOL    MW4 6660   1.772   0.516   0.794 -0.4356  0.0153 -0.1664
 1654SOL     OW 6661   1.584   1.055   1.846 -0.2052  0.3849  0.1303
 1654SOL    HW2 6662   1.545   0.968   1.852 -1.1689  0.8278  0.3100
 1654SOL    HW3 6663   1.612   1.062   1.754  0.5230 -0.3793  0.2861
 1654SOL    MW4 6664   1.583   1.044   1.834 -0.2364  0.3426  0.1746
 1655SOL     OW 6665   0.767   0.226   2.323 -0.4734  0.0315 -0.0525
 1655SOL    HW2 6666   0.724   0.141   2.308 -0.8794  0.0843  0.8113
 1655SOL    HW3 6667   0.808   0.247   2.239 -2.7925  0.3365 -1.1419
 1655SOL    MW4 6668   0.767   0.217   2.310 -0.8329  0.0787 -0.0825
 1656SOL     OW 6669   0.671   2.429   1.855 -0.3917 -0.9203 -0.0419
 1656SOL    HW2 6670   0.662   2.512   1.808  0.2033 -0.5460  0.4957
 1656SOL    HW3 6671   0.706   2.369   1.789  2.7457  0.2076  0.4811
 1656SOL    MW4 6672   0.675   2.432   1.840  0.1008 -0.7222  0.0980
 1657SOL     OW 6673   3.247   1.943   3.619  0.2517 -0.2447  0.5731
 1657SOL    HW2 6674   3.266   1.850   3.633  1.6154  0.1973  1.8520
 1657SOL    HW3 6675   3.282   1.961   3.531 -1.8772 -1.3951 -0.5386
 1657SOL    MW4 6676   3.254   1.933   3.609  0.1509 -0.3381  0.5951
 1658SOL     OW 6677   3.938   1.434   3.525  0.1810  0.1727  0.2359
 1658SOL    HW2 6678   3.981   1.428   3.440 -0.2612 -0.4858  0.0525
 1658SOL    HW3 6679   3.957   1.350   3.568 -0.1909  0.2179  0.4936
 1658SOL    MW4 6680   3.946   1.422   3.519  0.0737  0.0919  0.2460
 1659SOL     OW 6681   0.808   3.772   4.618 -0.0951 -0.0914 -0.2089
 1659SOL    HW2 6682   0.793   3.769   4.712  2.2694  0.0764  0.1977
 1659SOL    HW3 6683   0.823   3.865   4.600 -0.0773 -0.1857 -0.6785
 1659SOL    MW4 6684   0.808   3.784   4.628  0.2192 -0.0818 -0.2174
 1660SOL     OW 6685   2.023   3.001   3.782  0.4754 -0.3006 -0.2685
 1660SOL    HW2 6686   2.065   3.020   3.866  0.4861 -1.3782 -0.0266
 1660SOL    HW3 6687   2.022   3.085   3.736  0.4515  0.3023  0.8161
 1660SOL    MW4 6688   2.028   3.015   3.787  0.4737 -0.3631 -0.0935
 1661SOL     OW 6689   4.279   3.853   3.709  0.2995  0.2659 -0.2475
 1661SOL    HW2 6690   4.251   3.761   3.712 -1.5043  0.7871 -0.4713
 1661SOL    HW3 6691   4.333   3.859   3.630  1.2684 -0.8230  0.3223
 1661SOL    MW4 6692   4.283   3.841   3.699  0.1898  0.1912 -0.2019
 1662SOL     OW 6693   2.986   0.144   4.611  0.0268  0.1443 -0.9446
 1662SOL    HW2 6694   2.965   0.180   4.697 -0.9299 -0.9059 -0.7256
 1662SOL    HW3 6695   2.902   0.122   4.573  0.4777  0.1357 -1.9564
 1662SOL    MW4 6696   2.972   0.146   4.617 -0.0403  0.0046 -1.0495
 1663SOL     OW 6697   2.387   2.615   4.101  0.1093  0.2350 -0.2470
 1663SOL    HW2 6698   2.380   2.638   4.194 -0.1461  0.9476 -0.4466
 1663SOL    HW3 6699   2.457   2.670   4.067 -0.3188  0.5260 -0.6617
 1663SOL    MW4 6700   2.395   2.625   4.109  0.0193  0.3672 -0.3281
 1664SOL     OW 6701   4.137   0.173   0.879 -0.6621 -0.4647  0.0713
 1664SOL    HW2 6702   4.084   0.248   0.908  0.0510 -0.0700  0.3583
 1664SOL    HW3 6703   4.227   0.205   0.883 -0.2780 -1.6581  1.1769
 1664SOL    MW4 6704   4.142   0.187   0.883 -0.5174 -0.5701  0.2550
 1665SOL     OW 6705   2.012   2.410   1.276  0.3033 -0.4602  0.0087
 1665SOL    HW2 6706   1.954   2.378   1.207  1.6280  0.6009 -1.6600
 1665SOL    HW3 6707   2.067   2.335   1.298 -0.1822 -0.8267 -0.0222
 1665SOL    MW4 6708   2.012   2.396   1.270  0.4141 -0.3686 -0.2154
 1666SOL     OW 6709   1.922   0.378   2.730  0.1442  0.2787 -0.8485
 1666SOL    HW2 6710   1.851   0.320   2.704  0.8321 -1.3423  0.8017
 1666SOL    HW3 6711   2.001   0.334   2.699  0.8345 -0.7499  2.2291
 1666SOL    MW4 6712   1.923   0.365   2.722  0.3259 -0.0709 -0.2246
 1667SOL     OW 6713   2.093   4.642   4.354  0.0873  0.6291 -0.4050
 1667SOL    HW2 6714   2.064   4.598   4.274  2.0789  0.2930 -0.9770
 1667SOL    HW3 6715   2.075   4.734   4.338  2.4861  0.8360 -2.1896
 1667SOL    MW4 6716   2.087   4.648   4.341  0.6669  0.6118 -0.7162
 1668SOL     OW 6717   1.759   0.466   1.049  0.2297  0.0020 -0.7738
 1668SOL    HW2 6718   1.825   0.479   1.118  0.8233  2.2357 -1.7108
 1668SOL    HW3 6719   1.736   0.373   1.055  1.9989 -0.3682  0.8928
 1668SOL    MW4 6720   1.765   0.455   1.059  0.5416  0.2478 -0.6776
 1669SOL     OW 6721   3.273   0.521   1.215  0.0270  0.5983 -0.3304
 1669SOL    HW2 6722   3.219   0.575   1.157 -0.9212 -0.4310 -0.4053
 1669SOL    HW3 6723   3.286   0.575   1.293 -1.9930  0.4439  0.1298
 1669SOL    MW4 6724   3.268   0.536   1.218 -0.3650  0.4422 -0.2794
 1670SOL     OW 6725   2.674   0.963   2.639  0.0680  0.0785  0.1098
 1670SOL    HW2 6726   2.608   0.900   2.666  0.8519 -0.4132  0.8857
 1670SOL    HW3 6727   2.697   1.011   2.719 -0.0587  0.9158 -0.3442
 1670SOL    MW4 6728   2.669   0.961   2.653  0.1547  0.1242  0.1523
 1671SOL     OW 6729   0.255   3.536   3.883 -0.4970 -0.7252  0.2119
 1671SOL    HW2 6730   0.165   3.538   3.849 -0.2015  1.8120 -0.5470
 1671SOL    HW3 6731   0.260   3.455   3.933 -2.9120 -1.3917 -0.5538
 1671SOL    MW4 6732   0.244   3.525   3.885 -0.7766 -0.4785  0.0107
 1672SOL     OW 6733   0.599   2.890   1.820  0.1216  0.1883  0.5656
 1672SOL    HW2 6734   0.667   2.887   1.887  1.5578 -1.3925 -0.9056
 1672SOL    HW3 6735   0.642   2.924   1.743 -0.9707 -0.0213 -0.1516
 1672SOL    MW4 6736   0.613   2.894   1.819  0.1670 -0.0479  0.2768
 1673SOL     OW 6737   3.656   1.633   0.983  0.2708 -0.1152  0.3370
 1673SOL    HW2 6738   3.728   1.685   0.946  1.0198 -0.4691  1.2718
 1673SOL    HW3 6739   3.577   1.680   0.958  0.9006  1.0869  0.5647
 1673SOL    MW4 6740   3.655   1.646   0.974  0.4523 -0.0033  0.4903
 1674SOL     OW 6741   0.112   2.130   3.789  0.2002 -0.0447 -0.0852
 1674SOL    HW2 6742   0.205   2.129   3.811  0.1970  0.2081 -0.0568
 1674SOL    HW3 6743   0.107   2.091   3.702  0.1721 -1.4062  0.5284
 1674SOL    MW4 6744   0.124   2.125   3.781  0.1961 -0.1910 -0.0005
 1675SOL     OW 6745   1.598   0.865   2.594  0.3961  0.1232 -0.3389
 1675SOL    HW2 6746   1.654   0.832   2.664 -0.5960  0.5873  0.6991
 1675SOL    HW3 6747   1.623   0.958   2.586  1.5855 -0.2934 -1.6790
 1675SOL    MW4 6748   1.609   0.873   2.603  0.4221  0.1295 -0.3788
 1676SOL     OW 6749   1.891   1.850   3.100  0.2415 -0.5057  0.0634
 1676SOL    HW2 6750   1.816   1.898   3.065 -0.7784 -1.5409  0.7991
 1676SOL    HW3 6751   1.853   1.772   3.139  1.8240 -1.6370 -0.6165
 1676SOL    MW4 6752   1.876   1.846   3.100  0.3157 -0.7915  0.0710
 1677SOL     OW 6753   4.068   3.483   4.429  0.4780  0.0402 -0.1616
 1677SOL    HW2 6754   4.053   3.399   4.387 -1.2926 -0.2731  1.0537
 1677SOL    HW3 6755   4.001   3.488   4.498  1.4608  1.8110  0.6999
 1677SOL    MW4 6756   4.057   3.473   4.433  0.3738  0.2327  0.1125
 1678SOL     OW 6757   4.413   4.530   3.819 -0.1771 -0.1358 -0.2874
 1678SOL    HW2 6758   4.490   4.522   3.764 -0.4943  1.8438 -1.0773
 1678SOL    HW3 6759   4.448   4.541   3.908  0.5867  3.0722 -0.9088
 1678SOL    MW4 6760   4.428   4.531   3.824 -0.1183  0.5488 -0.4737
 1679SOL     OW 6761   1.825   4.602   2.102 -0.1116 -0.2255  0.3484
 1679SOL    HW2 6762   1.778   4.600   2.019  2.3734  0.0594 -1.1143
 1679SOL    HW3 6763   1.883   4.525   2.099  1.8162  1.1643  0.6801
 1679SOL    MW4 6764   1.827   4.591   2.091  0.4708 -0.0048  0.1993
 1680SOL     OW 6765   4.132   4.312   2.267 -0.3035  0.4951 -0.2330
 1680SOL    HW2 6766   4.180   4.312   2.350  1.2858  0.1609 -1.1201
 1680SOL    HW3 6767   4.086   4.396   2.265 -2.7346 -0.7197  2.2997
 1680SOL    MW4 6768   4.133   4.323   2.278 -0.4144  0.2909 -0.0157
 1681SOL     OW 6769   4.344   0.818   4.426 -0.2078  0.7510 -0.3427
 1681SOL    HW2 6770   4.387   0.735   4.447 -1.9502 -0.1727 -0.2735
 1681SOL    HW3 6771   4.357   0.830   4.332 -1.6369 -0.6445 -0.7483
 1681SOL    MW4 6772   4.351   0.809   4.417 -0.6261  0.4450 -0.3872
 1682SOL     OW 6773   2.055   4.136   0.819 -0.3191  0.1566 -0.5241
 1682SOL    HW2 6774   1.986   4.201   0.803  0.3513  0.4194 -2.4277
 1682SOL    HW3 6775   2.121   4.184   0.870  0.6920  1.3273 -2.8759
 1682SOL    MW4 6776   2.054   4.151   0.824 -0.0973  0.3462 -1.0855
 1683SOL     OW 6777   2.249   4.398   3.767 -0.0278 -0.0837 -0.7201
 1683SOL    HW2 6778   2.194   4.399   3.689  0.9224  0.5053 -1.3882
 1683SOL    HW3 6779   2.286   4.486   3.771 -0.8843  0.2240  0.9845
 1683SOL    MW4 6780   2.247   4.409   3.757 -0.0155  0.0343 -0.5832
 1684SOL     OW 6781   0.672   4.074   3.678 -0.2057 -0.5985  0.0937
 1684SOL    HW2 6782   0.674   4.123   3.760 -0.7135  1.2240 -0.9664
 1684SOL    HW3 6783   0.659   4.140   3.611  2.4449 -1.7874 -1.6952
 1684SOL    MW4 6784   0.671   4.089   3.680  0.0771 -0.5155 -0.2820
 1685SOL     OW 6785   1.799   2.417   2.685  0.0639 -0.1963  0.2720
 1685SOL    HW2 6786   1.724   2.465   2.720 -1.0318 -0.8859 -1.0934
 1685SOL    HW3 6787   1.867   2.427   2.751 -1.4305 -0.0940  1.8115
 1685SOL    MW4 6788   1.798   2.425   2.698 -0.2779 -0.2739  0.2952
 1686SOL     OW 6789   0.121   4.561   3.645 -0.1452 -0.1828  0.7274
 1686SOL    HW2 6790   0.087   4.627   3.585 -0.4803  0.5012  1.6610
 1686SOL    HW3 6791   0.114   4.479   3.596  1.5502  0.6245 -0.9560
 1686SOL    MW4 6792   0.115   4.559   3.631  0.0343  0.0138  0.6285
 1687SOL     OW 6793   2.442   3.351   4.293 -0.5176  0.1853 -0.4600
 1687SOL    HW2 6794   2.410   3.436   4.265  1.0520  1.3941  1.3156
 1687SOL    HW3 6795   2.515   3.370   4.352 -1.2311 -2.3308  1.3557
 1687SOL    MW4 6796   2.448   3.365   4.297 -0.4048  0.0126  0.0143
 1688SOL     OW 6797   4.291   4.098   2.935 -0.2552 -0.8852  0.0504
 1688SOL    HW2 6798   4.351   4.042   2.983  2.2424  0.1018 -1.8461
 1688SOL    HW3 6799   4.328   4.186   2.942 -0.3012 -0.5809 -2.8737
 1688SOL    MW4 6800   4.304   4.102   2.942  0.0682 -0.7143 -0.5856
 1689SOL     OW 6801   0.878   4.029   4.509  1.1494  0.2059  0.2837
 1689SOL    HW2 6802   0.894   4.122   4.525 -0.2222  0.3892  0.6455
 1689SOL    HW3 6803   0.788   4.026   4.479  1.2178 -1.0087  0.2079
 1689SOL    MW4 6804   0.868   4.041   4.507  0.9775  0.0696  0.3219
 1690SOL     OW 6805   1.118   3.890   0.777 -0.6538  0.3005 -0.7401
 1690SOL    HW2 6806   1.076   3.844   0.704  1.5405 -1.3954 -0.9582
 1690SOL    HW3 6807   1.211   3.885   0.758 -0.1661  1.5356  1.2279
 1690SOL    MW4 6808   1.125   3.883   0.765 -0.2998  0.2398 -0.5092
 1691SOL     OW 6809   1.609   1.055   2.325  0.1775  0.3547 -0.1149
 1691SOL    HW2 6810   1.686   1.026   2.275  0.2933  0.7209 -0.1516
 1691SOL    HW3 6811   1.540   0.993   2.301  0.0699  0.8656 -1.1949
 1691SOL    MW4 6812   1.610   1.043   2.315  0.1786  0.4704 -0.2620
 1692SOL     OW 6813   3.175   4.600   4.540 -0.1894  0.0378 -0.0060
 1692SOL    HW2 6814   3.131   4.519   4.511 -0.4420  0.4194 -0.6981
 1692SOL    HW3 6815   3.104   4.655   4.573  0.3015 -1.1098  3.0998
 1692SOL    MW4 6816   3.160   4.596   4.540 -0.1578 -0.0634  0.3123
 1693SOL     OW 6817   2.743   4.037   2.457  0.0768 -0.3611  0.1197
 1693SOL    HW2 6818   2.817   4.090   2.486  0.2042 -0.4288 -0.0785
 1693SOL    HW3 6819   2.666   4.080   2.494  0.1540  0.1354 -0.2950
 1693SOL    MW4 6820   2.742   4.049   2.465  0.1037 -0.3042  0.0389
 1694SOL     OW 6821   0.821   3.732   1.984 -0.5369 -0.6373  0.6170
 1694SOL    HW2 6822   0.752   3.772   1.931  1.1123  0.4200 -0.7592
 1694SOL    HW3 6823   0.811   3.773   2.070 -2.2652 -1.2540  0.7393
 1694SOL    MW4 6824   0.811   3.743   1.989 -0.5473 -0.5789  0.4516
 1695SOL     OW 6825   1.646   3.744   1.910 -0.6553 -0.2703 -0.2025
 1695SOL    HW2 6826   1.575   3.775   1.967  0.2817 -0.7565  1.2424
 1695SOL    HW3 6827   1.663   3.655   1.939 -0.0544 -0.4648 -1.1482
 1695SOL    MW4 6828   1.639   3.737   1.922 -0.4524 -0.3603 -0.1367
 1696SOL     OW 6829   2.147   0.269   1.117 -0.0941 -0.0099  0.0374
 1696SOL    HW2 6830   2.055   0.253   1.094  0.4000  1.3795 -3.2630
 1696SOL    HW3 6831   2.197   0.222   1.051  1.5399  0.5768  0.8292
 1696SOL    MW4 6832   2.141   0.261   1.105  0.1867  0.2508 -0.2936
 1697SOL     OW 6833   2.119   2.141   2.687  0.4044  0.1682  0.0290
 1697SOL    HW2 6834   2.024   2.147   2.689  0.5264  2.4999  1.5588
 1697SOL    HW3 6835   2.143   2.125   2.779  1.5111 -0.2404 -0.3246
 1697SOL    MW4 6836   2.110   2.139   2.700  0.5665  0.4220  0.1841
 1698SOL     OW 6837   0.040   2.460   2.185  0.1188 -0.1237 -0.2071
 1698SOL    HW2 6838   0.069   2.394   2.123 -0.4199  0.3989 -1.0166
 1698SOL    HW3 6839   0.091   2.442   2.265  0.6140 -0.9529 -0.7083
 1698SOL    MW4 6840   0.051   2.449   2.188  0.1131 -0.1643 -0.3803
 1699SOL     OW 6841   2.782   3.836   0.578  0.3423 -0.1101 -0.2645
 1699SOL    HW2 6842   2.867   3.863   0.613  1.5645 -1.7306 -1.8799
 1699SOL    HW3 6843   2.777   3.743   0.599 -2.0867  0.4421  1.8339
 1699SOL    MW4 6844   2.793   3.827   0.585  0.1831 -0.2511 -0.2008
 1700SOL     OW 6845   0.292   4.585   3.991  0.0554 -0.2884 -0.4179
 1700SOL    HW2 6846   0.311   4.672   4.026 -1.4944  0.4356 -1.3111
 1700SOL    HW3 6847   0.201   4.569   4.017  0.4173 -1.7428 -0.0565
 1700SOL    MW4 6848   0.283   4.595   3.999 -0.1014 -0.3858 -0.4880
 1701SOL     OW 6849   2.076   0.494   3.814  0.0045 -0.5712 -0.0905
 1701SOL    HW2 6850   2.170   0.477   3.823 -0.3401 -1.2462  2.4122
 1701SOL    HW3 6851   2.041   0.415   3.774  0.3492 -0.6922 -0.1516
 1701SOL    MW4 6852   2.084   0.482   3.810  0.0045 -0.6762  0.2317
 1702SOL     OW 6853   1.911   2.498   0.824  0.2840 -0.3134  0.2467
 1702SOL    HW2 6854   1.888   2.533   0.910  1.1054 -0.6318  0.6049
 1702SOL    HW3 6855   1.943   2.574   0.775 -1.8859  0.2180 -0.4062
 1702SOL    MW4 6856   1.912   2.513   0.829  0.1060 -0.2851  0.2078
 1703SOL     OW 6857   0.345   3.944   2.526 -0.1799 -0.2740  0.4646
 1703SOL    HW2 6858   0.358   3.956   2.432  0.3739  1.3717  0.7318
 1703SOL    HW3 6859   0.387   3.860   2.546 -0.4692 -0.7264 -0.7670
 1703SOL    MW4 6860   0.352   3.934   2.516 -0.1450 -0.1166  0.3376
 1704SOL     OW 6861   0.732   1.296   3.090 -0.2650 -0.1110  0.1426
 1704SOL    HW2 6862   0.761   1.371   3.142  1.9736 -1.7740  1.3638
 1704SOL    HW3 6863   0.776   1.307   3.006  0.3357 -0.2075  0.4370
 1704SOL    MW4 6864   0.742   1.307   3.086  0.1096 -0.3432  0.3426
 1705SOL     OW 6865   3.004   3.990   0.620  0.6796 -0.2218  0.8167
 1705SOL    HW2 6866   2.943   4.064   0.617  0.4359 -0.3783  1.8886
 1705SOL    HW3 6867   3.003   3.961   0.711 -1.2813 -3.2575 -0.0743
 1705SOL    MW4 6868   2.996   3.996   0.631  0.3886 -0.6430  0.8406
 1706SOL     OW 6869   3.370   1.506   0.611  0.4041  0.4585 -0.0982
 1706SOL    HW2 6870   3.436   1.575   0.606  1.0663 -0.1859 -0.2383
 1706SOL    HW3 6871   3.287   1.553   0.609  0.8608  1.3180  0.8193
 1706SOL    MW4 6872   3.368   1.521   0.610  0.5517  0.4869  0.0044
 1707SOL     OW 6873   4.042   1.435   4.179 -0.3837  0.6976  0.2218
 1707SOL    HW2 6874   4.037   1.448   4.084 -0.5134  1.1127  0.2848
 1707SOL    HW3 6875   3.976   1.493   4.215 -1.2602 -0.4509  0.4914
 1707SOL    MW4 6876   4.033   1.444   4.171 -0.5169  0.6007  0.2656
 1708SOL     OW 6877   3.670   2.971   3.271  0.3917 -0.1724 -0.2188
 1708SOL    HW2 6878   3.682   2.885   3.230  2.1015  0.3974 -0.9792
 1708SOL    HW3 6879   3.738   3.025   3.231  0.0158  1.2508  1.0533
 1708SOL    MW4 6880   3.681   2.967   3.260  0.5677  0.0906 -0.1514
 1709SOL     OW 6881   0.362   2.324   3.547  0.1289 -0.3236  0.0907
 1709SOL    HW2 6882   0.378   2.357   3.459 -1.8133 -0.8393 -0.4878
 1709SOL    HW3 6883   0.272   2.349   3.566 -0.4210 -2.6843  0.7959
 1709SOL    MW4 6884   0.352   2.331   3.538 -0.1999 -0.7031  0.1073
 1710SOL     OW 6885   0.187   4.184   3.124  0.2207 -0.3052 -0.1329
 1710SOL    HW2 6886   0.269   4.232   3.116 -0.1495  0.3851  0.2180
 1710SOL    HW3 6887   0.214   4.095   3.150  0.7566  0.4124  1.8424
 1710SOL    MW4 6888   0.202   4.178   3.126  0.2425 -0.1192  0.1738
 1711SOL     OW 6889   1.036   2.209   3.009 -0.0562  0.5696  0.2804
 1711SOL    HW2 6890   1.010   2.261   3.085 -1.1773 -1.1361  1.0959
 1711SOL    HW3 6891   0.954   2.182   2.969  0.5234 -0.1504 -0.4375
 1711SOL    MW4 6892   1.022   2.213   3.014 -0.1276  0.2496  0.2930
 1712SOL     OW 6893   0.135   0.816   3.618  0.5587  0.1328  0.1703
 1712SOL    HW2 6894   0.116   0.730   3.581  0.6115 -0.3412  1.2358
 1712SOL    HW3 6895   0.230   0.821   3.621  0.6265  1.1846 -2.0664
 1712SOL    MW4 6896   0.145   0.806   3.613  0.5746  0.2090  0.0160
 1713SOL     OW 6897   0.054   3.274   3.677 -0.5383 -0.0630 -0.2055
 1713SOL    HW2 6898   0.091   3.359   3.700 -0.3706 -0.4480  1.0099
 1713SOL    HW3 6899  -0.018   3.261   3.740  0.4548 -1.5068  0.6815
 1713SOL    MW4 6900   0.049   3.283   3.688 -0.3852 -0.3042  0.0720
 1714SOL     OW 6901   2.164   1.853   2.072  0.3442 -0.1316 -0.3237
 1714SOL    HW2 6902   2.188   1.794   2.142  1.9791  0.2195 -0.5800
 1714SOL    HW3 6903   2.197   1.939   2.100 -1.3462  0.5376 -0.2933
 1714SOL    MW4 6904   2.171   1.857   2.085  0.3366  0.0031 -0.3533
 1715SOL     OW 6905   0.819   1.284   2.425  0.1246 -0.7582  0.2707
 1715SOL    HW2 6906   0.777   1.357   2.471 -0.5657 -1.2096  0.3524
 1715SOL    HW3 6907   0.800   1.208   2.480  1.6726 -0.8528  0.7092
 1715SOL    MW4 6908   0.811   1.284   2.439  0.2378 -0.8303  0.3393
 1716SOL     OW 6909   3.218   3.737   1.090 -0.4351  0.5417  0.0040
 1716SOL    HW2 6910   3.172   3.821   1.095 -1.8502 -0.0613 -2.0415
 1716SOL    HW3 6911   3.206   3.698   1.176 -2.4049  1.1373  0.0313
 1716SOL    MW4 6912   3.210   3.743   1.102 -0.8817  0.5405 -0.2623
 1717SOL     OW 6913   0.486   4.123   3.276  0.1870 -0.1790  0.1310
 1717SOL    HW2 6914   0.561   4.063   3.282 -0.3518 -0.9314 -0.6463
 1717SOL    HW3 6915   0.410   4.066   3.281 -0.3408  0.5362  0.2674
 1717SOL    MW4 6916   0.486   4.107   3.278  0.0463 -0.1836  0.0465
 1718SOL     OW 6917   0.546   1.569   2.191  0.1578  0.5085  0.1458
 1718SOL    HW2 6918   0.495   1.571   2.109  1.1271  0.2097 -0.4792
 1718SOL    HW3 6919   0.480   1.556   2.259 -0.7403  1.4079 -0.5186
 1718SOL    MW4 6920   0.530   1.568   2.189  0.1673  0.5877 -0.0243
 1719SOL     OW 6921   4.032   4.100   1.341  0.4382 -0.5806  0.2981
 1719SOL    HW2 6922   3.986   4.183   1.331 -1.0615 -1.5887 -1.3203
 1719SOL    HW3 6923   4.093   4.097   1.268  0.5965 -0.8386  0.4398
 1719SOL    MW4 6924   4.034   4.110   1.330  0.2613 -0.7472  0.1032
 1720SOL     OW 6925   4.191   4.135   3.216  0.5341 -0.0326 -0.4655
 1720SOL    HW2 6926   4.098   4.146   3.235  1.0292  2.4280  0.7858
 1720SOL    HW3 6927   4.194   4.125   3.121 -1.0004  0.0035 -0.5418
 1720SOL    MW4 6928   4.179   4.135   3.206  0.3972  0.2971 -0.3104
 1721SOL     OW 6929   2.439   4.256   1.617  0.1909 -0.6202  0.2950
 1721SOL    HW2 6930   2.409   4.271   1.527  0.9282  0.3140  0.1876
 1721SOL    HW3 6931   2.460   4.163   1.621  0.8588 -0.5251 -0.7326
 1721SOL    MW4 6932   2.438   4.246   1.606  0.3765 -0.4840  0.1453
 1722SOL     OW 6933   1.666   2.005   4.357  0.3124  0.0793 -0.4215
 1722SOL    HW2 6934   1.662   1.914   4.386 -0.0645 -0.1832 -1.3077
 1722SOL    HW3 6935   1.618   2.054   4.425 -0.5537 -0.5313 -0.5919
 1722SOL    MW4 6936   1.659   2.000   4.370  0.1484 -0.0359 -0.5608
 1723SOL     OW 6937   3.770   3.175   2.104 -0.3349  0.0390 -0.2856
 1723SOL    HW2 6938   3.780   3.090   2.061 -1.9446 -0.3876  0.1703
 1723SOL    HW3 6939   3.685   3.170   2.148  0.0999  1.4454  0.7360
 1723SOL    MW4 6940   3.760   3.163   2.104 -0.4900  0.1683 -0.0908
 1724SOL     OW 6941   0.717   1.578   0.837 -0.2697  0.4245  0.1916
 1724SOL    HW2 6942   0.628   1.575   0.873  0.1949 -1.8137  1.2607
 1724SOL    HW3 6943   0.759   1.498   0.870  1.3316  0.1303 -2.4068
 1724SOL    MW4 6944   0.711   1.567   0.846  0.0029  0.0905 -0.0101
 1725SOL     OW 6945   0.369   1.732   0.553  0.0360  0.1604  0.0544
 1725SOL    HW2 6946   0.421   1.805   0.589 -0.3515 -0.1289  1.2218
 1725SOL    HW3 6947   0.432   1.660   0.546  0.4322  0.5982 -1.1464
 1725SOL    MW4 6948   0.384   1.732   0.557  0.0371  0.1799  0.0499
 1726SOL     OW 6949   0.027   3.589   3.731 -0.6187  0.0953  0.6820
 1726SOL    HW2 6950  -0.040   3.574   3.664  0.8877 -0.2607 -0.7640
 1726SOL    HW3 6951   0.059   3.677   3.714  0.2460 -0.2525  0.4922
 1726SOL    MW4 6952   0.022   3.598   3.720 -0.3059  0.0024  0.4661
 1727SOL     OW 6953   2.270   1.274   2.506 -0.1052  0.5720  0.2928
 1727SOL    HW2 6954   2.296   1.182   2.497 -0.4156  0.6763 -1.7285
 1727SOL    HW3 6955   2.232   1.279   2.595  1.0969 -0.9408  0.9074
 1727SOL    MW4 6956   2.268   1.263   2.517  0.0124  0.3861  0.1073
 1728SOL     OW 6957   2.604   1.562   0.705 -0.5274  0.6175 -0.4235
 1728SOL    HW2 6958   2.597   1.566   0.801  0.4231 -0.0897 -0.3145
 1728SOL    HW3 6959   2.685   1.607   0.685 -0.2179 -0.1037 -0.8108
 1728SOL    MW4 6960   2.614   1.568   0.715 -0.3610  0.4290 -0.4602
 1729SOL     OW 6961   3.213   3.058   1.742  0.1518 -0.1385  0.5789
 1729SOL    HW2 6962   3.234   3.138   1.694 -0.4767 -0.2628  0.0881
 1729SOL    HW3 6963   3.194   3.088   1.831  2.9614 -0.0961  1.1885
 1729SOL    MW4 6964   3.213   3.073   1.747  0.4396 -0.1495  0.5947
 1730SOL     OW 6965   0.446   1.903   2.054 -0.0106  0.0449  0.2076
 1730SOL    HW2 6966   0.513   1.901   2.122 -0.2619  1.9709  0.5291
 1730SOL    HW3 6967   0.452   1.990   2.016  0.3560 -1.1154 -2.5100
 1730SOL    MW4 6968   0.455   1.914   2.058  0.0046  0.1459 -0.1085
 1731SOL     OW 6969   1.275   3.002   1.643  0.4597 -0.5613 -0.3905
 1731SOL    HW2 6970   1.359   2.975   1.606  0.5524  1.4277 -1.6998
 1731SOL    HW3 6971   1.271   3.097   1.628 -2.2956 -0.7221 -0.9851
 1731SOL    MW4 6972   1.285   3.011   1.636  0.1084 -0.3202 -0.6417
 1732SOL     OW 6973   3.819   2.677   2.482  0.4447  0.2178 -0.2952
 1732SOL    HW2 6974   3.904   2.634   2.492  0.4482  0.4236  0.5876
 1732SOL    HW3 6975   3.789   2.652   2.394  0.7996 -0.9409 -0.0894
 1732SOL    MW4 6976   3.826   2.668   2.471  0.4921  0.0923 -0.1516
 1733SOL     OW 6977   3.259   0.920   0.500 -0.2912 -0.2193 -0.2461
 1733SOL    HW2 6978   3.249   1.008   0.537  0.3480 -0.2732  0.0678
 1733SOL    HW3 6979   3.307   0.872   0.567  3.2623  0.4005 -2.2222
 1733SOL    MW4 6980   3.264   0.925   0.514  0.2620 -0.1446 -0.4655
 1734SOL     OW 6981   3.153   4.253   0.785  0.1477  0.3422 -0.2485
 1734SOL    HW2 6982   3.190   4.317   0.847 -0.5506 -0.2115  0.7603
 1734SOL    HW3 6983   3.224   4.237   0.723  0.6114  1.4760 -0.0287
 1734SOL    MW4 6984   3.167   4.259   0.785  0.1171  0.4191 -0.0865
 1735SOL     OW 6985   4.043   0.129   3.377  0.0803 -0.5069 -0.1015
 1735SOL    HW2 6986   4.046   0.041   3.339 -0.5423 -0.5109 -0.1392
 1735SOL    HW3 6987   4.063   0.115   3.470  2.5673 -0.3886 -0.5787
 1735SOL    MW4 6988   4.046   0.116   3.385  0.3262 -0.4918 -0.1695
 1736SOL     OW 6989   1.244   3.266   1.582  0.3041 -0.3693 -0.4342
 1736SOL    HW2 6990   1.276   3.276   1.492 -0.5701  1.8087 -0.5369
 1736SOL    HW3 6991   1.302   3.321   1.635  0.9696 -1.8416  0.3915
 1736SOL    MW4 6992   1.256   3.275   1.577  0.2766 -0.2759 -0.3388
 1737SOL     OW 6993   0.461   2.357   2.026 -0.1875  0.4735  0.8584
 1737SOL    HW2 6994   0.529   2.401   1.973 -1.0757  0.7396 -0.0812
 1737SOL    HW3 6995   0.461   2.404   2.109  1.9755 -0.6274  1.5319
 1737SOL    MW4 6996   0.470   2.369   2.030 -0.0193  0.3636  0.8233
 1738SOL     OW 6997   3.417   1.246   3.289 -0.0275 -0.5434  0.3228
 1738SOL    HW2 6998   3.407   1.153   3.273  1.0653 -0.5473 -0.4376
 1738SOL    HW3 6999   3.386   1.288   3.208  1.9292 -0.3889 -0.3949
 1738SOL    MW4 7000   3.412   1.239   3.276  0.3748 -0.5234  0.1278
 1739SOL     OW 7001   1.177   0.138   1.841  0.5127 -0.5333 -0.1551
 1739SOL    HW2 7002   1.149   0.227   1.860 -1.1446 -1.0909  0.0514
 1739SOL    HW3 7003   1.220   0.144   1.755  0.0295  0.3817 -0.3290
 1739SOL    MW4 7004   1.179   0.150   1.832  0.2304 -0.4862 -0.1508
 1740SOL     OW 7005   3.522   1.050   1.181  0.0329 -0.3228  0.0835
 1740SOL    HW2 7006   3.492   1.015   1.265  1.1349 -1.1058  0.1609
 1740SOL    HW3 7007   3.466   1.126   1.165 -1.3766 -1.2261  0.6533
 1740SOL    MW4 7008   3.511   1.056   1.190 -0.0076 -0.5454  0.1689
 1741SOL     OW 7009   0.762   1.150   4.136 -0.3918 -0.2104 -0.4058
 1741SOL    HW2 7010   0.672   1.180   4.130 -0.3679 -0.2749 -1.1878
 1741SOL    HW3 7011   0.756   1.054   4.141 -0.3386 -0.2909 -1.5760
 1741SOL    MW4 7012   0.749   1.141   4.136 -0.3816 -0.2295 -0.6638
 1742SOL     OW 7013   1.913   2.692   2.324 -0.3524  0.1226  0.1572
 1742SOL    HW2 7014   1.923   2.605   2.285  2.2721  0.9628 -1.1498
 1742SOL    HW3 7015   1.840   2.732   2.275  0.8460  0.0002 -1.7603
 1742SOL    MW4 7016   1.904   2.686   2.312  0.1520  0.2174 -0.2685
 1743SOL     OW 7017   3.538   4.115   4.029 -0.5164 -0.1533 -0.0913
 1743SOL    HW2 7018   3.530   4.036   3.976 -0.7069  0.2983 -0.7515
 1743SOL    HW3 7019   3.617   4.101   4.082 -1.3945 -1.4021  0.8976
 1743SOL    MW4 7020   3.548   4.103   4.029 -0.6573 -0.2580 -0.0477
 1744SOL     OW 7021   1.075   4.627   0.708 -0.2265 -0.0127 -0.2869
 1744SOL    HW2 7022   1.117   4.712   0.695  0.5598 -0.3538 -0.0274
 1744SOL    HW3 7023   1.089   4.606   0.800  0.4468 -0.8657 -0.5682
 1744SOL    MW4 7024   1.083   4.635   0.719 -0.0339 -0.1702 -0.2897
 1745SOL     OW 7025   1.032   3.054   4.393  0.0993  0.3370 -0.0009
 1745SOL    HW2 7026   0.984   3.136   4.384 -3.4341 -1.5317  0.5787
 1745SOL    HW3 7027   1.054   3.029   4.304  1.3055  1.9250 -0.1710
 1745SOL    MW4 7028   1.029   3.061   4.380 -0.2077  0.2999  0.0529
 1746SOL     OW 7029   1.949   1.298   4.342 -0.1178 -0.1353  0.1713
 1746SOL    HW2 7030   1.858   1.271   4.327  0.0786 -0.4281 -0.4974
 1746SOL    HW3 7031   2.001   1.224   4.311  0.3212 -0.4598  1.6482
 1746SOL    MW4 7032   1.944   1.285   4.336 -0.0339 -0.2168  0.2780
 1747SOL     OW 7033   0.989   2.432   4.065 -0.2135 -0.0862  0.1343
 1747SOL    HW2 7034   1.002   2.504   4.002  2.9540 -0.5596  0.1706
 1747SOL    HW3 7035   0.950   2.475   4.142 -1.3309  1.0099 -1.0051
 1747SOL    MW4 7036   0.985   2.447   4.067  0.0570 -0.0043 -0.0110
 1748SOL     OW 7037   4.117   2.232   3.133 -0.1647  0.4009  0.2712
 1748SOL    HW2 7038   4.052   2.269   3.074 -0.2403  0.4792  0.4020
 1748SOL    HW3 7039   4.187   2.298   3.135  0.8220 -0.5637 -1.3978
 1748SOL    MW4 7040   4.118   2.246   3.126 -0.0448  0.2842  0.0682
 1749SOL     OW 7041   3.020   0.626   3.027  0.2056  0.5568  0.4552
 1749SOL    HW2 7042   3.087   0.562   3.003 -0.3925  0.2320 -0.3743
 1749SOL    HW3 7043   3.029   0.696   2.964 -0.1008  0.6107  0.4709
 1749SOL    MW4 7044   3.030   0.627   3.016  0.0861  0.5210  0.3476
 1750SOL     OW 7045   3.414   0.389   3.434  0.0325  0.2297  0.1435
 1750SOL    HW2 7046   3.355   0.428   3.369  0.4143  0.0513 -0.3132
 1750SOL    HW3 7047   3.357   0.367   3.508 -0.4252  0.3209 -0.1811
 1750SOL    MW4 7048   3.399   0.391   3.435  0.0222  0.2182  0.0403
 1751SOL     OW 7049   1.910   0.597   4.378 -0.1824 -0.0147 -0.1829
 1751SOL    HW2 7050   1.996   0.558   4.361 -0.0703  0.3265 -0.4046
 1751SOL    HW3 7051   1.913   0.622   4.470 -0.4588 -1.0331  0.1180
 1751SOL    MW4 7052   1.922   0.595   4.388 -0.2042 -0.1040 -0.1731
 1752SOL     OW 7053   3.438   0.643   0.312 -0.1836 -0.1756  0.1581
 1752SOL    HW2 7054   3.466   0.730   0.284 -0.0997 -0.1716  0.2525
 1752SOL    HW3 7055   3.353   0.630   0.269  0.5438 -0.7111 -1.1490
 1752SOL    MW4 7056   3.430   0.653   0.303 -0.0765 -0.2458 -0.0019
 1753SOL     OW 7057   0.102   1.472   1.906 -0.0144 -0.3978 -0.0218
 1753SOL    HW2 7058   0.115   1.380   1.926 -1.6494 -0.4732  0.7455
 1753SOL    HW3 7059   0.189   1.504   1.883  0.0519 -2.8991 -3.6127
 1753SOL    MW4 7060   0.115   1.464   1.906 -0.2214 -0.7377 -0.3942
 1754SOL     OW 7061   3.654   2.959   4.049 -0.3953  0.5767  0.0147
 1754SOL    HW2 7062   3.570   2.935   4.089 -0.2066  3.0856  2.0841
 1754SOL    HW3 7063   3.631   2.987   3.960 -1.8209  1.4676  0.6379
 1754SOL    MW4 7064   3.640   2.960   4.043 -0.5584  1.0252  0.3695
 1755SOL     OW 7065   2.764   2.209   4.115  0.2218  0.2357 -0.3477
 1755SOL    HW2 7066   2.834   2.171   4.061 -0.1701 -1.5097  0.3488
 1755SOL    HW3 7067   2.684   2.166   4.083 -0.4781  1.8708 -0.8155
 1755SOL    MW4 7068   2.763   2.198   4.104  0.0775  0.2210 -0.3176
 1756SOL     OW 7069   4.245   1.747   3.059 -0.2226  0.0760 -0.4232
 1756SOL    HW2 7070   4.256   1.754   3.154 -2.9154 -2.1134  0.1222
 1756SOL    HW3 7071   4.307   1.680   3.032 -0.4181 -0.2823  0.0193
 1756SOL    MW4 7072   4.254   1.739   3.068 -0.6037 -0.2602 -0.2928
 1757SOL     OW 7073   3.495   3.145   3.159  0.5082  0.0302 -0.1334
 1757SOL    HW2 7074   3.553   3.080   3.198 -1.6114 -2.5427 -1.0844
 1757SOL    HW3 7075   3.471   3.107   3.074 -0.9164  1.9876 -0.6365
 1757SOL    MW4 7076   3.499   3.132   3.153  0.0405 -0.0510 -0.3252
 1758SOL     OW 7077   0.247   0.119   0.415  0.1215  0.2263 -0.2124
 1758SOL    HW2 7078   0.325   0.075   0.382 -0.3300 -0.3061 -0.5861
 1758SOL    HW3 7079   0.269   0.212   0.413  1.4007 -0.0268  1.4175
 1758SOL    MW4 7080   0.260   0.125   0.410  0.2306  0.1227 -0.0466
 1759SOL     OW 7081   1.127   4.311   2.037 -0.1990 -0.7148  0.1313
 1759SOL    HW2 7082   1.063   4.309   1.966  0.8353 -1.8797 -0.8025
 1759SOL    HW3 7083   1.204   4.354   1.999 -0.1009 -0.1586  0.9513
 1759SOL    MW4 7084   1.129   4.317   2.023 -0.0496 -0.7954  0.1161
 1760SOL     OW 7085   3.977   0.132   2.761  0.0484 -0.3822 -0.3547
 1760SOL    HW2 7086   3.948   0.091   2.843 -1.3885  0.3312 -0.5101
 1760SOL    HW3 7087   3.903   0.123   2.702  0.6217  0.2736 -1.1783
 1760SOL    MW4 7088   3.964   0.125   2.764 -0.0658 -0.2016 -0.4838
 1761SOL     OW 7089   2.315   3.638   3.799  0.0344  0.0222  0.3288
 1761SOL    HW2 7090   2.319   3.733   3.785 -0.8327  0.4584  2.8344
 1761SOL    HW3 7091   2.253   3.627   3.871  0.7693 -2.3974  0.6301
 1761SOL    MW4 7092   2.307   3.649   3.806  0.0169 -0.2394  0.6990
 1762SOL     OW 7093   1.063   3.908   2.023  0.0660  0.3385 -0.4433
 1762SOL    HW2 7094   0.977   3.915   1.982 -0.5402 -3.7330 -0.0730
 1762SOL    HW3 7095   1.050   3.941   2.112 -0.8878  0.6261 -0.6878
 1762SOL    MW4 7096   1.050   3.913   2.029 -0.1398 -0.1609 -0.4265
 1763SOL     OW 7097   1.041   0.328   4.066  0.0522 -0.4447  0.3483
 1763SOL    HW2 7098   0.966   0.314   4.009 -0.5939 -0.8066  1.2850
 1763SOL    HW3 7099   1.004   0.357   4.149  1.0120  0.4874  0.4646
 1763SOL    MW4 7100   1.027   0.330   4.069  0.0936 -0.3695  0.4869
 1764SOL     OW 7101   0.906   3.283   4.389 -0.5396  0.1633 -0.4240
 1764SOL    HW2 7102   0.919   3.295   4.295  0.5676  0.6743 -0.2214
 1764SOL    HW3 7103   0.922   3.370   4.427  0.0718 -0.2733  0.3387
 1764SOL    MW4 7104   0.910   3.296   4.382 -0.3128  0.1731 -0.2966
 1765SOL     OW 7105   0.238   1.781   3.919  0.1103  0.0285 -0.3301
 1765SOL    HW2 7106   0.182   1.794   3.995  0.4290  2.1344 -0.4214
 1765SOL    HW3 7107   0.177   1.762   3.847 -0.4338  1.4889 -0.2599
 1765SOL    MW4 7108   0.222   1.780   3.920  0.0806  0.4990 -0.3328
 1766SOL     OW 7109   3.937   2.096   3.299 -0.0530 -0.3255 -0.0121
 1766SOL    HW2 7110   4.001   2.115   3.231  0.8493 -1.0279  0.6253
 1766SOL    HW3 7111   3.943   2.170   3.360 -2.1434  1.2194 -1.5880
 1766SOL    MW4 7112   3.946   2.108   3.298 -0.2098 -0.2143 -0.1359
 1767SOL     OW 7113   1.037   3.865   2.336 -0.1819 -0.5975  0.3687
 1767SOL    HW2 7114   1.043   3.921   2.413 -1.2577 -0.4915  0.3813
 1767SOL    HW3 7115   1.011   3.779   2.369  0.0124 -0.7287  0.1896
 1767SOL    MW4 7116   1.034   3.861   2.350 -0.2980 -0.6008  0.3467
 1768SOL     OW 7117   1.819   1.492   1.469  0.0503  0.0365  0.0443
 1768SOL    HW2 7118   1.855   1.481   1.557  0.3563 -1.3865 -0.2457
 1768SOL    HW3 7119   1.775   1.577   1.472  1.1614  0.5949  1.1860
 1768SOL    MW4 7120   1.818   1.502   1.481  0.2372 -0.0775  0.1566
 1769SOL     OW 7121   4.365   4.227   3.817 -0.1524  0.1525  0.2502
 1769SOL    HW2 7122   4.390   4.319   3.811 -0.5677  0.2830  0.4809
 1769SOL    HW3 7123   4.272   4.226   3.794  0.1251 -0.3603 -0.8731
 1769SOL    MW4 7124   4.356   4.239   3.813 -0.1702  0.1016  0.1326
 1770SOL     OW 7125   3.667   1.671   0.421 -0.0902  0.1731 -0.0885
 1770SOL    HW2 7126   3.677   1.709   0.334  0.0907  0.8050  0.2009
 1770SOL    HW3 7127   3.604   1.728   0.465  1.2532  1.0011  0.8283
 1770SOL    MW4 7128   3.660   1.684   0.415  0.1109  0.3657  0.0706
 1771SOL     OW 7129   1.476   0.790   1.843  0.2550 -0.3337 -0.5889
 1771SOL    HW2 7130   1.511   0.774   1.755  1.2579 -0.7522 -0.1247
 1771SOL    HW3 7131   1.383   0.807   1.830  0.1027 -1.8697 -1.5714
 1771SOL    MW4 7132   1.469   0.790   1.830  0.3672 -0.5916 -0.6573
 1772SOL     OW 7133   2.803   1.943   4.775 -0.2110 -0.0596  0.6089
 1772SOL    HW2 7134   2.719   1.940   4.820 -0.0558  0.9703  0.9679
 1772SOL    HW3 7135   2.801   2.023   4.723  0.4423 -0.1588  0.4172
 1772SOL    MW4 7136   2.792   1.953   4.774 -0.1042  0.0633  0.6304
 1773SOL     OW 7137   2.344   2.428   1.875  0.1387 -0.2392  0.2648
 1773SOL    HW2 7138   2.271   2.464   1.926  0.9646  0.5580  0.9129
 1773SOL    HW3 7139   2.422   2.463   1.918  0.9572 -2.1835  0.4205
 1773SOL    MW4 7140   2.344   2.438   1.887  0.3555 -0.3905  0.3709
 1774SOL     OW 7141   1.458   1.921   4.725 -0.7656  0.4901  0.1574
 1774SOL    HW2 7142   1.535   1.875   4.756 -1.4163  0.1916  1.3790
 1774SOL    HW3 7143   1.414   1.858   4.667  0.2115  0.8835 -1.0386
 1774SOL    MW4 7144   1.462   1.907   4.721 -0.7225  0.5027  0.1612
 1775SOL     OW 7145   3.042   1.791   4.127  0.4142 -0.6027 -0.5424
 1775SOL    HW2 7146   2.991   1.767   4.049  1.4074  1.8764 -2.0314
 1775SOL    HW3 7147   2.983   1.772   4.200 -1.9983  0.4803 -2.1159
 1775SOL    MW4 7148   3.027   1.785   4.126  0.2267 -0.1328 -0.9465
 1776SOL     OW 7149   0.729   1.361   2.150 -0.5771 -0.2407  0.0519
 1776SOL    HW2 7150   0.760   1.331   2.235 -0.0753  2.2445  0.7952
 1776SOL    HW3 7151   0.660   1.424   2.170 -0.1048  0.7594 -1.3282
 1776SOL    MW4 7152   0.724   1.366   2.164 -0.4485  0.2191 -0.0324
 1777SOL     OW 7153   2.079   2.678   3.438  0.1371  0.2273 -0.4462
 1777SOL    HW2 7154   1.998   2.637   3.467  0.8041  0.0649  1.2530
 1777SOL    HW3 7155   2.127   2.608   3.393  0.2653 -0.2464  0.4236
 1777SOL    MW4 7156   2.075   2.663   3.436  0.2422  0.1433 -0.1073
 1778SOL     OW 7157   4.315   2.255   1.907 -0.0078 -0.3495 -0.1643
 1778SOL    HW2 7158   4.248   2.275   1.841  0.5976  0.4447 -0.5531
 1778SOL    HW3 7159   4.266   2.222   1.982 -0.9773  1.7256  0.1543
 1778SOL    MW4 7160   4.300   2.253   1.908 -0.0567  0.0288 -0.1736
 1779SOL     OW 7161   1.573   3.563   0.998  0.5726  0.1487  0.3261
 1779SOL    HW2 7162   1.509   3.515   1.050  0.0336 -0.1473 -0.5928
 1779SOL    HW3 7163   1.562   3.655   1.023 -1.0129  0.2420 -0.6681
 1779SOL    MW4 7164   1.563   3.569   1.008  0.2924  0.1218  0.0737
 1780SOL     OW 7165   1.716   3.144   1.599  0.2381  0.1009 -0.2868
 1780SOL    HW2 7166   1.804   3.107   1.611 -0.0056  0.1294  1.9229
 1780SOL    HW3 7167   1.721   3.230   1.640 -0.8812  0.0092  0.0454
 1780SOL    MW4 7168   1.729   3.150   1.606  0.0582  0.0927  0.0486
 1781SOL     OW 7169   1.156   2.198   0.607 -0.3289 -0.3573  0.5753
 1781SOL    HW2 7170   1.132   2.141   0.680  1.3872 -0.1852  1.3121
 1781SOL    HW3 7171   1.246   2.225   0.627 -1.0268  2.4129  0.1147
 1781SOL    MW4 7172   1.165   2.194   0.619 -0.1945  0.0305  0.6118
 1782SOL     OW 7173   0.115   0.934   4.193 -0.0322  0.1457 -0.1207
 1782SOL    HW2 7174   0.177   0.869   4.158  0.5027  0.1831  0.7313
 1782SOL    HW3 7175   0.029   0.893   4.183  0.1277  0.1110 -1.3661
 1782SOL    MW4 7176   0.112   0.920   4.187  0.0594  0.1460 -0.1726
 1783SOL     OW 7177   1.778   4.318   2.809  0.3524  0.1498 -0.0774
 1783SOL    HW2 7178   1.731   4.343   2.889  2.5197  1.4714  0.8332
 1783SOL    HW3 7179   1.844   4.256   2.838  2.0996  1.7261 -0.5647
 1783SOL    MW4 7180   1.780   4.313   2.823  0.8688  0.5317 -0.0215
 1784SOL     OW 7181   1.964   2.434   1.712 -0.6436  0.1938  0.2341
 1784SOL    HW2 7182   1.965   2.399   1.801 -1.4394 -1.6621 -0.4389
 1784SOL    HW3 7183   2.025   2.377   1.664 -0.0017  1.3576 -0.3306
 1784SOL    MW4 7184   1.972   2.422   1.717 -0.6640  0.1025  0.0708
 1785SOL     OW 7185   3.338   3.102   4.034 -0.9442 -0.3019 -0.0290
 1785SOL    HW2 7186   3.278   3.036   4.000 -2.3941 -0.0668  2.0437
 1785SOL    HW3 7187   3.381   3.060   4.108  0.4398  0.0212 -0.6194
 1785SOL    MW4 7188   3.336   3.088   4.039 -0.9532 -0.2284  0.1669
 1786SOL     OW 7189   3.485   1.935   2.654 -0.2136 -0.5957  0.0008
 1786SOL    HW2 7190   3.536   1.861   2.684 -0.1450 -0.0594  1.2418
 1786SOL    HW3 7191   3.505   2.005   2.716 -1.3817  0.0287 -0.3061
 1786SOL    MW4 7192   3.494   1.935   2.666 -0.3586 -0.4425  0.1240
 1787SOL     OW 7193   2.047   3.435   4.456  0.8046 -0.2153 -0.4082
 1787SOL    HW2 7194   2.043   3.510   4.515  0.0762 -0.4667 -0.1393
 1787SOL    HW3 7195   2.125   3.387   4.483 -0.2372 -1.0453  1.2232
 1787SOL    MW4 7196   2.057   3.438   4.467  0.5710 -0.3579 -0.1569
 1788SOL     OW 7197   2.081   3.253   3.368  0.0607 -0.0508  0.0915
 1788SOL    HW2 7198   2.172   3.282   3.366  0.0642 -0.0846 -0.4604
 1788SOL    HW3 7199   2.035   3.318   3.314 -0.2947  0.1411  0.6166
 1788SOL    MW4 7200   2.087   3.266   3.360  0.0143 -0.0298  0.0882
 1789SOL     OW 7201   3.570   0.981   2.303  0.1200  0.2247 -0.7648
 1789SOL    HW2 7202   3.633   1.050   2.281  0.4705  0.4221  0.8341
 1789SOL    HW3 7203   3.624   0.907   2.330 -0.3175  0.0185 -0.4523
 1789SOL    MW4 7204   3.585   0.980   2.303  0.1087  0.2235 -0.5126
 1790SOL     OW 7205   1.052   4.347   3.184 -0.1188  0.1858 -0.3979
 1790SOL    HW2 7206   1.089   4.365   3.270 -0.6835 -0.3984 -0.0302
 1790SOL    HW3 7207   1.065   4.428   3.134 -1.3376  1.1178  0.7736
 1790SOL    MW4 7208   1.059   4.360   3.188 -0.3542  0.2322 -0.1950
 1791SOL     OW 7209   0.788   1.810   1.986  0.1514 -0.3039 -0.0548
 1791SOL    HW2 7210   0.728   1.799   1.912  2.1825 -0.6024 -1.7024
 1791SOL    HW3 7211   0.817   1.901   1.981  0.7634 -0.4934  0.0063
 1791SOL    MW4 7212   0.784   1.820   1.975  0.5001 -0.3684 -0.2640
 1792SOL     OW 7213   1.654   1.797   2.056 -0.5291  0.8524 -0.0557
 1792SOL    HW2 7214   1.641   1.892   2.053  1.5259  1.2665  2.4084
 1792SOL    HW3 7215   1.731   1.781   2.002  0.1270  0.8132  0.8780
 1792SOL    MW4 7216   1.662   1.808   2.049 -0.1715  0.9018  0.3924
 1793SOL     OW 7217   1.619   4.354   1.462 -0.2725 -0.1582  0.1450
 1793SOL    HW2 7218   1.669   4.395   1.392 -2.2986  3.3168  0.5760
 1793SOL    HW3 7219   1.566   4.287   1.418  1.2739 -0.6658 -0.9938
 1793SOL    MW4 7220   1.619   4.351   1.447 -0.3358  0.2332  0.0517
 1794SOL     OW 7221   4.422   1.066   4.550  0.3488  0.2686  0.3097
 1794SOL    HW2 7222   4.401   0.981   4.511  0.2346  0.3295  0.2419
 1794SOL    HW3 7223   4.512   1.083   4.522  0.2779  0.2976  0.0990
 1794SOL    MW4 7224   4.431   1.057   4.541  0.3238  0.2805  0.2732
 1795SOL     OW 7225   2.531   3.897   2.659  0.6905  0.1289 -0.8269
 1795SOL    HW2 7226   2.475   3.869   2.587 -1.7107 -0.5542  1.2251
 1795SOL    HW3 7227   2.519   3.992   2.662  0.3910  0.0974 -0.9931
 1795SOL    MW4 7228   2.522   3.906   2.650  0.3347  0.0343 -0.5782
 1796SOL     OW 7229   0.906   1.997   3.432 -0.2341  0.5145  0.4927
 1796SOL    HW2 7230   0.989   1.957   3.405  0.1203  1.6979 -0.2654
 1796SOL    HW3 7231   0.926   2.038   3.516  0.0663  1.1282  0.1269
 1796SOL    MW4 7232   0.920   1.997   3.439 -0.1476  0.7516  0.3445
 1797SOL     OW 7233   3.307   2.604   1.458 -0.5683  0.1097 -0.0684
 1797SOL    HW2 7234   3.323   2.526   1.405  2.7868  1.6736 -1.4768
 1797SOL    HW3 7235   3.241   2.653   1.408 -0.9839 -0.6999 -0.3293
 1797SOL    MW4 7236   3.300   2.600   1.444 -0.1807  0.2089 -0.2886
 1798SOL     OW 7237   3.848   0.257   3.790 -0.5623 -0.0505  0.3329
 1798SOL    HW2 7238   3.897   0.326   3.745 -0.7226 -0.1303  0.0378
 1798SOL    HW3 7239   3.774   0.238   3.733 -0.0831 -1.0248  0.0264
 1798SOL    MW4 7240   3.845   0.264   3.777 -0.5202 -0.1896  0.2532
 1799SOL     OW 7241   3.751   4.553   1.679  0.0277 -0.0490 -0.4270
 1799SOL    HW2 7242   3.741   4.616   1.609  2.4734 -0.2063 -0.9763
 1799SOL    HW3 7243   3.693   4.480   1.655  0.0409  0.3626 -1.7241
 1799SOL    MW4 7244   3.742   4.552   1.667  0.3521 -0.0153 -0.6704
 1800SOL     OW 7245   4.326   4.329   4.582  0.0873 -0.2790  0.6229
 1800SOL    HW2 7246   4.412   4.315   4.543  0.6495  0.0224  1.7319
 1800SOL    HW3 7247   4.285   4.396   4.527  0.5828 -0.3827  0.1294
 1800SOL    MW4 7248   4.332   4.336   4.570  0.2270 -0.2537  0.7038
 1801SOL     OW 7249   3.564   1.536   3.644  0.0762  0.0899  0.2172
 1801SOL    HW2 7250   3.634   1.570   3.699  0.7625 -1.1885  0.1270
 1801SOL    HW3 7251   3.607   1.509   3.563 -0.7291  0.6236 -0.4111
 1801SOL    MW4 7252   3.579   1.537   3.640  0.0603 -0.0083  0.1223
 1802SOL     OW 7253   2.499   4.142   4.527  0.3598 -0.1960 -0.0411
 1802SOL    HW2 7254   2.496   4.223   4.579  0.9743  0.2082 -0.6327
 1802SOL    HW3 7255   2.587   4.140   4.490 -0.1273 -0.3628 -1.2370
 1802SOL    MW4 7256   2.510   4.153   4.529  0.3765 -0.1650 -0.2766
 1803SOL     OW 7257   1.046   1.080   3.698 -0.2036  0.2021 -0.1573
 1803SOL    HW2 7258   1.067   1.154   3.641  0.0949 -0.2521 -0.6429
 1803SOL    HW3 7259   1.036   1.118   3.785 -0.0338  0.8091 -0.4053
 1803SOL    MW4 7260   1.048   1.094   3.702 -0.1419  0.2222 -0.2544
 1804SOL     OW 7261   2.125   0.314   0.702 -0.1171 -0.2435 -0.2706
 1804SOL    HW2 7262   2.185   0.268   0.761 -0.8354 -1.9793 -0.8417
 1804SOL    HW3 7263   2.039   0.277   0.722 -0.9117  1.7020  0.0344
 1804SOL    MW4 7264   2.122   0.303   0.713 -0.3166 -0.2159 -0.3057
 1805SOL     OW 7265   3.720   2.642   1.382 -0.5752 -0.7897 -0.4683
 1805SOL    HW2 7266   3.651   2.601   1.330  0.5862 -1.5334 -1.4514
 1805SOL    HW3 7267   3.701   2.736   1.378 -2.0027 -1.0519 -0.0322
 1805SOL    MW4 7268   3.708   2.649   1.375 -0.6101 -0.9224 -0.5404
 1806SOL     OW 7269   4.091   0.732   3.203  0.5094 -0.2204 -0.6321
 1806SOL    HW2 7270   4.160   0.720   3.138  0.7134  0.8153 -0.6178
 1806SOL    HW3 7271   4.018   0.679   3.171 -0.2092  2.0313 -2.9222
 1806SOL    MW4 7272   4.091   0.723   3.190  0.4416  0.2133 -0.9322
 1807SOL     OW 7273   2.637   1.867   4.334  0.8803 -0.2986  0.2265
 1807SOL    HW2 7274   2.601   1.781   4.355  0.4282 -0.1762 -0.0383
 1807SOL    HW3 7275   2.607   1.924   4.404 -0.4724  0.0696 -0.6401
 1807SOL    MW4 7276   2.629   1.863   4.346  0.6423 -0.2340  0.0777
 1808SOL     OW 7277   0.572   0.771   2.892 -0.4311  0.0754 -0.4548
 1808SOL    HW2 7278   0.592   0.739   2.804  0.5132 -0.2659 -0.1274
 1808SOL    HW3 7279   0.524   0.699   2.933  0.3322 -0.3232 -0.2405
 1808SOL    MW4 7280   0.569   0.757   2.886 -0.2059 -0.0222 -0.3831
 1809SOL     OW 7281   1.060   3.530   2.197  0.1540  0.1289 -0.6392
 1809SOL    HW2 7282   1.102   3.614   2.177 -0.3381 -0.3608 -3.9255
 1809SOL    HW3 7283   1.115   3.465   2.155 -0.4913 -1.0528  0.3232
 1809SOL    MW4 7284   1.073   3.533   2.189  0.0039 -0.0916 -0.9458
 1810SOL     OW 7285   3.009   1.123   1.451 -0.5423 -0.5428 -0.1712
 1810SOL    HW2 7286   3.084   1.064   1.459  0.2000  0.1919 -1.6344
 1810SOL    HW3 7287   3.013   1.177   1.530  1.6921  0.8764 -1.2050
 1810SOL    MW4 7288   3.020   1.122   1.463 -0.1497 -0.2587 -0.5006
 1811SOL     OW 7289   4.260   3.593   3.249 -0.2215 -0.0130 -0.5936
 1811SOL    HW2 7290   4.267   3.688   3.259 -0.3057 -0.2216  1.7843
 1811SOL    HW3 7291   4.264   3.578   3.154 -1.8181  2.4718 -1.0946
 1811SOL    MW4 7292   4.261   3.603   3.238 -0.4425  0.2873 -0.3459
 1812SOL     OW 7293   3.519   0.091   0.841 -0.1115  0.3361  0.2661
 1812SOL    HW2 7294   3.457   0.119   0.908 -1.9494  0.2570 -1.3337
 1812SOL    HW3 7295   3.497  -0.001   0.824  0.0697  0.4617 -0.7014
 1812SOL    MW4 7296   3.508   0.083   0.847 -0.3302  0.3423 -0.0726
 1813SOL     OW 7297   0.652   0.855   0.489 -0.3402  0.0770  0.5977
 1813SOL    HW2 7298   0.564   0.819   0.496  0.1046 -1.1210  0.0620
 1813SOL    HW3 7299   0.705   0.803   0.549  0.4634 -0.6897 -0.7512
 1813SOL    MW4 7300   0.647   0.844   0.498 -0.1755 -0.1822  0.3491
 1814SOL     OW 7301   4.337   1.945   4.304 -1.1970  0.0143 -0.9921
 1814SOL    HW2 7302   4.255   1.985   4.332 -1.1144 -1.3103  1.2946
 1814SOL    HW3 7303   4.405   1.999   4.343 -1.0618 -1.1329  0.4106
 1814SOL    MW4 7304   4.335   1.957   4.313 -1.1678 -0.3119 -0.5050
 1815SOL     OW 7305   3.747   3.326   2.686 -0.2149 -0.0226  0.4037
 1815SOL    HW2 7306   3.719   3.274   2.761 -2.9289  0.2909 -0.3468
 1815SOL    HW3 7307   3.831   3.365   2.713 -0.2367 -1.4002  2.5331
 1815SOL    MW4 7308   3.755   3.324   2.699 -0.5758 -0.1631  0.5856
 1816SOL     OW 7309   2.859   0.184   0.760  0.2953 -0.2799 -0.4261
 1816SOL    HW2 7310   2.891   0.183   0.850  2.8719 -0.0485 -1.2807
 1816SOL    HW3 7311   2.801   0.260   0.755  0.6169  0.0533  0.8922
 1816SOL    MW4 7312   2.856   0.194   0.771  0.6776 -0.2054 -0.3650
 1817SOL     OW 7313   1.892   1.779   1.167  0.1839  0.0458  0.0295
 1817SOL    HW2 7314   1.828   1.729   1.116  1.0951 -1.3989  0.2777
 1817SOL    HW3 7315   1.972   1.726   1.165  0.4318  0.2385  2.4324
 1817SOL    MW4 7316   1.894   1.765   1.160  0.3370 -0.1193  0.3793
 1818SOL     OW 7317   2.952   0.242   2.847 -0.2795  0.3577  0.4212
 1818SOL    HW2 7318   3.002   0.164   2.821  2.3831  2.4896 -1.1022
 1818SOL    HW3 7319   2.968   0.305   2.776 -2.7312  2.1642  1.4081
 1818SOL    MW4 7320   2.960   0.240   2.834 -0.2518  0.8773  0.3505
 1819SOL     OW 7321   0.566   0.496   0.374 -0.1028  0.1175 -0.4278
 1819SOL    HW2 7322   0.599   0.531   0.291  1.3099  0.4825  0.2639
 1819SOL    HW3 7323   0.645   0.477   0.425 -0.7661 -3.9552 -0.7098
 1819SOL    MW4 7324   0.581   0.498   0.370 -0.0040 -0.3717 -0.3738
 1820SOL     OW 7325   4.083   1.629   1.039  0.2861  0.0054 -0.4112
 1820SOL    HW2 7326   4.083   1.537   1.012  0.6683  0.1852 -1.0390
 1820SOL    HW3 7327   3.994   1.659   1.020 -0.0453 -0.4190  0.4497
 1820SOL    MW4 7328   4.071   1.620   1.033  0.2928 -0.0268 -0.3805
 1821SOL     OW 7329   3.717   1.129   1.899  0.2300 -0.0321  0.4785
 1821SOL    HW2 7330   3.686   1.218   1.885 -0.0733 -0.3264 -0.7437
 1821SOL    HW3 7331   3.802   1.126   1.855  1.3777  0.3693  2.6292
 1821SOL    MW4 7332   3.724   1.140   1.891  0.3414 -0.0179  0.6009
 1822SOL     OW 7333   0.561   3.830   3.465  0.4110 -0.3794 -0.2518
 1822SOL    HW2 7334   0.501   3.755   3.471  0.2129 -0.2078 -0.0443
 1822SOL    HW3 7335   0.541   3.883   3.543  0.6700 -0.1999 -0.3053
 1822SOL    MW4 7336   0.550   3.827   3.476  0.4191 -0.3333 -0.2313
 1823SOL     OW 7337   3.893   3.497   1.575  0.0250  0.0835  0.5059
 1823SOL    HW2 7338   3.932   3.413   1.549 -1.7641 -0.5109 -0.3525
 1823SOL    HW3 7339   3.962   3.561   1.562  0.9945 -1.0765 -0.1446
 1823SOL    MW4 7340   3.907   3.494   1.570 -0.0830 -0.1481  0.3068
 1824SOL     OW 7341   1.662   2.108   1.440  0.7476 -0.2180  0.3080
 1824SOL    HW2 7342   1.750   2.118   1.406  0.3551  0.2049 -0.5916
 1824SOL    HW3 7343   1.670   2.126   1.534  1.3174  1.4275 -0.0533
 1824SOL    MW4 7344   1.674   2.112   1.448  0.7710  0.0551  0.1417
 1825SOL     OW 7345   2.182   2.254   1.589 -0.4955  0.0877  0.0244
 1825SOL    HW2 7346   2.202   2.189   1.657 -1.5050  0.1370  0.3830
 1825SOL    HW3 7347   2.261   2.306   1.582 -0.7261  0.7465  1.9261
 1825SOL    MW4 7348   2.195   2.252   1.597 -0.6592  0.1812  0.3226
 1826SOL     OW 7349   2.498   1.629   4.414  0.0620 -0.1349 -0.3006
 1826SOL    HW2 7350   2.415   1.624   4.366  0.7495  0.4609 -1.5826
 1826SOL    HW3 7351   2.536   1.542   4.405  0.3478  0.0771 -1.1184
 1826SOL    MW4 7352   2.492   1.617   4.407  0.1903 -0.0284 -0.5774
 1827SOL     OW 7353   4.462   2.660   1.775  0.0534  0.0143 -0.4714
 1827SOL    HW2 7354   4.404   2.631   1.846 -0.6448  0.5608 -0.8196
 1827SOL    HW3 7355   4.486   2.749   1.799  1.1173 -0.3641 -0.0997
 1827SOL    MW4 7356   4.457   2.668   1.788  0.1011  0.0365 -0.4685
 1828SOL     OW 7357   3.143   1.072   1.199  0.0790 -0.6949  0.0426
 1828SOL    HW2 7358   3.136   0.978   1.211 -1.8076 -0.6834 -0.6879
 1828SOL    HW3 7359   3.112   1.110   1.281  0.4386 -0.7028  0.1830
 1828SOL    MW4 7360   3.138   1.065   1.211 -0.1223 -0.6945 -0.0353
 1829SOL     OW 7361   0.723   4.509   2.103  0.1190  0.6569  0.4600
 1829SOL    HW2 7362   0.676   4.427   2.085  0.6067  0.4671  0.0524
 1829SOL    HW3 7363   0.806   4.481   2.142  0.7598  0.9003 -0.6926
 1829SOL    MW4 7364   0.728   4.494   2.106  0.2679  0.6638  0.2539
 1830SOL     OW 7365   3.617   1.906   1.512  0.1248 -0.6711 -0.2651
 1830SOL    HW2 7366   3.560   1.866   1.446 -1.1863 -2.4369  1.8773
 1830SOL    HW3 7367   3.604   1.852   1.590  1.4710  1.5149  1.5040
 1830SOL    MW4 7368   3.607   1.894   1.513  0.1295 -0.6157  0.2509
 1831SOL     OW 7369   1.580   3.993   2.787 -0.0998  0.2643 -0.0079
 1831SOL    HW2 7370   1.511   4.058   2.774  0.6169  1.0967  0.2740
 1831SOL    HW3 7371   1.554   3.945   2.865 -1.2227 -0.5674 -0.8729
 1831SOL    MW4 7372   1.568   3.995   2.795 -0.1534  0.2646 -0.0849
 1832SOL     OW 7373   3.388   4.531   0.575 -0.0645 -0.5585 -0.1025
 1832SOL    HW2 7374   3.466   4.578   0.545 -0.4694 -0.4336 -0.9774
 1832SOL    HW3 7375   3.413   4.495   0.660  0.8433 -0.2512 -0.2327
 1832SOL    MW4 7376   3.401   4.532   0.582  0.0019 -0.5021 -0.2352
 1833SOL     OW 7377   1.891   2.670   1.981 -0.2543 -0.0746  0.0636
 1833SOL    HW2 7378   1.817   2.624   1.942 -0.7022  1.7448 -1.2808
 1833SOL    HW3 7379   1.895   2.754   1.935  0.4153  1.3391  2.5668
 1833SOL    MW4 7380   1.882   2.675   1.970 -0.2251  0.3517  0.2165
 1834SOL     OW 7381   3.504   0.988   2.747  0.1517 -0.1745  0.6152
 1834SOL    HW2 7382   3.558   1.019   2.674 -2.0093 -1.2183 -1.4655
 1834SOL    HW3 7383   3.526   0.895   2.755 -0.6659 -0.3954  0.3345
 1834SOL    MW4 7384   3.514   0.980   2.738 -0.2413 -0.3415  0.3037
 1835SOL     OW 7385   0.659   3.691   1.729 -0.0500 -0.4821  0.4315
 1835SOL    HW2 7386   0.744   3.650   1.709  0.5234  0.4974  0.8349
 1835SOL    HW3 7387   0.631   3.730   1.646  0.6921  0.6326  0.7040
 1835SOL    MW4 7388   0.667   3.691   1.716  0.1236 -0.2060  0.5207
 1836SOL     OW 7389   2.835   3.745   1.312  0.3922  0.6800  1.1215
 1836SOL    HW2 7390   2.743   3.727   1.332  0.7057 -1.1233  0.9800
 1836SOL    HW3 7391   2.864   3.805   1.381 -0.6053  0.4349  1.7561
 1836SOL    MW4 7392   2.827   3.751   1.324  0.3018  0.4098  1.1866
 1837SOL     OW 7393   0.021   0.711   1.471  0.2545 -0.2699  0.1385
 1837SOL    HW2 7394  -0.043   0.781   1.472 -0.9090 -1.3134 -0.5336
 1837SOL    HW3 7395  -0.000   0.657   1.547  1.8243  0.6720  1.2936
 1837SOL    MW4 7396   0.010   0.713   1.481  0.3080 -0.2834  0.2023
 1838SOL     OW 7397   1.719   2.790   2.151 -0.3436 -0.0899  0.4063
 1838SOL    HW2 7398   1.800   2.766   2.106 -0.3615 -1.2221  0.9618
 1838SOL    HW3 7399   1.650   2.770   2.088 -0.2457  0.2192  0.1962
 1838SOL    MW4 7400   1.721   2.784   2.137 -0.3331 -0.1986  0.4520
 1839SOL     OW 7401   0.090   3.319   1.356  0.3085 -0.1002 -0.4738
 1839SOL    HW2 7402   0.105   3.228   1.330 -0.0108 -0.2226 -0.2277
 1839SOL    HW3 7403   0.040   3.357   1.283  0.1199 -0.2224 -0.4085
 1839SOL    MW4 7404   0.085   3.312   1.343  0.2415 -0.1326 -0.4327
 1840SOL     OW 7405   3.708   2.171   1.965 -0.2508  0.1283  0.0437
 1840SOL    HW2 7406   3.771   2.196   2.032  0.7045  2.9414 -1.8037
 1840SOL    HW3 7407   3.759   2.165   1.884 -2.3202  2.7780 -1.5595
 1840SOL    MW4 7408   3.723   2.174   1.963 -0.3979  0.8490 -0.4115
 1841SOL     OW 7409   2.573   4.325   2.252  0.4726 -0.5473 -0.5475
 1841SOL    HW2 7410   2.488   4.286   2.273 -0.5035  1.9600  0.4345
 1841SOL    HW3 7411   2.558   4.372   2.170  1.2710 -1.1202 -1.0290
 1841SOL    MW4 7412   2.560   4.326   2.244  0.4492 -0.2918 -0.4811
 1842SOL     OW 7413   2.735   4.079   1.105 -0.4151 -0.2655 -0.3164
 1842SOL    HW2 7414   2.762   4.171   1.106 -0.3547 -0.2655 -1.0764
 1842SOL    HW3 7415   2.769   4.042   1.186  0.4842  0.1265 -0.5160
 1842SOL    MW4 7416   2.743   4.086   1.116 -0.2882 -0.2141 -0.4430
 1843SOL     OW 7417   2.479   0.271   3.886 -0.0394 -0.2411 -0.2750
 1843SOL    HW2 7418   2.532   0.228   3.953 -1.7781 -3.5941 -0.9655
 1843SOL    HW3 7419   2.541   0.290   3.815  1.0638 -0.1511  0.6981
 1843SOL    MW4 7420   2.495   0.268   3.885 -0.1235 -0.6716 -0.2377
 1844SOL     OW 7421   1.403   3.288   3.752  0.1131 -0.7202  0.3270
 1844SOL    HW2 7422   1.420   3.205   3.795  0.6459 -1.7420 -1.7835
 1844SOL    HW3 7423   1.481   3.341   3.772 -0.0571 -0.8430  1.3543
 1844SOL    MW4 7424   1.416   3.284   3.760  0.1608 -0.8712  0.1838
 1845SOL     OW 7425   0.004   1.063   3.592  0.0919  0.1060  0.3205
 1845SOL    HW2 7426   0.059   0.986   3.605  0.6297  0.3925 -0.2373
 1845SOL    HW3 7427  -0.053   1.041   3.519 -0.2868 -0.0591  0.6693
 1845SOL    MW4 7428   0.004   1.050   3.584  0.1130  0.1222  0.2928
 1846SOL     OW 7429   2.706   3.589   3.636  0.1154 -0.1423 -0.0590
 1846SOL    HW2 7430   2.792   3.546   3.641  0.0917 -0.1389  0.3962
 1846SOL    HW3 7431   2.648   3.531   3.686 -0.1511 -0.1508 -0.3784
 1846SOL    MW4 7432   2.710   3.576   3.644  0.0770 -0.1431 -0.0408
 1847SOL     OW 7433   1.896   1.395   4.004 -0.2353  0.1023 -0.0918
 1847SOL    HW2 7434   1.869   1.401   3.913  0.9264  2.0528 -0.3372
 1847SOL    HW3 7435   1.875   1.481   4.041 -2.4836 -1.2614  2.0103
 1847SOL    MW4 7436   1.889   1.407   3.997 -0.3787  0.1796  0.1533
 1848SOL     OW 7437   1.487   0.597   0.802 -0.3167 -0.0791  0.7323
 1848SOL    HW2 7438   1.481   0.608   0.897 -1.3353 -0.3758  0.7107
 1848SOL    HW3 7439   1.578   0.573   0.787 -0.0953  0.1593  1.6149
 1848SOL    MW4 7440   1.498   0.596   0.813 -0.4219 -0.0869  0.8458
 1849SOL     OW 7441   3.228   0.509   1.773 -0.4302  0.1971  0.9183
 1849SOL    HW2 7442   3.227   0.587   1.827 -0.0352 -0.0877  1.3357
 1849SOL    HW3 7443   3.164   0.527   1.703 -0.2078  0.9528  0.9137
 1849SOL    MW4 7444   3.219   0.521   1.771 -0.3488  0.2592  0.9727
 1850SOL     OW 7445   4.434   0.397   3.233  0.3099 -0.8520 -0.1836
 1850SOL    HW2 7446   4.431   0.492   3.245 -0.5015 -0.4994 -2.8527
 1850SOL    HW3 7447   4.519   0.381   3.192  0.8240 -1.4091  1.0679
 1850SOL    MW4 7448   4.445   0.407   3.229  0.2708 -0.8790 -0.3707
 1851SOL     OW 7449   3.012   0.302   2.417 -0.3982 -0.4219 -0.4777
 1851SOL    HW2 7450   3.021   0.379   2.362 -0.4535 -0.8129 -1.0376
 1851SOL    HW3 7451   2.992   0.337   2.504  1.9290  0.2764 -0.1882
 1851SOL    MW4 7452   3.010   0.317   2.421 -0.0985 -0.3814 -0.5136
 1852SOL     OW 7453   3.119   1.969   2.147 -0.3331 -0.2611  0.2903
 1852SOL    HW2 7454   3.101   1.895   2.089 -2.1044 -0.7959  1.4607
 1852SOL    HW3 7455   3.084   2.045   2.101 -0.2667 -0.4298 -0.0427
 1852SOL    MW4 7456   3.112   1.969   2.133 -0.5579 -0.3539  0.4010
 1853SOL     OW 7457   0.779   0.515   1.096  0.5076  0.8228  0.6930
 1853SOL    HW2 7458   0.742   0.495   1.182 -0.3031  0.8950  0.3668
 1853SOL    HW3 7459   0.780   0.431   1.050  0.2358  0.9239  0.5044
 1853SOL    MW4 7460   0.774   0.501   1.101  0.3648  0.8457  0.6250
 1854SOL     OW 7461   0.645   2.125   3.439  0.3986 -0.2994 -0.5596
 1854SOL    HW2 7462   0.649   2.212   3.480 -0.6503 -0.7998  0.6409
 1854SOL    HW3 7463   0.737   2.097   3.434  0.5694 -0.2118  1.4671
 1854SOL    MW4 7464   0.658   2.133   3.444  0.2828 -0.3541 -0.1338
 1855SOL     OW 7465   0.718   0.238   0.963 -0.1111  0.2420  0.0792
 1855SOL    HW2 7466   0.655   0.219   1.032 -0.2373  0.2835 -0.0245
 1855SOL    HW3 7467   0.800   0.197   0.992 -0.1679  0.2499  0.2460
 1855SOL    MW4 7468   0.721   0.230   0.976 -0.1353  0.2486  0.0875
 1856SOL     OW 7469   3.459   1.645   2.996 -0.2979  0.1573  0.3203
 1856SOL    HW2 7470   3.383   1.681   2.949 -0.0065 -0.1578 -0.4083
 1856SOL    HW3 7471   3.430   1.559   3.026 -0.3182  0.1496  0.2795
 1856SOL    MW4 7472   3.445   1.639   2.994 -0.2623  0.1148  0.2191
 1857SOL     OW 7473   0.966   1.868   1.071  0.0889 -0.3446  0.1446
 1857SOL    HW2 7474   0.900   1.837   1.008  0.0134  0.6754 -0.2998
 1857SOL    HW3 7475   1.019   1.930   1.021  0.4623 -0.0492  0.9007
 1857SOL    MW4 7476   0.964   1.872   1.056  0.1281 -0.1711  0.1857
 1858SOL     OW 7477   1.672   1.623   1.055 -0.2237 -0.3859 -0.2345
 1858SOL    HW2 7478   1.610   1.579   1.113 -0.7705  0.0970 -0.4427
 1858SOL    HW3 7479   1.636   1.609   0.967  0.1070 -0.3324 -0.3782
 1858SOL    MW4 7480   1.659   1.616   1.051 -0.2522 -0.3151 -0.2809
 1859SOL     OW 7481   4.213   2.572   3.653  0.4526 -0.1712 -0.6081
 1859SOL    HW2 7482   4.263   2.653   3.658  1.2095 -0.6291 -0.5844
 1859SOL    HW3 7483   4.162   2.570   3.734  0.0925  0.4943 -0.8147
 1859SOL    MW4 7484   4.213   2.582   3.664  0.5050 -0.1438 -0.6325
 1860SOL     OW 7485   2.593   3.829   4.301 -0.4036  0.1434 -0.1164
 1860SOL    HW2 7486   2.567   3.778   4.225  0.7751  0.4433 -0.7225
 1860SOL    HW3 7487   2.683   3.803   4.318 -1.6258 -2.3677  3.1878
 1860SOL    MW4 7488   2.601   3.819   4.293 -0.4089 -0.1481  0.2398
 1861SOL     OW 7489   4.214   0.354   1.883  0.4367 -0.3332 -0.1012
 1861SOL    HW2 7490   4.269   0.280   1.908 -0.8231 -0.9138  0.9991
 1861SOL    HW3 7491   4.220   0.414   1.957  4.3295  2.4259 -2.4245
 1861SOL    MW4 7492   4.222   0.352   1.896  0.7839 -0.0458 -0.2625
 1862SOL     OW 7493   3.085   3.809   4.317  0.5716  0.0215  0.0066
 1862SOL    HW2 7494   3.154   3.875   4.326  1.0196 -0.5736  1.0453
 1862SOL    HW3 7495   3.084   3.788   4.223 -0.9687  2.9488 -0.7005
 1862SOL    MW4 7496   3.094   3.815   4.306  0.4277  0.3293  0.0505
 1863SOL     OW 7497   0.901   3.958   3.536  0.0106 -0.3168  0.3222
 1863SOL    HW2 7498   0.833   4.008   3.581 -0.4917  0.4316 -1.2380
 1863SOL    HW3 7499   0.854   3.902   3.475  0.8025  0.3097 -0.8773
 1863SOL    MW4 7500   0.886   3.957   3.534  0.0488 -0.1352 -0.0422
 1864SOL     OW 7501   1.538   4.253   3.459 -0.3762  0.4759 -0.8715
 1864SOL    HW2 7502   1.459   4.288   3.418 -0.7174 -1.3427 -1.8086
 1864SOL    HW3 7503   1.508   4.220   3.544 -0.3165  1.2105 -0.5638
 1864SOL    MW4 7504   1.524   4.253   3.465 -0.4134  0.3324 -0.9549
 1865SOL     OW 7505   1.204   0.697   2.349  0.2064 -0.4111 -0.0643
 1865SOL    HW2 7506   1.148   0.700   2.427  0.6397  0.3240  0.2223
 1865SOL    HW3 7507   1.263   0.624   2.364  1.2101  0.5968  0.9335
 1865SOL    MW4 7508   1.204   0.688   2.361  0.3960 -0.1811  0.1051
 1866SOL     OW 7509   2.568   2.065   1.807  0.0669 -0.1622  1.0201
 1866SOL    HW2 7510   2.480   2.028   1.812 -0.7484  1.1609 -2.3118
 1866SOL    HW3 7511   2.615   2.009   1.746  1.5537 -0.8096  2.7127
 1866SOL    MW4 7512   2.562   2.053   1.800  0.1557 -0.0730  0.8037
 1867SOL     OW 7513   2.145   2.524   4.410 -0.9142  0.1511 -1.0182
 1867SOL    HW2 7514   2.108   2.605   4.374 -1.1237 -1.2727 -4.2300
 1867SOL    HW3 7515   2.181   2.479   4.333  0.2409 -2.2420  0.8902
 1867SOL    MW4 7516   2.145   2.529   4.395 -0.7894 -0.3524 -1.1897
 1868SOL     OW 7517   3.464   2.151   1.238  0.1677 -0.7042  0.0723
 1868SOL    HW2 7518   3.411   2.229   1.252 -1.6322 -1.8809  0.0274
 1868SOL    HW3 7519   3.548   2.170   1.282  0.1528  1.6388 -0.8719
 1868SOL    MW4 7520   3.468   2.164   1.246 -0.0718 -0.5503 -0.0582
 1869SOL     OW 7521   1.549   3.856   1.005 -0.1665  0.1366  0.1869
 1869SOL    HW2 7522   1.518   3.889   0.921  0.0324 -0.4068 -0.1046
 1869SOL    HW3 7523   1.622   3.913   1.028  1.1380 -1.0177 -1.0374
 1869SOL    MW4 7524   1.554   3.868   0.997  0.0318 -0.0875 -0.0131
 1870SOL     OW 7525   1.791   4.195   3.334  0.1278  0.3434 -0.4567
 1870SOL    HW2 7526   1.706   4.220   3.371  0.6808  2.8584 -0.8020
 1870SOL    HW3 7527   1.840   4.161   3.409 -0.8751 -0.3911 -0.1074
 1870SOL    MW4 7528   1.786   4.193   3.349  0.0684  0.5784 -0.4561
 1871SOL     OW 7529   1.043   3.237   2.381  0.0884 -0.3288 -0.4107
 1871SOL    HW2 7530   1.112   3.288   2.339 -0.3933  1.9700  1.4477
 1871SOL    HW3 7531   1.064   3.146   2.362  3.2468  0.3650 -0.4515
 1871SOL    MW4 7532   1.055   3.232   2.373  0.4416  0.0663 -0.1707
 1872SOL     OW 7533   3.861   2.289   2.990 -0.3424  0.3435 -0.0645
 1872SOL    HW2 7534   3.785   2.309   3.045 -0.0275  0.1155  0.4591
 1872SOL    HW3 7535   3.863   2.359   2.925  0.7277  2.0005  1.7220
 1872SOL    MW4 7536   3.851   2.300   2.988 -0.1597  0.5322  0.2401
 1873SOL     OW 7537   4.259   0.474   3.657 -0.1049 -0.1527 -0.0397
 1873SOL    HW2 7538   4.251   0.451   3.749  1.4074 -0.1890  0.0824
 1873SOL    HW3 7539   4.283   0.393   3.613 -2.4077 -0.5110 -0.7244
 1873SOL    MW4 7540   4.261   0.461   3.663 -0.2093 -0.2047 -0.1140
 1874SOL     OW 7541   4.196   4.201   1.118 -0.0560  0.5746 -0.2964
 1874SOL    HW2 7542   4.272   4.155   1.153 -0.4715  0.2748  0.2056
 1874SOL    HW3 7543   4.222   4.294   1.118  0.0319  0.5504  0.5598
 1874SOL    MW4 7544   4.209   4.208   1.122 -0.0992  0.5317 -0.1173
 1875SOL     OW 7545   3.096   0.420   2.038 -0.2416  0.4020 -0.2427
 1875SOL    HW2 7546   3.029   0.446   1.975  0.3927  3.1473  0.1624
 1875SOL    HW3 7547   3.177   0.417   1.986 -0.1473  0.0941 -0.0833
 1875SOL    MW4 7548   3.098   0.423   2.022 -0.1454  0.7237 -0.1681
 1876SOL     OW 7549   1.492   2.418   3.246  0.0981 -0.1276  0.3527
 1876SOL    HW2 7550   1.462   2.337   3.289  2.9703 -1.8382 -0.6964
 1876SOL    HW3 7551   1.502   2.394   3.154 -1.7056  2.2727 -0.5280
 1876SOL    MW4 7552   1.489   2.404   3.240  0.2390 -0.0365  0.0978
 1877SOL     OW 7553   0.179   2.697   3.413 -0.2031 -0.2072  0.3084
 1877SOL    HW2 7554   0.132   2.681   3.331  0.6376 -1.6045  0.0869
 1877SOL    HW3 7555   0.247   2.760   3.390 -2.6757  2.7944  0.8925
 1877SOL    MW4 7556   0.182   2.703   3.399 -0.4184  0.0048  0.3560
 1878SOL     OW 7557   2.513   4.556   4.017  0.2258  0.0626 -0.2970
 1878SOL    HW2 7558   2.556   4.470   4.010 -2.5352 -1.4048 -0.0230
 1878SOL    HW3 7559   2.454   4.559   3.942 -0.9009  1.0308  0.6098
 1878SOL    MW4 7560   2.511   4.545   4.006 -0.2873 -0.0033 -0.1407
 1879SOL     OW 7561   0.180   2.886   2.572 -0.3432 -0.0183  0.0530
 1879SOL    HW2 7562   0.100   2.938   2.570  1.0514  2.1510 -0.4785
 1879SOL    HW3 7563   0.165   2.818   2.505 -1.6235  0.4949 -0.2091
 1879SOL    MW4 7564   0.167   2.884   2.563 -0.3282  0.3355 -0.0520
 1880SOL     OW 7565   2.296   3.261   1.702  0.3306 -0.1889  0.3345
 1880SOL    HW2 7566   2.348   3.218   1.769  2.7150 -0.8640 -1.8942
 1880SOL    HW3 7567   2.233   3.194   1.674  0.8837 -0.6639  0.2315
 1880SOL    MW4 7568   2.294   3.246   1.707  0.7181 -0.3407  0.0268
 1881SOL     OW 7569   2.565   1.371   3.785 -0.7026  0.3071  0.0586
 1881SOL    HW2 7570   2.536   1.372   3.694 -0.4857 -1.0108 -0.0206
 1881SOL    HW3 7571   2.627   1.443   3.791 -1.2809  0.8747 -0.6479
 1881SOL    MW4 7572   2.569   1.381   3.774 -0.7503  0.2081 -0.0448
 1882SOL     OW 7573   4.010   3.486   0.767  0.1043  0.2713 -0.2007
 1882SOL    HW2 7574   3.934   3.506   0.822 -0.0714  0.1088 -0.3833
 1882SOL    HW3 7575   4.071   3.442   0.826  0.2880  0.8967  0.0830
 1882SOL    MW4 7576   4.008   3.483   0.782  0.1054  0.3324 -0.1874
 1883SOL     OW 7577   3.712   2.692   3.176 -0.0559  0.1970  0.1766
 1883SOL    HW2 7578   3.649   2.621   3.167 -0.4128  0.5305  0.0200
 1883SOL    HW3 7579   3.779   2.673   3.111 -1.2486  1.1594 -1.3793
 1883SOL    MW4 7580   3.712   2.680   3.167 -0.2606  0.3676 -0.0494
 1884SOL     OW 7581   2.829   3.529   4.233  0.1640  0.5352  0.2908
 1884SOL    HW2 7582   2.905   3.550   4.179  0.5849  1.7899  1.3621
 1884SOL    HW3 7583   2.755   3.533   4.172  0.6462  1.8342 -0.2234
 1884SOL    MW4 7584   2.829   3.532   4.218  0.2830  0.8721  0.3648
 1885SOL     OW 7585   2.243   3.756   2.096  0.5590 -0.0137 -0.2089
 1885SOL    HW2 7586   2.172   3.693   2.084  0.0117  0.5222  0.1828
 1885SOL    HW3 7587   2.304   3.713   2.156  0.2794 -0.2337 -0.0869
 1885SOL    MW4 7588   2.242   3.742   2.102  0.4499  0.0281 -0.1414
 1886SOL     OW 7589   0.803   0.977   4.628 -0.1953  0.5522 -0.1616
 1886SOL    HW2 7590   0.888   0.974   4.585 -0.3268 -0.2968 -0.3578
 1886SOL    HW3 7591   0.761   1.056   4.594  0.2413  0.6038 -0.5744
 1886SOL    MW4 7592   0.808   0.987   4.618 -0.1551  0.4469 -0.2418
 1887SOL     OW 7593   1.745   1.327   3.248 -0.1808 -0.1851  0.7093
 1887SOL    HW2 7594   1.703   1.358   3.328  0.0296  2.1100 -0.0132
 1887SOL    HW3 7595   1.672   1.295   3.194 -0.5343  0.0063  1.0656
 1887SOL    MW4 7596   1.730   1.327   3.251 -0.1997  0.1431  0.6611
 1888SOL     OW 7597   2.883   3.234   2.820  0.3393  0.0829 -0.1251
 1888SOL    HW2 7598   2.902   3.173   2.749  0.4792 -1.5176  1.2630
 1888SOL    HW3 7599   2.964   3.237   2.872 -0.3226 -0.1088  0.9388
 1888SOL    MW4 7600   2.896   3.227   2.818  0.2704 -0.1538  0.1986
 1889SOL     OW 7601   1.738   3.300   1.027  0.4289  0.4211  0.3173
 1889SOL    HW2 7602   1.760   3.343   1.109  1.0442  1.0611 -0.1885
 1889SOL    HW3 7603   1.652   3.336   1.004  1.5426  2.3957 -0.8037
 1889SOL    MW4 7604   1.729   3.310   1.035  0.6570  0.7658  0.1025
 1890SOL     OW 7605   2.017   0.155   1.896 -0.3789  0.5357  0.0107
 1890SOL    HW2 7606   2.042   0.064   1.884 -2.0271  0.1285 -0.5236
 1890SOL    HW3 7607   2.099   0.202   1.909  0.4063 -1.2400  1.7726
 1890SOL    MW4 7608   2.031   0.150   1.896 -0.4928  0.2477  0.1726
 1891SOL     OW 7609   2.917   3.164   2.545 -0.2492  0.5899 -0.0548
 1891SOL    HW2 7610   2.917   3.069   2.538  1.7850  0.3315  2.6475
 1891SOL    HW3 7611   3.000   3.191   2.505 -0.9174  1.2652 -1.0087
 1891SOL    MW4 7612   2.928   3.155   2.539 -0.0691  0.6449  0.1762
 1892SOL     OW 7613   1.655   0.687   2.388  0.2414 -0.3310 -0.1809
 1892SOL    HW2 7614   1.738   0.727   2.362 -0.9069  0.9798 -1.9349
 1892SOL    HW3 7615   1.622   0.744   2.457  0.3721 -0.3701 -0.0839
 1892SOL    MW4 7616   1.662   0.700   2.393  0.1072 -0.1633 -0.3994
 1893SOL     OW 7617   2.285   1.560   2.686  0.3246 -0.4305  0.2959
 1893SOL    HW2 7618   2.361   1.543   2.631  0.0170 -0.2145 -0.1995
 1893SOL    HW3 7619   2.311   1.633   2.742  0.3086 -0.0247 -0.2212
 1893SOL    MW4 7620   2.298   1.568   2.686  0.2818 -0.3484  0.1619
 1894SOL     OW 7621   1.415   0.953   1.480  0.0833  0.1233  0.2544
 1894SOL    HW2 7622   1.408   0.865   1.515  2.1860 -0.2662 -0.2245
 1894SOL    HW3 7623   1.378   0.947   1.391 -1.1547  0.0876  0.7655
 1894SOL    MW4 7624   1.409   0.941   1.473  0.1974  0.0672  0.2588
 1895SOL     OW 7625   0.147   3.106   4.178  0.1624 -0.0898 -0.2400
 1895SOL    HW2 7626   0.066   3.156   4.180  0.7183  0.8859 -1.3302
 1895SOL    HW3 7627   0.145   3.059   4.095  0.4855 -0.4521 -0.0488
 1895SOL    MW4 7628   0.136   3.106   4.168  0.2784 -0.0091 -0.3581
 1896SOL     OW 7629   3.463   3.549   2.395 -0.0769 -0.3960 -0.1069
 1896SOL    HW2 7630   3.545   3.528   2.351  0.6561  1.3120  0.3964
 1896SOL    HW3 7631   3.471   3.511   2.482  0.9062  1.2009  0.5235
 1896SOL    MW4 7632   3.475   3.541   2.401  0.1495  0.0401  0.0427
 1897SOL     OW 7633   3.536   0.911   1.869 -0.0929  0.2018  0.2663
 1897SOL    HW2 7634   3.577   0.827   1.847 -0.5618 -0.1686  0.7986
 1897SOL    HW3 7635   3.607   0.965   1.902  0.2056  0.0023 -0.0528
 1897SOL    MW4 7636   3.551   0.907   1.870 -0.1156  0.1266  0.2943
 1898SOL     OW 7637   3.275   1.651   2.182 -0.0527  0.4109  0.0145
 1898SOL    HW2 7638   3.249   1.676   2.094  1.1156  0.8929 -0.2007
 1898SOL    HW3 7639   3.231   1.714   2.240 -1.8449 -0.6838 -0.1218
 1898SOL    MW4 7640   3.266   1.662   2.178 -0.1349  0.3301 -0.0319
 1899SOL     OW 7641   4.080   2.069   4.350  0.0457 -0.4276 -0.0562
 1899SOL    HW2 7642   4.012   2.003   4.338  0.3225 -0.9206  1.0006
 1899SOL    HW3 7643   4.088   2.111   4.265 -2.0925  0.1202 -0.0130
 1899SOL    MW4 7644   4.072   2.066   4.337 -0.1993 -0.4203  0.0887
 1900SOL     OW 7645   3.273   1.179   4.078  0.2217  0.1445 -0.2686
 1900SOL    HW2 7646   3.351   1.124   4.083  0.1389  0.0533  0.0165
 1900SOL    HW3 7647   3.277   1.234   4.156 -0.6697 -0.7599  0.4333
 1900SOL    MW4 7648   3.284   1.179   4.089  0.0930  0.0131 -0.1383
 1901SOL     OW 7649   0.314   3.794   0.684  0.0889  0.5547  0.2686
 1901SOL    HW2 7650   0.329   3.750   0.768  0.8675 -3.2773 -1.7303
 1901SOL    HW3 7651   0.398   3.835   0.663  0.2622  0.4804  0.8265
 1901SOL    MW4 7652   0.327   3.793   0.692  0.2145  0.0396  0.0785
 1902SOL     OW 7653   0.473   1.244   3.858 -0.7604  0.0272 -0.0592
 1902SOL    HW2 7654   0.382   1.258   3.832 -0.9131  0.9455  0.9262
 1902SOL    HW3 7655   0.513   1.331   3.851 -0.4210 -0.0205  1.2628
 1902SOL    MW4 7656   0.466   1.257   3.853 -0.7358  0.1420  0.2453
 1903SOL     OW 7657   3.040   3.814   0.837  0.1619 -0.4190 -0.1325
 1903SOL    HW2 7658   3.131   3.832   0.862 -0.5822  1.9797  0.9579
 1903SOL    HW3 7659   2.988   3.841   0.912 -1.4676 -1.7255 -0.7737
 1903SOL    MW4 7660   3.045   3.820   0.850 -0.1514 -0.2749 -0.0733
 1904SOL     OW 7661   2.667   2.698   2.551  0.1500 -0.7413 -0.4512
 1904SOL    HW2 7662   2.644   2.669   2.463 -0.5305 -1.4832 -0.0281
 1904SOL    HW3 7663   2.686   2.618   2.599 -2.4598 -0.5951  0.9337
 1904SOL    MW4 7664   2.667   2.684   2.546 -0.2842 -0.8197 -0.2129
 1905SOL     OW 7665   0.267   3.765   1.811  0.3664  0.1787 -0.1528
 1905SOL    HW2 7666   0.325   3.727   1.745  1.0872  0.8274  0.1026
 1905SOL    HW3 7667   0.185   3.717   1.801  0.7510 -0.3273 -0.9302
 1905SOL    MW4 7668   0.264   3.754   1.801  0.5123  0.1976 -0.2216
 1906SOL     OW 7669   3.047   3.247   3.484 -0.0660  0.0683 -0.1358
 1906SOL    HW2 7670   3.117   3.206   3.535 -0.0533 -0.1056 -0.2913
 1906SOL    HW3 7671   2.973   3.186   3.491 -0.0422  0.0123 -0.3814
 1906SOL    MW4 7672   3.046   3.234   3.492 -0.0610  0.0379 -0.1888
 1907SOL     OW 7673   1.075   4.019   1.417 -0.2723  0.5759 -0.5439
 1907SOL    HW2 7674   1.043   4.023   1.327 -1.1509 -1.1817 -0.3472
 1907SOL    HW3 7675   0.995   4.012   1.470  0.3035 -2.4274  0.0595
 1907SOL    MW4 7676   1.060   4.018   1.412 -0.3121 -0.0525 -0.4382
 1908SOL     OW 7677   1.065   0.721   3.453 -0.0043  0.4634  0.5264
 1908SOL    HW2 7678   1.044   0.717   3.547 -1.4942 -1.3402  0.1471
 1908SOL    HW3 7679   1.006   0.788   3.419 -1.2080 -0.5910  0.4774
 1908SOL    MW4 7680   1.054   0.729   3.461 -0.3595  0.0864  0.4697
 1909SOL     OW 7681   2.301   2.602   2.296 -0.0819  0.0064  0.2198
 1909SOL    HW2 7682   2.257   2.632   2.217 -0.0761  2.7891  1.2036
 1909SOL    HW3 7683   2.395   2.614   2.278 -0.1173  1.4490  0.9237
 1909SOL    MW4 7684   2.308   2.608   2.283 -0.0858  0.5641  0.4425
 1910SOL     OW 7685   0.618   2.330   4.492  0.0139  0.1557  0.2567
 1910SOL    HW2 7686   0.704   2.313   4.530 -0.3164 -0.2274  0.8405
 1910SOL    HW3 7687   0.627   2.305   4.400  0.1459 -1.2129  0.6228
 1910SOL    MW4 7688   0.630   2.324   4.485 -0.0123 -0.0753  0.3824
 1911SOL     OW 7689   0.233   0.946   1.253  0.4356  0.4586 -0.1790
 1911SOL    HW2 7690   0.170   0.897   1.200 -0.3688  0.3096  0.9045
 1911SOL    HW3 7691   0.275   0.880   1.308 -0.4737  0.9405  1.1090
 1911SOL    MW4 7692   0.230   0.931   1.253  0.2095  0.5025  0.1341
 1912SOL     OW 7693   2.874   1.727   4.342 -0.4711  0.0415 -0.1260
 1912SOL    HW2 7694   2.793   1.779   4.340 -0.0240  0.7668  0.2223
 1912SOL    HW3 7695   2.910   1.744   4.429 -0.2248 -0.7227 -0.0792
 1912SOL    MW4 7696   2.868   1.736   4.353 -0.3796  0.0364 -0.0744
 1913SOL     OW 7697   1.475   1.711   1.409 -0.1995  0.7919  0.2179
 1913SOL    HW2 7698   1.464   1.789   1.354  1.0593  1.6884  1.2040
 1913SOL    HW3 7699   1.427   1.733   1.490 -1.8954 -0.4443 -0.4176
 1913SOL    MW4 7700   1.467   1.725   1.413 -0.2573  0.7470  0.2642
 1914SOL     OW 7701   3.143   1.798   2.365  0.0373 -0.1662  0.3203
 1914SOL    HW2 7702   3.056   1.765   2.383 -0.3407  0.4753 -0.3000
 1914SOL    HW3 7703   3.129   1.873   2.307  0.8921  0.8135  1.3351
 1914SOL    MW4 7704   3.130   1.804   2.360  0.1001  0.0478  0.3726
 1915SOL     OW 7705   3.840   3.830   4.123  0.1171  0.1486  0.1361
 1915SOL    HW2 7706   3.858   3.855   4.033  0.3281  0.9270  0.3900
 1915SOL    HW3 7707   3.922   3.793   4.155  0.0129 -0.2206 -0.0169
 1915SOL    MW4 7708   3.853   3.828   4.115  0.1311  0.2029  0.1497
 1916SOL     OW 7709   2.153   3.256   2.348 -0.0485 -0.0262 -0.3746
 1916SOL    HW2 7710   2.206   3.321   2.302 -0.2856  0.0877 -0.4891
 1916SOL    HW3 7711   2.200   3.239   2.429 -0.6398  1.2466  0.2553
 1916SOL    MW4 7712   2.166   3.263   2.353 -0.1578  0.1569 -0.3064
 1917SOL     OW 7713   1.817   0.470   2.433  0.3822  0.5026 -0.1428
 1917SOL    HW2 7714   1.771   0.397   2.474  0.8610  0.9351  1.1717
 1917SOL    HW3 7715   1.752   0.540   2.428  0.8203  1.0512  1.5427
 1917SOL    MW4 7716   1.803   0.470   2.438  0.5031  0.6321  0.2532
 1918SOL     OW 7717   0.062   0.453   2.436 -0.3735 -0.2044 -0.1571
 1918SOL    HW2 7718  -0.021   0.483   2.474  0.6625 -0.0960  2.1468
 1918SOL    HW3 7719   0.060   0.484   2.346 -1.9248  1.6841  0.4761
 1918SOL    MW4 7720   0.051   0.461   2.429 -0.4415  0.0590  0.2303
 1919SOL     OW 7721   1.500   0.881   4.185 -0.2074 -0.3856 -0.2392
 1919SOL    HW2 7722   1.417   0.860   4.143 -0.6099  1.2162 -0.2573
 1919SOL    HW3 7723   1.531   0.797   4.220 -1.2678 -1.1933 -1.2183
 1919SOL    MW4 7724   1.493   0.867   4.184 -0.4005 -0.2809 -0.3710
 1920SOL     OW 7725   0.337   1.893   2.859 -0.2185 -0.5468 -0.7634
 1920SOL    HW2 7726   0.388   1.946   2.797  1.7486 -0.8944  0.5097
 1920SOL    HW3 7727   0.389   1.893   2.939 -2.1866 -1.0513  0.5440
 1920SOL    MW4 7728   0.351   1.900   2.861 -0.2186 -0.6591 -0.4232
 1921SOL     OW 7729   4.107   2.310   1.743  0.0605 -0.0811 -0.3363
 1921SOL    HW2 7730   4.062   2.378   1.793  1.9924  0.6591  0.4238
 1921SOL    HW3 7731   4.173   2.357   1.693  1.1071 -1.3468 -0.1575
 1921SOL    MW4 7732   4.110   2.325   1.743  0.4530 -0.1507 -0.2124
 1922SOL     OW 7733   1.115   0.127   2.177  0.2943  0.4848  0.3040
 1922SOL    HW2 7734   1.046   0.179   2.135  1.1630  0.8974 -0.6284
 1922SOL    HW3 7735   1.078   0.039   2.183  0.3565  0.2936 -1.8291
 1922SOL    MW4 7736   1.101   0.122   2.172  0.4171  0.5140 -0.1004
 1923SOL     OW 7737   4.291   2.772   0.909  0.2238  0.4552 -0.5512
 1923SOL    HW2 7738   4.295   2.835   0.981  0.0388  0.3317 -0.4344
 1923SOL    HW3 7739   4.229   2.705   0.938  3.7487 -2.1872  1.2766
 1923SOL    MW4 7740   4.284   2.771   0.923  0.6642  0.0901 -0.2946
 1924SOL     OW 7741   0.917   4.312   1.844 -0.1461  0.4609 -0.4170
 1924SOL    HW2 7742   0.995   4.317   1.789  0.4042  2.0235  0.4703
 1924SOL    HW3 7743   0.903   4.218   1.857  3.2560  0.1610  1.7025
 1924SOL    MW4 7744   0.925   4.300   1.839  0.3754  0.6280 -0.0203
 1925SOL     OW 7745   1.894   4.470   3.935  0.5116 -0.1970 -0.1248
 1925SOL    HW2 7746   1.946   4.548   3.916 -1.2807  1.3556  1.2272
 1925SOL    HW3 7747   1.911   4.451   4.027 -1.5507  0.5407  0.4280
 1925SOL    MW4 7748   1.903   4.477   3.944  0.0031  0.1054  0.1266
 1926SOL     OW 7749   1.218   0.129   4.227 -0.3189 -0.2741  0.1482
 1926SOL    HW2 7750   1.135   0.132   4.180 -0.1380  0.1199 -0.1521
 1926SOL    HW3 7751   1.283   0.105   4.160  0.0878  1.2328 -0.0155
 1926SOL    MW4 7752   1.216   0.126   4.212 -0.2414 -0.0233  0.0873
 1927SOL     OW 7753   3.278   3.932   2.721  0.1086 -0.4287 -0.0351
 1927SOL    HW2 7754   3.300   4.020   2.690  0.1469  0.0278  1.2444
 1927SOL    HW3 7755   3.348   3.876   2.689  1.3821  0.4338  1.2004
 1927SOL    MW4 7756   3.290   3.937   2.713  0.2818 -0.2549  0.2964
 1928SOL     OW 7757   0.985   2.586   3.164 -0.2523  0.4366 -0.4205
 1928SOL    HW2 7758   0.971   2.498   3.199 -0.0395  0.4601 -0.2760
 1928SOL    HW3 7759   1.000   2.640   3.241  1.7518  0.2129 -0.6373
 1928SOL    MW4 7760   0.985   2.582   3.179  0.0402  0.4101 -0.4299
 1929SOL     OW 7761   4.409   2.614   4.315 -0.4803  0.2232 -0.0581
 1929SOL    HW2 7762   4.439   2.524   4.303 -2.4868 -0.3109 -1.3648
 1929SOL    HW3 7763   4.481   2.658   4.360  0.8959 -1.8016 -0.2314
 1929SOL    MW4 7764   4.422   2.608   4.319 -0.5631 -0.1147 -0.2532
 1930SOL     OW 7765   4.065   0.633   1.433  0.2478  0.2969 -0.7219
 1930SOL    HW2 7766   4.096   0.593   1.352  0.2203  0.1846 -0.6770
 1930SOL    HW3 7767   4.116   0.591   1.502  1.3406  1.4705 -0.8067
 1930SOL    MW4 7768   4.076   0.622   1.432  0.3891  0.4369 -0.7273
 1931SOL     OW 7769   4.410   3.211   1.529 -0.2751  0.2516 -0.0687
 1931SOL    HW2 7770   4.477   3.244   1.470 -0.1046 -0.1250 -0.0858
 1931SOL    HW3 7771   4.329   3.252   1.498 -0.0958  0.5030 -0.2069
 1931SOL    MW4 7772   4.408   3.221   1.517 -0.2289  0.2351 -0.0892
 1932SOL     OW 7773   0.700   1.376   3.537 -0.3300 -0.5841  0.5593
 1932SOL    HW2 7774   0.701   1.283   3.516  0.9232 -0.9622  2.2344
 1932SOL    HW3 7775   0.792   1.402   3.536 -0.8175  1.2871 -2.5591
 1932SOL    MW4 7776   0.712   1.367   3.534 -0.2290 -0.3872  0.3688
 1933SOL     OW 7777   1.132   3.191   0.902 -0.3412 -0.7065  0.3394
 1933SOL    HW2 7778   1.061   3.255   0.898  0.7249  0.5143  0.4966
 1933SOL    HW3 7779   1.105   3.121   0.843 -1.5631 -0.1481  0.2207
 1933SOL    MW4 7780   1.119   3.190   0.894 -0.3617 -0.4716  0.3445
 1934SOL     OW 7781   2.365   0.514   1.912  0.8249 -0.2884 -0.4006
 1934SOL    HW2 7782   2.389   0.552   1.997 -1.4493  0.1650  0.0791
 1934SOL    HW3 7783   2.447   0.509   1.864  1.6588  2.5401  0.6088
 1934SOL    MW4 7784   2.379   0.519   1.917  0.6349  0.1446 -0.2042
 1935SOL     OW 7785   0.154   2.947   0.731  0.4980  0.2620  0.4499
 1935SOL    HW2 7786   0.069   2.903   0.735  1.2687 -1.3823 -0.5885
 1935SOL    HW3 7787   0.206   2.905   0.800  0.8456  0.4284  0.2920
 1935SOL    MW4 7788   0.150   2.936   0.741  0.6455  0.0670  0.2921
 1936SOL     OW 7789   2.466   2.240   3.511 -0.5061 -0.6409 -0.3512
 1936SOL    HW2 7790   2.496   2.166   3.458  1.5537  0.6261 -1.0255
 1936SOL    HW3 7791   2.512   2.230   3.594  0.2884  0.2141 -0.6755
 1936SOL    MW4 7792   2.476   2.229   3.515 -0.1292 -0.3610 -0.4833
 1937SOL     OW 7793   1.098   3.957   4.344  0.5523  0.4476 -0.7023
 1937SOL    HW2 7794   1.017   3.980   4.390 -0.0653 -0.0541 -1.5273
 1937SOL    HW3 7795   1.149   3.908   4.408  0.0918  0.5396 -0.2604
 1937SOL    MW4 7796   1.094   3.954   4.359  0.4100  0.3936 -0.7529
 1938SOL     OW 7797   2.596   2.826   3.487  0.0059 -0.4081 -0.0892
 1938SOL    HW2 7798   2.638   2.763   3.545 -0.4897  0.5458  1.3396
 1938SOL    HW3 7799   2.666   2.853   3.427  1.4073  0.9615  2.0835
 1938SOL    MW4 7800   2.611   2.821   3.487  0.1256 -0.1016  0.3858
 1939SOL     OW 7801   3.947   3.965   4.409  0.1886  0.4132  0.3904
 1939SOL    HW2 7802   3.997   3.894   4.369 -0.5104  0.0156  0.2035
 1939SOL    HW3 7803   4.010   4.013   4.461  0.8349  0.1243 -0.1242
 1939SOL    MW4 7804   3.962   3.962   4.410  0.1814  0.3226  0.2985
 1940SOL     OW 7805   0.699   3.006   1.564  0.0871 -0.1620  0.0157
 1940SOL    HW2 7806   0.787   2.985   1.532 -0.0663  0.4838 -0.8409
 1940SOL    HW3 7807   0.641   2.961   1.503 -0.2006  0.5523 -0.2385
 1940SOL    MW4 7808   0.703   2.997   1.552  0.0289  0.0174 -0.1309
 1941SOL     OW 7809   0.201   3.359   2.711 -0.3788 -0.1639 -0.1679
 1941SOL    HW2 7810   0.190   3.454   2.716  2.6841  0.2685 -0.5251
 1941SOL    HW3 7811   0.251   3.336   2.789  3.0795 -0.7280 -2.4051
 1941SOL    MW4 7812   0.206   3.368   2.722  0.4816 -0.1814 -0.5105
 1942SOL     OW 7813   0.083   2.024   2.690  0.2458  0.1687  0.1534
 1942SOL    HW2 7814   0.158   1.988   2.739  1.1604  1.7141 -0.0753
 1942SOL    HW3 7815   0.045   2.088   2.749 -1.1089 -0.8308  0.3834
 1942SOL    MW4 7816   0.088   2.027   2.705  0.1877  0.2408  0.1533
 1943SOL     OW 7817   2.408   3.870   4.512  0.1149  0.0126 -0.2606
 1943SOL    HW2 7818   2.427   3.961   4.531 -1.6816  0.6060 -1.2043
 1943SOL    HW3 7819   2.479   3.841   4.455  0.1761  1.0965 -0.7413
 1943SOL    MW4 7820   2.420   3.878   4.507 -0.1140  0.2337 -0.4487
 1944SOL     OW 7821   1.218   0.162   3.566  0.5709  0.0831 -0.4066
 1944SOL    HW2 7822   1.137   0.127   3.530  0.0476 -1.4523  2.1877
 1944SOL    HW3 7823   1.285   0.099   3.539  0.2618 -0.7754  0.7802
 1944SOL    MW4 7824   1.216   0.149   3.557  0.4611 -0.2327  0.0920
 1945SOL     OW 7825   2.365   4.564   2.443 -0.4437 -0.0191 -0.0941
 1945SOL    HW2 7826   2.446   4.583   2.396 -0.2777 -0.6439 -0.0699
 1945SOL    HW3 7827   2.310   4.641   2.429 -0.5380 -0.3425 -1.6221
 1945SOL    MW4 7828   2.368   4.576   2.435 -0.4344 -0.1440 -0.2925
 1946SOL     OW 7829   1.969   1.002   4.500 -0.3178 -0.0977  0.3015
 1946SOL    HW2 7830   1.942   0.995   4.409 -0.8142  0.9291  0.3623
 1946SOL    HW3 7831   1.918   1.076   4.535  0.3411 -0.0713  1.2332
 1946SOL    MW4 7832   1.959   1.011   4.493 -0.2962  0.0412  0.4330
 1947SOL     OW 7833   3.413   2.841   4.177 -0.6694  0.0768  0.2858
 1947SOL    HW2 7834   3.403   2.772   4.243 -0.4106  0.6020  0.8753
 1947SOL    HW3 7835   3.399   2.796   4.094 -0.6132 -0.6686  0.6729
 1947SOL    MW4 7836   3.410   2.826   4.175 -0.6280  0.0477  0.4144
 1948SOL     OW 7837   2.111   3.870   1.315  0.5241  0.0552 -0.0467
 1948SOL    HW2 7838   2.022   3.859   1.282  0.4243 -0.7955  0.4986
 1948SOL    HW3 7839   2.101   3.877   1.410  1.1688 -1.5654  0.1482
 1948SOL    MW4 7840   2.098   3.869   1.323  0.5963 -0.2711  0.0510
 1949SOL     OW 7841   0.060   3.772   1.604 -0.1492  0.0792 -0.0525
 1949SOL    HW2 7842   0.034   3.787   1.513 -0.3500  0.0643  0.0027
 1949SOL    HW3 7843   0.057   3.858   1.645 -0.8167 -0.0343  0.1375
 1949SOL    MW4 7844   0.056   3.785   1.598 -0.2637  0.0625 -0.0201
 1950SOL     OW 7845   2.409   3.842   2.413 -0.1436 -0.3375  0.4455
 1950SOL    HW2 7846   2.314   3.838   2.400  0.0208  0.2295 -1.0910
 1950SOL    HW3 7847   2.445   3.790   2.341  0.6734 -1.6991  1.8140
 1950SOL    MW4 7848   2.401   3.834   2.402 -0.0143 -0.4423  0.4230
 1951SOL     OW 7849   2.530   1.481   3.066  0.0767 -0.0789 -0.0967
 1951SOL    HW2 7850   2.596   1.443   3.125 -0.8797 -0.7437  0.5588
 1951SOL    HW3 7851   2.530   1.422   2.990  0.5760  0.2020 -0.3226
 1951SOL    MW4 7852   2.539   1.468   3.063  0.0162 -0.1293 -0.0401
 1952SOL     OW 7853   2.040   3.558   2.284  0.4582  0.1368 -0.0574
 1952SOL    HW2 7854   1.954   3.555   2.241  1.0735  1.1463 -1.4126
 1952SOL    HW3 7855   2.046   3.647   2.319  0.9367  0.0592  0.0664
 1952SOL    MW4 7856   2.029   3.570   2.283  0.6027  0.2596 -0.2198
 1953SOL     OW 7857   1.529   1.536   4.899  0.3508 -0.3229 -0.5900
 1953SOL    HW2 7858   1.577   1.464   4.941  0.9299 -0.7870 -2.0203
 1953SOL    HW3 7859   1.598   1.596   4.869 -0.1010  0.4853 -0.0321
 1953SOL    MW4 7860   1.544   1.534   4.901  0.3676 -0.2775 -0.7052
 1954SOL     OW 7861   3.954   0.094   4.633  0.0891  0.4645  0.3394
 1954SOL    HW2 7862   3.952   0.065   4.541  1.2037  1.9401 -0.1706
 1954SOL    HW3 7863   4.017   0.035   4.674 -2.4869 -2.0275  0.8419
 1954SOL    MW4 7864   3.962   0.082   4.626 -0.1037  0.3304  0.3386
 1955SOL     OW 7865   4.172   1.797   2.513  0.2588 -0.1644  0.1321
 1955SOL    HW2 7866   4.201   1.709   2.489  1.5525  0.2236  0.2459
 1955SOL    HW3 7867   4.222   1.818   2.592  2.0391  1.7587 -1.4638
 1955SOL    MW4 7868   4.182   1.788   2.520  0.6642  0.1405 -0.0632
 1956SOL     OW 7869   4.321   1.425   4.267  0.1966  0.4305 -0.2212
 1956SOL    HW2 7870   4.242   1.442   4.216  0.3409  0.6539 -0.3691
 1956SOL    HW3 7871   4.391   1.420   4.202  0.4340  1.0597 -0.0190
 1956SOL    MW4 7872   4.320   1.427   4.252  0.2470  0.5429 -0.2141
 1957SOL     OW 7873   4.382   2.048   0.939 -0.1845  0.2623 -0.1024
 1957SOL    HW2 7874   4.405   2.141   0.942  0.6051  0.0897 -0.6583
 1957SOL    HW3 7875   4.426   2.014   0.861  1.0533 -0.9790  1.0999
 1957SOL    MW4 7876   4.391   2.056   0.929  0.0830  0.0756 -0.0172
 1958SOL     OW 7877   3.640   2.152   4.250  0.2790 -0.4694 -0.1934
 1958SOL    HW2 7878   3.582   2.212   4.297  0.1081 -1.1524  0.4843
 1958SOL    HW3 7879   3.682   2.206   4.183  0.0673  0.3872  0.3565
 1958SOL    MW4 7880   3.638   2.167   4.247  0.2284 -0.4466 -0.0315
 1959SOL     OW 7881   4.064   1.409   0.681  0.1631  0.0914 -0.2412
 1959SOL    HW2 7882   4.147   1.452   0.663 -0.0821  1.2499  1.3120
 1959SOL    HW3 7883   3.999   1.460   0.634  0.0477  0.6021  0.4624
 1959SOL    MW4 7884   4.067   1.421   0.673  0.1154  0.3116  0.0566
 1960SOL     OW 7885   0.041   4.592   0.471  0.2126  0.0108  0.6992
 1960SOL    HW2 7886   0.094   4.668   0.446 -0.8551 -0.1062 -2.1643
 1960SOL    HW3 7887  -0.046   4.628   0.488 -0.1696 -0.4727 -0.1739
 1960SOL    MW4 7888   0.037   4.607   0.470  0.0213 -0.0682  0.2062
 1961SOL     OW 7889   1.577   2.860   3.212 -0.0166 -0.1971 -0.0199
 1961SOL    HW2 7890   1.488   2.845   3.244 -0.1681 -0.4982 -0.5731
 1961SOL    HW3 7891   1.619   2.910   3.281 -0.5796 -0.1641  0.3032
 1961SOL    MW4 7892   1.571   2.864   3.225 -0.1109 -0.2325 -0.0501
 1962SOL     OW 7893   0.649   3.077   2.324 -0.3501  0.0925 -0.0897
 1962SOL    HW2 7894   0.618   3.001   2.275 -2.6483  1.0850 -0.2414
 1962SOL    HW3 7895   0.723   3.110   2.273 -1.3308 -0.1860 -1.7255
 1962SOL    MW4 7896   0.655   3.071   2.311 -0.7827  0.1867 -0.3257
 1963SOL     OW 7897   1.198   3.244   3.049 -0.3038  0.2498  0.0501
 1963SOL    HW2 7898   1.174   3.156   3.079  0.8728  0.1779  0.8142
 1963SOL    HW3 7899   1.179   3.301   3.124  1.6823  0.2185  0.6143
 1963SOL    MW4 7900   1.192   3.240   3.063  0.1134  0.2363  0.2253
 1964SOL     OW 7901   2.252   2.830   1.856 -0.3024  0.0798 -0.7225
 1964SOL    HW2 7902   2.340   2.837   1.820  0.5744 -1.8915  0.9215
 1964SOL    HW3 7903   2.229   2.919   1.882  1.6791  0.4141 -0.0661
 1964SOL    MW4 7904   2.260   2.843   1.854  0.0749 -0.1361 -0.4190
 1965SOL     OW 7905   3.904   2.433   1.286 -0.3159  0.2833  0.0182
 1965SOL    HW2 7906   3.880   2.341   1.299  1.3513 -0.0761  0.7695
 1965SOL    HW3 7907   3.842   2.482   1.339  0.0669 -0.5561  1.2650
 1965SOL    MW4 7908   3.893   2.427   1.295 -0.0458  0.1254  0.2818
 1966SOL     OW 7909   0.393   2.942   3.505 -0.1310 -0.2112 -0.3187
 1966SOL    HW2 7910   0.461   2.888   3.544  0.7644  0.0367 -1.5195
 1966SOL    HW3 7911   0.334   2.961   3.578  0.7403 -0.9450  0.6009
 1966SOL    MW4 7912   0.394   2.938   3.520  0.1021 -0.2754 -0.3557
 1967SOL     OW 7913   1.726   1.214   4.119 -0.5390  0.2101  0.2314
 1967SOL    HW2 7914   1.783   1.281   4.082  0.2602 -0.9567 -0.6874
 1967SOL    HW3 7915   1.660   1.263   4.167 -0.6428  1.7003 -1.3793
 1967SOL    MW4 7916   1.725   1.229   4.121 -0.4472  0.2530 -0.1025
 1968SOL     OW 7917   4.438   4.014   0.833 -0.7243 -0.0018 -0.0748
 1968SOL    HW2 7918   4.524   4.026   0.872 -0.6114 -0.4718 -0.1802
 1968SOL    HW3 7919   4.437   3.924   0.802 -0.6347  0.5001 -1.6095
 1968SOL    MW4 7920   4.449   4.004   0.834 -0.6976  0.0019 -0.2912
 1969SOL     OW 7921   3.735   0.885   3.451  0.1281 -0.1511 -0.1556
 1969SOL    HW2 7922   3.658   0.899   3.505 -0.2822 -1.9761 -0.2453
 1969SOL    HW3 7923   3.706   0.906   3.362  0.5649  2.0033  0.1900
 1969SOL    MW4 7924   3.721   0.889   3.446  0.1318 -0.1076 -0.1216
 1970SOL     OW 7925   3.601   2.889   4.408 -0.1291  0.6804 -0.3814
 1970SOL    HW2 7926   3.550   2.965   4.379 -0.1732  0.1250 -1.7965
 1970SOL    HW3 7927   3.691   2.909   4.383  0.2749  1.3740  1.5367
 1970SOL    MW4 7928   3.606   2.902   4.401 -0.0813  0.6986 -0.3152
 1971SOL     OW 7929   2.158   2.838   2.406 -0.3893  0.0482  0.3691
 1971SOL    HW2 7930   2.076   2.803   2.371 -0.0764 -0.7070  0.3726
 1971SOL    HW3 7931   2.222   2.769   2.389  0.2494  0.6525  0.3394
 1971SOL    MW4 7932   2.156   2.824   2.399 -0.2637  0.0281  0.3655
 1972SOL     OW 7933   0.783   3.351   1.980  0.2385 -0.5061 -0.1702
 1972SOL    HW2 7934   0.791   3.306   1.896 -0.1539 -1.3011  0.2113
 1972SOL    HW3 7935   0.849   3.419   1.977  0.6685 -0.9443 -0.8618
 1972SOL    MW4 7936   0.793   3.354   1.968  0.2434 -0.6688 -0.2111
 1973SOL     OW 7937   4.077   4.373   3.803  0.5303  0.7025 -0.3033
 1973SOL    HW2 7938   4.005   4.312   3.819  2.3320 -1.3558  0.2422
 1973SOL    HW3 7939   4.091   4.417   3.887 -0.1678  1.1968 -0.4456
 1973SOL    MW4 7940   4.069   4.370   3.816  0.6757  0.4959 -0.2501
 1974SOL     OW 7941   3.953   0.308   1.943  0.2500 -0.3509  0.7009
 1974SOL    HW2 7942   3.934   0.230   1.891  0.0079 -1.2716  2.1428
 1974SOL    HW3 7943   4.048   0.320   1.934  0.1053 -0.0906 -0.5121
 1974SOL    MW4 7944   3.963   0.300   1.935  0.1991 -0.4380  0.7310
 1975SOL     OW 7945   2.286   3.215   4.054 -0.1490  0.6364 -0.0628
 1975SOL    HW2 7946   2.331   3.141   4.095  2.5762  1.2902 -1.7116
 1975SOL    HW3 7947   2.328   3.293   4.092  0.2603  1.2636 -1.7335
 1975SOL    MW4 7948   2.298   3.216   4.064  0.2644  0.8051 -0.5007
 1976SOL     OW 7949   3.540   1.008   4.206  0.0534 -0.4208 -0.2385
 1976SOL    HW2 7950   3.628   1.000   4.169  0.2848 -2.2169  0.6504
 1976SOL    HW3 7951   3.553   1.061   4.285  0.2705 -0.3293 -0.3341
 1976SOL    MW4 7952   3.553   1.014   4.212  0.1125 -0.6458 -0.1340
 1977SOL     OW 7953   2.169   0.704   1.839 -0.6821  0.2708 -0.2322
 1977SOL    HW2 7954   2.115   0.683   1.915 -0.1654  1.2829  0.4259
 1977SOL    HW3 7955   2.252   0.659   1.855 -0.8749 -0.2317 -0.6254
 1977SOL    MW4 7956   2.173   0.695   1.851 -0.6394  0.3381 -0.1972
 1978SOL     OW 7957   4.378   1.370   0.920  0.3707 -0.1038 -0.4747
 1978SOL    HW2 7958   4.379   1.369   1.016 -0.2994 -0.9346 -0.4729
 1978SOL    HW3 7959   4.467   1.343   0.895  0.9123  1.2911 -0.0927
 1978SOL    MW4 7960   4.390   1.366   0.929  0.3538 -0.0294 -0.4241
 1979SOL     OW 7961   2.510   4.631   1.790 -0.7340  0.2893  0.3602
 1979SOL    HW2 7962   2.439   4.649   1.729 -0.2321 -1.3216 -0.7309
 1979SOL    HW3 7963   2.586   4.612   1.735 -0.0943 -0.4782  1.4665
 1979SOL    MW4 7964   2.511   4.631   1.775 -0.5834 -0.0243  0.3623
 1980SOL     OW 7965   4.369   4.371   2.958 -0.1154 -0.1225 -0.1575
 1980SOL    HW2 7966   4.274   4.381   2.967  0.1071  1.0868  1.0199
 1980SOL    HW3 7967   4.400   4.360   3.048  1.0603  1.4087 -0.3552
 1980SOL    MW4 7968   4.360   4.371   2.971  0.0687  0.2389 -0.0279
 1981SOL     OW 7969   3.788   1.548   3.014  0.5629  0.2073  0.0459
 1981SOL    HW2 7970   3.757   1.615   3.075  0.7516  0.1875  0.1630
 1981SOL    HW3 7971   3.878   1.575   2.993  0.1650  0.7462 -0.9766
 1981SOL    MW4 7972   3.796   1.560   3.020  0.5352  0.2757 -0.0737
 1982SOL     OW 7973   0.150   1.318   0.794  0.2357  0.0908  0.1557
 1982SOL    HW2 7974   0.176   1.407   0.770  2.3216 -0.3707  0.5342
 1982SOL    HW3 7975   0.194   1.303   0.878  1.0868 -1.7998 -0.6084
 1982SOL    MW4 7976   0.159   1.328   0.802  0.6232 -0.2196  0.1048
 1983SOL     OW 7977   3.285   1.094   0.904  0.1520 -0.5351  0.2775
 1983SOL    HW2 7978   3.211   1.061   0.852  0.0522  1.7006 -1.0881
 1983SOL    HW3 7979   3.245   1.125   0.985  0.3041 -4.0230  1.7668
 1983SOL    MW4 7980   3.270   1.094   0.908  0.1590 -0.7005  0.2938
 1984SOL     OW 7981   4.238   1.298   3.452 -0.0042  0.2033 -0.2770
 1984SOL    HW2 7982   4.187   1.276   3.531  0.2792 -1.6417 -0.6004
 1984SOL    HW3 7983   4.172   1.319   3.386 -0.3176 -0.8661 -0.3075
 1984SOL    MW4 7984   4.222   1.298   3.454 -0.0081 -0.1811 -0.3235
 1985SOL     OW 7985   1.656   2.392   4.600  0.3182  0.4484 -0.6767
 1985SOL    HW2 7986   1.615   2.314   4.562  0.0579  0.7524 -1.0181
 1985SOL    HW3 7987   1.750   2.379   4.585  0.2763  0.1921 -0.7203
 1985SOL    MW4 7988   1.663   2.380   4.593  0.2782  0.4544 -0.7277
 1986SOL     OW 7989   0.649   4.269   3.877 -0.0146 -0.0633 -0.0339
 1986SOL    HW2 7990   0.674   4.268   3.969 -0.9990  1.4343  0.2613
 1986SOL    HW3 7991   0.571   4.324   3.873 -0.1161 -0.2836 -1.7272
 1986SOL    MW4 7992   0.642   4.276   3.888 -0.1579  0.1054 -0.2184
 1987SOL     OW 7993   1.595   1.920   1.214  0.1061  0.3336 -0.2388
 1987SOL    HW2 7994   1.674   1.866   1.213  0.8874  1.4606 -0.2096
 1987SOL    HW3 7995   1.617   1.993   1.272 -0.1083  1.9163 -2.1065
 1987SOL    MW4 7996   1.608   1.922   1.222  0.1808  0.6912 -0.4814
 1988SOL     OW 7997   3.034   2.739   2.382  0.4953  0.2864  0.3378
 1988SOL    HW2 7998   3.092   2.803   2.340  1.9396 -0.8675  0.5247
 1988SOL    HW3 7999   3.089   2.696   2.447  0.1410 -2.4589 -1.0781
 1988SOL    MW4 8000   3.049   2.742   2.385  0.6390 -0.2282  0.1757
 1989SOL     OW 8001   0.077   1.175   1.291  0.2339 -0.0709 -0.2285
 1989SOL    HW2 8002   0.074   1.206   1.381 -0.8000 -2.5766  0.6470
 1989SOL    HW3 8003   0.132   1.097   1.294 -0.3910 -0.5791 -1.6384
 1989SOL    MW4 8004   0.084   1.169   1.303  0.0150 -0.4685 -0.2990
 1990SOL     OW 8005   2.786   0.072   3.646 -0.0516 -0.0756  0.6908
 1990SOL    HW2 8006   2.749   0.156   3.672  1.3329 -0.0662  2.7070
 1990SOL    HW3 8007   2.860   0.095   3.589  0.7315  0.0873  1.7754
 1990SOL    MW4 8008   2.791   0.086   3.642  0.2346 -0.0529  1.0998
 1991SOL     OW 8009   2.666   3.165   4.099  0.2967 -0.8797 -0.1429
 1991SOL    HW2 8010   2.587   3.179   4.151  0.1450  1.2372 -0.8976
 1991SOL    HW3 8011   2.680   3.070   4.100 -2.5806 -1.3284 -0.4898
 1991SOL    MW4 8012   2.658   3.154   4.106 -0.1030 -0.6597 -0.2880
 1992SOL     OW 8013   0.398   0.171   4.124  0.0736 -0.5039  0.0721
 1992SOL    HW2 8014   0.355   0.174   4.210  2.4534  2.1458  1.2394
 1992SOL    HW3 8015   0.358   0.243   4.075  0.0809 -0.7979 -0.3665
 1992SOL    MW4 8016   0.387   0.181   4.129  0.3885 -0.1931  0.1678
 1993SOL     OW 8017   1.945   2.021   2.084 -0.0859 -0.2360 -0.0944
 1993SOL    HW2 8018   1.971   2.013   2.175 -0.1742  1.2353  0.0769
 1993SOL    HW3 8019   2.009   1.969   2.036  0.5957 -0.1527  0.7112
 1993SOL    MW4 8020   1.956   2.013   2.089 -0.0077 -0.0308  0.0346
 1994SOL     OW 8021   4.341   0.933   1.924  0.4546 -0.0101 -0.1992
 1994SOL    HW2 8022   4.279   0.861   1.911  0.4881 -0.0881  0.0735
 1994SOL    HW3 8023   4.424   0.889   1.943  0.8936  0.0584 -1.8079
 1994SOL    MW4 8024   4.344   0.917   1.925  0.5169 -0.0113 -0.3754
 1995SOL     OW 8025   2.621   4.031   0.411 -0.2680 -0.2162 -0.3461
 1995SOL    HW2 8026   2.601   4.007   0.321 -1.5815 -0.5564  0.0201
 1995SOL    HW3 8027   2.667   3.956   0.447 -0.4852 -0.4203 -0.4923
 1995SOL    MW4 8028   2.624   4.018   0.404 -0.4699 -0.2880 -0.3170
 1996SOL     OW 8029   3.003   1.108   2.183 -0.0379 -0.4510  0.3889
 1996SOL    HW2 8030   2.961   1.071   2.260 -1.5920 -1.0427 -0.7014
 1996SOL    HW3 8031   2.961   1.193   2.171 -0.4207 -0.7269 -0.2804
 1996SOL    MW4 8032   2.992   1.115   2.191 -0.2935 -0.5655  0.1566
 1997SOL     OW 8033   3.474   2.821   1.531 -0.2713  0.3743  0.1535
 1997SOL    HW2 8034   3.429   2.737   1.522 -0.6733  0.5105  0.8342
 1997SOL    HW3 8035   3.404   2.886   1.521  0.0582  0.6294 -0.4922
 1997SOL    MW4 8036   3.458   2.819   1.529 -0.2809  0.4261  0.1582
 1998SOL     OW 8037   2.568   0.007   2.250  0.1315  0.0118 -1.0105
 1998SOL    HW2 8038   2.597   0.086   2.296  1.2616 -0.6225 -0.6116
 1998SOL    HW3 8039   2.645  -0.024   2.204  0.4591 -2.3694  1.0307
 1998SOL    MW4 8040   2.582   0.013   2.250  0.3238 -0.3858 -0.6883
 1999SOL     OW 8041   3.732   1.242   3.838  0.1086 -0.4706  0.2441
 1999SOL    HW2 8042   3.777   1.199   3.911 -1.2172 -1.5445  0.4417
 1999SOL    HW3 8043   3.640   1.225   3.854 -0.4983  2.8352  0.5532
 1999SOL    MW4 8044   3.726   1.234   3.850 -0.1464 -0.1762  0.3109
 2000SOL     OW 8045   3.025   0.777   0.416  0.3301 -0.3398 -0.0921
 2000SOL    HW2 8046   3.029   0.691   0.458 -0.1164  0.3076  1.3021
 2000SOL    HW3 8047   3.106   0.821   0.442 -0.0767  0.1701  0.3361
 2000SOL    MW4 8048   3.036   0.772   0.425  0.2177 -0.1872  0.1484
 2001SOL     OW 8049   0.564   1.267   0.629  0.5496  0.2201 -0.5151
 2001SOL    HW2 8050   0.610   1.254   0.712 -1.2299 -0.6931  0.3664
 2001SOL    HW3 8051   0.611   1.211   0.567 -0.3971 -2.0885  0.7816
 2001SOL    MW4 8052   0.576   1.258   0.632  0.1899 -0.2052 -0.2277
 2002SOL     OW 8053   0.157   3.838   3.709  0.0067 -0.4262 -0.2347
 2002SOL    HW2 8054   0.093   3.906   3.689 -0.3057 -0.3912  0.8781
 2002SOL    HW3 8055   0.241   3.876   3.683 -0.2504  0.1035 -0.2975
 2002SOL    MW4 8056   0.160   3.852   3.703 -0.0684 -0.3514 -0.0963
 2003SOL     OW 8057   2.711   2.577   3.741 -0.2468  0.3275 -0.1806
 2003SOL    HW2 8058   2.620   2.607   3.734 -0.8338 -1.5274 -0.9545
 2003SOL    HW3 8059   2.723   2.556   3.833 -1.2393 -1.2417 -0.3832
 2003SOL    MW4 8060   2.700   2.578   3.752 -0.4549 -0.1242 -0.3097
 2004SOL     OW 8061   4.303   3.651   2.942  0.2720  0.0412 -0.4000
 2004SOL    HW2 8062   4.330   3.616   2.857  0.7847  0.4063 -0.3861
 2004SOL    HW3 8063   4.357   3.730   2.954  0.1378  0.0374  0.2237
 2004SOL    MW4 8064   4.313   3.657   2.932  0.3214  0.0887 -0.3161
 2005SOL     OW 8065   2.043   2.294   2.038  0.3774 -0.3817 -0.0406
 2005SOL    HW2 8066   2.032   2.351   2.114 -2.0631 -0.1342 -0.5335
 2005SOL    HW3 8067   1.999   2.213   2.063 -0.0947 -0.4351 -1.0280
 2005SOL    MW4 8068   2.035   2.291   2.051 -0.0069 -0.3560 -0.2363
 2006SOL     OW 8069   1.487   2.939   2.743 -0.2470  0.2321  0.1332
 2006SOL    HW2 8070   1.395   2.946   2.769 -0.1933 -1.7903  0.9738
 2006SOL    HW3 8071   1.531   2.902   2.819  0.8270 -1.0475 -1.0749
 2006SOL    MW4 8072   1.480   2.935   2.756 -0.0982 -0.2036  0.0846
 2007SOL     OW 8073   2.780   3.500   2.833  0.1581  0.4905 -0.0789
 2007SOL    HW2 8074   2.726   3.507   2.911  1.2069  1.7665  0.5420
 2007SOL    HW3 8075   2.810   3.409   2.832  0.9235  0.7114  1.5398
 2007SOL    MW4 8076   2.777   3.489   2.843  0.3977  0.6881  0.2162
 2008SOL     OW 8077   1.426   3.067   1.970  0.1516 -0.2004 -0.1139
 2008SOL    HW2 8078   1.464   3.060   2.057  0.5862  1.8347 -0.1151
 2008SOL    HW3 8079   1.491   3.027   1.912  2.1799  2.9401 -0.0763
 2008SOL    MW4 8080   1.439   3.061   1.974  0.4765  0.4826 -0.1091
 2009SOL     OW 8081   2.395   1.848   1.852 -0.3106 -0.5082 -0.6134
 2009SOL    HW2 8082   2.454   1.798   1.908 -0.6501 -1.3341 -0.9791
 2009SOL    HW3 8083   2.335   1.892   1.912  0.8095  0.5187 -0.2292
 2009SOL    MW4 8084   2.395   1.847   1.867 -0.2077 -0.4817 -0.6112
 2010SOL     OW 8085   2.933   2.876   1.499 -0.2496  0.0277  0.4518
 2010SOL    HW2 8086   2.914   2.969   1.489  3.1702  0.9037  1.5402
 2010SOL    HW3 8087   2.950   2.865   1.593  0.7491 -1.3867  0.1236
 2010SOL    MW4 8088   2.933   2.887   1.510  0.3338 -0.0436  0.5521
 2011SOL     OW 8089   0.385   1.340   1.582  0.2310 -0.1534 -0.6149
 2011SOL    HW2 8090   0.297   1.316   1.612  0.4880 -1.2276 -0.6957
 2011SOL    HW3 8091   0.427   1.256   1.563  1.2679  0.3586 -0.5960
 2011SOL    MW4 8092   0.379   1.325   1.584  0.4017 -0.2275 -0.6231
 2012SOL     OW 8093   1.401   1.373   3.895  0.1932  0.0857  0.6110
 2012SOL    HW2 8094   1.434   1.289   3.928 -0.2192 -0.7655 -1.1288
 2012SOL    HW3 8095   1.464   1.437   3.928  1.7163 -1.1432  0.1766
 2012SOL    MW4 8096   1.414   1.370   3.904  0.3397 -0.1887  0.3240
 2013SOL     OW 8097   3.915   4.156   2.234  0.2605 -0.4048 -0.1095
 2013SOL    HW2 8098   3.999   4.194   2.260  0.1405 -1.2929  1.6525
 2013SOL    HW3 8099   3.873   4.132   2.316 -1.3504 -0.7720 -1.0186
 2013SOL    MW4 8100   3.921   4.157   2.248  0.0322 -0.5703  0.0029
 2014SOL     OW 8101   0.546   2.822   3.936 -0.1472  0.1289  0.0711
 2014SOL    HW2 8102   0.599   2.743   3.934 -0.5441 -0.1394 -0.0318
 2014SOL    HW3 8103   0.569   2.865   4.019  0.8969  0.4869 -0.4067
 2014SOL    MW4 8104   0.556   2.817   3.947 -0.0618  0.1407 -0.0057
 2015SOL     OW 8105   2.609   0.431   0.882 -0.3438 -0.4273 -0.0468
 2015SOL    HW2 8106   2.533   0.485   0.862  0.0778  0.3905  0.5469
 2015SOL    HW3 8107   2.571   0.347   0.908 -1.0777  0.1448  0.7798
 2015SOL    MW4 8108   2.594   0.427   0.883 -0.3850 -0.2439  0.1406
 2016SOL     OW 8109   1.006   4.431   1.426  0.3355  0.0076  0.6429
 2016SOL    HW2 8110   0.965   4.506   1.468 -0.0245  0.0808  0.1552
 2016SOL    HW3 8111   1.028   4.372   1.499  0.9615  0.7461  1.0535
 2016SOL    MW4 8112   1.004   4.433   1.441  0.3706  0.1144  0.6329
 2017SOL     OW 8113   0.838   4.464   0.660 -0.1214  0.2377 -0.3349
 2017SOL    HW2 8114   0.916   4.515   0.637 -0.7284  0.5028 -1.8495
 2017SOL    HW3 8115   0.800   4.511   0.734  0.6648  0.6162 -0.1644
 2017SOL    MW4 8116   0.843   4.477   0.667 -0.0978  0.3223 -0.5123
 2018SOL     OW 8117   0.491   3.732   1.156  0.1573 -0.1882  0.1675
 2018SOL    HW2 8118   0.446   3.708   1.075  0.5942  0.6134 -0.3198
 2018SOL    HW3 8119   0.454   3.817   1.180  0.7980  0.0901  0.2041
 2018SOL    MW4 8120   0.480   3.740   1.148  0.2995 -0.0458  0.1080
 2019SOL     OW 8121   2.845   1.646   2.093  0.2797 -0.1664 -0.0291
 2019SOL    HW2 8122   2.867   1.558   2.123  3.0189 -0.1695 -1.8153
 2019SOL    HW3 8123   2.840   1.698   2.173 -0.1553 -1.7005  0.9601
 2019SOL    MW4 8124   2.847   1.641   2.107  0.5836 -0.3692 -0.1342
 2020SOL     OW 8125   0.385   3.029   1.439  0.1305  0.1575  0.2817
 2020SOL    HW2 8126   0.394   2.937   1.464 -0.5525  0.3234  1.1439
 2020SOL    HW3 8127   0.338   3.070   1.511 -0.6723  0.9267 -0.6518
 2020SOL    MW4 8128   0.380   3.023   1.451 -0.0655  0.2809  0.2724
 2021SOL     OW 8129   4.473   1.009   2.650 -0.4459 -0.2984 -0.1285
 2021SOL    HW2 8130   4.493   1.064   2.574  2.0971 -1.0930 -0.0513
 2021SOL    HW3 8131   4.419   0.938   2.615 -0.5841  0.1785 -0.8917
 2021SOL    MW4 8132   4.468   1.007   2.636 -0.1287 -0.3402 -0.2191
 2022SOL     OW 8133   3.048   1.657   3.679 -0.1682 -0.5429  0.8248
 2022SOL    HW2 8134   3.142   1.649   3.693 -0.1125 -0.5244  0.4618
 2022SOL    HW3 8135   3.010   1.639   3.765  0.0957 -1.9878  0.6551
 2022SOL    MW4 8136   3.055   1.654   3.692 -0.1261 -0.7311  0.7546
 2023SOL     OW 8137   4.243   4.410   0.785 -0.0186 -0.0886 -0.5304
 2023SOL    HW2 8138   4.299   4.370   0.851 -0.5583  0.5594  0.3261
 2023SOL    HW3 8139   4.231   4.341   0.719  1.1619 -0.4690 -0.3515
 2023SOL    MW4 8140   4.249   4.396   0.785  0.0653 -0.0529 -0.3938
 2024SOL     OW 8141   3.706   0.530   1.245  0.2403 -0.6310  0.1041
 2024SOL    HW2 8142   3.633   0.553   1.188  0.4525 -0.9901 -0.3147
 2024SOL    HW3 8143   3.784   0.546   1.192  0.4322 -1.0709  0.2547
 2024SOL    MW4 8144   3.707   0.535   1.231  0.2937 -0.7364  0.0688
 2025SOL     OW 8145   3.332   4.562   1.186 -0.6082  0.0171 -0.0346
 2025SOL    HW2 8146   3.290   4.648   1.195 -0.4365  0.1804 -0.7821
 2025SOL    HW3 8147   3.425   4.583   1.174 -0.3634 -0.3240  1.2171
 2025SOL    MW4 8148   3.339   4.576   1.186 -0.5531 -0.0067  0.0319
 2026SOL     OW 8149   2.830   2.396   4.370  0.5073 -0.5227 -0.2428
 2026SOL    HW2 8150   2.824   2.303   4.391  3.0269 -1.0065 -1.5346
 2026SOL    HW3 8151   2.913   2.405   4.324  0.4085  2.4199  0.0728
 2026SOL    MW4 8152   2.840   2.385   4.367  0.8268 -0.1986 -0.3715
 2027SOL     OW 8153   0.928   2.388   0.607 -0.7694 -0.2471  0.0863
 2027SOL    HW2 8154   0.997   2.323   0.594 -1.1545 -0.3580 -1.5296
 2027SOL    HW3 8155   0.969   2.472   0.582 -1.1411 -0.2831 -0.6598
 2027SOL    MW4 8156   0.943   2.391   0.602 -0.8693 -0.2666 -0.2253
 2028SOL     OW 8157   2.008   1.853   3.935  0.4448  0.2779  0.1227
 2028SOL    HW2 8158   2.019   1.948   3.936  2.1252  0.0931  0.3157
 2028SOL    HW3 8159   2.083   1.819   3.983  1.0958 -1.2556 -1.8892
 2028SOL    MW4 8160   2.019   1.861   3.941  0.7522  0.0513 -0.1171
 2029SOL     OW 8161   2.588   1.497   2.305  0.2849 -0.1248  0.2024
 2029SOL    HW2 8162   2.572   1.583   2.342  0.7546 -0.8102  2.0572
 2029SOL    HW3 8163   2.529   1.491   2.230  0.3114  1.8245  0.0189
 2029SOL    MW4 8164   2.578   1.507   2.300  0.3502  0.0420  0.4232
 2030SOL     OW 8165   1.163   3.349   2.033  0.0132  0.1608  0.3862
 2030SOL    HW2 8166   1.100   3.370   1.964  1.3379  0.1358 -0.8521
 2030SOL    HW3 8167   1.178   3.255   2.024  1.2214  0.3932 -0.2071
 2030SOL    MW4 8168   1.157   3.340   2.023  0.3474  0.1881  0.1445
 2031SOL     OW 8169   0.384   0.276   1.338 -0.7587 -0.2367 -0.5932
 2031SOL    HW2 8170   0.375   0.195   1.389 -1.3820 -0.8787 -1.7051
 2031SOL    HW3 8171   0.428   0.249   1.258 -1.1692  0.4892 -1.0637
 2031SOL    MW4 8172   0.388   0.262   1.334 -0.8951 -0.2256 -0.8020
 2032SOL     OW 8173   0.813   3.652   0.875 -0.0694 -0.2476  0.2813
 2032SOL    HW2 8174   0.879   3.606   0.927  0.2671 -0.4719 -0.3406
 2032SOL    HW3 8175   0.858   3.674   0.793 -0.3093  0.9392  0.4509
 2032SOL    MW4 8176   0.828   3.649   0.872 -0.0567 -0.1206  0.2217
 2033SOL     OW 8177   3.626   0.292   0.637 -0.0850 -0.4172  0.1458
 2033SOL    HW2 8178   3.592   0.239   0.709 -2.2858  1.4422  0.5291
 2033SOL    HW3 8179   3.718   0.306   0.658 -0.5248 -0.5225  2.2214
 2033SOL    MW4 8180   3.634   0.287   0.649 -0.4334 -0.1857  0.4702
 2034SOL     OW 8181   3.152   2.153   1.198  0.2377 -0.0569 -0.0988
 2034SOL    HW2 8182   3.162   2.063   1.230  0.2856  0.1227  0.3856
 2034SOL    HW3 8183   3.086   2.192   1.254  2.2107  1.0721  1.5256
 2034SOL    MW4 8184   3.145   2.146   1.210  0.5045  0.1159  0.1793
 2035SOL     OW 8185   0.638   0.672   0.881  0.0300 -0.2225 -0.0808
 2035SOL    HW2 8186   0.681   0.629   0.955 -1.4357 -1.9502 -0.1896
 2035SOL    HW3 8187   0.644   0.765   0.901  1.6936 -0.5490  1.0674
 2035SOL    MW4 8188   0.644   0.679   0.894  0.0561 -0.4935  0.0563
 2036SOL     OW 8189   0.416   2.536   3.717 -0.7693  0.2531  0.6544
 2036SOL    HW2 8190   0.405   2.475   3.643 -0.2360 -1.0318  1.6210
 2036SOL    HW3 8191   0.428   2.479   3.793  0.9524  1.5661  1.3952
 2036SOL    MW4 8192   0.416   2.520   3.717 -0.4718  0.2565  0.8798
 2037SOL     OW 8193   1.998   1.099   1.311 -0.1666  0.1795 -0.0133
 2037SOL    HW2 8194   1.929   1.150   1.270 -0.4779 -0.0629  0.2027
 2037SOL    HW3 8195   2.078   1.151   1.299 -0.2698  0.1448 -0.8472
 2037SOL    MW4 8196   2.000   1.112   1.304 -0.2213  0.1429 -0.0948
 2038SOL     OW 8197   4.336   3.720   4.176  0.0115 -0.5850  0.8677
 2038SOL    HW2 8198   4.378   3.640   4.146 -0.0748 -0.6858  1.0109
 2038SOL    HW3 8199   4.370   3.789   4.119 -1.1006 -0.9640 -0.2883
 2038SOL    MW4 8200   4.346   3.719   4.165 -0.1464 -0.6483  0.7343
 2039SOL     OW 8201   3.701   0.616   3.719 -0.1446  0.3631 -0.1313
 2039SOL    HW2 8202   3.708   0.603   3.625 -0.0647  2.8699 -0.5034
 2039SOL    HW3 8203   3.639   0.549   3.748  0.2629 -0.7967 -1.8516
 2039SOL    MW4 8204   3.694   0.605   3.710 -0.0803  0.5409 -0.4072
 2040SOL     OW 8205   4.405   0.236   2.803 -0.1289 -0.8397  0.4921
 2040SOL    HW2 8206   4.366   0.165   2.855 -2.8406  0.6545  0.5996
 2040SOL    HW3 8207   4.377   0.217   2.713  2.4512 -2.0292 -0.1144
 2040SOL    MW4 8208   4.396   0.224   2.798 -0.1459 -0.7995  0.4265
 2041SOL     OW 8209   1.458   2.789   1.304  0.2650 -0.0689  0.7706
 2041SOL    HW2 8210   1.531   2.731   1.280  0.1973 -0.4472  1.4650
 2041SOL    HW3 8211   1.500   2.866   1.343  0.3262  0.0478  0.4728
 2041SOL    MW4 8212   1.473   2.791   1.306  0.2642 -0.1032  0.8229
 2042SOL     OW 8213   0.192   2.064   3.317 -0.9314 -0.2798 -0.2758
 2042SOL    HW2 8214   0.275   2.077   3.270  0.9681  0.6828  3.1715
 2042SOL    HW3 8215   0.136   2.136   3.287  0.5027  0.7535 -0.5578
 2042SOL    MW4 8216   0.196   2.075   3.307 -0.4915 -0.0167  0.1419
 2043SOL     OW 8217   2.488   3.822   4.033  0.7875 -0.0535  0.4963
 2043SOL    HW2 8218   2.482   3.915   4.011 -1.8571  0.2773  2.3722
 2043SOL    HW3 8219   2.530   3.782   3.957 -1.4744  2.0932 -1.9795
 2043SOL    MW4 8220   2.493   3.829   4.020  0.1402  0.2735  0.4172
 2044SOL     OW 8221   3.942   1.277   2.692  0.0229  0.0421  0.1051
 2044SOL    HW2 8222   3.996   1.287   2.614  1.2042  0.9763  1.0128
 2044SOL    HW3 8223   3.909   1.365   2.710  1.3842  0.2459  1.7706
 2044SOL    MW4 8224   3.945   1.290   2.684  0.3586  0.1923  0.4442
 2045SOL     OW 8225   3.973   2.113   0.691  0.0846 -0.4297  0.7357
 2045SOL    HW2 8226   4.020   2.195   0.706  0.3858 -0.3513 -0.6103
 2045SOL    HW3 8227   4.039   2.045   0.703  0.2418 -0.3854  0.1230
 2045SOL    MW4 8228   3.988   2.115   0.695  0.1450 -0.4137  0.4773
 2046SOL     OW 8229   2.531   1.272   2.016 -0.2188  0.0405 -0.1378
 2046SOL    HW2 8230   2.459   1.241   1.961 -0.4461 -1.3271  0.9080
 2046SOL    HW3 8231   2.528   1.216   2.093  2.3373 -0.4227 -0.3294
 2046SOL    MW4 8232   2.521   1.261   2.019  0.0885 -0.2011 -0.0250
 2047SOL     OW 8233   0.090   1.261   1.570 -0.5943 -0.1217  0.0587
 2047SOL    HW2 8234   0.052   1.195   1.628 -3.8569  1.5816 -0.0260
 2047SOL    HW3 8235   0.041   1.341   1.590  0.7228  1.3640 -2.4861
 2047SOL    MW4 8236   0.079   1.263   1.580 -0.8510  0.2990 -0.2884
 2048SOL     OW 8237   2.214   3.509   1.749  0.5569  0.0469  0.2794
 2048SOL    HW2 8238   2.166   3.513   1.831  0.3690 -0.6997  0.2098
 2048SOL    HW3 8239   2.249   3.419   1.746  0.1611 -0.0826 -0.6776
 2048SOL    MW4 8240   2.212   3.497   1.760  0.4799 -0.0687  0.1439
 2049SOL     OW 8241   0.531   4.289   2.080  0.3796  0.5557 -0.4133
 2049SOL    HW2 8242   0.448   4.283   2.127  0.0198 -1.1779 -1.2504
 2049SOL    HW3 8243   0.591   4.233   2.129  1.1124  1.8618  0.2330
 2049SOL    MW4 8244   0.528   4.281   2.093  0.4289  0.4997 -0.4385
 2050SOL     OW 8245   4.041   0.440   2.990 -0.3618 -0.1363  0.1555
 2050SOL    HW2 8246   4.118   0.471   2.942 -0.3501  1.0910  0.9446
 2050SOL    HW3 8247   4.071   0.362   3.036  0.6918  0.9192  1.2630
 2050SOL    MW4 8248   4.055   0.434   2.990 -0.2213  0.1649  0.4058
 2051SOL     OW 8249   1.834   1.321   1.263  0.4897 -0.5142  0.1993
 2051SOL    HW2 8250   1.895   1.330   1.190 -0.2357 -1.1218 -0.4884
 2051SOL    HW3 8251   1.862   1.387   1.326  0.3106  0.9113 -1.1985
 2051SOL    MW4 8252   1.846   1.331   1.261  0.3704 -0.4064 -0.0758
 2052SOL     OW 8253   2.324   2.628   4.614  0.1574 -0.4931  0.3024
 2052SOL    HW2 8254   2.369   2.554   4.656 -1.5847 -0.8468  1.6011
 2052SOL    HW3 8255   2.250   2.589   4.569 -0.2437  0.3580  0.2159
 2052SOL    MW4 8256   2.320   2.613   4.614 -0.1252 -0.4275  0.4621
 2053SOL     OW 8257   3.153   2.926   3.954  0.0019 -0.3948  0.2034
 2053SOL    HW2 8258   3.071   2.921   3.905 -0.2163 -0.9549  0.6311
 2053SOL    HW3 8259   3.160   2.842   3.999  1.1115 -0.5853 -0.3051
 2053SOL    MW4 8260   3.143   2.914   3.954  0.1197 -0.4938  0.1929
 2054SOL     OW 8261   4.049   1.368   3.271  0.7944  0.3999  0.0464
 2054SOL    HW2 8262   4.016   1.279   3.258 -0.4346  0.6437  1.3063
 2054SOL    HW3 8263   4.018   1.417   3.195 -0.0458  0.1519  0.2247
 2054SOL    MW4 8264   4.041   1.363   3.260  0.5212  0.3994  0.2363
 2055SOL     OW 8265   2.892   4.571   0.956 -0.6589 -0.8000 -0.6468
 2055SOL    HW2 8266   2.909   4.662   0.980 -0.3398 -0.7889 -0.9071
 2055SOL    HW3 8267   2.873   4.575   0.862  0.2203 -1.1084 -0.8440
 2055SOL    MW4 8268   2.892   4.584   0.947 -0.5009 -0.8392 -0.7071
 2056SOL     OW 8269   3.468   0.877   1.403 -0.8430 -0.1428  0.0546
 2056SOL    HW2 8270   3.457   0.907   1.494  0.9905  0.8876 -0.0397
 2056SOL    HW3 8271   3.560   0.852   1.397 -1.3974 -1.9612 -1.0323
 2056SOL    MW4 8272   3.479   0.878   1.414 -0.6742 -0.2468 -0.1012
 2057SOL     OW 8273   4.313   0.696   3.514 -0.2129  0.2406  0.1156
 2057SOL    HW2 8274   4.285   0.618   3.563 -1.7148  2.0748  2.3145
 2057SOL    HW3 8275   4.233   0.748   3.506  1.6488  3.7329  2.8834
 2057SOL    MW4 8276   4.299   0.692   3.520 -0.1655  0.9434  0.7708
 2058SOL     OW 8277   3.907   0.178   2.208 -0.0894 -0.2713  0.2231
 2058SOL    HW2 8278   3.936   0.226   2.130 -1.3683 -0.9190 -0.6656
 2058SOL    HW3 8279   3.968   0.205   2.277  2.5289 -1.4274 -1.5610
 2058SOL    MW4 8280   3.919   0.188   2.207  0.0875 -0.5093 -0.1295
 2059SOL     OW 8281   1.245   0.171   2.846 -0.2494 -0.1784  0.4030
 2059SOL    HW2 8282   1.303   0.246   2.859 -0.2206 -0.0712 -0.2931
 2059SOL    HW3 8283   1.162   0.196   2.887 -0.3871  0.4273 -0.2363
 2059SOL    MW4 8284   1.242   0.184   2.853 -0.2638 -0.0843  0.2267
 2060SOL     OW 8285   0.625   0.006   2.309  0.5317 -0.0043 -0.1597
 2060SOL    HW2 8286   0.623  -0.033   2.396 -0.1037  1.3277  0.4355
 2060SOL    HW3 8287   0.652  -0.066   2.252 -2.6088 -1.9086  0.5846
 2060SOL    MW4 8288   0.628  -0.009   2.313  0.0335 -0.0801  0.0172
 2061SOL     OW 8289   0.949   2.539   4.669  0.3753  0.5140 -0.3425
 2061SOL    HW2 8290   0.876   2.594   4.639 -0.0176  0.5164  0.6168
 2061SOL    HW3 8291   1.001   2.596   4.724 -0.5646 -0.3219  1.4577
 2061SOL    MW4 8292   0.946   2.553   4.672  0.1994  0.4039  0.0215
 2062SOL     OW 8293   0.829   3.664   4.101  0.0530 -0.2658  0.5025
 2062SOL    HW2 8294   0.900   3.648   4.164  0.3679  0.0502  0.2315
 2062SOL    HW3 8295   0.765   3.716   4.149 -0.3347 -1.1732  0.9702
 2062SOL    MW4 8296   0.830   3.669   4.116  0.0435 -0.3438  0.5283
 2063SOL     OW 8297   3.181   0.172   3.283  0.6554 -0.3766 -0.4954
 2063SOL    HW2 8298   3.107   0.144   3.336  1.2601 -0.6828  0.1841
 2063SOL    HW3 8299   3.184   0.267   3.295 -1.0133 -0.0370 -2.3197
 2063SOL    MW4 8300   3.171   0.181   3.292  0.5145 -0.3722 -0.6466
 2064SOL     OW 8301   0.376   1.102   2.512 -0.5885  0.0545  0.3285
 2064SOL    HW2 8302   0.370   1.132   2.602 -3.6657 -0.2853  0.2826
 2064SOL    HW3 8303   0.427   1.021   2.517 -0.0435  0.4724  1.6450
 2064SOL    MW4 8304   0.382   1.095   2.525 -0.9226  0.0648  0.4957
 2065SOL     OW 8305   3.713   0.438   1.999 -0.4724 -0.1443  0.0376
 2065SOL    HW2 8306   3.715   0.502   1.928  0.1490 -0.9181 -0.6495
 2065SOL    HW3 8307   3.785   0.378   1.980 -0.3940 -0.4440  1.2422
 2065SOL    MW4 8308   3.722   0.438   1.987 -0.3798 -0.2859  0.1060
 2066SOL     OW 8309   4.074   3.734   4.292 -0.4661  0.4555  0.1795
 2066SOL    HW2 8310   4.060   3.641   4.309 -1.5118  0.3749 -1.0573
 2066SOL    HW3 8311   4.154   3.737   4.239 -0.5786  0.2413 -0.0029
 2066SOL    MW4 8312   4.083   3.722   4.287 -0.6189  0.4168 -0.0076
 2067SOL     OW 8313   1.424   1.280   3.631  0.4965  0.0162 -0.2648
 2067SOL    HW2 8314   1.407   1.323   3.715 -0.6333  0.0732 -0.5164
 2067SOL    HW3 8315   1.492   1.334   3.590  0.7479  0.2310  0.4252
 2067SOL    MW4 8316   1.431   1.293   3.637  0.3805  0.0520 -0.2067
 2068SOL     OW 8317   0.069   1.083   0.668  0.2786  0.2079 -0.1964
 2068SOL    HW2 8318   0.011   1.115   0.599  1.4796  2.3814 -0.2447
 2068SOL    HW3 8319   0.115   1.161   0.698  2.3674 -1.2935  0.5995
 2068SOL    MW4 8320   0.068   1.097   0.663  0.7127  0.2966 -0.0978
 2069SOL     OW 8321   3.990   3.297   2.940  0.1964 -0.0487 -0.6699
 2069SOL    HW2 8322   3.962   3.377   2.895  1.7742  0.4914 -0.7123
 2069SOL    HW3 8323   4.003   3.233   2.870 -0.6902 -0.2467 -0.6670
 2069SOL    MW4 8324   3.988   3.299   2.925  0.2878 -0.0036 -0.6752
 2070SOL     OW 8325   3.670   3.410   1.970 -0.0701  0.1429 -0.1587
 2070SOL    HW2 8326   3.684   3.462   2.049  0.1952  0.6747 -0.5545
 2070SOL    HW3 8327   3.701   3.323   1.992 -1.6375 -0.1735  0.9218
 2070SOL    MW4 8328   3.676   3.406   1.983 -0.2418  0.1709 -0.0684
 2071SOL     OW 8329   1.935   3.175   4.144  0.1267  0.4160 -0.0264
 2071SOL    HW2 8330   1.891   3.145   4.065  1.7509 -0.8113 -0.4890
 2071SOL    HW3 8331   1.961   3.265   4.125 -1.5515  0.9226  0.0028
 2071SOL    MW4 8332   1.932   3.183   4.131  0.1197  0.3209 -0.0830
 2072SOL     OW 8333   1.603   1.425   3.454  0.1700 -0.3376  0.1465
 2072SOL    HW2 8334   1.669   1.482   3.492 -1.9637  0.5033  2.8028
 2072SOL    HW3 8335   1.522   1.477   3.455 -1.0018 -2.0547 -0.9903
 2072SOL    MW4 8336   1.601   1.439   3.459 -0.2660 -0.4532  0.3469
 2073SOL     OW 8337   1.036   1.224   4.586 -0.1566  0.7382  0.0887
 2073SOL    HW2 8338   0.949   1.242   4.550 -1.0077  0.4797  1.9803
 2073SOL    HW3 8339   1.075   1.310   4.600  0.1655  0.8441 -1.3777
 2073SOL    MW4 8340   1.029   1.237   4.583 -0.2264  0.7180  0.1450
 2074SOL     OW 8341   3.696   3.503   2.232 -0.3176  0.2279 -0.0878
 2074SOL    HW2 8342   3.735   3.578   2.275  0.6498  0.5051 -1.4128
 2074SOL    HW3 8343   3.727   3.427   2.281 -0.3344  0.6250  0.5286
 2074SOL    MW4 8344   3.705   3.503   2.244 -0.1919  0.3169 -0.1814
 2075SOL     OW 8345   0.918   1.044   1.077  0.2001  0.4879  0.0626
 2075SOL    HW2 8346   0.918   1.124   1.130  0.6546  0.3709  0.2433
 2075SOL    HW3 8347   0.993   1.054   1.019  0.8204 -0.2279  0.7330
 2075SOL    MW4 8348   0.928   1.056   1.077  0.3418  0.3780  0.1749
 2076SOL     OW 8349   0.489   0.024   0.337 -0.1113 -1.3002  0.1001
 2076SOL    HW2 8350   0.556   0.019   0.406 -0.2375  0.9467  0.4161
 2076SOL    HW3 8351   0.539   0.033   0.256 -0.0121 -1.4102  0.1477
 2076SOL    MW4 8352   0.505   0.024   0.336 -0.1149 -1.0183  0.1480
 2077SOL     OW 8353   1.905   4.210   1.887  0.1023 -0.2473  0.4423
 2077SOL    HW2 8354   1.939   4.269   1.955 -1.1662 -0.9429  1.6802
 2077SOL    HW3 8355   1.865   4.269   1.823 -0.8517  0.2805  1.5026
 2077SOL    MW4 8356   1.904   4.226   1.887 -0.1910 -0.2694  0.7455
 2078SOL     OW 8357   0.703   1.825   3.572 -0.2838  0.1204 -0.5934
 2078SOL    HW2 8358   0.773   1.865   3.520  1.2061 -1.1174  0.3957
 2078SOL    HW3 8359   0.670   1.896   3.626 -0.9592  1.1147 -2.2777
 2078SOL    MW4 8360   0.708   1.840   3.572 -0.1764  0.0881 -0.6850
 2079SOL     OW 8361   3.556   4.334   3.594 -0.3838 -0.1674  0.2408
 2079SOL    HW2 8362   3.568   4.426   3.573 -0.6424  0.5610  3.1088
 2079SOL    HW3 8363   3.464   4.326   3.619 -0.2282 -1.0871  0.5453
 2079SOL    MW4 8364   3.546   4.345   3.595 -0.3974 -0.1922  0.6595
 2080SOL     OW 8365   0.659   1.030   3.204 -0.0941 -0.0117 -0.1357
 2080SOL    HW2 8366   0.700   0.970   3.142 -0.4570  0.4837 -0.8660
 2080SOL    HW3 8367   0.655   1.113   3.158  0.7436  0.6817  1.0083
 2080SOL    MW4 8368   0.664   1.033   3.190 -0.0315  0.1451 -0.0811
 2081SOL     OW 8369   3.332   0.177   1.860 -0.0631  0.0893 -0.5367
 2081SOL    HW2 8370   3.416   0.132   1.875 -0.1857  0.1696  0.4623
 2081SOL    HW3 8371   3.269   0.106   1.847 -0.4735 -0.1020  2.2005
 2081SOL    MW4 8372   3.335   0.162   1.861 -0.1335  0.0747 -0.0436
 2082SOL     OW 8373   3.849   2.939   1.982  0.6183 -0.1734 -0.6075
 2082SOL    HW2 8374   3.926   2.884   1.964  0.2976 -0.9798  0.3997
 2082SOL    HW3 8375   3.781   2.904   1.925  0.3305 -1.0478  0.2434
 2082SOL    MW4 8376   3.850   2.927   1.972  0.5383 -0.3951 -0.3623
 2083SOL     OW 8377   3.487   3.263   0.783 -0.2220  0.2888 -0.1200
 2083SOL    HW2 8378   3.514   3.354   0.773 -0.0674  0.0902 -1.7022
 2083SOL    HW3 8379   3.429   3.247   0.708 -0.3584 -0.8747  0.2221
 2083SOL    MW4 8380   3.483   3.273   0.772 -0.2196  0.1090 -0.2835
 2084SOL     OW 8381   2.764   1.953   1.645  0.2895  0.3609 -0.0553
 2084SOL    HW2 8382   2.749   2.011   1.570 -0.2547 -0.6472 -0.7331
 2084SOL    HW3 8383   2.826   2.001   1.700  2.3659  0.1818 -2.1968
 2084SOL    MW4 8384   2.770   1.967   1.643  0.4916  0.2042 -0.4271
 2085SOL     OW 8385   2.595   2.998   1.145  0.0362 -0.7973  0.0294
 2085SOL    HW2 8386   2.657   3.028   1.079 -2.3168  0.9309 -1.4482
 2085SOL    HW3 8387   2.562   2.915   1.111 -1.2253  0.1247 -1.0357
 2085SOL    MW4 8388   2.599   2.991   1.132 -0.4406 -0.4478 -0.3060
 2086SOL     OW 8389   2.228   1.008   0.781  0.6508 -0.0279 -0.2015
 2086SOL    HW2 8390   2.184   1.023   0.865 -0.0207  0.4720 -0.6352
 2086SOL    HW3 8391   2.318   0.986   0.804 -0.2036 -2.7601  0.8261
 2086SOL    MW4 8392   2.234   1.007   0.795  0.4494 -0.3225 -0.1231
 2087SOL     OW 8393   3.751   1.928   3.959  0.1955 -0.4944 -0.3677
 2087SOL    HW2 8394   3.694   1.909   4.034 -0.1194  2.3216  0.1358
 2087SOL    HW3 8395   3.690   1.947   3.887  0.5117 -1.7191 -0.9805
 2087SOL    MW4 8396   3.735   1.928   3.959  0.1955 -0.2844 -0.3824
 2088SOL     OW 8397   2.108   1.132   4.161 -0.0090  0.1634  1.0491
 2088SOL    HW2 8398   2.035   1.074   4.142  0.4026  0.2837 -1.1013
 2088SOL    HW3 8399   2.171   1.078   4.209  0.0099 -0.9361 -0.1907
 2088SOL    MW4 8400   2.106   1.118   4.165  0.0479  0.0342  0.6018
 2089SOL     OW 8401   2.923   2.270   1.307  0.0000 -0.1449  0.2313
 2089SOL    HW2 8402   2.849   2.210   1.308 -0.3351  0.2828  1.0303
 2089SOL    HW3 8403   2.886   2.354   1.281  0.7829 -0.6785 -2.7642
 2089SOL    MW4 8404   2.908   2.273   1.304  0.0594 -0.1590 -0.0585
 2090SOL     OW 8405   0.705   1.740   1.208  0.2775 -0.0488  0.4445
 2090SOL    HW2 8406   0.797   1.738   1.235  0.2478 -1.2642  0.4628
 2090SOL    HW3 8407   0.663   1.673   1.260 -0.4958  0.0573 -0.0380
 2090SOL    MW4 8408   0.712   1.731   1.218  0.1715 -0.1951  0.3833
 2091SOL     OW 8409   3.103   3.165   1.040  0.4979  0.5327  0.0074
 2091SOL    HW2 8410   3.039   3.233   1.020 -1.5878 -0.6766  2.2482
 2091SOL    HW3 8411   3.146   3.196   1.120  0.9965  0.1539 -0.1085
 2091SOL    MW4 8412   3.100   3.178   1.048  0.2885  0.3233  0.2878
 2092SOL     OW 8413   2.337   0.683   2.438  0.1679 -0.7120  0.3775
 2092SOL    HW2 8414   2.340   0.763   2.385 -0.6505  0.5533  2.1586
 2092SOL    HW3 8415   2.427   0.670   2.467  0.0500  0.4147  1.2730
 2092SOL    MW4 8416   2.349   0.692   2.435  0.0446 -0.3964  0.7308
 2093SOL     OW 8417   0.013   4.502   2.292 -0.2579  0.0946 -0.0933
 2093SOL    HW2 8418  -0.071   4.509   2.336 -0.2770 -1.6019  0.1888
 2093SOL    HW3 8419   0.032   4.408   2.292  0.6033  0.2439 -2.0748
 2093SOL    MW4 8420   0.005   4.490   2.298 -0.1469 -0.1097 -0.3173
 2094SOL     OW 8421   4.321   0.037   3.002  0.0459 -0.4117  0.2989
 2094SOL    HW2 8422   4.252  -0.029   2.989 -0.2353 -0.2196  0.8036
 2094SOL    HW3 8423   4.274   0.114   3.034  0.5381 -0.3759  0.9277
 2094SOL    MW4 8424   4.306   0.039   3.005  0.0734 -0.3816  0.4485
 2095SOL     OW 8425   0.287   0.705   4.066  0.0179  0.1196 -0.0585
 2095SOL    HW2 8426   0.356   0.770   4.051 -0.3553  0.5570  0.0948
 2095SOL    HW3 8427   0.289   0.690   4.161 -1.3007  1.5056  0.2192
 2095SOL    MW4 8428   0.297   0.712   4.077 -0.2053  0.3601 -0.0019
 2096SOL     OW 8429   3.115   2.788   3.574 -0.0960 -0.0628  0.3975
 2096SOL    HW2 8430   3.177   2.716   3.582  0.1943  0.2651  1.2259
 2096SOL    HW3 8431   3.065   2.769   3.495 -1.0078 -1.9289  1.3922
 2096SOL    MW4 8432   3.117   2.776   3.565 -0.1781 -0.2661  0.6382
 2097SOL     OW 8433   2.975   2.187   2.502  0.2005  0.8968 -0.0586
 2097SOL    HW2 8434   3.067   2.215   2.510  0.0349  0.9984  1.7594
 2097SOL    HW3 8435   2.925   2.268   2.498  0.1588  0.8396 -0.8502
 2097SOL    MW4 8436   2.981   2.201   2.503  0.1731  0.9027  0.0768
 2098SOL     OW 8437   1.188   2.670   4.745  0.1993  0.2450 -0.8166
 2098SOL    HW2 8438   1.212   2.720   4.667  1.0955  1.1374  0.0259
 2098SOL    HW3 8439   1.262   2.612   4.761  0.6744  1.1427  0.2588
 2098SOL    MW4 8440   1.201   2.669   4.737  0.3802  0.4811 -0.5636
 2099SOL     OW 8441   0.616   3.801   4.190 -0.3461  0.1994  0.6599
 2099SOL    HW2 8442   0.533   3.784   4.145 -0.1033  0.4612  0.1205
 2099SOL    HW3 8443   0.603   3.764   4.278 -0.8816 -0.1401  0.4396
 2099SOL    MW4 8444   0.603   3.794   4.196 -0.3846  0.1893  0.5593
 2100SOL     OW 8445   1.926   1.111   2.715 -0.2517  0.4187 -0.7188
 2100SOL    HW2 8446   1.981   1.051   2.665  0.3067  0.4074 -0.1062
 2100SOL    HW3 8447   1.965   1.197   2.700  0.4629  0.3111  0.3780
 2100SOL    MW4 8448   1.939   1.114   2.707 -0.0837  0.4030 -0.4933
 2101SOL     OW 8449   2.714   3.949   2.183 -0.4974 -0.4845  0.0959
 2101SOL    HW2 8450   2.807   3.931   2.169 -0.2574 -0.1195  1.1772
 2101SOL    HW3 8451   2.712   4.007   2.259 -1.5808 -0.1023 -0.2165
 2101SOL    MW4 8452   2.726   3.954   2.191 -0.6084 -0.3858  0.1974
 2102SOL     OW 8453   1.544   2.188   2.607 -0.1790  0.3891 -0.5864
 2102SOL    HW2 8454   1.554   2.279   2.580 -0.2898  0.7594  0.6157
 2102SOL    HW3 8455   1.552   2.138   2.525  1.0443  1.3912 -1.0999
 2102SOL    MW4 8456   1.547   2.194   2.593 -0.0322  0.5703 -0.4957
 2103SOL     OW 8457   0.200   1.230   3.197  0.2886 -0.2726 -0.0154
 2103SOL    HW2 8458   0.274   1.248   3.139 -0.1748  0.5873 -0.3469
 2103SOL    HW3 8459   0.158   1.315   3.209 -0.3288 -0.6658  0.6031
 2103SOL    MW4 8460   0.204   1.244   3.191  0.1460 -0.2110  0.0224
 2104SOL     OW 8461   2.047   3.735   3.517 -0.0914 -0.0587 -0.2571
 2104SOL    HW2 8462   1.966   3.722   3.468 -0.6761  3.4620 -0.3541
 2104SOL    HW3 8463   2.019   3.737   3.609  0.0631 -0.0712 -0.2097
 2104SOL    MW4 8464   2.033   3.733   3.523 -0.1483  0.4041 -0.2635
 2105SOL     OW 8465   4.027   0.800   2.799 -0.0280  0.1385 -0.4096
 2105SOL    HW2 8466   3.993   0.855   2.869 -1.4148 -0.6793 -0.4230
 2105SOL    HW3 8467   4.119   0.788   2.821 -0.3202  0.3370  0.9749
 2105SOL    MW4 8468   4.034   0.806   2.811 -0.2494  0.0569 -0.2289
 2106SOL     OW 8469   1.583   1.439   2.580  0.0581  0.0638  0.2950
 2106SOL    HW2 8470   1.518   1.476   2.640 -0.5058 -0.5419  0.0721
 2106SOL    HW3 8471   1.532   1.381   2.523  0.5812  0.6443 -0.7814
 2106SOL    MW4 8472   1.568   1.436   2.580  0.0527  0.0604  0.1235
 2107SOL     OW 8473   0.428   4.458   0.533  0.1903  0.9445  0.1164
 2107SOL    HW2 8474   0.520   4.483   0.527  0.4939  0.0005  0.9039
 2107SOL    HW3 8475   0.386   4.506   0.461  1.4694  0.5420 -0.9209
 2107SOL    MW4 8476   0.435   4.468   0.523  0.3991  0.7672  0.0834
 2108SOL     OW 8477   3.107   3.968   1.914 -0.1693 -0.2655 -0.2213
 2108SOL    HW2 8478   3.077   4.054   1.943 -1.1335 -0.0295 -1.8510
 2108SOL    HW3 8479   3.193   3.956   1.955  0.4009  1.8906 -0.7624
 2108SOL    MW4 8480   3.114   3.977   1.923 -0.2213  0.0503 -0.5077
 2109SOL     OW 8481   3.620   4.408   1.338  0.0326  0.4593  0.0274
 2109SOL    HW2 8482   3.557   4.352   1.293  0.7578 -0.3892  0.0519
 2109SOL    HW3 8483   3.567   4.472   1.385 -0.7569  0.8386 -1.3660
 2109SOL    MW4 8484   3.605   4.409   1.338  0.0243  0.3972 -0.1532
 2110SOL     OW 8485   2.397   3.167   1.001  0.3119  0.2306  0.4255
 2110SOL    HW2 8486   2.447   3.101   1.051  0.9633  0.5970  0.2609
 2110SOL    HW3 8487   2.433   3.251   1.030 -0.0963  0.4927  0.1756
 2110SOL    MW4 8488   2.409   3.169   1.012  0.3443  0.3135  0.3709
 2111SOL     OW 8489   1.278   4.483   4.067  0.0393  0.0802  0.0004
 2111SOL    HW2 8490   1.190   4.476   4.030 -0.0908 -0.3696  0.3942
 2111SOL    HW3 8491   1.266   4.525   4.152  0.3030  0.8016 -0.3122
 2111SOL    MW4 8492   1.265   4.487   4.073  0.0569  0.1159  0.0110
 2112SOL     OW 8493   4.360   0.130   3.776 -0.1319 -0.3786 -0.2885
 2112SOL    HW2 8494   4.432   0.162   3.722  0.8542 -1.8813  0.1107
 2112SOL    HW3 8495   4.384   0.040   3.798 -1.4318 -0.4214  1.0651
 2112SOL    MW4 8496   4.373   0.122   3.772 -0.1731 -0.5825 -0.0575
 2113SOL     OW 8497   2.305   0.083   1.639  0.2624 -0.4314  0.6814
 2113SOL    HW2 8498   2.275   0.104   1.550  0.7582  0.5219  0.7340
 2113SOL    HW3 8499   2.278   0.158   1.692 -2.0381 -2.0116  1.7999
 2113SOL    MW4 8500   2.298   0.096   1.634  0.0243 -0.5141  0.8359
 2114SOL     OW 8501   3.827   3.688   1.838  0.5288  0.2846  0.1863
 2114SOL    HW2 8502   3.846   3.604   1.880  0.0486 -0.7939 -1.7073
 2114SOL    HW3 8503   3.911   3.718   1.804  0.5626  0.2087  0.2038
 2114SOL    MW4 8504   3.841   3.681   1.839  0.4699  0.1323 -0.0612
 2115SOL     OW 8505   4.423   1.564   2.964  0.3502 -0.4276 -0.0673
 2115SOL    HW2 8506   4.361   1.505   2.921 -0.4313  0.2913  0.0458
 2115SOL    HW3 8507   4.468   1.608   2.892  0.7566 -0.9838 -0.1506
 2115SOL    MW4 8508   4.420   1.562   2.949  0.3009 -0.4060 -0.0634
 2116SOL     OW 8509   4.030   1.347   1.916  0.3252 -0.3561  0.1999
 2116SOL    HW2 8510   3.966   1.411   1.949  0.9818 -0.8610  2.5271
 2116SOL    HW3 8511   4.106   1.400   1.893  0.3179 -0.1282  0.6934
 2116SOL    MW4 8512   4.031   1.363   1.917  0.4110 -0.3926  0.5718
 2117SOL     OW 8513   0.927   2.332   3.232 -0.0852  0.1682  0.3682
 2117SOL    HW2 8514   0.841   2.289   3.227  0.7418 -1.2684 -2.5735
 2117SOL    HW3 8515   0.954   2.320   3.323 -3.0214  0.7332  1.3957
 2117SOL    MW4 8516   0.919   2.325   3.243 -0.3635  0.0534  0.1159
 2118SOL     OW 8517   3.217   1.890   2.610 -0.4150 -0.1687  0.5279
 2118SOL    HW2 8518   3.211   1.846   2.525  0.0852  0.9113 -0.0848
 2118SOL    HW3 8519   3.301   1.936   2.607 -1.7723  2.4157  0.3334
 2118SOL    MW4 8520   3.227   1.890   2.598 -0.5281  0.3148  0.4213
 2119SOL     OW 8521   3.792   1.028   4.060  0.4607  0.4351  0.2402
 2119SOL    HW2 8522   3.835   1.024   4.145  1.4629  0.4693 -0.2611
 2119SOL    HW3 8523   3.807   0.942   4.021  0.0047  0.4178  0.0938
 2119SOL    MW4 8524   3.800   1.016   4.066  0.5326  0.4373  0.1540
 2120SOL     OW 8525   3.686   3.896   4.483 -0.3166 -0.7110  0.5833
 2120SOL    HW2 8526   3.643   3.979   4.505 -1.1406 -1.9025  3.6391
 2120SOL    HW3 8527   3.778   3.921   4.468 -0.6061  0.8179  1.1831
 2120SOL    MW4 8528   3.693   3.910   4.484 -0.4635 -0.6664  1.0657
 2121SOL     OW 8529   2.249   4.357   0.671 -0.5618  0.3912  0.0796
 2121SOL    HW2 8530   2.297   4.281   0.638 -0.4885 -0.0803  1.2421
 2121SOL    HW3 8531   2.315   4.427   0.674 -0.3431  0.1878  0.0850
 2121SOL    MW4 8532   2.264   4.356   0.667 -0.5233  0.3023  0.2337
 2122SOL     OW 8533   1.817   2.464   1.457  0.1532 -0.3009 -0.2635
 2122SOL    HW2 8534   1.868   2.474   1.538  0.1742 -0.9025 -0.1966
 2122SOL    HW3 8535   1.881   2.432   1.393  0.3784  1.2247 -0.8107
 2122SOL    MW4 8536   1.832   2.461   1.459  0.1857 -0.1788 -0.3268
 2123SOL     OW 8537   3.287   1.381   4.242  0.2126 -1.0135 -0.5408
 2123SOL    HW2 8538   3.310   1.382   4.334 -1.6630  0.3223 -0.0445
 2123SOL    HW3 8539   3.362   1.421   4.197  0.3458  0.0703  0.6255
 2123SOL    MW4 8540   3.300   1.386   4.248 -0.0176 -0.6942 -0.3214
 2124SOL     OW 8541   2.757   0.969   3.770  0.2438 -0.0308 -0.9594
 2124SOL    HW2 8542   2.849   0.943   3.766  0.3434 -0.3186  1.9934
 2124SOL    HW3 8543   2.747   1.005   3.858 -2.2374  0.9306 -1.6116
 2124SOL    MW4 8544   2.768   0.970   3.781 -0.0703  0.0581 -0.6559
 2125SOL     OW 8545   3.488   2.866   0.951  0.6900  0.2601 -0.0730
 2125SOL    HW2 8546   3.505   2.878   0.858  0.2106  2.4408  0.1001
 2125SOL    HW3 8547   3.486   2.954   0.987  1.5208 -0.5887  2.1423
 2125SOL    MW4 8548   3.490   2.879   0.944  0.7362  0.4358  0.2420
 2126SOL     OW 8549   2.988   2.554   3.731  0.0986 -0.6780  0.2009
 2126SOL    HW2 8550   2.905   2.601   3.720  1.1916  1.2602  0.0392
 2126SOL    HW3 8551   2.983   2.482   3.668 -0.3823  0.9796 -1.7192
 2126SOL    MW4 8552   2.976   2.550   3.721  0.1793 -0.2034 -0.0737
 2127SOL     OW 8553   1.189   3.410   3.591 -0.4294  0.0392  0.3781
 2127SOL    HW2 8554   1.234   3.364   3.662  1.6764  2.4018  0.6633
 2127SOL    HW3 8555   1.128   3.469   3.635 -0.3548  0.2750  0.1674
 2127SOL    MW4 8556   1.187   3.411   3.606 -0.1417  0.3822  0.3879
 2128SOL     OW 8557   2.778   4.392   4.008 -0.1024  0.3913  0.3146
 2128SOL    HW2 8558   2.801   4.306   3.973 -1.6918 -0.1970  0.6771
 2128SOL    HW3 8559   2.815   4.454   3.945  2.1494 -0.4961  0.6972
 2128SOL    MW4 8560   2.786   4.389   3.995 -0.0150  0.1969  0.4125
 2129SOL     OW 8561   0.405   0.403   0.665 -0.3023  0.1449  0.3136
 2129SOL    HW2 8562   0.372   0.403   0.575 -1.1074  0.1697  0.5998
 2129SOL    HW3 8563   0.395   0.493   0.694  2.0266  0.6342 -0.2925
 2129SOL    MW4 8564   0.399   0.415   0.657 -0.1012  0.2128  0.2714
 2130SOL     OW 8565   3.155   2.574   3.951 -0.0087 -0.3800 -0.4538
 2130SOL    HW2 8566   3.099   2.574   3.873  0.6073  0.2842 -0.8984
 2130SOL    HW3 8567   3.234   2.619   3.924 -0.6438  1.8042  1.1821
 2130SOL    MW4 8568   3.158   2.580   3.937 -0.0114 -0.0043 -0.2968
 2131SOL     OW 8569   0.200   2.764   1.499  0.2970  0.1957 -0.1650
 2131SOL    HW2 8570   0.242   2.690   1.544  0.9895  1.2063  0.8739
 2131SOL    HW3 8571   0.109   2.737   1.488  0.5816 -0.8780  0.0714
 2131SOL    MW4 8572   0.193   2.751   1.504  0.4259  0.1874  0.0032
 2132SOL     OW 8573   2.921   0.190   1.770  0.1559 -0.0230  0.1860
 2132SOL    HW2 8574   2.967   0.168   1.851 -0.9619  0.1345  0.8774
 2132SOL    HW3 8575   2.901   0.283   1.779 -1.8926 -0.5002  0.7187
 2132SOL    MW4 8576   2.925   0.200   1.782 -0.2618 -0.0652  0.3475
 2133SOL     OW 8577   3.941   2.777   1.179  0.7606  0.2430 -0.2446
 2133SOL    HW2 8578   3.986   2.705   1.135 -0.7139 -1.7347  1.3448
 2133SOL    HW3 8579   3.848   2.761   1.161  0.3361  1.0028  1.1855
 2133SOL    MW4 8580   3.935   2.765   1.171  0.5100  0.0823  0.1538
 2134SOL     OW 8581   2.769   4.417   1.432  0.0207 -0.1469  0.7102
 2134SOL    HW2 8582   2.753   4.458   1.516  0.1370 -0.5500  0.9290
 2134SOL    HW3 8583   2.702   4.454   1.374  1.8779  2.5737  0.1635
 2134SOL    MW4 8584   2.758   4.428   1.435  0.2813  0.1593  0.6669
 2135SOL     OW 8585   1.052   0.592   1.032  0.1553 -0.1118 -0.3564
 2135SOL    HW2 8586   1.053   0.505   0.992 -1.5306 -0.4269  0.2329
 2135SOL    HW3 8587   0.960   0.619   1.029  0.5622  1.3869  0.0372
 2135SOL    MW4 8588   1.040   0.584   1.027 -0.0134  0.0444 -0.2267
 2136SOL     OW 8589   3.829   4.323   3.055  0.0181  0.0599 -1.2470
 2136SOL    HW2 8590   3.756   4.293   3.001 -1.8062  0.2650  1.0313
 2136SOL    HW3 8591   3.829   4.263   3.130  0.5392  1.6807  0.0668
 2136SOL    MW4 8592   3.820   4.311   3.058 -0.1540  0.3009 -0.7732
 2137SOL     OW 8593   3.819   3.038   1.540  0.5764  0.3920  0.0893
 2137SOL    HW2 8594   3.863   2.956   1.562  2.2029  1.4304  0.7486
 2137SOL    HW3 8595   3.785   3.070   1.623 -1.6138 -0.4601 -0.4220
 2137SOL    MW4 8596   3.820   3.031   1.554  0.5019  0.4168  0.1088
 2138SOL     OW 8597   3.864   1.748   0.844 -0.1321 -0.3415  0.4498
 2138SOL    HW2 8598   3.945   1.790   0.816 -0.1970 -0.2365  0.4187
 2138SOL    HW3 8599   3.847   1.682   0.777 -1.0796  0.9112 -0.5736
 2138SOL    MW4 8600   3.872   1.745   0.831 -0.2658 -0.1624  0.3107
 2139SOL     OW 8601   3.010   0.888   3.720 -0.1289  0.0132  0.2327
 2139SOL    HW2 8602   3.024   0.848   3.805  1.1358  0.4392  0.2397
 2139SOL    HW3 8603   3.072   0.961   3.717  1.5063 -1.3952 -1.9461
 2139SOL    MW4 8604   3.020   0.892   3.731  0.2537 -0.1165 -0.0536
 2140SOL     OW 8605   3.079   1.038   4.426 -0.5076 -0.1236  0.0958
 2140SOL    HW2 8606   3.085   0.951   4.465  0.1347 -0.5194 -0.8535
 2140SOL    HW3 8607   3.068   1.021   4.332  0.4486  0.8245 -0.1936
 2140SOL    MW4 8608   3.078   1.025   4.419 -0.2966 -0.0509 -0.0677
 2141SOL     OW 8609   3.297   2.577   3.630 -0.0755 -0.3689  0.0057
 2141SOL    HW2 8610   3.228   2.540   3.684 -1.1044 -0.3777 -1.2875
 2141SOL    HW3 8611   3.343   2.501   3.594 -1.1556 -0.4036 -1.3412
 2141SOL    MW4 8612   3.294   2.562   3.632 -0.3538 -0.3743 -0.3428
 2142SOL     OW 8613   2.245   3.829   3.236  0.7677  0.1353 -0.6654
 2142SOL    HW2 8614   2.174   3.780   3.194  0.4214 -1.5933  1.7898
 2142SOL    HW3 8615   2.318   3.824   3.174  0.4719 -2.8775 -0.8731
 2142SOL    MW4 8616   2.245   3.822   3.222  0.6828 -0.4902 -0.3691
 2143SOL     OW 8617   1.551   2.346   2.986 -0.2241 -0.2484  0.4054
 2143SOL    HW2 8618   1.459   2.322   2.971  0.0915 -0.6446 -0.9694
 2143SOL    HW3 8619   1.572   2.406   2.915  0.6844 -0.4363  0.5101
 2143SOL    MW4 8620   1.541   2.350   2.974 -0.0623 -0.3254  0.2379
 2144SOL     OW 8621   2.944   1.727   3.428  0.9472 -0.0346  0.1504
 2144SOL    HW2 8622   2.985   1.696   3.508  1.2514 -1.3304 -0.5018
 2144SOL    HW3 8623   2.855   1.691   3.431  1.1124 -0.4835 -0.3237
 2144SOL    MW4 8624   2.938   1.718   3.439  1.0090 -0.2648  0.0019
 2145SOL     OW 8625   2.183   0.144   0.480  0.1708 -0.2057 -0.2581
 2145SOL    HW2 8626   2.176   0.216   0.543 -0.1589  0.5441 -1.1438
 2145SOL    HW3 8627   2.277   0.127   0.475  0.2256 -0.0686  0.2110
 2145SOL    MW4 8628   2.194   0.152   0.488  0.1345 -0.0887 -0.3131
 2146SOL     OW 8629   0.395   1.050   0.982 -0.1847 -0.3270 -0.0873
 2146SOL    HW2 8630   0.349   0.971   1.011  1.2837 -1.5541 -1.0253
 2146SOL    HW3 8631   0.411   1.036   0.889  1.0140  0.6070 -0.0361
 2146SOL    MW4 8632   0.391   1.038   0.974  0.1671 -0.3657 -0.2043
 2147SOL     OW 8633   3.046   4.478   3.099 -0.2869  0.1484  0.0825
 2147SOL    HW2 8634   2.973   4.438   3.145  1.1455 -0.5026  1.8550
 2147SOL    HW3 8635   3.077   4.411   3.039 -0.9324  0.3218 -0.4518
 2147SOL    MW4 8636   3.041   4.464   3.097 -0.1831  0.0854  0.2458
 2148SOL     OW 8637   4.150   3.609   3.717 -0.2836  0.8858 -0.0254
 2148SOL    HW2 8638   4.070   3.636   3.672 -0.1065  0.3164 -0.7005
 2148SOL    HW3 8639   4.207   3.577   3.647  0.2190  0.5111  0.5470
 2148SOL    MW4 8640   4.147   3.609   3.702 -0.1936  0.7615 -0.0391
 2149SOL     OW 8641   2.132   3.680   4.010 -0.2762  0.0980 -0.1032
 2149SOL    HW2 8642   2.117   3.757   4.064 -0.6049 -0.2956  0.3674
 2149SOL    HW3 8643   2.062   3.620   4.034 -1.2824  0.4736 -1.9860
 2149SOL    MW4 8644   2.121   3.682   4.020 -0.4523  0.0954 -0.2894
 2150SOL     OW 8645   2.825   2.422   2.521 -0.5224 -0.2410 -0.2665
 2150SOL    HW2 8646   2.873   2.478   2.583  0.6598 -1.3188 -0.1867
 2150SOL    HW3 8647   2.825   2.472   2.439  0.1219  0.0931 -0.0748
 2150SOL    MW4 8648   2.832   2.436   2.519 -0.2813 -0.3393 -0.2306
 2151SOL     OW 8649   1.203   3.673   2.010  0.3257 -0.3805 -0.5385
 2151SOL    HW2 8650   1.130   3.615   1.994  0.2334 -0.0016 -1.5267
 2151SOL    HW3 8651   1.166   3.761   2.003  0.8751 -0.1867 -1.0657
 2151SOL    MW4 8652   1.189   3.677   2.007  0.3860 -0.3049 -0.7386
 2152SOL     OW 8653   3.445   4.398   4.580  0.7813 -0.1240  0.5819
 2152SOL    HW2 8654   3.354   4.427   4.589  0.8434  0.0175  0.7392
 2152SOL    HW3 8655   3.490   4.471   4.537  1.0520  0.2211  1.4468
 2152SOL    MW4 8656   3.439   4.411   4.575  0.8249 -0.0601  0.7167
 2153SOL     OW 8657   1.058   1.732   3.775  0.2063 -0.0440 -0.0988
 2153SOL    HW2 8658   1.119   1.659   3.774 -0.0389 -0.3505  2.5886
 2153SOL    HW3 8659   1.112   1.809   3.757  1.2172 -0.4287  1.2231
 2153SOL    MW4 8660   1.073   1.733   3.773  0.3073 -0.1352  0.4303
 2154SOL     OW 8661   2.465   0.781   2.722 -0.4855  0.3344  0.0341
 2154SOL    HW2 8662   2.504   0.711   2.670 -0.0196  0.8566 -0.3339
 2154SOL    HW3 8663   2.383   0.745   2.755 -1.0213  0.1601 -1.4700
 2154SOL    MW4 8664   2.459   0.767   2.719 -0.4947  0.3803 -0.2127
 2155SOL     OW 8665   2.535   0.323   2.627 -0.7849 -0.3685 -0.1475
 2155SOL    HW2 8666   2.460   0.332   2.686 -0.3892 -0.7625  0.4259
 2155SOL    HW3 8667   2.595   0.265   2.674 -0.2526 -0.2928 -0.7316
 2155SOL    MW4 8668   2.533   0.317   2.641 -0.6626 -0.4106 -0.1490
 2156SOL     OW 8669   1.107   2.187   4.128  0.0812 -0.0666  0.0310
 2156SOL    HW2 8670   1.067   2.132   4.061  1.5690 -1.6112  0.3876
 2156SOL    HW3 8671   1.090   2.276   4.099 -0.4246 -0.7138 -1.7214
 2156SOL    MW4 8672   1.099   2.191   4.116  0.2106 -0.3560 -0.1526
 2157SOL     OW 8673   1.429   3.560   0.769  0.3722 -0.3877 -0.4662
 2157SOL    HW2 8674   1.495   3.556   0.838  0.1870  2.0658 -0.0759
 2157SOL    HW3 8675   1.452   3.490   0.709  1.6992 -1.3126  1.0724
 2157SOL    MW4 8676   1.441   3.550   0.770  0.5227 -0.1862 -0.2117
 2158SOL     OW 8677   3.879   1.827   1.419 -0.2851 -0.5444  0.2977
 2158SOL    HW2 8678   3.800   1.847   1.468  1.5072  0.0388  3.0843
 2158SOL    HW3 8679   3.858   1.850   1.329 -2.0934  3.0280  1.5311
 2158SOL    MW4 8680   3.866   1.833   1.414 -0.2871  0.0041  0.8280
 2159SOL     OW 8681   0.943   1.227   2.016  0.2139  0.0100  0.1740
 2159SOL    HW2 8682   1.015   1.211   1.956  0.8555  0.5270  0.8050
 2159SOL    HW3 8683   0.879   1.276   1.964  0.0085 -1.0341 -0.5782
 2159SOL    MW4 8684   0.944   1.231   2.001  0.2715 -0.0595  0.1578
 2160SOL     OW 8685   0.373   0.890   4.492  0.3761  0.1671  0.2414
 2160SOL    HW2 8686   0.432   0.913   4.421  0.4799 -0.8076 -0.0025
 2160SOL    HW3 8687   0.307   0.959   4.494  0.3355  0.1559 -0.8448
 2160SOL    MW4 8688   0.372   0.902   4.483  0.3845  0.0370  0.0658
 2161SOL     OW 8689   0.269   3.550   4.300 -0.0780 -0.1953  0.2394
 2161SOL    HW2 8690   0.244   3.591   4.383  1.2029  0.8896  0.1023
 2161SOL    HW3 8691   0.357   3.515   4.316  0.3507  0.3948 -0.7672
 2161SOL    MW4 8692   0.277   3.551   4.313  0.1476  0.0257  0.0887
 2162SOL     OW 8693   2.831   2.842   3.345  0.6272 -0.2782 -0.4141
 2162SOL    HW2 8694   2.794   2.754   3.336  0.2483 -0.1807  0.1712
 2162SOL    HW3 8695   2.772   2.898   3.294 -0.5926  0.0258  1.3093
 2162SOL    MW4 8696   2.818   2.838   3.337  0.4163 -0.2255 -0.1094
 2163SOL     OW 8697   0.137   3.652   0.519 -0.4448 -0.0107  0.0601
 2163SOL    HW2 8698   0.149   3.696   0.435 -1.2192  0.3705  0.1421
 2163SOL    HW3 8699   0.206   3.688   0.575 -0.0697 -0.0954 -0.3440
 2163SOL    MW4 8700   0.148   3.663   0.515 -0.4975  0.0284  0.0176
 2164SOL     OW 8701   1.236   0.619   3.700  0.6574  0.0842  0.3038
 2164SOL    HW2 8702   1.241   0.575   3.785 -2.9901 -0.6482  0.2335
 2164SOL    HW3 8703   1.228   0.712   3.721 -1.8348 -0.2224  0.8945
 2164SOL    MW4 8704   1.236   0.625   3.714 -0.1527 -0.0529  0.3726
 2165SOL     OW 8705   2.183   3.969   3.546  0.5010 -0.2454  0.1006
 2165SOL    HW2 8706   2.228   3.941   3.625  0.0718 -1.0253  0.0760
 2165SOL    HW3 8707   2.149   3.888   3.508  1.2129  0.0484 -1.2029
 2165SOL    MW4 8708   2.184   3.955   3.551  0.5383 -0.3097 -0.0746
 2166SOL     OW 8709   1.543   3.536   3.368  0.1633 -0.1235  0.6889
 2166SOL    HW2 8710   1.503   3.568   3.448  1.0266 -2.7827  2.2416
 2166SOL    HW3 8711   1.636   3.557   3.377  0.4422 -1.3962  0.9111
 2166SOL    MW4 8712   1.550   3.543   3.380  0.3138 -0.6423  0.9234
 2167SOL     OW 8713   1.828   0.334   3.276  0.2024 -0.3989 -0.3309
 2167SOL    HW2 8714   1.849   0.425   3.300 -0.5499 -1.0976  3.2180
 2167SOL    HW3 8715   1.734   0.325   3.296  1.0074 -2.8961  2.6648
 2167SOL    MW4 8716   1.818   0.345   3.282  0.2095 -0.8205  0.5326
 2168SOL     OW 8717   1.711   2.032   3.392  0.4415 -0.0614 -0.5354
 2168SOL    HW2 8718   1.636   2.019   3.334  0.7819  0.2351 -1.0434
 2168SOL    HW3 8719   1.777   2.074   3.337  1.0188 -0.4141 -0.1174
 2168SOL    MW4 8720   1.710   2.036   3.377  0.5627 -0.0689 -0.5474
 2169SOL     OW 8721   1.207   2.592   3.542  0.9701  0.3335  0.2890
 2169SOL    HW2 8722   1.239   2.594   3.452  1.8958  0.3470  0.6066
 2169SOL    HW3 8723   1.277   2.634   3.593 -0.0941  1.4597  0.8474
 2169SOL    MW4 8724   1.220   2.598   3.537  0.9518  0.4838  0.4046
 2170SOL     OW 8725   2.577   1.927   3.799 -0.3007 -0.0173  0.2729
 2170SOL    HW2 8726   2.482   1.924   3.797 -0.2465 -2.7988  0.3173
 2170SOL    HW3 8727   2.600   1.912   3.890  0.2185 -0.5215  0.0584
 2170SOL    MW4 8728   2.568   1.925   3.811 -0.2253 -0.4508  0.2506
 2171SOL     OW 8729   4.459   2.818   2.033 -0.1340  0.3006  0.6117
 2171SOL    HW2 8730   4.412   2.797   2.114  0.3852 -0.4482  0.7190
 2171SOL    HW3 8731   4.544   2.849   2.062 -0.1129  0.4652  0.3709
 2171SOL    MW4 8732   4.464   2.819   2.048 -0.0627  0.2239  0.5941
 2172SOL     OW 8733   3.716   2.242   3.750  0.5222 -0.5868  0.1940
 2172SOL    HW2 8734   3.715   2.157   3.706 -0.2434 -0.8279  0.6598
 2172SOL    HW3 8735   3.682   2.224   3.838  4.7250 -0.6215  1.8976
 2172SOL    MW4 8736   3.711   2.229   3.755  0.9758 -0.6232  0.4802
 2173SOL     OW 8737   2.055   3.566   1.972 -0.3237  0.1171 -0.0129
 2173SOL    HW2 8738   2.006   3.483   1.973  0.0031 -0.0762  0.3082
 2173SOL    HW3 8739   1.995   3.629   1.932 -0.5455 -0.2942 -0.3338
 2173SOL    MW4 8740   2.041   3.563   1.967 -0.3097  0.0372 -0.0129
 2174SOL     OW 8741   1.472   0.077   0.556  0.4840 -0.8443 -0.4604
 2174SOL    HW2 8742   1.560   0.039   0.547  0.6987 -0.4313 -0.1017
 2174SOL    HW3 8743   1.484   0.154   0.612  0.1139 -0.0492 -1.4429
 2174SOL    MW4 8744   1.485   0.082   0.562  0.4635 -0.6849 -0.5427
 2175SOL     OW 8745   3.559   1.562   4.399 -0.4992  0.1369  0.7282
 2175SOL    HW2 8746   3.521   1.582   4.484  0.4329  0.1789  1.1469
 2175SOL    HW3 8747   3.563   1.466   4.397 -0.3015  0.1412  0.8399
 2175SOL    MW4 8748   3.555   1.552   4.410 -0.3502  0.1429  0.7977
 2176SOL     OW 8749   2.227   1.506   1.388 -0.1705  0.3850  0.5011
 2176SOL    HW2 8750   2.179   1.576   1.432 -0.5594  1.3528 -1.4454
 2176SOL    HW3 8751   2.319   1.532   1.395 -0.2663  0.7695  0.3365
 2176SOL    MW4 8752   2.233   1.519   1.395 -0.2344  0.5633  0.2226
 2177SOL     OW 8753   4.124   3.734   2.114 -0.0814 -0.5684  0.4388
 2177SOL    HW2 8754   4.166   3.776   2.039 -0.3666  0.3029  0.7634
 2177SOL    HW3 8755   4.046   3.787   2.130  1.4771  0.9938  3.1588
 2177SOL    MW4 8756   4.120   3.747   2.106  0.0863 -0.2472  0.8402
 2178SOL     OW 8757   0.436   4.142   0.973  0.1318  0.3253 -0.1363
 2178SOL    HW2 8758   0.517   4.133   0.923  0.0735  0.6445 -0.2904
 2178SOL    HW3 8759   0.368   4.114   0.912 -0.1139  2.3569 -0.8328
 2178SOL    MW4 8760   0.438   4.137   0.958  0.0916  0.6351 -0.2485
 2179SOL     OW 8761   1.146   2.316   3.813 -0.2949  0.5062 -0.4562
 2179SOL    HW2 8762   1.144   2.411   3.824 -0.5024  0.2585  2.0277
 2179SOL    HW3 8763   1.236   2.291   3.833 -0.4821  0.0912 -0.1123
 2179SOL    MW4 8764   1.157   2.325   3.817 -0.3469  0.4189 -0.0832
 2180SOL     OW 8765   1.986   0.610   2.108  0.5753  0.4185 -0.3973
 2180SOL    HW2 8766   1.915   0.632   2.048 -0.4420 -0.1649  0.5734
 2180SOL    HW3 8767   2.006   0.519   2.090 -0.8721 -0.2648  1.2523
 2180SOL    MW4 8768   1.979   0.601   2.098  0.2501  0.2514 -0.0513
 2181SOL     OW 8769   0.383   2.893   0.896  0.1567  0.4897 -0.2673
 2181SOL    HW2 8770   0.460   2.949   0.896  1.1081 -0.7748 -0.9686
 2181SOL    HW3 8771   0.360   2.884   0.988  1.6115 -0.1308  0.0559
 2181SOL    MW4 8772   0.390   2.899   0.908  0.4742  0.2410 -0.3173
 2182SOL     OW 8773   3.481   0.557   1.664  0.2185  0.5769  0.4249
 2182SOL    HW2 8774   3.410   0.517   1.714 -1.1917  0.4400 -1.6494
 2182SOL    HW3 8775   3.546   0.487   1.654 -0.7602 -0.2372 -0.3432
 2182SOL    MW4 8776   3.480   0.543   1.669 -0.0966  0.4514  0.0498
 2183SOL     OW 8777   1.230   4.076   3.274 -0.1593  0.0392  0.4156
 2183SOL    HW2 8778   1.172   4.120   3.336  0.9207 -0.5028  1.8389
 2183SOL    HW3 8779   1.295   4.032   3.329 -0.3476 -2.1274 -1.0357
 2183SOL    MW4 8780   1.231   4.076   3.289 -0.0417 -0.3181  0.4120
 2184SOL     OW 8781   3.403   2.193   3.146  0.4364  0.0311 -0.2142
 2184SOL    HW2 8782   3.498   2.198   3.146  0.4202  0.4587 -0.9028
 2184SOL    HW3 8783   3.384   2.100   3.134  0.7649 -0.0403 -0.1929
 2184SOL    MW4 8784   3.413   2.181   3.144  0.4776  0.0782 -0.3021
 2185SOL     OW 8785   3.984   4.450   1.808 -0.4488 -0.1523  0.0895
 2185SOL    HW2 8786   3.909   4.487   1.760 -1.4501 -1.0896  0.8991
 2185SOL    HW3 8787   3.945   4.385   1.866  0.8910  0.0744  1.2710
 2185SOL    MW4 8788   3.969   4.447   1.809 -0.4041 -0.2460  0.3521
 2186SOL     OW 8789   4.139   0.049   3.631 -0.3274 -0.1052  0.0212
 2186SOL    HW2 8790   4.224   0.077   3.666  0.3653 -2.3278  0.1748
 2186SOL    HW3 8791   4.092   0.015   3.706 -0.1866 -1.6431 -0.5660
 2186SOL    MW4 8792   4.144   0.048   3.645 -0.2170 -0.6013 -0.0362
 2187SOL     OW 8793   4.175   4.597   4.647 -0.3560  0.0109 -0.2547
 2187SOL    HW2 8794   4.214   4.523   4.694  0.2922 -0.0776 -0.9180
 2187SOL    HW3 8795   4.182   4.573   4.555 -2.7663 -0.3767 -0.3658
 2187SOL    MW4 8796   4.181   4.584   4.641 -0.5879 -0.0525 -0.3562
 2188SOL     OW 8797   2.218   1.437   1.667 -0.3359 -0.3483 -0.2822
 2188SOL    HW2 8798   2.216   1.515   1.722 -2.1092 -0.4764 -0.1286
 2188SOL    HW3 8799   2.228   1.471   1.578  1.1291 -0.0707 -0.0182
 2188SOL    MW4 8800   2.219   1.452   1.662 -0.3767 -0.3285 -0.2271
 2189SOL     OW 8801   3.480   1.772   0.645 -0.2746  0.0365 -0.1291
 2189SOL    HW2 8802   3.552   1.831   0.668  1.0881 -1.7800  0.3689
 2189SOL    HW3 8803   3.447   1.741   0.729 -1.7748  0.9793 -0.3508
 2189SOL    MW4 8804   3.486   1.776   0.659 -0.2925 -0.0787 -0.0927
 2190SOL     OW 8805   4.181   2.151   2.129  0.3323 -0.0905 -0.3934
 2190SOL    HW2 8806   4.094   2.180   2.155  0.2294 -1.3703  0.7464
 2190SOL    HW3 8807   4.169   2.060   2.101  1.1747 -0.0594 -0.8824
 2190SOL    MW4 8808   4.168   2.143   2.129  0.4306 -0.2556 -0.3076
 2191SOL     OW 8809   0.250   4.031   0.802  0.5840 -0.4538  0.5786
 2191SOL    HW2 8810   0.260   3.955   0.743  1.6402  0.3316 -0.2812
 2191SOL    HW3 8811   0.258   4.107   0.744  0.3344  0.3238  1.5593
 2191SOL    MW4 8812   0.253   4.031   0.786  0.6904 -0.2475  0.5946
 2192SOL     OW 8813   2.143   0.929   3.340  0.0208 -0.4023 -0.1130
 2192SOL    HW2 8814   2.067   0.975   3.375 -0.3650 -0.7212 -0.5193
 2192SOL    HW3 8815   2.195   0.998   3.297 -0.9432 -0.4509 -1.3937
 2192SOL    MW4 8816   2.140   0.944   3.339 -0.1574 -0.4508 -0.3357
 2193SOL     OW 8817   1.251   0.487   3.955  0.0856 -0.0364  0.0124
 2193SOL    HW2 8818   1.186   0.426   3.990 -0.5100  0.5756 -0.0182
 2193SOL    HW3 8819   1.329   0.433   3.938 -1.0203 -1.1266 -1.6899
 2193SOL    MW4 8820   1.253   0.472   3.957 -0.1390 -0.0995 -0.2160
 2194SOL     OW 8821   3.057   1.342   3.280 -0.0283 -0.2812  0.5629
 2194SOL    HW2 8822   2.990   1.327   3.347  0.0976 -0.7790  0.5766
 2194SOL    HW3 8823   3.131   1.380   3.327  0.0819 -0.6842  0.7191
 2194SOL    MW4 8824   3.058   1.345   3.295  0.0029 -0.4001  0.5853
 2195SOL     OW 8825   4.484   2.581   1.498 -0.8650 -0.5428  0.4360
 2195SOL    HW2 8826   4.472   2.605   1.590  0.1137  0.3378  0.3379
 2195SOL    HW3 8827   4.420   2.635   1.451  0.6659  1.2184  0.3135
 2195SOL    MW4 8828   4.474   2.591   1.504 -0.5341 -0.1938  0.4069
 2196SOL     OW 8829   4.175   3.141   1.148  0.1492  0.0275  0.0843
 2196SOL    HW2 8830   4.246   3.076   1.152 -0.0915 -0.2113  0.5280
 2196SOL    HW3 8831   4.104   3.096   1.102  0.5092  0.4829 -0.9223
 2196SOL    MW4 8832   4.175   3.126   1.142  0.1645  0.0560  0.0099
 2197SOL     OW 8833   2.324   1.376   1.009  0.1181 -0.3635 -0.4797
 2197SOL    HW2 8834   2.251   1.352   1.066  1.6864 -0.8525  1.3918
 2197SOL    HW3 8835   2.289   1.367   0.921 -1.6372 -2.0998  0.3367
 2197SOL    MW4 8836   2.310   1.371   1.005  0.0935 -0.6570 -0.1251
 2198SOL     OW 8837   0.315   4.541   1.362  0.1680 -0.2641  0.0789
 2198SOL    HW2 8838   0.226   4.517   1.336  0.5258 -1.5651  0.0186
 2198SOL    HW3 8839   0.343   4.471   1.421  1.3595 -0.1776 -0.3519
 2198SOL    MW4 8840   0.307   4.528   1.366  0.3724 -0.4244  0.0139
 2199SOL     OW 8841   3.915   0.881   2.561 -0.2380 -0.5557  0.2166
 2199SOL    HW2 8842   3.854   0.947   2.593  0.6529  0.6082 -0.4947
 2199SOL    HW3 8843   3.953   0.843   2.640  0.6833  1.1228  0.5974
 2199SOL    MW4 8844   3.912   0.884   2.575  0.0014 -0.1807  0.1731
 2200SOL     OW 8845   3.165   3.303   4.075 -0.1427 -0.0914  0.1893
 2200SOL    HW2 8846   3.217   3.224   4.056  1.1443  0.3307  1.8457
 2200SOL    HW3 8847   3.089   3.270   4.123  0.5642 -0.3040  1.1820
 2200SOL    MW4 8848   3.162   3.288   4.079  0.1204 -0.0637  0.5383
 2201SOL     OW 8849   3.873   3.717   1.267  0.8690 -0.0121  0.2254
 2201SOL    HW2 8850   3.924   3.655   1.214  0.4441 -0.0389 -0.1564
 2201SOL    HW3 8851   3.882   3.801   1.221  0.3541 -0.0728  0.0112
 2201SOL    MW4 8852   3.881   3.720   1.254  0.7451 -0.0236  0.1466
 2202SOL     OW 8853   0.741   0.668   1.582 -0.1861  0.1488 -0.1188
 2202SOL    HW2 8854   0.676   0.604   1.611  1.5630 -1.2028  0.9393
 2202SOL    HW3 8855   0.743   0.659   1.487  0.2652 -1.6038  0.0452
 2202SOL    MW4 8856   0.733   0.658   1.573  0.1042 -0.2608  0.0423
 2203SOL     OW 8857   1.675   0.939   1.157 -0.0780  0.0093  0.4175
 2203SOL    HW2 8858   1.660   1.034   1.149 -0.1798 -0.0516 -0.1478
 2203SOL    HW3 8859   1.597   0.899   1.119  0.6574 -0.3006 -0.8207
 2203SOL    MW4 8860   1.663   0.947   1.151  0.0056 -0.0396  0.1796
 2204SOL     OW 8861   0.462   3.500   1.704 -0.2448  0.0002 -0.5444
 2204SOL    HW2 8862   0.490   3.421   1.657 -0.2263  0.4725 -1.3323
 2204SOL    HW3 8863   0.542   3.552   1.713 -0.0246 -0.5955  1.0055
 2204SOL    MW4 8864   0.476   3.496   1.699 -0.2133 -0.0160 -0.4438
 2205SOL     OW 8865   2.879   1.525   3.018 -0.4262  0.5189 -0.7456
 2205SOL    HW2 8866   2.867   1.482   2.933 -0.7465 -0.6071 -0.1330
 2205SOL    HW3 8867   2.936   1.600   2.998  0.0371 -0.1027 -1.8458
 2205SOL    MW4 8868   2.885   1.529   3.004 -0.4075  0.2882 -0.8099
 2206SOL     OW 8869   1.134   0.409   0.520 -0.4908 -0.3961  0.3381
 2206SOL    HW2 8870   1.046   0.434   0.495  0.2335  2.1730  0.2254
 2206SOL    HW3 8871   1.188   0.428   0.443  0.4514 -0.1432  1.0391
 2206SOL    MW4 8872   1.130   0.415   0.506 -0.2708 -0.0238  0.4157
 2207SOL     OW 8873   2.333   0.493   3.874  0.2071 -0.4570  0.7637
 2207SOL    HW2 8874   2.367   0.541   3.799  0.9893 -1.1216  0.6850
 2207SOL    HW3 8875   2.368   0.405   3.865 -3.2756 -1.8147 -0.4954
 2207SOL    MW4 8876   2.342   0.488   3.863 -0.1490 -0.7238  0.5872
 2208SOL     OW 8877   2.847   0.492   1.022 -0.2978 -0.3241  0.3305
 2208SOL    HW2 8878   2.769   0.495   0.967 -0.5735  1.1708  0.7868
 2208SOL    HW3 8879   2.920   0.503   0.961 -0.5730  0.7128  0.1698
 2208SOL    MW4 8880   2.846   0.494   1.007 -0.3703  0.0100  0.3693
 2209SOL     OW 8881   1.159   3.067   2.002 -0.3089 -0.0099 -0.0763
 2209SOL    HW2 8882   1.246   3.032   1.981 -0.1830  0.4607 -0.3622
 2209SOL    HW3 8883   1.113   3.068   1.918 -0.7886 -0.7827  0.1682
 2209SOL    MW4 8884   1.165   3.063   1.988 -0.3556 -0.0501 -0.0817
 2210SOL     OW 8885   4.354   3.864   4.431  0.0093  0.6578  0.0082
 2210SOL    HW2 8886   4.448   3.880   4.433  0.0977  0.4198 -1.8090
 2210SOL    HW3 8887   4.341   3.806   4.356 -1.4457 -0.2634  0.9529
 2210SOL    MW4 8888   4.365   3.859   4.422 -0.1712  0.5050 -0.1063
 2211SOL     OW 8889   3.164   3.770   3.062  0.4300 -0.4359  0.7900
 2211SOL    HW2 8890   3.233   3.704   3.047 -0.1541 -0.3033 -3.0083
 2211SOL    HW3 8891   3.207   3.854   3.046 -0.0757 -0.2266  0.5196
 2211SOL    MW4 8892   3.179   3.772   3.058  0.2861 -0.3905  0.2532
 2212SOL     OW 8893   0.000   4.377   3.225 -0.2033  0.0639 -0.4701
 2212SOL    HW2 8894   0.069   4.311   3.215 -0.9224 -1.1303  2.0649
 2212SOL    HW3 8895   0.045   4.461   3.213  1.1564 -0.7764 -1.4781
 2212SOL    MW4 8896   0.015   4.379   3.222 -0.1192 -0.2041 -0.2685
 2213SOL     OW 8897   3.533   0.118   1.169  0.4590 -0.2209 -0.0249
 2213SOL    HW2 8898   3.558   0.146   1.257  1.2762  2.0706 -0.9477
 2213SOL    HW3 8899   3.589   0.042   1.152  2.5599  1.1936  0.2867
 2213SOL    MW4 8900   3.544   0.112   1.179  0.8445  0.2680 -0.1056
 2214SOL     OW 8901   3.523   3.434   3.202  0.2218  0.1184  0.4490
 2214SOL    HW2 8902   3.460   3.451   3.272  1.4615  1.3624  1.3061
 2214SOL    HW3 8903   3.505   3.345   3.174 -0.9820 -0.0285  1.6525
 2214SOL    MW4 8904   3.513   3.425   3.208  0.2267  0.2632  0.7210
 2215SOL     OW 8905   0.410   2.875   2.931  0.1731  0.0468 -0.0154
 2215SOL    HW2 8906   0.497   2.889   2.969  0.3031 -0.5377 -0.0892
 2215SOL    HW3 8907   0.421   2.895   2.838 -0.3862  2.4602  0.4216
 2215SOL    MW4 8908   0.423   2.879   2.924  0.1165  0.2880  0.0324
 2216SOL     OW 8909   3.173   2.962   2.318 -0.7101 -0.0792 -0.1461
 2216SOL    HW2 8910   3.092   2.982   2.270 -1.4803  0.6038  1.3941
 2216SOL    HW3 8911   3.243   2.997   2.263 -1.4395 -0.8381 -1.5840
 2216SOL    MW4 8912   3.172   2.969   2.305 -0.9079 -0.0894 -0.1326
 2217SOL     OW 8913   2.652   3.436   4.464  0.2601 -0.4677 -0.4247
 2217SOL    HW2 8914   2.601   3.485   4.528  0.9757 -0.6863  0.3244
 2217SOL    HW3 8915   2.714   3.500   4.429  1.0974 -0.7863  0.4483
 2217SOL    MW4 8916   2.653   3.451   4.468  0.4649 -0.5386 -0.2112
 2218SOL     OW 8917   3.846   3.509   3.852  0.3147  0.5231 -0.3044
 2218SOL    HW2 8918   3.804   3.424   3.836  1.2774  0.0595 -0.4410
 2218SOL    HW3 8919   3.812   3.537   3.937  0.2071 -0.1449 -0.1222
 2218SOL    MW4 8920   3.836   3.501   3.861  0.4272  0.3738 -0.2987
 2219SOL     OW 8921   4.343   3.820   1.396 -0.0518 -0.7640  0.7403
 2219SOL    HW2 8922   4.256   3.812   1.435 -0.1587  2.3626  1.3045
 2219SOL    HW3 8923   4.334   3.889   1.330  1.2777 -2.6349 -1.4594
 2219SOL    MW4 8924   4.331   3.828   1.393  0.1097 -0.5984  0.5245
 2220SOL     OW 8925   3.393   0.053   4.392  0.1592  0.3400 -0.3144
 2220SOL    HW2 8926   3.406   0.036   4.299  0.9015 -0.9879  0.0207
 2220SOL    HW3 8927   3.326  -0.010   4.419 -0.9736  1.5566 -0.2010
 2220SOL    MW4 8928   3.386   0.043   4.383  0.1078  0.3253 -0.2551
 2221SOL     OW 8929   1.084   1.880   2.154  0.0027 -0.1820  0.1409
 2221SOL    HW2 8930   1.080   1.806   2.214  0.3000 -1.0572 -0.9162
 2221SOL    HW3 8931   1.146   1.941   2.196 -0.5690 -0.3205  1.2158
 2221SOL    MW4 8932   1.092   1.878   2.168 -0.0334 -0.3158  0.1435
 2222SOL     OW 8933   3.369   1.271   1.196  0.1168 -0.2476  0.6975
 2222SOL    HW2 8934   3.360   1.354   1.150 -0.5698 -0.3534  0.6344
 2222SOL    HW3 8935   3.283   1.229   1.188 -0.0250 -0.2616  2.0780
 2222SOL    MW4 8936   3.356   1.276   1.189  0.0074 -0.2635  0.8713
 2223SOL     OW 8937   3.604   4.269   1.642  0.3122  0.1809 -1.0550
 2223SOL    HW2 8938   3.557   4.236   1.565 -1.7576  0.2367  0.1612
 2223SOL    HW3 8939   3.675   4.206   1.656 -0.6477 -1.0539 -1.6858
 2223SOL    MW4 8940   3.607   4.256   1.634 -0.0877  0.0248 -0.9778
 2224SOL     OW 8941   2.484   2.302   1.179  0.1568  0.2236  0.1225
 2224SOL    HW2 8942   2.489   2.227   1.237 -0.1726  0.6136  0.6626
 2224SOL    HW3 8943   2.551   2.286   1.113 -1.5213 -1.7144 -1.1585
 2224SOL    MW4 8944   2.493   2.290   1.178 -0.1082  0.0193  0.0247
 2225SOL     OW 8945   0.249   0.024   2.990 -0.1098  0.3535  0.0254
 2225SOL    HW2 8946   0.254  -0.046   2.925 -1.2969 -0.3400  0.6571
 2225SOL    HW3 8947   0.214   0.099   2.942 -0.2555  0.0713 -0.3111
 2225SOL    MW4 8948   0.245   0.024   2.975 -0.2856  0.2251  0.0639
 2226SOL     OW 8949   0.398   3.053   4.520 -0.3301 -0.2699  0.3092
 2226SOL    HW2 8950   0.336   3.121   4.547 -0.0223  0.2419 -0.2582
 2226SOL    HW3 8951   0.469   3.101   4.477  0.5675 -0.8347  1.1592
 2226SOL    MW4 8952   0.399   3.068   4.518 -0.1711 -0.2770  0.3462
 2227SOL     OW 8953   0.053   0.653   2.922  0.4251 -0.2622  0.0563
 2227SOL    HW2 8954   0.127   0.637   2.982  0.4994 -0.6028 -0.1241
 2227SOL    HW3 8955   0.088   0.712   2.856  0.2410  0.4023  0.5493
 2227SOL    MW4 8956   0.067   0.659   2.921  0.4106 -0.2195  0.0978
 2228SOL     OW 8957   3.214   0.801   2.331  0.7340  0.1736  0.3179
 2228SOL    HW2 8958   3.251   0.889   2.329  0.6589  0.2271  1.1783
 2228SOL    HW3 8959   3.175   0.790   2.244  0.0941  1.2623  0.4563
 2228SOL    MW4 8960   3.214   0.811   2.319  0.6397  0.3243  0.4499
 2229SOL     OW 8961   0.766   4.268   1.456  0.1532  0.4098  0.7461
 2229SOL    HW2 8962   0.850   4.310   1.435  0.8856 -1.3431  0.0133
 2229SOL    HW3 8963   0.737   4.311   1.536  1.6016  1.2681  0.8399
 2229SOL    MW4 8964   0.773   4.279   1.464  0.4410  0.2923  0.6617
 2230SOL     OW 8965   1.492   1.395   4.216  0.1184 -0.1537 -0.6470
 2230SOL    HW2 8966   1.460   1.426   4.301 -0.1620 -0.5289 -0.6130
 2230SOL    HW3 8967   1.566   1.452   4.196 -1.0438  1.2198 -1.0898
 2230SOL    MW4 8968   1.497   1.406   4.224 -0.0720 -0.0221 -0.7014
 2231SOL     OW 8969   1.126   1.858   3.309 -0.6581  0.0618 -0.1673
 2231SOL    HW2 8970   1.216   1.872   3.340  0.0900 -2.5856 -0.9860
 2231SOL    HW3 8971   1.126   1.894   3.220 -0.9788  1.8313  0.5369
 2231SOL    MW4 8972   1.138   1.864   3.301 -0.6018 -0.0540 -0.1822
 2232SOL     OW 8973   2.215   4.314   1.766 -0.6871  0.0532  1.2094
 2232SOL    HW2 8974   2.298   4.297   1.721 -0.3420  4.0805  0.0654
 2232SOL    HW3 8975   2.148   4.281   1.706 -0.0514  1.1277 -0.1262
 2232SOL    MW4 8976   2.217   4.307   1.752 -0.5577  0.7257  0.8820
 2233SOL     OW 8977   0.701   2.392   2.832  0.7229 -0.3989 -0.1681
 2233SOL    HW2 8978   0.709   2.466   2.893 -0.8883  0.7888 -1.3894
 2233SOL    HW3 8979   0.608   2.371   2.831  0.9907 -1.6080 -0.8535
 2233SOL    MW4 8980   0.690   2.399   2.840  0.5456 -0.4017 -0.4196
 2234SOL     OW 8981   0.201   3.450   1.904 -0.0796  0.5672  0.0003
 2234SOL    HW2 8982   0.231   3.420   1.989 -1.8723 -1.0798  0.1015
 2234SOL    HW3 8983   0.278   3.446   1.848  1.3574  2.6366  1.7503
 2234SOL    MW4 8984   0.215   3.446   1.908 -0.1266  0.6227  0.2446
 2235SOL     OW 8985   0.627   1.290   1.161 -0.0707 -0.4624  0.1944
 2235SOL    HW2 8986   0.553   1.351   1.162 -0.5286 -1.0220  0.4760
 2235SOL    HW3 8987   0.681   1.318   1.234  0.0486  0.0094 -0.0702
 2235SOL    MW4 8988   0.624   1.302   1.170 -0.1153 -0.4741  0.1967
 2236SOL     OW 8989   2.757   0.933   1.624 -0.1189  0.3888  0.3743
 2236SOL    HW2 8990   2.757   0.952   1.530 -1.3534  1.8545  0.6611
 2236SOL    HW3 8991   2.706   0.852   1.632  1.6294 -0.8062 -0.4129
 2236SOL    MW4 8992   2.750   0.925   1.613 -0.0513  0.4245  0.3083
 2237SOL     OW 8993   3.935   0.378   0.968 -0.0437  0.3129  0.2359
 2237SOL    HW2 8994   3.848   0.343   0.986 -0.3816  0.1565 -1.6418
 2237SOL    HW3 8995   3.933   0.466   1.005 -0.6634 -0.0469  1.0811
 2237SOL    MW4 8996   3.923   0.385   0.975 -0.1700  0.2448  0.0997
 2238SOL     OW 8997   2.366   1.232   1.762 -0.8312  0.5688  0.1489
 2238SOL    HW2 8998   2.447   1.242   1.713 -0.4969  1.0402  0.7863
 2238SOL    HW3 8999   2.310   1.303   1.731 -0.6847  0.7578  0.3128
 2238SOL    MW4 9000   2.369   1.243   1.752 -0.7677  0.6560  0.2545
 2239SOL     OW 9001   2.204   3.169   0.593  0.0500 -1.1273  0.0065
 2239SOL    HW2 9002   2.143   3.128   0.654  1.3194 -3.6350 -0.3742
 2239SOL    HW3 9003   2.290   3.139   0.620  1.1365  1.8784  0.1461
 2239SOL    MW4 9004   2.207   3.160   0.604  0.3607 -1.0617 -0.0252
 2240SOL     OW 9005   2.910   4.536   3.791  0.2954  0.1350  0.0477
 2240SOL    HW2 9006   2.985   4.570   3.840 -0.3926  0.1004  1.1180
 2240SOL    HW3 9007   2.855   4.613   3.776 -0.3308 -0.1616  0.8198
 2240SOL    MW4 9008   2.913   4.551   3.795  0.1216  0.0911  0.2906
 2241SOL     OW 9009   0.609   1.774   1.778  0.5268  0.1947 -0.0265
 2241SOL    HW2 9010   0.525   1.818   1.792  0.4527  0.9691 -2.7059
 2241SOL    HW3 9011   0.626   1.783   1.684  1.9660 -2.9334 -0.1298
 2241SOL    MW4 9012   0.600   1.781   1.767  0.7070 -0.1159 -0.3935
 2242SOL     OW 9013   0.046   4.110   3.639  0.2982  0.6653 -0.0462
 2242SOL    HW2 9014  -0.034   4.148   3.676  0.4811 -0.4852  1.5811
 2242SOL    HW3 9015   0.116   4.148   3.692  0.8766  1.8361 -1.6061
 2242SOL    MW4 9016   0.045   4.120   3.651  0.3987  0.6680 -0.0374
 2243SOL     OW 9017   1.377   2.134   4.025  0.0343  0.4048 -0.4372
 2243SOL    HW2 9018   1.284   2.145   4.042  0.0687 -2.1082  1.6505
 2243SOL    HW3 9019   1.420   2.172   4.102  0.6059 -1.2606  0.0854
 2243SOL    MW4 9020   1.371   2.141   4.038  0.1143 -0.1469 -0.0925
 2244SOL     OW 9021   1.803   3.977   1.603  0.3818  0.4202 -0.1119
 2244SOL    HW2 9022   1.866   3.914   1.568 -0.0595  0.9035 -1.8293
 2244SOL    HW3 9023   1.742   3.925   1.655 -0.0114 -0.5897 -1.5634
 2244SOL    MW4 9024   1.803   3.962   1.605  0.2717  0.3507 -0.5300
 2245SOL     OW 9025   1.787   4.577   4.518 -0.0355 -0.0085  0.5172
 2245SOL    HW2 9026   1.776   4.670   4.540 -1.1667  0.2085 -0.9216
 2245SOL    HW3 9027   1.875   4.572   4.480 -0.1003  0.5308  0.2881
 2245SOL    MW4 9028   1.797   4.589   4.516 -0.1934  0.0911  0.2971
 2246SOL     OW 9029   0.356   4.566   3.262 -0.2794 -0.4712 -0.1074
 2246SOL    HW2 9030   0.393   4.654   3.251 -0.2553 -0.4790 -0.0891
 2246SOL    HW3 9031   0.368   4.546   3.355 -1.1128 -0.1205  0.0792
 2246SOL    MW4 9032   0.362   4.575   3.273 -0.3862 -0.4263 -0.0806
 2247SOL     OW 9033   0.989   3.610   2.934 -0.3133  0.5090  0.1365
 2247SOL    HW2 9034   0.968   3.680   2.872 -0.7494 -0.6086 -1.0043
 2247SOL    HW3 9035   0.951   3.639   3.017  0.5733  2.1823 -0.0339
 2247SOL    MW4 9036   0.981   3.623   2.936 -0.2539  0.5825 -0.0362
 2248SOL     OW 9037   2.414   0.100   1.255 -0.5754  0.4790 -0.2392
 2248SOL    HW2 9038   2.337   0.125   1.307 -0.3417  1.0856 -0.1725
 2248SOL    HW3 9039   2.487   0.146   1.298  0.1571 -1.7340  0.9429
 2248SOL    MW4 9040   2.413   0.110   1.268 -0.4478  0.2671 -0.0745
 2249SOL     OW 9041   2.973   2.499   2.754  0.2242  0.0071  0.4572
 2249SOL    HW2 9042   2.914   2.445   2.806 -2.2721  0.8556 -1.4076
 2249SOL    HW3 9043   2.957   2.588   2.785 -1.1038  0.4887 -1.5464
 2249SOL    MW4 9044   2.963   2.503   2.765 -0.2804  0.1824 -0.0532
 2250SOL     OW 9045   1.906   0.236   4.078  0.3772 -0.1246  0.2891
 2250SOL    HW2 9046   1.827   0.289   4.064  0.4997  0.0014  0.0730
 2250SOL    HW3 9047   1.978   0.295   4.058  0.5242 -0.2722  0.3833
 2250SOL    MW4 9048   1.905   0.251   4.074  0.4128 -0.1275  0.2732
 2251SOL     OW 9049   0.831   4.001   1.542 -0.1458  0.1475  0.4047
 2251SOL    HW2 9050   0.799   4.086   1.511 -0.1910 -0.2180 -0.5468
 2251SOL    HW3 9051   0.771   3.937   1.505  0.1993 -0.3460  0.6914
 2251SOL    MW4 9052   0.819   4.004   1.533 -0.1062  0.0343  0.3170
 2252SOL     OW 9053   1.975   4.145   3.551  0.0315 -0.4710 -0.6415
 2252SOL    HW2 9054   1.950   4.165   3.641 -0.8083  0.0428 -0.9824
 2252SOL    HW3 9055   2.039   4.074   3.560 -0.7061 -1.0508  0.3247
 2252SOL    MW4 9056   1.980   4.138   3.564 -0.1767 -0.4797 -0.5591
 2253SOL     OW 9057   4.263   1.492   1.865 -0.1871  0.0242 -0.6088
 2253SOL    HW2 9058   4.230   1.580   1.847  0.0057  0.3199  0.4434
 2253SOL    HW3 9059   4.325   1.504   1.937  0.5503 -0.8423 -1.0806
 2253SOL    MW4 9060   4.267   1.505   1.872 -0.0644 -0.0511 -0.5324
 2254SOL     OW 9061   0.155   2.671   2.744  0.4472  0.3324 -0.1471
 2254SOL    HW2 9062   0.182   2.658   2.835 -1.9559  1.0447  0.7083
 2254SOL    HW3 9063   0.171   2.764   2.727  1.5522  0.0510 -0.6993
 2254SOL    MW4 9064   0.161   2.682   2.754  0.2760  0.3891 -0.1073
 2255SOL     OW 9065   0.386   4.404   2.433 -0.0171  0.0215  0.0699
 2255SOL    HW2 9066   0.374   4.323   2.483 -1.2642  0.1273 -0.0598
 2255SOL    HW3 9067   0.354   4.384   2.346  1.1283  0.1852 -0.4025
 2255SOL    MW4 9068   0.380   4.391   2.428 -0.0305  0.0572 -0.0098
 2256SOL     OW 9069   3.694   2.355   3.441  0.2369  0.5893 -0.1749
 2256SOL    HW2 9070   3.788   2.354   3.457  1.1304  1.8178 -4.5551
 2256SOL    HW3 9071   3.672   2.447   3.432 -1.2699  0.2826  0.2879
 2256SOL    MW4 9072   3.703   2.367   3.442  0.1559  0.7110 -0.6919
 2257SOL     OW 9073   1.322   1.584   1.095  0.0652 -0.1172  0.2860
 2257SOL    HW2 9074   1.398   1.547   1.140  0.8816 -0.5426 -1.3848
 2257SOL    HW3 9075   1.248   1.565   1.153  0.6049 -3.5125 -0.0243
 2257SOL    MW4 9076   1.322   1.577   1.109  0.2439 -0.6213  0.0246
 2258SOL     OW 9077   4.285   2.994   3.442  0.4109  0.5292  0.1530
 2258SOL    HW2 9078   4.267   3.085   3.466  1.1396  0.8675 -0.5830
 2258SOL    HW3 9079   4.369   2.974   3.484 -0.8457 -0.5578  2.2811
 2258SOL    MW4 9080   4.294   3.003   3.451  0.3409  0.4303  0.3366
 2259SOL     OW 9081   0.662   4.076   0.829 -0.2012 -0.1598  0.2148
 2259SOL    HW2 9082   0.620   4.034   0.754  1.4320  0.5653 -1.1462
 2259SOL    HW3 9083   0.677   4.006   0.892 -0.1498 -1.0681 -0.8074
 2259SOL    MW4 9084   0.659   4.061   0.827  0.0210 -0.1841 -0.0997
 2260SOL     OW 9085   4.118   2.611   4.399  0.6199 -0.0548  0.3741
 2260SOL    HW2 9086   4.211   2.602   4.378  0.2742 -0.5971 -0.9295
 2260SOL    HW3 9087   4.080   2.655   4.324 -0.3900 -0.8592  0.4103
 2260SOL    MW4 9088   4.125   2.616   4.386  0.4416 -0.2327  0.2065
 2261SOL     OW 9089   1.525   1.192   2.084 -0.1769 -0.1861 -0.1227
 2261SOL    HW2 9090   1.551   1.136   2.010 -0.7130 -0.6835  0.0595
 2261SOL    HW3 9091   1.536   1.137   2.161 -2.8589 -0.8101 -0.1417
 2261SOL    MW4 9092   1.530   1.177   2.084 -0.6014 -0.3339 -0.1013
 2262SOL     OW 9093   3.941   1.389   1.228  0.0980 -0.1290 -0.0109
 2262SOL    HW2 9094   3.960   1.377   1.135  0.8406 -0.9064  0.2394
 2262SOL    HW3 9095   3.871   1.326   1.246  0.4826 -0.5169  0.1310
 2262SOL    MW4 9096   3.934   1.379   1.218  0.2465 -0.2828  0.0409
 2263SOL     OW 9097   2.558   0.893   4.258 -0.0431 -0.4722  0.1562
 2263SOL    HW2 9098   2.619   0.820   4.264  0.7649  0.0657 -1.0386
 2263SOL    HW3 9099   2.613   0.971   4.269 -0.8100 -0.0272  0.9090
 2263SOL    MW4 9100   2.573   0.894   4.260 -0.0374 -0.3425  0.0973
 2264SOL     OW 9101   2.166   0.308   2.621 -0.0835 -0.5800 -0.4154
 2264SOL    HW2 9102   2.137   0.368   2.553  1.0187  0.2862 -0.1332
 2264SOL    HW3 9103   2.156   0.221   2.581 -2.6695 -0.2956 -0.4374
 2264SOL    MW4 9104   2.161   0.304   2.607 -0.2794 -0.4282 -0.3810
 2265SOL     OW 9105   4.098   4.534   3.306  0.2906 -0.4273  0.4383
 2265SOL    HW2 9106   4.163   4.525   3.376  0.9815  0.2642 -0.1183
 2265SOL    HW3 9107   4.015   4.510   3.348  0.4663  1.3733  1.8944
 2265SOL    MW4 9108   4.096   4.530   3.321  0.4048 -0.0982  0.5569
 2266SOL     OW 9109   3.185   4.656   0.687  0.3659 -0.1915  0.5877
 2266SOL    HW2 9110   3.252   4.617   0.631  0.3717 -0.4517  0.7734
 2266SOL    HW3 9111   3.109   4.597   0.678 -0.5813  1.2723 -1.3102
 2266SOL    MW4 9112   3.183   4.643   0.678  0.2415 -0.0329  0.3617
 2267SOL     OW 9113   3.428   1.592   4.651 -0.2328  0.0869 -0.0096
 2267SOL    HW2 9114   3.368   1.666   4.665  0.1159  0.3549  0.0949
 2267SOL    HW3 9115   3.511   1.622   4.688 -0.3381 -0.7321  0.8991
 2267SOL    MW4 9116   3.431   1.606   4.657 -0.2005  0.0142  0.1240
 2268SOL     OW 9117   3.086   3.166   1.983  0.0712 -0.3121  0.1697
 2268SOL    HW2 9118   3.118   3.251   2.013  2.1693 -0.5062 -1.4766
 2268SOL    HW3 9119   3.015   3.188   1.923 -1.0025  0.1875  1.5820
 2268SOL    MW4 9120   3.081   3.180   1.979  0.2062 -0.2716  0.1388
 2269SOL     OW 9121   3.905   2.713   3.367  0.2361 -0.2270  0.0061
 2269SOL    HW2 9122   3.844   2.671   3.307 -3.0155  1.8100  1.7480
 2269SOL    HW3 9123   3.947   2.781   3.315  0.1908 -0.8887 -0.9076
 2269SOL    MW4 9124   3.902   2.717   3.352 -0.1991 -0.0458  0.1154
 2270SOL     OW 9125   0.188   2.272   1.991  0.0478 -0.2517  0.9134
 2270SOL    HW2 9126   0.176   2.204   1.925 -0.9605  0.9193 -0.1145
 2270SOL    HW3 9127   0.283   2.280   2.000  0.1758 -1.4392  0.6807
 2270SOL    MW4 9128   0.199   2.264   1.984 -0.0684 -0.2539  0.7471
 2271SOL     OW 9129   2.496   1.842   0.968  0.6998 -0.1595  0.0426
 2271SOL    HW2 9130   2.479   1.831   1.061  2.4650  0.9638  0.5302
 2271SOL    HW3 9131   2.583   1.804   0.954 -0.2403 -1.7930 -1.4786
 2271SOL    MW4 9132   2.506   1.836   0.978  0.8087 -0.2267 -0.0937
 2272SOL     OW 9133   3.449   3.215   3.440  0.0664 -0.6027  0.0716
 2272SOL    HW2 9134   3.473   3.206   3.348 -4.1956  0.4211 -1.2289
 2272SOL    HW3 9135   3.376   3.156   3.453 -1.0427  1.1331  2.1307
 2272SOL    MW4 9136   3.443   3.206   3.430 -0.6423 -0.2387  0.1719
 2273SOL     OW 9137   2.204   0.473   3.456  0.2881 -0.2143  0.0293
 2273SOL    HW2 9138   2.214   0.533   3.383  2.6513 -0.2935  0.2445
 2273SOL    HW3 9139   2.222   0.387   3.419  2.9884 -0.1012  0.9605
 2273SOL    MW4 9140   2.207   0.470   3.442  0.9563 -0.2098  0.1805
 2274SOL     OW 9141   2.775   2.850   0.886 -0.1843  0.0238  0.1177
 2274SOL    HW2 9142   2.763   2.945   0.889 -0.2679  0.0499 -0.9239
 2274SOL    HW3 9143   2.706   2.819   0.827 -1.4559 -0.9101  2.0410
 2274SOL    MW4 9144   2.765   2.858   0.879 -0.3631 -0.0961  0.2340
 2275SOL     OW 9145   2.978   4.347   2.778  0.0574 -0.5795  0.0965
 2275SOL    HW2 9146   2.966   4.442   2.791 -2.2822 -0.7073 -0.8831
 2275SOL    HW3 9147   3.060   4.328   2.822  0.4178  1.8652  0.5997
 2275SOL    MW4 9148   2.987   4.357   2.786 -0.2041 -0.2732  0.0336
 2276SOL     OW 9149   4.098   1.226   3.662 -0.0323 -0.2313  0.0574
 2276SOL    HW2 9150   4.044   1.152   3.691  1.3546 -0.7321  1.4776
 2276SOL    HW3 9151   4.146   1.252   3.741  0.6130  1.2153 -0.8001
 2276SOL    MW4 9152   4.097   1.220   3.676  0.2356 -0.1065  0.1318
 2277SOL     OW 9153   1.250   1.177   2.648 -0.5299 -0.2640  0.7247
 2277SOL    HW2 9154   1.291   1.173   2.561  0.7764 -1.2834  1.3703
 2277SOL    HW3 9155   1.322   1.164   2.709 -1.4258  0.5793  1.9856
 2277SOL    MW4 9156   1.265   1.175   2.644 -0.4756 -0.2873  0.9766
 2278SOL     OW 9157   1.861   0.645   3.883  0.7012 -0.2009  0.4938
 2278SOL    HW2 9158   1.823   0.664   3.798  0.8066 -0.3315  0.4158
 2278SOL    HW3 9159   1.943   0.600   3.862  1.0550  0.3677  0.6535
 2278SOL    MW4 9160   1.867   0.641   3.869  0.7616 -0.1431  0.5045
 2279SOL     OW 9161   2.865   1.595   1.214  0.1811  0.1791 -0.0882
 2279SOL    HW2 9162   2.845   1.620   1.304  0.3577  1.4765 -0.3961
 2279SOL    HW3 9163   2.832   1.506   1.205 -0.8766  0.4656  0.9111
 2279SOL    MW4 9164   2.858   1.587   1.224  0.0648  0.3881  0.0030
 2280SOL     OW 9165   3.343   2.046   4.073 -0.7123  0.0251 -0.1697
 2280SOL    HW2 9166   3.345   2.141   4.080  0.0568  0.1108 -1.3876
 2280SOL    HW3 9167   3.273   2.019   4.132  0.5845  1.1863  1.9434
 2280SOL    MW4 9168   3.334   2.055   4.082 -0.4396  0.1895 -0.0515
 2281SOL     OW 9169   4.314   0.739   0.674  0.1471 -0.3518  0.0837
 2281SOL    HW2 9170   4.225   0.728   0.709 -0.1216  1.0585 -0.1372
 2281SOL    HW3 9171   4.301   0.776   0.586  0.9413 -0.5248 -0.1100
 2281SOL    MW4 9172   4.300   0.742   0.667  0.2170 -0.1886  0.0290
 2282SOL     OW 9173   2.962   0.103   3.417  0.0566  0.0954  0.2171
 2282SOL    HW2 9174   2.956   0.009   3.403  1.7694  0.0721 -0.5629
 2282SOL    HW3 9175   2.895   0.141   3.360  0.7765 -0.5502 -1.0953
 2282SOL    MW4 9176   2.952   0.096   3.408  0.3777  0.0072 -0.0589
 2283SOL     OW 9177   3.851   4.175   3.868 -0.2638 -0.1309 -0.0778
 2283SOL    HW2 9178   3.790   4.161   3.796 -1.2413  2.4487  0.1878
 2283SOL    HW3 9179   3.809   4.136   3.944 -0.6060 -0.2414 -0.3230
 2283SOL    MW4 9180   3.838   4.168   3.869 -0.4375  0.1945 -0.0749
 2284SOL     OW 9181   1.835   2.661   2.580 -0.3954  0.1479  0.3320
 2284SOL    HW2 9182   1.837   2.569   2.605 -0.1367  0.3697  1.1546
 2284SOL    HW3 9183   1.871   2.664   2.492 -0.2123 -0.5103  0.3883
 2284SOL    MW4 9184   1.840   2.649   2.572 -0.3371  0.0901  0.4480
 2285SOL     OW 9185   3.531   1.190   0.773  0.0437 -0.0149 -0.3447
 2285SOL    HW2 9186   3.463   1.163   0.835 -1.2111  2.4697 -0.5805
 2285SOL    HW3 9187   3.568   1.269   0.811  0.5055  0.5049 -1.8546
 2285SOL    MW4 9188   3.527   1.197   0.786 -0.0608  0.3815 -0.5749
 2286SOL     OW 9189   1.863   0.178   3.038 -0.1484  0.4684 -0.4490
 2286SOL    HW2 9190   1.855   0.238   3.112 -0.8925  0.4540 -0.5114
 2286SOL    HW3 9191   1.848   0.092   3.076 -0.2847  0.4379 -0.5732
 2286SOL    MW4 9192   1.860   0.175   3.053 -0.2646  0.4625 -0.4737
 2287SOL     OW 9193   2.625   2.302   2.203  0.2875 -0.0834  1.1101
 2287SOL    HW2 9194   2.564   2.362   2.159 -0.9633 -0.4052  2.3821
 2287SOL    HW3 9195   2.578   2.274   2.282  1.1064 -2.2761  0.8409
 2287SOL    MW4 9196   2.611   2.306   2.208  0.2306 -0.4151  1.2424
 2288SOL     OW 9197   0.290   0.415   0.403  0.0536 -0.0396  0.4747
 2288SOL    HW2 9198   0.369   0.461   0.376 -0.6890  0.8122 -0.2602
 2288SOL    HW3 9199   0.225   0.484   0.419 -0.6320 -0.7427  0.7786
 2288SOL    MW4 9200   0.292   0.430   0.401 -0.1348 -0.0200  0.4178
 2289SOL     OW 9201   2.803   0.422   4.055  0.0368  0.1434 -0.3887
 2289SOL    HW2 9202   2.872   0.357   4.040 -1.1857 -1.3580  0.4169
 2289SOL    HW3 9203   2.811   0.445   4.148  0.7853  1.5418 -0.7817
 2289SOL    MW4 9204   2.813   0.416   4.065 -0.0257  0.1298 -0.3343
 2290SOL     OW 9205   4.218   1.018   1.248 -0.0812  0.2471 -0.0580
 2290SOL    HW2 9206   4.193   1.100   1.290  0.3920  0.2699  0.1764
 2290SOL    HW3 9207   4.139   0.964   1.251 -0.1001  0.3193  0.6776
 2290SOL    MW4 9208   4.204   1.022   1.254 -0.0210  0.2598  0.0700
 2291SOL     OW 9209   2.888   0.106   1.486  0.0586 -0.1912  0.6065
 2291SOL    HW2 9210   2.801   0.138   1.465  1.3133  1.8383 -1.8902
 2291SOL    HW3 9211   2.908   0.144   1.571 -1.1086  0.1833  0.7211
 2291SOL    MW4 9212   2.879   0.115   1.494  0.0701  0.1260  0.2922
 2292SOL     OW 9213   0.059   4.330   0.588  0.2834  0.6151 -0.0048
 2292SOL    HW2 9214  -0.023   4.281   0.581  0.2467  0.3655  1.9718
 2292SOL    HW3 9215   0.044   4.409   0.535 -0.4647 -0.4225 -1.3572
 2292SOL    MW4 9216   0.046   4.334   0.580  0.1799  0.4449  0.0775
 2293SOL     OW 9217   1.306   2.859   3.299 -0.4341  0.0264 -0.2330
 2293SOL    HW2 9218   1.256   2.901   3.228 -0.2319 -1.8646 -1.5118
 2293SOL    HW3 9219   1.282   2.767   3.295  1.7379 -0.5931  0.3473
 2293SOL    MW4 9220   1.296   2.853   3.289 -0.1208 -0.3049 -0.3252
 2294SOL     OW 9221   0.594   4.044   4.431 -0.2171  0.3230  0.5520
 2294SOL    HW2 9222   0.512   4.024   4.476  0.0185 -1.8318  0.0666
 2294SOL    HW3 9223   0.567   4.066   4.342 -0.3800  1.1037  0.7879
 2294SOL    MW4 9224   0.579   4.044   4.425 -0.2075  0.1416  0.5198
 2295SOL     OW 9225   3.818   0.049   0.877 -0.2001  0.2423 -0.2526
 2295SOL    HW2 9226   3.833   0.066   0.970 -0.1344 -0.7307 -0.0833
 2295SOL    HW3 9227   3.723   0.056   0.866 -0.0665  2.0363 -0.4568
 2295SOL    MW4 9228   3.808   0.052   0.887 -0.1736  0.3506 -0.2573
 2296SOL     OW 9229   3.598   2.418   2.382  0.1078  0.0952  0.3348
 2296SOL    HW2 9230   3.566   2.444   2.468 -1.2644 -0.4839  0.0217
 2296SOL    HW3 9231   3.638   2.333   2.395 -0.4315 -0.1605  0.3429
 2296SOL    MW4 9232   3.599   2.410   2.395 -0.1442 -0.0150  0.2944
 2297SOL     OW 9233   1.670   1.270   4.456 -0.2781 -0.2486 -0.9031
 2297SOL    HW2 9234   1.611   1.220   4.399 -0.9556  1.3626 -1.6449
 2297SOL    HW3 9235   1.611   1.309   4.521 -0.0311  1.3868 -1.6591
 2297SOL    MW4 9236   1.654   1.268   4.457 -0.3350  0.1796 -1.1010
 2298SOL     OW 9237   1.757   2.396   4.237 -0.2906  0.4884 -0.4907
 2298SOL    HW2 9238   1.820   2.375   4.167 -0.0837  0.9093 -0.4283
 2298SOL    HW3 9239   1.749   2.491   4.235  0.2087  0.5539  0.4967
 2298SOL    MW4 9240   1.764   2.405   4.227 -0.1974  0.5527 -0.3519
 2299SOL     OW 9241   4.483   2.632   3.776  0.3467 -0.2430 -0.5861
 2299SOL    HW2 9242   4.572   2.628   3.810  0.5789 -0.2102 -1.1730
 2299SOL    HW3 9243   4.456   2.541   3.768  0.5625 -0.2776 -0.9885
 2299SOL    MW4 9244   4.491   2.620   3.779  0.4067 -0.2434 -0.7167
 2300SOL     OW 9245   3.138   1.380   0.833 -0.0130  0.1613  0.3625
 2300SOL    HW2 9246   3.197   1.351   0.763  0.1771  0.9865  0.1671
 2300SOL    HW3 9247   3.097   1.300   0.864 -1.2945 -0.0704 -1.7879
 2300SOL    MW4 9248   3.141   1.366   0.828 -0.1566  0.2396  0.0529
 2301SOL     OW 9249   2.549   2.488   3.410 -0.1560 -0.5097 -0.0305
 2301SOL    HW2 9250   2.475   2.546   3.426  0.2141  0.0372 -0.2515
 2301SOL    HW3 9251   2.536   2.414   3.469 -0.3512  0.0640  0.6489
 2301SOL    MW4 9252   2.538   2.486   3.420 -0.1328 -0.3617  0.0303
 2302SOL     OW 9253   3.541   2.913   3.781 -0.6029 -0.0218  0.2930
 2302SOL    HW2 9254   3.486   2.986   3.753  0.0046  0.2671 -0.1716
 2302SOL    HW3 9255   3.601   2.898   3.707 -0.0752 -0.3335  0.7781
 2302SOL    MW4 9256   3.542   2.921   3.768 -0.4532 -0.0246  0.2956
 2303SOL     OW 9257   2.756   1.998   2.824  0.3502 -0.5777 -0.1771
 2303SOL    HW2 9258   2.811   1.953   2.760  1.4545 -0.4719  0.6998
 2303SOL    HW3 9259   2.762   2.091   2.800  0.8057 -0.5326  0.1019
 2303SOL    MW4 9260   2.764   2.005   2.812  0.5558 -0.5579 -0.0248
 2304SOL     OW 9261   1.280   0.549   4.241  0.1785  0.0884  0.0119
 2304SOL    HW2 9262   1.257   0.541   4.149  0.7215  0.3095 -0.1387
 2304SOL    HW3 9263   1.372   0.575   4.242  0.1185  0.2932  0.6105
 2304SOL    MW4 9264   1.289   0.551   4.229  0.2424  0.1445  0.0715
 2305SOL     OW 9265   1.370   0.656   3.363 -0.5767 -0.7859  0.5514
 2305SOL    HW2 9266   1.341   0.578   3.409 -0.0687 -1.2040  0.1693
 2305SOL    HW3 9267   1.290   0.695   3.328 -0.8539 -1.0038  0.9387
 2305SOL    MW4 9268   1.356   0.651   3.364 -0.5462 -0.8698  0.5522
 2306SOL     OW 9269   0.289   4.175   3.782 -0.3113 -0.1385  0.3757
 2306SOL    HW2 9270   0.333   4.094   3.758 -1.2716 -0.4701 -0.3237
 2306SOL    HW3 9271   0.359   4.235   3.807  0.3593 -1.3805  1.4916
 2306SOL    MW4 9272   0.304   4.172   3.782 -0.3495 -0.3462  0.4308
 2307SOL     OW 9273   4.230   1.133   0.929  0.0600 -0.4977 -0.4318
 2307SOL    HW2 9274   4.275   1.217   0.931 -0.2192 -0.2254 -3.4525
 2307SOL    HW3 9275   4.299   1.067   0.929  0.2995 -0.2538  0.8608
 2307SOL    MW4 9276   4.245   1.135   0.930  0.0544 -0.4295 -0.6598
 2308SOL     OW 9277   3.658   1.907   4.532  0.1820 -0.1410  0.0226
 2308SOL    HW2 9278   3.731   1.902   4.470 -1.9402 -0.7820 -2.5082
 2308SOL    HW3 9279   3.659   1.998   4.563  0.9785  0.3437 -1.3727
 2308SOL    MW4 9280   3.668   1.919   4.528  0.0069 -0.1618 -0.4959
 2309SOL     OW 9281   2.102   4.400   1.412  0.3811 -0.3200 -0.3017
 2309SOL    HW2 9282   2.037   4.463   1.446 -1.3538 -1.1856 -1.9065
 2309SOL    HW3 9283   2.078   4.317   1.453  1.4960 -0.3247  0.3479
 2309SOL    MW4 9284   2.090   4.398   1.422  0.2995 -0.4349 -0.4278
 2310SOL     OW 9285   0.770   2.931   3.741  0.0662  0.2338  0.1285
 2310SOL    HW2 9286   0.766   3.008   3.684  1.1042 -0.5715 -1.0737
 2310SOL    HW3 9287   0.778   2.967   3.829  0.9121  1.5116 -0.4415
 2310SOL    MW4 9288   0.771   2.946   3.745  0.3148  0.2966 -0.1051
 2311SOL     OW 9289   0.233   1.258   1.041  0.1915 -0.5017 -0.1500
 2311SOL    HW2 9290   0.282   1.179   1.016  0.1070 -0.8155  0.6705
 2311SOL    HW3 9291   0.179   1.231   1.115 -0.3365  0.1593 -0.2888
 2311SOL    MW4 9292   0.233   1.244   1.048  0.1107 -0.4559 -0.0601
 2312SOL     OW 9293   3.439   2.756   2.572 -0.5589  0.5072 -0.0362
 2312SOL    HW2 9294   3.358   2.704   2.573  0.1274 -0.5908 -0.2922
 2312SOL    HW3 9295   3.509   2.692   2.586  0.2716  1.4474  0.2105
 2312SOL    MW4 9296   3.438   2.741   2.574 -0.3586  0.4866 -0.0372
 2313SOL     OW 9297   4.459   0.678   3.251 -0.0915  0.2776 -0.2082
 2313SOL    HW2 9298   4.394   0.698   3.318 -2.6326 -0.0439 -2.5006
 2313SOL    HW3 9299   4.482   0.763   3.213  0.3823  0.3224  0.1667
 2313SOL    MW4 9300   4.454   0.692   3.255 -0.3643  0.2412 -0.4611
 2314SOL     OW 9301   2.514   3.458   3.816  0.0857  0.2569  0.4038
 2314SOL    HW2 9302   2.453   3.391   3.784  1.1946 -0.3081 -0.5340
 2314SOL    HW3 9303   2.461   3.538   3.817 -0.7910 -0.2993 -0.0398
 2314SOL    MW4 9304   2.499   3.460   3.812  0.1161  0.1087  0.2217
 2315SOL     OW 9305   3.914   1.001   3.667 -0.2189 -0.0941 -0.8603
 2315SOL    HW2 9306   3.832   1.023   3.624  0.1011  0.1659 -1.3543
 2315SOL    HW3 9307   3.962   0.949   3.602  0.0219 -0.2097 -0.5936
 2315SOL    MW4 9308   3.910   0.997   3.652 -0.1452 -0.0750 -0.8903
 2316SOL     OW 9309   1.970   1.991   1.748 -0.1342  0.2475 -0.3003
 2316SOL    HW2 9310   1.951   1.916   1.805 -0.2507  0.4571 -0.0643
 2316SOL    HW3 9311   1.952   1.959   1.659  1.8530 -0.6663 -0.3956
 2316SOL    MW4 9312   1.965   1.977   1.744  0.1127  0.1546 -0.2818
 2317SOL     OW 9313   2.567   2.316   2.501 -0.0089  0.5733 -0.0962
 2317SOL    HW2 9314   2.658   2.347   2.500  0.5903 -0.8714  2.8009
 2317SOL    HW3 9315   2.573   2.225   2.529 -2.2959  0.1014 -1.0053
 2317SOL    MW4 9316   2.580   2.308   2.505 -0.2315  0.3204  0.1659
 2318SOL     OW 9317   4.453   1.502   1.633 -0.1607 -0.0229 -0.1851
 2318SOL    HW2 9318   4.411   1.496   1.718 -0.4709 -0.8435 -0.3892
 2318SOL    HW3 9319   4.386   1.543   1.576  1.2296  3.6999  0.7262
 2318SOL    MW4 9320   4.438   1.507   1.636 -0.0186  0.3599 -0.0918
 2319SOL     OW 9321   2.895   1.987   1.084  0.1230  0.2383 -0.7927
 2319SOL    HW2 9322   2.833   2.046   1.042 -1.4327 -0.4070  0.5524
 2319SOL    HW3 9323   2.960   2.045   1.123 -0.8226  1.0253 -0.3610
 2319SOL    MW4 9324   2.895   2.002   1.083 -0.2069  0.2568 -0.5584
 2320SOL     OW 9325   0.873   1.993   1.549  0.4187 -0.3133 -0.1290
 2320SOL    HW2 9326   0.899   2.021   1.461  0.0566 -0.9054 -0.4222
 2320SOL    HW3 9327   0.934   2.039   1.607  1.1083 -0.4672 -0.7254
 2320SOL    MW4 9328   0.884   2.003   1.545  0.4619 -0.4117 -0.2464
 2321SOL     OW 9329   3.234   1.822   4.649  0.4725 -0.0790  0.2813
 2321SOL    HW2 9330   3.275   1.875   4.581  0.2458  0.8273  0.8340
 2321SOL    HW3 9331   3.190   1.886   4.706  1.0307 -0.7804  1.5271
 2321SOL    MW4 9332   3.234   1.838   4.648  0.5164 -0.0520  0.5188
 2322SOL     OW 9333   0.233   2.419   2.388 -0.2416  0.6767 -0.3894
 2322SOL    HW2 9334   0.260   2.446   2.476  0.8003  0.2534 -0.5740
 2322SOL    HW3 9335   0.315   2.413   2.339 -0.7438  0.0921 -1.1559
 2322SOL    MW4 9336   0.247   2.421   2.393 -0.1704  0.5436 -0.5147
 2323SOL     OW 9337   3.465   4.077   0.986  0.2551  0.0029  0.3332
 2323SOL    HW2 9338   3.521   4.010   1.025  0.6044  0.3937  0.5147
 2323SOL    HW3 9339   3.409   4.029   0.925  1.0381 -0.3554 -0.1258
 2323SOL    MW4 9340   3.465   4.062   0.983  0.4046  0.0076  0.2966
 2324SOL     OW 9341   1.925   1.500   1.744  0.0718  0.1314 -0.3003
 2324SOL    HW2 9342   1.914   1.430   1.808 -0.1047 -0.0930 -0.5760
 2324SOL    HW3 9343   2.016   1.493   1.715 -0.1816 -0.5080 -0.9428
 2324SOL    MW4 9344   1.936   1.490   1.749  0.0151  0.0173 -0.4214
 2325SOL     OW 9345   3.396   0.011   3.333  0.4824 -0.3638  0.1103
 2325SOL    HW2 9346   3.315   0.062   3.331 -0.4571 -1.7202  1.2867
 2325SOL    HW3 9347   3.413  -0.012   3.242  0.7305  1.7043 -0.3844
 2325SOL    MW4 9348   3.387   0.014   3.321  0.3915 -0.2699  0.2005
 2326SOL     OW 9349   3.719   1.933   0.671 -0.3617  0.2087 -0.2936
 2326SOL    HW2 9350   3.802   1.972   0.642  0.5347 -1.3773  0.0693
 2326SOL    HW3 9351   3.740   1.893   0.755 -1.7170  0.4940  0.1866
 2326SOL    MW4 9352   3.733   1.933   0.678 -0.4222  0.0372 -0.1824
 2327SOL     OW 9353   3.213   1.630   4.425  0.3916 -0.6829  0.0391
 2327SOL    HW2 9354   3.187   1.554   4.478  1.3929 -0.2849  1.1361
 2327SOL    HW3 9355   3.200   1.705   4.483  1.2227 -0.2097 -0.3794
 2327SOL    MW4 9356   3.208   1.630   4.440  0.6335 -0.5682  0.1292
 2328SOL     OW 9357   2.473   1.199   1.179  0.1832  0.3703  0.2505
 2328SOL    HW2 9358   2.387   1.167   1.206  0.2324  1.5647  1.9147
 2328SOL    HW3 9359   2.455   1.259   1.106 -0.2829 -0.1897 -0.0990
 2328SOL    MW4 9360   2.460   1.202   1.173  0.1280  0.4539  0.4240
 2329SOL     OW 9361   3.780   4.355   4.345 -0.1173  0.2311 -0.1827
 2329SOL    HW2 9362   3.846   4.369   4.277 -0.2570  0.4135 -0.2831
 2329SOL    HW3 9363   3.773   4.440   4.389  0.9320 -0.2543  0.9278
 2329SOL    MW4 9364   3.788   4.368   4.342  0.0026  0.1907 -0.0491
 2330SOL     OW 9365   1.519   3.922   3.914 -0.2213 -0.0368 -0.4500
 2330SOL    HW2 9366   1.535   3.928   3.820  0.4365  1.0219 -0.2808
 2330SOL    HW3 9367   1.429   3.951   3.926  0.5930  2.6758 -0.4656
 2330SOL    MW4 9368   1.509   3.927   3.903 -0.0271  0.4606 -0.4296
 2331SOL     OW 9369   2.700   2.617   4.237 -0.8280 -0.0534  0.0468
 2331SOL    HW2 9370   2.718   2.531   4.275 -0.1534  0.0053 -0.1340
 2331SOL    HW3 9371   2.629   2.653   4.291  0.1197  0.0290  1.2387
 2331SOL    MW4 9372   2.693   2.610   4.249 -0.6137 -0.0346  0.1802
 2332SOL     OW 9373   1.155   3.621   2.657  0.1079  0.3481 -0.2037
 2332SOL    HW2 9374   1.207   3.698   2.681 -0.9989  0.5210  1.7590
 2332SOL    HW3 9375   1.214   3.547   2.671  0.4702  0.6842  0.0735
 2332SOL    MW4 9376   1.170   3.621   2.662  0.0097  0.4151  0.0918
 2333SOL     OW 9377   0.650   0.329   2.004 -0.0096 -0.1664 -0.1408
 2333SOL    HW2 9378   0.656   0.234   1.993  0.5975 -0.3895  1.9482
 2333SOL    HW3 9379   0.568   0.343   2.051 -0.9734  0.5091 -1.9608
 2333SOL    MW4 9380   0.640   0.319   2.009 -0.0567 -0.1068 -0.1051
 2334SOL     OW 9381   3.015   4.343   3.587  0.2730 -0.3597 -0.1292
 2334SOL    HW2 9382   2.971   4.402   3.648 -0.6983 -1.3627  0.1506
 2334SOL    HW3 9383   3.102   4.331   3.624  0.2659  0.3881  0.1434
 2334SOL    MW4 9384   3.020   4.349   3.600  0.1440 -0.3939 -0.0565
 2335SOL     OW 9385   0.778   3.276   0.862  0.1818 -0.0646  0.1789
 2335SOL    HW2 9386   0.790   3.352   0.919  0.1801  1.0840 -1.3438
 2335SOL    HW3 9387   0.689   3.246   0.881 -0.0659  0.7292  0.2860
 2335SOL    MW4 9388   0.768   3.282   0.872  0.1488  0.1917 -0.0079
 2336SOL     OW 9389   0.374   0.800   2.139 -0.5863  0.1295  0.1471
 2336SOL    HW2 9390   0.414   0.749   2.209 -1.9673 -2.1353 -0.6626
 2336SOL    HW3 9391   0.394   0.751   2.059 -2.3656  0.5925 -0.6019
 2336SOL    MW4 9392   0.382   0.787   2.138 -1.0033 -0.1082 -0.0587
 2337SOL     OW 9393   0.124   1.875   0.567 -0.0174  0.3434 -0.9178
 2337SOL    HW2 9394   0.202   1.825   0.545 -0.9968 -1.4691 -0.3851
 2337SOL    HW3 9395   0.124   1.878   0.663 -1.1107 -0.5145 -0.8835
 2337SOL    MW4 9396   0.134   1.869   0.577 -0.2908 -0.0088 -0.8430
 2338SOL     OW 9397   3.586   0.596   2.561  0.4268 -0.0136  0.5423
 2338SOL    HW2 9398   3.608   0.527   2.497 -0.2950 -0.2500  0.5419
 2338SOL    HW3 9399   3.514   0.559   2.611  0.1365  0.6906  0.6424
 2338SOL    MW4 9400   3.580   0.582   2.559  0.2935  0.0482  0.5555
 2339SOL     OW 9401   3.662   0.900   3.175 -0.5078 -0.4095 -0.5357
 2339SOL    HW2 9402   3.658   0.957   3.098 -1.9513  1.0738  0.5724
 2339SOL    HW3 9403   3.657   0.811   3.141 -0.3994  0.2138 -2.1870
 2339SOL    MW4 9404   3.661   0.896   3.161 -0.6838 -0.1315 -0.6073
 2340SOL     OW 9405   2.549   1.885   2.192 -0.3522 -0.2335 -0.6345
 2340SOL    HW2 9406   2.571   1.821   2.124 -0.7922  0.0839 -1.0754
 2340SOL    HW3 9407   2.619   1.951   2.186  1.9451 -2.2812  1.9575
 2340SOL    MW4 9408   2.561   1.886   2.182 -0.1073 -0.4618 -0.3505
 2341SOL     OW 9409   4.305   1.927   2.735 -0.7009  0.1220  0.3306
 2341SOL    HW2 9410   4.281   1.951   2.824 -0.5522 -0.8554  0.6395
 2341SOL    HW3 9411   4.400   1.937   2.732 -0.8218  1.2319 -0.0536
 2341SOL    MW4 9412   4.315   1.931   2.746 -0.6971  0.1395  0.3207
 2342SOL     OW 9413   1.735   2.847   0.679  0.4405 -0.1943 -0.1160
 2342SOL    HW2 9414   1.733   2.848   0.775 -0.3758 -0.2027 -0.1232
 2342SOL    HW3 9415   1.738   2.939   0.654  1.6278 -0.2192 -0.0748
 2342SOL    MW4 9416   1.735   2.860   0.688  0.4895 -0.1988 -0.1115
 2343SOL     OW 9417   3.308   3.786   3.689  0.0706 -0.1995  0.0474
 2343SOL    HW2 9418   3.329   3.737   3.769  3.0747 -0.2974 -0.7391
 2343SOL    HW3 9419   3.265   3.866   3.720 -1.5128 -1.6014  1.5550
 2343SOL    MW4 9420   3.305   3.790   3.704  0.2580 -0.3972  0.1426
 2344SOL     OW 9421   2.453   2.370   4.191 -0.5211  0.7613 -0.2571
 2344SOL    HW2 9422   2.438   2.457   4.155 -0.1451  0.5866 -0.8306
 2344SOL    HW3 9423   2.490   2.319   4.119  1.3559  0.7353  0.6989
 2344SOL    MW4 9424   2.456   2.374   4.177 -0.2239  0.7350 -0.2069
 2345SOL     OW 9425   0.394   3.211   2.539 -0.1570  0.8025 -0.0997
 2345SOL    HW2 9426   0.450   3.266   2.485 -0.4551 -0.0290 -1.2740
 2345SOL    HW3 9427   0.340   3.273   2.589 -0.0694  1.5698 -0.9545
 2345SOL    MW4 9428   0.394   3.227   2.539 -0.1848  0.7942 -0.3674
 2346SOL     OW 9429   3.058   1.047   3.309 -0.1095  0.2249 -0.4415
 2346SOL    HW2 9430   3.069   1.132   3.267 -0.7036  0.9660  0.8973
 2346SOL    HW3 9431   3.109   1.052   3.390 -0.2659 -0.6402 -0.2794
 2346SOL    MW4 9432   3.066   1.059   3.314 -0.2086  0.2085 -0.2439
 2347SOL     OW 9433   3.101   2.780   3.291 -0.8111 -0.2898 -0.1430
 2347SOL    HW2 9434   3.113   2.750   3.200 -0.0947 -1.1014  0.2120
 2347SOL    HW3 9435   3.018   2.829   3.289 -0.9158 -0.4830 -1.1865
 2347SOL    MW4 9436   3.092   2.783   3.279 -0.7305 -0.4222 -0.2339
 2348SOL     OW 9437   0.870   3.139   2.151  0.8330  0.0338 -0.0263
 2348SOL    HW2 9438   0.834   3.222   2.121 -0.0286 -1.0605 -2.1304
 2348SOL    HW3 9439   0.923   3.161   2.227  0.8069  2.5272 -0.7112
 2348SOL    MW4 9440   0.872   3.153   2.157  0.7159  0.2182 -0.3941
 2349SOL     OW 9441   4.022   2.054   1.305  0.0810  0.6125  0.3280
 2349SOL    HW2 9442   4.002   1.992   1.375 -1.2637  0.6074 -0.0386
 2349SOL    HW3 9443   4.027   2.001   1.226  0.1505  0.8122  0.1980
 2349SOL    MW4 9444   4.020   2.039   1.304 -0.0873  0.6380  0.2625
 2350SOL     OW 9445   0.604   3.640   2.293 -0.3552  0.2329  0.1293
 2350SOL    HW2 9446   0.570   3.558   2.329 -1.1664  1.1937  1.6393
 2350SOL    HW3 9447   0.592   3.632   2.199  0.3512 -1.7147  0.1836
 2350SOL    MW4 9448   0.598   3.628   2.286 -0.3691  0.1025  0.3357
 2351SOL     OW 9449   2.965   2.707   4.369  0.0197 -0.3509  0.3383
 2351SOL    HW2 9450   2.883   2.667   4.342 -0.1895 -0.2197  0.7685
 2351SOL    HW3 9451   2.958   2.798   4.342 -0.5004 -0.0417  1.4840
 2351SOL    MW4 9452   2.953   2.714   4.362 -0.0765 -0.2928  0.5460
 2352SOL     OW 9453   3.182   1.033   3.037 -0.2825 -0.1791  0.0656
 2352SOL    HW2 9454   3.109   1.056   3.094  0.1218 -0.6644  0.7956
 2352SOL    HW3 9455   3.251   1.005   3.098  0.1768 -0.6346 -0.6607
 2352SOL    MW4 9456   3.182   1.032   3.053 -0.1686 -0.3031  0.0660
 2353SOL     OW 9457   1.804   3.616   3.389 -0.2383 -0.3933  0.4393
 2353SOL    HW2 9458   1.804   3.560   3.467 -0.2264  0.4678  1.0634
 2353SOL    HW3 9459   1.884   3.593   3.343  0.1056 -0.4236  1.0429
 2353SOL    MW4 9460   1.814   3.606   3.394 -0.1913 -0.2835  0.6013
 2354SOL     OW 9461   3.757   1.655   1.844  0.7078  0.5705  0.3867
 2354SOL    HW2 9462   3.824   1.715   1.812  0.6279  0.1609 -0.5667
 2354SOL    HW3 9463   3.675   1.695   1.816  0.6033  0.5638  0.6867
 2354SOL    MW4 9464   3.755   1.668   1.836  0.6833  0.5156  0.3006
 2355SOL     OW 9465   0.666   3.777   1.465  0.2727 -0.5823 -0.0364
 2355SOL    HW2 9466   0.570   3.778   1.465  0.2805  0.9445 -0.0227
 2355SOL    HW3 9467   0.689   3.734   1.382 -0.4238 -1.0823  0.0292
 2355SOL    MW4 9468   0.656   3.772   1.454  0.1818 -0.4468 -0.0260
 2356SOL     OW 9469   0.358   1.160   3.423  0.4071 -0.0956 -0.0746
 2356SOL    HW2 9470   0.274   1.159   3.377 -0.5898 -0.3630  1.7249
 2356SOL    HW3 9471   0.390   1.249   3.412 -0.7525  0.3856  0.3768
 2356SOL    MW4 9472   0.351   1.172   3.415  0.1226 -0.0674  0.2224
 2357SOL     OW 9473   2.061   3.910   4.149  0.5768  0.0015  0.1575
 2357SOL    HW2 9474   1.971   3.942   4.155 -0.2808 -1.9563 -1.4324
 2357SOL    HW3 9475   2.106   3.948   4.224 -1.4795  1.3158  0.7540
 2357SOL    MW4 9476   2.055   3.919   4.160  0.1926 -0.0837  0.0262
 2358SOL     OW 9477   0.981   2.192   3.642  0.4414  0.2334 -0.1845
 2358SOL    HW2 9478   0.900   2.234   3.671  0.4736 -0.1616  0.4929
 2358SOL    HW3 9479   1.046   2.218   3.708  0.5642 -0.5041 -0.0061
 2358SOL    MW4 9480   0.979   2.201   3.655  0.4618  0.0842 -0.0718
 2359SOL     OW 9481   1.442   2.595   0.871 -0.5448 -0.0540  0.2357
 2359SOL    HW2 9482   1.425   2.653   0.945 -1.0972 -1.3495  1.1465
 2359SOL    HW3 9483   1.370   2.531   0.873 -1.3526  0.7309 -2.2759
 2359SOL    MW4 9484   1.430   2.594   0.881 -0.7242 -0.1214  0.0244
 2360SOL     OW 9485   1.103   2.999   4.125  0.0775 -0.3440  0.3290
 2360SOL    HW2 9486   1.069   3.015   4.037 -1.8321 -0.3663  1.0346
 2360SOL    HW3 9487   1.198   3.003   4.115 -0.1102 -0.3746 -1.7325
 2360SOL    MW4 9488   1.111   3.002   4.112 -0.1992 -0.3510  0.1502
 2361SOL     OW 9489   2.013   4.386   2.107 -0.3408 -0.4596 -0.3726
 2361SOL    HW2 9490   2.103   4.419   2.113 -0.6394  0.2710  0.1427
 2361SOL    HW3 9491   1.998   4.341   2.190 -0.8220  0.3656 -0.0122
 2361SOL    MW4 9492   2.023   4.384   2.118 -0.4437 -0.2542 -0.2568
 2362SOL     OW 9493   3.192   0.486   3.269 -0.5127  0.1391 -0.2141
 2362SOL    HW2 9494   3.177   0.475   3.175 -1.9905  2.6700 -0.3016
 2362SOL    HW3 9495   3.105   0.491   3.307  0.0856  1.9161  0.9592
 2362SOL    MW4 9496   3.179   0.485   3.262 -0.6287  0.7074 -0.0708
 2363SOL     OW 9497   1.583   2.348   2.095  0.7356 -0.5836 -0.1354
 2363SOL    HW2 9498   1.606   2.407   2.023 -1.5441 -0.0523 -0.4681
 2363SOL    HW3 9499   1.511   2.295   2.060  0.3231 -1.0566  1.3975
 2363SOL    MW4 9500   1.576   2.348   2.081  0.3804 -0.5760  0.0229
 2364SOL     OW 9501   1.195   2.017   0.944 -0.2019 -0.4375  0.5094
 2364SOL    HW2 9502   1.287   2.031   0.921 -0.0833 -3.0440 -0.8403
 2364SOL    HW3 9503   1.158   1.976   0.866 -1.9017 -1.6769  1.9429
 2364SOL    MW4 9504   1.203   2.013   0.931 -0.4103 -0.9449  0.5205
 2365SOL     OW 9505   3.727   4.408   3.915 -0.9860 -0.6367  0.2596
 2365SOL    HW2 9506   3.649   4.375   3.870 -0.8619  1.0236 -1.2387
 2365SOL    HW3 9507   3.789   4.334   3.913 -1.7555 -1.2735 -0.4319
 2365SOL    MW4 9508   3.725   4.394   3.908 -1.0712 -0.5021 -0.0296
 2366SOL     OW 9509   4.277   3.572   1.266 -0.0005 -0.0144  0.0918
 2366SOL    HW2 9510   4.284   3.653   1.316 -1.2044  0.2920 -0.2152
 2366SOL    HW3 9511   4.234   3.510   1.325 -0.4181  0.0191 -0.1686
 2366SOL    MW4 9512   4.272   3.575   1.280 -0.2141  0.0303  0.0168
 2367SOL     OW 9513   0.903   1.724   1.439 -0.3985 -0.2459 -0.2313
 2367SOL    HW2 9514   0.925   1.808   1.479 -0.8970  0.4928 -1.4727
 2367SOL    HW3 9515   0.947   1.659   1.494 -1.7193  0.6776  1.9556
 2367SOL    MW4 9516   0.912   1.727   1.451 -0.6385 -0.0266 -0.1066
 2368SOL     OW 9517   1.212   4.458   3.757  0.5602  0.0873 -0.6944
 2368SOL    HW2 9518   1.172   4.542   3.783  0.1877 -0.6373  1.1268
 2368SOL    HW3 9519   1.153   4.392   3.792  0.7607 -0.9680 -2.2773
 2368SOL    MW4 9520   1.199   4.461   3.765  0.5374 -0.1483 -0.6630
 2369SOL     OW 9521   4.348   0.381   0.692 -0.5834 -0.5433  0.5756
 2369SOL    HW2 9522   4.434   0.422   0.691 -1.1476  0.6594 -1.0967
 2369SOL    HW3 9523   4.366   0.287   0.695  0.8230 -0.3670 -1.5465
 2369SOL    MW4 9524   4.362   0.374   0.692 -0.4730 -0.3614  0.0750
 2370SOL     OW 9525   2.045   2.746   4.268  0.1202 -0.4343 -0.1234
 2370SOL    HW2 9526   2.082   2.744   4.180  0.9233 -1.6099  0.2279
 2370SOL    HW3 9527   2.078   2.828   4.306 -2.3292  1.3816 -1.7815
 2370SOL    MW4 9528   2.054   2.757   4.262 -0.0973 -0.3498 -0.2956
 2371SOL     OW 9529   2.997   0.172   0.993 -0.1178 -0.1781 -0.5616
 2371SOL    HW2 9530   2.983   0.204   1.082  0.7845 -2.1375  0.3094
 2371SOL    HW3 9531   3.089   0.194   0.974  0.1451 -1.1627 -0.4177
 2371SOL    MW4 9532   3.007   0.179   1.002  0.0360 -0.5665 -0.4277
 2372SOL     OW 9533   0.687   0.803   3.402 -0.1288  0.5623  0.1043
 2372SOL    HW2 9534   0.649   0.832   3.485  1.5786  1.5503  0.5739
 2372SOL    HW3 9535   0.749   0.872   3.379 -1.2978  0.7847 -2.5221
 2372SOL    MW4 9536   0.691   0.816   3.410 -0.0578  0.7220 -0.1802
 2373SOL     OW 9537   3.668   1.884   4.214 -0.0535 -0.3707 -0.5530
 2373SOL    HW2 9538   3.576   1.859   4.220 -0.0541 -0.2210  0.0506
 2373SOL    HW3 9539   3.668   1.979   4.221  0.3397 -0.5230  1.7714
 2373SOL    MW4 9540   3.656   1.893   4.216 -0.0017 -0.3711 -0.1664
 2374SOL     OW 9541   4.040   2.792   1.857 -0.0948  0.3663 -0.7271
 2374SOL    HW2 9542   4.000   2.810   1.772 -1.5911  2.9817  0.4784
 2374SOL    HW3 9543   4.115   2.852   1.861 -0.0612  0.2880 -0.1723
 2374SOL    MW4 9544   4.045   2.802   1.847 -0.2880  0.7012 -0.4947
 2375SOL     OW 9545   1.693   1.700   4.741 -0.3345  0.6994  0.9581
 2375SOL    HW2 9546   1.665   1.699   4.650  1.6427  1.1171  0.3288
 2375SOL    HW3 9547   1.782   1.665   4.740 -0.4135  0.3665  2.7776
 2375SOL    MW4 9548   1.701   1.695   4.729 -0.0842  0.7106  1.1153
 2376SOL     OW 9549   2.952   2.109   1.772  0.2331 -0.2417 -0.1020
 2376SOL    HW2 9550   2.958   2.179   1.706 -2.1584 -0.4256 -0.5775
 2376SOL    HW3 9551   2.983   2.150   1.853  0.1384  0.9887 -0.6624
 2376SOL    MW4 9552   2.957   2.124   1.774 -0.0949 -0.1035 -0.2388
 2377SOL     OW 9553   1.499   2.716   1.998 -0.6687  0.3608  0.4292
 2377SOL    HW2 9554   1.451   2.662   2.061 -1.8302 -0.3831 -1.0683
 2377SOL    HW3 9555   1.432   2.774   1.961 -0.1969  0.1088 -0.8398
 2377SOL    MW4 9556   1.484   2.717   2.002 -0.7597  0.2294  0.0644
 2378SOL     OW 9557   3.319   1.668   3.694 -0.5762 -0.3738 -0.1497
 2378SOL    HW2 9558   3.325   1.661   3.789 -1.0872 -1.6338 -0.1979
 2378SOL    HW3 9559   3.400   1.629   3.661 -0.1025  0.6526 -0.2205
 2378SOL    MW4 9560   3.330   1.662   3.702 -0.5810 -0.4046 -0.1657
 2379SOL     OW 9561   4.449   3.763   0.743 -0.0661  0.2531  0.0753
 2379SOL    HW2 9562   4.497   3.742   0.663 -0.7551  0.7120 -0.4645
 2379SOL    HW3 9563   4.358   3.742   0.722 -0.1205 -0.5993  1.0823
 2379SOL    MW4 9564   4.443   3.757   0.730 -0.1640  0.2015  0.1369
 2380SOL     OW 9565   2.493   4.028   1.224  0.2807  0.4339  0.2975
 2380SOL    HW2 9566   2.561   4.062   1.165  0.7458 -0.2846  0.4115
 2380SOL    HW3 9567   2.433   3.980   1.166  1.3852 -1.2894  0.5415
 2380SOL    MW4 9568   2.494   4.026   1.208  0.4878  0.1121  0.3448
 2381SOL     OW 9569   1.531   0.240   0.960 -0.2353  0.3177 -0.4187
 2381SOL    HW2 9570   1.510   0.147   0.947  0.8148  0.1740 -1.2110
 2381SOL    HW3 9571   1.488   0.263   1.042 -2.8265 -0.1323 -1.5993
 2381SOL    MW4 9572   1.523   0.231   0.969 -0.4386  0.2393 -0.6791
 2382SOL     OW 9573   0.373   0.432   1.035 -0.2138  0.1291  0.4605
 2382SOL    HW2 9574   0.411   0.464   0.953  0.7780  0.6937  1.1285
 2382SOL    HW3 9575   0.405   0.493   1.101  0.3133 -1.2534  1.5057
 2382SOL    MW4 9576   0.382   0.444   1.033 -0.0134  0.0212  0.6865
 2383SOL     OW 9577   3.865   4.664   0.439  0.7933 -0.1325 -0.0327
 2383SOL    HW2 9578   3.922   4.722   0.388  0.8536 -1.3408 -1.3653
 2383SOL    HW3 9579   3.880   4.577   0.403 -2.4905 -0.3759 -0.9963
 2383SOL    MW4 9580   3.874   4.660   0.428  0.3681 -0.3238 -0.3356
 2384SOL     OW 9581   1.667   2.282   3.731  0.1843 -0.4024 -0.6289
 2384SOL    HW2 9582   1.671   2.191   3.761 -1.9555 -0.5571 -0.6885
 2384SOL    HW3 9583   1.621   2.278   3.647  1.0687  0.6267 -1.1778
 2384SOL    MW4 9584   1.661   2.269   3.724  0.0187 -0.2871 -0.7093
 2385SOL     OW 9585   3.681   3.846   3.324 -0.4921 -0.0675 -0.3316
 2385SOL    HW2 9586   3.754   3.846   3.387 -0.5142 -1.4262 -0.2960
 2385SOL    HW3 9587   3.637   3.930   3.339  0.0301  0.0095  0.8431
 2385SOL    MW4 9588   3.685   3.857   3.334 -0.4261 -0.2367 -0.1721
 2386SOL     OW 9589   4.019   1.374   2.424 -0.3202  0.2418 -0.7799
 2386SOL    HW2 9590   3.934   1.413   2.407 -0.8638 -1.1922 -1.4515
 2386SOL    HW3 9591   4.044   1.334   2.341  1.4055  1.3641 -0.8349
 2386SOL    MW4 9592   4.011   1.374   2.411 -0.1640  0.2007 -0.8759
 2387SOL     OW 9593   3.501   0.914   0.301 -0.1904  0.8503  0.0786
 2387SOL    HW2 9594   3.417   0.908   0.348 -0.0134 -0.7902  0.2445
 2387SOL    HW3 9595   3.562   0.950   0.365 -1.0246  3.1581 -0.4057
 2387SOL    MW4 9596   3.498   0.918   0.316 -0.2770  0.9383  0.0366
 2388SOL     OW 9597   1.688   3.135   0.678 -0.2364 -0.5091 -0.2917
 2388SOL    HW2 9598   1.614   3.190   0.657 -0.5789 -0.4182  1.0974
 2388SOL    HW3 9599   1.761   3.173   0.630 -0.3787  1.4104  0.9430
 2388SOL    MW4 9600   1.688   3.147   0.669 -0.3004 -0.2439  0.0545
 2389SOL     OW 9601   2.789   2.029   2.323 -0.3598  0.5729  0.1918
 2389SOL    HW2 9602   2.850   2.093   2.360 -0.4902  0.0543  1.3253
 2389SOL    HW3 9603   2.787   2.050   2.229  1.9904  0.2156  0.0319
 2389SOL    MW4 9604   2.797   2.040   2.315 -0.0670  0.4573  0.3200
 2390SOL     OW 9605   2.155   3.339   1.099  0.7313  0.2375  0.1969
 2390SOL    HW2 9606   2.081   3.339   1.038  1.4175  2.6742 -0.7279
 2390SOL    HW3 9607   2.211   3.268   1.070 -0.8644 -1.1380  0.4295
 2390SOL    MW4 9608   2.152   3.330   1.088  0.6113  0.3777  0.1056
 2391SOL     OW 9609   0.625   3.443   3.768 -0.9808 -0.1465 -0.0182
 2391SOL    HW2 9610   0.580   3.362   3.745 -1.1952 -0.1315  0.3464
 2391SOL    HW3 9611   0.643   3.435   3.862  0.4768 -0.5009 -0.3042
 2391SOL    MW4 9612   0.622   3.431   3.778 -0.8167 -0.1912 -0.0079
 2392SOL     OW 9613   1.317   2.611   1.603 -0.2635  0.0099  0.3136
 2392SOL    HW2 9614   1.406   2.644   1.590  0.3804 -1.2615  1.3975
 2392SOL    HW3 9615   1.282   2.599   1.515  0.8917 -0.1417 -0.1227
 2392SOL    MW4 9616   1.324   2.614   1.590 -0.0263 -0.1779  0.3990
 2393SOL     OW 9617   3.778   1.695   2.417  0.2672  0.4398  0.7680
 2393SOL    HW2 9618   3.718   1.761   2.383 -0.5216  0.1339  1.5323
 2393SOL    HW3 9619   3.733   1.612   2.401  2.3732 -0.1565 -2.5028
 2393SOL    MW4 9620   3.764   1.693   2.411  0.4411  0.3208  0.4370
 2394SOL     OW 9621   1.521   2.035   2.361  0.0241  0.5753 -0.2413
 2394SOL    HW2 9622   1.585   2.055   2.293  0.1993 -0.1339 -0.2871
 2394SOL    HW3 9623   1.549   1.951   2.397 -0.1382  0.8829  0.6231
 2394SOL    MW4 9624   1.533   2.026   2.357  0.0257  0.5224 -0.1330
 2395SOL     OW 9625   1.848   2.127   2.738 -0.3756 -0.0509  0.3687
 2395SOL    HW2 9626   1.821   2.138   2.829  0.3261 -1.0372  0.7110
 2395SOL    HW3 9627   1.810   2.202   2.692 -0.3673  0.6973  1.5551
 2395SOL    MW4 9628   1.840   2.138   2.743 -0.2820 -0.0823  0.5703
 2396SOL     OW 9629   1.013   4.496   3.998  0.0947 -0.2302 -0.6430
 2396SOL    HW2 9630   1.012   4.576   4.051 -0.3178 -0.7327  0.0957
 2396SOL    HW3 9631   0.937   4.446   4.028  1.5402 -1.8609  0.3304
 2396SOL    MW4 9632   1.003   4.500   4.009  0.2310 -0.5121 -0.4172
 2397SOL     OW 9633   0.015   3.648   1.938 -0.1114 -0.1911  0.4793
 2397SOL    HW2 9634   0.070   3.570   1.926  1.1142  1.0588 -2.5222
 2397SOL    HW3 9635  -0.055   3.638   1.873 -1.5552 -0.1034  1.9800
 2397SOL    MW4 9636   0.013   3.636   1.927 -0.1402 -0.0145  0.2813
 2398SOL     OW 9637   4.172   3.091   0.815 -0.3298  0.1483  0.3648
 2398SOL    HW2 9638   4.130   3.053   0.892 -0.2859 -0.8254 -0.0828
 2398SOL    HW3 9639   4.265   3.091   0.836 -0.3547  0.2750  0.4789
 2398SOL    MW4 9640   4.178   3.086   0.828 -0.3276  0.0365  0.3208
 2399SOL     OW 9641   2.937   3.153   1.403 -0.3234  0.2342  0.1263
 2399SOL    HW2 9642   3.022   3.146   1.360  0.3072 -0.7643  1.4793
 2399SOL    HW3 9643   2.949   3.222   1.468  0.0394 -1.1656  1.5808
 2399SOL    MW4 9644   2.950   3.161   1.406 -0.1924 -0.0825  0.4966
 2400SOL     OW 9645   1.056   3.082   3.851 -0.1397  0.6171 -0.1231
 2400SOL    HW2 9646   1.074   2.999   3.806 -0.4183 -0.5924  1.9365
 2400SOL    HW3 9647   0.962   3.097   3.838 -0.5317 -0.5081  1.2805
 2400SOL    MW4 9648   1.046   3.073   3.843 -0.2282  0.3092  0.3338
 2401SOL     OW 9649   2.170   2.488   3.257  0.0722 -0.1212  0.0726
 2401SOL    HW2 9650   2.086   2.457   3.223  0.0577 -2.4235  2.0253
 2401SOL    HW3 9651   2.215   2.525   3.181 -1.7174 -1.0789 -1.4960
 2401SOL    MW4 9652   2.165   2.489   3.242 -0.1659 -0.5512  0.1230
 2402SOL     OW 9653   3.355   3.614   1.532 -0.6181  0.0515  0.2541
 2402SOL    HW2 9654   3.427   3.669   1.562 -0.3015 -0.0366 -0.3456
 2402SOL    HW3 9655   3.299   3.604   1.609  0.8559 -1.2216  1.2044
 2402SOL    MW4 9656   3.357   3.620   1.546 -0.3819 -0.1280  0.3003
 2403SOL     OW 9657   1.005   4.134   2.199 -0.0518 -0.2217  0.4096
 2403SOL    HW2 9658   1.038   4.209   2.149  1.5769 -0.9928  0.2632
 2403SOL    HW3 9659   1.064   4.129   2.274 -0.2999 -1.2026  0.5389
 2403SOL    MW4 9660   1.017   4.143   2.202  0.1304 -0.4525  0.4075
 2404SOL     OW 9661   0.780   1.688   4.353 -0.3381 -0.3458 -0.1900
 2404SOL    HW2 9662   0.699   1.728   4.322 -0.4656 -0.0147  0.5377
 2404SOL    HW3 9663   0.833   1.674   4.275 -1.1754 -0.7381 -0.6891
 2404SOL    MW4 9664   0.776   1.691   4.339 -0.4653 -0.3539 -0.1593
 2405SOL     OW 9665   3.787   0.028   1.455 -0.1617  0.1654 -0.4335
 2405SOL    HW2 9666   3.878   0.000   1.452 -0.0740  0.3510  0.4719
 2405SOL    HW3 9667   3.787   0.116   1.417  0.2184  0.6286  0.6317
 2405SOL    MW4 9668   3.799   0.036   1.450 -0.0999  0.2510 -0.1736
 2406SOL     OW 9669   0.071   4.235   2.651  0.3509 -0.1552  0.4306
 2406SOL    HW2 9670   0.031   4.320   2.662 -1.2832 -0.8553  0.0230
 2406SOL    HW3 9671   0.137   4.230   2.720  0.2850  1.3225  0.6110
 2406SOL    MW4 9672   0.075   4.245   2.661  0.1266 -0.0525  0.4008
 2407SOL     OW 9673   2.604   3.481   4.075 -0.4184  0.1927 -0.1297
 2407SOL    HW2 9674   2.573   3.458   3.988 -0.5300  1.3268 -0.3980
 2407SOL    HW3 9675   2.551   3.428   4.134 -1.0295  0.1440 -0.7128
 2407SOL    MW4 9676   2.593   3.471   4.071 -0.5138  0.3357 -0.2418
 2408SOL     OW 9677   0.500   0.809   1.612 -0.0233 -0.0065  0.2193
 2408SOL    HW2 9678   0.487   0.792   1.705  1.9781  0.7425  0.6577
 2408SOL    HW3 9679   0.587   0.774   1.593 -0.6785 -0.7639 -1.5335
 2408SOL    MW4 9680   0.510   0.802   1.622  0.1543 -0.0076  0.0459
 2409SOL     OW 9681   1.522   0.573   3.130 -0.1620 -0.1138 -0.0235
 2409SOL    HW2 9682   1.614   0.598   3.121  0.0789 -1.1325 -0.5227
 2409SOL    HW3 9683   1.493   0.616   3.211  0.5465  0.8012 -0.2488
 2409SOL    MW4 9684   1.531   0.582   3.140 -0.0367 -0.1274 -0.1190
 2410SOL     OW 9685   1.742   0.061   0.596  0.1692  0.0928  0.6784
 2410SOL    HW2 9686   1.781   0.137   0.638 -1.1844  2.5454 -2.2861
 2410SOL    HW3 9687   1.810   0.030   0.536 -0.5803  1.2503 -0.7881
 2410SOL    MW4 9688   1.756   0.067   0.594 -0.1085  0.5691  0.0938
 2411SOL     OW 9689   1.031   3.017   0.727  0.3834 -0.4719  0.3947
 2411SOL    HW2 9690   0.941   3.036   0.700  1.1074 -0.5913 -2.3197
 2411SOL    HW3 9691   1.026   2.933   0.771 -0.8436 -0.4875  0.2327
 2411SOL    MW4 9692   1.018   3.009   0.729  0.3170 -0.4895  0.0152
 2412SOL     OW 9693   1.599   4.632   3.802 -1.1332 -0.3266 -0.2104
 2412SOL    HW2 9694   1.507   4.646   3.826 -1.4240 -0.9562 -0.9654
 2412SOL    HW3 9695   1.635   4.582   3.876 -1.4915 -0.4022 -0.0841
 2412SOL    MW4 9696   1.592   4.627   3.815 -1.2188 -0.4196 -0.2935
 2413SOL     OW 9697   4.460   4.349   4.248  0.6190 -0.0335  0.0309
 2413SOL    HW2 9698   4.374   4.310   4.236  0.9669 -1.0533  0.7801
 2413SOL    HW3 9699   4.493   4.312   4.330  2.1135 -0.3001 -0.6621
 2413SOL    MW4 9700   4.453   4.339   4.257  0.8626 -0.2031  0.0386
 2414SOL     OW 9701   3.095   1.373   3.642  0.0103  0.1567 -0.3986
 2414SOL    HW2 9702   3.115   1.443   3.581 -1.4215  0.6193 -0.3669
 2414SOL    HW3 9703   3.126   1.404   3.727  0.9354  0.0136 -0.6853
 2414SOL    MW4 9704   3.101   1.386   3.645 -0.0565  0.1990 -0.4323
 2415SOL     OW 9705   4.191   0.539   1.203 -0.3669 -0.0015 -0.6328
 2415SOL    HW2 9706   4.274   0.540   1.250 -1.3955 -0.7775  1.3026
 2415SOL    HW3 9707   4.209   0.493   1.122  0.8685 -1.0471  0.2170
 2415SOL    MW4 9708   4.204   0.533   1.199 -0.3390 -0.2418 -0.2652
 2416SOL     OW 9709   1.048   2.835   1.261  0.1100  0.0795 -0.3961
 2416SOL    HW2 9710   1.103   2.768   1.302 -1.1190 -0.9528 -0.3952
 2416SOL    HW3 9711   0.977   2.785   1.220 -2.0865  1.5098  1.5135
 2416SOL    MW4 9712   1.046   2.819   1.261 -0.3420  0.1318 -0.1440
 2417SOL     OW 9713   1.843   1.007   2.185  0.4933 -0.2550 -0.1577
 2417SOL    HW2 9714   1.845   0.978   2.093 -2.1385 -1.1535  0.0421
 2417SOL    HW3 9715   1.886   1.092   2.184 -1.5094  0.7795 -2.6397
 2417SOL    MW4 9716   1.849   1.014   2.173 -0.1181 -0.2371 -0.4590
 2418SOL     OW 9717   1.204   1.157   3.131  0.4320  0.1183  0.3395
 2418SOL    HW2 9718   1.227   1.248   3.112 -0.2273  0.1687 -0.2214
 2418SOL    HW3 9719   1.289   1.114   3.146  0.7598  0.7661  0.3600
 2418SOL    MW4 9720   1.218   1.163   3.130  0.3883  0.2104  0.2680
 2419SOL     OW 9721   1.968   3.300   1.981 -0.0457  0.4662  0.3629
 2419SOL    HW2 9722   1.888   3.257   1.953  0.2492  0.2609 -0.1724
 2419SOL    HW3 9723   2.037   3.236   1.964  0.2444  0.6889  0.7028
 2419SOL    MW4 9724   1.967   3.286   1.975  0.0315  0.4685  0.3372
 2420SOL     OW 9725   1.000   1.131   3.970 -0.2755  0.1689  0.4316
 2420SOL    HW2 9726   1.039   1.206   4.015 -1.1773  0.6957  0.3563
 2420SOL    HW3 9727   0.908   1.133   3.995 -0.6752  0.1301 -0.9583
 2420SOL    MW4 9728   0.993   1.141   3.979 -0.4472  0.2333  0.2382
 2421SOL     OW 9729   2.212   2.419   2.820  0.5100  0.2989  0.5865
 2421SOL    HW2 9730   2.288   2.417   2.762 -1.4021 -2.7046 -1.9407
 2421SOL    HW3 9731   2.214   2.335   2.865 -0.9267  0.5140  1.0838
 2421SOL    MW4 9732   2.223   2.408   2.819  0.0682 -0.0691  0.3185
 2422SOL     OW 9733   3.272   1.500   1.061 -0.3058  0.2418  0.0170
 2422SOL    HW2 9734   3.206   1.559   1.095 -0.9731 -0.0826 -0.6945
 2422SOL    HW3 9735   3.229   1.454   0.989  0.9624  0.6645 -1.0407
 2422SOL    MW4 9736   3.258   1.501   1.056 -0.2265  0.2548 -0.2164
 2423SOL     OW 9737   2.396   2.453   1.597  0.5532  0.3178  0.1115
 2423SOL    HW2 9738   2.382   2.480   1.688  1.0501  0.1372  0.2434
 2423SOL    HW3 9739   2.427   2.532   1.553  1.3544  0.1381  0.3448
 2423SOL    MW4 9740   2.399   2.467   1.603  0.7243  0.2701  0.1596
 2424SOL     OW 9741   2.147   0.452   4.409  0.6128 -0.9844 -0.1222
 2424SOL    HW2 9742   2.194   0.505   4.345  1.7878 -0.6105  1.0340
 2424SOL    HW3 9743   2.215   0.399   4.451  0.2135  0.4724  2.4551
 2424SOL    MW4 9744   2.162   0.452   4.406  0.7150 -0.7429  0.3705
 2425SOL     OW 9745   3.829   2.087   0.942 -0.1523  0.5411  0.0469
 2425SOL    HW2 9746   3.845   2.092   0.847 -0.2958 -0.9205 -0.0646
 2425SOL    HW3 9747   3.740   2.053   0.950  0.4528 -0.9538  0.6937
 2425SOL    MW4 9748   3.820   2.083   0.930 -0.0913  0.1512  0.1175
 2426SOL     OW 9749   2.372   3.822   0.808 -0.2526 -0.0172  0.4251
 2426SOL    HW2 9750   2.449   3.876   0.790  0.3047 -0.1729  2.2693
 2426SOL    HW3 9751   2.381   3.748   0.748 -0.8419  1.6972 -1.8775
 2426SOL    MW4 9752   2.383   3.819   0.798 -0.2568  0.1886  0.3647
 2427SOL     OW 9753   1.785   3.035   3.940 -0.0123  0.3773  0.4904
 2427SOL    HW2 9754   1.769   2.954   3.989 -0.1171  0.5348  0.7199
 2427SOL    HW3 9755   1.862   3.017   3.886 -0.7601 -0.2806 -0.3647
 2427SOL    MW4 9756   1.793   3.022   3.940 -0.1248  0.3114  0.4079
 2428SOL     OW 9757   2.434   2.969   1.368 -0.3819 -0.4688 -0.1950
 2428SOL    HW2 9758   2.510   2.966   1.310 -1.3001  0.3888 -1.4670
 2428SOL    HW3 9759   2.444   3.051   1.416 -0.5605 -0.2924 -0.4558
 2428SOL    MW4 9760   2.445   2.979   1.367 -0.5264 -0.3321 -0.3972
 2429SOL     OW 9761   3.775   3.863   1.503 -0.1235 -0.2945  0.2058
 2429SOL    HW2 9762   3.692   3.897   1.472  0.6965  0.0560 -1.6900
 2429SOL    HW3 9763   3.809   3.812   1.429  1.0947 -0.8611  1.1342
 2429SOL    MW4 9764   3.769   3.861   1.489  0.1452 -0.3228  0.0782
 2430SOL     OW 9765   1.808   0.596   1.632  0.0375  0.2521  0.2173
 2430SOL    HW2 9766   1.894   0.601   1.591 -0.3066  0.2605 -0.4971
 2430SOL    HW3 9767   1.783   0.504   1.627 -0.5808  0.4598 -0.7896
 2430SOL    MW4 9768   1.816   0.585   1.626 -0.0895  0.2806 -0.0098
 2431SOL     OW 9769   3.655   4.042   1.970 -0.0195  0.2474  0.0270
 2431SOL    HW2 9770   3.628   3.950   1.967  0.7307  0.0455 -1.2746
 2431SOL    HW3 9771   3.598   4.086   1.907  0.8190  0.3109 -0.7151
 2431SOL    MW4 9772   3.644   4.036   1.961  0.1900  0.2284 -0.2427
 2432SOL     OW 9773   3.320   2.557   2.124 -0.2573 -0.2068 -0.1366
 2432SOL    HW2 9774   3.331   2.471   2.165  0.2637 -0.7621 -1.4203
 2432SOL    HW3 9775   3.399   2.569   2.071 -1.0565  0.3727 -1.2211
 2432SOL    MW4 9776   3.332   2.547   2.123 -0.2942 -0.2038 -0.4489
 2433SOL     OW 9777   0.386   4.001   1.828 -0.3453 -0.2827  0.3437
 2433SOL    HW2 9778   0.333   3.923   1.812 -0.7563  0.1396 -0.3683
 2433SOL    HW3 9779   0.325   4.065   1.864 -0.0789 -0.1679  0.5989
 2433SOL    MW4 9780   0.371   3.999   1.831 -0.3644 -0.2120  0.2835
 2434SOL     OW 9781   3.229   4.135   2.397 -0.4757  0.2280 -0.4642
 2434SOL    HW2 9782   3.291   4.079   2.350  0.3337  1.3479 -0.7554
 2434SOL    HW3 9783   3.203   4.201   2.333 -0.1988  1.1224  0.3332
 2434SOL    MW4 9784   3.234   4.136   2.382 -0.3321  0.4930 -0.3972
 2435SOL     OW 9785   0.782   2.903   2.030 -0.3026 -0.6290  0.2866
 2435SOL    HW2 9786   0.814   2.989   2.058  0.1280 -0.0616 -1.8750
 2435SOL    HW3 9787   0.750   2.862   2.110 -0.5027  1.5489  1.3457
 2435SOL    MW4 9788   0.782   2.909   2.044 -0.2722 -0.2668  0.1411
 2436SOL     OW 9789   1.729   2.861   0.953 -0.1516  0.1272 -0.3974
 2436SOL    HW2 9790   1.759   2.780   0.994  0.3023  0.1763 -0.6306
 2436SOL    HW3 9791   1.719   2.922   1.026 -0.2485 -0.0620 -0.2523
 2436SOL    MW4 9792   1.732   2.859   0.968 -0.1045  0.1085 -0.4090
 2437SOL     OW 9793   2.365   2.074   2.078  0.2142  0.6770  0.3649
 2437SOL    HW2 9794   2.362   2.161   2.117  3.0366  1.0400 -0.1180
 2437SOL    HW3 9795   2.434   2.028   2.128 -0.5150 -0.9317 -0.0650
 2437SOL    MW4 9796   2.374   2.079   2.090  0.4902  0.5126  0.2444
 2438SOL     OW 9797   3.432   4.571   1.450  0.3690 -0.1899 -0.1309
 2438SOL    HW2 9798   3.363   4.581   1.385 -0.4375  0.7102  0.8517
 2438SOL    HW3 9799   3.463   4.660   1.467  1.0710 -0.4893  0.1825
 2438SOL    MW4 9800   3.427   4.584   1.444  0.3552 -0.1111  0.0402
 2439SOL     OW 9801   3.837   1.556   2.674 -0.3086  0.3216  0.1081
 2439SOL    HW2 9802   3.744   1.563   2.693 -0.2214 -0.0326  0.6695
 2439SOL    HW3 9803   3.864   1.646   2.654 -0.6100  0.5413  0.6837
 2439SOL    MW4 9804   3.829   1.569   2.674 -0.3366  0.3037  0.2582
 2440SOL     OW 9805   3.910   4.448   1.064  0.5100  0.6054  0.3984
 2440SOL    HW2 9806   3.967   4.503   1.010 -0.6818  1.4448 -0.0243
 2440SOL    HW3 9807   3.930   4.359   1.037  2.9027  0.7767  1.5164
 2440SOL    MW4 9808   3.920   4.444   1.053  0.6683  0.7386  0.4902
 2441SOL     OW 9809   2.958   2.780   2.851 -0.2373 -0.1475  0.3798
 2441SOL    HW2 9810   2.880   2.753   2.899 -0.4537 -1.0867 -0.4868
 2441SOL    HW3 9811   2.924   2.824   2.773  0.0957 -0.5597  0.0003
 2441SOL    MW4 9812   2.943   2.782   2.847 -0.2222 -0.3259  0.2151
 2442SOL     OW 9813   2.609   1.226   1.592  0.1966  0.4197  0.2113
 2442SOL    HW2 9814   2.698   1.260   1.602 -0.4147  1.9815  0.3157
 2442SOL    HW3 9815   2.622   1.143   1.546  1.6951  0.7190  0.0406
 2442SOL    MW4 9816   2.623   1.219   1.587  0.3133  0.6653  0.2027
 2443SOL     OW 9817   1.533   0.535   1.943 -0.7858  0.4306 -0.0784
 2443SOL    HW2 9818   1.516   0.621   1.903  1.2971  0.3896 -1.1059
 2443SOL    HW3 9819   1.507   0.546   2.034 -0.9950  2.0231 -0.3072
 2443SOL    MW4 9820   1.527   0.548   1.950 -0.5386  0.6353 -0.2441
 2444SOL     OW 9821   4.225   0.337   3.910  0.1648 -0.1889 -0.1613
 2444SOL    HW2 9822   4.165   0.298   3.973  0.4493  1.2749  1.0410
 2444SOL    HW3 9823   4.281   0.265   3.883 -0.1793 -0.9166  1.0191
 2444SOL    MW4 9824   4.225   0.323   3.915  0.1574 -0.0918  0.1531
 2445SOL     OW 9825   2.358   0.804   1.522  0.2527  0.3189  0.4349
 2445SOL    HW2 9826   2.432   0.770   1.572 -0.7564 -0.8049  1.1856
 2445SOL    HW3 9827   2.340   0.890   1.560 -0.7624 -0.6927  2.3013
 2445SOL    MW4 9828   2.365   0.811   1.533 -0.0143  0.0372  0.7800
 2446SOL     OW 9829   4.330   1.739   3.532  0.2662  0.7766 -0.1153
 2446SOL    HW2 9830   4.268   1.681   3.576 -0.6455  2.4604  0.8671
 2446SOL    HW3 9831   4.282   1.774   3.457  0.9839 -0.1153 -1.0060
 2446SOL    MW4 9832   4.315   1.736   3.528  0.2408  0.8811 -0.1030
 2447SOL     OW 9833   4.100   0.886   2.346 -0.1138 -0.2895  0.5723
 2447SOL    HW2 9834   4.108   0.801   2.302  0.5361  0.2158 -0.3039
 2447SOL    HW3 9835   4.035   0.871   2.415 -0.8698 -1.2033 -0.3172
 2447SOL    MW4 9836   4.092   0.873   2.349 -0.1278 -0.3434  0.3393
 2448SOL     OW 9837   0.988   0.287   4.521 -0.2209  1.0696 -0.1450
 2448SOL    HW2 9838   1.082   0.291   4.505 -0.1052 -0.0817  0.2171
 2448SOL    HW3 9839   0.974   0.347   4.595  0.4241  0.2734  0.6413
 2448SOL    MW4 9840   0.998   0.296   4.529 -0.1205  0.8126  0.0057
 2449SOL     OW 9841   0.794   1.837   0.860  0.2125  0.7123  0.5120
 2449SOL    HW2 9842   0.779   1.742   0.853  0.7687  0.6630  0.0366
 2449SOL    HW3 9843   0.710   1.871   0.890 -0.4311  0.2446 -0.7110
 2449SOL    MW4 9844   0.781   1.829   0.863  0.2009  0.6440  0.2880
 2450SOL     OW 9845   1.884   1.764   1.875  0.0804  0.6615 -0.2008
 2450SOL    HW2 9846   1.878   1.694   1.810  0.8621  0.5134 -0.1117
 2450SOL    HW3 9847   1.926   1.724   1.950  1.0936  1.3872 -0.3744
 2450SOL    MW4 9848   1.889   1.749   1.876  0.3172  0.7377 -0.2121
 2451SOL     OW 9849   3.712   1.379   0.896  0.4222  0.2000  0.6715
 2451SOL    HW2 9850   3.803   1.370   0.924  1.0101  1.2305 -0.8316
 2451SOL    HW3 9851   3.681   1.457   0.941  1.1168  1.3749 -0.8060
 2451SOL    MW4 9852   3.720   1.388   0.905  0.5915  0.4911  0.2782
 2452SOL     OW 9853   1.746   1.863   4.011  0.2784 -0.3977  0.2413
 2452SOL    HW2 9854   1.821   1.825   3.965 -0.0200 -1.0851  0.3242
 2452SOL    HW3 9855   1.785   1.907   4.087  0.8066  1.0232 -0.8253
 2452SOL    MW4 9856   1.761   1.864   4.015  0.3089 -0.3009  0.1116
 2453SOL     OW 9857   0.624   0.680   2.627  0.2008 -0.3570 -0.3363
 2453SOL    HW2 9858   0.690   0.634   2.574  1.4226  0.4961  0.4197
 2453SOL    HW3 9859   0.548   0.622   2.625  0.7258 -1.0324 -1.8020
 2453SOL    MW4 9860   0.623   0.666   2.620  0.4313 -0.3335 -0.4296
 2454SOL     OW 9861   2.122   1.279   3.038 -0.2454 -0.3703 -0.0376
 2454SOL    HW2 9862   2.167   1.250   3.117  0.5711  0.1173 -0.3228
 2454SOL    HW3 9863   2.039   1.232   3.039 -0.3559 -0.1560  1.2560
 2454SOL    MW4 9864   2.117   1.269   3.049 -0.1521 -0.2776  0.0951
 2455SOL     OW 9865   2.311   3.884   1.059  0.3436 -0.3170  0.4949
 2455SOL    HW2 9866   2.255   3.819   1.101  0.3782 -0.3405  0.5047
 2455SOL    HW3 9867   2.320   3.853   0.968 -1.8734  1.1042 -0.2431
 2455SOL    MW4 9868   2.305   3.871   1.052  0.0556 -0.1326  0.3989
 2456SOL     OW 9869   0.375   3.620   3.518 -0.0458  0.0388 -0.1813
 2456SOL    HW2 9870   0.408   3.626   3.607 -0.4753  0.8399 -0.0772
 2456SOL    HW3 9871   0.364   3.526   3.503  0.7309 -0.1411  0.3444
 2456SOL    MW4 9872   0.378   3.608   3.528 -0.0001  0.1209 -0.0982
 2457SOL     OW 9873   1.548   4.144   1.702 -0.5101  0.0227 -0.0913
 2457SOL    HW2 9874   1.487   4.130   1.629  0.4699 -0.3020 -0.8655
 2457SOL    HW3 9875   1.633   4.158   1.659  0.3194 -1.4563  1.0456
 2457SOL    MW4 9876   1.551   4.144   1.686 -0.2713 -0.2155 -0.0435
 2458SOL     OW 9877   2.940   1.160   0.867  0.3623  0.4633  0.6253
 2458SOL    HW2 9878   2.886   1.116   0.933 -0.0576  0.3314  0.1985
 2458SOL    HW3 9879   2.973   1.089   0.812 -1.3102  0.7486 -0.8082
 2458SOL    MW4 9880   2.937   1.145   0.868  0.0858  0.4835  0.3799
 2459SOL     OW 9881   4.236   2.216   1.286 -0.1242  0.1702  0.7703
 2459SOL    HW2 9882   4.157   2.164   1.302 -0.2628  0.0436 -0.3091
 2459SOL    HW3 9883   4.309   2.156   1.305 -0.2812  0.1234  1.2390
 2459SOL    MW4 9884   4.235   2.201   1.291 -0.1631  0.1473  0.6897
 2460SOL     OW 9885   3.835   2.094   2.631 -0.3192  0.5046  0.1836
 2460SOL    HW2 9886   3.861   2.004   2.647 -1.1909  0.1646 -0.2604
 2460SOL    HW3 9887   3.913   2.146   2.649  0.4428 -0.4234 -0.4436
 2460SOL    MW4 9888   3.849   2.089   2.635 -0.3338  0.3374  0.0422
 2461SOL     OW 9889   2.453   2.708   3.720  0.1812  0.1731  0.0577
 2461SOL    HW2 9890   2.384   2.762   3.680  0.7370  1.6856  1.0883
 2461SOL    HW3 9891   2.407   2.636   3.762 -0.4258 -1.5777 -3.4305
 2461SOL    MW4 9892   2.438   2.706   3.720  0.1743  0.1419 -0.2666
 2462SOL     OW 9893   0.348   0.946   2.900 -0.4284  0.0401 -0.0761
 2462SOL    HW2 9894   0.316   0.942   2.990 -0.2027  0.3281  0.0156
 2462SOL    HW3 9895   0.439   0.917   2.906 -0.3230  0.3550 -0.1678
 2462SOL    MW4 9896   0.355   0.942   2.913 -0.3847  0.1197 -0.0761
 2463SOL     OW 9897   1.065   1.367   3.770 -0.1587 -0.5052  0.1161
 2463SOL    HW2 9898   1.063   1.413   3.686 -0.3802  0.9953  0.9127
 2463SOL    HW3 9899   0.973   1.352   3.792 -0.1075 -0.7689  0.1546
 2463SOL    MW4 9900   1.053   1.371   3.762 -0.1812 -0.3419  0.2265
 2464SOL     OW 9901   3.016   1.453   4.277  0.2455  0.0549  0.5540
 2464SOL    HW2 9902   3.005   1.545   4.300 -0.6549  0.0636  0.0991
 2464SOL    HW3 9903   3.108   1.445   4.251 -0.5463  1.5739 -2.8814
 2464SOL    MW4 9904   3.027   1.464   4.277  0.0219  0.2564  0.0405
 2465SOL     OW 9905   1.246   1.316   1.376 -0.0044 -0.0251 -0.1538
 2465SOL    HW2 9906   1.248   1.403   1.416  0.0206  0.4820 -1.2454
 2465SOL    HW3 9907   1.240   1.256   1.450  1.8497  0.8056  0.7205
 2465SOL    MW4 9908   1.246   1.320   1.391  0.2435  0.1514 -0.1825
 2466SOL     OW 9909   4.225   4.477   1.175 -0.3552  0.2777 -0.2204
 2466SOL    HW2 9910   4.307   4.459   1.130 -0.1719 -0.8981  0.5796
 2466SOL    HW3 9911   4.171   4.521   1.109  1.1726  1.7612 -0.5367
 2466SOL    MW4 9912   4.229   4.481   1.160 -0.1297  0.3181 -0.1565
 2467SOL     OW 9913   3.302   3.792   2.022  0.3896 -0.8621 -0.5694
 2467SOL    HW2 9914   3.397   3.781   2.026  0.2111 -2.3391 -0.0248
 2467SOL    HW3 9915   3.277   3.812   2.112  0.2570  0.2459 -0.8463
 2467SOL    MW4 9916   3.311   3.793   2.034  0.3483 -0.9103 -0.5341
 2468SOL     OW 9917   1.722   1.598   4.128 -0.4658  0.4180  0.3715
 2468SOL    HW2 9918   1.732   1.690   4.100  0.6009 -0.0421 -0.7886
 2468SOL    HW3 9919   1.783   1.589   4.201  0.2774  0.3218 -0.2582
 2468SOL    MW4 9920   1.731   1.609   4.134 -0.2272  0.3446  0.1349
 2469SOL     OW 9921   4.414   0.490   4.098 -0.6909  0.4130 -0.1119
 2469SOL    HW2 9922   4.349   0.428   4.064 -1.0256  1.4590 -1.4305
 2469SOL    HW3 9923   4.363   0.568   4.119 -0.1713  0.4871  0.9165
 2469SOL    MW4 9924   4.399   0.492   4.096 -0.6666  0.5608 -0.1502
 2470SOL     OW 9925   1.446   3.295   0.664 -0.3319  0.6087 -0.2448
 2470SOL    HW2 9926   1.422   3.303   0.756 -1.4209  1.5576 -0.5878
 2470SOL    HW3 9927   1.365   3.268   0.621  0.0994  0.4490 -0.9538
 2470SOL    MW4 9928   1.432   3.293   0.670 -0.4187  0.7126 -0.3836
 2471SOL     OW 9929   3.377   0.507   2.721 -0.6714 -0.2048  0.3431
 2471SOL    HW2 9930   3.331   0.545   2.647  2.6344  1.0990 -1.1280
 2471SOL    HW3 9931   3.354   0.562   2.796 -1.7786  0.1812 -0.2829
 2471SOL    MW4 9932   3.368   0.519   2.721 -0.3812  0.0182  0.0665
 2472SOL     OW 9933   0.513   3.350   1.307  0.0957 -0.5268 -0.3637
 2472SOL    HW2 9934   0.516   3.335   1.401 -1.5361 -0.4752 -0.2897
 2472SOL    HW3 9935   0.442   3.414   1.295 -1.5512 -2.5409 -1.8504
 2472SOL    MW4 9936   0.504   3.356   1.318 -0.3369 -0.7856 -0.5500
 2473SOL     OW 9937   2.594   4.074   1.955 -0.0984 -0.1841 -0.2369
 2473SOL    HW2 9938   2.621   4.017   2.027  0.2215  0.8742  0.4975
 2473SOL    HW3 9939   2.514   4.116   1.987 -0.0148  0.2065 -0.5439
 2473SOL    MW4 9940   2.587   4.072   1.969 -0.0453  0.0062 -0.1804
 2474SOL     OW 9941   3.506   4.490   1.870 -0.1956  0.4273  0.1316
 2474SOL    HW2 9942   3.432   4.522   1.819 -0.8242  0.5124  1.0741
 2474SOL    HW3 9943   3.526   4.405   1.833 -0.6414  0.4930 -0.2628
 2474SOL    MW4 9944   3.499   4.483   1.859 -0.3374  0.4473  0.2040
 2475SOL     OW 9945   3.017   1.046   4.152 -0.4543 -0.0206 -0.3540
 2475SOL    HW2 9946   3.102   1.088   4.139 -0.5180  0.7437  1.5870
 2475SOL    HW3 9947   3.022   0.966   4.100  1.7688 -0.4020  0.4014
 2475SOL    MW4 9948   3.029   1.041   4.144 -0.1695  0.0298  0.0014
 2476SOL     OW 9949   3.331   3.543   0.916 -0.1467 -0.3352 -0.6792
 2476SOL    HW2 9950   3.292   3.489   0.985  0.2823  1.2382  0.8278
 2476SOL    HW3 9951   3.278   3.623   0.916  0.4973  0.0987 -1.4899
 2476SOL    MW4 9952   3.319   3.547   0.925 -0.0050 -0.0703 -0.5873
 2477SOL     OW 9953   0.618   1.438   4.059 -0.8334 -0.4125  0.6413
 2477SOL    HW2 9954   0.608   1.437   4.154  0.2915  0.4222  0.7765
 2477SOL    HW3 9955   0.556   1.505   4.029 -0.7195 -0.2187  0.8416
 2477SOL    MW4 9956   0.609   1.447   4.068 -0.6700 -0.2768  0.6857
 2478SOL     OW 9957   0.381   2.366   0.910  0.2107 -0.4368 -0.3591
 2478SOL    HW2 9958   0.362   2.370   1.004 -1.5878 -0.1989 -0.7145
 2478SOL    HW3 9959   0.341   2.445   0.874  4.3213  1.5843 -0.7939
 2478SOL    MW4 9960   0.373   2.377   0.918  0.5157 -0.1385 -0.4634
 2479SOL     OW 9961   1.115   0.981   4.196  0.2613  0.1602  0.0473
 2479SOL    HW2 9962   1.051   1.024   4.138  0.6750  0.7881  0.0464
 2479SOL    HW3 9963   1.169   1.053   4.228  0.6749 -0.3172  0.4150
 2479SOL    MW4 9964   1.114   0.996   4.192  0.3704  0.1801  0.0949
 2480SOL     OW 9965   2.399   1.133   3.889 -0.5016  0.3753  0.0088
 2480SOL    HW2 9966   2.306   1.155   3.889 -0.3448  1.0474  0.0290
 2480SOL    HW3 9967   2.444   1.217   3.901  0.1238  0.1453 -0.6503
 2480SOL    MW4 9968   2.393   1.147   3.891 -0.3984  0.4337 -0.0753
 2481SOL     OW 9969   4.053   4.587   1.419  0.0104  0.3846 -0.1913
 2481SOL    HW2 9970   4.022   4.501   1.392 -1.8870  1.2271 -0.7579
 2481SOL    HW3 9971   4.105   4.619   1.345  0.3189 -0.0695 -0.1703
 2481SOL    MW4 9972   4.056   4.580   1.406 -0.1998  0.4363 -0.2632
 2482SOL     OW 9973   3.820   0.522   2.239  0.2464  0.2776 -0.1519
 2482SOL    HW2 9974   3.754   0.509   2.171  0.0152 -1.0943  0.3189
 2482SOL    HW3 9975   3.800   0.607   2.277 -2.2486 -0.8128  1.0688
 2482SOL    MW4 9976   3.809   0.531   2.235 -0.1132 -0.0473  0.0713
 2483SOL     OW 9977   1.360   4.403   2.677  0.0470 -0.1833 -0.0299
 2483SOL    HW2 9978   1.359   4.457   2.756  1.7933  0.6132 -0.5295
 2483SOL    HW3 9979   1.268   4.389   2.656 -0.4226  2.0068  0.5011
 2483SOL    MW4 9980   1.348   4.408   2.685  0.2154  0.2108 -0.0257
 2484SOL     OW 9981   2.373   0.556   0.738  0.2581  0.5153  0.4271
 2484SOL    HW2 9982   2.292   0.578   0.783 -0.3228  1.8777 -1.2282
 2484SOL    HW3 9983   2.346   0.538   0.648  1.5494 -0.9819  0.3197
 2484SOL    MW4 9984   2.359   0.556   0.732  0.3517  0.4975  0.1945
 2485SOL     OW 9985   2.503   2.844   1.708 -0.1790  0.3711  0.0809
 2485SOL    HW2 9986   2.509   2.788   1.630  0.5437  0.5879 -0.0248
 2485SOL    HW3 9987   2.562   2.917   1.689 -0.5461  0.7855  0.5359
 2485SOL    MW4 9988   2.512   2.846   1.695 -0.1321  0.4547  0.1271
 2486SOL     OW 9989   1.389   4.007   2.501  0.0765 -0.2457 -0.4495
 2486SOL    HW2 9990   1.369   3.948   2.574 -0.1475 -1.6602 -1.6362
 2486SOL    HW3 9991   1.446   4.073   2.540 -2.3247  0.6486  1.6578
 2486SOL    MW4 9992   1.394   4.008   2.516 -0.2699 -0.3142 -0.3281
 2487SOL     OW 9993   3.634   2.924   2.750 -0.1883 -0.4999 -0.0480
 2487SOL    HW2 9994   3.669   2.915   2.662 -1.1415  1.9438 -0.7129
 2487SOL    HW3 9995   3.543   2.894   2.743 -0.5402  0.5453 -0.1409
 2487SOL    MW4 9996   3.627   2.919   2.737 -0.3605 -0.0398 -0.1481
 2488SOL     OW 9997   3.245   0.421   2.997  0.0721  0.0169  0.1473
 2488SOL    HW2 9998   3.236   0.356   2.927 -1.6813 -2.2516  2.3685
 2488SOL    HW3 9999   3.319   0.391   3.049  0.0696  0.5229  0.4479
 2488SOL    MW410000   3.253   0.409   2.995 -0.1595 -0.2157  0.4799
 2489SOL     OW10001   0.068   1.997   3.551 -0.2711 -0.1641  0.9331
 2489SOL    HW210002   0.095   2.036   3.468 -2.3149 -1.1059 -0.1868
 2489SOL    HW310003   0.078   1.903   3.539 -0.5800 -0.3142  1.7708
 2489SOL    MW410004   0.073   1.990   3.539 -0.5815 -0.3083  0.8957
 2490SOL     OW10005   3.361   1.075   4.525  0.3843 -0.1892 -0.4643
 2490SOL    HW210006   3.274   1.070   4.487  0.2788 -0.9969 -0.1169
 2490SOL    HW310007   3.376   1.169   4.537 -0.3683 -0.0382 -0.6741
 2490SOL    MW410008   3.351   1.087   4.522  0.2708 -0.2757 -0.4463
 2491SOL     OW10009   2.297   0.977   2.569 -0.0952 -0.4690  0.6590
 2491SOL    HW210010   2.348   0.918   2.624  0.1356 -0.1943  0.7401
 2491SOL    HW310011   2.207   0.946   2.578  0.0999 -1.2216  0.1849
 2491SOL    MW410012   2.292   0.965   2.577 -0.0391 -0.5320  0.6070
 2492SOL     OW10013   1.227   2.501   2.414  0.6756 -0.0077 -0.3044
 2492SOL    HW210014   1.177   2.427   2.381  0.7064 -0.6009  0.9644
 2492SOL    HW310015   1.165   2.574   2.414  0.1824 -0.4299  0.0193
 2492SOL    MW410016   1.213   2.501   2.410  0.6146 -0.1416 -0.0942
 2493SOL     OW10017   2.648   2.940   2.333 -0.0239  0.5660 -0.4422
 2493SOL    HW210018   2.718   2.998   2.304  0.1119  0.3688 -0.5077
 2493SOL    HW310019   2.633   2.965   2.424  0.3054  0.4372 -0.3524
 2493SOL    MW410020   2.655   2.951   2.341  0.0374  0.5229 -0.4389
 2494SOL     OW10021   2.415   2.827   2.958 -0.4186 -0.0909  0.3356
 2494SOL    HW210022   2.505   2.802   2.981  0.0423  1.0888 -0.1509
 2494SOL    HW310023   2.388   2.885   3.029  0.1578  1.6639 -0.8710
 2494SOL    MW410024   2.423   2.831   2.971 -0.2816  0.2961  0.1123
 2495SOL     OW10025   2.250   2.972   1.573  0.2500 -0.4795 -0.2392
 2495SOL    HW210026   2.283   2.996   1.487  0.1742  2.2409  0.4503
 2495SOL    HW310027   2.323   2.926   1.615  1.3173  0.7629 -0.6974
 2495SOL    MW410028   2.264   2.969   1.567  0.3810  0.0434 -0.2087
 2496SOL     OW10029   2.031   1.364   2.708 -0.4578 -0.4428 -0.1258
 2496SOL    HW210030   2.105   1.424   2.695 -1.2270  0.6843  0.6421
 2496SOL    HW310031   1.961   1.402   2.655 -1.2713 -0.0576  1.2017
 2496SOL    MW410032   2.032   1.377   2.699 -0.6669 -0.2433  0.1507
 2497SOL     OW10033   0.822   4.609   1.545  0.1632 -0.0995  0.3533
 2497SOL    HW210034   0.757   4.637   1.479  1.7906  0.5204 -1.0384
 2497SOL    HW310035   0.779   4.539   1.593 -0.7031 -1.2888 -2.0726
 2497SOL    MW410036   0.808   4.604   1.542  0.2636 -0.1750 -0.1503
 2498SOL     OW10037   3.077   1.438   2.389 -0.1705 -0.7593  0.6108
 2498SOL    HW210038   3.170   1.417   2.402  0.3309  0.8756 -0.2257
 2498SOL    HW310039   3.062   1.425   2.296 -0.0141  1.8310  0.1974
 2498SOL    MW410040   3.087   1.433   2.379 -0.0837 -0.2017  0.4463
 2499SOL     OW10041   3.219   1.786   2.897  0.0481 -0.5486 -0.0592
 2499SOL    HW210042   3.129   1.768   2.924 -0.1291 -1.2709 -1.1107
 2499SOL    HW310043   3.216   1.792   2.802  1.3539 -2.0705 -0.2296
 2499SOL    MW410044   3.207   1.784   2.888  0.1972 -0.8447 -0.2203
 2500SOL     OW10045   1.100   1.278   2.338 -0.2693 -0.4114 -0.2501
 2500SOL    HW210046   1.008   1.274   2.363 -0.1617  0.3705  0.3002
 2500SOL    HW310047   1.119   1.192   2.302 -1.1666 -0.6416 -0.1838
 2500SOL    MW410048   1.091   1.266   2.337 -0.3735 -0.3387 -0.1690
 2501SOL     OW10049   3.845   3.696   2.361  0.0212  0.0797 -0.5260
 2501SOL    HW210050   3.858   3.762   2.292 -1.1600  0.2832 -0.5723
 2501SOL    HW310051   3.791   3.741   2.427  0.3363 -0.4177  0.0757
 2501SOL    MW410052   3.839   3.711   2.361 -0.0930  0.0408 -0.4528
 2502SOL     OW10053   3.688   1.241   3.209  0.2385 -0.1032 -0.1085
 2502SOL    HW210054   3.700   1.217   3.118  0.9094  0.4035 -0.1555
 2502SOL    HW310055   3.593   1.250   3.219  0.2101  0.5077 -0.9289
 2502SOL    MW410056   3.677   1.239   3.199  0.3233  0.0442 -0.2227
 2503SOL     OW10057   0.415   4.065   1.561 -0.3655  0.1769  0.1036
 2503SOL    HW210058   0.397   4.050   1.654 -0.4349 -0.7861 -0.0642
 2503SOL    HW310059   0.370   3.994   1.516  1.3649 -0.5324 -0.5392
 2503SOL    MW410060   0.406   4.054   1.567 -0.1464 -0.0443 -0.0035
 2504SOL     OW10061   1.800   0.715   3.620 -0.0174 -0.5360 -0.9451
 2504SOL    HW210062   1.770   0.806   3.616  0.3932 -0.3442  0.2527
 2504SOL    HW310063   1.727   0.664   3.586 -1.6882 -0.0724  1.8589
 2504SOL    MW410064   1.787   0.720   3.615 -0.1837 -0.4495 -0.4170
 2505SOL     OW10065   2.055   0.550   3.070  0.3610 -0.0355 -0.0086
 2505SOL    HW210066   2.124   0.590   3.124 -0.4314 -0.3595  1.2535
 2505SOL    HW310067   2.084   0.460   3.058  0.6974  0.1231 -0.4024
 2505SOL    MW410068   2.068   0.543   3.076  0.3011 -0.0573  0.1061
 2506SOL     OW10069   2.632   2.964   3.188  0.2680  0.5748 -0.2574
 2506SOL    HW210070   2.645   3.045   3.139  1.8699  2.4021  2.9700
 2506SOL    HW310071   2.559   2.983   3.247 -0.8138 -1.1162 -1.0336
 2506SOL    MW410072   2.624   2.977   3.190  0.3366  0.5932  0.0663
 2507SOL     OW10073   2.736   0.050   2.520 -0.3718 -0.0143  0.1412
 2507SOL    HW210074   2.729  -0.045   2.522 -1.1748  0.0499  0.7592
 2507SOL    HW310075   2.772   0.070   2.434 -0.0241 -0.8859  0.0789
 2507SOL    MW410076   2.740   0.040   2.509 -0.4318 -0.1208  0.2146
 2508SOL     OW10077   1.199   1.442   4.669 -0.6193 -0.0203 -0.1943
 2508SOL    HW210078   1.196   1.510   4.736  0.5649 -0.0863 -0.0552
 2508SOL    HW310079   1.151   1.478   4.595 -1.7043  0.1683  0.5907
 2508SOL    MW410080   1.192   1.455   4.668 -0.6062 -0.0041 -0.0730
 2509SOL     OW10081   4.278   1.077   2.161  0.1007  0.2796  0.3542
 2509SOL    HW210082   4.302   1.028   2.083  2.7246  0.9756  0.7014
 2509SOL    HW310083   4.223   1.016   2.211 -0.3117 -0.7097 -1.2583
 2509SOL    MW410084   4.274   1.063   2.157  0.3924  0.2409  0.1874
 2510SOL     OW10085   2.129   3.810   2.403 -0.0667  0.8112  0.4318
 2510SOL    HW210086   2.109   3.868   2.329 -1.4058  2.0277  1.7088
 2510SOL    HW310087   2.058   3.826   2.465  2.5525  1.9511  3.2190
 2510SOL    MW410088   2.117   3.820   2.401  0.1023  1.1220  0.9680
 2511SOL     OW10089   2.325   4.447   3.375 -0.0436  0.2346 -0.0647
 2511SOL    HW210090   2.333   4.435   3.280 -1.7895 -0.5411 -0.1343
 2511SOL    HW310091   2.355   4.365   3.413 -1.3489 -0.2550 -0.0555
 2511SOL    MW410092   2.330   4.435   3.367 -0.4463  0.0677 -0.0727
 2512SOL     OW10093   3.947   3.032   3.630  0.0298  0.5115  0.0072
 2512SOL    HW210094   3.961   3.120   3.664 -0.6614  0.9656 -0.8920
 2512SOL    HW310095   3.951   2.976   3.708 -1.4426  1.5312  0.8333
 2512SOL    MW410096   3.950   3.036   3.645 -0.2556  0.7060 -0.0024
 2513SOL     OW10097   3.040   0.260   0.546 -0.5465 -0.1818  0.5066
 2513SOL    HW210098   3.114   0.201   0.558 -1.8717 -1.8147  0.7638
 2513SOL    HW310099   2.983   0.244   0.621 -1.8490  0.0399 -0.4171
 2513SOL    MW410100   3.042   0.250   0.557 -0.8926 -0.3680  0.4187
 2514SOL     OW10101   3.779   2.544   2.770 -0.1411 -0.3322 -0.2798
 2514SOL    HW210102   3.810   2.589   2.848 -1.4556 -0.0447  0.0870
 2514SOL    HW310103   3.830   2.582   2.698  0.7389 -0.2641  0.3703
 2514SOL    MW410104   3.790   2.555   2.771 -0.1986 -0.2851 -0.1457
 2515SOL     OW10105   1.459   0.308   0.719 -0.6022 -0.0840  0.0452
 2515SOL    HW210106   1.424   0.395   0.739  1.4396  1.1222 -1.5534
 2515SOL    HW310107   1.497   0.279   0.802  1.2996  1.7954 -0.1408
 2515SOL    MW410108   1.459   0.316   0.733 -0.0819  0.3231 -0.1903
 2516SOL     OW10109   3.470   3.775   0.599  0.4961  0.4398 -0.0191
 2516SOL    HW210110   3.538   3.839   0.618  1.5439  0.2015 -2.6622
 2516SOL    HW310111   3.398   3.827   0.562 -0.0207  0.4794  1.0372
 2516SOL    MW410112   3.469   3.790   0.596  0.5662  0.4134 -0.2285
 2517SOL     OW10113   0.602   2.020   3.764  0.5550 -0.0168  0.2027
 2517SOL    HW210114   0.550   2.061   3.694 -1.7033 -2.5762  0.2986
 2517SOL    HW310115   0.539   2.001   3.833  2.0051 -1.3590  1.1975
 2517SOL    MW410116   0.587   2.023   3.764  0.4485 -0.5317  0.3469
 2518SOL     OW10117   2.485   2.701   1.474 -0.1105 -0.1777 -0.2740
 2518SOL    HW210118   2.460   2.783   1.432 -0.5214 -0.2993 -0.2672
 2518SOL    HW310119   2.580   2.694   1.459  0.1900  1.0312  1.0088
 2518SOL    MW410120   2.495   2.711   1.466 -0.1254 -0.0343 -0.1040
 2519SOL     OW10121   3.458   0.386   4.240  0.0923 -0.1055 -0.5410
 2519SOL    HW210122   3.454   0.385   4.336  3.1714 -1.2584 -0.3779
 2519SOL    HW310123   3.485   0.298   4.216 -0.7796  0.1293 -2.5180
 2519SOL    MW410124   3.461   0.375   4.250  0.3834 -0.2266 -0.7796
 2520SOL     OW10125   2.903   3.264   4.183 -0.1785 -0.4058  0.1387
 2520SOL    HW210126   2.828   3.254   4.124 -1.1693 -0.1419  1.3207
 2520SOL    HW310127   2.885   3.345   4.230  0.8220 -0.3830  0.4818
 2520SOL    MW410128   2.891   3.273   4.181 -0.1774 -0.3681  0.3400
 2521SOL     OW10129   1.959   0.641   2.821 -0.3414  0.1026 -0.1686
 2521SOL    HW210130   1.925   0.557   2.790 -1.1890  0.6437 -0.7526
 2521SOL    HW310131   1.986   0.625   2.911  0.8948 -1.1691 -0.7533
 2521SOL    MW410132   1.958   0.628   2.829 -0.2902  0.0062 -0.3226
 2522SOL     OW10133   2.710   3.522   3.308  0.3105 -0.1704 -0.2996
 2522SOL    HW210134   2.787   3.538   3.364 -0.1081  2.0327 -0.3120
 2522SOL    HW310135   2.673   3.609   3.294 -1.3832 -1.0727 -1.4659
 2522SOL    MW410136   2.716   3.535   3.313  0.0319  0.0012 -0.4549
 2523SOL     OW10137   1.884   1.840   2.599 -0.1145  0.2674 -0.3546
 2523SOL    HW210138   1.948   1.852   2.669 -0.1643 -1.2575 -0.0208
 2523SOL    HW310139   1.879   1.925   2.555  3.1183  0.0814 -1.2047
 2523SOL    MW410140   1.892   1.852   2.602  0.3054  0.0417 -0.4227
 2524SOL     OW10141   0.092   1.803   0.846  0.2346  0.8904  0.0815
 2524SOL    HW210142  -0.003   1.801   0.859  0.1963 -3.1865 -0.2111
 2524SOL    HW310143   0.125   1.849   0.923 -1.8948  1.1009  0.9127
 2524SOL    MW410144   0.084   1.809   0.858 -0.0514  0.3803  0.1526
 2525SOL     OW10145   1.342   3.947   1.160  0.5496 -0.0105  0.0727
 2525SOL    HW210146   1.414   3.916   1.105  0.2935  0.8421 -0.7484
 2525SOL    HW310147   1.341   4.042   1.148  1.2028  0.3423  2.4197
 2525SOL    MW410148   1.352   3.955   1.151  0.6020  0.1488  0.2739
 2526SOL     OW10149   0.878   0.087   1.765  0.1378  0.0108  0.0466
 2526SOL    HW210150   0.971   0.093   1.786  0.2385 -2.1273  0.2486
 2526SOL    HW310151   0.875   0.050   1.677 -0.5244  0.5709 -0.1778
 2526SOL    MW410152   0.890   0.083   1.756  0.0637 -0.1974  0.0436
 2527SOL     OW10153   0.798   1.740   3.839  0.2477 -0.1829  0.1958
 2527SOL    HW210154   0.767   1.744   3.748 -0.2905  0.6247  0.4144
 2527SOL    HW310155   0.894   1.743   3.832  0.2103 -0.2487 -0.3451
 2527SOL    MW410156   0.807   1.741   3.826  0.1718 -0.0850  0.1533
 2528SOL     OW10157   0.493   3.212   0.907 -0.7045 -0.3808 -0.5646
 2528SOL    HW210158   0.484   3.149   0.979 -0.5918 -1.0218 -1.1042
 2528SOL    HW310159   0.447   3.172   0.833  0.1726 -0.2662 -1.1854
 2528SOL    MW410160   0.486   3.199   0.907 -0.5739 -0.4501 -0.7177
 2529SOL     OW10161   1.005   0.370   1.406  0.2371  0.0255  0.1724
 2529SOL    HW210162   0.998   0.453   1.359 -0.4401 -0.9470 -1.4983
 2529SOL    HW310163   1.098   0.347   1.401  1.0057  2.1087  3.2455
 2529SOL    MW410164   1.016   0.378   1.399  0.2493  0.1720  0.3574
 2530SOL     OW10165   3.306   2.306   4.163 -0.6509 -0.2136  0.5714
 2530SOL    HW210166   3.385   2.333   4.211 -0.9306  1.2374  0.2485
 2530SOL    HW310167   3.242   2.374   4.183 -0.5822  0.7475 -2.3240
 2530SOL    MW410168   3.308   2.318   4.172 -0.6788  0.1049  0.1459
 2531SOL     OW10169   1.595   4.521   4.256  0.2856 -0.0477  0.1442
 2531SOL    HW210170   1.660   4.528   4.326  2.8689 -0.3031 -2.1738
 2531SOL    HW310171   1.568   4.611   4.239 -1.6467 -0.0929  2.5464
 2531SOL    MW410172   1.600   4.534   4.263  0.3717 -0.0868  0.1554
 2532SOL     OW10173   1.848   4.309   0.869 -0.4872 -0.1529 -0.0251
 2532SOL    HW210174   1.826   4.400   0.854  0.0509 -0.0858 -0.4043
 2532SOL    HW310175   1.775   4.260   0.831  0.4026  0.0387 -2.0130
 2532SOL    MW410176   1.835   4.314   0.862 -0.2989 -0.1187 -0.3373
 2533SOL     OW10177   2.680   0.326   3.658 -0.0367  0.0853 -0.2778
 2533SOL    HW210178   2.654   0.351   3.570 -0.4129 -0.9766 -0.4738
 2533SOL    HW310179   2.726   0.403   3.693 -0.3450  0.6878 -1.2035
 2533SOL    MW410180   2.683   0.339   3.651 -0.1268  0.0247 -0.4258
 2534SOL     OW10181   1.016   0.622   4.393 -0.3127  0.0580  0.1150
 2534SOL    HW210182   1.022   0.715   4.413 -0.0663 -0.0448  0.5133
 2534SOL    HW310183   1.103   0.599   4.361 -0.2819 -0.1043  0.3144
 2534SOL    MW410184   1.028   0.631   4.391 -0.2760  0.0231  0.1941
 2535SOL     OW10185   2.857   3.598   0.859  0.0183  0.1439 -0.4537
 2535SOL    HW210186   2.793   3.633   0.921 -0.9221 -1.6005 -0.4025
 2535SOL    HW310187   2.921   3.668   0.849  0.8795  0.0416  3.4384
 2535SOL    MW410188   2.857   3.612   0.866  0.0079 -0.0999  0.0667
 2536SOL     OW10189   1.652   1.381   0.547  0.0971 -0.1270 -0.0674
 2536SOL    HW210190   1.735   1.401   0.591  0.9378 -1.6033 -0.9342
 2536SOL    HW310191   1.676   1.321   0.477 -1.2466  2.0253 -2.4535
 2536SOL    MW410192   1.666   1.376   0.544  0.0309 -0.0378 -0.4965
 2537SOL     OW10193   3.447   4.326   3.897  0.5169  0.3443 -0.3214
 2537SOL    HW210194   3.455   4.387   3.971  1.8315 -1.2821  0.9037
 2537SOL    HW310195   3.467   4.240   3.934  2.8417 -0.2916 -2.9177
 2537SOL    MW410196   3.451   4.323   3.912  0.9971  0.0458 -0.5021
 2538SOL     OW10197   1.994   4.379   4.216  0.1909 -0.2163  0.3877
 2538SOL    HW210198   1.961   4.289   4.212  0.6122 -0.3667  0.2900
 2538SOL    HW310199   2.072   4.378   4.160 -0.3927  0.4586 -0.4391
 2538SOL    MW410200   2.000   4.367   4.208  0.1698 -0.1464  0.2656
 2539SOL     OW10201   2.523   4.332   3.787 -0.3704  0.3832  0.2719
 2539SOL    HW210202   2.556   4.409   3.740 -0.0939  0.9011  1.2831
 2539SOL    HW310203   2.432   4.322   3.757 -0.7135  1.6890  0.8530
 2539SOL    MW410204   2.515   4.341   3.777 -0.3791  0.6237  0.4818
 2540SOL     OW10205   3.598   0.093   1.895 -0.0794 -0.0952  0.2475
 2540SOL    HW210206   3.645   0.089   1.979  0.0108 -0.4271  0.1798
 2540SOL    HW310207   3.598   0.003   1.863  0.7341  0.1951 -0.5760
 2540SOL    MW410208   3.604   0.081   1.902  0.0401 -0.1006  0.1299
 2541SOL     OW10209   0.430   3.945   3.716  0.1419 -0.2603 -0.6172
 2541SOL    HW210210   0.515   3.989   3.724  0.3948 -1.1396  1.8728
 2541SOL    HW310211   0.439   3.865   3.767 -1.3215 -1.7063 -2.5827
 2541SOL    MW410212   0.442   3.940   3.724 -0.0179 -0.5670 -0.5479
 2542SOL     OW10213   1.545   0.126   4.239  0.6058  0.2826 -0.1929
 2542SOL    HW210214   1.571   0.207   4.193  1.2248  0.1636 -0.0625
 2542SOL    HW310215   1.550   0.149   4.331  0.1504  0.2849 -0.1712
 2542SOL    MW410216   1.549   0.140   4.245  0.6274  0.2672 -0.1731
 2543SOL     OW10217   0.522   2.051   2.724 -0.0331 -0.2300 -0.6921
 2543SOL    HW210218   0.497   2.142   2.740  1.9933  0.5838 -1.9314
 2543SOL    HW310219   0.499   2.035   2.633  0.8689 -0.5159 -0.8783
 2543SOL    MW410220   0.516   2.061   2.714  0.3533 -0.1605 -0.8802
 2544SOL     OW10221   1.828   1.308   1.907  0.2368  0.4004  0.0639
 2544SOL    HW210222   1.736   1.331   1.913 -0.1621 -0.8400 -1.0774
 2544SOL    HW310223   1.853   1.284   1.996 -1.4985 -2.8058 -0.2648
 2544SOL    MW410224   1.819   1.308   1.920 -0.0447 -0.1863 -0.1302
 2545SOL     OW10225   2.969   0.432   3.427 -0.3236  0.3001 -0.1476
 2545SOL    HW210226   3.012   0.472   3.503  0.8125  1.2517 -1.2795
 2545SOL    HW310227   2.884   0.475   3.424 -0.2400  0.5209  0.3790
 2545SOL    MW410228   2.964   0.443   3.437 -0.1626  0.4548 -0.2277
 2546SOL     OW10229   2.513   0.900   3.971  0.2257 -0.3979 -0.2039
 2546SOL    HW210230   2.474   0.977   3.931 -0.2694 -0.6172 -0.1550
 2546SOL    HW310231   2.512   0.918   4.065  0.5477 -0.2617 -0.2295
 2546SOL    MW410232   2.507   0.912   3.978  0.2029 -0.4089 -0.2007
 2547SOL     OW10233   4.457   2.254   3.351 -0.3963  0.4093  0.1344
 2547SOL    HW210234   4.393   2.200   3.398 -1.9555  0.4647 -1.9050
 2547SOL    HW310235   4.491   2.313   3.418 -1.1158 -0.8590  1.6556
 2547SOL    MW410236   4.453   2.254   3.366 -0.6962  0.2494  0.0663
 2548SOL     OW10237   0.072   1.790   3.297 -0.0444 -0.1032 -0.0100
 2548SOL    HW210238   0.068   1.739   3.216 -1.4816  0.0156 -0.0241
 2548SOL    HW310239   0.120   1.869   3.273  0.3772 -0.5081 -0.5112
 2548SOL    MW410240   0.077   1.794   3.283 -0.1784 -0.1409 -0.0782
 2549SOL     OW10241   0.281   2.131   0.579 -0.1941 -0.3367  0.2679
 2549SOL    HW210242   0.240   2.215   0.558  0.0729 -0.1277  0.5768
 2549SOL    HW310243   0.213   2.066   0.561 -0.0057 -0.1594 -1.1455
 2549SOL    MW410244   0.267   2.133   0.574 -0.1340 -0.2859  0.1222
 2550SOL     OW10245   3.657   1.095   2.949 -0.3761 -0.3343  0.1021
 2550SOL    HW210246   3.659   1.179   2.902  0.4740 -0.0435  0.6277
 2550SOL    HW310247   3.619   1.033   2.887  1.2117 -0.0755 -1.1821
 2550SOL    MW410248   3.653   1.098   2.934 -0.0544 -0.2619  0.0019
 2551SOL     OW10249   0.375   0.818   0.536 -0.5358 -0.3531  0.6012
 2551SOL    HW210250   0.291   0.803   0.494 -0.6172 -2.6464  1.5075
 2551SOL    HW310251   0.362   0.897   0.590 -2.3854 -1.2203  1.4525
 2551SOL    MW410252   0.362   0.827   0.538 -0.7906 -0.7701  0.8331
 2552SOL     OW10253   1.153   2.969   4.807  0.2498 -0.2607 -0.4449
 2552SOL    HW210254   1.153   2.874   4.794  0.9890 -0.2088 -0.8190
 2552SOL    HW310255   1.196   3.004   4.729  2.3080  0.2298  0.8922
 2552SOL    MW410256   1.158   2.961   4.795  0.6189 -0.1891 -0.3181
 2553SOL     OW10257   2.117   3.537   1.487  0.3496 -0.1940 -0.0806
 2553SOL    HW210258   2.188   3.562   1.428  0.4794 -1.6320 -0.5564
 2553SOL    HW310259   2.159   3.528   1.573  0.2833  1.2642  0.1102
 2553SOL    MW410260   2.132   3.539   1.491  0.3581 -0.1915 -0.1181
 2554SOL     OW10261   2.853   4.285   2.272  0.0027  0.2178  0.8293
 2554SOL    HW210262   2.757   4.292   2.274  0.2150  3.1340  3.2329
 2554SOL    HW310263   2.876   4.250   2.358  1.1831  0.5007  0.6324
 2554SOL    MW410264   2.843   4.281   2.283  0.1864  0.6399  1.1206
 2555SOL     OW10265   3.460   0.312   4.491  0.1937 -0.3253 -0.2788
 2555SOL    HW210266   3.554   0.296   4.497 -0.0975 -2.2626 -0.5218
 2555SOL    HW310267   3.422   0.226   4.472 -1.5029  0.6467 -1.4819
 2555SOL    MW410268   3.467   0.299   4.489 -0.0684 -0.4527 -0.4697
 2556SOL     OW10269   3.674   3.851   0.935  0.4002 -0.1506  0.1011
 2556SOL    HW210270   3.757   3.873   0.978  0.4385  0.3476 -0.2247
 2556SOL    HW310271   3.691   3.767   0.893  0.5251 -0.3877  0.6197
 2556SOL    MW410272   3.687   3.843   0.935  0.4218 -0.1159  0.1265
 2557SOL     OW10273   2.965   3.515   1.380  0.6916  0.0058 -0.8333
 2557SOL    HW210274   3.053   3.533   1.347  0.5045  0.3600 -1.1537
 2557SOL    HW310275   2.912   3.587   1.346  0.2154 -0.3778 -0.9181
 2557SOL    MW410276   2.970   3.527   1.371  0.6042  0.0019 -0.8867
 2558SOL     OW10277   3.259   0.270   3.684 -0.0957  0.0989  0.3036
 2558SOL    HW210278   3.227   0.199   3.627  1.5930  0.4721 -1.1482
 2558SOL    HW310279   3.189   0.335   3.682  0.0075  0.1852 -1.5235
 2558SOL    MW410280   3.245   0.269   3.676  0.1409  0.1595 -0.1290
 2559SOL     OW10281   2.240   1.854   4.082 -0.0239 -0.4784  0.2052
 2559SOL    HW210282   2.311   1.793   4.103  0.5934  0.2079  0.1316
 2559SOL    HW310283   2.210   1.886   4.167 -1.4072 -2.0621  0.3342
 2559SOL    MW410284   2.246   1.850   4.096 -0.1249 -0.5966  0.2127
 2560SOL     OW10285   2.573   1.356   4.425  0.3445  0.5119  0.1516
 2560SOL    HW210286   2.612   1.280   4.382  0.9149 -0.1061  1.7026
 2560SOL    HW310287   2.480   1.335   4.432  0.5952 -0.3275  1.1073
 2560SOL    MW410288   2.566   1.343   4.421  0.4530  0.3196  0.4821
 2561SOL     OW10289   3.805   0.292   1.346  0.0586 -0.0023 -0.0607
 2561SOL    HW210290   3.868   0.333   1.405 -0.2977  2.0351 -1.0553
 2561SOL    HW310291   3.761   0.365   1.303  0.3745 -1.4384 -2.9441
 2561SOL    MW410292   3.807   0.307   1.348  0.0534  0.0770 -0.5723
 2562SOL     OW10293   2.884   3.632   4.591 -0.4053  0.4132  0.2791
 2562SOL    HW210294   2.898   3.598   4.680 -0.3109  0.4535  0.2807
 2562SOL    HW310295   2.948   3.584   4.538 -0.9521 -0.1313  0.1083
 2562SOL    MW410296   2.895   3.621   4.596 -0.4647  0.3467  0.2565
 2563SOL     OW10297   1.362   3.470   1.713  0.0946 -0.5675  0.0196
 2563SOL    HW210298   1.377   3.429   1.798  2.2082  0.0303 -0.0607
 2563SOL    HW310299   1.338   3.560   1.733  3.0442  0.2876 -0.0615
 2563SOL    MW410300   1.361   3.476   1.727  0.7628 -0.3757 -0.0018
 2564SOL     OW10301   1.279   0.430   3.491 -0.3732  0.6780 -0.5750
 2564SOL    HW210302   1.242   0.347   3.519 -1.3008  1.2873  0.0049
 2564SOL    HW310303   1.256   0.492   3.560 -0.0765  1.5223 -1.2225
 2564SOL    MW410304   1.271   0.428   3.504 -0.4565  0.8698 -0.5839
 2565SOL     OW10305   2.428   3.071   0.705  0.5164  0.0193 -0.7061
 2565SOL    HW210306   2.496   3.137   0.689  2.3720 -1.8246 -0.5326
 2565SOL    HW310307   2.416   3.072   0.800  2.3065 -1.5991 -0.4475
 2565SOL    MW410308   2.435   3.080   0.715  0.9973 -0.4377 -0.6490
 2566SOL     OW10309   1.026   1.675   1.898  0.0531 -0.2938  0.6262
 2566SOL    HW210310   0.942   1.701   1.935  0.3968 -0.2611  1.3930
 2566SOL    HW310311   1.070   1.628   1.969  0.9481  0.2570  0.4504
 2566SOL    MW410312   1.021   1.673   1.913  0.2164 -0.2168  0.7042
 2567SOL     OW10313   0.200   0.237   0.743 -0.3391 -0.0250 -0.0208
 2567SOL    HW210314   0.215   0.243   0.837 -1.1894  1.1899  0.0332
 2567SOL    HW310315   0.266   0.294   0.704 -0.1725 -0.3063 -0.1579
 2567SOL    MW410316   0.211   0.245   0.750 -0.4293  0.0982 -0.0318
 2568SOL     OW10317   2.570   3.989   1.672  0.0600  0.1591 -0.2970
 2568SOL    HW210318   2.662   3.964   1.661 -0.0347 -0.4290  0.2190
 2568SOL    HW310319   2.561   4.006   1.766 -0.3504  0.2325 -0.3500
 2568SOL    MW410320   2.581   3.988   1.683 -0.0069  0.0908 -0.2359
 2569SOL     OW10321   2.116   2.147   1.323  0.2998  0.1479 -0.5830
 2569SOL    HW210322   2.189   2.098   1.284 -0.6615 -2.0309  0.2967
 2569SOL    HW310323   2.152   2.183   1.404 -0.0302 -2.3059  0.6889
 2569SOL    MW410324   2.130   2.145   1.328  0.1297 -0.4632 -0.2992
 2570SOL     OW10325   3.835   1.851   1.142 -0.0339 -0.4952 -0.3433
 2570SOL    HW210326   3.866   1.889   1.060  0.5842  1.7440  0.8859
 2570SOL    HW310327   3.739   1.857   1.136  0.0546  1.6058 -0.0514
 2570SOL    MW410328   3.826   1.857   1.131  0.0594  0.0775 -0.1427
 2571SOL     OW10329   2.284   2.266   0.992 -0.1337  0.0376 -0.3904
 2571SOL    HW210330   2.247   2.182   1.019 -0.2356  0.0485 -0.4962
 2571SOL    HW310331   2.353   2.284   1.056  0.5004 -0.5705 -0.8878
 2571SOL    MW410332   2.288   2.257   1.004 -0.0634 -0.0410 -0.4700
 2572SOL     OW10333   2.256   0.216   3.401  0.4681  0.2789 -0.4216
 2572SOL    HW210334   2.162   0.211   3.419  0.6859  0.0834  0.7108
 2572SOL    HW310335   2.266   0.178   3.314 -0.3236 -1.0875  0.0619
 2572SOL    MW410336   2.245   0.210   3.392  0.3922  0.0728 -0.2084
 2573SOL     OW10337   2.110   3.071   1.919  0.5542 -1.1782 -0.3354
 2573SOL    HW210338   2.119   3.043   2.010 -0.5743 -0.5877 -0.0465
 2573SOL    HW310339   2.044   3.013   1.882  0.2925 -0.7679 -0.5139
 2573SOL    MW410340   2.103   3.059   1.926  0.3707 -1.0464 -0.3207
 2574SOL     OW10341   0.922   3.283   4.105  0.1762  0.1050  0.0288
 2574SOL    HW210342   1.006   3.300   4.064  0.7383 -1.2083  0.6445
 2574SOL    HW310343   0.885   3.210   4.056  0.1507 -0.4391  0.8640
 2574SOL    MW410344   0.928   3.276   4.093  0.2471 -0.1400  0.2203
 2575SOL     OW10345   1.295   2.299   1.085  0.2966 -0.4154 -0.0076
 2575SOL    HW210346   1.271   2.256   1.003 -1.9244 -1.9611  1.4044
 2575SOL    HW310347   1.263   2.240   1.154  1.6587  1.0945  1.9820
 2575SOL    MW410348   1.287   2.286   1.084  0.1831 -0.4201  0.4412
 2576SOL     OW10349   1.777   4.477   1.260  0.2356 -0.1149  0.0400
 2576SOL    HW210350   1.751   4.524   1.180  0.8753  1.2921  0.6430
 2576SOL    HW310351   1.818   4.397   1.229 -0.3842 -0.0302 -1.0267
 2576SOL    MW410352   1.779   4.473   1.246  0.2383  0.0815 -0.0212
 2577SOL     OW10353   0.989   1.954   2.503  0.2275  0.0640 -0.0048
 2577SOL    HW210354   0.937   1.882   2.540 -0.5951  0.8808  0.4404
 2577SOL    HW310355   0.931   1.994   2.438  0.6149  0.4511 -0.1086
 2577SOL    MW410356   0.975   1.950   2.500  0.1700  0.2228  0.0401
 2578SOL     OW10357   3.952   0.590   3.908 -0.4058  0.6824 -0.4955
 2578SOL    HW210358   3.952   0.539   3.827 -1.0565 -1.4543  0.8026
 2578SOL    HW310359   3.898   0.667   3.889 -1.9779 -0.6597 -1.5857
 2578SOL    MW410360   3.945   0.593   3.895 -0.6990  0.2234 -0.4680
 2579SOL     OW10361   4.059   0.301   2.436  0.3236 -0.3816  0.1115
 2579SOL    HW210362   4.145   0.291   2.396 -0.1292 -2.0265 -0.4989
 2579SOL    HW310363   4.056   0.392   2.464  2.2865 -0.3135  0.1935
 2579SOL    MW410364   4.070   0.311   2.435  0.5226 -0.5896  0.0420
 2580SOL     OW10365   3.280   4.466   2.658 -0.2341 -0.1887  0.4714
 2580SOL    HW210366   3.359   4.520   2.654 -0.6597  0.2745 -2.5997
 2580SOL    HW310367   3.313   4.376   2.663  0.4527  0.0877  1.1561
 2580SOL    MW410368   3.294   4.461   2.658 -0.1996 -0.0911  0.1566
 2581SOL     OW10369   4.145   1.264   1.347  0.4204  0.2317 -0.2797
 2581SOL    HW210370   4.065   1.307   1.317 -0.2034  0.2544  1.3262
 2581SOL    HW310371   4.151   1.288   1.440  1.4353 -1.0593  0.0056
 2581SOL    MW410372   4.135   1.273   1.355  0.4716  0.0644 -0.0302
 2582SOL     OW10373   3.383   2.152   3.732 -0.1613 -0.1608  0.2465
 2582SOL    HW210374   3.318   2.190   3.792  0.6421 -1.8789  2.2723
 2582SOL    HW310375   3.337   2.080   3.689 -1.1665  1.9309 -2.3347
 2582SOL    MW410376   3.368   2.148   3.735 -0.1881 -0.1116  0.1731
 2583SOL     OW10377   1.290   3.847   2.275  0.1784 -0.9757 -0.3947
 2583SOL    HW210378   1.336   3.893   2.345  0.6140 -1.9596 -0.0308
 2583SOL    HW310379   1.198   3.868   2.289  0.4620  0.7279 -0.9206
 2583SOL    MW410380   1.284   3.856   2.286  0.2732 -0.8805 -0.4160
 2584SOL     OW10381   1.271   4.542   1.435  0.2855  0.0049 -0.0035
 2584SOL    HW210382   1.303   4.507   1.518  0.0566  1.1660  0.5789
 2584SOL    HW310383   1.177   4.524   1.437  0.1297  0.8608  0.4002
 2584SOL    MW410384   1.263   4.535   1.446  0.2347  0.2708  0.1267
 2585SOL     OW10385   1.051   2.716   2.376  0.8518  0.2933  0.6663
 2585SOL    HW210386   1.088   2.802   2.359 -0.8750  1.1945  1.3559
 2585SOL    HW310387   1.020   2.686   2.290  1.2232  0.4563  0.4742
 2585SOL    MW410388   1.052   2.723   2.362  0.6729  0.4337  0.7322
 2586SOL     OW10389   3.495   2.458   4.019 -0.2106  0.7185  0.2253
 2586SOL    HW210390   3.413   2.409   4.010  0.3619 -0.2423  0.1527
 2586SOL    HW310391   3.495   2.519   3.945 -0.2109 -0.2395 -0.5656
 2586SOL    MW410392   3.484   2.460   4.008 -0.1349  0.4654  0.1111
 2587SOL     OW10393   0.794   2.103   2.907  0.0751 -0.4653  0.6015
 2587SOL    HW210394   0.745   2.112   2.989 -0.1405  1.0146  0.3282
 2587SOL    HW310395   0.765   2.178   2.854  1.0325 -0.7963 -0.3928
 2587SOL    MW410396   0.784   2.114   2.911  0.1729 -0.3138  0.4339
 2588SOL     OW10397   4.309   2.476   1.205 -0.4617  0.1321 -0.1937
 2588SOL    HW210398   4.290   2.386   1.233 -1.3110  0.5867  0.7290
 2588SOL    HW310399   4.403   2.485   1.217 -0.6260 -0.0873  1.3799
 2588SOL    MW410400   4.319   2.465   1.210 -0.5951  0.1631  0.1357
 2589SOL     OW10401   2.260   0.377   2.287  0.7198  0.2238  0.1380
 2589SOL    HW210402   2.217   0.438   2.347  1.0871  0.1809  0.4442
 2589SOL    HW310403   2.201   0.372   2.212 -0.5521 -0.9675  1.1775
 2589SOL    MW410404   2.246   0.384   2.285  0.6006  0.0609  0.3154
 2590SOL     OW10405   1.378   3.069   2.336  0.2033 -0.0835  0.1286
 2590SOL    HW210406   1.468   3.047   2.313 -0.0947 -0.5375 -0.6225
 2590SOL    HW310407   1.377   3.165   2.342  0.9703 -0.1398  1.1296
 2590SOL    MW410408   1.390   3.079   2.334  0.2651 -0.1507  0.1616
 2591SOL     OW10409   3.496   1.890   3.460  0.2507 -0.1437  0.7530
 2591SOL    HW210410   3.563   1.939   3.412 -0.9425 -0.8158 -1.7112
 2591SOL    HW310411   3.484   1.810   3.409 -1.5078 -0.6140  1.8426
 2591SOL    MW410412   3.503   1.886   3.447 -0.1388 -0.2943  0.5717
 2592SOL     OW10413   1.208   3.648   3.371  0.1725  0.0062  0.5778
 2592SOL    HW210414   1.181   3.712   3.306  1.3144  1.0995  1.1561
 2592SOL    HW310415   1.208   3.696   3.454 -1.9765 -1.5475  1.5366
 2592SOL    MW410416   1.205   3.663   3.373  0.0396 -0.0546  0.7803
 2593SOL     OW10417   3.300   3.395   2.807 -0.0468 -0.4879 -0.4281
 2593SOL    HW210418   3.322   3.461   2.873  0.4624  0.1928 -1.2763
 2593SOL    HW310419   3.255   3.444   2.738 -0.1719 -1.1227 -0.7986
 2593SOL    MW410420   3.297   3.410   2.807  0.0041 -0.4821 -0.5889
 2594SOL     OW10421   2.187   3.975   0.639  0.0247 -0.6944 -0.2937
 2594SOL    HW210422   2.139   4.033   0.698  0.3284 -0.1545 -0.5716
 2594SOL    HW310423   2.210   3.899   0.692  0.2847 -0.2189  0.2698
 2594SOL    MW410424   2.183   3.973   0.654  0.0989 -0.5605 -0.2560
 2595SOL     OW10425   1.964   3.334   0.880  0.2072 -0.7848 -0.4040
 2595SOL    HW210426   1.991   3.242   0.885 -0.0501 -0.7274  3.3076
 2595SOL    HW310427   1.872   3.333   0.905  0.2991  0.5235 -0.0021
 2595SOL    MW410428   1.956   3.321   0.884  0.1851 -0.6049  0.1388
 2596SOL     OW10429   4.335   2.522   1.965  0.0830 -0.4819 -0.5486
 2596SOL    HW210430   4.348   2.429   1.950 -1.1683 -0.8810  0.7670
 2596SOL    HW310431   4.373   2.538   2.052  1.6719  0.5541 -1.4013
 2596SOL    MW410432   4.342   2.512   1.974  0.1278 -0.3979 -0.4876
 2597SOL     OW10433   3.203   1.890   0.865  0.2526 -0.8164  0.0467
 2597SOL    HW210434   3.203   1.899   0.770  3.9572 -0.6279 -0.0225
 2597SOL    HW310435   3.164   1.971   0.897  0.3544 -0.2341 -1.2775
 2597SOL    MW410436   3.198   1.902   0.856  0.7546 -0.7148 -0.1372
 2598SOL     OW10437   1.312   3.959   4.153 -0.3033  0.8577 -0.1916
 2598SOL    HW210438   1.331   4.039   4.104 -0.0955 -0.6419 -2.6524
 2598SOL    HW310439   1.233   3.979   4.202 -1.5030  1.8873 -2.4713
 2598SOL    MW410440   1.304   3.972   4.153 -0.4343  0.7956 -0.8168
 2599SOL     OW10441   0.911   2.466   2.665 -0.6233  0.1936 -0.0526
 2599SOL    HW210442   0.841   2.456   2.730  0.0686 -1.4093  0.4464
 2599SOL    HW310443   0.887   2.546   2.618 -2.6414 -0.1603  0.3068
 2599SOL    MW410444   0.898   2.476   2.667 -0.7983 -0.0646  0.0606
 2600SOL     OW10445   1.390   4.258   0.836  0.1914  0.0514  0.6461
 2600SOL    HW210446   1.378   4.338   0.786  0.6831  1.9083  3.3813
 2600SOL    HW310447   1.302   4.220   0.842 -0.1561  0.7187 -0.1658
 2600SOL    MW410448   1.377   4.263   0.830  0.2104  0.3843  0.8999
 2601SOL     OW10449   0.695   4.339   2.988 -0.1808  0.0686  0.2256
 2601SOL    HW210450   0.628   4.341   3.056 -1.4396 -1.4855 -0.9049
 2601SOL    HW310451   0.766   4.286   3.025 -1.2866 -1.6192  0.0150
 2601SOL    MW410452   0.696   4.332   3.002 -0.4928 -0.3595  0.0489
 2602SOL     OW10453   2.027   0.766   1.333  0.3162 -0.1807  0.1406
 2602SOL    HW210454   2.109   0.815   1.327  0.4810 -0.5306 -0.5856
 2602SOL    HW310455   1.970   0.820   1.388  1.1584 -0.1249  0.9646
 2602SOL    MW410456   2.030   0.780   1.339  0.4489 -0.2195  0.1535
 2603SOL     OW10457   2.753   2.673   1.405 -0.1004 -0.6504 -0.2259
 2603SOL    HW210458   2.796   2.757   1.423 -0.1368 -0.6277 -0.2442
 2603SOL    HW310459   2.804   2.634   1.335  1.4026 -1.7642  1.4515
 2603SOL    MW410460   2.765   2.679   1.398  0.0930 -0.7942 -0.0070
 2604SOL     OW10461   3.521   2.499   2.645  0.0795  0.2654  0.4546
 2604SOL    HW210462   3.472   2.444   2.706 -0.0459 -0.2680 -0.1278
 2604SOL    HW310463   3.599   2.526   2.695  0.2760 -0.6523  0.6573
 2604SOL    MW410464   3.525   2.496   2.660  0.0887  0.0739  0.4046
 2605SOL     OW10465   1.408   2.164   1.963 -0.4736 -0.0077 -0.2397
 2605SOL    HW210466   1.453   2.082   1.941 -1.7912 -0.5262 -1.0608
 2605SOL    HW310467   1.363   2.189   1.882 -0.2971  1.3926  0.0845
 2605SOL    MW410468   1.408   2.156   1.949 -0.6242  0.1087 -0.3053
 2606SOL     OW10469   3.506   0.617   3.194  0.5144  0.0290  0.2316
 2606SOL    HW210470   3.507   0.521   3.185  2.2724 -0.2802  2.9538
 2606SOL    HW310471   3.449   0.633   3.269 -0.0043  1.1629 -0.3963
 2606SOL    MW410472   3.499   0.606   3.202  0.6778  0.1377  0.5078
 2607SOL     OW10473   1.831   2.622   1.065 -0.3479  0.6135 -0.3642
 2607SOL    HW210474   1.910   2.597   1.113  0.1889 -1.0715 -2.0576
 2607SOL    HW310475   1.760   2.575   1.109 -0.0648  0.2586 -0.2852
 2607SOL    MW410476   1.832   2.613   1.077 -0.2398  0.3445 -0.5772
 2608SOL     OW10477   0.172   2.620   0.555  0.1234  0.3994 -0.7823
 2608SOL    HW210478   0.192   2.707   0.522  0.1473  0.9081  0.5316
 2608SOL    HW310479   0.232   2.607   0.628 -0.9631 -0.0480  0.0560
 2608SOL    MW410480   0.182   2.629   0.560 -0.0168  0.4077 -0.4984
 2609SOL     OW10481   3.684   2.879   3.528  0.7079  0.0136  0.1576
 2609SOL    HW210482   3.663   2.918   3.443 -0.0685 -0.3965  0.1515
 2609SOL    HW310483   3.750   2.937   3.566  0.5562  0.5760 -0.4336
 2609SOL    MW410484   3.690   2.892   3.522  0.5856  0.0336  0.0787
 2610SOL     OW10485   1.489   3.945   4.466  0.1129  0.1611 -0.2254
 2610SOL    HW210486   1.503   3.898   4.384 -0.4533 -0.7541  0.1922
 2610SOL    HW310487   1.571   3.992   4.481  0.8236 -0.9673 -0.4816
 2610SOL    MW410488   1.502   3.945   4.457  0.1321 -0.1087 -0.2046
 2611SOL     OW10489   4.246   0.791   2.962 -0.2830  0.1905  0.1439
 2611SOL    HW210490   4.277   0.880   2.978  0.8002 -0.0943 -0.3016
 2611SOL    HW310491   4.326   0.740   2.946 -1.0083 -0.4040 -1.8023
 2611SOL    MW410492   4.261   0.796   2.962 -0.2360  0.0745 -0.1717
 2612SOL     OW10493   1.520   0.476   2.695  0.1956  0.4647 -0.2725
 2612SOL    HW210494   1.533   0.557   2.744  1.1734  0.1576 -0.0105
 2612SOL    HW310495   1.482   0.415   2.759 -1.2125  0.9274 -0.6584
 2612SOL    MW410496   1.517   0.479   2.710  0.1389  0.4852 -0.2890
 2613SOL     OW10497   2.682   3.666   1.669  0.0101  0.7575 -0.3379
 2613SOL    HW210498   2.643   3.654   1.583  0.0936 -1.0504 -0.1359
 2613SOL    HW310499   2.607   3.685   1.726 -0.4402 -1.1647 -0.2405
 2613SOL    MW410500   2.667   3.667   1.665 -0.0381  0.2654 -0.2983
 2614SOL     OW10501   3.219   1.036   3.528 -0.1417  0.2615 -0.0165
 2614SOL    HW210502   3.312   1.017   3.543  1.0327  4.3737 -1.3278
 2614SOL    HW310503   3.188   1.073   3.611 -1.2766 -3.2009  1.1592
 2614SOL    MW410504   3.227   1.039   3.541 -0.1364  0.3473 -0.0343
 2615SOL     OW10505   4.199   2.171   3.731  0.1997  0.4396  0.6201
 2615SOL    HW210506   4.191   2.115   3.809  0.3167  0.3560  0.5708
 2615SOL    HW310507   4.132   2.238   3.743  0.6849  0.8362  1.1323
 2615SOL    MW410508   4.189   2.172   3.743  0.2794  0.4809  0.6809
 2616SOL     OW10509   3.015   0.835   1.651 -0.0544  0.3491  0.5823
 2616SOL    HW210510   3.043   0.823   1.741  0.8428 -0.2035  0.2325
 2616SOL    HW310511   2.921   0.851   1.657 -0.0617 -0.0495  1.5814
 2616SOL    MW410512   3.006   0.836   1.664  0.0627  0.2236  0.6680
 2617SOL     OW10513   1.604   4.501   3.537  0.4178  0.3131  0.5769
 2617SOL    HW210514   1.596   4.407   3.518  0.0895  0.4992 -0.2318
 2617SOL    HW310515   1.611   4.506   3.632  0.3796 -0.5340  0.6243
 2617SOL    MW410516   1.604   4.489   3.547  0.3693  0.2265  0.4766
 2618SOL     OW10517   3.695   1.171   3.542  0.4860 -0.0574  0.5223
 2618SOL    HW210518   3.703   1.215   3.627 -0.1887  0.7325  0.1856
 2618SOL    HW310519   3.666   1.240   3.482  0.6944 -0.6693 -0.2951
 2618SOL    MW410520   3.693   1.186   3.545  0.4244 -0.0339  0.3700
 2619SOL     OW10521   3.770   1.162   2.316  0.3296 -0.1146 -0.0206
 2619SOL    HW210522   3.793   1.255   2.323  0.4813 -0.2345  1.1907
 2619SOL    HW310523   3.828   1.128   2.248  1.2463  0.3800  0.5029
 2619SOL    MW410524   3.781   1.170   2.308  0.4706 -0.0650  0.2081
 2620SOL     OW10525   1.528   1.118   0.853 -0.0379  0.1593 -0.2091
 2620SOL    HW210526   1.490   1.034   0.876 -1.0321  0.7573  0.3856
 2620SOL    HW310527   1.556   1.156   0.936 -0.0352  0.6167 -0.4125
 2620SOL    MW410528   1.527   1.112   0.867 -0.1687  0.2986 -0.1575
 2621SOL     OW10529   1.626   4.422   3.993 -0.5382 -0.3981 -0.0799
 2621SOL    HW210530   1.720   4.440   3.991 -0.6393  0.1136 -0.1374
 2621SOL    HW310531   1.604   4.423   4.086  0.0237 -3.1784  0.1560
 2621SOL    MW410532   1.636   4.424   4.005 -0.4774 -0.6971 -0.0563
 2622SOL     OW10533   4.360   1.052   3.836 -0.4611 -0.0742 -0.6062
 2622SOL    HW210534   4.354   0.957   3.838 -1.4234 -0.0232 -1.1190
 2622SOL    HW310535   4.411   1.071   3.757  3.3937 -0.3244  1.6833
 2622SOL    MW410536   4.366   1.042   3.826 -0.0792 -0.1004 -0.3717
 2623SOL     OW10537   3.294   3.417   3.688  0.3615  1.1124  0.0257
 2623SOL    HW210538   3.216   3.395   3.739  1.3868 -2.8278  0.0419
 2623SOL    HW310539   3.264   3.419   3.597  0.1221 -0.0775  0.0650
 2623SOL    MW410540   3.280   3.414   3.683  0.4654  0.4358  0.0331
 2624SOL     OW10541   0.278   3.567   2.379  0.5409 -0.2508  0.1866
 2624SOL    HW210542   0.316   3.644   2.336  1.5435  0.2326  1.9134
 2624SOL    HW310543   0.191   3.594   2.406  0.0713 -0.4152 -1.0856
 2624SOL    MW410544   0.272   3.581   2.377  0.6112 -0.2089  0.2463
 2625SOL     OW10545   4.322   3.304   2.629 -0.3098 -0.0536  0.3172
 2625SOL    HW210546   4.229   3.317   2.606 -0.3861 -1.8817 -0.4509
 2625SOL    HW310547   4.359   3.259   2.553  1.5109  1.7429  0.0948
 2625SOL    MW410548   4.314   3.300   2.616 -0.0792 -0.0579  0.1867
 2626SOL     OW10549   3.142   1.580   3.134  0.0168  0.1785 -0.3258
 2626SOL    HW210550   3.156   1.553   3.043 -1.9339 -0.7408 -0.3700
 2626SOL    HW310551   3.066   1.530   3.163 -0.9221  2.2962  1.0237
 2626SOL    MW410552   3.134   1.570   3.126 -0.3643  0.3365 -0.1535
 2627SOL     OW10553   1.917   3.940   0.949  0.0205 -0.1902  0.1402
 2627SOL    HW210554   1.966   4.008   0.904 -0.6162 -0.1004 -0.4238
 2627SOL    HW310555   1.950   3.858   0.912 -1.0704 -0.0863 -1.0728
 2627SOL    MW410556   1.928   3.938   0.938 -0.2075 -0.1645 -0.0942
 2628SOL     OW10557   0.531   0.788   4.720 -0.2899  0.2370 -0.2012
 2628SOL    HW210558   0.475   0.829   4.654 -0.2390  0.5760 -0.0362
 2628SOL    HW310559   0.610   0.842   4.722  0.2580 -0.5470 -0.7965
 2628SOL    MW410560   0.534   0.801   4.712 -0.2108  0.1782 -0.2580
 2629SOL     OW10561   0.881   3.686   3.167 -0.1366 -0.4642 -0.3287
 2629SOL    HW210562   0.965   3.731   3.168  0.1095 -0.9343  0.8228
 2629SOL    HW310563   0.856   3.680   3.259 -0.6945 -1.6832 -0.5513
 2629SOL    MW410564   0.889   3.691   3.179 -0.1778 -0.6871 -0.2062
 2630SOL     OW10565   1.198   1.755   2.527  0.3956  0.0068  0.5169
 2630SOL    HW210566   1.147   1.835   2.545  0.1190 -0.0049 -0.2112
 2630SOL    HW310567   1.148   1.708   2.461  0.5776 -0.7636  0.9197
 2630SOL    MW410568   1.185   1.760   2.521  0.3831 -0.0964  0.4740
 2631SOL     OW10569   3.847   0.090   1.158  0.2677 -0.0944  0.0266
 2631SOL    HW210570   3.869   0.021   1.221  0.7426  0.5337  0.5520
 2631SOL    HW310571   3.847   0.170   1.209 -0.4242  0.2850 -0.5637
 2631SOL    MW410572   3.850   0.091   1.173  0.2391  0.0385  0.0180
 2632SOL     OW10573   1.242   3.720   2.956 -0.4991 -0.0062  0.2593
 2632SOL    HW210574   1.301   3.662   3.004  0.9589 -0.9376 -2.5639
 2632SOL    HW310575   1.167   3.665   2.933 -0.3582 -0.0521 -0.0925
 2632SOL    MW410576   1.240   3.705   2.960 -0.2881 -0.1354 -0.1597
 2633SOL     OW10577   3.607   3.175   2.880  0.6871  0.1432 -0.5282
 2633SOL    HW210578   3.626   3.094   2.834  0.5118 -0.1198 -0.1413
 2633SOL    HW310579   3.528   3.208   2.839 -0.3355 -0.8727  0.5864
 2633SOL    MW410580   3.599   3.169   2.869  0.5291 -0.0257 -0.3302
 2634SOL     OW10581   0.129   3.538   3.162 -0.1690  0.1066 -0.2767
 2634SOL    HW210582   0.196   3.471   3.152  0.1352  0.2390  0.8338
 2634SOL    HW310583   0.046   3.492   3.147  0.0329 -0.5366  0.5180
 2634SOL    MW410584   0.127   3.523   3.159 -0.1023  0.0393 -0.0255
 2635SOL     OW10585   3.860   0.684   1.629 -0.1606 -0.0907  0.0425
 2635SOL    HW210586   3.796   0.730   1.574 -0.6544 -0.4526  0.3110
 2635SOL    HW310587   3.919   0.642   1.566 -0.6633 -0.4208 -0.2157
 2635SOL    MW410588   3.859   0.685   1.613 -0.2921 -0.1821  0.0440
 2636SOL     OW10589   2.663   0.706   1.367  0.6759  0.3949 -0.4256
 2636SOL    HW210590   2.605   0.718   1.292 -1.9233  0.0824  1.4933
 2636SOL    HW310591   2.700   0.793   1.382 -0.4547  0.9338 -0.7255
 2636SOL    MW410592   2.660   0.719   1.359  0.1838  0.4247 -0.2120
 2637SOL     OW10593   3.900   4.182   1.903 -0.2788  0.4208 -0.5240
 2637SOL    HW210594   3.822   4.152   1.950 -0.4949  1.3754 -0.2583
 2637SOL    HW310595   3.893   4.142   1.817 -0.6862 -0.1008 -0.2503
 2637SOL    MW410596   3.888   4.173   1.898 -0.3610  0.4778 -0.4529
 2638SOL     OW10597   3.440   1.833   3.907  0.2920  0.2661 -0.5249
 2638SOL    HW210598   3.410   1.910   3.955  0.3625 -0.2839  0.4171
 2638SOL    HW310599   3.456   1.864   3.817  0.3837  1.3537 -0.1325
 2638SOL    MW410600   3.438   1.847   3.901  0.3133  0.3370 -0.3490
 2639SOL     OW10601   3.498   1.410   1.404 -0.3956 -0.2227 -0.0265
 2639SOL    HW210602   3.553   1.474   1.358  0.3297 -1.2562 -0.6104
 2639SOL    HW310603   3.455   1.361   1.335 -1.1481 -0.2104  0.4257
 2639SOL    MW410604   3.500   1.412   1.389 -0.3996 -0.3575 -0.0440
 2640SOL     OW10605   0.204   0.332   3.108 -0.1995 -0.0064 -0.1382
 2640SOL    HW210606   0.260   0.264   3.145  1.5497  1.6324  0.2947
 2640SOL    HW310607   0.190   0.304   3.017  0.5653 -0.9010  0.0066
 2640SOL    MW410608   0.209   0.319   3.101  0.1322  0.0918 -0.0620
 2641SOL     OW10609   0.954   0.118   1.056  0.2075  0.0514  0.3523
 2641SOL    HW210610   0.967   0.103   1.149 -0.2715 -2.2240  0.0819
 2641SOL    HW310611   1.005   0.196   1.036 -1.0864  1.5763  2.8544
 2641SOL    MW410612   0.962   0.126   1.065 -0.0265 -0.0476  0.6467
 2642SOL     OW10613   1.305   2.270   1.706  0.6564 -0.1714 -0.1548
 2642SOL    HW210614   1.337   2.358   1.686 -0.7246  0.1736 -0.9644
 2642SOL    HW310615   1.341   2.215   1.637  0.5214 -0.0090 -0.3561
 2642SOL    MW410616   1.314   2.274   1.694  0.4565 -0.1047 -0.2881
 2643SOL     OW10617   4.471   1.774   3.785 -0.0664  0.2864 -0.5250
 2643SOL    HW210618   4.469   1.773   3.689  2.8641  1.3334 -0.6364
 2643SOL    HW310619   4.419   1.850   3.809  2.2965  2.2508 -1.4562
 2643SOL    MW410620   4.464   1.784   3.775  0.6323  0.6839 -0.6623
 2644SOL     OW10621   0.817   3.440   3.554  0.0084  0.1858  0.0996
 2644SOL    HW210622   0.893   3.474   3.601 -0.6890  0.3919  1.0862
 2644SOL    HW310623   0.747   3.440   3.619 -0.5743 -0.9770 -0.5245
 2644SOL    MW410624   0.818   3.445   3.569 -0.1605  0.0596  0.1473
 2645SOL     OW10625   0.511   3.123   3.257 -0.1289 -0.1983  0.3234
 2645SOL    HW210626   0.449   3.139   3.187 -0.0909  1.4578  0.6558
 2645SOL    HW310627   0.461   3.078   3.324 -0.9717  1.1031  0.5763
 2645SOL    MW410628   0.496   3.119   3.257 -0.2351  0.1922  0.4005
 2646SOL     OW10629   0.041   2.088   1.813  0.1695 -0.1487 -0.2842
 2646SOL    HW210630  -0.027   2.135   1.861  0.8561  0.3306  0.2306
 2646SOL    HW310631   0.070   2.019   1.872 -0.0380 -0.5111 -0.5994
 2646SOL    MW410632   0.036   2.085   1.827  0.2327 -0.1333 -0.2580
 2647SOL     OW10633   3.976   3.371   1.070 -0.3341  0.2057  0.3889
 2647SOL    HW210634   3.948   3.368   1.161 -2.9372 -1.9075 -0.4427
 2647SOL    HW310635   4.058   3.321   1.068 -1.6589 -2.0382  1.1161
 2647SOL    MW410636   3.983   3.364   1.082 -0.8523 -0.3693  0.3750
 2648SOL     OW10637   2.953   2.871   3.771  0.5937  0.3295 -0.0771
 2648SOL    HW210638   2.960   2.955   3.726  0.3099  0.3188 -0.1424
 2648SOL    HW310639   3.011   2.813   3.722  1.6055  0.7540  0.6074
 2648SOL    MW410640   2.962   2.874   3.759  0.6897  0.3843  0.0045
 2649SOL     OW10641   1.521   0.706   2.871  0.0784 -0.0132 -0.3946
 2649SOL    HW210642   1.522   0.688   2.965  0.3569  0.8848 -0.2206
 2649SOL    HW310643   1.610   0.737   2.852 -0.3763  1.1181 -0.6925
 2649SOL    MW410644   1.533   0.708   2.881  0.0552  0.2545 -0.4108
 2650SOL     OW10645   3.834   3.418   1.309 -0.2045  1.0535  0.3792
 2650SOL    HW210646   3.840   3.471   1.389  0.5594 -1.1166  1.7903
 2650SOL    HW310647   3.773   3.348   1.332  0.5187  0.0559 -0.7279
 2650SOL    MW410648   3.827   3.416   1.323 -0.0083  0.6359  0.4194
 2651SOL     OW10649   1.842   3.486   3.650 -0.0547  0.3850  0.8591
 2651SOL    HW210650   1.913   3.422   3.646  1.3362  1.7927  2.1080
 2651SOL    HW310651   1.882   3.563   3.691 -1.7865  1.8949 -0.2083
 2651SOL    MW410652   1.857   3.488   3.655 -0.0997  0.7699  0.8829
 2652SOL     OW10653   2.952   2.019   3.970 -0.2575  0.0120  0.4117
 2652SOL    HW210654   2.960   1.988   3.880  0.9204 -0.0454  0.5274
 2652SOL    HW310655   3.010   1.961   4.020  0.9663  1.5675  0.8284
 2652SOL    MW410656   2.961   2.007   3.965  0.0596  0.2093  0.4818
 2653SOL     OW10657   4.314   0.282   2.274  0.5558  0.2272 -0.3105
 2653SOL    HW210658   4.369   0.310   2.347 -0.6918  2.1189 -0.0718
 2653SOL    HW310659   4.316   0.355   2.212 -0.2422 -0.4157 -1.1217
 2653SOL    MW410660   4.321   0.296   2.275  0.2861  0.3920 -0.3860
 2654SOL     OW10661   2.023   1.795   2.858 -0.3915 -0.1168 -0.0584
 2654SOL    HW210662   1.982   1.848   2.926  1.0211 -0.0382  0.7428
 2654SOL    HW310663   1.973   1.713   2.857 -0.1379 -0.3017  1.3984
 2654SOL    MW410664   2.011   1.791   2.867 -0.1717 -0.1309  0.2396
 2655SOL     OW10665   1.332   3.604   4.306 -0.2488 -0.3752 -0.3762
 2655SOL    HW210666   1.277   3.654   4.365  0.0085 -0.1515 -0.3247
 2655SOL    HW310667   1.400   3.665   4.277  0.4672 -0.8743  0.2210
 2655SOL    MW410668   1.334   3.618   4.310 -0.1203 -0.4113 -0.2904
 2656SOL     OW10669   3.959   4.192   0.998  0.2008 -0.1960 -0.5353
 2656SOL    HW210670   3.949   4.152   0.911  0.4544 -0.5288 -0.4144
 2656SOL    HW310671   4.054   4.194   1.012  0.1336 -0.8901  0.0716
 2656SOL    MW410672   3.970   4.187   0.988  0.2253 -0.3319 -0.4393
 2657SOL     OW10673   3.266   1.643   4.011 -0.0226  0.2580  0.1668
 2657SOL    HW210674   3.192   1.684   4.054  0.2427 -0.1882  1.0545
 2657SOL    HW310675   3.327   1.716   3.994 -0.7080  0.6464 -0.6987
 2657SOL    MW410676   3.265   1.658   4.014 -0.0782  0.2502  0.1698
 2658SOL     OW10677   0.312   2.588   4.143  0.1124 -0.2814  0.3270
 2658SOL    HW210678   0.363   2.664   4.172 -0.7116 -0.0248  1.1146
 2658SOL    HW310679   0.378   2.519   4.130  0.5577 -0.3492  2.6562
 2658SOL    MW410680   0.328   2.589   4.145  0.0625 -0.2565  0.7377
 2659SOL     OW10681   2.698   3.448   1.873  0.5449  0.2102  0.1433
 2659SOL    HW210682   2.641   3.441   1.950  1.6495 -0.2739  0.9330
 2659SOL    HW310683   2.663   3.522   1.824  1.6205  2.5109  2.6797
 2659SOL    MW410684   2.686   3.457   1.877  0.8326  0.4499  0.5820
 2660SOL     OW10685   2.099   4.655   0.913 -0.4596  0.2913 -0.4482
 2660SOL    HW210686   2.123   4.593   0.982 -3.6180 -0.0460  0.4671
 2660SOL    HW310687   2.065   4.601   0.842  2.5534  0.6566 -2.2232
 2660SOL    MW410688   2.098   4.640   0.913 -0.4787  0.2947 -0.5616
 2661SOL     OW10689   3.650   2.170   2.851  0.3714 -0.6141 -0.3343
 2661SOL    HW210690   3.709   2.165   2.776  0.7040 -2.5687  0.0317
 2661SOL    HW310691   3.692   2.232   2.911  0.3381  0.5912 -1.5426
 2661SOL    MW410692   3.663   2.177   2.849  0.4108 -0.7129 -0.4451
 2662SOL     OW10693   2.518   1.330   2.832 -0.6552 -0.2437 -0.4741
 2662SOL    HW210694   2.534   1.377   2.751 -0.5279 -0.1774 -0.4115
 2662SOL    HW310695   2.438   1.280   2.816 -2.0299  1.6578  0.1901
 2662SOL    MW410696   2.510   1.330   2.819 -0.8197  0.0159 -0.3781
 2663SOL     OW10697   1.909   2.361   4.467  0.5871  0.1831  0.5405
 2663SOL    HW210698   1.859   2.358   4.385  0.7702  1.4092  0.3779
 2663SOL    HW310699   1.979   2.424   4.450 -0.2515  1.5875  2.1424
 2663SOL    MW410700   1.912   2.369   4.454  0.5007  0.5302  0.7305
 2664SOL     OW10701   2.042   4.272   3.166  0.5589  0.2852 -0.0918
 2664SOL    HW210702   2.109   4.214   3.201  0.8580  0.1303 -0.9057
 2664SOL    HW310703   1.961   4.242   3.206  0.9791  0.5156  0.9527
 2664SOL    MW410704   2.040   4.260   3.176  0.6537  0.2952 -0.0613
 2665SOL     OW10705   3.139   2.505   1.116 -0.0845 -0.0364  0.2955
 2665SOL    HW210706   3.143   2.591   1.075  0.1679 -0.5678 -0.7869
 2665SOL    HW310707   3.148   2.442   1.044 -1.7042 -0.9989  0.8862
 2665SOL    MW410708   3.141   2.508   1.101 -0.2646 -0.2337  0.2307
 2666SOL     OW10709   2.321   0.497   1.107 -0.5077 -0.1045  0.2400
 2666SOL    HW210710   2.237   0.488   1.063 -1.0000  0.7773  0.9847
 2666SOL    HW310711   2.300   0.504   1.200  0.4212 -0.3598  0.4839
 2666SOL    MW410712   2.307   0.497   1.113 -0.4501 -0.0218  0.3704
 2667SOL     OW10713   0.338   2.369   3.030  0.3658  0.1024  0.0105
 2667SOL    HW210714   0.264   2.309   3.020  0.4294  0.2699 -1.7025
 2667SOL    HW310715   0.301   2.456   3.017  0.7453  0.2322 -0.2359
 2667SOL    MW410716   0.324   2.372   3.027  0.4242  0.1414 -0.2480
 2668SOL     OW10717   1.306   0.493   2.512  0.8881 -0.3508  0.0948
 2668SOL    HW210718   1.303   0.407   2.470 -0.7704 -0.3445  0.1676
 2668SOL    HW310719   1.383   0.490   2.568  1.6196 -1.3013 -0.9426
 2668SOL    MW410720   1.316   0.481   2.514  0.7658 -0.4754 -0.0324
 2669SOL     OW10721   3.158   2.148   0.931 -0.2503 -1.1231  0.0877
 2669SOL    HW210722   3.162   2.146   1.027 -1.8032 -1.1987  0.1562
 2669SOL    HW310723   3.207   2.226   0.907  0.6946 -1.4500  0.9071
 2669SOL    MW410724   3.165   2.158   0.941 -0.3304 -1.1761  0.2049
 2670SOL     OW10725   3.517   3.936   3.812  0.0563  0.1628  0.1502
 2670SOL    HW210726   3.439   3.917   3.760  1.0954 -1.0203 -1.0164
 2670SOL    HW310727   3.578   3.865   3.790  0.8980  0.2170  2.2034
 2670SOL    MW410728   3.515   3.924   3.802  0.3045  0.0141  0.2673
 2671SOL     OW10729   4.343   1.235   0.489 -0.1436 -0.3045 -0.2278
 2671SOL    HW210730   4.268   1.215   0.544  0.2382  0.1391  0.4645
 2671SOL    HW310731   4.329   1.185   0.409 -0.1225 -1.8598  0.7289
 2671SOL    MW410732   4.331   1.226   0.486 -0.0901 -0.4511 -0.0103
 2672SOL     OW10733   3.499   0.410   3.762 -0.3902  0.2502  0.2545
 2672SOL    HW210734   3.408   0.383   3.749 -0.0523 -0.4917 -0.5840
 2672SOL    HW310735   3.502   0.441   3.853 -1.1956 -0.8615  0.6661
 2672SOL    MW410736   3.488   0.411   3.772 -0.4518  0.0056  0.1981
 2673SOL     OW10737   0.338   4.321   4.439 -0.0148  0.0617  0.0195
 2673SOL    HW210738   0.431   4.328   4.462  0.7096 -1.4736 -2.2163
 2673SOL    HW310739   0.333   4.360   4.351 -1.0783 -1.6461 -0.7059
 2673SOL    MW410740   0.350   4.327   4.430 -0.0595 -0.3657 -0.3719
 2674SOL     OW10741   1.723   4.113   4.463 -0.2138 -0.4343 -0.4068
 2674SOL    HW210742   1.801   4.069   4.496 -1.0632 -1.2211  0.6266
 2674SOL    HW310743   1.733   4.204   4.489  0.0224 -0.6798  0.3733
 2674SOL    MW410744   1.734   4.119   4.471 -0.2947 -0.5703 -0.1674
 2675SOL     OW10745   2.688   1.081   3.527 -0.4962  0.0730 -0.6082
 2675SOL    HW210746   2.729   1.023   3.463  0.4041  0.7762 -0.6652
 2675SOL    HW310747   2.716   1.046   3.612 -0.6977 -0.1220 -0.6215
 2675SOL    MW410748   2.697   1.068   3.530 -0.4039  0.1401 -0.6175
 2676SOL     OW10749   3.991   0.881   1.303  0.1936  0.2037  0.5076
 2676SOL    HW210750   4.011   0.805   1.358 -0.0950  0.0970  0.4666
 2676SOL    HW310751   3.940   0.939   1.359  1.0006  0.6824  0.7522
 2676SOL    MW410752   3.987   0.878   1.317  0.2618  0.2528  0.5343
 2677SOL     OW10753   2.269   4.497   2.164 -0.3586 -0.2075  0.3424
 2677SOL    HW210754   2.317   4.511   2.246 -0.9039  0.8626  0.4807
 2677SOL    HW310755   2.335   4.461   2.104  0.1976 -0.3919  1.0589
 2677SOL    MW410756   2.284   4.494   2.167 -0.3569 -0.0906  0.4551
 2678SOL     OW10757   4.107   2.180   4.104 -0.0603 -0.3579  0.1161
 2678SOL    HW210758   4.088   2.115   4.036  2.1634 -0.6285 -0.2810
 2678SOL    HW310759   4.190   2.219   4.078 -0.6740  1.6741  1.1080
 2678SOL    MW410760   4.116   2.177   4.092  0.1516 -0.1254  0.1945
 2679SOL     OW10761   2.152   2.661   1.395  0.4155  0.3802  0.4354
 2679SOL    HW210762   2.125   2.665   1.487  0.8955  1.0591  0.5472
 2679SOL    HW310763   2.119   2.577   1.364 -0.1768  0.3684  1.0954
 2679SOL    MW410764   2.144   2.650   1.403  0.4008  0.4683  0.5372
 2680SOL     OW10765   1.968   2.423   2.258 -0.0409 -0.0997  0.1181
 2680SOL    HW210766   2.028   2.419   2.333  0.9749 -0.0454 -0.6916
 2680SOL    HW310767   1.886   2.385   2.291  0.8089 -1.2977  0.8518
 2680SOL    MW410768   1.965   2.418   2.272  0.2052 -0.2508  0.1080
 2681SOL     OW10769   3.984   0.447   3.657  0.2819 -0.1583 -0.6389
 2681SOL    HW210770   4.075   0.477   3.651  0.4785 -0.3861  1.1756
 2681SOL    HW310771   3.935   0.508   3.601  1.2385  1.2359  0.0288
 2681SOL    MW410772   3.990   0.459   3.649  0.4339 -0.0044 -0.3114
 2682SOL     OW10773   3.084   0.465   3.679 -0.0444 -0.4177  0.0952
 2682SOL    HW210774   3.126   0.550   3.662 -0.4989 -0.2808 -0.3712
 2682SOL    HW310775   3.015   0.485   3.741 -0.7668 -0.2726 -0.7393
 2682SOL    MW410776   3.081   0.479   3.685 -0.1998 -0.3804 -0.0765
 2683SOL     OW10777   0.664   4.636   0.869  0.3195  0.4618  0.5582
 2683SOL    HW210778   0.696   4.724   0.888  1.3867 -0.0514  1.1663
 2683SOL    HW310779   0.576   4.634   0.906  0.1688  1.3715  0.2673
 2683SOL    MW410780   0.657   4.647   0.876  0.4405  0.5140  0.6000
 2684SOL     OW10781   0.379   4.375   1.107  0.2416  0.0773  0.1187
 2684SOL    HW210782   0.411   4.295   1.065  0.4186  0.1164  0.1798
 2684SOL    HW310783   0.450   4.401   1.166  0.3230  0.4709 -0.1535
 2684SOL    MW410784   0.392   4.368   1.109  0.2757  0.1345  0.0907
 2685SOL     OW10785   1.384   0.360   1.809  0.0090 -0.5467 -0.3788
 2685SOL    HW210786   1.432   0.278   1.794  1.4715  0.2493 -0.1790
 2685SOL    HW310787   1.445   0.415   1.858 -1.0347  0.5866 -0.3199
 2685SOL    MW410788   1.398   0.356   1.813  0.0644 -0.2922 -0.3446
 2686SOL     OW10789   0.818   2.699   2.531  0.0525  0.3162 -0.3607
 2686SOL    HW210790   0.879   2.708   2.457  1.4664  0.1612  0.7763
 2686SOL    HW310791   0.834   2.777   2.584  0.3627 -0.4907  0.7487
 2686SOL    MW410792   0.828   2.711   2.528  0.2800  0.1893 -0.0644
 2687SOL     OW10793   2.576   0.739   1.724 -0.4271 -0.8210  0.1865
 2687SOL    HW210794   2.592   0.647   1.746 -3.7656 -1.6772 -0.5752
 2687SOL    HW310795   2.510   0.767   1.788 -0.5316  0.6057 -0.5307
 2687SOL    MW410796   2.569   0.730   1.736 -0.8814 -0.7457 -0.0085
 2688SOL     OW10797   4.301   2.754   1.395  0.1632 -0.0474  0.8641
 2688SOL    HW210798   4.221   2.702   1.396  0.0195  0.1397 -0.1224
 2688SOL    HW310799   4.287   2.820   1.463 -1.5377  1.4576 -0.8760
 2688SOL    MW410800   4.288   2.756   1.404 -0.0801  0.1760  0.5044
 2689SOL     OW10801   1.053   1.836   4.384  0.6465 -0.5918 -0.2204
 2689SOL    HW210802   0.961   1.823   4.361  0.6282 -2.0955  0.6465
 2689SOL    HW310803   1.051   1.896   4.459  0.3572 -0.7828 -0.0749
 2689SOL    MW410804   1.041   1.842   4.391  0.6058 -0.8155 -0.0868
 2690SOL     OW10805   2.614   3.408   3.047  0.4057  0.4290 -0.0954
 2690SOL    HW210806   2.520   3.425   3.047  0.2889 -0.2108  0.1766
 2690SOL    HW310807   2.645   3.446   3.129  0.0014 -1.4157  0.9390
 2690SOL    MW410808   2.606   3.416   3.057  0.3366  0.1011  0.0770
 2691SOL     OW10809   3.380   4.181   4.257  0.0163  0.5786  0.4689
 2691SOL    HW210810   3.442   4.172   4.185  0.5271 -2.3223  1.1851
 2691SOL    HW310811   3.434   4.207   4.332  0.4571 -2.1370  1.1385
 2691SOL    MW410812   3.395   4.183   4.257  0.1421 -0.1616  0.6518
 2692SOL     OW10813   0.221   2.156   0.851  0.0032  0.0561 -0.7033
 2692SOL    HW210814   0.264   2.241   0.861  0.3874 -0.2278  0.1030
 2692SOL    HW310815   0.225   2.138   0.758  1.5343  0.0962 -0.6669
 2692SOL    MW410816   0.227   2.164   0.840  0.2559  0.0238 -0.5921
 2693SOL     OW10817   4.377   4.290   1.868  0.3340  0.2170 -0.3300
 2693SOL    HW210818   4.327   4.224   1.916 -0.7386  0.3468 -1.2287
 2693SOL    HW310819   4.411   4.348   1.935 -0.8892  0.2247  0.3062
 2693SOL    MW410820   4.375   4.289   1.883  0.0310  0.2346 -0.3647
 2694SOL     OW10821   1.008   3.582   3.722  0.2387 -0.5922 -0.7293
 2694SOL    HW210822   1.059   3.649   3.676  0.7365 -1.5844 -1.6219
 2694SOL    HW310823   0.924   3.625   3.739  1.3663  1.0705  0.8127
 2694SOL    MW410824   1.003   3.597   3.718  0.4532 -0.5038 -0.6437
 2695SOL     OW10825   2.483   4.438   1.997 -0.1320 -0.2118 -0.4630
 2695SOL    HW210826   2.522   4.381   1.931  1.3532  0.5802 -0.3114
 2695SOL    HW310827   2.473   4.522   1.952 -1.1410 -0.2611 -0.3251
 2695SOL    MW410828   2.487   4.442   1.982 -0.0691 -0.1135 -0.4247
 2696SOL     OW10829   1.722   0.973   3.540  0.1630 -0.2993 -0.1854
 2696SOL    HW210830   1.776   1.018   3.476  0.2378  0.3301  0.3146
 2696SOL    HW310831   1.723   1.030   3.617 -1.0264 -0.3858 -0.0898
 2696SOL    MW410832   1.729   0.987   3.542  0.0159 -0.2276 -0.1068
 2697SOL     OW10833   1.047   1.357   2.654  0.1805 -0.1953  0.1842
 2697SOL    HW210834   1.032   1.366   2.559  0.5426  0.5077  0.1935
 2697SOL    HW310835   1.113   1.289   2.661 -0.1191 -0.5137 -0.0516
 2697SOL    MW410836   1.054   1.349   2.642  0.1888 -0.1445  0.1543
 2698SOL     OW10837   2.279   1.321   4.473 -0.4659 -0.2538  0.3505
 2698SOL    HW210838   2.203   1.339   4.528 -0.7647 -0.7376  0.1010
 2698SOL    HW310839   2.275   1.227   4.457  0.0121 -0.2282  0.0817
 2698SOL    MW410840   2.268   1.311   4.478 -0.4425 -0.3141  0.2818
 2699SOL     OW10841   1.368   4.515   0.683 -0.1586 -0.1396  0.1681
 2699SOL    HW210842   1.274   4.520   0.669  0.3231  0.5747 -3.3373
 2699SOL    HW310843   1.403   4.594   0.642  2.0250 -0.5783  1.0780
 2699SOL    MW410844   1.360   4.526   0.676  0.1931 -0.1030 -0.1744
 2700SOL     OW10845   1.456   3.000   0.905  0.0698 -0.4602 -0.0250
 2700SOL    HW210846   1.452   2.958   0.819  0.4989  1.1747 -0.8609
 2700SOL    HW310847   1.549   2.998   0.927 -0.0045 -0.6076  0.2776
 2700SOL    MW410848   1.468   2.994   0.897  0.1167 -0.2639 -0.0954
 2701SOL     OW10849   3.907   1.831   2.625 -0.3854 -0.1046  0.0975
 2701SOL    HW210850   3.994   1.829   2.587 -1.0453  0.4392 -1.4879
 2701SOL    HW310851   3.851   1.792   2.558 -1.4110 -0.1401  0.9643
 2701SOL    MW410852   3.911   1.826   2.611 -0.6077 -0.0376  0.0026
 2702SOL     OW10853   3.472   4.424   2.936 -0.0022  0.4017  0.2385
 2702SOL    HW210854   3.547   4.454   2.884  0.8715 -0.2522  1.0992
 2702SOL    HW310855   3.511   4.377   3.010 -1.2907 -3.0832 -1.1459
 2702SOL    MW410856   3.487   4.422   2.939 -0.0572 -0.1450  0.1695
 2703SOL     OW10857   3.764   2.569   1.657  0.0227  0.0347 -0.0474
 2703SOL    HW210858   3.704   2.494   1.662  0.4442 -0.3254 -0.3878
 2703SOL    HW310859   3.770   2.589   1.564  2.1618 -1.3510 -0.2438
 2703SOL    MW410860   3.757   2.562   1.646  0.3605 -0.1955 -0.1183
 2704SOL     OW10861   2.857   4.150   3.033 -0.5537  0.2588  0.3720
 2704SOL    HW210862   2.848   4.117   2.943 -1.6659 -0.0368  0.5793
 2704SOL    HW310863   2.791   4.219   3.039 -1.1251 -0.3590  1.2522
 2704SOL    MW410864   2.847   4.154   3.022 -0.7756  0.1383  0.5152
 2705SOL     OW10865   4.353   4.055   2.675  0.0256  0.1480 -0.1086
 2705SOL    HW210866   4.431   4.108   2.657 -0.6912  1.3405  0.2658
 2705SOL    HW310867   4.332   4.073   2.767  0.3399 -1.5370  0.3091
 2705SOL    MW410868   4.360   4.065   2.685 -0.0272  0.0825 -0.0041
 2706SOL     OW10869   1.586   4.256   2.586 -0.3491  0.1845 -0.1711
 2706SOL    HW210870   1.647   4.293   2.650  0.0264 -0.6172 -0.0529
 2706SOL    HW310871   1.508   4.311   2.591 -0.0063  0.6165  0.3888
 2706SOL    MW410872   1.584   4.268   2.595 -0.2544  0.1354 -0.0815
 2707SOL     OW10873   0.699   2.885   4.165 -0.4630 -0.3716 -0.4057
 2707SOL    HW210874   0.619   2.888   4.218 -0.2418  1.0654 -0.1307
 2707SOL    HW310875   0.766   2.855   4.226 -0.5646 -0.4555 -0.3348
 2707SOL    MW410876   0.697   2.882   4.180 -0.4473 -0.1929 -0.3600
 2708SOL     OW10877   1.241   0.564   2.966 -0.3008 -0.3782 -0.2197
 2708SOL    HW210878   1.216   0.608   2.885  0.6827 -0.1466 -0.4060
 2708SOL    HW310879   1.268   0.635   3.024  1.5033 -0.7283 -0.5952
 2708SOL    MW410880   1.242   0.580   2.963  0.0671 -0.3939 -0.2937
 2709SOL     OW10881   1.441   3.569   3.094  0.5569 -0.5110 -0.1287
 2709SOL    HW210882   1.440   3.588   3.188  0.8919  1.6850 -0.5278
 2709SOL    HW310883   1.428   3.475   3.088  1.5762 -0.8256  2.1673
 2709SOL    MW410884   1.439   3.559   3.105  0.7355 -0.2627  0.1216
 2710SOL     OW10885   0.505   0.143   1.132  0.1623  0.0444  0.1512
 2710SOL    HW210886   0.429   0.091   1.107  0.0920  0.1150  0.2160
 2710SOL    HW310887   0.561   0.082   1.180 -0.3667  0.2638  1.0677
 2710SOL    MW410888   0.502   0.128   1.135  0.0831  0.0827  0.2809
 2711SOL     OW10889   1.931   1.109   3.388  0.5941  0.3288 -0.6333
 2711SOL    HW210890   1.891   1.170   3.327 -0.3352 -0.2082 -0.5572
 2711SOL    HW310891   1.965   1.165   3.458  0.9796  0.8722 -1.2468
 2711SOL    MW410892   1.930   1.124   3.389  0.5224  0.3295 -0.7043
 2712SOL     OW10893   3.671   3.972   0.693  0.0335 -0.1514 -0.1360
 2712SOL    HW210894   3.637   4.058   0.717  1.1381  0.3909 -0.4432
 2712SOL    HW310895   3.675   3.924   0.775 -3.4524 -0.9950 -0.3815
 2712SOL    MW410896   3.667   3.977   0.707 -0.2806 -0.1912 -0.2089
 2713SOL     OW10897   1.722   2.017   3.775  0.1974  0.6808 -0.1118
 2713SOL    HW210898   1.800   1.987   3.728  0.3403  1.3070 -0.2867
 2713SOL    HW310899   1.721   1.965   3.856 -1.0939 -1.7358 -1.6338
 2713SOL    MW410900   1.732   2.006   3.780  0.0459  0.4447 -0.3357
 2714SOL     OW10901   4.024   3.242   1.576  0.2703  0.1840  0.1485
 2714SOL    HW210902   4.033   3.238   1.671 -0.7808 -2.0716  0.2063
 2714SOL    HW310903   3.970   3.166   1.555 -0.0991  1.0657 -2.1890
 2714SOL    MW410904   4.018   3.231   1.586  0.0825  0.0024 -0.1522
 2715SOL     OW10905   1.916   0.769   2.329 -0.0915  0.0504  0.1722
 2715SOL    HW210906   1.957   0.706   2.271 -0.9446  0.4403 -0.8898
 2715SOL    HW310907   1.889   0.841   2.271 -0.3052  0.7817  1.1568
 2715SOL    MW410908   1.918   0.770   2.313 -0.2323  0.1983  0.1619
 2716SOL     OW10909   0.005   2.309   0.943 -0.4547  0.1182  0.4580
 2716SOL    HW210910   0.089   2.273   0.916 -0.4001 -0.0897  0.9104
 2716SOL    HW310911  -0.017   2.372   0.874 -0.8429 -1.2152 -0.6568
 2716SOL    MW410912   0.013   2.313   0.930 -0.4987 -0.0851  0.3706
 2717SOL     OW10913   1.880   4.558   2.689 -0.1538  0.3488 -0.4044
 2717SOL    HW210914   1.816   4.619   2.726 -0.6361  1.2277 -2.6011
 2717SOL    HW310915   1.861   4.475   2.732 -0.1728  1.4689  1.8550
 2717SOL    MW410916   1.869   4.555   2.700 -0.2199  0.6127 -0.3965
 2718SOL     OW10917   3.976   1.077   1.052 -0.0135 -0.2151  0.0759
 2718SOL    HW210918   4.072   1.075   1.051  0.0074  0.6021  0.0891
 2718SOL    HW310919   3.953   1.075   1.145 -0.0619 -1.9103  0.0572
 2718SOL    MW410920   3.986   1.076   1.064 -0.0172 -0.3310  0.0751
 2719SOL     OW10921   3.374   3.083   2.667 -0.4944  0.4761 -0.1048
 2719SOL    HW210922   3.353   3.011   2.608  2.6901 -1.5423  1.1013
 2719SOL    HW310923   3.333   3.160   2.627  0.7135 -0.9903 -4.3704
 2719SOL    MW410924   3.366   3.084   2.654  0.0851  0.0162 -0.5085
 2720SOL     OW10925   1.363   1.580   3.477 -0.4181 -0.4036  0.3396
 2720SOL    HW210926   1.288   1.531   3.442 -0.9264  1.1648 -0.8214
 2720SOL    HW310927   1.347   1.584   3.571 -1.8585 -0.0030  0.0927
 2720SOL    MW410928   1.351   1.574   3.485 -0.6751 -0.1438  0.1540
 2721SOL     OW10929   2.535   0.266   2.328 -0.0214  0.3315  0.0749
 2721SOL    HW210930   2.554   0.261   2.421  0.3614  1.9167  0.0848
 2721SOL    HW310931   2.448   0.306   2.323  0.1391  0.6394 -0.2655
 2721SOL    MW410932   2.526   0.270   2.339  0.0503  0.5813  0.0317
 2722SOL     OW10933   2.571   3.697   1.929 -0.3816  0.1814  0.0875
 2722SOL    HW210934   2.492   3.742   1.900 -0.3622  0.9934  1.2866
 2722SOL    HW310935   2.576   3.714   2.023  1.0395 -0.1470  0.0856
 2722SOL    MW410936   2.561   3.705   1.938 -0.1915  0.2453  0.2456
 2723SOL     OW10937   0.744   4.185   2.505 -0.4721  0.0790 -0.1589
 2723SOL    HW210938   0.736   4.183   2.410 -0.2020  2.2327 -0.2532
 2723SOL    HW310939   0.783   4.271   2.525  0.9239 -0.9502  1.7910
 2723SOL    MW410940   0.748   4.196   2.495 -0.2522  0.2275  0.0858
 2724SOL     OW10941   2.501   1.969   2.957  0.2322 -0.1520  0.2346
 2724SOL    HW210942   2.570   1.913   2.991  0.1968 -0.9024 -0.8814
 2724SOL    HW310943   2.426   1.910   2.946  0.1769  0.1067 -0.9044
 2724SOL    MW410944   2.500   1.954   2.960  0.2201 -0.2168 -0.0632
 2725SOL     OW10945   1.420   3.547   1.436  0.7939  0.1718  0.2410
 2725SOL    HW210946   1.391   3.509   1.518 -2.3865  1.1000 -0.3739
 2725SOL    HW310947   1.395   3.639   1.442  1.3161  0.4438 -1.4125
 2725SOL    MW410948   1.413   3.554   1.447  0.4432  0.3300 -0.0583
 2726SOL     OW10949   4.152   4.474   4.400 -0.0905  0.1676 -0.5946
 2726SOL    HW210950   4.183   4.428   4.322 -1.9630 -1.4219 -0.4520
 2726SOL    HW310951   4.072   4.519   4.371 -1.6266 -1.6141  0.6823
 2726SOL    MW410952   4.145   4.474   4.386 -0.5403 -0.2770 -0.4072
 2727SOL     OW10953   3.240   4.050   3.687 -0.0311  0.0799 -0.4851
 2727SOL    HW210954   3.252   4.102   3.766 -3.7061 -0.2409  0.3962
 2727SOL    HW310955   3.245   4.113   3.615  1.8824  0.5938  0.0650
 2727SOL    MW410956   3.242   4.065   3.688 -0.2637  0.1054 -0.2964
 2728SOL     OW10957   3.234   2.323   2.516  0.3795  0.6218 -0.1914
 2728SOL    HW210958   3.279   2.320   2.431 -0.0139 -1.9797 -0.3678
 2728SOL    HW310959   3.297   2.285   2.578 -0.0990  0.5942  0.2833
 2728SOL    MW410960   3.249   2.317   2.513  0.2646  0.2751 -0.1519
 2729SOL     OW10961   1.556   0.347   3.337  0.3643  0.0398 -0.0282
 2729SOL    HW210962   1.504   0.269   3.315  0.7733 -0.7573  1.8163
 2729SOL    HW310963   1.531   0.411   3.270 -1.5088 -0.9902 -0.3524
 2729SOL    MW410964   1.546   0.345   3.325  0.1712 -0.2013  0.1726
 2730SOL     OW10965   1.369   3.222   3.446 -0.0532  0.3103 -0.0514
 2730SOL    HW210966   1.433   3.228   3.376 -0.7130 -0.5977 -0.7436
 2730SOL    HW310967   1.396   3.288   3.510  2.3406 -0.9697  0.2990
 2730SOL    MW410968   1.381   3.232   3.445  0.1756  0.0217 -0.0966
 2731SOL     OW10969   2.589   4.568   4.429 -0.3792  0.2429 -0.0234
 2731SOL    HW210970   2.553   4.513   4.499  1.3564 -1.2074 -0.2457
 2731SOL    HW310971   2.513   4.592   4.376 -1.3472 -0.7422  0.8998
 2731SOL    MW410972   2.574   4.564   4.432 -0.2778 -0.0782  0.0687
 2732SOL     OW10973   2.008   0.885   3.897  0.1637  0.2829  0.0853
 2732SOL    HW210974   1.953   0.813   3.867 -0.0689  0.4662  0.0763
 2732SOL    HW310975   2.097   0.848   3.898  0.4640  0.7823 -2.6265
 2732SOL    MW410976   2.013   0.870   3.893  0.1726  0.3729 -0.2735
 2733SOL     OW10977   2.825   1.611   1.470  0.0762 -1.0627  0.5202
 2733SOL    HW210978   2.890   1.676   1.497 -0.2079 -1.3218  1.8906
 2733SOL    HW310979   2.744   1.638   1.513 -0.8331 -0.5167 -1.5114
 2733SOL    MW410980   2.823   1.623   1.479 -0.0813 -1.0246  0.4330
 2734SOL     OW10981   3.643   4.534   1.094  0.1236 -0.4363 -0.3817
 2734SOL    HW210982   3.732   4.518   1.063  0.3127 -0.0497 -0.0301
 2734SOL    HW310983   3.638   4.491   1.179  0.8657  2.0045  0.9160
 2734SOL    MW410984   3.654   4.526   1.101  0.2463 -0.0639 -0.1642
 2735SOL     OW10985   1.414   3.264   0.939 -0.1792 -0.1644  0.4263
 2735SOL    HW210986   1.436   3.176   0.909 -1.3995  0.2630 -1.8038
 2735SOL    HW310987   1.318   3.267   0.936 -0.1470  1.2448  0.4673
 2735SOL    MW410988   1.404   3.253   0.935 -0.3358  0.0775  0.1376
 2736SOL     OW10989   1.280   3.735   1.711  0.4867 -0.5489  0.3511
 2736SOL    HW210990   1.255   3.743   1.803  0.2054  0.0242  0.2212
 2736SOL    HW310991   1.372   3.763   1.709 -0.0050  1.0374  0.1715
 2736SOL    MW410992   1.289   3.739   1.723  0.3847 -0.2642  0.3103
 2737SOL     OW10993   0.167   3.367   0.648 -0.0537 -0.3387  0.4429
 2737SOL    HW210994   0.251   3.320   0.645  0.1767  0.0959 -0.0006
 2737SOL    HW310995   0.171   3.428   0.574 -0.7792 -0.3417  0.4019
 2737SOL    MW410996   0.179   3.369   0.638 -0.1190 -0.2820  0.3790
 2738SOL     OW10997   2.553   1.137   3.247  0.1284  0.1237 -0.1519
 2738SOL    HW210998   2.607   1.059   3.259 -0.8015 -0.4401  0.4366
 2738SOL    HW310999   2.613   1.210   3.258  0.7940 -0.5006  0.3545
 2738SOL    MW411000   2.568   1.136   3.250  0.0932 -0.0330 -0.0072
 2739SOL     OW11001   2.222   1.528   4.290  0.2840 -0.2757  0.0034
 2739SOL    HW211002   2.207   1.497   4.201 -0.7025 -0.7286  0.3185
 2739SOL    HW311003   2.257   1.452   4.337 -1.6264 -0.7870  0.6406
 2739SOL    MW411004   2.224   1.514   4.285 -0.0982 -0.4029  0.1292
 2740SOL     OW11005   1.468   0.104   3.240 -0.2493 -0.4655  0.2841
 2740SOL    HW211006   1.497   0.066   3.157 -0.9115 -1.7710  0.6336
 2740SOL    HW311007   1.387   0.150   3.219 -1.2926 -2.1573  0.4834
 2740SOL    MW411008   1.462   0.105   3.226 -0.4745 -0.8609  0.3564
 2741SOL     OW11009   2.404   3.532   2.494 -0.0773  0.3914 -0.0334
 2741SOL    HW211010   2.499   3.533   2.492 -0.0789  1.4894  0.2657
 2741SOL    HW311011   2.382   3.445   2.526  0.8074 -0.1029 -0.7419
 2741SOL    MW411012   2.413   3.521   2.498  0.0391  0.4714 -0.0875
 2742SOL     OW11013   1.916   2.460   3.148 -0.3259 -0.0552 -0.1255
 2742SOL    HW211014   1.923   2.476   3.054 -0.5669  0.6563 -0.0309
 2742SOL    HW311015   1.868   2.536   3.181  1.1017  0.4588  0.7967
 2742SOL    MW411016   1.910   2.472   3.140 -0.1694  0.1063  0.0083
 2743SOL     OW11017   1.687   4.144   3.983 -0.1154 -0.1267 -0.1868
 2743SOL    HW211018   1.632   4.071   3.958 -0.1730 -0.2311  0.2450
 2743SOL    HW311019   1.627   4.217   3.995  0.0297  0.2126 -1.4467
 2743SOL    MW411020   1.672   4.144   3.982 -0.1038 -0.0963 -0.2959
 2744SOL     OW11021   0.934   0.968   3.440  0.1188  0.5020 -0.2037
 2744SOL    HW211022   0.930   1.039   3.377 -0.1040  0.6466 -0.0284
 2744SOL    HW311023   0.972   1.007   3.519 -2.0869  0.9931  0.6462
 2744SOL    MW411024   0.939   0.982   3.442 -0.2016  0.5859 -0.0684
 2745SOL     OW11025   2.550   1.739   2.418  0.1438  0.0755 -0.2588
 2745SOL    HW211026   2.552   1.817   2.363  1.9069 -0.9677 -1.7327
 2745SOL    HW311027   2.527   1.772   2.505 -2.4653  1.7843 -1.5056
 2745SOL    MW411028   2.547   1.753   2.423  0.0322  0.1633 -0.6177
 2746SOL     OW11029   1.842   1.581   3.236  0.6795 -0.1795  0.1235
 2746SOL    HW211030   1.804   1.493   3.238  0.0142  0.0669 -1.1456
 2746SOL    HW311031   1.797   1.627   3.307  0.8005 -0.7682  0.5902
 2746SOL    MW411032   1.831   1.575   3.246  0.6077 -0.2247  0.0174
 2747SOL     OW11033   4.447   0.113   0.742  0.3260  0.3130 -0.3796
 2747SOL    HW211034   4.533   0.153   0.730  1.0096 -0.9346  0.3263
 2747SOL    HW311035   4.464   0.034   0.793 -1.2895  0.2598  0.0964
 2747SOL    MW411036   4.460   0.108   0.747  0.2031  0.1414 -0.2236
 2748SOL     OW11037   4.230   2.556   2.299  0.0969 -0.0278 -0.0366
 2748SOL    HW211038   4.176   2.558   2.378 -1.0073  0.5462 -0.8046
 2748SOL    HW311039   4.289   2.631   2.308 -0.8940  0.8045 -0.3492
 2748SOL    MW411040   4.231   2.566   2.311 -0.1793  0.1578 -0.1791
 2749SOL     OW11041   1.313   2.070   2.704  0.0420 -0.1957  0.2365
 2749SOL    HW211042   1.243   2.123   2.668  0.7175  0.1346 -0.6116
 2749SOL    HW311043   1.393   2.105   2.664  0.3610 -2.7567 -1.4859
 2749SOL    MW411044   1.314   2.081   2.694  0.1732 -0.4900 -0.1025
 2750SOL     OW11045   0.842   3.006   4.784  0.1644  0.1005  0.2794
 2750SOL    HW211046   0.801   3.064   4.848  0.3562  0.1033  0.3994
 2750SOL    HW311047   0.936   3.016   4.800  0.3121  1.6521 -1.3330
 2750SOL    MW411048   0.849   3.015   4.795  0.2092  0.3057  0.0820
 2751SOL     OW11049   1.135   1.778   4.109  0.1262 -0.0579 -0.0508
 2751SOL    HW211050   1.226   1.746   4.107  0.2660  0.3397 -0.0071
 2751SOL    HW311051   1.117   1.793   4.201 -0.1987 -0.7457  0.0022
 2751SOL    MW411052   1.145   1.776   4.121  0.1018 -0.0961 -0.0386
 2752SOL     OW11053   2.654   2.550   1.001  0.7959 -0.2604 -0.5455
 2752SOL    HW211054   2.599   2.501   0.940  0.3186 -3.3312  2.2307
 2752SOL    HW311055   2.594   2.579   1.070  1.8066  0.5915 -0.0030
 2752SOL    MW411056   2.639   2.548   1.002  0.8664 -0.5534 -0.1075
 2753SOL     OW11057   3.127   1.126   3.766  0.1050 -0.0480  0.3155
 2753SOL    HW211058   3.119   1.215   3.732 -2.2515 -0.2052  0.3565
 2753SOL    HW311059   3.174   1.135   3.848 -1.9148  1.4251  1.3400
 2753SOL    MW411060   3.132   1.139   3.772 -0.4723  0.1255  0.4563
 2754SOL     OW11061   3.592   2.595   4.425 -0.6013  0.5488 -0.8431
 2754SOL    HW211062   3.683   2.564   4.426 -0.5819  0.5840  2.4913
 2754SOL    HW311063   3.600   2.690   4.428 -0.7174  0.5199  1.0368
 2754SOL    MW411064   3.605   2.603   4.426 -0.6139  0.5496 -0.1550
 2755SOL     OW11065   2.240   2.090   1.788  0.4034 -0.1360 -0.0790
 2755SOL    HW211066   2.243   2.152   1.861  0.7732 -0.3301  0.0735
 2755SOL    HW311067   2.149   2.064   1.782  0.4187 -0.3230  0.4831
 2755SOL    MW411068   2.229   2.095   1.797  0.4544 -0.1862  0.0154
 2756SOL     OW11069   1.714   2.629   3.231 -0.1731 -0.0783 -0.4311
 2756SOL    HW211070   1.663   2.708   3.210 -1.0420 -0.5181 -0.0211
 2756SOL    HW311071   1.652   2.557   3.220 -0.4436 -0.4046  2.6273
 2756SOL    MW411072   1.699   2.630   3.227 -0.3233 -0.1793  0.0267
 2757SOL     OW11073   0.248   4.271   2.868  0.2311 -0.0061  0.1549
 2757SOL    HW211074   0.211   4.237   2.949  0.5295  2.6223  1.4647
 2757SOL    HW311075   0.338   4.240   2.868 -0.4523 -2.0626 -0.4283
 2757SOL    MW411076   0.255   4.263   2.879  0.1803  0.0691  0.2508
 2758SOL     OW11077   4.162   3.995   4.092  0.4620  0.0728  0.2241
 2758SOL    HW211078   4.085   3.972   4.040 -0.0327 -2.7531  2.1058
 2758SOL    HW311079   4.235   3.959   4.043  0.4538  1.4033 -0.7835
 2758SOL    MW411080   4.161   3.987   4.079  0.3958 -0.1245  0.3390
 2759SOL     OW11081   4.346   2.098   1.570 -0.6598 -0.2874 -0.0010
 2759SOL    HW211082   4.327   2.192   1.568 -1.2738 -0.4056  0.2323
 2759SOL    HW311083   4.405   2.087   1.644 -1.4236 -0.2385  0.6163
 2759SOL    MW411084   4.352   2.109   1.579 -0.8416 -0.2964  0.1113
 2760SOL     OW11085   0.051   0.605   0.740  0.1618  0.1597 -0.1726
 2760SOL    HW211086   0.067   0.601   0.834 -0.2733  1.9560 -0.0072
 2760SOL    HW311087  -0.029   0.657   0.732 -0.9500 -1.6637 -1.4407
 2760SOL    MW411088   0.042   0.611   0.751 -0.0423  0.1562 -0.3180
 2761SOL     OW11089   3.836   1.908   2.943 -0.1609 -0.5007  0.2072
 2761SOL    HW211090   3.907   1.863   2.897 -0.8850 -1.0311 -0.4124
 2761SOL    HW311091   3.856   2.001   2.933 -0.5401 -0.5871 -1.5877
 2761SOL    MW411092   3.848   1.914   2.935 -0.3064 -0.5822 -0.1113
 2762SOL     OW11093   1.128   2.978   2.288  0.6435 -0.3785 -0.2708
 2762SOL    HW211094   1.112   3.008   2.198  0.2483 -1.8949 -0.7213
 2762SOL    HW311095   1.216   3.008   2.308  0.9302 -0.4616 -1.3630
 2762SOL    MW411096   1.137   2.986   2.279  0.6291 -0.5896 -0.4742
 2763SOL     OW11097   0.800   2.940   4.508  0.0737  0.4716  0.0153
 2763SOL    HW211098   0.877   2.975   4.463  0.1911 -0.1173 -0.2465
 2763SOL    HW311099   0.802   2.982   4.594  0.6852  0.4657  0.0077
 2763SOL    MW411100   0.811   2.950   4.514  0.1699  0.3934 -0.0200
 2764SOL     OW11101   0.273   4.202   2.185 -0.7697 -0.5568 -0.4783
 2764SOL    HW211102   0.199   4.229   2.238  0.5310 -0.3613  1.2639
 2764SOL    HW311103   0.244   4.216   2.095 -1.9755  1.7939  0.2412
 2764SOL    MW411104   0.259   4.207   2.180 -0.7572 -0.2208 -0.1535
 2765SOL     OW11105   0.272   3.985   4.145  0.1853 -0.0370 -0.2864
 2765SOL    HW211106   0.203   4.019   4.087  0.2702  1.5135  0.5155
 2765SOL    HW311107   0.276   3.892   4.123 -1.8814 -0.0795 -0.6406
 2765SOL    MW411108   0.263   3.977   4.134 -0.0761  0.1619 -0.2270
 2766SOL     OW11109   2.341   3.366   3.366  0.0731 -0.1849  0.6782
 2766SOL    HW211110   2.360   3.402   3.280 -1.0607 -1.4476 -0.1195
 2766SOL    HW311111   2.325   3.443   3.421  1.0720  0.6299 -0.1608
 2766SOL    MW411112   2.341   3.381   3.362  0.0556 -0.2439  0.4625
 2767SOL     OW11113   1.230   0.081   2.582 -0.7446 -0.3273 -0.4153
 2767SOL    HW211114   1.236   0.108   2.674  0.0893  1.6992 -1.0225
 2767SOL    HW311115   1.137   0.088   2.562 -1.0544 -1.6668  0.5228
 2767SOL    MW411116   1.218   0.086   2.592 -0.6753 -0.2367 -0.3715
 2768SOL     OW11117   1.514   1.488   1.257  0.1056  0.0141  0.4107
 2768SOL    HW211118   1.526   1.404   1.302 -1.2882 -0.1876  0.4267
 2768SOL    HW311119   1.496   1.551   1.327  2.6729  0.6642  0.5464
 2768SOL    MW411120   1.513   1.485   1.272  0.2604  0.0734  0.4307
 2769SOL     OW11121   0.883   3.157   1.792 -0.8823 -0.2984  0.0946
 2769SOL    HW211122   0.879   3.064   1.769  1.5973 -0.8269  1.6509
 2769SOL    HW311123   0.905   3.201   1.710 -1.3618 -1.1461 -0.4996
 2769SOL    MW411124   0.885   3.150   1.778 -0.6184 -0.4799  0.2216
 2770SOL     OW11125   0.992   1.285   1.218  0.8380 -0.3660  0.1948
 2770SOL    HW211126   1.070   1.259   1.267  0.5855  0.8424  1.2722
 2770SOL    HW311127   1.025   1.330   1.141  1.2181  0.4767  0.8362
 2770SOL    MW411128   1.006   1.287   1.214  0.8548 -0.0954  0.4214
 2771SOL     OW11129   1.587   1.356   1.507  0.2084 -0.1114  0.1630
 2771SOL    HW211130   1.668   1.405   1.495 -0.0355 -0.0871 -1.4817
 2771SOL    HW311131   1.616   1.266   1.520  0.4839 -0.3142 -1.6617
 2771SOL    MW411132   1.601   1.350   1.507  0.2126 -0.1349 -0.2948
 2772SOL     OW11133   4.198   3.843   0.956  0.6110 -0.2480 -0.1427
 2772SOL    HW211134   4.168   3.766   1.004 -0.7412  0.9346  0.9992
 2772SOL    HW311135   4.204   3.814   0.865 -1.7716 -1.2110 -0.0460
 2772SOL    MW411136   4.195   3.829   0.950  0.1183 -0.2189  0.0207
 2773SOL     OW11137   3.653   2.829   1.810  0.3616  0.2068 -0.2244
 2773SOL    HW211138   3.629   2.784   1.729 -0.3818  0.8231 -0.3498
 2773SOL    HW311139   3.593   2.903   1.816 -0.5978 -0.6816  1.6526
 2773SOL    MW411140   3.642   2.833   1.800  0.1369  0.1709  0.0067
 2774SOL     OW11141   3.524   4.356   3.191  0.6942 -0.2228 -0.1592
 2774SOL    HW211142   3.550   4.444   3.219  0.3567 -0.6494  1.5727
 2774SOL    HW311143   3.430   4.352   3.210  0.8708 -1.2302  0.5676
 2774SOL    MW411144   3.515   4.367   3.198  0.6728 -0.4120  0.1652
 2775SOL     OW11145   3.151   4.331   4.164 -0.4114  0.3065  0.4192
 2775SOL    HW211146   3.227   4.278   4.188  0.7577  1.4560 -0.6384
 2775SOL    HW311147   3.111   4.355   4.247  1.1832  0.8314  1.0462
 2775SOL    MW411148   3.156   4.327   4.178 -0.0470  0.5269  0.3624
 2776SOL     OW11149   0.257   1.041   1.721  0.1890 -0.0981  0.0502
 2776SOL    HW211150   0.336   1.057   1.773  0.7818 -2.8966  0.0418
 2776SOL    HW311151   0.282   1.062   1.631  0.5965  0.0676  0.2023
 2776SOL    MW411152   0.270   1.046   1.716  0.3210 -0.4456  0.0690
 2777SOL     OW11153   0.703   4.664   0.518 -0.5714  0.0917 -0.0400
 2777SOL    HW211154   0.698   4.732   0.585  0.7571  0.9617 -0.7836
 2777SOL    HW311155   0.735   4.586   0.564  0.2702  0.6669  0.3650
 2777SOL    MW411156   0.707   4.662   0.533 -0.2851  0.2823 -0.0846
 2778SOL     OW11157   3.671   0.330   1.654 -0.2386 -0.5061  0.3291
 2778SOL    HW211158   3.675   0.252   1.710 -0.8095 -0.2408  0.7457
 2778SOL    HW311159   3.762   0.347   1.630  0.2401  0.4274  2.6321
 2778SOL    MW411160   3.683   0.322   1.658 -0.2506 -0.3479  0.6880
 2779SOL     OW11161   0.647   1.850   1.511 -0.3736 -0.3581 -0.2547
 2779SOL    HW211162   0.651   1.775   1.451  1.3111 -1.3057  0.9784
 2779SOL    HW311163   0.728   1.898   1.495  0.2895 -0.8349  1.4798
 2779SOL    MW411164   0.658   1.846   1.501 -0.0639 -0.5461  0.1370
 2780SOL     OW11165   0.194   3.070   3.110  0.1653 -0.1106 -0.0024
 2780SOL    HW211166   0.181   3.127   3.186 -0.9492  1.6247 -1.4699
 2780SOL    HW311167   0.228   2.989   3.148 -2.1101  0.0405  2.5746
 2780SOL    MW411168   0.197   3.067   3.125 -0.2820  0.1380  0.1440
 2781SOL     OW11169   0.580   2.616   0.666  0.2069  0.0178  0.3911
 2781SOL    HW211170   0.587   2.565   0.586  1.4519 -0.2372  0.6570
 2781SOL    HW311171   0.654   2.588   0.719 -0.6478  0.1425  1.6647
 2781SOL    MW411172   0.591   2.606   0.662  0.2584  0.0005  0.5941
 2782SOL     OW11173   0.197   0.204   1.018  0.8167 -0.0737 -0.7439
 2782SOL    HW211174   0.272   0.259   1.039  1.6668 -2.3783  2.5851
 2782SOL    HW311175   0.230   0.115   1.024 -1.9200 -1.0978 -0.3389
 2782SOL    MW411176   0.211   0.200   1.022  0.5678 -0.5129 -0.2514
 2783SOL     OW11177   1.243   0.306   3.229 -0.3471 -0.4326  0.5032
 2783SOL    HW211178   1.207   0.370   3.167 -0.1166  0.5467  1.3736
 2783SOL    HW311179   1.271   0.358   3.304  0.5400 -1.4815  0.9068
 2783SOL    MW411180   1.242   0.321   3.231 -0.1998 -0.4418  0.6711
 2784SOL     OW11181   4.193   4.017   1.560 -0.4701 -0.2781  0.3865
 2784SOL    HW211182   4.186   4.088   1.624 -0.3180 -0.4691  0.6173
 2784SOL    HW311183   4.140   4.046   1.486  1.5358  1.1613 -0.5229
 2784SOL    MW411184   4.185   4.031   1.559 -0.1855 -0.1135  0.2970
 2785SOL     OW11185   2.036   0.041   3.927 -0.5455  0.0232 -0.3474
 2785SOL    HW211186   1.980   0.101   3.976 -0.4948  0.3834 -0.7251
 2785SOL    HW311187   2.050   0.084   3.842 -1.3743 -1.0109 -1.0236
 2785SOL    MW411188   2.031   0.054   3.922 -0.6483 -0.0657 -0.4864
 2786SOL     OW11189   2.501   1.436   2.560  0.1799 -0.4079  0.0263
 2786SOL    HW211190   2.429   1.374   2.550 -0.3582  0.1048  0.6913
 2786SOL    HW311191   2.530   1.453   2.470 -0.8831 -0.1930 -0.2884
 2786SOL    MW411192   2.495   1.430   2.547 -0.0315 -0.3119  0.0722
 2787SOL     OW11193   1.104   2.019   4.596  0.2109 -0.5240  0.1624
 2787SOL    HW211194   1.107   2.100   4.646 -0.3375  0.6231 -1.5870
 2787SOL    HW311195   1.162   2.035   4.521  1.2541 -2.2992  0.5663
 2787SOL    MW411196   1.112   2.032   4.593  0.2760 -0.6070 -0.0157
 2788SOL     OW11197   3.310   4.592   1.702 -0.5453 -0.2885 -0.2111
 2788SOL    HW211198   3.333   4.571   1.611  0.8445 -1.8249  0.4829
 2788SOL    HW311199   3.228   4.546   1.717 -0.1232 -1.0754 -0.2917
 2788SOL    MW411200   3.303   4.584   1.692 -0.3064 -0.5951 -0.1303
 2789SOL     OW11201   0.864   0.411   4.287  0.5730 -0.0590  0.0510
 2789SOL    HW211202   0.886   0.349   4.357  0.3436 -1.1326 -0.8100
 2789SOL    HW311203   0.909   0.492   4.312  1.6656 -0.8451  0.7095
 2789SOL    MW411204   0.873   0.413   4.300  0.6870 -0.3044  0.0243
 2790SOL     OW11205   0.496   4.163   4.177  0.8067 -0.0861  0.2817
 2790SOL    HW211206   0.421   4.111   4.148  1.2101 -2.5252  3.2796
 2790SOL    HW311207   0.468   4.254   4.166 -1.4763 -0.9375 -1.3625
 2790SOL    MW411208   0.482   4.168   4.172  0.5587 -0.5202  0.4606
 2791SOL     OW11209   2.296   1.772   2.853 -0.8429  0.0374 -0.2496
 2791SOL    HW211210   2.297   1.702   2.918  0.2663 -0.2271 -0.5498
 2791SOL    HW311211   2.203   1.791   2.841 -1.0795 -0.2360  1.0558
 2791SOL    MW411212   2.284   1.765   2.860 -0.7279 -0.0336 -0.1173
 2792SOL     OW11213   2.571   3.990   3.441  0.4794 -0.2435 -0.0692
 2792SOL    HW211214   2.617   3.972   3.359 -2.1265 -0.5176 -1.4972
 2792SOL    HW311215   2.554   3.904   3.479  1.5382 -0.1245  0.6979
 2792SOL    MW411216   2.575   3.977   3.435  0.2751 -0.2642 -0.1566
 2793SOL     OW11217   2.511   0.513   2.968  0.0914 -0.2207 -0.2221
 2793SOL    HW211218   2.448   0.472   2.909 -1.5646 -0.0218  1.3572
 2793SOL    HW311219   2.569   0.443   2.995  0.3429 -0.4825 -1.4428
 2793SOL    MW411220   2.510   0.499   2.964 -0.0939 -0.2290 -0.1748
 2794SOL     OW11221   3.888   1.863   4.362  0.8311  0.3925  0.1580
 2794SOL    HW211222   3.907   1.769   4.364  0.1819  0.2922  1.7662
 2794SOL    HW311223   3.816   1.871   4.299 -1.5023 -0.6513  2.6012
 2794SOL    MW411224   3.881   1.852   4.354  0.4375  0.2416  0.6924
 2795SOL     OW11225   4.421   0.929   0.870 -0.1195  0.1255 -0.4296
 2795SOL    HW211226   4.376   0.877   0.804 -0.9806  1.7468 -1.1591
 2795SOL    HW311227   4.493   0.970   0.822  0.2855 -0.0477  0.0336
 2795SOL    MW411228   4.425   0.928   0.855 -0.1798  0.3165 -0.4647
 2796SOL     OW11229   0.121   3.963   1.065  0.4168 -0.3872 -0.0263
 2796SOL    HW211230   0.132   4.052   1.098 -0.6059  0.3098 -1.5067
 2796SOL    HW311231   0.198   3.949   1.009  0.0718 -0.0498 -0.5938
 2796SOL    MW411232   0.133   3.973   1.062  0.2364 -0.2506 -0.2965
 2797SOL     OW11233   1.895   3.235   2.242 -0.2276  0.0404 -0.2960
 2797SOL    HW211234   1.975   3.244   2.294 -1.2330 -0.6901  1.4176
 2797SOL    HW311235   1.923   3.248   2.152  1.3885  2.3654  0.5106
 2797SOL    MW411236   1.909   3.238   2.237 -0.1471  0.2508  0.0365
 2798SOL     OW11237   0.695   2.168   0.604 -0.3348 -0.1738  0.0378
 2798SOL    HW211238   0.776   2.154   0.555 -0.3661 -1.2861  0.2915
 2798SOL    HW311239   0.649   2.084   0.599 -0.9431  0.1012  0.8675
 2798SOL    MW411240   0.700   2.155   0.597 -0.4191 -0.2842  0.1807
 2799SOL     OW11241   4.089   3.960   0.586 -0.3703 -0.0296  0.0539
 2799SOL    HW211242   4.033   3.925   0.517 -0.5401  1.3397 -0.5151
 2799SOL    HW311243   4.027   3.999   0.649 -0.0473  2.2038 -0.9723
 2799SOL    MW411244   4.073   3.961   0.585 -0.3505  0.4458 -0.1566
 2800SOL     OW11245   3.200   2.781   3.000 -0.5897 -0.0663  0.3558
 2800SOL    HW211246   3.254   2.852   2.964 -0.2596 -0.7231 -0.4555
 2800SOL    HW311247   3.121   2.782   2.946 -0.1330 -0.9937 -0.3457
 2800SOL    MW411248   3.197   2.790   2.988 -0.4864 -0.2751  0.1564
 2801SOL     OW11249   0.018   2.654   3.182 -0.0063 -0.5152 -0.0041
 2801SOL    HW211250  -0.050   2.591   3.158  0.0936 -1.0522  1.0940
 2801SOL    HW311251  -0.006   2.734   3.135 -1.5436 -0.6144  0.5899
 2801SOL    MW411252   0.006   2.657   3.172 -0.1960 -0.5991  0.2189
 2802SOL     OW11253   3.054   1.418   1.820 -0.3664 -0.1036 -0.3446
 2802SOL    HW211254   2.962   1.442   1.832  0.2959  1.7276  1.4809
 2802SOL    HW311255   3.061   1.330   1.857 -1.5407 -0.5566 -1.1849
 2802SOL    MW411256   3.043   1.410   1.827 -0.4339  0.0782 -0.2147
 2803SOL     OW11257   2.119   2.964   4.394  0.5989  0.4199 -0.1650
 2803SOL    HW211258   2.043   3.014   4.425  0.9041  0.5762  0.3373
 2803SOL    HW311259   2.162   2.934   4.474  1.3423  0.7423 -0.4407
 2803SOL    MW411260   2.115   2.967   4.409  0.7372  0.4833 -0.1354
 2804SOL     OW11261   3.865   2.909   2.900  0.5517  0.3996  0.1359
 2804SOL    HW211262   3.779   2.900   2.860 -0.3625  0.9063  1.9370
 2804SOL    HW311263   3.861   2.993   2.947  2.0257  0.4313  0.2306
 2804SOL    MW411264   3.853   2.919   2.901  0.6256  0.4706  0.3860
 2805SOL     OW11265   3.977   2.674   0.760  0.0586 -0.1265 -0.0472
 2805SOL    HW211266   3.889   2.642   0.741 -0.4308  0.6820  0.8253
 2805SOL    HW311267   3.966   2.732   0.835  1.0630  1.3379 -0.9915
 2805SOL    MW411268   3.964   2.677   0.767  0.1264  0.1733 -0.0567
 2806SOL     OW11269   4.324   2.429   3.178  0.4350 -0.1702 -0.2127
 2806SOL    HW211270   4.257   2.468   3.233  2.2102  2.8964 -0.1212
 2806SOL    HW311271   4.376   2.375   3.238 -1.3096 -1.7927 -0.1146
 2806SOL    MW411272   4.322   2.427   3.193  0.4387  0.0203 -0.1879
 2807SOL     OW11273   2.279   4.143   1.998  0.0790  0.3511  0.1014
 2807SOL    HW211274   2.237   4.065   1.960  2.1931  0.8485 -3.5159
 2807SOL    HW311275   2.237   4.217   1.954  0.7971  1.0814  0.6364
 2807SOL    MW411276   2.268   4.142   1.987  0.4528  0.5136 -0.3054
 2808SOL     OW11277   0.580   3.260   2.811 -0.0280 -0.6644 -0.2189
 2808SOL    HW211278   0.640   3.244   2.884 -1.1020 -0.4732  0.7159
 2808SOL    HW311279   0.493   3.239   2.846 -0.4744 -1.2655 -1.6618
 2808SOL    MW411280   0.576   3.256   2.825 -0.2286 -0.7186 -0.2859
 2809SOL     OW11281   2.652   1.746   3.029 -0.2543 -0.4404  0.9881
 2809SOL    HW211282   2.614   1.659   3.018 -0.2006 -0.3227 -0.2540
 2809SOL    HW311283   2.744   1.730   3.049 -0.6007 -0.6948  2.4262
 2809SOL    MW411284   2.659   1.733   3.030 -0.2930 -0.4586  1.0142
 2810SOL     OW11285   1.095   4.337   2.652 -0.2292 -0.6293  0.0188
 2810SOL    HW211286   1.018   4.378   2.614  0.6589  0.8170 -0.2320
 2810SOL    HW311287   1.060   4.260   2.698 -1.6116 -0.9762 -1.5350
 2810SOL    MW411288   1.080   4.332   2.653 -0.2946 -0.4849 -0.2196
 2811SOL     OW11289   3.298   3.780   2.309  0.1667 -0.3273  0.2105
 2811SOL    HW211290   3.215   3.779   2.356  0.8369 -0.8069  1.3833
 2811SOL    HW311291   3.348   3.708   2.347  0.6720 -0.7924 -1.3066
 2811SOL    MW411292   3.293   3.770   2.320  0.3221 -0.4520  0.1650
 2812SOL     OW11293   1.900   0.168   1.026 -0.4640 -0.2462  0.4811
 2812SOL    HW211294   1.826   0.119   1.063  1.1964 -1.4876  2.2740
 2812SOL    HW311295   1.961   0.101   0.996 -0.6795  0.7716 -2.3504
 2812SOL    MW411296   1.898   0.153   1.027 -0.2735 -0.2757  0.3442
 2813SOL     OW11297   3.794   3.200   0.952  0.2014 -1.0185 -0.3282
 2813SOL    HW211298   3.847   3.256   1.008  1.7456 -2.4613 -0.3094
 2813SOL    HW311299   3.830   3.211   0.865 -0.3972 -0.9126 -0.5651
 2813SOL    MW411300   3.806   3.209   0.948  0.3262 -1.1952 -0.3570
 2814SOL     OW11301   3.392   1.410   2.686  0.2200  0.6531 -0.1669
 2814SOL    HW211302   3.326   1.356   2.730  0.9496 -0.7858 -0.7966
 2814SOL    HW311303   3.381   1.497   2.725 -1.1488  0.1267  0.6913
 2814SOL    MW411304   3.381   1.414   2.697  0.1359  0.3937 -0.1366
 2815SOL     OW11305   3.672   0.390   2.945 -0.2215  0.3783  0.3777
 2815SOL    HW211306   3.755   0.418   2.906 -1.7133  2.5437 -1.3727
 2815SOL    HW311307   3.646   0.313   2.896  0.3097  0.2204  0.3423
 2815SOL    MW411308   3.679   0.384   2.934 -0.3483  0.6432  0.1421
 2816SOL     OW11309   4.319   1.510   2.149  0.3060  0.0709  0.1563
 2816SOL    HW211310   4.375   1.580   2.181  0.7535 -0.9577  1.6455
 2816SOL    HW311311   4.367   1.429   2.167 -0.0645 -0.6276 -1.8218
 2816SOL    MW411312   4.333   1.509   2.155  0.3161 -0.1570  0.0918
 2817SOL     OW11313   3.702   2.700   1.038  0.3740  0.2522 -0.1313
 2817SOL    HW211314   3.659   2.640   1.099 -0.1670  1.4378  0.6890
 2817SOL    HW311315   3.634   2.765   1.017  1.8147  2.3389  1.4335
 2817SOL    MW411316   3.687   2.701   1.043  0.4930  0.6838  0.1833
 2818SOL     OW11317   2.678   3.004   3.741  0.5576 -0.1114 -0.1238
 2818SOL    HW211318   2.705   3.086   3.782 -0.0229 -0.0545  0.1466
 2818SOL    HW311319   2.754   2.978   3.688  0.6275  0.7476 -0.4511
 2818SOL    MW411320   2.692   3.011   3.740  0.4902  0.0093 -0.1314
 2819SOL     OW11321   2.070   3.706   0.834 -0.2985  0.6318  0.2302
 2819SOL    HW211322   2.044   3.631   0.779 -1.1782  1.5732 -0.6491
 2819SOL    HW311323   2.105   3.665   0.913 -1.3200 -0.7247  0.0180
 2819SOL    MW411324   2.071   3.690   0.837 -0.5491  0.5770  0.0862
 2820SOL     OW11325   0.650   0.012   1.332  0.1931  0.0134 -0.0939
 2820SOL    HW211326   0.621  -0.077   1.313  1.1848 -0.1021 -1.1640
 2820SOL    HW311327   0.589   0.044   1.398 -1.9842 -0.4077 -1.8365
 2820SOL    MW411328   0.638   0.004   1.338  0.0367 -0.0577 -0.4650
 2821SOL     OW11329   3.645   4.574   4.486 -0.1177  0.0832  0.0140
 2821SOL    HW211330   3.582   4.634   4.445 -0.8222 -1.0184 -0.5468
 2821SOL    HW311331   3.647   4.600   4.578 -1.7186 -0.1461  0.1281
 2821SOL    MW411332   3.637   4.585   4.492 -0.4218 -0.0930 -0.0443
 2822SOL     OW11333   0.546   3.266   1.573 -0.1974 -0.0500 -0.0275
 2822SOL    HW211334   0.471   3.207   1.579  1.2113 -1.9031  0.0809
 2822SOL    HW311335   0.620   3.213   1.603  1.2648  1.5029 -0.7904
 2822SOL    MW411336   0.546   3.251   1.578  0.1813 -0.0894 -0.1137
 2823SOL     OW11337   2.156   2.083   2.301  0.1022 -0.2215 -0.3097
 2823SOL    HW211338   2.212   2.160   2.299 -1.5543  1.0003 -0.3197
 2823SOL    HW311339   2.194   2.027   2.369  1.2418  0.6370 -0.2311
 2823SOL    MW411340   2.168   2.086   2.309  0.0341  0.0529 -0.3006
 2824SOL     OW11341   1.799   3.909   3.067 -0.1318  0.5295  0.1403
 2824SOL    HW211342   1.703   3.914   3.070 -0.0935  2.0561 -0.8892
 2824SOL    HW311343   1.826   3.985   3.016  1.6138 -0.2204 -0.0893
 2824SOL    MW411344   1.790   3.920   3.061  0.1035  0.6323 -0.0260
 2825SOL     OW11345   2.702   3.213   3.381 -0.3293 -0.2642 -0.3702
 2825SOL    HW211346   2.704   3.303   3.349  0.9277 -0.6587 -1.4866
 2825SOL    HW311347   2.615   3.181   3.358 -0.7123  0.6068 -0.1413
 2825SOL    MW411348   2.691   3.221   3.374 -0.2141 -0.2015 -0.4873
 2826SOL     OW11349   2.038   3.288   1.380  0.1017 -0.0955  0.0863
 2826SOL    HW211350   2.076   3.368   1.418  2.2187 -1.2523  0.4590
 2826SOL    HW311351   2.093   3.268   1.305  0.0234 -1.6079  0.4106
 2826SOL    MW411352   2.050   3.296   1.375  0.3707 -0.4478  0.1783
 2827SOL     OW11353   1.137   3.832   3.176  0.0250  1.5297 -0.0616
 2827SOL    HW211354   1.184   3.809   3.095 -0.6712  0.5390 -0.1982
 2827SOL    HW311355   1.166   3.921   3.196  0.3261  1.7256 -1.3167
 2827SOL    MW411356   1.147   3.841   3.168 -0.0272  1.4248 -0.2453
 2828SOL     OW11357   1.361   4.495   1.924 -0.0598 -0.1702  0.0633
 2828SOL    HW211358   1.349   4.581   1.965 -3.8959 -0.1757 -0.8932
 2828SOL    HW311359   1.425   4.451   1.980  1.0589  2.8386  1.2639
 2828SOL    MW411360   1.368   4.500   1.937 -0.4182  0.2265  0.0956
 2829SOL     OW11361   3.694   4.101   3.682  0.4846 -0.5050  0.3424
 2829SOL    HW211362   3.645   4.176   3.649  0.4250 -0.2926  0.9034
 2829SOL    HW311363   3.628   4.044   3.721  0.7004 -0.1238  1.2792
 2829SOL    MW411364   3.679   4.104   3.683  0.5052 -0.4263  0.5400
 2830SOL     OW11365   2.265   3.254   4.465  0.6155 -0.2746  0.3167
 2830SOL    HW211366   2.329   3.301   4.410  0.2311 -0.2416 -0.1011
 2830SOL    HW311367   2.232   3.184   4.409 -0.7683  0.5769  0.0476
 2830SOL    MW411368   2.269   3.251   4.450  0.3822 -0.1581  0.2265
 2831SOL     OW11369   3.883   1.359   1.639  0.0483  0.0738  0.0184
 2831SOL    HW211370   3.971   1.324   1.651  0.1857 -0.0197 -1.2738
 2831SOL    HW311371   3.896   1.439   1.589 -0.5662  0.3299  0.2640
 2831SOL    MW411372   3.896   1.365   1.634 -0.0148  0.0951 -0.1197
 2832SOL     OW11373   0.766   4.594   2.927  0.1012 -0.0813 -0.6670
 2832SOL    HW211374   0.745   4.503   2.948  0.8621 -0.5312 -1.8323
 2832SOL    HW311375   0.700   4.645   2.974  0.3825 -1.1765  0.9312
 2832SOL    MW411376   0.755   4.589   2.936  0.2387 -0.2847 -0.6101
 2833SOL     OW11377   3.252   2.649   4.339  0.2846  0.0671  0.2528
 2833SOL    HW211378   3.160   2.673   4.340  0.8322  2.2483  1.5873
 2833SOL    HW311379   3.275   2.639   4.431  1.2726 -0.9627 -0.0899
 2833SOL    MW411380   3.243   2.651   4.351  0.4873  0.2191  0.3839
 2834SOL     OW11381   0.249   2.645   2.996 -0.3971 -0.2637 -0.1403
 2834SOL    HW211382   0.331   2.694   2.987  1.3527 -3.0715 -0.0950
 2834SOL    HW311383   0.209   2.680   3.075  1.6992 -0.1387  0.8979
 2834SOL    MW411384   0.255   2.656   3.005  0.1104 -0.6180  0.0026
 2835SOL     OW11385   4.018   1.355   0.951  0.5492 -0.3562 -0.8355
 2835SOL    HW211386   4.023   1.259   0.943 -0.1121 -0.4515 -0.0935
 2835SOL    HW311387   4.045   1.387   0.865  0.5651 -1.2165 -1.1582
 2835SOL    MW411388   4.022   1.346   0.938  0.4644 -0.4823 -0.7802
 2836SOL     OW11389   4.170   0.113   1.220  0.6026 -0.0623  0.0259
 2836SOL    HW211390   4.120   0.158   1.152 -1.1604  0.2642  1.4907
 2836SOL    HW311391   4.246   0.078   1.175  0.6066  2.0525 -1.6811
 2836SOL    MW411392   4.173   0.114   1.205  0.3705  0.2598 -0.0061
 2837SOL     OW11393   0.623   4.312   4.483  0.2367 -0.2571 -0.0604
 2837SOL    HW211394   0.713   4.334   4.458  0.1584 -0.6983 -0.7236
 2837SOL    HW311395   0.615   4.218   4.467 -0.8220  0.0583 -1.5181
 2837SOL    MW411396   0.634   4.303   4.477  0.0866 -0.2737 -0.3405
 2838SOL     OW11397   1.944   0.013   1.377 -0.0355 -0.1368 -0.0607
 2838SOL    HW211398   1.900  -0.062   1.337 -1.1736  0.5305 -0.0592
 2838SOL    HW311399   1.952  -0.011   1.469 -0.7858 -0.0748  0.0203
 2838SOL    MW411400   1.939  -0.000   1.384 -0.2846 -0.0405 -0.0498
 2839SOL     OW11401   0.770   3.861   2.225  0.0226 -0.1202 -0.7916
 2839SOL    HW211402   0.717   3.798   2.273 -0.0201  1.1071  0.7905
 2839SOL    HW311403   0.852   3.865   2.274  0.6284 -0.1157 -1.7904
 2839SOL    MW411404   0.774   3.853   2.238  0.0969  0.0424 -0.7148
 2840SOL     OW11405   2.723   1.378   3.225  0.1396  0.1295 -0.2139
 2840SOL    HW211406   2.800   1.384   3.169 -0.5362  0.9132 -1.0638
 2840SOL    HW311407   2.758   1.382   3.314  1.1462 -0.3192 -0.5841
 2840SOL    MW411408   2.738   1.380   3.229  0.1833  0.1738 -0.3750
 2841SOL     OW11409   4.436   3.892   3.487  0.2462 -0.4037 -0.3469
 2841SOL    HW211410   4.467   3.981   3.501 -1.9527  0.8747 -3.0667
 2841SOL    HW311411   4.515   3.842   3.465  1.4150  0.9810  0.5907
 2841SOL    MW411412   4.450   3.897   3.486  0.1106 -0.0525 -0.5820
 2842SOL     OW11413   0.521   2.875   0.526  0.2837 -0.3058 -0.4802
 2842SOL    HW211414   0.533   2.796   0.579 -0.4420  1.1441  1.9122
 2842SOL    HW311415   0.447   2.854   0.468  1.2540 -1.9990 -1.1246
 2842SOL    MW411416   0.513   2.862   0.525  0.3159 -0.3381 -0.2496
 2843SOL     OW11417   0.732   4.147   2.241  0.3633  0.2380 -0.3923
 2843SOL    HW211418   0.721   4.055   2.218 -0.1321 -0.0077  0.7777
 2843SOL    HW311419   0.823   4.167   2.221  0.4584 -0.4956 -0.6911
 2843SOL    MW411420   0.742   4.138   2.236  0.3105  0.1087 -0.2775
 2844SOL     OW11421   2.664   3.810   3.821 -0.1561 -0.4024 -0.3349
 2844SOL    HW211422   2.654   3.884   3.760  1.8848  0.4480  0.3218
 2844SOL    HW311423   2.717   3.746   3.772 -1.1824 -1.0636 -0.5863
 2844SOL    MW411424   2.670   3.812   3.806 -0.0224 -0.3774 -0.2816
 2845SOL     OW11425   4.062   0.203   4.075  0.0223  0.1088 -0.2230
 2845SOL    HW211426   4.133   0.168   4.129 -0.8789 -1.0228  0.2591
 2845SOL    HW311427   4.013   0.125   4.048 -0.7724  0.8462 -0.9149
 2845SOL    MW411428   4.065   0.188   4.079 -0.2017  0.0568 -0.2513
 2846SOL     OW11429   2.979   3.472   3.616  0.2777  0.1165 -0.1817
 2846SOL    HW211430   3.018   3.395   3.574 -0.3804 -0.8103  0.8505
 2846SOL    HW311431   3.038   3.544   3.594  0.6005 -0.5709 -1.6334
 2846SOL    MW411432   2.992   3.471   3.608  0.2337 -0.0966 -0.2372
 2847SOL     OW11433   3.397   3.147   3.755 -0.1851  0.2034 -0.0891
 2847SOL    HW211434   3.349   3.141   3.837  0.8674 -1.0837  0.4629
 2847SOL    HW311435   3.385   3.237   3.725  0.6924  1.1296  2.2706
 2847SOL    MW411436   3.389   3.158   3.762  0.0696  0.1559  0.2954
 2848SOL     OW11437   3.772   0.543   4.125  0.1359 -0.3418 -0.1723
 2848SOL    HW211438   3.840   0.565   4.062  0.3641  0.2813  0.2827
 2848SOL    HW311439   3.768   0.619   4.184 -0.3826 -0.7198  0.2892
 2848SOL    MW411440   3.780   0.556   4.125  0.0975 -0.3093 -0.0515
 2849SOL     OW11441   1.877   0.257   0.763  0.6196  0.2721 -0.5618
 2849SOL    HW211442   1.851   0.349   0.761  0.5448  0.3544  2.4478
 2849SOL    HW311443   1.883   0.235   0.856  0.7283 -2.7444 -1.2140
 2849SOL    MW411444   1.874   0.266   0.775  0.6241 -0.1151 -0.2508
 2850SOL     OW11445   3.185   1.396   3.904 -0.0315 -0.6276  1.0593
 2850SOL    HW211446   3.211   1.472   3.957  1.2112 -0.8609  0.8065
 2850SOL    HW311447   3.233   1.323   3.943  0.8166 -0.8149 -0.3188
 2850SOL    MW411448   3.195   1.396   3.916  0.2441 -0.6829  0.8440
 2851SOL     OW11449   1.560   3.039   1.383 -0.0775  0.3008  0.1808
 2851SOL    HW211450   1.491   3.105   1.383 -1.7727 -1.3425  3.7354
 2851SOL    HW311451   1.627   3.074   1.441  0.0885  0.0143  0.1661
 2851SOL    MW411452   1.560   3.052   1.391 -0.2792  0.0463  0.6479
 2852SOL     OW11453   1.535   0.252   4.516 -0.1333  0.0286 -0.6415
 2852SOL    HW211454   1.441   0.263   4.500 -0.3948 -0.4836  0.4990
 2852SOL    HW311455   1.540   0.212   4.603  1.1567  0.4751 -0.5024
 2852SOL    MW411456   1.523   0.248   4.525  0.0025  0.0200 -0.4721
 2853SOL     OW11457   3.986   3.076   2.438  0.4771  0.7473 -0.1681
 2853SOL    HW211458   3.916   3.017   2.467  1.7585 -0.6609  0.1295
 2853SOL    HW311459   4.010   3.125   2.517 -1.4003  2.5566 -0.6806
 2853SOL    MW411460   3.980   3.075   2.453  0.3984  0.8006 -0.1962
 2854SOL     OW11461   0.338   0.566   3.028  0.4583  0.4108  0.1601
 2854SOL    HW211462   0.304   0.477   3.043 -1.5851  1.1211 -0.0586
 2854SOL    HW311463   0.359   0.598   3.116  0.7816 -0.1249  0.2812
 2854SOL    MW411464   0.336   0.558   3.042  0.2314  0.4339  0.1476
 2855SOL     OW11465   1.800   0.172   4.554  0.7325  0.4721  0.2500
 2855SOL    HW211466   1.739   0.227   4.507 -0.5325 -1.5610 -0.5630
 2855SOL    HW311467   1.881   0.176   4.503 -0.4944 -1.3659 -1.9436
 2855SOL    MW411468   1.803   0.180   4.541  0.4038 -0.0386 -0.1464
 2856SOL     OW11469   3.773   2.933   2.513 -0.2072 -0.0438  0.0403
 2856SOL    HW211470   3.798   2.845   2.486  1.1675  0.5759 -0.7567
 2856SOL    HW311471   3.712   2.962   2.446 -0.9309 -0.4964  0.4861
 2856SOL    MW411472   3.768   2.925   2.501 -0.1211 -0.0217 -0.0062
 2857SOL     OW11473   0.806   3.285   3.026  0.1225 -0.6682  1.0104
 2857SOL    HW211474   0.858   3.298   3.105 -1.2269 -1.5060  2.0840
 2857SOL    HW311475   0.865   3.305   2.954  1.6635 -0.7787  2.2093
 2857SOL    MW411476   0.820   3.289   3.027  0.1478 -0.7932  1.3101
 2858SOL     OW11477   3.929   0.331   4.277 -0.1444  0.2631  0.0613
 2858SOL    HW211478   3.888   0.409   4.239 -0.4646 -0.0293 -0.1923
 2858SOL    HW311479   3.967   0.285   4.202 -0.1411  0.0629  0.1862
 2858SOL    MW411480   3.929   0.335   4.262 -0.1860  0.1981  0.0443
 2859SOL     OW11481   3.812   3.707   3.114 -0.0707  0.4564 -0.4505
 2859SOL    HW211482   3.763   3.767   3.169 -0.2269 -0.0882  0.0035
 2859SOL    HW311483   3.881   3.673   3.170  0.7207  1.0633 -1.0266
 2859SOL    MW411484   3.815   3.711   3.128  0.0134  0.4644 -0.4663
 2860SOL     OW11485   2.270   1.680   2.289 -0.5208 -0.0009 -0.2614
 2860SOL    HW211486   2.179   1.684   2.317 -1.1426  0.9853 -2.3289
 2860SOL    HW311487   2.319   1.720   2.361 -1.7034 -0.5769  0.8780
 2860SOL    MW411488   2.265   1.686   2.302 -0.7591  0.0533 -0.3841
 2861SOL     OW11489   2.877   3.587   2.045  0.2757  0.0891  0.7088
 2861SOL    HW211490   2.835   3.555   1.966  1.4100  0.3370 -0.0132
 2861SOL    HW311491   2.847   3.528   2.114  0.3451 -0.9743 -0.1487
 2861SOL    MW411492   2.868   3.575   2.044  0.4346 -0.0186  0.5004
 2862SOL     OW11493   0.791   0.920   2.977 -0.2350  0.0924 -0.1988
 2862SOL    HW211494   0.854   0.867   3.026 -0.4102 -0.4282 -0.5422
 2862SOL    HW311495   0.730   0.857   2.939 -1.2990  0.6316  0.5995
 2862SOL    MW411496   0.791   0.905   2.978 -0.3985  0.0949 -0.1385
 2863SOL     OW11497   0.658   0.793   1.326 -0.1785  0.2547  1.0407
 2863SOL    HW211498   0.621   0.881   1.324  1.3162  0.9159  1.3385
 2863SOL    HW311499   0.592   0.738   1.286 -1.4945  1.3833  1.6241
 2863SOL    MW411500   0.645   0.798   1.321 -0.1549  0.4908  1.1569
 2864SOL     OW11501   2.541   4.647   3.193 -0.1533 -0.1462  0.0593
 2864SOL    HW211502   2.590   4.723   3.225  0.4894 -0.9001  0.8648
 2864SOL    HW311503   2.563   4.642   3.100 -0.5937  0.9510 -0.1195
 2864SOL    MW411504   2.550   4.656   3.185 -0.1266 -0.1011  0.1423
 2865SOL     OW11505   2.650   4.448   3.356  0.0108  0.1183 -0.0913
 2865SOL    HW211506   2.629   4.474   3.445 -2.3213 -1.4292 -0.1548
 2865SOL    HW311507   2.607   4.513   3.300  1.2409  0.9280 -0.1283
 2865SOL    MW411508   2.642   4.460   3.360 -0.1345  0.0210 -0.1047
 2866SOL     OW11509   1.772   3.475   2.215  0.4047  0.3300  0.4925
 2866SOL    HW211510   1.829   3.404   2.244  1.9639  1.4002  0.0975
 2866SOL    HW311511   1.747   3.451   2.126 -0.3093 -0.4605  0.8953
 2866SOL    MW411512   1.776   3.462   2.207  0.5162  0.3669  0.4935
 2867SOL     OW11513   0.621   0.411   4.147 -0.1767 -0.4126 -0.0911
 2867SOL    HW211514   0.694   0.391   4.205 -1.4790 -2.5566  0.8438
 2867SOL    HW311515   0.600   0.328   4.104 -0.3201  0.7721 -2.3897
 2867SOL    MW411516   0.627   0.398   4.149 -0.3675 -0.5392 -0.2708
 2868SOL     OW11517   4.266   2.190   2.393  0.2611 -0.2570 -0.1636
 2868SOL    HW211518   4.241   2.175   2.302  1.3583  0.6615 -0.6334
 2868SOL    HW311519   4.355   2.156   2.400 -0.6990 -2.5944  1.2315
 2868SOL    MW411520   4.274   2.184   2.382  0.2789 -0.4442 -0.0415
 2869SOL     OW11521   0.134   1.827   1.284 -0.1314 -0.0986 -0.1731
 2869SOL    HW211522   0.189   1.874   1.222  0.4832 -0.0079  0.4296
 2869SOL    HW311523   0.091   1.760   1.232 -0.7953  0.9468 -0.9870
 2869SOL    MW411524   0.136   1.825   1.269 -0.1379  0.0513 -0.2009
 2870SOL     OW11525   1.149   4.306   4.356  0.6081 -0.1938 -0.6416
 2870SOL    HW211526   1.220   4.243   4.347  2.0496  1.0727  1.2667
 2870SOL    HW311527   1.194   4.391   4.363 -1.0102  0.5360  1.4187
 2870SOL    MW411528   1.165   4.309   4.356  0.5848  0.0701 -0.1178
 2871SOL     OW11529   0.480   1.147   4.121  0.3430  0.2216 -0.1437
 2871SOL    HW211530   0.482   1.053   4.106  2.3815  0.0817  0.8108
 2871SOL    HW311531   0.474   1.185   4.033  0.8690 -0.7738 -0.6196
 2871SOL    MW411532   0.480   1.140   4.107  0.6813  0.0718 -0.0806
 2872SOL     OW11533   3.033   2.089   3.036 -0.1804 -0.2465 -0.0451
 2872SOL    HW211534   3.105   2.147   3.012  0.3055 -1.0748 -0.5920
 2872SOL    HW311535   3.075   2.015   3.079 -0.6011 -1.2961 -1.4204
 2872SOL    MW411536   3.048   2.087   3.039 -0.1719 -0.4942 -0.2987
 2873SOL     OW11537   0.110   0.545   1.009 -0.2146  0.1487  0.1331
 2873SOL    HW211538   0.190   0.491   1.010 -1.1001 -1.1724  0.2200
 2873SOL    HW311539   0.076   0.540   1.098  0.5658  2.2068  0.5834
 2873SOL    MW411540   0.116   0.537   1.021 -0.2285  0.2460  0.2040
 2874SOL     OW11541   0.437   0.754   3.249 -0.0963  0.6257  0.2782
 2874SOL    HW211542   0.478   0.780   3.167 -0.7203  1.2272  0.1537
 2874SOL    HW311543   0.502   0.775   3.317  0.8891 -0.9513 -0.1580
 2874SOL    MW411544   0.451   0.760   3.248 -0.0486  0.4970  0.2043
 2875SOL     OW11545   1.105   2.292   4.699  0.2984 -0.4768  0.0702
 2875SOL    HW211546   1.187   2.340   4.701  0.0002  0.0298  0.1779
 2875SOL    HW311547   1.039   2.355   4.728 -0.5959 -0.0015 -2.8786
 2875SOL    MW411548   1.107   2.306   4.703  0.1410 -0.3474 -0.3042
 2876SOL     OW11549   4.452   3.372   1.766  0.6245 -0.2850 -0.4448
 2876SOL    HW211550   4.543   3.385   1.794  0.4598  1.4441 -0.6656
 2876SOL    HW311551   4.459   3.312   1.691  1.6293  0.2074 -0.7655
 2876SOL    MW411552   4.465   3.365   1.760  0.7358  0.0081 -0.5163
 2877SOL     OW11553   0.768   0.944   3.718 -0.0262 -0.1982 -0.2784
 2877SOL    HW211554   0.743   0.981   3.633  0.8274 -1.0548 -0.9092
 2877SOL    HW311555   0.854   0.981   3.736 -1.4178  2.2502  1.5945
 2877SOL    MW411556   0.776   0.954   3.709 -0.0971  0.0118 -0.1144
 2878SOL     OW11557   0.077   3.057   1.225  0.6059  0.3747 -0.0810
 2878SOL    HW211558   0.135   2.981   1.215  0.8166  0.5381 -0.1041
 2878SOL    HW311559   0.086   3.105   1.143  1.1666  0.9057  0.2829
 2878SOL    MW411560   0.086   3.053   1.213  0.7076  0.4666 -0.0362
 2879SOL     OW11561   1.282   4.051   1.876  0.2303 -0.0699  0.0990
 2879SOL    HW211562   1.204   4.048   1.932  0.6766 -0.5815  0.7014
 2879SOL    HW311563   1.353   4.022   1.933  0.7896 -0.0198 -0.5725
 2879SOL    MW411564   1.281   4.047   1.891  0.3629 -0.1311  0.0898
 2880SOL     OW11565   1.195   0.933   2.047  0.6208 -0.0039  0.1542
 2880SOL    HW211566   1.196   0.861   1.984 -0.5492  0.0299  0.0824
 2880SOL    HW311567   1.183   1.011   1.993 -1.3349 -0.0600  0.4786
 2880SOL    MW411568   1.194   0.934   2.032  0.2084 -0.0068  0.1876
 2881SOL     OW11569   0.931   3.565   4.467 -0.3128 -0.2694 -0.1208
 2881SOL    HW211570   0.994   3.590   4.399 -0.5979 -0.5624 -0.4919
 2881SOL    HW311571   0.932   3.639   4.528  1.6992 -1.0442  0.8096
 2881SOL    MW411572   0.939   3.578   4.466 -0.0849 -0.4106 -0.0472
 2882SOL     OW11573   3.068   2.627   2.013  0.2383 -0.1014 -0.3226
 2882SOL    HW211574   3.141   2.589   2.062  0.4722 -0.0300 -0.6130
 2882SOL    HW311575   3.099   2.631   1.923 -0.5114 -1.0261 -0.6257
 2882SOL    MW411576   3.082   2.623   2.008  0.1702 -0.2141 -0.4008
 2883SOL     OW11577   3.412   4.665   3.050  0.3362  0.3236 -0.4585
 2883SOL    HW211578   3.440   4.581   3.015  0.9645  0.7425 -0.9725
 2883SOL    HW311579   3.318   4.668   3.033  0.0786 -0.8119  0.7082
 2883SOL    MW411580   3.403   4.654   3.043  0.3850  0.2289 -0.3724
 2884SOL     OW11581   1.961   2.507   2.871 -0.3363  0.4357  0.4096
 2884SOL    HW211582   1.972   2.598   2.843 -1.7045  0.6884  0.6724
 2884SOL    HW311583   2.045   2.465   2.849  0.1396  1.6432 -0.1293
 2884SOL    MW411584   1.973   2.513   2.864 -0.4541  0.6282  0.3734
 2885NA      NA11585   1.159   0.967   2.698  0.2495 -0.0970  0.2341
   4.49070   4.66690  10.00000
