Gromacs Runs On Most of All Computer Systems
   64
    1C      O5'    1  -0.023  -0.097   0.093
    1C      C5'    2  -0.054   0.037   0.059
    1C      H5'    3   0.020   0.075  -0.014
    1C     H5''    4  -0.052   0.100   0.150
    1C      C4'    5  -0.192   0.043  -0.003
    1C      H4'    6  -0.220   0.148  -0.022
    1C      O4'    7  -0.191  -0.031  -0.128
    1C      C3'    8  -0.291  -0.031   0.087
    1C      H3'    9  -0.240  -0.117   0.136
    1C      O3'   10  -0.340   0.058   0.186
    1C      C2'   11  -0.403  -0.067  -0.010
    1C      C1'   12  -0.327  -0.083  -0.141
    1C      H1'   13  -0.374  -0.019  -0.219
    1C      H2'   14  -0.447  -0.165   0.019
    1C      O2'   15  -0.493   0.042  -0.020
    1C     HO'2   16  -0.490   0.091   0.062
    1C       N1   17  -0.324  -0.225  -0.180
    1C       C2   18  -0.396  -0.282  -0.283
    1C       O2   19  -0.471  -0.214  -0.353
    1C       N3   20  -0.382  -0.415  -0.305
    1C       C4   21  -0.300  -0.489  -0.229
    1C       N4   22  -0.289  -0.620  -0.254
    1C      H41   23  -0.341  -0.663  -0.329
    1C      H42   24  -0.227  -0.677  -0.197
    1C       C5   25  -0.225  -0.431  -0.122
    1C       H5   26  -0.160  -0.493  -0.063
    1C       C6   27  -0.241  -0.298  -0.101
    1C       H6   28  -0.186  -0.250  -0.022
    1C      H5T   29  -0.043  -0.132   0.181
    2G        P   30  -0.314   0.026   0.342
    2G      OP1   31  -0.354   0.145   0.420
    2G      OP2   32  -0.176  -0.028   0.355
    2G      O5'   33  -0.417  -0.093   0.375
    2G      C5'   34  -0.554  -0.065   0.405
    2G     H5'1   35  -0.598  -0.007   0.321
    2G     H5'2   36  -0.560  -0.006   0.499
    2G      C4'   37  -0.629  -0.195   0.421
    2G      H4'   38  -0.735  -0.173   0.448
    2G      O4'   39  -0.625  -0.270   0.297
    2G      C3'   40  -0.558  -0.282   0.524
    2G      H3'   41  -0.449  -0.262   0.520
    2G      O3'   42  -0.608  -0.253   0.654
    2G      C2'   43  -0.600  -0.423   0.483
    2G      C1'   44  -0.616  -0.408   0.332
    2G      H1'   45  -0.710  -0.456   0.299
    2G      H2'   46  -0.518  -0.495   0.505
    2G      O2'   47  -0.726  -0.452   0.540
    2G     HO'2   48  -0.736  -0.401   0.621
    2G       N9   49  -0.498  -0.465   0.265
    2G       C8   50  -0.368  -0.418   0.265
    2G       H8   51  -0.338  -0.329   0.318
    2G       N7   52  -0.286  -0.492   0.195
    2G       C5   53  -0.367  -0.594   0.146
    2G       C4   54  -0.496  -0.578   0.188
    2G       C6   55  -0.339  -0.705   0.064
    2G       N3   56  -0.602  -0.658   0.160
    2G       C2   57  -0.583  -0.764   0.083
    2G       N1   58  -0.450  -0.785   0.037
    2G       H1   59  -0.434  -0.866  -0.021
    2G       N2   60  -0.686  -0.845   0.054
    2G      H21   61  -0.778  -0.824   0.090
    2G      H22   62  -0.672  -0.926  -0.004
    2G       O6   63  -0.227  -0.729   0.020
    2G      H3T   64  -0.577  -0.175   0.700
   0.00000   0.00000   0.00000
