Gromacs Runs On Most of All Computer Systems in water
11585
    1C      O5'    1   2.595   1.750   4.879  0.7925 -0.1500  0.2526
    1C      H5T    2   2.652   1.674   4.883  0.4922 -0.5720 -2.3746
    1C      C5'    3   2.640   1.849   4.974 -0.3387 -0.8085 -0.2612
    1C     H5'1    4   2.652   1.795   5.067 -0.1833  1.8650  1.3159
    1C     H5'2    5   2.569   1.931   4.983 -0.1185 -0.6575  0.0932
    1C      C4'    6   2.773   1.908   4.924 -0.2135  0.3531 -0.7085
    1C      H4'    7   2.815   1.976   4.998 -0.0795 -0.2815 -0.1860
    1C      O4'    8   2.869   1.807   4.915  0.0692 -0.0156  0.3762
    1C      C1'    9   2.978   1.846   4.828  0.2928  0.3615 -0.0234
    1C      H1'   10   3.063   1.879   4.888 -1.1243  0.0472  2.2478
    1C       N1   11   3.019   1.735   4.731 -0.0209  0.1384 -0.2381
    1C       C6   12   2.948   1.615   4.719  0.2685 -0.5859  0.1962
    1C       H6   13   2.851   1.605   4.765  0.0810 -1.6987 -0.4072
    1C       C5   14   2.998   1.511   4.650 -0.3850 -0.1646 -0.8054
    1C       H5   15   2.939   1.420   4.649 -2.1105  0.9254 -0.4837
    1C       C4   16   3.124   1.529   4.586  0.0068 -0.2937 -0.3517
    1C       N4   17   3.168   1.433   4.506 -0.1253 -0.2796 -0.0792
    1C      H41   18   3.125   1.343   4.518  1.3981 -0.9568  0.3904
    1C      H42   19   3.252   1.443   4.452 -1.0197 -2.0361 -1.8388
    1C       N3   20   3.199   1.638   4.599  0.1139  0.0647 -0.1130
    1C       C2   21   3.153   1.732   4.680 -0.5096  0.2143  0.1250
    1C       O2   22   3.224   1.829   4.701  0.1810 -0.2996  0.5371
    1C      C3'   23   2.774   1.969   4.783 -0.1585 -0.1497 -0.0034
    1C      H3'   24   2.720   1.899   4.719  1.4571 -0.5984 -0.8918
    1C      C2'   25   2.925   1.970   4.758 -0.4815 -0.1843  1.0415
    1C     H2'1   26   2.946   1.960   4.651  0.7883  0.6601  1.1990
    1C      O2'   27   2.984   2.086   4.809  0.0479 -0.0629 -0.1853
    1C     HO'2   28   2.939   2.161   4.770 -0.6032 -0.4832 -0.2471
    1C      O3'   29   2.716   2.096   4.776  0.4318 -0.1781  0.2621
    2G        P   30   2.693   2.171   4.637 -0.4800 -0.2942 -0.1321
    2G      O1P   31   2.607   2.085   4.556  0.4376 -0.0951  0.5374
    2G      O2P   32   2.826   2.209   4.595  0.4317 -0.0826  0.0340
    2G      O5'   33   2.607   2.292   4.690 -0.2460 -0.4284  0.6174
    2G      C5'   34   2.476   2.275   4.746 -0.0977 -0.2086 -0.1910
    2G     H5'1   35   2.484   2.264   4.854 -0.6696  0.4142 -0.0785
    2G     H5'2   36   2.426   2.186   4.707 -0.5972  0.1067 -0.2808
    2G      C4'   37   2.383   2.391   4.711  0.4990  0.5629 -0.2741
    2G      H4'   38   2.284   2.377   4.754  0.6918  1.1596  0.3618
    2G      O4'   39   2.436   2.501   4.778 -0.4084  0.2426  0.2808
    2G      C1'   40   2.416   2.616   4.693 -0.2458 -0.3582 -0.0466
    2G      H1'   41   2.353   2.692   4.739 -0.1960 -0.0405 -0.5025
    2G       N9   42   2.549   2.672   4.685 -0.3206  0.4583 -0.1288
    2G       C8   43   2.667   2.617   4.715 -0.0414 -0.0384 -0.1508
    2G       H8   44   2.677   2.512   4.738  1.3591  0.4337  1.4582
    2G       N7   45   2.767   2.694   4.686 -0.0488 -0.0736 -0.1677
    2G       C5   46   2.707   2.819   4.657 -0.2412 -0.0777 -0.4015
    2G       C6   47   2.759   2.954   4.630  0.1837  0.3217 -0.1186
    2G       O6   48   2.876   2.992   4.629  0.0627 -0.5562 -0.2254
    2G       N1   49   2.661   3.052   4.610 -0.1576  0.1821  0.3259
    2G       H1   50   2.690   3.148   4.610 -0.1659  0.1858  0.5377
    2G       C2   51   2.528   3.019   4.595 -0.4098 -0.0823  0.2680
    2G       N2   52   2.442   3.113   4.575 -0.3374 -0.3341  0.0781
    2G      H21   53   2.475   3.206   4.599  1.2731 -1.4898  2.4656
    2G      H22   54   2.344   3.088   4.578 -0.3914 -0.0459  0.9983
    2G       N3   55   2.479   2.898   4.615  0.2855  0.2374 -0.3944
    2G       C4   56   2.572   2.803   4.647  0.4768  0.6051 -1.1426
    2G      C3'   57   2.387   2.419   4.559 -0.1477  0.0272  0.2803
    2G      H3'   58   2.487   2.407   4.518 -0.2669  0.2164 -0.0707
    2G      C2'   59   2.365   2.569   4.560  0.8747 -0.2146 -0.0498
    2G     H2'1   60   2.424   2.614   4.479 -0.7308  0.6141 -0.7753
    2G      O2'   61   2.226   2.603   4.555  0.1993  0.1000  0.0621
    2G     HO'2   62   2.189   2.524   4.514  1.8677 -0.3388 -0.6530
    2G      O3'   63   2.288   2.345   4.490  0.2812 -0.0957  0.1864
    2G      H3T   64   2.316   2.254   4.483  0.5018 -0.1862  2.0654
    5SOL     OW   65   1.180   1.349   0.490  0.3279  0.3783 -0.1596
    5SOL    HW2   66   1.229   1.357   0.572 -0.1064  1.2497  0.0107
    5SOL    HW3   67   1.114   1.417   0.494 -0.0327  0.0861 -1.0089
    5SOL    MW4   68   1.178   1.359   0.501  0.2230  0.4548 -0.2492
    6SOL     OW   69   2.474   0.629   0.474  0.3056 -0.6992  0.3715
    6SOL    HW2   70   2.555   0.661   0.514  0.0394  0.4885 -0.0066
    6SOL    HW3   71   2.470   0.674   0.389 -1.2389  0.0014  0.8115
    6SOL    MW4   72   2.484   0.639   0.468  0.0670 -0.4501  0.3797
    7SOL     OW   73   2.774   3.356   0.500  0.1140 -0.4840  0.1126
    7SOL    HW2   74   2.797   3.332   0.590 -0.8819 -0.7432  0.3023
    7SOL    HW3   75   2.733   3.277   0.464 -1.3785  0.2812  0.1043
    7SOL    MW4   76   2.772   3.342   0.507 -0.2143 -0.4175  0.1366
    8SOL     OW   77   2.475   2.270   0.788  0.2663 -0.3366 -0.0930
    8SOL    HW2   78   2.469   2.291   0.881 -0.5437 -0.1767 -0.1742
    8SOL    HW3   79   2.553   2.216   0.780  0.1782 -0.5879  0.7308
    8SOL    MW4   80   2.484   2.265   0.799  0.1476 -0.3486  0.0049
    9SOL     OW   81   3.835   1.004   0.707  0.5148 -0.6400  0.0970
    9SOL    HW2   82   3.850   0.930   0.767  2.2285 -0.3966 -0.0324
    9SOL    HW3   83   3.810   0.963   0.624  1.1822 -1.0672  0.1048
    9SOL    MW4   84   3.833   0.989   0.704  0.8287 -0.6644  0.0809
   10SOL     OW   85   3.806   2.865   1.171  0.4477  0.2521 -0.1731
   10SOL    HW2   86   3.824   2.866   1.265  1.0571  1.6273 -0.2955
   10SOL    HW3   87   3.809   2.957   1.145 -2.5177  0.1625 -1.0168
   10SOL    MW4   88   3.808   2.878   1.180  0.1366  0.4215 -0.3005
   11SOL     OW   89   1.914   3.701   0.721 -0.1190  0.2294 -0.3748
   11SOL    HW2   90   1.968   3.767   0.765 -0.3716  0.9451 -1.1237
   11SOL    HW3   91   1.845   3.751   0.678  0.4488 -0.3947 -2.0555
   11SOL    MW4   92   1.912   3.716   0.721 -0.0774  0.2418 -0.6954
   12SOL     OW   93   3.331   3.870   1.024  0.1273 -0.4251 -0.3519
   12SOL    HW2   94   3.331   3.786   1.071  0.0855 -0.3760 -0.2646
   12SOL    HW3   95   3.267   3.923   1.070  2.2285  0.6732  1.3981
   12SOL    MW4   96   3.323   3.866   1.036  0.3991 -0.2737 -0.1094
   13SOL     OW   97   3.991   1.658   1.191 -0.2514 -0.2079  0.4099
   13SOL    HW2   98   4.057   1.602   1.150  0.1803 -0.0649  0.9028
   13SOL    HW3   99   4.028   1.681   1.276 -0.7324  0.2530  0.5011
   13SOL    MW4  100   4.005   1.654   1.197 -0.2580 -0.1283  0.4869
   14SOL     OW  101   0.602   0.770   0.471  0.2495  0.6067  0.0518
   14SOL    HW2  102   0.538   0.813   0.415  1.6247  2.9053  0.1986
   14SOL    HW3  103   0.614   0.829   0.545  1.6617 -0.3290  0.6008
   14SOL    MW4  104   0.595   0.783   0.473  0.6173  0.7865  0.1436
   15SOL     OW  105   2.418   2.659   0.693 -0.1045 -0.6010  0.2419
   15SOL    HW2  106   2.507   2.689   0.708 -0.4432  0.9809 -0.8653
   15SOL    HW3  107   2.427   2.565   0.676  1.2424 -0.6193  0.9945
   15SOL    MW4  108   2.431   2.650   0.693  0.0284 -0.3943  0.1951
   16SOL     OW  109   2.246   3.538   0.842 -0.2460  0.3124  0.1168
   16SOL    HW2  110   2.222   3.522   0.934  0.3516 -0.7011  0.1047
   16SOL    HW3  111   2.190   3.480   0.792  0.4637 -0.2178 -0.0682
   16SOL    MW4  112   2.235   3.528   0.848 -0.0734  0.1085  0.0908
   17SOL     OW  113   2.218   0.927   1.229 -0.6399  0.4640 -0.0512
   17SOL    HW2  114   2.300   0.883   1.209 -0.0257  0.9572  1.2790
   17SOL    HW3  115   2.150   0.865   1.205  0.2036 -1.3256  1.9718
   17SOL    MW4  116   2.220   0.913   1.223 -0.4475  0.2930  0.3912
   18SOL     OW  117   4.481   0.389   1.142  0.0863  0.3034  0.3793
   18SOL    HW2  118   4.466   0.369   1.050  1.7832  0.3333  0.0983
   18SOL    HW3  119   4.471   0.304   1.186  1.9931 -0.2117 -0.1672
   18SOL    MW4  120   4.478   0.375   1.136  0.5622  0.2394  0.2702
   19SOL     OW  121   3.546   1.128   0.370 -0.1962  0.3451  0.0833
   19SOL    HW2  122   3.500   1.125   0.286 -0.6060 -0.3527  0.3340
   19SOL    HW3  123   3.485   1.090   0.433  0.2416  0.5550  0.6389
   19SOL    MW4  124   3.532   1.123   0.367 -0.1926  0.2810  0.1897
   20SOL     OW  125   2.080   2.378   0.839 -0.5145  0.1732  0.3750
   20SOL    HW2  126   2.131   2.311   0.794  0.0976  2.2192 -2.0805
   20SOL    HW3  127   2.003   2.391   0.784 -0.1406  2.1820  0.2902
   20SOL    MW4  128   2.077   2.371   0.826 -0.3843  0.7083  0.0398
   21SOL     OW  129   0.709   0.768   0.864 -0.0748  0.5906  0.2060
   21SOL    HW2  130   0.633   0.718   0.834  1.0601 -0.8932 -0.2060
   21SOL    HW3  131   0.706   0.761   0.959  0.3469 -0.6631  0.1291
   21SOL    MW4  132   0.698   0.761   0.873  0.1305  0.2294  0.1415
   22SOL     OW  133   4.064   2.760   0.789 -0.0133 -0.0198 -0.1770
   22SOL    HW2  134   4.064   2.741   0.883 -0.3685 -1.6448 -0.4907
   22SOL    HW3  135   3.975   2.739   0.761 -0.6493  2.8260 -0.4327
   22SOL    MW4  136   4.052   2.755   0.797 -0.1445  0.1414 -0.2522
   23SOL     OW  137   2.348   3.740   0.542 -0.7740 -0.4539 -0.3098
   23SOL    HW2  138   2.391   3.655   0.540 -0.3158 -0.2248 -0.3959
   23SOL    HW3  139   2.333   3.758   0.635 -0.8004 -0.5949 -0.2876
   23SOL    MW4  140   2.352   3.731   0.554 -0.7167 -0.4423 -0.3182
   24SOL     OW  141   4.434   2.043   0.337  0.2116  0.0310 -0.2512
   24SOL    HW2  142   4.433   2.064   0.244 -0.7990  1.0268 -0.0237
   24SOL    HW3  143   4.521   2.005   0.352  0.5951  0.4059 -1.4764
   24SOL    MW4  144   4.445   2.041   0.327  0.1287  0.2117 -0.3828
   25SOL     OW  145   1.336   4.117   0.488 -0.0405  0.0908  0.8510
   25SOL    HW2  146   1.266   4.176   0.513  0.4549  0.7888  0.6244
   25SOL    HW3  147   1.411   4.175   0.471  0.3732 -0.5761  0.3601
   25SOL    MW4  148   1.337   4.132   0.489  0.0795  0.0944  0.7564
   26SOL     OW  149   4.070   3.105   0.389  0.0980  0.1084  0.2855
   26SOL    HW2  150   4.112   3.056   0.460  1.5312 -0.2594 -0.7868
   26SOL    HW3  151   4.116   3.190   0.388  0.6564 -0.1928 -0.7106
   26SOL    MW4  152   4.082   3.110   0.398  0.3605  0.0203  0.0126
   27SOL     OW  153   1.814   3.217   1.177  0.3688 -0.8849 -0.0297
   27SOL    HW2  154   1.893   3.167   1.160 -0.4620 -1.7704 -1.2738
   27SOL    HW3  155   1.814   3.229   1.273  1.4617 -1.7401  0.0866
   27SOL    MW4  156   1.825   3.212   1.188  0.4034 -1.1148 -0.1786
   28SOL     OW  157   0.687   2.534   0.786 -0.3408 -0.0059 -0.2382
   28SOL    HW2  158   0.677   2.511   0.694  1.1163 -1.7007  0.0106
   28SOL    HW3  159   0.683   2.451   0.833 -0.0113  0.7357  1.1411
   28SOL    MW4  160   0.685   2.520   0.780 -0.1051 -0.1318 -0.0234
   29SOL     OW  161   4.352   3.931   0.420  0.3996  0.0039 -0.0154
   29SOL    HW2  162   4.396   3.849   0.442  0.0087  0.0056  0.8026
   29SOL    HW3  163   4.286   3.907   0.355  1.6273  0.0083 -1.2813
   29SOL    MW4  164   4.349   3.917   0.415  0.5097  0.0048 -0.0745
   30SOL     OW  165   0.656   2.832   1.238 -0.0226  0.1066 -0.0253
   30SOL    HW2  166   0.662   2.917   1.194 -1.4459 -0.0217 -0.4890
   30SOL    HW3  167   0.575   2.793   1.204  0.5449 -1.3771  0.2836
   30SOL    MW4  168   0.646   2.838   1.227 -0.1355 -0.1061 -0.0455
   31SOL     OW  169   3.947   1.374   0.381  0.3144 -0.1183  0.8647
   31SOL    HW2  170   3.959   1.279   0.387  0.4957 -0.1089  0.6595
   31SOL    HW3  171   3.852   1.387   0.386  0.3028 -0.2966  1.0888
   31SOL    MW4  172   3.936   1.363   0.382  0.3366 -0.1405  0.8672
   32SOL     OW  173   1.545   4.289   0.455  0.5485 -0.6529 -0.0764
   32SOL    HW2  174   1.523   4.379   0.477  0.9552 -0.9156  1.4981
   32SOL    HW3  175   1.602   4.296   0.379 -2.1874  0.1983 -2.0937
   32SOL    MW4  176   1.550   4.302   0.448  0.2412 -0.5746 -0.1348
   33SOL     OW  177   1.865   2.461   0.667 -0.1246  0.2120 -0.0657
   33SOL    HW2  178   1.884   2.508   0.585 -0.4695 -0.3418 -0.4663
   33SOL    HW3  179   1.805   2.518   0.714  0.3447  0.6914 -0.0477
   33SOL    MW4  180   1.860   2.475   0.662 -0.1081  0.2022 -0.1162
   34SOL     OW  181   4.438   2.185   0.747 -0.4434 -0.0742  0.1615
   34SOL    HW2  182   4.365   2.227   0.791 -0.5014  1.0053 -0.9463
   34SOL    HW3  183   4.428   2.209   0.655  2.0613  1.2431  0.1940
   34SOL    MW4  184   4.427   2.194   0.741 -0.1206  0.2422  0.0196
   35SOL     OW  185   4.050   0.599   0.749 -0.3087  0.1455  0.0035
   35SOL    HW2  186   4.028   0.517   0.794 -0.6363  0.9043  1.2345
   35SOL    HW3  187   3.975   0.656   0.764  0.7906  1.3870  0.8820
   35SOL    MW4  188   4.037   0.596   0.757 -0.2069  0.4094  0.2819
   36SOL     OW  189   3.181   3.077   0.402 -0.4128 -0.1878  0.0948
   36SOL    HW2  190   3.127   3.151   0.427  0.3663  0.4847 -0.1854
   36SOL    HW3  191   3.264   3.116   0.375  0.4722 -1.2476  1.2048
   36SOL    MW4  192   3.185   3.092   0.402 -0.1934 -0.2387  0.2043
   37SOL     OW  193   3.352   3.702   0.776 -0.3940 -0.3090 -0.2776
   37SOL    HW2  194   3.346   3.778   0.835 -0.7487  1.2557 -2.2492
   37SOL    HW3  195   3.271   3.653   0.792 -0.0824 -0.3935  1.1425
   37SOL    MW4  196   3.340   3.706   0.786 -0.3996 -0.1135 -0.3503
   38SOL     OW  197   4.053   1.117   0.425  0.3217 -0.1744 -0.1099
   38SOL    HW2  198   4.070   1.116   0.519  1.0952 -1.2995 -0.2474
   38SOL    HW3  199   4.035   1.026   0.403 -0.1364  0.1258 -1.0072
   38SOL    MW4  200   4.053   1.105   0.435  0.3633 -0.2832 -0.2464
   39SOL     OW  201   3.295   3.323   0.655  0.3038 -0.1310 -0.1478
   39SOL    HW2  202   3.223   3.278   0.612 -1.2953  1.1439  1.0879
   39SOL    HW3  203   3.338   3.256   0.708 -0.8081 -0.6389  0.1235
   39SOL    MW4  204   3.292   3.308   0.657 -0.0539 -0.0298  0.0511
   40SOL     OW  205   3.185   0.647   0.858  0.7399 -0.0580 -0.1714
   40SOL    HW2  206   3.161   0.555   0.873  0.6647  0.0176  0.1760
   40SOL    HW3  207   3.169   0.661   0.765  2.0473 -0.7823 -0.5210
   40SOL    MW4  208   3.180   0.636   0.847  0.9029 -0.1436 -0.1717
   41SOL     OW  209   2.106   4.121   0.459 -0.3942 -0.0959 -0.3399
   41SOL    HW2  210   2.084   4.124   0.552  2.2665  0.3405  0.3213
   41SOL    HW3  211   2.047   4.185   0.419 -1.2466  0.0599  1.1097
   41SOL    MW4  212   2.095   4.130   0.466 -0.1552 -0.0176 -0.0614
   42SOL     OW  213   4.037   1.925   1.102  0.2060 -0.4267  0.4136
   42SOL    HW2  214   4.020   1.912   1.009  0.2161  0.2303  0.3148
   42SOL    HW3  215   4.027   1.838   1.141 -0.2930 -0.6128 -0.1194
   42SOL    MW4  216   4.034   1.912   1.095  0.1416 -0.3645  0.3304
   43SOL     OW  217   0.833   4.215   0.864 -0.0144 -0.3821 -0.1773
   43SOL    HW2  218   0.918   4.184   0.833  0.6081  0.3544  0.7500
   43SOL    HW3  219   0.849   4.243   0.955 -1.2582 -0.3004  0.0347
   43SOL    MW4  220   0.846   4.214   0.872 -0.0963 -0.2742 -0.0270
   44SOL     OW  221   2.919   0.025   0.857 -0.1236  0.1573  0.3189
   44SOL    HW2  222   2.845  -0.024   0.821 -0.5500  1.0382 -0.0014
   44SOL    HW3  223   2.910   0.113   0.821  0.4424  0.5767  1.1808
   44SOL    MW4  224   2.908   0.030   0.848 -0.1051  0.3288  0.3904
   45SOL     OW  225   1.136   0.305   0.486  0.0552  0.0431 -0.3391
   45SOL    HW2  226   1.122   0.320   0.580 -1.0130 -0.9670 -0.3290
   45SOL    HW3  227   1.178   0.385   0.455 -1.4080  1.2090  0.6175
   45SOL    MW4  228   1.139   0.317   0.495 -0.2788  0.0636 -0.2115
   46SOL     OW  229   3.126   2.731   0.832  0.2332  0.3212  0.0874
   46SOL    HW2  230   3.130   2.807   0.774 -1.1588 -0.5887 -1.2156
   46SOL    HW3  231   3.199   2.675   0.804 -0.2132  0.0532 -0.5295
   46SOL    MW4  232   3.136   2.734   0.821 -0.0093  0.1657 -0.1659
   47SOL     OW  233   4.479   1.863   1.114  0.0715  0.0722 -0.1420
   47SOL    HW2  234   4.405   1.912   1.148  1.2079  1.4465  0.3869
   47SOL    HW3  235   4.472   1.873   1.019 -0.8146 -0.4214 -0.1405
   47SOL    MW4  236   4.468   1.870   1.106  0.1044  0.1885 -0.0721
   48SOL     OW  237   3.822   2.339   1.107  0.2126 -0.3135  0.1112
   48SOL    HW2  238   3.734   2.364   1.136 -0.5533 -2.0154 -0.6938
   48SOL    HW3  239   3.840   2.256   1.151  0.1114 -1.5754 -2.1217
   48SOL    MW4  240   3.813   2.332   1.116  0.0982 -0.7045 -0.2897
   49SOL     OW  241   1.301   2.738   0.660 -0.1893 -0.2602 -0.0269
   49SOL    HW2  242   1.343   2.715   0.577  0.4853 -0.0909  0.2640
   49SOL    HW3  243   1.242   2.665   0.678 -0.3211 -0.3043 -0.6476
   49SOL    MW4  244   1.299   2.725   0.652 -0.1177 -0.2437 -0.0704
   50SOL     OW  245   2.941   1.760   0.526  0.0543 -0.0057  0.2241
   50SOL    HW2  246   2.940   1.760   0.622 -1.0517 -0.7713  0.2263
   50SOL    HW3  247   2.975   1.673   0.502  1.1340  0.4956 -0.0800
   50SOL    MW4  248   2.945   1.748   0.535  0.0505 -0.0408  0.1842
   51SOL     OW  249   1.913   1.720   0.351 -0.0056  0.4894 -0.0442
   51SOL    HW2  250   1.978   1.765   0.405 -1.0210 -0.0727  1.6563
   51SOL    HW3  251   1.834   1.773   0.359 -1.1474 -1.4298  1.7840
   51SOL    MW4  252   1.911   1.733   0.359 -0.2903  0.1621  0.4214
   52SOL     OW  253   3.143   0.495   0.188  0.6565  0.0506  0.1309
   52SOL    HW2  254   3.062   0.449   0.210 -0.6172  1.7309 -0.9039
   52SOL    HW3  255   3.170   0.459   0.104  0.0851  0.6243 -0.3042
   52SOL    MW4  256   3.136   0.484   0.180  0.4132  0.3480 -0.0630
   53SOL     OW  257   2.735   1.659   1.278  0.6143 -0.5921  0.0564
   53SOL    HW2  258   2.801   1.605   1.234  0.9905 -0.2068  0.1416
   53SOL    HW3  259   2.651   1.624   1.248  0.8639 -0.6228 -0.6242
   53SOL    MW4  260   2.733   1.648   1.268  0.6969 -0.5451 -0.0222
   54SOL     OW  261   2.892   2.050   1.233  0.0189 -0.2009  0.0076
   54SOL    HW2  262   2.905   2.054   1.327  1.3386  1.1620 -0.2090
   54SOL    HW3  263   2.966   1.998   1.200  0.4510  0.6670 -0.4207
   54SOL    MW4  264   2.904   2.044   1.241  0.2501  0.0935 -0.0776
   55SOL     OW  265   1.256   0.554   0.427  0.3828 -0.3780 -0.4479
   55SOL    HW2  266   1.266   0.595   0.513  3.0831 -0.8745 -0.4592
   55SOL    HW3  267   1.197   0.611   0.379 -0.6587  0.2480  1.5245
   55SOL    MW4  268   1.250   0.567   0.432  0.6018 -0.3609 -0.1891
   56SOL     OW  269   1.353   3.745   0.762  0.6539 -0.8329 -0.5109
   56SOL    HW2  270   1.429   3.803   0.767  0.7015 -0.7933 -1.5689
   56SOL    HW3  271   1.385   3.660   0.791  0.6143 -0.3708  0.9285
   56SOL    MW4  272   1.367   3.741   0.767  0.6549 -0.7668 -0.4606
   57SOL     OW  273   0.912   1.422   0.751 -0.1805 -0.1975 -0.4548
   57SOL    HW2  274   0.829   1.454   0.787 -0.2855 -1.3649  0.3707
   57SOL    HW3  275   0.910   1.448   0.659 -0.1551  2.3333  0.2466
   57SOL    MW4  276   0.901   1.429   0.743 -0.1909 -0.0176 -0.2533
   58SOL     OW  277   1.724   2.612   0.837  0.0623 -0.2979 -0.0710
   58SOL    HW2  278   1.761   2.696   0.810  0.2765  0.0680  1.2935
   58SOL    HW3  279   1.629   2.626   0.835  0.1102  0.1770  0.7401
   58SOL    MW4  280   1.717   2.625   0.833  0.0968 -0.1872  0.2160
   59SOL     OW  281   4.313   0.972   0.687 -0.8454 -0.4422  0.0784
   59SOL    HW2  282   4.301   0.893   0.740 -2.0548 -0.6575 -0.5012
   59SOL    HW3  283   4.227   1.015   0.689 -0.3992  0.4684 -0.2361
   59SOL    MW4  284   4.300   0.967   0.695 -0.9460 -0.3504 -0.0396
   60SOL     OW  285   1.133   3.101   1.105  0.3087  0.2623 -0.0987
   60SOL    HW2  286   1.145   3.021   1.157 -0.0066 -0.6766 -1.4451
   60SOL    HW3  287   1.209   3.155   1.127  1.0076 -0.7895  0.1200
   60SOL    MW4  288   1.145   3.098   1.115  0.3593 -0.0002 -0.2475
   61SOL     OW  289   1.117   0.229   0.752 -0.2568 -0.0781  0.2116
   61SOL    HW2  290   1.118   0.135   0.769 -0.0673  0.0239  0.7675
   61SOL    HW3  291   1.190   0.264   0.804  0.1870  0.2672 -0.6371
   61SOL    MW4  292   1.127   0.221   0.761 -0.1733 -0.0191  0.1730
   62SOL     OW  293   1.316   0.401   0.859 -0.1263  0.8125 -0.0256
   62SOL    HW2  294   1.322   0.482   0.809  0.9816  1.4228  1.0572
   62SOL    HW3  295   1.319   0.429   0.951 -1.2162 -0.3466  0.3755
   62SOL    MW4  296   1.317   0.416   0.865 -0.1240  0.7401  0.1702
   63SOL     OW  297   2.039   1.038   0.288  0.1648  0.0648  0.0414
   63SOL    HW2  298   2.116   0.984   0.308  1.4499  1.6636 -0.4634
   63SOL    HW3  299   1.967   0.994   0.331  0.9109 -2.9110 -1.5878
   63SOL    MW4  300   2.040   1.025   0.296  0.4327 -0.1169 -0.2401
   64SOL     OW  301   0.669   3.369   0.707  0.4289 -0.1211  0.0641
   64SOL    HW2  302   0.753   3.415   0.711  0.1113  0.5044 -0.4409
   64SOL    HW3  303   0.685   3.287   0.753  1.4867 -0.2664 -0.5388
   64SOL    MW4  304   0.683   3.364   0.713  0.5266 -0.0575 -0.0821
   65SOL     OW  305   3.833   4.450   0.386  0.0597  0.3385 -0.2467
   65SOL    HW2  306   3.762   4.506   0.415  0.6512  0.3789  1.1449
   65SOL    HW3  307   3.800   4.361   0.399 -0.1546  0.3585 -0.6489
   65SOL    MW4  308   3.819   4.445   0.391  0.1094  0.3471 -0.1162
   66SOL     OW  309   4.076   4.552   0.484  0.3596 -0.2354  0.1457
   66SOL    HW2  310   3.991   4.536   0.444  0.1220  0.1751  0.4875
   66SOL    HW3  311   4.071   4.512   0.570  0.4009  0.0629  0.2892
   66SOL    MW4  312   4.064   4.545   0.490  0.3333 -0.1426  0.2097
   67SOL     OW  313   3.151   1.905   0.432 -0.3586  0.0947 -0.1362
   67SOL    HW2  314   3.123   1.997   0.431 -0.0235  0.1989 -0.0063
   67SOL    HW3  315   3.073   1.857   0.461 -0.5360  0.3363 -0.2023
   67SOL    MW4  316   3.137   1.911   0.435 -0.3378  0.1403 -0.1278
   68SOL     OW  317   3.422   1.328   1.225  0.0066 -0.8032  0.1045
   68SOL    HW2  318   3.411   1.326   1.320  0.8474  0.2254  0.2298
   68SOL    HW3  319   3.506   1.285   1.209 -0.0504 -0.8203 -0.1674
   68SOL    MW4  320   3.431   1.322   1.235  0.1101 -0.6697  0.0852
   69SOL     OW  321   3.307   0.562   0.412 -0.1216  0.1243 -0.0855
   69SOL    HW2  322   3.254   0.547   0.333 -0.2608  0.2464 -0.0177
   69SOL    HW3  323   3.348   0.478   0.430 -1.1105 -0.2530  0.4549
   69SOL    MW4  324   3.305   0.549   0.404 -0.2704  0.0905 -0.0052
   70SOL     OW  325   0.638   2.462   0.518 -0.4183 -0.2122  0.0939
   70SOL    HW2  326   0.712   2.449   0.460  0.4151 -0.4644  1.1958
   70SOL    HW3  327   0.597   2.543   0.487 -0.8069 -1.0541 -1.6830
   70SOL    MW4  328   0.642   2.471   0.506 -0.3597 -0.3564  0.0049
   71SOL     OW  329   1.444   2.610   0.860  0.3203  0.0207 -0.1947
   71SOL    HW2  330   1.403   2.644   0.781 -1.0561 -1.4897 -0.1431
   71SOL    HW3  331   1.397   2.653   0.931  0.0650 -0.3040 -0.1661
   71SOL    MW4  332   1.432   2.620   0.859  0.1051 -0.2217 -0.1841
   72SOL     OW  333   2.698   2.708   1.084 -0.0945 -0.1358 -0.0992
   72SOL    HW2  334   2.700   2.621   1.123 -0.5366 -0.3966 -0.6466
   72SOL    HW3  335   2.620   2.750   1.121 -1.1451 -0.7893 -1.5469
   72SOL    MW4  336   2.688   2.702   1.094 -0.2913 -0.2561 -0.3625
   73SOL     OW  337   0.436   0.093   0.486  0.0391 -0.6913 -0.1152
   73SOL    HW2  338   0.424   0.014   0.432 -0.2701 -1.1472  0.6184
   73SOL    HW3  339   0.352   0.105   0.530  0.0708  0.0798 -0.2632
   73SOL    MW4  340   0.423   0.084   0.484  0.0025 -0.6497 -0.0379
   74SOL     OW  341   2.461   0.769   0.893  0.4585 -0.1757 -0.5403
   74SOL    HW2  342   2.459   0.852   0.845  1.8401  0.6508  0.7878
   74SOL    HW3  343   2.377   0.727   0.873 -0.9074  2.2242 -0.0125
   74SOL    MW4  344   2.450   0.774   0.884  0.4606  0.2500 -0.2954
   75SOL     OW  345   0.883   4.288   0.445 -0.7938 -0.5115  0.3796
   75SOL    HW2  346   0.924   4.209   0.412 -1.7897 -1.5700  1.6261
   75SOL    HW3  347   0.790   4.268   0.447 -0.9209  0.1546  2.1151
   75SOL    MW4  348   0.876   4.275   0.441 -0.9419 -0.5631  0.7731
   76SOL     OW  349   4.490   2.983   0.665  0.3940 -0.2596  0.8280
   76SOL    HW2  350   4.401   2.990   0.630  1.5658 -0.4582 -2.2815
   76SOL    HW3  351   4.497   2.893   0.697 -0.8121  0.0491  2.0140
   76SOL    MW4  352   4.479   2.972   0.665  0.3901 -0.2451  0.5742
   77SOL     OW  353   3.621   0.621   0.746 -0.1779 -0.2397  0.1904
   77SOL    HW2  354   3.563   0.675   0.800  0.3580  0.5935 -0.0628
   77SOL    HW3  355   3.625   0.537   0.792  0.6075  0.5871  1.6848
   77SOL    MW4  356   3.614   0.617   0.759 -0.0036 -0.0206  0.3542
   78SOL     OW  357   3.581   2.228   0.768 -0.2757 -0.8537  0.0800
   78SOL    HW2  358   3.490   2.247   0.790 -0.0757 -0.5937  0.6813
   78SOL    HW3  359   3.594   2.137   0.793 -0.2737 -0.7912  0.3039
   78SOL    MW4  360   3.571   2.219   0.774 -0.2491 -0.8111  0.1889
   79SOL     OW  361   2.556   3.899   0.886  0.2687  0.2533  0.2009
   79SOL    HW2  362   2.640   3.868   0.851 -0.2700  0.0488 -0.9356
   79SOL    HW3  363   2.540   3.981   0.839 -0.7916 -0.3705 -0.5409
   79SOL    MW4  364   2.565   3.905   0.875  0.0579  0.1442 -0.0469
   80SOL     OW  365   2.500   3.076   1.104  0.5133 -0.3918  0.2446
   80SOL    HW2  366   2.496   2.984   1.128 -0.7788 -0.9057 -1.8089
   80SOL    HW3  367   2.423   3.116   1.144  1.2500 -0.1130  1.4118
   80SOL    MW4  368   2.490   3.069   1.112  0.4401 -0.4227  0.1278
   81SOL     OW  369   1.681   3.960   0.233 -0.5174 -0.0405  0.3216
   81SOL    HW2  370   1.761   3.918   0.264 -0.2901 -1.2476 -1.8031
   81SOL    HW3  371   1.611   3.900   0.261 -0.4245 -0.4309 -0.2619
   81SOL    MW4  372   1.682   3.946   0.241 -0.4753 -0.2513 -0.0357
   82SOL     OW  373   0.568   2.516   0.134  0.0895 -0.2110 -0.0358
   82SOL    HW2  374   0.589   2.609   0.147  0.0978 -0.3127  0.6493
   82SOL    HW3  375   0.604   2.496   0.048  1.6184 -0.0372  0.5510
   82SOL    MW4  376   0.575   2.526   0.124  0.2924 -0.2017  0.1320
   83SOL     OW  377   4.028   4.037   1.196  0.4879 -0.2451 -0.0253
   83SOL    HW2  378   3.952   4.014   1.144 -0.3656 -0.6367  1.3782
   83SOL    HW3  379   4.054   4.124   1.164 -0.8556  0.1111 -0.1573
   83SOL    MW4  380   4.022   4.046   1.185  0.1979 -0.2494  0.1425
   84SOL     OW  381   4.217   2.992   0.607  0.0172  0.7893 -0.2858
   84SOL    HW2  382   4.200   2.898   0.602  1.8602  0.4831 -1.7657
   84SOL    HW3  383   4.186   3.018   0.693 -1.2891 -1.0058 -0.1793
   84SOL    MW4  384   4.211   2.983   0.617  0.0882  0.5119 -0.4670
   85SOL     OW  385   2.685   1.141   0.871  0.5035  0.4993 -0.2253
   85SOL    HW2  386   2.686   1.231   0.838 -1.8926  1.0232  1.0338
   85SOL    HW3  387   2.680   1.150   0.966 -1.5685 -0.9379 -0.1687
   85SOL    MW4  388   2.685   1.154   0.879 -0.0861  0.3788 -0.0517
   86SOL     OW  389   0.502   3.562   0.839 -0.3529 -0.1789  1.0383
   86SOL    HW2  390   0.573   3.517   0.794 -0.0761  0.2081  1.0810
   86SOL    HW3  391   0.481   3.637   0.782 -0.4557 -0.0686  1.2197
   86SOL    MW4  392   0.508   3.566   0.826 -0.3300 -0.1135  1.0679
   87SOL     OW  393   4.483   4.566   0.810  0.4874 -0.4373  0.3216
   87SOL    HW2  394   4.503   4.473   0.819 -1.7528 -0.8981  0.6843
   87SOL    HW3  395   4.480   4.580   0.715  1.5161 -0.5590  0.2601
   87SOL    MW4  396   4.485   4.556   0.799  0.3276 -0.5150  0.3614
   88SOL     OW  397   3.382   1.026   0.817 -0.3239  0.1444 -0.3433
   88SOL    HW2  398   3.398   0.939   0.854  1.3745  0.5420 -0.1257
   88SOL    HW3  399   3.386   1.012   0.722 -0.9860 -0.1854 -0.3243
   88SOL    MW4  400   3.385   1.013   0.809 -0.1874  0.1533 -0.3121
   89SOL     OW  401   4.044   2.708   1.059 -0.2998 -0.1153 -0.5869
   89SOL    HW2  402   3.961   2.750   1.080 -0.1200 -0.3974  0.7848
   89SOL    HW3  403   4.042   2.626   1.108  1.2141  0.3489  0.2954
   89SOL    MW4  404   4.033   2.703   1.068 -0.0758 -0.0911 -0.2896
   90SOL     OW  405   0.524   2.200   0.443  0.2302  0.2282 -0.0311
   90SOL    HW2  406   0.554   2.289   0.462 -1.7007  1.1824 -1.2955
   90SOL    HW3  407   0.479   2.172   0.523 -0.0829  0.8001 -0.0057
   90SOL    MW4  408   0.522   2.208   0.456 -0.0659  0.4296 -0.1945
   91SOL     OW  409   2.208   0.663   0.556 -0.4732 -0.2358 -0.4905
   91SOL    HW2  410   2.152   0.594   0.520 -0.2243 -0.2442 -0.8585
   91SOL    HW3  411   2.297   0.630   0.547 -0.4212 -0.3476  0.3647
   91SOL    MW4  412   2.212   0.650   0.550 -0.4334 -0.2517 -0.4262
   92SOL     OW  413   4.342   1.638   0.322 -0.1953  0.3156  0.1670
   92SOL    HW2  414   4.275   1.615   0.258 -0.2721  0.8364  0.0550
   92SOL    HW3  415   4.372   1.555   0.357 -1.3570  0.1031  0.6814
   92SOL    MW4  416   4.337   1.624   0.318 -0.3586  0.3563  0.2201
   93SOL     OW  417   2.417   1.593   0.292 -0.3086 -0.1830 -0.3101
   93SOL    HW2  418   2.332   1.592   0.247  0.4262 -1.0435 -1.7557
   93SOL    HW3  419   2.412   1.519   0.353 -0.8082  0.1266  0.0278
   93SOL    MW4  420   2.405   1.583   0.294 -0.2775 -0.2558 -0.4563
   94SOL     OW  421   2.934   4.345   0.487  0.5914  0.6156 -0.3653
   94SOL    HW2  422   2.971   4.305   0.408  1.0659 -0.4190  0.3769
   94SOL    HW3  423   2.848   4.379   0.458  1.4364  1.6906 -1.7091
   94SOL    MW4  424   2.927   4.344   0.473  0.7656  0.6213 -0.4447
   95SOL     OW  425   2.115   1.317   0.327 -0.1529  0.2848  0.3727
   95SOL    HW2  426   2.087   1.226   0.321  1.5892 -0.1825 -0.8364
   95SOL    HW3  427   2.189   1.316   0.388 -0.5689  1.0062  0.9015
   95SOL    MW4  428   2.121   1.305   0.334  0.0222  0.3183  0.2830
   96SOL     OW  429   3.778   4.120   0.703  0.0904  0.2821 -0.2410
   96SOL    HW2  430   3.750   4.036   0.740 -1.0531  0.7130 -0.1098
   96SOL    HW3  431   3.864   4.136   0.741  1.1888 -1.7873 -1.7771
   96SOL    MW4  432   3.786   4.111   0.713  0.0844  0.0653 -0.4264
   97SOL     OW  433   3.222   1.645   0.300  0.0986 -0.2462  0.1280
   97SOL    HW2  434   3.200   1.738   0.308 -0.2286 -0.1626 -1.5703
   97SOL    HW3  435   3.177   1.603   0.374  0.9654  1.0408  1.4264
   97SOL    MW4  436   3.213   1.652   0.311  0.1698 -0.0654  0.0752
   98SOL     OW  437   1.121   3.592   1.207  0.2698  0.4028 -0.1001
   98SOL    HW2  438   1.053   3.554   1.151  0.9646 -0.7607 -0.1837
   98SOL    HW3  439   1.203   3.557   1.171  0.7949  0.4981  0.9941
   98SOL    MW4  440   1.123   3.582   1.195  0.4307  0.2618  0.0333
   99SOL     OW  441   0.017   4.594   0.529 -0.1220  0.4783  0.0778
   99SOL    HW2  442  -0.046   4.612   0.460 -0.1052  0.2981  0.0175
   99SOL    HW3  443   0.051   4.680   0.553 -0.4939  0.5918  0.2073
   99SOL    MW4  444   0.013   4.608   0.523 -0.1689  0.4692  0.0869
  100SOL     OW  445   4.396   4.202   0.484  0.3970  0.0942 -0.3728
  100SOL    HW2  446   4.478   4.247   0.464  1.0651 -1.3493 -0.9559
  100SOL    HW3  447   4.409   4.113   0.451 -0.2297 -1.0410  2.3107
  100SOL    MW4  448   4.409   4.196   0.477  0.4020 -0.2456 -0.0956
  101SOL     OW  449   2.678   2.459   1.216 -0.0413 -0.4271  0.4348
  101SOL    HW2  450   2.760   2.411   1.206 -0.3181 -0.9048  0.4384
  101SOL    HW3  451   2.663   2.462   1.311 -0.1469 -0.5431  0.4222
  101SOL    MW4  452   2.687   2.453   1.228 -0.0916 -0.5054  0.4337
  102SOL     OW  453   2.454   3.623   1.217  0.0983 -0.3034  0.0848
  102SOL    HW2  454   2.543   3.589   1.208  0.2593 -0.0362  0.6340
  102SOL    HW3  455   2.438   3.624   1.312  1.0666  3.5336  0.2975
  102SOL    MW4  456   2.464   3.619   1.229  0.2472  0.2379  0.1854
  103SOL     OW  457   3.151   2.443   1.213  0.4653 -0.1346 -0.6621
  103SOL    HW2  458   3.141   2.532   1.179  0.4495  0.1423  0.0575
  103SOL    HW3  459   3.165   2.455   1.307  1.3511 -0.8481 -0.6961
  103SOL    MW4  460   3.152   2.457   1.221  0.5801 -0.1922 -0.5716
  104SOL     OW  461   4.271   2.036   1.199  0.0943  0.0795 -0.4868
  104SOL    HW2  462   4.271   2.126   1.166 -0.2663  0.5467  0.7698
  104SOL    HW3  463   4.197   1.994   1.156 -0.3368  0.6624 -0.3075
  104SOL    MW4  464   4.261   2.043   1.189 -0.0100  0.2182 -0.2973
  105SOL     OW  465   0.216   1.481   0.832  0.3496 -0.5692 -0.1264
  105SOL    HW2  466   0.210   1.573   0.809  0.1526  0.3237  3.1633
  105SOL    HW3  467   0.135   1.442   0.800 -0.5234  0.8666  0.3087
  105SOL    MW4  468   0.204   1.488   0.825  0.2084 -0.2619  0.3650
  106SOL     OW  469   2.333   3.068   0.507  0.1082  0.2998 -0.2791
  106SOL    HW2  470   2.306   3.159   0.501  1.4039  0.6503 -0.9761
  106SOL    HW3  471   2.289   3.035   0.585 -0.2347  1.5559  0.0684
  106SOL    MW4  472   2.323   3.075   0.516  0.2341  0.5114 -0.3253
  107SOL     OW  473   3.336   2.311   0.837 -0.0053 -0.4500  0.4126
  107SOL    HW2  474   3.266   2.248   0.817 -0.0962 -0.3154  0.2993
  107SOL    HW3  475   3.339   2.314   0.933  0.6397 -1.3314  0.4285
  107SOL    MW4  476   3.327   2.303   0.847  0.0679 -0.5481  0.3998
  108SOL     OW  477   0.696   0.980   0.692 -0.1724  0.0124  0.2471
  108SOL    HW2  478   0.743   1.050   0.738 -0.7956  0.1486  0.6770
  108SOL    HW3  479   0.699   0.906   0.753  2.3119 -1.0279 -1.0465
  108SOL    MW4  480   0.703   0.979   0.706  0.0731 -0.1069  0.1332
  109SOL     OW  481   4.079   1.134   0.714  0.4108  0.0078 -0.1167
  109SOL    HW2  482   4.100   1.133   0.807 -0.6400  1.3574  0.1473
  109SOL    HW3  483   4.000   1.080   0.707 -0.3423  1.0870 -0.0083
  109SOL    MW4  484   4.071   1.127   0.725  0.1736  0.3279 -0.0675
  110SOL     OW  485   2.155   1.573   0.182 -0.3652  0.0246 -0.2888
  110SOL    HW2  486   2.078   1.625   0.205  0.1687  1.3676 -1.4730
  110SOL    HW3  487   2.129   1.482   0.201 -1.5416  0.6383  1.1683
  110SOL    MW4  488   2.141   1.568   0.187 -0.4501  0.2825 -0.2528
  111SOL     OW  489   3.578   2.930   0.648  0.3574 -0.2659  0.1343
  111SOL    HW2  490   3.530   2.856   0.686  1.9223 -1.8209 -0.8640
  111SOL    HW3  491   3.645   2.951   0.713 -0.1049  0.2928  0.4300
  111SOL    MW4  492   3.580   2.923   0.662  0.5031 -0.3972  0.0416
  112SOL     OW  493   2.193   2.640   0.870  0.4563 -0.0619  0.0928
  112SOL    HW2  494   2.269   2.646   0.813  0.1257 -0.0289 -0.3443
  112SOL    HW3  495   2.151   2.557   0.846 -0.4769  0.6405 -0.6927
  112SOL    MW4  496   2.197   2.630   0.860  0.2897  0.0350 -0.0685
  113SOL     OW  497   4.426   2.701   0.434  0.0320  0.1211  0.1995
  113SOL    HW2  498   4.519   2.690   0.455  0.1005 -0.2632 -0.3077
  113SOL    HW3  499   4.425   2.739   0.347 -0.2902 -0.1468  0.0864
  113SOL    MW4  500   4.438   2.704   0.426 -0.0014  0.0350  0.1176
  114SOL     OW  501   4.113   2.064   0.134 -0.1790  0.0138  0.2706
  114SOL    HW2  502   4.097   1.970   0.128 -0.2825  0.1047 -0.9470
  114SOL    HW3  503   4.200   2.077   0.096  0.1507  0.3314  1.0998
  114SOL    MW4  504   4.122   2.053   0.128 -0.1493  0.0679  0.2194
  115SOL     OW  505   4.117   4.255   0.391 -0.3301 -0.2584 -0.7804
  115SOL    HW2  506   4.085   4.340   0.424 -0.0415 -0.3992 -0.1305
  115SOL    HW3  507   4.209   4.253   0.417 -0.2392 -0.6104 -1.1349
  115SOL    MW4  508   4.125   4.266   0.399 -0.2804 -0.3233 -0.7414
  116SOL     OW  509   3.117   2.397   0.340 -0.1440 -0.2441  0.1258
  116SOL    HW2  510   3.202   2.402   0.383  0.5116  0.0367 -1.1625
  116SOL    HW3  511   3.082   2.311   0.363  0.3914 -0.2646  0.8425
  116SOL    MW4  512   3.123   2.386   0.349  0.0131 -0.2096  0.0504
  117SOL     OW  513   4.459   3.664   0.449 -0.1061  0.0241  0.0010
  117SOL    HW2  514   4.460   3.665   0.544 -0.7196 -1.8384  0.0378
  117SOL    HW3  515   4.371   3.635   0.425  0.1507  0.1316 -1.1343
  117SOL    MW4  516   4.448   3.660   0.458 -0.1531 -0.2072 -0.1439
  118SOL     OW  517   4.265   0.757   0.848  0.0073  0.0347 -0.3044
  118SOL    HW2  518   4.261   0.752   0.944  1.1480 -0.6695 -0.2855
  118SOL    HW3  519   4.192   0.703   0.818 -0.4840  0.4286  0.1641
  118SOL    MW4  520   4.255   0.749   0.857  0.0930 -0.0063 -0.2400
  119SOL     OW  521   1.661   1.870   0.438  0.5131  0.1280 -0.3501
  119SOL    HW2  522   1.653   1.962   0.412 -0.0359 -0.2169 -1.4563
  119SOL    HW3  523   1.583   1.828   0.401 -0.1592 -0.4609  1.6566
  119SOL    MW4  524   1.650   1.876   0.430  0.3519  0.0048 -0.2313
  120SOL     OW  525   1.185   3.396   0.499  0.2580 -0.0578 -0.5567
  120SOL    HW2  526   1.104   3.403   0.449 -0.4604 -0.9675  0.4712
  120SOL    HW3  527   1.223   3.312   0.474  0.0306 -0.3969  0.2158
  120SOL    MW4  528   1.179   3.386   0.489  0.1332 -0.2224 -0.3192
  121SOL     OW  529   4.096   3.135   0.819  0.5777  0.3456 -0.5370
  121SOL    HW2  530   4.168   3.104   0.874 -0.7343 -0.8779  0.5450
  121SOL    HW3  531   4.103   3.230   0.821  0.5565  0.3334  1.7854
  121SOL    MW4  532   4.106   3.143   0.827  0.4015  0.1826 -0.0879
  122SOL     OW  533   3.399   1.595   1.137  0.5052 -0.3141 -0.4050
  122SOL    HW2  534   3.403   1.508   1.176 -0.6792 -0.3730 -0.4025
  122SOL    HW3  535   3.486   1.633   1.154  0.9247 -1.3706 -0.1457
  122SOL    MW4  536   3.411   1.589   1.145  0.4044 -0.4613 -0.3704
  123SOL     OW  537   4.025   0.354   1.142 -0.2112  0.7159  0.9008
  123SOL    HW2  538   4.110   0.396   1.152 -1.1618  2.6315  1.1911
  123SOL    HW3  539   4.032   0.272   1.191  1.6648  0.5448  0.3706
  123SOL    MW4  540   4.037   0.348   1.150 -0.0892  0.9460  0.8690
  124SOL     OW  541   0.175   0.857   0.491  0.2369 -0.1005 -0.4351
  124SOL    HW2  542   0.100   0.882   0.437  0.3721 -0.7206 -0.9250
  124SOL    HW3  543   0.251   0.876   0.436  0.4398  0.4764  0.0397
  124SOL    MW4  544   0.175   0.863   0.476  0.2815 -0.1062 -0.4371
  125SOL     OW  545   0.895   0.393   0.849 -0.0700  0.2754 -0.1118
  125SOL    HW2  546   0.961   0.329   0.824 -0.8518 -1.0752  1.2161
  125SOL    HW3  547   0.924   0.475   0.808  2.1711 -0.3933  0.0763
  125SOL    MW4  548   0.907   0.395   0.840  0.1225  0.0090  0.0883
  126SOL     OW  549   2.027   1.778   0.742 -0.1490 -0.0958  0.0813
  126SOL    HW2  550   2.021   1.694   0.788 -0.8405 -0.2166 -0.2273
  126SOL    HW3  551   1.954   1.829   0.777 -1.1090 -0.4346 -1.3759
  126SOL    MW4  552   2.016   1.773   0.753 -0.3669 -0.1564 -0.1518
  127SOL     OW  553   4.107   2.357   0.517 -0.3781  0.2335 -0.0395
  127SOL    HW2  554   4.018   2.394   0.519 -0.0578  1.0220 -0.2501
  127SOL    HW3  555   4.099   2.278   0.462 -0.7286  0.9031 -0.9655
  127SOL    MW4  556   4.094   2.351   0.510 -0.3819  0.4256 -0.1894
  128SOL     OW  557   2.697   4.296   0.820 -0.3135 -0.2749 -0.1756
  128SOL    HW2  558   2.627   4.238   0.790 -0.4992 -0.3522  0.3907
  128SOL    HW3  559   2.709   4.273   0.913 -0.2024  0.3996 -0.0181
  128SOL    MW4  560   2.689   4.286   0.829 -0.3235 -0.1965 -0.0801
  129SOL     OW  561   0.020   2.714   0.790 -0.2183  0.1330 -0.1336
  129SOL    HW2  562   0.094   2.657   0.773 -0.6471 -0.4662 -0.0025
  129SOL    HW3  563   0.003   2.704   0.884  0.6282  1.5980  0.1970
  129SOL    MW4  564   0.027   2.705   0.800 -0.1631  0.2472 -0.0727
  130SOL     OW  565   0.230   1.478   0.384 -0.3211 -0.6160  0.3239
  130SOL    HW2  566   0.243   1.544   0.452 -0.4658  0.7034 -0.8852
  130SOL    HW3  567   0.154   1.428   0.412 -0.8876  0.4547  0.7333
  130SOL    MW4  568   0.222   1.480   0.396 -0.4150 -0.3006  0.2184
  131SOL     OW  569   4.004   3.581   0.625 -0.0859  0.8304  0.1747
  131SOL    HW2  570   4.037   3.539   0.704 -0.5393  0.4489  0.1611
  131SOL    HW3  571   3.912   3.556   0.621  0.3344 -0.5609 -1.3831
  131SOL    MW4  572   3.996   3.573   0.635 -0.0901  0.5965 -0.0327
  132SOL     OW  573   2.472   1.321   1.253 -0.8729  0.5561  0.5877
  132SOL    HW2  574   2.393   1.286   1.211 -0.6163 -0.8184  1.2230
  132SOL    HW3  575   2.474   1.413   1.227 -2.8476  0.6808  0.7792
  132SOL    MW4  576   2.462   1.329   1.244 -1.0993  0.3912  0.6969
  133SOL     OW  577   2.657   1.396   0.500 -0.0258 -0.1419  0.3332
  133SOL    HW2  578   2.736   1.344   0.487 -1.3191 -1.6807 -1.6343
  133SOL    HW3  579   2.685   1.486   0.479  0.7109 -0.9673 -2.5131
  133SOL    MW4  580   2.671   1.401   0.496 -0.0994 -0.4538 -0.3019
  134SOL     OW  581   3.560   3.952   1.163  0.1276 -0.2352  0.1021
  134SOL    HW2  582   3.471   3.937   1.132  0.3036  0.7292 -0.8996
  134SOL    HW3  583   3.554   3.944   1.258 -1.0221 -0.2080  0.0365
  134SOL    MW4  584   3.548   3.949   1.171 -0.0010 -0.1044 -0.0389
  135SOL     OW  585   2.931   3.092   0.813 -0.3708  0.5615 -0.3799
  135SOL    HW2  586   2.846   3.054   0.796 -0.4075  0.3239  0.3235
  135SOL    HW3  587   2.932   3.110   0.907  0.9726 -0.9717 -0.0808
  135SOL    MW4  588   2.920   3.090   0.823 -0.1981  0.3278 -0.2476
  136SOL     OW  589   0.411   3.348   0.568  0.4171  0.2156 -0.4196
  136SOL    HW2  590   0.489   3.350   0.624 -0.0776  0.2222  0.2661
  136SOL    HW3  591   0.424   3.421   0.507 -0.2877  1.8561  1.3574
  136SOL    MW4  592   0.423   3.358   0.567  0.2588  0.4327 -0.0947
  137SOL     OW  593   2.558   2.712   0.275 -0.0221 -0.1511 -0.2441
  137SOL    HW2  594   2.484   2.742   0.327  0.3349 -0.5559  0.5064
  137SOL    HW3  595   2.521   2.689   0.190 -0.4470  1.5389 -0.5334
  137SOL    MW4  596   2.543   2.713   0.271 -0.0310  0.0188 -0.1833
  138SOL     OW  597   0.648   3.169   0.162 -0.4744 -0.4921  0.1474
  138SOL    HW2  598   0.666   3.246   0.217  0.5295  0.2155 -1.1337
  138SOL    HW3  599   0.561   3.141   0.188 -2.1805  2.9444 -1.4736
  138SOL    MW4  600   0.639   3.176   0.173 -0.5670  0.0548 -0.2355
  139SOL     OW  601   2.697   0.362   0.886 -0.0402  0.7602 -0.0877
  139SOL    HW2  602   2.695   0.451   0.851 -1.5204  0.8344  0.1870
  139SOL    HW3  603   2.694   0.373   0.981 -1.3454  0.3901 -0.0796
  139SOL    MW4  604   2.697   0.375   0.894 -0.4077  0.7212 -0.0505
  140SOL     OW  605   1.936   4.344   0.365 -0.1292  0.0861 -0.3404
  140SOL    HW2  606   1.893   4.410   0.420  0.8748  0.2337  0.3046
  140SOL    HW3  607   1.872   4.321   0.298 -1.8881 -1.0736  1.6782
  140SOL    MW4  608   1.922   4.350   0.364 -0.2289 -0.0477  0.0110
  141SOL     OW  609   1.973   0.773   0.853  0.0655  0.0409  0.3005
  141SOL    HW2  610   2.053   0.726   0.832  0.3989 -0.4965  2.5933
  141SOL    HW3  611   1.903   0.712   0.829  0.4037 -0.3264  0.2268
  141SOL    MW4  612   1.974   0.759   0.847  0.1541 -0.0784  0.5932
  142SOL     OW  613   0.690   1.522   1.130 -0.8084 -0.6856  0.6370
  142SOL    HW2  614   0.609   1.566   1.155 -0.2323  0.4847  0.4594
  142SOL    HW3  615   0.759   1.585   1.151 -0.0287 -1.2406 -0.2392
  142SOL    MW4  616   0.688   1.536   1.136 -0.6295 -0.6045  0.4978
  143SOL     OW  617   1.999   3.887   1.128 -0.1160 -0.6470  0.1722
  143SOL    HW2  618   1.934   3.940   1.175 -1.7355 -0.9682 -1.6611
  143SOL    HW3  619   2.078   3.893   1.183 -1.0175  1.5522  1.3180
  143SOL    MW4  620   2.001   3.895   1.142 -0.4487 -0.3991  0.0815
  144SOL     OW  621   1.638   1.561   0.856  0.2538  0.2211  0.2673
  144SOL    HW2  622   1.584   1.540   0.781  0.5867 -0.9005  0.3418
  144SOL    HW3  623   1.618   1.653   0.875 -0.8838  0.0968 -0.3083
  144SOL    MW4  624   1.628   1.571   0.849  0.1477  0.0566  0.2012
  145SOL     OW  625   3.152   1.673   1.195  0.1396  0.0101 -0.4386
  145SOL    HW2  626   3.157   1.677   1.290  2.2238 -1.7802 -0.4310
  145SOL    HW3  627   3.239   1.645   1.167 -0.7617 -0.6208 -2.8059
  145SOL    MW4  628   3.164   1.670   1.204  0.2959 -0.3093 -0.7499
  146SOL     OW  629   1.599   1.349   0.410  0.5547  0.3616  0.0993
  146SOL    HW2  630   1.608   1.254   0.421 -1.7301  0.0191 -0.7902
  146SOL    HW3  631   1.689   1.380   0.401  1.2271 -2.1163 -2.6236
  146SOL    MW4  632   1.612   1.340   0.411  0.3419 -0.0107 -0.3773
  147SOL     OW  633   3.911   2.991   0.184 -0.0374 -0.3299  0.2504
  147SOL    HW2  634   3.962   3.042   0.247  1.1883  0.8865 -1.7031
  147SOL    HW3  635   3.827   3.038   0.178  0.4980  0.5663 -0.3402
  147SOL    MW4  636   3.907   3.004   0.192  0.1948 -0.0513 -0.0853
  148SOL     OW  637   4.023   1.414   0.654  0.3964  0.0925 -0.2137
  148SOL    HW2  638   4.018   1.395   0.561  1.0319  0.3443 -0.3039
  148SOL    HW3  639   4.026   1.328   0.696 -1.4025 -0.0482 -0.3164
  148SOL    MW4  640   4.023   1.400   0.648  0.2427  0.1070 -0.2392
  149SOL     OW  641   0.237   2.648   0.441 -0.2307  0.1127 -0.2645
  149SOL    HW2  642   0.331   2.656   0.427 -0.3014  0.8616 -0.3404
  149SOL    HW3  643   0.229   2.612   0.529  0.1242  0.1931 -0.1977
  149SOL    MW4  644   0.248   2.644   0.450 -0.1932  0.2220 -0.2657
  150SOL     OW  645   3.056   1.492   0.502 -0.1310  0.3521  0.4009
  150SOL    HW2  646   3.108   1.474   0.581 -0.4863  0.4051  0.6491
  150SOL    HW3  647   3.005   1.412   0.489  0.3691  0.1144 -0.1232
  150SOL    MW4  648   3.056   1.479   0.511 -0.1118  0.3277  0.3645
  151SOL     OW  649   0.876   0.645   0.460 -0.1318  0.0109  0.0193
  151SOL    HW2  650   0.784   0.672   0.466 -0.1515  0.1564 -0.8216
  151SOL    HW3  651   0.872   0.558   0.420  0.1474  0.4216 -0.9107
  151SOL    MW4  652   0.863   0.637   0.455 -0.0976  0.0842 -0.2144
  152SOL     OW  653   3.599   2.858   0.374  0.1351  0.0455  0.2458
  152SOL    HW2  654   3.683   2.814   0.380 -0.3099 -1.0628 -1.3993
  152SOL    HW3  655   3.582   2.891   0.462  2.2899  0.2889  0.5783
  152SOL    MW4  656   3.608   2.857   0.386  0.3607 -0.0684  0.0726
  153SOL     OW  657   4.007   0.844   0.445  0.1744 -0.5594  0.1203
  153SOL    HW2  658   3.912   0.844   0.436  0.2710 -0.6824 -1.0739
  153SOL    HW3  659   4.031   0.751   0.446  0.2482 -0.5362  0.9232
  153SOL    MW4  660   3.998   0.832   0.444  0.1972 -0.5725  0.0687
  154SOL     OW  661   4.219   3.847   1.126 -0.4014  0.0381 -0.6755
  154SOL    HW2  662   4.209   3.844   1.031 -0.2651  1.5309 -0.7519
  154SOL    HW3  663   4.147   3.903   1.155 -0.1069  0.0375  0.0544
  154SOL    MW4  664   4.208   3.854   1.117 -0.3448  0.2348 -0.5893
  155SOL     OW  665   3.754   0.228   0.797 -0.6609  0.7811  0.0526
  155SOL    HW2  666   3.734   0.241   0.705 -0.2624 -0.8080 -0.2731
  155SOL    HW3  667   3.831   0.283   0.814 -0.6613  0.9758 -0.5841
  155SOL    MW4  668   3.762   0.237   0.787 -0.6087  0.5971 -0.0744
  156SOL     OW  669   4.018   4.220   0.787 -0.4832 -0.6503 -0.6183
  156SOL    HW2  670   4.103   4.204   0.747  0.1410 -0.6540  0.6611
  156SOL    HW3  671   3.997   4.311   0.765  0.9987  0.1360  1.0575
  156SOL    MW4  672   4.026   4.230   0.779 -0.2055 -0.5469 -0.2284
  157SOL     OW  673   0.629   4.024   0.861 -0.1086 -0.2322 -0.1309
  157SOL    HW2  674   0.700   4.089   0.854 -0.0971 -0.2869 -0.5133
  157SOL    HW3  675   0.633   3.995   0.952  1.1202 -1.0906 -0.4525
  157SOL    MW4  676   0.639   4.029   0.872  0.0550 -0.3529 -0.2238
  158SOL     OW  677   3.658   1.412   0.393 -0.2118  0.0187 -0.2840
  158SOL    HW2  678   3.607   1.332   0.382 -2.6535  1.0747  2.4882
  158SOL    HW3  679   3.597   1.482   0.369  0.9491  1.1734  0.0790
  158SOL    MW4  680   3.643   1.411   0.388 -0.3808  0.3104  0.1296
  159SOL     OW  681   1.492   2.648   0.433  0.9598  0.0861 -0.0613
  159SOL    HW2  682   1.548   2.573   0.412  1.2250  0.1409  0.4487
  159SOL    HW3  683   1.554   2.720   0.446  0.8777 -0.1998  2.0369
  159SOL    MW4  684   1.508   2.648   0.432  0.9840  0.0556  0.2828
  160SOL     OW  685   4.233   3.328   0.447  0.4258  0.0707  0.2305
  160SOL    HW2  686   4.327   3.312   0.455  0.4863  1.1124  1.8237
  160SOL    HW3  687   4.202   3.340   0.537 -1.6617 -2.4612 -0.0633
  160SOL    MW4  688   4.241   3.327   0.460  0.1583 -0.1261  0.4019
  161SOL     OW  689   3.745   3.491   0.569  0.0153 -0.4115 -0.2766
  161SOL    HW2  690   3.656   3.495   0.535  0.0350 -0.5271 -0.3403
  161SOL    HW3  691   3.771   3.400   0.557 -0.5874 -0.8550  1.5700
  161SOL    MW4  692   3.737   3.480   0.563 -0.0618 -0.4852 -0.0414
  162SOL     OW  693   0.513   1.085   0.481 -0.1783  0.1629 -0.4798
  162SOL    HW2  694   0.497   1.179   0.470 -1.2224 -0.0960 -1.2126
  162SOL    HW3  695   0.585   1.081   0.545 -0.0633  1.4565 -0.5038
  162SOL    MW4  696   0.521   1.097   0.488 -0.3009  0.2993 -0.5797
  163SOL     OW  697   4.130   2.712   0.468 -0.0232 -0.3447 -0.5517
  163SOL    HW2  698   4.036   2.723   0.480 -0.0851  0.7741 -1.9372
  163SOL    HW3  699   4.150   2.762   0.389  1.4619 -1.8796 -1.1761
  163SOL    MW4  700   4.120   2.720   0.459  0.1645 -0.3996 -0.8169
  164SOL     OW  701   3.827   2.350   0.841 -0.0575  0.2101 -0.2267
  164SOL    HW2  702   3.740   2.310   0.836 -0.2329  0.5513  0.0603
  164SOL    HW3  703   3.850   2.346   0.934 -0.1949  1.0207 -0.1502
  164SOL    MW4  704   3.819   2.344   0.853 -0.0985  0.3622 -0.1787
  165SOL     OW  705   3.412   3.247   0.353  0.3042  0.2659 -0.4357
  165SOL    HW2  706   3.384   3.293   0.274 -2.2473 -0.0432  0.2277
  165SOL    HW3  707   3.428   3.316   0.417  0.0541  0.3973 -0.5159
  165SOL    MW4  708   3.410   3.262   0.351 -0.0656  0.2427 -0.3588
  166SOL     OW  709   3.423   1.577   0.874  0.3386 -0.2585  0.3474
  166SOL    HW2  710   3.500   1.524   0.856 -0.6758 -1.1679 -1.4592
  166SOL    HW3  711   3.417   1.579   0.969  2.7564  0.0968  0.5361
  166SOL    MW4  712   3.432   1.570   0.884  0.5238 -0.3315  0.1339
  167SOL     OW  713   2.510   0.345   0.465 -0.4162 -0.1184  0.1843
  167SOL    HW2  714   2.506   0.438   0.485 -1.7821 -0.2608  0.6450
  167SOL    HW3  715   2.432   0.329   0.412 -1.4061 -1.4482  2.0258
  167SOL    MW4  716   2.499   0.355   0.461 -0.7267 -0.3126  0.4881
  168SOL     OW  717   0.145   4.334   0.477 -0.3416  0.1838  0.2967
  168SOL    HW2  718   0.100   4.414   0.504 -0.6713 -0.0887  0.5552
  168SOL    HW3  719   0.234   4.362   0.458 -0.7194  0.8000 -0.5973
  168SOL    MW4  720   0.150   4.348   0.478 -0.4350  0.2298  0.2128
  169SOL     OW  721   0.098   1.938   0.048 -0.3507 -0.8228  0.0373
  169SOL    HW2  722   0.183   1.961   0.086 -0.9674  1.3702  0.1681
  169SOL    HW3  723   0.079   1.851   0.082  1.4345 -0.9524  0.7370
  169SOL    MW4  724   0.106   1.930   0.058 -0.1965 -0.5506  0.1469
  170SOL     OW  725   3.574   0.390   0.894 -0.2004 -0.1315 -0.0873
  170SOL    HW2  726   3.488   0.364   0.862  0.0346 -1.2211  0.1631
  170SOL    HW3  727   3.635   0.328   0.854  0.6088  1.3224 -1.1734
  170SOL    MW4  728   3.571   0.379   0.884 -0.0629 -0.0835 -0.1975
  171SOL     OW  729   0.398   3.104   0.389 -0.6460 -0.2925 -0.2241
  171SOL    HW2  730   0.414   3.187   0.434  0.6773 -0.4827 -0.3133
  171SOL    HW3  731   0.303   3.094   0.390 -0.7662  0.8012  0.5477
  171SOL    MW4  732   0.387   3.114   0.395 -0.4873 -0.1736 -0.1340
  172SOL     OW  733   2.282   1.412   0.720  0.1148 -0.2681  0.5097
  172SOL    HW2  734   2.345   1.468   0.765  0.4463 -2.1390  2.4383
  172SOL    HW3  735   2.196   1.450   0.741  0.4394  0.8438 -0.1087
  172SOL    MW4  736   2.279   1.424   0.729  0.2017 -0.3682  0.6826
  173SOL     OW  737   2.906   1.067   0.289  0.6017  0.5047 -0.0230
  173SOL    HW2  738   2.824   1.020   0.303 -0.4342  2.0269 -0.7955
  173SOL    HW3  739   2.969   1.024   0.348 -0.8583 -0.3531  0.9490
  173SOL    MW4  740   2.903   1.055   0.299  0.2725  0.5924  0.0033
  174SOL     OW  741   2.265   0.884   0.357 -0.3568 -0.2994  0.3959
  174SOL    HW2  742   2.244   0.799   0.397 -2.0420  0.3871  1.0266
  174SOL    HW3  743   2.344   0.868   0.307 -0.0393 -1.9942  1.3915
  174SOL    MW4  744   2.272   0.871   0.356 -0.5369 -0.4325  0.6105
  175SOL     OW  745   3.987   0.344   0.870 -0.0924 -0.0038  0.0536
  175SOL    HW2  746   4.065   0.296   0.842 -0.4493 -0.4928 -0.1153
  175SOL    HW3  747   3.987   0.337   0.966 -0.3460 -0.6701  0.0088
  175SOL    MW4  748   3.997   0.337   0.879 -0.1731 -0.1562  0.0254
  176SOL     OW  749   2.714   1.656   0.440  0.1467  0.0969  0.7693
  176SOL    HW2  750   2.784   1.713   0.471 -0.2705 -0.0312  2.0075
  176SOL    HW3  751   2.688   1.693   0.356 -0.5367  2.1351  1.8300
  176SOL    MW4  752   2.720   1.668   0.433  0.0014  0.3489  1.0726
  177SOL     OW  753   3.348   2.838   1.221 -0.0380  0.2558 -0.2468
  177SOL    HW2  754   3.274   2.793   1.179  0.7376  1.2375 -2.6942
  177SOL    HW3  755   3.356   2.921   1.173  1.8354  0.7264  0.8638
  177SOL    MW4  756   3.339   2.843   1.209  0.3116  0.4475 -0.4232
  178SOL     OW  757   2.382   1.796   0.487 -0.1095  0.4501 -0.0626
  178SOL    HW2  758   2.380   1.738   0.411  1.5006  0.4093 -0.0780
  178SOL    HW3  759   2.440   1.868   0.462  1.0216  0.0589  1.3996
  178SOL    MW4  760   2.389   1.798   0.474  0.2522  0.3930  0.1283
  179SOL     OW  761   2.479   2.066   1.206 -0.1635  0.2456  0.6830
  179SOL    HW2  762   2.490   2.145   1.153 -1.4284 -1.8333 -2.9256
  179SOL    HW3  763   2.550   2.009   1.178 -0.3959 -0.6074  1.8205
  179SOL    MW4  764   2.490   2.069   1.195 -0.3607 -0.1414  0.3570
  180SOL     OW  765   0.952   3.373   0.349 -0.3069  0.2038 -0.1957
  180SOL    HW2  766   0.859   3.392   0.362 -0.3444 -0.2615  0.1970
  180SOL    HW3  767   0.953   3.283   0.315  0.1063 -0.4225  1.4371
  180SOL    MW4  768   0.940   3.364   0.346 -0.2574  0.0596  0.0716
  181SOL     OW  769   1.148   1.564   0.839 -0.4731  0.4206  0.4301
  181SOL    HW2  770   1.160   1.650   0.799 -1.4424  0.9909  1.3564
  181SOL    HW3  771   1.072   1.527   0.794  0.4365 -0.3104 -0.5454
  181SOL    MW4  772   1.140   1.571   0.828 -0.4810  0.3996  0.4236
  182SOL     OW  773   1.982   0.268   0.740 -0.5712 -0.0338 -0.1879
  182SOL    HW2  774   2.007   0.182   0.773 -0.9870  0.3561  1.1723
  182SOL    HW3  775   1.906   0.293   0.792 -1.1981  0.6466 -1.3925
  182SOL    MW4  776   1.975   0.260   0.751 -0.7088  0.1074 -0.1673
  183SOL     OW  777   1.839   1.162   1.113  0.6710 -0.2515  0.2133
  183SOL    HW2  778   1.830   1.075   1.150 -1.3165  0.2895  1.0700
  183SOL    HW3  779   1.817   1.151   1.020 -0.2141 -0.5630  0.4499
  183SOL    MW4  780   1.835   1.149   1.105  0.2919 -0.2213  0.3575
  184SOL     OW  781   0.213   0.703   0.899 -0.3584  0.5564  0.1052
  184SOL    HW2  782   0.205   0.712   0.993  1.1331  1.7359  0.1288
  184SOL    HW3  783   0.199   0.791   0.864 -0.1397  0.2759 -0.7216
  184SOL    MW4  784   0.210   0.716   0.907 -0.1327  0.6750 -0.0008
  185SOL     OW  785   1.306   3.643   0.498 -0.0582 -0.2241 -0.1209
  185SOL    HW2  786   1.265   3.557   0.499  0.2211 -0.3815 -1.2879
  185SOL    HW3  787   1.322   3.664   0.590  0.7328 -1.8222  0.1140
  185SOL    MW4  788   1.303   3.635   0.510  0.0831 -0.4556 -0.2438
  186SOL     OW  789   2.799   3.735   0.830  0.4923  0.4067 -0.0433
  186SOL    HW2  790   2.858   3.775   0.895  0.3233 -1.1486  1.0933
  186SOL    HW3  791   2.824   3.775   0.747  2.1892  0.8180  0.6529
  186SOL    MW4  792   2.810   3.746   0.828  0.6938  0.2556  0.1985
  187SOL     OW  793   0.933   3.257   1.227  0.2097 -0.8699 -0.1263
  187SOL    HW2  794   0.998   3.210   1.175  0.3917 -0.5202 -0.2172
  187SOL    HW3  795   0.915   3.337   1.177 -1.6389 -1.8066 -1.0110
  187SOL    MW4  796   0.939   3.262   1.214 -0.0103 -0.9475 -0.2550
  188SOL     OW  797   0.939   3.749   0.657  0.3568 -0.0067  0.0652
  188SOL    HW2  798   1.008   3.780   0.715  1.2894  1.2369 -1.6542
  188SOL    HW3  799   0.971   3.770   0.569 -1.6288 -0.6030 -0.8241
  188SOL    MW4  800   0.952   3.756   0.653  0.2179  0.0787 -0.2789
  189SOL     OW  801   1.851   3.446   0.826  0.5728 -0.3336  0.3139
  189SOL    HW2  802   1.861   3.538   0.802  0.7304 -0.3170  0.4399
  189SOL    HW3  803   1.830   3.448   0.920  0.9207 -0.4420  0.3936
  189SOL    MW4  804   1.849   3.459   0.835  0.6397 -0.3457  0.3411
  190SOL     OW  805   2.078   3.359   0.705  0.0407 -0.2309  0.4762
  190SOL    HW2  806   2.055   3.372   0.613 -1.3254 -1.6098  0.5943
  190SOL    HW3  807   2.003   3.394   0.753  0.3513 -0.3173  1.0324
  190SOL    MW4  808   2.065   3.365   0.700 -0.0987 -0.4244  0.5652
  191SOL     OW  809   4.006   1.907   0.821  0.2589  0.1966  0.1643
  191SOL    HW2  810   3.947   1.866   0.758  0.6339  0.9467 -0.6932
  191SOL    HW3  811   4.011   1.999   0.793  0.8317  0.4227  0.9805
  191SOL    MW4  812   3.999   1.914   0.809  0.3839  0.3253  0.1589
  192SOL     OW  813   3.828   3.084   0.749 -0.0522 -0.0536 -0.4986
  192SOL    HW2  814   3.810   3.140   0.674 -1.1167 -2.1771 -1.9121
  192SOL    HW3  815   3.923   3.076   0.752  0.0406  0.8699 -1.0032
  192SOL    MW4  816   3.838   3.090   0.740 -0.1802 -0.2117 -0.7517
  193SOL     OW  817   2.692   4.486   0.467 -0.4402 -0.0948 -0.2504
  193SOL    HW2  818   2.613   4.437   0.444 -0.5925 -0.1826  0.4366
  193SOL    HW3  819   2.690   4.490   0.563  0.0266  0.5022 -0.2654
  193SOL    MW4  820   2.681   4.480   0.477 -0.3989 -0.0281 -0.1618
  194SOL     OW  821   0.008   0.430   0.534 -0.0728  0.2709 -0.0278
  194SOL    HW2  822   0.063   0.481   0.474  0.6908  0.4889  0.8485
  194SOL    HW3  823   0.008   0.481   0.615 -1.1799  0.0231  0.1309
  194SOL    MW4  824   0.015   0.443   0.537 -0.1181  0.2670  0.1087
  195SOL     OW  825   0.058   4.301   0.874 -0.3917  0.8354  0.2265
  195SOL    HW2  826   0.021   4.260   0.953  0.7131  2.5279  1.6776
  195SOL    HW3  827   0.104   4.230   0.830 -1.3376 -0.2225  0.8955
  195SOL    MW4  828   0.059   4.287   0.879 -0.3708  0.9189  0.5062
  196SOL     OW  829   1.781   2.870   0.768  0.3721  0.0257  0.1125
  196SOL    HW2  830   1.725   2.935   0.811 -0.2107  0.0975 -0.7356
  196SOL    HW3  831   1.868   2.884   0.806  0.2023  1.1316  0.1119
  196SOL    MW4  832   1.785   2.880   0.779  0.2726  0.1812  0.0006
  197SOL     OW  833   0.667   1.542   0.845  0.3472 -0.0590  0.1773
  197SOL    HW2  834   0.609   1.471   0.817  0.0257  0.0710  0.5202
  197SOL    HW3  835   0.679   1.529   0.938  1.6139 -0.6218 -0.0628
  197SOL    MW4  836   0.661   1.531   0.853  0.4719 -0.1161  0.1908
  198SOL     OW  837   0.613   4.268   0.540 -0.4067  0.0439 -0.2426
  198SOL    HW2  838   0.620   4.174   0.522  1.6261  0.3295 -1.0597
  198SOL    HW3  839   0.644   4.277   0.630  0.9181  0.1049 -0.6878
  198SOL    MW4  840   0.618   4.257   0.549  0.0363  0.0896 -0.4091
  199SOL     OW  841   3.117   1.964   0.867 -0.3831 -0.0836  0.0896
  199SOL    HW2  842   3.115   1.971   0.963 -0.1183  0.8742  0.0346
  199SOL    HW3  843   3.049   1.900   0.846 -1.5955  0.9423  0.8184
  199SOL    MW4  844   3.108   1.956   0.877 -0.5083  0.1782  0.1785
  200SOL     OW  845   0.433   4.503   0.770  0.4520  0.1936  0.3894
  200SOL    HW2  846   0.442   4.411   0.796  1.9576 -0.0839 -1.0043
  200SOL    HW3  847   0.519   4.541   0.787 -0.1138  1.3012  0.7924
  200SOL    MW4  848   0.446   4.496   0.775  0.5760  0.3028  0.2587
  201SOL     OW  849   2.436   1.081   0.521 -0.4102 -0.3234  0.1550
  201SOL    HW2  850   2.433   1.172   0.492  0.7510 -0.0359  0.9262
  201SOL    HW3  851   2.376   1.035   0.461  0.1367  0.6690 -1.1786
  201SOL    MW4  852   2.427   1.087   0.509 -0.1850 -0.1546  0.0808
  202SOL     OW  853   2.469   2.315   1.072 -0.9855  0.3206 -0.0469
  202SOL    HW2  854   2.389   2.356   1.105 -0.1138 -0.1742  2.8293
  202SOL    HW3  855   2.540   2.361   1.116  0.2951  0.1199 -1.8346
  202SOL    MW4  856   2.468   2.326   1.082 -0.7017  0.2289  0.0968
  203SOL     OW  857   0.430   1.910   0.851  0.1094  0.0124 -0.4757
  203SOL    HW2  858   0.453   1.937   0.940  0.0847  0.1991 -0.5254
  203SOL    HW3  859   0.505   1.858   0.821  0.5032  0.6869 -0.6651
  203SOL    MW4  860   0.443   1.906   0.859  0.1581  0.1260 -0.5072
  204SOL     OW  861   1.823   1.942   0.842 -0.1218 -0.2244 -0.0055
  204SOL    HW2  862   1.800   1.947   0.935 -1.7389 -2.0617 -0.2789
  204SOL    HW3  863   1.815   2.033   0.811  2.5547  0.7952  2.0844
  204SOL    MW4  864   1.819   1.955   0.850  0.0180 -0.3322  0.2341
  205SOL     OW  865   3.374   3.071   1.082 -0.0767  0.0086  0.1896
  205SOL    HW2  866   3.438   3.128   1.125 -1.2473  1.2852  0.2537
  205SOL    HW3  867   3.388   3.085   0.989 -1.3209  1.5018  0.2115
  205SOL    MW4  868   3.385   3.080   1.076 -0.3955  0.3738  0.2009
  206SOL     OW  869   2.708   3.218   1.241 -0.1260 -0.3411  0.1917
  206SOL    HW2  870   2.630   3.181   1.201  0.0941  1.7932 -2.3088
  206SOL    HW3  871   2.781   3.175   1.196  0.1256  1.1433 -0.8300
  206SOL    MW4  872   2.708   3.207   1.230 -0.0639  0.1364 -0.2731
  207SOL     OW  873   0.690   4.614   0.806 -0.3688  0.3114 -0.1148
  207SOL    HW2  874   0.769   4.578   0.766 -0.9783 -0.3925 -0.7078
  207SOL    HW3  875   0.698   4.709   0.795  0.0966  0.2006 -0.7254
  207SOL    MW4  876   0.701   4.622   0.799 -0.3878  0.2041 -0.2736
  208SOL     OW  877   1.147   1.761   0.454 -0.0091 -0.1984 -0.0136
  208SOL    HW2  878   1.136   1.851   0.422 -0.6763 -0.2463  0.0685
  208SOL    HW3  879   1.162   1.771   0.548 -0.4703 -0.1925  0.0606
  208SOL    MW4  880   1.148   1.775   0.462 -0.1580 -0.2041  0.0071
  209SOL     OW  881   1.340   1.163   0.863 -0.0115  0.1676 -0.1709
  209SOL    HW2  882   1.251   1.127   0.857  0.0249 -0.0545  0.5793
  209SOL    HW3  883   1.333   1.250   0.825 -0.7590  0.4874  0.6698
  209SOL    MW4  884   1.327   1.170   0.857 -0.1053  0.1806  0.0390
  210SOL     OW  885   2.771   0.143   0.416 -0.2872 -0.3836  0.3045
  210SOL    HW2  886   2.752   0.051   0.434  0.9834 -0.7884 -0.3094
  210SOL    HW3  887   2.686   0.186   0.412 -0.8696 -1.4684  0.9521
  210SOL    MW4  888   2.757   0.137   0.418 -0.1962 -0.5802  0.3089
  211SOL     OW  889   0.919   2.777   0.292  0.1342 -0.4134 -0.3746
  211SOL    HW2  890   0.974   2.717   0.342  1.3844  1.1716  0.1883
  211SOL    HW3  891   0.981   2.827   0.239 -0.6579  1.9522  0.8577
  211SOL    MW4  892   0.934   2.776   0.292  0.1947  0.1078 -0.1377
  212SOL     OW  893   3.618   1.137   0.909 -0.4589 -0.1311 -0.0992
  212SOL    HW2  894   3.674   1.098   0.842 -0.2156 -0.2423  0.1667
  212SOL    HW3  895   3.529   1.117   0.881 -0.3285 -1.1047  0.1685
  212SOL    MW4  896   3.614   1.129   0.897 -0.4096 -0.2744 -0.0287
  213SOL     OW  897   3.346   0.014   0.849 -0.0889 -0.2895  0.3251
  213SOL    HW2  898   3.342   0.002   0.944 -0.1689  0.2880  0.3979
  213SOL    HW3  899   3.267  -0.028   0.816  0.0005 -0.5968  0.5052
  213SOL    MW4  900   3.335   0.007   0.858 -0.0875 -0.2539  0.3585
  214SOL     OW  901   1.274   2.469   0.422 -0.3702  0.1291  0.0897
  214SOL    HW2  902   1.309   2.386   0.455 -0.1559  0.0578 -0.3140
  214SOL    HW3  903   1.344   2.533   0.438 -0.0798  0.0050 -0.6294
  214SOL    MW4  904   1.288   2.467   0.428 -0.3037  0.1032 -0.0584
  215SOL     OW  905   0.192   3.870   1.072  0.1285  0.4530 -0.5300
  215SOL    HW2  906   0.113   3.902   1.117  0.3880  0.1017  0.1723
  215SOL    HW3  907   0.208   3.784   1.110  0.8052  0.4889 -0.7354
  215SOL    MW4  908   0.184   3.863   1.083  0.2520  0.4115 -0.4643
  216SOL     OW  909   0.463   0.338   0.895  0.2260  0.2588  0.1971
  216SOL    HW2  910   0.477   0.430   0.872 -0.2019 -0.0426 -1.3109
  216SOL    HW3  911   0.547   0.296   0.876  0.4023  0.3222  0.8276
  216SOL    MW4  912   0.476   0.344   0.889  0.1929  0.2274  0.0814
  217SOL     OW  913   2.120   1.877   0.495 -0.2257  0.1665 -0.0581
  217SOL    HW2  914   2.083   1.830   0.569 -0.0461 -0.3895 -0.3148
  217SOL    HW3  915   2.208   1.840   0.484 -0.3353  0.0770 -0.6887
  217SOL    MW4  916   2.127   1.866   0.503 -0.2165  0.0814 -0.1752
  218SOL     OW  917   4.480   1.923   0.839  0.5092 -0.3500 -0.1769
  218SOL    HW2  918   4.397   1.886   0.808  0.7696  0.9113 -2.4693
  218SOL    HW3  919   4.478   2.014   0.810  1.9450  0.1688  1.2737
  218SOL    MW4  920   4.469   1.930   0.831  0.7329 -0.1150 -0.2880
  219SOL     OW  921   3.138   1.949   1.139  0.3111 -0.5606 -0.2380
  219SOL    HW2  922   3.138   1.855   1.158  0.1275 -0.3225  0.9855
  219SOL    HW3  923   3.219   1.982   1.178  0.1037 -0.1161 -0.1726
  219SOL    MW4  924   3.148   1.941   1.147  0.2594 -0.4704 -0.0678
  220SOL     OW  925   0.236   4.618   0.930 -0.0070  0.2827 -0.0954
  220SOL    HW2  926   0.156   4.594   0.883 -0.2733 -0.9012  0.9393
  220SOL    HW3  927   0.307   4.578   0.880 -0.1379  0.5356 -0.4847
  220SOL    MW4  928   0.235   4.610   0.917 -0.0594  0.1597 -0.0103
  221SOL     OW  929   4.456   1.413   0.432 -0.3000 -0.3299 -0.2161
  221SOL    HW2  930   4.412   1.336   0.394 -0.1542 -0.3589 -0.3300
  221SOL    HW3  931   4.441   1.405   0.526 -1.6928  0.3901 -0.3663
  221SOL    MW4  932   4.448   1.401   0.439 -0.4644 -0.2387 -0.2509
  222SOL     OW  933   1.514   2.357   0.869 -0.4034 -0.2847 -0.0925
  222SOL    HW2  934   1.521   2.338   0.962 -2.9896 -1.3386 -0.0556
  222SOL    HW3  935   1.486   2.448   0.864  0.1599 -0.0964  0.1312
  222SOL    MW4  936   1.511   2.366   0.880 -0.6702 -0.3989 -0.0581
  223SOL     OW  937   1.550   0.994   0.747  0.3604 -0.7131 -0.4982
  223SOL    HW2  938   1.629   1.042   0.773  0.1019  1.1576 -2.9433
  223SOL    HW3  939   1.478   1.050   0.776  0.0228 -0.3966 -1.9274
  223SOL    MW4  940   1.551   1.008   0.754  0.2817 -0.4245 -1.0093
  224SOL     OW  941   4.434   2.894   0.232 -0.0017 -0.2793 -0.1075
  224SOL    HW2  942   4.477   2.927   0.153 -1.6602  1.1578 -0.4119
  224SOL    HW3  943   4.460   2.955   0.301 -0.0239 -0.4932  0.0912
  224SOL    MW4  944   4.443   2.906   0.231 -0.2232 -0.1178 -0.1215
  225SOL     OW  945   1.555   3.073   0.818  0.1338 -0.3066 -0.3739
  225SOL    HW2  946   1.573   3.160   0.783 -3.4260  0.8356  0.4766
  225SOL    HW3  947   1.566   3.082   0.913 -0.5556 -0.6594 -0.2531
  225SOL    MW4  948   1.559   3.085   0.826 -0.4270 -0.2024 -0.2457
  226SOL     OW  949   0.652   2.783   0.185 -0.2002  0.3566 -0.0023
  226SOL    HW2  950   0.745   2.777   0.207  0.0754  0.8788 -0.9847
  226SOL    HW3  951   0.639   2.875   0.161 -0.3599 -0.2904 -2.5540
  226SOL    MW4  952   0.662   2.795   0.185 -0.1850  0.3402 -0.4686
  227SOL     OW  953   2.679   3.478   1.183 -0.1091 -0.1681 -0.1241
  227SOL    HW2  954   2.670   3.469   1.088 -0.3653 -1.0872 -0.0104
  227SOL    HW3  955   2.674   3.389   1.217 -0.5478  0.2035  0.8068
  227SOL    MW4  956   2.677   3.465   1.175 -0.2007 -0.2401  0.0137
  228SOL     OW  957   2.627   3.812   0.406 -0.0333 -0.3451  0.4967
  228SOL    HW2  958   2.542   3.854   0.418  0.0765 -0.0005  0.1016
  228SOL    HW3  959   2.685   3.856   0.468  0.2343  0.5461 -0.3731
  228SOL    MW4  960   2.623   3.823   0.416  0.0165 -0.1819  0.3298
  229SOL     OW  961   0.675   1.804   0.788 -0.7476  0.1609 -0.4135
  229SOL    HW2  962   0.668   1.799   0.693 -1.0393  1.3629 -0.4672
  229SOL    HW3  963   0.671   1.713   0.818 -1.0926 -0.1897 -1.5128
  229SOL    MW4  964   0.674   1.792   0.780 -0.8315  0.2732 -0.5656
  230SOL     OW  965   1.554   4.207   0.728 -0.1835  0.0949 -0.3826
  230SOL    HW2  966   1.564   4.217   0.634 -0.5292  0.5138 -0.3775
  230SOL    HW3  967   1.462   4.225   0.745 -0.2999 -0.7454 -0.0569
  230SOL    MW4  968   1.543   4.211   0.718 -0.2443  0.0391 -0.3390
  231SOL     OW  969   2.244   2.420   1.210  0.2516  0.5976 -0.4317
  231SOL    HW2  970   2.250   2.514   1.195  0.4773  0.7372  0.4649
  231SOL    HW3  971   2.231   2.412   1.305  0.3206 -0.2738 -0.4905
  231SOL    MW4  972   2.243   2.431   1.221  0.2904  0.5009 -0.3210
  232SOL     OW  973   1.714   2.820   0.489  0.6404  0.2022  0.0315
  232SOL    HW2  974   1.739   2.850   0.577  0.6166  0.8481 -0.1803
  232SOL    HW3  975   1.671   2.896   0.449 -2.6277 -1.2329  0.7555
  232SOL    MW4  976   1.712   2.834   0.495  0.2060  0.0980  0.0991
  233SOL     OW  977   2.061   3.896   0.860 -0.3383  0.6062  0.2802
  233SOL    HW2  978   2.039   3.898   0.954 -0.4777  1.2132  0.2420
  233SOL    HW3  979   2.155   3.879   0.858 -0.4160  0.1436  0.5166
  233SOL    MW4  980   2.070   3.894   0.872 -0.3667  0.6251  0.3063
  234SOL     OW  981   0.364   4.239   1.113  0.3672 -0.6039 -0.3870
  234SOL    HW2  982   0.301   4.285   1.168  0.8818 -1.4060  0.9082
  234SOL    HW3  983   0.449   4.273   1.141  0.6803 -1.6003 -0.1241
  234SOL    MW4  984   0.367   4.250   1.124  0.4764 -0.8411 -0.1813
  235SOL     OW  985   2.544   2.021   0.367  0.0410  0.5187 -0.1626
  235SOL    HW2  986   2.580   1.953   0.311 -1.2383 -0.1648 -0.1907
  235SOL    HW3  987   2.620   2.071   0.398  0.8487  0.1122 -1.4721
  235SOL    MW4  988   2.559   2.019   0.364 -0.0212  0.3748 -0.3391
  236SOL     OW  989   0.202   4.645   1.207 -0.3477  0.2341 -0.4596
  236SOL    HW2  990   0.207   4.647   1.112  0.9216  1.5191 -0.3780
  236SOL    HW3  991   0.292   4.663   1.236 -0.6113 -0.6756  0.9768
  236SOL    MW4  992   0.215   4.647   1.198 -0.2150  0.2842 -0.2592
  237SOL     OW  993   1.306   1.398   0.723  0.1004  0.4860  0.4436
  237SOL    HW2  994   1.256   1.456   0.780 -1.2633  1.1081 -1.3510
  237SOL    HW3  995   1.373   1.454   0.684 -0.1512  0.4791  0.0001
  237SOL    MW4  996   1.308   1.413   0.725 -0.1128  0.5672  0.1484
  238SOL     OW  997   2.026   0.020   0.842 -0.3922 -0.1184  0.2997
  238SOL    HW2  998   2.004   0.039   0.933  0.4292 -0.6355  0.6077
  238SOL    HW3  999   1.956  -0.037   0.812  0.0638 -1.0705  1.0238
  238SOL    MW4 1000   2.014   0.015   0.850 -0.2236 -0.3122  0.4359
  239SOL     OW 1001   1.093   0.523   1.244  0.0960 -0.0522 -0.2243
  239SOL    HW2 1002   1.018   0.473   1.211  0.0154  0.2313 -0.4700
  239SOL    HW3 1003   1.093   0.507   1.338 -0.1803 -0.1794 -0.2464
  239SOL    MW4 1004   1.083   0.514   1.252  0.0491 -0.0315 -0.2596
  240SOL     OW 1005   2.885   1.255   0.525  0.2574  0.5612  0.5482
  240SOL    HW2 1006   2.893   1.192   0.597 -1.3387  0.9178  1.0611
  240SOL    HW3 1007   2.917   1.207   0.449  2.2215  0.2748  1.5220
  240SOL    MW4 1008   2.890   1.240   0.525  0.3059  0.5704  0.7444
  241SOL     OW 1009   3.614   1.974   0.843 -0.2803  0.1403  0.3689
  241SOL    HW2 1010   3.678   1.922   0.795  0.9008  0.6394  1.3820
  241SOL    HW3 1011   3.530   1.931   0.825  0.3241 -0.5200 -0.9563
  241SOL    MW4 1012   3.611   1.961   0.834 -0.0451  0.1190  0.3277
  242SOL     OW 1013   4.437   2.370   0.103 -0.3622 -0.3105 -0.0288
  242SOL    HW2 1014   4.369   2.432   0.128  0.9399  1.2290 -0.2922
  242SOL    HW3 1015   4.509   2.387   0.163  0.2274 -1.1704 -0.4860
  242SOL    MW4 1016   4.437   2.380   0.114 -0.1130 -0.2208 -0.1239
  243SOL     OW 1017   3.135   4.538   0.474  0.3783  0.3675 -0.4805
  243SOL    HW2 1018   3.062   4.476   0.480 -0.6546  1.5402 -0.6362
  243SOL    HW3 1019   3.212   4.483   0.459 -0.6037 -0.8346 -1.2609
  243SOL    MW4 1020   3.135   4.522   0.473  0.1123  0.3633 -0.6040
  244SOL     OW 1021   3.361   4.182   0.698 -0.3601  0.1024  0.4338
  244SOL    HW2 1022   3.429   4.215   0.756 -0.7510 -0.5447  1.2650
  244SOL    HW3 1023   3.279   4.199   0.744 -0.5993 -1.5011  0.6413
  244SOL    MW4 1024   3.359   4.189   0.711 -0.4432 -0.1945  0.5708
  245SOL     OW 1025   1.131   3.365   0.786  0.6858 -0.2943 -0.3304
  245SOL    HW2 1026   1.105   3.274   0.801 -2.2904  0.3048 -1.4169
  245SOL    HW3 1027   1.146   3.371   0.692 -0.4874  0.6295 -0.4795
  245SOL    MW4 1028   1.129   3.354   0.776  0.1384 -0.0935 -0.4934
  246SOL     OW 1029   2.277   3.332   0.431 -0.1561  0.2557  0.1706
  246SOL    HW2 1030   2.308   3.303   0.345 -1.7303  1.2083 -0.7430
  246SOL    HW3 1031   2.334   3.407   0.453 -1.0217  1.2624 -0.9600
  246SOL    MW4 1032   2.289   3.338   0.423 -0.4780  0.5143 -0.0992
  247SOL     OW 1033   0.223   0.459   1.286  0.1865  0.2866 -0.1755
  247SOL    HW2 1034   0.148   0.424   1.237 -0.3930  1.1880  0.0491
  247SOL    HW3 1035   0.231   0.550   1.256  0.3325  0.6074  0.8136
  247SOL    MW4 1036   0.214   0.467   1.276  0.1293  0.4478 -0.0155
  248SOL     OW 1037   3.837   2.526   0.239  0.5519  0.1405  0.3060
  248SOL    HW2 1038   3.831   2.502   0.332  0.3730  0.7779  0.4598
  248SOL    HW3 1039   3.891   2.457   0.200  0.6677 -0.1034  0.8946
  248SOL    MW4 1040   3.843   2.514   0.246  0.5436  0.1926  0.4040
  249SOL     OW 1041   0.475   0.621   0.816  0.0257  0.2670  0.4027
  249SOL    HW2 1042   0.395   0.662   0.849 -1.3784 -2.6800  0.8426
  249SOL    HW3 1043   0.451   0.589   0.730  0.4566 -1.3728  0.8827
  249SOL    MW4 1044   0.461   0.622   0.809 -0.1027 -0.3381  0.5240
  250SOL     OW 1045   0.461   1.086   0.842  0.7527 -0.4528  0.6493
  250SOL    HW2 1046   0.532   1.059   0.783 -0.6123 -1.4752 -0.5711
  250SOL    HW3 1047   0.382   1.049   0.802 -0.5305  1.0721  1.7355
  250SOL    MW4 1048   0.460   1.078   0.829  0.4033 -0.3865  0.6317
  251SOL     OW 1049   1.695   3.350   0.457  0.3730  0.1877 -0.2527
  251SOL    HW2 1050   1.789   3.364   0.448  0.2567  0.3733 -1.2294
  251SOL    HW3 1051   1.657   3.395   0.381 -0.5406  0.5690  0.4256
  251SOL    MW4 1052   1.702   3.358   0.446  0.2371  0.2625 -0.2921
  252SOL     OW 1053   1.099   2.554   0.718 -0.2614 -0.3412  0.1647
  252SOL    HW2 1054   1.027   2.602   0.759  1.4887  1.8674  0.7537
  252SOL    HW3 1055   1.090   2.465   0.752 -0.3731  0.8225  3.4102
  252SOL    MW4 1056   1.088   2.548   0.728 -0.0453  0.1037  0.6706
  253SOL     OW 1057   2.698   2.525   0.454 -0.4379 -0.8563  0.0927
  253SOL    HW2 1058   2.790   2.545   0.436 -0.2143 -1.6242  0.3389
  253SOL    HW3 1059   2.649   2.596   0.412  0.2347 -0.7850 -0.5948
  253SOL    MW4 1060   2.704   2.537   0.446 -0.3197 -0.9482  0.0345
  254SOL     OW 1061   1.330   2.685   1.142  0.0959 -0.2550 -0.4764
  254SOL    HW2 1062   1.410   2.712   1.188  0.4559 -0.0173 -1.2445
  254SOL    HW3 1063   1.264   2.748   1.170  0.3055 -0.1291 -0.2560
  254SOL    MW4 1064   1.332   2.697   1.152  0.1711 -0.2067 -0.5487
  255SOL     OW 1065   2.668   1.163   1.150  0.3994  0.2598 -0.0857
  255SOL    HW2 1066   2.747   1.210   1.177 -0.0679  0.8385  0.2891
  255SOL    HW3 1067   2.597   1.225   1.164 -0.1032 -0.1868 -0.6158
  255SOL    MW4 1068   2.669   1.177   1.155  0.2716  0.2772 -0.1061
  256SOL     OW 1069   3.409   4.201   0.279 -0.1510  0.4596  0.0303
  256SOL    HW2 1070   3.475   4.224   0.213 -0.5074 -0.0271 -0.5017
  256SOL    HW3 1071   3.454   4.144   0.341  0.1701  0.8701  0.1719
  256SOL    MW4 1072   3.423   4.197   0.278 -0.1559  0.4497 -0.0213
  257SOL     OW 1073   2.903   3.356   0.763  0.7240 -0.0372 -0.0987
  257SOL    HW2 1074   2.913   3.262   0.780  1.1615  0.0671  0.2454
  257SOL    HW3 1075   2.829   3.383   0.818  1.1190 -0.0205  0.4320
  257SOL    MW4 1076   2.895   3.347   0.772  0.8340 -0.0210  0.0167
  258SOL     OW 1077   0.435   3.768   0.648  0.6860 -0.1319  0.2047
  258SOL    HW2 1078   0.371   3.829   0.686 -1.0376 -0.2430 -2.3740
  258SOL    HW3 1079   0.514   3.821   0.637 -0.3692  1.3101 -0.7379
  258SOL    MW4 1080   0.437   3.783   0.652  0.3194  0.0434 -0.2598
  259SOL     OW 1081   2.025   1.510   1.093 -0.2850 -0.3703 -0.4106
  259SOL    HW2 1082   2.084   1.560   1.150  0.2690  0.2595 -1.5158
  259SOL    HW3 1083   2.018   1.425   1.134  0.1250  0.0759  0.5900
  259SOL    MW4 1084   2.032   1.506   1.106 -0.1578 -0.2283 -0.4243
  260SOL     OW 1085   0.872   1.162   0.838  0.0170 -0.3051  0.0368
  260SOL    HW2 1086   0.872   1.250   0.801 -1.0140 -0.3870 -0.1574
  260SOL    HW3 1087   0.962   1.131   0.825  0.3391  0.6417 -0.0594
  260SOL    MW4 1088   0.884   1.170   0.832 -0.0766 -0.1910 -0.0015
  261SOL     OW 1089   3.112   0.360   0.905  0.1560 -0.2835 -0.1140
  261SOL    HW2 1090   3.134   0.350   0.997  0.5271 -1.8094 -0.3571
  261SOL    HW3 1091   3.187   0.326   0.857 -0.3538 -0.2346 -0.9769
  261SOL    MW4 1092   3.125   0.354   0.911  0.1378 -0.4784 -0.2599
  262SOL     OW 1093   3.598   0.360   1.176 -0.5918  0.0841 -0.0325
  262SOL    HW2 1094   3.674   0.417   1.185 -0.7895  0.2264  0.7934
  262SOL    HW3 1095   3.585   0.351   1.082 -1.5999  2.7809 -0.1993
  262SOL    MW4 1096   3.606   0.366   1.165 -0.7513  0.4587  0.0545
  263SOL     OW 1097   0.029   3.327   0.444  0.0343 -0.5454  0.0519
  263SOL    HW2 1098   0.057   3.402   0.391 -2.6364  0.3069 -0.2174
  263SOL    HW3 1099   0.073   3.340   0.529 -0.4411  1.3488  0.0245
  263SOL    MW4 1100   0.039   3.338   0.448 -0.3808 -0.1831  0.0128
  264SOL     OW 1101   0.867   2.152   0.726 -0.1569  0.5982 -0.2154
  264SOL    HW2 1102   0.884   2.064   0.760  0.3509  1.2995  1.4104
  264SOL    HW3 1103   0.946   2.202   0.749  0.1446  1.1429 -2.3379
  264SOL    MW4 1104   0.880   2.147   0.734 -0.0501  0.7627 -0.2809
  265SOL     OW 1105   2.278   1.168   1.114  0.1632 -0.6497 -0.3688
  265SOL    HW2 1106   2.263   1.077   1.141  0.2780 -0.7066 -0.4976
  265SOL    HW3 1107   2.239   1.175   1.027  0.9116 -0.8117 -0.7257
  265SOL    MW4 1108   2.271   1.157   1.106  0.2770 -0.6787 -0.4328
  266SOL     OW 1109   4.473   0.560   0.803 -0.4935 -0.5886  0.0117
  266SOL    HW2 1110   4.408   0.630   0.803 -0.5251 -0.6195 -0.4972
  266SOL    HW3 1111   4.554   0.601   0.833 -0.7950 -0.5938  0.8439
  266SOL    MW4 1112   4.475   0.574   0.807 -0.5375 -0.5933  0.0544
  267SOL     OW 1113   0.408   4.462   0.483  0.0918  0.0967  0.0461
  267SOL    HW2 1114   0.482   4.401   0.487 -0.2959 -0.4031 -0.4692
  267SOL    HW3 1115   0.399   4.494   0.572  0.0065 -0.9348  0.4103
  267SOL    MW4 1116   0.417   4.458   0.495  0.0294 -0.1049  0.0261
  268SOL     OW 1117   2.932   1.271   1.231  0.0233  0.4957  0.8135
  268SOL    HW2 1118   3.010   1.242   1.183 -0.4331 -0.6312  0.7292
  268SOL    HW3 1119   2.956   1.260   1.323 -0.2601 -0.4939  0.7790
  268SOL    MW4 1120   2.946   1.266   1.236 -0.0741  0.2165  0.7979
  269SOL     OW 1121   2.696   2.128   0.721 -0.0517  0.1947 -0.3272
  269SOL    HW2 1122   2.758   2.178   0.774  1.9130 -0.3233 -2.0946
  269SOL    HW3 1123   2.693   2.042   0.762 -1.2442  0.8615  1.0156
  269SOL    MW4 1124   2.704   2.123   0.733  0.0501  0.2141 -0.3832
  270SOL     OW 1125   2.466   0.001   0.823 -0.0067  0.3023  0.2622
  270SOL    HW2 1126   2.446   0.086   0.784  1.7533  0.6876  0.1516
  270SOL    HW3 1127   2.396  -0.057   0.793  0.1109  1.1266 -1.6756
  270SOL    MW4 1128   2.454   0.004   0.814  0.2410  0.4616 -0.0080
  271SOL     OW 1129   2.458   1.823   0.745 -0.1735  0.6086  0.2050
  271SOL    HW2 1130   2.377   1.852   0.787 -0.1583  1.2176 -0.1860
  271SOL    HW3 1131   2.431   1.798   0.656 -0.0259  0.2895  0.2479
  271SOL    MW4 1132   2.444   1.824   0.739 -0.1521  0.6468  0.1591
  272SOL     OW 1133   1.306   3.112   0.439 -0.1742  0.3504 -0.1149
  272SOL    HW2 1134   1.296   3.078   0.527  0.7787  2.4716  0.8466
  272SOL    HW3 1135   1.400   3.111   0.422 -0.3311  0.1351 -1.0446
  272SOL    MW4 1136   1.317   3.108   0.448 -0.0693  0.6020 -0.1107
  273SOL     OW 1137   0.626   4.607   1.083  0.1321  0.0739  0.4911
  273SOL    HW2 1138   0.619   4.624   0.989  0.6219  1.8661  0.7468
  273SOL    HW3 1139   0.715   4.635   1.106  0.1819 -0.7979  1.4067
  273SOL    MW4 1140   0.637   4.613   1.074  0.2033  0.1955  0.6456
  274SOL     OW 1141   4.027   2.190   0.728 -0.3428 -0.0429 -0.1935
  274SOL    HW2 1142   4.044   2.228   0.642  0.1580  0.6054  0.1840
  274SOL    HW3 1143   3.949   2.237   0.760 -0.8821 -0.6925 -0.5302
  274SOL    MW4 1144   4.019   2.201   0.721 -0.3481 -0.0429 -0.1881
  275SOL     OW 1145   3.451   2.650   0.259 -0.4842  0.1221 -0.0961
  275SOL    HW2 1146   3.500   2.722   0.299  0.2336  0.7711 -2.1093
  275SOL    HW3 1147   3.501   2.627   0.181  0.1575 -3.6010  1.2848
  275SOL    MW4 1148   3.464   2.656   0.254 -0.3049 -0.2835 -0.1796
  276SOL     OW 1149   2.310   3.815   0.798 -0.7552 -0.3010  0.4207
  276SOL    HW2 1150   2.388   3.842   0.847  0.2786 -1.6607 -0.4189
  276SOL    HW3 1151   2.282   3.734   0.842 -1.1053 -0.3538  0.0993
  276SOL    MW4 1152   2.316   3.808   0.811 -0.6649 -0.4871  0.2676
  277SOL     OW 1153   3.844   0.757   0.850 -0.1662  0.0130  0.0051
  277SOL    HW2 1154   3.764   0.713   0.821  0.1058 -1.2917  1.1613
  277SOL    HW3 1155   3.835   0.762   0.945  0.7226  0.6811  0.0549
  277SOL    MW4 1156   3.832   0.751   0.858 -0.0134 -0.0710  0.1642
  278SOL     OW 1157   3.062   0.954   0.511 -0.1611 -0.0296  0.1380
  278SOL    HW2 1158   3.025   0.983   0.594  1.3551  1.5984  0.2745
  278SOL    HW3 1159   3.062   0.859   0.516  0.6091  0.0763  2.2946
  278SOL    MW4 1160   3.057   0.946   0.523  0.1407  0.1992  0.4406
  279SOL     OW 1161   1.599   3.903   1.090 -0.4466  0.0094  0.2175
  279SOL    HW2 1162   1.612   3.909   0.996  0.3259 -0.2638  0.3044
  279SOL    HW3 1163   1.655   3.971   1.127 -0.6034 -0.0045  0.4868
  279SOL    MW4 1164   1.608   3.913   1.083 -0.3654 -0.0286  0.2646
  280SOL     OW 1165   1.584   3.082   0.464  0.4959 -1.2617  0.3076
  280SOL    HW2 1166   1.644   3.156   0.467 -0.3018 -0.6200  0.5780
  280SOL    HW3 1167   1.582   3.050   0.554 -0.6570 -0.3987  0.5941
  280SOL    MW4 1168   1.592   3.087   0.476  0.2385 -1.0631  0.3811
  281SOL     OW 1169   4.155   3.818   0.243 -0.3260  0.1547  0.5685
  281SOL    HW2 1170   4.170   3.795   0.152  0.7779  1.2388  0.4575
  281SOL    HW3 1171   4.152   3.734   0.289 -2.3347 -0.4566 -0.6547
  281SOL    MW4 1172   4.157   3.804   0.237 -0.4454  0.2172  0.3925
  282SOL     OW 1173   4.136   3.418   0.813 -0.1790  0.3853 -0.5303
  282SOL    HW2 1174   4.099   3.436   0.899  0.2159  0.2903 -0.3388
  282SOL    HW3 1175   4.231   3.429   0.824 -0.0495 -0.4411 -0.7383
  282SOL    MW4 1176   4.144   3.422   0.826 -0.1092  0.2637 -0.5325
  283SOL     OW 1177   1.310   0.393   1.149 -0.2062 -0.2561 -0.0238
  283SOL    HW2 1178   1.293   0.304   1.179  1.8405 -0.4551  0.6147
  283SOL    HW3 1179   1.233   0.443   1.176 -0.3606 -1.3708  1.6244
  283SOL    MW4 1180   1.297   0.388   1.156  0.0434 -0.4294  0.2780
  284SOL     OW 1181   2.958   2.608   0.432 -0.3610 -0.3952 -0.2148
  284SOL    HW2 1182   2.976   2.702   0.430 -3.4563  0.2062 -1.7251
  284SOL    HW3 1183   3.015   2.571   0.364  0.3944  0.4600 -0.0548
  284SOL    MW4 1184   2.968   2.615   0.423 -0.6697 -0.2031 -0.3930
  285SOL     OW 1185   4.041   2.473   1.209 -0.4343  0.2371 -0.4100
  285SOL    HW2 1186   3.961   2.435   1.173 -0.9033  1.6483 -0.8606
  285SOL    HW3 1187   4.030   2.470   1.304 -2.0561  2.6570 -0.5123
  285SOL    MW4 1188   4.029   2.467   1.216 -0.7105  0.7427 -0.4830
  286SOL     OW 1189   3.639   1.423   0.838  0.0442 -0.4374 -0.2048
  286SOL    HW2 1190   3.643   1.328   0.836  0.9759 -0.4304  0.9564
  286SOL    HW3 1191   3.671   1.450   0.751  2.3367 -1.1314  0.3827
  286SOL    MW4 1192   3.644   1.414   0.826  0.4694 -0.5280  0.0259
  287SOL     OW 1193   2.216   1.920   0.868  0.2661  0.1000 -0.0764
  287SOL    HW2 1194   2.146   1.867   0.829 -0.7520 -0.1798  2.0831
  287SOL    HW3 1195   2.200   2.008   0.833 -1.4319  0.1299  0.7110
  287SOL    MW4 1196   2.204   1.925   0.858 -0.0920  0.0671  0.3124
  288SOL     OW 1197   0.646   2.263   0.836 -0.4250  0.1907  0.0562
  288SOL    HW2 1198   0.725   2.224   0.798 -0.5700  0.9139 -0.9987
  288SOL    HW3 1199   0.574   2.216   0.794 -0.5726 -0.4184  0.9643
  288SOL    MW4 1200   0.647   2.252   0.826 -0.4636  0.2058  0.0368
  289SOL     OW 1201   3.598   1.990   0.388 -0.1127  0.6509  0.2360
  289SOL    HW2 1202   3.540   1.941   0.446 -0.3977 -0.3942 -0.9260
  289SOL    HW3 1203   3.686   1.958   0.409 -0.1573  0.6941  0.4910
  289SOL    MW4 1204   3.602   1.979   0.399 -0.1559  0.5187  0.1163
  290SOL     OW 1205   1.126   3.855   1.105  0.2238  0.0502  0.6003
  290SOL    HW2 1206   1.136   3.762   1.125  0.1500 -0.1627 -0.3247
  290SOL    HW3 1207   1.044   3.880   1.147  0.1218 -0.3643  0.6522
  290SOL    MW4 1208   1.117   3.846   1.113  0.2006 -0.0324  0.4852
  291SOL     OW 1209   3.063   3.311   0.465 -0.3482  0.0043 -0.0848
  291SOL    HW2 1210   2.969   3.320   0.449 -0.3009 -1.4605 -1.3620
  291SOL    HW3 1211   3.099   3.397   0.444 -1.3806  0.5585  0.3435
  291SOL    MW4 1212   3.055   3.324   0.460 -0.4780 -0.1156 -0.1968
  292SOL     OW 1213   4.162   2.815   0.217 -0.2577 -0.6740  0.1976
  292SOL    HW2 1214   4.243   2.864   0.201  0.1896 -1.2625  0.6249
  292SOL    HW3 1215   4.092   2.876   0.194  0.2520  0.6817  2.1684
  292SOL    MW4 1216   4.163   2.829   0.212 -0.1321 -0.5724  0.5140
  293SOL     OW 1217   3.991   3.990   0.390 -0.4470  0.1617  0.2713
  293SOL    HW2 1218   4.045   3.931   0.337 -1.0760 -0.4631  0.3205
  293SOL    HW3 1219   4.034   4.075   0.382  0.7682 -0.4152  0.6294
  293SOL    MW4 1220   4.004   3.993   0.382 -0.3695  0.0031  0.3250
  294SOL     OW 1221   4.430   0.313   0.893  0.4199  0.0596  0.0201
  294SOL    HW2 1222   4.430   0.401   0.856  1.6698 -0.5228 -1.4306
  294SOL    HW3 1223   4.513   0.275   0.865  0.7070 -0.9678  2.1409
  294SOL    MW4 1224   4.441   0.320   0.885  0.6227 -0.1528  0.1085
  295SOL     OW 1225   0.391   2.293   0.215 -0.6183 -0.0171  0.0262
  295SOL    HW2 1226   0.430   2.267   0.298  0.1812 -1.2755 -0.7195
  295SOL    HW3 1227   0.447   2.363   0.182 -0.2983 -0.2710  0.0318
  295SOL    MW4 1228   0.403   2.299   0.222 -0.4705 -0.2162 -0.0714
  296SOL     OW 1229   1.332   1.171   1.135  0.3220 -0.4307 -0.0426
  296SOL    HW2 1230   1.343   1.191   1.042  0.0515  1.1640  0.2521
  296SOL    HW3 1231   1.415   1.197   1.175 -0.5862  1.6000  0.5771
  296SOL    MW4 1232   1.344   1.177   1.128  0.1665  0.0476  0.0782
  297SOL     OW 1233   0.509   2.693   0.408  0.3006 -0.1719 -0.0074
  297SOL    HW2 1234   0.558   2.715   0.329  1.8889 -0.7757  0.7899
  297SOL    HW3 1235   0.512   2.773   0.461 -1.2355  0.4173 -0.7579
  297SOL    MW4 1236   0.516   2.707   0.405  0.3075 -0.1738 -0.0013
  298SOL     OW 1237   3.180   1.182   1.144  0.5420 -0.1728  0.2881
  298SOL    HW2 1238   3.255   1.234   1.172  0.5216 -0.3435  0.6651
  298SOL    HW3 1239   3.197   1.095   1.181  0.2949 -0.2843  0.1383
  298SOL    MW4 1240   3.193   1.177   1.152  0.5069 -0.2099  0.3182
  299SOL     OW 1241   3.745   4.134   0.415  0.5411  0.0041 -0.1493
  299SOL    HW2 1242   3.771   4.157   0.505 -2.0648 -2.0073  1.1912
  299SOL    HW3 1243   3.816   4.077   0.384  1.0730  0.0545  0.9333
  299SOL    MW4 1244   3.758   4.130   0.423  0.2677 -0.2551  0.1704
  300SOL     OW 1245   1.993   2.785   1.245 -0.0453 -0.0309  0.1479
  300SOL    HW2 1246   2.005   2.871   1.205  0.9089 -0.4933 -0.5947
  300SOL    HW3 1247   1.931   2.739   1.188  1.5177 -0.7845 -0.9798
  300SOL    MW4 1248   1.987   2.790   1.232  0.2869 -0.1915 -0.0988
  301SOL     OW 1249   1.351   3.236   1.213  0.4863  0.2440 -0.3651
  301SOL    HW2 1250   1.362   3.327   1.189 -0.4917  1.0740  2.1720
  301SOL    HW3 1251   1.360   3.235   1.308  0.2009 -2.2523 -0.3311
  301SOL    MW4 1252   1.353   3.248   1.222  0.3196  0.0241 -0.0257
  302SOL     OW 1253   0.899   3.510   0.801 -0.3449 -0.0293 -0.2549
  302SOL    HW2 1254   0.977   3.455   0.798 -0.2477  0.0129  1.0690
  302SOL    HW3 1255   0.927   3.595   0.766  0.1305 -0.0976 -0.0364
  302SOL    MW4 1256   0.913   3.514   0.796 -0.2694 -0.0327 -0.0514
  303SOL     OW 1257   1.123   2.056   1.222  0.2719 -0.3283  0.1473
  303SOL    HW2 1258   1.101   2.056   1.315  1.1819  0.4727  0.3649
  303SOL    HW3 1259   1.122   2.148   1.197 -0.4820 -0.5670 -0.7724
  303SOL    MW4 1260   1.120   2.068   1.231  0.2925 -0.2539  0.0546
  304SOL     OW 1261   4.424   2.280   0.478 -0.0451  0.1177 -0.2244
  304SOL    HW2 1262   4.498   2.331   0.447  1.1083 -0.8742  0.8433
  304SOL    HW3 1263   4.422   2.203   0.421 -0.4632  0.2945 -0.4551
  304SOL    MW4 1264   4.433   2.276   0.466  0.0520  0.0103 -0.1140
  305SOL     OW 1265   3.346   2.286   1.123 -0.6273 -0.0136 -0.2269
  305SOL    HW2 1266   3.269   2.332   1.154 -1.5792 -0.7376 -1.4922
  305SOL    HW3 1267   3.418   2.349   1.134 -1.7012  1.3183 -0.7845
  305SOL    MW4 1268   3.346   2.300   1.129 -0.8948  0.0665 -0.4674
  306SOL     OW 1269   3.402   1.864   0.537 -0.1327 -0.1952 -0.2526
  306SOL    HW2 1270   3.379   1.847   0.628  0.4578  0.3360 -0.0048
  306SOL    HW3 1271   3.317   1.870   0.491 -0.4629  0.8253  0.4844
  306SOL    MW4 1272   3.388   1.862   0.543 -0.0987  0.0097 -0.1227
  307SOL     OW 1273   3.003   2.868   0.285 -0.2001  0.6723  0.0716
  307SOL    HW2 1274   3.064   2.802   0.252 -0.1769  0.1173  1.2159
  307SOL    HW3 1275   3.058   2.943   0.306  0.1686  0.0211  1.5101
  307SOL    MW4 1276   3.019   2.869   0.283 -0.1483  0.5133  0.4123
  308SOL     OW 1277   1.879   0.153   0.494 -0.3446 -0.5582  0.6152
  308SOL    HW2 1278   1.924   0.199   0.565  1.2789 -0.3348 -0.5156
  308SOL    HW3 1279   1.814   0.215   0.462 -0.7317 -0.4721  1.5673
  308SOL    MW4 1280   1.877   0.167   0.499 -0.1814 -0.5174  0.5917
  309SOL     OW 1281   3.795   4.321   1.178 -0.1442 -0.0617  0.3511
  309SOL    HW2 1282   3.713   4.277   1.156  0.0593  0.3273 -1.2856
  309SOL    HW3 1283   3.799   4.319   1.274 -1.8753 -0.4114  0.4303
  309SOL    MW4 1284   3.785   4.315   1.188 -0.3459 -0.0563  0.1457
  310SOL     OW 1285   3.149   1.172   0.852  0.0418 -0.5331 -0.1642
  310SOL    HW2 1286   3.228   1.118   0.842 -0.6733 -1.5472 -0.4392
  310SOL    HW3 1287   3.147   1.195   0.944 -0.1215 -1.7361  0.1404
  310SOL    MW4 1288   3.159   1.168   0.863 -0.0741 -0.8256 -0.1603
  311SOL     OW 1289   1.345   1.907   1.140  0.4745  0.1391  0.3846
  311SOL    HW2 1290   1.259   1.942   1.162  0.0081 -0.5467 -0.3056
  311SOL    HW3 1291   1.352   1.919   1.045 -0.0465 -2.3701  0.0019
  311SOL    MW4 1292   1.335   1.913   1.130  0.3442 -0.2825  0.2431
  312SOL     OW 1293   2.714   0.629   0.824  0.0876  0.2723 -0.2837
  312SOL    HW2 1294   2.789   0.674   0.864  0.2022  0.1621 -0.3754
  312SOL    HW3 1295   2.638   0.665   0.870  0.1031  1.2906 -1.0454
  312SOL    MW4 1296   2.714   0.640   0.836  0.1051  0.3921 -0.3963
  313SOL     OW 1297   3.509   0.746   0.514  0.0153  0.2138 -0.1899
  313SOL    HW2 1298   3.453   0.690   0.460  1.1330 -0.9025 -0.2243
  313SOL    HW3 1299   3.525   0.695   0.593  0.4352  0.7997  0.1063
  313SOL    MW4 1300   3.504   0.732   0.517  0.2184  0.1439 -0.1553
  314SOL     OW 1301   1.457   3.874   0.420  0.3960  0.0403  0.2393
  314SOL    HW2 1302   1.396   3.803   0.441  1.0409 -0.5775  0.0221
  314SOL    HW3 1303   1.411   3.953   0.448  0.3757 -0.5915  2.0819
  314SOL    MW4 1304   1.443   3.875   0.426  0.4784 -0.1247  0.4538
  315SOL     OW 1305   4.214   4.597   0.882  0.6189 -0.2386  0.0485
  315SOL    HW2 1306   4.212   4.686   0.844  0.3254 -0.9613 -1.6916
  315SOL    HW3 1307   4.303   4.567   0.865  0.3529 -0.7338 -0.4761
  315SOL    MW4 1308   4.225   4.605   0.875  0.5450 -0.3991 -0.2502
  316SOL     OW 1309   2.860   2.308   0.866 -0.3306  0.3445  0.2557
  316SOL    HW2 1310   2.865   2.390   0.817  1.4953 -0.7211 -1.3729
  316SOL    HW3 1311   2.897   2.329   0.952 -1.6005  1.6783  0.5006
  316SOL    MW4 1312   2.865   2.322   0.871 -0.2568  0.3800  0.0731
  317SOL     OW 1313   1.026   2.584   0.453  0.1660  0.6186 -0.0392
  317SOL    HW2 1314   1.112   2.545   0.437  0.2855  1.5782 -1.7646
  317SOL    HW3 1315   1.019   2.586   0.549  0.5456 -2.7630  0.1120
  317SOL    MW4 1316   1.037   2.579   0.464  0.2320  0.2990 -0.2469
  318SOL     OW 1317   1.628   2.149   0.478 -0.1001  0.1242  0.0953
  318SOL    HW2 1318   1.655   2.172   0.567 -0.0196 -0.7580  0.2936
  318SOL    HW3 1319   1.660   2.222   0.425  0.7578  0.1521  0.6390
  318SOL    MW4 1320   1.635   2.162   0.483  0.0237  0.0112  0.1932
  319SOL     OW 1321   1.290   3.017   0.693 -0.2094 -0.0269  0.8952
  319SOL    HW2 1322   1.286   2.921   0.685  1.1249 -0.0726  0.6389
  319SOL    HW3 1323   1.371   3.033   0.741  2.3677  1.1658 -3.5515
  319SOL    MW4 1324   1.300   3.006   0.698  0.3067  0.1242  0.2747
  320SOL     OW 1325   2.244   4.216   1.135  0.5011  0.8466 -0.2972
  320SOL    HW2 1326   2.165   4.260   1.167 -0.1384 -0.8298  0.4777
  320SOL    HW3 1327   2.242   4.231   1.040 -1.7197 -0.6556 -0.5390
  320SOL    MW4 1328   2.233   4.224   1.127  0.1237  0.4277 -0.2270
  321SOL     OW 1329   3.147   2.957   0.685  0.0188 -0.0825 -0.5142
  321SOL    HW2 1330   3.140   2.968   0.590 -1.5308 -0.9599 -0.5053
  321SOL    HW3 1331   3.074   3.008   0.720 -0.4396 -1.1536  0.1065
  321SOL    MW4 1332   3.137   2.965   0.677 -0.2463 -0.3393 -0.4311
  322SOL     OW 1333   1.097   4.592   1.124  0.1336 -0.2276 -0.1169
  322SOL    HW2 1334   1.114   4.508   1.168  1.1821 -0.4823 -0.9872
  322SOL    HW3 1335   1.007   4.614   1.149 -1.0499 -2.8219 -1.8257
  322SOL    MW4 1336   1.087   4.583   1.133  0.1158 -0.6032 -0.4572
  323SOL     OW 1337   3.812   3.891   1.075 -0.2608  0.7168 -0.2403
  323SOL    HW2 1338   3.798   3.899   0.980 -1.2892  1.4388 -0.0288
  323SOL    HW3 1339   3.727   3.909   1.114 -0.3642 -1.7150  0.7461
  323SOL    MW4 1340   3.799   3.895   1.067 -0.4101  0.4914 -0.0824
  324SOL     OW 1341   3.574   3.245   1.167  0.2383 -0.0350 -0.0365
  324SOL    HW2 1342   3.580   3.339   1.154 -1.0947  0.1185  0.3636
  324SOL    HW3 1343   3.655   3.210   1.129  0.9630  1.3026  0.2483
  324SOL    MW4 1344   3.585   3.253   1.161  0.1581  0.1616  0.0538
  325SOL     OW 1345   3.381   4.383   0.479  0.6646 -0.6942 -0.0471
  325SOL    HW2 1346   3.389   4.340   0.565 -1.0541  0.9817  1.0022
  325SOL    HW3 1347   3.391   4.313   0.416  0.5403 -2.2108  1.5795
  325SOL    MW4 1348   3.383   4.368   0.482  0.4215 -0.6733  0.3059
  326SOL     OW 1349   0.199   3.113   1.133 -0.4983  0.2456 -0.1758
  326SOL    HW2 1350   0.283   3.133   1.173  0.3601 -1.8881 -0.8104
  326SOL    HW3 1351   0.214   3.127   1.039 -0.3045 -1.7957 -0.4730
  326SOL    MW4 1352   0.212   3.117   1.126 -0.3595 -0.3049 -0.2987
  327SOL     OW 1353   1.111   2.942   0.178  0.1224 -0.0094  0.0897
  327SOL    HW2 1354   1.185   2.943   0.239  0.6513  1.7989 -0.5607
  327SOL    HW3 1355   1.057   3.017   0.205 -2.5885 -2.4799  1.8721
  327SOL    MW4 1356   1.114   2.952   0.190 -0.1657 -0.0968  0.2390
  328SOL     OW 1357   0.310   1.727   0.528  0.1221 -0.4499 -0.0524
  328SOL    HW2 1358   0.283   1.748   0.618 -0.0530  0.1551 -0.2469
  328SOL    HW3 1359   0.279   1.800   0.476  0.2753 -0.7764 -0.6047
  328SOL    MW4 1360   0.302   1.739   0.533  0.1192 -0.4133 -0.1509
  329SOL     OW 1361   2.716   4.559   0.741 -0.0013  0.5503 -0.2124
  329SOL    HW2 1362   2.709   4.473   0.780 -1.9079  0.4870 -0.6658
  329SOL    HW3 1363   2.632   4.602   0.759  0.0402  1.4566 -1.9648
  329SOL    MW4 1364   2.704   4.554   0.748 -0.2475  0.6618 -0.5034
  330SOL     OW 1365   3.409   0.313   0.503  0.0546  0.4132 -0.1012
  330SOL    HW2 1366   3.494   0.269   0.509  0.4426  1.0092 -1.2227
  330SOL    HW3 1367   3.348   0.243   0.482  0.5927  0.3136 -1.3691
  330SOL    MW4 1368   3.412   0.298   0.501  0.1767  0.4787 -0.4165
  331SOL     OW 1369   2.706   3.483   0.918 -0.0467 -0.3228 -0.1929
  331SOL    HW2 1370   2.737   3.562   0.874  1.2382 -1.0284 -0.5965
  331SOL    HW3 1371   2.622   3.464   0.877  0.3811 -0.0489 -1.2194
  331SOL    MW4 1372   2.699   3.491   0.907  0.1793 -0.3796 -0.3816
  332SOL     OW 1373   1.592   3.355   0.737 -0.1052  0.3267 -0.0491
  332SOL    HW2 1374   1.665   3.391   0.786  0.3177 -0.7639  0.1393
  332SOL    HW3 1375   1.626   3.343   0.649 -0.1001 -0.0276 -0.0005
  332SOL    MW4 1376   1.606   3.358   0.732 -0.0489  0.1361 -0.0178
  333SOL     OW 1377   1.605   0.296   0.495  0.2510 -0.1845  0.1984
  333SOL    HW2 1378   1.564   0.289   0.581 -0.1217  1.1996  0.1345
  333SOL    HW3 1379   1.578   0.381   0.462  0.4913 -0.6523 -1.2441
  333SOL    MW4 1380   1.596   0.306   0.502  0.2335 -0.0636 -0.0004
  334SOL     OW 1381   1.822   2.444   1.235  0.0401 -0.3079 -0.5252
  334SOL    HW2 1382   1.887   2.375   1.222 -0.6741 -0.8596 -1.1790
  334SOL    HW3 1383   1.739   2.404   1.210 -0.6977  0.1016  1.2196
  334SOL    MW4 1384   1.820   2.430   1.230 -0.1516 -0.3269 -0.3812
  335SOL     OW 1385   2.359   2.808   0.442 -0.3581  0.2297 -0.3074
  335SOL    HW2 1386   2.355   2.772   0.530 -0.5211  0.4824 -0.2123
  335SOL    HW3 1387   2.360   2.903   0.454 -0.8592  0.2708 -0.5935
  335SOL    MW4 1388   2.359   2.816   0.455 -0.4458  0.2685 -0.3326
  336SOL     OW 1389   1.287   1.221   0.120  0.4103 -0.2394  0.2535
  336SOL    HW2 1390   1.210   1.240   0.067 -0.1981 -1.0849  0.8212
  336SOL    HW3 1391   1.292   1.294   0.182  1.0071  0.6430 -0.8226
  336SOL    MW4 1392   1.277   1.233   0.121  0.4088 -0.2347  0.1864
  337SOL     OW 1393   2.019   4.132   0.728 -0.2085  0.3882  0.5990
  337SOL    HW2 1394   1.940   4.165   0.769  1.8321  2.1159  3.2609
  337SOL    HW3 1395   2.031   4.045   0.766 -0.1528  0.6332  1.1435
  337SOL    MW4 1396   2.010   4.125   0.738  0.0684  0.6485  1.0220
  338SOL     OW 1397   4.313   1.188   0.326 -0.7149  0.1282  0.1147
  338SOL    HW2 1398   4.227   1.148   0.328 -0.5268 -0.2129  2.5339
  338SOL    HW3 1399   4.374   1.115   0.337 -0.2681  0.7563  1.9645
  338SOL    MW4 1400   4.310   1.173   0.328 -0.6309  0.1662  0.6779
  339SOL     OW 1401   4.231   2.328   0.851 -0.1248 -0.0791 -0.2254
  339SOL    HW2 1402   4.243   2.402   0.791  1.1764 -0.1512 -0.0767
  339SOL    HW3 1403   4.155   2.281   0.816 -0.8333  1.2149 -0.4335
  339SOL    MW4 1404   4.223   2.332   0.838 -0.0467  0.0820 -0.2332
  340SOL     OW 1405   3.351   1.011   0.538 -0.6311  0.1751 -0.4826
  340SOL    HW2 1406   3.256   0.999   0.530 -0.4646 -3.6366  1.8572
  340SOL    HW3 1407   3.388   0.925   0.517  2.1735  1.0644  0.5445
  340SOL    MW4 1408   3.343   0.998   0.534 -0.2394 -0.2104 -0.0384
  341SOL     OW 1409   2.476   3.400   0.803 -0.2839  0.8948 -0.0693
  341SOL    HW2 1410   2.388   3.435   0.821 -0.4576  0.2091  0.4192
  341SOL    HW3 1411   2.468   3.306   0.818  0.8889  1.0125  1.4328
  341SOL    MW4 1412   2.463   3.392   0.808 -0.1521  0.8197  0.1933
  342SOL     OW 1413   0.215   4.144   0.685  0.0852  0.0279  0.0549
  342SOL    HW2 1414   0.188   4.187   0.604 -2.0224  0.6699  1.0684
  342SOL    HW3 1415   0.294   4.191   0.711  0.2212  0.4676 -1.1063
  342SOL    MW4 1416   0.222   4.156   0.678 -0.1749  0.1712  0.0355
  343SOL     OW 1417   2.016   4.666   1.128  0.3999 -0.0868  0.2325
  343SOL    HW2 1418   2.028   4.573   1.147  0.2817  0.0548  1.0234
  343SOL    HW3 1419   2.103   4.704   1.140  0.5820 -0.2007 -0.7154
  343SOL    MW4 1420   2.029   4.658   1.133  0.4084 -0.0834  0.2117
  344SOL     OW 1421   1.602   3.638   1.198 -0.4012  0.0261 -0.1968
  344SOL    HW2 1422   1.669   3.580   1.161  0.8837  1.6276 -0.4360
  344SOL    HW3 1423   1.622   3.724   1.161 -0.9397  1.0625  1.8354
  344SOL    MW4 1424   1.614   3.642   1.188 -0.3028  0.3741  0.0398
  345SOL     OW 1425   2.889   4.392   1.190 -0.0073  0.1480 -0.4649
  345SOL    HW2 1426   2.815   4.335   1.170 -0.0933  0.5322 -1.2678
  345SOL    HW3 1427   2.966   4.343   1.161  0.0930 -0.4136  0.7217
  345SOL    MW4 1428   2.889   4.378   1.184 -0.0057  0.1240 -0.4141
  346SOL     OW 1429   3.479   1.643   0.349 -0.6269  0.1358  0.4711
  346SOL    HW2 1430   3.473   1.719   0.406 -1.4580  0.6563 -0.3001
  346SOL    HW3 1431   3.388   1.618   0.333 -0.3468 -1.4288  1.2586
  346SOL    MW4 1432   3.466   1.650   0.355 -0.6995 -0.0018  0.4733
  347SOL     OW 1433   0.516   2.929   0.553  0.1174  0.5211  0.4408
  347SOL    HW2 1434   0.469   2.981   0.488 -0.0015  0.3106  0.3563
  347SOL    HW3 1435   0.608   2.944   0.534  0.0822  0.4271  0.1968
  347SOL    MW4 1436   0.522   2.938   0.542  0.0971  0.4811  0.3974
  348SOL     OW 1437   1.437   1.709   0.370  0.5467  0.6765  0.1418
  348SOL    HW2 1438   1.354   1.750   0.393  0.3698  0.2729  0.2253
  348SOL    HW3 1439   1.412   1.626   0.330  0.8522  1.3392 -1.4378
  348SOL    MW4 1440   1.423   1.704   0.368  0.5636  0.7106 -0.0556
  349SOL     OW 1441   1.343   2.192   0.494 -0.7866 -0.1070  0.1722
  349SOL    HW2 1442   1.287   2.119   0.469 -0.0216 -0.3536 -0.8519
  349SOL    HW3 1443   1.432   2.163   0.474 -0.3334  0.4963  1.2497
  349SOL    MW4 1444   1.347   2.179   0.488 -0.6257 -0.0601  0.1793
  350SOL     OW 1445   0.980   1.546   0.507  0.6361 -0.1100 -0.1750
  350SOL    HW2 1446   0.898   1.546   0.458  0.4172  0.1800  0.1924
  350SOL    HW3 1447   1.022   1.629   0.485  0.9066 -0.3311 -0.4912
  350SOL    MW4 1448   0.975   1.557   0.498  0.6428 -0.1009 -0.1683
  351SOL     OW 1449   3.736   0.903   0.445  0.1667 -0.2912  0.1443
  351SOL    HW2 1450   3.660   0.848   0.462  0.5448 -0.8737 -0.0300
  351SOL    HW3 1451   3.700   0.984   0.410 -0.3815 -0.5024  0.2129
  351SOL    MW4 1452   3.722   0.906   0.443  0.1442 -0.3960  0.1303
  352SOL     OW 1453   2.690   2.999   0.741  0.7301  0.4878 -0.5491
  352SOL    HW2 1454   2.680   2.904   0.753 -1.4597  0.7383 -0.2156
  352SOL    HW3 1455   2.668   3.014   0.650 -1.7709  1.0049  0.1002
  352SOL    MW4 1456   2.686   2.988   0.731  0.1111  0.5889 -0.4194
  353SOL     OW 1457   0.441   4.235   0.832  0.3126 -0.8987  0.1608
  353SOL    HW2 1458   0.477   4.146   0.835  2.2073 -0.1562  0.2289
  353SOL    HW3 1459   0.406   4.250   0.919 -0.7682 -1.8786 -0.0979
  353SOL    MW4 1460   0.441   4.225   0.844  0.4200 -0.9298  0.1356
  354SOL     OW 1461   2.961   0.801   0.882  0.2255 -0.2294  0.2183
  354SOL    HW2 1462   3.044   0.754   0.872  1.4450  1.5750  1.6464
  354SOL    HW3 1463   2.964   0.870   0.816  0.7623  1.0877  1.6080
  354SOL    MW4 1464   2.972   0.804   0.872  0.4573  0.1824  0.5901
  355SOL     OW 1465   0.942   0.646   0.748 -0.0045 -0.3006  0.4815
  355SOL    HW2 1466   0.932   0.644   0.652  1.7594  2.2530  0.1978
  355SOL    HW3 1467   0.865   0.695   0.778  0.1930  0.1780  0.2239
  355SOL    MW4 1468   0.930   0.652   0.739  0.2544  0.0994  0.4101
  356SOL     OW 1469   4.230   3.864   0.831 -0.1560 -0.3195 -0.0379
  356SOL    HW2 1470   4.261   3.946   0.792  0.1679 -0.2300  0.4005
  356SOL    HW3 1471   4.141   3.853   0.796 -1.4835  1.9475  2.4161
  356SOL    MW4 1472   4.222   3.873   0.822 -0.2885 -0.0083  0.3437
  357SOL     OW 1473   3.474   3.476   0.517  0.1720 -0.3184 -0.4737
  357SOL    HW2 1474   3.400   3.439   0.564 -0.3335 -0.5641 -1.4414
  357SOL    HW3 1475   3.435   3.535   0.453  0.7521 -1.0242 -1.5045
  357SOL    MW4 1476   3.459   3.479   0.514  0.1817 -0.4439 -0.7373
  358SOL     OW 1477   1.750   0.330   0.858 -0.0207  0.1804  0.0600
  358SOL    HW2 1478   1.668   0.310   0.813 -0.4767  0.8149  0.5915
  358SOL    HW3 1479   1.763   0.424   0.841 -0.0685  0.3619  1.0373
  358SOL    MW4 1480   1.741   0.340   0.850 -0.0871  0.2880  0.2591
  359SOL     OW 1481   4.115   1.526   0.186 -0.3395 -0.5451  0.3297
  359SOL    HW2 1482   4.159   1.473   0.120  3.4062 -0.4056  2.5478
  359SOL    HW3 1483   4.078   1.463   0.247 -0.7503 -0.6547 -0.0347
  359SOL    MW4 1484   4.116   1.511   0.185  0.1006 -0.5412  0.5742
  360SOL     OW 1485   0.701   1.516   0.464  0.0018  0.1599  0.5504
  360SOL    HW2 1486   0.627   1.456   0.458 -0.1089  0.3621 -0.1682
  360SOL    HW3 1487   0.662   1.601   0.483 -0.0036  0.3807 -0.4271
  360SOL    MW4 1488   0.686   1.519   0.466 -0.0135  0.2156  0.3266
  361SOL     OW 1489   4.246   1.800   0.748  0.1918 -0.4809  0.4572
  361SOL    HW2 1490   4.168   1.840   0.786 -0.2674  0.7691 -1.7197
  361SOL    HW3 1491   4.242   1.824   0.655  1.2554 -3.4702 -0.4020
  361SOL    MW4 1492   4.235   1.808   0.740  0.2718 -0.7102  0.0566
  362SOL     OW 1493   3.539   2.718   0.838  0.1057  0.0638 -0.2152
  362SOL    HW2 1494   3.554   2.699   0.930 -0.6806 -1.7781 -0.4455
  362SOL    HW3 1495   3.477   2.651   0.809  0.1530  0.7628 -2.0207
  362SOL    MW4 1496   3.533   2.707   0.846  0.0081 -0.0870 -0.4838
  363SOL     OW 1497   2.051   0.447   0.477  0.1734 -0.1631 -0.2149
  363SOL    HW2 1498   1.965   0.489   0.479  0.2184 -0.0752 -0.0085
  363SOL    HW3 1499   2.050   0.388   0.552  0.1403 -0.4707 -0.4595
  363SOL    MW4 1500   2.039   0.445   0.487  0.1750 -0.1921 -0.2200
  364SOL     OW 1501   3.560   4.516   0.787 -0.0459 -0.1534  0.4378
  364SOL    HW2 1502   3.642   4.564   0.799 -0.0429  0.6921 -2.4239
  364SOL    HW3 1503   3.493   4.573   0.826  0.3645  0.6536 -0.0238
  364SOL    MW4 1504   3.562   4.530   0.794  0.0083  0.0648 -0.0007
  365SOL     OW 1505   2.240   2.695   1.147  0.0587  0.3318  0.0218
  365SOL    HW2 1506   2.226   2.688   1.053 -0.3001  0.8500  0.0347
  365SOL    HW3 1507   2.156   2.726   1.182  0.1995  0.1794  0.5046
  365SOL    MW4 1508   2.227   2.698   1.139  0.0298  0.3798  0.0870
  366SOL     OW 1509   2.918   3.621   1.185  0.4371 -0.0781  0.0293
  366SOL    HW2 1510   2.990   3.567   1.153  0.9467 -0.4054  1.6902
  366SOL    HW3 1511   2.841   3.567   1.174  1.0715 -1.5931  2.6330
  366SOL    MW4 1512   2.918   3.607   1.179  0.5882 -0.3211  0.5920
  367SOL     OW 1513   3.417   0.781   1.165 -0.3150  0.3020  0.1650
  367SOL    HW2 1514   3.344   0.830   1.202 -0.8014  0.0179 -0.3994
  367SOL    HW3 1515   3.412   0.695   1.207  1.1718  1.0567  1.9373
  367SOL    MW4 1516   3.407   0.776   1.175 -0.1831  0.3641  0.3245
  368SOL     OW 1517   1.732   2.219   0.762  0.0681 -0.0968  0.4363
  368SOL    HW2 1518   1.787   2.291   0.728  1.0793 -0.9631  0.2077
  368SOL    HW3 1519   1.659   2.263   0.805  1.0208  1.0916  0.8636
  368SOL    MW4 1520   1.730   2.235   0.763  0.3272 -0.0546  0.4625
  369SOL     OW 1521   1.376   3.462   0.877 -0.3008  0.1115 -0.3418
  369SOL    HW2 1522   1.300   3.413   0.846 -0.0288 -1.5863  1.5127
  369SOL    HW3 1523   1.449   3.427   0.826 -0.2949 -0.5628  0.1200
  369SOL    MW4 1524   1.376   3.451   0.866 -0.2640 -0.2015 -0.0362
  370SOL     OW 1525   1.573   1.496   1.146  0.0810 -0.3187  0.0284
  370SOL    HW2 1526   1.579   1.494   1.051  0.7032  0.1941  0.0527
  370SOL    HW3 1527   1.488   1.538   1.164  0.5721  0.8364 -0.2952
  370SOL    MW4 1528   1.562   1.501   1.136  0.2279 -0.0987 -0.0111
  371SOL     OW 1529   2.075   3.648   0.493 -0.2358 -0.4046  0.2850
  371SOL    HW2 1530   2.171   3.654   0.494 -0.2526 -0.2798  0.8319
  371SOL    HW3 1531   2.048   3.663   0.583 -0.7512 -0.8462  0.2076
  371SOL    MW4 1532   2.084   3.651   0.505 -0.3059 -0.4466  0.3470
  372SOL     OW 1533   1.813   4.552   0.768  0.1060  0.1769  0.3345
  372SOL    HW2 1534   1.736   4.576   0.820 -0.0342 -1.2632  0.8113
  372SOL    HW3 1535   1.781   4.551   0.677 -1.0355 -2.5817  0.7117
  372SOL    MW4 1536   1.798   4.555   0.763 -0.0629 -0.3772  0.4472
  373SOL     OW 1537   1.608   1.043   0.472  0.1039 -0.3056 -0.1081
  373SOL    HW2 1538   1.541   1.004   0.416 -1.1255  1.7607 -0.1430
  373SOL    HW3 1539   1.584   1.018   0.561  0.2657 -0.9765 -0.2508
  373SOL    MW4 1540   1.596   1.035   0.476 -0.0370 -0.1215 -0.1315
  374SOL     OW 1541   4.250   2.522   0.243  0.5552  0.0437  0.4868
  374SOL    HW2 1542   4.175   2.466   0.222  0.0715  1.2803 -1.1669
  374SOL    HW3 1543   4.217   2.611   0.232  1.7658  0.6411  1.5619
  374SOL    MW4 1544   4.236   2.526   0.239  0.6514  0.2859  0.4105
  375SOL     OW 1545   2.237   1.925   1.149 -0.3390  0.4593  0.2295
  375SOL    HW2 1546   2.317   1.972   1.174  0.8685 -1.5743  0.2784
  375SOL    HW3 1547   2.240   1.921   1.054 -0.3224  0.2823  0.2374
  375SOL    MW4 1548   2.248   1.931   1.140 -0.1776  0.1678  0.2370
  376SOL     OW 1549   1.070   3.111   0.840  0.0453 -0.0109  0.0422
  376SOL    HW2 1550   1.142   3.075   0.788  0.7043  1.2501  0.0576
  376SOL    HW3 1551   1.096   3.097   0.931  0.5324  0.9132  0.0543
  376SOL    MW4 1552   1.083   3.104   0.845  0.1965  0.2773  0.0458
  377SOL     OW 1553   3.802   2.602   0.744  0.2890 -0.1038  0.2643
  377SOL    HW2 1554   3.720   2.638   0.780  1.0622  0.4090  1.5396
  377SOL    HW3 1555   3.816   2.522   0.794  1.3707  0.6080  1.1046
  377SOL    MW4 1556   3.793   2.596   0.755  0.5336  0.0577  0.5435
  378SOL     OW 1557   1.099   0.791   1.146  0.4285  0.3877 -0.2642
  378SOL    HW2 1558   1.028   0.831   1.196 -0.3776 -0.1674 -0.9514
  378SOL    HW3 1559   1.094   0.698   1.168  1.8751  0.5453  0.8111
  378SOL    MW4 1560   1.089   0.784   1.156  0.5131  0.3353 -0.2129
  379SOL     OW 1561   2.904   2.318   1.142  0.2217  0.0551  0.0065
  379SOL    HW2 1562   2.905   2.226   1.167  1.6445 -0.1485 -0.7349
  379SOL    HW3 1563   2.987   2.353   1.174  0.0388  0.8964 -0.3990
  379SOL    MW4 1564   2.915   2.311   1.150  0.3850  0.1390 -0.1447
  380SOL     OW 1565   4.445   3.244   1.210  0.2167  0.1484  0.3018
  380SOL    HW2 1566   4.529   3.222   1.170 -0.3219  0.0970 -0.8037
  380SOL    HW3 1567   4.440   3.339   1.205 -0.0202  0.1145 -0.0862
  380SOL    MW4 1568   4.456   3.253   1.204  0.1144  0.1371  0.1047
  381SOL     OW 1569   3.578   4.255   0.847  0.4930  0.3408  0.2529
  381SOL    HW2 1570   3.583   4.350   0.835  1.8153  0.2518 -0.0979
  381SOL    HW3 1571   3.648   4.221   0.790 -0.4324 -0.8847 -0.1639
  381SOL    MW4 1572   3.588   4.263   0.838  0.5455  0.1674  0.1516
  382SOL     OW 1573   1.102   4.430   0.537  0.0938  0.1954 -0.0693
  382SOL    HW2 1574   1.032   4.398   0.479 -1.2474  0.4833  1.3615
  382SOL    HW3 1575   1.119   4.520   0.507 -0.5159  0.3090 -0.0750
  382SOL    MW4 1576   1.095   4.438   0.525 -0.1637  0.2489  0.1188
  383SOL     OW 1577   2.975   0.290   0.327 -0.9444  0.0043 -0.0790
  383SOL    HW2 1578   2.898   0.239   0.349 -1.6543  0.5180 -1.3533
  383SOL    HW3 1579   3.045   0.252   0.380 -2.0747 -0.4134  1.1345
  383SOL    MW4 1580   2.974   0.278   0.337 -1.1871  0.0170 -0.0870
  384SOL     OW 1581   0.918   1.910   0.846  0.3755  0.0474 -0.3175
  384SOL    HW2 1582   0.835   1.863   0.834  0.5479 -0.3077 -0.1026
  384SOL    HW3 1583   0.922   1.927   0.940  0.9648 -0.6920 -0.2096
  384SOL    MW4 1584   0.907   1.906   0.857  0.4759 -0.0970 -0.2748
  385SOL     OW 1585   2.031   3.029   1.127 -0.3045 -0.1723  0.2115
  385SOL    HW2 1586   2.026   2.996   1.037  0.7558  1.5846 -0.4946
  385SOL    HW3 1587   2.115   3.073   1.132 -0.6308  0.2828  1.9047
  385SOL    MW4 1588   2.041   3.030   1.116 -0.2079  0.1194  0.3418
  386SOL     OW 1589   2.477   3.508   0.515  0.0920  0.4325  0.8515
  386SOL    HW2 1590   2.487   3.482   0.606  0.8089 -1.3213  0.2928
  386SOL    HW3 1591   2.564   3.501   0.477 -0.0219  2.0307  0.2377
  386SOL    MW4 1592   2.490   3.504   0.522  0.1719  0.4120  0.6969
  387SOL     OW 1593   1.350   4.540   0.756  0.5651 -0.2428  0.0884
  387SOL    HW2 1594   1.327   4.448   0.744 -1.4011  0.1648  0.6075
  387SOL    HW3 1595   1.268   4.582   0.781  1.6259  1.5015  0.6872
  387SOL    MW4 1596   1.336   4.533   0.758  0.4457  0.0410  0.2360
  388SOL     OW 1597   0.910   3.089   0.285 -0.1826 -0.5687  0.0982
  388SOL    HW2 1598   0.830   3.108   0.236 -0.6157 -2.9712 -0.1653
  388SOL    HW3 1599   0.879   3.058   0.371  0.4952 -0.3238  0.4370
  388SOL    MW4 1600   0.895   3.087   0.290 -0.1504 -0.8528  0.1081
  389SOL     OW 1601   0.464   1.359   0.730  0.0934 -0.3911 -0.1067
  389SOL    HW2 1602   0.450   1.275   0.774 -0.3301  0.2805  1.0708
  389SOL    HW3 1603   0.384   1.409   0.747  0.4499  0.3505 -0.5577
  389SOL    MW4 1604   0.451   1.355   0.738  0.0846 -0.2047 -0.0108
  390SOL     OW 1605   2.240   4.526   0.772 -0.0542 -0.5002 -0.5114
  390SOL    HW2 1606   2.185   4.597   0.805 -1.1131 -2.3464  1.8772
  390SOL    HW3 1607   2.208   4.509   0.684 -1.1654  0.6008 -0.3362
  390SOL    MW4 1608   2.229   4.533   0.765 -0.3405 -0.5980 -0.1731
  391SOL     OW 1609   2.721   0.689   0.564 -0.1402 -0.0223  0.2164
  391SOL    HW2 1610   2.716   0.688   0.660  0.6631 -0.6451  0.2556
  391SOL    HW3 1611   2.786   0.622   0.543 -1.7382 -1.2422 -0.8717
  391SOL    MW4 1612   2.729   0.680   0.574 -0.2453 -0.2654  0.0780
  392SOL     OW 1613   1.104   0.799   0.372  0.0716  0.4382 -0.0059
  392SOL    HW2 1614   1.017   0.775   0.402  0.1379  0.7300  0.4206
  392SOL    HW3 1615   1.117   0.888   0.404  0.3132  0.5947 -0.5326
  392SOL    MW4 1616   1.094   0.807   0.380  0.1122  0.4973 -0.0191
  393SOL     OW 1617   0.794   2.954   0.486  0.6278 -0.2243  0.0367
  393SOL    HW2 1618   0.827   2.945   0.575  2.3576  0.8047 -0.4767
  393SOL    HW3 1619   0.842   2.888   0.436  0.3883 -0.1286 -0.3177
  393SOL    MW4 1620   0.805   2.944   0.491  0.8245 -0.0758 -0.0778
  394SOL     OW 1621   2.479   3.137   0.832 -0.0007 -0.3290  0.3628
  394SOL    HW2 1622   2.488   3.116   0.925  0.5221  0.0878  0.4119
  394SOL    HW3 1623   2.551   3.090   0.790 -1.0205 -1.5679 -0.0045
  394SOL    MW4 1624   2.490   3.128   0.839 -0.0663 -0.4375  0.3209
  395SOL     OW 1625   1.854   0.898   0.479 -0.3748  0.3227 -0.1169
  395SOL    HW2 1626   1.783   0.960   0.462 -0.5815 -0.1855 -1.1372
  395SOL    HW3 1627   1.908   0.941   0.545 -1.9344  0.4752  1.0837
  395SOL    MW4 1628   1.852   0.912   0.485 -0.6077  0.2759 -0.0931
  396SOL     OW 1629   1.054   4.112   0.715 -0.0516 -0.5069 -0.5047
  396SOL    HW2 1630   1.014   4.100   0.629 -0.2196  0.1022 -0.5163
  396SOL    HW3 1631   1.101   4.030   0.732  0.3574 -0.4560 -1.3719
  396SOL    MW4 1632   1.055   4.100   0.706 -0.0197 -0.4196 -0.6207
  397SOL     OW 1633   1.338   0.900   1.223 -0.6918 -0.3644 -0.1046
  397SOL    HW2 1634   1.251   0.863   1.205 -1.1865  1.0949 -0.7351
  397SOL    HW3 1635   1.332   0.991   1.196  1.1686 -0.3471 -0.5424
  397SOL    MW4 1636   1.326   0.907   1.217 -0.5116 -0.1696 -0.2455
  398SOL     OW 1637   1.525   0.248   0.757 -0.0893  0.5108  0.5106
  398SOL    HW2 1638   1.449   0.279   0.806 -0.7136  0.3174 -0.3222
  398SOL    HW3 1639   1.533   0.156   0.781  1.3622  1.1349  2.4707
  398SOL    MW4 1640   1.516   0.240   0.766  0.0199  0.5676  0.6593
  399SOL     OW 1641   4.206   0.204   0.771  0.2828 -0.7711 -0.4252
  399SOL    HW2 1642   4.290   0.219   0.816 -0.1677  0.4262  0.0413
  399SOL    HW3 1643   4.215   0.251   0.688 -0.1681 -0.1012 -0.0944
  399SOL    MW4 1644   4.219   0.212   0.766  0.1636 -0.5247 -0.3200
  400SOL     OW 1645   0.457   0.079   1.258 -0.3979 -0.1199 -0.0198
  400SOL    HW2 1646   0.521   0.047   1.195 -1.0340 -0.3268 -0.5663
  400SOL    HW3 1647   0.454   0.173   1.245  1.6290  0.2151  1.7298
  400SOL    MW4 1648   0.465   0.087   1.248 -0.2144 -0.1030  0.1388
  401SOL     OW 1649   1.354   1.436   0.296  0.2853 -0.0652  0.1263
  401SOL    HW2 1650   1.290   1.402   0.359  0.1764  0.2348  0.1742
  401SOL    HW3 1651   1.439   1.407   0.330  0.2409  0.2567  0.5093
  401SOL    MW4 1652   1.357   1.427   0.309  0.2650  0.0169  0.1832
  402SOL     OW 1653   1.379   0.993   0.301  0.0347 -0.3317 -0.1636
  402SOL    HW2 1654   1.368   1.048   0.224 -0.4971 -0.2117 -0.0002
  402SOL    HW3 1655   1.346   0.907   0.274  0.3187 -0.4226 -0.2287
  402SOL    MW4 1656   1.373   0.989   0.287  0.0019 -0.3278 -0.1506
  403SOL     OW 1657   0.926   4.456   0.746 -0.0245 -0.3860 -0.1782
  403SOL    HW2 1658   0.979   4.432   0.670  1.3409  0.5121  0.4626
  403SOL    HW3 1659   0.893   4.373   0.779  0.6881 -0.9315 -0.8095
  403SOL    MW4 1660   0.928   4.442   0.740  0.2497 -0.3390 -0.1770
  404SOL     OW 1661   0.432   2.689   0.848  0.0895 -0.7358  0.5875
  404SOL    HW2 1662   0.513   2.640   0.832  0.2997  0.3182 -1.7954
  404SOL    HW3 1663   0.427   2.696   0.943  1.8324 -2.4272  0.8404
  404SOL    MW4 1664   0.442   2.684   0.859  0.3472 -0.8197  0.3065
  405SOL     OW 1665   0.461   2.970   0.822  0.0740 -0.2071 -0.1565
  405SOL    HW2 1666   0.498   2.955   0.735  0.0948  1.3276 -0.4283
  405SOL    HW3 1667   0.431   2.884   0.850 -0.2103 -0.6650 -1.8038
  405SOL    MW4 1668   0.462   2.957   0.814  0.0392 -0.0653 -0.4097
  406SOL     OW 1669   1.847   1.683   1.464  0.2746  0.0336 -0.1724
  406SOL    HW2 1670   1.869   1.645   1.379  0.7096 -0.9542  0.3693
  406SOL    HW3 1671   1.761   1.646   1.485  1.2733 -1.7399  0.9586
  406SOL    MW4 1672   1.838   1.673   1.456  0.4636 -0.3307  0.0482
  407SOL     OW 1673   4.237   2.300   1.116  0.2053 -0.2421 -0.3776
  407SOL    HW2 1674   4.242   2.308   1.020  0.4274  2.4126 -0.1715
  407SOL    HW3 1675   4.154   2.343   1.139  0.5169 -0.2080  0.6967
  407SOL    MW4 1676   4.227   2.307   1.106  0.2761  0.1128 -0.2086
  408SOL     OW 1677   1.486   0.018   1.170 -0.0852 -0.2596 -0.3343
  408SOL    HW2 1678   1.568   0.065   1.187  0.3367 -0.8687 -0.6506
  408SOL    HW3 1679   1.511  -0.074   1.173 -0.4051 -0.4211 -2.2223
  408SOL    MW4 1680   1.500   0.012   1.172 -0.0718 -0.3614 -0.6251
  409SOL     OW 1681   0.897   2.136   0.429 -0.0509 -0.0518  1.0240
  409SOL    HW2 1682   0.873   2.224   0.398  2.5271  0.2106 -0.3795
  409SOL    HW3 1683   0.907   2.147   0.524  0.0278  1.1503  0.8945
  409SOL    MW4 1684   0.895   2.149   0.438  0.2996  0.1414  0.8217
  410SOL     OW 1685   0.902   1.939   1.120 -0.3671  0.1213 -0.4705
  410SOL    HW2 1686   0.833   1.987   1.165 -0.4049 -0.0898 -0.3029
  410SOL    HW3 1687   0.983   1.983   1.146 -0.2979 -0.5939  0.5849
  410SOL    MW4 1688   0.904   1.951   1.129 -0.3629 -0.0008 -0.3091
  411SOL     OW 1689   2.913   0.266   0.746 -0.2337  0.4251  0.5057
  411SOL    HW2 1690   2.830   0.297   0.783 -0.1561  1.3251 -0.0735
  411SOL    HW3 1691   2.980   0.300   0.806 -0.2854 -0.4909  1.0997
  411SOL    MW4 1692   2.911   0.274   0.759 -0.2306  0.4230  0.5076
  412SOL     OW 1693   0.660   3.393   0.399 -0.7582 -0.0356 -0.1898
  412SOL    HW2 1694   0.669   3.378   0.493 -1.9798 -0.6479 -0.1616
  412SOL    HW3 1695   0.604   3.471   0.392 -0.4818  0.1435 -0.4032
  412SOL    MW4 1696   0.654   3.401   0.410 -0.8829 -0.0927 -0.2142
  413SOL     OW 1697   0.703   3.089   1.129 -0.4466 -0.3174  0.1605
  413SOL    HW2 1698   0.785   3.125   1.163 -0.9003 -0.8357  1.8454
  413SOL    HW3 1699   0.704   3.112   1.036  0.7135  1.3355  0.5495
  413SOL    MW4 1700   0.714   3.097   1.121 -0.3533 -0.1676  0.4343
  414SOL     OW 1701   1.807   4.276   0.825  0.6283  0.3790  0.2245
  414SOL    HW2 1702   1.816   4.367   0.798  0.2117  0.2676 -0.2985
  414SOL    HW3 1703   1.723   4.248   0.788  1.9097 -0.9670 -1.7612
  414SOL    MW4 1704   1.797   4.284   0.816  0.7424  0.1869 -0.1065
  415SOL     OW 1705   2.606   1.804   0.179 -0.1387  0.2197  0.1702
  415SOL    HW2 1706   2.543   1.733   0.192  0.3417 -0.1730  0.4008
  415SOL    HW3 1707   2.586   1.840   0.093  1.3638 -1.9768 -1.1203
  415SOL    MW4 1708   2.595   1.800   0.170  0.1230 -0.1220  0.0303
  416SOL     OW 1709   1.779   2.679   1.102 -0.3156 -0.2229  0.1268
  416SOL    HW2 1710   1.787   2.600   1.155  1.8760 -0.3946 -0.4160
  416SOL    HW3 1711   1.770   2.648   1.012  2.4969  0.1196 -0.3180
  416SOL    MW4 1712   1.779   2.665   1.097  0.3446 -0.2003 -0.0033
  417SOL     OW 1713   1.058   4.042   0.414 -0.6182  0.2223 -0.0553
  417SOL    HW2 1714   1.032   3.951   0.400 -1.2245  0.3393  0.3086
  417SOL    HW3 1715   1.152   4.043   0.395 -0.7190 -0.3632 -0.6003
  417SOL    MW4 1716   1.067   4.030   0.410 -0.7114  0.1607 -0.0792
  418SOL     OW 1717   3.866   1.915   0.410 -0.1010 -0.1706  0.1743
  418SOL    HW2 1718   3.940   1.972   0.429 -0.4497  0.6516 -0.9029
  418SOL    HW3 1719   3.899   1.856   0.341  0.7763 -2.3572  2.3667
  418SOL    MW4 1720   3.880   1.915   0.403 -0.0310 -0.3507  0.3215
  419SOL     OW 1721   1.764   4.561   0.500  0.2119  0.3553  0.1554
  419SOL    HW2 1722   1.669   4.552   0.496  0.1923 -0.3802  1.8982
  419SOL    HW3 1723   1.779   4.655   0.487 -0.6074  0.2337 -1.9274
  419SOL    MW4 1724   1.754   4.572   0.498  0.1012  0.2422  0.1106
  420SOL     OW 1725   0.205   1.741   0.787 -0.2457 -0.4955 -0.1444
  420SOL    HW2 1726   0.134   1.805   0.786 -0.9458 -1.2630 -0.2033
  420SOL    HW3 1727   0.282   1.790   0.816 -0.9433  0.1919  0.5425
  420SOL    MW4 1728   0.206   1.756   0.790 -0.4301 -0.5060 -0.0616
  421SOL     OW 1729   3.534   4.213   1.119 -0.0423 -0.3012 -0.0169
  421SOL    HW2 1730   3.546   4.214   1.024  1.2031  0.4412  0.1370
  421SOL    HW3 1731   3.550   4.122   1.144 -1.2973 -0.7035 -0.6147
  421SOL    MW4 1732   3.537   4.201   1.109 -0.0436 -0.2570 -0.0755
  422SOL     OW 1733   2.927   1.485   0.864  0.1088  0.6315  0.2245
  422SOL    HW2 1734   2.934   1.479   0.960 -0.6044  0.2567  0.2553
  422SOL    HW3 1735   3.017   1.476   0.833  0.0739 -1.9103  0.7291
  422SOL    MW4 1736   2.940   1.483   0.873  0.0103  0.2466  0.2952
  423SOL     OW 1737   0.691   0.225   0.790 -0.2586  0.1132 -0.2504
  423SOL    HW2 1738   0.753   0.297   0.803 -2.8191  2.2678  0.5043
  423SOL    HW3 1739   0.658   0.239   0.701 -0.6006 -0.2858 -0.1837
  423SOL    MW4 1740   0.695   0.237   0.780 -0.6416  0.3448 -0.1420
  424SOL     OW 1741   3.985   3.863   0.681  0.2592 -0.1593  0.5277
  424SOL    HW2 1742   3.974   3.771   0.656  0.4675 -0.4858  1.6172
  424SOL    HW3 1743   4.019   3.906   0.602 -0.3967 -0.8983 -0.1657
  424SOL    MW4 1744   3.988   3.857   0.667  0.2000 -0.2999  0.5800
  425SOL     OW 1745   0.195   1.909   0.359  0.5212 -0.2668  0.0544
  425SOL    HW2 1746   0.261   1.957   0.308  0.5585  0.5744  0.8860
  425SOL    HW3 1747   0.171   1.835   0.303  0.8193  0.4511 -1.0423
  425SOL    MW4 1748   0.201   1.906   0.345  0.5655 -0.0610  0.0194
  426SOL     OW 1749   4.426   3.713   0.702  0.3600  0.2401 -0.3463
  426SOL    HW2 1750   4.505   3.760   0.730 -0.2172  0.7119  0.5091
  426SOL    HW3 1751   4.353   3.766   0.735 -0.3523  0.7593 -2.6198
  426SOL    MW4 1752   4.427   3.726   0.710  0.1898  0.3707 -0.5334
  427SOL     OW 1753   3.127   4.252   0.830 -0.3625 -0.6830 -0.1072
  427SOL    HW2 1754   3.128   4.341   0.796 -0.3902 -0.2458  1.0243
  427SOL    HW3 1755   3.050   4.212   0.790  0.6248 -0.7506 -1.9834
  427SOL    MW4 1756   3.117   4.258   0.820 -0.2360 -0.6342 -0.2055
  428SOL     OW 1757   2.228   3.952   1.263 -0.4802  0.7035  0.1607
  428SOL    HW2 1758   2.312   3.926   1.227 -0.0307  0.5379  1.3146
  428SOL    HW3 1759   2.214   4.040   1.228  0.3725  0.9033  0.3061
  428SOL    MW4 1760   2.237   3.960   1.253 -0.3083  0.7079  0.3321
  429SOL     OW 1761   2.073   1.271   1.258  0.0189  0.0420  0.1715
  429SOL    HW2 1762   2.001   1.225   1.214 -0.0701  0.6624 -0.3459
  429SOL    HW3 1763   2.152   1.229   1.224 -0.0034  1.3145 -1.5408
  429SOL    MW4 1764   2.074   1.260   1.247  0.0041  0.2918 -0.1225
  430SOL     OW 1765   0.863   2.945   0.760 -0.1452 -0.1814 -0.3023
  430SOL    HW2 1766   0.927   3.001   0.804 -0.2035 -0.1963 -0.1964
  430SOL    HW3 1767   0.877   2.858   0.798  0.0681 -0.2768 -0.6004
  430SOL    MW4 1768   0.873   2.941   0.771 -0.1247 -0.1962 -0.3278
  431SOL     OW 1769   0.203   3.099   0.839  0.0998  0.3496 -0.2833
  431SOL    HW2 1770   0.280   3.047   0.815 -0.2438 -0.2335 -0.1428
  431SOL    HW3 1771   0.135   3.071   0.778 -0.0375  0.7691 -0.3222
  431SOL    MW4 1772   0.204   3.088   0.828  0.0363  0.3281 -0.2698
  432SOL     OW 1773   0.849   2.417   0.329  0.0751 -0.5923 -0.4266
  432SOL    HW2 1774   0.921   2.463   0.371  1.1646 -2.0108 -0.6948
  432SOL    HW3 1775   0.827   2.470   0.253  1.5236 -0.6623 -0.9111
  432SOL    MW4 1776   0.855   2.430   0.324  0.4100 -0.7889 -0.5260
  433SOL     OW 1777   3.614   3.599   0.801 -0.4380  0.4238  0.0149
  433SOL    HW2 1778   3.636   3.560   0.716 -0.3097  1.1686 -0.2978
  433SOL    HW3 1779   3.523   3.627   0.791 -1.1742 -1.5116  0.8849
  433SOL    MW4 1780   3.605   3.597   0.788 -0.5181  0.2666  0.0884
  434SOL     OW 1781   3.175   1.447   0.748  0.1362  0.0304 -0.5801
  434SOL    HW2 1782   3.169   1.356   0.777 -0.2544  0.3548  0.4076
  434SOL    HW3 1783   3.256   1.479   0.787 -0.1095  0.3143 -0.2973
  434SOL    MW4 1784   3.185   1.439   0.757  0.0522  0.1107 -0.4125
  435SOL     OW 1785   4.089   2.059   0.433 -0.1988  0.0299  0.4922
  435SOL    HW2 1786   4.147   1.989   0.462 -0.3018  0.1468  0.9896
  435SOL    HW3 1787   4.095   2.058   0.337 -0.3815 -0.8018  0.4910
  435SOL    MW4 1788   4.098   2.050   0.424 -0.2370 -0.0644  0.5577
  436SOL     OW 1789   1.524   0.528   0.371  0.1254  0.0462  0.2812
  436SOL    HW2 1790   1.492   0.502   0.285  0.4825 -0.2211  0.2308
  436SOL    HW3 1791   1.448   0.570   0.413 -0.8964 -2.3672  0.9207
  436SOL    MW4 1792   1.510   0.530   0.365  0.0377 -0.3076  0.3589
  437SOL     OW 1793   0.182   3.853   0.789  0.3458  0.2741  0.3698
  437SOL    HW2 1794   0.179   3.946   0.768  1.8842  0.2432 -0.0813
  437SOL    HW3 1795   0.173   3.849   0.885  0.2872  0.8800  0.3899
  437SOL    MW4 1796   0.181   3.865   0.799  0.5410  0.3502  0.3129
  438SOL     OW 1797   2.702   0.913   0.415 -0.0902 -0.2410 -0.5305
  438SOL    HW2 1798   2.647   0.977   0.460  1.3400  0.5753  0.0804
  438SOL    HW3 1799   2.727   0.850   0.483  1.4291  0.5536 -0.3457
  438SOL    MW4 1800   2.698   0.913   0.430  0.2987 -0.0285 -0.4255
  439SOL     OW 1801   2.942   1.763   0.811  0.1694 -0.0812  0.1672
  439SOL    HW2 1802   2.853   1.794   0.831 -0.2093 -0.2202 -1.2970
  439SOL    HW3 1803   2.940   1.669   0.830  0.0324 -0.0655  0.2282
  439SOL    MW4 1804   2.930   1.755   0.816  0.1013 -0.0975 -0.0179
  440SOL     OW 1805   2.920   1.065   0.738  0.0659 -0.4313  0.7338
  440SOL    HW2 1806   2.983   1.111   0.794  0.1795  1.0830 -0.5901
  440SOL    HW3 1807   2.835   1.081   0.779  0.2561 -0.1627  1.0242
  440SOL    MW4 1808   2.917   1.073   0.750  0.1059 -0.1961  0.5975
  441SOL     OW 1809   2.229   2.443   0.390 -0.1234 -0.2021 -0.4690
  441SOL    HW2 1810   2.304   2.438   0.449  1.1394  0.0028 -2.0200
  441SOL    HW3 1811   2.198   2.353   0.382  0.6468 -0.4538 -0.6722
  441SOL    MW4 1812   2.235   2.431   0.397  0.1447 -0.2084 -0.7005
  442SOL     OW 1813   2.383   4.035   0.502 -0.0963 -0.0325 -0.0639
  442SOL    HW2 1814   2.371   3.943   0.525 -0.0980 -0.0296 -0.0506
  442SOL    HW3 1815   2.299   4.062   0.465 -0.2747  0.1209  0.4584
  442SOL    MW4 1816   2.370   4.027   0.500 -0.1202 -0.0119  0.0067
  443SOL     OW 1817   4.249   0.060   0.355 -0.0018  0.1861 -0.2006
  443SOL    HW2 1818   4.214   0.088   0.270  0.6752 -0.6818 -0.7682
  443SOL    HW3 1819   4.196  -0.017   0.378 -0.2303  0.4616  0.1970
  443SOL    MW4 1820   4.237   0.053   0.347  0.0572  0.1080 -0.2230
  444SOL     OW 1821   2.882   4.150   0.681 -0.1388  0.3192  0.0635
  444SOL    HW2 1822   2.823   4.188   0.747 -0.4215  1.0921 -0.6305
  444SOL    HW3 1823   2.904   4.223   0.623  1.9162  0.1470  0.5968
  444SOL    MW4 1824   2.877   4.165   0.682  0.0951  0.3982  0.0423
  445SOL     OW 1825   3.018   3.719   0.211  0.4624  0.0755 -0.1353
  445SOL    HW2 1826   2.935   3.681   0.240 -0.5776  2.7244  0.4593
  445SOL    HW3 1827   2.998   3.754   0.124  1.3979 -0.6493 -0.6476
  445SOL    MW4 1828   3.004   3.719   0.203  0.4487  0.3290 -0.1245
  446SOL     OW 1829   1.171   1.050   0.477 -0.1563  0.2625 -0.0727
  446SOL    HW2 1830   1.246   1.034   0.420 -0.1763  0.1258 -0.0621
  446SOL    HW3 1831   1.165   1.145   0.484 -0.3449  0.2852 -0.5510
  446SOL    MW4 1832   1.180   1.060   0.471 -0.1837  0.2474 -0.1343
  447SOL     OW 1833   3.615   3.513   1.068  0.1947 -0.0321 -0.6326
  447SOL    HW2 1834   3.612   3.538   0.975 -0.3956  0.2726 -0.5343
  447SOL    HW3 1835   3.691   3.560   1.103  0.4870 -0.2405 -0.9924
  447SOL    MW4 1836   3.624   3.523   1.060  0.1554 -0.0196 -0.6670
  448SOL     OW 1837   3.575   2.695   1.101 -0.3420  0.4650  0.1095
  448SOL    HW2 1838   3.653   2.746   1.122  0.5993 -1.0896  0.4967
  448SOL    HW3 1839   3.504   2.738   1.148  0.4330  1.3807  0.4590
  448SOL    MW4 1840   3.576   2.707   1.110 -0.1156  0.3810  0.2066
  449SOL     OW 1841   3.842   2.447   0.492  0.0168 -0.0606  0.0870
  449SOL    HW2 1842   3.780   2.374   0.490  0.0906 -0.1122 -1.1993
  449SOL    HW3 1843   3.805   2.509   0.554  0.5155 -1.6692  2.0319
  449SOL    MW4 1844   3.829   2.445   0.500  0.0925 -0.2797  0.1739
  450SOL     OW 1845   1.077   3.763   0.383 -0.0491 -0.4507  0.5330
  450SOL    HW2 1846   1.046   3.701   0.316 -0.0494  0.6035 -0.4462
  450SOL    HW3 1847   1.156   3.722   0.419 -0.5508 -1.4503  0.5382
  450SOL    MW4 1848   1.083   3.749   0.379 -0.1155 -0.4437  0.4045
  451SOL     OW 1849   1.148   1.816   0.735  0.5038  0.5632 -0.0568
  451SOL    HW2 1850   1.211   1.868   0.784  0.3995  0.7627 -0.1322
  451SOL    HW3 1851   1.062   1.852   0.759  0.4835  1.0472 -0.8248
  451SOL    MW4 1852   1.145   1.828   0.745  0.4873  0.6533 -0.1681
  452SOL     OW 1853   3.612   4.577   0.520 -0.2361  0.1797 -0.2351
  452SOL    HW2 1854   3.540   4.540   0.468  1.2398 -0.8773 -1.5657
  452SOL    HW3 1855   3.605   4.534   0.605 -1.2239  0.1567 -0.3235
  452SOL    MW4 1856   3.601   4.567   0.524 -0.1717  0.0372 -0.4224
  453SOL     OW 1857   2.267   0.337   0.322 -0.3040 -0.4572  0.1485
  453SOL    HW2 1858   2.193   0.362   0.377 -1.0232 -1.0209 -0.5477
  453SOL    HW3 1859   2.256   0.388   0.242  0.0849 -0.5083  0.0614
  453SOL    MW4 1860   2.256   0.347   0.319 -0.3476 -0.5383  0.0452
  454SOL     OW 1861   3.322   3.779   0.521 -0.2980 -0.1017  0.0972
  454SOL    HW2 1862   3.332   3.765   0.615 -0.6441  0.2713  0.1952
  454SOL    HW3 1863   3.365   3.863   0.504 -0.8447  0.1772  0.0505
  454SOL    MW4 1864   3.329   3.789   0.531 -0.4160 -0.0157  0.1040
  455SOL     OW 1865   0.457   1.125   1.126 -0.4113 -0.2678  0.4465
  455SOL    HW2 1866   0.530   1.170   1.168 -0.3335 -1.8064  2.0142
  455SOL    HW3 1867   0.480   1.123   1.034  1.1676 -0.0650  0.8242
  455SOL    MW4 1868   0.470   1.131   1.120 -0.1927 -0.4439  0.7031
  456SOL     OW 1869   2.740   2.208   0.449 -0.6037 -0.1576 -0.1994
  456SOL    HW2 1870   2.737   2.304   0.456 -1.0679 -0.0831 -1.3548
  456SOL    HW3 1871   2.705   2.177   0.532  0.0046  0.6727  0.3802
  456SOL    MW4 1872   2.735   2.217   0.461 -0.5848 -0.0384 -0.2754
  457SOL     OW 1873   2.920   0.466   0.531 -0.4144 -0.4056  0.6438
  457SOL    HW2 1874   2.881   0.420   0.605 -0.8680  0.7480  1.1371
  457SOL    HW3 1875   2.914   0.405   0.458  2.1995 -2.5294  2.0844
  457SOL    MW4 1876   2.914   0.452   0.531 -0.1295 -0.5336  0.8990
  458SOL     OW 1877   2.692   1.391   0.786 -0.2627  0.0603 -0.1779
  458SOL    HW2 1878   2.704   1.401   0.691  0.7642  1.0709  0.0483
  458SOL    HW3 1879   2.768   1.434   0.824 -0.2330 -1.1016  1.0956
  458SOL    MW4 1880   2.703   1.398   0.778 -0.1233  0.0402  0.0200
  459SOL     OW 1881   1.565   2.809   1.248 -0.2138  0.2195 -0.1458
  459SOL    HW2 1882   1.553   2.900   1.221 -0.2967  0.6436  1.3217
  459SOL    HW3 1883   1.644   2.781   1.201 -1.5507  0.2683 -2.5349
  459SOL    MW4 1884   1.574   2.817   1.238 -0.4010  0.2820 -0.2675
  460SOL     OW 1885   0.686   3.126   0.873  0.1003 -0.2613 -0.3296
  460SOL    HW2 1886   0.600   3.084   0.871  0.1263 -0.3722  0.6531
  460SOL    HW3 1887   0.745   3.062   0.834  0.1782 -1.2301  1.3571
  460SOL    MW4 1888   0.682   3.112   0.867  0.1140 -0.4036  0.0226
  461SOL     OW 1889   4.272   2.567   0.716  0.5362  0.3554 -0.2236
  461SOL    HW2 1890   4.201   2.627   0.740  0.5528 -0.6916  2.6004
  461SOL    HW3 1891   4.351   2.610   0.749  0.8057 -0.1413 -0.2238
  461SOL    MW4 1892   4.273   2.581   0.723  0.5736  0.1519  0.1490
  462SOL     OW 1893   1.588   1.242   1.214 -0.1669  0.1436 -0.2952
  462SOL    HW2 1894   1.672   1.207   1.182  0.3664 -0.5135  1.7674
  462SOL    HW3 1895   1.586   1.332   1.182 -0.0318 -0.7009 -2.8477
  462SOL    MW4 1896   1.599   1.249   1.206 -0.0788 -0.0545 -0.3600
  463SOL     OW 1897   1.509   1.539   0.606 -0.7945  0.0801 -0.6453
  463SOL    HW2 1898   1.529   1.475   0.537 -2.6622  0.1133 -1.2503
  463SOL    HW3 1899   1.497   1.622   0.559  1.7309  0.9234  0.1479
  463SOL    MW4 1900   1.510   1.541   0.590 -0.7077  0.1959 -0.6205
  464SOL     OW 1901   2.057   1.504   0.812 -0.7941 -0.1904 -0.3606
  464SOL    HW2 1902   1.984   1.453   0.777 -1.3186 -0.1123  0.5882
  464SOL    HW3 1903   2.060   1.481   0.905 -1.1159  1.5587  0.1134
  464SOL    MW4 1904   2.048   1.495   0.819 -0.9055  0.0507 -0.1729
  465SOL     OW 1905   3.771   1.814   0.663  0.1095  0.0974  0.1045
  465SOL    HW2 1906   3.802   1.836   0.576  1.0232 -0.3865  0.3090
  465SOL    HW3 1907   3.763   1.719   0.663  0.5287  0.0616  0.6889
  465SOL    MW4 1908   3.774   1.805   0.652  0.2854  0.0288  0.2086
  466SOL     OW 1909   1.344   1.948   0.880 -0.3155  0.1236  0.2025
  466SOL    HW2 1910   1.345   2.037   0.844 -0.5649 -0.2138 -0.6557
  466SOL    HW3 1911   1.412   1.902   0.830 -2.2084 -0.9592 -1.4473
  466SOL    MW4 1912   1.353   1.954   0.868 -0.5982 -0.0638 -0.1283
  467SOL     OW 1913   3.674   0.198   0.528 -0.4979 -0.0489  0.0218
  467SOL    HW2 1914   3.642   0.108   0.534 -0.3126 -0.2746 -2.0457
  467SOL    HW3 1915   3.769   0.189   0.520 -0.3524  0.4078  1.0590
  467SOL    MW4 1916   3.682   0.185   0.528 -0.4544 -0.0184 -0.1141
  468SOL     OW 1917   2.937   0.761   1.179  0.4172 -0.4200  0.0544
  468SOL    HW2 1918   2.946   0.752   1.084 -0.8721 -0.0226 -0.1060
  468SOL    HW3 1919   2.853   0.805   1.192  0.2492 -1.0950  1.4026
  468SOL    MW4 1920   2.927   0.766   1.168  0.2248 -0.4567  0.2111
  469SOL     OW 1921   1.651   2.412   0.324  0.3098 -0.0418  0.0964
  469SOL    HW2 1922   1.734   2.461   0.323  0.2635  0.0552  0.8912
  469SOL    HW3 1923   1.624   2.409   0.232  1.1394  0.0242 -0.1543
  469SOL    MW4 1924   1.659   2.418   0.311  0.4133 -0.0200  0.1682
  470SOL     OW 1925   0.260   1.512   1.096  0.4300  0.5946  0.3065
  470SOL    HW2 1926   0.175   1.545   1.125 -0.2901 -1.1070  0.1515
  470SOL    HW3 1927   0.256   1.515   1.000  0.0673 -0.6999  0.2832
  470SOL    MW4 1928   0.249   1.517   1.087  0.2872  0.1993  0.2830
  471SOL     OW 1929   4.431   3.463   0.847  0.6625 -0.2495 -0.0057
  471SOL    HW2 1930   4.442   3.554   0.821  0.6046 -0.6751 -1.5428
  471SOL    HW3 1931   4.494   3.414   0.794 -0.6438 -1.3309 -0.5833
  471SOL    MW4 1932   4.441   3.468   0.837  0.4826 -0.4485 -0.2847
  472SOL     OW 1933   0.669   1.991   0.333 -0.7195  0.0674  0.1003
  472SOL    HW2 1934   0.759   2.019   0.349 -0.3625 -0.8045 -0.3520
  472SOL    HW3 1935   0.616   2.067   0.356  0.2571  1.3499 -1.7372
  472SOL    MW4 1936   0.674   2.005   0.338 -0.5436  0.1214 -0.2018
  473SOL     OW 1937   3.828   2.849   1.472 -0.3138 -0.1240 -0.0206
  473SOL    HW2 1938   3.745   2.827   1.514 -0.0406  0.4731  0.8528
  473SOL    HW3 1939   3.892   2.790   1.512 -0.1822 -0.0481 -0.1163
  473SOL    MW4 1940   3.826   2.839   1.483 -0.2604 -0.0350  0.0820
  474SOL     OW 1941   2.462   1.562   0.878 -0.1477 -0.9601 -0.0518
  474SOL    HW2 1942   2.546   1.521   0.858  0.5314 -0.4574  1.6432
  474SOL    HW3 1943   2.474   1.655   0.857 -0.4488 -0.9788 -0.3090
  474SOL    MW4 1944   2.474   1.569   0.873 -0.0980 -0.8962  0.1380
  475SOL     OW 1945   3.861   2.779   0.357  0.4122  0.1796 -0.2897
  475SOL    HW2 1946   3.859   2.694   0.312  1.8027  0.2404 -0.4634
  475SOL    HW3 1947   3.879   2.843   0.288 -1.6620  0.7634 -0.3394
  475SOL    MW4 1948   3.863   2.776   0.342  0.3221  0.2646 -0.3192
  476SOL     OW 1949   3.146   3.494   0.825  0.0438 -0.3205 -0.0232
  476SOL    HW2 1950   3.060   3.470   0.789  0.0173  0.5916 -0.5961
  476SOL    HW3 1951   3.207   3.431   0.788 -0.3225 -0.7304  0.0730
  476SOL    MW4 1952   3.143   3.483   0.815 -0.0081 -0.2542 -0.0861
  477SOL     OW 1953   1.539   0.720   0.820  0.0006 -0.3261 -0.1022
  477SOL    HW2 1954   1.528   0.811   0.792 -0.9934 -0.7025 -0.9852
  477SOL    HW3 1955   1.531   0.723   0.915  2.9740  0.9303  0.1736
  477SOL    MW4 1956   1.536   0.733   0.829  0.2618 -0.2100 -0.1823
  478SOL     OW 1957   3.841   2.082   1.202  0.0422  0.2244  0.0622
  478SOL    HW2 1958   3.914   2.026   1.178 -0.5528 -0.7340  0.4457
  478SOL    HW3 1959   3.843   2.084   1.298  0.0634  0.8610  0.0497
  478SOL    MW4 1960   3.851   2.075   1.212 -0.0336  0.1819  0.1112
  479SOL     OW 1961   3.620   2.266   0.498  0.1970  0.1222 -0.2559
  479SOL    HW2 1962   3.621   2.183   0.449  1.9424  0.4466 -0.8031
  479SOL    HW3 1963   3.592   2.241   0.586 -0.8003 -0.8087 -0.8230
  479SOL    MW4 1964   3.616   2.251   0.503  0.2959  0.0422 -0.4029
  480SOL     OW 1965   1.785   0.609   0.485  0.4592  0.4276  0.2121
  480SOL    HW2 1966   1.701   0.590   0.442 -0.6038  0.9873  2.0139
  480SOL    HW3 1967   1.797   0.703   0.472  0.3410  0.5204  0.8031
  480SOL    MW4 1968   1.775   0.618   0.477  0.3033  0.5137  0.5278
  481SOL     OW 1969   4.479   1.137   0.838  0.3213  0.7428 -0.0709
  481SOL    HW2 1970   4.461   1.133   0.932 -0.5587 -0.0816 -0.2668
  481SOL    HW3 1971   4.414   1.078   0.798  0.7336  1.0241 -1.1863
  481SOL    MW4 1972   4.468   1.129   0.845  0.2596  0.6713 -0.2440
  482SOL     OW 1973   3.166   0.139   0.483 -0.0177  0.1267  0.3473
  482SOL    HW2 1974   3.173   0.046   0.463 -0.5394  0.0215  0.6501
  482SOL    HW3 1975   3.086   0.147   0.535 -0.1189  0.7814  0.0962
  482SOL    MW4 1976   3.157   0.128   0.487 -0.0999  0.1992  0.3542
  483SOL     OW 1977   3.341   0.285   0.779  0.1881 -0.2110  0.1714
  483SOL    HW2 1978   3.356   0.191   0.782  0.5221 -0.1288  1.1200
  483SOL    HW3 1979   3.359   0.309   0.688  2.0074 -0.7463  0.3702
  483SOL    MW4 1980   3.345   0.276   0.768  0.4723 -0.2708  0.3228
  484SOL     OW 1981   0.227   2.527   0.711  0.3778 -0.4447  0.0536
  484SOL    HW2 1982   0.224   2.443   0.756 -1.7105 -0.0769  0.6509
  484SOL    HW3 1983   0.285   2.581   0.765  0.0024 -0.8416  0.8649
  484SOL    MW4 1984   0.234   2.523   0.724  0.0528 -0.4489  0.2394
  485SOL     OW 1985   1.772   0.085   1.237  0.0288 -0.1904  0.4306
  485SOL    HW2 1986   1.783   0.177   1.212  0.0860 -0.1538  0.5922
  485SOL    HW3 1987   1.847   0.041   1.198 -0.7069 -0.3966 -0.8025
  485SOL    MW4 1988   1.783   0.092   1.229 -0.0607 -0.2128  0.2892
  486SOL     OW 1989   4.482   0.142   1.254  0.1701 -0.3643 -0.1857
  486SOL    HW2 1990   4.564   0.094   1.247  0.7001  0.7660 -1.9206
  486SOL    HW3 1991   4.417   0.084   1.213  0.3063 -0.7659  0.1646
  486SOL    MW4 1992   4.484   0.128   1.248  0.2580 -0.2681 -0.3682
  487SOL     OW 1993   0.232   0.705   1.190  0.4658  0.4131  0.2941
  487SOL    HW2 1994   0.160   0.752   1.232  0.7589  0.2203  1.0143
  487SOL    HW3 1995   0.305   0.767   1.191  0.6283  0.2200  0.5540
  487SOL    MW4 1996   0.232   0.719   1.196  0.5259  0.3623  0.4234
  488SOL     OW 1997   4.248   3.587   1.231 -0.0537 -0.4319  0.2099
  488SOL    HW2 1998   4.252   3.675   1.194  0.9372 -0.5663 -0.0264
  488SOL    HW3 1999   4.175   3.545   1.186 -0.0355  0.0207 -0.2412
  488SOL    MW4 2000   4.239   3.593   1.220  0.0796 -0.3901  0.1192
  489SOL     OW 2001   2.395   1.349   0.459  0.4531 -0.3013  0.0637
  489SOL    HW2 2002   2.490   1.363   0.456  0.9265 -2.9549  0.7008
  489SOL    HW3 2003   2.374   1.355   0.552  0.1760 -0.7436  0.0284
  489SOL    MW4 2004   2.405   1.351   0.471  0.4792 -0.7097  0.1431
  490SOL     OW 2005   0.022   0.877   1.250 -0.1294 -0.2678  0.1072
  490SOL    HW2 2006   0.013   0.882   1.345  0.6359 -1.5428  0.2587
  490SOL    HW3 2007   0.015   0.968   1.221  0.6313  0.2528  1.4837
  490SOL    MW4 2008   0.020   0.890   1.259  0.0719 -0.3673  0.3088
  491SOL     OW 2009   0.009   1.125   1.135  0.7557  0.2088  0.0684
  491SOL    HW2 2010  -0.064   1.183   1.156 -0.4256 -0.5739 -1.7614
  491SOL    HW3 2011   0.086   1.173   1.164 -0.4577  1.1485  1.8145
  491SOL    MW4 2012   0.010   1.139   1.142  0.4401  0.2295  0.0573
  492SOL     OW 2013   0.236   1.257   1.197 -0.1684  0.1207 -0.1095
  492SOL    HW2 2014   0.309   1.205   1.162  0.1746  1.8394 -2.0669
  492SOL    HW3 2015   0.240   1.339   1.148 -2.8974  0.5768  0.3621
  492SOL    MW4 2016   0.246   1.261   1.186 -0.4832  0.4077 -0.3055
  493SOL     OW 2017   2.701   1.874   0.855 -0.2858  0.0760  0.2506
  493SOL    HW2 2018   2.618   1.851   0.813 -0.2402 -2.1162  1.2743
  493SOL    HW3 2019   2.683   1.866   0.949  1.0810 -0.4882  0.4819
  493SOL    MW4 2020   2.688   1.870   0.862 -0.0994 -0.2877  0.4162
  494SOL     OW 2021   0.022   1.577   1.198 -0.4961  0.1313  0.3076
  494SOL    HW2 2022   0.006   1.671   1.195 -0.0537  0.2485  1.2809
  494SOL    HW3 2023  -0.054   1.538   1.156 -1.8504  0.8120  2.0736
  494SOL    MW4 2024   0.010   1.584   1.192 -0.6156  0.2365  0.6689
  495SOL     OW 2025   0.196   2.043   1.174 -0.3899 -0.2505  0.2963
  495SOL    HW2 2026   0.176   2.114   1.113 -1.8915 -0.4387  0.5556
  495SOL    HW3 2027   0.131   1.975   1.154  0.4793 -1.2027  0.6418
  495SOL    MW4 2028   0.185   2.043   1.163 -0.4733 -0.4010  0.3761
  496SOL     OW 2029   1.709   4.233   0.208 -0.1121 -0.1110  0.1338
  496SOL    HW2 2030   1.675   4.241   0.119  0.9842 -0.3895 -0.3123
  496SOL    HW3 2031   1.696   4.140   0.230  0.1515 -0.1715  0.0404
  496SOL    MW4 2032   1.703   4.221   0.199  0.0675 -0.1554  0.0626
  497SOL     OW 2033   0.200   2.300   1.060  0.2893  0.2741  0.2891
  497SOL    HW2 2034   0.270   2.332   1.118  0.0569 -1.6260  1.6508
  497SOL    HW3 2035   0.122   2.347   1.089  0.2221 -0.4914  1.3849
  497SOL    MW4 2036   0.199   2.311   1.072  0.2498 -0.0777  0.6132
  498SOL     OW 2037   4.461   2.702   1.067  0.3188 -0.2670  0.2584
  498SOL    HW2 2038   4.535   2.758   1.089  1.4883 -0.8779 -2.0252
  498SOL    HW3 2039   4.493   2.613   1.083 -0.5810 -0.4466  1.1271
  498SOL    MW4 2040   4.475   2.697   1.072  0.3543 -0.3712  0.0716
  499SOL     OW 2041   4.460   2.437   1.157 -0.1378 -0.2243 -0.0215
  499SOL    HW2 2042   4.371   2.405   1.146 -0.7232  1.2881  0.2154
  499SOL    HW3 2043   4.466   2.462   1.249  0.7420 -0.9556  0.1229
  499SOL    MW4 2044   4.449   2.436   1.167 -0.0987 -0.1209  0.0287
  500SOL     OW 2045   0.199   2.837   1.217 -0.1277 -0.2387  0.4969
  500SOL    HW2 2046   0.192   2.930   1.194  0.4033 -0.1512  0.6829
  500SOL    HW3 2047   0.189   2.835   1.312  0.5195 -0.2980  0.5694
  500SOL    MW4 2048   0.197   2.849   1.227  0.0277 -0.2348  0.5310
  501SOL     OW 2049   4.165   3.594   0.409  0.6077 -0.2183 -0.7784
  501SOL    HW2 2050   4.178   3.499   0.406 -1.3650 -0.5283 -0.6139
  501SOL    HW3 2051   4.106   3.607   0.483  1.5230  1.2332 -0.2861
  501SOL    MW4 2052   4.159   3.583   0.418  0.4678 -0.0679 -0.6917
  502SOL     OW 2053   4.258   3.101   1.042 -0.4562  0.1432  0.3911
  502SOL    HW2 2054   4.321   3.149   1.096  1.4051 -1.5008 -0.2755
  502SOL    HW3 2055   4.253   3.015   1.083  0.6260 -0.9737 -1.7946
  502SOL    MW4 2056   4.266   3.096   1.055 -0.0672 -0.2210  0.0147
  503SOL     OW 2057   4.488   3.501   1.112  0.0990 -0.4728 -0.0949
  503SOL    HW2 2058   4.465   3.483   1.021  0.6246 -0.0904 -0.3065
  503SOL    HW3 2059   4.414   3.550   1.147  1.2565  2.1678 -1.2243
  503SOL    MW4 2060   4.476   3.505   1.105  0.3209 -0.0744 -0.2718
  504SOL     OW 2061   0.225   3.628   1.209 -0.2687  0.3221 -0.2595
  504SOL    HW2 2062   0.222   3.620   1.305  0.5588  0.7010 -0.1929
  504SOL    HW3 2063   0.142   3.592   1.179 -0.6883  0.5303  0.6285
  504SOL    MW4 2064   0.214   3.622   1.218 -0.2149  0.3998 -0.1335
  505SOL     OW 2065   2.430   4.336   0.451 -0.1748  0.4480 -0.1842
  505SOL    HW2 2066   2.346   4.380   0.437 -0.8253 -0.4775  0.7918
  505SOL    HW3 2067   2.407   4.248   0.480  1.1335  0.1162 -0.1135
  505SOL    MW4 2068   2.416   4.331   0.453 -0.0877  0.2823 -0.0461
  506SOL     OW 2069   4.462   3.961   1.214  0.1575  0.4946 -0.0596
  506SOL    HW2 2070   4.440   3.987   1.304 -0.3558 -0.4386  0.0886
  506SOL    HW3 2071   4.380   3.927   1.178  0.6306 -0.1635 -0.5164
  506SOL    MW4 2072   4.448   3.960   1.221  0.1521  0.2847 -0.1003
  507SOL     OW 2073   0.158   4.378   1.246 -0.1587  0.1279 -0.1463
  507SOL    HW2 2074   0.174   4.377   1.341 -1.2968  0.0983  0.0624
  507SOL    HW3 2075   0.173   4.469   1.220 -0.5801  0.2971  0.2018
  507SOL    MW4 2076   0.162   4.390   1.255 -0.3644  0.1459 -0.0730
  508SOL     OW 2077   1.331   0.656   0.676  0.3250 -0.3352 -0.4263
  508SOL    HW2 2078   1.271   0.720   0.714  0.0158 -1.3216  0.7865
  508SOL    HW3 2079   1.417   0.681   0.710  0.4020  0.2232 -1.0211
  508SOL    MW4 2080   1.335   0.668   0.686  0.2943 -0.3917 -0.3448
  509SOL     OW 2081   2.006   1.005   0.698 -0.1312 -0.2341 -0.3500
  509SOL    HW2 2082   2.091   1.038   0.728 -0.2350  0.8586 -1.2219
  509SOL    HW3 2083   1.988   0.930   0.755  0.9895  0.0816  0.4383
  509SOL    MW4 2084   2.015   0.999   0.709  0.0029 -0.0483 -0.3611
  510SOL     OW 2085   0.175   0.603   0.384 -0.3363  0.0963  0.1689
  510SOL    HW2 2086   0.158   0.690   0.419  1.0453  0.2917  0.4004
  510SOL    HW3 2087   0.253   0.573   0.431 -0.9602 -1.3714  0.2743
  510SOL    MW4 2088   0.183   0.611   0.395 -0.2364 -0.0715  0.2134
  511SOL     OW 2089   0.434   0.344   1.164  0.2250  0.3174  0.2309
  511SOL    HW2 2090   0.434   0.336   1.069  1.5081  1.5298  0.1158
  511SOL    HW3 2091   0.350   0.387   1.184  0.5185  1.2398 -0.4716
  511SOL    MW4 2092   0.423   0.349   1.154  0.4330  0.5991  0.1229
  512SOL     OW 2093   0.874   0.087   1.183  0.0400 -0.6822 -0.1174
  512SOL    HW2 2094   0.869   0.094   1.278  0.1013 -0.1120 -0.1551
  512SOL    HW3 2095   0.906   0.172   1.154  0.5917 -1.0498 -0.6036
  512SOL    MW4 2096   0.878   0.099   1.192  0.1209 -0.6554 -0.1863
  513SOL     OW 2097   1.931   3.896   0.396  0.1588  0.5352  0.5233
  513SOL    HW2 2098   1.983   3.976   0.407  0.9965  0.1212 -0.2618
  513SOL    HW3 2099   1.995   3.825   0.407 -0.9226 -0.1018  3.1138
  513SOL    MW4 2100   1.947   3.897   0.399  0.1267  0.3967  0.7615
  514SOL     OW 2101   0.455   0.862   1.206  0.1735 -0.0382 -0.3496
  514SOL    HW2 2102   0.452   0.861   1.302 -0.5834 -0.5219 -0.3757
  514SOL    HW3 2103   0.439   0.953   1.183 -0.6999 -0.1006 -0.0360
  514SOL    MW4 2104   0.452   0.874   1.216 -0.0416 -0.1103 -0.3116
  515SOL     OW 2105   0.468   1.349   0.459  0.4857 -0.1143  0.2372
  515SOL    HW2 2106   0.458   1.358   0.553  0.8296  0.2797  0.2382
  515SOL    HW3 2107   0.398   1.403   0.422  0.7993  0.3167  0.2649
  515SOL    MW4 2108   0.458   1.357   0.466  0.5725 -0.0054  0.2411
  516SOL     OW 2109   0.906   1.161   1.111 -0.3720 -0.4184 -0.4214
  516SOL    HW2 2110   0.976   1.220   1.137  0.1841 -1.5154  0.6169
  516SOL    HW3 2111   0.893   1.178   1.018 -1.4023  2.5502  0.2222
  516SOL    MW4 2112   0.913   1.171   1.102 -0.4345 -0.1715 -0.1994
  517SOL     OW 2113   0.666   1.271   1.244 -0.1119  0.0112  0.0993
  517SOL    HW2 2114   0.682   1.362   1.219  2.3774 -0.1324  1.0333
  517SOL    HW3 2115   0.742   1.223   1.211 -0.6493 -1.4657  0.9707
  517SOL    MW4 2116   0.678   1.277   1.237  0.1456 -0.2027  0.3375
  518SOL     OW 2117   0.470   1.670   1.186  0.2847  0.4345  0.5965
  518SOL    HW2 2118   0.398   1.623   1.144  1.2719  0.6011 -1.2954
  518SOL    HW3 2119   0.454   1.658   1.280 -1.6383 -0.3807  0.1929
  518SOL    MW4 2120   0.458   1.662   1.193  0.1612  0.3488  0.2936
  519SOL     OW 2121   0.463   1.943   1.128 -0.1893 -0.0689 -0.7106
  519SOL    HW2 2122   0.464   1.852   1.157 -0.2360  0.1513  0.0074
  519SOL    HW3 2123   0.371   1.969   1.136  0.0318  0.4181  0.3115
  519SOL    MW4 2124   0.451   1.935   1.133 -0.1663  0.0244 -0.4810
  520SOL     OW 2125   0.687   2.059   1.232  0.2120  0.3202  0.5227
  520SOL    HW2 2126   0.680   2.072   1.326  0.3875  1.5559  0.3672
  520SOL    HW3 2127   0.604   2.017   1.207  0.3771 -0.4886  1.2908
  520SOL    MW4 2128   0.675   2.055   1.241  0.2569  0.3767  0.6036
  521SOL     OW 2129   0.663   2.298   1.110  0.3865 -0.0720  0.6861
  521SOL    HW2 2130   0.680   2.219   1.161 -0.1058  1.1330  2.7664
  521SOL    HW3 2131   0.639   2.266   1.023 -1.3109 -2.2670  1.9330
  521SOL    MW4 2132   0.662   2.283   1.105  0.0975 -0.2024  1.1251
  522SOL     OW 2133   0.410   2.406   1.183 -0.1041  0.0440 -0.0379
  522SOL    HW2 2134   0.426   2.445   1.269 -1.0338  1.0642 -0.3168
  522SOL    HW3 2135   0.492   2.362   1.161  0.7920  1.4075  0.5174
  522SOL    MW4 2136   0.423   2.406   1.191 -0.1085  0.3588 -0.0014
  523SOL     OW 2137   1.837   1.400   0.699 -0.4138 -0.2446 -0.4464
  523SOL    HW2 2138   1.769   1.462   0.723 -0.4165 -0.1164 -0.7806
  523SOL    HW3 2139   1.846   1.410   0.604 -0.7199 -1.0618 -0.5686
  523SOL    MW4 2140   1.829   1.409   0.689 -0.4544 -0.3356 -0.5067
  524SOL     OW 2141   1.868   2.602   0.423 -0.1838 -0.5213 -0.4763
  524SOL    HW2 2142   1.826   2.687   0.434 -0.2659 -0.3994 -1.6246
  524SOL    HW3 2143   1.959   2.622   0.404  0.4291 -0.7890  1.9889
  524SOL    MW4 2144   1.874   2.616   0.422 -0.1137 -0.5405 -0.3026
  525SOL     OW 2145   0.436   2.679   1.144  0.3814 -0.5582  0.2894
  525SOL    HW2 2146   0.352   2.712   1.176 -1.3335 -1.9788 -2.5529
  525SOL    HW3 2147   0.431   2.584   1.158  1.8911 -0.5635  0.8758
  525SOL    MW4 2148   0.424   2.671   1.150  0.3543 -0.7463 -0.0083
  526SOL     OW 2149   0.452   3.205   1.194  0.1136 -0.0686 -0.0812
  526SOL    HW2 2150   0.440   3.296   1.168 -1.2558 -0.5100 -1.0030
  526SOL    HW3 2151   0.544   3.187   1.175  0.3589  1.0622 -0.0243
  526SOL    MW4 2152   0.463   3.215   1.188 -0.0347  0.0224 -0.1953
  527SOL     OW 2153   0.650   3.611   1.177 -0.4230  0.3028 -0.0994
  527SOL    HW2 2154   0.635   3.620   1.272 -1.0686 -1.3892 -0.0351
  527SOL    HW3 2155   0.573   3.565   1.145  0.4452 -0.3656 -1.2406
  527SOL    MW4 2156   0.638   3.606   1.186 -0.3937 -0.0086 -0.2414
  528SOL     OW 2157   0.621   3.919   1.132  0.1115 -0.2739  0.3803
  528SOL    HW2 2158   0.633   3.825   1.143 -0.5585 -0.4849 -0.6560
  528SOL    HW3 2159   0.539   3.939   1.177  0.5139 -0.0926  1.0417
  528SOL    MW4 2160   0.612   3.909   1.140  0.0762 -0.2780  0.3308
  529SOL     OW 2161   0.875   3.982   1.226  0.2738 -0.1938 -0.1501
  529SOL    HW2 2162   0.784   3.965   1.203 -0.0504  0.0986  0.9181
  529SOL    HW3 2163   0.876   3.988   1.321  1.4052 -0.1672 -0.1517
  529SOL    MW4 2164   0.863   3.980   1.236  0.3803 -0.1516 -0.0094
  530SOL     OW 2165   0.153   3.349   0.700 -1.0338 -0.1530  0.0112
  530SOL    HW2 2166   0.240   3.381   0.674 -1.4044  0.4976 -0.4294
  530SOL    HW3 2167   0.172   3.274   0.757 -0.1190  1.2688  1.6351
  530SOL    MW4 2168   0.167   3.343   0.704 -0.9620  0.1202  0.1673
  531SOL     OW 2169   0.375   3.986   1.224 -0.1260  0.4441  0.0945
  531SOL    HW2 2170   0.322   3.939   1.160 -0.0409  0.3322  0.1072
  531SOL    HW3 2171   0.360   4.078   1.204  0.3662  0.4009 -0.4619
  531SOL    MW4 2172   0.366   3.992   1.213 -0.0499  0.4237  0.0228
  532SOL     OW 2173   0.599   4.355   1.220 -0.6840 -0.1428 -0.1821
  532SOL    HW2 2174   0.592   4.377   1.313 -2.5968  0.2199 -0.3997
  532SOL    HW3 2175   0.596   4.440   1.175  1.0098 -0.2533 -0.5676
  532SOL    MW4 2176   0.598   4.369   1.226 -0.7129 -0.1092 -0.2618
  533SOL     OW 2177   3.352   1.858   0.818  0.1104  0.2467  0.1793
  533SOL    HW2 2178   3.267   1.895   0.841  0.3111  0.8023  0.0482
  533SOL    HW3 2179   3.353   1.771   0.857 -0.7289  0.0289 -0.2742
  533SOL    MW4 2180   3.341   1.851   0.826  0.0262  0.2913  0.1022
  534SOL     OW 2181   0.655   0.483   1.239 -0.3950  0.1970  0.6822
  534SOL    HW2 2182   0.569   0.457   1.206  0.6395 -1.6723 -0.6563
  534SOL    HW3 2183   0.648   0.473   1.334 -1.2088 -1.3509  0.4744
  534SOL    MW4 2184   0.642   0.478   1.247 -0.3659 -0.2539  0.4783
  535SOL     OW 2185   2.248   4.268   0.860  0.0639 -0.2373  0.1245
  535SOL    HW2 2186   2.233   4.360   0.838 -0.1134 -0.0696  0.9407
  535SOL    HW3 2187   2.186   4.220   0.805  1.7964 -0.0525 -2.0858
  535SOL    MW4 2188   2.238   4.274   0.850  0.2692 -0.1907 -0.0594
  536SOL     OW 2189   0.151   0.201   0.568 -0.5317  0.4466  0.3744
  536SOL    HW2 2190   0.175   0.205   0.660  1.7942  0.3151 -0.1906
  536SOL    HW3 2191   0.112   0.286   0.549  0.5525  1.1050  1.0781
  536SOL    MW4 2192   0.149   0.213   0.577 -0.0817  0.5161  0.3927
  537SOL     OW 2193   3.962   0.200   0.512  0.3643 -0.0404 -0.1169
  537SOL    HW2 2194   4.024   0.273   0.500  0.0914  0.1304 -0.5122
  537SOL    HW3 2195   4.018   0.122   0.518  0.7454  0.3592  1.7997
  537SOL    MW4 2196   3.978   0.200   0.511  0.3786  0.0348  0.0839
  538SOL     OW 2197   0.684   0.735   1.145  0.1608 -0.1152 -0.4069
  538SOL    HW2 2198   0.682   0.652   1.194  1.2631 -0.2450 -0.5715
  538SOL    HW3 2199   0.595   0.769   1.153  0.1555 -0.4365  1.1831
  538SOL    MW4 2200   0.672   0.728   1.152  0.3055 -0.1747 -0.2189
  539SOL     OW 2201   1.100   1.321   1.224  0.1591  0.2574  0.0647
  539SOL    HW2 2202   1.090   1.318   1.320 -0.5506  0.4769  0.0020
  539SOL    HW3 2203   1.180   1.272   1.207  0.5326  0.5958  0.8121
  539SOL    MW4 2204   1.109   1.314   1.235  0.1147  0.3310  0.1551
  540SOL     OW 2205   1.103   1.559   1.104  0.0899 -0.4386 -0.5365
  540SOL    HW2 2206   1.087   1.470   1.137  0.5981 -0.1938  0.3866
  540SOL    HW3 2207   1.111   1.548   1.010  2.0436 -1.6507 -0.2625
  540SOL    MW4 2208   1.102   1.545   1.096  0.4146 -0.5662 -0.3786
  541SOL     OW 2209   1.794   1.654   1.178 -0.1441  0.1558  0.1754
  541SOL    HW2 2210   1.718   1.597   1.171  0.6556 -0.7859 -0.8397
  541SOL    HW3 2211   1.868   1.600   1.151  1.1325  0.5422  2.7290
  541SOL    MW4 2212   1.794   1.640   1.174  0.1298  0.0825  0.3786
  542SOL     OW 2213   2.225   0.382   0.821  0.0016  0.0838  0.1475
  542SOL    HW2 2214   2.303   0.346   0.781  0.4044 -0.1988  1.1712
  542SOL    HW3 2215   2.153   0.329   0.787  0.5466 -1.4736  1.3542
  542SOL    MW4 2216   2.226   0.370   0.811  0.1266 -0.1589  0.4418
  543SOL     OW 2217   0.883   1.688   1.235 -0.0100 -0.4578  0.2649
  543SOL    HW2 2218   0.963   1.649   1.199  0.7864  0.7603  0.6853
  543SOL    HW3 2219   0.882   1.777   1.201 -1.0248 -0.3675  0.5241
  543SOL    MW4 2220   0.893   1.694   1.226 -0.0388 -0.2851  0.3545
  544SOL     OW 2221   1.087   2.310   1.119 -0.0138 -0.3135  0.2751
  544SOL    HW2 2222   1.006   2.359   1.130  0.2181  0.3100 -0.7433
  544SOL    HW3 2223   1.153   2.363   1.164  0.0760 -0.1319 -0.0693
  544SOL    MW4 2224   1.085   2.324   1.127  0.0286 -0.2072  0.0952
  545SOL     OW 2225   0.873   2.458   1.215 -0.1611 -0.2211  0.1790
  545SOL    HW2 2226   0.787   2.428   1.185 -0.2058  0.6507 -0.5723
  545SOL    HW3 2227   0.870   2.448   1.310 -0.4934 -1.7434  0.0074
  545SOL    MW4 2228   0.861   2.453   1.224 -0.2109 -0.3071  0.0572
  546SOL     OW 2229   0.920   2.725   1.155 -0.7192 -0.3923 -0.0061
  546SOL    HW2 2230   0.906   2.641   1.199  0.2435  0.8819  2.8731
  546SOL    HW3 2231   0.844   2.778   1.181 -0.5045  0.1463 -0.4859
  546SOL    MW4 2232   0.908   2.720   1.164 -0.5639 -0.1531  0.3103
  547SOL     OW 2233   3.027   2.171   0.473 -0.4680  0.6977 -0.2210
  547SOL    HW2 2234   2.934   2.151   0.462 -0.4522  0.9534 -0.8227
  547SOL    HW3 2235   3.039   2.178   0.568 -1.0589  0.6613 -0.1441
  547SOL    MW4 2236   3.017   2.169   0.484 -0.5438  0.7269 -0.2902
  548SOL     OW 2237   1.305   2.424   1.227 -0.2202 -0.0631  0.5876
  548SOL    HW2 2238   1.297   2.514   1.195  0.9556 -0.0584  0.2912
  548SOL    HW3 2239   1.301   2.432   1.322 -0.1394  0.3021  0.5627
  548SOL    MW4 2240   1.303   2.437   1.235 -0.0545 -0.0143  0.5453
  549SOL     OW 2241   1.146   2.847   1.259 -0.2250  0.1324  0.0841
  549SOL    HW2 2242   1.133   2.849   1.354 -1.0896  1.2627 -0.0405
  549SOL    HW3 2243   1.061   2.819   1.224  0.2319 -0.7286 -0.3295
  549SOL    MW4 2244   1.133   2.844   1.267 -0.2788  0.1678  0.0130
  550SOL     OW 2245   0.901   3.490   1.067 -0.1842  0.0658  0.1937
  550SOL    HW2 2246   0.897   3.509   0.973  0.6449 -1.3490 -0.1344
  550SOL    HW3 2247   0.823   3.533   1.103 -1.0096 -0.1651 -1.2747
  550SOL    MW4 2248   0.891   3.498   1.059 -0.1837 -0.1514 -0.0434
  551SOL     OW 2249   0.431   3.465   1.102  0.4642 -0.1751  0.0367
  551SOL    HW2 2250   0.440   3.496   1.012 -0.4796 -0.1838 -0.0661
  551SOL    HW3 2251   0.359   3.517   1.138  0.2173 -0.8271  0.4945
  551SOL    MW4 2252   0.423   3.476   1.095  0.3071 -0.2623  0.0833
  552SOL     OW 2253   1.367   3.495   1.137  0.0843 -0.1489  0.1754
  552SOL    HW2 2254   1.445   3.546   1.159  1.1802 -1.4422 -0.6656
  552SOL    HW3 2255   1.374   3.478   1.043 -1.3564 -0.0426  0.0269
  552SOL    MW4 2256   1.378   3.499   1.128  0.0387 -0.3054  0.0449
  553SOL     OW 2257   1.156   0.790   0.849  0.1850 -0.4256 -0.2904
  553SOL    HW2 2258   1.079   0.742   0.818  1.2471 -1.4615 -1.4147
  553SOL    HW3 2259   1.138   0.810   0.941 -1.0898 -1.3269 -0.3420
  553SOL    MW4 2260   1.144   0.786   0.857  0.1569 -0.6812 -0.4455
  554SOL     OW 2261   0.857   4.251   1.154  0.5151 -0.3824 -0.3738
  554SOL    HW2 2262   0.775   4.281   1.194 -1.1029 -0.3478 -3.5394
  554SOL    HW3 2263   0.866   4.160   1.182 -1.1477 -0.6854 -0.7837
  554SOL    MW4 2264   0.847   4.243   1.163  0.0823 -0.4177 -0.8456
  555SOL     OW 2265   3.825   3.229   0.498  0.0914  0.5731  0.3945
  555SOL    HW2 2266   3.763   3.195   0.433  0.8349 -1.5519  0.7756
  555SOL    HW3 2267   3.909   3.190   0.474  0.6231  0.7991  1.8727
  555SOL    MW4 2268   3.828   3.219   0.486  0.2596  0.3226  0.6398
  556SOL     OW 2269   1.107   4.340   1.267  0.1555 -0.0246  0.1721
  556SOL    HW2 2270   1.103   4.355   1.361 -2.0433 -0.9206  0.2670
  556SOL    HW3 2271   1.017   4.316   1.243  0.5285  0.8021 -2.2518
  556SOL    MW4 2272   1.094   4.339   1.276 -0.0855 -0.0334 -0.1351
  557SOL     OW 2273   1.529   4.408   1.191  0.3942  0.2664 -0.1911
  557SOL    HW2 2274   1.442   4.378   1.163  0.8210 -0.5690 -0.6504
  557SOL    HW3 2275   1.526   4.403   1.287  0.0512 -0.1086 -0.2198
  557SOL    MW4 2276   1.517   4.403   1.200  0.4053  0.1068 -0.2555
  558SOL     OW 2277   1.257   0.132   1.235  0.3622  0.1165 -0.1769
  558SOL    HW2 2278   1.188   0.079   1.195 -0.6417  1.9726 -0.9497
  558SOL    HW3 2279   1.339   0.093   1.204 -0.3618 -0.5603 -1.2657
  558SOL    MW4 2280   1.259   0.119   1.226  0.1343  0.2721 -0.4226
  559SOL     OW 2281   1.534   0.497   1.259  0.6490 -0.0290 -0.4109
  559SOL    HW2 2282   1.451   0.459   1.230  0.7543  0.0448 -0.8162
  559SOL    HW3 2283   1.529   0.589   1.232  2.1096 -0.7102 -3.2087
  559SOL    MW4 2284   1.522   0.504   1.252  0.8557 -0.1091 -0.8335
  560SOL     OW 2285   2.004   0.493   1.191  0.2985  0.5635 -0.2825
  560SOL    HW2 2286   2.017   0.464   1.281  1.8284 -0.2863 -0.7638
  560SOL    HW3 2287   1.935   0.436   1.158  0.9927 -0.3493 -0.1928
  560SOL    MW4 2288   1.997   0.481   1.199  0.5918  0.3309 -0.3343
  561SOL     OW 2289   1.543   0.756   1.115 -0.0653 -0.3365 -0.2395
  561SOL    HW2 2290   1.475   0.819   1.137  0.0819 -0.7201  1.3780
  561SOL    HW3 2291   1.625   0.799   1.138  0.0663 -0.9115  0.4026
  561SOL    MW4 2292   1.545   0.770   1.120 -0.0285 -0.4629  0.0587
  562SOL     OW 2293   0.881   0.919   1.256  0.5201  0.5910 -0.1825
  562SOL    HW2 2294   0.877   0.999   1.204  0.5134  0.1912 -0.8171
  562SOL    HW3 2295   0.833   0.855   1.204  1.5131 -0.1241 -0.2520
  562SOL    MW4 2296   0.874   0.921   1.242  0.6502  0.4439 -0.2754
  563SOL     OW 2297   1.778   0.893   1.213  0.7472 -0.3669 -0.2171
  563SOL    HW2 2298   1.771   0.896   1.309 -0.5668 -0.8123 -0.2844
  563SOL    HW3 2299   1.855   0.839   1.197  1.7657  0.8150  0.5917
  563SOL    MW4 2300   1.787   0.886   1.224  0.7082 -0.2697 -0.1193
  564SOL     OW 2301   2.491   4.114   0.759 -0.2709  0.3140 -0.1118
  564SOL    HW2 2302   2.455   4.096   0.672 -0.5725 -1.1959  0.3117
  564SOL    HW3 2303   2.421   4.163   0.803 -0.8140 -0.4278 -0.1367
  564SOL    MW4 2304   2.477   4.119   0.753 -0.3824  0.0167 -0.0592
  565SOL     OW 2305   3.164   2.654   0.202 -0.3818 -0.2315 -0.2422
  565SOL    HW2 2306   3.157   2.558   0.204 -1.3969 -0.1518  1.7809
  565SOL    HW3 2307   3.257   2.671   0.216 -0.4954 -0.9273  1.5386
  565SOL    MW4 2308   3.175   2.643   0.204 -0.5307 -0.3128  0.2597
  566SOL     OW 2309   1.103   1.036   0.751 -0.2017 -0.3676  0.3507
  566SOL    HW2 2310   1.120   1.028   0.657 -2.1922 -0.5125 -0.0253
  566SOL    HW3 2311   1.114   0.947   0.785 -0.0896 -0.4311  0.1469
  566SOL    MW4 2312   1.106   1.023   0.743 -0.4493 -0.3951  0.2742
  567SOL     OW 2313   1.566   2.055   1.217 -0.5551  0.1821 -0.0510
  567SOL    HW2 2314   1.637   1.994   1.194 -1.3327 -0.7377 -0.0501
  567SOL    HW3 2315   1.486   2.009   1.191 -1.0879  1.7947 -1.4015
  567SOL    MW4 2316   1.565   2.041   1.210 -0.7280  0.2737 -0.2290
  568SOL     OW 2317   1.575   2.317   1.142 -0.4551  0.0209  0.2288
  568SOL    HW2 2318   1.493   2.354   1.173 -0.1812  0.1982  0.7466
  568SOL    HW3 2319   1.570   2.224   1.165 -0.3891  0.0883  0.5128
  568SOL    MW4 2320   1.564   2.309   1.149 -0.4102  0.0534  0.3346
  569SOL     OW 2321   1.147   2.021   0.353 -0.3581  0.2679  0.2291
  569SOL    HW2 2322   1.064   2.070   0.358 -0.8556 -0.6390  0.9787
  569SOL    HW3 2323   1.170   2.022   0.260 -1.5911 -0.0984 -0.0896
  569SOL    MW4 2324   1.139   2.028   0.342 -0.5865  0.0999  0.2860
  570SOL     OW 2325   2.464   1.002   0.775 -0.1739 -0.0198  0.2563
  570SOL    HW2 2326   2.459   1.021   0.682  0.5259 -0.9414  0.0254
  570SOL    HW3 2327   2.547   1.041   0.803 -0.3244  0.1477  0.4697
  570SOL    MW4 2328   2.474   1.010   0.767 -0.1016 -0.1193  0.2541
  571SOL     OW 2329   3.054   3.879   0.450  0.0715  0.2759 -0.0114
  571SOL    HW2 2330   3.028   3.828   0.374 -1.1723  0.2206  0.4358
  571SOL    HW3 2331   3.140   3.846   0.474 -0.2580 -0.8601 -0.3862
  571SOL    MW4 2332   3.062   3.868   0.443 -0.1361  0.1187 -0.0018
  572SOL     OW 2333   3.773   1.548   0.631  0.0211 -0.0436  0.0386
  572SOL    HW2 2334   3.860   1.508   0.630  0.1402  0.2036  0.3177
  572SOL    HW3 2335   3.740   1.538   0.541  0.3219 -0.1671 -0.0569
  572SOL    MW4 2336   3.780   1.541   0.619  0.0765 -0.0273  0.0628
  573SOL     OW 2337   4.454   4.218   1.109 -0.3846  0.2440  0.4121
  573SOL    HW2 2338   4.463   4.127   1.138  0.6739  0.3195  0.3115
  573SOL    HW3 2339   4.533   4.262   1.140 -0.6790  1.0330  0.0682
  573SOL    MW4 2340   4.465   4.212   1.117 -0.2847  0.3581  0.3533
  574SOL     OW 2341   3.127   4.535   0.754  0.1362  0.0917  0.3660
  574SOL    HW2 2342   3.141   4.534   0.659  0.9193  0.3648  0.4745
  574SOL    HW3 2343   3.046   4.584   0.766 -0.7592 -1.2265 -0.2568
  574SOL    MW4 2344   3.118   4.541   0.743  0.1214 -0.0463  0.2981
  575SOL     OW 2345   0.424   2.131   0.688  0.3028  0.2811 -0.3228
  575SOL    HW2 2346   0.341   2.174   0.711 -0.0789 -0.6209  0.0134
  575SOL    HW3 2347   0.423   2.049   0.738  0.9912 -0.1571 -1.0175
  575SOL    MW4 2348   0.413   2.126   0.698  0.3433  0.1042 -0.3701
  576SOL     OW 2349   2.477   1.586   1.194  0.6215  0.0354 -0.0049
  576SOL    HW2 2350   2.458   1.580   1.100 -0.0178 -2.3933  0.2524
  576SOL    HW3 2351   2.400   1.629   1.231 -0.2943 -1.3461 -0.2561
  576SOL    MW4 2352   2.464   1.591   1.186  0.4163 -0.4674 -0.0043
  577SOL     OW 2353   2.610   3.117   0.495  0.1780  0.3949  0.1988
  577SOL    HW2 2354   2.642   3.051   0.433 -0.1278  0.5524 -0.1248
  577SOL    HW3 2355   2.516   3.101   0.501  0.1937  0.4264  0.5690
  577SOL    MW4 2356   2.602   3.106   0.488  0.1397  0.4199  0.2050
  578SOL     OW 2357   1.357   4.003   1.158  0.0594 -0.1608  0.2339
  578SOL    HW2 2358   1.442   3.972   1.126  0.1482  0.3877 -0.0766
  578SOL    HW3 2359   1.294   3.938   1.128  0.2206  0.0431 -0.5354
  578SOL    MW4 2360   1.360   3.990   1.150  0.0921 -0.0613  0.0916
  579SOL     OW 2361   1.249   4.221   1.041 -0.2006  0.1684  0.7123
  579SOL    HW2 2362   1.202   4.264   1.113  1.4563  1.8138  0.8509
  579SOL    HW3 2363   1.296   4.150   1.084  1.0331  1.3373  1.3511
  579SOL    MW4 2364   1.249   4.218   1.056  0.1808  0.5403  0.8149
  580SOL     OW 2365   1.785   4.329   1.102 -0.2637  0.4073  0.2952
  580SOL    HW2 2366   1.699   4.365   1.122 -1.0582 -1.3914  0.1882
  580SOL    HW3 2367   1.776   4.293   1.013  0.0455 -1.4088  0.9741
  580SOL    MW4 2368   1.773   4.329   1.093 -0.3278 -0.0701  0.3706
  581SOL     OW 2369   2.243   0.125   1.211 -0.3631 -0.2142 -0.6465
  581SOL    HW2 2370   2.324   0.088   1.179  0.5208  0.6657  0.5154
  581SOL    HW3 2371   2.248   0.218   1.188  0.0627  0.3307  1.5242
  581SOL    MW4 2372   2.254   0.132   1.204 -0.1903 -0.0263 -0.2068
  582SOL     OW 2373   1.780   0.347   1.132 -0.3014  0.3388 -0.0685
  582SOL    HW2 2374   1.751   0.344   1.041  0.4741  2.0513 -0.3985
  582SOL    HW3 2375   1.712   0.397   1.177  0.4611  1.5116 -0.1899
  582SOL    MW4 2376   1.767   0.353   1.126 -0.0983  0.7195 -0.1280
  583SOL     OW 2377   4.374   2.105   0.041  0.1991 -0.8062  0.1174
  583SOL    HW2 2378   4.401   2.196   0.050  0.2227 -0.7338 -0.6720
  583SOL    HW3 2379   4.453   2.059   0.012 -0.0836 -0.8896 -0.5332
  583SOL    MW4 2380   4.388   2.111   0.038  0.1650 -0.8078 -0.0726
  584SOL     OW 2381   2.232   0.383   1.102 -0.1921 -0.0614 -0.2494
  584SOL    HW2 2382   2.152   0.422   1.136 -0.7366  0.4997 -2.1016
  584SOL    HW3 2383   2.230   0.402   1.008  1.5091 -1.0978 -0.5223
  584SOL    MW4 2384   2.221   0.391   1.094 -0.0396 -0.1241 -0.5298
  585SOL     OW 2385   3.132   2.693   1.112  0.0168 -0.2234  0.5501
  585SOL    HW2 2386   3.143   2.713   1.019  0.1544 -0.0216  0.6102
  585SOL    HW3 2387   3.064   2.753   1.142 -0.2082 -0.4631  0.5209
  585SOL    MW4 2388   3.125   2.703   1.103  0.0050 -0.2286  0.5542
  586SOL     OW 2389   0.435   3.587   0.437  0.3368  0.1784 -0.0995
  586SOL    HW2 2390   0.349   3.568   0.402 -0.7255 -1.7128  3.3181
  586SOL    HW3 2391   0.419   3.652   0.506  1.6542 -0.0127  0.4082
  586SOL    MW4 2392   0.422   3.593   0.442  0.3705 -0.0963  0.4184
  587SOL     OW 2393   2.038   2.903   0.874 -0.1750  0.2551  0.2379
  587SOL    HW2 2394   2.103   2.954   0.826 -1.6824 -0.0541 -2.2288
  587SOL    HW3 2395   2.081   2.820   0.894 -0.0953 -0.3015 -2.1810
  587SOL    MW4 2396   2.052   2.899   0.871 -0.3633  0.1409 -0.4067
  588SOL     OW 2397   0.098   1.694   0.231 -0.0581 -0.0364 -0.3225
  588SOL    HW2 2398   0.012   1.677   0.269 -0.2218 -0.3188 -0.8103
  588SOL    HW3 2399   0.148   1.615   0.250  1.0862  1.3543  2.6894
  588SOL    MW4 2400   0.093   1.681   0.239  0.0713  0.1097  0.0105
  589SOL     OW 2401   2.208   1.682   1.244 -0.5242 -0.1211 -0.4946
  589SOL    HW2 2402   2.211   1.687   1.340 -0.4087 -0.8298 -0.4552
  589SOL    HW3 2403   2.206   1.773   1.215  0.3835  0.1085  0.1547
  589SOL    MW4 2404   2.208   1.694   1.253 -0.3891 -0.1843 -0.4036
  590SOL     OW 2405   1.600   3.923   0.802  0.1966 -0.2137 -0.1677
  590SOL    HW2 2406   1.601   4.016   0.779  0.6399  0.0492  0.8811
  590SOL    HW3 2407   1.639   3.880   0.726 -0.3234  0.4147 -0.8054
  590SOL    MW4 2408   1.605   3.930   0.789  0.1866 -0.0958 -0.1135
  591SOL     OW 2409   1.790   1.913   1.122  0.0319 -0.4127 -0.4066
  591SOL    HW2 2410   1.787   1.823   1.153 -0.7119  0.0073  0.7795
  591SOL    HW3 2411   1.857   1.955   1.176 -1.0229  0.2422  0.3900
  591SOL    MW4 2412   1.799   1.907   1.133 -0.2052 -0.2708 -0.1451
  592SOL     OW 2413   2.022   2.086   1.543  0.1343 -0.1529 -0.0612
  592SOL    HW2 2414   2.030   2.075   1.448  1.3181 -0.0960  0.0143
  592SOL    HW3 2415   1.937   2.049   1.565 -0.5146  0.5863 -1.2613
  592SOL    MW4 2416   2.012   2.080   1.533  0.2050 -0.0477 -0.2096
  593SOL     OW 2417   3.733   3.861   0.806  0.6216 -0.0365  0.1111
  593SOL    HW2 2418   3.697   3.774   0.793  0.5258  0.0348 -0.1026
  593SOL    HW3 2419   3.817   3.860   0.760  0.9771 -0.2599  0.7629
  593SOL    MW4 2420   3.740   3.849   0.798  0.6559 -0.0567  0.1689
  594SOL     OW 2421   4.229   1.530   0.788  0.0470  0.0511  0.1585
  594SOL    HW2 2422   4.141   1.511   0.756  0.3509  0.1052 -0.7346
  594SOL    HW3 2423   4.241   1.624   0.772  0.8747 -0.2757 -1.2836
  594SOL    MW4 2424   4.219   1.540   0.782  0.1965  0.0151 -0.1497
  595SOL     OW 2425   2.688   0.385   1.155 -0.0872 -0.4535  0.2366
  595SOL    HW2 2426   2.682   0.298   1.195  0.0006 -0.3077  0.5675
  595SOL    HW3 2427   2.612   0.432   1.188 -0.1978 -0.4378 -0.0337
  595SOL    MW4 2428   2.677   0.380   1.164 -0.0901 -0.4322  0.2446
  596SOL     OW 2429   2.228   2.150   0.438  0.8484  0.0997 -0.4720
  596SOL    HW2 2430   2.202   2.057   0.440  1.2010  0.0254  2.0245
  596SOL    HW3 2431   2.321   2.148   0.414  0.3496 -0.0242 -2.5518
  596SOL    MW4 2432   2.237   2.137   0.435  0.8292  0.0734 -0.4171
  597SOL     OW 2433   1.717   3.842   0.564  0.0565 -0.9215  0.5508
  597SOL    HW2 2434   1.782   3.851   0.494 -1.5557  1.8973 -0.6750
  597SOL    HW3 2435   1.633   3.842   0.519 -0.9538 -0.5570  2.3714
  597SOL    MW4 2436   1.715   3.843   0.549 -0.2894 -0.5016  0.6292
  598SOL     OW 2437   1.571   3.074   1.121 -0.3437 -0.5270 -0.5645
  598SOL    HW2 2438   1.498   3.131   1.147 -0.5951 -0.3155 -1.7076
  598SOL    HW3 2439   1.650   3.125   1.139 -0.5028 -0.5046  0.0709
  598SOL    MW4 2440   1.572   3.088   1.127 -0.3978 -0.4961 -0.6316
  599SOL     OW 2441   1.378   0.124   0.386 -0.1684  0.0897  0.0145
  599SOL    HW2 2442   1.456   0.171   0.415  0.5732 -1.2155  0.1775
  599SOL    HW3 2443   1.304   0.179   0.415  0.6689  1.2575 -0.0177
  599SOL    MW4 2444   1.378   0.138   0.393  0.0399  0.0716  0.0318
  600SOL     OW 2445   2.244   3.470   1.119 -0.2742  0.9047 -0.2697
  600SOL    HW2 2446   2.178   3.532   1.149 -1.1900 -0.2484  0.1500
  600SOL    HW3 2447   2.327   3.508   1.145 -0.7090  2.7518 -1.4876
  600SOL    MW4 2448   2.246   3.483   1.126 -0.4523  0.9964 -0.3752
  601SOL     OW 2449   2.027   3.628   1.232 -0.1649 -0.9249 -0.1420
  601SOL    HW2 2450   2.024   3.621   1.327  0.5253 -1.3418 -0.1416
  601SOL    HW3 2451   1.994   3.715   1.212  0.6852 -0.4438  0.5490
  601SOL    MW4 2452   2.022   3.638   1.242  0.0381 -0.9167 -0.0508
  602SOL     OW 2453   1.788   4.053   1.211 -0.9198  0.4743  0.2383
  602SOL    HW2 2454   1.778   4.047   1.306 -1.7454  0.9313  0.1874
  602SOL    HW3 2455   1.762   4.142   1.190 -1.6684  0.0849 -0.5232
  602SOL    MW4 2456   1.783   4.064   1.221 -1.1276  0.4830  0.1311
  603SOL     OW 2457   3.490   4.014   0.464  0.0877 -0.7881  0.0794
  603SOL    HW2 2458   3.452   4.059   0.539  0.2737 -2.8893  1.4879
  603SOL    HW3 2459   3.579   4.049   0.457 -0.2039  0.0086  0.3143
  603SOL    MW4 2460   3.497   4.024   0.473  0.0739 -0.9603  0.2962
  604SOL     OW 2461   2.031   4.394   1.213 -0.2093 -0.0827 -0.4431
  604SOL    HW2 2462   2.012   4.388   1.307 -0.6090  0.5137 -0.4829
  604SOL    HW3 2463   1.952   4.362   1.171 -0.3734  0.4963 -0.5851
  604SOL    MW4 2464   2.018   4.389   1.220 -0.2837  0.0725 -0.4672
  605SOL     OW 2465   2.690   4.226   1.092  0.1421  0.1954  0.4222
  605SOL    HW2 2466   2.610   4.263   1.129  1.3651  1.6206  1.7511
  605SOL    HW3 2467   2.702   4.143   1.138 -0.1640  0.3450  0.7703
  605SOL    MW4 2468   2.681   4.220   1.103  0.2630  0.4034  0.6434
  606SOL     OW 2469   2.730   2.907   0.356 -0.2244  0.3065 -0.1363
  606SOL    HW2 2470   2.819   2.901   0.324  0.0227  1.9154  0.2166
  606SOL    HW3 2471   2.679   2.849   0.299  0.7744  0.5809 -1.3085
  606SOL    MW4 2472   2.735   2.899   0.344 -0.0601  0.5548 -0.2444
  607SOL     OW 2473   2.185   4.475   0.491 -0.8346  0.5569  0.0907
  607SOL    HW2 2474   2.184   4.554   0.437  0.2664 -0.3769 -1.3285
  607SOL    HW3 2475   2.121   4.417   0.450 -1.0072  0.3677  0.6183
  607SOL    MW4 2476   2.177   4.477   0.478 -0.7122  0.4082 -0.0269
  608SOL     OW 2477   3.649   1.908   1.109  0.0736  0.0236  0.1271
  608SOL    HW2 2478   3.717   1.972   1.129  0.3504 -0.4830  0.8080
  608SOL    HW3 2479   3.630   1.922   1.016 -0.3571  1.5544  0.4286
  608SOL    MW4 2480   3.656   1.918   1.099  0.0532  0.1587  0.2568
  609SOL     OW 2481   2.470   0.804   1.172  0.1944 -0.3209  0.3798
  609SOL    HW2 2482   2.460   0.711   1.193 -3.6533 -0.0172  0.2441
  609SOL    HW3 2483   2.475   0.807   1.076  0.1273 -0.3741  0.3747
  609SOL    MW4 2484   2.469   0.792   1.162 -0.3221 -0.2878  0.3613
  610SOL     OW 2485   2.017   0.759   1.115  0.0224  0.3446  0.5619
  610SOL    HW2 2486   2.015   0.666   1.137  1.0538  0.1025 -0.3487
  610SOL    HW3 2487   2.013   0.762   1.020 -0.8824  1.2739  0.6153
  610SOL    MW4 2488   2.016   0.747   1.105  0.0391  0.4353  0.4488
  611SOL     OW 2489   1.862   1.441   0.399 -0.5060 -0.2563  0.1311
  611SOL    HW2 2490   1.950   1.406   0.388 -0.6909 -0.2311 -1.7002
  611SOL    HW3 2491   1.870   1.535   0.380 -0.9682 -0.3118 -0.3751
  611SOL    MW4 2492   1.875   1.449   0.395 -0.5914 -0.2602 -0.1773
  612SOL     OW 2493   0.382   2.019   0.190  0.1757  0.2377 -0.2329
  612SOL    HW2 2494   0.469   1.979   0.194  0.3077  0.5761  0.3415
  612SOL    HW3 2495   0.399   2.113   0.198 -0.3715  0.1885  1.7411
  612SOL    MW4 2496   0.396   2.026   0.191  0.1209  0.2761  0.1033
  613SOL     OW 2497   2.931   1.519   1.125  0.4027 -0.0332 -0.1332
  613SOL    HW2 2498   3.009   1.568   1.149  0.7114 -0.9556  0.7890
  613SOL    HW3 2499   2.942   1.434   1.167 -0.2771 -0.7883 -1.4296
  613SOL    MW4 2500   2.942   1.514   1.134  0.3538 -0.2545 -0.1824
  614SOL     OW 2501   2.021   2.043   1.251  0.0062  0.0468  0.1276
  614SOL    HW2 2502   2.100   2.012   1.207 -0.3100 -0.5959  0.0194
  614SOL    HW3 2503   2.005   2.129   1.213 -0.3534 -0.5688 -1.1311
  614SOL    MW4 2504   2.029   2.050   1.240 -0.0830 -0.1192 -0.0526
  615SOL     OW 2505   0.619   0.331   0.526 -0.1146  0.0164 -0.3391
  615SOL    HW2 2506   0.568   0.260   0.486  1.2172  0.2613 -2.5736
  615SOL    HW3 2507   0.705   0.325   0.483  1.1531  0.7472  2.0266
  615SOL    MW4 2508   0.624   0.321   0.515  0.2284  0.1452 -0.3218
  616SOL     OW 2509   4.107   0.584   0.473 -0.1525  0.1247 -0.1527
  616SOL    HW2 2510   4.090   0.587   0.567 -1.0685 -0.3874 -0.2988
  616SOL    HW3 2511   4.143   0.496   0.457  0.7166  0.4748 -0.1690
  616SOL    MW4 2512   4.110   0.573   0.483 -0.1588  0.1034 -0.1741
  617SOL     OW 2513   2.917   3.099   1.082 -0.9158 -0.1562  0.0092
  617SOL    HW2 2514   2.997   3.133   1.120 -0.1152 -0.7844 -1.0747
  617SOL    HW3 2515   2.911   3.009   1.116 -1.6684  0.1970  0.8365
  617SOL    MW4 2516   2.926   3.091   1.092 -0.9091 -0.1926 -0.0246
  618SOL     OW 2517   3.847   3.632   1.167 -0.4796 -0.3892  0.2419
  618SOL    HW2 2518   3.828   3.639   1.261 -1.7499 -0.6095  0.0066
  618SOL    HW3 2519   3.822   3.718   1.132 -0.3254 -0.4250  0.0481
  618SOL    MW4 2520   3.841   3.645   1.175 -0.6270 -0.4230  0.1854
  619SOL     OW 2521   2.017   2.291   1.123 -0.1148 -0.2673  0.0900
  619SOL    HW2 2522   1.998   2.322   1.035  0.5304 -1.9555 -0.6583
  619SOL    HW3 2523   2.087   2.348   1.154 -1.7163  1.6238  0.2923
  619SOL    MW4 2524   2.024   2.302   1.116 -0.2408 -0.2406  0.0180
  620SOL     OW 2525   2.458   2.851   1.496 -0.2794  0.3019 -0.1085
  620SOL    HW2 2526   2.381   2.805   1.528 -0.0775 -1.2036 -1.6943
  620SOL    HW3 2527   2.456   2.936   1.541 -3.7568  0.9581 -1.3673
  620SOL    MW4 2528   2.448   2.857   1.506 -0.7114  0.1900 -0.4838
  621SOL     OW 2529   3.122   0.664   0.595 -0.0645 -0.1262 -0.4315
  621SOL    HW2 2530   3.052   0.598   0.593  1.3229 -1.5913 -1.9772
  621SOL    HW3 2531   3.184   0.636   0.528  1.4394  1.8106  0.0904
  621SOL    MW4 2532   3.121   0.652   0.586  0.3171 -0.0640 -0.5665
  622SOL     OW 2533   2.261   3.202   1.207  0.1952  0.3776 -0.0180
  622SOL    HW2 2534   2.258   3.286   1.161 -0.8821  0.3976  0.0688
  622SOL    HW3 2535   2.234   3.224   1.297 -1.5000 -0.2698 -0.3401
  622SOL    MW4 2536   2.257   3.216   1.213 -0.1709  0.2949 -0.0491
  623SOL     OW 2537   2.912   2.589   0.711 -0.3619  0.4243  0.0313
  623SOL    HW2 2538   2.983   2.641   0.749  0.0840  0.1002 -0.3548
  623SOL    HW3 2539   2.933   2.584   0.617 -0.4356 -0.3881  0.0499
  623SOL    MW4 2540   2.924   2.595   0.703 -0.3128  0.2744 -0.0172
  624SOL     OW 2541   0.199   0.953   0.751 -0.3318 -0.4778  0.5333
  624SOL    HW2 2542   0.145   1.031   0.766  0.6154  0.0442  1.3098
  624SOL    HW3 2543   0.177   0.925   0.662  1.1119  2.1174 -0.6960
  624SOL    MW4 2544   0.189   0.960   0.741 -0.0163 -0.0665  0.4736
  625SOL     OW 2545   1.562   4.647   0.899  0.1588  0.0556 -0.1949
  625SOL    HW2 2546   1.535   4.680   0.985  2.0172 -1.1592  0.9024
  625SOL    HW3 2547   1.486   4.599   0.867 -1.7617  3.3099 -0.7801
  625SOL    MW4 2548   1.548   4.645   0.906  0.1507  0.3247 -0.1273
  626SOL     OW 2549   0.597   1.767   0.525 -0.3259 -0.3403  0.1025
  626SOL    HW2 2550   0.622   1.822   0.451 -0.3374  0.4153  0.6560
  626SOL    HW3 2551   0.501   1.772   0.527 -0.2515  1.1905  1.3188
  626SOL    MW4 2552   0.588   1.775   0.516 -0.3175 -0.0385  0.3359
  627SOL     OW 2553   3.436   0.764   0.888 -0.3708  0.1473  0.2412
  627SOL    HW2 2554   3.448   0.748   0.981  0.0259 -2.1743 -0.1738
  627SOL    HW3 2555   3.356   0.718   0.865 -0.1175  0.1481 -0.6880
  627SOL    MW4 2556   3.427   0.756   0.897 -0.2851 -0.1588  0.0638
  628SOL     OW 2557   4.239   0.317   0.493 -0.0368  0.2583 -0.8323
  628SOL    HW2 2558   4.253   0.229   0.456 -0.4254 -0.2353  0.1725
  628SOL    HW3 2559   4.327   0.353   0.503  0.2252 -0.6515  0.2466
  628SOL    MW4 2560   4.252   0.310   0.489 -0.0539  0.0732 -0.5574
  629SOL     OW 2561   3.169   0.105   1.227 -0.1902 -0.4106  0.0813
  629SOL    HW2 2562   3.153   0.091   1.321  0.7825  1.8252  0.5880
  629SOL    HW3 2563   3.081   0.106   1.188 -0.6588 -0.1955  1.1267
  629SOL    MW4 2564   3.155   0.103   1.234 -0.1240 -0.0872  0.2861
  630SOL     OW 2565   2.681   0.113   1.217 -0.0331  0.4508 -0.0621
  630SOL    HW2 2566   2.680   0.097   1.311 -0.4179  1.7879  0.1705
  630SOL    HW3 2567   2.762   0.073   1.186 -0.1848 -0.4782  0.7508
  630SOL    MW4 2568   2.691   0.106   1.225 -0.1040  0.5046  0.0757
  631SOL     OW 2569   2.450   0.519   1.220  0.5165 -0.3800  0.1214
  631SOL    HW2 2570   2.449   0.511   1.315  1.1816 -0.8050  0.0986
  631SOL    HW3 2571   2.372   0.472   1.191 -0.2626  0.6422  0.5111
  631SOL    MW4 2572   2.440   0.512   1.229  0.5014 -0.3012  0.1699
  632SOL     OW 2573   2.946   0.491   1.244  0.4700 -0.2184  0.1272
  632SOL    HW2 2574   2.861   0.461   1.211  0.7223 -0.3990 -0.3593
  632SOL    HW3 2575   2.947   0.585   1.225  0.3575 -0.2072  0.1765
  632SOL    MW4 2576   2.935   0.499   1.237  0.4880 -0.2407  0.0694
  633SOL     OW 2577   3.179   0.922   1.240  0.0636 -0.0516 -0.1244
  633SOL    HW2 2578   3.167   0.898   1.332 -0.5044  2.7756  0.6050
  633SOL    HW3 2579   3.102   0.886   1.196 -1.1254  0.9968  1.0401
  633SOL    MW4 2580   3.167   0.914   1.246 -0.1683  0.4597  0.1254
  634SOL     OW 2581   0.431   0.563   0.546  0.4313  0.1985  0.5923
  634SOL    HW2 2582   0.485   0.632   0.505  1.3276  0.0482  1.5047
  634SOL    HW3 2583   0.479   0.482   0.530 -0.2038 -0.1192  0.2550
  634SOL    MW4 2584   0.444   0.562   0.538  0.4658  0.1368  0.6682
  635SOL     OW 2585   2.819   3.883   0.592 -0.0938  0.2547  0.5132
  635SOL    HW2 2586   2.824   3.973   0.622  0.8219  0.1161  0.7865
  635SOL    HW3 2587   2.896   3.872   0.535 -0.3081 -0.2931  0.3232
  635SOL    MW4 2588   2.830   3.893   0.588 -0.0014  0.1640  0.5242
  636SOL     OW 2589   2.706   0.912   1.249 -0.3494 -0.1475 -0.0236
  636SOL    HW2 2590   2.694   1.006   1.236 -0.8880 -0.0591  1.0239
  636SOL    HW3 2591   2.621   0.873   1.231 -1.1044 -0.0202  3.0287
  636SOL    MW4 2592   2.693   0.919   1.245 -0.5200 -0.1190  0.5174
  637SOL     OW 2593   2.705   1.893   1.116 -0.1863  0.0431 -0.5843
  637SOL    HW2 2594   2.774   1.946   1.157 -0.1920 -0.5365  0.2016
  637SOL    HW3 2595   2.696   1.817   1.174 -0.5905 -0.5234 -1.3783
  637SOL    MW4 2596   2.713   1.890   1.129 -0.2408 -0.1081 -0.5852
  638SOL     OW 2597   0.204   0.218   0.836  0.2595 -0.0067 -0.3000
  638SOL    HW2 2598   0.220   0.127   0.861 -1.8767 -0.1337  0.6911
  638SOL    HW3 2599   0.291   0.259   0.839  0.8127 -1.2884  2.2365
  638SOL    MW4 2600   0.218   0.212   0.840  0.0506 -0.1925  0.1655
  639SOL     OW 2601   0.895   2.691   0.879  0.3685 -0.2407 -0.2164
  639SOL    HW2 2602   0.904   2.688   0.974  1.1766 -0.6619 -0.2965
  639SOL    HW3 2603   0.820   2.635   0.859  1.9073 -2.4466 -0.0235
  639SOL    MW4 2604   0.887   2.683   0.889  0.6781 -0.5872 -0.2016
  640SOL     OW 2605   3.805   3.101   1.047  0.7580 -0.5454  0.3807
  640SOL    HW2 2606   3.800   3.087   0.952 -1.8367  0.2808  0.3402
  640SOL    HW3 2607   3.890   3.142   1.061  0.9160 -0.1060 -1.6888
  640SOL    MW4 2608   3.815   3.105   1.036  0.4363 -0.3784  0.1024
  641SOL     OW 2609   2.129   2.691   0.327  0.0661 -0.1447  0.0194
  641SOL    HW2 2610   2.157   2.600   0.325  1.2000  0.1553  1.7952
  641SOL    HW3 2611   2.206   2.740   0.357 -0.4245  1.4414 -1.2308
  641SOL    MW4 2612   2.143   2.685   0.331  0.1509  0.1042  0.0887
  642SOL     OW 2613   0.702   3.894   0.644  0.7955  0.2388 -0.0386
  642SOL    HW2 2614   0.790   3.858   0.657  0.3404 -0.6707  0.6154
  642SOL    HW3 2615   0.675   3.923   0.731 -0.5020 -1.7248  0.2459
  642SOL    MW4 2616   0.710   3.893   0.657  0.5642 -0.1400  0.0852
  643SOL     OW 2617   3.675   1.804   0.166  0.0416 -0.4423 -0.3252
  643SOL    HW2 2618   3.652   1.882   0.216 -0.7226 -1.3010  0.7119
  643SOL    HW3 2619   3.609   1.739   0.192 -0.0268 -1.0842 -2.0329
  643SOL    MW4 2620   3.663   1.806   0.176 -0.0679 -0.6403 -0.4136
  644SOL     OW 2621   1.560   1.848   0.722  0.3337  0.3967 -0.0479
  644SOL    HW2 2622   1.573   1.846   0.627 -0.5540 -1.9147 -0.1419
  644SOL    HW3 2623   1.644   1.876   0.757  1.1403 -0.2341 -1.4415
  644SOL    MW4 2624   1.572   1.851   0.714  0.3231  0.0085 -0.2441
  645SOL     OW 2625   2.794   3.606   0.344  0.0718  0.7998 -0.3683
  645SOL    HW2 2626   2.719   3.660   0.367 -0.1205 -0.0613  1.1318
  645SOL    HW3 2627   2.800   3.542   0.415  1.5317  0.1438 -1.0525
  645SOL    MW4 2628   2.785   3.604   0.356  0.2391  0.5994 -0.2607
  646SOL     OW 2629   2.481   2.825   1.208  0.0005 -0.2610 -0.0425
  646SOL    HW2 2630   2.478   2.825   1.304  0.2693  0.4901 -0.0375
  646SOL    HW3 2631   2.411   2.764   1.183  0.0333 -0.5863  0.6301
  646SOL    MW4 2632   2.471   2.817   1.217  0.0403 -0.2048  0.0470
  647SOL     OW 2633   2.667   3.207   1.512 -0.1498 -0.5429  0.1523
  647SOL    HW2 2634   2.732   3.152   1.557  0.8316 -0.1557 -0.7746
  647SOL    HW3 2635   2.696   3.209   1.421 -0.4997  1.0553  0.0704
  647SOL    MW4 2636   2.679   3.200   1.506 -0.0665 -0.2811  0.0192
  648SOL     OW 2637   2.897   3.869   1.064 -0.1048 -0.2607  0.2936
  648SOL    HW2 2638   2.982   3.900   1.095 -0.3984 -0.2062  1.0573
  648SOL    HW3 2639   2.885   3.784   1.108 -0.6319 -0.0746  0.5156
  648SOL    MW4 2640   2.907   3.862   1.074 -0.2131 -0.2289  0.4237
  649SOL     OW 2641   1.319   2.185   0.768  0.4585  0.4196 -0.4158
  649SOL    HW2 2642   1.323   2.183   0.672  0.2972  0.3083 -0.4217
  649SOL    HW3 2643   1.389   2.245   0.794  0.9823 -0.1285 -0.5677
  649SOL    MW4 2644   1.329   2.193   0.759  0.5063  0.3328 -0.4367
  650SOL     OW 2645   2.914   4.662   1.142 -0.4562  0.0004 -0.2950
  650SOL    HW2 2646   2.928   4.667   1.048  0.3655 -0.1807 -0.1893
  650SOL    HW3 2647   2.905   4.569   1.160  0.3751 -0.0470 -0.0707
  650SOL    MW4 2648   2.915   4.650   1.132 -0.2382 -0.0296 -0.2513
  651SOL     OW 2649   2.728   3.982   1.234 -0.0657 -0.3025 -0.4972
  651SOL    HW2 2650   2.793   3.937   1.180  0.9616 -1.1653  1.4222
  651SOL    HW3 2651   2.645   3.939   1.210  0.3352 -0.5485 -1.5010
  651SOL    MW4 2652   2.726   3.970   1.223  0.1225 -0.4489 -0.3765
  652SOL     OW 2653   3.120   4.262   1.101 -0.5858  1.2280  0.2074
  652SOL    HW2 2654   3.129   4.253   1.006  3.2593 -2.5667  0.7976
  652SOL    HW3 2655   3.200   4.306   1.129 -1.2250  1.3976  1.8124
  652SOL    MW4 2656   3.132   4.267   1.092 -0.1631  0.7496  0.4971
  653SOL     OW 2657   3.377   4.642   1.126 -0.0333 -0.1094 -0.4857
  653SOL    HW2 2658   3.306   4.688   1.171  0.8269  1.0308 -0.2853
  653SOL    HW3 2659   3.457   4.682   1.160  0.7129 -1.4666 -0.6240
  653SOL    MW4 2660   3.378   4.653   1.137  0.1786 -0.1373 -0.4776
  654SOL     OW 2661   0.122   3.073   0.407 -0.1082 -0.0984 -0.0492
  654SOL    HW2 2662   0.082   3.160   0.402 -0.3638 -0.2251 -0.2126
  654SOL    HW3 2663   0.094   3.039   0.492 -0.4181 -0.2210 -0.2001
  654SOL    MW4 2664   0.113   3.080   0.418 -0.1828 -0.1314 -0.0907
  655SOL     OW 2665   3.192   0.375   1.169 -0.3806  0.0137 -0.8346
  655SOL    HW2 2666   3.198   0.285   1.201 -0.5444 -0.0894 -1.0960
  655SOL    HW3 2667   3.103   0.402   1.191 -0.9977 -0.5775 -2.5857
  655SOL    MW4 2668   3.181   0.367   1.176 -0.4835 -0.0779 -1.1002
  656SOL     OW 2669   3.386   0.533   1.258  0.0944  0.1786  0.1666
  656SOL    HW2 2670   3.311   0.490   1.219 -0.4447 -0.4831  1.8842
  656SOL    HW3 2671   3.462   0.485   1.224 -0.4126 -0.9580  0.6126
  656SOL    MW4 2672   3.386   0.521   1.248 -0.0436 -0.0587  0.4520
  657SOL     OW 2673   4.296   4.160   0.742 -0.0691 -0.3540 -0.2413
  657SOL    HW2 2674   4.320   4.173   0.650  0.0314  0.1848 -0.1368
  657SOL    HW3 2675   4.346   4.226   0.790  1.5543 -2.0287  0.4349
  657SOL    MW4 2676   4.306   4.170   0.736  0.1588 -0.5040 -0.1383
  658SOL     OW 2677   3.179   0.885   1.514  0.1721  0.0816 -0.1973
  658SOL    HW2 2678   3.105   0.832   1.545  0.4223  0.3166  0.8139
  658SOL    HW3 2679   3.256   0.830   1.530  0.0996 -0.9455 -2.9632
  658SOL    MW4 2680   3.179   0.871   1.520  0.1953 -0.0230 -0.4289
  659SOL     OW 2681   3.651   1.196   1.179  0.2538  0.0643  0.0860
  659SOL    HW2 2682   3.645   1.174   1.086 -0.5942 -2.7020  0.7390
  659SOL    HW3 2683   3.737   1.237   1.189  0.9970 -1.0244 -1.6423
  659SOL    MW4 2684   3.661   1.198   1.168  0.2398 -0.4443 -0.0559
  660SOL     OW 2685   3.805   4.616   0.868  0.2536 -0.1352  0.1079
  660SOL    HW2 2686   3.792   4.710   0.855 -0.0507 -0.2621 -0.5100
  660SOL    HW3 2687   3.809   4.606   0.963  0.2860  0.5055  0.1774
  660SOL    MW4 2688   3.804   4.627   0.879  0.2179 -0.0672  0.0356
  661SOL     OW 2689   4.476   1.397   0.717 -0.2493 -0.9546 -0.6592
  661SOL    HW2 2690   4.395   1.439   0.745  0.2351 -0.0347 -0.6388
  661SOL    HW3 2691   4.465   1.305   0.744 -0.2223 -0.3169  1.6459
  661SOL    MW4 2692   4.464   1.390   0.724 -0.1817 -0.7491 -0.3524
  662SOL     OW 2693   0.417   0.897   0.311  0.1912 -0.2189  0.3754
  662SOL    HW2 2694   0.460   0.925   0.230 -1.0479 -0.3731 -0.3625
  662SOL    HW3 2695   0.445   0.960   0.377 -0.9596  1.5825 -0.7979
  662SOL    MW4 2696   0.426   0.909   0.309 -0.1241 -0.0015  0.1233
  663SOL     OW 2697   2.226   2.178   0.720  0.1831 -0.3057  0.0721
  663SOL    HW2 2698   2.319   2.197   0.734 -0.1465  1.4087 -0.0360
  663SOL    HW3 2699   2.217   2.171   0.625 -0.1991  1.6286 -0.0394
  663SOL    MW4 2700   2.237   2.179   0.709  0.0894  0.1760  0.0432
  664SOL     OW 2701   0.202   2.268   0.771  0.1626 -0.0631 -0.2735
  664SOL    HW2 2702   0.224   2.277   0.864  0.2832  1.3630 -0.4213
  664SOL    HW3 2703   0.110   2.242   0.771  0.0656  0.2739  0.2505
  664SOL    MW4 2704   0.193   2.266   0.783  0.1657  0.1693 -0.2239
  665SOL     OW 2705   1.106   4.631   0.852  0.4217  0.3129  0.2247
  665SOL    HW2 2706   1.118   4.624   0.947 -0.6095  0.3441  0.3604
  665SOL    HW3 2707   1.042   4.564   0.831  0.5424  0.4009 -0.4368
  665SOL    MW4 2708   1.099   4.622   0.862  0.3017  0.3281  0.1553
  666SOL     OW 2709   2.454   2.391   0.538  0.1269 -0.3800 -0.1008
  666SOL    HW2 2710   2.492   2.351   0.616  2.5892 -0.3224 -1.2273
  666SOL    HW3 2711   2.526   2.439   0.498 -1.6318  1.3654 -1.2797
  666SOL    MW4 2712   2.468   2.392   0.543  0.2198 -0.1421 -0.4050
  667SOL     OW 2713   2.495   0.788   0.241  0.2878  0.2980  0.2129
  667SOL    HW2 2714   2.521   0.769   0.151 -1.3148 -0.4156 -0.1237
  667SOL    HW3 2715   2.572   0.829   0.280  0.4258  2.2335 -1.9787
  667SOL    MW4 2716   2.509   0.791   0.234  0.0949  0.4592 -0.1207
  668SOL     OW 2717   3.576   2.432   1.187 -0.0554 -0.3619  0.1807
  668SOL    HW2 2718   3.576   2.526   1.166 -1.6360 -0.3563  0.1761
  668SOL    HW3 2719   3.570   2.430   1.283  0.4434 -0.4535  0.2096
  668SOL    MW4 2720   3.575   2.444   1.197 -0.1981 -0.3731  0.1837
  669SOL     OW 2721   1.123   3.852   0.824 -0.1599 -0.3037 -0.1102
  669SOL    HW2 2722   1.119   3.859   0.920 -1.2457 -1.3857 -0.0527
  669SOL    HW3 2723   1.205   3.805   0.807 -1.2492 -2.5085  0.4757
  669SOL    MW4 2724   1.133   3.846   0.834 -0.4469 -0.7374 -0.0252
  670SOL     OW 2725   3.140   3.200   1.187  0.1812  0.1305 -0.0159
  670SOL    HW2 2726   3.159   3.289   1.158 -0.6872  0.1024 -0.6898
  670SOL    HW3 2727   3.212   3.148   1.150 -0.8770  0.1093 -2.1151
  670SOL    MW4 2728   3.152   3.205   1.178 -0.0732  0.1240 -0.3819
  671SOL     OW 2729   4.378   0.914   0.425  0.1434 -0.5396  0.1168
  671SOL    HW2 2730   4.333   0.833   0.398 -0.1071 -0.7853  1.2347
  671SOL    HW3 2731   4.346   0.930   0.514 -1.0271  1.6751 -0.6729
  671SOL    MW4 2732   4.368   0.905   0.433 -0.0443 -0.2797  0.1601
  672SOL     OW 2733   3.138   3.465   1.088  0.1038  0.2280 -0.0563
  672SOL    HW2 2734   3.129   3.478   0.994  1.5323  0.8971 -0.1221
  672SOL    HW3 2735   3.210   3.523   1.113 -1.3791  1.3524  1.7477
  672SOL    MW4 2736   3.146   3.475   1.079  0.0968  0.4647  0.1729
  673SOL     OW 2737   3.361   3.617   1.161  0.2046 -0.0013  0.0333
  673SOL    HW2 2738   3.442   3.592   1.116 -0.0758 -0.2584 -0.3360
  673SOL    HW3 2739   3.377   3.598   1.253 -0.1087 -1.8530 -0.2815
  673SOL    MW4 2740   3.374   3.611   1.167  0.1259 -0.2794 -0.0571
  674SOL     OW 2741   3.133   3.986   1.166  0.2888 -0.3315 -0.0035
  674SOL    HW2 2742   3.122   3.965   1.258  1.6770  1.7896  0.6840
  674SOL    HW3 2743   3.110   4.078   1.159  0.6444 -0.3448 -1.6958
  674SOL    MW4 2744   3.129   3.995   1.177  0.5188 -0.0532 -0.1361
  675SOL     OW 2745   3.980   1.771   0.196  0.0268  0.2533 -0.1963
  675SOL    HW2 2746   4.020   1.685   0.179  2.0798  1.0064  0.7712
  675SOL    HW3 2747   3.891   1.762   0.161  0.2142 -2.2524 -0.1703
  675SOL    MW4 2748   3.973   1.758   0.189  0.3226  0.0221 -0.0652
  676SOL     OW 2749   3.336   4.394   1.194  0.1011 -0.3247  0.0004
  676SOL    HW2 2750   3.410   4.338   1.170  1.3531  0.8567  1.0484
  676SOL    HW3 2751   3.359   4.480   1.159 -1.1261 -0.1051 -0.2892
  676SOL    MW4 2752   3.349   4.398   1.186  0.1044 -0.1392  0.1005
  677SOL     OW 2753   3.805   4.616   1.147  0.1547 -0.1804  0.0555
  677SOL    HW2 2754   3.874   4.662   1.195  0.9478  0.3082 -1.5385
  677SOL    HW3 2755   3.808   4.527   1.180 -0.3829  0.5076  2.0733
  677SOL    MW4 2756   3.814   4.611   1.158  0.1884 -0.0248  0.1113
  678SOL     OW 2757   3.596   0.095   1.250 -0.2001 -0.3023  0.0294
  678SOL    HW2 2758   3.606   0.183   1.215  0.1180 -0.6658 -0.8192
  678SOL    HW3 2759   3.676   0.049   1.223  0.5153 -0.3164  2.1061
  678SOL    MW4 2760   3.608   0.101   1.242 -0.0637 -0.3521  0.1915
  679SOL     OW 2761   4.038   2.347   0.140 -0.1110 -0.5800 -0.3622
  679SOL    HW2 2762   4.035   2.385   0.052  0.3274 -0.9003 -0.5177
  679SOL    HW3 2763   4.041   2.253   0.125  0.8038 -0.6044 -0.0229
  679SOL    MW4 2764   4.038   2.340   0.126  0.0682 -0.6256 -0.3379
  680SOL     OW 2765   3.808   0.516   1.216  0.3719 -0.4156  0.1134
  680SOL    HW2 2766   3.837   0.602   1.184 -0.1344 -0.2772  0.0042
  680SOL    HW3 2767   3.874   0.455   1.185 -0.2256 -0.3174 -1.4336
  680SOL    MW4 2768   3.820   0.519   1.208  0.2263 -0.3843 -0.1051
  681SOL     OW 2769   3.836   0.809   1.122 -0.2363  0.2427 -0.2947
  681SOL    HW2 2770   3.914   0.853   1.155  0.0052 -1.0241  0.8798
  681SOL    HW3 2771   3.763   0.853   1.167 -0.0874  0.3001 -0.1080
  681SOL    MW4 2772   3.837   0.821   1.133 -0.1850  0.0831 -0.1150
  682SOL     OW 2773   3.632   0.923   1.269 -0.1284  0.0747  0.1047
  682SOL    HW2 2774   3.545   0.898   1.238  0.1857  1.0149 -1.6258
  682SOL    HW3 2775   3.638   1.017   1.250  1.3556 -0.0389 -0.0576
  682SOL    MW4 2776   3.621   0.932   1.262  0.1090  0.1837 -0.1451
  683SOL     OW 2777   2.119   0.068   0.388 -0.2364 -0.4894  0.2468
  683SOL    HW2 2778   2.037   0.108   0.416  0.4652  0.6193  0.7609
  683SOL    HW3 2779   2.171   0.142   0.355 -0.2799 -1.4866 -2.1417
  683SOL    MW4 2780   2.115   0.083   0.387 -0.1495 -0.4747 -0.0005
  684SOL     OW 2781   3.929   1.261   1.206  0.0381  0.0485 -0.0745
  684SOL    HW2 2782   3.922   1.260   1.302  1.0234 -0.0420  0.0026
  684SOL    HW3 2783   3.885   1.342   1.180 -1.3753 -0.5743  0.3505
  684SOL    MW4 2784   3.922   1.272   1.215 -0.0186 -0.0457 -0.0083
  685SOL     OW 2785   3.785   1.473   1.117 -0.4552  0.1862 -0.3064
  685SOL    HW2 2786   3.759   1.455   1.027  0.3532 -0.7704 -0.3588
  685SOL    HW3 2787   3.853   1.540   1.109 -0.3689  0.0863 -0.4101
  685SOL    MW4 2788   3.790   1.479   1.104 -0.3374  0.0468 -0.3270
  686SOL     OW 2789   3.632   1.658   1.246  0.1255  0.2813 -0.0006
  686SOL    HW2 2790   3.644   1.739   1.195 -0.0035 -0.7380 -1.6801
  686SOL    HW3 2791   3.686   1.593   1.201 -1.0502 -0.9776  0.3773
  686SOL    MW4 2792   3.640   1.660   1.233 -0.0467 -0.0192 -0.1723
  687SOL     OW 2793   0.143   2.396   0.311  0.1628 -0.0959 -0.2151
  687SOL    HW2 2794   0.214   2.344   0.274  0.5035 -1.0914  1.7729
  687SOL    HW3 2795   0.186   2.476   0.342  0.4538 -0.6929  0.9775
  687SOL    MW4 2796   0.158   2.400   0.310  0.2461 -0.3059  0.2045
  688SOL     OW 2797   3.415   2.014   1.217 -0.6440  0.3093 -0.3250
  688SOL    HW2 2798   3.492   1.978   1.173  0.1277  0.4394  0.8939
  688SOL    HW3 2799   3.411   2.105   1.187  1.0016  0.9386  1.3614
  688SOL    MW4 2800   3.424   2.021   1.207 -0.3252  0.4094  0.0582
  689SOL     OW 2801   3.380   3.093   0.783  0.4103  0.4767  0.6415
  689SOL    HW2 2802   3.457   3.063   0.735 -0.0381  2.7628 -1.6013
  689SOL    HW3 2803   3.310   3.035   0.754  0.7694 -0.0896  0.8892
  689SOL    MW4 2804   3.381   3.081   0.773  0.3986  0.7033  0.3783
  690SOL     OW 2805   1.080   2.306   0.829 -0.7761 -0.5601 -0.0219
  690SOL    HW2 2806   1.166   2.275   0.800 -1.5317 -1.4283 -1.4007
  690SOL    HW3 2807   1.086   2.307   0.924  0.7059 -0.7984 -0.1025
  690SOL    MW4 2808   1.092   2.302   0.838 -0.6801 -0.7062 -0.2145
  691SOL     OW 2809   2.458   4.644   1.112  0.2505  0.3263  0.2245
  691SOL    HW2 2810   2.538   4.688   1.140 -0.7455  1.7051  0.9907
  691SOL    HW3 2811   2.463   4.644   1.016  1.5211 -0.2809  0.2872
  691SOL    MW4 2812   2.469   4.650   1.103  0.2866  0.4282  0.3339
  692SOL     OW 2813   2.210   3.097   0.772 -0.0168 -0.1171  0.2640
  692SOL    HW2 2814   2.181   3.186   0.752  0.6729  0.1021  0.2423
  692SOL    HW3 2815   2.304   3.105   0.789 -0.2613 -0.5802  1.8778
  692SOL    MW4 2816   2.218   3.109   0.772  0.0422 -0.1493  0.4741
  693SOL     OW 2817   3.337   2.557   0.740 -0.6446  0.4364  0.1990
  693SOL    HW2 2818   3.330   2.469   0.778 -0.0203  1.3101  2.4058
  693SOL    HW3 2819   3.349   2.541   0.646 -0.1056 -1.8399  0.6171
  693SOL    MW4 2820   3.338   2.543   0.732 -0.4914  0.2513  0.5454
  694SOL     OW 2821   3.221   3.552   0.386  0.1357  0.4745 -0.2614
  694SOL    HW2 2822   3.240   3.623   0.448  0.7999 -0.2079  0.3300
  694SOL    HW3 2823   3.162   3.591   0.322  2.2247  2.1805 -1.1788
  694SOL    MW4 2824   3.216   3.566   0.386  0.4990  0.6096 -0.3044
  695SOL     OW 2825   1.289   4.279   0.776 -0.5773 -0.0675 -0.0232
  695SOL    HW2 2826   1.289   4.263   0.870 -0.9871  1.8634  0.3147
  695SOL    HW3 2827   1.202   4.251   0.747 -0.6575 -0.1106  0.2567
  695SOL    MW4 2828   1.278   4.273   0.784 -0.6419  0.1812  0.0583
  696SOL     OW 2829   0.875   0.368   0.378 -0.3513  0.7963 -0.0968
  696SOL    HW2 2830   0.884   0.331   0.291  2.8432  2.1828 -0.4134
  696SOL    HW3 2831   0.945   0.328   0.429  0.5462  3.2053  0.6454
  696SOL    MW4 2832   0.885   0.358   0.373  0.1886  1.2971 -0.0407
  697SOL     OW 2833   4.012   4.483   0.753  0.2585 -0.3918 -0.1932
  697SOL    HW2 2834   3.935   4.513   0.800 -0.0388 -0.4076 -0.6696
  697SOL    HW3 2835   4.085   4.525   0.798  0.0937 -1.5984  1.2158
  697SOL    MW4 2836   4.012   4.493   0.765  0.1974 -0.5531 -0.0701
  698SOL     OW 2837   2.223   1.151   0.841 -0.3026 -0.4701 -0.5644
  698SOL    HW2 2838   2.230   1.223   0.778 -1.3281 -1.1115 -1.4319
  698SOL    HW3 2839   2.307   1.106   0.836  0.0305  0.1589 -0.6533
  698SOL    MW4 2840   2.235   1.154   0.832 -0.3939 -0.4717 -0.6906
  699SOL     OW 2841   3.119   4.169   0.363  0.1755  0.0677 -0.0785
  699SOL    HW2 2842   3.210   4.169   0.333  0.0809 -0.8287 -0.3789
  699SOL    HW3 2843   3.106   4.082   0.400 -0.9220 -0.2249 -1.1312
  699SOL    MW4 2844   3.130   4.158   0.364  0.0181 -0.0892 -0.2570
  700SOL     OW 2845   2.219   0.663   0.824 -0.3507 -0.2025  0.0942
  700SOL    HW2 2846   2.223   0.567   0.829 -0.5599 -0.2156  0.0263
  700SOL    HW3 2847   2.210   0.681   0.730 -0.5306 -0.1255  0.1254
  700SOL    MW4 2848   2.218   0.652   0.812 -0.4022 -0.1941  0.0893
  701SOL     OW 2849   4.270   4.646   1.142  0.2003  0.0619 -0.4730
  701SOL    HW2 2850   4.252   4.622   1.051 -2.4325  0.1068  0.0029
  701SOL    HW3 2851   4.269   4.563   1.189  1.1565  0.0846 -0.3876
  701SOL    MW4 2852   4.268   4.632   1.136 -0.0210  0.0706 -0.3989
  702SOL     OW 2853   4.017   0.125   1.536  0.2856 -0.0338 -0.2969
  702SOL    HW2 2854   4.097   0.076   1.555 -0.6908 -0.4401  2.9944
  702SOL    HW3 2855   4.035   0.213   1.567 -0.2913  0.0419 -0.1738
  702SOL    MW4 2856   4.030   0.130   1.542  0.0806 -0.0774  0.1537
  703SOL     OW 2857   4.029   0.082   1.250 -0.1662 -0.0636 -0.1148
  703SOL    HW2 2858   4.038   0.096   1.345 -0.4419 -1.2420  0.0889
  703SOL    HW3 2859   4.118   0.059   1.221  0.0748  1.0408 -0.2763
  703SOL    MW4 2860   4.042   0.081   1.259 -0.1707 -0.0733 -0.1092
  704SOL     OW 2861   4.246   0.505   1.209  0.3290 -0.1608 -0.0090
  704SOL    HW2 2862   4.260   0.512   1.303 -0.7268  0.8191  0.0836
  704SOL    HW3 2863   4.331   0.477   1.174  0.0809 -2.8988  1.4894
  704SOL    MW4 2864   4.259   0.502   1.217  0.1564 -0.3927  0.2009
  705SOL     OW 2865   4.296   0.761   1.116 -0.5405 -0.0923  0.0655
  705SOL    HW2 2866   4.381   0.795   1.144 -0.7860  1.2641 -0.7639
  705SOL    HW3 2867   4.289   0.676   1.159 -0.0319  1.0137  2.4606
  705SOL    MW4 2868   4.307   0.755   1.125 -0.5059  0.2326  0.2722
  706SOL     OW 2869   4.069   0.919   1.194  0.5159  0.3489  0.1319
  706SOL    HW2 2870   4.052   0.913   1.288 -1.2952  0.6457 -0.1556
  706SOL    HW3 2871   4.141   0.858   1.179  0.7059  0.1582  1.6728
  706SOL    MW4 2872   4.076   0.910   1.205  0.3018  0.3629  0.2973
  707SOL     OW 2873   4.043   1.118   1.003  0.0191 -0.0504 -0.2100
  707SOL    HW2 2874   4.045   1.028   1.038 -0.6221 -0.4781 -1.2606
  707SOL    HW3 2875   4.000   1.169   1.072  0.1700 -0.5978  0.2969
  707SOL    MW4 2876   4.038   1.113   1.017 -0.0458 -0.1789 -0.2818
  708SOL     OW 2877   4.259   1.262   1.167 -0.1293 -0.5575 -0.3331
  708SOL    HW2 2878   4.256   1.267   1.263  2.2743  0.4368 -0.2689
  708SOL    HW3 2879   4.203   1.187   1.145 -1.7918  0.0160  1.7369
  708SOL    MW4 2880   4.251   1.253   1.177 -0.0315 -0.3506 -0.0515
  709SOL     OW 2881   4.202   1.520   1.075  0.0399  0.1788 -0.4246
  709SOL    HW2 2882   4.232   1.433   1.101  1.4772  0.8681  0.2211
  709SOL    HW3 2883   4.188   1.513   0.980  0.4469 -0.6652 -0.4243
  709SOL    MW4 2884   4.204   1.508   1.066  0.2828  0.1584 -0.3394
  710SOL     OW 2885   2.216   4.003   1.537 -0.1613 -0.2857  0.2526
  710SOL    HW2 2886   2.293   3.957   1.571 -0.4077 -0.9335 -0.0451
  710SOL    HW3 2887   2.220   3.990   1.443 -0.6706 -0.3795  0.2437
  710SOL    MW4 2888   2.226   3.995   1.529 -0.2608 -0.3834  0.2121
  711SOL     OW 2889   1.814   1.152   0.830  0.1991  0.2805 -0.0414
  711SOL    HW2 2890   1.881   1.102   0.783 -1.0884 -1.0175 -0.5044
  711SOL    HW3 2891   1.806   1.234   0.782  0.7800  0.0539 -0.5237
  711SOL    MW4 2892   1.822   1.157   0.818  0.1059  0.0794 -0.1662
  712SOL     OW 2893   3.093   2.205   0.736  0.0599 -0.3894 -0.4900
  712SOL    HW2 2894   3.017   2.244   0.778 -0.8210 -0.6750 -1.7891
  712SOL    HW3 2895   3.097   2.116   0.772  0.4063 -0.0329  0.3623
  712SOL    MW4 2896   3.084   2.198   0.746 -0.0105 -0.3800 -0.5489
  713SOL     OW 2897   1.975   3.397   0.461 -0.0268  0.0229 -0.1807
  713SOL    HW2 2898   2.003   3.488   0.471  0.7844 -0.2315 -0.1048
  713SOL    HW3 2899   2.049   3.354   0.418 -0.4530 -0.5751 -0.3183
  713SOL    MW4 2900   1.988   3.404   0.457  0.0238 -0.0894 -0.1889
  714SOL     OW 2901   4.270   1.854   0.483  0.2256 -0.2799  0.2203
  714SOL    HW2 2902   4.340   1.910   0.450  0.0315 -0.5700 -0.6958
  714SOL    HW3 2903   4.281   1.771   0.436 -2.6764  0.6940 -2.3261
  714SOL    MW4 2904   4.281   1.850   0.472 -0.1831 -0.1897 -0.2365
  715SOL     OW 2905   0.177   3.536   0.319  0.2633  0.2350  0.2455
  715SOL    HW2 2906   0.168   3.573   0.232 -0.6714  0.1790  0.3192
  715SOL    HW3 2907   0.119   3.589   0.375  1.0423  0.4329  0.8817
  715SOL    MW4 2908   0.168   3.548   0.315  0.2427  0.2539  0.3392
  716SOL     OW 2909   1.474   4.566   0.514 -0.6881 -0.1102 -0.1618
  716SOL    HW2 2910   1.421   4.561   0.593  0.0247  1.7803  0.4518
  716SOL    HW3 2911   1.429   4.628   0.457  0.1319  0.4607 -0.2002
  716SOL    MW4 2912   1.461   4.573   0.517 -0.4860  0.2141 -0.0860
  717SOL     OW 2913   4.053   3.223   1.164  0.1510  0.6425 -0.1573
  717SOL    HW2 2914   4.066   3.205   1.258  1.9442 -0.9844 -0.6785
  717SOL    HW3 2915   4.122   3.172   1.121  0.2806  2.5587 -2.2747
  717SOL    MW4 2916   4.064   3.214   1.171  0.4044  0.6807 -0.5052
  718SOL     OW 2917   4.052   3.476   1.067  0.1070  0.1727 -0.2837
  718SOL    HW2 2918   3.976   3.521   1.104  1.4730  1.1518  1.4416
  718SOL    HW3 2919   4.049   3.388   1.105  0.7505  0.7438  1.1106
  718SOL    MW4 2920   4.042   3.470   1.077  0.3719  0.3769  0.1279
  719SOL     OW 2921   1.777   0.590   0.778  0.2964  0.4396 -1.1502
  719SOL    HW2 2922   1.693   0.627   0.802 -0.6891 -2.7771  0.6357
  719SOL    HW3 2923   1.778   0.594   0.682 -1.5331  1.2394 -1.1608
  719SOL    MW4 2924   1.766   0.596   0.768 -0.0750  0.1207 -0.9160
  720SOL     OW 2925   1.819   3.485   1.102 -0.3499  0.1672 -0.4889
  720SOL    HW2 2926   1.891   3.519   1.154  0.6321 -0.1779 -1.6135
  720SOL    HW3 2927   1.818   3.391   1.120 -0.1745  0.0882 -0.8943
  720SOL    MW4 2928   1.828   3.477   1.111 -0.1973  0.1113 -0.6908
  721SOL     OW 2929   2.690   2.719   0.794  0.1532 -0.0565 -0.6322
  721SOL    HW2 2930   2.764   2.673   0.753 -0.2430 -0.1121 -1.2977
  721SOL    HW3 2931   2.693   2.691   0.886 -0.1712 -1.5478 -1.0527
  721SOL    MW4 2932   2.700   2.709   0.801  0.0582 -0.2606 -0.7755
  722SOL     OW 2933   2.466   0.266   0.732 -0.1174  0.0518 -0.5951
  722SOL    HW2 2934   2.540   0.286   0.789 -1.5305 -0.4995  1.5124
  722SOL    HW3 2935   2.499   0.278   0.643  2.3701  0.1735  0.3241
  722SOL    MW4 2936   2.480   0.270   0.728  0.0246 -0.0049 -0.1958
  723SOL     OW 2937   4.052   4.285   1.069  0.0336 -0.2378  0.2480
  723SOL    HW2 2938   4.059   4.278   0.974  0.4703  1.2574  0.1496
  723SOL    HW3 2939   3.958   4.291   1.085 -0.0083  0.2803 -0.1656
  723SOL    MW4 2940   4.040   4.285   1.059  0.0854  0.0277  0.1804
  724SOL     OW 2941   0.896   0.361   1.114  0.2739  0.1114 -0.2358
  724SOL    HW2 2942   0.812   0.399   1.141  0.2667  0.4472 -0.7060
  724SOL    HW3 2943   0.895   0.369   1.018  0.3764 -0.8700 -0.3223
  724SOL    MW4 2944   0.885   0.367   1.105  0.2865  0.0262 -0.3092
  725SOL     OW 2945   0.196   4.649   1.620  0.2776 -0.1609 -0.3951
  725SOL    HW2 2946   0.184   4.558   1.592  0.1278 -0.4671  0.6198
  725SOL    HW3 2947   0.132   4.699   1.569  0.5494 -0.5896 -1.1551
  725SOL    MW4 2948   0.186   4.643   1.610  0.2937 -0.2575 -0.3616
  726SOL     OW 2949   4.462   0.150   1.516  0.3849  0.1370  0.2310
  726SOL    HW2 2950   4.379   0.112   1.548  0.2290  0.4857  0.2407
  726SOL    HW3 2951   4.452   0.151   1.421  0.6670 -0.4839  0.1955
  726SOL    MW4 2952   4.450   0.145   1.508  0.4015  0.1011  0.2276
  727SOL     OW 2953   0.012   0.384   1.637  0.3720  0.2561 -0.3909
  727SOL    HW2 2954  -0.004   0.372   1.731  1.4863  0.6262 -0.1438
  727SOL    HW3 2955   0.006   0.296   1.601 -2.0083  0.3462 -0.3072
  727SOL    MW4 2956   0.009   0.371   1.645  0.2050  0.3168 -0.3471
  728SOL     OW 2957   0.270   0.490   1.559  0.5884  0.6589  0.3801
  728SOL    HW2 2958   0.182   0.488   1.598  0.6641 -0.7171  0.5155
  728SOL    HW3 2959   0.255   0.483   1.465  0.5272  0.7173  0.3860
  728SOL    MW4 2960   0.256   0.489   1.552  0.5904  0.4850  0.3988
  729SOL     OW 2961   0.250   0.765   1.605 -0.1356  0.0537  0.0468
  729SOL    HW2 2962   0.331   0.801   1.569  0.5182  0.6959  2.0850
  729SOL    HW3 2963   0.266   0.670   1.608 -0.0275  0.0367 -0.9029
  729SOL    MW4 2964   0.263   0.757   1.601 -0.0351  0.1361  0.1904
  730SOL     OW 2965   0.002   0.894   1.525  0.2873 -0.1006 -0.1318
  730SOL    HW2 2966  -0.012   0.975   1.574 -0.5766 -0.3001 -0.0382
  730SOL    HW3 2967   0.091   0.868   1.547  1.3349  1.9245 -1.7696
  730SOL    MW4 2968   0.012   0.901   1.534  0.3116  0.1403 -0.3356
  731SOL     OW 2969   0.003   1.156   1.591 -0.3492 -0.4607  0.1512
  731SOL    HW2 2970   0.026   1.152   1.684 -0.8507  1.0188  0.3588
  731SOL    HW3 2971   0.086   1.158   1.545 -0.0998 -0.4598  0.6016
  731SOL    MW4 2972   0.017   1.155   1.597 -0.3819 -0.2655  0.2381
  732SOL     OW 2973   0.243   1.204   1.469  0.2174 -0.0012 -0.2772
  732SOL    HW2 2974   0.240   1.284   1.521 -0.3575 -0.3933  0.2892
  732SOL    HW3 2975   0.244   1.235   1.378  0.1505  0.6534 -0.0565
  732SOL    MW4 2976   0.243   1.219   1.464  0.1327  0.0335 -0.1732
  733SOL     OW 2977   0.245   1.489   1.587  0.1735  0.5905  0.0573
  733SOL    HW2 2978   0.241   1.499   1.682  0.9846 -0.0242  0.1600
  733SOL    HW3 2979   0.169   1.537   1.555 -1.6558 -1.4479  1.1834
  733SOL    MW4 2980   0.235   1.496   1.596  0.0392  0.2404  0.2193
  734SOL     OW 2981   0.039   1.639   1.482 -0.6512 -0.0458 -0.0223
  734SOL    HW2 2982   0.056   1.734   1.485  2.2207 -0.4952 -0.2260
  734SOL    HW3 2983   0.036   1.619   1.388 -1.6390 -0.0932  0.0223
  734SOL    MW4 2984   0.041   1.649   1.470 -0.4026 -0.1116 -0.0433
  735SOL     OW 2985   0.015   1.935   1.525 -0.0438 -0.1797 -0.3015
  735SOL    HW2 2986   0.024   1.925   1.620  0.4458 -0.4192 -0.3704
  735SOL    HW3 2987  -0.077   1.959   1.512 -0.0402  0.1489  0.2582
  735SOL    MW4 2988   0.004   1.937   1.536  0.0212 -0.1678 -0.2366
  736SOL     OW 2989   0.243   2.077   1.448  0.4570  0.3716  0.0866
  736SOL    HW2 2990   0.164   2.024   1.458  0.5977  0.4396  1.6878
  736SOL    HW3 2991   0.258   2.079   1.354 -1.5594  0.5146 -0.2704
  736SOL    MW4 2992   0.234   2.071   1.437  0.2095  0.3996  0.2509
  737SOL     OW 2993   0.252   2.334   1.573 -0.2163 -0.5888  0.4099
  737SOL    HW2 2994   0.239   2.320   1.667  0.1481 -0.9316  0.4111
  737SOL    HW3 2995   0.237   2.248   1.533  1.1932 -0.8049  0.3238
  737SOL    MW4 2996   0.249   2.321   1.580  0.0177 -0.6626  0.3988
  738SOL     OW 2997   0.007   2.446   1.438 -0.4706 -0.0106  0.3321
  738SOL    HW2 2998  -0.059   2.388   1.475  0.7989 -1.5731  0.2299
  738SOL    HW3 2999   0.085   2.432   1.493  1.0070 -1.2932 -2.0236
  738SOL    MW4 3000   0.009   2.437   1.450 -0.1078 -0.3860  0.0079
  739SOL     OW 3001   4.461   2.681   1.594  0.2990  0.2267  0.1419
  739SOL    HW2 3002   4.404   2.749   1.556 -1.0932 -0.0181  1.7571
  739SOL    HW3 3003   4.450   2.606   1.536 -1.1168  0.1441  0.5075
  739SOL    MW4 3004   4.452   2.680   1.581 -0.0715  0.1836  0.4033
  740SOL     OW 3005   0.174   2.849   1.492  0.2032 -0.3205  0.1725
  740SOL    HW2 3006   0.254   2.800   1.512  0.0457 -0.4641  0.4540
  740SOL    HW3 3007   0.105   2.803   1.540 -0.0400 -0.1592 -0.0182
  740SOL    MW4 3008   0.175   2.836   1.501  0.1503 -0.3181  0.1844
  741SOL     OW 3009   0.181   3.104   1.581  0.5261  0.0606 -0.3078
  741SOL    HW2 3010   0.092   3.134   1.563  0.1418 -0.6413  0.3852
  741SOL    HW3 3011   0.189   3.023   1.531  0.3859 -0.4588  0.4983
  741SOL    MW4 3012   0.170   3.097   1.572  0.4569 -0.1004 -0.1101
  742SOL     OW 3013   4.459   3.225   1.488  0.5739 -0.4617 -0.4728
  742SOL    HW2 3014   4.457   3.308   1.536  2.3811 -1.6167  1.6669
  742SOL    HW3 3015   4.474   3.251   1.397 -4.7524  1.8755 -0.8528
  742SOL    MW4 3016   4.461   3.239   1.482  0.1097 -0.3059 -0.2407
  743SOL     OW 3017   4.456   3.478   1.588 -0.0601 -0.2576  0.0350
  743SOL    HW2 3018   4.444   3.467   1.683 -0.6151  0.0823  0.0095
  743SOL    HW3 3019   4.368   3.499   1.556 -0.0817 -1.3829 -0.6956
  743SOL    MW4 3020   4.443   3.479   1.597 -0.1364 -0.3614 -0.0648
  744SOL     OW 3021   0.184   3.632   1.482 -0.6183  0.2438  0.0787
  744SOL    HW2 3022   0.206   3.710   1.534 -0.0074 -0.0617  0.2792
  744SOL    HW3 3023   0.114   3.590   1.531  1.2542 -1.0995  1.7230
  744SOL    MW4 3024   0.178   3.637   1.495 -0.2906  0.0262  0.3221
  745SOL     OW 3025   0.200   3.885   1.603 -0.0935  0.6508 -0.0443
  745SOL    HW2 3026   0.204   3.893   1.698 -1.1709  1.2851 -0.0393
  745SOL    HW3 3027   0.276   3.933   1.571 -0.7686  2.0739  0.4319
  745SOL    MW4 3028   0.210   3.892   1.612 -0.3247  0.9220  0.0193
  746SOL     OW 3029   4.456   3.976   1.521 -0.0651 -0.5323 -0.1827
  746SOL    HW2 3030   4.455   4.071   1.537 -1.3864 -0.0101 -3.1040
  746SOL    HW3 3031   4.545   3.949   1.542  1.3411  1.9886 -2.5683
  746SOL    MW4 3032   4.468   3.985   1.526 -0.0544 -0.1309 -0.8829
  747SOL     OW 3033   4.476   4.257   1.617  0.5336  0.3748  0.4381
  747SOL    HW2 3034   4.463   4.264   1.711  0.3319  0.3473  0.4138
  747SOL    HW3 3035   4.409   4.314   1.579  0.4780  0.2254  0.3074
  747SOL    MW4 3036   4.465   4.265   1.624  0.4997  0.3514  0.4178
  748SOL     OW 3037   0.207   4.396   1.521  0.2490  0.1383  0.6141
  748SOL    HW2 3038   0.133   4.345   1.555 -0.3865  0.9359  0.4392
  748SOL    HW3 3039   0.283   4.361   1.568  0.2188 -2.6678 -1.2596
  748SOL    MW4 3040   0.207   4.384   1.532  0.1612 -0.1259  0.3437
  749SOL     OW 3041   0.687   4.644   1.621  0.6841  0.5888  0.6235
  749SOL    HW2 3042   0.750   4.705   1.584  0.1659  1.4319  1.1302
  749SOL    HW3 3043   0.602   4.674   1.589  0.2899  0.9798  2.0272
  749SOL    MW4 3044   0.684   4.656   1.612  0.5637  0.7510  0.8756
  750SOL     OW 3045   0.437   0.082   1.563 -0.0696  0.5080  0.2809
  750SOL    HW2 3046   0.352   0.046   1.586  0.6497 -1.1752  0.3981
  750SOL    HW3 3047   0.440   0.077   1.467  0.4236 -0.6929  0.3530
  750SOL    MW4 3048   0.427   0.077   1.553  0.0903  0.1275  0.3059
  751SOL     OW 3049   0.474   0.333   1.658 -0.4722 -0.1502  0.0950
  751SOL    HW2 3050   0.435   0.253   1.624 -0.9668  0.2602 -0.2978
  751SOL    HW3 3051   0.408   0.400   1.644 -0.2641  0.2307  0.8967
  751SOL    MW4 3052   0.460   0.331   1.652 -0.5099 -0.0458  0.1490
  752SOL     OW 3053   0.674   0.477   1.529 -0.3002  0.1058 -0.2094
  752SOL    HW2 3054   0.674   0.563   1.569  0.0809 -0.2217  0.5016
  752SOL    HW3 3055   0.612   0.425   1.580  2.0470 -1.0382  1.6001
  752SOL    MW4 3056   0.666   0.481   1.541  0.0597 -0.0884  0.1231
  753SOL     OW 3057   0.692   0.717   1.616  0.0346  0.0497 -0.3459
  753SOL    HW2 3058   0.668   0.741   1.706  1.4748  0.3288 -0.0144
  753SOL    HW3 3059   0.758   0.782   1.591  0.6182 -0.8235 -1.1106
  753SOL    MW4 3060   0.698   0.729   1.625  0.3016 -0.0287 -0.4029
  754SOL     OW 3061   0.484   0.858   1.495 -0.3116  0.1683 -0.0364
  754SOL    HW2 3062   0.480   0.939   1.545 -0.1714 -0.7997  1.5878
  754SOL    HW3 3063   0.560   0.812   1.529 -0.3053 -0.5866 -1.0349
  754SOL    MW4 3064   0.493   0.863   1.506 -0.2923 -0.0590  0.0461
  755SOL     OW 3065   0.469   1.142   1.610 -0.1569 -0.1693 -0.1226
  755SOL    HW2 3066   0.537   1.195   1.567 -0.3104  0.8327  0.8480
  755SOL    HW3 3067   0.390   1.161   1.559  0.4698 -2.1471 -1.9067
  755SOL    MW4 3068   0.467   1.152   1.598 -0.0945 -0.2980 -0.2298
  756SOL     OW 3069   0.702   1.291   1.513  0.5831 -0.1208  0.2386
  756SOL    HW2 3070   0.667   1.377   1.537  1.0291  0.1922 -0.2187
  756SOL    HW3 3071   0.690   1.286   1.418  0.6170 -0.5366  0.2552
  756SOL    MW4 3072   0.696   1.302   1.504  0.6464 -0.1345  0.1804
  757SOL     OW 3073   0.647   1.536   1.607  0.2797 -0.1946 -0.3486
  757SOL    HW2 3074   0.728   1.571   1.569  0.4780  2.7335  2.5901
  757SOL    HW3 3075   0.578   1.575   1.553  0.6628  1.2273  0.1733
  757SOL    MW4 3076   0.649   1.546   1.595  0.3564  0.3793  0.1079
  758SOL     OW 3077   0.450   1.630   1.468 -0.5305 -0.3162  0.1558
  758SOL    HW2 3078   0.433   1.720   1.497 -1.1349  0.1494 -1.5789
  758SOL    HW3 3079   0.379   1.578   1.506 -0.9262  0.1636  0.0678
  758SOL    MW4 3080   0.439   1.635   1.477 -0.6624 -0.1913 -0.0848
  759SOL     OW 3081   0.434   1.912   1.575 -0.2187  0.4360  0.2580
  759SOL    HW2 3082   0.425   1.924   1.669  0.2724 -0.4730  0.4250
  759SOL    HW3 3083   0.373   1.975   1.537 -1.2627  0.0081  1.2056
  759SOL    MW4 3084   0.425   1.922   1.582 -0.2916  0.2596  0.4051
  760SOL     OW 3085   0.661   2.050   1.503  0.4180  0.0226 -0.1564
  760SOL    HW2 3086   0.730   1.997   1.542  0.7367  1.9856  2.1098
  760SOL    HW3 3087   0.579   2.009   1.532  0.6701  0.0470  0.6165
  760SOL    MW4 3088   0.659   2.038   1.512  0.4933  0.2849  0.2445
  761SOL     OW 3089   0.678   2.321   1.582 -0.0331 -0.1286 -0.1481
  761SOL    HW2 3090   0.600   2.358   1.540  0.9658  0.3848 -1.5677
  761SOL    HW3 3091   0.682   2.231   1.549  0.0079 -0.1436 -0.1022
  761SOL    MW4 3092   0.668   2.314   1.572  0.1041 -0.0629 -0.3294
  762SOL     OW 3093   0.445   2.495   1.467  1.0352  0.2334 -0.0015
  762SOL    HW2 3094   0.416   2.571   1.517  0.1705  0.0246 -0.1763
  762SOL    HW3 3095   0.393   2.422   1.502  0.6319  0.0340 -1.0142
  762SOL    MW4 3096   0.435   2.495   1.478  0.8679  0.1795 -0.1581
  763SOL     OW 3097   0.402   2.743   1.592  0.2005 -0.0457  0.2529
  763SOL    HW2 3098   0.412   2.721   1.684 -0.1681 -0.0573  0.2905
  763SOL    HW3 3099   0.474   2.804   1.573 -1.4668  2.3261  1.2955
  763SOL    MW4 3100   0.413   2.748   1.601 -0.0681  0.2656  0.3954
  764SOL     OW 3101   0.639   2.855   1.513  0.3727 -0.3687 -0.3060
  764SOL    HW2 3102   0.637   2.949   1.530  0.2354 -0.4846  0.3339
  764SOL    HW3 3103   0.641   2.848   1.418  0.9358  0.2920 -0.3491
  764SOL    MW4 3104   0.639   2.866   1.503  0.4289 -0.2968 -0.2272
  765SOL     OW 3105   0.629   3.128   1.564 -0.2313  0.1686 -0.0021
  765SOL    HW2 3106   0.708   3.164   1.524 -0.0019  1.6479  1.7284
  765SOL    HW3 3107   0.557   3.168   1.516  0.0446  0.6148 -0.0429
  765SOL    MW4 3108   0.630   3.138   1.552 -0.1646  0.4225  0.2210
  766SOL     OW 3109   0.395   3.253   1.479  0.9022 -0.4974  0.0598
  766SOL    HW2 3110   0.312   3.219   1.511  0.4260  0.7873  0.2324
  766SOL    HW3 3111   0.395   3.232   1.385  0.0288  0.1882 -0.0964
  766SOL    MW4 3112   0.384   3.246   1.471  0.7242 -0.2377  0.0620
  767SOL     OW 3113   0.414   3.501   1.578  0.4323  0.0859 -0.2977
  767SOL    HW2 3114   0.405   3.411   1.547  1.9377  0.0251 -0.6140
  767SOL    HW3 3115   0.329   3.541   1.563 -0.3174 -1.3486  0.0471
  767SOL    MW4 3116   0.402   3.495   1.572  0.5320 -0.1111 -0.2941
  768SOL     OW 3117   0.637   3.637   1.471  0.2271 -0.5564  0.5320
  768SOL    HW2 3118   0.708   3.590   1.515  0.3533 -0.6716  0.2054
  768SOL    HW3 3119   0.558   3.586   1.492  0.0032  0.3986  2.1408
  768SOL    MW4 3120   0.636   3.624   1.480  0.2142 -0.4456  0.7011
  769SOL     OW 3121   0.653   3.906   1.625  0.0990 -0.1944 -0.2728
  769SOL    HW2 3122   0.727   3.951   1.584  1.2395 -1.1492  0.6791
  769SOL    HW3 3123   0.649   3.821   1.580 -0.5994 -0.0409 -0.5074
  769SOL    MW4 3124   0.662   3.900   1.613  0.1574 -0.3002 -0.1782
  770SOL     OW 3125   0.424   4.026   1.511 -0.4402  0.3122  0.0199
  770SOL    HW2 3126   0.507   3.988   1.541 -1.4412 -1.0660  1.1232
  770SOL    HW3 3127   0.418   3.999   1.420  0.2466  0.2599 -0.0148
  770SOL    MW4 3128   0.434   4.018   1.503 -0.4817  0.1240  0.1608
  771SOL     OW 3129   0.411   4.263   1.647  0.7940  0.3103  0.2525
  771SOL    HW2 3130   0.413   4.175   1.609  0.2026  0.5543 -0.3479
  771SOL    HW3 3131   0.419   4.249   1.742 -0.6695 -0.4707  0.2719
  771SOL    MW4 3132   0.413   4.250   1.655  0.5229  0.2394  0.1760
  772SOL     OW 3133   0.627   4.385   1.511 -0.2207  0.4588 -0.0319
  772SOL    HW2 3134   0.554   4.343   1.557 -1.5032  1.0214 -1.5114
  772SOL    HW3 3135   0.654   4.456   1.570 -0.7473  0.1176  0.6273
  772SOL    MW4 3136   0.621   4.389   1.525 -0.4594  0.4873 -0.1401
  773SOL     OW 3137   1.102   4.626   1.648 -0.2696 -0.0880 -0.2463
  773SOL    HW2 3138   1.102   4.660   1.738  1.2132 -0.7340  0.0122
  773SOL    HW3 3139   1.176   4.670   1.606 -1.4309  0.8242 -1.4062
  773SOL    MW4 3140   1.112   4.637   1.654 -0.2272 -0.0529 -0.3651
  774SOL     OW 3141   0.901   0.098   1.475  0.4126  0.3430 -0.3436
  774SOL    HW2 3142   0.904   0.186   1.513  0.6900 -0.1344  0.7684
  774SOL    HW3 3143   0.969   0.050   1.522 -0.6081 -0.8200 -0.0411
  774SOL    MW4 3144   0.910   0.103   1.486  0.3145  0.1266 -0.1569
  775SOL     OW 3145   0.904   0.347   1.623  0.0346 -0.5385  0.3020
  775SOL    HW2 3146   0.824   0.391   1.597  0.2535 -0.7189 -0.7146
  775SOL    HW3 3147   0.908   0.356   1.718 -0.3375  0.9025  0.1813
  775SOL    MW4 3148   0.894   0.354   1.632  0.0144 -0.3721  0.1519
  776SOL     OW 3149   1.125   0.487   1.541  0.1802 -0.3576  0.3224
  776SOL    HW2 3150   1.107   0.581   1.550  0.1982 -0.3592  0.3721
  776SOL    HW3 3151   1.045   0.444   1.574  0.5793 -0.3808  1.2741
  776SOL    MW4 3152   1.112   0.494   1.546  0.2352 -0.3608  0.4547
  777SOL     OW 3153   1.111   0.777   1.581  0.3001 -0.4264 -0.1270
  777SOL    HW2 3154   1.120   0.776   1.677  0.0642 -0.7565 -0.1054
  777SOL    HW3 3155   1.188   0.825   1.550  0.0559  0.2120  0.2599
  777SOL    MW4 3156   1.122   0.783   1.590  0.2366 -0.3858 -0.0732
  778SOL     OW 3157   0.865   0.893   1.536 -0.5889 -0.0146  0.5399
  778SOL    HW2 3158   0.943   0.844   1.562  0.6613  1.5643 -0.1695
  778SOL    HW3 3159   0.864   0.887   1.441 -0.9455  0.5455  0.5075
  778SOL    MW4 3160   0.875   0.886   1.527 -0.4711  0.2676  0.4421
  779SOL     OW 3161   0.909   1.121   1.666 -0.5353  0.0577  0.8070
  779SOL    HW2 3162   0.899   1.030   1.636  1.3001 -0.3984  1.5254
  779SOL    HW3 3163   0.838   1.168   1.623  0.0019 -1.2321 -1.6033
  779SOL    MW4 3164   0.898   1.115   1.656 -0.2223 -0.1726  0.5838
  780SOL     OW 3165   1.089   1.260   1.507 -0.1097  0.7326 -0.1596
  780SOL    HW2 3166   1.177   1.239   1.539 -0.4965  1.5381  1.4829
  780SOL    HW3 3167   1.031   1.201   1.555 -0.5005  0.3127 -1.1231
  780SOL    MW4 3168   1.093   1.249   1.518 -0.2123  0.7834 -0.0701
  781SOL     OW 3169   1.115   1.538   1.595  0.3180 -0.0935  0.1910
  781SOL    HW2 3170   1.203   1.558   1.564  1.4002 -1.3173  2.3626
  781SOL    HW3 3171   1.100   1.447   1.569 -0.9551  0.5949 -1.5690
  781SOL    MW4 3172   1.124   1.529   1.587  0.2929 -0.1640  0.2452
  782SOL     OW 3173   0.877   1.660   1.515 -0.1274 -0.0740 -0.3081
  782SOL    HW2 3174   0.952   1.612   1.549  0.6772  0.3922 -1.4004
  782SOL    HW3 3175   0.884   1.652   1.420 -1.7982 -0.5264 -0.3952
  782SOL    MW4 3176   0.888   1.653   1.507 -0.2417 -0.0724 -0.4637
  783SOL     OW 3177   0.879   1.902   1.618  0.2000  0.4684 -0.5967
  783SOL    HW2 3178   0.955   1.944   1.578  0.1659  0.9037 -0.2220
  783SOL    HW3 3179   0.868   1.820   1.571  0.8166  0.4714 -0.7458
  783SOL    MW4 3180   0.888   1.897   1.607  0.2769  0.5262 -0.5670
  784SOL     OW 3181   1.077   2.035   1.491 -0.6670 -0.0075 -0.3362
  784SOL    HW2 3182   1.151   1.985   1.524 -0.3698 -0.2606 -1.3526
  784SOL    HW3 3183   1.088   2.123   1.529  0.3902  0.0767 -0.8177
  784SOL    MW4 3184   1.088   2.040   1.500 -0.4884 -0.0298 -0.5339
  785SOL     OW 3185   1.117   2.281   1.599  0.1733  0.0520  0.1127
  785SOL    HW2 3186   1.202   2.325   1.588  0.0811  0.4344  0.9219
  785SOL    HW3 3187   1.056   2.334   1.547  0.5732 -0.6869 -1.1405
  785SOL    MW4 3188   1.120   2.294   1.591  0.2140  0.0050  0.0542
  786SOL     OW 3189   0.897   2.465   1.492 -0.0801  0.7604 -0.0326
  786SOL    HW2 3190   0.904   2.556   1.523 -0.4045  0.8482 -0.2143
  786SOL    HW3 3191   0.817   2.432   1.534 -0.5575  0.8976 -0.8167
  786SOL    MW4 3192   0.887   2.473   1.502 -0.1859  0.7901 -0.1601
  787SOL     OW 3193   0.869   2.722   1.611  0.1298 -0.1557  0.0719
  787SOL    HW2 3194   0.868   2.729   1.707  0.7229  0.1431  0.0586
  787SOL    HW3 3195   0.787   2.764   1.584  0.2284  0.2757  0.4208
  787SOL    MW4 3196   0.858   2.729   1.620  0.2210 -0.0591  0.1161
  788SOL     OW 3197   1.102   2.860   1.527 -0.0494 -0.4729 -0.0552
  788SOL    HW2 3198   1.094   2.954   1.543  0.7468  0.0763 -2.5461
  788SOL    HW3 3199   1.023   2.822   1.566 -0.5548  1.2587  0.6818
  788SOL    MW4 3200   1.091   2.867   1.534 -0.0111 -0.1719 -0.2866
  789SOL     OW 3201   1.101   3.143   1.596  0.2283 -0.4466  0.4215
  789SOL    HW2 3202   1.107   3.124   1.689  2.0950  0.7477  0.5702
  789SOL    HW3 3203   1.189   3.172   1.571 -0.7250  1.1489 -1.2722
  789SOL    MW4 3204   1.113   3.144   1.605  0.3488 -0.0787  0.2176
  790SOL     OW 3205   0.867   3.254   1.487 -0.3197  0.2583 -0.1340
  790SOL    HW2 3206   0.942   3.202   1.516  0.2386  1.5856  0.8722
  790SOL    HW3 3207   0.881   3.267   1.393  0.0647 -0.5384 -0.1871
  790SOL    MW4 3208   0.879   3.249   1.479 -0.1953  0.3281 -0.0081
  791SOL     OW 3209   0.851   3.507   1.630  0.4600  0.2952  0.3235
  791SOL    HW2 3210   0.930   3.549   1.597  0.9344 -1.0637 -0.3210
  791SOL    HW3 3211   0.856   3.417   1.596 -0.4641 -0.3112  1.7412
  791SOL    MW4 3212   0.862   3.501   1.621  0.4007  0.0360  0.4255
  792SOL     OW 3213   1.076   3.601   1.486 -0.4983  0.4487  0.5295
  792SOL    HW2 3214   1.088   3.595   1.391  0.5812  0.0944  0.6731
  792SOL    HW3 3215   1.158   3.565   1.522 -0.5599  1.3527  1.5799
  792SOL    MW4 3216   1.089   3.595   1.478 -0.3641  0.5212  0.6870
  793SOL     OW 3217   1.123   3.884   1.560  0.2891  0.5587  0.1287
  793SOL    HW2 3218   1.188   3.919   1.498 -0.0398  0.4488 -0.2833
  793SOL    HW3 3219   1.124   3.789   1.543  1.6293  0.2712  1.6683
  793SOL    MW4 3220   1.132   3.876   1.549  0.4225  0.5064  0.2774
  794SOL     OW 3221   0.890   3.991   1.498  0.4140 -0.2252  0.5589
  794SOL    HW2 3222   0.885   4.075   1.545  0.1218  0.5550 -0.8436
  794SOL    HW3 3223   0.974   3.953   1.526  0.5583  0.5416  1.1937
  794SOL    MW4 3224   0.901   3.997   1.508  0.3945 -0.0215  0.4575
  795SOL     OW 3225   0.868   4.238   1.614  0.1091 -0.2801 -0.1524
  795SOL    HW2 3226   0.867   4.243   1.709  0.6558 -1.6103 -0.0599
  795SOL    HW3 3227   0.786   4.279   1.587 -0.4088 -0.5739  0.9307
  795SOL    MW4 3228   0.857   4.244   1.623  0.1130 -0.4945  0.0027
  796SOL     OW 3229   1.090   4.373   1.536  0.3217  0.1350 -0.1377
  796SOL    HW2 3230   1.015   4.331   1.577  1.5800 -1.3698  0.6728
  796SOL    HW3 3231   1.098   4.457   1.582 -0.0268 -0.2880  0.7149
  796SOL    MW4 3232   1.081   4.378   1.547  0.4418 -0.1192  0.0818
  797SOL     OW 3233   1.546   4.635   1.623 -0.0529  0.0049  0.0805
  797SOL    HW2 3234   1.545   4.645   1.718 -0.9511  1.8057 -0.1017
  797SOL    HW3 3235   1.467   4.680   1.593 -0.1576 -1.1644 -1.4734
  797SOL    MW4 3236   1.536   4.642   1.631 -0.1853  0.0882 -0.1485
  798SOL     OW 3237   1.322   0.085   1.508 -0.1770  0.2235  0.1081
  798SOL    HW2 3238   1.354   0.166   1.546  0.4988  0.1931 -0.3886
  798SOL    HW3 3239   1.296   0.109   1.419  1.0346 -0.3165 -0.4103
  798SOL    MW4 3240   1.323   0.099   1.501  0.0720  0.1483 -0.0257
  799SOL     OW 3241   1.348   0.338   1.615  0.1925  0.5270 -0.7424
  799SOL    HW2 3242   1.425   0.392   1.598 -0.3763  1.1691 -1.2729
  799SOL    HW3 3243   1.274   0.391   1.587 -0.5195  0.2674  0.5868
  799SOL    MW4 3244   1.348   0.352   1.609  0.0235  0.5775 -0.6371
  800SOL     OW 3245   1.567   0.505   1.546  0.1503  0.3152 -0.3842
  800SOL    HW2 3246   1.654   0.470   1.566 -0.2057 -0.6395 -0.4955
  800SOL    HW3 3247   1.565   0.514   1.451  0.9444  2.5193 -0.2349
  800SOL    MW4 3248   1.578   0.502   1.536  0.2080  0.4801 -0.3793
  801SOL     OW 3249   1.573   0.770   1.622 -0.4534  0.2608 -0.3130
  801SOL    HW2 3250   1.569   0.767   1.718 -1.2149  0.6473 -0.3268
  801SOL    HW3 3251   1.572   0.678   1.595  1.4846  0.1000  0.0987
  801SOL    MW4 3252   1.572   0.757   1.631 -0.2981  0.2906 -0.2605
  802SOL     OW 3253   1.349   0.914   1.503  0.2918  0.5985  0.1943
  802SOL    HW2 3254   1.427   0.865   1.527  0.2430  0.8291  0.8265
  802SOL    HW3 3255   1.344   0.906   1.407  0.6033 -0.1372  0.2369
  802SOL    MW4 3256   1.359   0.906   1.493  0.3264  0.5319  0.2834
  803SOL     OW 3257   1.353   1.175   1.607  0.2004  0.0206 -0.0046
  803SOL    HW2 3258   1.368   1.163   1.701  1.4924 -1.5062 -0.3794
  803SOL    HW3 3259   1.363   1.087   1.570 -0.9303  0.5055 -1.4898
  803SOL    MW4 3260   1.357   1.162   1.615  0.2217 -0.1169 -0.2501
  804SOL     OW 3261   1.600   1.270   1.505  0.1709 -0.3415  0.1353
  804SOL    HW2 3262   1.589   1.269   1.410  1.4026 -2.1018 -0.0245
  804SOL    HW3 3263   1.514   1.247   1.540 -0.4523  0.9284 -0.5088
  804SOL    MW4 3264   1.588   1.267   1.497  0.2513 -0.4063  0.0292
  805SOL     OW 3265   1.352   1.644   1.499 -0.2043  0.0468  0.4998
  805SOL    HW2 3266   1.440   1.623   1.529 -0.8738 -3.5914  0.1781
  805SOL    HW3 3267   1.352   1.622   1.406 -1.1052  1.1836  0.2197
  805SOL    MW4 3268   1.364   1.638   1.491 -0.4115 -0.2832  0.4203
  806SOL     OW 3269   1.347   1.643   1.211  0.4065  0.2439  0.1149
  806SOL    HW2 3270   1.342   1.737   1.195  0.0164  0.4886  1.5672
  806SOL    HW3 3271   1.265   1.608   1.175  0.2281  0.5622  0.2106
  806SOL    MW4 3272   1.336   1.651   1.205  0.3315  0.3183  0.3191
  807SOL     OW 3273   1.297   1.893   1.590 -0.5796 -0.1506  0.5538
  807SOL    HW2 3274   1.303   1.900   1.685 -1.3610 -0.1339  0.6033
  807SOL    HW3 3275   1.312   1.800   1.572 -1.0069 -0.2594  0.7429
  807SOL    MW4 3276   1.300   1.882   1.600 -0.7391 -0.1630  0.5852
  808SOL     OW 3277   1.545   2.054   1.502  0.4890 -0.1267 -0.2133
  808SOL    HW2 3278   1.461   2.016   1.528  1.3521 -1.4266  0.7435
  808SOL    HW3 3279   1.546   2.048   1.407 -0.1693 -0.8380 -0.1729
  808SOL    MW4 3280   1.534   2.048   1.493  0.5159 -0.3924 -0.0817
  809SOL     OW 3281   1.575   2.298   1.621 -0.0846 -0.1695  0.2966
  809SOL    HW2 3282   1.580   2.216   1.572 -1.1956  0.4408 -0.8885
  809SOL    HW3 3283   1.641   2.355   1.581 -0.0178 -0.1483  0.4372
  809SOL    MW4 3284   1.584   2.295   1.610 -0.2223 -0.0861  0.1588
  810SOL     OW 3285   1.338   2.423   1.528 -0.5120 -0.1856  0.7269
  810SOL    HW2 3286   1.347   2.505   1.575 -1.3104 -1.5442  3.3217
  810SOL    HW3 3287   1.421   2.377   1.543 -0.1511  0.0182 -0.5351
  810SOL    MW4 3288   1.351   2.428   1.536 -0.5698 -0.3378  0.9028
  811SOL     OW 3289   1.313   2.701   1.626 -0.4407 -0.0850  0.6894
  811SOL    HW2 3290   1.391   2.754   1.612 -0.2904 -0.3821  0.3871
  811SOL    HW3 3291   1.241   2.754   1.591 -0.1516 -0.5501 -0.6587
  811SOL    MW4 3292   1.314   2.715   1.620 -0.3827 -0.1855  0.4716
  812SOL     OW 3293   1.539   2.831   1.524  0.2747  0.3326 -0.2866
  812SOL    HW2 3294   1.617   2.788   1.560  0.1815 -0.1771 -0.6820
  812SOL    HW3 3295   1.553   2.830   1.429 -0.3600 -0.0464 -0.3773
  812SOL    MW4 3296   1.551   2.825   1.516  0.1786  0.2155 -0.3507
  813SOL     OW 3297   1.530   3.077   1.623 -0.0384  0.2003 -0.1776
  813SOL    HW2 3298   1.619   3.106   1.601  0.1389 -0.5449 -0.4399
  813SOL    HW3 3299   1.530   2.983   1.607  0.0762 -0.3893  2.9296
  813SOL    MW4 3300   1.542   3.069   1.618  0.0001  0.0243  0.1979
  814SOL     OW 3301   1.338   3.225   1.500 -0.0100 -0.3597  0.3486
  814SOL    HW2 3302   1.399   3.173   1.553  1.5670  0.1643 -0.9358
  814SOL    HW3 3303   1.338   3.311   1.542  0.6359 -0.1739 -0.0264
  814SOL    MW4 3304   1.346   3.230   1.513  0.2834 -0.2658  0.1298
  815SOL     OW 3305   1.310   3.489   1.583 -0.2431 -0.5905  0.3982
  815SOL    HW2 3306   1.318   3.510   1.676  1.1975 -1.1191  0.4102
  815SOL    HW3 3307   1.390   3.525   1.544 -1.0407 -0.0093 -0.7004
  815SOL    MW4 3308   1.322   3.496   1.590 -0.1582 -0.5836  0.2550
  816SOL     OW 3309   1.552   3.576   1.454 -0.4971 -0.1547 -0.1266
  816SOL    HW2 3310   1.546   3.667   1.483 -0.2811 -0.5969  1.3466
  816SOL    HW3 3311   1.578   3.582   1.362 -1.0489  1.2814 -0.2003
  816SOL    MW4 3312   1.555   3.589   1.445 -0.5414 -0.0234  0.0581
  817SOL     OW 3313   1.555   3.830   1.565  0.2743 -0.4720  0.4122
  817SOL    HW2 3314   1.549   3.834   1.660 -0.2423 -0.4831  0.3819
  817SOL    HW3 3315   1.485   3.888   1.534  0.5326 -0.3538  0.0414
  817SOL    MW4 3316   1.545   3.838   1.573  0.2402 -0.4578  0.3592
  818SOL     OW 3317   1.376   3.999   1.431  0.7073 -0.6619 -0.4498
  818SOL    HW2 3318   1.354   4.088   1.458 -1.0219 -1.5951  1.3720
  818SOL    HW3 3319   1.371   4.000   1.336 -0.8763  0.7907 -0.3623
  818SOL    MW4 3320   1.372   4.011   1.422  0.2702 -0.5932 -0.1980
  819SOL     OW 3321   1.338   4.241   1.563  0.4101  0.1031  0.0326
  819SOL    HW2 3322   1.253   4.285   1.559 -0.0062 -0.6750  0.2009
  819SOL    HW3 3323   1.401   4.310   1.547 -0.2174  0.8459  0.7400
  819SOL    MW4 3324   1.335   4.256   1.560  0.2724  0.0987  0.1483
  820SOL     OW 3325   1.535   4.410   1.467  0.2841 -0.3148  0.5973
  820SOL    HW2 3326   1.549   4.488   1.521  0.0698 -0.8608  1.4657
  820SOL    HW3 3327   1.608   4.352   1.490  1.4338  0.3270 -1.3554
  820SOL    MW4 3328   1.547   4.412   1.477  0.4075 -0.3018  0.4542
  821SOL     OW 3329   2.015   4.649   1.595 -0.2363  0.3452  0.2075
  821SOL    HW2 3330   2.008   4.634   1.689 -0.4734  0.1742  0.1622
  821SOL    HW3 3331   1.935   4.697   1.572  0.5233  1.7260  0.3579
  821SOL    MW4 3332   2.004   4.654   1.604 -0.1674  0.5050  0.2213
  822SOL     OW 3333   1.768   0.095   1.529  0.2942  0.8679  0.2230
  822SOL    HW2 3334   1.768   0.089   1.433  1.8143 -1.2070  0.3080
  822SOL    HW3 3335   1.686   0.053   1.555 -0.2867  1.7442 -0.1800
  822SOL    MW4 3336   1.757   0.089   1.520  0.4181  0.7098  0.1810
  823SOL     OW 3337   1.794   0.348   1.612 -0.7027 -0.1644  0.0966
  823SOL    HW2 3338   1.878   0.377   1.576 -1.2062  0.5532 -0.5076
  823SOL    HW3 3339   1.791   0.254   1.591 -1.1512  0.3113 -2.0904
  823SOL    MW4 3340   1.805   0.339   1.604 -0.8281 -0.0070 -0.2717
  824SOL     OW 3341   2.036   0.478   1.469 -0.5735 -0.0861  0.2203
  824SOL    HW2 3342   2.104   0.442   1.525 -0.2641 -1.3706 -0.9601
  824SOL    HW3 3343   2.021   0.566   1.503  2.1161  0.4468  0.1380
  824SOL    MW4 3344   2.043   0.485   1.481 -0.1781 -0.1853  0.0538
  825SOL     OW 3345   2.024   0.735   1.585  0.5594  0.3984 -0.2772
  825SOL    HW2 3346   2.107   0.770   1.552  0.0926 -0.9773 -3.0125
  825SOL    HW3 3347   1.957   0.792   1.546  0.1782  2.0711  2.6418
  825SOL    MW4 3348   2.026   0.747   1.575  0.4475  0.4376 -0.2530
  826SOL     OW 3349   1.796   0.870   1.494 -0.1370  0.3770 -0.1897
  826SOL    HW2 3350   1.796   0.964   1.514  1.7232  0.2385  0.5709
  826SOL    HW3 3351   1.727   0.834   1.548 -0.1576  1.1537  0.3178
  826SOL    MW4 3352   1.787   0.878   1.504  0.1057  0.4612 -0.0225
  827SOL     OW 3353   1.801   1.121   1.609 -0.1449 -0.0229  0.5158
  827SOL    HW2 3354   1.881   1.169   1.588  0.2071 -0.0723  1.7452
  827SOL    HW3 3355   1.733   1.166   1.557  0.7297 -0.2525 -0.8616
  827SOL    MW4 3356   1.803   1.134   1.599  0.0169 -0.0598  0.4963
  828SOL     OW 3357   2.038   1.233   1.534 -0.0250 -0.2633  0.8227
  828SOL    HW2 3358   2.031   1.320   1.575 -0.8099 -0.3031  0.7828
  828SOL    HW3 3359   2.044   1.251   1.440  0.6449 -0.2202  0.8706
  828SOL    MW4 3360   2.038   1.247   1.527 -0.0403 -0.2629  0.8237
  829SOL     OW 3361   2.026   1.526   1.606 -0.5310  0.5879  0.4973
  829SOL    HW2 3362   2.111   1.565   1.584  0.1245 -1.1293 -0.0434
  829SOL    HW3 3363   1.963   1.588   1.569  0.4870  1.3727  0.0062
  829SOL    MW4 3364   2.029   1.539   1.598 -0.3099  0.4648  0.3611
  830SOL     OW 3365   1.621   1.559   1.569 -0.4033  0.6782  0.7515
  830SOL    HW2 3366   1.627   1.562   1.664 -0.6952 -1.4601  0.8481
  830SOL    HW3 3367   1.611   1.467   1.548 -1.7639  1.2478 -1.2757
  830SOL    MW4 3368   1.620   1.547   1.579 -0.6213  0.4714  0.4969
  831SOL     OW 3369   1.779   1.922   1.587 -0.1353 -0.6634  0.4524
  831SOL    HW2 3370   1.687   1.944   1.570  0.3556  1.1054 -0.0112
  831SOL    HW3 3371   1.800   1.856   1.521 -0.8949 -0.5798  0.1221
  831SOL    MW4 3372   1.770   1.916   1.576 -0.1707 -0.4191  0.3477
  832SOL     OW 3373   2.255   1.965   1.617  0.6713  0.0252  0.1003
  832SOL    HW2 3374   2.251   1.948   1.711 -1.0164 -0.6818 -0.0858
  832SOL    HW3 3375   2.174   2.011   1.597  1.0390  0.2205 -1.0022
  832SOL    MW4 3376   2.244   1.969   1.626  0.4971 -0.0424 -0.0696
  833SOL     OW 3377   2.222   2.469   1.479  0.2655 -0.2736  0.1404
  833SOL    HW2 3378   2.144   2.438   1.523 -0.6206  2.3608  0.5106
  833SOL    HW3 3379   2.295   2.431   1.528 -0.7622 -1.6783  0.5839
  833SOL    MW4 3380   2.222   2.460   1.491  0.0131 -0.1113  0.2478
  834SOL     OW 3381   1.753   2.471   1.511  0.2542 -0.4001  0.1503
  834SOL    HW2 3382   1.830   2.426   1.545 -0.1243 -1.5011 -0.4419
  834SOL    HW3 3383   1.766   2.474   1.416  0.8552  1.8414  0.2604
  834SOL    MW4 3384   1.765   2.466   1.503  0.2836 -0.2496  0.0867
  835SOL     OW 3385   1.761   2.709   1.652 -0.3500  0.4091  0.4129
  835SOL    HW2 3386   1.764   2.704   1.747 -0.6691  0.2501  0.4171
  835SOL    HW3 3387   1.760   2.617   1.623  0.9988  0.4437  0.2061
  835SOL    MW4 3388   1.761   2.696   1.661 -0.2142  0.3929  0.3862
  836SOL     OW 3389   1.991   2.822   1.535 -0.0666  0.0731 -0.0524
  836SOL    HW2 3390   1.907   2.786   1.564  0.0995 -1.3700 -1.2706
  836SOL    HW3 3391   1.990   2.808   1.440  1.7708 -0.4417 -0.0014
  836SOL    MW4 3392   1.980   2.815   1.526  0.1976 -0.1855 -0.2066
  837SOL     OW 3393   2.006   3.087   1.584 -0.2451  0.0396  0.1107
  837SOL    HW2 3394   2.010   3.106   1.678  0.9098 -0.1286  0.1079
  837SOL    HW3 3395   2.005   2.991   1.579 -0.5402  0.0519 -0.0364
  837SOL    MW4 3396   2.007   3.077   1.596 -0.1318  0.0191  0.0910
  838SOL     OW 3397   1.768   3.175   1.466  0.0177  0.2858  0.3670
  838SOL    HW2 3398   1.770   3.267   1.491  1.5583 -0.0631  1.6451
  838SOL    HW3 3399   1.849   3.138   1.503  0.4209 -1.1454 -1.8148
  838SOL    MW4 3400   1.779   3.182   1.474  0.2741  0.0508  0.2477
  839SOL     OW 3401   1.776   3.450   1.550  0.1986  0.0455  0.1181
  839SOL    HW2 3402   1.783   3.469   1.644 -1.1508 -1.5246  0.5365
  839SOL    HW3 3403   1.691   3.485   1.525 -0.3535 -1.4465 -0.0735
  839SOL    MW4 3404   1.766   3.457   1.559 -0.0523 -0.3586  0.1479
  840SOL     OW 3405   1.993   3.640   1.524  0.3221 -0.1385 -0.6670
  840SOL    HW2 3406   2.067   3.597   1.567  0.1573  0.1706 -0.0746
  840SOL    HW3 3407   1.919   3.583   1.541  0.0138  0.6067  0.5027
  840SOL    MW4 3408   1.993   3.626   1.532  0.2598  0.0005 -0.4344
  841SOL     OW 3409   1.971   3.889   1.634 -0.2285 -0.4512  0.4055
  841SOL    HW2 3410   2.045   3.942   1.605 -0.1713 -0.1543  1.0784
  841SOL    HW3 3411   1.984   3.805   1.590  1.3314 -0.8915  1.6092
  841SOL    MW4 3412   1.983   3.885   1.625 -0.0153 -0.4702  0.6530
  842SOL     OW 3413   1.767   3.987   1.485  0.2968  0.0731 -0.1405
  842SOL    HW2 3414   1.840   3.941   1.528 -0.0344  0.0454  0.3970
  842SOL    HW3 3415   1.689   3.939   1.513 -0.0035  0.6504  0.0052
  842SOL    MW4 3416   1.766   3.974   1.495  0.2134  0.1457 -0.0503
  843SOL     OW 3417   1.739   4.256   1.554  0.5267  0.3069  0.0310
  843SOL    HW2 3418   1.821   4.297   1.527  1.2167 -2.3330 -2.0441
  843SOL    HW3 3419   1.747   4.165   1.525 -2.3131 -0.4924  1.5941
  843SOL    MW4 3420   1.751   4.249   1.547  0.2429 -0.1473 -0.0364
  844SOL     OW 3421   1.984   4.379   1.487 -0.3897  0.1312 -0.0559
  844SOL    HW2 3422   2.057   4.336   1.530  0.3998  0.8151 -0.7105
  844SOL    HW3 3423   1.982   4.468   1.523 -0.8280  0.1539 -0.1244
  844SOL    MW4 3424   1.993   4.385   1.497 -0.3436  0.2241 -0.1514
  845SOL     OW 3425   2.416   4.633   1.590 -0.1443  0.3641  0.2291
  845SOL    HW2 3426   2.410   4.642   1.685  0.7298  0.3483  0.2903
  845SOL    HW3 3427   2.356   4.699   1.556 -1.5435 -0.5951  0.8009
  845SOL    MW4 3428   2.407   4.643   1.598 -0.2136  0.2360  0.3127
  846SOL     OW 3429   2.219   0.145   1.481 -0.1046  0.1060 -0.4210
  846SOL    HW2 3430   2.146   0.090   1.509  0.4558 -0.8899 -0.8810
  846SOL    HW3 3431   2.226   0.130   1.387  0.3949  0.5604 -0.4604
  846SOL    MW4 3432   2.210   0.136   1.472  0.0353  0.0346 -0.4867
  847SOL     OW 3433   2.241   0.370   1.626  0.0062 -0.4665  0.1497
  847SOL    HW2 3434   2.248   0.342   1.717  1.2741 -0.9843 -0.1033
  847SOL    HW3 3435   2.233   0.288   1.577 -1.4083 -0.1609 -0.1526
  847SOL    MW4 3436   2.241   0.355   1.632 -0.0131 -0.4945  0.0764
  848SOL     OW 3437   2.451   0.514   1.508  0.0724 -0.0746  0.1047
  848SOL    HW2 3438   2.540   0.481   1.524  0.3275  0.8316  0.5518
  848SOL    HW3 3439   2.398   0.476   1.578  0.2933  0.1646  0.4005
  848SOL    MW4 3440   2.456   0.504   1.519  0.1352  0.0765  0.2028
  849SOL     OW 3441   2.477   0.764   1.604 -0.3715 -0.2417  0.1465
  849SOL    HW2 3442   2.396   0.806   1.575 -1.3326 -0.6324  2.1788
  849SOL    HW3 3443   2.468   0.672   1.578 -0.3942 -0.2072  0.0308
  849SOL    MW4 3444   2.465   0.757   1.597 -0.5014 -0.2887  0.3994
  850SOL     OW 3445   2.247   0.891   1.512 -0.4133 -0.2842 -0.0659
  850SOL    HW2 3446   2.267   0.975   1.553  0.9378 -0.3040 -0.6481
  850SOL    HW3 3447   2.229   0.912   1.420 -0.5653 -0.5752 -0.1049
  850SOL    MW4 3448   2.247   0.904   1.505 -0.2553 -0.3252 -0.1479
  851SOL     OW 3449   2.287   1.153   1.621 -0.3905  0.6485  0.1301
  851SOL    HW2 3450   2.279   1.166   1.716 -1.0630  1.8754 -0.0837
  851SOL    HW3 3451   2.197   1.152   1.589 -0.3580 -3.0926 -0.1183
  851SOL    MW4 3452   2.274   1.154   1.629 -0.4747  0.3169  0.0691
  852SOL     OW 3453   2.500   1.307   1.524  0.4948  0.0554  0.5113
  852SOL    HW2 3454   2.431   1.249   1.555 -0.0019  0.4115  0.0710
  852SOL    HW3 3455   2.495   1.301   1.429  1.2225 -0.0940  0.4753
  852SOL    MW4 3456   2.490   1.298   1.516  0.5250  0.0825  0.4486
  853SOL     OW 3457   2.485   1.589   1.624 -0.6849  0.1167  0.0069
  853SOL    HW2 3458   2.560   1.639   1.592 -0.3730 -0.2799  0.0989
  853SOL    HW3 3459   2.491   1.505   1.577 -1.5546  0.3906 -0.6127
  853SOL    MW4 3460   2.496   1.584   1.613 -0.7584  0.1005 -0.0627
  854SOL     OW 3461   3.650   3.109   0.300 -0.0646 -0.2044 -0.1022
  854SOL    HW2 3462   3.573   3.164   0.318  1.6507  1.6996  1.7832
  854SOL    HW3 3463   3.625   3.022   0.330 -1.9027  0.1220 -0.6334
  854SOL    MW4 3464   3.636   3.105   0.306 -0.0808  0.0896  0.0765
  855SOL     OW 3465   2.244   1.687   1.532 -0.6647 -0.2727  0.2300
  855SOL    HW2 3466   2.238   1.769   1.581 -1.4347 -1.4033  2.0636
  855SOL    HW3 3467   2.319   1.641   1.569 -1.0707 -1.0106  0.1483
  855SOL    MW4 3468   2.253   1.692   1.543 -0.8202 -0.5193  0.4612
  856SOL     OW 3469   2.488   2.099   1.491 -0.1174 -0.1112 -0.0078
  856SOL    HW2 3470   2.407   2.062   1.527 -0.8859 -0.8799 -2.4320
  856SOL    HW3 3471   2.476   2.096   1.396  2.1798  1.1027 -0.3807
  856SOL    MW4 3472   2.476   2.094   1.483  0.0842 -0.0522 -0.3769
  857SOL     OW 3473   2.453   2.350   1.605  0.0092 -0.3655 -0.6120
  857SOL    HW2 3474   2.475   2.333   1.697 -0.1793  0.3387 -0.4319
  857SOL    HW3 3475   2.456   2.264   1.563  0.9081 -0.5745 -0.1197
  857SOL    MW4 3476   2.456   2.336   1.612  0.1030 -0.3004 -0.5233
  858SOL     OW 3477   2.919   2.835   1.198 -0.2808  0.0289 -0.5702
  858SOL    HW2 3478   2.912   2.840   1.293  0.0580  1.0744 -0.5968
  858SOL    HW3 3479   2.859   2.764   1.173  0.7159 -1.2283  0.5465
  858SOL    MW4 3480   2.910   2.826   1.207 -0.1049  0.0007 -0.4264
  859SOL     OW 3481   2.237   2.718   1.618 -0.0196 -0.1497 -0.3950
  859SOL    HW2 3482   2.218   2.629   1.591 -0.6728 -0.0788 -0.1809
  859SOL    HW3 3483   2.156   2.766   1.603  0.3053  0.3908 -0.4435
  859SOL    MW4 3484   2.224   2.713   1.613 -0.0629 -0.0691 -0.3731
  860SOL     OW 3485   2.439   3.100   1.603 -0.0408 -0.3583 -0.5029
  860SOL    HW2 3486   2.515   3.134   1.556  0.4263 -0.5655  0.1079
  860SOL    HW3 3487   2.364   3.135   1.554  0.4396  0.2665 -0.8012
  860SOL    MW4 3488   2.439   3.110   1.590  0.0842 -0.3035 -0.4618
  861SOL     OW 3489   2.718   3.478   1.576 -0.1040  0.8737  0.5530
  861SOL    HW2 3490   2.717   3.494   1.670 -0.9189  0.7376  0.5663
  861SOL    HW3 3491   2.709   3.383   1.568  1.2880  0.7436  0.3709
  861SOL    MW4 3492   2.717   3.468   1.587 -0.0281  0.8385  0.5308
  862SOL     OW 3493   2.231   3.249   1.487  0.0804  0.3081 -0.0038
  862SOL    HW2 3494   2.227   3.334   1.531  0.1686 -0.8846  2.3476
  862SOL    HW3 3495   2.149   3.206   1.509 -0.0036 -0.2197 -1.2596
  862SOL    MW4 3496   2.220   3.255   1.496  0.0811  0.0811  0.1408
  863SOL     OW 3497   2.240   3.487   1.604 -0.2600  0.1481 -0.3394
  863SOL    HW2 3498   2.225   3.496   1.698  0.7158 -0.9329 -0.0736
  863SOL    HW3 3499   2.319   3.537   1.586  1.0145 -1.7275 -0.1192
  863SOL    MW4 3500   2.248   3.495   1.614  0.0372 -0.2420 -0.2751
  864SOL     OW 3501   2.479   3.890   1.155 -0.6606  0.2577 -0.2537
  864SOL    HW2 3502   2.462   3.797   1.171 -1.1013  0.5803  1.1695
  864SOL    HW3 3503   2.519   3.892   1.068 -1.0699 -1.2206 -0.4879
  864SOL    MW4 3504   2.482   3.878   1.146 -0.7727  0.1054 -0.0967
  865SOL     OW 3505   2.694   4.022   1.511 -0.2975 -0.2388  0.1015
  865SOL    HW2 3506   2.679   4.114   1.534  0.3787  0.4599 -2.1385
  865SOL    HW3 3507   2.698   4.022   1.416  3.6394 -1.9721  0.1724
  865SOL    MW4 3508   2.693   4.034   1.502  0.3107 -0.3753 -0.1848
  866SOL     OW 3509   2.477   3.872   1.591 -0.2417  0.0146 -0.6411
  866SOL    HW2 3510   2.483   3.874   1.686 -0.3662  0.0675 -0.6336
  866SOL    HW3 3511   2.541   3.937   1.562 -2.0566  1.9436 -0.4962
  866SOL    MW4 3512   2.486   3.881   1.600 -0.4973  0.2761 -0.6211
  867SOL     OW 3513   2.186   4.262   1.623 -0.3594  0.2185  0.8025
  867SOL    HW2 3514   2.250   4.320   1.582  0.1284 -0.7914  0.1136
  867SOL    HW3 3515   2.203   4.176   1.585 -0.6848 -0.5058  2.2387
  867SOL    MW4 3516   2.197   4.258   1.613 -0.3381 -0.0105  0.9011
  868SOL     OW 3517   2.425   4.357   1.485  0.0571 -0.2795  0.5336
  868SOL    HW2 3518   2.432   4.446   1.518  0.5357 -0.1982  0.2197
  868SOL    HW3 3519   2.436   4.365   1.390 -0.6066 -0.5906  0.4288
  868SOL    MW4 3520   2.427   4.370   1.477  0.0329 -0.3095  0.4783
  869SOL     OW 3521   2.899   4.625   1.598 -0.0444  0.3681 -0.6321
  869SOL    HW2 3522   2.916   4.651   1.688  0.1292  1.2966 -0.9242
  869SOL    HW3 3523   2.815   4.665   1.576 -1.2123 -1.7513 -0.1563
  869SOL    MW4 3524   2.890   4.633   1.607 -0.1755  0.2112 -0.6077
  870SOL     OW 3525   2.661   0.070   1.491  0.3919  0.5159  0.0998
  870SOL    HW2 3526   2.653   0.162   1.513  0.1824  0.2432  1.1898
  870SOL    HW3 3527   2.583   0.029   1.527  0.1858  0.0017 -0.8997
  870SOL    MW4 3528   2.650   0.077   1.499  0.3374  0.4121  0.1118
  871SOL     OW 3529   2.671   0.360   1.577 -0.0391  0.3913 -0.6676
  871SOL    HW2 3530   2.671   0.353   1.672 -0.2650  1.3507 -0.5975
  871SOL    HW3 3531   2.749   0.411   1.556 -0.1776  0.4808 -0.9753
  871SOL    MW4 3532   2.681   0.366   1.587 -0.0873  0.5297 -0.6990
  872SOL     OW 3533   2.905   0.501   1.522 -0.2174 -0.2593  0.0324
  872SOL    HW2 3534   2.931   0.587   1.556  1.2308 -0.6451 -0.0338
  872SOL    HW3 3535   2.914   0.510   1.427  0.0377 -0.5121  0.0325
  872SOL    MW4 3536   2.910   0.514   1.514  0.0076 -0.3436  0.0236
  873SOL     OW 3537   2.721   0.872   1.525 -0.1292  0.1852 -0.1216
  873SOL    HW2 3538   2.638   0.837   1.556 -0.7159  0.4809 -1.3108
  873SOL    HW3 3539   2.707   0.887   1.431  0.4872  2.4730  0.1201
  873SOL    MW4 3540   2.708   0.869   1.517 -0.1252  0.5261 -0.2465
  874SOL     OW 3541   2.720   1.131   1.632  0.4592  0.0774  0.1811
  874SOL    HW2 3542   2.661   1.179   1.575  2.1249  0.7330 -1.0296
  874SOL    HW3 3543   2.737   1.049   1.585 -0.0153 -0.4094  0.8460
  874SOL    MW4 3544   2.715   1.126   1.618  0.6163  0.0997  0.1091
  875SOL     OW 3545   2.724   1.143   1.910 -0.2172 -0.4467  0.1103
  875SOL    HW2 3546   2.720   1.134   1.815  0.1500 -0.5407  0.1049
  875SOL    HW3 3547   2.637   1.176   1.935  0.2381  1.2320 -0.4371
  875SOL    MW4 3548   2.712   1.146   1.901 -0.1087 -0.2377  0.0373
  876SOL     OW 3549   2.950   1.242   1.514  0.0668  0.1297 -0.7755
  876SOL    HW2 3550   2.879   1.206   1.567 -0.0422  0.2596 -0.8340
  876SOL    HW3 3551   3.030   1.202   1.550  0.1001  1.0326  0.1828
  876SOL    MW4 3552   2.951   1.232   1.526  0.0570  0.2660 -0.6568
  877SOL     OW 3553   2.948   1.535   1.629  0.4863  0.0017  0.2159
  877SOL    HW2 3554   2.937   1.447   1.592  0.8564 -0.1537  0.4743
  877SOL    HW3 3555   2.869   1.582   1.602 -0.0704 -0.6370  0.7066
  877SOL    MW4 3556   2.936   1.529   1.621  0.4616 -0.1030  0.3146
  878SOL     OW 3557   2.739   1.700   1.548 -0.0628  0.2738 -0.7185
  878SOL    HW2 3558   2.722   1.795   1.548  1.3845  0.5431 -1.7777
  878SOL    HW3 3559   2.725   1.674   1.457 -0.3668 -0.5174 -0.4436
  878SOL    MW4 3560   2.735   1.709   1.536  0.0880  0.2049 -0.8219
  879SOL     OW 3561   2.705   1.972   1.615 -0.5655 -0.3680 -0.1880
  879SOL    HW2 3562   2.629   2.017   1.578 -0.0323  1.0297  0.3949
  879SOL    HW3 3563   2.688   1.972   1.709 -0.3655 -1.0401 -0.1512
  879SOL    MW4 3564   2.693   1.978   1.622 -0.4685 -0.2723 -0.1062
  880SOL     OW 3565   2.941   2.069   1.516  0.0768  0.4363  0.2111
  880SOL    HW2 3566   2.958   2.156   1.553  0.9149  0.4469 -0.1885
  880SOL    HW3 3567   2.862   2.039   1.561  0.6360  0.7737  1.4239
  880SOL    MW4 3568   2.933   2.077   1.527  0.2611  0.4821  0.3184
  881SOL     OW 3569   2.934   2.342   1.598 -0.2460 -0.3968  0.5225
  881SOL    HW2 3570   2.940   2.352   1.693 -0.4950  2.5123  0.2574
  881SOL    HW3 3571   2.850   2.383   1.574  1.1930  1.5984 -1.2695
  881SOL    MW4 3572   2.923   2.349   1.607 -0.0889  0.2503  0.2512
  882SOL     OW 3573   2.691   2.480   1.510 -0.0963 -0.1867 -0.2771
  882SOL    HW2 3574   2.685   2.573   1.533  0.8126 -0.8030  2.5506
  882SOL    HW3 3575   2.616   2.439   1.553  0.8360 -1.1312  0.4774
  882SOL    MW4 3576   2.681   2.487   1.518  0.1464 -0.3927  0.1955
  883SOL     OW 3577   2.691   2.739   1.565 -0.1466  0.1801 -0.0075
  883SOL    HW2 3578   2.770   2.779   1.531 -0.0117  0.5996  0.7886
  883SOL    HW3 3579   2.620   2.796   1.536 -0.0440  0.4698  0.3103
  883SOL    MW4 3580   2.692   2.752   1.557 -0.1154  0.2735  0.1395
  884SOL     OW 3581   2.923   2.857   1.475 -0.2263 -0.0726 -0.0569
  884SOL    HW2 3582   2.981   2.798   1.523 -0.0931  0.9377  1.0481
  884SOL    HW3 3583   2.921   2.937   1.528 -2.2434  0.0805 -0.3161
  884SOL    MW4 3584   2.930   2.859   1.489 -0.4749  0.0808  0.0546
  885SOL     OW 3585   2.894   3.102   1.624  0.2186 -0.4733 -0.2530
  885SOL    HW2 3586   2.917   3.106   1.717 -2.0026  0.5372  0.2794
  885SOL    HW3 3587   2.962   3.155   1.581  0.6310 -0.0246  0.9227
  885SOL    MW4 3588   2.906   3.110   1.631 -0.0200 -0.2809 -0.0275
  886SOL     OW 3589   2.488   3.605   1.496 -0.5576 -0.1951  0.1846
  886SOL    HW2 3590   2.497   3.693   1.532  0.0808 -0.7235  1.3623
  886SOL    HW3 3591   2.563   3.557   1.532 -0.5462 -1.0588 -0.9427
  886SOL    MW4 3592   2.499   3.610   1.505 -0.4718 -0.3786  0.1913
  887SOL     OW 3593   3.373   2.473   0.459  0.0906  0.5804  0.2885
  887SOL    HW2 3594   3.442   2.407   0.459  0.2903  0.7841  0.0355
  887SOL    HW3 3595   3.402   2.537   0.394  1.4146  2.4866  2.6421
  887SOL    MW4 3596   3.386   2.473   0.450  0.2916  0.8588  0.5657
  888SOL     OW 3597   2.942   3.633   1.466 -0.1279  0.3871  0.3483
  888SOL    HW2 3598   2.875   3.573   1.497 -0.0314  0.2995  0.3870
  888SOL    HW3 3599   2.938   3.626   1.370  0.6599 -0.5326  0.3819
  888SOL    MW4 3600   2.933   3.624   1.457 -0.0114  0.2539  0.3579
  889SOL     OW 3601   2.901   3.863   1.602 -0.1584 -0.1569 -0.3127
  889SOL    HW2 3602   2.816   3.907   1.596 -0.2835 -0.0763  1.7215
  889SOL    HW3 3603   2.888   3.779   1.558 -0.8530  0.4783 -1.3344
  889SOL    MW4 3604   2.888   3.858   1.596 -0.2668 -0.0625 -0.1791
  890SOL     OW 3605   2.464   4.384   1.211  0.2183 -0.0993  0.2262
  890SOL    HW2 3606   2.468   4.468   1.163 -1.4984 -0.2376 -0.1954
  890SOL    HW3 3607   2.373   4.355   1.200  0.6072 -1.6439  1.0280
  890SOL    MW4 3608   2.452   4.392   1.203  0.0434 -0.3219  0.2763
  891SOL     OW 3609   2.649   4.287   1.618 -0.5504  0.2470 -0.1978
  891SOL    HW2 3610   2.570   4.312   1.571 -1.6680  0.5043  1.7407
  891SOL    HW3 3611   2.720   4.331   1.572 -1.5093 -0.1245 -2.0670
  891SOL    MW4 3612   2.648   4.296   1.606 -0.8247  0.2322 -0.1888
  892SOL     OW 3613   2.898   4.357   1.485 -0.1976 -0.4397  0.1431
  892SOL    HW2 3614   2.899   4.445   1.524 -2.5799 -0.0893 -0.5222
  892SOL    HW3 3615   2.920   4.372   1.393 -0.0205 -0.6147  0.1569
  892SOL    MW4 3616   2.901   4.371   1.478 -0.4888 -0.4163  0.0572
  893SOL     OW 3617   3.356   4.641   1.571 -0.3444 -0.3134 -0.3677
  893SOL    HW2 3618   3.440   4.683   1.553 -0.2600 -0.7595 -1.0153
  893SOL    HW3 3619   3.369   4.550   1.546 -0.9709 -0.4155 -0.3223
  893SOL    MW4 3620   3.369   4.635   1.565 -0.4158 -0.3853 -0.4472
  894SOL     OW 3621   3.132   0.112   1.498  0.1302  0.2138  0.3406
  894SOL    HW2 3622   3.062   0.069   1.547 -0.4036  0.1310 -0.4885
  894SOL    HW3 3623   3.210   0.060   1.517 -0.0803  0.1569  1.0679
  894SOL    MW4 3624   3.133   0.100   1.507  0.0322  0.1953  0.3273
  895SOL     OW 3625   3.125   0.369   1.608  0.2850  0.6414 -0.6031
  895SOL    HW2 3626   3.120   0.281   1.570 -1.5681  0.4881 -0.0936
  895SOL    HW3 3627   3.049   0.415   1.571 -0.0037  1.3305  0.7900
  895SOL    MW4 3628   3.114   0.363   1.598  0.0024  0.7121 -0.3520
  896SOL     OW 3629   3.360   0.468   1.525 -0.0166  0.0510  0.3543
  896SOL    HW2 3630   3.274   0.429   1.539  0.1178 -0.6902 -0.8410
  896SOL    HW3 3631   3.366   0.481   1.431  1.9289 -1.6907  0.2007
  896SOL    MW4 3632   3.349   0.465   1.515  0.2580 -0.2766  0.1763
  897SOL     OW 3633   3.396   0.742   1.619  0.2116 -0.4035  0.3894
  897SOL    HW2 3634   3.365   0.753   1.708  1.0081 -0.8263  0.7298
  897SOL    HW3 3635   3.374   0.651   1.597 -1.1230  0.0757 -0.3078
  897SOL    MW4 3636   3.389   0.731   1.628  0.1407 -0.3960  0.3422
  898SOL     OW 3637   3.177   1.138   1.611 -0.2597 -0.3055  0.2884
  898SOL    HW2 3638   3.155   1.138   1.704  2.3563 -0.6998  0.9492
  898SOL    HW3 3639   3.178   1.046   1.586 -1.0454 -0.1967 -0.1631
  898SOL    MW4 3640   3.174   1.126   1.620 -0.0184 -0.3432  0.3161
  899SOL     OW 3641   3.127   1.147   1.886 -0.0507  0.3407  0.3956
  899SOL    HW2 3642   3.055   1.193   1.929 -0.8361  1.0865 -1.6578
  899SOL    HW3 3643   3.207   1.185   1.924 -0.7134 -0.4299  2.6163
  899SOL    MW4 3644   3.128   1.158   1.896 -0.2418  0.3374  0.4177
  900SOL     OW 3645   3.372   1.303   1.499 -0.0726 -0.1075  0.2725
  900SOL    HW2 3646   3.459   1.273   1.527  0.0089 -0.1275 -0.0073
  900SOL    HW3 3647   3.311   1.242   1.541  0.0281  0.1340  0.7770
  900SOL    MW4 3648   3.375   1.291   1.508 -0.0484 -0.0783  0.3022
  901SOL     OW 3649   3.355   1.575   1.592 -0.2829  0.2584  0.3589
  901SOL    HW2 3650   3.333   1.572   1.685  0.2955 -0.9333  0.4638
  901SOL    HW3 3651   3.346   1.484   1.562  2.5495  0.0690 -0.0239
  901SOL    MW4 3652   3.351   1.562   1.600  0.1671  0.0762  0.3222
  902SOL     OW 3653   3.140   1.690   1.480  0.4736  0.0004 -0.3199
  902SOL    HW2 3654   3.227   1.659   1.508  0.6162  0.9141  0.2665
  902SOL    HW3 3655   3.079   1.634   1.528  0.7360  0.0856  0.1223
  902SOL    MW4 3656   3.144   1.679   1.490  0.5269  0.1321 -0.1842
  903SOL     OW 3657   3.166   1.947   1.599 -0.1403 -0.0729  0.3641
  903SOL    HW2 3658   3.148   1.858   1.568 -0.2634  0.7861 -2.1114
  903SOL    HW3 3659   3.086   1.996   1.579  0.9683  1.2499 -0.8859
  903SOL    MW4 3660   3.153   1.941   1.592 -0.0103  0.2149 -0.1276
  904SOL     OW 3661   3.446   2.036   1.512  0.1682 -0.3177  0.2104
  904SOL    HW2 3662   3.369   1.997   1.552  0.5454 -1.0130  0.2648
  904SOL    HW3 3663   3.438   2.018   1.419 -0.1062  0.2590  0.1190
  904SOL    MW4 3664   3.435   2.029   1.505  0.1819 -0.3333  0.2055
  905SOL     OW 3665   3.381   2.297   1.599 -0.6083 -0.2234  0.1626
  905SOL    HW2 3666   3.450   2.351   1.561 -0.4468 -0.6131 -0.1054
  905SOL    HW3 3667   3.390   2.213   1.555  0.1354 -0.9633  1.6718
  905SOL    MW4 3668   3.391   2.293   1.588 -0.4890 -0.3726  0.3262
  906SOL     OW 3669   3.171   2.455   1.506 -0.0959  0.5837  0.2232
  906SOL    HW2 3670   3.249   2.405   1.530 -0.5583  0.3849  1.3327
  906SOL    HW3 3671   3.097   2.400   1.532 -0.6253  0.5807 -1.2101
  906SOL    MW4 3672   3.171   2.441   1.513 -0.2267  0.5569  0.1805
  907SOL     OW 3673   3.121   2.715   1.616  0.1397  0.4410  0.0499
  907SOL    HW2 3674   3.204   2.744   1.578  0.2635  1.2800  0.9431
  907SOL    HW3 3675   3.114   2.623   1.590  0.5965  0.7791 -1.3223
  907SOL    MW4 3676   3.131   2.707   1.607  0.2162  0.5963 -0.0135
  908SOL     OW 3677   3.353   2.845   1.492  0.1187  0.0390  0.0642
  908SOL    HW2 3678   3.366   2.936   1.519  0.7659 -0.2142  0.6176
  908SOL    HW3 3679   3.346   2.850   1.397 -0.3273  0.7232  0.1266
  908SOL    MW4 3680   3.354   2.858   1.483  0.1454  0.0958  0.1454
  909SOL     OW 3681   3.365   3.114   1.576 -0.3593  0.1731 -0.1175
  909SOL    HW2 3682   3.373   3.131   1.670 -1.4452  0.9126 -0.1490
  909SOL    HW3 3683   3.444   3.153   1.537  1.3709 -2.3302  0.7395
  909SOL    MW4 3684   3.377   3.121   1.583 -0.2742 -0.0596 -0.0087
  910SOL     OW 3685   3.110   3.211   1.480 -0.0539  0.2582  0.1401
  910SOL    HW2 3686   3.111   3.193   1.386  2.0837  0.4008  0.1117
  910SOL    HW3 3687   3.192   3.174   1.513 -1.2052 -0.6324  2.1199
  910SOL    MW4 3688   3.121   3.204   1.472  0.0763  0.1593  0.3976
  911SOL     OW 3689   3.113   3.477   1.582  0.0983  0.4326  0.0679
  911SOL    HW2 3690   3.085   3.394   1.543  0.9723 -0.3551  1.0854
  911SOL    HW3 3691   3.056   3.543   1.541  0.4442 -0.4629 -1.9002
  911SOL    MW4 3692   3.101   3.475   1.572  0.2592  0.2105 -0.0575
  912SOL     OW 3693   3.357   3.555   1.447  0.4632 -0.0947 -0.2145
  912SOL    HW2 3694   3.428   3.522   1.501  0.4368  1.4679  0.8098
  912SOL    HW3 3695   3.278   3.520   1.487  0.5228 -0.0809 -0.0859
  912SOL    MW4 3696   3.356   3.546   1.459  0.4678  0.1135 -0.0623
  913SOL     OW 3697   3.321   3.832   1.566  0.2268  0.1576  0.0831
  913SOL    HW2 3698   3.240   3.873   1.534  0.5717  1.2108  0.5336
  913SOL    HW3 3699   3.313   3.740   1.541 -1.4247  0.1120  0.7154
  913SOL    MW4 3700   3.309   3.826   1.558  0.0546  0.2904  0.2259
  914SOL     OW 3701   3.118   3.967   1.446 -0.0286 -0.1252 -0.4636
  914SOL    HW2 3702   3.132   4.050   1.490  1.2715 -0.7010  0.2099
  914SOL    HW3 3703   3.047   3.925   1.495  0.3148 -0.0562  0.0917
  914SOL    MW4 3704   3.110   3.972   1.458  0.1881 -0.1922 -0.3016
  915SOL     OW 3705   3.137   4.229   1.566 -0.4943 -0.0873  0.2873
  915SOL    HW2 3706   3.140   4.228   1.662 -0.1376 -0.4629  0.2777
  915SOL    HW3 3707   3.052   4.267   1.544 -0.9996 -0.9388  0.7583
  915SOL    MW4 3708   3.126   4.234   1.576 -0.5138 -0.2489  0.3481
  916SOL     OW 3709   3.358   4.349   1.471 -0.2945 -0.0927 -0.1049
  916SOL    HW2 3710   3.279   4.302   1.499  0.2008 -1.7568 -1.3676
  916SOL    HW3 3711   3.349   4.356   1.376  0.5876  0.6136 -0.1398
  916SOL    MW4 3712   3.347   4.344   1.462 -0.1130 -0.2193 -0.2762
  917SOL     OW 3713   3.819   4.612   1.575  0.0868 -0.2263  0.1450
  917SOL    HW2 3714   3.803   4.608   1.670  1.3575  0.6390  0.4152
  917SOL    HW3 3715   3.887   4.679   1.566  1.6784 -1.9938 -1.1739
  917SOL    MW4 3716   3.826   4.621   1.586  0.4642 -0.3457  0.0066
  918SOL     OW 3717   3.593   0.110   1.522  0.0593 -0.6125  0.2055
  918SOL    HW2 3718   3.672   0.065   1.552 -0.5929 -2.8632 -1.3257
  918SOL    HW3 3719   3.593   0.097   1.428 -2.0875 -0.5415  0.1833
  918SOL    MW4 3720   3.604   0.103   1.514 -0.3099 -0.9001  0.0005
  919SOL     OW 3721   3.609   0.369   1.582  0.6571  0.2187 -0.3258
  919SOL    HW2 3722   3.615   0.277   1.558  1.9575  1.0522 -3.4871
  919SOL    HW3 3723   3.517   0.391   1.568  0.9437  0.1145 -2.5520
  919SOL    MW4 3724   3.597   0.360   1.577  0.8667  0.3149 -1.0366
  920SOL     OW 3725   3.825   0.530   1.509  0.4712 -0.2206  0.1075
  920SOL    HW2 3726   3.746   0.483   1.538 -0.2528  0.2899 -0.9928
  920SOL    HW3 3727   3.829   0.514   1.415  0.4110  1.5966 -0.2278
  920SOL    MW4 3728   3.815   0.522   1.500  0.3679  0.0866 -0.0818
  921SOL     OW 3729   3.849   0.781   1.629 -0.3994 -0.0623 -0.1162
  921SOL    HW2 3730   3.770   0.823   1.594 -0.8951  0.1272  1.2339
  921SOL    HW3 3731   3.848   0.693   1.591 -0.6475  0.3129 -1.0109
  921SOL    MW4 3732   3.839   0.775   1.619 -0.4976  0.0122 -0.0563
  922SOL     OW 3733   3.622   0.911   1.555 -0.1826  0.0964 -0.3631
  922SOL    HW2 3734   3.539   0.867   1.575 -0.1380 -0.3914 -1.2197
  922SOL    HW3 3735   3.640   0.887   1.464  0.7612  0.4254 -0.2647
  922SOL    MW4 3736   3.614   0.902   1.546 -0.0522  0.0755 -0.4631
  923SOL     OW 3737   3.622   1.196   1.579 -0.2031 -0.4287  0.1218
  923SOL    HW2 3738   3.706   1.220   1.539 -0.5317 -0.9627 -0.8866
  923SOL    HW3 3739   3.614   1.102   1.564 -0.7597 -0.4724  0.6523
  923SOL    MW4 3740   3.632   1.187   1.572 -0.3197 -0.5049  0.0587
  924SOL     OW 3741   3.872   1.302   1.475  0.6844  0.1265 -0.1799
  924SOL    HW2 3742   3.914   1.243   1.537  0.5168  0.0707 -0.1197
  924SOL    HW3 3743   3.887   1.390   1.511  0.7951  0.1105 -0.1869
  924SOL    MW4 3744   3.880   1.306   1.488  0.6769  0.1171 -0.1727
  925SOL     OW 3745   3.874   1.562   1.605 -0.2662  0.6049  0.2441
  925SOL    HW2 3746   3.879   1.556   1.700 -1.4866  1.0213  0.3308
  925SOL    HW3 3747   3.791   1.605   1.587 -1.6927 -2.6021 -1.1301
  925SOL    MW4 3748   3.864   1.567   1.615 -0.6154  0.2367  0.0740
  926SOL     OW 3749   3.601   1.651   1.524 -0.0673 -0.7315 -0.1578
  926SOL    HW2 3750   3.517   1.611   1.550 -0.1810 -0.7532 -0.5572
  926SOL    HW3 3751   3.600   1.648   1.428  1.2150 -2.4487 -0.1449
  926SOL    MW4 3752   3.589   1.645   1.515  0.0870 -0.9609 -0.2089
  927SOL     OW 3753   3.842   2.064   1.480  0.0003 -0.3840 -0.1692
  927SOL    HW2 3754   3.764   2.019   1.514 -0.9961  0.4160 -1.3553
  927SOL    HW3 3755   3.846   2.145   1.532 -0.1821 -0.2451 -0.3715
  927SOL    MW4 3756   3.832   2.069   1.491 -0.1552 -0.2601 -0.3524
  928SOL     OW 3757   3.668   1.893   1.635  0.1214  0.1396 -0.3456
  928SOL    HW2 3758   3.590   1.945   1.615  0.6663  1.7807  1.5732
  928SOL    HW3 3759   3.650   1.807   1.598 -1.9246  0.9590 -1.3118
  928SOL    MW4 3760   3.655   1.888   1.628 -0.0770  0.4642 -0.2199
  929SOL     OW 3761   3.796   2.313   1.588 -0.2615 -0.1445 -0.2896
  929SOL    HW2 3762   3.788   2.327   1.682 -1.5214  0.6117 -0.4891
  929SOL    HW3 3763   3.874   2.363   1.563 -0.8835  1.0492  0.0990
  929SOL    MW4 3764   3.805   2.322   1.597 -0.5097  0.1130 -0.2646
  930SOL     OW 3765   3.571   2.446   1.470 -0.0478  0.5533 -0.5644
  930SOL    HW2 3766   3.587   2.532   1.509  0.8717 -0.2323  0.8259
  930SOL    HW3 3767   3.640   2.390   1.505 -0.6639 -0.7661 -1.4105
  930SOL    MW4 3768   3.582   2.450   1.480 -0.0076  0.2756 -0.4926
  931SOL     OW 3769   3.591   2.714   1.574 -0.1899 -0.2176 -0.2473
  931SOL    HW2 3770   3.582   2.725   1.669  1.7876  1.1405 -0.1924
  931SOL    HW3 3771   3.514   2.757   1.538  0.1620  1.2094  0.6621
  931SOL    MW4 3772   3.580   2.721   1.582  0.1175  0.1500 -0.1199
  932SOL     OW 3773   4.034   2.688   1.588 -0.3617  0.3774  0.3056
  932SOL    HW2 3774   4.107   2.742   1.557  1.5889 -2.0099  0.5940
  932SOL    HW3 3775   4.030   2.704   1.682  0.3520 -0.1451  0.4249
  932SOL    MW4 3776   4.043   2.698   1.596 -0.0100 -0.0067  0.3593
  933SOL     OW 3777   3.821   3.113   1.539  0.1136  0.1055 -0.0960
  933SOL    HW2 3778   3.907   3.144   1.510 -1.4018  1.8967 -2.8766
  933SOL    HW3 3779   3.817   3.022   1.512  1.0927  0.0292 -0.0030
  933SOL    MW4 3780   3.832   3.105   1.532  0.0429  0.3316 -0.4506
  934SOL     OW 3781   3.600   3.251   1.445 -0.1887  0.1369 -0.0746
  934SOL    HW2 3782   3.689   3.220   1.462 -0.6242 -1.4938 -0.6629
  934SOL    HW3 3783   3.587   3.238   1.351 -1.0410  0.3438  0.0106
  934SOL    MW4 3784   3.610   3.245   1.435 -0.3583 -0.0510 -0.1410
  935SOL     OW 3785   3.592   3.484   1.608 -0.4435 -0.2217  0.0326
  935SOL    HW2 3786   3.645   3.540   1.551 -1.0588  0.7659  0.4125
  935SOL    HW3 3787   3.603   3.396   1.573  0.2238  0.1997 -0.8185
  935SOL    MW4 3788   3.600   3.479   1.596 -0.4365 -0.0358 -0.0296
  936SOL     OW 3789   3.786   3.642   1.454 -0.1834  0.2713 -0.4396
  936SOL    HW2 3790   3.778   3.722   1.506 -2.5076 -0.5190  0.4823
  936SOL    HW3 3791   3.847   3.587   1.503 -0.5280  0.4822  0.2328
  936SOL    MW4 3792   3.793   3.645   1.467 -0.5355  0.1953 -0.2294
  937SOL     OW 3793   3.775   3.868   1.600  0.1902 -0.1101  0.3888
  937SOL    HW2 3794   3.861   3.894   1.569  0.4367 -1.3288  0.0412
  937SOL    HW3 3795   3.715   3.901   1.533  0.3881  0.6791  0.5973
  937SOL    MW4 3796   3.778   3.876   1.587  0.2489 -0.1669  0.3704
  938SOL     OW 3797   3.550   3.972   1.442  0.2760 -0.4838 -0.3016
  938SOL    HW2 3798   3.570   4.050   1.494  0.6333 -0.8861  0.1665
  938SOL    HW3 3799   3.471   3.936   1.483  0.8338 -1.0710  0.2697
  938SOL    MW4 3800   3.542   3.978   1.454  0.3970 -0.6146 -0.1645
  939SOL     OW 3801   3.579   4.216   1.571  0.0755 -0.2339  0.0354
  939SOL    HW2 3802   3.496   4.254   1.542  0.0339 -1.0011 -0.8908
  939SOL    HW3 3803   3.584   4.237   1.664 -1.0145  0.0941  0.0269
  939SOL    MW4 3804   3.569   4.224   1.580 -0.0737 -0.2918 -0.0879
  940SOL     OW 3805   3.797   4.350   1.466 -0.4003  0.2233 -0.3763
  940SOL    HW2 3806   3.802   4.437   1.505  0.5470 -0.3788  0.8594
  940SOL    HW3 3807   3.721   4.310   1.508 -0.9402  0.5048 -1.0718
  940SOL    MW4 3808   3.787   4.356   1.477 -0.3467  0.1807 -0.3048
  941SOL     OW 3809   4.256   4.414   1.506  0.0813 -0.2115  0.0787
  941SOL    HW2 3810   4.175   4.366   1.522 -0.3606  0.3584 -0.4203
  941SOL    HW3 3811   4.276   4.400   1.414  0.0028  0.4744 -0.0464
  941SOL    MW4 3812   4.248   4.406   1.496  0.0129 -0.0453 -0.0037
  942SOL     OW 3813   4.276   4.651   1.625  0.0668  0.1943  0.2386
  942SOL    HW2 3814   4.276   4.645   1.720  1.4264 -2.0836  0.1393
  942SOL    HW3 3815   4.265   4.561   1.595  1.5836  0.6216 -1.7485
  942SOL    MW4 3816   4.274   4.639   1.634  0.4463 -0.0501 -0.0367
  943SOL     OW 3817   4.034   0.393   1.597  0.2276  0.2651 -0.1939
  943SOL    HW2 3818   4.034   0.400   1.692  1.3389 -0.5836 -0.1077
  943SOL    HW3 3819   3.961   0.447   1.568 -0.5561 -0.0317  1.1844
  943SOL    MW4 3820   4.025   0.401   1.606  0.2708  0.1139 -0.0007
  944SOL     OW 3821   4.290   0.512   1.519  0.0401  0.1459  0.2738
  944SOL    HW2 3822   4.208   0.470   1.545 -0.3117  0.8163  0.2572
  944SOL    HW3 3823   4.358   0.461   1.563 -0.4334  0.1091  0.9773
  944SOL    MW4 3824   4.288   0.500   1.528 -0.0682  0.2295  0.3643
  945SOL     OW 3825   4.243   0.766   1.590 -0.0376  0.6147  0.1545
  945SOL    HW2 3826   4.254   0.674   1.566 -1.3347  0.5818 -0.3757
  945SOL    HW3 3827   4.323   0.809   1.560  0.4506 -0.2900  0.1603
  945SOL    MW4 3828   4.255   0.760   1.583 -0.1440  0.4910  0.0855
  946SOL     OW 3829   4.036   0.891   1.461  0.3214 -0.0005  0.5734
  946SOL    HW2 3830   4.121   0.850   1.481  0.1406 -0.4928  0.3379
  946SOL    HW3 3831   3.975   0.850   1.522  0.3387  0.6763  1.0391
  946SOL    MW4 3832   4.039   0.880   1.472  0.2999  0.0238  0.6037
  947SOL     OW 3833   4.062   1.132   1.597  0.2214  0.0480  0.0359
  947SOL    HW2 3834   4.088   1.127   1.689 -0.9554 -0.1049  0.3718
  947SOL    HW3 3835   4.046   1.042   1.572 -1.7735  0.2859  0.3788
  947SOL    MW4 3836   4.064   1.120   1.606 -0.1974  0.0591  0.1255
  948SOL     OW 3837   4.282   1.268   1.449  0.3028  0.2540  0.3877
  948SOL    HW2 3838   4.201   1.234   1.486 -0.0957  0.3336 -0.4011
  948SOL    HW3 3839   4.352   1.220   1.494 -0.2240 -0.8717  0.0187
  948SOL    MW4 3840   4.281   1.258   1.460  0.1802  0.1160  0.2347
  949SOL     OW 3841   4.298   1.520   1.541  0.1394  0.1252  0.2260
  949SOL    HW2 3842   4.292   1.438   1.492  1.0398  0.3986 -0.3620
  949SOL    HW3 3843   4.381   1.558   1.513  0.5512  0.4029  1.7841
  949SOL    MW4 3844   4.308   1.514   1.531  0.3128  0.1979  0.3539
  950SOL     OW 3845   4.045   1.917   1.607 -0.0817  0.1852  0.0330
  950SOL    HW2 3846   4.061   1.831   1.569 -0.9929 -0.4214  1.0061
  950SOL    HW3 3847   3.972   1.953   1.557  0.6899  0.6472 -0.7675
  950SOL    MW4 3848   4.038   1.911   1.596 -0.1006  0.1662  0.0558
  951SOL     OW 3849   4.081   1.688   1.451 -0.3191 -0.3133 -0.1063
  951SOL    HW2 3850   4.158   1.638   1.481  0.4399  0.0623 -1.3800
  951SOL    HW3 3851   4.007   1.648   1.497  0.3943 -2.0032 -0.3970
  951SOL    MW4 3852   4.082   1.676   1.461 -0.1254 -0.4866 -0.3126
  952SOL     OW 3853   4.256   2.029   1.473 -0.0929  0.9025 -0.4199
  952SOL    HW2 3854   4.173   1.996   1.507  0.7087  0.9410  1.6736
  952SOL    HW3 3855   4.252   2.013   1.379 -2.0646  0.0377 -0.2137
  952SOL    MW4 3856   4.244   2.023   1.465 -0.2470  0.7935 -0.1165
  953SOL     OW 3857   4.273   2.307   1.536  0.0277 -0.0010 -0.0389
  953SOL    HW2 3858   4.267   2.305   1.632 -0.7762  1.0433 -0.0528
  953SOL    HW3 3859   4.287   2.216   1.511  0.7177 -0.2169  1.1027
  953SOL    MW4 3860   4.274   2.295   1.546  0.0134  0.1080  0.1100
  954SOL     OW 3861   4.026   2.422   1.498  0.4874  0.2715  0.2941
  954SOL    HW2 3862   4.040   2.511   1.528  0.2615  0.1810  0.6723
  954SOL    HW3 3863   4.112   2.380   1.502  0.8292  0.8186 -1.0345
  954SOL    MW4 3864   4.039   2.428   1.502  0.5031  0.3319  0.1687
  955SOL     OW 3865   4.264   2.860   1.458 -0.0307 -0.5737 -0.1916
  955SOL    HW2 3866   4.247   2.940   1.506  0.3183 -0.7219  0.1761
  955SOL    HW3 3867   4.265   2.887   1.366  0.6846 -0.0506 -0.0326
  955SOL    MW4 3868   4.262   2.874   1.452  0.1092 -0.5243 -0.1220
  956SOL     OW 3869   4.251   2.855   1.177  0.3097  0.2043  0.9483
  956SOL    HW2 3870   4.168   2.819   1.147  0.3371  0.2872  0.7715
  956SOL    HW3 3871   4.317   2.796   1.141  0.4398  1.2075 -0.5344
  956SOL    MW4 3872   4.249   2.843   1.168  0.3309  0.3476  0.7293
  957SOL     OW 3873   4.257   3.081   1.610  0.1712 -0.4214 -0.1986
  957SOL    HW2 3874   4.272   3.096   1.704  2.0117  0.5655 -0.6088
  957SOL    HW3 3875   4.323   3.136   1.567 -1.5909  0.2665 -2.1073
  957SOL    MW4 3876   4.268   3.091   1.617  0.1817 -0.2005 -0.5047
  958SOL     OW 3877   4.069   3.198   1.442 -0.0418  0.2434  0.2895
  958SOL    HW2 3878   4.063   3.288   1.472  1.8318  0.3190  0.5107
  958SOL    HW3 3879   4.124   3.154   1.507  1.0994 -0.4481 -1.0884
  958SOL    MW4 3880   4.076   3.204   1.454  0.3557  0.1621  0.1371
  959SOL     OW 3881   3.970   3.465   1.567  0.2762 -0.0241  0.0930
  959SOL    HW2 3882   3.966   3.470   1.663  0.5667 -2.9756  0.2987
  959SOL    HW3 3883   4.042   3.523   1.543  1.4122 -0.6726  1.8240
  959SOL    MW4 3884   3.979   3.473   1.577  0.4644 -0.4988  0.3487
  960SOL     OW 3885   4.208   3.584   1.498  0.2959 -0.0389 -0.2622
  960SOL    HW2 3886   4.236   3.672   1.524  0.8436  0.0983 -1.2934
  960SOL    HW3 3887   4.226   3.579   1.404  0.4406 -1.3154 -0.1847
  960SOL    MW4 3888   4.214   3.595   1.489  0.3877 -0.1895 -0.3879
  961SOL     OW 3889   4.230   3.846   1.624  0.1870  0.2812  0.1595
  961SOL    HW2 3890   4.156   3.891   1.583  0.7216  0.0757 -1.0364
  961SOL    HW3 3891   4.307   3.889   1.587  0.6766  0.1751  1.0473
  961SOL    MW4 3892   4.230   3.858   1.614  0.3214  0.2398  0.1189
  962SOL     OW 3893   4.019   3.985   1.525  0.2631 -0.2297  0.1509
  962SOL    HW2 3894   4.016   4.076   1.553  1.6456 -0.1380  0.0728
  962SOL    HW3 3895   4.014   3.989   1.429  0.0917 -0.2447  0.1602
  962SOL    MW4 3896   4.018   3.997   1.516  0.4230 -0.2198  0.1419
  963SOL     OW 3897   4.029   4.275   1.580 -0.2462  0.3170 -0.1648
  963SOL    HW2 3898   4.024   4.292   1.674 -0.2187  1.0579 -0.2960
  963SOL    HW3 3899   3.945   4.304   1.546 -0.3541 -0.1914 -0.3377
  963SOL    MW4 3900   4.017   4.281   1.588 -0.2565  0.3471 -0.2049
  964SOL     OW 3901   4.267   4.376   1.227 -0.0938 -0.1435 -0.1629
  964SOL    HW2 3902   4.322   4.312   1.182 -1.6584 -1.8522  0.2447
  964SOL    HW3 3903   4.180   4.362   1.190 -1.0906 -0.4920  2.1977
  964SOL    MW4 3904   4.263   4.365   1.216 -0.4315 -0.4148  0.2023
  965SOL     OW 3905   0.180   4.658   1.927 -0.5487  0.0422 -0.0659
  965SOL    HW2 3906   0.267   4.691   1.953  0.2477 -2.0108 -0.0431
  965SOL    HW3 3907   0.179   4.668   1.832 -0.0442 -0.5044 -0.1295
  965SOL    MW4 3908   0.192   4.664   1.918 -0.3771 -0.3009 -0.0714
  966SOL     OW 3909   4.429   0.101   1.998 -0.0591  0.0209  0.5770
  966SOL    HW2 3910   4.439   0.194   1.976  0.0016 -0.1815 -0.2545
  966SOL    HW3 3911   4.507   0.059   1.961 -1.3255 -0.7430 -1.2600
  966SOL    MW4 3912   4.441   0.108   1.990 -0.2179 -0.1066  0.2249
  967SOL     OW 3913   4.481   0.374   1.918 -0.2169  0.2971 -0.0330
  967SOL    HW2 3914   4.406   0.431   1.938 -0.9520 -0.6338 -0.1219
  967SOL    HW3 3915   4.556   0.418   1.959 -0.9676  0.7560  0.8627
  967SOL    MW4 3916   4.481   0.387   1.926 -0.4129  0.2348  0.0734
  968SOL     OW 3917   0.226   0.514   2.011  0.2057  0.3209  0.4519
  968SOL    HW2 3918   0.302   0.456   2.008  0.4492  0.5928  1.1012
  968SOL    HW3 3919   0.256   0.596   1.973 -1.0241 -0.9017 -3.3901
  968SOL    MW4 3920   0.240   0.517   2.006  0.0756  0.1955  0.0305
  969SOL     OW 3921   0.274   0.763   1.894 -0.4054 -0.2169 -0.1867
  969SOL    HW2 3922   0.332   0.827   1.935 -0.5826 -0.5676  0.6122
  969SOL    HW3 3923   0.276   0.786   1.801 -1.5663  1.8356  0.2678
  969SOL    MW4 3924   0.282   0.775   1.887 -0.5820  0.0076 -0.0212
  970SOL     OW 3925   0.035   0.874   2.000  0.1069  0.0128 -0.0018
  970SOL    HW2 3926  -0.049   0.837   1.973  0.8450  0.3534 -2.9691
  970SOL    HW3 3927   0.101   0.820   1.955  1.4708  0.0669  1.8772
  970SOL    MW4 3928   0.033   0.862   1.990  0.3843  0.0649 -0.1452
  971SOL     OW 3929   0.034   1.115   1.868  0.2105 -0.2374 -0.2976
  971SOL    HW2 3930  -0.052   1.145   1.896  0.3386 -0.8676  0.7678
  971SOL    HW3 3931   0.055   1.042   1.926  1.0417 -0.7208 -1.1798
  971SOL    MW4 3932   0.025   1.109   1.879  0.3371 -0.3843 -0.2733
  972SOL     OW 3933   0.232   1.281   1.985  0.5298  0.3084  0.5207
  972SOL    HW2 3934   0.229   1.371   1.953  0.7961 -0.0850 -0.6297
  972SOL    HW3 3935   0.153   1.240   1.950  1.1098 -0.2788 -0.1185
  972SOL    MW4 3936   0.221   1.287   1.976  0.6415  0.1792  0.2846
  973SOL     OW 3937   0.231   1.524   1.872 -0.0237  0.3198  0.1461
  973SOL    HW2 3938   0.302   1.570   1.916 -0.8756 -0.5468  2.5226
  973SOL    HW3 3939   0.152   1.573   1.897 -0.6160 -0.7014  0.2970
  973SOL    MW4 3940   0.230   1.536   1.881 -0.2142  0.0706  0.4796
  974SOL     OW 3941   4.473   1.655   1.940  0.0978 -0.4587 -0.4034
  974SOL    HW2 3942   4.480   1.645   2.035 -1.2324  0.3621 -0.2171
  974SOL    HW3 3943   4.408   1.590   1.914 -1.1977  0.8406 -0.4576
  974SOL    MW4 3944   4.466   1.645   1.949 -0.2484 -0.1789 -0.3859
  975SOL     OW 3945   0.007   1.919   1.806 -0.2534 -0.7579  0.2654
  975SOL    HW2 3946  -0.000   1.830   1.843 -0.5821 -1.0646 -0.5312
  975SOL    HW3 3947  -0.066   1.967   1.845  0.8221 -0.4079  1.8837
  975SOL    MW4 3948  -0.003   1.913   1.816 -0.1549 -0.7521  0.3738
  976SOL     OW 3949   0.216   2.019   1.946 -0.1207 -0.1965 -0.0265
  976SOL    HW2 3950   0.230   2.113   1.935 -0.9609 -0.1241 -0.5641
  976SOL    HW3 3951   0.141   1.999   1.889  0.2451 -1.2453 -0.1570
  976SOL    MW4 3952   0.208   2.029   1.937 -0.1833 -0.3254 -0.1148
  977SOL     OW 3953   0.219   2.299   1.871  0.7500 -0.0689 -0.3870
  977SOL    HW2 3954   0.301   2.342   1.897  0.9889 -1.2723  0.8927
  977SOL    HW3 3955   0.152   2.340   1.925  0.9077 -0.9557  0.4892
  977SOL    MW4 3956   0.221   2.310   1.881  0.8023 -0.3448 -0.1026
  978SOL     OW 3957   4.473   2.443   1.975  0.2131 -0.0374  0.1178
  978SOL    HW2 3958   4.475   2.451   2.070 -0.2818 -0.0640  0.1284
  978SOL    HW3 3959   4.475   2.533   1.943 -1.0751  0.0214  0.1767
  978SOL    MW4 3960   4.474   2.456   1.983 -0.0224 -0.0331  0.1268
  979SOL     OW 3961   4.483   2.703   1.858 -0.0450  0.3015 -0.6518
  979SOL    HW2 3962   4.409   2.752   1.894  0.1469 -0.2074  0.4561
  979SOL    HW3 3963   4.459   2.688   1.766 -1.3788  0.0438 -0.2832
  979SOL    MW4 3964   4.470   2.707   1.850 -0.1955  0.2005 -0.4570
  980SOL     OW 3965   0.447   2.699   1.861 -0.3401  0.0473  0.2872
  980SOL    HW2 3966   0.358   2.731   1.875  0.1001  0.1556  2.9960
  980SOL    HW3 3967   0.445   2.608   1.893  0.3788 -0.1414 -0.1886
  980SOL    MW4 3968   0.435   2.691   1.867 -0.1872  0.0367  0.5819
  981SOL     OW 3969   0.196   3.103   1.846 -0.0982  0.0245  0.5381
  981SOL    HW2 3970   0.270   3.158   1.871  1.2216 -1.4228 -0.1240
  981SOL    HW3 3971   0.193   3.108   1.750 -0.2409 -0.7076  0.4981
  981SOL    MW4 3972   0.205   3.111   1.836  0.0571 -0.2627  0.4455
  982SOL     OW 3973   4.477   3.231   1.973 -0.0991  0.2088  0.4348
  982SOL    HW2 3974   4.390   3.194   1.955 -0.1884  0.5917  0.0865
  982SOL    HW3 3975   4.536   3.182   1.917 -0.1671  0.3506  0.2418
  982SOL    MW4 3976   4.473   3.220   1.964 -0.1202  0.2782  0.3633
  983SOL     OW 3977   4.427   3.483   1.864 -0.3043 -0.2462  0.3606
  983SOL    HW2 3978   4.436   3.398   1.907  0.4747  1.0205  2.8250
  983SOL    HW3 3979   4.506   3.531   1.889 -0.9050  1.3290 -0.6890
  983SOL    MW4 3980   4.439   3.478   1.873 -0.2809  0.1287  0.5474
  984SOL     OW 3981   0.161   3.594   1.947  0.2753 -0.3245 -0.4921
  984SOL    HW2 3982   0.172   3.563   2.037  1.2477 -0.3600 -0.6186
  984SOL    HW3 3983   0.232   3.552   1.898  0.5433  0.7125 -1.0161
  984SOL    MW4 3984   0.172   3.585   1.952  0.4389 -0.1922 -0.5778
  985SOL     OW 3985   0.180   3.861   1.887  0.1116  0.1812  0.3598
  985SOL    HW2 3986   0.259   3.901   1.923  0.3054  0.0660  0.0599
  985SOL    HW3 3987   0.177   3.773   1.925 -0.2161  0.4130  0.8747
  985SOL    MW4 3988   0.190   3.855   1.897  0.0939  0.1965  0.3881
  986SOL     OW 3989   4.460   3.994   2.012  0.2286 -0.2787 -0.1685
  986SOL    HW2 3990   4.458   4.082   1.976 -0.9754 -0.5559 -0.7986
  986SOL    HW3 3991   4.521   3.946   1.956  0.8205  0.1248  0.1255
  986SOL    MW4 3992   4.468   3.999   2.000  0.1478 -0.2620 -0.2130
  987SOL     OW 3993   4.448   4.245   1.917  0.0315 -0.3908 -0.0381
  987SOL    HW2 3994   4.375   4.305   1.932  1.4466  2.0675 -2.4132
  987SOL    HW3 3995   4.524   4.290   1.953  0.6829 -2.1359  0.8316
  987SOL    MW4 3996   4.448   4.259   1.923  0.3037 -0.2966 -0.2366
  988SOL     OW 3997   0.156   4.407   2.014 -0.0037  0.3943 -0.1844
  988SOL    HW2 3998   0.170   4.408   2.108  0.0597 -0.1011 -0.1887
  988SOL    HW3 3999   0.184   4.494   1.985 -0.0399  0.5514  0.2536
  988SOL    MW4 4000   0.162   4.419   2.022 -0.0001  0.3500 -0.1268
  989SOL     OW 4001   0.657   0.010   1.915 -0.0010 -0.2619  0.4077
  989SOL    HW2 4002   0.658  -0.080   1.945 -0.5559 -0.3019  0.3010
  989SOL    HW3 4003   0.664   0.004   1.820 -0.2724 -0.1998  0.3841
  989SOL    MW4 4004   0.658  -0.002   1.906 -0.1101 -0.2594  0.3906
  990SOL     OW 4005   0.426   0.104   2.010 -0.2917 -0.6258  0.3334
  990SOL    HW2 4006   0.428   0.199   2.003 -1.9836 -0.6043 -0.0670
  990SOL    HW3 4007   0.502   0.075   1.959  1.0240  0.5351  1.5599
  990SOL    MW4 4008   0.437   0.113   2.002 -0.3414 -0.4698  0.4423
  991SOL     OW 4009   0.438   0.368   1.940  0.3835 -0.3085  0.3314
  991SOL    HW2 4010   0.524   0.409   1.943 -0.3764  1.5481 -1.4636
  991SOL    HW3 4011   0.422   0.355   1.846 -0.1526 -3.1456  0.7867
  991SOL    MW4 4012   0.447   0.372   1.928  0.2125 -0.4379  0.1546
  992SOL     OW 4013   0.674   0.511   2.002  0.1158 -0.2416  0.3190
  992SOL    HW2 4014   0.700   0.508   2.094 -0.0970  0.0880  0.3896
  992SOL    HW3 4015   0.746   0.468   1.956 -0.3510 -1.5359  0.7567
  992SOL    MW4 4016   0.687   0.505   2.008  0.0261 -0.3688  0.3860
  993SOL     OW 4017   0.658   0.789   1.886  0.4478  0.3137 -0.1416
  993SOL    HW2 4018   0.742   0.826   1.912  1.0138 -0.6500 -0.5712
  993SOL    HW3 4019   0.661   0.699   1.918 -0.9714  0.6480  1.0214
  993SOL    MW4 4020   0.670   0.782   1.894  0.3352  0.2306 -0.0448
  994SOL     OW 4021   0.456   0.942   2.021  0.5617  0.0278 -0.5787
  994SOL    HW2 4022   0.461   1.027   1.979  0.0378  0.1179 -0.4694
  994SOL    HW3 4023   0.528   0.891   1.984  1.8868  1.0408  0.5587
  994SOL    MW4 4024   0.466   0.946   2.011  0.6674  0.1733 -0.4141
  995SOL     OW 4025   0.486   1.207   1.893 -0.0815  0.1243  0.0886
  995SOL    HW2 4026   0.398   1.231   1.922 -0.0050  0.6718 -0.1173
  995SOL    HW3 4027   0.475   1.185   1.801 -0.2940 -1.4451  0.4789
  995SOL    MW4 4028   0.473   1.208   1.885 -0.0995 -0.0105  0.1130
  996SOL     OW 4029   0.715   1.306   2.002  0.3648 -0.6017 -0.6246
  996SOL    HW2 4030   0.686   1.319   2.093  0.4187 -1.1647 -0.5240
  996SOL    HW3 4031   0.642   1.261   1.960  0.5294 -0.7731 -0.7308
  996SOL    MW4 4032   0.702   1.301   2.009  0.3936 -0.6986 -0.6254
  997SOL     OW 4033   0.667   1.552   1.889  0.3344 -0.2143  0.2101
  997SOL    HW2 4034   0.685   1.461   1.912 -0.8933 -0.6025 -0.3296
  997SOL    HW3 4035   0.652   1.551   1.795 -1.5089  0.2195  0.4743
  997SOL    MW4 4036   0.668   1.540   1.880 -0.0708 -0.2083  0.1738
  998SOL     OW 4037   0.422   1.642   2.020  0.1800 -0.2983  0.0694
  998SOL    HW2 4038   0.428   1.683   2.107 -0.8049 -0.1118  0.0559
  998SOL    HW3 4039   0.511   1.615   2.000  0.5281  0.2540  0.8571
  998SOL    MW4 4040   0.434   1.644   2.029  0.0960 -0.2009  0.1714
  999SOL     OW 4041   0.424   1.876   1.863 -0.6189 -0.3405 -0.3982
  999SOL    HW2 4042   0.423   1.793   1.910  0.1028 -0.0688  0.1067
  999SOL    HW3 4043   0.346   1.923   1.893 -0.4720 -0.4096  0.0886
  999SOL    MW4 4044   0.414   1.871   1.873 -0.5043 -0.3138 -0.2673
 1000SOL     OW 4045   0.667   1.982   1.973  0.1338  0.4263  0.3560
 1000SOL    HW2 4046   0.660   2.005   2.066  0.5558  0.0138  0.4887
 1000SOL    HW3 4047   0.579   1.954   1.949  0.5239 -1.5808  1.1963
 1000SOL    MW4 4048   0.654   1.981   1.982  0.2409  0.1070  0.4845
 1001SOL     OW 4049   0.643   2.255   1.879 -0.1935 -0.6012 -0.1922
 1001SOL    HW2 4050   0.639   2.162   1.900 -0.5022 -0.8069 -1.1489
 1001SOL    HW3 4051   0.636   2.259   1.784 -1.9780  0.5073 -0.0281
 1001SOL    MW4 4052   0.642   2.243   1.869 -0.4697 -0.4823 -0.2967
 1002SOL     OW 4053   0.446   2.434   1.962  0.6013 -0.0186 -0.3978
 1002SOL    HW2 4054   0.453   2.439   2.057  1.0286 -1.2421 -0.3617
 1002SOL    HW3 4055   0.509   2.367   1.937  0.1158 -0.0670 -1.5015
 1002SOL    MW4 4056   0.455   2.426   1.971  0.5936 -0.1862 -0.5387
 1003SOL     OW 4057   0.211   2.828   1.938 -0.0045 -0.4631  0.0977
 1003SOL    HW2 4058   0.192   2.910   1.892  1.0114 -0.6165 -0.5969
 1003SOL    HW3 4059   0.140   2.770   1.913  0.3759 -0.4510 -1.0473
 1003SOL    MW4 4060   0.199   2.831   1.929  0.1798 -0.4816 -0.1451
 1004SOL     OW 4061   0.650   2.889   1.929  0.6864  0.2499 -0.1814
 1004SOL    HW2 4062   0.642   2.884   2.024 -0.1926  0.8597 -0.2196
 1004SOL    HW3 4063   0.583   2.831   1.895 -0.2394  1.4486 -0.4396
 1004SOL    MW4 4064   0.640   2.881   1.937  0.4482  0.4883 -0.2205
 1005SOL     OW 4065   0.696   3.156   1.827 -0.0639 -0.1101  0.1577
 1005SOL    HW2 4066   0.691   3.064   1.853 -0.9848  0.2291  1.2104
 1005SOL    HW3 4067   0.672   3.157   1.734  0.5360 -0.9951 -0.0098
 1005SOL    MW4 4068   0.692   3.144   1.818 -0.1063 -0.1824  0.2744
 1006SOL     OW 4069   0.430   3.231   1.942 -0.1731  0.4426  0.0660
 1006SOL    HW2 4070   0.514   3.206   1.903 -1.2722  0.3751 -2.3320
 1006SOL    HW3 4071   0.422   3.324   1.924 -2.2709 -0.2738 -3.0261
 1006SOL    MW4 4072   0.440   3.240   1.935 -0.5949  0.3393 -0.6583
 1007SOL     OW 4073   0.400   3.484   1.852  0.2775  0.4938  0.4397
 1007SOL    HW2 4074   0.466   3.536   1.897 -0.7565  1.9900  0.2471
 1007SOL    HW3 4075   0.419   3.496   1.759 -0.3155  0.9827  0.3840
 1007SOL    MW4 4076   0.411   3.492   1.845  0.0629  0.7558  0.4070
 1008SOL     OW 4077   0.619   3.624   1.970  0.2374 -0.5510 -0.1923
 1008SOL    HW2 4078   0.697   3.572   1.951  0.7859  0.0546  0.3640
 1008SOL    HW3 4079   0.639   3.711   1.934  1.0401  0.4386  2.5037
 1008SOL    MW4 4080   0.632   3.629   1.963  0.4156 -0.3402  0.2367
 1009SOL     OW 4081   0.674   3.905   1.895  0.2721 -0.3703 -0.1842
 1009SOL    HW2 4082   0.760   3.939   1.922  0.5908 -0.1052 -1.4814
 1009SOL    HW3 4083   0.672   3.920   1.801 -1.2772 -0.2311 -0.1350
 1009SOL    MW4 4084   0.685   3.912   1.886  0.1097 -0.3166 -0.3489
 1010SOL     OW 4085   0.428   3.975   1.986  0.2380  0.6382  0.3275
 1010SOL    HW2 4086   0.448   3.963   2.079 -1.2395  0.5677  0.6418
 1010SOL    HW3 4087   0.509   3.949   1.941  0.7938  0.1828  1.5613
 1010SOL    MW4 4088   0.442   3.970   1.993  0.1163  0.5689  0.5318
 1011SOL     OW 4089   0.431   4.240   1.928  0.1596  0.7525  0.3103
 1011SOL    HW2 4090   0.344   4.274   1.947 -1.3284 -1.3548 -2.2606
 1011SOL    HW3 4091   0.428   4.149   1.958  1.3126  0.5283 -0.2186
 1011SOL    MW4 4092   0.419   4.232   1.934  0.1154  0.4449 -0.0986
 1012SOL     OW 4093   0.657   4.408   1.971  0.1132 -0.3944 -0.5138
 1012SOL    HW2 4094   0.736   4.375   1.928  0.4873  0.1311 -0.2285
 1012SOL    HW3 4095   0.591   4.341   1.952  0.5353 -0.6743 -1.0360
 1012SOL    MW4 4096   0.659   4.394   1.962  0.2183 -0.3619 -0.5450
 1013SOL     OW 4097   1.093   0.032   1.913 -0.3874 -0.1839 -0.2769
 1013SOL    HW2 4098   1.168   0.080   1.948 -0.8341 -0.3909  0.9867
 1013SOL    HW3 4099   1.101  -0.056   1.951  0.0100 -0.9145 -1.9783
 1013SOL    MW4 4100   1.104   0.027   1.923 -0.3939 -0.3076 -0.3347
 1014SOL     OW 4101   0.883   0.157   2.038  0.1883  0.3121 -0.0695
 1014SOL    HW2 4102   0.947   0.108   1.986  0.4365 -0.8611  1.3228
 1014SOL    HW3 4103   0.799   0.117   2.016  0.0706  1.0126 -0.9276
 1014SOL    MW4 4104   0.881   0.145   2.028  0.2055  0.2498  0.0010
 1015SOL     OW 4105   0.908   0.386   1.899  0.5320 -0.0563  0.2305
 1015SOL    HW2 4106   0.901   0.309   1.956  1.6658 -0.5771 -0.3251
 1015SOL    HW3 4107   0.988   0.429   1.928  2.0544 -1.2508 -2.0718
 1015SOL    MW4 4108   0.918   0.381   1.910  0.8824 -0.2826 -0.1465
 1016SOL     OW 4109   1.123   0.545   1.983  0.0588 -0.1316  0.3650
 1016SOL    HW2 4110   1.211   0.518   1.957 -0.6441 -0.3618 -1.8918
 1016SOL    HW3 4111   1.111   0.632   1.944  0.1143  0.8844  2.5747
 1016SOL    MW4 4112   1.133   0.553   1.974 -0.0266 -0.0280  0.3589
 1017SOL     OW 4113   1.097   0.787   1.880  0.3816 -0.6568 -0.2020
 1017SOL    HW2 4114   1.184   0.817   1.903  0.2785 -0.1789 -0.4426
 1017SOL    HW3 4115   1.038   0.839   1.935  0.1634  0.1145 -1.1576
 1017SOL    MW4 4116   1.101   0.798   1.891  0.3393 -0.4920 -0.3599
 1018SOL     OW 4117   0.893   0.885   2.022  0.0645 -0.4549  0.0901
 1018SOL    HW2 4118   0.883   0.871   2.116  1.8573 -1.0228  0.2262
 1018SOL    HW3 4119   0.893   0.980   2.012  1.3497 -0.3561  0.8687
 1018SOL    MW4 4120   0.892   0.895   2.033  0.4706 -0.5168  0.2108
 1019SOL     OW 4121   0.944   1.158   1.938 -0.0473  0.0273 -0.2755
 1019SOL    HW2 4122   0.872   1.219   1.952 -1.9042 -1.9942 -0.6770
 1019SOL    HW3 4123   0.934   1.130   1.847 -0.1915 -2.0308  0.3441
 1019SOL    MW4 4124   0.933   1.162   1.928 -0.3113 -0.5109 -0.2469
 1020SOL     OW 4125   1.150   1.315   2.019  0.2463 -0.1530  0.2760
 1020SOL    HW2 4126   1.145   1.393   1.965 -0.1093  0.0482  0.5923
 1020SOL    HW3 4127   1.077   1.260   1.989  0.6507 -0.4737 -0.1175
 1020SOL    MW4 4128   1.140   1.318   2.008  0.2527 -0.1688  0.2658
 1021SOL     OW 4129   1.105   1.540   1.868 -0.0888 -0.4590 -0.1913
 1021SOL    HW2 4130   1.016   1.568   1.889  0.3631  0.7578  0.1157
 1021SOL    HW3 4131   1.114   1.558   1.774  0.4359  1.0874  0.1492
 1021SOL    MW4 4132   1.095   1.546   1.858  0.0401 -0.0943 -0.1060
 1022SOL     OW 4133   0.889   1.672   1.998 -0.5921  0.1977  0.2235
 1022SOL    HW2 4134   0.905   1.755   1.952 -0.1398 -1.1475 -2.1237
 1022SOL    HW3 4135   0.809   1.638   1.958 -0.1769 -1.0110  0.4148
 1022SOL    MW4 4136   0.880   1.678   1.987 -0.4776 -0.1394 -0.0610
 1023SOL     OW 4137   0.935   1.912   1.896  0.0738  0.1075 -0.4204
 1023SOL    HW2 4138   0.845   1.928   1.926  0.2014 -0.0873  0.0762
 1023SOL    HW3 4139   0.926   1.893   1.803 -0.4733 -0.4968 -0.2523
 1023SOL    MW4 4140   0.922   1.911   1.888  0.0184  0.0020 -0.3327
 1024SOL     OW 4141   1.154   2.043   1.984  0.2349 -0.1530 -0.8799
 1024SOL    HW2 4142   1.139   2.130   1.947  0.6072  0.1775 -0.2656
 1024SOL    HW3 4143   1.080   1.990   1.953 -1.0505  0.8975  0.3645
 1024SOL    MW4 4144   1.143   2.047   1.975  0.1144  0.0293 -0.6346
 1025SOL     OW 4145   1.078   2.304   1.868  0.0481  0.0562 -0.0954
 1025SOL    HW2 4146   1.164   2.334   1.897  0.0396 -0.9397  0.9716
 1025SOL    HW3 4147   1.085   2.301   1.772  0.7074  1.4302 -0.1014
 1025SOL    MW4 4148   1.091   2.308   1.859  0.1339  0.1061  0.0445
 1026SOL     OW 4149   0.854   2.450   1.954 -0.0091  0.6894 -0.0155
 1026SOL    HW2 4150   0.935   2.414   1.917 -1.0292 -2.5800  0.7153
 1026SOL    HW3 4151   0.784   2.410   1.903 -1.2352  1.7895  0.7612
 1026SOL    MW4 4152   0.855   2.440   1.942 -0.3054  0.4032  0.1831
 1027SOL     OW 4153   0.865   2.720   1.893  0.3069  0.4289  0.3470
 1027SOL    HW2 4154   0.856   2.632   1.929  0.4484  0.1743 -0.2270
 1027SOL    HW3 4155   0.786   2.765   1.920  0.4320  0.2532  1.0038
 1027SOL    MW4 4156   0.853   2.714   1.901  0.3421  0.3724  0.3579
 1028SOL     OW 4157   1.101   2.856   1.996  0.3814 -0.0812 -0.2112
 1028SOL    HW2 4158   1.103   2.850   2.092  0.5133  2.3485 -0.0287
 1028SOL    HW3 4159   1.024   2.804   1.971 -0.7407  0.7606  1.3616
 1028SOL    MW4 4160   1.091   2.848   2.006  0.2508  0.3505  0.0205
 1029SOL     OW 4161   1.141   3.101   1.876 -0.0556  0.4274 -0.1990
 1029SOL    HW2 4162   1.066   3.154   1.900  1.6570  2.3518  1.0880
 1029SOL    HW3 4163   1.134   3.022   1.929 -1.4861  0.3158 -0.5525
 1029SOL    MW4 4164   1.130   3.097   1.886 -0.0184  0.6664 -0.0759
 1030SOL     OW 4165   0.911   3.259   1.953 -0.0672  0.2065  0.2073
 1030SOL    HW2 4166   0.910   3.234   2.045  0.2388  0.2322  0.2155
 1030SOL    HW3 4167   0.828   3.224   1.918  0.6279 -1.3340  0.0814
 1030SOL    MW4 4168   0.900   3.251   1.960  0.0649  0.0067  0.1917
 1031SOL     OW 4169   0.869   3.515   1.895 -0.4932  0.4851 -0.2690
 1031SOL    HW2 4170   0.883   3.423   1.918 -3.7737 -0.2986 -1.0256
 1031SOL    HW3 4171   0.862   3.515   1.799 -1.7965  1.2779 -0.1916
 1031SOL    MW4 4172   0.870   3.503   1.885 -1.0979  0.4861 -0.3587
 1032SOL     OW 4173   1.118   3.644   1.943 -0.0984 -0.3546 -0.2439
 1032SOL    HW2 4174   1.124   3.639   2.039  1.4885  0.4095 -0.2890
 1032SOL    HW3 4175   1.036   3.599   1.922 -0.3184 -0.7881  1.4491
 1032SOL    MW4 4176   1.108   3.638   1.953  0.0823 -0.3107 -0.0266
 1033SOL     OW 4177   1.092   3.904   1.834 -0.0865 -0.2096  0.5856
 1033SOL    HW2 4178   1.092   3.810   1.854 -0.1012 -0.3628 -0.1254
 1033SOL    HW3 4179   1.112   3.909   1.740  0.2908  0.5145  0.6965
 1033SOL    MW4 4180   1.095   3.892   1.824 -0.0386 -0.1342  0.5065
 1034SOL     OW 4181   0.900   4.028   1.959 -0.5094  0.5068 -0.2656
 1034SOL    HW2 4182   0.917   4.022   2.053  0.1002 -1.6670 -0.4921
 1034SOL    HW3 4183   0.977   3.988   1.918 -1.3109  0.3368 -1.6475
 1034SOL    MW4 4184   0.913   4.022   1.966 -0.5348  0.1969 -0.4779
 1035SOL     OW 4185   0.896   4.289   1.891  0.1815  0.0409  0.0310
 1035SOL    HW2 4186   0.968   4.342   1.926  1.3207 -0.6646 -1.1896
 1035SOL    HW3 4187   0.905   4.205   1.935 -1.3851  0.7057  1.6719
 1035SOL    MW4 4188   0.907   4.285   1.901  0.1251  0.0353  0.0864
 1036SOL     OW 4189   1.121   4.430   2.011  0.2133 -0.1667 -0.1649
 1036SOL    HW2 4190   1.121   4.417   2.106 -1.3126  0.4026 -0.0574
 1036SOL    HW3 4191   1.185   4.367   1.977  1.1923  0.0328  1.2871
 1036SOL    MW4 4192   1.129   4.420   2.019  0.1411 -0.0648  0.0410
 1037SOL     OW 4193   1.519   0.021   1.891 -0.1352 -0.1330  0.3813
 1037SOL    HW2 4194   1.607   0.052   1.916  0.1478 -0.8694  0.2920
 1037SOL    HW3 4195   1.518  -0.071   1.915 -0.9488 -0.0943  0.5218
 1037SOL    MW4 4196   1.531   0.013   1.898 -0.2053 -0.2251  0.3878
 1038SOL     OW 4197   1.308   0.157   2.028 -0.2801 -0.9114 -0.0397
 1038SOL    HW2 4198   1.317   0.128   2.119 -0.7850 -3.0478 -0.6381
 1038SOL    HW3 4199   1.378   0.111   1.982  0.1781  0.4214 -0.7007
 1038SOL    MW4 4200   1.319   0.147   2.034 -0.2862 -1.0175 -0.2058
 1039SOL     OW 4201   1.356   0.393   1.888 -0.1563  0.1845  0.2664
 1039SOL    HW2 4202   1.335   0.313   1.936 -2.8619  0.8264  0.2568
 1039SOL    HW3 4203   1.347   0.369   1.796  0.5898  0.0878  0.2219
 1039SOL    MW4 4204   1.352   0.379   1.882 -0.4148  0.2564  0.2592
 1040SOL     OW 4205   1.606   0.509   2.000 -0.1267  0.4089 -0.4493
 1040SOL    HW2 4206   1.680   0.466   1.957 -0.4506 -0.3093 -0.3068
 1040SOL    HW3 4207   1.529   0.465   1.964 -0.4376  0.4394  0.1614
 1040SOL    MW4 4208   1.605   0.497   1.990 -0.2104  0.3181 -0.3500
 1041SOL     OW 4209   1.577   0.767   1.908 -0.8582 -0.1618  0.1222
 1041SOL    HW2 4210   1.585   0.681   1.950 -0.6722 -0.9436 -1.4620
 1041SOL    HW3 4211   1.660   0.811   1.927 -0.7447 -0.5343  0.5062
 1041SOL    MW4 4212   1.589   0.762   1.916 -0.8186 -0.3141 -0.0360
 1042SOL     OW 4213   1.335   0.901   1.960 -0.2323  0.1807  0.1058
 1042SOL    HW2 4214   1.332   0.887   2.055 -0.4204 -0.6209 -0.0165
 1042SOL    HW3 4215   1.418   0.863   1.933 -0.1318  0.5040 -0.0358
 1042SOL    MW4 4216   1.345   0.894   1.969 -0.2440  0.1176  0.0710
 1043SOL     OW 4217   1.353   1.172   1.889  0.3667  0.7897 -0.1909
 1043SOL    HW2 4218   1.329   1.080   1.903  2.4360  0.3781  0.8044
 1043SOL    HW3 4219   1.289   1.221   1.942 -1.6506  0.0559 -1.8518
 1043SOL    MW4 4220   1.341   1.167   1.898  0.3736  0.6387 -0.2786
 1044SOL     OW 4221   1.571   1.296   1.989  0.0938 -0.1407 -0.1704
 1044SOL    HW2 4222   1.560   1.377   1.940 -0.0941 -0.8572 -1.3134
 1044SOL    HW3 4223   1.494   1.243   1.966  0.4557 -0.8323  0.1994
 1044SOL    MW4 4224   1.559   1.299   1.980  0.1167 -0.3265 -0.2723
 1045SOL     OW 4225   1.588   1.551   1.864  0.0166  0.8783 -0.1059
 1045SOL    HW2 4226   1.661   1.586   1.915  0.1186 -1.5498  1.4612
 1045SOL    HW3 4227   1.511   1.595   1.900  0.0930 -0.7373  2.1285
 1045SOL    MW4 4228   1.588   1.562   1.875  0.0401  0.3449  0.3958
 1046SOL     OW 4229   1.354   1.673   1.971  0.1581 -0.0547 -0.6354
 1046SOL    HW2 4230   1.350   1.683   2.066 -0.4241  0.9442 -0.7651
 1046SOL    HW3 4231   1.275   1.625   1.948 -0.3724  0.8930 -0.7732
 1046SOL    MW4 4232   1.343   1.668   1.980  0.0112  0.2021 -0.6707
 1047SOL     OW 4233   1.362   1.922   1.864  0.2162  0.3119 -0.2097
 1047SOL    HW2 4234   1.355   1.837   1.906  3.0615  0.8637  1.5601
 1047SOL    HW3 4235   1.291   1.974   1.902 -0.4518 -0.7406 -0.0037
 1047SOL    MW4 4236   1.352   1.918   1.875  0.5034  0.2457  0.0510
 1048SOL     OW 4237   1.591   2.023   1.952 -0.2017  0.0025  0.1432
 1048SOL    HW2 4238   1.594   2.115   1.926 -2.1267 -0.5365 -2.1697
 1048SOL    HW3 4239   1.501   1.995   1.932  0.5214 -2.5516  0.2189
 1048SOL    MW4 4240   1.579   2.031   1.946 -0.3605 -0.4053 -0.1520
 1049SOL     OW 4241   1.575   2.315   1.900 -0.5314  0.0227 -0.3761
 1049SOL    HW2 4242   1.651   2.360   1.937 -0.6215  0.5867 -0.8659
 1049SOL    HW3 4243   1.587   2.321   1.806 -0.5765 -0.9455 -0.4431
 1049SOL    MW4 4244   1.587   2.322   1.893 -0.5493 -0.0305 -0.4495
 1050SOL     OW 4245   1.314   2.416   1.957  0.1086 -0.3142 -0.0511
 1050SOL    HW2 4246   1.318   2.511   1.943  0.5889 -0.1035  1.4053
 1050SOL    HW3 4247   1.398   2.384   1.925  0.5529 -0.0521  0.8490
 1050SOL    MW4 4248   1.326   2.424   1.951  0.2306 -0.2518  0.2598
 1051SOL     OW 4249   1.320   2.693   1.921  0.2443  1.0258  0.1094
 1051SOL    HW2 4250   1.248   2.748   1.951  0.1204  1.8023 -1.5743
 1051SOL    HW3 4251   1.314   2.696   1.826  0.4932 -1.5732 -0.0131
 1051SOL    MW4 4252   1.310   2.701   1.912  0.2607  0.7854 -0.1289
 1052SOL     OW 4253   1.543   2.810   2.008 -0.6104  0.0763 -0.4848
 1052SOL    HW2 4254   1.628   2.779   1.978 -0.3102  0.0607  0.3966
 1052SOL    HW3 4255   1.480   2.756   1.959 -0.1291  0.3920 -1.4639
 1052SOL    MW4 4256   1.546   2.799   1.997 -0.5072  0.1161 -0.4976
 1053SOL     OW 4257   1.547   3.079   1.892 -0.3334 -0.1508 -0.2823
 1053SOL    HW2 4258   1.538   2.990   1.926 -1.1343  0.0561  0.0591
 1053SOL    HW3 4259   1.533   3.071   1.798 -2.0562 -0.1454 -0.0316
 1053SOL    MW4 4260   1.544   3.066   1.884 -0.6664 -0.1225 -0.2041
 1054SOL     OW 4261   1.350   3.243   1.980  0.5416 -0.2358 -0.1411
 1054SOL    HW2 4262   1.423   3.188   1.954  0.2316 -0.8072  0.1839
 1054SOL    HW3 4263   1.272   3.194   1.953  0.2828  0.5046 -0.7595
 1054SOL    MW4 4264   1.349   3.229   1.973  0.4666 -0.2136 -0.1799
 1055SOL     OW 4265   1.342   3.512   1.860  0.3822 -0.5907 -0.1960
 1055SOL    HW2 4266   1.340   3.429   1.907  0.7440  1.2355  3.1512
 1055SOL    HW3 4267   1.263   3.558   1.889  2.2496  1.8908  1.2018
 1055SOL    MW4 4268   1.331   3.507   1.870  0.6764 -0.0222  0.4302
 1056SOL     OW 4269   1.594   3.590   1.973  0.2342 -0.1264 -0.1771
 1056SOL    HW2 4270   1.585   3.604   2.067 -0.0328  0.3883 -0.2760
 1056SOL    HW3 4271   1.512   3.548   1.947  1.0270 -1.9373  0.1168
 1056SOL    MW4 4272   1.582   3.586   1.982  0.3036 -0.2978 -0.1513
 1057SOL     OW 4273   1.574   3.844   1.836 -0.9178 -0.4317 -0.3504
 1057SOL    HW2 4274   1.627   3.914   1.876  0.9969 -1.1102 -1.6187
 1057SOL    HW3 4275   1.598   3.765   1.885 -0.9601 -0.6994 -0.7578
 1057SOL    MW4 4276   1.584   3.843   1.848 -0.6708 -0.5565 -0.5715
 1058SOL     OW 4277   1.339   3.983   1.898 -0.5792 -0.0011 -0.2832
 1058SOL    HW2 4278   1.404   3.919   1.868 -1.7108 -0.6346 -1.4460
 1058SOL    HW3 4279   1.255   3.941   1.881 -1.3153 -0.4586  3.9703
 1058SOL    MW4 4280   1.336   3.969   1.892 -0.8255 -0.1450  0.1246
 1059SOL     OW 4281   1.337   4.248   1.845 -0.2344  0.1480 -0.0164
 1059SOL    HW2 4282   1.330   4.155   1.867  0.9546  0.1278  0.3305
 1059SOL    HW3 4283   1.333   4.251   1.749  2.4650 -0.5356 -0.1783
 1059SOL    MW4 4284   1.335   4.236   1.835  0.2787  0.0553  0.0081
 1060SOL     OW 4285   1.535   4.414   1.963  0.7190 -0.2741 -0.4456
 1060SOL    HW2 4286   1.531   4.416   2.059 -0.0685 -1.3891 -0.4477
 1060SOL    HW3 4287   1.469   4.349   1.938 -1.9604  2.8484 -1.9234
 1060SOL    MW4 4288   1.525   4.406   1.972  0.2617 -0.0100 -0.6409
 1061SOL     OW 4289   2.005   4.634   1.889 -0.2322  0.3522 -0.4540
 1061SOL    HW2 4290   2.066   4.687   1.941 -0.9585 -0.0219  0.7852
 1061SOL    HW3 4291   2.006   4.548   1.931 -1.6585  0.3536 -0.3994
 1061SOL    MW4 4292   2.013   4.630   1.901 -0.5162  0.3033 -0.2834
 1062SOL     OW 4293   1.763   0.101   1.987 -0.3211 -0.1544 -0.2900
 1062SOL    HW2 4294   1.768   0.088   2.082  1.2517 -0.3558 -0.3966
 1062SOL    HW3 4295   1.849   0.075   1.954 -0.1136  1.9888 -1.5364
 1062SOL    MW4 4296   1.775   0.096   1.995 -0.0862  0.1018 -0.4685
 1063SOL     OW 4297   1.811   0.364   1.890  0.4909  0.2449 -0.3185
 1063SOL    HW2 4298   1.795   0.274   1.921  1.6888  0.0592 -0.2167
 1063SOL    HW3 4299   1.802   0.358   1.795 -2.2394  0.6161 -0.1352
 1063SOL    MW4 4300   1.808   0.351   1.882  0.2887  0.2694 -0.2809
 1064SOL     OW 4301   2.043   0.502   1.983  0.2182  0.0540  0.2254
 1064SOL    HW2 4302   2.025   0.589   1.945  0.2152 -0.0509 -0.0112
 1064SOL    HW3 4303   1.971   0.447   1.951  1.2937 -0.5268 -1.2398
 1064SOL    MW4 4304   2.031   0.507   1.974  0.3598 -0.0365  0.0008
 1065SOL     OW 4305   2.027   0.751   1.861  0.0736 -0.0822  0.1174
 1065SOL    HW2 4306   2.104   0.801   1.886  0.0705 -0.5491  1.0914
 1065SOL    HW3 4307   2.030   0.746   1.766  1.3421 -0.2535  0.1678
 1065SOL    MW4 4308   2.037   0.757   1.852  0.2406 -0.1664  0.2525
 1066SOL     OW 4309   1.824   0.896   1.965  0.3254  0.1114  0.0494
 1066SOL    HW2 4310   1.828   0.986   1.932 -1.0748  0.2390  0.1599
 1066SOL    HW3 4311   1.903   0.855   1.932  0.1362  0.9128 -1.4794
 1066SOL    MW4 4312   1.835   0.903   1.956  0.1158  0.2339 -0.1378
 1067SOL     OW 4313   1.811   1.163   1.886 -0.0423 -0.2361  0.2679
 1067SOL    HW2 4314   1.732   1.212   1.907 -0.0799 -0.7150  1.2911
 1067SOL    HW3 4315   1.803   1.143   1.792 -0.6713  0.5301  0.1553
 1067SOL    MW4 4316   1.799   1.167   1.876 -0.1303 -0.1982  0.3879
 1068SOL     OW 4317   2.025   1.284   2.030  0.5610 -0.1023 -0.3764
 1068SOL    HW2 4318   1.950   1.246   1.984 -0.2321 -0.7010  1.3780
 1068SOL    HW3 4319   2.100   1.233   1.999  0.0827 -0.3182 -1.2028
 1068SOL    MW4 4320   2.025   1.272   2.020  0.3932 -0.2097 -0.2539
 1069SOL     OW 4321   2.066   1.525   1.899  0.1153 -0.3089  0.5243
 1069SOL    HW2 4322   2.059   1.438   1.938 -0.1041 -1.1864 -1.4390
 1069SOL    HW3 4323   2.038   1.514   1.808  0.5740  1.7095  0.0969
 1069SOL    MW4 4324   2.061   1.512   1.892  0.1471 -0.1584  0.2089
 1070SOL     OW 4325   1.819   1.662   1.987 -0.4192  0.4325  0.2893
 1070SOL    HW2 4326   1.811   1.741   1.934  0.0175  0.1084 -0.2586
 1070SOL    HW3 4327   1.899   1.620   1.956 -0.4488 -0.0335  0.8378
 1070SOL    MW4 4328   1.829   1.667   1.976 -0.3655  0.3282  0.2894
 1071SOL     OW 4329   1.816   1.900   1.857  0.2289 -0.0967 -0.7819
 1071SOL    HW2 4330   1.743   1.950   1.894  0.7605  0.8100 -0.9397
 1071SOL    HW3 4331   1.804   1.906   1.762 -0.5924 -1.6140 -0.7973
 1071SOL    MW4 4332   1.805   1.907   1.849  0.1905 -0.1771 -0.8047
 1072SOL     OW 4333   2.014   2.310   1.888 -0.1897 -0.3470  0.1003
 1072SOL    HW2 4334   2.094   2.347   1.927  0.3467 -0.9159 -0.4359
 1072SOL    HW3 4335   2.020   2.217   1.906  0.8107 -0.8500 -2.5773
 1072SOL    MW4 4336   2.026   2.303   1.895  0.0131 -0.4885 -0.3237
 1073SOL     OW 4337   1.991   2.349   1.611 -0.0867  0.8216  0.3660
 1073SOL    HW2 4338   1.985   2.344   1.707 -0.5945 -0.0007  0.2915
 1073SOL    HW3 4339   2.002   2.259   1.583  0.2570  1.0826 -0.3488
 1073SOL    MW4 4340   1.992   2.337   1.620 -0.1084  0.7474  0.2619
 1074SOL     OW 4341   1.803   2.425   1.996  0.2462 -0.2723 -0.1578
 1074SOL    HW2 4342   1.836   2.405   2.084  0.5046  1.7312  0.2422
 1074SOL    HW3 4343   1.864   2.380   1.937  0.6038 -0.8993  0.6772
 1074SOL    MW4 4344   1.816   2.417   2.000  0.3275 -0.0906  0.0052
 1075SOL     OW 4345   1.798   2.691   1.915  0.0038  0.0738  0.2718
 1075SOL    HW2 4346   1.876   2.744   1.929  0.9531 -1.1352 -0.3687
 1075SOL    HW3 4347   1.821   2.604   1.948 -1.1483 -0.2460  0.2817
 1075SOL    MW4 4348   1.811   2.687   1.922 -0.0230 -0.1278  0.1886
 1076SOL     OW 4349   2.018   2.867   1.960  0.3998  0.6492 -0.3166
 1076SOL    HW2 4350   2.102   2.830   1.933 -0.3729 -1.6021  0.2367
 1076SOL    HW3 4351   2.025   2.876   2.055 -0.1892 -0.0802 -0.2018
 1076SOL    MW4 4352   2.030   2.863   1.969  0.2198  0.2558 -0.2282
 1077SOL     OW 4353   1.994   3.140   1.880 -0.1825 -0.2038  0.0866
 1077SOL    HW2 4354   1.908   3.170   1.911 -0.8038 -0.0902 -1.6479
 1077SOL    HW3 4355   2.004   3.053   1.918 -0.0168  0.7080  2.1838
 1077SOL    MW4 4356   1.984   3.132   1.889 -0.2426 -0.0682  0.1343
 1078SOL     OW 4357   1.763   3.259   1.959  0.4615 -0.0006 -0.7057
 1078SOL    HW2 4358   1.779   3.279   2.051  0.7118 -1.1532 -0.4909
 1078SOL    HW3 4359   1.690   3.198   1.959  0.3905  0.0750 -1.2808
 1078SOL    MW4 4360   1.756   3.254   1.971  0.4852 -0.1428 -0.7532
 1079SOL     OW 4361   1.825   3.508   1.844  0.1769  0.3042 -0.1435
 1079SOL    HW2 4362   1.811   3.415   1.862  1.4038  0.2118  0.3968
 1079SOL    HW3 4363   1.751   3.552   1.886  0.9423 -0.2307  1.8514
 1079SOL    MW4 4364   1.813   3.501   1.852  0.4396  0.2215  0.1910
 1080SOL     OW 4365   2.015   3.645   2.002 -0.1832  0.2539 -0.9079
 1080SOL    HW2 4366   1.984   3.733   1.980 -1.1606  0.1206 -0.1099
 1080SOL    HW3 4367   1.956   3.586   1.955 -0.9176  0.0042  0.2831
 1080SOL    MW4 4368   2.003   3.649   1.993 -0.4089  0.2034 -0.6453
 1081SOL     OW 4369   2.003   3.902   1.910  0.0350 -0.4358 -0.0917
 1081SOL    HW2 4370   2.095   3.906   1.938 -0.0486  2.8596 -0.1434
 1081SOL    HW3 4371   2.007   3.892   1.815  0.2970 -2.0926  0.0692
 1081SOL    MW4 4372   2.016   3.901   1.901  0.0587 -0.2193 -0.0774
 1082SOL     OW 4373   1.751   4.018   1.964  0.1423 -0.6816 -0.2914
 1082SOL    HW2 4374   1.753   4.102   1.919  0.4380  0.0342  1.0455
 1082SOL    HW3 4375   1.836   3.979   1.944  0.6859  0.0870  0.4647
 1082SOL    MW4 4376   1.763   4.024   1.955  0.2531 -0.4859 -0.0153
 1083SOL     OW 4377   1.759   4.294   1.857  0.5265 -0.1210  0.2590
 1083SOL    HW2 4378   1.684   4.346   1.885  0.8942  1.1436 -1.0059
 1083SOL    HW3 4379   1.737   4.266   1.768  0.7569 -1.3058  0.5722
 1083SOL    MW4 4380   1.747   4.297   1.849  0.6055 -0.1106  0.1335
 1084SOL     OW 4381   2.002   4.364   1.983 -0.2497  0.0979  0.2015
 1084SOL    HW2 4382   2.079   4.317   1.952 -0.3437 -0.0990  0.2670
 1084SOL    HW3 4383   1.928   4.321   1.939 -0.2906  0.5498 -0.1793
 1084SOL    MW4 4384   2.003   4.352   1.973 -0.2677  0.1321  0.1599
 1085SOL     OW 4385   2.426   4.643   1.884  0.6291 -0.2159 -0.4230
 1085SOL    HW2 4386   2.511   4.678   1.911 -0.0356 -0.5259  2.1570
 1085SOL    HW3 4387   2.435   4.548   1.897  0.0073 -0.2862 -0.5220
 1085SOL    MW4 4388   2.439   4.635   1.889  0.4594 -0.2656 -0.0957
 1086SOL     OW 4389   2.208   0.100   2.010  0.8909 -0.5113  0.7087
 1086SOL    HW2 4390   2.234   0.084   2.101  0.2622 -1.6339  0.7040
 1086SOL    HW3 4391   2.272   0.051   1.958  1.9198  1.0355  0.4933
 1086SOL    MW4 4392   2.220   0.091   2.015  0.9439 -0.4553  0.6795
 1087SOL     OW 4393   2.252   0.345   1.906 -0.3262  0.1477 -0.0074
 1087SOL    HW2 4394   2.235   0.259   1.944 -1.5980  0.7642  0.8549
 1087SOL    HW3 4395   2.180   0.399   1.937 -0.6244  1.0272 -2.1796
 1087SOL    MW4 4396   2.240   0.341   1.915 -0.5333  0.3451 -0.1802
 1088SOL     OW 4397   2.482   0.490   2.007  0.4675  0.2054 -0.0571
 1088SOL    HW2 4398   2.558   0.450   1.965  1.1069  0.5074  0.8058
 1088SOL    HW3 4399   2.414   0.423   2.002  1.1089 -0.4603  0.1105
 1088SOL    MW4 4400   2.483   0.476   2.001  0.6366  0.1574  0.0787
 1089SOL     OW 4401   2.473   0.740   1.896  0.1244  0.3068  0.4632
 1089SOL    HW2 4402   2.459   0.649   1.921  0.4323  0.4108  1.0151
 1089SOL    HW3 4403   2.466   0.740   1.800  2.0113 -0.6212  0.2990
 1089SOL    MW4 4404   2.470   0.728   1.886  0.4137  0.1981  0.5144
 1090SOL     OW 4405   2.239   0.900   1.985  0.2210 -0.2278  0.1457
 1090SOL    HW2 4406   2.231   0.898   2.080  0.0550  0.7284  0.1541
 1090SOL    HW3 4407   2.316   0.846   1.967  0.4423 -0.1528  0.8464
 1090SOL    MW4 4408   2.248   0.893   1.995  0.2284 -0.0917  0.2394
 1091SOL     OW 4409   2.244   1.166   1.899  0.3596  0.1712  0.1949
 1091SOL    HW2 4410   2.324   1.198   1.940  0.7536  0.0662 -0.4765
 1091SOL    HW3 4411   2.241   1.073   1.921  1.2312 -0.1720 -1.0286
 1091SOL    MW4 4412   2.254   1.158   1.907  0.5267  0.1119 -0.0553
 1092SOL     OW 4413   2.493   1.290   2.229  0.2703  0.4497  0.0126
 1092SOL    HW2 4414   2.561   1.236   2.270  0.9028  0.4067 -1.0576
 1092SOL    HW3 4415   2.492   1.371   2.280  0.9377  0.3388  0.2064
 1092SOL    MW4 4416   2.502   1.293   2.241  0.4420  0.4294 -0.1028
 1093SOL     OW 4417   2.512   1.548   1.899 -0.1160  0.0402  0.4862
 1093SOL    HW2 4418   2.428   1.583   1.929 -0.5876 -1.9075  1.5213
 1093SOL    HW3 4419   2.512   1.564   1.805 -2.4163 -1.4538  0.1859
 1093SOL    MW4 4420   2.501   1.555   1.891 -0.4818 -0.4139  0.5832
 1094SOL     OW 4421   2.246   1.915   1.878  0.0783  0.2479 -0.1172
 1094SOL    HW2 4422   2.301   1.981   1.921  0.2277 -0.2513  0.4554
 1094SOL    HW3 4423   2.264   1.834   1.925 -0.3555 -0.1376 -0.6130
 1094SOL    MW4 4424   2.255   1.913   1.890  0.0408  0.1312 -0.1070
 1095SOL     OW 4425   2.017   2.055   1.954 -0.2889  0.3731 -0.0054
 1095SOL    HW2 4426   2.090   2.000   1.925  0.2641  1.2861 -0.3811
 1095SOL    HW3 4427   1.939   2.005   1.932  0.2541 -1.3695  1.9295
 1095SOL    MW4 4428   2.017   2.042   1.947 -0.1445  0.2635  0.2004
 1096SOL     OW 4429   2.451   2.083   1.976  0.1187 -0.1143 -0.3567
 1096SOL    HW2 4430   2.534   2.040   1.956  0.7184  0.2738  1.2539
 1096SOL    HW3 4431   2.453   2.164   1.925  0.5471 -0.2906 -0.6215
 1096SOL    MW4 4432   2.462   2.088   1.966  0.2544 -0.0863 -0.1792
 1097SOL     OW 4433   2.461   2.319   1.863  0.1870 -0.0664  0.5222
 1097SOL    HW2 4434   2.541   2.357   1.900  0.3517 -0.7933  0.9242
 1097SOL    HW3 4435   2.390   2.365   1.908  0.3879 -0.6732  1.4730
 1097SOL    MW4 4436   2.462   2.330   1.874  0.2351 -0.2425  0.7006
 1098SOL     OW 4437   2.256   2.446   1.990 -0.0665  0.4437  0.4139
 1098SOL    HW2 4438   2.254   2.456   2.085  1.2049 -0.3749  0.5425
 1098SOL    HW3 4439   2.247   2.535   1.956 -0.6488  0.7276  1.3003
 1098SOL    MW4 4440   2.255   2.459   1.998  0.0246  0.3734  0.5478
 1099SOL     OW 4441   2.243   2.730   1.891 -0.1395  0.2017 -0.1986
 1099SOL    HW2 4442   2.330   2.753   1.923 -0.9286  3.0048  0.1149
 1099SOL    HW3 4443   2.254   2.723   1.796  0.5348  0.1120 -0.1173
 1099SOL    MW4 4444   2.256   2.732   1.883 -0.1547  0.5600 -0.1466
 1100SOL     OW 4445   2.510   2.862   1.974 -0.1487 -0.3455  0.2092
 1100SOL    HW2 4446   2.509   2.954   1.948  1.6742 -0.0990  0.9164
 1100SOL    HW3 4447   2.520   2.864   2.069  1.6460 -1.2547  0.0645
 1100SOL    MW4 4448   2.511   2.874   1.983  0.3285 -0.4330  0.2835
 1101SOL     OW 4449   2.473   3.133   1.879 -0.5509  0.6078  0.1506
 1101SOL    HW2 4450   2.402   3.190   1.908  0.1436  1.1840  0.7379
 1101SOL    HW3 4451   2.452   3.112   1.788 -1.6784  0.4504  0.4469
 1101SOL    MW4 4452   2.461   3.138   1.871 -0.6080  0.6628  0.2671
 1102SOL     OW 4453   2.224   3.280   1.970  0.2314  0.0755  0.1224
 1102SOL    HW2 4454   2.213   3.272   2.064  0.7072  1.3287  0.2912
 1102SOL    HW3 4455   2.141   3.251   1.933 -1.5586  3.7306  1.1136
 1102SOL    MW4 4456   2.212   3.275   1.977  0.0577  0.7231  0.2755
 1103SOL     OW 4457   2.245   3.531   1.882  0.2699  0.0851  0.7352
 1103SOL    HW2 4458   2.241   3.443   1.920 -0.5221 -0.1086  0.2159
 1103SOL    HW3 4459   2.171   3.577   1.922  0.3606  0.3538  0.5963
 1103SOL    MW4 4460   2.235   3.526   1.892  0.1776  0.0951  0.6484
 1104SOL     OW 4461   2.486   3.605   2.002 -0.2431 -0.3336  0.6686
 1104SOL    HW2 4462   2.461   3.629   2.091 -0.6236 -0.5535  0.6203
 1104SOL    HW3 4463   2.404   3.579   1.960  0.0032 -0.6577  0.3884
 1104SOL    MW4 4464   2.472   3.605   2.008 -0.2608 -0.4055  0.6251
 1105SOL     OW 4465   2.471   3.875   1.869  0.1410  0.2293 -0.1093
 1105SOL    HW2 4466   2.389   3.898   1.913 -1.4038 -1.9049 -1.7770
 1105SOL    HW3 4467   2.496   3.791   1.907  0.8353  0.2274 -0.5570
 1105SOL    MW4 4468   2.464   3.867   1.880  0.0288 -0.0525 -0.3883
 1106SOL     OW 4469   2.257   3.966   1.992 -0.1167 -0.0974  0.6360
 1106SOL    HW2 4470   2.263   3.973   2.087 -1.1529  0.0339  0.6978
 1106SOL    HW3 4471   2.248   4.056   1.961  2.2525  0.0359  0.2469
 1106SOL    MW4 4472   2.256   3.979   2.000  0.0591 -0.0622  0.5928
 1107SOL     OW 4473   2.216   4.237   1.905 -0.2924  0.5621  0.0550
 1107SOL    HW2 4474   2.297   4.273   1.939 -0.2935  0.4778  0.1491
 1107SOL    HW3 4475   2.223   4.245   1.810 -0.6579  1.5883  0.1131
 1107SOL    MW4 4476   2.227   4.243   1.897 -0.3407  0.6862  0.0751
 1108SOL     OW 4477   2.442   4.370   1.956  0.0229 -0.1483 -0.0223
 1108SOL    HW2 4478   2.458   4.392   2.048  0.7447 -0.1653 -0.1460
 1108SOL    HW3 4479   2.528   4.346   1.921 -0.0825  0.7609 -0.9418
 1108SOL    MW4 4480   2.455   4.370   1.963  0.1042 -0.0305 -0.1599
 1109SOL     OW 4481   2.903   4.661   1.868  0.3414  0.1411 -0.0767
 1109SOL    HW2 4482   2.980   4.703   1.907  1.5218 -1.0478 -1.0892
 1109SOL    HW3 4483   2.908   4.570   1.897 -0.2865 -0.1059 -0.7384
 1109SOL    MW4 4484   2.914   4.655   1.877  0.4144 -0.0486 -0.2975
 1110SOL     OW 4485   2.674   0.099   1.974 -0.2151 -0.2964  0.0619
 1110SOL    HW2 4486   2.671   0.084   2.068 -1.1875 -0.3055  0.0330
 1110SOL    HW3 4487   2.761   0.067   1.947 -0.3423 -1.2835  0.7828
 1110SOL    MW4 4488   2.685   0.092   1.983 -0.3603 -0.4278  0.1533
 1111SOL     OW 4489   2.692   0.356   1.852  0.0435  0.0636 -0.0479
 1111SOL    HW2 4490   2.765   0.401   1.895 -0.7168  0.9038  0.4040
 1111SOL    HW3 4491   2.688   0.270   1.893 -0.3922  0.7003  1.2768
 1111SOL    MW4 4492   2.701   0.351   1.863 -0.1142  0.2584  0.1864
 1112SOL     OW 4493   2.914   0.478   1.991 -0.0489  0.2799 -0.4277
 1112SOL    HW2 4494   3.002   0.445   1.973  1.1443  3.1614 -0.2037
 1112SOL    HW3 4495   2.914   0.567   1.955 -3.1149  0.0919 -1.0465
 1112SOL    MW4 4496   2.925   0.485   1.984 -0.2964  0.6353 -0.4797
 1113SOL     OW 4497   2.951   0.746   1.613  0.1735  0.0685 -0.4002
 1113SOL    HW2 4498   2.927   0.737   1.706 -0.0706 -1.6156 -0.6162
 1113SOL    HW3 4499   2.876   0.789   1.573  0.3334  0.9255  0.2057
 1113SOL    MW4 4500   2.938   0.751   1.620  0.1624 -0.0407 -0.3488
 1114SOL     OW 4501   2.675   0.879   2.003  0.1387  0.0818  0.0394
 1114SOL    HW2 4502   2.671   0.972   1.979  0.4425  0.3706  1.0593
 1114SOL    HW3 4503   2.598   0.840   1.962 -1.2056  1.2401  1.3924
 1114SOL    MW4 4504   2.664   0.886   1.995  0.0014  0.2728  0.3524
 1115SOL     OW 4505   2.481   1.289   1.946  0.1261  0.4799 -0.3212
 1115SOL    HW2 4506   2.481   1.303   2.040 -2.1188  1.1388 -0.3984
 1115SOL    HW3 4507   2.475   1.377   1.909 -2.6983  0.0579 -0.9894
 1115SOL    MW4 4508   2.480   1.303   1.953 -0.5429  0.5112 -0.4194
 1116SOL     OW 4509   2.929   1.281   2.018  0.4017  0.4196  0.6106
 1116SOL    HW2 4510   2.921   1.372   1.989  0.9711  0.0918 -0.5969
 1116SOL    HW3 4511   2.856   1.236   1.976  0.3143  0.2467  0.9427
 1116SOL    MW4 4512   2.918   1.287   2.009  0.4654  0.3536  0.4952
 1117SOL     OW 4513   2.942   1.535   1.919  0.2636 -0.0728 -0.3763
 1117SOL    HW2 4514   3.018   1.583   1.952  1.1979 -1.4068 -0.5672
 1117SOL    HW3 4515   2.959   1.523   1.826 -0.3950  0.0052 -0.5126
 1117SOL    MW4 4516   2.954   1.540   1.911  0.2997 -0.2385 -0.4194
 1118SOL     OW 4517   2.722   1.689   1.999 -0.5363  0.2094 -0.2941
 1118SOL    HW2 4518   2.805   1.650   1.973 -0.0406  1.7393 -1.1000
 1118SOL    HW3 4519   2.656   1.640   1.950 -0.1974 -1.5089  0.9308
 1118SOL    MW4 4520   2.724   1.677   1.989 -0.4263  0.1845 -0.2388
 1119SOL     OW 4521   2.692   1.953   1.898  0.1348 -0.5252  0.5349
 1119SOL    HW2 4522   2.767   2.012   1.906 -0.2852 -0.1562  1.7672
 1119SOL    HW3 4523   2.722   1.870   1.934  0.3556 -0.7378 -0.1370
 1119SOL    MW4 4524   2.706   1.950   1.903  0.1087 -0.5045  0.6088
 1120SOL     OW 4525   2.930   2.088   1.938  0.0996 -0.0620 -0.2278
 1120SOL    HW2 4526   2.929   2.089   2.033  0.4586  0.8677 -0.2301
 1120SOL    HW3 4527   3.008   2.038   1.915  0.6671  0.7253 -0.0295
 1120SOL    MW4 4528   2.940   2.082   1.947  0.2217  0.1645 -0.2019
 1121SOL     OW 4529   2.931   2.354   1.864  0.5305  0.2035  0.3928
 1121SOL    HW2 4530   3.005   2.403   1.901  0.3232  0.1308  0.9053
 1121SOL    HW3 4531   2.947   2.263   1.888  1.1438 -0.0559 -0.9414
 1121SOL    MW4 4532   2.943   2.349   1.872  0.5841  0.1597  0.2844
 1122SOL     OW 4533   2.699   2.464   1.952 -0.6108  0.0605 -0.3728
 1122SOL    HW2 4534   2.720   2.555   1.930 -0.5811  0.0402 -0.4280
 1122SOL    HW3 4535   2.770   2.413   1.913  0.6206  0.1989  1.6064
 1122SOL    MW4 4536   2.711   2.470   1.944 -0.4444  0.0763 -0.1190
 1123SOL     OW 4537   2.725   2.716   1.833 -0.3407 -0.1431 -0.2174
 1123SOL    HW2 4538   2.646   2.761   1.861 -0.9003 -1.3253  0.1469
 1123SOL    HW3 4539   2.734   2.737   1.740 -1.2458 -0.2355 -0.3269
 1123SOL    MW4 4540   2.716   2.724   1.825 -0.5341 -0.3111 -0.1839
 1124SOL     OW 4541   2.913   2.862   1.998 -0.3189  0.2831  0.4159
 1124SOL    HW2 4542   2.929   2.947   1.957  0.7447  0.0773  0.3684
 1124SOL    HW3 4543   2.847   2.821   1.943 -1.1591  1.2556  0.6871
 1124SOL    MW4 4544   2.907   2.868   1.985 -0.2897  0.3843  0.4452
 1125SOL     OW 4545   2.954   3.106   1.889  0.2867  0.3932 -0.2932
 1125SOL    HW2 4546   3.035   3.150   1.918  0.2700  0.2463 -0.0188
 1125SOL    HW3 4547   2.884   3.163   1.920  0.2330 -0.2673  0.8509
 1125SOL    MW4 4548   2.956   3.119   1.897  0.2775  0.2866 -0.1061
 1126SOL     OW 4549   2.715   3.251   1.963 -0.0304  0.2385 -0.3862
 1126SOL    HW2 4550   2.720   3.339   1.925  0.6119  0.2085 -0.3751
 1126SOL    HW3 4551   2.633   3.215   1.929 -1.0122  1.3710  0.7412
 1126SOL    MW4 4552   2.705   3.258   1.954 -0.0753  0.3839 -0.2360
 1127SOL     OW 4553   2.710   3.494   1.860  0.2847  0.0546 -0.4397
 1127SOL    HW2 4554   2.787   3.542   1.888  0.6125 -0.7828  0.1224
 1127SOL    HW3 4555   2.636   3.543   1.895  0.6415 -0.2175  0.7133
 1127SOL    MW4 4556   2.710   3.507   1.868  0.3748 -0.0920 -0.2134
 1128SOL     OW 4557   2.935   3.668   1.957  0.2801  0.1893 -0.2017
 1128SOL    HW2 4558   2.943   3.647   2.050  0.9631  1.7079  0.0949
 1128SOL    HW3 4559   3.013   3.629   1.918  0.5625  0.5070  0.0418
 1128SOL    MW4 4560   2.947   3.660   1.964  0.4075  0.4315 -0.1303
 1129SOL     OW 4561   2.936   3.923   1.885 -0.2042 -0.2082  0.1206
 1129SOL    HW2 4562   2.925   3.835   1.921 -1.0383 -0.1299  0.0715
 1129SOL    HW3 4563   2.951   3.910   1.791  0.2967 -0.3275  0.2163
 1129SOL    MW4 4564   2.937   3.910   1.877 -0.2482 -0.2131  0.1266
 1130SOL     OW 4565   2.687   4.022   1.976 -0.2369  0.0611 -0.4029
 1130SOL    HW2 4566   2.763   3.983   1.933 -0.7427 -0.5030 -0.7804
 1130SOL    HW3 4567   2.612   3.988   1.928 -0.7010  1.1317 -0.4433
 1130SOL    MW4 4568   2.687   4.013   1.964 -0.3650  0.1283 -0.4580
 1131SOL     OW 4569   2.684   4.273   1.883 -0.0836  0.4515 -0.2731
 1131SOL    HW2 4570   2.676   4.179   1.901  0.2025  0.5840  0.5981
 1131SOL    HW3 4571   2.674   4.281   1.788 -0.9775 -0.3687 -0.2577
 1131SOL    MW4 4572   2.682   4.262   1.873 -0.1640  0.3605 -0.1563
 1132SOL     OW 4573   2.913   4.398   1.954  0.3984  0.1695  0.3062
 1132SOL    HW2 4574   2.925   4.394   2.049  0.5095 -1.9764  0.2394
 1132SOL    HW3 4575   2.829   4.354   1.939  1.1255 -0.9157 -0.7066
 1132SOL    MW4 4576   2.903   4.392   1.964  0.5088 -0.2570  0.1637
 1133SOL     OW 4577   3.387   0.017   1.852 -0.1394  0.0713  0.2602
 1133SOL    HW2 4578   3.371  -0.062   1.904  2.8781 -0.9119 -0.1972
 1133SOL    HW3 4579   3.367  -0.009   1.762  1.1991 -0.3260  0.0603
 1133SOL    MW4 4580   3.383   0.003   1.847  0.4349 -0.1109  0.1733
 1134SOL     OW 4581   3.138   0.149   1.934  0.2130 -0.1399  0.1003
 1134SOL    HW2 4582   3.132   0.128   2.028  1.0551  0.5087  0.3085
 1134SOL    HW3 4583   3.206   0.091   1.901  0.4652  0.1832  0.0550
 1134SOL    MW4 4584   3.146   0.139   1.942  0.3574 -0.0117  0.1218
 1135SOL     OW 4585   3.166   0.420   1.883  0.3690 -0.1399  0.0909
 1135SOL    HW2 4586   3.174   0.330   1.916 -0.3665 -0.0959  0.3851
 1135SOL    HW3 4587   3.150   0.410   1.789 -0.1480 -0.3219  0.2004
 1135SOL    MW4 4588   3.165   0.407   1.875  0.2038 -0.1581  0.1441
 1136SOL     OW 4589   3.394   0.510   2.034 -0.2259 -0.1198 -0.6410
 1136SOL    HW2 4590   3.464   0.467   1.986  0.5121  0.9835 -0.5722
 1136SOL    HW3 4591   3.314   0.478   1.993  0.3609 -0.1871 -1.7527
 1136SOL    MW4 4592   3.393   0.500   2.022 -0.0513  0.0169 -0.7784
 1137SOL     OW 4593   3.357   0.754   1.886  0.0724 -0.4258 -0.4520
 1137SOL    HW2 4594   3.269   0.784   1.908  0.0069 -1.1386  0.3010
 1137SOL    HW3 4595   3.375   0.685   1.950  1.3494  0.0174 -0.3082
 1137SOL    MW4 4596   3.348   0.749   1.898  0.2322 -0.4614 -0.3338
 1138SOL     OW 4597   2.894   0.730   1.897 -0.8022  0.0968 -0.3507
 1138SOL    HW2 4598   2.961   0.786   1.938 -1.5096  0.1542  0.7431
 1138SOL    HW3 4599   2.812   0.758   1.938 -1.6974  0.9711 -2.6674
 1138SOL    MW4 4600   2.892   0.741   1.908 -1.0140  0.2198 -0.5120
 1139SOL     OW 4601   3.135   0.867   1.988 -0.2385  0.1985  0.5640
 1139SOL    HW2 4602   3.164   0.874   2.079  1.0807  3.1530 -0.0321
 1139SOL    HW3 4603   3.132   0.958   1.956 -0.6353 -0.7817 -2.3574
 1139SOL    MW4 4604   3.138   0.880   1.996 -0.1168  0.4591  0.0998
 1140SOL     OW 4605   3.352   1.272   1.994 -0.1315  0.5691 -0.7400
 1140SOL    HW2 4606   3.343   1.284   2.088 -0.0285  0.5447 -0.7278
 1140SOL    HW3 4607   3.360   1.360   1.959  1.2981  0.5082 -0.5875
 1140SOL    MW4 4608   3.352   1.285   2.002  0.0706  0.5579 -0.7186
 1141SOL     OW 4609   3.345   1.536   1.859 -0.1214  0.0600  0.3602
 1141SOL    HW2 4610   3.425   1.575   1.895  0.3874  0.5472 -1.2809
 1141SOL    HW3 4611   3.275   1.590   1.896  0.4879  1.5340 -0.5808
 1141SOL    MW4 4612   3.346   1.548   1.869  0.0260  0.3189  0.0194
 1142SOL     OW 4613   3.152   1.676   2.008 -0.2277  0.2915 -0.3221
 1142SOL    HW2 4614   3.131   1.678   2.101 -0.1990  0.8119 -0.3269
 1142SOL    HW3 4615   3.158   1.768   1.982 -0.3481  0.1526 -0.8614
 1142SOL    MW4 4616   3.150   1.688   2.017 -0.2396  0.3420 -0.3936
 1143SOL     OW 4617   3.149   1.936   1.901 -0.1832 -0.1196 -0.2893
 1143SOL    HW2 4618   3.217   1.989   1.942 -0.2689  0.6193 -1.0970
 1143SOL    HW3 4619   3.156   1.954   1.807 -0.3849 -1.3340 -0.5589
 1143SOL    MW4 4620   3.159   1.945   1.894 -0.2215 -0.1824 -0.4314
 1144SOL     OW 4621   3.389   2.033   2.029 -0.8717  0.0342  0.0601
 1144SOL    HW2 4622   3.452   1.986   1.975 -1.2970 -1.3191  0.7216
 1144SOL    HW3 4623   3.391   2.123   1.996  0.3473 -0.3238 -0.8596
 1144SOL    MW4 4624   3.398   2.039   2.018 -0.7672 -0.1915  0.0262
 1145SOL     OW 4625   3.388   2.302   1.888 -0.1818 -0.1919  0.0355
 1145SOL    HW2 4626   3.316   2.360   1.913  0.1062  0.3760 -0.4489
 1145SOL    HW3 4627   3.385   2.299   1.793 -0.5013 -1.3691  0.0751
 1145SOL    MW4 4628   3.378   2.310   1.879 -0.1860 -0.2725 -0.0232
 1146SOL     OW 4629   3.152   2.490   1.979 -0.0107 -0.4842 -0.3327
 1146SOL    HW2 4630   3.164   2.479   2.073 -0.3642 -0.4251 -0.2778
 1146SOL    HW3 4631   3.159   2.584   1.965 -0.4359 -0.4477 -0.2958
 1146SOL    MW4 4632   3.154   2.501   1.989 -0.1135 -0.4714 -0.3206
 1147SOL     OW 4633   3.159   2.756   1.891  0.1232  0.1041 -0.2112
 1147SOL    HW2 4634   3.077   2.795   1.921  0.2559 -0.2409  0.6091
 1147SOL    HW3 4635   3.145   2.739   1.798 -0.0900  1.7094 -0.4751
 1147SOL    MW4 4636   3.146   2.759   1.883  0.1128  0.2704 -0.1378
 1148SOL     OW 4637   3.416   2.863   2.003 -0.2381  0.3197 -0.2025
 1148SOL    HW2 4638   3.422   2.840   2.096  0.9851 -1.8230 -0.7759
 1148SOL    HW3 4639   3.328   2.836   1.977  0.8556 -3.0770 -0.6408
 1148SOL    MW4 4640   3.405   2.856   2.012  0.0675 -0.4113 -0.3359
 1149SOL     OW 4641   3.405   3.109   1.860 -0.2018 -0.3083 -0.1580
 1149SOL    HW2 4642   3.481   3.156   1.895 -0.0482  0.4631 -1.4764
 1149SOL    HW3 4643   3.413   3.020   1.895  0.9596 -0.0534  0.2397
 1149SOL    MW4 4644   3.416   3.103   1.869 -0.0284 -0.1731 -0.2795
 1150SOL     OW 4645   3.188   3.242   2.001 -0.2112  0.1012  0.5983
 1150SOL    HW2 4646   3.185   3.331   1.967 -1.1336  0.1926  0.9196
 1150SOL    HW3 4647   3.265   3.203   1.959 -0.4110  0.7130 -0.3500
 1150SOL    MW4 4648   3.198   3.248   1.991 -0.3591  0.1938  0.5156
 1151SOL     OW 4649   3.158   3.499   1.877  0.2736  0.2218 -0.8526
 1151SOL    HW2 4650   3.241   3.544   1.887 -0.0307  0.7608 -0.7474
 1151SOL    HW3 4651   3.159   3.464   1.788  0.3638  0.7291 -1.0509
 1151SOL    MW4 4652   3.169   3.500   1.867  0.2453  0.3600 -0.8649
 1152SOL     OW 4653   3.391   3.626   1.948 -0.3890 -0.0571 -0.0431
 1152SOL    HW2 4654   3.472   3.583   1.922 -1.1215 -2.0134  0.7720
 1152SOL    HW3 4655   3.395   3.712   1.907  1.5829 -0.5316 -0.9170
 1152SOL    MW4 4656   3.402   3.632   1.939 -0.2251 -0.3779 -0.0509
 1153SOL     OW 4657   3.382   3.883   1.843  0.6197 -0.3362 -0.3593
 1153SOL    HW2 4658   3.313   3.934   1.885 -0.8563 -1.2874 -1.5926
 1153SOL    HW3 4659   3.351   3.868   1.753  1.0331 -3.3478 -0.0627
 1153SOL    MW4 4660   3.369   3.888   1.836  0.4792 -0.8590 -0.4827
 1154SOL     OW 4661   3.170   4.009   2.005 -0.2158 -0.5123  0.1279
 1154SOL    HW2 4662   3.181   4.011   2.100  0.4423  0.0158  0.0399
 1154SOL    HW3 4663   3.078   3.985   1.992 -0.3557 -0.4030  0.8961
 1154SOL    MW4 4664   3.159   4.006   2.016 -0.1473 -0.4282  0.2177
 1155SOL     OW 4665   3.126   4.237   1.851  0.4063 -0.1390  0.0227
 1155SOL    HW2 4666   3.150   4.158   1.900 -0.5673 -0.4244  0.0469
 1155SOL    HW3 4667   3.058   4.278   1.904  1.3282  1.0538  0.3165
 1155SOL    MW4 4668   3.120   4.232   1.865  0.3994 -0.0191  0.0647
 1156SOL     OW 4669   3.344   4.411   1.956  0.1228 -0.5887  0.2025
 1156SOL    HW2 4670   3.426   4.379   1.918  0.4997 -0.3483  0.7959
 1156SOL    HW3 4671   3.275   4.373   1.901  0.6227 -0.9965 -0.1489
 1156SOL    MW4 4672   3.346   4.402   1.944  0.2384 -0.6104  0.2345
 1157SOL     OW 4673   3.818   4.651   1.853  0.6474  0.3632 -0.0882
 1157SOL    HW2 4674   3.833   4.562   1.886  0.9522  0.3702 -0.1997
 1157SOL    HW3 4675   3.735   4.678   1.891 -0.3410 -0.6559 -1.5008
 1157SOL    MW4 4676   3.809   4.643   1.862  0.5572  0.2298 -0.2892
 1158SOL     OW 4677   3.610   0.126   1.974 -0.4688  0.3422  0.4216
 1158SOL    HW2 4678   3.593   0.129   2.068  0.7002 -1.2865  0.7089
 1158SOL    HW3 4679   3.528   0.097   1.936 -1.0844  1.4447  0.8814
 1158SOL    MW4 4680   3.597   0.123   1.981 -0.3958  0.2728  0.5202
 1159SOL     OW 4681   3.611   0.396   1.891 -0.2511 -0.3533 -0.0578
 1159SOL    HW2 4682   3.641   0.306   1.906 -0.4974 -0.5081 -0.4739
 1159SOL    HW3 4683   3.590   0.398   1.797 -0.2947  0.1239 -0.0375
 1159SOL    MW4 4684   3.612   0.385   1.880 -0.2892 -0.3107 -0.1101
 1160SOL     OW 4685   3.836   0.556   1.981  0.0644  0.4970 -0.2044
 1160SOL    HW2 4686   3.828   0.649   1.961  0.2111  0.3308 -1.0354
 1160SOL    HW3 4687   3.762   0.516   1.936 -0.4309  0.2978  0.7641
 1160SOL    MW4 4688   3.825   0.563   1.972  0.0184  0.4488 -0.1862
 1161SOL     OW 4689   3.838   0.820   1.910  0.1551 -0.0335 -0.3608
 1161SOL    HW2 4690   3.747   0.842   1.926  0.9388  3.5832 -0.5548
 1161SOL    HW3 4691   3.846   0.816   1.815  0.0710 -1.0574 -0.3333
 1161SOL    MW4 4692   3.827   0.822   1.899  0.2472  0.3085 -0.3829
 1162SOL     OW 4693   3.589   0.914   1.964 -0.3640 -0.8228 -0.3449
 1162SOL    HW2 4694   3.568   0.998   1.924 -0.8021  0.4979  2.5673
 1162SOL    HW3 4695   3.524   0.853   1.928 -0.2786  0.1516 -2.1830
 1162SOL    MW4 4696   3.578   0.917   1.954 -0.4103 -0.5200 -0.2033
 1163SOL     OW 4697   3.591   1.163   1.864 -0.0359 -0.0856 -0.4782
 1163SOL    HW2 4698   3.516   1.217   1.890  1.1754  1.3605  0.0213
 1163SOL    HW3 4699   3.613   1.193   1.776  1.0149  0.6690  0.0325
 1163SOL    MW4 4700   3.584   1.174   1.856  0.2625  0.2047 -0.3450
 1164SOL     OW 4701   3.824   1.300   1.980 -0.0394  0.0571 -0.2399
 1164SOL    HW2 4702   3.819   1.292   2.075 -0.1143  0.3613 -0.2200
 1164SOL    HW3 4703   3.755   1.241   1.948  1.4458 -1.7708 -0.1720
 1164SOL    MW4 4704   3.814   1.291   1.988  0.1466 -0.1438 -0.2283
 1165SOL     OW 4705   3.816   1.556   1.879  0.2857  0.0323  0.7149
 1165SOL    HW2 4706   3.899   1.590   1.913  0.3372  0.0901  0.5313
 1165SOL    HW3 4707   3.812   1.466   1.911  0.7061 -0.1668  0.2114
 1165SOL    MW4 4708   3.826   1.549   1.888  0.3479  0.0136  0.6242
 1166SOL     OW 4709   3.575   1.646   1.975 -0.3519  0.2552 -0.2466
 1166SOL    HW2 4710   3.593   1.740   1.975  1.4169 -0.0690  0.3328
 1166SOL    HW3 4711   3.654   1.606   1.939 -0.4941 -1.1215  0.9037
 1166SOL    MW4 4712   3.587   1.653   1.970 -0.1371  0.0308 -0.0184
 1167SOL     OW 4713   3.624   1.934   1.915  0.0250 -0.0501  0.3510
 1167SOL    HW2 4714   3.684   2.001   1.948  0.0030 -0.2881  0.8686
 1167SOL    HW3 4715   3.652   1.921   1.824  1.0595 -0.4975  0.7208
 1167SOL    MW4 4716   3.636   1.941   1.907  0.1588 -0.1405  0.4680
 1168SOL     OW 4717   3.845   2.082   2.005  0.2399 -0.1220 -0.4602
 1168SOL    HW2 4718   3.911   2.029   1.960  0.7050  0.5400 -0.5642
 1168SOL    HW3 4719   3.837   2.160   1.950  0.3179  0.3881  0.2542
 1168SOL    MW4 4720   3.853   2.085   1.992  0.3114  0.0327 -0.3797
 1169SOL     OW 4721   3.790   2.318   1.878 -0.5333  0.0535  0.1153
 1169SOL    HW2 4722   3.872   2.363   1.897 -0.0204 -1.5351  1.7427
 1169SOL    HW3 4723   3.722   2.380   1.904  0.1150  1.4561 -1.4293
 1169SOL    MW4 4724   3.792   2.332   1.884 -0.3803  0.0291  0.1262
 1170SOL     OW 4725   3.590   2.472   1.968 -0.0765  0.5205 -0.0951
 1170SOL    HW2 4726   3.570   2.560   1.935 -0.0142 -0.1373 -1.9494
 1170SOL    HW3 4727   3.510   2.422   1.951 -0.0981  0.1960  0.9296
 1170SOL    MW4 4728   3.577   2.477   1.961 -0.0713  0.3910 -0.2044
 1171SOL     OW 4729   3.606   2.739   1.865  0.2660  0.0271 -0.1064
 1171SOL    HW2 4730   3.539   2.791   1.911 -0.3961  0.3192 -1.3774
 1171SOL    HW3 4731   3.689   2.772   1.899 -0.1376  2.0322 -0.9819
 1171SOL    MW4 4732   3.608   2.750   1.875  0.1252  0.3302 -0.3897
 1172SOL     OW 4733   3.817   2.872   1.977 -0.0889  0.6840  0.1171
 1172SOL    HW2 4734   3.811   2.867   2.072 -1.3449  0.3887  0.0399
 1172SOL    HW3 4735   3.841   2.963   1.958 -1.3653  1.1451  0.6632
 1172SOL    MW4 4736   3.819   2.883   1.987 -0.4230  0.7057  0.1788
 1173SOL     OW 4737   3.859   3.114   1.847  0.4550 -0.0586 -0.3225
 1173SOL    HW2 4738   3.771   3.144   1.868  0.5805 -0.1082  0.2837
 1173SOL    HW3 4739   3.854   3.088   1.754  0.2192  1.3587 -0.7180
 1173SOL    MW4 4740   3.847   3.114   1.837  0.4401  0.1218 -0.2948
 1174SOL     OW 4741   3.632   3.208   1.978  0.0524 -0.0988  0.1421
 1174SOL    HW2 4742   3.631   3.204   2.073  0.7658  0.7001  0.1902
 1174SOL    HW3 4743   3.631   3.301   1.958  3.9861 -0.1439 -0.5561
 1174SOL    MW4 4744   3.632   3.220   1.988  0.6657  0.0010  0.0565
 1175SOL     OW 4745   3.614   3.475   1.895 -0.6243 -0.3876 -0.0711
 1175SOL    HW2 4746   3.688   3.530   1.919 -0.8389 -0.6727  1.2852
 1175SOL    HW3 4747   3.606   3.485   1.800  0.9780 -0.1567 -0.1871
 1175SOL    MW4 4748   3.622   3.484   1.886 -0.4411 -0.3946  0.0925
 1176SOL     OW 4749   3.819   3.632   1.973  0.2575  0.0700 -0.1261
 1176SOL    HW2 4750   3.904   3.596   1.950  0.0308 -1.2621  1.0501
 1176SOL    HW3 4751   3.819   3.720   1.936  1.5046 -0.4968 -1.5389
 1176SOL    MW4 4752   3.830   3.639   1.965  0.3922 -0.1805 -0.1574
 1177SOL     OW 4753   3.807   3.909   1.863 -0.3767 -0.3046 -0.5128
 1177SOL    HW2 4754   3.726   3.958   1.882 -0.4819 -0.2831 -1.0164
 1177SOL    HW3 4755   3.797   3.880   1.773  0.6104  0.5393 -0.9058
 1177SOL    MW4 4756   3.795   3.912   1.854 -0.2606 -0.1905 -0.6311
 1178SOL     OW 4757   3.580   4.038   1.952  0.2664 -0.3219  0.3176
 1178SOL    HW2 4758   3.573   4.017   2.045 -0.1930  2.9125  1.0457
 1178SOL    HW3 4759   3.516   3.980   1.910 -1.1822 -0.1821  2.2613
 1178SOL    MW4 4760   3.570   4.027   1.959  0.0148  0.1235  0.6701
 1179SOL     OW 4761   3.570   4.300   1.834 -0.2068  0.4553 -0.3056
 1179SOL    HW2 4762   3.647   4.334   1.879  0.1373 -0.0287 -0.5268
 1179SOL    HW3 4763   3.558   4.212   1.868  2.0469 -1.2115 -3.5538
 1179SOL    MW4 4764   3.578   4.293   1.844  0.1357  0.1712 -0.7634
 1180SOL     OW 4765   3.810   4.387   1.954 -0.4586  0.1263 -0.4096
 1180SOL    HW2 4766   3.812   4.389   2.050 -1.0284 -2.2774 -0.3126
 1180SOL    HW3 4767   3.892   4.345   1.929 -1.0127 -0.6820 -0.8960
 1180SOL    MW4 4768   3.821   4.382   1.964 -0.6073 -0.2975 -0.4610
 1181SOL     OW 4769   4.200   0.014   1.891  0.3542 -0.4308  0.0495
 1181SOL    HW2 4770   4.126   0.070   1.910 -0.2336  0.2001 -3.6169
 1181SOL    HW3 4771   4.277   0.063   1.920 -0.4243  0.5240  0.4836
 1181SOL    MW4 4772   4.201   0.028   1.897  0.1740 -0.2216 -0.3769
 1182SOL     OW 4773   3.989   0.176   1.980  0.3923 -0.8694 -0.4162
 1182SOL    HW2 4774   3.989   0.177   2.076  0.1710  0.0511 -0.4246
 1182SOL    HW3 4775   3.916   0.118   1.957 -0.4154 -0.0282 -0.0255
 1182SOL    MW4 4776   3.979   0.168   1.990  0.2565 -0.6370 -0.3657
 1183SOL     OW 4777   4.040   0.412   1.868 -0.4432  0.3741  0.2364
 1183SOL    HW2 4778   4.026   0.327   1.909  0.7569 -0.2722 -0.6630
 1183SOL    HW3 4779   3.968   0.466   1.900 -0.9112 -0.8210  1.2412
 1183SOL    MW4 4780   4.029   0.408   1.877 -0.3467  0.1311  0.2502
 1184SOL     OW 4781   4.265   0.525   1.994 -0.1664 -0.2551  0.9949
 1184SOL    HW2 4782   4.281   0.503   2.086  0.0269  0.2378  1.0796
 1184SOL    HW3 4783   4.185   0.477   1.971  0.8405 -1.8937  0.8679
 1184SOL    MW4 4784   4.256   0.516   2.003 -0.0081 -0.4061  0.9892
 1185SOL     OW 4785   4.293   0.774   1.892  0.2162  0.0922 -0.0467
 1185SOL    HW2 4786   4.260   0.690   1.922  1.4364 -0.3066  0.2290
 1185SOL    HW3 4787   4.300   0.765   1.797 -0.2050  0.0801 -0.0747
 1185SOL    MW4 4788   4.290   0.762   1.884  0.3214  0.0380 -0.0141
 1186SOL     OW 4789   4.094   0.938   1.996 -0.2897  0.2415 -0.0236
 1186SOL    HW2 4790   4.163   0.892   1.948  0.1961  1.6568 -0.7086
 1186SOL    HW3 4791   4.017   0.883   1.986  0.3214 -0.5023 -0.6861
 1186SOL    MW4 4792   4.093   0.924   1.989 -0.1454  0.3302 -0.2013
 1187SOL     OW 4793   4.050   1.182   1.886  0.0234 -0.2776  0.3614
 1187SOL    HW2 4794   4.052   1.093   1.920  1.1782 -0.1962  0.5194
 1187SOL    HW3 4795   3.971   1.221   1.924  0.1932 -0.8410  1.2849
 1187SOL    MW4 4796   4.040   1.176   1.895  0.1979 -0.3413  0.5041
 1188SOL     OW 4797   4.294   1.255   1.952  0.0714  0.4130  0.0106
 1188SOL    HW2 4798   4.281   1.266   2.046 -0.3525  0.3602 -0.0400
 1188SOL    HW3 4799   4.208   1.230   1.918  0.7713 -2.0743 -0.0137
 1188SOL    MW4 4800   4.281   1.253   1.960  0.1082  0.0778  0.0008
 1189SOL     OW 4801   4.261   1.500   1.828  0.1721  0.6590 -0.1236
 1189SOL    HW2 4802   4.282   1.410   1.853 -1.3731  0.4817  0.6079
 1189SOL    HW3 4803   4.260   1.498   1.732  1.3368  0.1823 -0.1283
 1189SOL    MW4 4804   4.264   1.487   1.819  0.1216  0.5728 -0.0277
 1190SOL     OW 4805   4.061   1.657   1.985 -0.4011 -0.2834  0.1797
 1190SOL    HW2 4806   4.057   1.658   2.080  0.9956 -0.1329  0.2501
 1190SOL    HW3 4807   4.148   1.622   1.965  0.2298  1.8726 -1.0081
 1190SOL    MW4 4808   4.072   1.652   1.995 -0.1340  0.0207  0.0322
 1191SOL     OW 4809   4.047   1.926   1.892 -0.6110  0.3599  0.5169
 1191SOL    HW2 4810   4.038   1.836   1.923  0.5761  0.0720  0.0343
 1191SOL    HW3 4811   4.047   1.920   1.797 -3.0674  1.1374  0.4438
 1191SOL    MW4 4812   4.046   1.914   1.884 -0.7782  0.4245  0.4436
 1192SOL     OW 4813   4.277   2.074   1.930 -0.0035 -0.1386 -0.3358
 1192SOL    HW2 4814   4.298   2.067   2.023  1.0505 -0.6110 -0.6118
 1192SOL    HW3 4815   4.207   2.010   1.916  0.0606 -0.2930  0.0601
 1192SOL    MW4 4816   4.270   2.065   1.940  0.1435 -0.2210 -0.3201
 1193SOL     OW 4817   4.247   2.314   1.815  0.0907  0.0164  0.3067
 1193SOL    HW2 4818   4.257   2.226   1.851 -0.6961  0.8823  2.7097
 1193SOL    HW3 4819   4.312   2.367   1.861 -0.0146  0.8683 -0.5040
 1193SOL    MW4 4820   4.257   2.310   1.826 -0.0267  0.2429  0.5169
 1194SOL     OW 4821   4.020   2.420   1.953 -0.2365 -0.1894  0.3604
 1194SOL    HW2 4822   4.025   2.386   2.043  0.1314 -0.2168  0.3296
 1194SOL    HW3 4823   4.097   2.384   1.910  0.5113  1.2114  0.5018
 1194SOL    MW4 4824   4.031   2.411   1.959 -0.0892 -0.0083  0.3749
 1195SOL     OW 4825   4.021   2.697   1.864  0.4020  0.3621  0.1302
 1195SOL    HW2 4826   4.018   2.614   1.911 -1.5548  0.3918  0.0881
 1195SOL    HW3 4827   3.937   2.738   1.882  0.7848  1.6881 -1.0153
 1195SOL    MW4 4828   4.009   2.691   1.872  0.1941  0.5407 -0.0265
 1196SOL     OW 4829   4.241   2.850   1.948  0.1247 -0.1601 -0.1949
 1196SOL    HW2 4830   4.248   2.830   2.042 -0.2239 -0.2551 -0.1883
 1196SOL    HW3 4831   4.168   2.796   1.918  0.6138 -0.5752 -0.6473
 1196SOL    MW4 4832   4.232   2.840   1.957  0.1431 -0.2275 -0.2537
 1197SOL     OW 4833   4.241   3.125   1.886 -0.2276  0.2883 -0.5671
 1197SOL    HW2 4834   4.167   3.177   1.919  0.0439  0.1133  0.3067
 1197SOL    HW3 4835   4.229   3.039   1.924  0.1505  0.1144 -0.8408
 1197SOL    MW4 4836   4.230   3.121   1.895 -0.1421  0.2425 -0.4879
 1198SOL     OW 4837   4.026   3.264   1.976  0.2746 -0.1514 -0.0081
 1198SOL    HW2 4838   4.020   3.244   2.070 -0.1567 -0.0866 -0.0192
 1198SOL    HW3 4839   3.959   3.209   1.936 -0.2026  0.5319 -0.1647
 1198SOL    MW4 4840   4.017   3.254   1.983  0.1550 -0.0527 -0.0303
 1199SOL     OW 4841   4.023   3.500   1.839  0.9242  0.1121 -0.2325
 1199SOL    HW2 4842   4.104   3.539   1.872  0.7679  0.5727 -0.3973
 1199SOL    HW3 4843   4.022   3.412   1.878  1.1987  0.3243  0.2583
 1199SOL    MW4 4844   4.034   3.493   1.849  0.9398  0.2010 -0.1894
 1200SOL     OW 4845   4.215   3.589   2.014  0.6945  0.0806 -0.2284
 1200SOL    HW2 4846   4.224   3.678   1.981  2.4703  0.3028  0.8295
 1200SOL    HW3 4847   4.294   3.544   1.984  0.1952 -0.9198 -0.0629
 1200SOL    MW4 4848   4.226   3.595   2.005  0.8626 -0.0219 -0.0670
 1201SOL     OW 4849   4.250   3.836   1.904  0.3602 -0.2151  0.3087
 1201SOL    HW2 4850   4.323   3.889   1.937  1.0617 -1.4814  0.7979
 1201SOL    HW3 4851   4.255   3.847   1.809  0.5462  0.5458  0.4020
 1201SOL    MW4 4852   4.260   3.845   1.896  0.4773 -0.2818  0.3855
 1202SOL     OW 4853   4.048   4.006   2.001 -0.3199  0.8501  0.1465
 1202SOL    HW2 4854   4.118   3.955   1.962 -0.4885  0.5907  0.1856
 1202SOL    HW3 4855   3.970   3.982   1.951 -0.4625  0.8156  0.3853
 1202SOL    MW4 4856   4.047   3.996   1.989 -0.3614  0.8113  0.1830
 1203SOL     OW 4857   4.040   4.252   1.873 -0.2395 -0.1437  0.0981
 1203SOL    HW2 4858   4.107   4.311   1.908 -0.2603 -0.8559  1.3912
 1203SOL    HW3 4859   4.056   4.169   1.918 -0.4308 -1.0297 -1.4416
 1203SOL    MW4 4860   4.051   4.249   1.884 -0.2675 -0.3548  0.0656
 1204SOL     OW 4861   4.232   4.406   1.995  0.3181  0.2636  0.0411
 1204SOL    HW2 4862   4.241   4.416   2.090 -0.7192  1.1784  0.0586
 1204SOL    HW3 4863   4.218   4.495   1.963  1.6314  0.0795 -1.0919
 1204SOL    MW4 4864   4.231   4.419   2.003  0.3543  0.3595 -0.1059
 1205SOL     OW 4865   0.243   4.637   2.386 -0.0955  0.1128  0.0040
 1205SOL    HW2 4866   0.169   4.673   2.337  0.3172  1.0206  0.0407
 1205SOL    HW3 4867   0.311   4.703   2.379  0.4257 -0.3397  0.6860
 1205SOL    MW4 4868   0.242   4.651   2.379  0.0277  0.1731  0.0989
 1206SOL     OW 4869   0.019   0.092   2.271 -0.0268 -0.0934  0.1604
 1206SOL    HW2 4870  -0.006   0.091   2.179  1.3469  0.2377 -0.2349
 1206SOL    HW3 4871   0.010   0.183   2.298 -0.4322 -0.1909  0.3494
 1206SOL    MW4 4872   0.015   0.104   2.263  0.1009 -0.0626  0.1330
 1207SOL     OW 4873   0.032   0.355   2.368 -0.2346  0.0356  0.1802
 1207SOL    HW2 4874   0.108   0.408   2.346 -0.8585 -0.0920 -2.4677
 1207SOL    HW3 4875   0.022   0.365   2.463  0.2878  3.8490 -0.0705
 1207SOL    MW4 4876   0.041   0.364   2.378 -0.2480  0.5219 -0.2022
 1208SOL     OW 4877   0.230   0.547   2.293 -0.0620  0.2541  0.2479
 1208SOL    HW2 4878   0.318   0.509   2.305 -0.2141 -0.3212 -0.3935
 1208SOL    HW3 4879   0.222   0.558   2.199 -1.2669 -1.1470  0.1703
 1208SOL    MW4 4880   0.241   0.543   2.283 -0.2410 -0.0067  0.1531
 1209SOL     OW 4881   0.213   0.809   2.424  0.6645  0.0416  0.4196
 1209SOL    HW2 4882   0.207   0.800   2.520 -4.4753 -0.2604  0.1734
 1209SOL    HW3 4883   0.215   0.719   2.392 -1.1937  0.0819  0.1366
 1209SOL    MW4 4884   0.213   0.796   2.433 -0.2588  0.0071  0.3498
 1210SOL     OW 4885   4.476   0.913   2.280 -0.1608 -0.5251  0.1240
 1210SOL    HW2 4886   4.546   0.884   2.338  2.1017  2.2713 -1.1174
 1210SOL    HW3 4887   4.508   0.894   2.191 -1.1299  0.4397 -0.4499
 1210SOL    MW4 4888   4.489   0.907   2.276  0.0100 -0.0288 -0.1156
 1211SOL     OW 4889   4.473   1.177   2.358  0.2167  0.5460 -0.1896
 1211SOL    HW2 4890   4.486   1.155   2.451  0.8269  1.1714 -0.1197
 1211SOL    HW3 4891   4.482   1.093   2.313  0.9592  0.3879  0.2264
 1211SOL    MW4 4892   4.476   1.163   2.364  0.3953  0.6077 -0.1256
 1212SOL     OW 4893   0.219   1.270   2.275  0.2698  0.6465  0.3143
 1212SOL    HW2 4894   0.132   1.238   2.302  0.8370 -1.4066 -0.2091
 1212SOL    HW3 4895   0.219   1.261   2.180  1.2847  0.0508  0.3681
 1212SOL    MW4 4896   0.207   1.264   2.266  0.4785  0.2971  0.2525
 1213SOL     OW 4897   0.240   1.537   2.345 -0.0552 -0.2483  0.3545
 1213SOL    HW2 4898   0.227   1.536   2.440 -0.7728  0.5014  0.2744
 1213SOL    HW3 4899   0.230   1.445   2.318 -1.4345 -0.2519  0.8187
 1213SOL    MW4 4900   0.237   1.524   2.354 -0.3318 -0.1498  0.4051
 1214SOL     OW 4901   0.012   1.687   2.225 -0.2904  0.2815  0.0066
 1214SOL    HW2 4902   0.000   1.771   2.268  0.0880 -0.0717  0.8033
 1214SOL    HW3 4903   0.100   1.659   2.250  0.1009  0.2812 -1.3585
 1214SOL    MW4 4904   0.022   1.694   2.234 -0.1884  0.2348 -0.0684
 1215SOL     OW 4905   0.010   1.936   2.352  0.6834  0.0585  0.4857
 1215SOL    HW2 4906  -0.071   1.971   2.314  1.7138  1.7795 -0.1878
 1215SOL    HW3 4907   0.080   1.985   2.309  2.1338 -1.8189  0.6389
 1215SOL    MW4 4908   0.009   1.947   2.341  1.0109  0.0378  0.4172
 1216SOL     OW 4909   0.222   2.088   2.234  0.0463  0.1861 -0.1225
 1216SOL    HW2 4910   0.300   2.035   2.250  0.0567  0.2047 -0.1116
 1216SOL    HW3 4911   0.203   2.075   2.141  0.4713  0.7349 -0.2870
 1216SOL    MW4 4912   0.229   2.079   2.224  0.1038  0.2608 -0.1426
 1217SOL     OW 4913   0.212   2.354   2.340 -0.3238 -0.1092  0.2711
 1217SOL    HW2 4914   0.220   2.346   2.435 -0.7848 -1.7671  0.2010
 1217SOL    HW3 4915   0.208   2.263   2.309  0.3290  0.4050 -1.3763
 1217SOL    MW4 4916   0.213   2.341   2.348 -0.2985 -0.2606  0.0443
 1218SOL     OW 4917   4.469   2.475   2.250 -0.1616  0.1909 -0.0021
 1218SOL    HW2 4918   4.479   2.560   2.291 -0.7087  0.3080 -0.1125
 1218SOL    HW3 4919   4.541   2.422   2.286  0.7262  0.9654 -0.6331
 1218SOL    MW4 4920   4.480   2.479   2.260 -0.1173  0.3085 -0.0997
 1219SOL     OW 4921   4.480   2.716   2.369  0.1729  0.1239  0.3278
 1219SOL    HW2 4922   4.480   2.750   2.458  1.0075  0.3334  0.2478
 1219SOL    HW3 4923   4.563   2.745   2.332  0.3835 -1.0112 -0.1162
 1219SOL    MW4 4924   4.491   2.724   2.376  0.3109  0.0017  0.2584
 1220SOL     OW 4925   0.209   2.817   2.228 -0.1875 -0.1300  0.2814
 1220SOL    HW2 4926   0.289   2.769   2.248 -0.3945 -0.4000  0.4635
 1220SOL    HW3 4927   0.210   2.828   2.133  0.6448  0.8821  0.4014
 1220SOL    MW4 4928   0.219   2.812   2.218 -0.1050 -0.0319  0.3214
 1221SOL     OW 4929   0.218   3.062   2.359 -0.6048 -0.2210 -0.1821
 1221SOL    HW2 4930   0.151   3.121   2.322 -0.7246 -0.4867 -0.3880
 1221SOL    HW3 4931   0.201   2.978   2.317 -2.4375 -1.2175  2.4511
 1221SOL    MW4 4932   0.207   3.059   2.348 -0.8624 -0.3877  0.1383
 1222SOL     OW 4933   0.001   3.196   2.253  0.2745  0.2821  0.0055
 1222SOL    HW2 4934  -0.010   3.286   2.285 -0.0118  0.8779 -1.6915
 1222SOL    HW3 4935  -0.008   3.204   2.158 -1.4309 -1.7989 -0.0342
 1222SOL    MW4 4936  -0.002   3.209   2.244  0.0117  0.0863 -0.2239
 1223SOL     OW 4937   0.006   3.446   2.364 -0.1876 -0.3571  0.4795
 1223SOL    HW2 4938   0.012   3.453   2.459 -1.7074  0.0999  0.5464
 1223SOL    HW3 4939  -0.084   3.471   2.343  0.1495 -0.3916 -1.0861
 1223SOL    MW4 4940  -0.005   3.450   2.374 -0.3443 -0.3011  0.2816
 1224SOL     OW 4941   0.227   3.526   2.214 -0.7084 -0.3788  0.1981
 1224SOL    HW2 4942   0.160   3.499   2.277 -0.9790 -2.8634 -1.1009
 1224SOL    HW3 4943   0.308   3.488   2.248 -0.6434 -0.6776 -0.2798
 1224SOL    MW4 4944   0.229   3.517   2.227 -0.7355 -0.7460 -0.0362
 1225SOL     OW 4945   0.250   3.793   2.299 -0.0586 -0.5205  0.0070
 1225SOL    HW2 4946   0.238   3.702   2.271 -0.0570  0.0443 -1.9026
 1225SOL    HW3 4947   0.162   3.831   2.296  0.2259  0.0646 -1.1334
 1225SOL    MW4 4948   0.237   3.786   2.295 -0.0208 -0.3688 -0.3953
 1226SOL     OW 4949   0.014   3.956   2.288  0.0514  0.2649  0.2386
 1226SOL    HW2 4950   0.000   4.041   2.331 -0.4754  1.0459 -1.4360
 1226SOL    HW3 4951   0.007   3.975   2.194 -0.7655 -1.7544 -0.1392
 1226SOL    MW4 4952   0.011   3.970   2.281 -0.1260  0.1018 -0.0324
 1227SOL     OW 4953   4.440   4.246   2.401  0.2314  0.0352  0.2778
 1227SOL    HW2 4954   4.471   4.228   2.490 -0.5156  1.2264  0.8038
 1227SOL    HW3 4955   4.519   4.270   2.353  0.6022 -0.3092  0.7111
 1227SOL    MW4 4956   4.455   4.247   2.407  0.1822  0.1469  0.4044
 1228SOL     OW 4957   0.186   4.362   2.287  0.6776 -0.1574 -0.0519
 1228SOL    HW2 4958   0.265   4.308   2.283  0.4714 -0.4917  0.3978
 1228SOL    HW3 4959   0.213   4.442   2.333  0.4881 -0.7377  1.0860
 1228SOL    MW4 4960   0.200   4.366   2.293  0.6254 -0.2785  0.1576
 1229SOL     OW 4961   0.659   4.661   2.395 -0.3789 -0.1342  0.0160
 1229SOL    HW2 4962   0.670   4.642   2.488 -0.9924 -0.0112  0.1120
 1229SOL    HW3 4963   0.742   4.703   2.370  0.0739 -0.8306  0.3299
 1229SOL    MW4 4964   0.672   4.664   2.404 -0.4001 -0.2098  0.0701
 1230SOL     OW 4965   0.473   0.154   2.284  0.6875 -0.1561 -0.0372
 1230SOL    HW2 4966   0.534   0.099   2.333  1.4396 -0.1254 -0.9319
 1230SOL    HW3 4967   0.472   0.117   2.196 -0.0978  0.2382 -0.1984
 1230SOL    MW4 4968   0.481   0.142   2.279  0.6831 -0.1001 -0.1764
 1231SOL     OW 4969   0.463   0.412   2.365  0.3237 -0.0213 -0.0026
 1231SOL    HW2 4970   0.470   0.411   2.461  0.9590 -0.2591 -0.0526
 1231SOL    HW3 4971   0.471   0.321   2.339  1.0227  0.1308 -0.3437
 1231SOL    MW4 4972   0.465   0.400   2.374  0.4997 -0.0326 -0.0541
 1232SOL     OW 4973   0.719   0.516   2.285 -0.1954  0.3028 -0.2894
 1232SOL    HW2 4974   0.706   0.607   2.311  0.9036  0.6954 -1.0616
 1232SOL    HW3 4975   0.632   0.477   2.292 -1.0366  1.8443 -1.6074
 1232SOL    MW4 4976   0.706   0.523   2.289 -0.1614  0.5580 -0.5651
 1233SOL     OW 4977   0.667   0.781   2.383  0.4914  0.0288  0.9718
 1233SOL    HW2 4978   0.654   0.778   2.478  0.0177  0.5207  0.9253
 1233SOL    HW3 4979   0.583   0.813   2.349  0.3745 -0.9510  0.3230
 1233SOL    MW4 4980   0.654   0.785   2.391  0.4134 -0.0356  0.8800
 1234SOL     OW 4981   0.450   0.926   2.291 -0.2151  0.4081  0.2377
 1234SOL    HW2 4982   0.370   0.883   2.322  0.4618 -0.0449  1.4163
 1234SOL    HW3 4983   0.444   0.923   2.196 -0.7989 -1.1446  0.3106
 1234SOL    MW4 4984   0.439   0.920   2.283 -0.2028  0.1435  0.4027
 1235SOL     OW 4985   0.463   1.180   2.405  0.0819 -0.3140 -0.6649
 1235SOL    HW2 4986   0.467   1.092   2.368  0.3488  0.2845 -2.0937
 1235SOL    HW3 4987   0.377   1.213   2.379  0.4894  0.3114 -1.2337
 1235SOL    MW4 4988   0.452   1.173   2.397  0.1709 -0.1526 -0.9284
 1236SOL     OW 4989   0.666   1.295   2.268  0.2415 -0.0235 -0.2897
 1236SOL    HW2 4990   0.666   1.385   2.300 -1.1118  0.4516 -1.5394
 1236SOL    HW3 4991   0.587   1.256   2.305 -0.7223  0.1900 -2.0468
 1236SOL    MW4 4992   0.656   1.302   2.277 -0.0641  0.0674 -0.6862
 1237SOL     OW 4993   0.648   1.540   2.381  0.0715  0.1429 -0.0559
 1237SOL    HW2 4994   0.662   1.528   2.475 -0.1110 -2.1136 -0.2786
 1237SOL    HW3 4995   0.719   1.597   2.353  0.8227 -0.1364  1.2578
 1237SOL    MW4 4996   0.659   1.546   2.390  0.1464 -0.1917  0.0882
 1238SOL     OW 4997   0.437   1.699   2.290  0.4600 -0.5403  0.3988
 1238SOL    HW2 4998   0.369   1.634   2.307  1.0024 -1.0003  0.8275
 1238SOL    HW3 4999   0.519   1.654   2.311  0.9261 -0.1056 -0.4356
 1238SOL    MW4 5000   0.439   1.684   2.295  0.5931 -0.5436  0.3452
 1239SOL     OW 5001   0.442   1.972   2.356 -0.2315 -0.5508  0.1152
 1239SOL    HW2 5002   0.520   2.001   2.308 -0.0761 -1.5917 -0.2732
 1239SOL    HW3 5003   0.445   1.876   2.350 -1.1764 -0.6161  0.6831
 1239SOL    MW4 5004   0.453   1.963   2.349 -0.3357 -0.6968  0.1388
 1240SOL     OW 5005   0.678   2.060   2.230  0.1754  0.1421  0.6414
 1240SOL    HW2 5006   0.758   2.023   2.268  0.2869  0.1330  0.3980
 1240SOL    HW3 5007   0.671   2.147   2.270  0.2820  0.1242  0.6997
 1240SOL    MW4 5008   0.688   2.066   2.241  0.2042  0.1385  0.6173
 1241SOL     OW 5009   0.662   2.314   2.353  0.6941 -0.0504  0.1114
 1241SOL    HW2 5010   0.669   2.319   2.448 -0.5291  0.2859  0.1974
 1241SOL    HW3 5011   0.733   2.370   2.321 -0.4342  1.8587  0.8725
 1241SOL    MW4 5012   0.672   2.322   2.361  0.3838  0.2458  0.2234
 1242SOL     OW 5013   0.442   2.443   2.225 -0.2370  0.4012 -0.0917
 1242SOL    HW2 5014   0.517   2.395   2.261  1.4077  1.8792 -1.4370
 1242SOL    HW3 5015   0.366   2.404   2.267  1.3235 -0.8202  1.6784
 1242SOL    MW4 5016   0.442   2.431   2.235  0.1860  0.4349 -0.0355
 1243SOL     OW 5017   0.442   2.707   2.309  0.5565 -0.2990  0.0730
 1243SOL    HW2 5018   0.438   2.711   2.405  3.2923 -0.4315  0.2198
 1243SOL    HW3 5019   0.444   2.614   2.289  0.1116 -0.2692 -0.1009
 1243SOL    MW4 5020   0.442   2.695   2.319  0.8587 -0.3123  0.0691
 1244SOL     OW 5021   0.682   2.849   2.197 -0.9020 -0.3354 -0.0664
 1244SOL    HW2 5022   0.757   2.805   2.237 -1.4732 -0.7326  0.5839
 1244SOL    HW3 5023   0.606   2.813   2.243 -1.4151  0.9445  0.1163
 1244SOL    MW4 5024   0.681   2.838   2.209 -1.0450 -0.2189  0.0434
 1245SOL     OW 5025   0.676   3.088   2.332  0.3870 -0.1703  0.0336
 1245SOL    HW2 5026   0.603   3.125   2.282 -0.0998 -0.4633  0.5224
 1245SOL    HW3 5027   0.685   2.999   2.300  0.4211 -0.1879  0.0908
 1245SOL    MW4 5028   0.667   3.081   2.321  0.3273 -0.2112  0.1056
 1246SOL     OW 5029   0.448   3.191   2.222  0.2201 -0.1364 -0.1701
 1246SOL    HW2 5030   0.384   3.127   2.254 -0.7469  0.5963 -0.6352
 1246SOL    HW3 5031   0.444   3.185   2.127  0.1949  0.5619 -0.2139
 1246SOL    MW4 5032   0.439   3.181   2.214  0.0892  0.0525 -0.2370
 1247SOL     OW 5033   0.452   3.440   2.349 -0.0057  0.1686 -0.3696
 1247SOL    HW2 5034   0.528   3.487   2.314 -1.8758  1.6385 -2.5865
 1247SOL    HW3 5035   0.453   3.356   2.303 -1.1868  1.2355 -2.4562
 1247SOL    MW4 5036   0.462   3.435   2.338 -0.4083  0.5033 -0.9372
 1248SOL     OW 5037   0.645   3.601   2.246 -0.4449 -0.0826 -0.0168
 1248SOL    HW2 5038   0.668   3.674   2.303 -1.0108  1.5664 -1.8459
 1248SOL    HW3 5039   0.644   3.638   2.158 -0.3535 -2.3946 -1.0328
 1248SOL    MW4 5040   0.648   3.616   2.242 -0.5075 -0.1702 -0.3922
 1249SOL     OW 5041   0.746   3.861   2.352  0.1519  0.3503  0.7072
 1249SOL    HW2 5042   0.727   3.872   2.445 -0.0374 -0.3841  0.7574
 1249SOL    HW3 5043   0.667   3.892   2.308 -0.1553 -0.2413  0.8300
 1249SOL    MW4 5044   0.733   3.867   2.359  0.0864  0.1755  0.7303
 1250SOL     OW 5045   0.483   3.941   2.251 -0.3756  0.1465 -0.2831
 1250SOL    HW2 5046   0.402   3.898   2.277  0.1671 -0.5954  0.1775
 1250SOL    HW3 5047   0.465   4.035   2.262 -0.8154 -0.0607  0.8302
 1250SOL    MW4 5048   0.470   3.948   2.256 -0.3620  0.0210 -0.0753
 1251SOL     OW 5049   0.431   4.210   2.324  0.4152 -0.1515 -0.4594
 1251SOL    HW2 5050   0.505   4.265   2.297  1.7715 -1.3247  0.7444
 1251SOL    HW3 5051   0.427   4.221   2.419 -1.8195  0.9280 -0.6580
 1251SOL    MW4 5052   0.440   4.218   2.333  0.2993 -0.1640 -0.3266
 1252SOL     OW 5053   0.651   4.393   2.278 -0.4020 -0.4342 -0.2211
 1252SOL    HW2 5054   0.624   4.475   2.318 -0.0888 -0.2676 -0.3436
 1252SOL    HW3 5055   0.657   4.413   2.184 -0.1866 -0.5538 -0.2351
 1252SOL    MW4 5056   0.648   4.406   2.271 -0.3323 -0.4282 -0.2389
 1253SOL     OW 5057   1.102   4.663   2.402 -0.3892  0.3917 -0.1905
 1253SOL    HW2 5058   1.089   4.666   2.497 -0.9894 -0.7709 -0.2298
 1253SOL    HW3 5059   1.029   4.714   2.366 -1.4367 -1.0274 -0.1204
 1253SOL    MW4 5060   1.091   4.670   2.410 -0.6065  0.0505 -0.1862
 1254SOL     OW 5061   0.885   0.149   2.307 -0.1293  0.0828  0.0118
 1254SOL    HW2 5062   0.889   0.236   2.346 -3.6854  0.0860  0.5305
 1254SOL    HW3 5063   0.888   0.166   2.213 -0.7792  0.7861  0.1075
 1254SOL    MW4 5064   0.886   0.163   2.300 -0.6842  0.1760  0.0927
 1255SOL     OW 5065   0.939   0.394   2.404 -0.2947 -0.0449  0.0561
 1255SOL    HW2 5066   1.013   0.438   2.362 -0.8702  0.7884 -0.0981
 1255SOL    HW3 5067   0.862   0.424   2.356 -0.7627 -0.7130  0.3752
 1255SOL    MW4 5068   0.939   0.404   2.392 -0.4324 -0.0231  0.0780
 1256SOL     OW 5069   1.131   0.541   2.271 -0.4041 -0.1139  0.1887
 1256SOL    HW2 5070   1.211   0.495   2.295 -0.5693 -0.6769 -0.3315
 1256SOL    HW3 5071   1.137   0.554   2.176 -0.7470  0.1913  0.2054
 1256SOL    MW4 5072   1.142   0.537   2.262 -0.4712 -0.1478  0.1223
 1257SOL     OW 5073   1.108   0.790   2.401 -0.0080  0.2292 -0.2814
 1257SOL    HW2 5074   1.036   0.843   2.367 -1.1562  0.0401  1.7556
 1257SOL    HW3 5075   1.093   0.702   2.367  0.1518  0.5290 -1.1328
 1257SOL    MW4 5076   1.097   0.786   2.392 -0.1384  0.2438 -0.1247
 1258SOL     OW 5077   0.900   0.928   2.298  0.1832 -0.2749  0.4852
 1258SOL    HW2 5078   0.906   1.010   2.348  0.1481 -1.1418  1.9268
 1258SOL    HW3 5079   0.827   0.881   2.336 -0.0887 -0.7922 -0.6475
 1258SOL    MW4 5080   0.891   0.933   2.309  0.1426 -0.4575  0.5260
 1259SOL     OW 5081   0.892   1.191   2.403 -0.0113 -0.2228 -0.8192
 1259SOL    HW2 5082   0.961   1.253   2.377 -1.0816  1.0630 -0.6575
 1259SOL    HW3 5083   0.816   1.216   2.350 -0.4310 -1.4599 -0.8062
 1259SOL    MW4 5084   0.891   1.203   2.393 -0.2079 -0.2162 -0.7958
 1260SOL     OW 5085   1.117   1.303   2.298 -0.0539 -0.0030  0.3189
 1260SOL    HW2 5086   1.194   1.250   2.317 -0.5694 -1.0332 -0.3764
 1260SOL    HW3 5087   1.109   1.300   2.202  0.2660  1.8666  0.2121
 1260SOL    MW4 5088   1.126   1.295   2.288 -0.0796  0.1078  0.2129
 1261SOL     OW 5089   1.111   1.567   2.362 -0.0786  0.3473 -0.5639
 1261SOL    HW2 5090   1.027   1.603   2.334 -0.8195 -1.5280 -0.8438
 1261SOL    HW3 5091   1.109   1.475   2.332  0.9169 -0.4850  1.8211
 1261SOL    MW4 5092   1.100   1.559   2.354 -0.0451 -0.0100 -0.2863
 1262SOL     OW 5093   0.882   1.688   2.274 -0.3907  0.3107 -0.2028
 1262SOL    HW2 5094   0.902   1.781   2.287 -0.9904  0.2471  1.2971
 1262SOL    HW3 5095   0.863   1.680   2.181 -0.2112  1.6790 -0.3655
 1262SOL    MW4 5096   0.882   1.699   2.264 -0.4461  0.4827 -0.0262
 1263SOL     OW 5097   0.925   1.955   2.324 -0.3516  0.2809 -0.5941
 1263SOL    HW2 5098   0.911   1.960   2.419 -0.2121 -0.9006 -0.5049
 1263SOL    HW3 5099   1.004   2.008   2.309  0.0858 -0.1753  0.0606
 1263SOL    MW4 5100   0.934   1.963   2.335 -0.2756  0.0647 -0.4959
 1264SOL     OW 5101   1.166   2.064   2.268  0.1771  0.2066 -0.1479
 1264SOL    HW2 5102   1.247   2.018   2.289  2.4393  3.2735 -1.7537
 1264SOL    HW3 5103   1.163   2.065   2.172 -0.5412  2.0319 -0.1406
 1264SOL    MW4 5104   1.176   2.058   2.258  0.3808  0.8519 -0.3588
 1265SOL     OW 5105   1.110   2.338   2.306 -0.1168 -0.3162 -0.5113
 1265SOL    HW2 5106   1.196   2.372   2.280 -0.2123  0.2893 -0.0314
 1265SOL    HW3 5107   1.115   2.244   2.288  0.9407 -0.4227  0.3183
 1265SOL    MW4 5108   1.122   2.330   2.300  0.0101 -0.2503 -0.3388
 1266SOL     OW 5109   0.867   2.460   2.237  0.1082  0.2701 -0.1427
 1266SOL    HW2 5110   0.942   2.415   2.277 -0.2879 -0.0682  0.2278
 1266SOL    HW3 5111   0.867   2.431   2.146 -0.1096 -0.4449  0.0795
 1266SOL    MW4 5112   0.877   2.450   2.230  0.0272  0.1314 -0.0646
 1267SOL     OW 5113   0.901   2.710   2.332  0.3381  0.3654 -0.3975
 1267SOL    HW2 5114   0.898   2.697   2.427  0.8222  0.3675 -0.3828
 1267SOL    HW3 5115   0.869   2.627   2.295  1.2608 -0.0593 -0.2549
 1267SOL    MW4 5116   0.896   2.697   2.339  0.5237  0.3097 -0.3765
 1268SOL     OW 5117   1.118   2.849   2.273 -0.1467  0.0690  0.5141
 1268SOL    HW2 5118   1.193   2.801   2.310  0.3508  0.9480  0.6504
 1268SOL    HW3 5119   1.044   2.789   2.283  0.5580 -0.8580  0.2768
 1268SOL    MW4 5120   1.118   2.835   2.279  0.0120  0.0629  0.5009
 1269SOL     OW 5121   1.140   3.107   2.329 -0.2744 -0.2459 -0.5644
 1269SOL    HW2 5122   1.065   3.146   2.285  0.0640  0.1710 -0.7698
 1269SOL    HW3 5123   1.140   3.016   2.301 -1.4982 -0.5831  0.4870
 1269SOL    MW4 5124   1.130   3.100   2.320 -0.3914 -0.2351 -0.4530
 1270SOL     OW 5125   0.899   3.198   2.219  0.0005 -0.4130  0.3446
 1270SOL    HW2 5126   0.891   3.288   2.250  0.0552 -0.6307  1.0009
 1270SOL    HW3 5127   0.820   3.154   2.253 -0.8024 -0.2483 -1.2501
 1270SOL    MW4 5128   0.887   3.204   2.227 -0.0982 -0.4201  0.2210
 1271SOL     OW 5129   0.882   3.453   2.316 -0.4492  0.2381 -0.0488
 1271SOL    HW2 5130   0.897   3.464   2.410  1.7626  0.0042 -0.3580
 1271SOL    HW3 5131   0.794   3.488   2.302  0.0934  2.4682  1.7326
 1271SOL    MW4 5132   0.872   3.459   2.327 -0.0858  0.5016  0.1454
 1272SOL     OW 5133   1.095   3.621   2.210 -0.0098  0.2319  0.1703
 1272SOL    HW2 5134   1.167   3.570   2.247 -0.1350 -0.9587 -1.1906
 1272SOL    HW3 5135   1.016   3.574   2.237 -0.1424 -0.1129 -0.8059
 1272SOL    MW4 5136   1.094   3.608   2.219 -0.0437  0.0293 -0.1378
 1273SOL     OW 5137   1.161   3.855   2.329  0.2133 -0.2791 -0.0846
 1273SOL    HW2 5138   1.218   3.914   2.280 -0.7506  0.4831 -0.2789
 1273SOL    HW3 5139   1.158   3.775   2.275 -0.6707  0.4779 -1.1777
 1273SOL    MW4 5140   1.168   3.852   2.315 -0.0305 -0.0789 -0.2546
 1274SOL     OW 5141   0.933   4.018   2.236 -0.6442 -0.2789 -0.3237
 1274SOL    HW2 5142   1.018   3.983   2.264 -0.0197  0.6288 -1.0691
 1274SOL    HW3 5143   0.869   3.959   2.276  0.3669 -1.8107 -0.9387
 1274SOL    MW4 5144   0.935   4.006   2.245 -0.4283 -0.3614 -0.5035
 1275SOL     OW 5145   0.877   4.255   2.382  0.0642  0.6605  0.2667
 1275SOL    HW2 5146   0.899   4.179   2.328 -0.3252  0.4152  0.4476
 1275SOL    HW3 5147   0.797   4.289   2.342 -0.1805  0.5238  0.6395
 1275SOL    MW4 5148   0.869   4.249   2.369 -0.0194  0.6099  0.3395
 1276SOL     OW 5149   1.102   4.402   2.299 -0.4287 -0.1844  0.4117
 1276SOL    HW2 5150   1.015   4.370   2.323 -0.7159 -0.0264 -0.4057
 1276SOL    HW3 5151   1.101   4.495   2.324 -0.0868 -0.4638  1.4766
 1276SOL    MW4 5152   1.090   4.410   2.306 -0.4214 -0.2003  0.4439
 1277SOL     OW 5153   1.558   4.652   2.390 -0.0133  0.6818  0.6238
 1277SOL    HW2 5154   1.618   4.716   2.354 -0.3093  0.1162 -0.9331
 1277SOL    HW3 5155   1.471   4.687   2.371 -0.1784 -0.2763 -0.4677
 1277SOL    MW4 5156   1.554   4.665   2.383 -0.0743  0.4807  0.2744
 1278SOL     OW 5157   1.328   0.114   2.303 -0.4922  0.0001  0.2089
 1278SOL    HW2 5158   1.330   0.207   2.324 -0.7126 -0.1291  0.8181
 1278SOL    HW3 5159   1.248   0.082   2.345 -0.6371 -0.3782 -0.3513
 1278SOL    MW4 5160   1.318   0.122   2.311 -0.5405 -0.0668  0.2153
 1279SOL     OW 5161   1.340   0.397   2.357  0.0744 -0.2751  0.4782
 1279SOL    HW2 5162   1.338   0.381   2.451  1.4074  0.4000  0.6445
 1279SOL    HW3 5163   1.434   0.402   2.336 -0.2056 -0.5257 -0.8999
 1279SOL    MW4 5164   1.352   0.396   2.367  0.2133 -0.2191  0.3183
 1280SOL     OW 5165   1.611   0.448   2.285  0.3458  0.8682  0.2816
 1280SOL    HW2 5166   1.697   0.419   2.313  0.3630  0.1367 -0.4924
 1280SOL    HW3 5167   1.614   0.444   2.189 -1.0090 -0.5868  0.2749
 1280SOL    MW4 5168   1.622   0.443   2.276  0.1693  0.5797  0.1786
 1281SOL     OW 5169   1.543   0.739   2.319  0.2751 -0.0661 -0.0783
 1281SOL    HW2 5170   1.618   0.777   2.273  0.4329 -0.4651 -0.1540
 1281SOL    HW3 5171   1.555   0.645   2.310 -0.2022 -0.1326 -0.0355
 1281SOL    MW4 5172   1.554   0.732   2.312  0.2332 -0.1275 -0.0825
 1282SOL     OW 5173   1.322   0.894   2.244 -0.0209 -0.0425  0.5532
 1282SOL    HW2 5174   1.400   0.845   2.268  0.4025  0.2849 -0.1449
 1282SOL    HW3 5175   1.253   0.857   2.299  0.7014 -0.0571  1.4564
 1282SOL    MW4 5176   1.323   0.883   2.254  0.1303 -0.0012  0.5805
 1283SOL     OW 5177   1.348   1.154   2.366 -0.1402  0.4347 -0.6463
 1283SOL    HW2 5178   1.348   1.135   2.460  0.2795 -1.0811 -0.9515
 1283SOL    HW3 5179   1.335   1.069   2.324 -1.1685  1.2097 -1.9526
 1283SOL    MW4 5180   1.346   1.140   2.373 -0.2205  0.3370 -0.8588
 1284SOL     OW 5181   1.594   1.236   2.263 -0.0488 -0.2718 -0.2252
 1284SOL    HW2 5182   1.514   1.189   2.284  0.2231 -1.3155 -1.4026
 1284SOL    HW3 5183   1.581   1.265   2.172  0.1821  1.0947  0.1728
 1284SOL    MW4 5184   1.582   1.234   2.254  0.0175 -0.2292 -0.3281
 1285SOL     OW 5185   1.578   1.518   2.373 -0.1802 -0.2929 -0.4759
 1285SOL    HW2 5186   1.664   1.546   2.341  0.5427 -1.7276  0.1809
 1285SOL    HW3 5187   1.573   1.426   2.350 -0.6089 -0.7738  1.4551
 1285SOL    MW4 5188   1.589   1.510   2.366 -0.1414 -0.5456 -0.1347
 1286SOL     OW 5189   1.359   1.673   2.252 -0.5655  0.2827  0.0664
 1286SOL    HW2 5190   1.425   1.615   2.291  0.6951 -0.6327 -3.2636
 1286SOL    HW3 5191   1.275   1.630   2.270  0.1380 -1.0659  0.1668
 1286SOL    MW4 5192   1.356   1.660   2.260 -0.3065 -0.0160 -0.3595
 1287SOL     OW 5193   1.390   1.927   2.354 -0.2126  0.0113 -0.0385
 1287SOL    HW2 5194   1.453   1.970   2.296 -0.9209  0.3974 -0.5357
 1287SOL    HW3 5195   1.391   1.835   2.327  1.0754 -0.2360  0.8167
 1287SOL    MW4 5196   1.399   1.920   2.343 -0.1361  0.0296  0.0086
 1288SOL     OW 5197   1.595   2.075   2.216 -0.2013  0.2115  0.0213
 1288SOL    HW2 5198   1.663   2.016   2.247  0.1101 -0.3479 -1.7252
 1288SOL    HW3 5199   1.590   2.060   2.122 -1.5210  1.5120 -0.1363
 1288SOL    MW4 5200   1.603   2.065   2.208 -0.3344  0.3092 -0.2298
 1289SOL     OW 5201   1.582   2.354   2.308 -0.0753  0.1376 -0.0395
 1289SOL    HW2 5202   1.584   2.341   2.403  0.3663  0.7760  0.0470
 1289SOL    HW3 5203   1.590   2.266   2.272 -0.7568 -0.1543  0.5179
 1289SOL    MW4 5204   1.584   2.341   2.316 -0.1069  0.1831  0.0453
 1290SOL     OW 5205   1.356   2.476   2.239 -0.0048 -1.1406 -0.2585
 1290SOL    HW2 5206   1.430   2.420   2.265  0.1993 -0.5242  0.5098
 1290SOL    HW3 5207   1.351   2.467   2.144  1.1959 -1.0174 -0.3385
 1290SOL    MW4 5208   1.365   2.467   2.230  0.1806 -1.0426 -0.1676
 1291SOL     OW 5209   1.327   2.714   2.390 -0.2466  0.4730  0.0701
 1291SOL    HW2 5210   1.407   2.765   2.381 -0.2969  0.4318 -0.6276
 1291SOL    HW3 5211   1.344   2.633   2.343  0.2303 -0.6416  2.1209
 1291SOL    MW4 5212   1.339   2.710   2.382 -0.1903  0.3207  0.2484
 1292SOL     OW 5213   1.543   2.835   2.285  0.6813 -0.4501 -0.3229
 1292SOL    HW2 5214   1.561   2.929   2.287 -0.2102 -0.2675 -0.3122
 1292SOL    HW3 5215   1.532   2.814   2.192 -1.3015 -0.0807 -0.2114
 1292SOL    MW4 5216   1.544   2.845   2.273  0.3021 -0.3774 -0.3068
 1293SOL     OW 5217   1.592   3.115   2.346  0.2456 -0.7074  0.2006
 1293SOL    HW2 5218   1.573   3.097   2.438  1.0144 -1.0561  0.3001
 1293SOL    HW3 5219   1.511   3.152   2.311  0.1824  0.1163  1.2007
 1293SOL    MW4 5220   1.579   3.117   2.354  0.3388 -0.6447  0.3457
 1294SOL     OW 5221   1.367   3.242   2.255 -0.0530 -0.3136  0.4829
 1294SOL    HW2 5222   1.284   3.200   2.276 -2.0082  2.5574 -1.1061
 1294SOL    HW3 5223   1.368   3.247   2.159  2.1423 -0.6426  0.4540
 1294SOL    MW4 5224   1.356   3.237   2.245 -0.0213  0.0217  0.2694
 1295SOL     OW 5225   1.304   3.491   2.347  0.3144  0.1003  0.4471
 1295SOL    HW2 5226   1.318   3.487   2.441  0.2810  0.6012  0.4769
 1295SOL    HW3 5227   1.317   3.401   2.316  0.9944  0.0608  0.8378
 1295SOL    MW4 5228   1.308   3.479   2.355  0.3997  0.1612  0.5026
 1296SOL     OW 5229   1.515   3.640   2.250 -0.0963  0.2608 -0.2117
 1296SOL    HW2 5230   1.503   3.729   2.283  0.1769  0.3297 -0.2916
 1296SOL    HW3 5231   1.435   3.594   2.274 -0.8881  0.9383 -1.5283
 1296SOL    MW4 5232   1.503   3.646   2.257 -0.1646  0.3593 -0.3960
 1297SOL     OW 5233   1.497   3.907   2.335 -0.0421  0.3656 -0.0488
 1297SOL    HW2 5234   1.513   3.879   2.425 -1.7858 -0.9707 -0.1408
 1297SOL    HW3 5235   1.584   3.924   2.299  0.7160  0.0264  1.6049
 1297SOL    MW4 5236   1.510   3.906   2.342 -0.1721  0.1447  0.1571
 1298SOL     OW 5237   1.302   4.039   2.188  0.0102 -0.0838 -0.0950
 1298SOL    HW2 5238   1.382   3.996   2.218  0.9325  1.6551  0.0231
 1298SOL    HW3 5239   1.301   4.025   2.094  0.2776 -0.4200 -0.0476
 1298SOL    MW4 5240   1.313   4.031   2.180  0.1670  0.1016 -0.0732
 1299SOL     OW 5241   1.343   4.272   2.339 -0.1495  0.2989  0.2692
 1299SOL    HW2 5242   1.330   4.201   2.275 -0.9934  0.7457 -0.0578
 1299SOL    HW3 5243   1.260   4.318   2.341  0.9925  2.5086 -0.9742
 1299SOL    MW4 5244   1.331   4.268   2.331 -0.1101  0.6490  0.0620
 1300SOL     OW 5245   1.535   4.426   2.239  0.0725 -0.1091  0.3077
 1300SOL    HW2 5246   1.477   4.374   2.294  1.2959 -0.1656  1.5788
 1300SOL    HW3 5247   1.547   4.508   2.287  0.7499  0.0478 -0.1165
 1300SOL    MW4 5248   1.529   4.430   2.252  0.3233 -0.0963  0.4191
 1301SOL     OW 5249   1.983   4.586   2.362  0.0056 -0.2089  0.0927
 1301SOL    HW2 5250   2.062   4.628   2.327 -0.1227  1.9985  2.3199
 1301SOL    HW3 5251   1.982   4.499   2.322  2.2527  0.6063 -1.8422
 1301SOL    MW4 5252   1.993   4.580   2.352  0.2851  0.1903  0.1314
 1302SOL     OW 5253   1.788   0.089   2.251 -0.3802  0.1909 -0.2988
 1302SOL    HW2 5254   1.808   0.173   2.291 -0.7472  0.1375 -0.0007
 1302SOL    HW3 5255   1.850   0.028   2.291 -1.2616 -0.0143  0.7802
 1302SOL    MW4 5256   1.799   0.092   2.262 -0.5449  0.1568 -0.1171
 1303SOL     OW 5257   1.840   0.333   2.365  0.3263 -0.5930  0.4160
 1303SOL    HW2 5258   1.831   0.321   2.459  0.3424 -1.1008  0.3519
 1303SOL    HW3 5259   1.923   0.381   2.356  0.5278 -0.8924  0.6379
 1303SOL    MW4 5260   1.850   0.338   2.376  0.3550 -0.6995  0.4365
 1304SOL     OW 5261   2.029   0.507   2.255  0.0472  0.0529 -0.3239
 1304SOL    HW2 5262   2.017   0.600   2.275 -1.2299 -0.0028 -0.8151
 1304SOL    HW3 5263   2.039   0.505   2.160  1.8402 -0.1379 -0.1524
 1304SOL    MW4 5264   2.029   0.519   2.245  0.1154  0.0204 -0.3660
 1305SOL     OW 5265   2.013   0.780   2.364 -0.3286 -0.0134 -0.5370
 1305SOL    HW2 5266   2.094   0.817   2.328  0.1541  0.3247  0.8519
 1305SOL    HW3 5267   1.944   0.813   2.307  0.4020  0.6674 -1.0331
 1305SOL    MW4 5268   2.014   0.789   2.352 -0.1688  0.1211 -0.4194
 1306SOL     OW 5269   1.791   0.856   2.243 -0.2194  0.0763  0.6148
 1306SOL    HW2 5270   1.806   0.939   2.288  1.4124  0.5659 -0.7901
 1306SOL    HW3 5271   1.791   0.879   2.150  0.4055 -1.5225  0.2097
 1306SOL    MW4 5272   1.793   0.870   2.236  0.0783 -0.0700  0.3757
 1307SOL     OW 5273   1.831   1.101   2.371 -0.6276  0.1653 -0.3177
 1307SOL    HW2 5274   1.899   1.167   2.359 -0.2288 -0.0838  0.5493
 1307SOL    HW3 5275   1.760   1.129   2.313  1.1884 -0.9840 -3.2194
 1307SOL    MW4 5276   1.830   1.113   2.361 -0.3355 -0.0193 -0.5860
 1308SOL     OW 5277   2.034   1.303   2.303 -0.2959 -0.4615  0.3757
 1308SOL    HW2 5278   2.040   1.390   2.343 -1.0360  0.4468 -1.4227
 1308SOL    HW3 5279   2.036   1.320   2.208  0.4382 -2.4747  0.0031
 1308SOL    MW4 5280   2.035   1.317   2.295 -0.2966 -0.6074  0.0894
 1309SOL     OW 5281   2.044   1.555   2.408 -0.3242 -0.0354 -0.0216
 1309SOL    HW2 5282   2.034   1.567   2.502 -0.9387 -0.2738 -0.0517
 1309SOL    HW3 5283   1.958   1.576   2.372 -0.0847  0.0827 -0.5315
 1309SOL    MW4 5284   2.032   1.559   2.416 -0.3736 -0.0513 -0.0927
 1310SOL     OW 5285   1.809   1.638   2.280  0.0391  0.5965  0.1150
 1310SOL    HW2 5286   1.800   1.727   2.314 -0.5061 -0.1438  1.9835
 1310SOL    HW3 5287   1.812   1.648   2.185  2.6960  2.8588  0.3781
 1310SOL    MW4 5288   1.808   1.651   2.272  0.3177  0.7974  0.3965
 1311SOL     OW 5289   1.810   1.923   2.336 -0.0702 -0.1462 -0.0639
 1311SOL    HW2 5290   1.809   1.923   2.432 -0.1610  0.8155 -0.0580
 1311SOL    HW3 5291   1.881   1.982   2.313 -0.4587  0.1246 -0.5833
 1311SOL    MW4 5292   1.819   1.931   2.346 -0.1334  0.0165 -0.1314
 1312SOL     OW 5293   2.035   2.086   2.239 -0.0460 -0.1417  0.2405
 1312SOL    HW2 5294   2.101   2.021   2.263 -1.6153 -1.7330  0.3039
 1312SOL    HW3 5295   2.032   2.083   2.143  0.4504  0.4455  0.1971
 1312SOL    MW4 5296   2.043   2.077   2.230 -0.1879 -0.2742  0.2429
 1313SOL     OW 5297   2.058   2.335   2.389  0.1077 -0.0054  0.0010
 1313SOL    HW2 5298   1.979   2.380   2.360 -0.8040 -0.9619  0.9849
 1313SOL    HW3 5299   2.074   2.268   2.323  1.2119  1.4156 -1.2255
 1313SOL    MW4 5300   2.050   2.332   2.377  0.1330  0.0560 -0.0310
 1314SOL     OW 5301   1.832   2.461   2.298  0.3584 -0.1143  0.1198
 1314SOL    HW2 5302   1.824   2.556   2.299  0.6892 -0.1010  1.5257
 1314SOL    HW3 5303   1.742   2.429   2.297  0.2265  0.1977  1.4915
 1314SOL    MW4 5304   1.819   2.469   2.298  0.3847 -0.0715  0.4861
 1315SOL     OW 5305   1.792   2.729   2.331  0.4002  0.6169  0.3084
 1315SOL    HW2 5306   1.704   2.765   2.316 -0.2985 -0.8134  0.9287
 1315SOL    HW3 5307   1.792   2.704   2.423  1.3988  0.4165  0.2520
 1315SOL    MW4 5308   1.780   2.730   2.341  0.4398  0.4015  0.3827
 1316SOL     OW 5309   2.028   2.867   2.240 -0.1208  0.0567 -0.5880
 1316SOL    HW2 5310   2.104   2.817   2.272  0.2188 -0.6148 -2.4255
 1316SOL    HW3 5311   1.952   2.817   2.271  0.1706  0.3190  0.5978
 1316SOL    MW4 5312   2.028   2.854   2.249 -0.0377  0.0026 -0.6740
 1317SOL     OW 5313   2.014   3.130   2.353 -0.0504 -0.4198  0.1511
 1317SOL    HW2 5314   2.085   3.173   2.305 -1.3571  0.5128 -0.9733
 1317SOL    HW3 5315   2.008   3.043   2.313 -0.3936 -0.0433 -0.6101
 1317SOL    MW4 5316   2.022   3.124   2.341 -0.2682 -0.2472 -0.0975
 1318SOL     OW 5317   1.793   3.270   2.238 -0.0784  0.0017 -0.0424
 1318SOL    HW2 5318   1.865   3.250   2.299 -0.3619  2.4642  1.1845
 1318SOL    HW3 5319   1.720   3.217   2.269  0.4402 -0.4768  0.3727
 1318SOL    MW4 5320   1.793   3.261   2.250 -0.0474  0.2635  0.1740
 1319SOL     OW 5321   1.735   3.499   2.362  0.5975 -0.5566 -0.2283
 1319SOL    HW2 5322   1.656   3.540   2.328  1.0455 -0.0476 -0.6585
 1319SOL    HW3 5323   1.742   3.416   2.316  1.2669  0.1790 -1.4852
 1319SOL    MW4 5324   1.726   3.493   2.352  0.7449 -0.3924 -0.4511
 1320SOL     OW 5325   1.968   3.650   2.272  0.1901  0.1014 -0.0880
 1320SOL    HW2 5326   1.900   3.590   2.304 -0.0907  0.3584 -0.2062
 1320SOL    HW3 5327   1.967   3.639   2.177 -0.7359  1.2292 -0.2134
 1320SOL    MW4 5328   1.958   3.640   2.264  0.0309  0.2840 -0.1204
 1321SOL     OW 5329   1.978   3.914   2.368 -0.4032 -0.2969 -0.2543
 1321SOL    HW2 5330   1.981   3.912   2.464 -0.1726  0.1443 -0.2503
 1321SOL    HW3 5331   1.977   3.822   2.342  0.2740 -0.4166  0.1473
 1321SOL    MW4 5332   1.978   3.902   2.377 -0.2834 -0.2544 -0.2007
 1322SOL     OW 5333   1.740   3.998   2.240 -0.1415 -0.3915 -0.2856
 1322SOL    HW2 5334   1.821   3.951   2.258 -0.6819 -0.8798  0.9603
 1322SOL    HW3 5335   1.745   4.021   2.148  1.3645 -0.5037 -0.2323
 1322SOL    MW4 5336   1.751   3.995   2.230 -0.0141 -0.4706 -0.1140
 1323SOL     OW 5337   1.781   4.253   2.358 -0.0894 -0.1655  0.1061
 1323SOL    HW2 5338   1.767   4.162   2.331 -0.1480  0.2527 -1.3022
 1323SOL    HW3 5339   1.705   4.300   2.324  0.1550  0.4926  0.4585
 1323SOL    MW4 5340   1.769   4.247   2.350 -0.0650 -0.0234 -0.0331
 1324SOL     OW 5341   2.021   4.348   2.248 -0.3941  0.0471  0.2949
 1324SOL    HW2 5342   1.939   4.311   2.282  0.3251 -0.6736  1.3149
 1324SOL    HW3 5343   2.007   4.356   2.154 -1.4708 -0.4977  0.3993
 1324SOL    MW4 5344   2.009   4.344   2.240 -0.4413 -0.1197  0.4435
 1325SOL     OW 5345   2.459   4.639   2.345 -0.5892 -0.1429  0.1111
 1325SOL    HW2 5346   2.529   4.688   2.303 -0.2100  0.1294  1.0696
 1325SOL    HW3 5347   2.464   4.551   2.306  0.6947 -0.3136  0.6533
 1325SOL    MW4 5348   2.469   4.634   2.334 -0.3700 -0.1292  0.3095
 1326SOL     OW 5349   2.212   0.070   2.282  0.6283 -0.4259  0.0214
 1326SOL    HW2 5350   2.211   0.160   2.312 -0.4807 -0.3087 -0.3530
 1326SOL    HW3 5351   2.295   0.034   2.315  0.3641  0.2796  1.4519
 1326SOL    MW4 5352   2.223   0.077   2.290  0.4473 -0.3173  0.1609
 1327SOL     OW 5353   2.245   0.336   2.362 -0.3547 -0.5333 -0.0199
 1327SOL    HW2 5354   2.328   0.371   2.330 -0.2411  1.4468  2.3323
 1327SOL    HW3 5355   2.179   0.397   2.329 -0.7923 -1.4802 -0.9318
 1327SOL    MW4 5356   2.248   0.348   2.353 -0.3972 -0.3970  0.1702
 1328SOL     OW 5357   2.453   0.490   2.291  0.2052 -0.2246 -0.0894
 1328SOL    HW2 5358   2.531   0.439   2.314  0.0378  0.1232  1.3224
 1328SOL    HW3 5359   2.461   0.504   2.197  1.4627 -0.8406 -0.0972
 1328SOL    MW4 5360   2.465   0.485   2.282  0.3490 -0.2600  0.0961
 1329SOL     OW 5361   2.442   0.758   2.395 -0.0794 -0.0384 -0.6156
 1329SOL    HW2 5362   2.529   0.787   2.367  0.3524 -0.0857  0.6445
 1329SOL    HW3 5363   2.434   0.669   2.361  0.6852 -0.3185 -0.0675
 1329SOL    MW4 5364   2.452   0.750   2.387  0.0782 -0.0817 -0.3769
 1330SOL     OW 5365   2.244   0.901   2.256  0.2194 -0.5635 -0.6025
 1330SOL    HW2 5366   2.247   0.996   2.267 -0.5881 -0.5732 -0.2439
 1330SOL    HW3 5367   2.309   0.867   2.317 -0.9653 -0.3525  0.8053
 1330SOL    MW4 5368   2.253   0.909   2.266 -0.0432 -0.5370 -0.3695
 1331SOL     OW 5369   2.284   1.150   2.339  0.1125 -0.1509 -0.3314
 1331SOL    HW2 5370   2.350   1.208   2.300  0.4674  1.2300  2.1607
 1331SOL    HW3 5371   2.201   1.195   2.324  0.0845 -0.3700 -0.8221
 1331SOL    MW4 5372   2.281   1.164   2.332  0.1554  0.0024 -0.0672
 1332SOL     OW 5373   2.482   1.525   2.388  0.0860  0.1949  0.4337
 1332SOL    HW2 5374   2.564   1.559   2.351  1.0144 -1.4645  0.9114
 1332SOL    HW3 5375   2.494   1.531   2.483  0.2318 -1.3717  0.5212
 1332SOL    MW4 5376   2.494   1.530   2.395  0.2275 -0.2307  0.5085
 1333SOL     OW 5377   2.269   1.681   2.312 -0.1548 -0.4766  0.2014
 1333SOL    HW2 5378   2.196   1.641   2.359  0.7386 -0.6972  1.4465
 1333SOL    HW3 5379   2.343   1.622   2.329  1.4326  2.1367  2.8418
 1333SOL    MW4 5380   2.269   1.668   2.321  0.1724 -0.1609  0.7143
 1334SOL     OW 5381   2.266   1.665   2.022  0.1125 -0.1993  0.0259
 1334SOL    HW2 5382   2.250   1.650   2.115  0.2160 -0.1662  0.0495
 1334SOL    HW3 5383   2.191   1.625   1.978  0.6952 -1.3467  0.0492
 1334SOL    MW4 5384   2.254   1.658   2.029  0.2031 -0.3463  0.0319
 1335SOL     OW 5385   2.245   1.942   2.385  0.0742  0.0971  0.3177
 1335SOL    HW2 5386   2.317   1.986   2.342 -1.2913  0.5989 -1.4982
 1335SOL    HW3 5387   2.247   1.852   2.350 -1.2394  0.5969 -1.1009
 1335SOL    MW4 5388   2.255   1.936   2.375 -0.2794  0.2292 -0.1092
 1336SOL     OW 5389   2.487   2.057   2.263  0.2039 -0.1065  0.3800
 1336SOL    HW2 5390   2.572   2.017   2.278  0.6162  0.5512 -0.1303
 1336SOL    HW3 5391   2.470   2.043   2.170 -0.5407 -0.7970  0.6221
 1336SOL    MW4 5392   2.496   2.050   2.253  0.1602 -0.1109  0.3445
 1337SOL     OW 5393   2.516   2.322   2.348  0.1505  0.5530  0.1608
 1337SOL    HW2 5394   2.581   2.369   2.296  0.4199  0.3374  0.2979
 1337SOL    HW3 5395   2.508   2.236   2.306  0.0816  0.5173  0.2441
 1337SOL    MW4 5396   2.524   2.317   2.336  0.1771  0.5200  0.1898
 1338SOL     OW 5397   2.269   2.496   2.277  0.1305  0.2620  0.4655
 1338SOL    HW2 5398   2.203   2.460   2.336  1.5704 -0.5525  1.5989
 1338SOL    HW3 5399   2.345   2.439   2.288  0.8181  0.8205 -1.2850
 1338SOL    MW4 5400   2.270   2.484   2.286  0.4113  0.2282  0.3841
 1339SOL     OW 5401   2.264   2.759   2.323 -0.6209  0.2827 -0.0184
 1339SOL    HW2 5402   2.274   2.671   2.289 -0.8753  0.7214 -1.2515
 1339SOL    HW3 5403   2.253   2.747   2.417 -0.4314 -0.9783 -0.1471
 1339SOL    MW4 5404   2.264   2.746   2.331 -0.6294  0.1743 -0.1981
 1340SOL     OW 5405   2.504   2.902   2.270  0.4098 -0.0146 -0.6412
 1340SOL    HW2 5406   2.564   2.838   2.309  0.1055 -0.3356 -0.6916
 1340SOL    HW3 5407   2.417   2.870   2.294  0.3093  1.5419  1.1177
 1340SOL    MW4 5408   2.501   2.889   2.278  0.3564  0.1483 -0.4158
 1341SOL     OW 5409   2.470   3.162   2.359 -0.5044 -0.3132 -0.4002
 1341SOL    HW2 5410   2.552   3.207   2.341 -1.0304  0.3109 -1.2900
 1341SOL    HW3 5411   2.486   3.071   2.335 -0.2096 -0.1014 -1.0215
 1341SOL    MW4 5412   2.483   3.156   2.353 -0.5348 -0.2031 -0.5996
 1342SOL     OW 5413   2.238   3.254   2.243 -0.1211  0.1850 -0.2107
 1342SOL    HW2 5414   2.235   3.342   2.280 -1.1347 -0.2636  0.8052
 1342SOL    HW3 5415   2.325   3.221   2.266  0.7142  1.3491 -1.6410
 1342SOL    MW4 5416   2.249   3.261   2.251 -0.1445  0.2794 -0.2651
 1343SOL     OW 5417   2.197   3.524   2.311 -0.2150 -0.2448  0.1894
 1343SOL    HW2 5418   2.198   3.511   2.406  0.9859  0.5504  0.2895
 1343SOL    HW3 5419   2.115   3.569   2.293  0.2084  0.8667  1.0253
 1343SOL    MW4 5420   2.186   3.528   2.321 -0.0005  0.0067  0.3130
 1344SOL     OW 5421   2.442   3.652   2.282 -0.1029  0.0941 -0.4068
 1344SOL    HW2 5422   2.449   3.744   2.309 -0.7775 -0.1374  0.6181
 1344SOL    HW3 5423   2.349   3.631   2.293  0.2861 -1.1112  0.7434
 1344SOL    MW4 5424   2.430   3.661   2.287 -0.1409 -0.0954 -0.1199
 1345SOL     OW 5425   2.490   3.939   2.383 -0.2375  0.3501 -0.1209
 1345SOL    HW2 5426   2.465   3.894   2.464 -0.2237  2.8805  1.3269
 1345SOL    HW3 5427   2.409   3.982   2.354  0.1848  0.8988 -0.4926
 1345SOL    MW4 5428   2.476   3.938   2.389 -0.1800  0.7565  0.0212
 1346SOL     OW 5429   2.233   4.001   2.274 -0.0081 -0.3131  0.5270
 1346SOL    HW2 5430   2.238   4.095   2.290  0.8981 -0.4170  0.8690
 1346SOL    HW3 5431   2.146   3.976   2.305 -1.5199  0.9582 -2.4756
 1346SOL    MW4 5432   2.222   4.010   2.280 -0.0877 -0.1588  0.1760
 1347SOL     OW 5433   2.275   4.274   2.333  0.2071  0.5370  0.2623
 1347SOL    HW2 5434   2.279   4.276   2.429 -0.1225  0.6958  0.2709
 1347SOL    HW3 5435   2.185   4.299   2.312  0.2617  0.4368 -0.0870
 1347SOL    MW4 5436   2.264   4.278   2.343  0.1705  0.5450  0.2172
 1348SOL     OW 5437   2.487   4.399   2.216  0.1530  0.1465 -0.5090
 1348SOL    HW2 5438   2.558   4.354   2.262 -0.2675 -1.0924 -1.0408
 1348SOL    HW3 5439   2.409   4.349   2.239 -0.3689  0.7793 -0.8998
 1348SOL    MW4 5440   2.486   4.387   2.225  0.0288  0.0668 -0.6306
 1349SOL     OW 5441   2.931   4.655   2.366 -0.2165  0.1910 -0.5483
 1349SOL    HW2 5442   3.020   4.681   2.341  0.3077 -1.9883 -1.0208
 1349SOL    HW3 5443   2.923   4.565   2.336 -1.8332 -0.3654  1.4604
 1349SOL    MW4 5444   2.941   4.647   2.359 -0.3605 -0.1702 -0.3457
 1350SOL     OW 5445   2.693   0.103   2.256 -0.0187  0.1776  0.2307
 1350SOL    HW2 5446   2.671   0.186   2.299  1.7099  1.2937 -0.9677
 1350SOL    HW3 5447   2.772   0.073   2.301 -0.6189 -0.8135  0.6342
 1350SOL    MW4 5448   2.701   0.110   2.267  0.1299  0.1941  0.1256
 1351SOL     OW 5449   2.672   0.356   2.380 -0.6856 -0.1678  0.2909
 1351SOL    HW2 5450   2.686   0.372   2.474  1.2120 -0.1681  0.0232
 1351SOL    HW3 5451   2.741   0.405   2.336 -2.1005  0.5510 -1.1807
 1351SOL    MW4 5452   2.683   0.364   2.387 -0.6220 -0.0730  0.0613
 1352SOL     OW 5453   2.904   0.471   2.278 -0.2117 -0.0749  0.0604
 1352SOL    HW2 5454   2.922   0.560   2.309  1.3700  0.1306 -1.3194
 1352SOL    HW3 5455   2.908   0.478   2.182 -0.8218 -1.4827 -0.0860
 1352SOL    MW4 5456   2.907   0.484   2.269 -0.0834 -0.2335 -0.1411
 1353SOL     OW 5457   2.945   0.735   2.361  0.2708 -0.1327  0.4133
 1353SOL    HW2 5458   2.938   0.727   2.456 -1.2190 -3.6252  0.0643
 1353SOL    HW3 5459   2.856   0.753   2.332  0.3081 -1.4719 -0.5331
 1353SOL    MW4 5460   2.932   0.737   2.370  0.0794 -0.7702  0.2422
 1354SOL     OW 5461   2.695   0.847   2.285  0.1870  0.3225 -0.3336
 1354SOL    HW2 5462   2.701   0.939   2.311  1.3375  0.8157 -2.2928
 1354SOL    HW3 5463   2.693   0.849   2.190  1.1096 -1.7490 -0.4154
 1354SOL    MW4 5464   2.695   0.859   2.276  0.4606  0.1143 -0.6030
 1355SOL     OW 5465   2.683   1.151   2.366  0.0132  0.6874 -0.5342
 1355SOL    HW2 5466   2.694   1.153   2.461 -0.3427  0.1797 -0.4797
 1355SOL    HW3 5467   2.761   1.196   2.331  0.0679  1.0029 -0.0009
 1355SOL    MW4 5468   2.695   1.157   2.374 -0.0262  0.6620 -0.4566
 1356SOL     OW 5469   2.913   1.268   2.290 -0.2994 -0.2355 -0.1734
 1356SOL    HW2 5470   2.978   1.204   2.319 -0.0783 -0.2235 -0.6312
 1356SOL    HW3 5471   2.913   1.260   2.194 -0.8547 -0.1179 -0.1809
 1356SOL    MW4 5472   2.922   1.259   2.281 -0.3436 -0.2183 -0.2348
 1357SOL     OW 5473   2.903   1.526   2.389  0.0184 -0.2918  0.0929
 1357SOL    HW2 5474   2.892   1.507   2.483  3.1199 -0.6288  0.4686
 1357SOL    HW3 5475   2.913   1.440   2.349  0.5199 -0.0664 -0.2664
 1357SOL    MW4 5476   2.903   1.512   2.396  0.4938 -0.3065  0.0951
 1358SOL     OW 5477   2.699   1.678   2.288  0.0608  0.5773 -0.1755
 1358SOL    HW2 5478   2.781   1.631   2.305 -1.3260 -1.8416  0.0522
 1358SOL    HW3 5479   2.692   1.681   2.193  0.6379  1.1990 -0.1998
 1358SOL    MW4 5480   2.709   1.672   2.278 -0.0460  0.3401 -0.1485
 1359SOL     OW 5481   2.723   1.936   2.345 -0.0806 -0.4152  0.3196
 1359SOL    HW2 5482   2.721   1.943   2.441  0.0414 -0.8774  0.3570
 1359SOL    HW3 5483   2.712   1.842   2.328  1.2394 -0.5040 -0.0749
 1359SOL    MW4 5484   2.721   1.924   2.355  0.1097 -0.4879  0.2725
 1360SOL     OW 5485   2.938   2.062   2.221  0.3757  0.3504 -0.7938
 1360SOL    HW2 5486   3.012   2.022   2.266  1.5334  1.1429 -1.9848
 1360SOL    HW3 5487   2.861   2.018   2.258  1.4669 -0.9473 -0.0421
 1360SOL    MW4 5488   2.937   2.051   2.232  0.6723  0.2837 -0.8516
 1361SOL     OW 5489   2.963   2.332   2.306  0.1708  0.0478  0.0640
 1361SOL    HW2 5490   2.968   2.329   2.402  0.0310 -0.5957  0.0513
 1361SOL    HW3 5491   2.935   2.245   2.281 -2.0740  0.8885 -0.4380
 1361SOL    MW4 5492   2.960   2.320   2.316 -0.1438  0.0737 -0.0038
 1362SOL     OW 5493   2.727   2.471   2.229  0.1184  0.3553 -0.9474
 1362SOL    HW2 5494   2.810   2.426   2.246  0.2517  0.6829 -0.7172
 1362SOL    HW3 5495   2.722   2.479   2.134  0.2577  0.1612 -0.9700
 1362SOL    MW4 5496   2.737   2.466   2.219  0.1545  0.3731 -0.9203
 1363SOL     OW 5497   2.673   2.704   2.359  0.0752  0.2431 -0.3961
 1363SOL    HW2 5498   2.756   2.743   2.334 -0.9528  1.0220 -2.7015
 1363SOL    HW3 5499   2.676   2.615   2.325 -0.4981  0.6546 -1.5540
 1363SOL    MW4 5500   2.684   2.698   2.352 -0.1364  0.4003 -0.8533
 1364SOL     OW 5501   2.913   2.831   2.289  0.0559  0.6166 -0.2266
 1364SOL    HW2 5502   2.909   2.924   2.311 -0.0817  0.4749  0.3798
 1364SOL    HW3 5503   2.927   2.828   2.195 -0.9463  1.2545 -0.4067
 1364SOL    MW4 5504   2.914   2.843   2.280 -0.0944  0.6821 -0.1702
 1365SOL     OW 5505   2.903   3.083   2.359  0.3508 -0.1496 -0.3071
 1365SOL    HW2 5506   2.984   3.122   2.324 -0.9595  2.1724 -0.8999
 1365SOL    HW3 5507   2.835   3.148   2.340 -1.4946 -1.6039  1.0797
 1365SOL    MW4 5508   2.905   3.097   2.352 -0.0656 -0.0350 -0.2024
 1366SOL     OW 5509   2.718   3.264   2.265 -0.3144 -0.0337 -0.5667
 1366SOL    HW2 5510   2.734   3.356   2.286 -1.7990 -0.1717  1.3553
 1366SOL    HW3 5511   2.703   3.263   2.171 -0.0517  1.6648 -0.6358
 1366SOL    MW4 5512   2.718   3.276   2.255 -0.4756  0.1724 -0.3221
 1367SOL     OW 5513   2.680   3.528   2.377  0.6889 -0.6146  0.0522
 1367SOL    HW2 5514   2.756   3.575   2.342  0.2494  0.1264  0.0945
 1367SOL    HW3 5515   2.605   3.578   2.348  0.1988 -1.4043 -0.0677
 1367SOL    MW4 5516   2.680   3.541   2.369  0.5662 -0.6211  0.0420
 1368SOL     OW 5517   2.899   3.637   2.240 -0.1278  0.0343 -0.2491
 1368SOL    HW2 5518   2.967   3.593   2.291 -0.4677  0.0899  0.2556
 1368SOL    HW3 5519   2.911   3.730   2.261 -0.7553 -0.0107  0.3281
 1368SOL    MW4 5520   2.910   3.644   2.250 -0.2553  0.0360 -0.1063
 1369SOL     OW 5521   2.930   3.894   2.331 -0.5145 -0.0207 -0.1954
 1369SOL    HW2 5522   2.912   3.891   2.425 -0.0305 -1.3107 -0.1260
 1369SOL    HW3 5523   2.867   3.957   2.297 -0.6747  0.4909  0.9970
 1369SOL    MW4 5524   2.920   3.902   2.339 -0.4716 -0.1237 -0.0286
 1370SOL     OW 5525   2.717   4.047   2.251 -0.0266  0.2606 -0.1038
 1370SOL    HW2 5526   2.639   4.008   2.290  0.3831  0.3204  0.7982
 1370SOL    HW3 5527   2.710   4.027   2.158 -0.9715  0.0215  0.0151
 1370SOL    MW4 5528   2.706   4.039   2.244 -0.0973  0.2375  0.0308
 1371SOL     OW 5529   2.702   4.302   2.363 -0.4149 -0.0184 -0.3702
 1371SOL    HW2 5530   2.689   4.282   2.455 -1.2834 -0.5933 -0.6072
 1371SOL    HW3 5531   2.699   4.217   2.319  0.3785  0.2166 -0.8827
 1371SOL    MW4 5532   2.700   4.288   2.369 -0.4246 -0.0629 -0.4687
 1372SOL     OW 5533   2.943   4.374   2.241  0.4431 -0.2828  0.7123
 1372SOL    HW2 5534   3.022   4.351   2.290 -0.0114 -1.5406  0.8713
 1372SOL    HW3 5535   2.871   4.333   2.290 -0.1549 -0.4147 -0.2573
 1372SOL    MW4 5536   2.944   4.366   2.254  0.3045 -0.4663  0.6051
 1373SOL     OW 5537   3.359   4.635   2.336 -0.0918 -0.2249 -0.3170
 1373SOL    HW2 5538   3.364   4.641   2.431  1.0939  0.5896 -0.4245
 1373SOL    HW3 5539   3.429   4.691   2.304  0.5442 -1.7407 -1.6541
 1373SOL    MW4 5540   3.369   4.643   2.344  0.1488 -0.3181 -0.5076
 1374SOL     OW 5541   3.149   0.097   2.223  0.1961  0.7435 -0.0833
 1374SOL    HW2 5542   3.228   0.054   2.255  0.1277  0.3082 -0.4970
 1374SOL    HW3 5543   3.144   0.179   2.274 -0.0734 -0.0751  1.2381
 1374SOL    MW4 5544   3.159   0.102   2.234  0.1516  0.5781  0.0365
 1375SOL     OW 5545   3.136   0.320   2.384  0.5033 -0.2096 -0.8429
 1375SOL    HW2 5546   3.212   0.374   2.361 -0.3705  0.4705 -2.1908
 1375SOL    HW3 5547   3.061   0.368   2.348 -0.6631 -0.4041  1.2387
 1375SOL    MW4 5548   3.136   0.334   2.376  0.2339 -0.1455 -0.7460
 1376SOL     OW 5549   3.360   0.468   2.309  0.2881  0.2236  0.0229
 1376SOL    HW2 5550   3.439   0.424   2.342  0.1799 -0.3083 -0.4275
 1376SOL    HW3 5551   3.381   0.490   2.219 -0.1484 -0.0822 -0.1532
 1376SOL    MW4 5552   3.373   0.465   2.302  0.2162  0.1131 -0.0596
 1377SOL     OW 5553   3.383   0.754   2.392 -0.2555 -0.7039  0.5375
 1377SOL    HW2 5554   3.451   0.804   2.347 -0.1004 -0.0688  1.4601
 1377SOL    HW3 5555   3.393   0.664   2.359  0.3787 -0.4121 -0.0691
 1377SOL    MW4 5556   3.393   0.749   2.382 -0.1516 -0.5816  0.5794
 1378SOL     OW 5557   3.168   0.857   2.265  0.1645 -0.1863 -0.4448
 1378SOL    HW2 5558   3.237   0.814   2.315 -0.5350 -0.5403  0.2238
 1378SOL    HW3 5559   3.087   0.815   2.294 -0.3112  0.0109 -1.4435
 1378SOL    MW4 5560   3.166   0.846   2.275  0.0095 -0.2071 -0.4885
 1379SOL     OW 5561   3.144   1.111   2.395 -0.9549 -0.0511  0.3152
 1379SOL    HW2 5562   3.205   1.169   2.349 -1.3664 -0.1732 -0.3985
 1379SOL    HW3 5563   3.152   1.027   2.349  0.9091 -1.0906  2.4013
 1379SOL    MW4 5564   3.153   1.107   2.383 -0.7632 -0.2043  0.4964
 1380SOL     OW 5565   3.335   1.278   2.275 -0.3289 -0.8853  0.1499
 1380SOL    HW2 5566   3.421   1.247   2.303  1.4851  0.4040 -3.6246
 1380SOL    HW3 5567   3.335   1.371   2.300 -0.3860 -0.7459 -0.3739
 1380SOL    MW4 5568   3.346   1.286   2.282 -0.0968 -0.6969 -0.4172
 1381SOL     OW 5569   3.342   1.537   2.371  0.1110 -0.0819  0.0960
 1381SOL    HW2 5570   3.350   1.541   2.466 -1.0966  1.5553  0.1252
 1381SOL    HW3 5571   3.265   1.588   2.350  0.6677  0.0168 -1.8256
 1381SOL    MW4 5572   3.333   1.544   2.381  0.0250  0.1472 -0.1538
 1382SOL     OW 5573   3.117   1.680   2.290  0.0759  0.2878 -0.0816
 1382SOL    HW2 5574   3.126   1.770   2.321  0.2828  0.4617 -0.6292
 1382SOL    HW3 5575   3.041   1.646   2.336 -1.0399  1.2948 -1.1435
 1382SOL    MW4 5576   3.109   1.687   2.300 -0.0439  0.4435 -0.2937
 1383SOL     OW 5577   3.127   1.926   2.380 -0.1674 -0.6940 -0.1700
 1383SOL    HW2 5578   3.126   1.923   2.476 -1.1783  0.1564 -0.1379
 1383SOL    HW3 5579   3.210   1.969   2.359 -0.3924  0.0177  0.3630
 1383SOL    MW4 5580   3.138   1.932   2.390 -0.3302 -0.4878 -0.0956
 1384SOL     OW 5581   3.371   2.040   2.314  0.3768 -0.2468 -0.8556
 1384SOL    HW2 5582   3.443   1.977   2.319  0.0020 -0.5430  1.7373
 1384SOL    HW3 5583   3.355   2.052   2.221  2.2746 -1.9094 -1.4184
 1384SOL    MW4 5584   3.379   2.034   2.302  0.5774 -0.5052 -0.5875
 1385SOL     OW 5585   3.416   2.330   2.390  0.5720  0.1887  0.0835
 1385SOL    HW2 5586   3.332   2.364   2.359  0.6426  0.5515  0.2851
 1385SOL    HW3 5587   3.414   2.237   2.368  0.7037  0.4749 -1.1727
 1385SOL    MW4 5588   3.405   2.322   2.383  0.5989  0.2739 -0.0558
 1386SOL     OW 5589   3.208   2.449   2.241  0.0268  0.3675 -0.2630
 1386SOL    HW2 5590   3.188   2.527   2.293  0.9997  1.1103 -0.9906
 1386SOL    HW3 5591   3.137   2.387   2.262 -0.7460  1.4372  0.3204
 1386SOL    MW4 5592   3.196   2.451   2.250  0.0529  0.6065 -0.2820
 1387SOL     OW 5593   3.171   2.707   2.376 -0.4510 -0.1656  0.1190
 1387SOL    HW2 5594   3.168   2.713   2.472 -1.2658  0.6049  0.0560
 1387SOL    HW3 5595   3.088   2.744   2.348 -0.0088  0.0446 -0.9130
 1387SOL    MW4 5596   3.160   2.713   2.385 -0.5002 -0.0365 -0.0257
 1388SOL     OW 5597   3.392   2.831   2.276  0.3996 -0.2842  0.2158
 1388SOL    HW2 5598   3.385   2.921   2.309  0.5138 -0.1934 -0.0038
 1388SOL    HW3 5599   3.318   2.785   2.316 -0.1638  0.1221 -0.3569
 1388SOL    MW4 5600   3.382   2.837   2.286  0.3405 -0.2189  0.1116
 1389SOL     OW 5601   3.410   3.082   2.366  0.0800 -0.2157  0.2439
 1389SOL    HW2 5602   3.477   3.127   2.314  0.7913  0.3016  1.6007
 1389SOL    HW3 5603   3.328   3.126   2.343  0.3230 -0.2798 -0.7637
 1389SOL    MW4 5604   3.408   3.094   2.356  0.2058 -0.1562  0.2899
 1390SOL     OW 5605   3.149   3.209   2.284 -0.0227 -0.1749  0.5074
 1390SOL    HW2 5606   3.130   3.299   2.311 -1.2111 -0.3338  0.2120
 1390SOL    HW3 5607   3.160   3.215   2.189 -0.4000 -0.3948  0.4514
 1390SOL    MW4 5608   3.148   3.222   2.275 -0.2294 -0.2248  0.4611
 1391SOL     OW 5609   3.117   3.492   2.386  0.2680  0.8723 -0.1869
 1391SOL    HW2 5610   3.138   3.502   2.479  0.0899  0.3254 -0.0847
 1391SOL    HW3 5611   3.194   3.524   2.340 -0.1779  2.4242  0.1269
 1391SOL    MW4 5612   3.130   3.497   2.392  0.1857  1.0052 -0.1323
 1392SOL     OW 5613   3.354   3.614   2.244  0.4137 -0.8146 -0.4906
 1392SOL    HW2 5614   3.429   3.570   2.284  1.7539  2.8233  1.2601
 1392SOL    HW3 5615   3.366   3.603   2.150  2.9520 -0.6234 -0.2129
 1392SOL    MW4 5616   3.365   3.607   2.237  0.9255 -0.3097 -0.2229
 1393SOL     OW 5617   3.383   3.858   2.394 -0.1363  0.3552 -0.2171
 1393SOL    HW2 5618   3.451   3.911   2.352  0.1264 -0.1701 -0.4489
 1393SOL    HW3 5619   3.369   3.784   2.335 -0.8330  0.4010 -0.1143
 1393SOL    MW4 5620   3.390   3.855   2.381 -0.1934  0.2918 -0.2341
 1394SOL     OW 5621   3.181   4.014   2.301  0.1522  0.0361  0.3742
 1394SOL    HW2 5622   3.243   3.953   2.341  1.2768  2.0380  1.7817
 1394SOL    HW3 5623   3.097   3.970   2.306  0.4742 -0.2969  3.8446
 1394SOL    MW4 5624   3.178   4.001   2.307  0.3428  0.2561  1.0180
 1395SOL     OW 5625   3.152   4.274   2.383  0.2880 -0.1879  0.6306
 1395SOL    HW2 5626   3.236   4.315   2.362  1.1019 -2.0921  0.1336
 1395SOL    HW3 5627   3.163   4.183   2.358 -1.6636 -0.6254  1.3346
 1395SOL    MW4 5628   3.165   4.268   2.377  0.1380 -0.4973  0.6580
 1396SOL     OW 5629   3.379   4.372   2.255  0.1084 -0.2767  0.3561
 1396SOL    HW2 5630   3.382   4.464   2.279  1.0022 -0.1826 -0.0885
 1396SOL    HW3 5631   3.392   4.372   2.160 -1.0657 -0.7852  0.1885
 1396SOL    MW4 5632   3.381   4.384   2.245  0.0713 -0.3319  0.2751
 1397SOL     OW 5633   3.776   4.655   2.357  0.4201  0.3616 -0.1671
 1397SOL    HW2 5634   3.802   4.652   2.449  0.1000 -1.3288 -0.1175
 1397SOL    HW3 5635   3.852   4.692   2.312  0.9039  0.3915  0.6546
 1397SOL    MW4 5636   3.789   4.659   2.363  0.4418  0.1421 -0.0517
 1398SOL     OW 5637   3.568   0.138   2.256 -0.3858 -0.4010 -0.0743
 1398SOL    HW2 5638   3.593   0.224   2.290  0.5762 -0.3299 -0.9293
 1398SOL    HW3 5639   3.635   0.078   2.291 -0.9520 -0.7769  0.3764
 1398SOL    MW4 5640   3.580   0.141   2.265 -0.3335 -0.4413 -0.1276
 1399SOL     OW 5641   3.609   0.367   2.382 -0.0148 -0.1224 -0.0616
 1399SOL    HW2 5642   3.604   0.363   2.477 -1.2417  0.9863 -0.0627
 1399SOL    HW3 5643   3.676   0.433   2.364 -0.8768  0.7823  0.0396
 1399SOL    MW4 5644   3.617   0.375   2.392 -0.2902  0.1432 -0.0484
 1400SOL     OW 5645   3.821   0.558   2.259  0.0136 -0.7529 -0.2668
 1400SOL    HW2 5646   3.820   0.650   2.285  0.7513 -1.0231  0.7374
 1400SOL    HW3 5647   3.834   0.561   2.164 -0.1901  0.1755 -0.2773
 1400SOL    MW4 5648   3.822   0.571   2.250  0.0839 -0.6660 -0.1357
 1401SOL     OW 5649   3.804   0.804   2.368 -0.1086 -0.1637  0.1656
 1401SOL    HW2 5650   3.823   0.806   2.462  0.1036 -1.0360  0.1431
 1401SOL    HW3 5651   3.878   0.850   2.328  0.8149 -1.5405  0.2682
 1401SOL    MW4 5652   3.816   0.811   2.375  0.0412 -0.4606  0.1762
 1402SOL     OW 5653   3.558   0.890   2.239 -0.0908 -0.3714 -0.3145
 1402SOL    HW2 5654   3.583   0.910   2.149  1.4353  0.6343  0.3256
 1402SOL    HW3 5655   3.633   0.843   2.276  0.0341  0.7944  0.9653
 1402SOL    MW4 5656   3.571   0.886   2.232  0.1271 -0.0849 -0.0610
 1403SOL     OW 5657   3.581   1.165   2.362  0.1515 -0.6198 -0.3369
 1403SOL    HW2 5658   3.571   1.170   2.457  0.3146  0.5686 -0.3683
 1403SOL    HW3 5659   3.563   1.074   2.340 -1.5898 -0.5213  0.6352
 1403SOL    MW4 5660   3.577   1.154   2.371 -0.0570 -0.4500 -0.2129
 1404SOL     OW 5661   3.808   1.293   2.262  0.0209 -0.2584  0.0911
 1404SOL    HW2 5662   3.784   1.381   2.292 -1.5516 -0.0056 -1.8041
 1404SOL    HW3 5663   3.738   1.237   2.295  0.3469 -0.5940  0.2153
 1404SOL    MW4 5664   3.795   1.297   2.270 -0.1435 -0.2694 -0.1423
 1405SOL     OW 5665   3.834   1.555   2.358 -0.1425  0.1563 -0.6469
 1405SOL    HW2 5666   3.817   1.580   2.449  0.6686  0.6180 -0.6247
 1405SOL    HW3 5667   3.763   1.594   2.308 -0.3628  0.2418 -0.2657
 1405SOL    MW4 5668   3.822   1.563   2.363 -0.0646  0.2285 -0.5939
 1406SOL     OW 5669   3.583   1.615   2.253 -0.2637  0.0064  0.2025
 1406SOL    HW2 5670   3.505   1.582   2.296 -0.1190  0.1554  0.5782
 1406SOL    HW3 5671   3.560   1.618   2.160 -0.7920  0.3121  0.3448
 1406SOL    MW4 5672   3.570   1.611   2.246 -0.3142  0.0663  0.2708
 1407SOL     OW 5673   3.577   1.868   2.362  0.4707 -0.0560  0.1507
 1407SOL    HW2 5674   3.651   1.907   2.316  0.9026 -0.5637  0.4202
 1407SOL    HW3 5675   3.567   1.781   2.323  0.0812 -0.0265  0.1809
 1407SOL    MW4 5676   3.585   1.862   2.351  0.4761 -0.1191  0.1903
 1408SOL     OW 5677   3.785   2.018   2.272  0.1442  0.6911  0.2279
 1408SOL    HW2 5678   3.873   1.997   2.306  0.7720 -0.1687 -1.8313
 1408SOL    HW3 5679   3.799   2.036   2.179 -1.7441  1.4995  0.0785
 1408SOL    MW4 5680   3.799   2.017   2.264 -0.0219  0.6843 -0.0634
 1409SOL     OW 5681   3.798   2.274   2.393  0.3433 -0.0405 -0.3328
 1409SOL    HW2 5682   3.738   2.337   2.352 -0.0586  0.4274  0.9648
 1409SOL    HW3 5683   3.786   2.194   2.342 -0.3183  0.4686 -0.9979
 1409SOL    MW4 5684   3.788   2.272   2.381  0.2029  0.0885 -0.2491
 1410SOL     OW 5685   3.624   2.477   2.246  0.6339 -0.7196 -0.4551
 1410SOL    HW2 5686   3.546   2.436   2.283  0.4027  0.4397  0.3559
 1410SOL    HW3 5687   3.604   2.483   2.152 -0.0765 -0.8006 -0.3171
 1410SOL    MW4 5688   3.611   2.472   2.238  0.5097 -0.5774 -0.3300
 1411SOL     OW 5689   3.625   2.706   2.384 -0.4581 -0.0151 -0.1716
 1411SOL    HW2 5690   3.612   2.628   2.331 -1.0563  0.8404 -1.3167
 1411SOL    HW3 5691   3.550   2.762   2.364  1.3810  2.0496 -1.5495
 1411SOL    MW4 5692   3.613   2.703   2.374 -0.2942  0.3700 -0.5045
 1412SOL     OW 5693   3.831   2.832   2.246  0.2603 -0.3041 -0.1015
 1412SOL    HW2 5694   3.843   2.922   2.278  0.1068 -0.4962  0.5112
 1412SOL    HW3 5695   3.760   2.797   2.300  0.9844 -1.1158  0.3277
 1412SOL    MW4 5696   3.823   2.840   2.258  0.3357 -0.4368  0.0360
 1413SOL     OW 5697   3.838   3.091   2.357 -0.0796 -0.4646  0.0199
 1413SOL    HW2 5698   3.841   3.089   2.453  0.6465 -1.4187 -0.0115
 1413SOL    HW3 5699   3.919   3.137   2.332 -0.1995 -0.3385 -0.1330
 1413SOL    MW4 5700   3.849   3.097   2.367  0.0002 -0.5739 -0.0045
 1414SOL     OW 5701   3.606   3.216   2.244 -0.3124  0.5804 -0.0008
 1414SOL    HW2 5702   3.590   3.304   2.279  0.3098  0.0582  1.6602
 1414SOL    HW3 5703   3.693   3.193   2.277 -1.0820 -1.2446  0.8544
 1414SOL    MW4 5704   3.615   3.224   2.253 -0.3319  0.2708  0.3312
 1415SOL     OW 5705   3.578   3.485   2.340  0.1682 -0.1395 -0.2100
 1415SOL    HW2 5706   3.591   3.481   2.435 -0.7273  1.0357 -0.0118
 1415SOL    HW3 5707   3.655   3.531   2.308 -0.2045  0.7605  0.1413
 1415SOL    MW4 5708   3.589   3.491   2.349  0.0010  0.1342 -0.1371
 1416SOL     OW 5709   3.801   3.626   2.258  0.1072  0.1430 -0.2036
 1416SOL    HW2 5710   3.815   3.719   2.278  3.2310 -0.5372  1.0287
 1416SOL    HW3 5711   3.807   3.621   2.162 -2.9779  1.5819 -0.5485
 1416SOL    MW4 5712   3.803   3.638   2.248  0.1121  0.2429 -0.0865
 1417SOL     OW 5713   3.817   3.885   2.324  0.1656  0.4617  0.0454
 1417SOL    HW2 5714   3.812   3.864   2.417 -1.0613  1.3944  0.2128
 1417SOL    HW3 5715   3.892   3.943   2.316  1.7222 -1.5079  0.0591
 1417SOL    MW4 5716   3.826   3.890   2.335  0.2091  0.3247  0.0691
 1418SOL     OW 5717   3.576   4.001   2.241 -0.0693  0.1174 -0.4435
 1418SOL    HW2 5718   3.584   4.085   2.285  0.8249 -0.7118  1.0048
 1418SOL    HW3 5719   3.659   3.957   2.258 -1.6984 -2.3455  1.5681
 1418SOL    MW4 5720   3.588   4.006   2.249 -0.1662 -0.3171  0.0131
 1419SOL     OW 5721   3.592   4.258   2.379 -0.3531 -0.3596  0.3187
 1419SOL    HW2 5722   3.663   4.295   2.326  0.6868 -2.4307  0.1947
 1419SOL    HW3 5723   3.513   4.301   2.347  0.5892  0.4462 -1.0018
 1419SOL    MW4 5724   3.591   4.269   2.368 -0.0918 -0.5264  0.1283
 1420SOL     OW 5725   3.808   4.407   2.239 -0.1596  0.1004 -0.0866
 1420SOL    HW2 5726   3.889   4.373   2.277  0.4493  0.9249 -0.6572
 1420SOL    HW3 5727   3.790   4.488   2.288 -1.2372 -0.6380  0.7894
 1420SOL    MW4 5728   3.816   4.413   2.251 -0.2213  0.1116 -0.0463
 1421SOL     OW 5729   4.241   0.053   2.368 -0.3287 -0.8674  0.0154
 1421SOL    HW2 5730   4.248   0.038   2.463  0.4396  2.6278  0.5808
 1421SOL    HW3 5731   4.332   0.062   2.339 -0.6834  1.9183 -0.3250
 1421SOL    MW4 5732   4.254   0.052   2.377 -0.2747 -0.0387  0.0451
 1422SOL     OW 5733   3.998   0.148   2.253 -0.0412  0.7013 -0.9472
 1422SOL    HW2 5734   3.988   0.228   2.304 -2.5853  0.2423 -0.6674
 1422SOL    HW3 5735   4.079   0.109   2.285 -0.0037  1.9823  0.5646
 1422SOL    MW4 5736   4.007   0.153   2.264 -0.3715  0.8097 -0.7105
 1423SOL     OW 5737   4.040   0.400   2.375  0.1827  0.1360  0.4909
 1423SOL    HW2 5738   4.126   0.428   2.342 -0.4731  0.2255 -1.2183
 1423SOL    HW3 5739   3.979   0.463   2.338 -0.9763 -1.7691 -0.9886
 1423SOL    MW4 5740   4.043   0.412   2.365 -0.0567 -0.1035  0.0703
 1424SOL     OW 5741   4.297   0.481   2.279  0.3272  0.3632  0.3579
 1424SOL    HW2 5742   4.285   0.560   2.332  0.7370  0.0142  0.9811
 1424SOL    HW3 5743   4.381   0.446   2.307  0.0381 -0.4284  0.2549
 1424SOL    MW4 5744   4.306   0.487   2.289  0.3433  0.2127  0.4265
 1425SOL     OW 5745   4.256   0.754   2.389  0.0468  0.1238  0.1249
 1425SOL    HW2 5746   4.183   0.788   2.338  0.1432  0.5722  0.2818
 1425SOL    HW3 5747   4.330   0.810   2.365  0.2367 -0.0545  0.2898
 1425SOL    MW4 5748   4.256   0.766   2.380  0.0849  0.1594  0.1671
 1426SOL     OW 5749   4.061   0.912   2.255 -0.3160 -0.1302 -0.2440
 1426SOL    HW2 5750   4.053   1.001   2.287 -1.4152 -0.4938  0.5377
 1426SOL    HW3 5751   4.095   0.921   2.166  0.9023  0.9850  0.3193
 1426SOL    MW4 5752   4.064   0.925   2.247 -0.3004 -0.0310 -0.0663
 1427SOL     OW 5753   4.059   1.188   2.350 -0.3067  0.1731 -0.4131
 1427SOL    HW2 5754   4.060   1.189   2.446 -1.4276 -0.8177 -0.3667
 1427SOL    HW3 5755   3.973   1.224   2.327  0.3255  1.2943 -1.0860
 1427SOL    MW4 5756   4.048   1.193   2.360 -0.3719  0.1903 -0.4959
 1428SOL     OW 5757   4.269   1.296   2.209  0.0618  0.0272 -0.2426
 1428SOL    HW2 5758   4.191   1.265   2.254  0.0697  0.2799 -0.0493
 1428SOL    HW3 5759   4.342   1.269   2.266  0.2469 -1.7280 -1.2711
 1428SOL    MW4 5760   4.269   1.288   2.223  0.0868 -0.1709 -0.3526
 1429SOL     OW 5761   4.299   1.532   2.345  0.1896  0.0045 -0.7789
 1429SOL    HW2 5762   4.291   1.459   2.284  2.1759 -0.6303 -0.3185
 1429SOL    HW3 5763   4.374   1.582   2.313  0.5189  0.3296  0.4648
 1429SOL    MW4 5764   4.308   1.529   2.333  0.4945 -0.0362 -0.5541
 1430SOL     OW 5765   4.064   1.662   2.254 -0.0931 -0.0382 -0.1786
 1430SOL    HW2 5766   4.143   1.621   2.289 -1.0981 -0.2720  1.8723
 1430SOL    HW3 5767   3.992   1.613   2.293 -1.2767  1.4641 -0.4409
 1430SOL    MW4 5768   4.065   1.650   2.263 -0.3819  0.1292  0.0572
 1431SOL     OW 5769   4.052   1.948   2.309  0.6335 -0.1121 -0.1264
 1431SOL    HW2 5770   4.058   1.956   2.405  0.2560 -1.1258 -0.0102
 1431SOL    HW3 5771   4.062   1.854   2.293 -0.7380 -0.1178 -0.9691
 1431SOL    MW4 5772   4.054   1.936   2.320  0.4029 -0.2465 -0.2220
 1432SOL     OW 5773   4.297   2.085   2.229  0.0281  0.3314 -0.5483
 1432SOL    HW2 5774   4.291   2.166   2.279 -0.1342  0.0514 -0.1111
 1432SOL    HW3 5775   4.214   2.041   2.245  0.1112  0.0816 -0.7948
 1432SOL    MW4 5776   4.285   2.090   2.238  0.0176  0.2615 -0.5231
 1433SOL     OW 5777   4.266   2.323   2.343 -0.3139 -0.3932  0.1439
 1433SOL    HW2 5778   4.184   2.353   2.306 -0.4965  0.4546  1.2031
 1433SOL    HW3 5779   4.332   2.384   2.310 -0.5064  0.4811  1.3416
 1433SOL    MW4 5780   4.264   2.335   2.334 -0.3629 -0.1657  0.4416
 1434SOL     OW 5781   4.032   2.406   2.237  0.0392 -0.5148  0.2556
 1434SOL    HW2 5782   4.034   2.500   2.252 -0.8571 -0.3760 -0.4123
 1434SOL    HW3 5783   3.960   2.374   2.292  0.4683 -0.8421  0.6330
 1434SOL    MW4 5784   4.023   2.414   2.246 -0.0224 -0.5400  0.2172
 1435SOL     OW 5785   4.031   2.667   2.330  0.1574 -0.2569 -0.4238
 1435SOL    HW2 5786   4.048   2.691   2.422 -0.9238 -1.2103  0.0344
 1435SOL    HW3 5787   3.959   2.723   2.304  1.1436  0.7557 -1.0360
 1435SOL    MW4 5788   4.024   2.678   2.339  0.1450 -0.2491 -0.4439
 1436SOL     OW 5789   4.256   2.842   2.231 -0.2644 -0.3319 -0.1105
 1436SOL    HW2 5790   4.194   2.774   2.259 -0.5852 -0.2841 -0.6987
 1436SOL    HW3 5791   4.341   2.808   2.257 -0.5702 -0.1740  1.1685
 1436SOL    MW4 5792   4.259   2.828   2.238 -0.3467 -0.3049 -0.0193
 1437SOL     OW 5793   4.261   3.095   2.362 -0.1003 -0.1354  0.0466
 1437SOL    HW2 5794   4.257   3.010   2.319 -2.5062  0.9781 -2.0507
 1437SOL    HW3 5795   4.341   3.136   2.328 -0.5558 -0.3612 -1.3392
 1437SOL    MW4 5796   4.271   3.090   2.352 -0.4783 -0.0181 -0.4129
 1438SOL     OW 5797   4.039   3.230   2.261 -0.6877  0.5390 -0.2463
 1438SOL    HW2 5798   4.022   3.319   2.292 -0.9456  1.6658 -3.4405
 1438SOL    HW3 5799   4.118   3.204   2.307 -2.0135  1.4349  2.6320
 1438SOL    MW4 5800   4.047   3.239   2.271 -0.8969  0.8059 -0.2882
 1439SOL     OW 5801   3.994   3.477   2.373 -0.1738 -0.3351 -0.3776
 1439SOL    HW2 5802   4.074   3.520   2.344  0.5647 -0.4416  1.4949
 1439SOL    HW3 5803   3.924   3.520   2.322  0.8975  0.7411 -0.9575
 1439SOL    MW4 5804   3.995   3.488   2.362  0.0651 -0.2074 -0.2069
 1440SOL     OW 5805   4.250   3.584   2.301  0.9094 -0.4015  0.1121
 1440SOL    HW2 5806   4.264   3.675   2.328 -2.4943  0.0659  0.4788
 1440SOL    HW3 5807   4.231   3.590   2.207  0.2293 -0.6708  0.2299
 1440SOL    MW4 5808   4.250   3.597   2.292  0.3705 -0.3750  0.1760
 1441SOL     OW 5809   4.268   3.853   2.353  0.1055  0.6552 -0.1998
 1441SOL    HW2 5810   4.263   3.854   2.449  0.7149 -1.4627 -0.1180
 1441SOL    HW3 5811   4.355   3.888   2.334 -0.0088  1.0631  0.0015
 1441SOL    MW4 5812   4.279   3.858   2.363  0.1707  0.4296 -0.1626
 1442SOL     OW 5813   4.075   4.022   2.273 -0.4037  0.1875 -0.0284
 1442SOL    HW2 5814   4.139   3.960   2.306 -2.1465 -1.1269  1.0028
 1442SOL    HW3 5815   4.068   4.003   2.180 -0.1982 -0.5073  0.0933
 1442SOL    MW4 5816   4.082   4.012   2.265 -0.6065 -0.0772  0.1235
 1443SOL     OW 5817   4.037   4.293   2.352 -0.6691  0.2764 -0.3440
 1443SOL    HW2 5818   4.126   4.323   2.333 -1.3565  0.5300 -3.2864
 1443SOL    HW3 5819   4.042   4.198   2.342 -0.2525  0.0604  1.6544
 1443SOL    MW4 5820   4.049   4.284   2.348 -0.7048  0.2813 -0.4685
 1444SOL     OW 5821   4.270   4.446   2.263 -0.4760 -0.2325  0.6700
 1444SOL    HW2 5822   4.251   4.535   2.293 -0.4653  0.4964 -1.4069
 1444SOL    HW3 5823   4.329   4.411   2.330  0.3685  1.6934  0.9833
 1444SOL    MW4 5824   4.275   4.453   2.276 -0.3629  0.1173  0.4373
 1445SOL     OW 5825   0.208   4.633   2.655  0.0846 -0.4870 -0.7349
 1445SOL    HW2 5826   0.196   4.631   2.560  0.4636 -0.5399 -0.7831
 1445SOL    HW3 5827   0.137   4.689   2.687 -0.5451 -1.1364 -0.9670
 1445SOL    MW4 5828   0.197   4.640   2.647  0.0515 -0.5794 -0.7718
 1446SOL     OW 5829   4.477   0.126   2.737 -0.3950  0.3349  0.0909
 1446SOL    HW2 5830   4.490   0.131   2.832  1.7078 -1.2415 -0.0800
 1446SOL    HW3 5831   4.477   0.218   2.708 -1.4831  0.8458  1.6390
 1446SOL    MW4 5832   4.479   0.139   2.746 -0.2613  0.1944  0.2728
 1447SOL     OW 5833   4.468   0.405   2.655 -0.1254 -0.2386 -0.2812
 1447SOL    HW2 5834   4.543   0.438   2.703 -0.0463  0.5743 -0.9606
 1447SOL    HW3 5835   4.394   0.458   2.685  0.0402  0.7215 -1.5259
 1447SOL    MW4 5836   4.468   0.416   2.665 -0.0930 -0.0046 -0.5350
 1448SOL     OW 5837   0.209   0.490   2.780 -0.0739  0.2259  0.5477
 1448SOL    HW2 5838   0.224   0.473   2.873  0.1137  0.5751  0.5831
 1448SOL    HW3 5839   0.287   0.454   2.737 -0.4102 -0.4189  0.4747
 1448SOL    MW4 5840   0.221   0.483   2.787 -0.0935  0.1869  0.5424
 1449SOL     OW 5841   0.226   0.750   2.692 -0.0177  0.1596 -0.0470
 1449SOL    HW2 5842   0.306   0.779   2.736 -0.7321  0.7734  0.8663
 1449SOL    HW3 5843   0.225   0.655   2.705 -0.1355  0.3131  1.1394
 1449SOL    MW4 5844   0.237   0.741   2.699 -0.1275  0.2608  0.2303
 1450SOL     OW 5845   4.475   0.894   2.758 -0.0320  0.0319 -0.2728
 1450SOL    HW2 5846   4.404   0.845   2.716 -0.1802 -0.3181  0.3701
 1450SOL    HW3 5847   4.547   0.832   2.762  0.1351  0.2155 -0.4331
 1450SOL    MW4 5848   4.475   0.879   2.753 -0.0294  0.0099 -0.2093
 1451SOL     OW 5849   0.000   1.145   2.632 -0.0096 -0.1099  0.0605
 1451SOL    HW2 5850   0.073   1.183   2.681  1.5952 -1.3766 -1.2945
 1451SOL    HW3 5851  -0.010   1.057   2.668 -0.7778  0.0191  0.1588
 1451SOL    MW4 5852   0.009   1.139   2.643  0.1008 -0.2600 -0.1051
 1452SOL     OW 5853   0.197   1.274   2.777 -0.5165 -0.3582 -0.0786
 1452SOL    HW2 5854   0.276   1.238   2.736 -2.1257 -0.4560 -3.2281
 1452SOL    HW3 5855   0.187   1.361   2.738 -1.0936  0.3070  1.5086
 1452SOL    MW4 5856   0.206   1.280   2.766 -0.8049 -0.2834 -0.2847
 1453SOL     OW 5857   0.182   1.515   2.627  0.1526 -0.4499  0.4836
 1453SOL    HW2 5858   0.263   1.564   2.643  0.2241 -1.1209  2.1749
 1453SOL    HW3 5859   0.112   1.577   2.647  0.2090  0.5730 -2.2862
 1453SOL    MW4 5860   0.184   1.530   2.631  0.1695 -0.4035  0.3417
 1454SOL     OW 5861   4.465   1.675   2.714 -0.3011 -0.3889 -0.2138
 1454SOL    HW2 5862   4.455   1.677   2.809 -1.1376 -0.2551 -0.2975
 1454SOL    HW3 5863   4.465   1.766   2.687 -1.9407 -0.4690 -0.5165
 1454SOL    MW4 5864   4.464   1.687   2.723 -0.6280 -0.3818 -0.2644
 1455SOL     OW 5865   4.473   1.959   2.645  0.4764 -0.4103  0.8309
 1455SOL    HW2 5866   4.554   1.996   2.679 -0.0928  0.9157  0.7796
 1455SOL    HW3 5867   4.483   1.962   2.550  1.1456 -2.0308  0.8385
 1455SOL    MW4 5868   4.485   1.964   2.637  0.4897 -0.4492  0.8252
 1456SOL     OW 5869   0.209   2.077   2.735  0.5038  0.3175  0.1221
 1456SOL    HW2 5870   0.289   2.026   2.720  0.9256  1.0995 -0.2873
 1456SOL    HW3 5871   0.227   2.162   2.695 -0.8415  0.2385 -0.6652
 1456SOL    MW4 5872   0.222   2.082   2.728  0.3820  0.4103 -0.0360
 1457SOL     OW 5873   0.225   2.312   2.622  0.2848  0.1520  0.4925
 1457SOL    HW2 5874   0.287   2.364   2.673 -1.0558  0.3009  1.9973
 1457SOL    HW3 5875   0.140   2.350   2.641 -0.5159 -1.4015  0.1292
 1457SOL    MW4 5876   0.222   2.324   2.631  0.0023 -0.0334  0.6430
 1458SOL     OW 5877   0.008   2.467   2.669 -0.0587 -0.0498  0.0015
 1458SOL    HW2 5878   0.001   2.465   2.764 -1.1304  0.7205 -0.0400
 1458SOL    HW3 5879  -0.074   2.428   2.638 -0.2048  0.7047 -0.5920
 1458SOL    MW4 5880  -0.004   2.462   2.678 -0.2194  0.1514 -0.0823
 1459SOL     OW 5881   0.026   2.744   2.632 -0.1669 -0.0532 -0.1581
 1459SOL    HW2 5882  -0.060   2.769   2.666  0.0142 -0.7146  0.8069
 1459SOL    HW3 5883   0.033   2.651   2.649  2.0260  0.5691  2.7453
 1459SOL    MW4 5884   0.016   2.735   2.639  0.1463 -0.0584  0.3524
 1460SOL     OW 5885   0.250   2.848   2.753  0.0769 -0.8183  0.0057
 1460SOL    HW2 5886   0.243   2.936   2.716  1.0057 -1.3264 -1.4035
 1460SOL    HW3 5887   0.183   2.797   2.708  2.3164 -1.8612 -2.3035
 1460SOL    MW4 5888   0.240   2.853   2.743  0.4949 -1.0231 -0.4847
 1461SOL     OW 5889   0.234   3.105   2.643 -0.0520 -0.0473 -0.0299
 1461SOL    HW2 5890   0.320   3.143   2.662 -0.5035  0.6079  0.7332
 1461SOL    HW3 5891   0.239   3.082   2.550  1.0132 -0.1893  0.0510
 1461SOL    MW4 5892   0.246   3.107   2.633  0.0290  0.0203  0.0815
 1462SOL     OW 5893   4.473   3.233   2.732  0.0217  0.4493 -0.1987
 1462SOL    HW2 5894   4.422   3.189   2.664 -0.1406  0.7239 -0.2526
 1462SOL    HW3 5895   4.564   3.207   2.713 -0.1515 -0.4898  0.2378
 1462SOL    MW4 5896   4.478   3.224   2.720 -0.0225  0.3619 -0.1483
 1463SOL     OW 5897   4.467   3.486   2.631  0.2586  0.0592 -0.6683
 1463SOL    HW2 5898   4.541   3.528   2.675  0.2364 -0.9990  0.4025
 1463SOL    HW3 5899   4.462   3.399   2.671 -1.3154 -0.0142 -1.0038
 1463SOL    MW4 5900   4.476   3.480   2.642  0.0482 -0.0901 -0.5713
 1464SOL     OW 5901   0.201   3.613   2.736  0.1176  0.4981 -0.1091
 1464SOL    HW2 5902   0.205   3.600   2.830  0.0289  0.6479 -0.0861
 1464SOL    HW3 5903   0.275   3.561   2.702 -0.6703 -0.6717 -0.0760
 1464SOL    MW4 5904   0.212   3.604   2.744  0.0020  0.3636 -0.1016
 1465SOL     OW 5905   0.235   3.848   2.582  0.7672 -0.2924  0.5926
 1465SOL    HW2 5906   0.219   3.769   2.634  0.2103 -0.4486  0.1804
 1465SOL    HW3 5907   0.250   3.816   2.493 -2.5918  0.2501 -0.2461
 1465SOL    MW4 5908   0.235   3.834   2.577  0.2505 -0.2413  0.4275
 1466SOL     OW 5909   0.032   3.971   2.764  0.0173 -0.1362 -0.0074
 1466SOL    HW2 5910   0.034   4.061   2.732  1.5890  0.0157  0.4456
 1466SOL    HW3 5911   0.115   3.933   2.733 -1.1233 -1.7714 -1.1491
 1466SOL    MW4 5912   0.043   3.978   2.756  0.0742 -0.3319 -0.0985
 1467SOL     OW 5913   0.025   4.237   2.667 -0.0055  0.1416 -0.3451
 1467SOL    HW2 5914  -0.044   4.288   2.709 -1.3133 -1.3653 -0.6233
 1467SOL    HW3 5915   0.105   4.287   2.685 -0.8422  0.7869  1.8628
 1467SOL    MW4 5916   0.027   4.251   2.675 -0.2885  0.0277 -0.0904
 1468SOL     OW 5917   0.254   4.392   2.802  0.0903 -0.4698 -0.1173
 1468SOL    HW2 5918   0.215   4.475   2.775 -0.3133 -0.3341  0.8578
 1468SOL    HW3 5919   0.245   4.391   2.897 -1.0284 -2.1926 -0.2249
 1468SOL    MW4 5920   0.248   4.403   2.811 -0.1106 -0.6790 -0.0029
 1469SOL     OW 5921   0.661   4.637   2.668  0.3002  0.2134 -0.2557
 1469SOL    HW2 5922   0.733   4.685   2.708 -0.7868  0.6814  1.2066
 1469SOL    HW3 5923   0.587   4.699   2.672 -0.8467 -1.1849  0.6854
 1469SOL    MW4 5924   0.660   4.652   2.674  0.0055  0.0906  0.0613
 1470SOL     OW 5925   0.438   0.088   2.714 -0.0659 -0.1039  0.0068
 1470SOL    HW2 5926   0.460   0.069   2.805 -0.3033 -0.3052  0.0248
 1470SOL    HW3 5927   0.359   0.035   2.698  0.9757 -1.4368 -0.8312
 1470SOL    MW4 5928   0.430   0.078   2.724  0.0402 -0.3063 -0.1013
 1471SOL     OW 5929   0.415   0.383   2.651  0.0372 -0.0665  0.0602
 1471SOL    HW2 5930   0.491   0.427   2.689 -0.4573 -0.3872  1.4519
 1471SOL    HW3 5931   0.414   0.297   2.693 -0.6544 -0.3471 -0.5195
 1471SOL    MW4 5932   0.425   0.377   2.661 -0.1194 -0.1459  0.1674
 1472SOL     OW 5933   0.649   0.483   2.767 -0.0169  0.4127  0.0675
 1472SOL    HW2 5934   0.652   0.484   2.863 -0.1227  1.4284  0.0647
 1472SOL    HW3 5935   0.739   0.463   2.740 -0.0153 -0.0103  0.3701
 1472SOL    MW4 5936   0.661   0.480   2.776 -0.0307  0.4908  0.1070
 1473SOL     OW 5937   0.663   0.736   2.646 -0.2780 -0.7048  0.5427
 1473SOL    HW2 5938   0.748   0.773   2.669 -0.7956  0.2442  0.9355
 1473SOL    HW3 5939   0.664   0.648   2.683  1.0841 -1.2208 -0.6609
 1473SOL    MW4 5940   0.674   0.729   2.654 -0.1666 -0.6476  0.4358
 1474SOL     OW 5941   0.453   0.883   2.788 -0.2129  0.0734 -0.1054
 1474SOL    HW2 5942   0.457   0.971   2.750 -0.8049  0.7322  1.3242
 1474SOL    HW3 5943   0.511   0.830   2.733 -0.5592  1.1526 -1.5224
 1474SOL    MW4 5944   0.461   0.887   2.776 -0.3367  0.3027 -0.1037
 1475SOL     OW 5945   0.443   1.140   2.682 -0.2384 -0.2862  0.1004
 1475SOL    HW2 5946   0.520   1.185   2.717  0.7580 -2.2815  0.5515
 1475SOL    HW3 5947   0.455   1.141   2.587  0.3414 -0.5886  0.1712
 1475SOL    MW4 5948   0.455   1.146   2.674 -0.0305 -0.5894  0.1693
 1476SOL     OW 5949   0.660   1.309   2.750 -0.5065 -0.2473 -0.8102
 1476SOL    HW2 5950   0.649   1.302   2.845  0.2229  4.9065 -0.1535
 1476SOL    HW3 5951   0.733   1.251   2.729  0.1568 -0.5001  2.0181
 1476SOL    MW4 5952   0.668   1.301   2.760 -0.3227  0.3994 -0.3507
 1477SOL     OW 5953   0.682   1.570   2.652 -0.3625  0.0773  0.5643
 1477SOL    HW2 5954   0.592   1.598   2.669 -0.3860  0.0451  0.4924
 1477SOL    HW3 5955   0.688   1.483   2.690 -0.8492 -0.6092 -0.8804
 1477SOL    MW4 5956   0.671   1.562   2.659 -0.4297 -0.0175  0.3643
 1478SOL     OW 5957   0.421   1.641   2.738 -0.2297  0.4713 -0.0744
 1478SOL    HW2 5958   0.434   1.646   2.833  0.7720 -0.5710 -0.1529
 1478SOL    HW3 5959   0.417   1.733   2.710 -3.2227  0.8284  1.3161
 1478SOL    MW4 5960   0.422   1.654   2.747 -0.4924  0.3809  0.0987
 1479SOL     OW 5961   0.439   1.917   2.660 -0.2670  0.2608 -0.1749
 1479SOL    HW2 5962   0.503   1.977   2.699 -0.8941  0.5841  0.3494
 1479SOL    HW3 5963   0.443   1.936   2.566 -0.5267  1.1753 -0.0028
 1479SOL    MW4 5964   0.448   1.927   2.653 -0.3840  0.4241 -0.0832
 1480SOL     OW 5965   0.653   2.053   2.760  0.2482 -0.3428  0.3628
 1480SOL    HW2 5966   0.671   2.025   2.850  1.6160  0.5992  0.4064
 1480SOL    HW3 5967   0.721   2.009   2.708 -0.0924 -0.3113 -0.1111
 1480SOL    MW4 5968   0.665   2.043   2.765  0.3838 -0.2146  0.3061
 1481SOL     OW 5969   0.651   2.295   2.640 -0.7012 -0.0352 -0.4925
 1481SOL    HW2 5970   0.729   2.338   2.675 -0.1389 -1.0918 -0.4042
 1481SOL    HW3 5971   0.648   2.211   2.686 -2.1740  0.1940 -0.1325
 1481SOL    MW4 5972   0.661   2.289   2.651 -0.8214 -0.1445 -0.4332
 1482SOL     OW 5973   0.435   2.477   2.701 -0.6738 -0.2260  0.1317
 1482SOL    HW2 5974   0.444   2.560   2.655 -2.3085  0.7947  1.5801
 1482SOL    HW3 5975   0.505   2.422   2.666  1.0107  2.0620 -0.2014
 1482SOL    MW4 5976   0.446   2.481   2.690 -0.6672  0.2105  0.2789
 1483SOL     OW 5977   0.445   2.738   2.592  0.4639  0.0980  0.0205
 1483SOL    HW2 5978   0.522   2.766   2.642 -0.2287  1.1763  0.5147
 1483SOL    HW3 5979   0.371   2.759   2.648 -0.4180  2.4976 -1.9163
 1483SOL    MW4 5980   0.446   2.745   2.606  0.2562  0.5572 -0.1700
 1484SOL     OW 5981   0.674   2.808   2.732  0.0474  0.1169  0.0073
 1484SOL    HW2 5982   0.672   2.829   2.825  0.9998  1.1392 -0.1951
 1484SOL    HW3 5983   0.683   2.893   2.689 -0.7507 -0.3167 -1.0326
 1484SOL    MW4 5984   0.675   2.822   2.739  0.0678  0.1948 -0.1566
 1485SOL     OW 5985   0.699   3.068   2.610  0.2140 -0.2135  0.2267
 1485SOL    HW2 5986   0.784   3.105   2.636 -0.2464  0.3255  1.0077
 1485SOL    HW3 5987   0.690   3.091   2.517  0.1589  1.2368  0.5757
 1485SOL    MW4 5988   0.709   3.076   2.601  0.1459  0.0489  0.3760
 1486SOL     OW 5989   0.487   3.227   2.724 -0.3807  0.3088 -0.2216
 1486SOL    HW2 5990   0.483   3.205   2.817 -0.3393  1.1152 -0.0215
 1486SOL    HW3 5991   0.551   3.167   2.688  2.3015  2.3362  0.9693
 1486SOL    MW4 5992   0.495   3.216   2.732 -0.0213  0.6831 -0.0379
 1487SOL     OW 5993   0.431   3.476   2.631  0.1397 -0.3822  0.0790
 1487SOL    HW2 5994   0.426   3.388   2.667 -0.7201 -1.0040 -1.5155
 1487SOL    HW3 5995   0.439   3.463   2.536  0.1013  1.2423 -0.1626
 1487SOL    MW4 5996   0.432   3.463   2.623  0.0212 -0.2499 -0.1631
 1488SOL     OW 5997   0.670   3.611   2.692  0.1320  0.0383  0.6059
 1488SOL    HW2 5998   0.689   3.609   2.786 -0.2452 -0.8385  0.6643
 1488SOL    HW3 5999   0.585   3.569   2.684  1.1372 -1.8733 -0.3740
 1488SOL    MW4 6000   0.661   3.605   2.704  0.2148 -0.3295  0.4845
 1489SOL     OW 6001   0.678   3.875   2.628 -0.4192 -0.2831 -0.6266
 1489SOL    HW2 6002   0.589   3.894   2.659 -0.0864  1.1932 -0.5529
 1489SOL    HW3 6003   0.692   3.783   2.651 -0.5372  0.5036  2.8076
 1489SOL    MW4 6004   0.668   3.865   2.635 -0.3909  0.0157 -0.1638
 1490SOL     OW 6005   0.431   4.002   2.726 -0.1065 -0.3232  0.5824
 1490SOL    HW2 6006   0.410   4.091   2.698 -0.7419  0.0333  2.1312
 1490SOL    HW3 6007   0.358   3.949   2.692 -0.1548 -0.1211  0.3690
 1490SOL    MW4 6008   0.418   4.007   2.718 -0.1967 -0.2503  0.7586
 1491SOL     OW 6009   0.408   4.265   2.617 -0.1031 -0.2316  0.1114
 1491SOL    HW2 6010   0.491   4.277   2.663 -0.2502 -0.6691  0.5046
 1491SOL    HW3 6011   0.344   4.315   2.669  0.1040  0.9679 -0.7831
 1491SOL    MW4 6012   0.410   4.273   2.630 -0.0952 -0.1311  0.0455
 1492SOL     OW 6013   0.651   4.365   2.737  0.2060 -0.1667 -0.3176
 1492SOL    HW2 6014   0.738   4.330   2.718  0.1266 -0.4074 -0.2449
 1492SOL    HW3 6015   0.653   4.455   2.705  0.7691  0.1139  0.4903
 1492SOL    MW4 6016   0.662   4.372   2.731  0.2699 -0.1616 -0.2015
 1493SOL     OW 6017   1.090   4.632   2.673  0.1231  0.3217  0.0619
 1493SOL    HW2 6018   1.165   4.688   2.694 -0.9063  1.2359  1.3380
 1493SOL    HW3 6019   1.112   4.547   2.712  1.0360  0.2400 -0.6218
 1493SOL    MW4 6020   1.103   4.628   2.681  0.1078  0.4320  0.1400
 1494SOL     OW 6021   0.859   0.124   2.772 -0.3194  0.4026  0.3662
 1494SOL    HW2 6022   0.851   0.131   2.868 -1.0745 -0.0923  0.3479
 1494SOL    HW3 6023   0.937   0.070   2.759  0.4202  1.3776  0.6764
 1494SOL    MW4 6024   0.868   0.118   2.783 -0.3213  0.4659  0.4048
 1495SOL     OW 6025   0.902   0.391   2.683 -0.2191 -0.1076  0.2719
 1495SOL    HW2 6026   0.875   0.301   2.704 -0.8329  0.0820  0.3051
 1495SOL    HW3 6027   0.906   0.394   2.588 -0.1979 -0.1702  0.2708
 1495SOL    MW4 6028   0.899   0.380   2.673 -0.2973 -0.0908  0.2763
 1496SOL     OW 6029   1.165   0.432   2.764  0.0845  0.2098 -0.0764
 1496SOL    HW2 6030   1.156   0.524   2.738 -0.2713  0.2973  0.3431
 1496SOL    HW3 6031   1.079   0.394   2.748  0.2414 -0.0623 -0.2808
 1496SOL    MW4 6032   1.152   0.439   2.758  0.0582  0.1854 -0.0482
 1497SOL     OW 6033   1.125   0.714   2.671  0.2452  0.4103  0.1604
 1497SOL    HW2 6034   1.211   0.745   2.699  0.8959 -0.3877 -0.9394
 1497SOL    HW3 6035   1.118   0.740   2.579 -0.5807  0.2265  0.1642
 1497SOL    MW4 6036   1.135   0.721   2.663  0.2221  0.2807  0.0157
 1498SOL     OW 6037   0.894   0.855   2.732 -0.2992  0.0970  0.0658
 1498SOL    HW2 6038   0.892   0.857   2.828 -0.1171  0.1728  0.0672
 1498SOL    HW3 6039   0.969   0.801   2.710  0.5677  1.3331 -0.0442
 1498SOL    MW4 6040   0.903   0.848   2.742 -0.1608  0.2701  0.0513
 1499SOL     OW 6041   0.873   1.154   2.671  0.1761  0.2005 -0.0373
 1499SOL    HW2 6042   0.880   1.059   2.677 -2.0761  0.0927  1.3856
 1499SOL    HW3 6043   0.876   1.172   2.577  0.1773 -1.3053 -0.3406
 1499SOL    MW4 6044   0.874   1.144   2.659 -0.1209 -0.0125  0.1101
 1500SOL     OW 6045   1.137   1.258   2.745  0.0184  0.2056 -0.2538
 1500SOL    HW2 6046   1.123   1.351   2.727 -0.4467  0.3169  0.6411
 1500SOL    HW3 6047   1.054   1.217   2.723 -0.1405  0.1635  0.4144
 1500SOL    MW4 6048   1.124   1.265   2.740 -0.0640  0.2146 -0.0477
 1501SOL     OW 6049   1.114   1.534   2.642 -0.2631  0.5009 -0.2203
 1501SOL    HW2 6050   1.056   1.606   2.669  1.0550  0.6014  2.5685
 1501SOL    HW3 6051   1.133   1.551   2.550 -1.1011  2.9437  0.0287
 1501SOL    MW4 6052   1.109   1.546   2.634 -0.1999  0.8364  0.1805
 1502SOL     OW 6053   0.899   1.696   2.733 -0.3283  0.4116 -0.1917
 1502SOL    HW2 6054   0.902   1.685   2.828 -0.7461  1.0726 -0.0979
 1502SOL    HW3 6055   0.822   1.647   2.705  0.2895 -0.5105 -0.2978
 1502SOL    MW4 6056   0.889   1.688   2.741 -0.3020  0.3773 -0.1931
 1503SOL     OW 6057   0.863   1.948   2.591  0.2681 -0.4929 -0.4647
 1503SOL    HW2 6058   0.939   1.990   2.630 -1.3984  1.0133  1.2414
 1503SOL    HW3 6059   0.869   1.856   2.619  1.2853 -0.3162 -0.0931
 1503SOL    MW4 6060   0.874   1.941   2.600  0.1824 -0.2708 -0.1905
 1504SOL     OW 6061   1.090   2.065   2.697 -0.0833 -0.2373 -0.5031
 1504SOL    HW2 6062   1.166   2.015   2.668 -0.6489 -0.0459 -2.3632
 1504SOL    HW3 6063   1.094   2.146   2.647 -0.8324  0.3202  0.3180
 1504SOL    MW4 6064   1.101   2.069   2.687 -0.2568 -0.1388 -0.6402
 1505SOL     OW 6065   1.109   2.300   2.580  0.2807 -0.2946 -0.0893
 1505SOL    HW2 6066   1.195   2.318   2.617 -0.0092  0.7982  0.0694
 1505SOL    HW3 6067   1.120   2.313   2.486  0.5929 -1.3833 -0.2074
 1505SOL    MW4 6068   1.122   2.304   2.572  0.2837 -0.2940 -0.0842
 1506SOL     OW 6069   0.881   2.422   2.751  0.6677 -0.3635 -0.9160
 1506SOL    HW2 6070   0.881   2.503   2.700  2.3219 -0.0484 -0.4569
 1506SOL    HW3 6071   0.963   2.378   2.727 -0.2096 -1.9129 -1.1583
 1506SOL    MW4 6072   0.892   2.427   2.741  0.7702 -0.5264 -0.8874
 1507SOL     OW 6073   0.883   2.659   2.612  0.1874 -0.2313  0.2678
 1507SOL    HW2 6074   0.960   2.705   2.644 -0.7298  1.8839 -0.4910
 1507SOL    HW3 6075   0.809   2.701   2.656 -0.5905 -1.7866  0.4843
 1507SOL    MW4 6076   0.883   2.670   2.622 -0.0362 -0.1576  0.1960
 1508SOL     OW 6077   1.117   2.834   2.713  0.1799  0.0161  0.4467
 1508SOL    HW2 6078   1.109   2.828   2.808  0.4436 -0.7109  0.4249
 1508SOL    HW3 6079   1.201   2.793   2.693  0.9743  1.7717  0.0645
 1508SOL    MW4 6080   1.127   2.828   2.723  0.3195  0.1519  0.3934
 1509SOL     OW 6081   1.148   3.096   2.619  0.0000  0.0000  0.2348
 1509SOL    HW2 6082   1.122   3.007   2.641  0.0000  0.0000  0.2392
 1509SOL    HW3 6083   1.136   3.101   2.524  0.0000  0.0000  0.2345
 1509SOL    MW4 6084   1.143   3.085   2.609  0.0000  0.0000  0.2353
 1510SOL     OW 6085   0.919   3.208   2.706  0.0000  0.0000  0.0749
 1510SOL    HW2 6086   0.903   3.287   2.654  0.0000  0.0000  0.0716
 1510SOL    HW3 6087   1.006   3.179   2.679  0.0000  0.0000  0.0671
 1510SOL    MW4 6088   0.928   3.215   2.695  0.0000  0.0000  0.0732
 1511SOL     OW 6089   0.887   3.462   2.606  0.0000  0.0000 -0.3341
 1511SOL    HW2 6090   0.961   3.509   2.646  0.0000  0.0000 -0.3100
 1511SOL    HW3 6091   0.810   3.512   2.634  0.0000  0.0000 -0.3728
 1511SOL    MW4 6092   0.887   3.475   2.615  0.0000  0.0000 -0.3362
 1512SOL     OW 6093   1.102   3.599   2.711  0.0000  0.0000 -0.1265
 1512SOL    HW2 6094   1.101   3.626   2.803  0.0000  0.0000 -0.1274
 1512SOL    HW3 6095   1.100   3.681   2.662  0.0000  0.0000 -0.1295
 1512SOL    MW4 6096   1.102   3.613   2.717  0.0000  0.0000 -0.1271
 1513SOL     OW 6097   1.098   3.851   2.600  0.0000  0.0000 -0.3544
 1513SOL    HW2 6098   1.178   3.889   2.638  0.0000  0.0000 -0.3589
 1513SOL    HW3 6099   1.110   3.859   2.505  0.0000  0.0000 -0.3549
 1513SOL    MW4 6100   1.110   3.857   2.593  0.0000  0.0000 -0.3552
 1514SOL     OW 6101   0.893   4.008   2.762  0.0000  0.0000 -0.1438
 1514SOL    HW2 6102   0.957   3.963   2.707  0.0000  0.0000 -0.1384
 1514SOL    HW3 6103   0.809   3.969   2.736  0.0000  0.0000 -0.1574
 1514SOL    MW4 6104   0.890   3.997   2.751  0.0000  0.0000 -0.1450
 1515SOL     OW 6105   0.888   4.266   2.664  0.0000  0.0000 -0.2769
 1515SOL    HW2 6106   0.892   4.173   2.689  0.0000  0.0000 -0.2798
 1515SOL    HW3 6107   0.884   4.265   2.568  0.0000  0.0000 -0.2768
 1515SOL    MW4 6108   0.888   4.254   2.655  0.0000  0.0000 -0.2770
 1516SOL     OW 6109   1.144   4.351   2.741  0.0000  0.0000  0.1969
 1516SOL    HW2 6110   1.137   4.378   2.833  0.0000  0.0000  0.1971
 1516SOL    HW3 6111   1.055   4.327   2.716  0.0000  0.0000  0.1982
 1516SOL    MW4 6112   1.131   4.351   2.750  0.0000  0.0000  0.1969
 1517SOL     OW 6113   1.593   4.643   2.651  0.0000  0.0000 -0.1384
 1517SOL    HW2 6114   1.588   4.549   2.667  0.0000  0.0000 -0.1282
 1517SOL    HW3 6115   1.581   4.652   2.557  0.0000  0.0000 -0.1397
 1517SOL    MW4 6116   1.591   4.632   2.641  0.0000  0.0000 -0.1371
 1518SOL     OW 6117   1.326   0.086   2.738 -0.0031  0.2023  0.2824
 1518SOL    HW2 6118   1.342   0.169   2.694 -0.6554 -0.0512 -0.4399
 1518SOL    HW3 6119   1.401   0.031   2.715 -0.3687  0.0526 -0.5587
 1518SOL    MW4 6120   1.338   0.090   2.729 -0.1374  0.1491  0.0758
 1519SOL     OW 6121   1.367   0.321   2.622 -0.3237  0.3025 -0.4510
 1519SOL    HW2 6122   1.452   0.358   2.648 -0.4133  0.1991 -0.0238
 1519SOL    HW3 6123   1.304   0.361   2.682 -0.4817 -0.2063 -0.2820
 1519SOL    MW4 6124   1.370   0.331   2.633 -0.3563  0.2217 -0.3726
 1520SOL     OW 6125   1.581   0.484   2.711 -0.7986 -0.2696  0.1536
 1520SOL    HW2 6126   1.662   0.443   2.680 -0.8516  0.2703 -0.7246
 1520SOL    HW3 6127   1.581   0.570   2.670 -1.7031 -0.1790  0.3367
 1520SOL    MW4 6128   1.592   0.490   2.701 -0.9248 -0.1864  0.0618
 1521SOL     OW 6129   1.600   0.763   2.594  0.1393  0.0219 -0.1324
 1521SOL    HW2 6130   1.519   0.778   2.643  1.3071  2.1794  1.2457
 1521SOL    HW3 6131   1.574   0.770   2.502 -1.0919  1.6575  0.3192
 1521SOL    MW4 6132   1.586   0.766   2.588  0.1308  0.5224  0.1092
 1522SOL     OW 6133   1.370   0.809   2.739 -0.4444  0.2453  0.5667
 1522SOL    HW2 6134   1.384   0.815   2.833 -0.8640  0.4563  0.6161
 1522SOL    HW3 6135   1.364   0.900   2.710 -0.5535  0.1780  0.3745
 1522SOL    MW4 6136   1.371   0.822   2.747 -0.5141  0.2642  0.5476
 1523SOL     OW 6137   1.339   1.093   2.641 -0.0370 -0.0196 -0.1395
 1523SOL    HW2 6138   1.420   1.138   2.663 -0.7302  1.5524 -0.7318
 1523SOL    HW3 6139   1.271   1.144   2.685 -0.9062  0.0031 -1.4954
 1523SOL    MW4 6140   1.341   1.106   2.650 -0.2431  0.1909 -0.3965
 1524SOL     OW 6141   1.568   1.237   2.717  0.1893 -0.3125 -0.3839
 1524SOL    HW2 6142   1.566   1.230   2.812 -1.3024  1.2100 -0.2750
 1524SOL    HW3 6143   1.651   1.197   2.691  0.3463 -1.2150  1.5081
 1524SOL    MW4 6144   1.579   1.231   2.726  0.0132 -0.2307 -0.1199
 1525SOL     OW 6145   1.576   1.501   2.646  0.3523 -0.1401  0.1687
 1525SOL    HW2 6146   1.573   1.410   2.676  0.6238 -0.5895 -1.1050
 1525SOL    HW3 6147   1.601   1.494   2.553  0.0668  1.2171 -0.0162
 1525SOL    MW4 6148   1.579   1.488   2.637  0.3505 -0.0203 -0.0238
 1526SOL     OW 6149   1.362   1.643   2.711 -0.6193  0.2188 -0.4436
 1526SOL    HW2 6150   1.440   1.592   2.689  0.0348  1.1004 -0.1775
 1526SOL    HW3 6151   1.290   1.580   2.703  0.2112 -0.8380  0.2225
 1526SOL    MW4 6152   1.363   1.628   2.707 -0.4236  0.1956 -0.3207
 1527SOL     OW 6153   1.334   1.919   2.619  0.1113 -0.4440  0.0718
 1527SOL    HW2 6154   1.360   1.831   2.645 -1.8957 -1.1396 -0.1745
 1527SOL    HW3 6155   1.357   1.926   2.527  1.3843 -0.2632  0.3959
 1527SOL    MW4 6156   1.340   1.908   2.610  0.0143 -0.5118  0.0820
 1528SOL     OW 6157   1.569   2.046   2.704  0.0305  0.2007 -0.2985
 1528SOL    HW2 6158   1.640   1.987   2.680 -0.5907 -0.4914 -0.4672
 1528SOL    HW3 6159   1.490   1.993   2.691 -0.4845  0.8484  0.2254
 1528SOL    MW4 6160   1.568   2.031   2.699 -0.1194  0.1950 -0.2515
 1529SOL     OW 6161   1.585   2.304   2.590 -0.3583 -0.7228 -0.6477
 1529SOL    HW2 6162   1.648   2.350   2.645 -0.4066 -0.0701 -1.1314
 1529SOL    HW3 6163   1.586   2.214   2.622  2.2203 -1.1703 -1.8676
 1529SOL    MW4 6164   1.593   2.298   2.601 -0.0244 -0.6959 -0.8721
 1530SOL     OW 6165   1.346   2.401   2.713  0.0789 -0.0754 -0.0386
 1530SOL    HW2 6166   1.361   2.495   2.706 -0.6590 -0.0007 -0.6496
 1530SOL    HW3 6167   1.428   2.361   2.683  1.3312  0.3881  2.6470
 1530SOL    MW4 6168   1.359   2.408   2.708  0.1467 -0.0043  0.2348
 1531SOL     OW 6169   1.373   2.684   2.668 -0.0465  0.2767 -0.4132
 1531SOL    HW2 6170   1.451   2.737   2.686  0.6342 -0.5336 -0.8800
 1531SOL    HW3 6171   1.362   2.689   2.573  0.4443 -0.9585 -0.5531
 1531SOL    MW4 6172   1.382   2.692   2.658  0.1081  0.0067 -0.4933
 1532SOL     OW 6173   1.597   2.839   2.708 -0.0768  0.0593  0.0856
 1532SOL    HW2 6174   1.598   2.843   2.803 -0.0994  0.6645  0.0617
 1532SOL    HW3 6175   1.586   2.930   2.680 -1.0302 -0.2241 -0.4767
 1532SOL    MW4 6176   1.596   2.852   2.717 -0.2055  0.1018  0.0086
 1533SOL     OW 6177   1.537   3.091   2.616 -0.3239  0.5103  0.5563
 1533SOL    HW2 6178   1.607   3.146   2.650 -1.0352  1.4678  0.5104
 1533SOL    HW3 6179   1.457   3.135   2.643 -0.9066 -0.3736  0.2953
 1533SOL    MW4 6180   1.536   3.104   2.624 -0.4946  0.5202  0.5159
 1534SOL     OW 6181   1.334   3.229   2.753  0.5104  0.0989 -0.4328
 1534SOL    HW2 6182   1.329   3.315   2.712  0.8569  0.6597  0.6687
 1534SOL    HW3 6183   1.273   3.175   2.704 -0.5523  1.2805 -0.4354
 1534SOL    MW4 6184   1.325   3.233   2.741  0.4159  0.3290 -0.2878
 1535SOL     OW 6185   1.335   3.479   2.625 -0.1211 -0.3717 -0.4386
 1535SOL    HW2 6186   1.407   3.535   2.654  0.2445 -0.9530 -0.1909
 1535SOL    HW3 6187   1.258   3.511   2.672  0.1983 -0.4330  0.1387
 1535SOL    MW4 6188   1.335   3.491   2.635 -0.0309 -0.4563 -0.3300
 1536SOL     OW 6189   1.547   3.631   2.713  0.5377  0.1220  0.1787
 1536SOL    HW2 6190   1.553   3.640   2.808  0.9248 -1.2280  0.2993
 1536SOL    HW3 6191   1.625   3.580   2.689  0.5445  0.6179 -0.8810
 1536SOL    MW4 6192   1.558   3.625   2.722  0.5898  0.0091  0.0551
 1537SOL     OW 6193   1.545   3.878   2.610  0.0641  0.3020  0.3297
 1537SOL    HW2 6194   1.475   3.920   2.659 -0.1645 -0.7708  0.9393
 1537SOL    HW3 6195   1.542   3.787   2.638  2.2781  0.4192  1.0130
 1537SOL    MW4 6196   1.535   3.872   2.620  0.3262  0.1762  0.5002
 1538SOL     OW 6197   1.320   3.967   2.736  0.1389  0.4458  0.2896
 1538SOL    HW2 6198   1.342   3.991   2.826  0.1827  1.0823  0.1126
 1538SOL    HW3 6199   1.314   4.050   2.689 -1.0596  0.1824 -0.0398
 1538SOL    MW4 6200   1.322   3.981   2.741 -0.0135  0.4950  0.2227
 1539SOL     OW 6201   1.351   4.220   2.624  0.4568  0.0661  0.4066
 1539SOL    HW2 6202   1.281   4.279   2.653 -0.6593 -0.9787 -0.1169
 1539SOL    HW3 6203   1.361   4.239   2.531  0.9576  0.2993  0.5083
 1539SOL    MW4 6204   1.343   4.230   2.615  0.3757 -0.0410  0.3510
 1540SOL     OW 6205   1.577   4.354   2.721  0.3962 -0.1744 -0.0430
 1540SOL    HW2 6206   1.570   4.355   2.816  2.2095 -1.9686  0.1378
 1540SOL    HW3 6207   1.498   4.308   2.692  0.2807 -0.4168  0.6434
 1540SOL    MW4 6208   1.565   4.348   2.730  0.6201 -0.4430  0.0715
 1541SOL     OW 6209   2.046   4.593   2.633 -0.0010  0.2887  0.2488
 1541SOL    HW2 6210   2.127   4.639   2.654 -0.1666  0.4364  0.5762
 1541SOL    HW3 6211   2.040   4.596   2.538 -1.2262  3.0903  0.3614
 1541SOL    MW4 6212   2.056   4.599   2.623 -0.1845  0.6776  0.3068
 1542SOL     OW 6213   1.829   0.075   2.756 -0.0046 -0.1677  0.1917
 1542SOL    HW2 6214   1.893   0.028   2.702  0.6537  0.0741  0.7526
 1542SOL    HW3 6215   1.745   0.036   2.733  0.3024 -0.2342 -0.8263
 1542SOL    MW4 6216   1.826   0.063   2.746  0.1227 -0.1446  0.1314
 1543SOL     OW 6217   1.823   0.328   2.666 -0.1305 -0.1106 -0.3961
 1543SOL    HW2 6218   1.898   0.363   2.715  0.8531  0.0267 -1.9442
 1543SOL    HW3 6219   1.821   0.235   2.689 -0.4342  0.1874  0.8264
 1543SOL    MW4 6220   1.833   0.320   2.675 -0.0408 -0.0532 -0.4389
 1544SOL     OW 6221   2.048   0.474   2.756  0.0437  0.1793  0.2413
 1544SOL    HW2 6222   2.125   0.468   2.699 -0.3502 -0.2727 -0.2389
 1544SOL    HW3 6223   2.012   0.561   2.738  0.1295  0.1795  0.0666
 1544SOL    MW4 6224   2.054   0.485   2.746  0.0031  0.1197  0.1550
 1545SOL     OW 6225   2.011   0.738   2.631 -0.2131  0.4670  0.6987
 1545SOL    HW2 6226   1.942   0.791   2.671  0.2702  0.7266  1.2076
 1545SOL    HW3 6227   2.000   0.751   2.537  0.4759  2.2218  0.8357
 1545SOL    MW4 6228   2.001   0.747   2.624 -0.0587  0.7328  0.7837
 1546SOL     OW 6229   1.798   0.883   2.731  0.1705 -0.0937 -0.5224
 1546SOL    HW2 6230   1.807   0.974   2.700 -0.7478  0.6295  1.2615
 1546SOL    HW3 6231   1.730   0.846   2.676  0.4455  0.3445 -1.1641
 1546SOL    MW4 6232   1.790   0.890   2.720  0.0856  0.0595 -0.3717
 1547SOL     OW 6233   1.803   1.133   2.638  0.2089 -0.2344  0.3421
 1547SOL    HW2 6234   1.886   1.178   2.653  0.2240 -0.7729  2.0173
 1547SOL    HW3 6235   1.804   1.110   2.545  0.9996  1.6092 -0.1283
 1547SOL    MW4 6236   1.814   1.136   2.628  0.3152 -0.0621  0.5012
 1548SOL     OW 6237   2.022   1.277   2.698 -0.4196  0.2831  0.0348
 1548SOL    HW2 6238   2.027   1.249   2.789  0.2753  0.2513 -0.0116
 1548SOL    HW3 6239   2.100   1.241   2.657  1.0654  3.1085  0.2061
 1548SOL    MW4 6240   2.033   1.269   2.705 -0.1318  0.6517  0.0515
 1549SOL     OW 6241   2.022   1.572   2.687  0.4540 -0.3750  0.2913
 1549SOL    HW2 6242   1.946   1.605   2.736  0.5093 -1.4377  1.1238
 1549SOL    HW3 6243   2.013   1.477   2.692  1.2578 -0.4978 -0.5500
 1549SOL    MW4 6244   2.011   1.564   2.694  0.5672 -0.5314  0.2902
 1550SOL     OW 6245   1.784   1.688   2.759  0.5911  0.2077  0.2357
 1550SOL    HW2 6246   1.719   1.628   2.723  0.6500  0.1201  0.2756
 1550SOL    HW3 6247   1.756   1.703   2.850  1.1396 -0.5547  0.5384
 1550SOL    MW4 6248   1.772   1.682   2.766  0.6711  0.0955  0.2809
 1551SOL     OW 6249   1.796   1.912   2.601 -0.0805  0.1360 -0.0116
 1551SOL    HW2 6250   1.877   1.953   2.634  0.9773 -0.1769 -2.1699
 1551SOL    HW3 6251   1.799   1.822   2.634  0.0682  0.3263  0.5102
 1551SOL    MW4 6252   1.807   1.906   2.610  0.0787  0.1197 -0.2277
 1552SOL     OW 6253   2.033   2.017   2.718 -0.8127 -0.9064  0.2659
 1552SOL    HW2 6254   2.022   2.019   2.813  0.7480 -0.0553  0.4429
 1552SOL    HW3 6255   2.050   2.108   2.694  0.9042 -1.4180 -0.5448
 1552SOL    MW4 6256   2.034   2.029   2.728 -0.3800 -0.8614  0.1822
 1553SOL     OW 6257   2.069   2.289   2.658  0.1312 -0.1176  0.1130
 1553SOL    HW2 6258   2.134   2.351   2.692  0.2855 -0.2461  0.0558
 1553SOL    HW3 6259   2.071   2.303   2.563 -0.7132  0.6412  0.2036
 1553SOL    MW4 6260   2.078   2.299   2.650  0.0401 -0.0346  0.1171
 1554SOL     OW 6261   1.824   2.417   2.698  0.1368 -0.0271  0.3399
 1554SOL    HW2 6262   1.806   2.422   2.792  0.0143  0.5587  0.2878
 1554SOL    HW3 6263   1.908   2.372   2.692 -1.0195 -2.2627  0.6122
 1554SOL    MW4 6264   1.833   2.412   2.709 -0.0319 -0.2449  0.3691
 1555SOL     OW 6265   1.818   2.692   2.603 -0.7726  0.0076  0.2791
 1555SOL    HW2 6266   1.738   2.737   2.627 -1.0611 -0.4434  0.1701
 1555SOL    HW3 6267   1.804   2.601   2.630 -0.1983 -0.0249  0.4978
 1555SOL    MW4 6268   1.806   2.686   2.610 -0.7350 -0.0563  0.2935
 1556SOL     OW 6269   2.058   2.819   2.696 -0.3251 -0.2229  0.2078
 1556SOL    HW2 6270   2.136   2.780   2.656 -0.9516 -0.3067 -0.9497
 1556SOL    HW3 6271   1.984   2.773   2.656 -1.0404  1.3188 -0.3062
 1556SOL    MW4 6272   2.058   2.808   2.686 -0.5021 -0.0305 -0.0126
 1557SOL     OW 6273   1.995   3.079   2.630 -0.0966 -0.8429  0.1644
 1557SOL    HW2 6274   2.036   2.998   2.661  1.2564  0.4775  1.8750
 1557SOL    HW3 6275   2.006   3.075   2.534  0.2105 -2.5211  0.2391
 1557SOL    MW4 6276   2.002   3.068   2.621  0.1223 -0.8903  0.3998
 1558SOL     OW 6277   1.757   3.204   2.711 -0.3607 -0.0248 -0.4633
 1558SOL    HW2 6278   1.765   3.297   2.693  1.4652 -0.0214  0.1827
 1558SOL    HW3 6279   1.840   3.167   2.681  0.2676 -0.9201  2.2711
 1558SOL    MW4 6280   1.769   3.211   2.705 -0.0370 -0.1426 -0.0172
 1559SOL     OW 6281   1.778   3.491   2.638  0.5948 -0.2607  0.2543
 1559SOL    HW2 6282   1.780   3.489   2.542 -0.9667  0.7616  0.1841
 1559SOL    HW3 6283   1.852   3.546   2.663 -0.6722  1.8312 -0.4830
 1559SOL    MW4 6284   1.788   3.498   2.628  0.2217  0.1502  0.1478
 1560SOL     OW 6285   1.999   3.640   2.687 -0.2916 -0.0303  0.2691
 1560SOL    HW2 6286   2.021   3.625   2.779 -2.9157 -1.2785  0.7406
 1560SOL    HW3 6287   2.077   3.612   2.638  1.2944  1.0785  2.1012
 1560SOL    MW4 6288   2.012   3.634   2.692 -0.4287 -0.0486  0.5732
 1561SOL     OW 6289   2.001   3.909   2.635 -0.0413  0.0367 -0.1712
 1561SOL    HW2 6290   1.929   3.943   2.689 -0.2111  0.2371 -0.5217
 1561SOL    HW3 6291   2.005   3.816   2.655  0.9210  0.3933  1.3774
 1561SOL    MW4 6292   1.992   3.901   2.645  0.0633  0.1101 -0.0131
 1562SOL     OW 6293   1.775   3.981   2.739  0.1251 -0.2009  0.1113
 1562SOL    HW2 6294   1.789   4.070   2.705  0.9804  0.0242  1.0437
 1562SOL    HW3 6295   1.698   3.949   2.691 -1.0854  1.5746  0.8193
 1562SOL    MW4 6296   1.767   3.989   2.728  0.0782  0.0632  0.3276
 1563SOL     OW 6297   1.808   4.237   2.639  0.3320 -0.2417 -0.0325
 1563SOL    HW2 6298   1.726   4.278   2.668  0.4533 -0.3314  0.4380
 1563SOL    HW3 6299   1.801   4.235   2.544  0.3130  0.8774 -0.0679
 1563SOL    MW4 6300   1.796   4.242   2.630  0.3456 -0.1059  0.0253
 1564SOL     OW 6301   2.025   4.352   2.764  0.0659  0.1251  0.0976
 1564SOL    HW2 6302   1.949   4.317   2.718 -0.4516  0.7065  0.5056
 1564SOL    HW3 6303   2.042   4.436   2.722  0.9373 -0.3278 -0.4767
 1564SOL    MW4 6304   2.017   4.358   2.752  0.1125  0.1421  0.0753
 1565SOL     OW 6305   2.499   4.647   2.619 -0.0464  0.4112  0.2738
 1565SOL    HW2 6306   2.562   4.716   2.639 -0.6161  0.6044  1.4742
 1565SOL    HW3 6307   2.502   4.638   2.524  2.1584  0.0593  0.3494
 1565SOL    MW4 6308   2.508   4.655   2.609  0.1695  0.3901  0.4423
 1566SOL     OW 6309   2.266   0.086   2.728 -0.0396  0.0950  0.0769
 1566SOL    HW2 6310   2.277   0.097   2.823  0.6690 -1.0612  0.1258
 1566SOL    HW3 6311   2.346   0.042   2.699 -1.0746 -1.2541 -0.7677
 1566SOL    MW4 6312   2.278   0.082   2.737 -0.0827 -0.2355 -0.0281
 1567SOL     OW 6313   2.278   0.352   2.632 -0.2685  0.4019 -0.0486
 1567SOL    HW2 6314   2.265   0.263   2.663  0.4834  0.1430 -0.4817
 1567SOL    HW3 6315   2.267   0.347   2.537 -1.0991  0.9294  0.0103
 1567SOL    MW4 6316   2.275   0.340   2.624 -0.2787  0.4373 -0.0980
 1568SOL     OW 6317   2.472   0.518   2.781  0.4496 -0.2378  0.1544
 1568SOL    HW2 6318   2.457   0.605   2.746  0.8714 -0.9949 -1.9901
 1568SOL    HW3 6319   2.417   0.460   2.728  1.9775 -1.5542 -0.0395
 1568SOL    MW4 6320   2.463   0.522   2.769  0.7069 -0.5113 -0.1538
 1569SOL     OW 6321   2.450   0.788   2.670 -0.0971 -0.2716  0.0060
 1569SOL    HW2 6322   2.371   0.836   2.696  0.5051  0.2726  0.8121
 1569SOL    HW3 6323   2.437   0.772   2.576 -1.1627 -0.1825  0.1234
 1569SOL    MW4 6324   2.438   0.792   2.661 -0.1583 -0.1881  0.1276
 1570SOL     OW 6325   2.219   0.926   2.743 -0.1700  0.2024 -0.3217
 1570SOL    HW2 6326   2.229   0.916   2.838 -0.8899 -1.3475 -0.3880
 1570SOL    HW3 6327   2.158   0.857   2.718  1.0332 -0.2624 -2.1023
 1570SOL    MW4 6328   2.212   0.915   2.752 -0.1061 -0.0634 -0.5653
 1571SOL     OW 6329   2.262   1.170   2.611 -0.4336 -0.1604 -0.1427
 1571SOL    HW2 6330   2.264   1.092   2.666  2.2944 -0.3423 -0.4129
 1571SOL    HW3 6331   2.269   1.136   2.522 -0.6232  0.3108 -0.3354
 1571SOL    MW4 6332   2.263   1.155   2.607 -0.0985 -0.1222 -0.2036
 1572SOL     OW 6333   2.487   1.283   2.741  0.1087  0.1934 -0.0662
 1572SOL    HW2 6334   2.557   1.228   2.705 -1.2301 -1.6773  0.1396
 1572SOL    HW3 6335   2.407   1.251   2.699 -1.0240  0.3445  1.9062
 1572SOL    MW4 6336   2.486   1.271   2.730 -0.2172 -0.0334  0.2213
 1573SOL     OW 6337   2.519   1.551   2.668 -0.1639 -0.0999 -0.3151
 1573SOL    HW2 6338   2.438   1.586   2.704  0.1626  0.7757 -0.4032
 1573SOL    HW3 6339   2.520   1.459   2.693  0.7090  0.7839  3.1091
 1573SOL    MW4 6340   2.508   1.544   2.676 -0.0057  0.1322  0.1249
 1574SOL     OW 6341   2.281   1.668   2.747 -0.2943  0.2228  0.1998
 1574SOL    HW2 6342   2.291   1.756   2.711  0.6783 -0.4529 -1.2238
 1574SOL    HW3 6343   2.192   1.642   2.721 -1.2965  1.4697  2.2228
 1574SOL    MW4 6344   2.270   1.676   2.739 -0.2980  0.2983  0.2789
 1575SOL     OW 6345   2.304   1.932   2.666 -0.9680 -0.0700 -0.1297
 1575SOL    HW2 6346   2.223   1.967   2.703 -0.8884  1.1959 -1.1033
 1575SOL    HW3 6347   2.282   1.915   2.574  0.4186  2.2588 -0.9418
 1575SOL    MW4 6348   2.290   1.934   2.659 -0.7744  0.4044 -0.3650
 1576SOL     OW 6349   2.526   2.078   2.782  0.2409 -0.3900 -0.3906
 1576SOL    HW2 6350   2.527   2.164   2.739 -2.5244  0.2639  0.7414
 1576SOL    HW3 6351   2.455   2.031   2.740 -0.3388 -0.9387  1.1447
 1576SOL    MW4 6352   2.517   2.083   2.771 -0.2003 -0.3762 -0.0389
 1577SOL     OW 6353   2.504   2.305   2.631  0.3079  0.4629 -0.1393
 1577SOL    HW2 6354   2.575   2.365   2.654  1.6648 -1.1054 -0.1112
 1577SOL    HW3 6355   2.510   2.295   2.536 -0.3103  0.8528 -0.2219
 1577SOL    MW4 6356   2.514   2.311   2.622  0.4053  0.3076 -0.1469
 1578SOL     OW 6357   2.300   2.439   2.758 -0.3351  0.1184 -0.0916
 1578SOL    HW2 6358   2.288   2.414   2.850  0.9596 -0.4971 -0.0716
 1578SOL    HW3 6359   2.361   2.373   2.723  0.4215  1.2586 -0.9685
 1578SOL    MW4 6360   2.307   2.427   2.765 -0.0646  0.1876 -0.2048
 1579SOL     OW 6361   2.276   2.702   2.590  0.3913  0.2448  0.0850
 1579SOL    HW2 6362   2.337   2.764   2.629 -2.1587  2.2927  0.9433
 1579SOL    HW3 6363   2.286   2.623   2.643  0.6797  1.3127  1.6772
 1579SOL    MW4 6364   2.285   2.700   2.603  0.0927  0.6559  0.4082
 1580SOL     OW 6365   2.454   2.849   2.735  0.2241 -0.0204  0.6986
 1580SOL    HW2 6366   2.527   2.796   2.701 -0.8794 -1.5636  0.6902
 1580SOL    HW3 6367   2.468   2.935   2.697  1.5409 -0.5387 -0.0394
 1580SOL    MW4 6368   2.466   2.853   2.726  0.2525 -0.2923  0.6001
 1581SOL     OW 6369   2.477   3.120   2.632  0.1344 -0.1166 -0.0048
 1581SOL    HW2 6370   2.392   3.158   2.655  0.4805 -0.1552  1.3698
 1581SOL    HW3 6371   2.489   3.143   2.540 -1.1353  0.3314 -0.0663
 1581SOL    MW4 6372   2.467   3.128   2.623  0.0126 -0.0627  0.1686
 1582SOL     OW 6373   2.232   3.240   2.697 -0.0812 -0.2259 -0.0360
 1582SOL    HW2 6374   2.242   3.223   2.791 -0.2421 -0.0345  0.0153
 1582SOL    HW3 6375   2.158   3.186   2.670 -1.4802  1.4424  0.4068
 1582SOL    MW4 6376   2.224   3.231   2.706 -0.2871  0.0196  0.0293
 1583SOL     OW 6377   2.223   3.498   2.596  0.0143  0.2115  0.1600
 1583SOL    HW2 6378   2.305   3.520   2.642 -0.2516  0.5041  0.4984
 1583SOL    HW3 6379   2.209   3.405   2.614  0.7775 -0.0784 -0.6947
 1583SOL    MW4 6380   2.232   3.489   2.604  0.0799  0.2122  0.0918
 1584SOL     OW 6381   2.445   3.562   2.734 -0.5331  0.0819 -0.1801
 1584SOL    HW2 6382   2.443   3.560   2.829 -0.9707 -0.5621 -0.1998
 1584SOL    HW3 6383   2.444   3.655   2.711 -1.6185  0.2213  0.4146
 1584SOL    MW4 6384   2.445   3.574   2.743 -0.7339  0.0153 -0.1042
 1585SOL     OW 6385   2.469   3.819   2.649 -0.1349 -0.3155 -0.2474
 1585SOL    HW2 6386   2.546   3.860   2.689  0.4764 -1.4391 -0.2440
 1585SOL    HW3 6387   2.395   3.872   2.678  0.7834  1.7297 -1.5508
 1585SOL    MW4 6388   2.469   3.831   2.658  0.0668 -0.1941 -0.4189
 1586SOL     OW 6389   2.252   3.990   2.727  0.7381  0.0395 -0.1342
 1586SOL    HW2 6390   2.243   3.991   2.822  0.5534 -0.1708 -0.1511
 1586SOL    HW3 6391   2.169   3.956   2.695  0.0384  1.9886 -0.4519
 1586SOL    MW4 6392   2.240   3.986   2.735  0.6213  0.2687 -0.1783
 1587SOL     OW 6393   2.262   4.262   2.631  0.1950  0.4219  0.3364
 1587SOL    HW2 6394   2.279   4.172   2.661  1.2038  0.2871 -0.6332
 1587SOL    HW3 6395   2.180   4.286   2.675  1.0728 -0.1700  2.3464
 1587SOL    MW4 6396   2.253   4.253   2.641  0.4437  0.3257  0.4735
 1588SOL     OW 6397   2.476   4.400   2.747 -0.2878 -0.4484 -0.3139
 1588SOL    HW2 6398   2.402   4.351   2.710 -0.3432  0.1557 -1.0272
 1588SOL    HW3 6399   2.477   4.482   2.698  1.0963 -0.6055 -0.5656
 1588SOL    MW4 6400   2.466   4.405   2.736 -0.1123 -0.3896 -0.4416
 1589SOL     OW 6401   2.894   4.634   2.634  0.4638 -0.0252  0.1905
 1589SOL    HW2 6402   2.965   4.674   2.685  0.3773  0.8670 -0.3778
 1589SOL    HW3 6403   2.926   4.635   2.544  0.0690 -0.3940  0.0466
 1589SOL    MW4 6404   2.908   4.640   2.629  0.4003  0.0439  0.0963
 1590SOL     OW 6405   2.710   0.158   2.733 -0.3496 -0.1465  0.0685
 1590SOL    HW2 6406   2.716   0.142   2.828  1.2403  2.0975  0.3827
 1590SOL    HW3 6407   2.757   0.084   2.694  0.9099  0.0623  1.1370
 1590SOL    MW4 6408   2.717   0.146   2.741  0.0262  0.1771  0.2511
 1591SOL     OW 6409   2.726   0.427   2.647  0.0358  0.3560 -0.1063
 1591SOL    HW2 6410   2.719   0.339   2.683  1.0939 -0.1158 -1.0255
 1591SOL    HW3 6411   2.651   0.474   2.684 -0.2567 -0.7838  0.7772
 1591SOL    MW4 6412   2.715   0.422   2.657  0.1366  0.1434 -0.1109
 1592SOL     OW 6413   2.932   0.521   2.794  0.4168 -0.0720 -0.2849
 1592SOL    HW2 6414   2.951   0.608   2.759  0.1218 -0.2723 -0.9714
 1592SOL    HW3 6415   2.854   0.493   2.746  1.5140 -1.4243 -1.3484
 1592SOL    MW4 6416   2.924   0.529   2.783  0.5226 -0.2767 -0.5159
 1593SOL     OW 6417   2.943   0.755   2.647  0.1016  0.0086 -0.1505
 1593SOL    HW2 6418   3.008   0.814   2.684  0.0265 -0.4659  0.7504
 1593SOL    HW3 6419   2.863   0.808   2.643  0.1404  0.1030  0.2618
 1593SOL    MW4 6420   2.941   0.769   2.651  0.0970 -0.0415  0.0229
 1594SOL     OW 6421   2.703   0.867   2.767  0.4112  0.3311 -0.4811
 1594SOL    HW2 6422   2.715   0.855   2.861  1.2687  0.8139 -0.5308
 1594SOL    HW3 6423   2.610   0.846   2.753  0.4970 -0.6571  0.3135
 1594SOL    MW4 6424   2.692   0.863   2.778  0.5355  0.2643 -0.3829
 1595SOL     OW 6425   2.707   1.140   2.640  0.1106 -0.5508  0.3029
 1595SOL    HW2 6426   2.768   1.186   2.697 -0.3883  0.2765  0.1860
 1595SOL    HW3 6427   2.714   1.048   2.666  2.3900 -0.6770 -0.6379
 1595SOL    MW4 6428   2.716   1.134   2.651  0.3457 -0.4584  0.1633
 1596SOL     OW 6429   2.887   1.285   2.770 -0.5404  0.7811  0.1882
 1596SOL    HW2 6430   2.887   1.303   2.864  1.4242  1.6733  0.0287
 1596SOL    HW3 6431   2.967   1.235   2.755 -1.1619  0.0925 -0.9204
 1596SOL    MW4 6432   2.898   1.280   2.781 -0.3631  0.8079  0.0210
 1597SOL     OW 6433   2.936   1.531   2.678  0.4087  0.4861  0.1690
 1597SOL    HW2 6434   2.863   1.586   2.706  0.0207 -0.3521  0.8233
 1597SOL    HW3 6435   2.901   1.442   2.681  1.3715  0.1073  0.2300
 1597SOL    MW4 6436   2.922   1.527   2.682  0.4847  0.3256  0.2635
 1598SOL     OW 6437   2.733   1.691   2.789  0.2553  0.0976 -0.0486
 1598SOL    HW2 6438   2.714   1.686   2.883  0.6967 -0.0384  0.0348
 1598SOL    HW3 6439   2.661   1.643   2.747 -0.6245  1.2113  0.1323
 1598SOL    MW4 6440   2.721   1.684   2.796  0.1974  0.2265 -0.0138
 1599SOL     OW 6441   2.721   1.910   2.635 -0.1239  0.3192 -0.2468
 1599SOL    HW2 6442   2.722   1.828   2.685 -1.6217  0.6292  0.3189
 1599SOL    HW3 6443   2.642   1.955   2.665 -0.5443  0.9283 -2.2433
 1599SOL    MW4 6444   2.710   1.905   2.646 -0.3769  0.4405 -0.4356
 1600SOL     OW 6445   2.948   2.059   2.724 -0.6632 -0.1828  0.2511
 1600SOL    HW2 6446   2.944   2.139   2.671 -1.1594  0.3053  1.0196
 1600SOL    HW3 6447   2.874   2.007   2.693 -0.3913 -0.3050 -0.1921
 1600SOL    MW4 6448   2.937   2.063   2.713 -0.6926 -0.1347  0.2942
 1601SOL     OW 6449   2.938   2.317   2.593  0.3175 -0.2146  0.2514
 1601SOL    HW2 6450   3.007   2.361   2.643  0.4384  0.1073 -0.1908
 1601SOL    HW3 6451   2.857   2.362   2.618  0.4791  0.4482 -0.4116
 1601SOL    MW4 6452   2.936   2.329   2.603  0.3548 -0.0844  0.1059
 1602SOL     OW 6453   2.722   2.456   2.673 -0.4400 -0.1765 -0.1554
 1602SOL    HW2 6454   2.732   2.446   2.768 -0.1578 -1.5535 -0.3166
 1602SOL    HW3 6455   2.706   2.549   2.660 -0.6677 -0.0118  1.2631
 1602SOL    MW4 6456   2.721   2.467   2.684 -0.4327 -0.3364  0.0103
 1603SOL     OW 6457   2.677   2.717   2.643 -0.3705  0.0846 -0.1004
 1603SOL    HW2 6458   2.762   2.754   2.665 -1.4134  1.4681  1.6853
 1603SOL    HW3 6459   2.677   2.711   2.547  1.7622 -0.0459 -0.1104
 1603SOL    MW4 6460   2.688   2.721   2.633 -0.2267  0.2499  0.1340
 1604SOL     OW 6461   2.913   2.849   2.739  0.5918  0.1349  0.4800
 1604SOL    HW2 6462   2.894   2.861   2.832  0.8329  2.0889  0.3065
 1604SOL    HW3 6463   2.926   2.938   2.706  0.5197 -0.5376 -1.4200
 1604SOL    MW4 6464   2.912   2.863   2.747  0.6139  0.3040  0.2062
 1605SOL     OW 6465   2.936   3.109   2.640 -0.1561 -0.3965 -0.8339
 1605SOL    HW2 6466   2.868   3.161   2.683 -0.0402 -0.7409 -0.2257
 1605SOL    HW3 6467   2.914   3.112   2.547  0.0962  1.1132 -0.8611
 1605SOL    MW4 6468   2.924   3.116   2.634 -0.1075 -0.2427 -0.7572
 1606SOL     OW 6469   2.701   3.218   2.758  0.2886 -0.1118  0.3371
 1606SOL    HW2 6470   2.698   3.307   2.725 -0.4896  0.0173  0.7366
 1606SOL    HW3 6471   2.622   3.176   2.723  0.6886 -0.6666  0.0877
 1606SOL    MW4 6472   2.690   3.224   2.749  0.2387 -0.1676  0.3569
 1607SOL     OW 6473   2.701   3.466   2.648 -0.2340  0.0032  0.0624
 1607SOL    HW2 6474   2.616   3.501   2.673 -0.5621 -0.1305 -0.8670
 1607SOL    HW3 6475   2.709   3.485   2.555 -0.1871 -1.9512 -0.3501
 1607SOL    MW4 6476   2.691   3.473   2.639 -0.2708 -0.2723 -0.1142
 1608SOL     OW 6477   2.927   3.583   2.751 -0.1852  0.2972 -0.2925
 1608SOL    HW2 6478   2.927   3.584   2.847 -1.8673  1.7739 -0.2906
 1608SOL    HW3 6479   2.846   3.538   2.728 -0.4816  1.1824 -1.0111
 1608SOL    MW4 6480   2.917   3.577   2.761 -0.4458  0.6089 -0.3870
 1609SOL     OW 6481   2.917   3.850   2.632  0.4590 -0.0068  0.0584
 1609SOL    HW2 6482   2.990   3.890   2.678 -0.9943  1.0183  1.5276
 1609SOL    HW3 6483   2.919   3.758   2.658  0.6412  0.2185  0.8378
 1609SOL    MW4 6484   2.927   3.843   2.641  0.2911  0.1581  0.3550
 1610SOL     OW 6485   2.687   3.978   2.739  0.6032  0.3006  0.2822
 1610SOL    HW2 6486   2.680   4.062   2.695 -1.1348 -0.1979 -0.4580
 1610SOL    HW3 6487   2.766   3.938   2.703  1.3202  1.5228  0.4851
 1610SOL    MW4 6488   2.696   3.984   2.728  0.4687  0.3960  0.2115
 1611SOL     OW 6489   2.679   4.256   2.625 -0.0789  0.0738  0.0968
 1611SOL    HW2 6490   2.756   4.295   2.668 -0.7406  0.0306  1.3184
 1611SOL    HW3 6491   2.605   4.305   2.660 -0.6503 -0.1116 -0.8366
 1611SOL    MW4 6492   2.680   4.268   2.635 -0.2418  0.0439  0.1347
 1612SOL     OW 6493   2.915   4.382   2.731 -0.2319 -0.1264  0.1600
 1612SOL    HW2 6494   2.918   4.391   2.827 -0.1080 -1.6975  0.3161
 1612SOL    HW3 6495   2.906   4.472   2.699  1.0747  0.5351  1.5875
 1612SOL    MW4 6496   2.914   4.395   2.740 -0.0432 -0.2465  0.3691
 1613SOL     OW 6497   3.349   4.665   2.620  0.6443 -0.1854  0.0767
 1613SOL    HW2 6498   3.356   4.581   2.666 -0.3998  0.0289  0.6425
 1613SOL    HW3 6499   3.265   4.701   2.648  0.8635  0.8322 -0.5372
 1613SOL    MW4 6500   3.339   4.659   2.630  0.5357 -0.0224  0.0703
 1614SOL     OW 6501   3.110   0.086   2.734 -0.4910  0.1079  0.2970
 1614SOL    HW2 6502   3.139   0.063   2.822  1.3086 -0.1301 -0.3382
 1614SOL    HW3 6503   3.110   0.182   2.733  0.6754  0.1047  0.1708
 1614SOL    MW4 6504   3.114   0.096   2.745 -0.0997  0.0761  0.1967
 1615SOL     OW 6505   3.129   0.352   2.675 -0.1885  0.1936  0.3778
 1615SOL    HW2 6506   3.069   0.422   2.699 -0.7640 -0.1275 -0.0949
 1615SOL    HW3 6507   3.142   0.363   2.580 -1.1553 -0.9982  0.0954
 1615SOL    MW4 6508   3.123   0.362   2.665 -0.3920 -0.0060  0.2780
 1616SOL     OW 6509   3.362   0.472   2.762  0.4209  0.2765 -0.2169
 1616SOL    HW2 6510   3.353   0.566   2.746  0.2807  0.3854  0.4821
 1616SOL    HW3 6511   3.284   0.434   2.722  0.8296  0.3747 -1.1268
 1616SOL    MW4 6512   3.350   0.480   2.754  0.4563  0.3038 -0.2444
 1617SOL     OW 6513   3.364   0.723   2.669 -0.0704  0.5089  0.1510
 1617SOL    HW2 6514   3.428   0.790   2.692  0.3448  0.4474 -0.8119
 1617SOL    HW3 6515   3.359   0.726   2.574  0.0726 -0.9390  0.0913
 1617SOL    MW4 6516   3.371   0.732   2.660  0.0033  0.3097  0.0162
 1618SOL     OW 6517   3.143   0.879   2.788 -0.5079 -0.0259  0.4895
 1618SOL    HW2 6518   3.175   0.884   2.878  0.1245 -0.0129  0.2692
 1618SOL    HW3 6519   3.210   0.829   2.742 -0.1989  1.0473 -0.2532
 1618SOL    MW4 6520   3.156   0.873   2.793 -0.3839  0.1174  0.3624
 1619SOL     OW 6521   3.104   1.127   2.669 -0.1250 -0.2128  0.1431
 1619SOL    HW2 6522   3.128   1.044   2.711  1.1936 -0.6313 -1.3977
 1619SOL    HW3 6523   3.126   1.115   2.577 -1.0651  1.4319 -0.3177
 1619SOL    MW4 6524   3.110   1.115   2.663 -0.0756 -0.0511 -0.1211
 1620SOL     OW 6525   3.344   1.265   2.725 -0.4131  0.0075 -0.3943
 1620SOL    HW2 6526   3.369   1.252   2.817  0.2510 -0.5515 -0.6467
 1620SOL    HW3 6527   3.266   1.211   2.714  1.3266 -2.4788 -0.9750
 1620SOL    MW4 6528   3.337   1.256   2.736 -0.0958 -0.3945 -0.5045
 1621SOL     OW 6529   3.357   1.537   2.633 -0.2325 -0.0283 -0.1887
 1621SOL    HW2 6530   3.278   1.580   2.664  0.5820  0.4450  1.2469
 1621SOL    HW3 6531   3.358   1.452   2.678  1.2620  0.9069  1.5980
 1621SOL    MW4 6532   3.347   1.531   2.643  0.0722  0.1575  0.2363
 1622SOL     OW 6533   3.163   1.657   2.776 -0.0221  0.2102  0.3283
 1622SOL    HW2 6534   3.160   1.743   2.735 -0.3203 -0.2810 -0.6928
 1622SOL    HW3 6535   3.085   1.612   2.744  0.4839 -0.6812  0.3042
 1622SOL    MW4 6536   3.152   1.662   2.766  0.0052  0.0279  0.1903
 1623SOL     OW 6537   3.169   1.912   2.649  0.3476  0.1104  0.3033
 1623SOL    HW2 6538   3.247   1.967   2.657  0.4972  0.0193 -0.4773
 1623SOL    HW3 6539   3.099   1.963   2.690  0.4737  0.9024 -0.4519
 1623SOL    MW4 6540   3.170   1.926   2.655  0.3839  0.2029  0.1009
 1624SOL     OW 6541   3.400   2.055   2.727  0.3086  0.7992 -0.2252
 1624SOL    HW2 6542   3.393   2.057   2.822 -1.3674  0.9145 -0.3413
 1624SOL    HW3 6543   3.391   2.146   2.700 -1.2488  0.5347 -0.6225
 1624SOL    MW4 6544   3.398   2.067   2.736 -0.1178  0.7794 -0.2930
 1625SOL     OW 6545   3.366   2.329   2.664  0.2989  0.1192  0.2829
 1625SOL    HW2 6546   3.445   2.367   2.703  0.7473 -0.8854  0.3671
 1625SOL    HW3 6547   3.385   2.326   2.570  0.3092 -0.0093  0.2898
 1625SOL    MW4 6548   3.379   2.333   2.657  0.3595 -0.0303  0.2952
 1626SOL     OW 6549   3.140   2.464   2.740 -0.1799 -0.0705  0.5416
 1626SOL    HW2 6550   3.157   2.556   2.720 -0.1001  0.2777  2.1541
 1626SOL    HW3 6551   3.224   2.420   2.724  0.0637  0.3066  0.7734
 1626SOL    MW4 6552   3.154   2.471   2.735 -0.1376  0.0253  0.7849
 1627SOL     OW 6553   3.153   2.733   2.660 -0.0090 -0.0813  0.2944
 1627SOL    HW2 6554   3.220   2.783   2.706 -1.3265 -0.7181  2.9918
 1627SOL    HW3 6555   3.071   2.778   2.680 -0.8512 -1.5949  0.3132
 1627SOL    MW4 6556   3.151   2.745   2.669 -0.2940 -0.3648  0.6528
 1628SOL     OW 6557   3.417   2.846   2.752  0.0147  0.0308  0.4978
 1628SOL    HW2 6558   3.420   2.833   2.846 -0.8740 -0.8605  0.4119
 1628SOL    HW3 6559   3.493   2.798   2.718  1.6221  2.1540  0.9234
 1628SOL    MW4 6560   3.428   2.838   2.760  0.1094  0.1934  0.5424
 1629SOL     OW 6561   3.406   3.096   2.637 -0.1034  0.1016 -0.9841
 1629SOL    HW2 6562   3.415   3.005   2.665  0.2908  0.2405 -0.6518
 1629SOL    HW3 6563   3.406   3.091   2.541  0.4316 -0.2080 -0.9732
 1629SOL    MW4 6564   3.407   3.083   2.628  0.0191  0.0792 -0.9389
 1630SOL     OW 6565   3.179   3.214   2.735 -0.3279  0.1719 -0.0941
 1630SOL    HW2 6566   3.244   3.163   2.687 -0.3614  1.7466 -1.8994
 1630SOL    HW3 6567   3.095   3.177   2.708 -0.3162  0.5867 -0.7185
 1630SOL    MW4 6568   3.176   3.202   2.725 -0.3307  0.4349 -0.4148
 1631SOL     OW 6569   3.163   3.485   2.659  0.2118  0.3241  0.4144
 1631SOL    HW2 6570   3.171   3.399   2.701  1.0702  1.1848  2.0364
 1631SOL    HW3 6571   3.087   3.525   2.701  1.0584  1.1804  1.1543
 1631SOL    MW4 6572   3.154   3.479   2.670  0.4368  0.5507  0.7265
 1632SOL     OW 6573   3.396   3.618   2.739 -0.0633  0.6754 -0.0118
 1632SOL    HW2 6574   3.404   3.593   2.831  0.9355 -2.0119 -0.7713
 1632SOL    HW3 6575   3.307   3.592   2.714 -0.5432  1.9525  0.3271
 1632SOL    MW4 6576   3.385   3.611   2.748  0.0052  0.4895 -0.0675
 1633SOL     OW 6577   3.381   3.893   2.677 -0.4270 -0.2335  0.1381
 1633SOL    HW2 6578   3.390   3.804   2.711  1.7568 -0.1857 -0.2027
 1633SOL    HW3 6579   3.387   3.883   2.582 -0.1159  0.2720  0.1014
 1633SOL    MW4 6580   3.383   3.880   2.669 -0.0980 -0.1607  0.0882
 1634SOL     OW 6581   3.126   3.978   2.750 -0.2972  0.5276  0.1324
 1634SOL    HW2 6582   3.120   4.071   2.729  0.7660  0.7624  0.8105
 1634SOL    HW3 6583   3.214   3.953   2.722 -1.4066 -0.8573 -2.2350
 1634SOL    MW4 6584   3.137   3.987   2.744 -0.3035  0.3757 -0.0904
 1635SOL     OW 6585   3.160   4.266   2.656  0.3483  0.5951 -0.2836
 1635SOL    HW2 6586   3.082   4.312   2.686  0.2349  0.1640  0.0757
 1635SOL    HW3 6587   3.157   4.273   2.560 -0.5142 -0.0799 -0.3022
 1635SOL    MW4 6588   3.150   4.273   2.647  0.2196  0.4492 -0.2387
 1636SOL     OW 6589   3.376   4.407   2.759 -0.3423  0.3202  0.5617
 1636SOL    HW2 6590   3.385   4.387   2.852 -1.2486  0.5471  0.7107
 1636SOL    HW3 6591   3.289   4.374   2.736  1.0414 -2.3863 -0.9156
 1636SOL    MW4 6592   3.366   4.400   2.769 -0.2794 -0.0072  0.3867
 1637SOL     OW 6593   3.806   4.653   2.627 -0.2445  0.1437  0.2587
 1637SOL    HW2 6594   3.817   4.577   2.684  0.4997  1.0193  1.3017
 1637SOL    HW3 6595   3.731   4.700   2.665 -0.7598 -0.1131 -0.4362
 1637SOL    MW4 6596   3.798   4.650   2.640 -0.2143  0.2260  0.3047
 1638SOL     OW 6597   3.589   0.125   2.741 -0.1555  0.1276  0.0864
 1638SOL    HW2 6598   3.586   0.217   2.714  1.0643  0.2662  0.4105
 1638SOL    HW3 6599   3.511   0.086   2.701  0.1778  0.9354 -1.4097
 1638SOL    MW4 6600   3.578   0.132   2.732  0.0494  0.2525 -0.0682
 1639SOL     OW 6601   3.617   0.400   2.665  0.1085 -0.3909  0.3145
 1639SOL    HW2 6602   3.685   0.461   2.693  0.3591  0.0326 -1.1741
 1639SOL    HW3 6603   3.536   0.440   2.698  0.4355 -0.1656  0.8618
 1639SOL    MW4 6604   3.615   0.414   2.673  0.1845 -0.3053  0.1905
 1640SOL     OW 6605   3.851   0.545   2.724  0.1460  0.1814 -0.0231
 1640SOL    HW2 6606   3.852   0.528   2.819 -1.3287  0.2643  0.0149
 1640SOL    HW3 6607   3.916   0.483   2.689  0.0012 -0.5348  0.9269
 1640SOL    MW4 6608   3.860   0.534   2.732 -0.0677  0.0979  0.1070
 1641SOL     OW 6609   3.826   0.807   2.645 -0.0549 -0.3042  0.4345
 1641SOL    HW2 6610   3.732   0.820   2.656 -0.1445 -0.9170  0.3824
 1641SOL    HW3 6611   3.842   0.717   2.672 -0.1138 -1.5406 -3.3569
 1641SOL    MW4 6612   3.816   0.797   2.650 -0.0746 -0.5482 -0.0722
 1642SOL     OW 6613   3.574   0.896   2.733  0.1824 -0.1587 -0.2766
 1642SOL    HW2 6614   3.600   0.896   2.825  0.0576  1.0462 -0.2410
 1642SOL    HW3 6615   3.583   0.986   2.704  0.3025 -0.5372 -1.4782
 1642SOL    MW4 6616   3.578   0.908   2.741  0.1817 -0.0497 -0.4306
 1643SOL     OW 6617   3.602   1.161   2.639  0.0589  0.1758 -0.2015
 1643SOL    HW2 6618   3.668   1.213   2.685 -0.3182 -0.3353  0.9513
 1643SOL    HW3 6619   3.519   1.201   2.664 -0.1336  0.1018 -0.7209
 1643SOL    MW4 6620   3.600   1.173   2.649 -0.0162  0.0985 -0.1178
 1644SOL     OW 6621   3.801   1.314   2.745 -0.6325  0.3498 -0.0509
 1644SOL    HW2 6622   3.879   1.279   2.702 -0.7091 -0.2548  0.3010
 1644SOL    HW3 6623   3.790   1.402   2.707 -0.1649  0.1809 -0.5779
 1644SOL    MW4 6624   3.810   1.321   2.735 -0.5808  0.2477 -0.0739
 1645SOL     OW 6625   3.786   1.594   2.624 -0.1495  0.1550  0.2305
 1645SOL    HW2 6626   3.861   1.635   2.668 -0.4090  0.7008  0.1594
 1645SOL    HW3 6627   3.710   1.639   2.659 -0.3171  1.0502 -1.2631
 1645SOL    MW4 6628   3.786   1.606   2.635 -0.2058  0.3452  0.0236
 1646SOL     OW 6629   3.562   1.659   2.773  0.0371  0.0580 -0.7226
 1646SOL    HW2 6630   3.568   1.747   2.734  0.3276  0.4206  0.1202
 1646SOL    HW3 6631   3.487   1.619   2.730 -0.8985  1.1987 -0.1960
 1646SOL    MW4 6632   3.553   1.665   2.762 -0.0479  0.2563 -0.5419
 1647SOL     OW 6633   3.601   1.898   2.634 -0.1010 -0.0151  0.5696
 1647SOL    HW2 6634   3.536   1.959   2.667 -0.1556  0.6378 -0.6874
 1647SOL    HW3 6635   3.593   1.905   2.538  0.3703 -1.4690  0.4146
 1647SOL    MW4 6636   3.591   1.907   2.625 -0.0460 -0.1208  0.3831
 1648SOL     OW 6637   3.825   2.036   2.737 -0.0569  0.6279  0.2610
 1648SOL    HW2 6638   3.745   1.993   2.707 -0.1469  1.4626 -0.7218
 1648SOL    HW3 6639   3.894   2.003   2.679  0.4489 -0.6145  1.5423
 1648SOL    MW4 6640   3.824   2.026   2.725 -0.0019  0.5744  0.3002
 1649SOL     OW 6641   3.799   2.304   2.675 -0.2312 -0.1113 -0.2084
 1649SOL    HW2 6642   3.812   2.213   2.699  3.6641  0.1897 -0.9229
 1649SOL    HW3 6643   3.784   2.302   2.580 -1.1296 -0.0812 -0.0692
 1649SOL    MW4 6644   3.799   2.292   2.665  0.1643 -0.0675 -0.2842
 1650SOL     OW 6645   3.589   2.462   2.775 -0.5614 -0.2392  0.6764
 1650SOL    HW2 6646   3.605   2.465   2.869 -0.1638  0.7792  0.5854
 1650SOL    HW3 6647   3.655   2.401   2.742 -0.3519 -0.1849  0.9897
 1650SOL    MW4 6648   3.600   2.455   2.783 -0.4811 -0.0975  0.7055
 1651SOL     OW 6649   3.640   2.707   2.659  0.2357  0.2548 -0.3437
 1651SOL    HW2 6650   3.622   2.622   2.700  1.6880 -0.1350 -0.5070
 1651SOL    HW3 6651   3.640   2.689   2.565  0.2472  0.5031 -0.3922
 1651SOL    MW4 6652   3.638   2.693   2.652  0.4287  0.2360 -0.3715
 1652SOL     OW 6653   3.857   2.841   2.779  0.4083 -0.2391  0.4878
 1652SOL    HW2 6654   3.942   2.821   2.739  0.7796  1.0180  0.6225
 1652SOL    HW3 6655   3.796   2.780   2.738  1.0022  0.1982 -1.0656
 1652SOL    MW4 6656   3.860   2.830   2.769  0.5360 -0.0153  0.3004
 1653SOL     OW 6657   3.820   3.073   2.640 -0.5370  0.1077 -0.6143
 1653SOL    HW2 6658   3.740   3.110   2.678  0.6492  1.0584  1.0558
 1653SOL    HW3 6659   3.835   2.992   2.688  0.7004  1.0696  0.7106
 1653SOL    MW4 6660   3.812   3.067   2.651 -0.2174  0.3603 -0.2191
 1654SOL     OW 6661   3.601   3.233   2.764  0.3938  0.4808 -0.1424
 1654SOL    HW2 6662   3.605   3.321   2.727 -0.8285  0.6064 -0.0173
 1654SOL    HW3 6663   3.536   3.187   2.710  1.5270 -0.5531 -0.6389
 1654SOL    MW4 6664   3.593   3.239   2.752  0.3819  0.3610 -0.1915
 1655SOL     OW 6665   3.612   3.473   2.637  0.4103 -0.1036  0.1294
 1655SOL    HW2 6666   3.680   3.540   2.643  0.5223 -0.0167 -1.8609
 1655SOL    HW3 6667   3.533   3.516   2.670  0.5393  0.9379 -0.8812
 1655SOL    MW4 6668   3.611   3.488   2.642  0.4420  0.0453 -0.2663
 1656SOL     OW 6669   3.802   3.648   2.734 -0.1724  0.0885  0.1447
 1656SOL    HW2 6670   3.886   3.607   2.711  0.7132  1.2577  1.1933
 1656SOL    HW3 6671   3.814   3.741   2.713 -0.8504  0.4342  1.2597
 1656SOL    MW4 6672   3.815   3.655   2.728 -0.1447  0.2882  0.4299
 1657SOL     OW 6673   3.840   3.883   2.613 -0.1465  0.0321  0.3850
 1657SOL    HW2 6674   3.909   3.932   2.658  0.4553  0.6025 -1.1405
 1657SOL    HW3 6675   3.760   3.931   2.631  0.1858  0.5997  0.3388
 1657SOL    MW4 6676   3.838   3.896   2.621 -0.0231  0.1824  0.1776
 1658SOL     OW 6677   3.632   4.022   2.733 -0.0792 -0.3107  0.5455
 1658SOL    HW2 6678   3.631   4.113   2.703 -1.3911  0.2185  2.1051
 1658SOL    HW3 6679   3.544   3.989   2.712  0.4167 -1.2539 -0.0942
 1658SOL    MW4 6680   3.620   4.029   2.726 -0.1869 -0.3657  0.6666
 1659SOL     OW 6681   3.626   4.287   2.656  0.2234 -0.4930 -0.4001
 1659SOL    HW2 6682   3.543   4.324   2.688  0.4832 -0.4679  0.2429
 1659SOL    HW3 6683   3.618   4.291   2.561 -1.1118 -1.8116 -0.3614
 1659SOL    MW4 6684   3.614   4.293   2.648  0.0818 -0.6638 -0.3102
 1660SOL     OW 6685   3.839   4.422   2.778  0.4278 -0.3008 -0.0638
 1660SOL    HW2 6686   3.915   4.373   2.746  0.2846  0.0216 -0.9094
 1660SOL    HW3 6687   3.764   4.379   2.736  0.3072  0.7018 -0.9003
 1660SOL    MW4 6688   3.839   4.410   2.768  0.3927 -0.1259 -0.2859
 1661SOL     OW 6689   4.268   4.648   2.640 -0.3622  0.1965  0.3995
 1661SOL    HW2 6690   4.187   4.691   2.667  0.5447  2.5406 -0.4022
 1661SOL    HW3 6691   4.338   4.703   2.678  0.8407 -0.7396 -0.4204
 1661SOL    MW4 6692   4.267   4.661   2.648 -0.0834  0.3824  0.1857
 1662SOL     OW 6693   4.037   0.099   2.729 -0.0019 -0.1359 -0.2219
 1662SOL    HW2 6694   4.019   0.080   2.821 -1.4761  0.4391 -0.3701
 1662SOL    HW3 6695   3.953   0.082   2.685  0.5286  0.1690 -1.3631
 1662SOL    MW4 6696   4.023   0.094   2.735 -0.1264 -0.0198 -0.3920
 1663SOL     OW 6697   4.078   0.379   2.647 -0.7470  0.3867 -0.2134
 1663SOL    HW2 6698   4.071   0.285   2.661  1.3557  0.1342 -0.6316
 1663SOL    HW3 6699   4.072   0.389   2.552  2.1723  0.3297 -0.4370
 1663SOL    MW4 6700   4.076   0.368   2.636 -0.0844  0.3458 -0.2980
 1664SOL     OW 6701   4.258   0.536   2.766  0.0625 -0.6034 -0.2624
 1664SOL    HW2 6702   4.199   0.469   2.731 -0.7627 -0.5800  1.0287
 1664SOL    HW3 6703   4.265   0.514   2.860  0.8443  0.3360 -0.0933
 1664SOL    MW4 6704   4.251   0.524   2.774  0.0563 -0.4763 -0.0696
 1665SOL     OW 6705   4.231   0.777   2.667 -0.5171  0.1769  0.1048
 1665SOL    HW2 6706   4.233   0.693   2.714 -0.9958 -0.1181 -0.4014
 1665SOL    HW3 6707   4.226   0.753   2.575 -2.4896  0.7513  0.0391
 1665SOL    MW4 6708   4.231   0.763   2.661 -0.8411  0.2137  0.0296
 1666SOL     OW 6709   4.022   0.939   2.765 -0.1442 -0.1846  0.0362
 1666SOL    HW2 6710   4.097   0.885   2.739  0.3026  0.3863  0.1204
 1666SOL    HW3 6711   3.947   0.899   2.721  0.3440 -0.2428 -0.7655
 1666SOL    MW4 6712   4.022   0.926   2.755 -0.0210 -0.1169 -0.0587
 1667SOL     OW 6713   4.028   1.197   2.658 -0.2101  0.4029 -0.5095
 1667SOL    HW2 6714   4.110   1.232   2.692 -0.0722  0.1420 -0.5742
 1667SOL    HW3 6715   4.025   1.107   2.690  0.0473  0.0712 -1.3959
 1667SOL    MW4 6716   4.038   1.190   2.667 -0.1578  0.3248 -0.6351
 1668SOL     OW 6717   4.279   1.295   2.738 -0.0715  0.3233 -0.5806
 1668SOL    HW2 6718   4.263   1.375   2.687 -0.1814 -0.5747 -1.9938
 1668SOL    HW3 6719   4.350   1.251   2.692  0.4997 -0.0380  0.6224
 1668SOL    MW4 6720   4.286   1.300   2.725 -0.0105  0.1571 -0.6082
 1669SOL     OW 6721   4.243   1.551   2.609  0.5077  0.1087  0.4595
 1669SOL    HW2 6722   4.321   1.589   2.651  0.6102  2.1605 -1.5371
 1669SOL    HW3 6723   4.271   1.530   2.520 -0.7002 -0.9320  0.3069
 1669SOL    MW4 6724   4.257   1.553   2.603  0.3614  0.2420  0.1760
 1670SOL     OW 6725   4.029   1.706   2.712  0.4404 -0.7772  0.5596
 1670SOL    HW2 6726   4.060   1.713   2.802  2.1398 -1.7937  0.0875
 1670SOL    HW3 6727   4.088   1.642   2.672 -2.3950 -2.8612 -0.3781
 1670SOL    MW4 6728   4.041   1.698   2.719  0.2899 -1.1864  0.3734
 1671SOL     OW 6729   4.050   1.947   2.588  0.0724  0.3272  0.3385
 1671SOL    HW2 6730   4.114   2.003   2.632  0.3852  0.5449 -0.3767
 1671SOL    HW3 6731   4.058   1.862   2.631  1.2962  0.1741 -0.1719
 1671SOL    MW4 6732   4.060   1.943   2.599  0.2756  0.3357  0.1767
 1672SOL     OW 6733   4.242   2.094   2.720 -0.0006  0.4571  0.0507
 1672SOL    HW2 6734   4.243   2.186   2.691  2.0349  0.5913  0.4303
 1672SOL    HW3 6735   4.331   2.063   2.700 -0.1207 -0.8936  1.5999
 1672SOL    MW4 6736   4.254   2.102   2.713  0.2518  0.2966  0.3052
 1673SOL     OW 6737   4.248   2.350   2.625 -0.1013 -0.3010  0.7389
 1673SOL    HW2 6738   4.177   2.404   2.658  0.4965  0.8882  0.1030
 1673SOL    HW3 6739   4.226   2.333   2.534 -0.0208 -0.6852  0.7900
 1673SOL    MW4 6740   4.236   2.355   2.618 -0.0124 -0.1950  0.6614
 1674SOL     OW 6741   4.033   2.475   2.725 -0.0969  0.4234 -0.4911
 1674SOL    HW2 6742   4.053   2.459   2.818 -0.5336 -1.5007 -0.7282
 1674SOL    HW3 6743   3.957   2.421   2.707  0.1899  0.5379 -2.0734
 1674SOL    MW4 6744   4.026   2.466   2.735 -0.1168  0.1848 -0.7312
 1675SOL     OW 6745   4.047   2.723   2.602  0.1198  0.5863  0.1109
 1675SOL    HW2 6746   4.120   2.760   2.651 -0.7141 -0.0468  1.8616
 1675SOL    HW3 6747   4.033   2.637   2.642 -0.1722 -0.2129 -1.6594
 1675SOL    MW4 6748   4.055   2.716   2.614 -0.0281  0.3972  0.1082
 1676SOL     OW 6749   4.273   2.825   2.728 -0.4830  0.2676 -0.1599
 1676SOL    HW2 6750   4.277   2.818   2.823 -2.9156 -0.5658 -0.0670
 1676SOL    HW3 6751   4.294   2.916   2.709 -0.5063  0.5757  1.2284
 1676SOL    MW4 6752   4.276   2.836   2.738 -0.8068  0.1981  0.0358
 1677SOL     OW 6753   4.269   3.084   2.621 -0.2839  0.4673  0.2073
 1677SOL    HW2 6754   4.193   3.132   2.654 -0.8790 -0.0533 -0.3891
 1677SOL    HW3 6755   4.256   3.081   2.526  0.2342 -0.0525  0.1502
 1677SOL    MW4 6756   4.258   3.090   2.613 -0.2942  0.3302  0.1209
 1678SOL     OW 6757   4.047   3.221   2.712  0.0230  0.0407  0.5114
 1678SOL    HW2 6758   4.048   3.315   2.692  2.0415 -0.0660 -0.0348
 1678SOL    HW3 6759   3.965   3.189   2.676  0.6110  1.0786 -1.7928
 1678SOL    MW4 6760   4.036   3.229   2.705  0.3672  0.1636  0.1354
 1679SOL     OW 6761   4.005   3.485   2.654 -0.2556  0.4117  0.2467
 1679SOL    HW2 6762   3.991   3.477   2.559 -1.2326 -0.1507  0.4418
 1679SOL    HW3 6763   4.094   3.521   2.661 -0.2650  0.6920 -0.8880
 1679SOL    MW4 6764   4.015   3.489   2.642 -0.3858  0.3746  0.1228
 1680SOL     OW 6765   4.250   3.622   2.734 -0.0677  0.1629  0.6201
 1680SOL    HW2 6766   4.245   3.620   2.829 -0.2515  1.5544  0.6371
 1680SOL    HW3 6767   4.324   3.564   2.714  0.5395  0.5600  1.6514
 1680SOL    MW4 6768   4.259   3.614   2.744 -0.0119  0.3989  0.7584
 1681SOL     OW 6769   4.293   3.883   2.639 -0.5926  0.4291 -0.0689
 1681SOL    HW2 6770   4.270   3.798   2.677  0.7004  0.0153 -0.1981
 1681SOL    HW3 6771   4.371   3.911   2.687 -0.4741  1.1147 -0.6482
 1681SOL    MW4 6772   4.300   3.875   2.650 -0.4067  0.4649 -0.1624
 1682SOL     OW 6773   4.061   4.021   2.749 -0.5302  0.7705  0.2260
 1682SOL    HW2 6774   4.068   4.010   2.844 -0.6900 -1.5771 -0.0132
 1682SOL    HW3 6775   4.139   3.978   2.714 -1.9853 -1.0418 -0.8522
 1682SOL    MW4 6776   4.072   4.014   2.757 -0.7434  0.2217  0.0520
 1683SOL     OW 6777   4.068   4.288   2.650 -0.8560 -0.0028 -0.0135
 1683SOL    HW2 6778   4.039   4.290   2.559  0.7042 -1.2301 -0.5777
 1683SOL    HW3 6779   4.047   4.200   2.681 -0.6756  0.1514  0.5694
 1683SOL    MW4 6780   4.062   4.276   2.642 -0.6266 -0.1445 -0.0110
 1684SOL     OW 6781   4.305   4.383   2.745 -0.0789  0.4389  0.0284
 1684SOL    HW2 6782   4.225   4.339   2.718 -0.0084 -0.0386  0.5885
 1684SOL    HW3 6783   4.302   4.468   2.701 -0.3192 -0.0402 -0.8788
 1684SOL    MW4 6784   4.294   4.388   2.736 -0.1011  0.3128 -0.0174
 1685SOL     OW 6785   0.212   4.627   3.124 -0.1683 -0.1229 -0.3592
 1685SOL    HW2 6786   0.228   4.643   3.217  1.2916  0.0780 -0.6442
 1685SOL    HW3 6787   0.141   4.687   3.102 -1.7265 -1.3934  1.0316
 1685SOL    MW4 6788   0.204   4.637   3.134 -0.1812 -0.2646 -0.2129
 1686SOL     OW 6789   4.490   0.136   3.002  0.1432  0.2917  0.3483
 1686SOL    HW2 6790   4.404   0.102   3.028  0.7289 -0.5587  1.2282
 1686SOL    HW3 6791   4.504   0.211   3.059 -0.6323  1.3171 -0.7824
 1686SOL    MW4 6792   4.480   0.141   3.013  0.1178  0.3148  0.3154
 1687SOL     OW 6793   0.001   0.367   3.143 -0.2423 -0.0723  0.0617
 1687SOL    HW2 6794  -0.011   0.382   3.237  0.7799  0.5012  0.1109
 1687SOL    HW3 6795  -0.075   0.410   3.103 -0.7300 -0.3965  0.6322
 1687SOL    MW4 6796  -0.010   0.375   3.150 -0.1718 -0.0394  0.1438
 1688SOL     OW 6797   0.259   0.491   3.047 -0.3307 -0.0610  0.1349
 1688SOL    HW2 6798   0.320   0.433   3.091  0.9714  1.7221  0.7309
 1688SOL    HW3 6799   0.173   0.464   3.078  0.1824 -2.2146 -0.2749
 1688SOL    MW4 6800   0.255   0.480   3.057 -0.0912 -0.1099  0.1595
 1689SOL     OW 6801   0.213   0.752   3.112  0.1179  0.4884 -0.3304
 1689SOL    HW2 6802   0.228   0.753   3.206  0.1707  0.8527 -0.3392
 1689SOL    HW3 6803   0.251   0.670   3.081 -0.0702  0.2788 -0.0078
 1689SOL    MW4 6804   0.220   0.742   3.120  0.1000  0.5088 -0.2892
 1690SOL     OW 6805   4.453   0.886   3.046 -0.0477  0.3773 -0.2471
 1690SOL    HW2 6806   4.538   0.842   3.051  0.4817  1.4505  0.2659
 1690SOL    HW3 6807   4.437   0.898   2.953 -0.0022 -0.5245 -0.3736
 1690SOL    MW4 6808   4.462   0.882   3.035  0.0286  0.3999 -0.1962
 1691SOL     OW 6809   0.007   1.153   3.123 -0.2371  0.5268 -0.2914
 1691SOL    HW2 6810  -0.059   1.202   3.074  1.5506  1.6036 -1.6451
 1691SOL    HW3 6811  -0.010   1.061   3.101 -1.1162  0.8124 -0.8118
 1691SOL    MW4 6812  -0.004   1.147   3.114 -0.1173  0.7066 -0.5386
 1692SOL     OW 6813   0.219   1.297   3.044 -0.0691 -0.2605 -0.0518
 1692SOL    HW2 6814   0.142   1.249   3.073  0.7822 -0.1608  2.5503
 1692SOL    HW3 6815   0.225   1.280   2.950 -2.2333 -1.6955  0.0447
 1692SOL    MW4 6816   0.210   1.289   3.035 -0.2424 -0.4365  0.3045
 1693SOL     OW 6817   0.207   1.577   3.100  0.2073 -0.3764  0.3853
 1693SOL    HW2 6818   0.131   1.606   3.049  1.7736  0.3948 -1.5858
 1693SOL    HW3 6819   0.216   1.484   3.079  0.3228 -0.2631 -0.0747
 1693SOL    MW4 6820   0.198   1.569   3.091  0.4292 -0.2596  0.0648
 1694SOL     OW 6821   4.456   1.670   2.987  0.6214 -0.2859 -0.3227
 1694SOL    HW2 6822   4.395   1.616   3.036  0.6379  0.4341  0.5199
 1694SOL    HW3 6823   4.461   1.752   3.038 -0.1574  0.8763 -2.0895
 1694SOL    MW4 6824   4.449   1.674   3.000  0.5207 -0.0376 -0.4447
 1695SOL     OW 6825   4.468   1.904   3.103 -0.0570  0.2787 -0.3545
 1695SOL    HW2 6826   4.405   1.944   3.043  0.5103  0.4269 -0.8549
 1695SOL    HW3 6827   4.550   1.952   3.087  0.0382  0.4686  0.6931
 1695SOL    MW4 6828   4.470   1.916   3.093  0.0303  0.3233 -0.2823
 1696SOL     OW 6829   0.220   2.054   3.010  0.2134 -0.7720  0.4402
 1696SOL    HW2 6830   0.234   2.146   3.034 -0.6948 -0.6720  0.5994
 1696SOL    HW3 6831   0.202   2.057   2.916  1.7218 -0.9522  0.1344
 1696SOL    MW4 6832   0.219   2.067   3.001  0.2926 -0.7827  0.4208
 1697SOL     OW 6833   0.239   2.329   3.073  0.3953 -0.3966 -0.1651
 1697SOL    HW2 6834   0.220   2.342   3.166 -1.0581  0.9354 -0.6206
 1697SOL    HW3 6835   0.312   2.388   3.055 -1.0759  1.4017 -0.4437
 1697SOL    MW4 6836   0.246   2.339   3.082  0.0094  0.0162 -0.2618
 1698SOL     OW 6837   0.000   2.436   2.944 -0.1533 -0.0415 -0.0167
 1698SOL    HW2 6838  -0.016   2.509   3.003 -0.6852  0.5705 -0.9148
 1698SOL    HW3 6839   0.085   2.400   2.972 -0.3499  0.3170  1.0286
 1698SOL    MW4 6840   0.009   2.441   2.955 -0.2494  0.0865  0.0026
 1699SOL     OW 6841   4.467   2.635   3.133  0.5794 -0.1812  0.0748
 1699SOL    HW2 6842   4.465   2.652   3.227  1.0622  0.3701 -0.0131
 1699SOL    HW3 6843   4.538   2.690   3.100 -0.6764  0.9045 -0.8619
 1699SOL    MW4 6844   4.476   2.644   3.141  0.4778  0.0348 -0.0603
 1700SOL     OW 6845   0.189   2.786   3.026 -0.0440  0.1246  0.3568
 1700SOL    HW2 6846   0.273   2.759   3.063  0.7881  0.3545 -1.3032
 1700SOL    HW3 6847   0.205   2.793   2.932 -1.8409  0.4940  0.0481
 1700SOL    MW4 6848   0.202   2.783   3.019 -0.1713  0.2036  0.0970
 1701SOL     OW 6849   0.214   3.070   3.090 -0.0437  0.5971 -0.8774
 1701SOL    HW2 6850   0.132   3.111   3.063 -0.6825 -1.3499 -1.9759
 1701SOL    HW3 6851   0.210   2.981   3.055  2.8338  0.6584 -1.5191
 1701SOL    MW4 6852   0.203   3.063   3.082  0.2517  0.3481 -1.1072
 1702SOL     OW 6853   4.463   3.190   3.021 -0.1848 -0.4707 -0.5118
 1702SOL    HW2 6854   4.378   3.171   3.060 -0.4638  2.1439  0.2821
 1702SOL    HW3 6855   4.446   3.197   2.927 -0.9941  0.5686 -0.3035
 1702SOL    MW4 6856   4.449   3.189   3.014 -0.3281  0.0114 -0.3793
 1703SOL     OW 6857   0.020   3.462   3.121  0.0493 -0.3394  0.0006
 1703SOL    HW2 6858  -0.057   3.501   3.079 -0.0677 -1.4198 -0.8160
 1703SOL    HW3 6859   0.023   3.373   3.086  0.7849 -0.7931  1.2092
 1703SOL    MW4 6860   0.010   3.455   3.110  0.1311 -0.5417  0.0522
 1704SOL     OW 6861   0.242   3.602   3.005  0.3290  0.5014 -0.0422
 1704SOL    HW2 6862   0.243   3.693   3.034 -0.7800  0.8794 -1.1746
 1704SOL    HW3 6863   0.163   3.566   3.044  0.7186  0.0397  0.3281
 1704SOL    MW4 6864   0.232   3.609   3.014  0.2341  0.4904 -0.1426
 1705SOL     OW 6865   0.270   3.867   3.091 -0.2799 -0.3390  0.1995
 1705SOL    HW2 6866   0.280   3.852   3.185 -0.2538  0.1709  0.2826
 1705SOL    HW3 6867   0.344   3.924   3.068  0.0548 -0.9456 -0.2490
 1705SOL    MW4 6868   0.281   3.873   3.100 -0.2323 -0.3517  0.1514
 1706SOL     OW 6869   0.009   3.959   3.047 -0.5865  0.3621  0.1412
 1706SOL    HW2 6870   0.091   3.925   3.081 -0.6000  1.0333  0.8530
 1706SOL    HW3 6871   0.016   3.949   2.952  0.3134  0.4077  0.1997
 1706SOL    MW4 6872   0.020   3.953   3.039 -0.4696  0.4568  0.2429
 1707SOL     OW 6873   4.479   4.239   3.115  0.1772 -0.5774  0.1008
 1707SOL    HW2 6874   4.497   4.246   3.209 -0.6850 -0.5903  0.2699
 1707SOL    HW3 6875   4.492   4.147   3.095 -0.8726 -0.7998  0.4625
 1707SOL    MW4 6876   4.483   4.228   3.125 -0.0749 -0.6089  0.1712
 1708SOL     OW 6877   0.220   4.367   3.065  0.2995 -0.3608 -0.0005
 1708SOL    HW2 6878   0.146   4.314   3.092  0.3258 -0.5819 -0.3581
 1708SOL    HW3 6879   0.197   4.456   3.091  0.9248 -0.7486  2.0091
 1708SOL    MW4 6880   0.207   4.372   3.072  0.3855 -0.4416  0.2174
 1709SOL     OW 6881   0.685   4.624   3.096 -0.2498 -0.3522 -0.4203
 1709SOL    HW2 6882   0.698   4.535   3.064 -0.0177 -0.4658 -0.0161
 1709SOL    HW3 6883   0.604   4.653   3.054 -0.2057 -0.6705 -0.7277
 1709SOL    MW4 6884   0.676   4.617   3.086 -0.2133 -0.4091 -0.4077
 1710SOL     OW 6885   0.449   0.073   3.003 -0.1374 -0.3358  0.2370
 1710SOL    HW2 6886   0.438   0.159   3.042  0.9443 -0.2690  0.4077
 1710SOL    HW3 6887   0.370   0.025   3.027 -0.3683  0.3448  0.8368
 1710SOL    MW4 6888   0.437   0.078   3.011 -0.0252 -0.2372  0.3388
 1711SOL     OW 6889   0.461   0.297   3.178  0.2562  0.4034 -0.2719
 1711SOL    HW2 6890   0.464   0.316   3.271 -0.5846 -1.4107  0.1421
 1711SOL    HW3 6891   0.534   0.346   3.141  0.2408  1.5892  1.2539
 1711SOL    MW4 6892   0.471   0.306   3.185  0.1432  0.3205 -0.0160
 1712SOL     OW 6893   0.646   0.482   3.045  0.5065 -0.2233 -0.3188
 1712SOL    HW2 6894   0.730   0.437   3.052 -0.1346 -1.2093  1.1119
 1712SOL    HW3 6895   0.661   0.567   3.088  0.5700 -0.6800  0.5671
 1712SOL    MW4 6896   0.659   0.487   3.051  0.4302 -0.4136 -0.0131
 1713SOL     OW 6897   0.694   0.730   3.149  0.0748  0.4296 -0.4473
 1713SOL    HW2 6898   0.708   0.734   3.244 -0.2179 -0.1461 -0.3801
 1713SOL    HW3 6899   0.618   0.786   3.134 -0.8268 -0.6909 -0.1449
 1713SOL    MW4 6900   0.686   0.738   3.160 -0.0828  0.2059 -0.3984
 1714SOL     OW 6901   0.473   0.878   3.071 -0.3431 -0.2931  0.0700
 1714SOL    HW2 6902   0.389   0.833   3.083 -0.0397 -0.4062  1.7601
 1714SOL    HW3 6903   0.480   0.889   2.976 -0.2878 -4.0195 -0.4246
 1714SOL    MW4 6904   0.462   0.874   3.060 -0.2958 -0.7997  0.2277
 1715SOL     OW 6905   0.413   1.137   3.137 -0.2387  0.1283 -0.0136
 1715SOL    HW2 6906   0.405   1.048   3.104  1.6358  0.8075 -2.4328
 1715SOL    HW3 6907   0.336   1.182   3.102  0.4479  0.2219 -1.4368
 1715SOL    MW4 6908   0.402   1.131   3.128  0.0992  0.2302 -0.5207
 1716SOL     OW 6909   0.630   1.242   3.010  0.0853 -0.2692  0.0114
 1716SOL    HW2 6910   0.704   1.183   3.022 -0.0217 -0.5531 -0.7244
 1716SOL    HW3 6911   0.558   1.201   3.057 -0.2860 -1.2925 -1.4325
 1716SOL    MW4 6912   0.630   1.229   3.018  0.0222 -0.4414 -0.2761
 1717SOL     OW 6913   0.662   1.500   3.130 -0.4849  0.0635  0.1614
 1717SOL    HW2 6914   0.657   1.493   3.225 -0.4918  0.1083  0.1645
 1717SOL    HW3 6915   0.646   1.411   3.098  2.2461 -0.4976  0.2901
 1717SOL    MW4 6916   0.659   1.488   3.138 -0.1255 -0.0046  0.1791
 1718SOL     OW 6917   0.459   1.649   3.017  0.2319  0.4853  0.3822
 1718SOL    HW2 6918   0.520   1.593   3.064 -0.2280  0.0650  0.4898
 1718SOL    HW3 6919   0.372   1.619   3.047 -0.2291 -1.9136 -3.0618
 1718SOL    MW4 6920   0.455   1.638   3.027  0.1104  0.1134 -0.0579
 1719SOL     OW 6921   0.428   1.908   3.138  0.3056 -0.3920  0.6416
 1719SOL    HW2 6922   0.360   1.958   3.094  1.5996  0.8605  0.0214
 1719SOL    HW3 6923   0.438   1.829   3.084 -0.5704 -0.5225  0.6727
 1719SOL    MW4 6924   0.420   1.904   3.125  0.3608 -0.2440  0.5639
 1720SOL     OW 6925   0.685   2.026   3.037 -0.1260  0.1242 -0.5508
 1720SOL    HW2 6926   0.756   1.970   3.068 -0.4822  0.8895  1.7418
 1720SOL    HW3 6927   0.606   1.991   3.078 -0.6227  1.0960 -0.6410
 1720SOL    MW4 6928   0.684   2.014   3.047 -0.2385  0.3533 -0.2606
 1721SOL     OW 6929   0.651   2.298   3.108 -0.1405  0.7358  0.6594
 1721SOL    HW2 6930   0.683   2.310   3.197 -1.1666  1.2795  0.9673
 1721SOL    HW3 6931   0.684   2.213   3.081  0.2844  0.6287  1.5166
 1721SOL    MW4 6932   0.659   2.289   3.116 -0.2198  0.7932  0.8132
 1722SOL     OW 6933   0.441   2.471   2.980 -0.3622 -0.3559  0.0075
 1722SOL    HW2 6934   0.502   2.402   3.006 -0.7486 -0.3128  1.0662
 1722SOL    HW3 6935   0.451   2.477   2.885  0.1674 -1.3953 -0.0142
 1722SOL    MW4 6936   0.451   2.463   2.971 -0.3433 -0.4876  0.1442
 1723SOL     OW 6937   0.454   2.713   3.091  0.3231  0.3735 -0.8502
 1723SOL    HW2 6938   0.537   2.755   3.069  1.2993 -0.7997  0.5097
 1723SOL    HW3 6939   0.456   2.630   3.044  0.4170 -0.1273  0.0132
 1723SOL    MW4 6940   0.465   2.707   3.082  0.4643  0.1528 -0.5569
 1724SOL     OW 6941   0.686   2.841   3.007 -0.1831 -0.2779 -0.2757
 1724SOL    HW2 6942   0.762   2.790   3.033 -0.9883 -0.4853  1.8043
 1724SOL    HW3 6943   0.704   2.929   3.040 -0.3996 -0.0849 -0.6688
 1724SOL    MW4 6944   0.698   2.846   3.015 -0.3179 -0.2797 -0.0532
 1725SOL     OW 6945   0.704   3.115   3.083 -0.0521 -0.3063  0.2356
 1725SOL    HW2 6946   0.684   3.090   3.173  0.1695  0.8733  0.6287
 1725SOL    HW3 6947   0.623   3.155   3.051  0.3664  0.7373  0.4559
 1725SOL    MW4 6948   0.691   3.117   3.091  0.0324 -0.0129  0.3164
 1726SOL     OW 6949   0.453   3.206   2.993  0.3504  0.1900 -0.2812
 1726SOL    HW2 6950   0.439   3.293   3.029  1.3724  0.3825 -0.3220
 1726SOL    HW3 6951   0.371   3.160   3.008  0.7995  0.1785  2.5607
 1726SOL    MW4 6952   0.441   3.211   3.000  0.5445  0.2141  0.0882
 1727SOL     OW 6953   0.471   3.475   3.077  0.0138  0.3143 -0.5296
 1727SOL    HW2 6954   0.479   3.460   3.171  0.0801 -0.7722 -0.7069
 1727SOL    HW3 6955   0.393   3.531   3.069  1.4806  2.5572  0.3686
 1727SOL    MW4 6956   0.462   3.480   3.089  0.2161  0.4671 -0.4344
 1728SOL     OW 6957   0.700   3.578   2.981 -0.1210 -0.2061 -0.0086
 1728SOL    HW2 6958   0.774   3.541   3.029 -0.6591 -0.2994  0.7614
 1728SOL    HW3 6959   0.623   3.536   3.020 -0.6585  0.8003  0.0345
 1728SOL    MW4 6960   0.700   3.567   2.993 -0.2629 -0.0854  0.0985
 1729SOL     OW 6961   0.711   3.843   3.068 -0.1681  0.4614 -0.2594
 1729SOL    HW2 6962   0.721   3.805   3.156  0.1882  1.0999 -0.0193
 1729SOL    HW3 6963   0.710   3.768   3.009 -0.8032  0.0036  0.3278
 1729SOL    MW4 6964   0.712   3.828   3.072 -0.2050  0.4852 -0.1500
 1730SOL     OW 6965   0.502   4.022   3.017  0.6854 -0.4362 -0.0264
 1730SOL    HW2 6966   0.581   3.971   3.037  1.6225  0.4695 -1.3268
 1730SOL    HW3 6967   0.498   4.022   2.922 -0.6881 -0.1536  0.0306
 1730SOL    MW4 6968   0.512   4.015   3.007  0.6278 -0.2789 -0.1905
 1731SOL     OW 6969   0.476   4.268   3.130  0.0430 -0.1372 -0.0988
 1731SOL    HW2 6970   0.476   4.175   3.109  0.9892 -0.6145  1.9356
 1731SOL    HW3 6971   0.389   4.298   3.104  0.0491 -1.3601 -1.6407
 1731SOL    MW4 6972   0.465   4.260   3.124  0.1686 -0.3614 -0.0336
 1732SOL     OW 6973   0.707   4.380   3.012 -0.1054 -0.0796  0.0119
 1732SOL    HW2 6974   0.624   4.345   3.046 -0.3588  1.0261  0.5724
 1732SOL    HW3 6975   0.695   4.381   2.917 -0.6850 -0.0617  0.0816
 1732SOL    MW4 6976   0.694   4.375   3.004 -0.2153  0.0687  0.0951
 1733SOL     OW 6977   1.177   4.654   3.146 -0.1547 -0.2791  0.0465
 1733SOL    HW2 6978   1.255   4.699   3.112 -0.5150  0.0024 -0.3988
 1733SOL    HW3 6979   1.103   4.696   3.103 -0.5646 -0.5080  0.5177
 1733SOL    MW4 6980   1.178   4.665   3.136 -0.2562 -0.2722  0.0496
 1734SOL     OW 6981   0.924   0.093   3.040 -0.3372  0.4478  0.0829
 1734SOL    HW2 6982   0.911   0.184   3.067 -1.0414 -0.1854  1.9727
 1734SOL    HW3 6983   0.845   0.048   3.071  0.5304 -1.0301  0.1622
 1734SOL    MW4 6984   0.912   0.099   3.048 -0.3156  0.1692  0.3426
 1735SOL     OW 6985   0.913   0.373   3.091  0.4163  0.2144  0.1470
 1735SOL    HW2 6986   0.918   0.371   3.187  0.7776 -0.9815  0.1014
 1735SOL    HW3 6987   1.001   0.400   3.064  0.6921 -0.7360  0.1015
 1735SOL    MW4 6988   0.925   0.377   3.100  0.5004 -0.0688  0.1349
 1736SOL     OW 6989   1.159   0.481   3.037  0.4063 -0.6337  0.1402
 1736SOL    HW2 6990   1.238   0.451   3.082  0.3273 -1.9114 -0.5349
 1736SOL    HW3 6991   1.173   0.457   2.946 -0.6090 -0.5540 -0.0463
 1736SOL    MW4 6992   1.171   0.474   3.031  0.2619 -0.7918  0.0260
 1737SOL     OW 6993   1.146   0.747   3.103 -0.0365  0.2590 -0.7100
 1737SOL    HW2 6994   1.148   0.760   3.198 -0.6280  1.3500 -0.8351
 1737SOL    HW3 6995   1.139   0.653   3.091  1.9599 -0.0397  0.3041
 1737SOL    MW4 6996   1.145   0.737   3.114  0.1489  0.3635 -0.5925
 1738SOL     OW 6997   0.909   0.853   2.999  0.4314 -0.0763  0.3685
 1738SOL    HW2 6998   0.990   0.806   3.018  1.2731  1.4629  0.5867
 1738SOL    HW3 6999   0.844   0.812   3.056  1.2868 -0.5939  0.9817
 1738SOL    MW4 7000   0.911   0.841   3.009  0.6554  0.0585  0.4783
 1739SOL     OW 7001   0.874   1.133   3.078  0.1809 -0.1661 -0.1961
 1739SOL    HW2 7002   0.953   1.180   3.052  0.4246 -0.1162  0.6143
 1739SOL    HW3 7003   0.888   1.043   3.047  0.7750 -0.2764  0.3856
 1739SOL    MW4 7004   0.886   1.127   3.070  0.2915 -0.1742 -0.0124
 1740SOL     OW 7005   1.123   1.225   3.031 -0.1600  0.1807 -0.0980
 1740SOL    HW2 7006   1.207   1.179   3.042 -1.0751 -1.3506  0.7789
 1740SOL    HW3 7007   1.117   1.241   2.937  0.2301 -1.4620 -0.4332
 1740SOL    MW4 7008   1.133   1.221   3.020 -0.2294 -0.2379 -0.0267
 1741SOL     OW 7009   1.141   1.511   3.131  0.5089 -0.1503  0.1451
 1741SOL    HW2 7010   1.211   1.555   3.083 -0.5357  1.0761 -0.2779
 1741SOL    HW3 7011   1.133   1.425   3.088  1.1855  0.0145 -0.3268
 1741SOL    MW4 7012   1.150   1.505   3.119  0.4604  0.0331  0.0272
 1742SOL     OW 7013   0.913   1.634   3.021 -0.2645 -0.3629 -0.2569
 1742SOL    HW2 7014   0.988   1.587   3.058 -0.2132  0.3368  0.5133
 1742SOL    HW3 7015   0.837   1.581   3.047 -0.1749 -0.2241  0.2760
 1742SOL    MW4 7016   0.913   1.621   3.029 -0.2459 -0.2521 -0.0849
 1743SOL     OW 7017   0.947   1.918   3.082  0.3296 -0.1537 -0.2644
 1743SOL    HW2 7018   0.947   1.921   3.177 -0.5954  0.9587 -0.2828
 1743SOL    HW3 7019   0.942   1.825   3.060  1.2054 -0.4524  0.7629
 1743SOL    MW4 7020   0.947   1.906   3.091  0.3231 -0.0463 -0.1316
 1744SOL     OW 7021   1.166   2.056   2.954 -0.2817  0.0337 -0.2687
 1744SOL    HW2 7022   1.095   2.010   2.998  0.2343 -0.2537  0.2829
 1744SOL    HW3 7023   1.138   2.062   2.863 -0.2943 -1.5492 -0.3962
 1744SOL    MW4 7024   1.153   2.050   2.948 -0.2152 -0.2131 -0.2127
 1745SOL     OW 7025   1.137   2.289   3.124  0.3337  0.2294 -0.0968
 1745SOL    HW2 7026   1.141   2.197   3.097  1.8705  0.4920 -0.8401
 1745SOL    HW3 7027   1.048   2.317   3.101  0.1359 -0.8384 -0.6538
 1745SOL    MW4 7028   1.126   2.281   3.117  0.5103  0.1233 -0.2685
 1746SOL     OW 7029   0.904   2.421   3.020 -0.3403 -0.4656 -0.1334
 1746SOL    HW2 7030   0.818   2.395   3.054  0.1663 -0.4761  1.2013
 1746SOL    HW3 7031   0.892   2.431   2.926 -1.6495 -1.0878 -0.0341
 1746SOL    MW4 7032   0.891   2.419   3.012 -0.4461 -0.5491  0.0558
 1747SOL     OW 7033   0.890   2.693   3.116 -0.8206 -0.2315 -0.0601
 1747SOL    HW2 7034   0.886   2.681   3.211  2.2257  0.1072  0.1530
 1747SOL    HW3 7035   0.902   2.605   3.081  1.9630  0.0029  0.1827
 1747SOL    MW4 7036   0.891   2.680   3.124 -0.0514 -0.1557  0.0000
 1748SOL     OW 7037   1.103   2.853   3.015 -0.3313  0.4332 -0.4251
 1748SOL    HW2 7038   1.098   2.943   3.048 -0.6517  0.4396 -0.4893
 1748SOL    HW3 7039   1.036   2.805   3.066  0.1283  0.1388 -0.0893
 1748SOL    MW4 7040   1.093   2.858   3.026 -0.3129  0.3953 -0.3891
 1749SOL     OW 7041   1.119   3.118   3.098  0.3171  0.3556  0.2189
 1749SOL    HW2 7042   1.199   3.157   3.064  0.6281 -0.4429  0.0362
 1749SOL    HW3 7043   1.048   3.165   3.054  0.6936  0.4375 -0.2940
 1749SOL    MW4 7044   1.120   3.130   3.088  0.4079  0.2608  0.1271
 1750SOL     OW 7045   0.909   3.256   2.982  0.2804  0.1559  0.1188
 1750SOL    HW2 7046   0.831   3.211   3.015 -1.7744  3.0960 -0.5488
 1750SOL    HW3 7047   0.911   3.234   2.888  0.6380 -0.4702  0.2740
 1750SOL    MW4 7048   0.899   3.247   2.974  0.0564  0.4613  0.0508
 1751SOL     OW 7049   0.951   3.502   3.095 -0.1127 -0.2440 -0.0422
 1751SOL    HW2 7050   1.024   3.553   3.061 -0.4848  0.8243  0.7655
 1751SOL    HW3 7051   0.961   3.416   3.053  0.9398  0.2458 -0.8155
 1751SOL    MW4 7052   0.962   3.497   3.085 -0.0229 -0.0386 -0.0377
 1752SOL     OW 7053   1.153   3.658   2.979  0.0255 -0.1818 -0.0416
 1752SOL    HW2 7054   1.226   3.616   3.025  1.0123 -0.2439 -1.6401
 1752SOL    HW3 7055   1.154   3.748   3.012 -0.2205 -0.6060  1.1611
 1752SOL    MW4 7056   1.163   3.665   2.990  0.1231 -0.2460 -0.0937
 1753SOL     OW 7057   1.171   3.891   3.136  0.4627  0.1588 -0.7954
 1753SOL    HW2 7058   1.151   3.876   3.228 -0.2099 -0.1198 -0.9853
 1753SOL    HW3 7059   1.095   3.938   3.102  0.6673  0.1816 -1.2305
 1753SOL    MW4 7060   1.158   3.896   3.144  0.4008  0.1252 -0.8776
 1754SOL     OW 7061   0.937   4.013   3.033 -0.5096  0.4669  0.1894
 1754SOL    HW2 7062   0.857   3.965   3.055 -0.2994  0.4676  0.9439
 1754SOL    HW3 7063   0.939   4.011   2.937 -1.5966  0.7618  0.1465
 1754SOL    MW4 7064   0.926   4.006   3.023 -0.6253  0.5059  0.2835
 1755SOL     OW 7065   0.942   4.278   3.110  0.5113 -0.0047 -0.1759
 1755SOL    HW2 7066   0.937   4.185   3.088 -0.8501  0.0031  0.0626
 1755SOL    HW3 7067   0.862   4.316   3.074 -1.1096  0.2640  3.4467
 1755SOL    MW4 7068   0.930   4.271   3.103  0.1178  0.0319  0.3338
 1756SOL     OW 7069   1.158   4.422   3.006  0.2091 -0.3798 -0.0672
 1756SOL    HW2 7070   1.089   4.378   3.056 -0.5091  0.2794 -0.4780
 1756SOL    HW3 7071   1.166   4.508   3.047  0.7933 -0.4564 -0.0184
 1756SOL    MW4 7072   1.150   4.427   3.018  0.1915 -0.3033 -0.1149
 1757SOL     OW 7073   1.643   4.632   3.144  0.1509 -0.1436 -0.1240
 1757SOL    HW2 7074   1.635   4.646   3.238  1.5882 -0.5042  0.0643
 1757SOL    HW3 7075   1.570   4.681   3.106  1.1016  2.2351  1.0056
 1757SOL    MW4 7076   1.632   4.641   3.151  0.4660  0.1225  0.0498
 1758SOL     OW 7077   1.400   0.117   3.048  0.0015  0.0892  1.0090
 1758SOL    HW2 7078   1.376   0.202   3.084 -2.0831  0.0418 -0.1889
 1758SOL    HW3 7079   1.383   0.125   2.954  2.6033 -0.7015  0.4179
 1758SOL    MW4 7080   1.395   0.129   3.040  0.0699 -0.0214  0.7730
 1759SOL     OW 7081   1.385   0.375   3.164  0.2481 -0.7746  0.1291
 1759SOL    HW2 7082   1.402   0.377   3.258  0.8953 -0.8664  0.0169
 1759SOL    HW3 7083   1.464   0.412   3.125 -0.9902  1.5777 -0.2674
 1759SOL    MW4 7084   1.398   0.380   3.171  0.1701 -0.4764  0.0620
 1760SOL     OW 7085   1.619   0.458   2.994  0.6662 -0.0139  0.2220
 1760SOL    HW2 7086   1.607   0.544   3.035  1.0230  0.1679 -0.0588
 1760SOL    HW3 7087   1.610   0.474   2.901  1.3906 -0.1717  0.1234
 1760SOL    MW4 7088   1.616   0.471   2.987  0.8088 -0.0108  0.1719
 1761SOL     OW 7089   1.582   0.695   3.126  0.0249  0.0958 -0.3819
 1761SOL    HW2 7090   1.581   0.703   3.222 -0.1069 -0.8986 -0.2899
 1761SOL    HW3 7091   1.512   0.753   3.097 -1.0483 -0.8625  0.2450
 1761SOL    MW4 7092   1.572   0.704   3.135 -0.1342 -0.1619 -0.2871
 1762SOL     OW 7093   1.395   0.833   3.017 -0.5090 -0.2131 -0.0645
 1762SOL    HW2 7094   1.400   0.926   3.035 -1.0258 -0.2480  0.3022
 1762SOL    HW3 7095   1.306   0.809   3.043 -0.3642 -0.8134 -0.1122
 1762SOL    MW4 7096   1.384   0.842   3.023 -0.5580 -0.2969 -0.0224
 1763SOL     OW 7097   1.361   1.095   3.076  0.0497  0.0084  0.0011
 1763SOL    HW2 7098   1.357   1.102   3.171 -1.8221 -0.6958  0.0013
 1763SOL    HW3 7099   1.444   1.135   3.052 -0.1714  1.5878  1.8021
 1763SOL    MW4 7100   1.371   1.101   3.085 -0.2266  0.1239  0.2389
 1764SOL     OW 7101   1.595   1.210   3.006 -0.0025 -0.7266  0.2812
 1764SOL    HW2 7102   1.600   1.298   3.042 -1.2347 -1.0586  1.3284
 1764SOL    HW3 7103   1.681   1.172   3.023  0.4553  0.1921  0.0283
 1764SOL    MW4 7104   1.607   1.216   3.013 -0.1047 -0.6491  0.3862
 1765SOL     OW 7105   1.555   1.481   3.088 -0.4088  0.5149 -0.0763
 1765SOL    HW2 7106   1.637   1.529   3.074 -0.2197 -0.0078 -0.7718
 1765SOL    HW3 7107   1.489   1.533   3.042 -0.1889  0.0626 -0.9073
 1765SOL    MW4 7108   1.557   1.494   3.080 -0.3548  0.3861 -0.2775
 1766SOL     OW 7109   1.360   1.633   2.986 -0.0000  0.3460  0.4296
 1766SOL    HW2 7110   1.374   1.725   3.008 -0.9108  0.5180  0.2945
 1766SOL    HW3 7111   1.354   1.632   2.890  0.8503  0.0254  0.3737
 1766SOL    MW4 7112   1.361   1.645   2.976 -0.0080  0.3263  0.4044
 1767SOL     OW 7113   1.381   1.911   3.076 -0.0002 -0.4776  0.3299
 1767SOL    HW2 7114   1.378   1.910   3.171  0.4449  1.0136  0.3765
 1767SOL    HW3 7115   1.304   1.962   3.050 -0.3007 -1.1522 -0.1220
 1767SOL    MW4 7116   1.371   1.918   3.085  0.0190 -0.3699  0.2766
 1768SOL     OW 7117   1.590   2.067   2.993 -0.1085  0.0285 -0.2273
 1768SOL    HW2 7118   1.518   2.006   3.008 -1.4759  1.6413 -0.0396
 1768SOL    HW3 7119   1.593   2.077   2.898  1.3052 -1.6770 -0.3959
 1768SOL    MW4 7120   1.581   2.060   2.982 -0.1023  0.0162 -0.2251
 1769SOL     OW 7121   1.570   2.321   3.135 -0.3650  0.5826 -0.0152
 1769SOL    HW2 7122   1.483   2.345   3.102 -0.4920  0.0182 -0.0911
 1769SOL    HW3 7123   1.586   2.234   3.100  0.1612  0.6160  0.1419
 1769SOL    MW4 7124   1.560   2.313   3.126 -0.3124  0.5126 -0.0045
 1770SOL     OW 7125   1.343   2.408   2.995  0.1306  0.1820  0.3440
 1770SOL    HW2 7126   1.362   2.390   2.903 -0.4969 -1.1698  0.4704
 1770SOL    HW3 7127   1.274   2.346   3.018 -1.3038  2.0278  1.1172
 1770SOL    MW4 7128   1.337   2.398   2.986 -0.1414  0.2472  0.4628
 1771SOL     OW 7129   1.334   2.698   3.068 -0.0396  0.3243  0.6626
 1771SOL    HW2 7130   1.318   2.607   3.044 -0.1181  0.2736  0.9092
 1771SOL    HW3 7131   1.264   2.747   3.025 -0.8240  0.1120  1.6720
 1771SOL    MW4 7132   1.322   2.693   3.059 -0.1535  0.2897  0.8283
 1772SOL     OW 7133   1.588   2.842   2.987 -0.1052  0.2229 -0.0801
 1772SOL    HW2 7134   1.668   2.808   3.027 -0.1314 -0.1923 -0.3809
 1772SOL    HW3 7135   1.519   2.783   3.018 -0.0290 -0.5185 -1.2784
 1772SOL    MW4 7136   1.590   2.829   2.996 -0.0986  0.0703 -0.2780
 1773SOL     OW 7137   1.561   3.115   3.080 -0.2231  0.5185  0.1622
 1773SOL    HW2 7138   1.557   3.096   3.174 -1.6027 -1.0277 -0.1794
 1773SOL    HW3 7139   1.561   3.029   3.039 -1.6014  1.2041 -1.3197
 1773SOL    MW4 7140   1.561   3.101   3.087 -0.5869  0.4048 -0.0782
 1774SOL     OW 7141   1.333   3.256   3.018 -0.0644 -0.2049  0.2837
 1774SOL    HW2 7142   1.409   3.203   3.044  0.8239  1.1923  0.6154
 1774SOL    HW3 7143   1.331   3.250   2.923  0.4059 -0.3352  0.2813
 1774SOL    MW4 7144   1.343   3.248   3.009  0.1147 -0.0377  0.3271
 1775SOL     OW 7145   1.375   3.513   3.099  0.4742  0.4267  0.4726
 1775SOL    HW2 7146   1.372   3.498   3.194 -1.8089  0.5540  0.4420
 1775SOL    HW3 7147   1.376   3.426   3.061  0.9925  0.3774  0.5883
 1775SOL    MW4 7148   1.375   3.500   3.107  0.2413  0.4370  0.4838
 1776SOL     OW 7149   1.597   3.636   2.990 -0.1104  0.3190 -0.1459
 1776SOL    HW2 7150   1.520   3.589   3.022 -0.5960  0.7246 -0.6984
 1776SOL    HW3 7151   1.671   3.580   3.013 -0.7176 -1.0228 -1.3616
 1776SOL    MW4 7152   1.597   3.623   2.997 -0.2546  0.1957 -0.3791
 1777SOL     OW 7153   1.615   3.881   3.137  0.0855  0.6507 -0.1469
 1777SOL    HW2 7154   1.701   3.895   3.096  0.5063 -0.2735  0.3992
 1777SOL    HW3 7155   1.590   3.793   3.109  0.9008 -0.4657  2.4768
 1777SOL    MW4 7156   1.623   3.871   3.128  0.2487  0.3812  0.2716
 1778SOL     OW 7157   1.397   4.009   3.006  0.1760  0.0226 -0.1054
 1778SOL    HW2 7158   1.466   3.973   3.062  0.3150 -0.4933 -0.6135
 1778SOL    HW3 7159   1.316   3.975   3.044  0.1963  0.5333  0.4188
 1778SOL    MW4 7160   1.395   4.000   3.019  0.1969  0.0219 -0.1032
 1779SOL     OW 7161   1.364   4.274   3.119 -0.4542 -0.0703  0.5700
 1779SOL    HW2 7162   1.374   4.181   3.099  0.4121  0.0310  0.4966
 1779SOL    HW3 7163   1.294   4.304   3.061  0.0808 -0.4168 -0.2649
 1779SOL    MW4 7164   1.356   4.266   3.108 -0.2693 -0.1025  0.4501
 1780SOL     OW 7165   1.597   4.398   3.023 -0.0341  0.5401  0.0860
 1780SOL    HW2 7166   1.518   4.371   3.070 -1.1158  1.3444 -1.2666
 1780SOL    HW3 7167   1.621   4.482   3.062  2.2276 -1.3384  2.9569
 1780SOL    MW4 7168   1.590   4.405   3.035  0.1215  0.3986  0.2866
 1781SOL     OW 7169   2.104   4.622   3.149 -0.4926  0.0281  0.2802
 1781SOL    HW2 7170   2.101   4.629   3.244  0.1803  2.0738  0.1846
 1781SOL    HW3 7171   2.026   4.669   3.118  0.3725  1.1724 -0.2182
 1781SOL    MW4 7172   2.094   4.629   3.157 -0.2899  0.4487  0.2019
 1782SOL     OW 7173   1.877   0.046   3.043  0.0868 -0.1581 -0.3327
 1782SOL    HW2 7174   1.803  -0.001   3.082 -0.1252 -0.3721 -0.9818
 1782SOL    HW3 7175   1.862   0.040   2.949  1.3568 -0.9306 -0.5088
 1782SOL    MW4 7176   1.865   0.039   3.036  0.2264 -0.2882 -0.4416
 1783SOL     OW 7177   1.844   0.349   3.091  0.1524  0.1982 -0.3087
 1783SOL    HW2 7178   1.845   0.264   3.046  1.0171 -0.2667  0.5580
 1783SOL    HW3 7179   1.765   0.392   3.060 -0.1657 -0.8285 -0.9509
 1783SOL    MW4 7180   1.834   0.344   3.081  0.2245  0.0014 -0.2789
 1784SOL     OW 7181   2.066   0.501   3.024  0.0411  0.3612  0.1902
 1784SOL    HW2 7182   1.985   0.461   3.057  1.0503 -0.4702  1.7414
 1784SOL    HW3 7183   2.074   0.470   2.934 -0.9954 -0.1242  0.2621
 1784SOL    MW4 7184   2.056   0.492   3.017  0.0374  0.1874  0.4044
 1785SOL     OW 7185   2.272   0.894   3.013 -0.5008 -0.0648 -0.3703
 1785SOL    HW2 7186   2.212   0.831   3.053  0.2658 -1.1623 -0.9298
 1785SOL    HW3 7187   2.359   0.865   3.040 -0.1620  1.0422 -0.2353
 1785SOL    MW4 7188   2.276   0.882   3.022 -0.3550 -0.0635 -0.4261
 1786SOL     OW 7189   1.807   0.849   3.012 -0.5278  0.4730  0.3029
 1786SOL    HW2 7190   1.728   0.805   3.044 -0.7495  0.2532 -0.5474
 1786SOL    HW3 7191   1.796   0.853   2.917  0.6818  0.0601  0.1361
 1786SOL    MW4 7192   1.795   0.844   3.004 -0.3973  0.3895  0.1688
 1787SOL     OW 7193   1.832   1.115   3.130  0.3500  0.0192  0.1690
 1787SOL    HW2 7194   1.815   1.122   3.224  0.2876  0.1161  0.1506
 1787SOL    HW3 7195   1.818   1.023   3.110 -0.3677  0.1415  0.1133
 1787SOL    MW4 7196   1.828   1.104   3.140  0.2472  0.0480  0.1590
 1788SOL     OW 7197   2.027   1.249   2.973  0.2828  0.2803 -0.3627
 1788SOL    HW2 7198   2.113   1.220   3.003  0.0918 -0.1941 -0.2830
 1788SOL    HW3 7199   1.965   1.191   3.017 -0.1350  1.2739  0.3846
 1788SOL    MW4 7200   2.030   1.238   2.983  0.2027  0.3489 -0.2534
 1789SOL     OW 7201   2.032   1.518   3.097  0.4080  0.3532  0.3978
 1789SOL    HW2 7202   2.016   1.507   3.190 -1.9748  0.5645  0.0476
 1789SOL    HW3 7203   2.035   1.428   3.062  3.4599  0.1693  0.9513
 1789SOL    MW4 7204   2.030   1.504   3.104  0.4964  0.3568  0.4244
 1790SOL     OW 7205   1.779   1.627   3.047 -0.2830  0.2867 -0.4504
 1790SOL    HW2 7206   1.786   1.718   3.074 -2.2527 -0.3721  2.4660
 1790SOL    HW3 7207   1.867   1.591   3.057  0.5372  1.8701 -1.7795
 1790SOL    MW4 7208   1.792   1.634   3.052 -0.4346  0.4085 -0.2413
 1791SOL     OW 7209   1.788   1.910   3.095 -0.0492  0.1800  0.4872
 1791SOL    HW2 7210   1.866   1.957   3.066  0.0654 -0.9598 -1.0792
 1791SOL    HW3 7211   1.715   1.968   3.071 -0.1101 -1.5158 -3.9497
 1791SOL    MW4 7212   1.789   1.924   3.088 -0.0422 -0.1941 -0.3052
 1792SOL     OW 7213   2.010   2.061   3.007 -0.0458  0.1276 -0.3979
 1792SOL    HW2 7214   2.085   2.017   3.046 -0.9766 -0.1959  1.0620
 1792SOL    HW3 7215   2.007   2.147   3.050 -0.5981  0.0794 -0.3308
 1792SOL    MW4 7216   2.019   2.067   3.017 -0.2415  0.0787 -0.1967
 1793SOL     OW 7217   1.977   2.319   3.118  0.3923 -0.1301  0.1291
 1793SOL    HW2 7218   2.056   2.368   3.093 -0.2706 -0.2362 -2.2592
 1793SOL    HW3 7219   1.905   2.366   3.077 -0.8181 -0.0617  2.2716
 1793SOL    MW4 7220   1.978   2.331   3.110  0.1451 -0.1352  0.0963
 1794SOL     OW 7221   1.764   2.437   2.974  0.4439 -0.4554  0.1324
 1794SOL    HW2 7222   1.774   2.530   2.995 -0.5069 -0.0152 -1.2284
 1794SOL    HW3 7223   1.687   2.409   3.023 -0.5170  0.0274 -1.0718
 1794SOL    MW4 7224   1.755   2.446   2.983  0.1918 -0.3335 -0.2060
 1795SOL     OW 7225   1.807   2.691   3.060 -0.4238  0.6206 -0.2294
 1795SOL    HW2 7226   1.823   2.701   3.154 -1.5424 -0.7146  0.1284
 1795SOL    HW3 7227   1.877   2.740   3.018  1.8976 -1.2678  1.2904
 1795SOL    MW4 7228   1.818   2.699   3.067 -0.2651  0.1953  0.0181
 1796SOL     OW 7229   2.014   2.833   2.974 -0.1591 -0.1569 -0.0988
 1796SOL    HW2 7230   2.048   2.911   3.018  0.4713 -1.2076  1.3121
 1796SOL    HW3 7231   2.038   2.844   2.882 -0.1229  1.3341  0.0837
 1796SOL    MW4 7232   2.022   2.845   2.968 -0.0713 -0.0987  0.1113
 1797SOL     OW 7233   2.042   3.090   3.086 -0.0599  0.2887 -0.1017
 1797SOL    HW2 7234   2.040   3.097   3.182  0.3237  0.7961 -0.1334
 1797SOL    HW3 7235   1.955   3.120   3.059  0.3047  1.4445 -0.0002
 1797SOL    MW4 7236   2.030   3.095   3.095  0.0389  0.5083 -0.0923
 1798SOL     OW 7237   1.802   3.213   2.987  0.2915 -0.2950  0.3192
 1798SOL    HW2 7238   1.716   3.192   3.023  0.0713 -0.1621 -0.1335
 1798SOL    HW3 7239   1.798   3.184   2.896  1.0619 -1.2117  0.5639
 1798SOL    MW4 7240   1.790   3.207   2.980  0.3642 -0.3986  0.2916
 1799SOL     OW 7241   1.796   3.482   3.096 -0.0299 -0.3753  0.5243
 1799SOL    HW2 7242   1.804   3.393   3.060 -1.3231 -0.1836 -0.2732
 1799SOL    HW3 7243   1.793   3.469   3.190 -0.3625 -1.1900  0.4097
 1799SOL    MW4 7244   1.797   3.468   3.103 -0.2445 -0.4575  0.4039
 1800SOL     OW 7245   2.034   3.590   2.966 -0.1859  0.1268 -0.4112
 1800SOL    HW2 7246   2.044   3.671   3.017 -0.2129  0.4647 -0.9383
 1800SOL    HW3 7247   1.953   3.551   2.999 -0.9649  1.0700 -1.1884
 1800SOL    MW4 7248   2.025   3.596   2.977 -0.2925  0.2959 -0.5832
 1801SOL     OW 7249   2.042   3.833   3.143  0.3636 -0.3935  0.5054
 1801SOL    HW2 7250   2.026   3.836   3.237 -1.5861  0.4782  0.1699
 1801SOL    HW3 7251   1.971   3.885   3.105  0.5059 -1.6419 -1.5254
 1801SOL    MW4 7252   2.030   3.840   3.151  0.1249 -0.4430  0.1931
 1802SOL     OW 7253   1.836   3.969   3.003  0.7213 -0.1341  0.1086
 1802SOL    HW2 7254   1.819   4.058   3.034  0.2183 -0.5252  0.9672
 1802SOL    HW3 7255   1.806   3.969   2.912  1.1636  0.7064 -0.0416
 1802SOL    MW4 7256   1.830   3.981   2.995  0.7132 -0.0749  0.2019
 1803SOL     OW 7257   1.815   4.242   3.124  0.2666  0.1180 -0.4094
 1803SOL    HW2 7258   1.896   4.282   3.092 -0.2976  1.6928  0.1270
 1803SOL    HW3 7259   1.746   4.302   3.098 -0.4487  0.2177  1.6066
 1803SOL    MW4 7260   1.817   4.255   3.116  0.0978  0.3386 -0.0727
 1804SOL     OW 7261   2.056   4.359   3.035  0.7845 -0.3623 -0.1826
 1804SOL    HW2 7262   2.057   4.452   3.054  0.1767 -0.2381 -0.7448
 1804SOL    HW3 7263   2.048   4.354   2.939 -0.5732 -0.9996 -0.0496
 1804SOL    MW4 7264   2.055   4.370   3.025  0.5248 -0.4306 -0.2394
 1805SOL     OW 7265   2.495   4.647   3.151  0.0076 -0.4415 -0.0801
 1805SOL    HW2 7266   2.495   4.557   3.118 -1.6873 -0.1799 -0.8557
 1805SOL    HW3 7267   2.438   4.695   3.090  1.1769  1.2414  0.1106
 1805SOL    MW4 7268   2.488   4.642   3.138 -0.0618 -0.1850 -0.1571
 1806SOL     OW 7269   2.298   0.092   2.998  0.0200  0.0526  0.1850
 1806SOL    HW2 7270   2.290   0.174   3.048  0.8942 -0.4785  1.2236
 1806SOL    HW3 7271   2.231   0.034   3.036  1.5585 -0.7972  1.6663
 1806SOL    MW4 7272   2.288   0.095   3.010  0.3383 -0.1296  0.5176
 1807SOL     OW 7273   2.275   0.336   3.123 -0.4278 -0.2214 -0.0591
 1807SOL    HW2 7274   2.277   0.324   3.218  0.9287 -0.6520 -0.1288
 1807SOL    HW3 7275   2.197   0.389   3.107  0.2070  1.1992  1.4428
 1807SOL    MW4 7276   2.265   0.341   3.133 -0.1652 -0.0908  0.1299
 1808SOL     OW 7277   2.487   0.508   3.070 -0.0248  0.1381  0.4762
 1808SOL    HW2 7278   2.412   0.452   3.089  1.1023 -1.7226 -0.4016
 1808SOL    HW3 7279   2.499   0.501   2.975  1.3762  0.2402  0.6326
 1808SOL    MW4 7280   2.479   0.499   3.060  0.3088 -0.0939  0.3815
 1809SOL     OW 7281   2.495   0.766   3.142  0.3508  0.1884 -0.2077
 1809SOL    HW2 7282   2.576   0.804   3.111  0.0097 -0.7269 -2.2888
 1809SOL    HW3 7283   2.500   0.674   3.117 -1.3617  0.1361 -0.4606
 1809SOL    MW4 7284   2.506   0.759   3.135  0.0801  0.0607 -0.5157
 1810SOL     OW 7285   2.053   0.759   3.113 -0.3569 -0.6576 -0.3524
 1810SOL    HW2 7286   2.071   0.673   3.076 -1.6850 -0.6567 -1.0185
 1810SOL    HW3 7287   1.971   0.786   3.072 -0.3358  0.5976  0.4189
 1810SOL    MW4 7288   2.045   0.751   3.103 -0.5295 -0.4919 -0.3383
 1811SOL     OW 7289   2.270   1.161   3.084 -0.0793  0.1736 -0.3435
 1811SOL    HW2 7290   2.248   1.186   3.173  1.2619  1.2128 -0.2939
 1811SOL    HW3 7291   2.276   1.065   3.087 -0.3990  0.1781  0.5917
 1811SOL    MW4 7292   2.268   1.152   3.096  0.0553  0.3114 -0.2136
 1812SOL     OW 7293   2.496   1.305   3.027  0.0545  0.3655 -0.3529
 1812SOL    HW2 7294   2.421   1.248   3.044  0.3768  0.2756  0.8067
 1812SOL    HW3 7295   2.498   1.314   2.932 -0.5446 -0.8153 -0.4814
 1812SOL    MW4 7296   2.486   1.299   3.017  0.0181  0.1979 -0.2170
 1813SOL     OW 7297   2.494   1.555   3.167 -0.0919 -0.1463 -0.1062
 1813SOL    HW2 7298   2.416   1.599   3.133  0.2369 -0.3364 -1.1257
 1813SOL    HW3 7299   2.496   1.471   3.121  0.8017 -0.0738 -0.2081
 1813SOL    MW4 7300   2.484   1.550   3.156  0.0694 -0.1618 -0.2544
 1814SOL     OW 7301   2.256   1.678   3.036  0.0549  0.2607 -0.2607
 1814SOL    HW2 7302   2.184   1.616   3.049 -2.6483  3.0750 -1.0869
 1814SOL    HW3 7303   2.286   1.663   2.947 -0.3429 -0.1105 -0.3329
 1814SOL    MW4 7304   2.250   1.668   3.026 -0.3543  0.5831 -0.3791
 1815SOL     OW 7305   2.273   1.971   3.116  0.0417  0.0716  0.2682
 1815SOL    HW2 7306   2.366   1.992   3.109  0.4597 -1.7155  0.3166
 1815SOL    HW3 7307   2.266   1.881   3.086 -1.5160 -0.1740  1.2831
 1815SOL    MW4 7308   2.284   1.962   3.111 -0.1085 -0.1967  0.4086
 1816SOL     OW 7309   2.512   2.060   3.059 -0.4473 -0.5120  0.3511
 1816SOL    HW2 7310   2.596   2.016   3.071 -0.3061 -0.7759 -1.5432
 1816SOL    HW3 7311   2.503   2.071   2.965 -0.7607  2.9915  0.7378
 1816SOL    MW4 7312   2.522   2.056   3.048 -0.4699 -0.0844  0.1519
 1817SOL     OW 7313   2.462   2.347   3.090  0.3961  0.2682 -0.1021
 1817SOL    HW2 7314   2.478   2.361   3.183  1.4016  0.8284 -0.3548
 1817SOL    HW3 7315   2.485   2.255   3.076  1.4217  0.5099 -0.0382
 1817SOL    MW4 7316   2.467   2.336   3.101  0.6640  0.3741 -0.1268
 1818SOL     OW 7317   2.208   2.425   3.009 -0.4797  0.1009 -0.5434
 1818SOL    HW2 7318   2.211   2.517   3.035 -0.8350 -0.0397 -0.0079
 1818SOL    HW3 7319   2.295   2.391   3.033 -0.8441 -0.0589  0.5765
 1818SOL    MW4 7320   2.220   2.433   3.016 -0.5748  0.0613 -0.3250
 1819SOL     OW 7321   2.200   2.689   3.117 -0.0048 -0.4798  0.0691
 1819SOL    HW2 7322   2.276   2.733   3.080 -0.2007  1.7233  2.1632
 1819SOL    HW3 7323   2.128   2.713   3.059  0.1980  0.6702  0.2782
 1819SOL    MW4 7324   2.200   2.698   3.105 -0.0041 -0.0374  0.3729
 1820SOL     OW 7325   2.420   2.832   3.019  0.2649  0.9677  0.8200
 1820SOL    HW2 7326   2.435   2.924   3.039 -0.5813  1.9136 -2.5781
 1820SOL    HW3 7327   2.418   2.828   2.924 -1.1261 -2.3358  0.9134
 1820SOL    MW4 7328   2.422   2.843   3.009 -0.0303  0.6568  0.3839
 1821SOL     OW 7329   2.454   3.083   3.149 -0.2085 -0.1450  0.5199
 1821SOL    HW2 7330   2.540   3.115   3.122  0.0801 -1.0076  0.4039
 1821SOL    HW3 7331   2.393   3.134   3.096  0.3150 -0.9225 -0.8882
 1821SOL    MW4 7332   2.457   3.094   3.138 -0.1013 -0.3617  0.3190
 1822SOL     OW 7333   2.262   3.218   2.981  0.2223  0.6545 -0.1674
 1822SOL    HW2 7334   2.255   3.305   3.019  0.5839 -0.3630  2.3445
 1822SOL    HW3 7335   2.185   3.171   3.013  0.6969 -0.3208 -0.4325
 1822SOL    MW4 7336   2.251   3.223   2.990  0.3328  0.3917  0.1290
 1823SOL     OW 7337   2.232   3.456   3.100  0.4371 -0.5830  0.3138
 1823SOL    HW2 7338   2.317   3.491   3.074  0.3654  1.2305  2.3880
 1823SOL    HW3 7339   2.169   3.511   3.053  0.3692 -0.0973  0.9748
 1823SOL    MW4 7340   2.235   3.468   3.090  0.4184 -0.2797  0.6745
 1824SOL     OW 7341   2.455   3.576   3.017  0.1235  0.2316  0.1097
 1824SOL    HW2 7342   2.543   3.555   3.048  0.2298  0.4532 -0.0365
 1824SOL    HW3 7343   2.445   3.669   3.033 -0.1115  0.1940  0.1901
 1824SOL    MW4 7344   2.465   3.585   3.023  0.1066  0.2558  0.1009
 1825SOL     OW 7345   2.490   3.831   3.135  0.2029  0.0269 -0.1091
 1825SOL    HW2 7346   2.468   3.844   3.227 -1.6927  0.8956 -0.6572
 1825SOL    HW3 7347   2.568   3.885   3.121  0.7914 -0.4804  1.0856
 1825SOL    MW4 7348   2.498   3.840   3.145  0.0305  0.0744 -0.0238
 1826SOL     OW 7349   2.263   3.929   3.004  0.5391  0.1841  0.4905
 1826SOL    HW2 7350   2.336   3.889   3.051  0.6944  0.5272  0.5383
 1826SOL    HW3 7351   2.185   3.895   3.049  0.6473 -0.6864  0.0383
 1826SOL    MW4 7352   2.262   3.919   3.017  0.5739  0.1144  0.4375
 1827SOL     OW 7353   2.281   4.232   3.106  0.0510 -0.2800  0.4071
 1827SOL    HW2 7354   2.280   4.143   3.072  1.2596  0.2611 -1.1442
 1827SOL    HW3 7355   2.197   4.269   3.077 -0.2022 -0.7437  0.5522
 1827SOL    MW4 7356   2.270   4.225   3.098  0.1771 -0.2699  0.2215
 1828SOL     OW 7357   2.499   4.378   3.028  0.1336  0.0895  0.0763
 1828SOL    HW2 7358   2.421   4.332   3.060  1.6279 -1.5940  1.4145
 1828SOL    HW3 7359   2.491   4.375   2.933 -1.3953 -0.1097  0.1948
 1828SOL    MW4 7360   2.487   4.371   3.020  0.1292 -0.1588  0.2685
 1829SOL     OW 7361   2.942   4.651   3.121  0.7414  0.2472  0.4794
 1829SOL    HW2 7362   2.935   4.559   3.095  0.7760  0.5624 -0.6779
 1829SOL    HW3 7363   3.023   4.681   3.082  0.5252  0.8856  0.5157
 1829SOL    MW4 7364   2.952   4.643   3.113  0.7174  0.3729  0.3316
 1830SOL     OW 7365   2.702   0.138   3.039 -0.5544  0.1206  0.1960
 1830SOL    HW2 7366   2.773   0.081   3.070 -1.1324 -1.4030 -1.2065
 1830SOL    HW3 7367   2.622   0.092   3.064 -1.0357  0.7924 -0.1113
 1830SOL    MW4 7368   2.701   0.124   3.047 -0.6940  0.0082 -0.0293
 1831SOL     OW 7369   2.698   0.360   3.170  0.4198 -0.0410 -0.3208
 1831SOL    HW2 7370   2.711   0.274   3.130  0.9862 -0.7481  1.3336
 1831SOL    HW3 7371   2.619   0.395   3.129  0.0405 -1.4710 -0.8077
 1831SOL    MW4 7372   2.690   0.353   3.159  0.4444 -0.3230 -0.1667
 1832SOL     OW 7373   2.936   0.479   3.057  0.7737 -0.0563 -0.9657
 1832SOL    HW2 7374   2.856   0.436   3.086 -0.3805  2.1360 -0.7525
 1832SOL    HW3 7375   2.926   0.486   2.962  0.2630  1.0287 -0.8437
 1832SOL    MW4 7376   2.924   0.475   3.048  0.5538  0.3761 -0.9217
 1833SOL     OW 7377   2.964   0.770   3.138 -0.4884 -0.4526 -0.2643
 1833SOL    HW2 7378   2.955   0.758   3.232  0.7741 -0.8482 -0.1860
 1833SOL    HW3 7379   2.958   0.681   3.102 -2.0244 -0.2132 -0.6695
 1833SOL    MW4 7380   2.962   0.756   3.146 -0.5248 -0.4732 -0.3071
 1834SOL     OW 7381   2.730   0.863   3.038  0.4740  0.1671 -0.0948
 1834SOL    HW2 7382   2.731   0.956   3.062 -0.3137  0.7415 -2.2502
 1834SOL    HW3 7383   2.807   0.827   3.082 -0.0202  1.5223  1.9500
 1834SOL    MW4 7384   2.740   0.870   3.047  0.3052  0.4216 -0.1097
 1835SOL     OW 7385   2.719   1.144   3.117  0.3746 -0.2857  0.1013
 1835SOL    HW2 7386   2.790   1.206   3.107  0.4737 -0.2381  1.0653
 1835SOL    HW3 7387   2.645   1.184   3.071  0.8052 -0.0714 -0.4041
 1835SOL    MW4 7388   2.718   1.157   3.110  0.4444 -0.2512  0.1616
 1836SOL     OW 7389   2.930   1.314   3.048 -0.0675 -0.2035  0.2629
 1836SOL    HW2 7390   3.006   1.263   3.078  1.2332  1.5903  0.0978
 1836SOL    HW3 7391   2.935   1.395   3.098 -1.8744 -0.0471  0.2043
 1836SOL    MW4 7392   2.941   1.318   3.058 -0.1342  0.0538  0.2334
 1837SOL     OW 7393   2.935   1.562   3.167 -0.1522 -0.1132 -0.2966
 1837SOL    HW2 7394   2.946   1.563   3.262 -1.6743  1.2016 -0.1173
 1837SOL    HW3 7395   3.021   1.584   3.133  0.4482 -0.7712  0.7691
 1837SOL    MW4 7396   2.948   1.565   3.175 -0.2737 -0.0266 -0.1323
 1838SOL     OW 7397   2.712   1.679   3.061 -0.5257  0.1293 -0.5379
 1838SOL    HW2 7398   2.796   1.640   3.087  0.2378  0.5865 -2.2418
 1838SOL    HW3 7399   2.648   1.638   3.119  0.6884 -1.2684 -0.1438
 1838SOL    MW4 7400   2.715   1.668   3.073 -0.2649  0.0052 -0.7107
 1839SOL     OW 7401   2.741   1.941   3.135  0.4944  0.1100 -0.0850
 1839SOL    HW2 7402   2.816   1.972   3.083 -0.4152  0.4408 -1.2477
 1839SOL    HW3 7403   2.742   1.846   3.125  0.7333  0.1194 -0.1446
 1839SOL    MW4 7404   2.751   1.933   3.126  0.4058  0.1550 -0.2463
 1840SOL     OW 7405   2.958   2.049   3.001  0.1542  0.5360  0.2009
 1840SOL    HW2 7406   2.939   2.135   3.039 -0.8439  0.8410 -0.9573
 1840SOL    HW3 7407   2.958   2.064   2.907 -1.8583 -1.0785 -0.0830
 1840SOL    MW4 7408   2.955   2.063   2.994 -0.2429  0.3631  0.0107
 1841SOL     OW 7409   2.959   2.321   3.107  0.0944  0.4197  0.0950
 1841SOL    HW2 7410   3.035   2.369   3.075  0.2347  0.0424 -0.1499
 1841SOL    HW3 7411   2.884   2.365   3.069  0.2485  0.1270 -0.5550
 1841SOL    MW4 7412   2.959   2.333   3.098  0.1333  0.3314 -0.0234
 1842SOL     OW 7413   2.715   2.442   2.995  0.5100  0.0352  0.4820
 1842SOL    HW2 7414   2.708   2.537   3.006  0.3774  0.3776 -2.1006
 1842SOL    HW3 7415   2.631   2.408   3.027  0.2787  0.8628  0.7687
 1842SOL    MW4 7416   2.703   2.450   3.000  0.4621  0.1898  0.1791
 1843SOL     OW 7417   2.678   2.729   3.090 -0.2531 -0.0050 -0.0267
 1843SOL    HW2 7418   2.679   2.723   3.185 -0.0055  0.1592 -0.0157
 1843SOL    HW3 7419   2.594   2.769   3.069 -0.0576  0.5228  0.1660
 1843SOL    MW4 7420   2.667   2.734   3.100 -0.1948  0.0863  0.0000
 1844SOL     OW 7421   2.906   2.858   3.019 -0.5402  0.2374  0.1400
 1844SOL    HW2 7422   2.982   2.807   3.047 -0.8433 -0.6488 -0.6492
 1844SOL    HW3 7423   2.831   2.808   3.050 -0.8529 -0.0969 -1.1267
 1844SOL    MW4 7424   2.906   2.844   3.027 -0.6216  0.0763 -0.1314
 1845SOL     OW 7425   2.938   3.100   3.119  0.3820  0.1726 -0.3815
 1845SOL    HW2 7426   2.853   3.144   3.108  1.1019  0.9996 -2.9518
 1845SOL    HW3 7427   2.923   3.012   3.084  0.3752  0.0627 -0.1017
 1845SOL    MW4 7428   2.925   3.094   3.113  0.4759  0.2668 -0.6838
 1846SOL     OW 7429   2.675   3.201   3.028 -0.1751  0.1510 -0.3046
 1846SOL    HW2 7430   2.674   3.292   3.058  0.7007  0.5878 -1.5602
 1846SOL    HW3 7431   2.686   3.208   2.933  0.7795 -1.2914 -0.3050
 1846SOL    MW4 7432   2.676   3.214   3.020  0.0663  0.0186 -0.4702
 1847SOL     OW 7433   2.696   3.464   3.112  0.3183  0.1518 -0.2335
 1847SOL    HW2 7434   2.712   3.470   3.207 -0.2443 -1.7168  0.0016
 1847SOL    HW3 7435   2.763   3.520   3.073  0.7816  0.6755  1.2496
 1847SOL    MW4 7436   2.707   3.472   3.120  0.3052 -0.0257 -0.0067
 1848SOL     OW 7437   2.914   3.605   3.033  0.4680  0.1665 -0.2546
 1848SOL    HW2 7438   2.987   3.559   3.072 -0.7128 -0.8128  0.8292
 1848SOL    HW3 7439   2.932   3.698   3.050  1.5625 -0.0576 -0.2003
 1848SOL    MW4 7440   2.926   3.611   3.040  0.4566  0.0076 -0.1044
 1849SOL     OW 7441   2.950   3.863   3.126  0.0299  0.8154 -0.1072
 1849SOL    HW2 7442   2.952   3.847   3.221  1.5035 -0.0596 -0.2795
 1849SOL    HW3 7443   2.861   3.897   3.110 -1.2496 -1.7837  1.1367
 1849SOL    MW4 7444   2.938   3.865   3.137  0.0556  0.3572  0.0343
 1850SOL     OW 7445   2.701   3.985   3.049  0.6550  0.0500 -0.3350
 1850SOL    HW2 7446   2.720   4.071   3.087  1.5111 -0.6470  0.8292
 1850SOL    HW3 7447   2.708   3.999   2.954  0.1099  1.4188 -0.1926
 1850SOL    MW4 7448   2.704   3.998   3.041  0.6962  0.1385 -0.1626
 1851SOL     OW 7449   2.723   4.246   3.143  0.3187  0.5365 -0.4727
 1851SOL    HW2 7450   2.721   4.243   3.239 -0.6076  0.3046 -0.4940
 1851SOL    HW3 7451   2.642   4.290   3.119 -0.1246 -0.6381 -1.1960
 1851SOL    MW4 7452   2.712   4.251   3.152  0.1378  0.3510 -0.5710
 1852SOL     OW 7453   2.954   4.380   3.025 -0.0467  0.4753 -0.2797
 1852SOL    HW2 7454   3.033   4.350   3.071 -0.1787  0.7913  0.1549
 1852SOL    HW3 7455   2.882   4.343   3.076 -0.1818 -0.0497 -0.8386
 1852SOL    MW4 7456   2.955   4.371   3.038 -0.0820  0.4482 -0.2959
 1853SOL     OW 7457   3.383   4.625   3.135 -0.5216  0.0129 -0.0378
 1853SOL    HW2 7458   3.464   4.667   3.104 -0.6902  0.7165  0.4813
 1853SOL    HW3 7459   3.382   4.541   3.089  0.1957  0.2538 -0.5165
 1853SOL    MW4 7460   3.394   4.619   3.125 -0.4492  0.1373 -0.0322
 1854SOL     OW 7461   3.171   0.082   3.016  0.3722 -0.2185  0.2673
 1854SOL    HW2 7462   3.173   0.174   3.041  1.1040  0.2347 -1.3632
 1854SOL    HW3 7463   3.253   0.046   3.049  2.4947  0.9516 -3.4053
 1854SOL    MW4 7464   3.182   0.090   3.023  0.7486 -0.0043 -0.4327
 1855SOL     OW 7465   3.179   0.341   3.117 -0.2827  0.4563 -0.2117
 1855SOL    HW2 7466   3.250   0.399   3.088 -1.2744  2.1466  0.6164
 1855SOL    HW3 7467   3.099   0.387   3.092 -1.1333  0.9169  3.0880
 1855SOL    MW4 7468   3.178   0.355   3.110 -0.5257  0.7401  0.3331
 1856SOL     OW 7469   3.369   0.518   3.040 -0.7896  0.0886  0.0853
 1856SOL    HW2 7470   3.446   0.463   3.052 -0.1837  0.8556 -0.1788
 1856SOL    HW3 7471   3.351   0.516   2.946  0.4493  1.8961 -0.2300
 1856SOL    MW4 7472   3.377   0.511   3.030 -0.5465  0.4282  0.0088
 1857SOL     OW 7473   3.401   0.764   3.151 -0.3825 -0.6402 -0.4035
 1857SOL    HW2 7474   3.381   0.746   3.243  0.2934 -0.1490 -0.1521
 1857SOL    HW3 7475   3.393   0.679   3.108 -1.6067 -0.7069 -0.0662
 1857SOL    MW4 7476   3.397   0.751   3.157 -0.4549 -0.5842 -0.3257
 1858SOL     OW 7477   3.187   0.902   3.060  0.2212 -0.0134 -0.1572
 1858SOL    HW2 7478   3.258   0.841   3.082  0.7859  1.4269  2.1908
 1858SOL    HW3 7479   3.108   0.861   3.097  0.3323 -0.1583 -0.0789
 1858SOL    MW4 7480   3.186   0.889   3.068  0.3104  0.1575  0.1628
 1859SOL     OW 7481   3.162   1.163   3.108  0.2219  0.0096  0.0331
 1859SOL    HW2 7482   3.178   1.071   3.083 -0.7934 -0.5586  1.4331
 1859SOL    HW3 7483   3.247   1.206   3.095  0.6015 -1.0245 -1.0410
 1859SOL    MW4 7484   3.176   1.156   3.103  0.1378 -0.2018  0.0763
 1860SOL     OW 7485   3.390   1.289   3.024 -0.3690 -0.2871  0.2448
 1860SOL    HW2 7486   3.469   1.255   3.066 -1.1092  0.1591  2.0509
 1860SOL    HW3 7487   3.380   1.377   3.060 -0.1656  0.7483 -2.0860
 1860SOL    MW4 7488   3.399   1.296   3.034 -0.4396 -0.0916  0.1755
 1861SOL     OW 7489   3.385   1.560   3.132  0.5146  0.2187  0.3361
 1861SOL    HW2 7490   3.391   1.588   3.223 -0.7036  1.3698  0.0812
 1861SOL    HW3 7491   3.473   1.574   3.096  0.9246  0.0245  1.2528
 1861SOL    MW4 7492   3.397   1.566   3.139  0.4077  0.3451  0.4234
 1862SOL     OW 7493   3.155   1.662   3.053  0.4284  0.4260 -0.2267
 1862SOL    HW2 7494   3.238   1.623   3.079 -0.1977 -1.5866 -1.1325
 1862SOL    HW3 7495   3.157   1.662   2.957 -1.5389 -1.8612 -0.3387
 1862SOL    MW4 7496   3.166   1.657   3.044  0.0863 -0.1414 -0.3612
 1863SOL     OW 7497   3.151   1.914   3.168 -0.2396 -0.1138 -0.0071
 1863SOL    HW2 7498   3.157   1.821   3.147 -2.1919 -0.3332  0.3485
 1863SOL    HW3 7499   3.076   1.946   3.118 -0.6422  0.8761  1.1906
 1863SOL    MW4 7500   3.142   1.906   3.159 -0.5503 -0.0122  0.1979
 1864SOL     OW 7501   3.364   2.047   3.030  0.1007  0.6208 -0.1162
 1864SOL    HW2 7502   3.437   1.998   3.067 -0.1338 -0.8652 -1.5490
 1864SOL    HW3 7503   3.287   2.016   3.077  0.0696  0.2572 -0.4013
 1864SOL    MW4 7504   3.364   2.037   3.041  0.0656  0.3769 -0.3428
 1865SOL     OW 7505   3.390   2.306   3.130  0.4521  0.0225 -0.1226
 1865SOL    HW2 7506   3.396   2.298   3.226 -0.6813 -0.1908 -0.0686
 1865SOL    HW3 7507   3.370   2.217   3.100 -0.4124  0.3289 -0.4596
 1865SOL    MW4 7508   3.388   2.293   3.139  0.1886  0.0348 -0.1602
 1866SOL     OW 7509   3.182   2.475   3.038 -0.0889  0.0580  0.3722
 1866SOL    HW2 7510   3.271   2.445   3.055  0.7852  0.8010 -2.6080
 1866SOL    HW3 7511   3.179   2.489   2.944 -2.6285  2.3867  0.7270
 1866SOL    MW4 7512   3.193   2.473   3.028 -0.3088  0.4632  0.0257
 1867SOL     OW 7513   3.110   2.721   3.139  0.8454  0.4216  0.1115
 1867SOL    HW2 7514   3.115   2.713   3.234 -0.7554 -1.0018  0.1113
 1867SOL    HW3 7515   3.149   2.640   3.105 -1.8271 -0.7390 -0.3189
 1867SOL    MW4 7516   3.116   2.709   3.147  0.2816  0.0808  0.0548
 1868SOL     OW 7517   3.333   2.815   3.007 -0.2295 -0.1329 -0.2156
 1868SOL    HW2 7518   3.351   2.901   3.044 -2.2161 -0.2613  1.1270
 1868SOL    HW3 7519   3.257   2.783   3.056 -0.7164 -1.8291 -2.0119
 1868SOL    MW4 7520   3.325   2.822   3.018 -0.5562 -0.3736 -0.2754
 1869SOL     OW 7521   3.384   3.067   3.147  0.8356 -0.0107  0.0851
 1869SOL    HW2 7522   3.365   3.084   3.239 -1.1078  0.3346 -0.3654
 1869SOL    HW3 7523   3.327   3.127   3.099  0.9407 -1.0396 -1.3538
 1869SOL    MW4 7524   3.374   3.077   3.153  0.5927 -0.1011 -0.1643
 1870SOL     OW 7525   3.179   3.206   3.008 -0.1339  0.4415  0.3184
 1870SOL    HW2 7526   3.093   3.166   3.018 -0.5003  1.1981  0.2046
 1870SOL    HW3 7527   3.190   3.216   2.913 -0.0897  0.7136  0.3519
 1870SOL    MW4 7528   3.169   3.202   2.997 -0.1762  0.5770  0.3076
 1871SOL     OW 7529   3.141   3.449   3.136 -0.2397 -0.6630  0.0108
 1871SOL    HW2 7530   3.208   3.509   3.104  1.3862 -1.8073  1.2001
 1871SOL    HW3 7531   3.164   3.365   3.097 -0.7108 -1.1584  0.8018
 1871SOL    MW4 7532   3.153   3.446   3.126 -0.0875 -0.8795  0.2723
 1872SOL     OW 7533   3.344   3.593   3.008 -0.1214  0.0650 -0.1354
 1872SOL    HW2 7534   3.414   3.546   3.054  1.4339  0.4363 -2.0740
 1872SOL    HW3 7535   3.351   3.683   3.041 -0.1324 -0.0534  0.1922
 1872SOL    MW4 7536   3.354   3.599   3.019  0.0825  0.0985 -0.3479
 1873SOL     OW 7537   3.375   3.860   3.118 -0.1180 -0.5103  0.7493
 1873SOL    HW2 7538   3.374   3.872   3.213  0.6809 -0.2293  0.7205
 1873SOL    HW3 7539   3.304   3.916   3.086  0.8363  0.8587  1.0020
 1873SOL    MW4 7540   3.365   3.869   3.127  0.1132 -0.2925  0.7789
 1874SOL     OW 7541   3.154   4.024   3.037 -0.2723 -0.1612  0.4535
 1874SOL    HW2 7542   3.082   3.980   3.082 -0.3321  0.8967  1.4021
 1874SOL    HW3 7543   3.140   4.005   2.944 -1.6055 -0.1966  0.6594
 1874SOL    MW4 7544   3.143   4.015   3.030 -0.4559 -0.0267  0.6058
 1875SOL     OW 7545   3.163   4.274   3.158 -0.2366  0.3181  0.1835
 1875SOL    HW2 7546   3.171   4.259   3.252 -0.6890 -1.7862 -0.1011
 1875SOL    HW3 7547   3.170   4.187   3.119 -1.8443  0.9743 -1.6051
 1875SOL    MW4 7548   3.165   4.261   3.165 -0.5085  0.1268 -0.0901
 1876SOL     OW 7549   3.396   4.343   3.033  0.3709 -0.1023 -0.5359
 1876SOL    HW2 7550   3.467   4.303   3.082 -0.8533 -0.8661  0.6484
 1876SOL    HW3 7551   3.316   4.317   3.080 -0.7380  0.2082 -2.1883
 1876SOL    MW4 7552   3.395   4.334   3.046  0.0629 -0.1621 -0.5977
 1877SOL     OW 7553   3.838   4.650   3.108 -0.4919 -0.4815  0.5593
 1877SOL    HW2 7554   3.814   4.559   3.092 -0.8278 -0.3258  0.1733
 1877SOL    HW3 7555   3.758   4.700   3.087  0.1150  0.0240 -0.6089
 1877SOL    MW4 7556   3.824   4.645   3.103 -0.4563 -0.3939  0.3543
 1878SOL     OW 7557   3.592   0.105   3.028 -0.1808 -0.0757  0.2039
 1878SOL    HW2 7558   3.592   0.196   3.058  1.9906 -0.1198  0.3955
 1878SOL    HW3 7559   3.595   0.112   2.932 -3.6124  0.0367  0.0351
 1878SOL    MW4 7560   3.592   0.118   3.019 -0.3469 -0.0667  0.2067
 1879SOL     OW 7561   3.595   0.360   3.111  0.2797  0.2115 -0.0649
 1879SOL    HW2 7562   3.611   0.358   3.206  1.5151  0.6168 -0.2682
 1879SOL    HW3 7563   3.674   0.398   3.074  0.7432 -2.0668 -1.4869
 1879SOL    MW4 7564   3.607   0.365   3.119  0.5035 -0.0356 -0.2792
 1880SOL     OW 7565   3.830   0.479   3.012  0.0366 -0.3902 -0.1578
 1880SOL    HW2 7566   3.900   0.443   3.066 -1.3138 -1.9318  0.6054
 1880SOL    HW3 7567   3.818   0.568   3.046  1.8128  0.0008 -0.5066
 1880SOL    MW4 7568   3.838   0.486   3.024  0.0930 -0.5420 -0.1032
 1881SOL     OW 7569   3.817   0.743   3.108  0.2677  0.7226  0.3554
 1881SOL    HW2 7570   3.830   0.735   3.203  1.2886 -0.2260  0.1460
 1881SOL    HW3 7571   3.901   0.773   3.075  0.8344 -1.7779 -0.5858
 1881SOL    MW4 7572   3.830   0.746   3.117  0.4771  0.2675  0.2036
 1882SOL     OW 7573   3.622   0.899   3.011  0.5530  0.0024 -0.0085
 1882SOL    HW2 7574   3.699   0.848   3.038 -0.3433 -1.8140 -0.7809
 1882SOL    HW3 7575   3.550   0.863   3.062 -0.1596  0.2352 -0.8441
 1882SOL    MW4 7576   3.623   0.888   3.021  0.3407 -0.2064 -0.2205
 1883SOL     OW 7577   3.638   1.162   3.120 -0.5961 -1.0454 -0.2043
 1883SOL    HW2 7578   3.722   1.199   3.092 -1.4287  0.1901 -1.0952
 1883SOL    HW3 7579   3.643   1.070   3.093  0.5860 -1.0610  0.0240
 1883SOL    MW4 7580   3.650   1.154   3.113 -0.5500 -0.8845 -0.2916
 1884SOL     OW 7581   3.866   1.266   3.017 -0.8576 -0.4112  0.6392
 1884SOL    HW2 7582   3.853   1.271   2.922  1.3100 -0.3765  0.3068
 1884SOL    HW3 7583   3.880   1.357   3.044 -1.9737 -0.3653  1.0806
 1884SOL    MW4 7584   3.866   1.279   3.008 -0.7191 -0.4005  0.6535
 1885SOL     OW 7585   3.858   1.522   3.113 -0.3936 -0.0786  0.0702
 1885SOL    HW2 7586   3.847   1.519   3.208  1.3606 -0.4233  0.2717
 1885SOL    HW3 7587   3.784   1.575   3.082 -0.7290  0.4112  1.6600
 1885SOL    MW4 7588   3.847   1.529   3.121 -0.2065 -0.0596  0.3064
 1886SOL     OW 7589   3.638   1.668   3.051 -0.0370  0.6237  0.0252
 1886SOL    HW2 7590   3.641   1.762   3.070 -0.7056  0.4822  0.8357
 1886SOL    HW3 7591   3.639   1.663   2.956  0.0677  1.4516 -0.0203
 1886SOL    MW4 7592   3.639   1.680   3.041 -0.1116  0.7144  0.1266
 1887SOL     OW 7593   3.590   1.933   3.153  0.2329 -0.2872  0.2160
 1887SOL    HW2 7594   3.601   1.939   3.248  2.3961 -1.9873  0.0973
 1887SOL    HW3 7595   3.673   1.965   3.117 -0.2619 -0.4426 -1.1000
 1887SOL    MW4 7596   3.603   1.938   3.161  0.4530 -0.5320  0.0267
 1888SOL     OW 7597   3.844   2.040   3.029 -0.1479 -0.1980 -0.6815
 1888SOL    HW2 7598   3.833   2.132   3.051 -1.0076 -0.3274 -0.5313
 1888SOL    HW3 7599   3.853   2.039   2.934  1.6757  0.1910 -0.5346
 1888SOL    MW4 7600   3.844   2.052   3.019 -0.0207 -0.1640 -0.6423
 1889SOL     OW 7601   3.829   2.297   3.134 -0.6985  0.4695  0.3463
 1889SOL    HW2 7602   3.761   2.357   3.105 -0.6118  0.0927 -0.6475
 1889SOL    HW3 7603   3.838   2.314   3.228 -0.9832  1.6820  0.1505
 1889SOL    MW4 7604   3.821   2.307   3.143 -0.7248  0.5798  0.1893
 1890SOL     OW 7605   3.623   2.454   3.035  0.9101  0.1248  0.0996
 1890SOL    HW2 7606   3.622   2.540   3.077  0.8539 -0.4304  1.2722
 1890SOL    HW3 7607   3.547   2.409   3.071  0.7295 -0.2868 -0.7899
 1890SOL    MW4 7608   3.613   2.459   3.045  0.8790 -0.0029  0.1371
 1891SOL     OW 7609   3.543   2.705   3.160  0.0088  0.5049  0.3410
 1891SOL    HW2 7610   3.613   2.755   3.118  0.6169 -1.0745 -0.5538
 1891SOL    HW3 7611   3.462   2.742   3.123  0.4956  0.1048 -1.1423
 1891SOL    MW4 7612   3.541   2.717   3.150  0.1533  0.2439  0.0272
 1892SOL     OW 7613   3.791   2.826   3.048 -0.0058 -0.1326 -0.3826
 1892SOL    HW2 7614   3.814   2.915   3.076  0.4434 -0.3630 -0.0094
 1892SOL    HW3 7615   3.812   2.824   2.955 -1.4844  0.6321 -0.7441
 1892SOL    MW4 7616   3.797   2.837   3.039 -0.1419 -0.0622 -0.3812
 1893SOL     OW 7617   3.821   3.075   3.142  0.0655  0.5514  0.0256
 1893SOL    HW2 7618   3.889   3.119   3.092 -0.7376 -0.0546 -1.6311
 1893SOL    HW3 7619   3.740   3.120   3.118 -0.4282 -0.2128  0.2226
 1893SOL    MW4 7620   3.819   3.087   3.132 -0.1054  0.3705 -0.1669
 1894SOL     OW 7621   3.598   3.204   3.039  0.4000 -0.0917 -0.2993
 1894SOL    HW2 7622   3.529   3.143   3.065 -0.6951  1.2868  0.0808
 1894SOL    HW3 7623   3.603   3.195   2.943 -2.7469  2.3153 -0.7463
 1894SOL    MW4 7624   3.590   3.194   3.029 -0.1597  0.4077 -0.3083
 1895SOL     OW 7625   3.531   3.446   3.142 -0.4496 -0.1330 -0.1817
 1895SOL    HW2 7626   3.608   3.492   3.106  0.5461  0.6158  2.7158
 1895SOL    HW3 7627   3.533   3.360   3.102  1.1621  0.3333 -1.1497
 1895SOL    MW4 7628   3.542   3.441   3.132 -0.1056  0.0274  0.0730
 1896SOL     OW 7629   3.782   3.577   3.034 -0.2357  0.2569  0.3824
 1896SOL    HW2 7630   3.801   3.662   3.074 -0.5768  0.1848  0.6937
 1896SOL    HW3 7631   3.775   3.595   2.941  0.9274  0.3690  0.3065
 1896SOL    MW4 7632   3.784   3.591   3.027 -0.1271  0.2620  0.4137
 1897SOL     OW 7633   3.832   3.841   3.123 -0.3859 -0.7949 -0.1744
 1897SOL    HW2 7634   3.830   3.837   3.219 -2.8255 -4.4091 -0.2593
 1897SOL    HW3 7635   3.752   3.889   3.099 -0.1529 -0.5218 -0.4040
 1897SOL    MW4 7636   3.821   3.847   3.133 -0.6766 -1.2357 -0.2158
 1898SOL     OW 7637   3.615   3.985   3.002  0.3970 -0.1685  0.1146
 1898SOL    HW2 7638   3.532   3.947   3.032  0.7157  0.0148  1.2447
 1898SOL    HW3 7639   3.605   3.992   2.907 -0.9534  0.0081  0.2580
 1898SOL    MW4 7640   3.603   3.981   2.993  0.2608 -0.1209  0.2823
 1899SOL     OW 7641   3.613   4.223   3.147  0.2139 -0.0034  0.9598
 1899SOL    HW2 7642   3.686   4.268   3.104  0.9303 -1.2111  0.8879
 1899SOL    HW3 7643   3.602   4.142   3.098 -0.9890  0.0239  1.1585
 1899SOL    MW4 7644   3.621   4.218   3.135  0.1495 -0.1597  0.9766
 1900SOL     OW 7645   3.810   4.391   3.059 -0.1945 -0.2547  0.1181
 1900SOL    HW2 7646   3.885   4.333   3.078 -0.5847 -0.5275  0.8611
 1900SOL    HW3 7647   3.819   4.412   2.966  1.8748  1.2571  0.6385
 1900SOL    MW4 7648   3.821   4.386   3.049  0.0269 -0.0906  0.2849
 1901SOL     OW 7649   4.265   4.650   3.141  0.6160  0.4525  0.5574
 1901SOL    HW2 7650   4.272   4.627   3.233  0.5561  1.3132  0.7827
 1901SOL    HW3 7651   4.277   4.567   3.094  0.6139  0.0114  1.3346
 1901SOL    MW4 7652   4.268   4.636   3.147  0.6080  0.5078  0.6897
 1902SOL     OW 7653   4.070   0.115   3.012 -0.1983 -0.3561  0.3093
 1902SOL    HW2 7654   4.141   0.075   3.063  0.0679  2.1559  2.0300
 1902SOL    HW3 7655   3.992   0.067   3.037  0.2264 -0.3237  1.7756
 1902SOL    MW4 7656   4.069   0.104   3.022 -0.1073 -0.0204  0.7298
 1903SOL     OW 7657   4.055   0.366   3.146 -0.6975  0.2176 -0.0488
 1903SOL    HW2 7658   4.048   0.354   3.241 -2.3128 -0.7683 -0.2799
 1903SOL    HW3 7659   4.069   0.278   3.112  0.5665  0.6578 -0.6831
 1903SOL    MW4 7660   4.056   0.353   3.154 -0.7439  0.1456 -0.1628
 1904SOL     OW 7661   4.272   0.497   3.035  0.2084  0.0479 -0.3331
 1904SOL    HW2 7662   4.194   0.451   3.063  1.0799 -1.4330 -0.2730
 1904SOL    HW3 7663   4.265   0.584   3.074 -0.8977 -0.4174  0.5029
 1904SOL    MW4 7664   4.261   0.502   3.044  0.1774 -0.2089 -0.2151
 1905SOL     OW 7665   4.253   0.729   3.160  0.3588 -0.1465 -0.4705
 1905SOL    HW2 7666   4.334   0.774   3.134 -0.4132  2.2112  1.0886
 1905SOL    HW3 7667   4.183   0.780   3.119 -0.5522  0.3201  1.6097
 1905SOL    MW4 7668   4.255   0.742   3.151  0.1369  0.2262  0.0095
 1906SOL     OW 7669   4.063   0.874   3.027  0.4393  0.1831  0.2411
 1906SOL    HW2 7670   4.065   0.961   3.067 -0.8595  1.0545 -1.5198
 1906SOL    HW3 7671   4.044   0.890   2.934  1.7433 -1.8807 -0.4276
 1906SOL    MW4 7672   4.061   0.888   3.020  0.4406  0.0257 -0.0796
 1907SOL     OW 7673   4.097   1.131   3.103  0.5277  0.1122 -0.3323
 1907SOL    HW2 7674   4.088   1.150   3.196  0.3165 -0.0857 -0.3134
 1907SOL    HW3 7675   4.017   1.166   3.064  0.3342 -0.3658 -0.3572
 1907SOL    MW4 7676   4.085   1.138   3.110  0.4745  0.0230 -0.3331
 1908SOL     OW 7677   4.289   1.295   3.019  0.3564  0.3899 -0.2776
 1908SOL    HW2 7678   4.232   1.221   3.043 -0.1352  0.4791 -1.1555
 1908SOL    HW3 7679   4.291   1.294   2.924  2.0825  0.2019 -0.2627
 1908SOL    MW4 7680   4.282   1.285   3.010  0.5193  0.3767 -0.3915
 1909SOL     OW 7681   4.244   1.552   3.134 -0.1989  0.0468 -0.3670
 1909SOL    HW2 7682   4.184   1.612   3.089  1.8145  1.2205 -1.5720
 1909SOL    HW3 7683   4.229   1.467   3.092 -0.0556  0.6269 -1.6284
 1909SOL    MW4 7684   4.234   1.549   3.123  0.0858  0.2782 -0.6926
 1910SOL     OW 7685   4.047   1.698   3.002  0.1852  0.1622  0.1430
 1910SOL    HW2 7686   4.032   1.771   3.061  2.9653 -0.3294  1.5428
 1910SOL    HW3 7687   3.988   1.629   3.034 -1.0471  1.1146 -0.0168
 1910SOL    MW4 7688   4.037   1.698   3.014  0.3896  0.2229  0.3066
 1911SOL     OW 7689   4.048   1.917   3.162 -0.1112 -0.1871  0.3427
 1911SOL    HW2 7690   4.127   1.961   3.129 -0.0010  0.4466  1.4537
 1911SOL    HW3 7691   3.976   1.968   3.125 -0.0202 -1.0304 -1.0398
 1911SOL    MW4 7692   4.049   1.930   3.153 -0.0849 -0.2147  0.3068
 1912SOL     OW 7693   4.252   2.056   3.006 -0.6118 -0.2346 -0.1587
 1912SOL    HW2 7694   4.262   2.142   3.045  0.4363  0.4657 -1.9473
 1912SOL    HW3 7695   4.228   2.073   2.914 -1.3385 -1.8409 -0.2941
 1912SOL    MW4 7696   4.250   2.069   2.999 -0.5693 -0.3541 -0.4125
 1913SOL     OW 7697   4.067   2.452   3.008 -0.1358 -0.3380 -0.4372
 1913SOL    HW2 7698   3.987   2.409   3.037 -0.9869  1.0315 -0.7210
 1913SOL    HW3 7699   4.060   2.542   3.041 -0.1358  0.6515 -2.9751
 1913SOL    MW4 7700   4.056   2.458   3.016 -0.2475 -0.0267 -0.8094
 1914SOL     OW 7701   4.034   2.717   3.116 -0.1411  0.4111 -0.1271
 1914SOL    HW2 7702   4.044   2.711   3.211 -0.0077  0.3660 -0.1446
 1914SOL    HW3 7703   3.950   2.761   3.104 -0.5845 -0.3866  0.0053
 1914SOL    MW4 7704   4.025   2.722   3.127 -0.1812  0.3002 -0.1121
 1915SOL     OW 7705   4.278   2.822   3.013 -0.4811  0.0805  0.1855
 1915SOL    HW2 7706   4.341   2.774   3.067  0.2249 -0.7392 -1.3393
 1915SOL    HW3 7707   4.192   2.794   3.045 -0.0799  0.1920  1.3866
 1915SOL    MW4 7708   4.275   2.812   3.024 -0.3352 -0.0131  0.1428
 1916SOL     OW 7709   4.232   3.086   3.109  0.5067 -0.0749 -0.8281
 1916SOL    HW2 7710   4.153   3.112   3.062 -0.1007 -1.8767 -0.8700
 1916SOL    HW3 7711   4.264   3.010   3.061  0.5716 -1.1974  0.9219
 1916SOL    MW4 7712   4.226   3.079   3.097  0.4354 -0.4609 -0.6030
 1917SOL     OW 7713   4.253   3.108   3.396  0.1568  0.4334 -0.1325
 1917SOL    HW2 7714   4.247   3.103   3.301  0.0139  0.1073 -0.1073
 1917SOL    HW3 7715   4.243   3.018   3.426 -2.5964  0.8598  0.3494
 1917SOL    MW4 7716   4.251   3.096   3.388 -0.2251  0.4468 -0.0658
 1918SOL     OW 7717   4.010   3.189   2.990  0.0839  0.0359 -0.3263
 1918SOL    HW2 7718   3.991   3.280   3.014 -1.2513 -0.5691  0.9847
 1918SOL    HW3 7719   4.027   3.193   2.896 -0.6525  1.5343 -0.4183
 1918SOL    MW4 7720   4.010   3.202   2.981 -0.1898  0.1540 -0.1657
 1919SOL     OW 7721   4.029   3.451   3.074 -0.2574  0.1630 -0.1681
 1919SOL    HW2 7722   4.037   3.468   3.168 -0.9323  0.8528 -0.2276
 1919SOL    HW3 7723   3.941   3.482   3.052  0.8152  2.3595 -1.5307
 1919SOL    MW4 7724   4.018   3.457   3.083 -0.2046  0.5441 -0.3555
 1920SOL     OW 7725   4.253   3.599   3.007  0.1544  0.0053 -0.4730
 1920SOL    HW2 7726   4.240   3.675   3.064 -0.1654 -0.8307  0.5712
 1920SOL    HW3 7727   4.181   3.540   3.028  0.7419 -0.8601 -0.8426
 1920SOL    MW4 7728   4.242   3.601   3.017  0.1898 -0.2191 -0.3839
 1921SOL     OW 7729   4.254   3.849   3.139  0.5548  0.0681  0.0773
 1921SOL    HW2 7730   4.181   3.908   3.119 -0.3688 -0.9699  0.3449
 1921SOL    HW3 7731   4.327   3.882   3.085  0.0622  1.4487  0.2383
 1921SOL    MW4 7732   4.254   3.862   3.129  0.3672  0.1132  0.1338
 1922SOL     OW 7733   4.055   3.990   3.024  0.0112  0.0898 -0.2655
 1922SOL    HW2 7734   4.038   4.077   3.059  0.3508 -0.0314  0.2121
 1922SOL    HW3 7735   3.986   3.935   3.060 -0.5525  0.2826 -1.0502
 1922SOL    MW4 7736   4.044   3.994   3.033 -0.0186  0.0989 -0.3064
 1923SOL     OW 7737   4.064   4.264   3.119 -0.1644 -0.1905  0.0351
 1923SOL    HW2 7738   4.080   4.260   3.213 -1.2387  0.4450  0.2522
 1923SOL    HW3 7739   4.142   4.306   3.083 -0.0083  0.1010  0.7101
 1923SOL    MW4 7740   4.076   4.269   3.127 -0.2851 -0.0682  0.1531
 1924SOL     OW 7741   4.283   4.401   3.026  0.2436 -0.4105  0.0105
 1924SOL    HW2 7742   4.367   4.361   3.049  1.3482  1.6109 -0.3490
 1924SOL    HW3 7743   4.277   4.393   2.931  0.5083  0.3163 -0.0726
 1924SOL    MW4 7744   4.293   4.395   3.017  0.4244 -0.0482 -0.0482
 1925SOL     OW 7745   0.238   4.652   3.412  0.1332  0.1668 -0.0977
 1925SOL    HW2 7746   0.319   4.680   3.454  0.4776 -0.0204 -0.6306
 1925SOL    HW3 7747   0.237   4.557   3.422 -1.3472  0.3884  2.2726
 1925SOL    MW4 7748   0.248   4.643   3.419 -0.0167  0.1712  0.1445
 1926SOL     OW 7749   0.011   0.097   3.514 -0.4198  0.5201  0.1419
 1926SOL    HW2 7750   0.030   0.190   3.506  0.4107  0.2910 -0.7950
 1926SOL    HW3 7751   0.096   0.054   3.498 -0.3036 -0.3132  2.8031
 1926SOL    MW4 7752   0.025   0.103   3.510 -0.2949  0.3799  0.3695
 1927SOL     OW 7753   4.488   0.383   3.423  0.4701 -0.3265  0.1570
 1927SOL    HW2 7754   4.414   0.420   3.473  0.4747  0.4609 -0.4077
 1927SOL    HW3 7755   4.565   0.423   3.462  0.6287 -1.3340  0.9050
 1927SOL    MW4 7756   4.488   0.393   3.435  0.4916 -0.3555  0.1812
 1928SOL     OW 7757   0.247   0.500   3.510  0.3622 -0.1896  0.2165
 1928SOL    HW2 7758   0.322   0.447   3.484 -0.1929 -0.3691 -1.0511
 1928SOL    HW3 7759   0.267   0.588   3.475 -0.8884 -0.6843 -1.8451
 1928SOL    MW4 7760   0.260   0.505   3.502  0.1240 -0.2785 -0.2224
 1929SOL     OW 7761   0.263   0.748   3.406 -0.0836  0.2389 -0.2294
 1929SOL    HW2 7762   0.342   0.793   3.437  0.3954  0.1724 -1.3117
 1929SOL    HW3 7763   0.191   0.796   3.447  0.5250 -0.0332  1.1958
 1929SOL    MW4 7764   0.264   0.761   3.415  0.0599  0.1941 -0.1838
 1930SOL     OW 7765   0.048   0.847   3.520 -0.3212 -0.4332 -0.3076
 1930SOL    HW2 7766   0.044   0.883   3.608 -2.0465 -0.4261 -0.3773
 1930SOL    HW3 7767   0.047   0.924   3.463  0.8357 -0.4360 -0.3437
 1930SOL    MW4 7768   0.047   0.862   3.524 -0.3962 -0.4327 -0.3216
 1931SOL     OW 7769   0.002   1.088   3.397  0.2536  0.0500  0.1168
 1931SOL    HW2 7770   0.069   1.152   3.422 -0.7237  0.8932  0.5905
 1931SOL    HW3 7771  -0.016   1.106   3.305 -0.6497  1.0292  0.4835
 1931SOL    MW4 7772   0.009   1.099   3.389  0.0055  0.2904  0.2279
 1932SOL     OW 7773   0.183   1.290   3.477 -0.1093  0.2830  0.1932
 1932SOL    HW2 7774   0.264   1.257   3.438 -0.5370 -0.8235  0.2183
 1932SOL    HW3 7775   0.172   1.377   3.440 -0.1648 -0.4983 -1.6513
 1932SOL    MW4 7776   0.193   1.297   3.467 -0.1731  0.0337 -0.0467
 1933SOL     OW 7777   0.194   1.565   3.377  0.0875  0.1418  0.1577
 1933SOL    HW2 7778   0.283   1.592   3.397  0.2379 -0.2166 -0.0093
 1933SOL    HW3 7779   0.189   1.568   3.281  0.3688 -1.1949  0.0817
 1933SOL    MW4 7780   0.205   1.569   3.367  0.1445 -0.0819  0.1254
 1934SOL     OW 7781   4.449   1.674   3.490  0.0321  0.0417 -0.5961
 1934SOL    HW2 7782   4.382   1.618   3.451 -0.1158  2.1306 -3.4806
 1934SOL    HW3 7783   4.531   1.640   3.456  0.3888 -1.5158  1.6806
 1934SOL    MW4 7784   4.451   1.662   3.480  0.0601  0.1119 -0.6764
 1935SOL     OW 7785   0.028   1.925   3.389 -0.1697 -0.1385  0.0345
 1935SOL    HW2 7786  -0.003   1.844   3.429 -2.0314 -0.0095 -1.0680
 1935SOL    HW3 7787   0.012   1.913   3.295 -0.3960  1.4653 -0.1446
 1935SOL    MW4 7788   0.022   1.913   3.382 -0.4452  0.0902 -0.1347
 1936SOL     OW 7789   0.251   2.065   3.481  0.3452 -0.3759  0.3518
 1936SOL    HW2 7790   0.219   2.072   3.571 -1.1760 -1.1021 -0.1048
 1936SOL    HW3 7791   0.190   2.004   3.439  1.5466 -0.7019 -0.9390
 1936SOL    MW4 7792   0.239   2.058   3.487  0.3030 -0.5145  0.1214
 1937SOL     OW 7793   0.215   2.325   3.372 -0.4133 -0.6271  0.3897
 1937SOL    HW2 7794   0.145   2.364   3.423 -1.3692 -0.5032 -0.9933
 1937SOL    HW3 7795   0.223   2.236   3.406  0.0798 -0.0311  1.8560
 1937SOL    MW4 7796   0.207   2.318   3.383 -0.4744 -0.5324  0.4005
 1938SOL     OW 7797   0.005   2.436   3.509  0.1957  0.3411  0.2862
 1938SOL    HW2 7798  -0.008   2.420   3.602  0.3384  0.6008  0.3534
 1938SOL    HW3 7799  -0.071   2.398   3.466  0.1537  0.1798  0.5062
 1938SOL    MW4 7800  -0.006   2.429   3.515  0.2091  0.3541  0.3240
 1939SOL     OW 7801   4.455   2.693   3.418  0.6952  0.2008 -0.2372
 1939SOL    HW2 7802   4.540   2.731   3.437  0.2513  0.6752  0.8000
 1939SOL    HW3 7803   4.458   2.606   3.458  0.4707  0.4495  0.3179
 1939SOL    MW4 7804   4.467   2.686   3.426  0.6070  0.2961 -0.0272
 1940SOL     OW 7805   0.213   2.791   3.495  0.0298  0.0641 -0.1537
 1940SOL    HW2 7806   0.298   2.757   3.466 -0.3317 -1.1495  0.1973
 1940SOL    HW3 7807   0.216   2.884   3.472  1.2481 -0.0760 -0.6187
 1940SOL    MW4 7808   0.225   2.799   3.488  0.1429 -0.1147 -0.1688
 1941SOL     OW 7809   0.229   3.043   3.383 -0.1300 -0.0287  0.4251
 1941SOL    HW2 7810   0.159   3.093   3.423 -0.3905 -0.0499  0.0052
 1941SOL    HW3 7811   0.216   3.055   3.289  1.0641  0.8467  0.3548
 1941SOL    MW4 7812   0.218   3.051   3.376 -0.0068  0.0839  0.3603
 1942SOL     OW 7813   4.269   3.070   3.850 -0.4553  0.1894 -0.5343
 1942SOL    HW2 7814   4.186   3.112   3.825  0.3221  0.9008 -1.9328
 1942SOL    HW3 7815   4.337   3.130   3.821  0.5601  0.2355  1.7832
 1942SOL    MW4 7816   4.267   3.083   3.843 -0.2189  0.2897 -0.4129
 1943SOL     OW 7817   0.005   3.454   3.408 -0.4737  0.2162 -0.1109
 1943SOL    HW2 7818  -0.082   3.486   3.433 -0.7853  0.3767 -1.3585
 1943SOL    HW3 7819   0.003   3.453   3.312  0.7390 -0.2355 -0.1351
 1943SOL    MW4 7820  -0.007   3.458   3.399 -0.3547  0.1776 -0.2789
 1944SOL     OW 7821   0.235   3.604   3.495  0.1429  0.0048  0.0667
 1944SOL    HW2 7822   0.221   3.598   3.590 -0.1482 -0.9203 -0.0279
 1944SOL    HW3 7823   0.178   3.536   3.458  0.3178  0.3054 -0.7633
 1944SOL    MW4 7824   0.226   3.594   3.503  0.1275 -0.0775 -0.0553
 1945SOL     OW 7825   0.265   3.852   3.376  0.1642  0.0254 -0.0230
 1945SOL    HW2 7826   0.187   3.900   3.405 -0.1229  0.1055 -0.9346
 1945SOL    HW3 7827   0.260   3.768   3.422  0.4802  0.7048  1.3059
 1945SOL    MW4 7828   0.254   3.848   3.386  0.1680  0.1256  0.0322
 1946SOL     OW 7829   0.032   3.986   3.460 -0.4780 -0.3329  0.0015
 1946SOL    HW2 7830   0.036   3.974   3.555  3.5336 -0.0126 -0.0162
 1946SOL    HW3 7831   0.036   4.081   3.448  0.8275 -0.4443 -0.5049
 1946SOL    MW4 7832   0.033   3.997   3.471  0.2235 -0.3054 -0.0677
 1947SOL     OW 7833   0.037   4.248   3.367  0.6967 -0.3574 -0.0507
 1947SOL    HW2 7834   0.105   4.309   3.396  0.0903 -0.2749  1.2214
 1947SOL    HW3 7835  -0.043   4.278   3.411 -0.0138 -0.9127 -0.9362
 1947SOL    MW4 7836   0.035   4.260   3.377  0.5230 -0.4196  0.0002
 1948SOL     OW 7837   0.246   4.388   3.479  0.2196  0.4564 -0.0221
 1948SOL    HW2 7838   0.241   4.386   3.574 -1.7988 -0.4398 -0.1112
 1948SOL    HW3 7839   0.321   4.333   3.457  0.9551  1.0209  1.0583
 1948SOL    MW4 7840   0.255   4.381   3.488  0.0504  0.4129  0.1087
 1949SOL     OW 7841   0.679   4.621   3.395  0.5264  0.2376 -0.0189
 1949SOL    HW2 7842   0.760   4.672   3.393 -0.3263  1.5901 -1.3467
 1949SOL    HW3 7843   0.647   4.623   3.305 -0.7432 -0.6928  0.3894
 1949SOL    MW4 7844   0.686   4.628   3.383  0.2464  0.2933 -0.1402
 1950SOL     OW 7845   0.477   0.093   3.526  0.0211  0.0328  0.6051
 1950SOL    HW2 7846   0.479   0.074   3.620 -2.1089  0.6720  0.8180
 1950SOL    HW3 7847   0.553   0.047   3.490  1.6884  0.9544  2.8449
 1950SOL    MW4 7848   0.487   0.085   3.534 -0.0399  0.2387  0.9282
 1951SOL     OW 7849   0.464   0.354   3.450 -0.5246 -0.3553 -0.5983
 1951SOL    HW2 7850   0.538   0.405   3.484 -1.0556  0.2769 -0.3809
 1951SOL    HW3 7851   0.479   0.265   3.483 -0.5210  0.0410  0.4875
 1951SOL    MW4 7852   0.476   0.349   3.459 -0.5941 -0.2196 -0.4265
 1952SOL     OW 7853   0.699   0.473   3.529 -0.0133 -0.4428  0.0692
 1952SOL    HW2 7854   0.727   0.474   3.620  0.3919  1.5084 -0.0602
 1952SOL    HW3 7855   0.769   0.426   3.483  1.0777  0.8612  0.3678
 1952SOL    MW4 7856   0.712   0.467   3.535  0.1842 -0.0133  0.0916
 1953SOL     OW 7857   0.740   0.725   3.416 -0.3127 -0.1501  0.0248
 1953SOL    HW2 7858   0.670   0.778   3.455 -0.1806 -0.5245  0.7830
 1953SOL    HW3 7859   0.739   0.643   3.466  1.6057  0.3903  1.0235
 1953SOL    MW4 7860   0.731   0.721   3.428 -0.0421 -0.1282  0.2565
 1954SOL     OW 7861   0.505   0.884   3.489  0.1925  0.3004  0.0604
 1954SOL    HW2 7862   0.489   0.881   3.583  0.8112  0.3550  0.1697
 1954SOL    HW3 7863   0.487   0.974   3.464 -1.0513  0.0271 -0.0745
 1954SOL    MW4 7864   0.500   0.895   3.498  0.1100  0.2716  0.0572
 1955SOL     OW 7865   0.438   1.155   3.419  0.0824 -0.1409 -0.4458
 1955SOL    HW2 7866   0.523   1.193   3.439  0.8484 -1.4373 -1.1782
 1955SOL    HW3 7867   0.433   1.156   3.323 -1.4553  1.4721 -0.3796
 1955SOL    MW4 7868   0.449   1.160   3.409 -0.0195 -0.0992 -0.5336
 1956SOL     OW 7869   0.688   1.239   3.486  0.3521 -0.0094 -0.2912
 1956SOL    HW2 7870   0.773   1.202   3.464  0.3018 -0.2181 -0.1379
 1956SOL    HW3 7871   0.694   1.331   3.460  0.3488 -0.2118 -1.0030
 1956SOL    MW4 7872   0.700   1.246   3.480  0.3451 -0.0637 -0.3645
 1957SOL     OW 7873   0.659   1.490   3.403  0.0737  0.2101 -0.6012
 1957SOL    HW2 7874   0.591   1.548   3.438  0.7476  0.4147  0.3827
 1957SOL    HW3 7875   0.739   1.541   3.408  0.4427 -0.3258 -1.0084
 1957SOL    MW4 7876   0.660   1.504   3.408  0.2113  0.1663 -0.5252
 1958SOL     OW 7877   0.455   1.644   3.480 -0.1881 -0.1774  0.5913
 1958SOL    HW2 7878   0.452   1.643   3.576 -0.9830  0.9783  0.5879
 1958SOL    HW3 7879   0.447   1.737   3.457 -0.3512 -0.4859 -0.6068
 1958SOL    MW4 7880   0.454   1.656   3.490 -0.3145 -0.0656  0.4327
 1959SOL     OW 7881   0.455   1.901   3.411  0.1198  0.0738 -0.4619
 1959SOL    HW2 7882   0.387   1.958   3.447  0.5160  0.0333  0.3712
 1959SOL    HW3 7883   0.437   1.898   3.317 -1.1362 -0.0846 -0.2197
 1959SOL    MW4 7884   0.444   1.908   3.404  0.0063  0.0474 -0.3202
 1960SOL     OW 7885   0.696   2.045   3.449  0.0047 -0.4119 -0.3618
 1960SOL    HW2 7886   0.707   2.029   3.543  0.7702 -0.1441 -0.4045
 1960SOL    HW3 7887   0.623   1.989   3.424  0.4451 -1.2526  0.1961
 1960SOL    MW4 7888   0.688   2.035   3.458  0.1637 -0.4871 -0.2937
 1961SOL     OW 7889   0.684   2.319   3.382 -0.4685 -0.0237 -0.1525
 1961SOL    HW2 7890   0.768   2.341   3.422  0.1058 -1.0027 -0.8192
 1961SOL    HW3 7891   0.676   2.224   3.393 -1.3438  0.0197 -0.3661
 1961SOL    MW4 7892   0.694   2.309   3.389 -0.5081 -0.1473 -0.2685
 1962SOL     OW 7893   0.456   2.459   3.450  0.0068  0.4087  0.3911
 1962SOL    HW2 7894   0.525   2.396   3.426 -0.5031 -0.3416  0.8602
 1962SOL    HW3 7895   0.374   2.415   3.427 -0.2730  1.9762 -1.7248
 1962SOL    MW4 7896   0.454   2.445   3.444 -0.0974  0.5167  0.1738
 1963SOL     OW 7897   0.447   2.722   3.395 -0.0470  0.0931 -0.1018
 1963SOL    HW2 7898   0.458   2.628   3.411  0.0669  0.1924  0.4044
 1963SOL    HW3 7899   0.440   2.729   3.300 -0.0889 -0.4327 -0.1403
 1963SOL    MW4 7900   0.448   2.710   3.384 -0.0374  0.0367 -0.0401
 1964SOL     OW 7901   0.678   2.836   3.491 -0.1141  0.0440  0.6373
 1964SOL    HW2 7902   0.760   2.801   3.456 -0.1400 -0.2185  0.8351
 1964SOL    HW3 7903   0.610   2.794   3.438 -0.1847 -0.8685  1.4262
 1964SOL    MW4 7904   0.680   2.825   3.479 -0.1268 -0.1109  0.7677
 1965SOL     OW 7905   0.677   3.083   3.369 -0.3420  0.0826 -0.3593
 1965SOL    HW2 7906   0.592   3.125   3.384 -0.6497 -0.4501 -0.5895
 1965SOL    HW3 7907   0.669   2.998   3.414  0.2964  0.2979  0.1649
 1965SOL    MW4 7908   0.664   3.077   3.377 -0.2984  0.0405 -0.3204
 1966SOL     OW 7909   0.446   3.208   3.434  0.1492 -0.2070  0.1088
 1966SOL    HW2 7910   0.432   3.207   3.529 -0.3072 -0.7027  0.0381
 1966SOL    HW3 7911   0.366   3.170   3.398 -0.3770  1.5610 -0.5838
 1966SOL    MW4 7912   0.434   3.203   3.442  0.0196 -0.0393  0.0081
 1967SOL     OW 7913   0.461   3.468   3.374  0.1974  0.4930  0.1204
 1967SOL    HW2 7914   0.454   3.374   3.390 -0.1839  0.4975  0.0030
 1967SOL    HW3 7915   0.383   3.505   3.415 -0.4077  0.5859 -1.0700
 1967SOL    MW4 7916   0.450   3.460   3.381  0.0673  0.5059 -0.0522
 1968SOL     OW 7917   0.696   3.572   3.488  0.2353 -0.2128  0.1292
 1968SOL    HW2 7918   0.772   3.538   3.440  0.4597  0.4985 -0.0246
 1968SOL    HW3 7919   0.621   3.533   3.444  0.3968  1.2072 -1.4479
 1968SOL    MW4 7920   0.696   3.563   3.476  0.2862  0.0684 -0.0992
 1969SOL     OW 7921   0.728   3.830   3.368  0.0822  0.3658  0.3150
 1969SOL    HW2 7922   0.649   3.870   3.404 -0.2293  0.5781 -0.5755
 1969SOL    HW3 7923   0.726   3.740   3.399 -0.7758  0.2309 -0.0974
 1969SOL    MW4 7924   0.717   3.823   3.377 -0.0722  0.3762  0.1431
 1970SOL     OW 7925   0.496   3.953   3.486 -0.2467 -0.7924 -0.4266
 1970SOL    HW2 7926   0.495   4.041   3.447  0.0017  0.2727  1.9205
 1970SOL    HW3 7927   0.421   3.909   3.445  0.6193 -0.0829 -2.8875
 1970SOL    MW4 7928   0.486   3.959   3.475 -0.0997 -0.5581 -0.4418
 1971SOL     OW 7929   0.489   4.240   3.407  0.0181  0.1525  0.0423
 1971SOL    HW2 7930   0.564   4.297   3.429 -1.3440  2.4872 -1.1707
 1971SOL    HW3 7931   0.485   4.243   3.311  0.0559 -2.2337 -0.0560
 1971SOL    MW4 7932   0.499   4.248   3.397 -0.1566  0.1459 -0.1304
 1972SOL     OW 7933   0.707   4.380   3.503 -0.8171 -0.1995  0.2396
 1972SOL    HW2 7934   0.788   4.348   3.464 -1.5228 -0.6199 -0.9038
 1972SOL    HW3 7935   0.701   4.471   3.474 -0.3310  0.0936  1.0325
 1972SOL    MW4 7936   0.717   4.388   3.494 -0.8461 -0.2170  0.1934
 1973SOL     OW 7937   1.155   4.655   3.423  0.0153  0.2838  0.0643
 1973SOL    HW2 7938   1.232   4.701   3.455  0.5614 -0.0852 -0.7140
 1973SOL    HW3 7939   1.165   4.653   3.328 -1.9403  1.9740 -0.2186
 1973SOL    MW4 7940   1.166   4.660   3.415 -0.1706  0.4578 -0.0756
 1974SOL     OW 7941   0.915   0.127   3.467  0.0138 -0.0959  0.0960
 1974SOL    HW2 7942   0.909   0.140   3.562  0.7080  0.6983  0.0396
 1974SOL    HW3 7943   0.989   0.069   3.455 -1.0070 -1.4151  0.1305
 1974SOL    MW4 7944   0.924   0.121   3.478 -0.0293 -0.1652  0.0927
 1975SOL     OW 7945   0.907   0.370   3.370  0.1308 -0.3864  0.1776
 1975SOL    HW2 7946   0.985   0.409   3.407 -0.1270 -0.4727  0.8207
 1975SOL    HW3 7947   0.901   0.283   3.410 -0.7407 -0.0658  0.7588
 1975SOL    MW4 7948   0.916   0.363   3.380 -0.0181 -0.3555  0.3390
 1976SOL     OW 7949   1.146   0.473   3.508 -0.0666  0.0304 -0.4572
 1976SOL    HW2 7950   1.115   0.483   3.598 -1.2587 -0.1370 -0.8416
 1976SOL    HW3 7951   1.141   0.561   3.471 -2.6568 -0.4079 -1.3138
 1976SOL    MW4 7952   1.141   0.486   3.515 -0.5656 -0.0495 -0.6208
 1977SOL     OW 7953   1.160   0.752   3.383  0.3229  0.3307 -0.6171
 1977SOL    HW2 7954   1.241   0.788   3.419 -0.3044  0.5371  0.6369
 1977SOL    HW3 7955   1.091   0.804   3.424 -0.4013  0.8588 -2.4900
 1977SOL    MW4 7956   1.161   0.763   3.393  0.1446  0.4276 -0.6988
 1978SOL     OW 7957   0.953   0.877   3.493  0.5498 -0.2370 -0.1441
 1978SOL    HW2 7958   0.924   0.956   3.448 -0.6452  0.0691  1.1502
 1978SOL    HW3 7959   0.881   0.814   3.479  0.2258 -0.1852  1.1848
 1978SOL    MW4 7960   0.939   0.879   3.485  0.3495 -0.1898  0.2022
 1979SOL     OW 7961   0.916   1.126   3.374  0.2051  0.4450 -0.0860
 1979SOL    HW2 7962   0.901   1.131   3.279  0.5485 -0.2402 -0.1856
 1979SOL    HW3 7963   0.985   1.190   3.391  0.6652  0.0468 -0.4230
 1979SOL    MW4 7964   0.923   1.135   3.364  0.3111  0.3021 -0.1435
 1980SOL     OW 7965   1.141   1.255   3.446 -0.0458  0.1051 -0.1131
 1980SOL    HW2 7966   1.140   1.239   3.540  1.7607  2.0651  0.2531
 1980SOL    HW3 7967   1.138   1.350   3.437 -1.7267 -0.1124 -2.0776
 1980SOL    MW4 7968   1.141   1.265   3.457 -0.0293  0.3349 -0.3240
 1981SOL     OW 7969   1.351   1.667   3.518  0.3609  0.3390  0.2762
 1981SOL    HW2 7970   1.377   1.664   3.610 -0.9362 -2.2282  0.5878
 1981SOL    HW3 7971   1.424   1.627   3.471 -0.5933 -1.8482  0.6032
 1981SOL    MW4 7972   1.364   1.661   3.524  0.0639 -0.2881  0.3603
 1982SOL     OW 7973   1.129   1.535   3.422 -0.1085 -0.0047  0.3851
 1982SOL    HW2 7974   1.214   1.573   3.444 -0.6674  1.6621 -0.2538
 1982SOL    HW3 7975   1.124   1.542   3.326 -0.0322 -2.1359  0.1926
 1982SOL    MW4 7976   1.140   1.541   3.412 -0.1723 -0.0658  0.2756
 1983SOL     OW 7977   0.886   1.659   3.492  0.1299  0.0527  0.6509
 1983SOL    HW2 7978   0.975   1.625   3.496 -0.1962 -0.9488 -0.4659
 1983SOL    HW3 7979   0.895   1.745   3.451  0.5960 -0.0140  0.6147
 1983SOL    MW4 7980   0.899   1.666   3.487  0.1484 -0.0882  0.4985
 1984SOL     OW 7981   0.914   1.911   3.368 -0.1319 -0.2030 -0.1497
 1984SOL    HW2 7982   0.990   1.949   3.413 -0.4421  0.4382 -0.1721
 1984SOL    HW3 7983   0.842   1.970   3.388 -0.9926 -1.6977  1.2278
 1984SOL    MW4 7984   0.915   1.924   3.376 -0.2863 -0.3157  0.0291
 1985SOL     OW 7985   1.164   2.299   3.401  0.3559  0.4575 -0.2592
 1985SOL    HW2 7986   1.242   2.341   3.437  0.3216  0.2109  0.1089
 1985SOL    HW3 7987   1.170   2.315   3.307  2.6050 -2.3852 -0.6829
 1985SOL    MW4 7988   1.175   2.307   3.394  0.6481  0.0501 -0.2666
 1986SOL     OW 7989   0.914   2.425   3.495 -0.7265 -0.7779  0.2051
 1986SOL    HW2 7990   0.994   2.376   3.474 -0.6113 -0.5859  0.2004
 1986SOL    HW3 7991   0.911   2.427   3.590  0.9754  2.0000  0.2457
 1986SOL    MW4 7992   0.924   2.419   3.505 -0.4868 -0.3860  0.2098
 1987SOL     OW 7993   0.883   2.688   3.388  0.2348 -0.3973  0.0976
 1987SOL    HW2 7994   0.966   2.732   3.404 -0.0384 -0.3888  1.5652
 1987SOL    HW3 7995   0.895   2.600   3.424 -0.3439 -0.4249  0.2360
 1987SOL    MW4 7996   0.896   2.682   3.395  0.1225 -0.3996  0.3095
 1988SOL     OW 7997   1.116   2.809   3.436 -0.0506 -0.3339  0.2743
 1988SOL    HW2 7998   1.131   2.833   3.527 -0.6108 -0.2264  0.3379
 1988SOL    HW3 7999   1.194   2.760   3.411  0.7735  0.9232  0.3538
 1988SOL    MW4 8000   1.128   2.806   3.444 -0.0156 -0.1538  0.2933
 1989SOL     OW 8001   1.116   3.077   3.377 -0.0394 -0.0915 -0.2877
 1989SOL    HW2 8002   1.103   2.982   3.382  0.7327 -0.1934 -0.1101
 1989SOL    HW3 8003   1.135   3.094   3.285  0.5262 -0.2042 -0.1920
 1989SOL    MW4 8004   1.117   3.067   3.366  0.1370 -0.1202 -0.2513
 1990SOL     OW 8005   0.898   3.231   3.460  0.1374 -0.0537  0.0252
 1990SOL    HW2 8006   0.974   3.174   3.445 -0.0556  0.3384 -2.7150
 1990SOL    HW3 8007   0.822   3.175   3.440 -0.1486  0.4622 -0.3495
 1990SOL    MW4 8008   0.898   3.216   3.455  0.0741  0.0658 -0.3858
 1991SOL     OW 8009   0.939   3.485   3.370 -0.1669 -0.4927  0.0101
 1991SOL    HW2 8010   0.908   3.396   3.387  1.8191 -1.2507 -0.2563
 1991SOL    HW3 8011   0.945   3.490   3.275 -0.8384  0.1307 -0.0026
 1991SOL    MW4 8012   0.936   3.474   3.360  0.0066 -0.5105 -0.0269
 1992SOL     OW 8013   1.156   3.599   3.516 -0.1944 -0.2328 -0.3657
 1992SOL    HW2 8014   1.126   3.627   3.603  0.9563 -0.1333  0.0133
 1992SOL    HW3 8015   1.079   3.560   3.475 -1.1019  0.9583  0.1763
 1992SOL    MW4 8016   1.142   3.598   3.522 -0.1622 -0.0625 -0.2444
 1993SOL     OW 8017   1.135   3.865   3.422  0.2825  0.0636  0.2404
 1993SOL    HW2 8018   1.210   3.908   3.464  0.2399  0.3825 -0.0128
 1993SOL    HW3 8019   1.139   3.774   3.454  0.4722  0.2098  0.6367
 1993SOL    MW4 8020   1.145   3.859   3.432  0.3020  0.1249  0.2592
 1994SOL     OW 8021   0.911   4.008   3.474 -0.0892 -0.1201 -0.4754
 1994SOL    HW2 8022   0.842   3.949   3.443  1.0378 -2.2224  0.9199
 1994SOL    HW3 8023   0.992   3.959   3.464  1.0781  1.7929 -0.7437
 1994SOL    MW4 8024   0.912   3.994   3.468  0.2134 -0.1452 -0.3269
 1995SOL     OW 8025   0.940   4.275   3.412  0.3941 -0.1780  0.1089
 1995SOL    HW2 8026   0.933   4.183   3.435  1.2923 -0.6260 -1.3706
 1995SOL    HW3 8027   0.949   4.276   3.316  1.3984  1.3785  0.1966
 1995SOL    MW4 8028   0.940   4.263   3.402  0.6450 -0.0319 -0.0749
 1996SOL     OW 8029   1.163   4.399   3.547  0.2228  0.1481 -0.1576
 1996SOL    HW2 8030   1.089   4.355   3.505  1.0190 -1.0503 -0.3383
 1996SOL    HW3 8031   1.160   4.488   3.513 -0.1129 -0.3697 -1.5223
 1996SOL    MW4 8032   1.153   4.405   3.537  0.2836 -0.0777 -0.3614
 1997SOL     OW 8033   1.611   4.624   3.428 -0.1186  0.0236 -0.0395
 1997SOL    HW2 8034   1.602   4.536   3.466 -0.1134  0.1161  0.1767
 1997SOL    HW3 8035   1.544   4.676   3.473 -0.1102  0.1345 -0.1569
 1997SOL    MW4 8036   1.601   4.619   3.439 -0.1167  0.0501 -0.0265
 1998SOL     OW 8037   1.401   0.095   3.557 -0.0620 -0.0278  0.5640
 1998SOL    HW2 8038   1.376   0.105   3.649  0.6515  0.4538  0.7136
 1998SOL    HW3 8039   1.395   0.183   3.520 -0.7796 -0.2982  0.0363
 1998SOL    MW4 8040   1.397   0.108   3.564 -0.0625  0.0001  0.5143
 1999SOL     OW 8041   1.384   0.345   3.442  0.3923 -0.0913  0.1411
 1999SOL    HW2 8042   1.456   0.395   3.480  0.3420  1.2305 -1.4621
 1999SOL    HW3 8043   1.307   0.399   3.459 -0.4066 -1.8614  2.5589
 1999SOL    MW4 8044   1.383   0.359   3.449  0.2804 -0.1505  0.2487
 2000SOL     OW 8045   1.625   0.479   3.520  0.0849  0.4212 -0.6493
 2000SOL    HW2 8046   1.693   0.433   3.469 -0.0813 -0.2346 -0.2893
 2000SOL    HW3 8047   1.635   0.571   3.495  1.4137  0.4011 -0.2605
 2000SOL    MW4 8048   1.635   0.485   3.510  0.2383  0.3320 -0.5503
 2001SOL     OW 8049   1.604   0.740   3.395 -0.3929  0.1349  0.4428
 2001SOL    HW2 8050   1.539   0.808   3.414  1.1936  1.6567  0.6288
 2001SOL    HW3 8051   1.685   0.774   3.433  0.3300 -2.1208  0.9627
 2001SOL    MW4 8052   1.606   0.754   3.402 -0.0882  0.0381  0.5360
 2002SOL     OW 8053   1.375   0.875   3.487 -0.0977 -0.5021  0.2740
 2002SOL    HW2 8054   1.382   0.871   3.582  1.9455  0.0408  0.1579
 2002SOL    HW3 8055   1.359   0.967   3.467  2.2049 -0.1565 -0.0587
 2002SOL    MW4 8056   1.374   0.886   3.497  0.4756 -0.3848  0.2148
 2003SOL     OW 8057   1.363   1.121   3.356  0.3035 -0.0414 -0.0736
 2003SOL    HW2 8058   1.431   1.169   3.405  0.3630 -0.9501  0.7327
 2003SOL    HW3 8059   1.281   1.163   3.381  0.4163  0.0428  0.1537
 2003SOL    MW4 8060   1.361   1.133   3.366  0.3263 -0.1502  0.0629
 2004SOL     OW 8061   1.582   1.273   3.766  0.3886 -0.2110 -0.5961
 2004SOL    HW2 8062   1.583   1.360   3.805 -0.8682 -1.0111  1.2752
 2004SOL    HW3 8063   1.651   1.225   3.811 -0.2620 -0.7702 -0.1702
 2004SOL    MW4 8064   1.591   1.278   3.777  0.1370 -0.3903 -0.2928
 2005SOL     OW 8065   1.553   1.259   3.488  0.2233 -0.1894 -0.5348
 2005SOL    HW2 8066   1.567   1.238   3.581 -1.5145  1.5988  0.1777
 2005SOL    HW3 8067   1.625   1.217   3.443  0.0104 -2.7608  1.4245
 2005SOL    MW4 8068   1.564   1.251   3.494 -0.0340 -0.2927 -0.1824
 2006SOL     OW 8069   1.534   1.529   3.376  0.5572  0.3539 -0.5482
 2006SOL    HW2 8070   1.530   1.444   3.421 -0.2048  1.0881  0.8211
 2006SOL    HW3 8071   1.525   1.507   3.283  1.1769 -1.1263 -0.2846
 2006SOL    MW4 8072   1.533   1.515   3.370  0.5383  0.2555 -0.3328
 2007SOL     OW 8073   1.334   1.926   3.360  0.2817  0.4959 -0.1594
 2007SOL    HW2 8074   1.394   1.989   3.400 -2.2353  2.2708  0.9508
 2007SOL    HW3 8075   1.337   1.850   3.418  0.6073  1.0117  0.5046
 2007SOL    MW4 8076   1.342   1.925   3.373 -0.0073  0.7981  0.0749
 2008SOL     OW 8077   1.574   2.038   3.486  0.2730  0.0062  0.1586
 2008SOL    HW2 8078   1.651   1.992   3.454 -0.4767 -0.7611 -0.5884
 2008SOL    HW3 8079   1.583   2.127   3.453  1.4140  0.2395  1.0645
 2008SOL    MW4 8080   1.585   2.043   3.477  0.3246 -0.0644  0.1795
 2009SOL     OW 8081   1.612   2.299   3.400  0.1692 -0.1816  0.3940
 2009SOL    HW2 8082   1.540   2.350   3.437 -0.1197 -0.4286  0.1760
 2009SOL    HW3 8083   1.605   2.312   3.305  0.8183  0.3327  0.4100
 2009SOL    MW4 8084   1.602   2.307   3.392  0.2167 -0.1464  0.3672
 2010SOL     OW 8085   1.401   2.443   3.471 -0.5195 -0.0111  0.5202
 2010SOL    HW2 8086   1.392   2.449   3.566 -1.9790 -0.7209  0.4324
 2010SOL    HW3 8087   1.386   2.532   3.440  1.3822  0.5294  1.0390
 2010SOL    MW4 8088   1.398   2.455   3.479 -0.4612 -0.0334  0.5774
 2011SOL     OW 8089   1.354   2.689   3.360  0.1533 -0.4707  0.3097
 2011SOL    HW2 8090   1.429   2.743   3.387  0.9728 -1.9484  1.0811
 2011SOL    HW3 8091   1.348   2.701   3.265 -0.0717  1.4385  0.5366
 2011SOL    MW4 8092   1.363   2.698   3.351  0.2317 -0.4137  0.4413
 2012SOL     OW 8093   1.589   2.817   3.454 -0.7502 -0.1633  0.0175
 2012SOL    HW2 8094   1.678   2.785   3.435 -0.3707  0.6602  0.3850
 2012SOL    HW3 8095   1.585   2.902   3.411 -1.8984 -0.8676 -1.3170
 2012SOL    MW4 8096   1.600   2.824   3.446 -0.8518 -0.1476 -0.1104
 2013SOL     OW 8097   1.567   3.087   3.356  0.0506  0.0080  0.0054
 2013SOL    HW2 8098   1.644   3.134   3.390 -0.4124  0.8363 -0.0704
 2013SOL    HW3 8099   1.493   3.142   3.380 -0.4657 -0.4784 -0.4645
 2013SOL    MW4 8100   1.568   3.101   3.363 -0.0784  0.0532 -0.0668
 2014SOL     OW 8101   1.335   3.236   3.436 -0.3472 -0.1134  0.0924
 2014SOL    HW2 8102   1.342   3.229   3.531 -1.6487 -1.1717  0.1245
 2014SOL    HW3 8103   1.248   3.201   3.416 -0.2923  0.6087 -1.4319
 2014SOL    MW4 8104   1.324   3.230   3.446 -0.5118 -0.1578 -0.1044
 2015SOL     OW 8105   1.366   3.497   3.370 -0.0239 -0.6481 -0.1553
 2015SOL    HW2 8106   1.348   3.407   3.395 -0.2366 -0.1798  1.4251
 2015SOL    HW3 8107   1.292   3.547   3.405  0.1717  0.1570 -0.8767
 2015SOL    MW4 8108   1.354   3.492   3.378 -0.0262 -0.4799 -0.0422
 2016SOL     OW 8109   1.592   3.590   3.480  0.0429 -0.2293  0.1227
 2016SOL    HW2 8110   1.561   3.606   3.569 -0.0316 -1.6865  0.3851
 2016SOL    HW3 8111   1.516   3.551   3.435 -0.2860  1.5836 -0.9219
 2016SOL    MW4 8112   1.578   3.587   3.485 -0.0103 -0.1824  0.0196
 2017SOL     OW 8113   1.569   3.870   3.415 -0.0024 -0.2506  0.2067
 2017SOL    HW2 8114   1.586   3.776   3.427  1.3136 -0.0021  0.3297
 2017SOL    HW3 8115   1.561   3.880   3.320  2.2276 -0.1074  0.0077
 2017SOL    MW4 8116   1.570   3.859   3.404  0.4653 -0.1991  0.1967
 2018SOL     OW 8117   1.354   4.005   3.508  0.3279 -0.0241  0.3203
 2018SOL    HW2 8118   1.373   4.087   3.462 -1.1739 -0.2307 -0.6720
 2018SOL    HW3 8119   1.430   3.949   3.489 -0.7215 -0.4687 -2.7598
 2018SOL    MW4 8120   1.367   4.009   3.500 -0.0086 -0.1101 -0.2170
 2019SOL     OW 8121   1.382   4.254   3.403  0.3520  0.1811 -0.4069
 2019SOL    HW2 8122   1.310   4.304   3.442 -0.4992 -1.6714  0.4400
 2019SOL    HW3 8123   1.370   4.263   3.308 -0.0041  1.2374 -0.2700
 2019SOL    MW4 8124   1.371   4.262   3.396  0.1926  0.0763 -0.2775
 2020SOL     OW 8125   1.618   4.370   3.547  0.1501 -0.0387 -0.0878
 2020SOL    HW2 8126   1.697   4.323   3.520 -0.7581 -1.0423 -0.9920
 2020SOL    HW3 8127   1.546   4.323   3.506 -1.1642 -0.7370  2.8427
 2020SOL    MW4 8128   1.619   4.357   3.538 -0.1432 -0.2637  0.1795
 2021SOL     OW 8129   2.077   4.636   3.420  0.3129  0.0550 -0.1207
 2021SOL    HW2 8130   2.153   4.667   3.470  1.4285 -1.6623 -0.6811
 2021SOL    HW3 8131   2.003   4.685   3.456  1.5591  1.1453  1.0358
 2021SOL    MW4 8132   2.078   4.646   3.432  0.6247 -0.0277 -0.0420
 2022SOL     OW 8133   1.832   0.079   3.532 -0.0470 -0.5826  0.1872
 2022SOL    HW2 8134   1.821   0.095   3.625  0.0165  0.1554  0.0704
 2022SOL    HW3 8135   1.762   0.018   3.509  0.1515 -1.0439  0.7863
 2022SOL    MW4 8136   1.822   0.073   3.541 -0.0124 -0.5461  0.2511
 2023SOL     OW 8137   1.827   0.315   3.366 -0.3972 -0.3257 -0.2134
 2023SOL    HW2 8138   1.820   0.228   3.405 -0.4694 -0.2477 -0.0510
 2023SOL    HW3 8139   1.828   0.299   3.271 -1.6981 -0.4172 -0.2148
 2023SOL    MW4 8140   1.826   0.302   3.358 -0.5784 -0.3275 -0.1922
 2024SOL     OW 8141   2.052   0.451   3.478  0.0054  0.5688 -0.1961
 2024SOL    HW2 8142   2.046   0.543   3.450 -0.0593  0.5273 -0.3224
 2024SOL    HW3 8143   1.976   0.409   3.437  0.7180  0.1985 -1.1528
 2024SOL    MW4 8144   2.041   0.458   3.469  0.0906  0.5144 -0.3390
 2025SOL     OW 8145   2.051   0.713   3.404 -0.1786 -0.3852 -0.0445
 2025SOL    HW2 8146   2.115   0.764   3.453 -1.5110  0.2232  1.1082
 2025SOL    HW3 8147   2.068   0.735   3.313  2.3568 -1.5496  0.1096
 2025SOL    MW4 8148   2.062   0.723   3.399 -0.0200 -0.4587  0.1276
 2026SOL     OW 8149   1.836   0.877   3.491  0.2585  0.0307  0.1679
 2026SOL    HW2 8150   1.917   0.832   3.468  1.1479  1.2826  0.7992
 2026SOL    HW3 8151   1.836   0.878   3.586 -0.0542  0.8412  0.1568
 2026SOL    MW4 8152   1.847   0.871   3.500  0.3346  0.3028  0.2496
 2027SOL     OW 8153   1.809   1.137   3.402  0.0621 -0.5113  0.0207
 2027SOL    HW2 8154   1.876   1.192   3.442 -0.7691 -0.6362  1.6163
 2027SOL    HW3 8155   1.829   1.048   3.433 -0.5030 -0.6286  0.0636
 2027SOL    MW4 8156   1.820   1.132   3.412 -0.1221 -0.5434  0.2370
 2028SOL     OW 8157   2.007   1.277   3.539 -0.1346 -0.0113  0.1541
 2028SOL    HW2 8158   2.036   1.290   3.629  1.5389 -0.1146 -0.3579
 2028SOL    HW3 8159   1.997   1.366   3.504 -0.1777  0.0217  0.2497
 2028SOL    MW4 8160   2.009   1.291   3.546  0.0803 -0.0207  0.0992
 2029SOL     OW 8161   2.027   1.517   3.378  0.2506 -0.4944  0.3161
 2029SOL    HW2 8162   2.096   1.574   3.413 -0.1076  0.5803 -0.7039
 2029SOL    HW3 8163   1.945   1.561   3.400  0.0237  0.4882 -2.2742
 2029SOL    MW4 8164   2.026   1.530   3.385  0.1733 -0.2232 -0.1602
 2030SOL     OW 8165   1.800   1.623   3.473  0.1836 -0.4319 -0.7123
 2030SOL    HW2 8166   1.801   1.715   3.448  1.8282 -0.4622 -0.8216
 2030SOL    HW3 8167   1.720   1.588   3.434 -0.1075  0.7866 -1.2291
 2030SOL    MW4 8168   1.789   1.631   3.465  0.3620 -0.2751 -0.7951
 2031SOL     OW 8169   1.778   1.880   3.391 -0.5441  0.4653 -0.0217
 2031SOL    HW2 8170   1.857   1.926   3.420 -0.6467 -0.1661  1.3196
 2031SOL    HW3 8171   1.784   1.879   3.296  2.7394 -2.4421  0.1278
 2031SOL    MW4 8172   1.789   1.886   3.382 -0.1246 -0.0015  0.1748
 2032SOL     OW 8173   2.012   2.005   3.482 -0.1784 -0.2905 -0.0205
 2032SOL    HW2 8174   2.102   1.981   3.463 -0.1810  0.7915 -1.4375
 2032SOL    HW3 8175   2.005   2.097   3.457 -1.8680 -0.5508 -0.6372
 2032SOL    MW4 8176   2.023   2.014   3.476 -0.4017 -0.1819 -0.2892
 2033SOL     OW 8177   2.023   2.257   3.389  0.1851 -0.0142  0.5099
 2033SOL    HW2 8178   2.106   2.302   3.405 -0.2585  0.7483  0.7199
 2033SOL    HW3 8179   2.014   2.257   3.294  0.2996  0.1276  0.4994
 2033SOL    MW4 8180   2.033   2.263   3.379  0.1414  0.1049  0.5364
 2034SOL     OW 8181   1.831   2.452   3.459  0.1355  0.1578 -0.1639
 2034SOL    HW2 8182   1.898   2.388   3.436  0.3736  0.3235  0.0585
 2034SOL    HW3 8183   1.749   2.412   3.431  0.4681  0.6154 -1.8736
 2034SOL    MW4 8184   1.829   2.438   3.452  0.2109  0.2403 -0.3600
 2035SOL     OW 8185   1.842   2.740   3.357  0.4123  0.1862  0.0146
 2035SOL    HW2 8186   1.914   2.778   3.407  1.4960 -0.8834 -0.6964
 2035SOL    HW3 8187   1.829   2.653   3.395 -0.3289  0.2718 -0.0363
 2035SOL    MW4 8188   1.849   2.734   3.368  0.4576  0.0565 -0.0861
 2036SOL     OW 8189   2.039   2.878   3.493 -0.4400  0.0795 -0.0680
 2036SOL    HW2 8190   2.054   2.882   3.588 -0.5974 -0.2877 -0.0248
 2036SOL    HW3 8191   2.112   2.824   3.460  0.5984  1.6515 -0.3840
 2036SOL    MW4 8192   2.051   2.871   3.501 -0.3238  0.2384 -0.1040
 2037SOL     OW 8193   2.030   3.122   3.361 -0.4511  0.1510  0.2072
 2037SOL    HW2 8194   2.098   3.182   3.391 -2.8181  1.9279  2.1185
 2037SOL    HW3 8195   2.046   3.041   3.409 -0.0584  0.7732  1.1374
 2037SOL    MW4 8196   2.041   3.119   3.371 -0.7114  0.4675  0.5822
 2038SOL     OW 8197   1.809   3.241   3.451 -0.2586  0.2011  0.0996
 2038SOL    HW2 8198   1.812   3.222   3.545  0.7576  0.3112  0.0996
 2038SOL    HW3 8199   1.881   3.189   3.414 -1.9500 -1.4629 -0.9243
 2038SOL    MW4 8200   1.819   3.231   3.458 -0.3477 -0.0041 -0.0355
 2039SOL     OW 8201   1.809   3.503   3.361  0.2881  0.2135  0.1576
 2039SOL    HW2 8202   1.743   3.545   3.416 -0.3526  0.1344 -0.5506
 2039SOL    HW3 8203   1.814   3.412   3.393 -0.5573 -0.0101 -0.3471
 2039SOL    MW4 8204   1.801   3.496   3.373  0.0920  0.1733 -0.0026
 2040SOL     OW 8205   2.050   3.608   3.504  0.3990  0.1299  0.0330
 2040SOL    HW2 8206   2.123   3.577   3.451  0.8725  0.5948  0.4165
 2040SOL    HW3 8207   1.975   3.557   3.473  1.1460 -1.3080  0.5598
 2040SOL    MW4 8208   2.050   3.597   3.493  0.5603  0.0012  0.1533
 2041SOL     OW 8209   2.027   3.864   3.405 -0.3806  0.2511 -0.3989
 2041SOL    HW2 8210   1.942   3.896   3.434 -0.1285 -0.3232  0.9982
 2041SOL    HW3 8211   2.027   3.771   3.426 -0.0931 -0.1488 -2.0416
 2041SOL    MW4 8212   2.016   3.856   3.411 -0.3092  0.1228 -0.4311
 2042SOL     OW 8213   1.796   3.992   3.483 -0.6275 -0.3023  0.1589
 2042SOL    HW2 8214   1.785   3.993   3.578  0.4815  0.6895  0.2822
 2042SOL    HW3 8215   1.714   3.955   3.449 -2.0957  1.8297  1.3412
 2042SOL    MW4 8216   1.783   3.987   3.491 -0.6750  0.1097  0.3309
 2043SOL     OW 8217   1.807   4.251   3.410 -0.2622 -0.0154 -0.5109
 2043SOL    HW2 8218   1.798   4.160   3.435 -1.0335  0.5842  1.4803
 2043SOL    HW3 8219   1.793   4.252   3.315  0.3108 -2.0219 -0.6310
 2043SOL    MW4 8220   1.804   4.239   3.400 -0.2884 -0.2012 -0.2639
 2044SOL     OW 8221   2.008   4.390   3.497  0.3594 -0.3023  0.0587
 2044SOL    HW2 8222   1.931   4.356   3.451 -0.8989  1.8311  0.5315
 2044SOL    HW3 8223   2.029   4.472   3.453  0.4269  0.7211  1.9233
 2044SOL    MW4 8224   2.001   4.396   3.485  0.2022  0.1144  0.3674
 2045SOL     OW 8225   2.540   4.647   3.435  0.1910 -0.2830  0.0907
 2045SOL    HW2 8226   2.509   4.557   3.447 -0.9904  0.2905  1.5765
 2045SOL    HW3 8227   2.521   4.668   3.344  0.3857 -1.5036 -0.2367
 2045SOL    MW4 8228   2.533   4.638   3.425  0.0608 -0.3686  0.2434
 2046SOL     OW 8229   2.297   0.079   3.549  0.3716 -1.0156  0.0042
 2046SOL    HW2 8230   2.274   0.161   3.506 -1.0891 -1.5973 -0.3505
 2046SOL    HW3 8231   2.385   0.058   3.518  0.5499  0.1563 -0.2813
 2046SOL    MW4 8232   2.306   0.087   3.539  0.2027 -0.9378 -0.0806
 2047SOL     OW 8233   2.278   0.307   3.402 -0.1896 -0.3786 -0.3108
 2047SOL    HW2 8234   2.342   0.370   3.436  0.7323 -0.6790 -1.4512
 2047SOL    HW3 8235   2.193   0.349   3.416  0.4252  1.2110 -1.2421
 2047SOL    MW4 8236   2.275   0.321   3.408  0.0131 -0.2085 -0.5844
 2048SOL     OW 8237   2.482   0.489   3.507  0.0865 -0.1607  0.1251
 2048SOL    HW2 8238   2.567   0.452   3.484  0.9808 -0.0890  3.1032
 2048SOL    HW3 8239   2.484   0.578   3.471  1.5665  0.0804  0.7385
 2048SOL    MW4 8240   2.494   0.496   3.499  0.3998 -0.1194  0.5989
 2049SOL     OW 8241   2.467   0.755   3.409 -0.5193 -0.3740  0.5546
 2049SOL    HW2 8242   2.543   0.808   3.434  0.9243 -2.3433  0.4845
 2049SOL    HW3 8243   2.463   0.762   3.313  0.4434 -1.3979  0.4337
 2049SOL    MW4 8244   2.476   0.763   3.399 -0.2017 -0.7689  0.5295
 2050SOL     OW 8245   2.244   0.899   3.484  0.0894 -0.0353 -0.0310
 2050SOL    HW2 8246   2.236   0.979   3.432 -2.4613 -1.7718 -2.5175
 2050SOL    HW3 8247   2.327   0.860   3.456  0.4548  0.8154 -0.1528
 2050SOL    MW4 8248   2.254   0.904   3.473 -0.1988 -0.1522 -0.3750
 2051SOL     OW 8249   2.214   1.158   3.366  0.0038  0.0013 -0.2391
 2051SOL    HW2 8250   2.292   1.198   3.404 -0.1211  1.2824 -1.3075
 2051SOL    HW3 8251   2.141   1.203   3.408 -0.1977 -1.2695  0.8400
 2051SOL    MW4 8252   2.214   1.169   3.377 -0.0393  0.0027 -0.2377
 2052SOL     OW 8253   2.461   1.251   3.480  0.1388 -0.3047  0.4839
 2052SOL    HW2 8254   2.481   1.256   3.574  2.6493  1.7091 -0.1113
 2052SOL    HW3 8255   2.526   1.191   3.445 -1.1368 -1.4744  0.1034
 2052SOL    MW4 8256   2.472   1.244   3.488  0.3021 -0.1932  0.3552
 2053SOL     OW 8257   2.491   1.522   3.440  0.6632  0.0242 -0.0786
 2053SOL    HW2 8258   2.482   1.432   3.469 -1.0337 -0.0494 -0.8152
 2053SOL    HW3 8259   2.486   1.517   3.344  0.4048  0.9166 -0.1159
 2053SOL    MW4 8260   2.489   1.510   3.431  0.4051  0.1321 -0.1810
 2054SOL     OW 8261   2.236   1.652   3.480  0.3310  0.2125  0.1274
 2054SOL    HW2 8262   2.220   1.661   3.574  0.0009 -0.2956  0.1187
 2054SOL    HW3 8263   2.321   1.609   3.474 -0.2082 -0.8892  0.2096
 2054SOL    MW4 8264   2.245   1.648   3.492  0.2167  0.0001  0.1373
 2055SOL     OW 8265   2.282   1.912   3.393  0.0138 -0.2240  0.1688
 2055SOL    HW2 8266   2.275   1.817   3.399 -0.8704 -0.2178 -0.5276
 2055SOL    HW3 8267   2.274   1.931   3.299 -0.3240  0.5636  0.3483
 2055SOL    MW4 8268   2.280   1.902   3.381 -0.1473 -0.1191  0.1011
 2056SOL     OW 8269   2.487   2.076   3.495  0.3139  0.0005  0.5572
 2056SOL    HW2 8270   2.490   2.059   3.589  0.3058  0.0616  0.5683
 2056SOL    HW3 8271   2.413   2.023   3.464  0.7479 -0.5624  0.4730
 2056SOL    MW4 8272   2.478   2.066   3.503  0.3700 -0.0658  0.5474
 2057SOL     OW 8273   2.485   2.317   3.368  0.0997 -0.0650  0.0574
 2057SOL    HW2 8274   2.561   2.366   3.401 -0.1086  1.2928 -1.4405
 2057SOL    HW3 8275   2.492   2.232   3.411  1.7188  0.5079  0.9891
 2057SOL    MW4 8276   2.496   2.312   3.378  0.2861  0.1898 -0.0172
 2058SOL     OW 8277   2.242   2.416   3.463  0.0663 -0.0975  0.1030
 2058SOL    HW2 8278   2.264   2.420   3.557 -0.5334  0.2049  0.2327
 2058SOL    HW3 8279   2.322   2.383   3.422  0.5259  0.2963  0.6562
 2058SOL    MW4 8280   2.256   2.412   3.470  0.0477 -0.0055  0.1931
 2059SOL     OW 8281   2.244   2.706   3.374 -0.2321  0.2208 -0.5605
 2059SOL    HW2 8282   2.214   2.700   3.283  0.3529  1.2135 -0.8253
 2059SOL    HW3 8283   2.250   2.614   3.403  0.2812 -0.1398 -1.7614
 2059SOL    MW4 8284   2.241   2.693   3.366 -0.0873  0.3042 -0.7539
 2060SOL     OW 8285   2.483   2.827   3.467  0.5332  0.2175  0.0340
 2060SOL    HW2 8286   2.484   2.922   3.463  0.8144  0.2601  0.9327
 2060SOL    HW3 8287   2.395   2.802   3.438  0.2435  0.7867  0.4241
 2060SOL    MW4 8288   2.471   2.836   3.463  0.5319  0.2980  0.2041
 2061SOL     OW 8289   2.480   3.098   3.431  0.5463  0.0696  0.9508
 2061SOL    HW2 8290   2.565   3.138   3.446  0.5449  0.5348 -0.1750
 2061SOL    HW3 8291   2.474   3.090   3.335 -0.2596 -0.8541  1.0675
 2061SOL    MW4 8292   2.490   3.103   3.420  0.4399  0.0091  0.8175
 2062SOL     OW 8293   2.248   3.249   3.494 -0.0458  0.0919 -0.2446
 2062SOL    HW2 8294   2.240   3.260   3.589  0.3515 -1.2233 -0.0501
 2062SOL    HW3 8295   2.336   3.212   3.482 -0.5870 -0.9508 -1.0143
 2062SOL    MW4 8296   2.259   3.246   3.505 -0.0646 -0.2191 -0.3207
 2063SOL     OW 8297   2.289   3.504   3.372  0.1125  0.5656  0.2754
 2063SOL    HW2 8298   2.273   3.518   3.279  0.0610  0.5354  0.2794
 2063SOL    HW3 8299   2.294   3.409   3.381  1.4872  0.6201  0.0867
 2063SOL    MW4 8300   2.287   3.493   3.361  0.2871  0.5689  0.2511
 2064SOL     OW 8301   2.494   3.632   3.500 -0.5193  0.0554  0.4902
 2064SOL    HW2 8302   2.484   3.723   3.474  0.2582  0.0314  0.0888
 2064SOL    HW3 8303   2.429   3.585   3.447 -1.1102  0.4073  0.9005
 2064SOL    MW4 8304   2.484   3.638   3.490 -0.4947  0.0987  0.4911
 2065SOL     OW 8305   2.461   3.888   3.405  0.2219 -0.1076 -0.0346
 2065SOL    HW2 8306   2.539   3.923   3.450  0.1042  0.1998 -0.0729
 2065SOL    HW3 8307   2.388   3.933   3.446  0.0569 -0.4531  0.0506
 2065SOL    MW4 8308   2.462   3.898   3.417  0.1845 -0.1128 -0.0281
 2066SOL     OW 8309   2.241   4.003   3.533 -0.1090  0.2143  0.2792
 2066SOL    HW2 8310   2.233   4.086   3.485 -1.0178 -0.2951 -0.4588
 2066SOL    HW3 8311   2.168   3.950   3.503  0.9778 -1.2105  0.0783
 2066SOL    MW4 8312   2.231   4.007   3.523 -0.0856 -0.0405  0.1552
 2067SOL     OW 8313   2.251   4.291   3.417 -0.1577 -0.7521  0.0302
 2067SOL    HW2 8314   2.168   4.311   3.461 -0.3650 -1.1897 -0.1631
 2067SOL    HW3 8315   2.227   4.282   3.325  0.3880  0.9137 -0.3028
 2067SOL    MW4 8316   2.237   4.293   3.410 -0.1130 -0.5908 -0.0393
 2068SOL     OW 8317   2.476   4.392   3.514 -0.0729  0.1766  0.2118
 2068SOL    HW2 8318   2.460   4.385   3.608 -0.6985 -0.2267  0.0778
 2068SOL    HW3 8319   2.402   4.348   3.473 -0.0193  0.7194 -0.4838
 2068SOL    MW4 8320   2.464   4.385   3.521 -0.1485  0.1955  0.1023
 2069SOL     OW 8321   2.945   4.595   3.400  0.4202 -0.1133 -0.2909
 2069SOL    HW2 8322   2.876   4.647   3.441  0.4749  0.5569 -1.0326
 2069SOL    HW3 8323   2.952   4.630   3.311 -0.6541 -2.4577 -1.3246
 2069SOL    MW4 8324   2.937   4.607   3.394  0.2856 -0.3333 -0.5252
 2070SOL     OW 8325   2.768   0.087   3.525 -0.0790  0.2424  0.4534
 2070SOL    HW2 8326   2.746   0.178   3.503 -0.1381  0.3193  0.8299
 2070SOL    HW3 8327   2.687   0.039   3.508  0.3259  0.0460 -0.9863
 2070SOL    MW4 8328   2.754   0.093   3.519 -0.0331  0.2267  0.3128
 2071SOL     OW 8329   2.729   0.358   3.461 -0.4359  0.2178 -0.4378
 2071SOL    HW2 8330   2.811   0.404   3.479 -0.5060  0.1268  0.0978
 2071SOL    HW3 8331   2.722   0.359   3.365  0.8465 -0.9272 -0.5569
 2071SOL    MW4 8332   2.739   0.364   3.451 -0.2761  0.0547 -0.3829
 2072SOL     OW 8333   2.962   0.511   3.494 -0.3075  0.4761 -0.0318
 2072SOL    HW2 8334   2.993   0.515   3.584  1.2108  0.8503 -0.5445
 2072SOL    HW3 8335   2.943   0.602   3.471  0.0089  0.4678 -0.3251
 2072SOL    MW4 8336   2.964   0.524   3.503 -0.0656  0.5243 -0.1378
 2073SOL     OW 8337   2.917   0.760   3.411 -0.1266 -0.1462 -0.2674
 2073SOL    HW2 8338   2.990   0.815   3.438 -0.9512  1.2407 -0.8130
 2073SOL    HW3 8339   2.843   0.792   3.463 -0.4251 -1.3119  0.0332
 2073SOL    MW4 8340   2.916   0.771   3.422 -0.2744 -0.1171 -0.2999
 2074SOL     OW 8341   2.684   0.899   3.504 -0.2551  0.1343  0.2197
 2074SOL    HW2 8342   2.687   0.903   3.599 -1.0741 -0.5232  0.2737
 2074SOL    HW3 8343   2.705   0.988   3.476  0.3053  0.2523  1.0065
 2074SOL    MW4 8344   2.687   0.912   3.513 -0.2892  0.0632  0.3307
 2075SOL     OW 8345   2.721   1.147   3.392 -0.2353 -0.6006  0.2080
 2075SOL    HW2 8346   2.789   1.205   3.426 -0.8560  0.3887 -0.2086
 2075SOL    HW3 8347   2.733   1.150   3.297 -1.3004  0.1542  0.0862
 2075SOL    MW4 8348   2.732   1.155   3.384 -0.4578 -0.3706  0.1369
 2076SOL     OW 8349   2.943   1.283   3.475 -0.1018 -0.1129  0.1841
 2076SOL    HW2 8350   2.952   1.305   3.568  1.4364 -2.0090  0.5362
 2076SOL    HW3 8351   3.026   1.241   3.453 -0.3313  0.6089 -2.1519
 2076SOL    MW4 8352   2.955   1.280   3.484  0.0708 -0.2677 -0.0775
 2077SOL     OW 8353   3.159   1.667   3.563  0.0708  0.2594 -0.1900
 2077SOL    HW2 8354   3.152   1.758   3.533 -1.7979  0.3660  0.5448
 2077SOL    HW3 8355   3.083   1.623   3.527  1.1023 -1.1052 -0.7495
 2077SOL    MW4 8356   3.148   1.673   3.555 -0.0398  0.0935 -0.1667
 2078SOL     OW 8357   2.944   1.563   3.445  0.2403 -0.1384 -0.0337
 2078SOL    HW2 8358   2.861   1.597   3.475  0.6756 -0.6554  1.8095
 2078SOL    HW3 8359   2.936   1.468   3.455  2.0701 -0.0382  2.9742
 2078SOL    MW4 8360   2.932   1.555   3.450  0.5391 -0.1934  0.6063
 2079SOL     OW 8361   2.710   1.921   3.416 -0.2492  0.1806  0.0588
 2079SOL    HW2 8362   2.643   1.989   3.422 -0.5951 -0.0967 -0.5511
 2079SOL    HW3 8363   2.734   1.920   3.323  0.6261  0.3025  0.2862
 2079SOL    MW4 8364   2.704   1.930   3.404 -0.1793  0.1601  0.0083
 2080SOL     OW 8365   2.928   2.089   3.502  0.2524 -0.4259 -0.2307
 2080SOL    HW2 8366   2.920   2.090   3.597 -0.9495  0.5798 -0.3272
 2080SOL    HW3 8367   2.855   2.033   3.473  1.2082 -1.5449 -0.5207
 2080SOL    MW4 8368   2.917   2.081   3.510  0.2201 -0.4411 -0.2820
 2081SOL     OW 8369   2.923   2.343   3.396 -0.4242  0.1178 -0.1750
 2081SOL    HW2 8370   2.926   2.253   3.429 -1.1292 -0.3837 -1.4368
 2081SOL    HW3 8371   2.936   2.334   3.301 -0.6634  1.3315 -0.3283
 2081SOL    MW4 8372   2.925   2.330   3.387 -0.5491  0.2117 -0.3617
 2082SOL     OW 8373   2.687   2.473   3.466 -0.2508  0.5336 -0.0254
 2082SOL    HW2 8374   2.691   2.481   3.561 -0.6334 -0.6442  0.1107
 2082SOL    HW3 8375   2.767   2.426   3.442 -0.6191 -0.0249 -0.1726
 2082SOL    MW4 8376   2.698   2.467   3.476 -0.3498  0.3042 -0.0269
 2083SOL     OW 8377   2.695   2.726   3.357 -0.3632  0.5420  0.4729
 2083SOL    HW2 8378   2.688   2.634   3.382 -3.3930  0.3311 -0.8641
 2083SOL    HW3 8379   2.618   2.767   3.397  0.4755  2.3327  0.3101
 2083SOL    MW4 8380   2.684   2.720   3.366 -0.6523  0.7505  0.2751
 2084SOL     OW 8381   2.909   2.822   3.488 -0.1751 -0.5666 -0.3994
 2084SOL    HW2 8382   2.889   2.812   3.581 -0.8454  2.7476 -0.1255
 2084SOL    HW3 8383   2.834   2.782   3.443 -1.0116 -0.0090  0.4958
 2084SOL    MW4 8384   2.896   2.815   3.494 -0.3741 -0.0556 -0.2451
 2085SOL     OW 8385   2.930   3.090   3.406 -0.3357  0.1447  0.4154
 2085SOL    HW2 8386   2.926   2.996   3.425 -0.3854  0.1253  0.3080
 2085SOL    HW3 8387   2.944   3.096   3.312  0.5444  0.2358  0.5486
 2085SOL    MW4 8388   2.931   3.079   3.396 -0.2260  0.1538  0.4191
 2086SOL     OW 8389   2.715   3.233   3.489  0.1531  0.1492 -0.2390
 2086SOL    HW2 8390   2.706   3.228   3.584  2.1453  0.6846 -0.0102
 2086SOL    HW3 8391   2.789   3.176   3.468 -0.5335 -0.2949 -1.5271
 2086SOL    MW4 8392   2.724   3.225   3.499  0.3254  0.1609 -0.3788
 2087SOL     OW 8393   2.718   3.499   3.388 -0.3297 -0.3817 -0.2825
 2087SOL    HW2 8394   2.686   3.416   3.422 -1.1359 -0.3323 -0.9207
 2087SOL    HW3 8395   2.655   3.564   3.419  0.2185 -0.0302  0.0937
 2087SOL    MW4 8396   2.706   3.497   3.396 -0.3638 -0.3288 -0.3169
 2088SOL     OW 8397   2.929   3.602   3.525  0.5203  0.1688  0.3999
 2088SOL    HW2 8398   2.931   3.691   3.489  1.7573 -0.5530 -1.4199
 2088SOL    HW3 8399   2.855   3.561   3.482 -0.2037  0.3885  1.4323
 2088SOL    MW4 8400   2.920   3.609   3.515  0.5879  0.1023  0.2961
 2089SOL     OW 8401   2.919   3.887   3.429 -0.1862  0.0729 -0.1920
 2089SOL    HW2 8402   2.995   3.916   3.478 -0.0214  2.2721 -1.6781
 2089SOL    HW3 8403   2.845   3.929   3.473  0.1264  3.6152 -2.8528
 2089SOL    MW4 8404   2.919   3.897   3.441 -0.1233  0.8302 -0.7391
 2090SOL     OW 8405   2.688   3.983   3.531  0.0005 -0.0673  0.1051
 2090SOL    HW2 8406   2.693   3.982   3.626 -0.0340 -0.6637  0.0983
 2090SOL    HW3 8407   2.697   4.076   3.508 -1.7102  0.2901  0.7776
 2090SOL    MW4 8408   2.690   3.995   3.540 -0.2294 -0.0987  0.1931
 2091SOL     OW 8409   2.704   4.239   3.439 -0.3105  0.1964 -0.3749
 2091SOL    HW2 8410   2.785   4.282   3.465 -0.3791  0.9052 -1.3341
 2091SOL    HW3 8411   2.634   4.297   3.471 -0.4137  0.3439 -0.8580
 2091SOL    MW4 8412   2.705   4.252   3.447 -0.3331  0.3095 -0.5653
 2092SOL     OW 8413   2.922   4.359   3.527 -0.7057 -0.0683  0.3867
 2092SOL    HW2 8414   2.911   4.390   3.617 -1.1838  1.5386 -0.1988
 2092SOL    HW3 8415   2.939   4.439   3.476 -0.5980 -0.9372 -0.9729
 2092SOL    MW4 8416   2.923   4.374   3.532 -0.7541  0.0291  0.1302
 2093SOL     OW 8417   3.393   4.616   3.415 -0.2586  0.3895 -0.3528
 2093SOL    HW2 8418   3.314   4.664   3.438 -0.8723  0.1042 -1.7734
 2093SOL    HW3 8419   3.389   4.610   3.319  0.6815 -0.9733 -0.3104
 2093SOL    MW4 8420   3.382   4.621   3.405 -0.2155  0.1721 -0.5348
 2094SOL     OW 8421   3.162   0.050   3.538 -0.8355  0.0444  0.4667
 2094SOL    HW2 8422   3.151   0.135   3.498 -1.0568  0.0176  0.4722
 2094SOL    HW3 8423   3.111  -0.010   3.484  0.8347 -0.4164 -0.6595
 2094SOL    MW4 8424   3.154   0.053   3.526 -0.6442 -0.0199  0.3188
 2095SOL     OW 8425   3.163   0.332   3.399 -0.2971 -0.0046 -0.3333
 2095SOL    HW2 8426   3.084   0.383   3.416  0.4815  0.5501  1.8156
 2095SOL    HW3 8427   3.164   0.318   3.304 -1.9012  1.7105 -0.6132
 2095SOL    MW4 8428   3.153   0.337   3.389 -0.4060  0.2949 -0.0868
 2096SOL     OW 8429   3.384   0.486   3.486 -0.1885 -0.2670 -0.1429
 2096SOL    HW2 8430   3.386   0.487   3.582  1.1824  2.5267 -0.1164
 2096SOL    HW3 8431   3.312   0.428   3.463 -1.2632 -0.0821  2.6067
 2096SOL    MW4 8432   3.375   0.479   3.496 -0.1495  0.1260  0.2229
 2097SOL     OW 8433   3.337   0.758   3.433 -0.3740 -0.2306  0.2211
 2097SOL    HW2 8434   3.416   0.810   3.450 -0.5794  0.1107  0.1479
 2097SOL    HW3 8435   3.362   0.668   3.453  0.1046 -0.1528 -0.0241
 2097SOL    MW4 8436   3.350   0.753   3.437 -0.3376 -0.1754  0.1793
 2098SOL     OW 8437   3.125   0.898   3.517  0.1690  0.2388  0.3469
 2098SOL    HW2 8438   3.133   0.985   3.478  0.3038  0.7949  1.5920
 2098SOL    HW3 8439   3.205   0.852   3.490  0.4202  0.7301  0.2504
 2098SOL    MW4 8440   3.137   0.904   3.508  0.2198  0.3769  0.4988
 2099SOL     OW 8441   3.156   1.137   3.387  0.1177 -0.0082 -0.1533
 2099SOL    HW2 8442   3.234   1.191   3.401 -0.6266  0.9442  0.3264
 2099SOL    HW3 8443   3.145   1.136   3.292  0.4124  0.2758 -0.1936
 2099SOL    MW4 8444   3.165   1.144   3.376  0.0582  0.1550 -0.0954
 2100SOL     OW 8445   3.385   1.273   3.509  0.3610  0.1667 -0.0997
 2100SOL    HW2 8446   3.468   1.230   3.489  0.2342 -0.4129  0.6195
 2100SOL    HW3 8447   3.399   1.365   3.485  1.0781 -0.0044 -0.3399
 2100SOL    MW4 8448   3.398   1.280   3.503  0.4389  0.0676 -0.0367
 2101SOL     OW 8449   3.402   1.541   3.436 -0.3803  0.4470  0.1598
 2101SOL    HW2 8450   3.470   1.602   3.463  0.6144 -0.3183 -0.5796
 2101SOL    HW3 8451   3.327   1.561   3.492  0.0521  2.1005  0.1475
 2101SOL    MW4 8452   3.401   1.552   3.447 -0.1922  0.5641  0.0606
 2102SOL     OW 8453   3.159   1.664   3.843 -0.0149  0.2578 -0.0999
 2102SOL    HW2 8454   3.146   1.756   3.863  0.4498  0.3579 -0.2452
 2102SOL    HW3 8455   3.150   1.659   3.748  0.6373  0.2719 -0.1669
 2102SOL    MW4 8456   3.156   1.675   3.833  0.1323  0.2729 -0.1278
 2103SOL     OW 8457   3.141   1.920   3.465 -0.6104 -0.6578  0.4088
 2103SOL    HW2 8458   3.127   1.908   3.371  1.4213  0.5307 -0.0820
 2103SOL    HW3 8459   3.071   1.979   3.493 -0.1836  0.3931 -0.7200
 2103SOL    MW4 8460   3.130   1.926   3.456 -0.2856 -0.3624  0.1953
 2104SOL     OW 8461   3.363   2.081   3.528  0.0748  0.7365 -0.3417
 2104SOL    HW2 8462   3.355   2.160   3.474 -0.7540  1.3366  0.6609
 2104SOL    HW3 8463   3.287   2.029   3.505 -0.1382  0.8734  0.0528
 2104SOL    MW4 8464   3.352   2.085   3.518 -0.0627  0.8335 -0.1574
 2105SOL     OW 8465   3.399   2.331   3.405 -0.1441  0.4385  0.2260
 2105SOL    HW2 8466   3.480   2.354   3.450  0.3945  0.3611 -0.6827
 2105SOL    HW3 8467   3.331   2.378   3.452  0.8255  3.1892 -1.0177
 2105SOL    MW4 8468   3.401   2.340   3.417  0.0548  0.7913 -0.0579
 2106SOL     OW 8469   3.160   2.430   3.526 -0.5683 -0.0756 -0.0700
 2106SOL    HW2 8470   3.154   2.522   3.502  0.7446 -0.0004 -0.1504
 2106SOL    HW3 8471   3.075   2.394   3.503 -1.2946  1.2367  0.5020
 2106SOL    MW4 8472   3.148   2.437   3.520 -0.4911  0.1078 -0.0050
 2107SOL     OW 8473   3.142   2.692   3.417  0.3271  0.1613  0.9800
 2107SOL    HW2 8474   3.215   2.742   3.453  0.2033  1.2051 -0.1838
 2107SOL    HW3 8475   3.064   2.732   3.457  0.3079 -0.0210  1.1255
 2107SOL    MW4 8476   3.141   2.704   3.427  0.3083  0.2747  0.8454
 2108SOL     OW 8477   3.355   2.831   3.522 -0.0476  0.1309  0.1203
 2108SOL    HW2 8478   3.431   2.777   3.499  0.3389  0.7652 -0.1051
 2108SOL    HW3 8479   3.366   2.911   3.470 -1.2864 -0.0964 -0.5195
 2108SOL    MW4 8480   3.367   2.834   3.512 -0.1602  0.1848  0.0062
 2109SOL     OW 8481   3.378   3.086   3.412 -0.4324 -0.0219  0.1960
 2109SOL    HW2 8482   3.460   3.124   3.444 -0.5956  0.2748  0.2628
 2109SOL    HW3 8483   3.310   3.126   3.466 -0.7893  1.0701 -1.0141
 2109SOL    MW4 8484   3.380   3.096   3.423 -0.5012  0.1612  0.0451
 2110SOL     OW 8485   3.144   3.199   3.527 -0.1295 -0.1350 -0.3222
 2110SOL    HW2 8486   3.147   3.290   3.499 -0.2459 -0.2010 -0.5601
 2110SOL    HW3 8487   3.077   3.159   3.470  0.2778 -0.4799 -0.5663
 2110SOL    MW4 8488   3.136   3.206   3.516 -0.0913 -0.1891 -0.3860
 2111SOL     OW 8489   3.116   3.452   3.426  0.2647  0.5634  0.3483
 2111SOL    HW2 8490   3.049   3.513   3.457 -0.4261  1.1299 -2.1469
 2111SOL    HW3 8491   3.099   3.444   3.332  1.8015 -1.6658  0.2226
 2111SOL    MW4 8492   3.105   3.459   3.418  0.3762  0.3440  0.0024
 2112SOL     OW 8493   3.358   3.588   3.519  0.0104 -0.2929  0.1333
 2112SOL    HW2 8494   3.359   3.676   3.483 -0.2747 -0.5913 -0.6136
 2112SOL    HW3 8495   3.270   3.555   3.500 -0.1017 -0.4987  0.9884
 2112SOL    MW4 8496   3.347   3.595   3.512 -0.0420 -0.3593  0.1476
 2113SOL     OW 8497   3.349   3.838   3.405  0.5148  0.4664 -0.2982
 2113SOL    HW2 8498   3.269   3.876   3.440 -0.1345 -1.0034 -0.1489
 2113SOL    HW3 8499   3.417   3.866   3.466 -0.3455 -0.6513  1.2012
 2113SOL    MW4 8500   3.348   3.846   3.418  0.3157  0.1254 -0.0806
 2114SOL     OW 8501   3.141   3.968   3.547  0.7299  0.2151 -0.5050
 2114SOL    HW2 8502   3.133   3.987   3.640 -0.9447 -1.2803 -0.3259
 2114SOL    HW3 8503   3.143   4.054   3.505 -2.8681  0.8937  0.5713
 2114SOL    MW4 8504   3.140   3.982   3.554  0.0343  0.1075 -0.3395
 2115SOL     OW 8505   3.160   4.216   3.428 -0.3704  0.0827  0.2251
 2115SOL    HW2 8506   3.235   4.262   3.468 -0.6324  0.7672 -0.0628
 2115SOL    HW3 8507   3.084   4.259   3.466 -0.6223  0.4646 -0.7104
 2115SOL    MW4 8508   3.160   4.228   3.439 -0.4385  0.2241  0.0637
 2116SOL     OW 8509   3.379   4.352   3.502 -0.1789 -0.2817  0.2296
 2116SOL    HW2 8510   3.376   4.444   3.476  0.6218 -0.1467  0.5997
 2116SOL    HW3 8511   3.385   4.354   3.598 -1.4064 -0.7428  0.3301
 2116SOL    MW4 8512   3.379   4.364   3.511 -0.2353 -0.3247  0.2916
 2117SOL     OW 8513   3.835   4.581   3.383 -0.0622  0.4128 -0.0145
 2117SOL    HW2 8514   3.772   4.648   3.410 -0.8167  0.4691 -1.8128
 2117SOL    HW3 8515   3.841   4.591   3.288  0.8909 -1.1510 -0.1367
 2117SOL    MW4 8516   3.828   4.592   3.374 -0.0360  0.2141 -0.2680
 2118SOL     OW 8517   3.621   0.090   3.501 -0.3072 -0.2037 -0.5197
 2118SOL    HW2 8518   3.612   0.179   3.466  0.9664  0.0678 -0.2110
 2118SOL    HW3 8519   3.542   0.044   3.473 -0.9965  1.0427 -0.6433
 2118SOL    MW4 8520   3.610   0.096   3.493 -0.2301 -0.0034 -0.4954
 2119SOL     OW 8521   3.602   0.341   3.390 -0.4712  0.5798 -0.0988
 2119SOL    HW2 8522   3.677   0.381   3.434 -0.5686  0.2381  0.3801
 2119SOL    HW3 8523   3.526   0.388   3.425 -0.4142  1.6393 -1.3599
 2119SOL    MW4 8524   3.601   0.353   3.400 -0.4766  0.6745 -0.2017
 2120SOL     OW 8525   3.836   0.450   3.498 -0.1603  0.1561 -0.1785
 2120SOL    HW2 8526   3.855   0.468   3.590 -1.0088 -0.1058  0.0513
 2120SOL    HW3 8527   3.919   0.419   3.462  0.4726  1.4041  0.2036
 2120SOL    MW4 8528   3.849   0.448   3.506 -0.1888  0.2862 -0.0980
 2121SOL     OW 8529   3.802   0.722   3.405  0.2356 -0.0191 -0.8393
 2121SOL    HW2 8530   3.877   0.764   3.447 -0.5952  0.8507 -0.1998
 2121SOL    HW3 8531   3.800   0.633   3.442 -1.0258  1.0085  1.6991
 2121SOL    MW4 8532   3.811   0.716   3.416 -0.0403  0.2313 -0.4203
 2122SOL     OW 8533   3.580   0.896   3.485 -0.4006 -0.0914  0.1502
 2122SOL    HW2 8534   3.585   0.892   3.580 -0.2882 -1.0697  0.0995
 2122SOL    HW3 8535   3.657   0.848   3.454 -0.7003 -0.1968 -0.4388
 2122SOL    MW4 8536   3.591   0.889   3.493 -0.4256 -0.2344  0.0658
 2123SOL     OW 8537   3.621   1.170   3.402 -0.4317  0.1491 -0.7394
 2123SOL    HW2 8538   3.613   1.080   3.434 -2.0825  0.2663 -0.7744
 2123SOL    HW3 8539   3.635   1.160   3.308  0.7120 -0.1020 -0.5458
 2123SOL    MW4 8540   3.622   1.156   3.394 -0.4983  0.1315 -0.7184
 2124SOL     OW 8541   3.859   1.273   3.516 -0.2036  0.1611 -0.0794
 2124SOL    HW2 8542   3.841   1.287   3.609 -1.3137 -1.9565  0.0694
 2124SOL    HW3 8543   3.779   1.233   3.482  0.6632 -0.2880 -1.6487
 2124SOL    MW4 8544   3.846   1.269   3.524 -0.2358 -0.1777 -0.2666
 2125SOL     OW 8545   3.812   1.523   3.389  0.1558 -0.1663  0.0508
 2125SOL    HW2 8546   3.880   1.570   3.437 -0.6206  0.0519  0.9493
 2125SOL    HW3 8547   3.804   1.439   3.434 -0.6059  0.0562  0.3449
 2125SOL    MW4 8548   3.820   1.518   3.401 -0.0472 -0.1081  0.2081
 2126SOL     OW 8549   3.616   1.713   3.552  0.1604 -0.3873 -0.1510
 2126SOL    HW2 8550   3.599   1.797   3.510  0.9466 -0.0754  0.1376
 2126SOL    HW3 8551   3.670   1.665   3.489  0.6862 -0.2216  0.1700
 2126SOL    MW4 8552   3.621   1.718   3.538  0.3333 -0.3242 -0.0710
 2127SOL     OW 8553   3.613   1.972   3.424  0.1515 -0.0783 -0.0992
 2127SOL    HW2 8554   3.687   2.015   3.465  0.0046  1.3663 -1.3177
 2127SOL    HW3 8555   3.537   2.022   3.454 -0.1990 -0.6787  0.0178
 2127SOL    MW4 8556   3.612   1.984   3.434  0.0861  0.0331 -0.2446
 2128SOL     OW 8557   3.848   2.044   3.564 -0.0099 -0.7249  0.2110
 2128SOL    HW2 8558   3.847   2.049   3.660 -0.3400 -0.8345  0.2142
 2128SOL    HW3 8559   3.934   2.006   3.543  0.8171  0.9939  0.3799
 2128SOL    MW4 8560   3.859   2.040   3.574  0.0553 -0.5126  0.2337
 2129SOL     OW 8561   3.857   2.309   3.435  0.1280 -0.0994 -0.2292
 2129SOL    HW2 8562   3.924   2.363   3.477 -1.5533  0.9482  1.2045
 2129SOL    HW3 8563   3.863   2.225   3.479 -1.7964  1.0727  2.3994
 2129SOL    MW4 8564   3.867   2.305   3.446 -0.3476  0.1934  0.3068
 2130SOL     OW 8565   3.624   2.413   3.524  0.6786  0.6674  0.0568
 2130SOL    HW2 8566   3.616   2.504   3.494  1.0533  1.0430  1.0678
 2130SOL    HW3 8567   3.707   2.383   3.488  1.1392  1.1264  0.7198
 2130SOL    MW4 8568   3.634   2.421   3.515  0.7889  0.7777  0.2775
 2131SOL     OW 8569   3.568   2.672   3.440 -0.2554 -0.5276 -0.3703
 2131SOL    HW2 8570   3.640   2.729   3.467 -0.8079 -0.5347  1.1290
 2131SOL    HW3 8571   3.563   2.684   3.345  0.8530  0.4869 -0.3139
 2131SOL    MW4 8572   3.577   2.682   3.431 -0.1824 -0.3948 -0.1650
 2132SOL     OW 8573   3.788   2.816   3.532  0.6570  0.1931 -0.0275
 2132SOL    HW2 8574   3.780   2.827   3.627  0.0328  1.3515 -0.2026
 2132SOL    HW3 8575   3.791   2.906   3.498  1.4664 -0.2101 -1.0577
 2132SOL    MW4 8576   3.787   2.829   3.540  0.6814  0.2930 -0.1864
 2133SOL     OW 8577   3.817   3.084   3.425  0.3444 -0.3510 -0.2039
 2133SOL    HW2 8578   3.886   3.149   3.437  0.1711 -0.1812 -0.1053
 2133SOL    HW3 8579   3.810   3.072   3.331  2.1354 -2.1432 -0.1229
 2133SOL    MW4 8580   3.825   3.091   3.414  0.5579 -0.5651 -0.1802
 2134SOL     OW 8581   3.602   3.210   3.528 -0.3444 -0.0712 -0.0962
 2134SOL    HW2 8582   3.596   3.305   3.512  0.5622  0.0650  0.2787
 2134SOL    HW3 8583   3.687   3.186   3.490  0.0031 -0.4879  0.9323
 2134SOL    MW4 8584   3.613   3.220   3.521 -0.1788 -0.1085  0.0887
 2135SOL     OW 8585   3.583   3.465   3.434 -0.2550 -0.4556 -0.3091
 2135SOL    HW2 8586   3.498   3.503   3.458 -0.4377 -1.0381 -0.0130
 2135SOL    HW3 8587   3.579   3.455   3.339 -0.2696  0.0996 -0.3724
 2135SOL    MW4 8588   3.571   3.469   3.425 -0.2811 -0.4594 -0.2785
 2136SOL     OW 8589   3.825   3.590   3.500  0.6337 -1.0497  0.3236
 2136SOL    HW2 8590   3.739   3.552   3.480 -0.9559  2.6048 -0.0760
 2136SOL    HW3 8591   3.832   3.587   3.595  0.7709 -2.7793  0.2734
 2136SOL    MW4 8592   3.814   3.584   3.510  0.4420 -0.7958  0.2644
 2137SOL     OW 8593   3.852   3.847   3.390 -0.1621  0.1337 -0.3515
 2137SOL    HW2 8594   3.769   3.887   3.418  1.2894  1.6958  1.9427
 2137SOL    HW3 8595   3.852   3.761   3.432 -0.1757  0.5361  0.4867
 2137SOL    MW4 8596   3.841   3.841   3.399  0.0277  0.3929  0.0620
 2138SOL     OW 8597   3.611   3.921   3.500  0.0333 -0.0492  0.1257
 2138SOL    HW2 8598   3.606   3.911   3.595  1.3873 -0.5409  0.1547
 2138SOL    HW3 8599   3.603   4.015   3.485  0.8281  0.1326  0.8060
 2138SOL    MW4 8600   3.609   3.932   3.511  0.3169 -0.0901  0.2191
 2139SOL     OW 8601   3.587   4.186   3.422  0.7655  0.0497  0.4696
 2139SOL    HW2 8602   3.521   4.254   3.438  1.8531  1.2208  0.1012
 2139SOL    HW3 8603   3.598   4.186   3.327  1.8841  0.4571  0.5855
 2139SOL    MW4 8604   3.580   4.195   3.412  1.0564  0.2580  0.4363
 2140SOL     OW 8605   3.840   4.327   3.476 -0.3710 -0.6182 -0.2729
 2140SOL    HW2 8606   3.767   4.275   3.442 -0.9051  0.2099 -0.4105
 2140SOL    HW3 8607   3.819   4.417   3.450  0.1987 -0.2449  0.5475
 2140SOL    MW4 8608   3.827   4.332   3.468 -0.3664 -0.4597 -0.1829
 2141SOL     OW 8609   4.279   4.611   3.416  0.1672 -0.4590  0.2583
 2141SOL    HW2 8610   4.312   4.523   3.436 -0.8072 -1.1664 -1.1746
 2141SOL    HW3 8611   4.338   4.670   3.463  1.5280 -1.8373  0.3127
 2141SOL    MW4 8612   4.291   4.607   3.424  0.2184 -0.7339  0.0765
 2142SOL     OW 8613   4.039   0.040   3.514  0.3567  0.0255  0.5406
 2142SOL    HW2 8614   4.106  -0.018   3.477 -0.7082 -1.1935  0.4707
 2142SOL    HW3 8615   3.957   0.008   3.476 -0.1816  2.0420 -0.0583
 2142SOL    MW4 8616   4.037   0.028   3.504  0.1450  0.1307  0.4520
 2143SOL     OW 8617   4.062   0.302   3.404  0.2734 -0.0214  0.4506
 2143SOL    HW2 8618   4.132   0.336   3.460  0.3198 -0.9362  0.9614
 2143SOL    HW3 8619   4.040   0.216   3.442 -0.6868 -0.0208 -0.0781
 2143SOL    MW4 8620   4.068   0.295   3.417  0.1535 -0.1421  0.4482
 2144SOL     OW 8621   4.275   0.743   3.433  0.1997  0.4733 -0.1921
 2144SOL    HW2 8622   4.273   0.733   3.337 -0.4405  1.3460 -0.2658
 2144SOL    HW3 8623   4.362   0.779   3.451 -0.1210  1.4400 -0.5530
 2144SOL    MW4 8624   4.286   0.746   3.422  0.0730  0.7161 -0.2494
 2145SOL     OW 8625   4.263   0.493   3.546 -0.1094  0.3978 -0.0514
 2145SOL    HW2 8626   4.272   0.580   3.507  0.4735  0.8348  1.0255
 2145SOL    HW3 8627   4.261   0.510   3.640 -0.0954 -0.7529  0.1595
 2145SOL    MW4 8628   4.264   0.507   3.553 -0.0305  0.3036  0.1187
 2146SOL     OW 8629   4.010   0.885   3.498 -0.0329  0.1155  0.5811
 2146SOL    HW2 8630   4.026   0.966   3.450 -0.7988  0.0229  0.1700
 2146SOL    HW3 8631   4.086   0.830   3.479  0.4508  0.7039  0.7980
 2146SOL    MW4 8632   4.022   0.888   3.489 -0.0701  0.1808  0.5555
 2147SOL     OW 8633   4.066   1.127   3.392 -0.2619  0.2972  0.0542
 2147SOL    HW2 8634   4.142   1.159   3.441  0.4859  2.6435 -2.5735
 2147SOL    HW3 8635   3.995   1.186   3.416 -0.4237  0.1745 -0.1204
 2147SOL    MW4 8636   4.067   1.139   3.402 -0.1845  0.5906 -0.3157
 2148SOL     OW 8637   4.297   1.244   3.500 -0.0008 -0.7394  0.1217
 2148SOL    HW2 8638   4.290   1.332   3.462 -0.7625 -0.9791 -0.3032
 2148SOL    HW3 8639   4.375   1.207   3.458  0.8720  0.0718  1.0065
 2148SOL    MW4 8640   4.306   1.251   3.489  0.0138 -0.6640  0.1826
 2149SOL     OW 8641   4.258   1.503   3.400  0.5661  0.0801 -0.9057
 2149SOL    HW2 8642   4.182   1.539   3.445  1.5824  1.4547 -0.2644
 2149SOL    HW3 8643   4.239   1.517   3.307  0.4965  1.3636 -0.7078
 2149SOL    MW4 8644   4.245   1.510   3.393  0.6919  0.4308 -0.7949
 2150SOL     OW 8645   4.035   1.647   3.506 -0.5719  0.0316  0.0057
 2150SOL    HW2 8646   4.037   1.635   3.601 -0.1862  1.3717  0.1829
 2150SOL    HW3 8647   4.033   1.742   3.494  2.0543 -0.0284 -1.3397
 2150SOL    MW4 8648   4.035   1.658   3.517 -0.1740  0.2005 -0.1488
 2151SOL     OW 8649   4.072   1.922   3.438  0.0874 -0.1245 -0.0391
 2151SOL    HW2 8650   4.146   1.982   3.451  0.4564 -0.9468  1.8471
 2151SOL    HW3 8651   4.056   1.924   3.344  0.5966  2.3267 -0.1122
 2151SOL    MW4 8652   4.080   1.930   3.428  0.2041  0.0905  0.2003
 2152SOL     OW 8653   4.280   2.344   3.363 -0.1507  0.1475 -0.0971
 2152SOL    HW2 8654   4.211   2.400   3.398 -0.3709  0.4057 -0.9251
 2152SOL    HW3 8655   4.285   2.367   3.270  0.0094 -0.9496 -0.3707
 2152SOL    MW4 8656   4.272   2.355   3.356 -0.1583  0.0370 -0.2425
 2153SOL     OW 8657   4.290   2.323   3.088 -0.4737 -0.1517 -0.0975
 2153SOL    HW2 8658   4.224   2.370   3.038 -1.2839 -1.2569 -0.0917
 2153SOL    HW3 8659   4.373   2.351   3.051 -0.8866  2.0756  0.6064
 2153SOL    MW4 8660   4.292   2.333   3.077 -0.6351 -0.0036 -0.0041
 2154SOL     OW 8661   4.083   2.471   3.531  0.3061  0.3446 -0.0102
 2154SOL    HW2 8662   4.062   2.475   3.624 -0.1794 -0.3462 -0.0806
 2154SOL    HW3 8663   4.061   2.558   3.497 -1.0930  0.0853  0.2064
 2154SOL    MW4 8664   4.077   2.483   3.539  0.0572  0.2189  0.0091
 2155SOL     OW 8665   4.019   2.701   3.418 -0.2091 -0.2878 -0.3434
 2155SOL    HW2 8666   4.088   2.763   3.442 -0.1951 -0.4745  0.1014
 2155SOL    HW3 8667   3.944   2.726   3.472  0.1009 -1.2704  0.5592
 2155SOL    MW4 8668   4.019   2.712   3.429 -0.1664 -0.4418 -0.1655
 2156SOL     OW 8669   4.248   2.848   3.512  0.5013 -0.0358  0.2678
 2156SOL    HW2 8670   4.244   2.829   3.606  1.2754 -0.6251  0.1879
 2156SOL    HW3 8671   4.326   2.801   3.481 -0.2153 -0.5243 -0.8266
 2156SOL    MW4 8672   4.258   2.839   3.520  0.5088 -0.1779  0.1128
 2157SOL     OW 8673   0.011   3.195   3.490  0.0098  0.1818  0.1658
 2157SOL    HW2 8674  -0.074   3.166   3.455 -0.0775 -0.4973  0.9230
 2157SOL    HW3 8675   0.023   3.283   3.453 -1.7685  0.9369  1.2979
 2157SOL    MW4 8676   0.001   3.203   3.481 -0.2364  0.1917  0.4153
 2158SOL     OW 8677   4.038   3.251   3.480  0.1007  0.5781  0.1147
 2158SOL    HW2 8678   4.049   3.338   3.441  0.2252  1.2423  1.6032
 2158SOL    HW3 8679   4.114   3.201   3.449  1.0464  1.5779  0.7678
 2158SOL    MW4 8680   4.049   3.256   3.471  0.2418  0.7975  0.3972
 2159SOL     OW 8681   4.029   3.478   3.350  0.1060  0.9620 -0.2460
 2159SOL    HW2 8682   4.099   3.521   3.398  0.5136 -1.6926  1.6445
 2159SOL    HW3 8683   3.949   3.504   3.394  0.2795  0.5233  0.3331
 2159SOL    MW4 8684   4.028   3.487   3.362  0.1831  0.5538  0.0799
 2160SOL     OW 8685   4.247   3.592   3.492 -0.1787  0.1484 -0.0238
 2160SOL    HW2 8686   4.259   3.600   3.587  1.2217  0.3201 -0.1999
 2160SOL    HW3 8687   4.268   3.680   3.459 -1.4883  0.3163 -0.4155
 2160SOL    MW4 8688   4.252   3.605   3.500 -0.1669  0.1934 -0.0985
 2161SOL     OW 8689   4.284   3.842   3.406  0.4372  0.5254  0.1283
 2161SOL    HW2 8690   4.368   3.885   3.422  1.0928 -0.2132 -1.2616
 2161SOL    HW3 8691   4.276   3.838   3.311 -0.4651 -0.7862  0.2386
 2161SOL    MW4 8692   4.294   3.847   3.396  0.4044  0.2549 -0.0405
 2162SOL     OW 8693   4.064   3.984   3.493  0.1881  0.3806  0.0191
 2162SOL    HW2 8694   4.142   3.934   3.470 -0.1209 -0.2209  0.2417
 2162SOL    HW3 8695   3.991   3.932   3.458 -0.1289  0.7715  0.0891
 2162SOL    MW4 8696   4.065   3.970   3.485  0.1054  0.3529  0.0577
 2163SOL     OW 8697   4.091   4.230   3.394 -0.2661  0.6022  0.4414
 2163SOL    HW2 8698   4.087   4.140   3.424  0.7627  0.1782 -0.6854
 2163SOL    HW3 8699   4.006   4.267   3.419 -0.8714 -0.7967  0.4934
 2163SOL    MW4 8700   4.079   4.223   3.401 -0.2098  0.3619  0.2995
 2164SOL     OW 8701   4.316   4.342   3.494 -0.1323  0.1567  0.2860
 2164SOL    HW2 8702   4.296   4.356   3.587  0.4823  0.4883  0.3742
 2164SOL    HW3 8703   4.235   4.307   3.457 -1.0539  2.0183  0.5031
 2164SOL    MW4 8704   4.303   4.339   3.501 -0.1731  0.4463  0.3264
 2165SOL     OW 8705   0.246   4.395   3.766 -0.6068  0.1308 -0.0964
 2165SOL    HW2 8706   0.313   4.348   3.817  0.8775  1.5104 -0.7493
 2165SOL    HW3 8707   0.238   4.480   3.809 -0.8162  0.5519 -0.9587
 2165SOL    MW4 8708   0.254   4.400   3.779 -0.4385  0.3681 -0.2964
 2166SOL     OW 8709   0.032   0.363   3.848  0.1138  0.1933  0.1059
 2166SOL    HW2 8710   0.043   0.350   3.942  0.0040  0.0372  0.0980
 2166SOL    HW3 8711   0.109   0.412   3.821  1.6199 -2.2830 -0.2477
 2166SOL    MW4 8712   0.043   0.367   3.857  0.2980 -0.1540  0.0582
 2167SOL     OW 8713   2.759   1.143   3.850 -0.3263  0.3865 -0.0958
 2167SOL    HW2 8714   2.771   1.147   3.945 -1.7779 -0.1535  0.1129
 2167SOL    HW3 8715   2.749   1.050   3.831  0.4728  0.4473 -0.8540
 2167SOL    MW4 8716   2.759   1.131   3.860 -0.4127  0.3233 -0.1683
 2168SOL     OW 8717   0.266   0.508   3.779 -0.2043 -0.4364  0.0962
 2168SOL    HW2 8718   0.256   0.599   3.807  0.4656 -0.0194 -0.9906
 2168SOL    HW3 8719   0.260   0.511   3.683 -0.7626 -1.6116  0.0809
 2168SOL    MW4 8720   0.264   0.520   3.770 -0.1896 -0.5364 -0.0489
 2169SOL     OW 8721   0.279   0.777   3.888 -0.4846  0.0964 -0.2868
 2169SOL    HW2 8722   0.213   0.834   3.848 -3.6719 -3.1511  0.1847
 2169SOL    HW3 8723   0.270   0.792   3.982 -0.8362 -0.6142 -0.2025
 2169SOL    MW4 8724   0.269   0.787   3.895 -0.9515 -0.4258 -0.2134
 2170SOL     OW 8725   0.079   0.932   3.791  0.1941  0.0720 -0.0720
 2170SOL    HW2 8726  -0.003   0.887   3.813  0.1131  0.2511 -0.0003
 2170SOL    HW3 8727   0.065   1.022   3.822  0.0638  0.3384 -0.8822
 2170SOL    MW4 8728   0.066   0.938   3.798  0.1662  0.1308 -0.1695
 2171SOL     OW 8729   0.032   1.181   3.939 -0.2984  0.2961  0.4609
 2171SOL    HW2 8730   0.084   1.231   3.875 -0.1656  0.3564  0.6135
 2171SOL    HW3 8731  -0.059   1.200   3.917 -0.2463  1.2072  0.9830
 2171SOL    MW4 8732   0.027   1.190   3.928 -0.2741  0.4243  0.5496
 2172SOL     OW 8733   0.405   1.143   3.833 -0.5937  0.0471 -0.4924
 2172SOL    HW2 8734   0.331   1.192   3.798 -0.6766  0.6011  0.4356
 2172SOL    HW3 8735   0.481   1.198   3.817 -0.8583  1.1411  1.7592
 2172SOL    MW4 8736   0.405   1.157   3.826 -0.6396  0.2645 -0.0730
 2173SOL     OW 8737   0.194   1.298   3.757  0.0987  0.4357 -0.1337
 2173SOL    HW2 8738   0.195   1.391   3.782 -0.5266  0.5210 -0.4073
 2173SOL    HW3 8739   0.156   1.298   3.669  0.4842 -0.0406 -0.2993
 2173SOL    MW4 8740   0.189   1.310   3.748  0.0670  0.3841 -0.1915
 2174SOL     OW 8741   4.483   1.679   3.791  0.6339 -0.0867 -0.1126
 2174SOL    HW2 8742   4.484   1.772   3.816 -0.2737 -0.0061 -0.3417
 2174SOL    HW3 8743   4.459   1.680   3.698 -0.2639 -0.5905  0.1041
 2174SOL    MW4 8744   4.480   1.692   3.782  0.3958 -0.1425 -0.1142
 2175SOL     OW 8745   0.005   1.959   3.885  0.2327 -0.1637 -0.3208
 2175SOL    HW2 8746   0.011   2.001   3.970 -0.0790 -0.3727 -0.1962
 2175SOL    HW3 8747  -0.088   1.956   3.865  0.1927 -1.5851  0.0687
 2175SOL    MW4 8748  -0.006   1.964   3.893  0.1863 -0.3788 -0.2527
 2176SOL     OW 8749   0.217   2.080   3.762 -0.4348 -0.0463 -0.3353
 2176SOL    HW2 8750   0.280   2.008   3.763 -0.1298  0.2199 -0.2991
 2176SOL    HW3 8751   0.135   2.041   3.792 -0.0057 -0.1333  0.7679
 2176SOL    MW4 8752   0.215   2.065   3.766 -0.3380 -0.0229 -0.1853
 2177SOL     OW 8753   4.470   2.394   3.789  0.3828 -0.4513  0.4328
 2177SOL    HW2 8754   4.561   2.374   3.812  0.9633 -1.8556 -2.8437
 2177SOL    HW3 8755   4.465   2.489   3.795  2.7141 -0.1520 -1.4435
 2177SOL    MW4 8756   4.481   2.404   3.793  0.7668 -0.5972 -0.2472
 2178SOL     OW 8757   4.464   2.661   3.846 -0.6878  0.3320 -0.0540
 2178SOL    HW2 8758   4.474   2.670   3.941  0.7085  0.0259 -0.1575
 2178SOL    HW3 8759   4.519   2.730   3.810 -0.7474  0.0689 -0.6467
 2178SOL    MW4 8760   4.473   2.671   3.854 -0.5116  0.2570 -0.1459
 2179SOL     OW 8761   1.799   0.859   4.257  0.2853 -0.2730 -0.4405
 2179SOL    HW2 8762   1.861   0.807   4.206  0.4139 -1.3149  0.7519
 2179SOL    HW3 8763   1.777   0.933   4.200  3.2869  0.5979 -0.5344
 2179SOL    MW4 8764   1.804   0.861   4.243  0.6983 -0.2956 -0.2956
 2180SOL     OW 8765   0.190   2.825   3.763  0.0445  0.3555 -0.4724
 2180SOL    HW2 8766   0.191   2.809   3.669  0.7316 -2.0233 -0.1086
 2180SOL    HW3 8767   0.270   2.782   3.796 -1.0776 -0.3962  1.3890
 2180SOL    MW4 8768   0.201   2.817   3.755 -0.0129 -0.0575 -0.1786
 2181SOL     OW 8769   4.481   3.205   3.766 -0.6826  0.1264  0.3104
 2181SOL    HW2 8770   4.488   3.211   3.671 -0.9701 -1.2791  0.1954
 2181SOL    HW3 8771   4.473   3.296   3.795 -2.5205  0.4429 -1.1510
 2181SOL    MW4 8772   4.481   3.218   3.757 -0.9630 -0.0174  0.1020
 2182SOL     OW 8773   2.962   2.794   4.291  0.3362  0.0355 -0.0218
 2182SOL    HW2 8774   2.963   2.881   4.251  0.3433 -0.0694 -0.2528
 2182SOL    HW3 8775   3.016   2.803   4.369  1.0082  0.0309 -0.4848
 2182SOL    MW4 8776   2.969   2.807   4.296  0.4258  0.0212 -0.1130
 2183SOL     OW 8777   4.478   3.455   3.887 -0.1986  0.2043  0.3157
 2183SOL    HW2 8778   4.550   3.490   3.835 -0.8991  1.0219 -0.0942
 2183SOL    HW3 8779   4.404   3.512   3.868 -1.2839 -1.3490 -0.1848
 2183SOL    MW4 8780   4.478   3.467   3.878 -0.4342  0.1070  0.1957
 2184SOL     OW 8781   0.206   3.571   3.775  0.0343 -0.0778 -0.3615
 2184SOL    HW2 8782   0.280   3.517   3.805 -1.0489 -0.9568  0.7374
 2184SOL    HW3 8783   0.219   3.655   3.819  0.0056 -0.4541  0.3811
 2184SOL    MW4 8784   0.218   3.575   3.785 -0.1124 -0.2432 -0.1185
 2185SOL     OW 8785   0.225   3.830   3.876 -0.3689 -0.1704  0.0117
 2185SOL    HW2 8786   0.201   3.852   3.966 -0.5669  1.1963 -0.3703
 2185SOL    HW3 8787   0.305   3.880   3.860 -0.6279 -0.0036 -0.7550
 2185SOL    MW4 8788   0.233   3.840   3.886 -0.4292  0.0317 -0.1402
 2186SOL     OW 8789   0.040   3.960   3.729  0.4948  0.5759  0.5830
 2186SOL    HW2 8790  -0.037   3.929   3.777  0.9917  0.7145  1.4734
 2186SOL    HW3 8791   0.111   3.903   3.757  0.7462  0.5213 -0.1549
 2186SOL    MW4 8792   0.039   3.949   3.739  0.5936  0.5870  0.6032
 2187SOL     OW 8793   0.015   4.216   3.852 -0.0999  0.1360  0.2687
 2187SOL    HW2 8794   0.087   4.273   3.826 -1.3046  0.8959 -1.5328
 2187SOL    HW3 8795   0.029   4.135   3.801  0.3290 -0.3085  1.0848
 2187SOL    MW4 8796   0.026   4.213   3.842 -0.2023  0.1774  0.1388
 2188SOL     OW 8797   0.009   4.259   4.142  0.6564  0.6475  0.4533
 2188SOL    HW2 8798   0.024   4.242   4.050  1.5536  0.0675  0.7037
 2188SOL    HW3 8799   0.093   4.290   4.175  0.4079  0.6213  1.1301
 2188SOL    MW4 8800   0.022   4.261   4.135  0.7424  0.5674  0.5760
 2189SOL     OW 8801   0.696   4.652   3.858  0.0168 -0.2708 -0.0765
 2189SOL    HW2 8802   0.684   4.561   3.834  0.3137 -0.7691  1.6471
 2189SOL    HW3 8803   0.612   4.694   3.841 -0.8860 -1.4063  1.5367
 2189SOL    MW4 8804   0.684   4.646   3.852 -0.0631 -0.4859  0.3638
 2190SOL     OW 8805   0.440   0.086   3.812 -0.2510 -0.5526 -0.4798
 2190SOL    HW2 8806   0.436   0.179   3.835  0.4269 -0.5227 -0.4626
 2190SOL    HW3 8807   0.359   0.049   3.847 -0.2579 -0.0734  0.0186
 2190SOL    MW4 8808   0.429   0.093   3.820 -0.1625 -0.4854 -0.4120
 2191SOL     OW 8809   0.486   0.366   3.881 -0.4726 -0.7946  0.1387
 2191SOL    HW2 8810   0.572   0.397   3.852  0.4533 -1.5762  1.9603
 2191SOL    HW3 8811   0.424   0.423   3.837  0.9678 -0.4868 -1.5375
 2191SOL    MW4 8812   0.489   0.378   3.871 -0.1604 -0.8571  0.1583
 2192SOL     OW 8813   0.716   0.492   3.809 -0.4102  0.4172 -0.2545
 2192SOL    HW2 8814   0.789   0.448   3.853 -1.3091 -1.0472 -0.1670
 2192SOL    HW3 8815   0.717   0.581   3.842  1.0161  0.2600  0.1466
 2192SOL    MW4 8816   0.726   0.498   3.819 -0.3406  0.2033 -0.1898
 2193SOL     OW 8817   1.018   2.708   4.480 -0.0075  0.7102 -0.1722
 2193SOL    HW2 8818   1.028   2.627   4.531 -0.5629 -0.7495 -2.3304
 2193SOL    HW3 8819   1.097   2.758   4.500  0.2521 -0.2664  1.3597
 2193SOL    MW4 8820   1.030   2.704   4.490 -0.0466  0.3889 -0.2551
 2194SOL     OW 8821   0.485   0.889   3.758 -0.3218  0.3384 -0.2743
 2194SOL    HW2 8822   0.407   0.856   3.803 -0.1817  0.3875  0.0096
 2194SOL    HW3 8823   0.478   0.984   3.767 -0.1764  0.3376 -0.1598
 2194SOL    MW4 8824   0.473   0.897   3.765 -0.2842  0.3448 -0.2215
 2195SOL     OW 8825   3.639   3.509   4.207  0.3390 -0.5356 -0.5878
 2195SOL    HW2 8826   3.723   3.553   4.217  0.2596 -0.1137 -1.6816
 2195SOL    HW3 8827   3.614   3.526   4.116 -1.9913  1.2613  0.3421
 2195SOL    MW4 8828   3.647   3.517   4.196  0.0212 -0.2432 -0.6099
 2196SOL     OW 8829   0.642   1.259   3.774 -0.1715  0.1352 -0.2094
 2196SOL    HW2 8830   0.654   1.242   3.681  0.4318  0.5237 -0.2027
 2196SOL    HW3 8831   0.724   1.233   3.815 -0.2905  0.3391  0.1653
 2196SOL    MW4 8832   0.654   1.253   3.767 -0.1076  0.2133 -0.1588
 2197SOL     OW 8833   0.666   1.515   3.895 -0.0982 -0.0125 -0.1216
 2197SOL    HW2 8834   0.662   1.432   3.846  1.1907 -0.7398  0.9832
 2197SOL    HW3 8835   0.735   1.565   3.851  1.8146 -1.1070  1.6114
 2197SOL    MW4 8836   0.675   1.511   3.883  0.3242 -0.2527  0.2527
 2198SOL     OW 8837   0.448   1.633   3.754 -0.2021 -0.0351  0.3950
 2198SOL    HW2 8838   0.528   1.597   3.793  0.2254  2.5599  2.0714
 2198SOL    HW3 8839   0.379   1.611   3.816 -0.3315  0.0034  0.2652
 2198SOL    MW4 8840   0.449   1.625   3.767 -0.1628  0.3123  0.5991
 2199SOL     OW 8841   0.455   1.908   3.796  0.1176 -0.2893  0.5378
 2199SOL    HW2 8842   0.432   1.817   3.784 -2.1586  0.1502  1.4418
 2199SOL    HW3 8843   0.443   1.924   3.889  0.1152  1.0451  0.3193
 2199SOL    MW4 8844   0.451   1.898   3.807 -0.1830 -0.0552  0.6285
 2200SOL     OW 8845   0.697   2.017   3.727 -0.2449 -0.3674  0.0359
 2200SOL    HW2 8846   0.683   2.103   3.768 -0.2267  0.8747 -2.4886
 2200SOL    HW3 8847   0.618   1.968   3.749 -0.7111  0.6334  0.6518
 2200SOL    MW4 8848   0.685   2.022   3.735 -0.3039 -0.0715 -0.2158
 2201SOL     OW 8849   0.706   2.286   3.791 -0.4389  0.0917 -0.4571
 2201SOL    HW2 8850   0.639   2.329   3.739 -0.9049  0.5289  0.4878
 2201SOL    HW3 8851   0.783   2.342   3.783 -0.8937  0.8491  0.3627
 2201SOL    MW4 8852   0.707   2.299   3.783 -0.5604  0.2491 -0.2241
 2202SOL     OW 8853   0.478   2.462   3.721  0.2539 -0.2488 -0.3962
 2202SOL    HW2 8854   0.387   2.446   3.745  0.4566  0.1143  0.6459
 2202SOL    HW3 8855   0.477   2.466   3.625 -1.1247  1.4068 -0.3534
 2202SOL    MW4 8856   0.466   2.460   3.711  0.0988  0.0174 -0.2530
 2203SOL     OW 8857   0.937   2.703   3.853 -0.2100 -0.2323  0.3332
 2203SOL    HW2 8858   0.986   2.748   3.784  0.3627 -2.4478 -0.7559
 2203SOL    HW3 8859   0.850   2.742   3.850  0.5698  1.5429  0.1583
 2203SOL    MW4 8860   0.932   2.714   3.843 -0.0316 -0.2902  0.1664
 2204SOL     OW 8861   0.685   3.124   3.822  0.2903  0.0404 -0.3403
 2204SOL    HW2 8862   0.679   3.134   3.917  3.6147  0.6774 -0.1258
 2204SOL    HW3 8863   0.664   3.032   3.806 -1.6871  0.2604  0.8380
 2204SOL    MW4 8864   0.681   3.113   3.833  0.4680  0.1535 -0.1566
 2205SOL     OW 8865   2.065   2.802   4.523  0.3368  0.3452  0.3504
 2205SOL    HW2 8866   2.124   2.727   4.534  0.2330  0.0287 -1.1799
 2205SOL    HW3 8867   1.980   2.770   4.555  0.4851  0.0898  0.4948
 2205SOL    MW4 8868   2.061   2.788   4.529  0.3428  0.2697  0.1678
 2206SOL     OW 8869   0.419   3.212   3.705 -0.1431 -0.6669 -0.3187
 2206SOL    HW2 8870   0.505   3.172   3.719  0.7187  1.4862  0.7850
 2206SOL    HW3 8871   0.360   3.162   3.761  0.8457 -0.6442  0.7647
 2206SOL    MW4 8872   0.423   3.200   3.714  0.1011 -0.3796 -0.0305
 2207SOL     OW 8873   0.419   3.431   3.872 -0.8412  0.1434 -0.0267
 2207SOL    HW2 8874   0.412   3.360   3.809  0.0029 -0.8678  0.9941
 2207SOL    HW3 8875   0.499   3.478   3.846 -0.2534 -0.5322  0.5347
 2207SOL    MW4 8876   0.429   3.428   3.860 -0.6523 -0.0789  0.1822
 2208SOL     OW 8877   0.641   3.571   3.761  0.4363  0.4034 -0.1967
 2208SOL    HW2 8878   0.654   3.657   3.802  1.5752  0.5084 -0.7655
 2208SOL    HW3 8879   0.671   3.583   3.671  1.6100 -0.8696  0.0133
 2208SOL    MW4 8880   0.647   3.584   3.755  0.7415  0.2491 -0.2441
 2209SOL     OW 8881   0.234   0.796   4.162  0.1582  0.0387 -0.1235
 2209SOL    HW2 8882   0.159   0.839   4.203  1.0594  1.9911 -0.4688
 2209SOL    HW3 8883   0.216   0.703   4.171 -0.2826  0.4143  3.5872
 2209SOL    MW4 8884   0.221   0.790   4.169  0.2189  0.3458  0.3200
 2210SOL     OW 8885   0.425   3.998   3.775 -0.0033 -0.4217  0.4900
 2210SOL    HW2 8886   0.499   3.938   3.779 -0.6519 -1.2881 -0.2590
 2210SOL    HW3 8887   0.404   4.004   3.682  0.6740  1.7489  0.4411
 2210SOL    MW4 8888   0.432   3.991   3.763  0.0004 -0.2494  0.3848
 2211SOL     OW 8889   0.448   4.233   3.888  0.4850 -0.0665 -0.2355
 2211SOL    HW2 8890   0.435   4.145   3.854 -1.6211 -0.3045  1.1201
 2211SOL    HW3 8891   0.526   4.265   3.843 -1.1136 -1.0542 -3.8051
 2211SOL    MW4 8892   0.457   4.226   3.878 -0.0038 -0.2279 -0.5274
 2212SOL     OW 8893   0.669   4.376   3.779 -0.0051 -0.5379  0.1051
 2212SOL    HW2 8894   0.742   4.318   3.804 -2.2157 -3.0916  0.8639
 2212SOL    HW3 8895   0.667   4.372   3.684  1.1632 -0.0332  0.0517
 2212SOL    MW4 8896   0.679   4.367   3.770 -0.1426 -0.8087  0.1984
 2213SOL     OW 8897   1.093   0.005   3.881 -0.1386 -0.3786  0.1728
 2213SOL    HW2 8898   1.093   0.007   3.977 -0.7970  0.3222  0.1679
 2213SOL    HW3 8899   1.182   0.032   3.857  0.4315 -1.8239  0.5897
 2213SOL    MW4 8900   1.105   0.009   3.891 -0.1503 -0.4768  0.2272
 2214SOL     OW 8901   0.925   0.145   3.733  0.5814  0.1633  0.3346
 2214SOL    HW2 8902   0.994   0.088   3.767 -0.6875 -1.7671 -0.2494
 2214SOL    HW3 8903   0.843   0.100   3.755 -0.4578  1.8251 -0.0453
 2214SOL    MW4 8904   0.923   0.131   3.740  0.2769  0.1278  0.2072
 2215SOL     OW 8905   0.940   0.357   3.922  0.5126  0.1903  0.0822
 2215SOL    HW2 8906   0.997   0.424   3.884  0.6813  1.0393  1.7816
 2215SOL    HW3 8907   0.951   0.281   3.865  3.0517  0.4663  0.1404
 2215SOL    MW4 8908   0.949   0.356   3.910  0.8699  0.3387  0.3138
 2216SOL     OW 8909   1.093   0.536   3.793  0.3201  0.0349  0.5195
 2216SOL    HW2 8910   1.161   0.481   3.832  0.1652  0.1967  1.0193
 2216SOL    HW3 8911   1.125   0.626   3.805  0.6327  0.0565 -0.4057
 2216SOL    MW4 8912   1.106   0.541   3.800  0.3409  0.0591  0.4635
 2217SOL     OW 8913   2.696   3.990   4.364  0.1468 -0.2001  0.2189
 2217SOL    HW2 8914   2.681   4.060   4.301  1.0383  0.0031  0.2247
 2217SOL    HW3 8915   2.609   3.964   4.393 -0.2294  0.1950 -0.5638
 2217SOL    MW4 8916   2.683   3.996   4.360  0.2148 -0.1211  0.1163
 2218SOL     OW 8917   0.697   0.750   3.871  0.2279  0.1353 -0.3982
 2218SOL    HW2 8918   0.709   0.784   3.960  1.0085  0.0646 -0.4748
 2218SOL    HW3 8919   0.622   0.799   3.837 -1.9271 -1.8565  1.2984
 2218SOL    MW4 8920   0.689   0.761   3.878  0.0466 -0.1368 -0.1845
 2219SOL     OW 8921   1.165   0.814   3.839 -0.1398 -0.0240  0.2145
 2219SOL    HW2 8922   1.167   0.797   3.933 -0.6867 -1.4595 -0.0203
 2219SOL    HW3 8923   1.083   0.862   3.825  0.1956  0.6539  0.5303
 2219SOL    MW4 8924   1.154   0.818   3.849 -0.1677 -0.1240  0.2248
 2220SOL     OW 8925   1.138   1.265   3.737  0.1453  0.0134  0.3975
 2220SOL    HW2 8926   1.206   1.225   3.792  0.3259 -1.3195 -0.7515
 2220SOL    HW3 8927   1.056   1.230   3.772  0.2740 -1.0167 -0.3033
 2220SOL    MW4 8928   1.136   1.255   3.749  0.1861 -0.2981  0.1535
 2221SOL     OW 8929   1.392   1.703   3.808 -0.3170 -0.8171  0.1900
 2221SOL    HW2 8930   1.395   1.792   3.844  0.2968 -0.4696 -0.6852
 2221SOL    HW3 8931   1.301   1.676   3.817 -0.9007  0.6050 -1.1556
 2221SOL    MW4 8932   1.380   1.711   3.814 -0.3130 -0.5836 -0.1030
 2222SOL     OW 8933   0.877   1.653   3.777  0.3524  0.7794 -0.2773
 2222SOL    HW2 8934   0.885   1.666   3.682  1.9430  0.0648 -0.2489
 2222SOL    HW3 8935   0.951   1.597   3.800  0.2784  1.3768  1.4792
 2222SOL    MW4 8936   0.888   1.648   3.767  0.5525  0.7638 -0.0420
 2223SOL     OW 8937   0.923   1.915   3.855  0.3925 -0.1958  0.0318
 2223SOL    HW2 8938   0.856   1.961   3.805  1.3766  1.5065  0.2500
 2223SOL    HW3 8939   0.906   1.822   3.838 -2.2766  0.1916  0.4449
 2223SOL    MW4 8940   0.912   1.909   3.846  0.1702  0.0800  0.1152
 2224SOL     OW 8941   1.129   2.027   3.492 -0.1648  0.4453  0.2426
 2224SOL    HW2 8942   1.136   2.121   3.475 -0.3696  0.0555 -2.0579
 2224SOL    HW3 8943   1.188   1.986   3.430 -2.2772 -1.1348 -0.8004
 2224SOL    MW4 8944   1.137   2.034   3.482 -0.4704  0.1855 -0.1986
 2225SOL     OW 8945   1.154   2.057   3.768 -0.3451  0.3679 -0.0446
 2225SOL    HW2 8946   1.080   2.001   3.792  0.4356 -0.7265 -0.1256
 2225SOL    HW3 8947   1.160   2.048   3.673 -0.3771  0.7946 -0.0863
 2225SOL    MW4 8948   1.145   2.048   3.758 -0.2462  0.2799 -0.0608
 2226SOL     OW 8949   0.926   2.441   3.768 -0.0460 -0.0038 -0.8081
 2226SOL    HW2 8950   0.936   2.526   3.810 -0.7577  0.5240 -1.6736
 2226SOL    HW3 8951   0.997   2.387   3.803 -1.2585  0.0604  1.8932
 2226SOL    MW4 8952   0.937   2.445   3.778 -0.2998  0.0741 -0.5658
 2227SOL     OW 8953   0.780   2.562   4.742 -0.4987 -0.2204  0.4900
 2227SOL    HW2 8954   0.797   2.656   4.731 -0.8412 -0.2492 -0.2992
 2227SOL    HW3 8955   0.850   2.519   4.693 -0.6056 -0.3665  0.4639
 2227SOL    MW4 8956   0.791   2.569   4.734 -0.5580 -0.2434  0.3824
 2228SOL     OW 8957   1.161   2.852   3.715  0.2262  0.0735 -0.0131
 2228SOL    HW2 8958   1.246   2.808   3.724  0.7110  1.1580  0.8396
 2228SOL    HW3 8959   1.176   2.940   3.750 -1.0818  0.4889 -0.4735
 2228SOL    MW4 8960   1.175   2.858   3.720  0.1175  0.2711  0.0386
 2229SOL     OW 8961   1.198   3.107   3.836 -0.5044 -0.4701  0.0669
 2229SOL    HW2 8962   1.120   3.150   3.802  0.7102  1.2168 -0.6364
 2229SOL    HW3 8963   1.271   3.152   3.793  0.9485 -0.3468  2.5722
 2229SOL    MW4 8964   1.197   3.119   3.826 -0.1525 -0.2313  0.3047
 2230SOL     OW 8965   0.928   3.219   3.741 -0.3705 -0.5796  0.3342
 2230SOL    HW2 8966   0.858   3.159   3.768 -0.0812 -1.5331 -0.9501
 2230SOL    HW3 8967   0.920   3.223   3.646  1.0157 -0.3126  0.2239
 2230SOL    MW4 8968   0.918   3.211   3.732 -0.1495 -0.6704  0.1502
 2231SOL     OW 8969   0.877   3.467   3.861 -0.2789  0.0979  0.2756
 2231SOL    HW2 8970   0.902   3.383   3.822  0.0736  0.1310  0.4298
 2231SOL    HW3 8971   0.790   3.485   3.826  0.2933  0.4354 -0.9858
 2231SOL    MW4 8972   0.869   3.458   3.851 -0.1570  0.1466  0.1292
 2232SOL     OW 8973   1.064   3.646   3.763  0.0541  0.1865 -0.2711
 2232SOL    HW2 8974   1.059   3.722   3.821 -0.9716  0.1323 -0.2711
 2232SOL    HW3 8975   0.993   3.588   3.794  0.4331 -0.4858 -0.6597
 2232SOL    MW4 8976   1.054   3.648   3.775 -0.0312  0.0906 -0.3223
 2233SOL     OW 8977   2.339   1.684   4.276  0.5746  0.0691 -0.1496
 2233SOL    HW2 8978   2.345   1.705   4.369  0.8497 -1.5214  0.1984
 2233SOL    HW3 8979   2.328   1.769   4.233  0.3911  0.8083  1.3328
 2233SOL    MW4 8980   2.338   1.698   4.283  0.5865 -0.0433  0.0916
 2234SOL     OW 8981   0.880   4.240   3.898 -0.5134  0.1678 -0.3505
 2234SOL    HW2 8982   0.883   4.161   3.843 -0.6095 -0.1122  0.0454
 2234SOL    HW3 8983   0.959   4.288   3.876 -0.7120  0.2169 -0.9783
 2234SOL    MW4 8984   0.891   4.236   3.888 -0.5523  0.1373 -0.3815
 2235SOL     OW 8985   0.655   3.847   3.832  0.1826  0.0489 -0.0467
 2235SOL    HW2 8986   0.675   3.853   3.925 -2.4739 -0.3458  0.5808
 2235SOL    HW3 8987   0.714   3.911   3.791  0.8259  0.7880  1.9742
 2235SOL    MW4 8988   0.666   3.857   3.839 -0.0830  0.0942  0.3030
 2236SOL     OW 8989   1.075   4.413   3.816  0.0789  0.3669 -0.1911
 2236SOL    HW2 8990   1.086   4.505   3.840  2.0922  0.0882  0.0059
 2236SOL    HW3 8991   1.093   4.411   3.722  1.6262 -0.0785  0.1093
 2236SOL    MW4 8992   1.079   4.425   3.807  0.5488  0.2718 -0.1254
 2237SOL     OW 8993   3.085   2.091   4.122  0.1384 -0.2162 -0.2191
 2237SOL    HW2 8994   3.172   2.127   4.137  0.2603 -0.1947 -0.9756
 2237SOL    HW3 8995   3.075   2.024   4.189  0.4731  0.2436  0.2942
 2237SOL    MW4 8996   3.095   2.087   4.133  0.1986 -0.1528 -0.2513
 2238SOL     OW 8997   1.331   0.125   3.814 -0.0295  0.3294 -0.1682
 2238SOL    HW2 8998   1.341   0.214   3.847  1.1096 -0.1644  0.8378
 2238SOL    HW3 8999   1.405   0.077   3.851 -1.4450 -1.3876  0.4995
 2238SOL    MW4 9000   1.342   0.131   3.823 -0.0658  0.0377  0.0527
 2239SOL     OW 9001   1.335   0.387   3.909  0.3000  0.0606 -0.2630
 2239SOL    HW2 9002   1.341   0.385   4.005  1.5788 -1.2208 -0.3517
 2239SOL    HW3 9003   1.419   0.424   3.881  0.0483  0.1475 -0.9059
 2239SOL    MW4 9004   1.347   0.392   3.918  0.4356 -0.0970 -0.3591
 2240SOL     OW 9005   1.593   0.485   3.805  0.1680 -0.2868 -0.2576
 2240SOL    HW2 9006   1.599   0.579   3.824 -0.0948 -0.2838 -0.1894
 2240SOL    HW3 9007   1.596   0.480   3.709 -0.0771 -0.1898 -0.2707
 2240SOL    MW4 9008   1.594   0.497   3.795  0.1009 -0.2736 -0.2503
 2241SOL     OW 9009   1.863   0.868   3.758 -0.2284  0.3850  0.3155
 2241SOL    HW2 9010   1.804   0.810   3.805  1.0861 -0.0599  1.4526
 2241SOL    HW3 9011   1.950   0.834   3.778  0.4174  0.9867 -1.3859
 2241SOL    MW4 9012   1.867   0.855   3.767  0.0303  0.4057  0.2408
 2242SOL     OW 9013   1.619   0.759   3.875 -0.3498 -0.0132  0.0382
 2242SOL    HW2 9014   1.544   0.808   3.842 -0.6031 -0.4940 -0.0959
 2242SOL    HW3 9015   1.606   0.756   3.970 -0.1564  0.4743  0.0812
 2242SOL    MW4 9016   1.607   0.765   3.883 -0.3576 -0.0123  0.0262
 2243SOL     OW 9017   1.405   0.898   3.759  0.7819 -0.0479 -0.3884
 2243SOL    HW2 9018   1.398   0.991   3.781  0.2421 -0.1574 -0.0843
 2243SOL    HW3 9019   1.321   0.860   3.787  0.2891 -0.3000 -2.1307
 2243SOL    MW4 9020   1.393   0.905   3.766  0.6458 -0.0956 -0.5779
 2244SOL     OW 9021   0.038   1.622   4.593  0.5544 -0.1166 -0.0536
 2244SOL    HW2 9022  -0.026   1.580   4.651  0.6158 -0.1437 -0.0053
 2244SOL    HW3 9023   0.099   1.666   4.652  0.6231 -0.1537 -0.0975
 2244SOL    MW4 9024   0.038   1.622   4.608  0.5715 -0.1251 -0.0534
 2245SOL     OW 9025   1.416   0.703   4.838  0.5640 -0.4231 -0.1034
 2245SOL    HW2 9026   1.335   0.742   4.806  0.4485  0.0514  0.7578
 2245SOL    HW3 9027   1.485   0.744   4.786  0.3572  0.1281  0.0587
 2245SOL    MW4 9028   1.415   0.714   4.827  0.5215 -0.2877  0.0315
 2246SOL     OW 9029   3.838   3.864   3.889 -0.3346 -0.0529 -0.2972
 2246SOL    HW2 9030   3.755   3.887   3.848  0.4608  0.5320 -1.6197
 2246SOL    HW3 9031   3.850   3.771   3.871 -0.8883 -0.2224  0.2239
 2246SOL    MW4 9032   3.829   3.855   3.881 -0.3026  0.0021 -0.4027
 2247SOL     OW 9033   4.035   0.721   4.491  0.0818 -0.5940  0.7117
 2247SOL    HW2 9034   4.104   0.656   4.501 -0.8852 -1.7391  0.0582
 2247SOL    HW3 9035   4.045   0.778   4.568  0.8957 -1.5388  1.3261
 2247SOL    MW4 9036   4.045   0.720   4.503  0.0620 -0.8697  0.7067
 2248SOL     OW 9037   1.130   1.354   4.280  0.3445  0.1652 -0.7023
 2248SOL    HW2 9038   1.126   1.424   4.215  1.2721 -1.2089 -2.2648
 2248SOL    HW3 9039   1.095   1.394   4.360  0.7765  2.3762 -1.5826
 2248SOL    MW4 9040   1.124   1.369   4.282  0.5238  0.2755 -1.0247
 2249SOL     OW 9041   1.593   2.369   3.885  0.1525  0.0711  0.0917
 2249SOL    HW2 9042   1.588   2.282   3.846  0.3775 -0.3967  1.0759
 2249SOL    HW3 9043   1.681   2.400   3.864  0.3818 -0.3085  0.4859
 2249SOL    MW4 9044   1.604   2.362   3.877  0.2126 -0.0408  0.2735
 2250SOL     OW 9045   1.378   2.438   3.746 -0.0045  0.3104 -0.3127
 2250SOL    HW2 9046   1.457   2.418   3.795  0.3752  2.2829 -0.0625
 2250SOL    HW3 9047   1.309   2.389   3.791  0.4994  1.3345  1.6466
 2250SOL    MW4 9048   1.379   2.429   3.758  0.1122  0.7055 -0.0212
 2251SOL     OW 9049   1.388   2.709   3.778  0.1068 -0.0867  0.2156
 2251SOL    HW2 9050   1.387   2.726   3.873 -0.8894  1.3381 -0.0332
 2251SOL    HW3 9051   1.377   2.614   3.771  0.3895 -0.2380  1.5331
 2251SOL    MW4 9052   1.386   2.699   3.790  0.0125  0.0811  0.3567
 2252SOL     OW 9053   1.622   2.842   3.715 -0.4021 -0.3640  0.0112
 2252SOL    HW2 9054   1.545   2.790   3.741 -1.4941  0.8721 -0.7010
 2252SOL    HW3 9055   1.622   2.838   3.620 -0.7996  1.3587 -0.0685
 2252SOL    MW4 9056   1.612   2.834   3.706 -0.5985  0.0262 -0.0932
 2253SOL     OW 9057   1.580   2.852   4.220  0.8981  0.4678 -0.4043
 2253SOL    HW2 9058   1.577   2.867   4.314 -2.2442 -1.4550 -0.1234
 2253SOL    HW3 9059   1.668   2.818   4.203  1.2237  0.0902  1.9576
 2253SOL    MW4 9060   1.591   2.849   4.230  0.5265  0.1643 -0.0563
 2254SOL     OW 9061   1.387   3.270   3.706 -0.5216  0.1978 -0.3311
 2254SOL    HW2 9062   1.365   3.353   3.748  1.1888  1.6691 -2.2254
 2254SOL    HW3 9063   1.465   3.240   3.753 -1.1598 -0.3793  0.3765
 2254SOL    MW4 9064   1.395   3.277   3.718 -0.3800  0.3159 -0.4880
 2255SOL     OW 9065   1.307   3.495   3.841  0.5327 -0.3560 -0.0396
 2255SOL    HW2 9066   1.329   3.517   3.932 -0.1116  0.4048 -0.0621
 2255SOL    HW3 9067   1.228   3.546   3.823  0.5621 -0.6403 -0.9741
 2255SOL    MW4 9068   1.299   3.505   3.851  0.4517 -0.2933 -0.1657
 2256SOL     OW 9069   1.557   3.872   3.867  0.2362 -0.2364 -0.4597
 2256SOL    HW2 9070   1.475   3.908   3.831  0.0787 -0.4793 -0.3471
 2256SOL    HW3 9071   1.567   3.788   3.823  0.0529 -0.5280  0.0514
 2256SOL    MW4 9072   1.547   3.866   3.857  0.1912 -0.3066 -0.3774
 2257SOL     OW 9073   0.222   4.625   3.936  0.0469  0.4914 -0.1121
 2257SOL    HW2 9074   0.232   4.644   4.029  0.1041  0.8169 -0.1810
 2257SOL    HW3 9075   0.149   4.679   3.908 -0.7261 -0.4959 -0.0113
 2257SOL    MW4 9076   0.214   4.635   3.944 -0.0475  0.4044 -0.1078
 2258SOL     OW 9077   1.093   3.876   3.893 -0.5797 -0.5205  0.5050
 2258SOL    HW2 9078   1.082   3.903   3.984 -0.4677 -1.3928  0.7740
 2258SOL    HW3 9079   1.176   3.915   3.866 -1.1663  0.7165  0.4100
 2258SOL    MW4 9080   1.102   3.885   3.901 -0.6423 -0.4725  0.5281
 2259SOL     OW 9081   1.329   4.004   3.799 -0.4317 -0.2984  0.3801
 2259SOL    HW2 9082   1.342   4.096   3.824  0.5504 -0.3066 -0.0591
 2259SOL    HW3 9083   1.326   4.006   3.703 -1.0236 -0.6550  0.3898
 2259SOL    MW4 9084   1.331   4.017   3.790 -0.3802 -0.3462  0.3235
 2260SOL     OW 9085   1.343   4.288   3.862 -0.2171  0.5205 -0.2179
 2260SOL    HW2 9086   1.425   4.335   3.847  0.0140  0.4814  0.8997
 2260SOL    HW3 9087   1.277   4.341   3.818  0.5487 -0.0149 -2.0447
 2260SOL    MW4 9088   1.345   4.301   3.854 -0.0855  0.4454 -0.3111
 2261SOL     OW 9089   2.272   0.067   3.825 -0.1583 -0.1499  0.8556
 2261SOL    HW2 9090   2.273   0.063   3.730 -0.8180 -1.2819  0.8868
 2261SOL    HW3 9091   2.356   0.028   3.852  0.7283  1.6003  0.7142
 2261SOL    MW4 9092   2.283   0.061   3.816 -0.1283 -0.0683  0.8411
 2262SOL     OW 9093   3.755   1.677   4.585  0.3495 -0.2134 -0.6453
 2262SOL    HW2 9094   3.694   1.668   4.658  0.6319 -0.4127 -0.4334
 2262SOL    HW3 9095   3.705   1.650   4.508  0.3484 -0.9147 -0.3971
 2262SOL    MW4 9096   3.740   1.673   4.584  0.3867 -0.3325 -0.5841
 2263SOL     OW 9097   0.567   3.719   4.522 -0.5288 -0.7038 -0.1912
 2263SOL    HW2 9098   0.479   3.685   4.535 -1.4282  1.8992  0.9089
 2263SOL    HW3 9099   0.579   3.719   4.427 -0.2391 -4.5501 -0.2095
 2263SOL    MW4 9100   0.557   3.715   4.511 -0.6093 -0.8674 -0.0486
 2264SOL     OW 9101   1.818   0.374   3.940  0.3651 -0.0807  0.7210
 2264SOL    HW2 9102   1.887   0.412   3.886  0.0051 -0.7411 -0.2249
 2264SOL    HW3 9103   1.738   0.420   3.913  0.2920  0.0745  1.1906
 2264SOL    MW4 9104   1.816   0.385   3.929  0.3079 -0.1474  0.6580
 2265SOL     OW 9105   1.779   3.156   4.495 -0.5114  0.0038 -0.1748
 2265SOL    HW2 9106   1.784   3.183   4.403 -1.0686  0.9257  0.0530
 2265SOL    HW3 9107   1.713   3.215   4.533 -1.2049 -1.2084  0.5163
 2265SOL    MW4 9108   1.771   3.168   4.488 -0.6764 -0.0346 -0.0539
 2266SOL     OW 9109   2.508   2.336   4.117  0.2018 -0.2508 -0.0697
 2266SOL    HW2 9110   2.557   2.419   4.114 -0.6934  0.2647 -0.6576
 2266SOL    HW3 9111   2.566   2.276   4.163  0.6990  0.8212  0.7379
 2266SOL    MW4 9112   2.522   2.339   4.123  0.1495 -0.0415 -0.0410
 2267SOL     OW 9113   1.707   3.442   4.600  0.2276  0.0855 -0.2150
 2267SOL    HW2 9114   1.628   3.432   4.653 -0.2203  0.6658 -0.7648
 2267SOL    HW3 9115   1.675   3.456   4.511  0.9210  1.6189 -0.2308
 2267SOL    MW4 9116   1.692   3.442   4.595  0.2600  0.3641 -0.2894
 2268SOL     OW 9117   1.577   1.515   3.878 -0.1652  0.4936 -0.1546
 2268SOL    HW2 9118   1.662   1.554   3.855  0.0813 -0.2305 -0.4950
 2268SOL    HW3 9119   1.513   1.574   3.840  0.1362  1.9444  1.5021
 2268SOL    MW4 9120   1.580   1.528   3.870 -0.0931  0.5895  0.0191
 2269SOL     OW 9121   0.643   2.349   4.075  0.1812  0.4235  0.0692
 2269SOL    HW2 9122   0.661   2.260   4.106  0.4685  0.6467  0.5483
 2269SOL    HW3 9123   0.661   2.346   3.982 -0.4220 -0.1869 -0.0375
 2269SOL    MW4 9124   0.648   2.337   4.067  0.1395  0.3722  0.1187
 2270SOL     OW 9125   1.804   1.654   3.814  0.5124  0.0174 -0.0793
 2270SOL    HW2 9126   1.801   1.749   3.829  2.6309  0.1271 -0.1577
 2270SOL    HW3 9127   1.802   1.645   3.718  1.2719  0.0384 -0.0996
 2270SOL    MW4 9128   1.803   1.666   3.803  0.8919  0.0346 -0.0925
 2271SOL     OW 9129   0.882   2.714   4.229  0.4858  0.1650 -0.0268
 2271SOL    HW2 9130   0.918   2.726   4.317  1.8153 -1.0416 -0.3817
 2271SOL    HW3 9131   0.951   2.746   4.171  0.7087 -1.5055 -0.7006
 2271SOL    MW4 9132   0.896   2.720   4.233  0.6906 -0.2146 -0.1631
 2272SOL     OW 9133   2.050   1.990   3.799 -0.5146  0.0329 -0.0673
 2272SOL    HW2 9134   2.057   2.085   3.795  0.1490 -0.0113 -0.1308
 2272SOL    HW3 9135   2.045   1.963   3.707  0.5855 -0.0681 -0.1134
 2272SOL    MW4 9136   2.050   1.999   3.786 -0.2816  0.0136 -0.0818
 2273SOL     OW 9137   2.043   2.272   3.834 -0.1935  0.2029  0.0903
 2273SOL    HW2 9138   1.977   2.326   3.791  0.3602  0.5504 -0.3413
 2273SOL    HW3 9139   2.035   2.294   3.927 -0.2790  0.6971 -0.0304
 2273SOL    MW4 9140   2.033   2.282   3.840 -0.1316  0.3138  0.0174
 2274SOL     OW 9141   1.851   2.452   3.740 -0.5602 -0.2531  0.6589
 2274SOL    HW2 9142   1.843   2.463   3.645 -1.0181 -0.0950  0.7154
 2274SOL    HW3 9143   1.858   2.542   3.774  1.0196 -0.3482  0.6567
 2274SOL    MW4 9144   1.851   2.465   3.732 -0.4122 -0.2449  0.6659
 2275SOL     OW 9145   2.065   2.844   3.783 -0.3479  0.2952  0.2878
 2275SOL    HW2 9146   2.071   2.925   3.833 -1.9978 -0.7749  2.3113
 2275SOL    HW3 9147   2.131   2.787   3.822  1.3299  0.8905 -1.6256
 2275SOL    MW4 9148   2.074   2.847   3.795 -0.3440  0.2327  0.3023
 2276SOL     OW 9149   1.826   2.711   3.850 -0.6817 -0.2930 -0.2444
 2276SOL    HW2 9150   1.902   2.764   3.824 -0.2374 -1.2243 -0.8816
 2276SOL    HW3 9151   1.752   2.754   3.808 -0.3013 -0.2884 -0.9207
 2276SOL    MW4 9152   1.827   2.724   3.841 -0.5729 -0.4153 -0.4177
 2277SOL     OW 9153   1.001   3.356   4.690 -0.1908 -0.3277  0.4786
 2277SOL    HW2 9154   0.964   3.270   4.711 -0.8881 -0.4841 -1.3514
 2277SOL    HW3 9155   0.925   3.412   4.673  0.3342  0.0514 -0.6327
 2277SOL    MW4 9156   0.986   3.352   4.691 -0.2136 -0.2980  0.0901
 2278SOL     OW 9157   1.847   3.201   3.758 -0.0505 -0.1263 -0.4187
 2278SOL    HW2 9158   1.823   3.286   3.796 -0.2954 -0.5222  0.3348
 2278SOL    HW3 9159   1.767   3.148   3.766 -0.2253 -0.0983 -1.8485
 2278SOL    MW4 9160   1.833   3.205   3.764 -0.1060 -0.1750 -0.5081
 2279SOL     OW 9161   1.563   3.625   3.752  0.6184  0.2115 -0.1670
 2279SOL    HW2 9162   1.484   3.586   3.790  0.1939  0.4539 -0.8104
 2279SOL    HW3 9163   1.635   3.575   3.792  0.0799 -1.3291 -1.0705
 2279SOL    MW4 9164   1.562   3.613   3.763  0.4913  0.0401 -0.3712
 2280SOL     OW 9165   2.229   3.477   3.866 -0.2046 -0.3687  0.3146
 2280SOL    HW2 9166   2.156   3.535   3.845  0.2516  0.7028  1.6107
 2280SOL    HW3 9167   2.308   3.527   3.845  0.1784 -0.8471  0.5932
 2280SOL    MW4 9168   2.230   3.491   3.861 -0.0939 -0.2904  0.5224
 2281SOL     OW 9169   1.968   3.865   3.898  0.1982 -0.6466 -0.3145
 2281SOL    HW2 9170   1.984   3.868   3.992 -1.0445 -0.1654 -0.0992
 2281SOL    HW3 9171   2.044   3.907   3.859  0.5794 -0.5737  0.4947
 2281SOL    MW4 9172   1.980   3.871   3.905  0.0845 -0.5734 -0.1793
 2282SOL     OW 9173   0.975   1.173   4.139 -0.1704  0.6830  0.5739
 2282SOL    HW2 9174   0.986   1.080   4.161 -1.6823  0.2740 -0.2675
 2282SOL    HW3 9175   1.048   1.217   4.182  1.5105 -1.0965 -0.3797
 2282SOL    MW4 9176   0.986   1.167   4.148 -0.1482  0.3945  0.3366
 2283SOL     OW 9177   1.786   4.240   3.935 -0.0931  0.8324  0.4015
 2283SOL    HW2 9178   1.861   4.281   3.893 -0.0761  0.7713  0.3723
 2283SOL    HW3 9179   1.768   4.162   3.883  0.8645 -0.0598  1.3736
 2283SOL    MW4 9180   1.793   4.235   3.923  0.0355  0.7067  0.5260
 2284SOL     OW 9181   1.985   4.377   3.781 -0.2982 -0.0336 -0.3095
 2284SOL    HW2 9182   2.072   4.339   3.798  0.1050  0.9207 -0.2153
 2284SOL    HW3 9183   1.984   4.391   3.686 -1.2210 -2.1300 -0.6370
 2284SOL    MW4 9184   1.996   4.374   3.771 -0.3668 -0.1841 -0.3407
 2285SOL     OW 9185   2.500   4.603   3.917  0.0302 -0.0478 -0.1947
 2285SOL    HW2 9186   2.490   4.626   4.009  3.3425 -2.8191  0.9204
 2285SOL    HW3 9187   2.573   4.657   3.886  1.4643 -1.9022 -0.1278
 2285SOL    MW4 9188   2.508   4.613   3.925  0.6564 -0.6576 -0.0386
 2286SOL     OW 9189   2.010   4.643   3.865 -0.6105  0.2900 -0.1186
 2286SOL    HW2 9190   2.094   4.679   3.838 -0.4692 -0.1051 -0.2155
 2286SOL    HW3 9191   2.009   4.555   3.828 -0.1379 -0.4966  1.6628
 2286SOL    MW4 9192   2.021   4.636   3.857 -0.5293  0.1345  0.1037
 2287SOL     OW 9193   1.017   1.456   4.513  0.0507 -0.3172 -0.1855
 2287SOL    HW2 9194   1.097   1.481   4.559 -1.3884  0.9611  1.7027
 2287SOL    HW3 9195   0.985   1.378   4.559 -1.6466  1.2403  1.4011
 2287SOL    MW4 9196   1.023   1.449   4.525 -0.3630  0.0570  0.2728
 2288SOL     OW 9197   2.246   0.350   3.847  0.1252  0.5038 -0.4300
 2288SOL    HW2 9198   2.279   0.261   3.851 -2.2546 -0.3687  0.3859
 2288SOL    HW3 9199   2.324   0.404   3.831  1.4320 -1.7942 -2.0019
 2288SOL    MW4 9200   2.260   0.345   3.846 -0.0165  0.0855 -0.5298
 2289SOL     OW 9201   2.291   0.875   3.775  0.3803 -0.2962 -0.7428
 2289SOL    HW2 9202   2.229   0.805   3.797 -1.2300  1.2252 -0.3047
 2289SOL    HW3 9203   2.274   0.893   3.682  0.2262  0.0811 -0.6392
 2289SOL    MW4 9204   2.280   0.868   3.765  0.1476 -0.0457 -0.6714
 2290SOL     OW 9205   0.011   4.505   4.632 -0.4729  0.1655 -0.1697
 2290SOL    HW2 9206   0.090   4.451   4.640 -1.4082 -1.3744 -1.1024
 2290SOL    HW3 9207  -0.060   4.442   4.617 -1.6576  1.6314 -0.8367
 2290SOL    MW4 9208   0.012   4.489   4.631 -0.7526  0.1559 -0.3805
 2291SOL     OW 9209   2.508   1.508   3.859  0.2136  0.9669  0.1497
 2291SOL    HW2 9210   2.452   1.583   3.839 -0.0683  0.9804  0.9597
 2291SOL    HW3 9211   2.493   1.491   3.953 -2.0416 -1.9711 -0.6485
 2291SOL    MW4 9212   2.498   1.515   3.869 -0.1211  0.5809  0.1514
 2292SOL     OW 9213   2.302   1.140   3.866  0.0677 -0.2457 -0.1727
 2292SOL    HW2 9214   2.302   1.045   3.852  3.4310 -0.4612  0.8674
 2292SOL    HW3 9215   2.387   1.169   3.834  0.3259  1.9707  2.3449
 2292SOL    MW4 9216   2.313   1.131   3.860  0.5457  0.0182  0.2968
 2293SOL     OW 9217   0.206   4.275   4.568 -0.2877 -0.1359 -0.5498
 2293SOL    HW2 9218   0.251   4.224   4.635 -1.1194 -1.3385 -0.8791
 2293SOL    HW3 9219   0.129   4.223   4.546 -1.4224  1.5033 -0.5598
 2293SOL    MW4 9220   0.202   4.261   4.574 -0.5471 -0.0777 -0.5941
 2294SOL     OW 9221   2.300   1.943   3.884  0.0850 -0.2597 -0.1836
 2294SOL    HW2 9222   2.308   1.951   3.979  0.0779  0.0268 -0.2048
 2294SOL    HW3 9223   2.209   1.966   3.865  0.4710  1.1801 -0.4006
 2294SOL    MW4 9224   2.289   1.947   3.894  0.1347 -0.0319 -0.2151
 2295SOL     OW 9225   2.765   0.907   4.520  0.0882 -0.0004  0.2202
 2295SOL    HW2 9226   2.841   0.868   4.564  0.5625  0.1817 -0.4345
 2295SOL    HW3 9227   2.694   0.844   4.533  0.3453 -0.1615  0.8526
 2295SOL    MW4 9228   2.766   0.894   4.528  0.1845  0.0024  0.2165
 2296SOL     OW 9229   2.520   2.055   3.767 -0.5150 -0.0201 -0.3418
 2296SOL    HW2 9230   2.453   2.012   3.820  0.4991  0.3273  1.2261
 2296SOL    HW3 9231   2.509   2.148   3.785  0.4606  0.0297 -0.0119
 2296SOL    MW4 9232   2.510   2.061   3.776 -0.2522  0.0322 -0.0913
 2297SOL     OW 9233   2.501   2.319   3.827 -0.3548 -0.3307  0.0645
 2297SOL    HW2 9234   2.496   2.314   3.922 -0.2971  1.5680  0.1886
 2297SOL    HW3 9235   2.584   2.365   3.810 -0.5373 -0.3384 -0.8817
 2297SOL    MW4 9236   2.512   2.325   3.837 -0.3712 -0.0811 -0.0439
 2298SOL     OW 9237   2.148   4.048   4.309  0.3291  0.1146  0.1635
 2298SOL    HW2 9238   2.229   4.015   4.349 -0.4135 -0.9138  0.8738
 2298SOL    HW3 9239   2.128   3.984   4.241 -0.9376 -0.7366  1.3145
 2298SOL    MW4 9240   2.156   4.035   4.305  0.0641 -0.1335  0.4096
 2299SOL     OW 9241   2.013   0.134   4.852 -0.1303  0.5432 -0.0655
 2299SOL    HW2 9242   1.953   0.066   4.822 -0.5795  1.0273 -0.2627
 2299SOL    HW3 9243   2.002   0.206   4.790  1.6072  0.1412 -0.8671
 2299SOL    MW4 9244   2.003   0.135   4.840  0.0393  0.5540 -0.1974
 2300SOL     OW 9245   2.504   2.822   3.759 -0.6128 -0.1805 -0.1623
 2300SOL    HW2 9246   2.424   2.776   3.786  0.1817 -1.3176  0.2928
 2300SOL    HW3 9247   2.500   2.822   3.663  0.5536 -3.4051 -0.2853
 2300SOL    MW4 9248   2.493   2.816   3.750 -0.3541 -0.7558 -0.1183
 2301SOL     OW 9249   2.515   3.093   3.880 -0.7811  0.2527 -0.0023
 2301SOL    HW2 9250   2.526   3.082   3.974 -1.3131  0.4147  0.0800
 2301SOL    HW3 9251   2.524   3.005   3.844 -1.2244  0.0963  0.2654
 2301SOL    MW4 9252   2.518   3.080   3.888 -0.9096  0.2534  0.0441
 2302SOL     OW 9253   2.291   3.227   3.776 -0.3330 -0.9146  0.0830
 2302SOL    HW2 9254   2.297   3.308   3.826 -0.5463 -1.3279  0.7883
 2302SOL    HW3 9255   2.357   3.170   3.814 -1.3016 -1.6551  0.6992
 2302SOL    MW4 9256   2.300   3.230   3.787 -0.4890 -1.0664  0.2573
 2303SOL     OW 9257   4.279   4.392   4.250  0.4558 -0.1310 -0.3139
 2303SOL    HW2 9258   4.356   4.347   4.215 -0.4151 -0.9329 -1.2239
 2303SOL    HW3 9259   4.287   4.381   4.345  0.5831 -1.6876 -0.4845
 2303SOL    MW4 9260   4.291   4.384   4.258  0.3576 -0.4420 -0.4568
 2304SOL     OW 9261   2.487   3.611   3.790 -0.1087  0.3122 -0.2207
 2304SOL    HW2 9262   2.566   3.559   3.806  1.1009  2.2167  0.1594
 2304SOL    HW3 9263   2.488   3.628   3.696 -1.3321 -1.5911 -0.6152
 2304SOL    MW4 9264   2.497   3.606   3.780 -0.1104  0.3123 -0.2224
 2305SOL     OW 9265   2.472   3.861   3.937  0.0627  0.4878 -0.1181
 2305SOL    HW2 9266   2.548   3.911   3.905  0.3121 -0.2621 -0.7250
 2305SOL    HW3 9267   2.479   3.776   3.892 -0.0185 -0.3108  1.3546
 2305SOL    MW4 9268   2.483   3.856   3.927  0.0849  0.2835 -0.0036
 2306SOL     OW 9269   2.215   3.978   3.808 -0.3243  0.0548  0.0141
 2306SOL    HW2 9270   2.290   3.951   3.860 -0.6478  1.5127  1.2780
 2306SOL    HW3 9271   2.248   3.983   3.719  0.6170 -1.0365  0.2943
 2306SOL    MW4 9272   2.229   3.975   3.803 -0.2427  0.1032  0.2177
 2307SOL     OW 9273   2.204   4.243   3.885 -0.0994 -0.3294  0.5289
 2307SOL    HW2 9274   2.185   4.248   3.979  0.9228 -1.7314  0.8380
 2307SOL    HW3 9275   2.205   4.149   3.866 -0.0562 -0.0682 -0.8325
 2307SOL    MW4 9276   2.202   4.231   3.895  0.0410 -0.4802  0.3901
 2308SOL     OW 9277   2.439   4.357   3.806 -0.9607 -0.0805 -0.3031
 2308SOL    HW2 9278   2.365   4.307   3.840 -1.0920  0.5001  0.2738
 2308SOL    HW3 9279   2.431   4.443   3.846 -0.6164  0.3455 -1.1226
 2308SOL    MW4 9280   2.429   4.362   3.815 -0.9327  0.0520 -0.3352
 2309SOL     OW 9281   2.895   4.641   3.935  0.1310 -0.2513  0.1668
 2309SOL    HW2 9282   2.831   4.694   3.888 -0.0746  0.5248  1.3037
 2309SOL    HW3 9283   2.980   4.672   3.903 -0.0156  0.1604  0.1725
 2309SOL    MW4 9284   2.898   4.653   3.925  0.0846 -0.0944  0.3176
 2310SOL     OW 9285   2.697   0.100   3.804  0.1822  0.3693 -0.0589
 2310SOL    HW2 9286   2.731   0.084   3.716  1.2391  1.2796  0.1790
 2310SOL    HW3 9287   2.721   0.190   3.824 -0.0264  0.1641  1.1726
 2310SOL    MW4 9288   2.705   0.110   3.795  0.2940  0.4623  0.1349
 2311SOL     OW 9289   2.737   0.354   3.866 -0.2666  0.5797 -0.1385
 2311SOL    HW2 9290   2.649   0.375   3.837 -1.0550 -0.9037  1.1204
 2311SOL    HW3 9291   2.730   0.345   3.961  1.0778 -0.3171 -0.1034
 2311SOL    MW4 9292   2.725   0.356   3.875 -0.1934  0.2657  0.0319
 2312SOL     OW 9293   2.977   0.518   3.792  0.0501 -0.3777  0.0782
 2312SOL    HW2 9294   3.049   0.467   3.827 -0.1706  0.2243  1.4457
 2312SOL    HW3 9295   2.898   0.472   3.820 -0.1205 -1.1741 -1.6251
 2312SOL    MW4 9296   2.976   0.505   3.800 -0.0017 -0.4033  0.0339
 2313SOL     OW 9297   3.155   0.928   3.796 -0.1601  0.1414  0.2129
 2313SOL    HW2 9298   3.143   0.922   3.701 -1.3674 -2.1649  0.4714
 2313SOL    HW3 9299   3.229   0.871   3.814 -0.6725 -0.3480  0.7886
 2313SOL    MW4 9300   3.163   0.920   3.785 -0.3870 -0.2275  0.3231
 2314SOL     OW 9301   2.731   0.874   3.771 -0.3256  0.3787  0.3898
 2314SOL    HW2 9302   2.797   0.832   3.826 -1.5867  0.2803  1.8529
 2314SOL    HW3 9303   2.652   0.823   3.784 -0.6378  0.3094 -1.5925
 2314SOL    MW4 9304   2.729   0.862   3.780 -0.5331  0.3567  0.3216
 2315SOL     OW 9305   2.090   0.702   3.870  0.5050 -0.0388  0.1545
 2315SOL    HW2 9306   2.058   0.709   3.960 -1.1890  0.3409 -0.4627
 2315SOL    HW3 9307   2.075   0.611   3.846  0.3632  0.0149  0.0393
 2315SOL    MW4 9308   2.084   0.691   3.879  0.2627  0.0184  0.0579
 2316SOL     OW 9309   0.008   0.080   4.335 -0.0673 -0.1483  0.5737
 2316SOL    HW2 9310  -0.077   0.037   4.326 -0.7905  1.2680  0.6327
 2316SOL    HW3 9311   0.019   0.091   4.430  0.4239 -0.7876  0.5983
 2316SOL    MW4 9312  -0.002   0.075   4.346 -0.0973 -0.0458  0.5851
 2317SOL     OW 9313   2.866   0.149   4.638 -0.6353 -0.0562  0.1273
 2317SOL    HW2 9314   2.773   0.144   4.613 -0.1272  0.4518 -1.9938
 2317SOL    HW3 9315   2.896   0.232   4.602  0.2230  0.6585  2.4051
 2317SOL    MW4 9316   2.857   0.159   4.630 -0.4549  0.1051  0.1478
 2318SOL     OW 9317   2.730   1.949   3.919 -0.5966  0.1820 -0.1611
 2318SOL    HW2 9318   2.658   1.986   3.868  0.4558  1.3458 -0.8246
 2318SOL    HW3 9319   2.736   1.858   3.890 -2.7686 -0.3647  0.9898
 2318SOL    MW4 9320   2.721   1.942   3.908 -0.7443  0.2635 -0.0970
 2319SOL     OW 9321   2.728   1.673   3.807 -0.0557 -0.1435  0.2617
 2319SOL    HW2 9322   2.722   1.681   3.712 -1.1806  2.0341  0.4920
 2319SOL    HW3 9323   2.654   1.618   3.831 -0.9932  1.0196  0.0668
 2319SOL    MW4 9324   2.718   1.667   3.798 -0.3278  0.2973  0.2663
 2320SOL     OW 9325   2.938   2.082   3.789 -0.1292  0.4009 -0.4037
 2320SOL    HW2 9326   3.015   2.034   3.819  0.2005  1.4371  0.4692
 2320SOL    HW3 9327   2.865   2.040   3.832  0.2023  0.9611  0.7182
 2320SOL    MW4 9328   2.939   2.070   3.798 -0.0415  0.6113 -0.1404
 2321SOL     OW 9329   4.226   3.071   4.119 -0.3295 -0.3854  0.1006
 2321SOL    HW2 9330   4.240   3.084   4.025  0.7911 -0.1929  0.2895
 2321SOL    HW3 9331   4.154   3.008   4.124 -1.0659  0.3631 -0.8768
 2321SOL    MW4 9332   4.218   3.064   4.107 -0.2789 -0.2615 -0.0033
 2322SOL     OW 9333   2.737   2.455   3.743 -0.3470  0.2371  0.2013
 2322SOL    HW2 9334   2.711   2.537   3.784 -2.4115 -0.6038  0.6682
 2322SOL    HW3 9335   2.806   2.419   3.799  0.3265  1.4818  0.1709
 2322SOL    MW4 9336   2.742   2.461   3.755 -0.5302  0.2906  0.2592
 2323SOL     OW 9337   2.768   1.920   4.204 -0.5310  0.3880 -0.0387
 2323SOL    HW2 9338   2.756   1.944   4.112  1.4447  0.9289 -0.1720
 2323SOL    HW3 9339   2.778   1.825   4.203  2.4145  0.6806 -0.7337
 2323SOL    MW4 9340   2.768   1.911   4.192  0.1183  0.4979 -0.1473
 2324SOL     OW 9341   2.693   2.698   3.898 -0.0000  0.7836  0.4485
 2324SOL    HW2 9342   2.617   2.747   3.865 -0.2175  1.3072  1.7194
 2324SOL    HW3 9343   2.768   2.750   3.870 -0.0887  0.2035 -0.9158
 2324SOL    MW4 9344   2.693   2.711   3.890 -0.0405  0.7761  0.4363
 2325SOL     OW 9345   2.891   3.096   3.903 -0.0965  0.2609 -0.1395
 2325SOL    HW2 9346   2.830   3.138   3.842  0.4102 -1.8136 -2.1790
 2325SOL    HW3 9347   2.977   3.120   3.869  0.2076  0.2953  0.6544
 2325SOL    MW4 9348   2.894   3.105   3.890  0.0105 -0.0081 -0.3040
 2326SOL     OW 9349   2.704   3.256   3.762 -0.3010  0.0243  0.3478
 2326SOL    HW2 9350   2.709   3.322   3.832  0.4234 -0.1264  0.4425
 2326SOL    HW3 9351   2.637   3.194   3.793 -1.5038  1.0872 -0.0738
 2326SOL    MW4 9352   2.696   3.257   3.776 -0.3641  0.1447  0.3049
 2327SOL     OW 9353   2.721   3.517   3.940  0.1417  0.3909 -0.3557
 2327SOL    HW2 9354   2.793   3.557   3.892  0.2697  0.1608 -0.3563
 2327SOL    HW3 9355   2.741   3.534   4.032  0.4272 -0.0540 -0.3328
 2327SOL    MW4 9356   2.733   3.524   3.946  0.1962  0.3016 -0.3526
 2328SOL     OW 9357   2.933   3.623   3.812  0.0492 -0.2223 -0.3028
 2328SOL    HW2 9358   2.996   3.553   3.827  3.3949  2.5845 -0.6108
 2328SOL    HW3 9359   2.924   3.627   3.717  0.8638  0.6109 -0.3449
 2328SOL    MW4 9360   2.940   3.614   3.801  0.5982  0.2580 -0.3490
 2329SOL     OW 9361   2.902   3.883   3.942  0.3457  0.3349  0.2935
 2329SOL    HW2 9362   2.896   3.884   4.037 -0.5514 -0.3604  0.2469
 2329SOL    HW3 9363   2.921   3.792   3.920  0.6261  0.5081 -0.1916
 2329SOL    MW4 9364   2.904   3.871   3.951  0.2642  0.2658  0.2234
 2330SOL     OW 9365   2.697   4.002   3.811 -0.1612 -0.2885  0.3245
 2330SOL    HW2 9366   2.683   4.090   3.847  2.0416  0.5341 -0.7777
 2330SOL    HW3 9367   2.768   3.965   3.864  0.4316 -0.5665 -0.6624
 2330SOL    MW4 9368   2.704   4.009   3.823  0.2077 -0.2165  0.0489
 2331SOL     OW 9369   2.672   4.261   3.920 -0.5794 -0.5585 -0.2701
 2331SOL    HW2 9370   2.741   4.312   3.878  0.6289 -0.6623  1.5131
 2331SOL    HW3 9371   2.591   4.288   3.877  0.5627 -0.3078 -2.2797
 2331SOL    MW4 9372   2.671   4.271   3.909 -0.2692 -0.5393 -0.2999
 2332SOL     OW 9373   2.897   4.401   3.798  0.3379  0.6704 -0.2915
 2332SOL    HW2 9374   2.977   4.357   3.828 -0.0964 -0.5503 -0.8757
 2332SOL    HW3 9375   2.894   4.482   3.848  1.6912  0.5013  0.0924
 2332SOL    MW4 9376   2.907   4.406   3.808  0.4592  0.4869 -0.3178
 2333SOL     OW 9377   3.397   4.627   3.897  0.3795 -0.2708  0.0408
 2333SOL    HW2 9378   3.408   4.636   3.992 -1.6194  0.8834  0.1813
 2333SOL    HW3 9379   3.465   4.683   3.860 -1.2425  2.3606  0.8553
 2333SOL    MW4 9380   3.407   4.636   3.905 -0.0982  0.2289  0.1669
 2334SOL     OW 9381   3.133   4.272   3.878 -0.3815  0.1025  0.0317
 2334SOL    HW2 9382   3.213   4.322   3.863 -0.9449  0.8946 -0.3571
 2334SOL    HW3 9383   3.122   4.273   3.973 -0.6136  1.0682 -0.0039
 2334SOL    MW4 9384   3.142   4.279   3.888 -0.4864  0.3343 -0.0243
 2335SOL     OW 9385   3.152   0.064   3.820 -0.1013 -0.4710  0.1523
 2335SOL    HW2 9386   3.235   0.025   3.850 -0.1360 -0.9407 -0.3527
 2335SOL    HW3 9387   3.136   0.023   3.735 -1.2422 -0.9613  0.5879
 2335SOL    MW4 9388   3.161   0.053   3.813 -0.2563 -0.5977  0.1431
 2336SOL     OW 9389   3.396   0.500   3.767 -1.0071 -0.1569 -0.6228
 2336SOL    HW2 9390   3.485   0.474   3.793 -0.0252  1.3848 -2.3559
 2336SOL    HW3 9391   3.339   0.435   3.810  1.0410 -2.1385 -0.7842
 2336SOL    MW4 9392   3.400   0.488   3.776 -0.6075 -0.2149 -0.8729
 2337SOL     OW 9393   3.370   0.769   3.855 -0.2955 -0.0264  0.6754
 2337SOL    HW2 9394   3.368   0.769   3.951 -0.0428 -1.3082  0.6807
 2337SOL    HW3 9395   3.386   0.678   3.831 -0.5178  0.2644 -0.5951
 2337SOL    MW4 9396   3.372   0.757   3.864 -0.2913 -0.1572  0.5085
 2338SOL     OW 9397   3.364   1.286   3.808 -0.1778 -0.0100  0.1626
 2338SOL    HW2 9398   3.281   1.250   3.838  0.5328 -0.9576  1.0389
 2338SOL    HW3 9399   3.365   1.270   3.713  0.1771 -2.4451  0.5492
 2338SOL    MW4 9400   3.353   1.279   3.799 -0.0372 -0.4563  0.3293
 2339SOL     OW 9401   2.948   1.295   3.744  0.1536  0.2795  0.0576
 2339SOL    HW2 9402   2.935   1.372   3.799 -0.2201  1.3504 -1.5070
 2339SOL    HW3 9403   2.868   1.244   3.754 -0.6498  1.3388 -0.8403
 2339SOL    MW4 9404   2.936   1.298   3.752 -0.0019  0.5604 -0.2675
 2340SOL     OW 9405   0.447   1.694   4.264 -0.5926 -0.0395 -0.1485
 2340SOL    HW2 9406   0.380   1.642   4.220 -0.0164 -1.6724  0.8749
 2340SOL    HW3 9407   0.528   1.645   4.251 -0.2641 -0.0647  1.9508
 2340SOL    MW4 9408   0.449   1.681   4.256 -0.4732 -0.2583  0.2637
 2341SOL     OW 9409   3.382   1.525   3.931  0.1039  0.4646  0.3192
 2341SOL    HW2 9410   3.309   1.578   3.897  0.8511  0.2342 -1.7074
 2341SOL    HW3 9411   3.371   1.440   3.889 -0.4463 -0.6844  2.7061
 2341SOL    MW4 9412   3.371   1.521   3.921  0.1302  0.2826  0.3667
 2342SOL     OW 9413   3.865   1.485   4.164 -0.1146  0.0278  0.0641
 2342SOL    HW2 9414   3.869   1.403   4.214 -0.6103  0.3315  0.6163
 2342SOL    HW3 9415   3.910   1.549   4.219 -2.3220  0.8071  1.0388
 2342SOL    MW4 9416   3.871   1.482   4.178 -0.4714  0.1707  0.2651
 2343SOL     OW 9417   3.199   2.423   3.815  0.9247 -0.4936  0.1546
 2343SOL    HW2 9418   3.109   2.400   3.840  0.7843 -1.1837 -0.9220
 2343SOL    HW3 9419   3.200   2.415   3.719  1.6368  1.3498 -0.0095
 2343SOL    MW4 9420   3.187   2.419   3.806  1.0004 -0.3414 -0.0093
 2344SOL     OW 9421   3.140   1.918   3.917  0.0561 -0.2077 -0.2414
 2344SOL    HW2 9422   3.220   1.947   3.872  0.2853  0.9623  0.8902
 2344SOL    HW3 9423   3.131   1.978   3.991  1.5691 -4.1734  3.3147
 2344SOL    MW4 9424   3.149   1.930   3.921  0.2861 -0.5766  0.3772
 2345SOL     OW 9425   3.416   2.298   3.931  0.2884 -0.4735 -0.2643
 2345SOL    HW2 9426   3.385   2.261   4.014 -1.0761 -1.9000 -1.3716
 2345SOL    HW3 9427   3.338   2.336   3.890  1.2512  1.6907 -0.1847
 2345SOL    MW4 9428   3.402   2.298   3.936  0.2356 -0.3760 -0.3998
 2346SOL     OW 9429   3.175   2.650   4.203  0.1034  0.2988 -0.0382
 2346SOL    HW2 9430   3.168   2.564   4.244 -0.8573 -0.1664 -1.1614
 2346SOL    HW3 9431   3.092   2.694   4.224  1.2386  1.5773  1.9090
 2346SOL    MW4 9432   3.163   2.645   4.211  0.1266  0.4058  0.0706
 2347SOL     OW 9433   2.918   2.814   3.801 -0.0525  0.2155  0.0305
 2347SOL    HW2 9434   2.924   2.907   3.823 -1.3518  0.5123 -0.8367
 2347SOL    HW3 9435   2.988   2.773   3.852  0.7793  1.7190  0.1278
 2347SOL    MW4 9436   2.928   2.821   3.810 -0.1140  0.4530 -0.0710
 2348SOL     OW 9437   3.351   2.875   3.811  0.9632 -0.0577 -0.0486
 2348SOL    HW2 9438   3.276   2.824   3.842 -0.3574  1.8537 -0.0168
 2348SOL    HW3 9439   3.350   2.863   3.716  0.4867  0.1195 -0.0690
 2348SOL    MW4 9440   3.341   2.867   3.803  0.7262  0.2182 -0.0470
 2349SOL     OW 9441   3.377   3.155   3.881 -0.3085  0.1824  0.6748
 2349SOL    HW2 9442   3.452   3.209   3.855  0.1464  0.0392  1.6705
 2349SOL    HW3 9443   3.405   3.065   3.864 -0.2429  0.1276  1.0681
 2349SOL    MW4 9444   3.391   3.150   3.875 -0.2396  0.1564  0.8583
 2350SOL     OW 9445   3.124   3.176   3.797  0.4551 -0.1809  0.6428
 2350SOL    HW2 9446   3.137   3.176   3.702 -0.9186 -0.6089  0.4505
 2350SOL    HW3 9447   3.206   3.139   3.831  1.6696  1.6324 -0.2468
 2350SOL    MW4 9448   3.137   3.171   3.789  0.4342  0.0019  0.4997
 2351SOL     OW 9449   3.126   3.439   3.883 -0.2142  0.4318 -0.3468
 2351SOL    HW2 9450   3.212   3.471   3.854 -0.3915  0.1783 -1.1704
 2351SOL    HW3 9451   3.122   3.349   3.850 -0.5676  0.2598  0.1702
 2351SOL    MW4 9452   3.137   3.431   3.875 -0.2844  0.3757 -0.3874
 2352SOL     OW 9453   3.367   3.559   3.807  0.4856 -0.2206 -0.0609
 2352SOL    HW2 9454   3.353   3.650   3.833 -2.4674 -0.5786 -0.1860
 2352SOL    HW3 9455   3.368   3.562   3.711  0.5367 -0.2909 -0.0627
 2352SOL    MW4 9456   3.365   3.571   3.797  0.1030 -0.2770 -0.0777
 2353SOL     OW 9457   3.357   3.808   3.911  0.4732  0.1132 -0.2448
 2353SOL    HW2 9458   3.357   3.803   4.006 -1.2579 -2.1164 -0.3198
 2353SOL    HW3 9459   3.276   3.854   3.889 -0.1175 -1.1096 -0.6802
 2353SOL    MW4 9460   3.346   3.813   3.920  0.1669 -0.3424 -0.3123
 2354SOL     OW 9461   3.141   3.978   3.822  0.1466 -0.2770  0.0068
 2354SOL    HW2 9462   3.145   4.073   3.828  0.4844 -0.2022 -1.2543
 2354SOL    HW3 9463   3.062   3.954   3.869  0.2552  0.5991  0.6448
 2354SOL    MW4 9464   3.131   3.987   3.829  0.2055 -0.1516 -0.0756
 2355SOL     OW 9465   0.255   1.309   4.295  0.3037 -0.3161  0.1522
 2355SOL    HW2 9466   0.316   1.261   4.239 -1.2879  0.1215 -2.0060
 2355SOL    HW3 9467   0.171   1.263   4.284 -0.1774  0.1469  1.7039
 2355SOL    MW4 9468   0.252   1.296   4.286  0.0302 -0.1973  0.0725
 2356SOL     OW 9469   3.613   0.103   4.275  0.1951 -0.2857 -0.0958
 2356SOL    HW2 9470   3.612   0.192   4.239 -0.3010 -0.7004 -1.1416
 2356SOL    HW3 9471   3.587   0.114   4.366 -1.8877  0.4265 -0.7536
 2356SOL    MW4 9472   3.609   0.116   4.282 -0.1450 -0.2464 -0.3204
 2357SOL     OW 9473   3.603   0.092   3.777 -0.2227  0.0409  0.2124
 2357SOL    HW2 9474   3.687   0.060   3.810  0.5807  0.6816 -1.1741
 2357SOL    HW3 9475   3.614   0.094   3.682 -1.3767  1.3381  0.0974
 2357SOL    MW4 9476   3.616   0.088   3.769 -0.2687  0.2966  0.0141
 2358SOL     OW 9477   3.620   0.351   3.877 -0.1548  0.0508 -0.5733
 2358SOL    HW2 9478   3.701   0.396   3.853  0.0318 -0.0605 -0.1602
 2358SOL    HW3 9479   3.632   0.262   3.845  0.3302 -0.2501  0.4186
 2358SOL    MW4 9480   3.633   0.345   3.870 -0.0660 -0.0035 -0.3881
 2359SOL     OW 9481   2.941   0.466   4.235  0.6027 -0.2487  0.7841
 2359SOL    HW2 9482   2.932   0.561   4.237 -2.0077 -0.4142 -1.0393
 2359SOL    HW3 9483   2.900   0.436   4.316 -1.1797  0.0241  0.0007
 2359SOL    MW4 9484   2.934   0.475   4.246  0.0231 -0.2345  0.4396
 2360SOL     OW 9485   3.837   0.499   3.780  0.1460  0.5067  0.1576
 2360SOL    HW2 9486   3.920   0.485   3.824  0.5355  0.4687 -0.5786
 2360SOL    HW3 9487   3.827   0.594   3.775  1.0200  0.5389 -1.3511
 2360SOL    MW4 9488   3.846   0.510   3.785  0.3126  0.5059 -0.1388
 2361SOL     OW 9489   3.817   0.782   3.853  0.4758 -0.0124 -0.4187
 2361SOL    HW2 9490   3.745   0.842   3.830  1.2448  0.9050 -0.4702
 2361SOL    HW3 9491   3.812   0.774   3.948  0.2150 -0.0645 -0.4354
 2361SOL    MW4 9492   3.807   0.789   3.862  0.5429  0.1017 -0.4277
 2362SOL     OW 9493   3.582   0.896   3.753 -0.3199  0.2047 -0.1381
 2362SOL    HW2 9494   3.586   0.978   3.801 -0.6100 -0.5155  1.1327
 2362SOL    HW3 9495   3.513   0.846   3.796 -0.6423 -0.4304 -1.3484
 2362SOL    MW4 9496   3.573   0.900   3.765 -0.4008  0.0259 -0.1304
 2363SOL     OW 9497   3.595   1.134   3.893 -0.3143 -0.4023  0.4168
 2363SOL    HW2 9498   3.659   1.198   3.864  0.3393 -0.7806  1.0094
 2363SOL    HW3 9499   3.510   1.179   3.884 -0.0266 -0.1439 -0.9888
 2363SOL    MW4 9500   3.592   1.148   3.888 -0.1903 -0.4182  0.3095
 2364SOL     OW 9501   3.825   1.271   3.790  0.0639 -0.4640  0.1187
 2364SOL    HW2 9502   3.907   1.228   3.814  0.0521 -0.3815  0.3047
 2364SOL    HW3 9503   3.831   1.358   3.829  0.2952 -0.1246 -0.6663
 2364SOL    MW4 9504   3.836   1.277   3.798  0.0927 -0.4083  0.0398
 2365SOL     OW 9505   3.875   1.515   3.876 -0.2357 -0.6778 -0.1876
 2365SOL    HW2 9506   3.795   1.564   3.859  0.6841  0.4330 -1.4989
 2365SOL    HW3 9507   3.882   1.512   3.971  0.8467  3.7712 -0.0168
 2365SOL    MW4 9508   3.866   1.521   3.886  0.0286  0.0558 -0.3383
 2366SOL     OW 9509   3.613   1.649   3.819  0.3188  0.2207 -0.3177
 2366SOL    HW2 9510   3.525   1.621   3.846  0.5066  0.7739  0.9153
 2366SOL    HW3 9511   3.601   1.685   3.731 -0.8192  0.9673  0.1388
 2366SOL    MW4 9512   3.600   1.650   3.811  0.1934  0.3921 -0.0947
 2367SOL     OW 9513   1.083   2.813   4.066 -0.2607  0.2493 -0.0371
 2367SOL    HW2 9514   1.171   2.777   4.077 -0.2725  0.4438  0.6628
 2367SOL    HW3 9515   1.052   2.774   3.984  0.7218  0.6953 -0.6266
 2367SOL    MW4 9516   1.091   2.803   4.057 -0.1326  0.3338 -0.0224
 2368SOL     OW 9517   4.053   1.877   3.924 -0.3485  0.5206 -0.4646
 2368SOL    HW2 9518   4.124   1.929   3.886  0.4001 -0.2676 -0.1532
 2368SOL    HW3 9519   4.055   1.794   3.876 -1.5429  0.7742 -0.9563
 2368SOL    MW4 9520   4.063   1.873   3.913 -0.4072  0.4503 -0.4883
 2369SOL     OW 9521   3.823   2.323   3.966 -0.4450  0.1599 -0.3758
 2369SOL    HW2 9522   3.747   2.359   3.922 -0.9776 -0.4128  0.0652
 2369SOL    HW3 9523   3.829   2.233   3.934 -0.7873 -0.2350  0.6331
 2369SOL    MW4 9524   3.814   2.316   3.956 -0.5603  0.0319 -0.1843
 2370SOL     OW 9525   3.633   2.456   3.808  0.3037 -0.2802  0.0200
 2370SOL    HW2 9526   3.564   2.401   3.844 -0.0903  0.7934  0.9348
 2370SOL    HW3 9527   3.626   2.445   3.713 -0.1710 -1.3070  0.1689
 2370SOL    MW4 9528   3.623   2.448   3.800  0.1893 -0.2739  0.1605
 2371SOL     OW 9529   3.552   2.709   3.929 -0.0971 -0.2764 -0.1578
 2371SOL    HW2 9530   3.486   2.753   3.876 -1.2797 -0.8532  0.7929
 2371SOL    HW3 9531   3.575   2.631   3.880  0.3025  0.2205 -0.7636
 2371SOL    MW4 9532   3.546   2.705   3.916 -0.2003 -0.2871 -0.1123
 2372SOL     OW 9533   3.790   2.837   3.827  0.2733 -0.3142 -0.0295
 2372SOL    HW2 9534   3.854   2.779   3.869 -0.3594 -0.3597  0.8827
 2372SOL    HW3 9535   3.705   2.803   3.854 -0.1726 -0.6714 -1.8060
 2372SOL    MW4 9536   3.787   2.825   3.836  0.1309 -0.3674 -0.1435
 2373SOL     OW 9537   3.621   3.263   3.792 -0.3907  0.4002  0.0182
 2373SOL    HW2 9538   3.698   3.217   3.826 -0.1198  1.2600  0.5627
 2373SOL    HW3 9539   3.613   3.233   3.702 -0.3012 -0.8385  0.4125
 2373SOL    MW4 9540   3.630   3.253   3.785 -0.3431  0.3505  0.1419
 2374SOL     OW 9541   2.033   2.081   4.174 -0.1976 -0.0454  0.1176
 2374SOL    HW2 9542   2.018   2.083   4.268  0.1680  0.8577  0.1647
 2374SOL    HW3 9543   2.044   2.173   4.150  0.6296 -0.3386 -0.6466
 2374SOL    MW4 9544   2.033   2.093   4.183 -0.0401  0.0350  0.0224
 2375SOL     OW 9545   3.857   3.598   3.771  0.1692  0.3728  0.1082
 2375SOL    HW2 9546   3.791   3.553   3.824  0.6181  0.6871  0.9395
 2375SOL    HW3 9547   3.939   3.554   3.793  0.4243  0.7995 -0.0008
 2375SOL    MW4 9548   3.859   3.586   3.781  0.2623  0.4706  0.2036
 2376SOL     OW 9549   0.185   3.866   4.164 -0.3945 -0.6362 -0.1573
 2376SOL    HW2 9550   0.256   3.927   4.185  0.5738 -1.7534 -0.1317
 2376SOL    HW3 9551   0.107   3.907   4.202  0.2983  0.4191  0.1615
 2376SOL    MW4 9552   0.185   3.880   4.172 -0.1753 -0.6442 -0.1121
 2377SOL     OW 9553   2.864   2.492   4.533 -0.0203 -0.1776  0.7938
 2377SOL    HW2 9554   2.832   2.405   4.558 -0.3698 -0.6253 -1.0806
 2377SOL    HW3 9555   2.859   2.543   4.613 -0.8454 -1.5916  1.6819
 2377SOL    MW4 9556   2.859   2.487   4.547 -0.1752 -0.4232  0.6633
 2378SOL     OW 9557   3.571   3.930   3.784  0.6089  0.1546  0.1983
 2378SOL    HW2 9558   3.557   4.024   3.797  1.6857  0.0110  2.5360
 2378SOL    HW3 9559   3.497   3.888   3.828  0.4867 -0.1346 -0.2696
 2378SOL    MW4 9560   3.559   3.937   3.792  0.7348  0.0975  0.4449
 2379SOL     OW 9561   3.837   4.362   3.759 -0.2156 -0.2511 -0.6186
 2379SOL    HW2 9562   3.919   4.319   3.783 -1.0171 -1.1330  0.6545
 2379SOL    HW3 9563   3.824   4.341   3.667 -0.9240 -3.3881  0.1323
 2379SOL    MW4 9564   3.846   4.354   3.750 -0.4151 -0.7815 -0.3517
 2380SOL     OW 9565   3.844   4.629   3.874 -0.0160  0.6423  0.1438
 2380SOL    HW2 9566   3.856   4.630   3.969 -0.3542  0.4284  0.1871
 2380SOL    HW3 9567   3.850   4.537   3.849  1.7224  0.8371 -0.2524
 2380SOL    MW4 9568   3.847   4.617   3.883  0.1688  0.6390  0.0973
 2381SOL     OW 9569   0.015   0.097   3.785  0.5829  0.1359 -0.0936
 2381SOL    HW2 9570   0.021   0.088   3.690 -1.3444  0.6717 -0.2839
 2381SOL    HW3 9571   0.027   0.191   3.800  0.4947  0.1069  0.1577
 2381SOL    MW4 9572   0.017   0.108   3.774  0.3170  0.2028 -0.0854
 2382SOL     OW 9573   4.062   0.115   3.770 -0.2339  0.2079  0.3237
 2382SOL    HW2 9574   3.996   0.052   3.800 -2.0477  1.6827 -0.4967
 2382SOL    HW3 9575   4.062   0.106   3.675  0.3928  0.6060  0.2812
 2382SOL    MW4 9576   4.053   0.105   3.761 -0.3910  0.4550  0.2100
 2383SOL     OW 9577   4.070   0.380   3.836  0.2732 -0.1584  0.4165
 2383SOL    HW2 9578   4.065   0.379   3.931  1.0302  0.5090  0.4753
 2383SOL    HW3 9579   4.048   0.291   3.809  0.3669 -0.4265  1.2327
 2383SOL    MW4 9580   4.067   0.368   3.845  0.3848 -0.1057  0.5317
 2384SOL     OW 9581   4.306   0.530   3.812  0.1186 -0.1705 -0.0647
 2384SOL    HW2 9582   4.224   0.483   3.826  0.6566 -1.0978  0.0015
 2384SOL    HW3 9583   4.374   0.466   3.834  0.8410  0.9222  0.9456
 2384SOL    MW4 9584   4.304   0.515   3.817  0.2847 -0.1487  0.0772
 2385SOL     OW 9585   4.340   0.803   3.859  0.7385  0.0942  0.3734
 2385SOL    HW2 9586   4.251   0.825   3.829  0.6631 -0.0398  0.5007
 2385SOL    HW3 9587   4.344   0.707   3.854  0.7670  0.0801  0.6788
 2385SOL    MW4 9588   4.329   0.793   3.854  0.7324  0.0746  0.4303
 2386SOL     OW 9589   4.088   0.893   3.780 -0.0573  0.0138  0.0455
 2386SOL    HW2 9590   4.002   0.855   3.798  0.8559 -2.5732 -0.8776
 2386SOL    HW3 9591   4.090   0.902   3.684 -0.7508  3.6830  0.3033
 2386SOL    MW4 9592   4.077   0.890   3.770 -0.0281  0.1566 -0.0422
 2387SOL     OW 9593   4.061   1.150   3.870 -0.0741 -1.0748  0.3461
 2387SOL    HW2 9594   4.081   1.061   3.841  3.5906 -0.4903  0.8882
 2387SOL    HW3 9595   4.053   1.143   3.965 -0.9105 -0.9780  0.2935
 2387SOL    MW4 9596   4.062   1.137   3.879  0.2995 -0.9849  0.4108
 2388SOL     OW 9597   4.293   1.266   3.782  0.0714  0.2928  0.2571
 2388SOL    HW2 9598   4.207   1.230   3.804 -0.4406  0.8585 -0.7900
 2388SOL    HW3 9599   4.302   1.251   3.688  0.7602  0.9802  0.2073
 2388SOL    MW4 9600   4.283   1.259   3.773  0.0949  0.4580  0.1123
 2389SOL     OW 9601   4.282   1.491   3.922  0.1028 -0.6871 -0.0627
 2389SOL    HW2 9602   4.361   1.536   3.894 -1.4705  1.4805 -1.1662
 2389SOL    HW3 9603   4.278   1.412   3.867  0.1199  0.5565 -1.9009
 2389SOL    MW4 9604   4.292   1.487   3.911 -0.1025 -0.2371 -0.4506
 2390SOL     OW 9605   4.093   1.642   3.773  0.2555  0.2717  0.1379
 2390SOL    HW2 9606   4.170   1.603   3.815  0.0183  0.2703  0.5776
 2390SOL    HW3 9607   4.019   1.591   3.806  0.2838 -1.5431 -2.4209
 2390SOL    MW4 9608   4.094   1.630   3.783  0.2279  0.0319 -0.1416
 2391SOL     OW 9609   4.249   2.010   3.795 -0.3984  0.3746  0.3247
 2391SOL    HW2 9610   4.264   2.023   3.702 -0.8190  0.2271  0.2347
 2391SOL    HW3 9611   4.264   2.096   3.834  0.2817  0.3199  0.1882
 2391SOL    MW4 9612   4.253   2.023   3.788 -0.3643  0.3479  0.2947
 2392SOL     OW 9613   4.298   2.092   3.480  0.2463  0.7225 -0.3266
 2392SOL    HW2 9614   4.302   2.172   3.428 -1.1993  1.0549  0.0473
 2392SOL    HW3 9615   4.373   2.040   3.450  0.9812  2.0460 -0.8329
 2392SOL    MW4 9616   4.309   2.096   3.469  0.1526  0.9413 -0.3440
 2393SOL     OW 9617   4.243   2.276   3.907  0.5390  0.1293  0.1668
 2393SOL    HW2 9618   4.310   2.321   3.856 -0.5245  0.0718 -1.2971
 2393SOL    HW3 9619   4.265   2.297   3.998  2.0891  0.7325 -0.3290
 2393SOL    MW4 9620   4.255   2.285   3.913  0.6032  0.2015 -0.0918
 2394SOL     OW 9621   4.027   2.422   3.809 -0.1510 -0.1259  0.1367
 2394SOL    HW2 9622   4.111   2.392   3.842  0.0964 -1.4114 -1.5843
 2394SOL    HW3 9623   3.962   2.373   3.861  0.1719  0.3639  1.0025
 2394SOL    MW4 9624   4.029   2.411   3.820 -0.0758 -0.2308  0.0241
 2395SOL     OW 9625   0.807   2.810   4.630  0.4199 -0.1498 -0.0149
 2395SOL    HW2 9626   0.724   2.826   4.585  0.3197  0.0007  0.2197
 2395SOL    HW3 9627   0.869   2.787   4.560  0.2311 -0.0650 -0.2106
 2395SOL    MW4 9628   0.804   2.809   4.615  0.3817 -0.1190 -0.0100
 2396SOL     OW 9629   4.230   2.803   3.782  0.1513  0.4227 -0.1985
 2396SOL    HW2 9630   4.245   2.896   3.800  0.5079  0.4001 -0.3738
 2396SOL    HW3 9631   4.314   2.762   3.804 -0.1287  0.0889  0.2586
 2396SOL    MW4 9632   4.243   2.810   3.787  0.1612  0.3755 -0.1612
 2397SOL     OW 9633   1.388   0.979   4.527  0.1471  0.2850  0.0430
 2397SOL    HW2 9634   1.453   0.918   4.562  0.6491  0.7405 -0.0734
 2397SOL    HW3 9635   1.305   0.953   4.567  0.6283  0.5207  1.2095
 2397SOL    MW4 9636   1.386   0.968   4.537  0.2768  0.3762  0.1812
 2398SOL     OW 9637   4.053   3.220   3.762 -0.3155  0.1621  0.0004
 2398SOL    HW2 9638   3.980   3.158   3.767 -1.5748  1.5297 -1.0478
 2398SOL    HW3 9639   4.053   3.250   3.671  0.2255  1.7579  0.5107
 2398SOL    MW4 9640   4.043   3.216   3.750 -0.4106  0.5529 -0.0706
 2399SOL     OW 9641   2.463   1.712   4.523 -0.6221 -0.2385 -0.3867
 2399SOL    HW2 9642   2.557   1.712   4.507 -0.5607  1.5050 -0.1276
 2399SOL    HW3 9643   2.448   1.791   4.575 -2.0728 -1.0967  0.5220
 2399SOL    MW4 9644   2.473   1.723   4.528 -0.8054 -0.1217 -0.2327
 2400SOL     OW 9645   4.271   3.611   3.786  0.7154 -0.2981  0.2471
 2400SOL    HW2 9646   4.192   3.570   3.822  1.5334 -1.0720  1.1956
 2400SOL    HW3 9647   4.258   3.704   3.801  0.0521 -0.4371  0.5681
 2400SOL    MW4 9648   4.259   3.618   3.793  0.7353 -0.4189  0.4148
 2401SOL     OW 9649   4.065   3.980   3.780 -0.1064  0.3300  0.2788
 2401SOL    HW2 9650   3.988   3.937   3.815  0.4528  0.9429  2.2984
 2401SOL    HW3 9651   4.058   3.968   3.685 -1.3453 -1.8178  0.6259
 2401SOL    MW4 9652   4.054   3.973   3.772 -0.1960  0.1276  0.5910
 2402SOL     OW 9653   4.050   3.949   4.246 -0.1145  0.1464  0.6653
 2402SOL    HW2 9654   3.966   3.916   4.215 -0.6137  0.2188  1.9228
 2402SOL    HW3 9655   4.049   4.042   4.224 -1.0043  0.4684  2.0307
 2402SOL    MW4 9656   4.039   3.957   4.239 -0.2980  0.1984  1.0118
 2403SOL     OW 9657   4.276   4.346   3.783 -0.2165  0.0406  0.4495
 2403SOL    HW2 9658   4.361   4.313   3.812 -0.0902  0.1193  0.1724
 2403SOL    HW3 9659   4.274   4.437   3.815 -1.1335 -0.6497  2.3789
 2403SOL    MW4 9660   4.287   4.354   3.791 -0.3209 -0.0405  0.6676
 2404SOL     OW 9661   4.278   4.625   3.830 -0.0929 -0.1536  0.0285
 2404SOL    HW2 9662   4.202   4.670   3.793 -0.7030 -1.7277 -0.6854
 2404SOL    HW3 9663   4.349   4.689   3.825 -1.4485  1.4355  1.0126
 2404SOL    MW4 9664   4.278   4.639   3.824 -0.3529 -0.1516  0.0641
 2405SOL     OW 9665   3.287   2.103   4.670 -0.3116 -0.3636 -0.2791
 2405SOL    HW2 9666   3.256   2.017   4.698 -1.0103 -0.0274  0.0040
 2405SOL    HW3 9667   3.214   2.139   4.618  0.0326 -0.0046 -0.5194
 2405SOL    MW4 9668   3.273   2.097   4.667 -0.3583 -0.2718 -0.2737
 2406SOL     OW 9669   3.619   3.526   3.916  0.3192 -0.0383 -0.4141
 2406SOL    HW2 9670   3.539   3.568   3.883  1.3111 -0.0179 -2.8777
 2406SOL    HW3 9671   3.613   3.436   3.885  2.1114  0.4367 -2.2587
 2406SOL    MW4 9672   3.608   3.520   3.907  0.6864  0.0272 -0.9825
 2407SOL     OW 9673   1.562   2.348   4.184 -0.2279  0.0703  0.3418
 2407SOL    HW2 9674   1.545   2.258   4.213  0.7437  0.0350  0.8258
 2407SOL    HW3 9675   1.566   2.342   4.089 -0.6102 -0.3254  0.3510
 2407SOL    MW4 9676   1.561   2.335   4.176 -0.1502  0.0134  0.4063
 2408SOL     OW 9677   1.127   0.015   4.158 -0.1839 -0.3106  0.1815
 2408SOL    HW2 9678   1.128  -0.078   4.182 -1.3292 -0.2239  0.5664
 2408SOL    HW3 9679   1.049   0.050   4.200  0.1434  0.7954 -0.1165
 2408SOL    MW4 9680   1.117   0.007   4.167 -0.2917 -0.1532  0.1922
 2409SOL     OW 9681   0.935   1.188   4.622 -0.0712  0.4159  0.4160
 2409SOL    HW2 9682   0.843   1.190   4.593  0.2563  0.7847 -0.6085
 2409SOL    HW3 9683   0.973   1.115   4.574  0.0155 -0.1284  1.3192
 2409SOL    MW4 9684   0.928   1.179   4.612 -0.0166  0.3927  0.4001
 2410SOL     OW 9685   1.550   3.758   4.379  0.0649  0.3488 -0.2104
 2410SOL    HW2 9686   1.511   3.778   4.294 -0.1801 -1.0883 -0.4442
 2410SOL    HW3 9687   1.477   3.725   4.431  0.5825 -0.5072 -0.0243
 2410SOL    MW4 9688   1.535   3.756   4.375  0.1009  0.0465 -0.2165
 2411SOL     OW 9689   0.421   4.018   4.247 -0.1354  0.6255  0.1497
 2411SOL    HW2 9690   0.489   3.961   4.211 -0.7344  0.6177 -0.9897
 2411SOL    HW3 9691   0.438   4.018   4.341  0.5995 -0.4912  0.0351
 2411SOL    MW4 9692   0.432   4.010   4.255 -0.1175  0.4768 -0.0157
 2412SOL     OW 9693   0.278   2.444   4.542  0.3544 -0.5741  0.2721
 2412SOL    HW2 9694   0.277   2.533   4.507  2.5941 -0.4576  0.3947
 2412SOL    HW3 9695   0.196   2.435   4.590  0.1524  1.4546  0.3322
 2412SOL    MW4 9696   0.267   2.454   4.544  0.6233 -0.2909  0.2961
 2413SOL     OW 9697   0.012   0.895   4.295  0.0094 -0.1990  0.3836
 2413SOL    HW2 9698  -0.051   0.859   4.232  2.4297  0.1316 -2.3452
 2413SOL    HW3 9699  -0.002   0.844   4.375 -3.5563 -0.2463 -0.1895
 2413SOL    MW4 9700   0.002   0.883   4.297 -0.1411 -0.1618 -0.0520
 2414SOL     OW 9701   0.846   3.521   4.132  0.4597 -0.1082  0.2282
 2414SOL    HW2 9702   0.844   3.490   4.042  0.9945  0.4301  0.0267
 2414SOL    HW3 9703   0.868   3.444   4.184 -1.6492 -0.8287  0.0997
 2414SOL    MW4 9704   0.849   3.507   4.127  0.2519 -0.1323  0.1841
 2415SOL     OW 9705   4.317   2.544   4.741  0.4915 -0.0427 -0.1180
 2415SOL    HW2 9706   4.365   2.609   4.792  1.8377 -0.7150 -0.5011
 2415SOL    HW3 9707   4.384   2.499   4.690 -0.4967 -1.3005 -0.3442
 2415SOL    MW4 9708   4.332   2.547   4.741  0.5383 -0.2973 -0.1979
 2416SOL     OW 9709   2.268   1.215   4.143 -0.1888 -0.3346  0.0673
 2416SOL    HW2 9710   2.252   1.121   4.154 -0.6231 -0.4449 -1.3699
 2416SOL    HW3 9711   2.253   1.231   4.049 -4.2814  1.9331  1.0068
 2416SOL    MW4 9712   2.264   1.205   4.132 -0.7861 -0.0498  0.0010
 2417SOL     OW 9713   0.447   1.450   4.896 -0.2377  0.2622 -0.6224
 2417SOL    HW2 9714   0.426   1.407   4.979  1.1388 -0.2990 -0.5491
 2417SOL    HW3 9715   0.469   1.540   4.921  0.0293  0.1345 -0.3787
 2417SOL    MW4 9716   0.447   1.456   4.911 -0.0209  0.1712 -0.5808
 2418SOL     OW 9717   4.293   1.500   4.679 -0.2471 -0.0190  0.0763
 2418SOL    HW2 9718   4.323   1.411   4.662  1.2769  0.2808  1.1347
 2418SOL    HW3 9719   4.198   1.496   4.669 -0.1741 -1.7478  0.0499
 2418SOL    MW4 9720   4.284   1.488   4.676 -0.0367 -0.2075  0.2127
 2419SOL     OW 9721   3.787   2.074   4.558  0.4333 -0.7424 -0.3017
 2419SOL    HW2 9722   3.697   2.046   4.570 -0.0887  0.4643 -1.2823
 2419SOL    HW3 9723   3.798   2.082   4.464  1.3067 -0.0637 -0.1515
 2419SOL    MW4 9724   3.777   2.072   4.547  0.4797 -0.4938 -0.4110
 2420SOL     OW 9725   0.221   4.383   4.285 -0.0627 -0.3323 -0.1519
 2420SOL    HW2 9726   0.221   4.364   4.379 -0.6228  0.5016  0.0202
 2420SOL    HW3 9727   0.304   4.347   4.253  0.6949  0.4693  0.8802
 2420SOL    MW4 9728   0.232   4.375   4.293 -0.0366 -0.1168  0.0072
 2421SOL     OW 9729   4.465   3.157   4.796 -0.0451 -0.0238 -0.2285
 2421SOL    HW2 9730   4.400   3.091   4.770  1.2030 -0.7262 -1.6150
 2421SOL    HW3 9731   4.470   3.148   4.891 -1.6969 -0.2150 -0.1365
 2421SOL    MW4 9732   4.457   3.147   4.805 -0.0987 -0.1416 -0.3991
 2422SOL     OW 9733   0.527   2.001   4.601  0.3644 -0.4932 -0.3226
 2422SOL    HW2 9734   0.577   1.969   4.677 -0.5422 -0.8695  0.1264
 2422SOL    HW3 9735   0.593   2.035   4.541  0.9918  1.1234  1.2473
 2422SOL    MW4 9736   0.542   2.001   4.603  0.3275 -0.3295 -0.0563
 2423SOL     OW 9737   2.268   0.704   4.572  0.5849 -0.3181 -0.4952
 2423SOL    HW2 9738   2.181   0.665   4.563  0.2710  0.3451 -0.3177
 2423SOL    HW3 9739   2.256   0.796   4.549  0.8270  0.2390  1.5642
 2423SOL    MW4 9740   2.255   0.711   4.568  0.5758 -0.1571 -0.2003
 2424SOL     OW 9741   1.960   4.427   4.249  0.2888  0.2871 -0.2470
 2424SOL    HW2 9742   1.901   4.354   4.232 -1.2494  1.9115 -2.0494
 2424SOL    HW3 9743   1.970   4.429   4.344 -1.0388 -1.1757 -0.0712
 2424SOL    MW4 9744   1.954   4.418   4.259 -0.0893  0.3085 -0.4621
 2425SOL     OW 9745   4.077   2.840   4.161 -0.0814  0.0211  0.0042
 2425SOL    HW2 9746   3.999   2.833   4.217 -0.0039  1.0310  0.2517
 2425SOL    HW3 9747   4.061   2.779   4.090 -0.9712  0.0055  0.2097
 2425SOL    MW4 9748   4.065   2.831   4.159 -0.1884  0.1521  0.0644
 2426SOL     OW 9749   4.452   2.822   4.474  0.2109  0.3597 -0.1387
 2426SOL    HW2 9750   4.398   2.893   4.508 -1.1191 -1.3067  1.3530
 2426SOL    HW3 9751   4.389   2.753   4.450  1.5527 -1.1318  0.4892
 2426SOL    MW4 9752   4.436   2.822   4.476  0.2122 -0.0572  0.1416
 2427SOL     OW 9753   4.463   0.704   4.491  0.2204 -0.5778 -0.1937
 2427SOL    HW2 9754   4.540   0.647   4.497 -0.0418 -0.8619  0.5147
 2427SOL    HW3 9755   4.389   0.645   4.504 -0.0003  0.1374  1.9480
 2427SOL    MW4 9756   4.463   0.689   4.494  0.1564 -0.5209  0.1822
 2428SOL     OW 9757   4.471   2.883   4.213  0.1586 -0.1547  0.1389
 2428SOL    HW2 9758   4.479   2.881   4.308 -0.4675 -0.4351  0.1906
 2428SOL    HW3 9759   4.407   2.952   4.196  0.1242 -0.2364 -0.0671
 2428SOL    MW4 9760   4.463   2.892   4.223  0.0715 -0.2022  0.1187
 2429SOL     OW 9761   1.279   4.421   4.805  0.2380 -0.0785  0.0103
 2429SOL    HW2 9762   1.189   4.428   4.773  0.8127  1.8832 -1.2706
 2429SOL    HW3 9763   1.325   4.493   4.762  2.1703 -0.3779  1.5330
 2429SOL    MW4 9764   1.273   4.431   4.795  0.5687  0.1411  0.0420
 2430SOL     OW 9765   4.064   4.225   4.151 -0.1637 -0.4405 -0.5317
 2430SOL    HW2 9766   4.062   4.244   4.057 -2.5952  1.0934 -0.2157
 2430SOL    HW3 9767   4.132   4.283   4.186  0.3767 -0.6311 -1.2640
 2430SOL    MW4 9768   4.073   4.235   4.143 -0.4134 -0.2632 -0.5860
 2431SOL     OW 9769   1.614   3.481   4.343  0.5797 -0.3408 -0.3389
 2431SOL    HW2 9770   1.530   3.436   4.334  0.0765  0.8606 -2.1105
 2431SOL    HW3 9771   1.590   3.571   4.364  1.5060 -0.3780  0.9421
 2431SOL    MW4 9772   1.599   3.487   4.344  0.6355 -0.1872 -0.4034
 2432SOL     OW 9773   0.798   4.102   4.525  0.5286  0.2230 -0.0762
 2432SOL    HW2 9774   0.702   4.094   4.526  0.6121 -0.6996  1.5008
 2432SOL    HW3 9775   0.823   4.067   4.440 -0.4066 -1.3663  0.2651
 2432SOL    MW4 9776   0.789   4.096   4.514  0.4163 -0.1082  0.1774
 2433SOL     OW 9777   2.500   3.110   4.186  0.6574 -0.0756  0.1342
 2433SOL    HW2 9778   2.565   3.154   4.242 -0.2364  1.3962  0.0453
 2433SOL    HW3 9779   2.496   3.021   4.219  0.4317  0.6712  2.1772
 2433SOL    MW4 9780   2.508   3.104   4.197  0.5097  0.2172  0.3920
 2434SOL     OW 9781   1.023   0.061   4.649  0.0476 -0.0092  0.1013
 2434SOL    HW2 9782   1.034  -0.034   4.647 -1.6642 -0.2089 -0.5832
 2434SOL    HW3 9783   1.097   0.095   4.599  0.8835 -0.9557  0.6822
 2434SOL    MW4 9784   1.034   0.053   4.642 -0.0679 -0.1604  0.0877
 2435SOL     OW 9785   2.462   4.142   4.612  0.4143  0.3854  0.5329
 2435SOL    HW2 9786   2.425   4.086   4.544 -0.9219  2.1058 -0.2239
 2435SOL    HW3 9787   2.540   4.097   4.642 -0.1614 -1.4335 -0.6536
 2435SOL    MW4 9788   2.467   4.129   4.607  0.1619  0.3724  0.2770
 2436SOL     OW 9789   1.312   3.668   4.535 -0.3748 -0.2836 -0.0638
 2436SOL    HW2 9790   1.337   3.587   4.579 -0.4818  0.1597  0.8102
 2436SOL    HW3 9791   1.306   3.733   4.605 -0.5793  0.4124 -0.7234
 2436SOL    MW4 9792   1.314   3.666   4.550 -0.4158 -0.1333 -0.0358
 2437SOL     OW 9793   2.057   3.111   4.177  0.1721 -0.3872 -0.2568
 2437SOL    HW2 9794   2.065   3.118   4.082  2.2510  0.2782 -0.0671
 2437SOL    HW3 9795   2.050   3.017   4.194  1.1081 -0.6029 -1.0038
 2437SOL    MW4 9796   2.057   3.099   4.166  0.5698 -0.3278 -0.3304
 2438SOL     OW 9797   1.499   0.544   4.493 -0.4133  0.3480 -0.1112
 2438SOL    HW2 9798   1.506   0.465   4.548  0.2790  0.3579 -0.1840
 2438SOL    HW3 9799   1.405   0.561   4.489 -0.5889 -0.5928 -0.2588
 2438SOL    MW4 9800   1.487   0.536   4.500 -0.3450  0.2252 -0.1402
 2439SOL     OW 9801   3.150   1.168   3.943  0.0451  0.3075  0.0946
 2439SOL    HW2 9802   3.146   1.085   3.897  0.0624 -0.7272  1.9115
 2439SOL    HW3 9803   3.081   1.221   3.902 -1.2597 -1.2719  0.1793
 2439SOL    MW4 9804   3.140   1.164   3.932 -0.1249 -0.0374  0.3455
 2440SOL     OW 9805   3.335   2.222   4.176  0.0297  0.2441 -0.2670
 2440SOL    HW2 9806   3.363   2.294   4.232  0.2537 -0.7380  0.9063
 2440SOL    HW3 9807   3.373   2.144   4.216 -2.3088 -0.8302 -0.0608
 2440SOL    MW4 9808   3.344   2.221   4.189 -0.2494 -0.0269 -0.0849
 2441SOL     OW 9809   4.065   1.884   4.204  0.4203  0.2026 -0.0881
 2441SOL    HW2 9810   4.052   1.879   4.109  0.5373 -1.3517 -0.0246
 2441SOL    HW3 9811   4.160   1.892   4.214  0.3525  1.1496 -0.1198
 2441SOL    MW4 9812   4.076   1.885   4.192  0.4268  0.1224 -0.0839
 2442SOL     OW 9813   3.560   4.132   4.475 -0.1562 -0.1496  0.0162
 2442SOL    HW2 9814   3.551   4.092   4.388 -2.6139  1.8450 -0.7236
 2442SOL    HW3 9815   3.511   4.074   4.533 -1.0101  0.0580 -0.4799
 2442SOL    MW4 9816   3.553   4.119   4.471 -0.5929  0.1411 -0.1469
 2443SOL     OW 9817   2.273   0.048   4.830 -0.3711 -0.4172  0.3986
 2443SOL    HW2 9818   2.281   0.014   4.920 -0.5535 -1.2674  0.1028
 2443SOL    HW3 9819   2.185   0.086   4.827 -0.2562 -0.1326  0.6698
 2443SOL    MW4 9820   2.262   0.048   4.842 -0.3800 -0.4918  0.3953
 2444SOL     OW 9821   2.911   0.480   4.524  0.1136 -0.1019 -0.5035
 2444SOL    HW2 9822   2.915   0.572   4.550  1.4849  0.1001 -1.3850
 2444SOL    HW3 9823   2.818   0.457   4.531  0.1145  0.5122  2.5372
 2444SOL    MW4 9824   2.899   0.489   4.529  0.2947  0.0058 -0.2189
 2445SOL     OW 9825   1.964   3.515   4.525  0.0316 -0.1174  0.4696
 2445SOL    HW2 9826   2.026   3.442   4.520 -0.3583 -0.3972 -0.2913
 2445SOL    HW3 9827   1.889   3.480   4.572 -0.2902 -0.2982 -0.1818
 2445SOL    MW4 9828   1.962   3.501   4.531 -0.0623 -0.1781  0.2832
 2446SOL     OW 9829   3.235   0.796   4.617  0.1776  0.0032 -0.1208
 2446SOL    HW2 9830   3.293   0.729   4.582  1.2067  1.1892 -0.7132
 2446SOL    HW3 9831   3.292   0.854   4.667 -0.6328  0.6738  0.0420
 2446SOL    MW4 9832   3.250   0.794   4.619  0.2062  0.2482 -0.1774
 2447SOL     OW 9833   1.309   3.570   4.110  0.5354 -0.0960 -0.0348
 2447SOL    HW2 9834   1.340   3.506   4.174 -0.6660 -0.3667  0.2921
 2447SOL    HW3 9835   1.221   3.592   4.140  0.5427  0.9096 -0.7520
 2447SOL    MW4 9836   1.302   3.564   4.122  0.3778  0.0010 -0.0863
 2448SOL     OW 9837   2.196   3.329   4.516  0.2108  0.3530 -0.2481
 2448SOL    HW2 9838   2.158   3.254   4.562 -0.2007  0.6043 -0.1766
 2448SOL    HW3 9839   2.222   3.294   4.431  1.3797 -0.2167  0.3298
 2448SOL    MW4 9840   2.195   3.314   4.511  0.3109  0.3109 -0.1621
 2449SOL     OW 9841   1.599   4.407   3.827 -0.4653  0.4080 -0.3014
 2449SOL    HW2 9842   1.607   4.393   3.733  0.6974  1.5878 -0.3894
 2449SOL    HW3 9843   1.665   4.349   3.866 -0.1917  0.7254 -0.2855
 2449SOL    MW4 9844   1.609   4.398   3.820 -0.2757  0.6046 -0.3107
 2450SOL     OW 9845   3.824   0.540   4.531  0.1501  0.0366 -0.3133
 2450SOL    HW2 9846   3.897   0.594   4.502  1.1523  0.0198  2.0554
 2450SOL    HW3 9847   3.749   0.600   4.535  0.2393  0.2629 -1.8321
 2450SOL    MW4 9848   3.823   0.555   4.528  0.2944  0.0643 -0.2012
 2451SOL     OW 9849   1.807   2.475   4.216 -0.4017 -0.4912  0.1790
 2451SOL    HW2 9850   1.723   2.430   4.207  0.5532 -2.2044 -0.3831
 2451SOL    HW3 9851   1.794   2.559   4.172 -1.9681 -0.5435  0.5189
 2451SOL    MW4 9852   1.795   2.480   4.209 -0.4824 -0.7243  0.1493
 2452SOL     OW 9853   3.276   0.102   4.541 -0.3097 -0.1633  0.2800
 2452SOL    HW2 9854   3.371   0.091   4.540 -0.3827 -0.8247  0.1602
 2452SOL    HW3 9855   3.263   0.196   4.541  0.3648 -0.0441  2.3221
 2452SOL    MW4 9856   3.287   0.113   4.541 -0.2303 -0.2348  0.5341
 2453SOL     OW 9857   2.570   0.706   4.615  0.3001 -0.1770 -0.3155
 2453SOL    HW2 9858   2.585   0.613   4.633 -0.6886 -0.2292  0.2741
 2453SOL    HW3 9859   2.475   0.717   4.623  0.4902  1.0332  0.3699
 2453SOL    MW4 9860   2.560   0.695   4.618  0.1948 -0.0242 -0.1469
 2454SOL     OW 9861   2.527   1.538   4.152 -0.1632  0.1330 -0.2603
 2454SOL    HW2 9862   2.528   1.449   4.187 -0.3774 -0.0476 -0.7040
 2454SOL    HW3 9863   2.472   1.588   4.213  0.0574 -0.0104  0.0551
 2454SOL    MW4 9864   2.520   1.533   4.164 -0.1621  0.0902 -0.2770
 2455SOL     OW 9865   2.387   3.944   4.421 -0.2284  0.2648 -0.0842
 2455SOL    HW2 9866   2.349   3.880   4.481  1.2813  0.6788  1.3528
 2455SOL    HW3 9867   2.394   3.898   4.338 -3.7692  0.1438 -0.4292
 2455SOL    MW4 9868   2.383   3.930   4.418 -0.4964  0.3033  0.0606
 2456SOL     OW 9869   1.771   3.476   4.120  0.0452  0.3171 -0.1977
 2456SOL    HW2 9870   1.715   3.473   4.198  0.1426  1.4752 -0.0641
 2456SOL    HW3 9871   1.844   3.533   4.146  2.1453 -2.4274  0.1610
 2456SOL    MW4 9872   1.773   3.483   4.134  0.3351  0.1078 -0.1330
 2457SOL     OW 9873   1.125   0.554   4.237 -0.2341  0.2285  0.5047
 2457SOL    HW2 9874   1.041   0.508   4.241 -0.3536  0.5355  1.7603
 2457SOL    HW3 9875   1.188   0.486   4.216 -0.8138  0.0209 -0.6071
 2457SOL    MW4 9876   1.122   0.539   4.235 -0.3265  0.2416  0.5236
 2458SOL     OW 9877   4.080   0.933   4.677  0.1185  0.2358  0.0162
 2458SOL    HW2 9878   4.090   0.996   4.605  0.2664 -0.2674 -0.4022
 2458SOL    HW3 9879   4.008   0.968   4.730  0.2434  0.7944 -0.1791
 2458SOL    MW4 9880   4.072   0.946   4.675  0.1540  0.2431 -0.0644
 2459SOL     OW 9881   2.391   3.506   4.535  0.0333 -0.0897 -0.6829
 2459SOL    HW2 9882   2.312   3.452   4.536 -0.6306  0.8736  1.2262
 2459SOL    HW3 9883   2.362   3.592   4.566  1.5385  0.7107 -1.4285
 2459SOL    MW4 9884   2.376   3.510   4.539  0.1442  0.1431 -0.5288
 2460SOL     OW 9885   1.595   0.497   4.247  0.1194 -0.0785  0.5329
 2460SOL    HW2 9886   1.681   0.456   4.247  1.5861  2.8553 -0.0611
 2460SOL    HW3 9887   1.572   0.502   4.340  0.1270 -1.7838  0.6346
 2460SOL    MW4 9888   1.603   0.492   4.260  0.3140  0.0836  0.4683
 2461SOL     OW 9889   3.364   4.387   3.782  0.2742 -0.5853  0.5065
 2461SOL    HW2 9890   3.431   4.326   3.811  0.0159 -0.9609  0.3187
 2461SOL    HW3 9891   3.391   4.471   3.818 -0.2054 -1.1030  2.1148
 2461SOL    MW4 9892   3.376   4.390   3.791  0.1767 -0.7033  0.6938
 2462SOL     OW 9893   1.125   0.430   4.681  0.0852 -0.0337  0.0663
 2462SOL    HW2 9894   1.123   0.335   4.678 -0.4483 -0.0015 -1.3597
 2462SOL    HW3 9895   1.178   0.451   4.757 -1.4693 -1.4548  1.5849
 2462SOL    MW4 9896   1.131   0.421   4.690 -0.1904 -0.2170  0.0777
 2463SOL     OW 9897   0.904   0.924   3.773 -0.3753  0.1508 -0.2137
 2463SOL    HW2 9898   0.927   0.913   3.680  0.1207  1.2703 -0.2249
 2463SOL    HW3 9899   0.829   0.866   3.785 -0.5328  0.0974 -1.3530
 2463SOL    MW4 9900   0.897   0.915   3.762 -0.3306  0.2915 -0.3657
 2464SOL     OW 9901   2.724   1.664   4.495  0.0278 -0.1630 -0.0682
 2464SOL    HW2 9902   2.746   1.654   4.403  2.6081 -0.6514  0.5689
 2464SOL    HW3 9903   2.725   1.575   4.531 -0.0472  0.1064  0.6215
 2464SOL    MW4 9904   2.727   1.651   4.488  0.3583 -0.1919  0.1068
 2465SOL     OW 9905   1.326   2.482   4.209 -0.1173 -0.6104 -0.3337
 2465SOL    HW2 9906   1.332   2.510   4.301  0.1760 -1.5982 -0.0529
 2465SOL    HW3 9907   1.407   2.433   4.194 -0.4049 -0.8862 -0.9738
 2465SOL    MW4 9908   1.338   2.480   4.219 -0.1166 -0.7772 -0.3815
 2466SOL     OW 9909   3.805   0.747   4.116 -0.2287 -0.2054 -0.2400
 2466SOL    HW2 9910   3.738   0.800   4.159  0.8799  1.5823 -0.6463
 2466SOL    HW3 9911   3.888   0.782   4.148  0.5380 -1.8328 -0.3951
 2466SOL    MW4 9912   3.807   0.759   4.126  0.0184 -0.1842 -0.3147
 2467SOL     OW 9913   1.440   1.064   4.106  0.1447  0.5705 -0.3325
 2467SOL    HW2 9914   1.535   1.063   4.114  0.3898  0.3099 -3.0367
 2467SOL    HW3 9915   1.411   0.987   4.156  1.2987  0.9040  0.8679
 2467SOL    MW4 9916   1.448   1.054   4.114  0.3293  0.5801 -0.5307
 2468SOL     OW 9917   0.897   0.386   4.236  0.0279 -0.0491 -0.0832
 2468SOL    HW2 9918   0.915   0.303   4.281 -0.7667  0.5588  1.3781
 2468SOL    HW3 9919   0.912   0.366   4.144  2.8598 -1.0090  0.5273
 2468SOL    MW4 9920   0.901   0.372   4.230  0.2968 -0.0956  0.1903
 2469SOL     OW 9921   2.979   3.060   4.176  0.4990 -0.2189  0.1291
 2469SOL    HW2 9922   2.930   3.057   4.094  0.5446 -0.2611  0.1034
 2469SOL    HW3 9923   3.070   3.077   4.149  0.4654  0.0545  0.1903
 2469SOL    MW4 9924   2.985   3.062   4.161  0.5004 -0.1888  0.1340
 2470SOL     OW 9925   3.828   3.110   4.165 -0.1157 -0.2658  0.4312
 2470SOL    HW2 9926   3.820   3.022   4.202  0.3098 -0.5010 -0.0334
 2470SOL    HW3 9927   3.766   3.163   4.215  1.3055 -0.3213  2.2954
 2470SOL    MW4 9928   3.819   3.106   4.177  0.1280 -0.3042  0.6161
 2471SOL     OW 9929   3.612   1.897   3.920  0.7232  0.4524  0.3139
 2471SOL    HW2 9930   3.619   1.804   3.899  0.1673  0.3282  0.6761
 2471SOL    HW3 9931   3.529   1.924   3.881  0.0202  0.3815  1.7533
 2471SOL    MW4 9932   3.602   1.888   3.912  0.5572  0.4267  0.5517
 2472SOL     OW 9933   2.109   1.722   4.499 -0.2609  0.2175 -0.1410
 2472SOL    HW2 9934   2.087   1.652   4.560  0.7326 -1.1007 -1.2815
 2472SOL    HW3 9935   2.027   1.738   4.452 -0.1261 -1.1969 -0.8841
 2472SOL    MW4 9936   2.095   1.715   4.501 -0.1118 -0.1432 -0.3891
 2473SOL     OW 9937   2.275   3.266   4.256 -0.0203 -0.4398 -0.5975
 2473SOL    HW2 9938   2.353   3.215   4.233  0.9089  0.6558  0.1258
 2473SOL    HW3 9939   2.202   3.214   4.220  1.1657 -0.3626 -3.2649
 2473SOL    MW4 9940   2.276   3.252   4.248  0.2587 -0.2854 -0.8540
 2474SOL     OW 9941   0.637   3.662   4.251  0.2546  0.0872 -0.4827
 2474SOL    HW2 9942   0.570   3.608   4.208  0.3511 -2.1901  2.0752
 2474SOL    HW3 9943   0.719   3.617   4.231  0.6100  0.6864 -0.3588
 2474SOL    MW4 9944   0.639   3.649   4.243  0.3143 -0.1342 -0.1292
 2475SOL     OW 9945   0.245   3.194   4.719  0.3701  0.3354  0.7272
 2475SOL    HW2 9946   0.165   3.154   4.754 -0.1915  2.5790  2.1636
 2475SOL    HW3 9947   0.298   3.121   4.688 -1.5495 -1.3104  1.2697
 2475SOL    MW4 9948   0.242   3.179   4.720  0.0428  0.4144  0.9885
 2476SOL     OW 9949   3.387   3.247   4.342  0.4714 -0.3104  0.6865
 2476SOL    HW2 9950   3.352   3.210   4.261 -1.6108  1.5356  0.6768
 2476SOL    HW3 9951   3.482   3.241   4.332  0.2376 -0.7814 -1.5731
 2476SOL    MW4 9952   3.395   3.242   4.330  0.1659 -0.1290  0.3872
 2477SOL     OW 9953   2.104   1.356   4.338  0.0252  0.7219 -0.0121
 2477SOL    HW2 9954   2.099   1.434   4.282  0.1260  0.8584  0.1700
 2477SOL    HW3 9955   2.167   1.299   4.293 -0.2204  0.6500 -0.2642
 2477SOL    MW4 9956   2.112   1.359   4.324  0.0064  0.7305 -0.0215
 2478SOL     OW 9957   3.424   2.338   4.660 -0.5488  0.3080  0.7327
 2478SOL    HW2 9958   3.380   2.253   4.667  1.0695 -0.6318 -0.1508
 2478SOL    HW3 9959   3.374   2.396   4.718 -0.7767 -1.6139  2.5049
 2478SOL    MW4 9960   3.411   2.334   4.668 -0.3653 -0.0696  0.8497
 2479SOL     OW 9961   1.792   0.124   3.815  0.1351 -0.1338 -0.0914
 2479SOL    HW2 9962   1.808   0.204   3.866 -0.8181  0.7086 -1.0949
 2479SOL    HW3 9963   1.859   0.062   3.846 -0.0135  0.5739  1.7135
 2479SOL    MW4 9964   1.803   0.126   3.826 -0.0104  0.0707  0.0141
 2480SOL     OW 9965   4.356   2.009   4.502 -0.1130  0.4981 -0.1511
 2480SOL    HW2 9966   4.446   2.006   4.535  0.5327 -0.4124 -1.9486
 2480SOL    HW3 9967   4.317   1.927   4.531 -0.1765  0.6078  0.0781
 2480SOL    MW4 9968   4.363   1.998   4.510 -0.0353  0.3923 -0.3576
 2481SOL     OW 9969   2.067   3.107   3.889 -0.4310  0.1582  0.2443
 2481SOL    HW2 9970   1.993   3.157   3.855 -0.7420  0.1484  0.9020
 2481SOL    HW3 9971   2.144   3.156   3.862 -0.7173  0.7131  0.4352
 2481SOL    MW4 9972   2.067   3.120   3.881 -0.5100  0.2301  0.3560
 2482SOL     OW 9973   3.238   3.526   4.360  0.1770 -0.0433  0.3976
 2482SOL    HW2 9974   3.276   3.444   4.392  1.5464  0.0625 -0.8643
 2482SOL    HW3 9975   3.180   3.499   4.288 -0.9341 -0.0699  1.2992
 2482SOL    MW4 9976   3.236   3.511   4.354  0.2108 -0.0329  0.3505
 2483SOL     OW 9977   3.825   2.067   3.853 -0.2680 -0.3190 -0.1941
 2483SOL    HW2 9978   3.902   2.012   3.868 -1.0235 -1.2108  0.4095
 2483SOL    HW3 9979   3.751   2.014   3.882 -1.1179  0.5366 -0.7863
 2483SOL    MW4 9980   3.826   2.053   3.859 -0.4797 -0.3238 -0.1929
 2484SOL     OW 9981   1.302   1.906   4.587  0.2351 -0.1333  0.1032
 2484SOL    HW2 9982   1.223   1.956   4.571 -0.0574 -0.2551  1.1523
 2484SOL    HW3 9983   1.358   1.964   4.639  0.9861  0.0903 -0.9388
 2484SOL    MW4 9984   1.299   1.920   4.592  0.2958 -0.1199  0.1040
 2485SOL     OW 9985   0.936   0.912   4.245  0.3671 -0.1540  0.0342
 2485SOL    HW2 9986   1.004   0.872   4.192  0.0971 -1.4967  0.6584
 2485SOL    HW3 9987   0.854   0.886   4.203  0.2160  1.4596 -0.7178
 2485SOL    MW4 9988   0.934   0.903   4.233  0.3116 -0.1183  0.0176
 2486SOL     OW 9989   2.294   3.773   4.613 -0.3258 -0.1268 -0.1714
 2486SOL    HW2 9990   2.206   3.779   4.649 -0.5106 -1.7839 -0.2989
 2486SOL    HW3 9991   2.351   3.803   4.684 -0.8612 -0.9032  0.6026
 2486SOL    MW4 9992   2.290   3.777   4.627 -0.4213 -0.4478 -0.0863
 2487SOL     OW 9993   2.238   0.970   4.503 -0.4748  0.2820 -0.6082
 2487SOL    HW2 9994   2.298   1.044   4.502  0.2393 -0.2912 -1.2974
 2487SOL    HW3 9995   2.151   1.009   4.499 -0.1399  1.1072  0.0377
 2487SOL    MW4 9996   2.234   0.985   4.502 -0.3364  0.3152 -0.6142
 2488SOL     OW 9997   3.045   3.467   4.163  0.1177  0.2842  0.1537
 2488SOL    HW2 9998   3.076   3.447   4.075  0.8985  0.8225  0.3031
 2488SOL    HW3 9999   2.979   3.535   4.151  0.3612  0.4934 -0.0023
 2488SOL    MW410000   3.040   3.473   4.150  0.2527  0.3829  0.1526
 2489SOL     OW10001   3.600   2.713   4.201 -0.8462 -0.0159  0.0794
 2489SOL    HW210002   3.624   2.626   4.232  1.1184  0.0594 -1.1391
 2489SOL    HW310003   3.571   2.699   4.111 -2.4430  0.3343  0.5290
 2489SOL    MW410004   3.600   2.700   4.194 -0.7977  0.0401 -0.0224
 2490SOL     OW10005   1.586   0.003   4.869  0.4899 -0.1500 -0.0519
 2490SOL    HW210006   1.604   0.049   4.952 -0.7144  1.1355 -0.4774
 2490SOL    HW310007   1.663   0.021   4.815  0.4792  0.5428  0.1494
 2490SOL    MW410008   1.599   0.012   4.873  0.3295  0.1106 -0.0815
 2491SOL     OW10009   0.360   2.348   4.081 -0.0355 -0.0705 -0.2163
 2491SOL    HW210010   0.347   2.258   4.112 -1.0746 -0.1015 -0.7138
 2491SOL    HW310011   0.455   2.361   4.083  0.0808 -0.9687  0.4465
 2491SOL    MW410012   0.371   2.337   4.086 -0.1572 -0.1931 -0.1936
 2492SOL     OW10013   2.077   3.070   4.611  0.1842  0.4670 -0.1754
 2492SOL    HW210014   1.982   3.086   4.607  0.0769 -0.4109 -1.4930
 2492SOL    HW310015   2.085   2.975   4.600  1.1691  0.3978  1.0612
 2492SOL    MW410016   2.065   3.060   4.609  0.3002  0.3419 -0.1860
 2493SOL     OW10017   0.842   0.785   4.520 -0.3863 -0.1466  0.2574
 2493SOL    HW210018   0.846   0.770   4.425 -1.0728  0.8162  0.0760
 2493SOL    HW310019   0.757   0.825   4.535 -0.6250 -1.0772  1.4027
 2493SOL    MW410020   0.831   0.788   4.509 -0.5085 -0.1423  0.3843
 2494SOL     OW10021   2.400   4.375   4.283  0.2865 -0.5887  0.0780
 2494SOL    HW210022   2.325   4.345   4.232 -0.9675  0.8453  1.0430
 2494SOL    HW310023   2.418   4.463   4.251  1.7444 -1.0398 -0.3476
 2494SOL    MW410024   2.392   4.383   4.272  0.3133 -0.4597  0.1493
 2495SOL     OW10025   1.910   1.274   4.709 -0.3105  0.1346  0.1867
 2495SOL    HW210026   1.888   1.247   4.798 -0.3499  0.9151  0.4258
 2495SOL    HW310027   1.828   1.310   4.675 -0.3013 -0.1911 -0.1691
 2495SOL    MW410028   1.896   1.275   4.717 -0.3145  0.1945  0.1712
 2496SOL     OW10029   1.348   1.164   3.870  0.2891  0.1072 -0.1928
 2496SOL    HW210030   1.425   1.207   3.834  1.0475 -0.3129  0.9163
 2496SOL    HW310031   1.374   1.137   3.958 -1.1694  0.0928  0.2442
 2496SOL    MW410032   1.361   1.166   3.877  0.1968  0.0498  0.0112
 2497SOL     OW10033   1.571   4.352   4.266 -0.0160  0.5695  0.1741
 2497SOL    HW210034   1.499   4.304   4.225 -0.2612 -0.6770  1.9854
 2497SOL    HW310035   1.650   4.308   4.238 -0.0994  0.5679 -0.0526
 2497SOL    MW410036   1.572   4.340   4.257 -0.0594  0.4048  0.3829
 2498SOL     OW10037   2.465   0.796   4.139 -0.4268 -0.6527  0.1121
 2498SOL    HW210038   2.462   0.703   4.159  0.7607 -0.5566  0.7807
 2498SOL    HW310039   2.548   0.826   4.176 -1.7087  1.0850  1.6574
 2498SOL    MW410040   2.476   0.788   4.146 -0.4392 -0.4107  0.4039
 2499SOL     OW10041   0.242   2.349   3.827  0.0735  0.0732 -0.0876
 2499SOL    HW210042   0.280   2.346   3.915  0.2070  1.4797 -0.0910
 2499SOL    HW310043   0.237   2.257   3.800 -0.4792 -0.4046  1.5998
 2499SOL    MW410044   0.246   2.337   3.835  0.0182  0.1957  0.1347
 2500SOL     OW10045   4.295   3.856   4.125  0.1578 -0.1349 -0.2581
 2500SOL    HW210046   4.215   3.888   4.166  0.8006  0.3006  0.6806
 2500SOL    HW310047   4.313   3.774   4.170  0.6719  0.1671  0.0916
 2500SOL    MW410048   4.287   3.850   4.137  0.3104 -0.0377 -0.0887
 2501SOL     OW10049   3.907   4.172   4.762 -0.3839  0.0912  0.5992
 2501SOL    HW210050   3.847   4.113   4.715 -0.1138 -0.6246  1.1473
 2501SOL    HW310051   3.850   4.232   4.810 -0.6791 -1.5795  2.3739
 2501SOL    MW410052   3.892   4.172   4.762 -0.3874 -0.2236  0.9055
 2502SOL     OW10053   4.478   2.167   4.739  0.0321 -0.6570 -0.4851
 2502SOL    HW210054   4.561   2.122   4.720  0.8348  0.7119 -0.3497
 2502SOL    HW310055   4.410   2.103   4.718  1.1100 -1.5523 -1.3196
 2502SOL    MW410056   4.480   2.153   4.733  0.2799 -0.5944 -0.5779
 2503SOL     OW10057   0.577   2.536   4.558 -0.6549  0.1965 -0.4211
 2503SOL    HW210058   0.646   2.560   4.621  0.2024  0.1425 -1.3202
 2503SOL    HW310059   0.500   2.520   4.612 -0.3846  1.7743  0.4889
 2503SOL    MW410060   0.576   2.537   4.574 -0.5062  0.3974 -0.4196
 2504SOL     OW10061   0.576   1.640   4.604 -0.1181 -0.3792 -0.3489
 2504SOL    HW210062   0.541   1.552   4.589 -0.7287 -0.1835 -0.0846
 2504SOL    HW310063   0.522   1.696   4.549 -0.6850  0.0191  0.6269
 2504SOL    MW410064   0.564   1.635   4.594 -0.2735 -0.3006 -0.1850
 2505SOL     OW10065   0.813   4.395   4.518 -0.4021  0.2176  0.3950
 2505SOL    HW210066   0.805   4.302   4.539 -0.4276 -0.0718 -0.8668
 2505SOL    HW310067   0.772   4.404   4.432 -0.3474  1.3842  0.4828
 2505SOL    MW410068   0.806   4.384   4.509 -0.3983  0.3328  0.2398
 2506SOL     OW10069   1.212   0.825   4.664 -0.2658  0.0581 -0.6965
 2506SOL    HW210070   1.147   0.878   4.618  0.3460 -0.2302 -1.9308
 2506SOL    HW310071   1.203   0.738   4.625 -1.2569 -0.7537  1.3050
 2506SOL    MW410072   1.202   0.820   4.653 -0.3159 -0.0870 -0.5951
 2507SOL     OW10073   1.983   2.098   4.443 -0.1253  0.2252  0.2673
 2507SOL    HW210074   1.893   2.082   4.470  0.1863 -1.5826  0.3047
 2507SOL    HW310075   2.036   2.056   4.511  0.7533  1.5998  0.4469
 2507SOL    MW410076   1.978   2.090   4.456  0.0317  0.1678  0.2966
 2508SOL     OW10077   1.536   1.517   4.158  0.4735 -0.3487 -0.6542
 2508SOL    HW210078   1.494   1.433   4.179 -1.5272  0.9368  0.6790
 2508SOL    HW310079   1.564   1.508   4.067 -0.1285 -2.2770 -0.6810
 2508SOL    MW410080   1.534   1.504   4.149  0.1301 -0.4334 -0.4821
 2509SOL     OW10081   0.255   1.670   4.770  0.1294  0.2053 -0.3351
 2509SOL    HW210082   0.300   1.695   4.689  1.8866 -0.1845  0.5177
 2509SOL    HW310083   0.251   1.574   4.767  1.6418  0.1002  0.8075
 2509SOL    MW410084   0.260   1.660   4.759  0.5608  0.1401 -0.0720
 2510SOL     OW10085   1.784   1.974   4.152  0.4243  0.5028  0.7944
 2510SOL    HW210086   1.776   1.944   4.061  0.5689 -0.0930  0.9734
 2510SOL    HW310087   1.869   2.018   4.155 -0.4163  2.2141  0.1783
 2510SOL    MW410088   1.794   1.976   4.140  0.3326  0.6500  0.7367
 2511SOL     OW10089   2.944   2.342   3.883  0.0334  0.0769 -0.0353
 2511SOL    HW210090   2.926   2.343   3.977  1.8039  0.5220  0.3313
 2511SOL    HW310091   2.940   2.249   3.859  0.1446 -0.0946  0.6031
 2511SOL    MW410092   2.941   2.330   3.892  0.2816  0.1130  0.0973
 2512SOL     OW10093   2.778   3.678   4.541  0.1030 -0.2545 -0.2643
 2512SOL    HW210094   2.714   3.662   4.472 -0.2324 -1.2644  0.2649
 2512SOL    HW310095   2.793   3.591   4.580  1.0134  0.1450  0.2907
 2512SOL    MW410096   2.772   3.664   4.537  0.1788 -0.3352 -0.1206
 2513SOL     OW10097   3.963   1.857   4.544  0.3016 -0.2266  0.2777
 2513SOL    HW210098   3.908   1.936   4.547 -0.1669 -0.6070  1.9832
 2513SOL    HW310099   3.903   1.785   4.562  1.3193 -0.6624  1.9821
 2513SOL    MW410100   3.948   1.858   4.546  0.3741 -0.3343  0.7277
 2514SOL     OW10101   4.465   4.006   4.281 -0.1444  0.0609  0.1118
 2514SOL    HW210102   4.472   4.095   4.248 -0.3940  0.3144  0.7187
 2514SOL    HW310103   4.392   3.968   4.233  1.7130 -0.7544 -2.1818
 2514SOL    MW410104   4.456   4.012   4.271  0.0677 -0.0129 -0.1106
 2515SOL     OW10105   1.094   2.143   4.556  0.7443  0.2828 -0.3727
 2515SOL    HW210106   1.106   2.138   4.461  1.5601 -1.2751 -0.2060
 2515SOL    HW310107   1.025   2.079   4.575  1.6562 -0.5181  0.2556
 2515SOL    MW410108   1.086   2.134   4.546  0.9722 -0.0284 -0.2680
 2516SOL     OW10109   2.429   4.643   4.190  0.3730 -0.0731  0.1185
 2516SOL    HW210110   2.504   4.688   4.230  0.4721  0.0460 -0.2055
 2516SOL    HW310111   2.353   4.693   4.220  0.6063  1.5652 -1.8971
 2516SOL    MW410112   2.429   4.656   4.200  0.4168  0.1588 -0.1898
 2517SOL     OW10113   1.071   3.911   4.166 -0.2313  0.2466 -0.1003
 2517SOL    HW210114   1.144   3.944   4.219 -2.1475  1.0669  2.1635
 2517SOL    HW310115   1.066   3.818   4.188 -0.7660  0.5002  0.9301
 2517SOL    MW410116   1.080   3.903   4.176 -0.5547  0.3884  0.3343
 2518SOL     OW10117   4.299   0.494   4.165  0.2097  0.2717  0.2932
 2518SOL    HW210118   4.214   0.468   4.128  0.2373 -0.3908  0.6838
 2518SOL    HW310119   4.353   0.415   4.158  0.6684  0.5709  0.4280
 2518SOL    MW410120   4.295   0.480   4.159  0.2742  0.2237  0.3624
 2519SOL     OW10121   0.683   0.032   4.161  0.1104  1.0489  0.0173
 2519SOL    HW210122   0.660   0.017   4.069  0.2750 -0.2423  0.1813
 2519SOL    HW310123   0.611   0.084   4.196 -1.0064 -0.2777 -0.2878
 2519SOL    MW410124   0.671   0.037   4.153 -0.0152  0.7038 -0.0014
 2520SOL     OW10125   0.460   0.167   4.247 -0.1091 -0.3000 -0.0878
 2520SOL    HW210126   0.374   0.126   4.255  0.3945 -1.4099 -0.3922
 2520SOL    HW310127   0.486   0.185   4.338 -0.9513  0.6649 -0.0230
 2520SOL    MW410128   0.452   0.164   4.260 -0.1538 -0.3191 -0.1187
 2521SOL     OW10129   1.773   4.006   3.775  0.1673  0.0084  0.1440
 2521SOL    HW210130   1.692   3.968   3.811  0.6471 -2.3426 -1.1683
 2521SOL    HW310131   1.842   3.947   3.804  1.2315  1.1084 -0.1262
 2521SOL    MW410132   1.771   3.993   3.784  0.3711 -0.1571 -0.0646
 2522SOL     OW10133   1.940   4.212   4.713  0.6291 -0.0575 -0.0437
 2522SOL    HW210134   2.026   4.217   4.753  1.4470  0.1121 -1.8042
 2522SOL    HW310135   1.948   4.144   4.646  0.1943  1.8694 -2.1113
 2522SOL    MW410136   1.952   4.203   4.709  0.6796  0.2189 -0.5488
 2523SOL     OW10137   3.808   3.232   4.581 -0.4743 -0.2982 -0.1785
 2523SOL    HW210138   3.903   3.221   4.588 -0.3787  1.1402  0.9041
 2523SOL    HW310139   3.772   3.145   4.601  0.5628 -0.6003  0.4011
 2523SOL    MW410140   3.816   3.219   4.584 -0.3250 -0.1483  0.0405
 2524SOL     OW10141   2.255   2.451   4.228  0.2756 -0.1570 -0.1486
 2524SOL    HW210142   2.261   2.418   4.318  0.2272 -0.9042 -0.4202
 2524SOL    HW310143   2.340   2.429   4.189  1.3116  2.4346  0.4693
 2524SOL    MW410144   2.267   2.444   4.235  0.4060  0.0863 -0.1025
 2525SOL     OW10145   1.337   1.712   4.220  0.3512 -0.3880 -0.0471
 2525SOL    HW210146   1.345   1.703   4.315  1.3197  0.1333 -0.0688
 2525SOL    HW310147   1.406   1.657   4.184  0.9758  0.5969 -0.3954
 2525SOL    MW410148   1.347   1.704   4.228  0.5614 -0.1893 -0.0958
 2526SOL     OW10149   2.760   1.146   4.127 -0.5543 -0.2972 -0.7152
 2526SOL    HW210150   2.821   1.173   4.196 -0.0871 -0.2646 -1.1434
 2526SOL    HW310151   2.678   1.190   4.149 -0.4859 -0.5034 -0.0198
 2526SOL    MW410152   2.758   1.155   4.139 -0.4835 -0.3202 -0.6800
 2527SOL     OW10153   0.646   0.473   4.515 -0.1798 -0.3976 -0.1700
 2527SOL    HW210154   0.726   0.501   4.560 -1.4330  1.4402  0.9931
 2527SOL    HW310155   0.657   0.503   4.425 -0.4296  1.7445  0.4753
 2527SOL    MW410156   0.658   0.481   4.509 -0.3781  0.1275  0.0687
 2528SOL     OW10157   2.180   4.276   4.162 -0.1532 -0.7134 -0.4120
 2528SOL    HW210158   2.109   4.321   4.209  0.0897  0.2637 -0.9630
 2528SOL    HW310159   2.174   4.185   4.191  1.2997  0.2232  3.1930
 2528SOL    MW410160   2.170   4.270   4.172  0.0703 -0.4606 -0.0095
 2529SOL     OW10161   0.414   2.742   4.083  0.1618  0.0008 -0.2542
 2529SOL    HW210162   0.357   2.819   4.089 -1.7056 -1.3884  0.2065
 2529SOL    HW310163   0.496   2.770   4.124  0.0489  2.2264 -1.4460
 2529SOL    MW410164   0.417   2.756   4.089 -0.0995  0.1111 -0.3510
 2530SOL     OW10165   4.081   0.108   4.493 -0.2231 -0.2024  0.4571
 2530SOL    HW210166   3.998   0.144   4.525 -0.2533 -0.3053  0.4935
 2530SOL    HW310167   4.066   0.092   4.399 -0.2455 -0.2263  0.4650
 2530SOL    MW410168   4.068   0.111   4.484 -0.2298 -0.2191  0.4630
 2531SOL     OW10169   4.046   4.237   3.876 -0.1090  0.0241  0.1660
 2531SOL    HW210170   4.042   4.152   3.833 -1.3703  0.0463  0.2418
 2531SOL    HW310171   4.130   4.274   3.848 -0.5423 -0.3080 -1.6026
 2531SOL    MW410172   4.057   4.231   3.867 -0.3328 -0.0167 -0.0572
 2532SOL     OW10173   4.251   1.249   4.272  0.1124 -0.3108 -0.1039
 2532SOL    HW210174   4.339   1.214   4.262  0.4632  0.8039 -0.9115
 2532SOL    HW310175   4.196   1.186   4.224  0.7027  0.0417 -1.2717
 2532SOL    MW410176   4.255   1.236   4.264  0.2370 -0.1172 -0.3643
 2533SOL     OW10177   3.451   2.903   4.489 -0.2942 -0.3370 -0.2038
 2533SOL    HW210178   3.385   2.962   4.527 -0.9218 -0.7051 -0.7226
 2533SOL    HW310179   3.429   2.899   4.396 -0.5823 -1.8189 -0.0795
 2533SOL    MW410180   3.439   2.911   4.482 -0.4148 -0.5813 -0.2556
 2534SOL     OW10181   1.393   4.143   4.755  0.3087 -0.1118  0.0284
 2534SOL    HW210182   1.371   4.236   4.766 -0.3124 -0.0303 -1.7027
 2534SOL    HW310183   1.489   4.140   4.763  0.4614  0.8950 -1.2199
 2534SOL    MW410184   1.403   4.155   4.758  0.2469  0.0310 -0.3648
 2535SOL     OW10185   2.622   3.370   4.600 -0.3066  0.1987 -0.4916
 2535SOL    HW210186   2.676   3.423   4.658 -0.1965  0.4550 -0.8259
 2535SOL    HW310187   2.542   3.421   4.587 -0.4854 -0.0226 -0.2744
 2535SOL    MW410188   2.619   3.383   4.606 -0.3157  0.2034 -0.5064
 2536SOL     OW10189   1.163   3.051   4.479  0.0030 -0.2449  0.1417
 2536SOL    HW210190   1.088   3.046   4.538 -0.2532  0.0913 -0.1564
 2536SOL    HW310191   1.125   3.042   4.392  0.4730 -1.6511  0.0651
 2536SOL    MW410192   1.148   3.049   4.475  0.0312 -0.3860  0.0920
 2537SOL     OW10193   0.237   4.661   4.228  0.4782  0.4065 -0.0923
 2537SOL    HW210194   0.155   4.692   4.267  0.0431  1.2628 -1.6486
 2537SOL    HW310195   0.238   4.567   4.245 -2.2033 -0.1102 -2.4248
 2537SOL    MW410196   0.226   4.653   4.235  0.0670  0.4516 -0.6051
 2538SOL     OW10197   1.679   2.209   4.506 -0.1640  0.5659 -0.2663
 2538SOL    HW210198   1.638   2.178   4.426 -0.5912  0.0085  0.1584
 2538SOL    HW310199   1.671   2.304   4.502 -0.3017  0.5301 -0.8226
 2538SOL    MW410200   1.672   2.218   4.495 -0.2385  0.4878 -0.2837
 2539SOL     OW10201   2.646   0.117   4.284 -0.2695 -0.5325  0.7145
 2539SOL    HW210202   2.662   0.205   4.250  0.3573 -0.0216  2.2859
 2539SOL    HW310203   2.728   0.071   4.270 -0.6432 -0.9261 -0.2387
 2539SOL    MW410204   2.659   0.122   4.278 -0.2358 -0.5170  0.7963
 2540SOL     OW10205   4.292   4.651   4.132 -0.4512 -0.3662 -0.1494
 2540SOL    HW210206   4.318   4.635   4.041 -0.7489 -2.2092  0.0781
 2540SOL    HW310207   4.281   4.564   4.170 -0.2981  0.3903  1.6741
 2540SOL    MW410208   4.294   4.638   4.125 -0.4706 -0.5097  0.1211
 2541SOL     OW10209   0.355   2.201   4.437 -0.1354 -0.3904  0.0474
 2541SOL    HW210210   0.414   2.171   4.506 -0.9562 -0.1449  0.8698
 2541SOL    HW310211   0.331   2.290   4.462  0.3646  0.0749 -1.1013
 2541SOL    MW410212   0.359   2.208   4.449 -0.1777 -0.2966  0.0043
 2542SOL     OW10213   0.459   1.384   4.640  0.0990  0.6645 -0.3433
 2542SOL    HW210214   0.457   1.398   4.735 -0.0143 -1.6719  0.0260
 2542SOL    HW310215   0.368   1.362   4.617  0.2258  0.7209 -0.8993
 2542SOL    MW410216   0.446   1.383   4.650  0.1008  0.3636 -0.3681
 2543SOL     OW10217   0.902   1.943   4.607 -0.4994  0.0104 -0.5105
 2543SOL    HW210218   0.908   1.855   4.571 -1.3619  0.2312 -1.1875
 2543SOL    HW310219   0.852   1.993   4.543 -1.6676  0.5189  0.7599
 2543SOL    MW410220   0.897   1.938   4.594 -0.7674  0.1067 -0.4325
 2544SOL     OW10221   1.563   4.408   4.999  0.3760  0.1687 -0.3593
 2544SOL    HW210222   1.467   4.401   5.001  0.3816  0.3313  0.6553
 2544SOL    HW310223   1.579   4.496   4.966  0.1428  0.7870  1.1211
 2544SOL    MW410224   1.552   4.419   4.995  0.3459  0.2718 -0.0305
 2545SOL     OW10225   2.292   2.710   4.142 -0.1704 -0.1323  0.4741
 2545SOL    HW210226   2.286   2.621   4.177  1.3339 -0.1036  0.8466
 2545SOL    HW310227   2.362   2.751   4.193 -0.6693  1.1944  0.1304
 2545SOL    MW410228   2.300   2.704   4.154 -0.0381  0.0463  0.4778
 2546SOL     OW10229   1.229   3.311   4.536  0.1593  0.4640  0.2919
 2546SOL    HW210230   1.152   3.335   4.588  0.4809  1.6759  0.2278
 2546SOL    HW310231   1.209   3.224   4.503 -1.6354  1.1669 -0.5486
 2546SOL    MW410232   1.216   3.303   4.538 -0.0352  0.7167  0.1726
 2547SOL     OW10233   1.826   2.717   4.625 -0.2646  0.4064  0.0914
 2547SOL    HW210234   1.817   2.681   4.713  1.8540 -0.5110 -0.0158
 2547SOL    HW310235   1.787   2.650   4.568 -0.8776  0.6116  0.2708
 2547SOL    MW410236   1.820   2.703   4.629 -0.0659  0.3126  0.1011
 2548SOL     OW10237   3.840   4.359   4.237 -0.4173  0.3472  0.0170
 2548SOL    HW210238   3.917   4.325   4.191 -0.2374  1.4987 -0.5650
 2548SOL    HW310239   3.867   4.362   4.328  0.3929  1.1513 -0.2376
 2548SOL    MW410240   3.854   4.355   4.243 -0.2863  0.6051 -0.0935
 2549SOL     OW10241   2.486   0.515   4.185 -0.0163  0.0845 -0.4012
 2549SOL    HW210242   2.412   0.469   4.147 -0.6732  1.0310 -0.2825
 2549SOL    HW310243   2.472   0.510   4.279  2.0486 -2.9855 -0.1962
 2549SOL    MW410244   2.475   0.508   4.192  0.1698 -0.1957 -0.3586
 2550SOL     OW10245   2.736   0.892   4.240  0.0480 -0.0580 -0.0227
 2550SOL    HW210246   2.746   0.916   4.332 -1.4590  1.1232 -0.1460
 2550SOL    HW310247   2.738   0.975   4.194 -1.5772 -0.4338 -0.8191
 2550SOL    MW410248   2.737   0.906   4.246 -0.3653  0.0483 -0.1435
 2551SOL     OW10249   1.411   3.466   4.710 -0.2278  0.1022 -0.2296
 2551SOL    HW210250   1.368   3.474   4.796 -0.2179  2.5798 -0.4198
 2551SOL    HW310251   1.361   3.397   4.665 -0.5412 -0.8882  1.5594
 2551SOL    MW410252   1.399   3.458   4.716 -0.2677  0.2985 -0.0186
 2552SOL     OW10253   3.843   2.753   4.569 -0.3569 -1.0085  0.1348
 2552SOL    HW210254   3.788   2.675   4.572 -0.6685 -0.8306 -0.7738
 2552SOL    HW310255   3.930   2.722   4.594 -0.2520 -1.8496 -1.2514
 2552SOL    MW410256   3.847   2.739   4.573 -0.3843 -1.0962 -0.1678
 2553SOL     OW10257   4.068   3.453   3.886 -0.2730  0.1528 -0.1070
 2553SOL    HW210258   4.063   3.359   3.867 -1.0165  0.0995  0.3367
 2553SOL    HW310259   4.074   3.457   3.982  1.7131  0.4872 -0.2295
 2553SOL    MW410260   4.068   3.441   3.896 -0.1087  0.1900 -0.0644
 2554SOL     OW10261   2.020   0.458   3.763 -0.2405 -0.0033  0.1365
 2554SOL    HW210262   2.013   0.453   3.668 -1.4501 -1.8010  0.2997
 2554SOL    HW310263   2.104   0.417   3.783  0.7341  1.7446 -0.2339
 2554SOL    MW410264   2.030   0.452   3.753 -0.2713 -0.0099  0.1094
 2555SOL     OW10265   3.584   0.852   4.268 -0.5448 -0.0833 -0.0976
 2555SOL    HW210266   3.518   0.809   4.214 -0.6106  0.1007 -0.1650
 2555SOL    HW310267   3.585   0.942   4.237 -1.3483  0.2926  0.9383
 2555SOL    MW410268   3.576   0.858   4.256 -0.6595 -0.0095  0.0300
 2556SOL     OW10269   1.688   1.382   4.569 -0.2766  0.1377 -0.4803
 2556SOL    HW210270   1.683   1.466   4.523  0.2475 -0.9197 -2.5623
 2556SOL    HW310271   1.601   1.344   4.558 -0.1552 -0.1087 -0.6054
 2556SOL    MW410272   1.676   1.388   4.561 -0.1915 -0.0343 -0.7710
 2557SOL     OW10273   3.831   2.847   4.302 -0.0007 -0.0770 -0.3249
 2557SOL    HW210274   3.757   2.797   4.267  1.2524 -1.7173 -0.6638
 2557SOL    HW310275   3.839   2.817   4.392  0.4821 -0.1750 -0.3995
 2557SOL    MW410276   3.822   2.837   4.309  0.2282 -0.3066 -0.3800
 2558SOL     OW10277   0.897   4.307   4.162 -0.0262  0.3556  0.2021
 2558SOL    HW210278   0.817   4.358   4.181  0.5754  0.8128  1.5924
 2558SOL    HW310279   0.882   4.272   4.074 -0.7482  2.3991 -0.5408
 2558SOL    MW410280   0.884   4.309   4.153 -0.0421  0.6857  0.2871
 2559SOL     OW10281   3.362   4.385   4.222 -0.2157  0.0209  0.1746
 2559SOL    HW210282   3.365   4.384   4.318  1.0093  1.2434  0.1760
 2559SOL    HW310283   3.280   4.342   4.200 -0.8463  0.3323  1.8059
 2559SOL    MW410284   3.352   4.379   4.232 -0.1376  0.2232  0.3896
 2560SOL     OW10285   2.059   0.497   4.316 -0.5571 -0.2061 -0.0211
 2560SOL    HW210286   1.976   0.460   4.286 -1.0727  0.8260  0.1061
 2560SOL    HW310287   2.126   0.446   4.270 -1.2921  0.1267 -1.4745
 2560SOL    MW410288   2.057   0.485   4.306 -0.7219 -0.0260 -0.1960
 2561SOL     OW10289   4.346   1.886   4.241  0.3495  0.4408  0.0467
 2561SOL    HW210290   4.362   1.920   4.329 -1.3067 -0.0807  0.5607
 2561SOL    HW310291   4.386   1.799   4.241  0.7037  0.6020  0.1484
 2561SOL    MW410292   4.353   1.879   4.253  0.1779  0.3932  0.1283
 2562SOL     OW10293   1.491   0.320   4.658  0.0291 -0.1625 -0.2774
 2562SOL    HW210294   1.410   0.284   4.620 -0.2631 -1.3526  1.3974
 2562SOL    HW310295   1.461   0.369   4.735  0.7102  1.2434 -0.9012
 2562SOL    MW410296   1.476   0.322   4.663  0.0805 -0.1340 -0.1388
 2563SOL     OW10297   3.157   2.684   3.911  0.3464  0.4257  0.1684
 2563SOL    HW210298   3.172   2.677   4.005  0.3129  0.2310  0.1592
 2563SOL    HW310299   3.172   2.596   3.877 -1.2390  0.1249  0.2163
 2563SOL    MW410300   3.161   2.672   3.919  0.1326  0.3600  0.1733
 2564SOL     OW10301   2.699   1.190   4.500 -0.4138  0.5664 -0.0638
 2564SOL    HW210302   2.707   1.098   4.523 -1.1361  0.8206  1.2700
 2564SOL    HW310303   2.771   1.207   4.440 -0.3320 -0.8866 -0.3833
 2564SOL    MW410304   2.709   1.180   4.495 -0.4981  0.4082  0.0701
 2565SOL     OW10305   2.589   0.026   4.538 -0.2534 -0.2000  0.1822
 2565SOL    HW210306   2.596   0.059   4.448 -1.5131  1.5579  0.7032
 2565SOL    HW310307   2.576  -0.069   4.527 -0.5738  0.0132 -1.5079
 2565SOL    MW410308   2.588   0.017   4.525 -0.4621  0.0601  0.0286
 2566SOL     OW10309   3.302   2.641   4.517  0.0268  0.1326  0.0729
 2566SOL    HW210310   3.222   2.692   4.522  0.0057  0.1232 -0.1721
 2566SOL    HW310311   3.372   2.706   4.509 -0.0207  0.1188 -0.4987
 2566SOL    MW410312   3.301   2.656   4.517  0.0174  0.1295 -0.0353
 2567SOL     OW10313   4.137   2.724   4.635 -0.1368 -0.5669 -0.7568
 2567SOL    HW210314   4.192   2.662   4.682 -0.0358 -0.6815 -1.0255
 2567SOL    HW310315   4.169   2.721   4.545  0.4137  0.4779 -0.6086
 2567SOL    MW410316   4.149   2.715   4.630 -0.0510 -0.4444 -0.7730
 2568SOL     OW10317   3.666   3.257   4.331  0.3839  0.0965 -0.3633
 2568SOL    HW210318   3.719   3.247   4.410  0.4676 -0.0811 -0.4408
 2568SOL    HW310319   3.679   3.348   4.305 -1.6625  0.8688  1.2577
 2568SOL    MW410320   3.675   3.267   4.338  0.1249  0.1748 -0.1593
 2569SOL     OW10321   4.223   0.542   4.431 -0.2950  0.3960 -0.1891
 2569SOL    HW210322   4.232   0.457   4.474 -0.1634  0.0321 -0.9371
 2569SOL    HW310323   4.258   0.528   4.343 -0.7986  1.0751 -0.4955
 2569SOL    MW410324   4.229   0.529   4.425 -0.3443  0.4376 -0.3281
 2570SOL     OW10325   4.338   2.321   4.158 -0.0944 -0.0339  0.0395
 2570SOL    HW210326   4.324   2.313   4.252  0.4161  0.0141  0.1237
 2570SOL    HW310327   4.354   2.414   4.144 -0.8356  0.0618 -0.1921
 2570SOL    MW410328   4.339   2.332   4.169 -0.1249 -0.0150  0.0205
 2571SOL     OW10329   2.522   1.280   4.252 -0.1248 -0.1951  0.3971
 2571SOL    HW210330   2.434   1.266   4.217 -0.1226 -0.0938  0.3521
 2571SOL    HW310331   2.511   1.276   4.347 -0.2857  0.4402  0.4093
 2571SOL    MW410332   2.509   1.278   4.260 -0.1457 -0.0978  0.3929
 2572SOL     OW10333   4.032   3.891   4.522  0.2801 -0.1297 -0.0111
 2572SOL    HW210334   4.046   3.913   4.430  0.5143 -0.2853 -0.0146
 2572SOL    HW310335   3.951   3.936   4.546  0.2524 -0.0388 -0.2756
 2572SOL    MW410336   4.023   3.900   4.513  0.3080 -0.1383 -0.0463
 2573SOL     OW10337   3.497   1.699   4.677 -0.1908 -0.0788 -0.3644
 2573SOL    HW210338   3.531   1.771   4.624 -0.6349 -0.3147 -0.9845
 2573SOL    HW310339   3.402   1.712   4.678 -0.1370  0.2021  0.7953
 2573SOL    MW410340   3.489   1.710   4.670 -0.2422 -0.0728 -0.2937
 2574SOL     OW10341   0.256   3.608   4.263 -0.3025 -0.5347  0.0678
 2574SOL    HW210342   0.292   3.627   4.350 -1.3400 -0.5948  0.5184
 2574SOL    HW310343   0.231   3.693   4.227 -1.3511 -0.6612  0.4881
 2574SOL    MW410344   0.257   3.622   4.270 -0.5777 -0.5591  0.1826
 2575SOL     OW10345   0.697   0.819   4.140 -0.0848  0.0629  0.3381
 2575SOL    HW210346   0.692   0.737   4.190 -3.2232 -0.3093 -0.4479
 2575SOL    HW310347   0.614   0.862   4.158  0.3540  1.7347 -1.5169
 2575SOL    MW410348   0.685   0.814   4.149 -0.4410  0.2344 -0.0105
 2576SOL     OW10349   3.563   3.995   4.241  0.3746  0.4546 -0.0627
 2576SOL    HW210350   3.640   3.941   4.219 -0.0811 -0.0079 -0.5339
 2576SOL    HW310351   3.566   4.067   4.178  0.6628  0.6638  0.1931
 2576SOL    MW410352   3.574   3.997   4.229  0.3524  0.4213 -0.0911
 2577SOL     OW10353   3.413   0.978   4.744  0.8134  0.1375  0.5049
 2577SOL    HW210354   3.506   0.957   4.738  0.8415 -0.0659  1.5210
 2577SOL    HW310355   3.404   1.060   4.695  1.4597 -0.0154  0.1153
 2577SOL    MW410356   3.424   0.986   4.737  0.9027  0.0905  0.5875
 2578SOL     OW10357   3.885   3.617   4.241  0.3380 -0.2723  0.0824
 2578SOL    HW210358   3.968   3.599   4.197  0.4353 -0.5329  0.3720
 2578SOL    HW310359   3.907   3.618   4.335  0.0015 -0.4039  0.1631
 2578SOL    MW410360   3.899   3.615   4.248  0.3066 -0.3240  0.1311
 2579SOL     OW10361   1.101   2.334   4.106  0.5643 -0.1742 -0.5266
 2579SOL    HW210362   1.179   2.362   4.153  0.8238  0.5093 -1.3420
 2579SOL    HW310363   1.032   2.392   4.138  0.6902  0.1318 -0.8029
 2579SOL    MW410364   1.102   2.346   4.116  0.6151 -0.0434 -0.6704
 2580SOL     OW10365   4.256   2.983   4.643  0.2126  0.3234  0.0698
 2580SOL    HW210366   4.177   3.030   4.616 -0.7148 -2.7603 -2.9350
 2580SOL    HW310367   4.224   2.897   4.671  2.3121 -0.1253  1.1655
 2580SOL    MW410368   4.241   2.978   4.643  0.3676 -0.1428 -0.1826
 2581SOL     OW10369   1.574   0.803   4.614 -0.2125  0.5956  0.1242
 2581SOL    HW210370   1.558   0.720   4.568 -1.7186  0.9821 -0.1014
 2581SOL    HW310371   1.665   0.823   4.596  0.4627 -1.5003  0.9909
 2581SOL    MW410372   1.584   0.794   4.606 -0.3220  0.3700  0.2093
 2582SOL     OW10373   2.414   3.881   4.834 -0.2478  0.2175  0.2999
 2582SOL    HW210374   2.509   3.895   4.827 -0.2096  0.2484  0.8507
 2582SOL    HW310375   2.381   3.961   4.873 -0.6296  0.5852 -0.7606
 2582SOL    MW410376   2.422   3.893   4.838 -0.2930  0.2701  0.2332
 2583SOL     OW10377   4.259   1.509   4.204  0.3034  0.0894  0.0898
 2583SOL    HW210378   4.257   1.416   4.227  0.3700  0.5813  2.2136
 2583SOL    HW310379   4.272   1.510   4.109 -2.2519 -2.1086 -0.3789
 2583SOL    MW410380   4.260   1.496   4.195 -0.0253 -0.1357  0.3085
 2584SOL     OW10381   2.423   0.479   4.463  0.2076  0.3932  0.5079
 2584SOL    HW210382   2.370   0.400   4.477  0.0626  0.3397 -0.3479
 2584SOL    HW310383   2.371   0.549   4.502  0.2239  0.1051  1.0528
 2584SOL    MW410384   2.409   0.478   4.470  0.1905  0.3481  0.4668
 2585SOL     OW10385   0.869   2.451   4.186 -0.6341  0.2027 -0.0228
 2585SOL    HW210386   0.782   2.435   4.148  0.0890  0.3789 -1.8212
 2585SOL    HW310387   0.874   2.546   4.195  0.3896  0.4334 -2.5335
 2585SOL    MW410388   0.858   2.461   4.182 -0.4036  0.2563 -0.5913
 2586SOL     OW10389   1.812   2.741   4.138  0.4073  0.1542 -0.5818
 2586SOL    HW210390   1.809   2.740   4.043  1.0555  1.5170 -0.6256
 2586SOL    HW310391   1.899   2.774   4.159  0.3925 -0.4497  0.4899
 2586SOL    MW410392   1.823   2.745   4.128  0.4909  0.2544 -0.4458
 2587SOL     OW10393   4.422   0.956   4.665  0.5046 -0.3736 -0.3464
 2587SOL    HW210394   4.462   0.897   4.601  0.4058  0.8303 -1.5605
 2587SOL    HW310395   4.338   0.915   4.687  0.4705 -0.7423 -1.1259
 2587SOL    MW410396   4.416   0.943   4.659  0.4873 -0.2634 -0.6094
 2588SOL     OW10397   3.427   3.962   4.657  0.3548 -0.0616 -0.3358
 2588SOL    HW210398   3.477   3.881   4.646 -0.7336 -0.9397  1.1014
 2588SOL    HW310399   3.344   3.946   4.613 -0.8102 -0.6296  2.0092
 2588SOL    MW410400   3.423   3.949   4.649  0.0575 -0.2522  0.1636
 2589SOL     OW10401   4.033   0.846   4.250  0.0782  0.3720 -0.0704
 2589SOL    HW210402   4.118   0.813   4.222 -0.1781 -0.9666  0.6932
 2589SOL    HW310403   4.021   0.810   4.338 -1.3731  0.3692 -0.2553
 2589SOL    MW410404   4.042   0.837   4.258 -0.1464  0.1950  0.0057
 2590SOL     OW10405   0.524   0.210   4.519 -0.3323  0.3326  0.1718
 2590SOL    HW210406   0.568   0.295   4.513  1.2695 -0.6083 -1.9636
 2590SOL    HW310407   0.595   0.146   4.526 -1.4812 -0.9199  0.6881
 2590SOL    MW410408   0.539   0.213   4.519 -0.2726  0.0433 -0.0424
 2591SOL     OW10409   3.255   4.384   4.701 -0.0756  0.2937 -0.1456
 2591SOL    HW210410   3.181   4.344   4.656 -0.5486 -0.4947  1.2967
 2591SOL    HW310411   3.220   4.466   4.736 -0.4684 -0.4102  1.1308
 2591SOL    MW410412   3.241   4.389   4.700 -0.1900  0.0973  0.2131
 2592SOL     OW10413   1.324   3.994   4.304 -0.6975  0.1690  0.3338
 2592SOL    HW210414   1.358   3.935   4.237  0.2299 -0.0996  1.0214
 2592SOL    HW310415   1.338   4.081   4.268  2.6295  0.1497  1.4292
 2592SOL    MW410416   1.330   3.998   4.291 -0.1363  0.1307  0.5693
 2593SOL     OW10417   1.592   4.635   4.201 -0.0649  0.1441  0.2937
 2593SOL    HW210418   1.580   4.627   4.107  1.5382 -0.6202  0.1383
 2593SOL    HW310419   1.599   4.545   4.232 -1.1189  0.3655  1.2313
 2593SOL    MW410420   1.591   4.622   4.193  0.0075  0.0725  0.3963
 2594SOL     OW10421   2.386   3.790   4.191  0.2733 -0.0746 -0.1792
 2594SOL    HW210422   2.345   3.706   4.171  1.5499 -0.6632 -0.3647
 2594SOL    HW310423   2.406   3.828   4.106  1.2155 -0.3457 -0.0828
 2594SOL    MW410424   2.383   3.784   4.177  0.5658 -0.1881 -0.1912
 2595SOL     OW10425   0.343   2.955   4.587 -0.2432 -0.0791  0.4289
 2595SOL    HW210426   0.312   3.000   4.508 -0.8354  0.2710  0.8628
 2595SOL    HW310427   0.305   2.867   4.580 -0.7323  0.1196  0.5939
 2595SOL    MW410428   0.334   2.949   4.576 -0.3859 -0.0069  0.5078
 2596SOL     OW10429   0.685   2.856   3.770 -0.2520 -0.3839  0.0929
 2596SOL    HW210430   0.691   2.863   3.674 -0.7627 -0.7608  0.0320
 2596SOL    HW310431   0.603   2.810   3.785 -0.0188 -0.5965  0.7068
 2596SOL    MW410432   0.675   2.851   3.759 -0.2886 -0.4618  0.1657
 2597SOL     OW10433   2.229   4.245   4.763 -0.2608 -0.0938 -0.3247
 2597SOL    HW210434   2.305   4.215   4.714 -0.5710 -0.5696 -0.5207
 2597SOL    HW310435   2.228   4.340   4.750  0.8433  0.0355  0.4668
 2597SOL    MW410436   2.239   4.254   4.755 -0.1562 -0.1397 -0.2460
 2598SOL     OW10437   0.865   0.556   4.669 -0.1326 -0.3201 -0.0253
 2598SOL    HW210438   0.954   0.520   4.677  0.5238  0.8904 -1.6600
 2598SOL    HW310439   0.877   0.641   4.627 -1.9537  0.5043  1.0526
 2598SOL    MW410440   0.878   0.562   4.664 -0.2863 -0.0517 -0.0987
 2599SOL     OW10441   3.064   2.436   4.338 -0.0817  0.1960 -0.4579
 2599SOL    HW210442   3.012   2.467   4.412  0.4897 -0.7014  0.3232
 2599SOL    HW310443   2.999   2.399   4.277 -0.2861 -2.1016  1.0881
 2599SOL    MW410444   3.048   2.435   4.339 -0.0334 -0.2255 -0.1507
 2600SOL     OW10445   0.001   2.389   4.577  0.4785 -0.6202  0.2458
 2600SOL    HW210446  -0.071   2.363   4.520  0.6458 -0.7895  0.1119
 2600SOL    HW310447   0.002   2.324   4.647 -0.5104  0.2839  1.1214
 2600SOL    MW410448  -0.008   2.377   4.579  0.3700 -0.5233  0.3438
 2601SOL     OW10449   1.030   2.470   4.617 -0.0936 -0.0593 -0.2209
 2601SOL    HW210450   0.996   2.403   4.557 -1.5868  0.3785  0.1035
 2601SOL    HW310451   1.110   2.432   4.653 -0.7177 -1.5146 -0.3141
 2601SOL    MW410452   1.036   2.456   4.614 -0.3728 -0.1934 -0.1907
 2602SOL     OW10453   2.077   1.585   4.166  0.2092  0.1145  0.0940
 2602SOL    HW210454   2.010   1.644   4.200 -1.1721  0.3687 -3.0091
 2602SOL    HW310455   2.157   1.611   4.213 -1.2598  1.5613  1.8765
 2602SOL    MW410456   2.079   1.596   4.177 -0.1667  0.3389 -0.0806
 2603SOL     OW10457   3.195   0.352   3.889  0.1309  0.4231  0.5199
 2603SOL    HW210458   3.208   0.332   3.982  0.9185 -1.0251  0.1029
 2603SOL    HW310459   3.174   0.268   3.849  1.1887  0.8114 -0.8620
 2603SOL    MW410460   3.194   0.338   3.896  0.3743  0.2833  0.2823
 2604SOL     OW10461   1.776   0.109   4.318  0.1240 -0.5224 -0.0696
 2604SOL    HW210462   1.853   0.082   4.268  0.7577 -0.9219  1.0951
 2604SOL    HW310463   1.705   0.057   4.280  0.9996 -2.5025  0.9085
 2604SOL    MW410464   1.777   0.098   4.306  0.3232 -0.8364  0.2131
 2605SOL     OW10465   2.983   1.434   4.185 -0.4043 -0.2808 -0.6395
 2605SOL    HW210466   2.963   1.459   4.095  0.8254  0.1752 -0.7973
 2605SOL    HW310467   3.069   1.471   4.201  0.0356 -1.6361  0.2255
 2605SOL    MW410468   2.992   1.442   4.175 -0.1841 -0.3995 -0.5460
 2606SOL     OW10469   1.055   0.968   4.511 -0.3781  0.2154  0.5137
 2606SOL    HW210470   1.082   0.970   4.419  0.6637  0.1364  0.8132
 2606SOL    HW310471   0.979   0.911   4.513  0.6421 -1.1809 -0.0301
 2606SOL    MW410472   1.049   0.961   4.499 -0.1061  0.0207  0.4811
 2607SOL     OW10473   2.945   0.737   4.196 -0.4419 -0.2983  0.1112
 2607SOL    HW210474   2.869   0.790   4.219 -0.0982 -0.2155  1.0593
 2607SOL    HW310475   2.958   0.754   4.102 -1.2390  0.1252  0.0715
 2607SOL    MW410476   2.937   0.746   4.187 -0.5014 -0.2315  0.2308
 2608SOL     OW10477   2.696   3.259   4.328 -0.2994 -0.4782  0.1555
 2608SOL    HW210478   2.791   3.264   4.324 -0.3206 -0.0308  0.1203
 2608SOL    HW310479   2.672   3.314   4.403 -0.5118 -0.7914  0.3166
 2608SOL    MW410480   2.705   3.267   4.337 -0.3302 -0.4604  0.1726
 2609SOL     OW10481   4.340   3.312   4.612  0.0666  0.1775 -0.2023
 2609SOL    HW210482   4.394   3.280   4.540  1.6357 -0.4993  1.2504
 2609SOL    HW310483   4.374   3.268   4.689 -0.8431  1.7826  1.1497
 2609SOL    MW410484   4.351   3.302   4.612  0.1535  0.3002  0.1674
 2610SOL     OW10485   1.423   1.689   4.492 -0.0565  0.1119  0.0393
 2610SOL    HW210486   1.368   1.620   4.530 -0.7882  0.7465  0.1459
 2610SOL    HW310487   1.386   1.771   4.526  1.1044  0.5384  0.2998
 2610SOL    MW410488   1.411   1.691   4.501  0.0001  0.2520  0.0877
 2611SOL     OW10489   2.215   0.387   4.114  0.4093  0.0060 -0.2219
 2611SOL    HW210490   2.216   0.301   4.156 -0.5612  0.1602  0.1086
 2611SOL    HW310491   2.216   0.368   4.020  0.4160 -0.3567 -0.1490
 2611SOL    MW410492   2.216   0.374   4.107  0.2820 -0.0215 -0.1683
 2612SOL     OW10493   4.459   4.098   4.548 -0.2165  0.9027  0.0379
 2612SOL    HW210494   4.367   4.095   4.575  0.0373 -1.8181  0.7298
 2612SOL    HW310495   4.458   4.069   4.457  0.0645 -0.2753  0.4022
 2612SOL    MW410496   4.447   4.094   4.540 -0.1459  0.3886  0.1764
 2613SOL     OW10497   1.541   4.653   3.936  0.0173 -0.2292 -0.2934
 2613SOL    HW210498   1.603   4.722   3.915 -0.9194  0.3729 -1.1285
 2613SOL    HW310499   1.581   4.573   3.901  0.6154  0.0570 -0.2601
 2613SOL    MW410500   1.554   4.652   3.928 -0.0273 -0.1121 -0.3989
 2614SOL     OW10501   3.367   0.728   4.145  0.3551 -0.3287  0.1244
 2614SOL    HW210502   3.313   0.777   4.206  1.0169 -0.4485  0.8164
 2614SOL    HW310503   3.373   0.640   4.182 -0.0853 -0.6894 -0.6449
 2614SOL    MW410504   3.361   0.723   4.158  0.3843 -0.3920  0.1144
 2615SOL     OW10505   0.359   1.803   4.504  0.0894  0.4109 -0.2016
 2615SOL    HW210506   0.370   1.791   4.409  0.0753  2.0878 -0.4204
 2615SOL    HW310507   0.420   1.873   4.527 -0.5035  0.5744  0.8935
 2615SOL    MW410508   0.368   1.811   4.494  0.0093  0.6537 -0.0854
 2616SOL     OW10509   2.855   3.471   4.714  0.2660  0.0299 -0.0363
 2616SOL    HW210510   2.878   3.475   4.806  3.2840  0.8761 -0.7469
 2616SOL    HW310511   2.917   3.408   4.676 -0.1526  0.5548 -1.6598
 2616SOL    MW410512   2.866   3.463   4.721  0.6087  0.2110 -0.3443
 2617SOL     OW10513   1.841   1.245   4.351  0.1567 -0.2489  0.1948
 2617SOL    HW210514   1.791   1.298   4.413 -1.0018  0.3685 -1.2509
 2617SOL    HW310515   1.909   1.305   4.318  0.0023 -0.2103 -0.0538
 2617SOL    MW410516   1.844   1.260   4.355 -0.0167 -0.1624 -0.0286
 2618SOL     OW10517   0.223   1.578   4.153 -0.0518  0.2932 -0.3033
 2618SOL    HW210518   0.138   1.606   4.188  0.6597  1.0150  0.8651
 2618SOL    HW310519   0.232   1.488   4.182 -1.3029 -0.4724 -2.1287
 2618SOL    MW410520   0.213   1.570   4.161 -0.1230  0.2875 -0.3901
 2619SOL     OW10521   0.022   1.172   4.223 -0.1431 -0.1530 -0.0759
 2619SOL    HW210522   0.036   1.079   4.241  3.2353  0.5102  1.1667
 2619SOL    HW310523   0.028   1.179   4.128  0.3128 -1.1212 -0.1254
 2619SOL    MW410524   0.025   1.161   4.213  0.3628 -0.1931  0.0811
 2620SOL     OW10525   1.885   1.765   4.317  0.5930  0.2876  0.3815
 2620SOL    HW210526   1.811   1.717   4.353  1.1936 -0.5297  0.5567
 2620SOL    HW310527   1.846   1.835   4.265 -0.3116 -0.7124 -0.3244
 2620SOL    MW410528   1.870   1.768   4.315  0.5528  0.0479  0.3114
 2621SOL     OW10529   2.955   0.774   3.913  0.2797 -0.0957  0.1753
 2621SOL    HW210530   2.972   0.692   3.866  0.0764  0.6922 -1.3019
 2621SOL    HW310531   3.018   0.837   3.876  0.4288  0.4239  1.2900
 2621SOL    MW410532   2.966   0.772   3.902  0.2725  0.0768  0.1276
 2622SOL     OW10533   3.437   4.381   4.491  0.3197 -0.1396 -0.0234
 2622SOL    HW210534   3.479   4.295   4.495  1.1024  0.2528  0.3416
 2622SOL    HW310535   3.379   4.383   4.567  0.0648 -0.4685 -0.2108
 2622SOL    MW410536   3.435   4.370   4.501  0.3891 -0.1311 -0.0005
 2623SOL     OW10537   1.271   0.184   4.561  0.0076 -0.0274 -0.2508
 2623SOL    HW210538   1.300   0.103   4.603 -0.2001  0.0668  0.0825
 2623SOL    HW310539   1.303   0.178   4.471  0.7162 -0.1015  0.0014
 2623SOL    MW410540   1.279   0.173   4.555  0.0737 -0.0247 -0.1736
 2624SOL     OW10541   2.010   0.334   4.670  0.3927  0.2229  0.0011
 2624SOL    HW210542   1.929   0.311   4.624  1.1492 -0.7869 -0.8449
 2624SOL    HW310543   2.012   0.430   4.668 -0.2013  0.2256 -0.9892
 2624SOL    MW410544   1.999   0.344   4.664  0.4141  0.0900 -0.2413
 2625SOL     OW10545   3.072   4.612   4.628  0.2334  0.2375 -0.0097
 2625SOL    HW210546   3.143   4.668   4.597  1.1170  0.2319  1.9018
 2625SOL    HW310547   3.001   4.673   4.649  0.2299  0.3916 -0.4739
 2625SOL    MW410548   3.072   4.627   4.627  0.3498  0.2570  0.1807
 2626SOL     OW10549   2.282   2.677   3.865 -0.2421  0.0618 -0.1410
 2626SOL    HW210550   2.285   2.674   3.960  1.7265 -0.4261 -0.2038
 2626SOL    HW310551   2.272   2.585   3.839  0.2926  0.0830 -0.4279
 2626SOL    MW410552   2.281   2.664   3.874  0.0880  0.0002 -0.1872
 2627SOL     OW10553   2.875   2.271   4.188  0.5342 -0.0042 -0.1852
 2627SOL    HW210554   2.795   2.224   4.211  0.6335  0.4539  1.1240
 2627SOL    HW310555   2.942   2.204   4.180  1.2390  0.1028  4.0945
 2627SOL    MW410556   2.873   2.256   4.190  0.6404  0.0703  0.5517
 2628SOL     OW10557   2.220   0.909   4.206 -0.2744  0.1249  0.2319
 2628SOL    HW210558   2.300   0.876   4.164 -1.0223  0.0729 -1.1587
 2628SOL    HW310559   2.240   0.905   4.300  1.1062 -0.5357 -0.0709
 2628SOL    MW410560   2.233   0.904   4.213 -0.1910  0.0309  0.0081
 2629SOL     OW10561   1.986   3.589   4.246  0.3905 -0.7099 -0.2318
 2629SOL    HW210562   1.973   3.583   4.340 -0.7344  0.7032 -0.2769
 2629SOL    HW310563   2.080   3.572   4.233  1.1463  1.8893  1.4259
 2629SOL    MW410564   1.997   3.586   4.257  0.3419 -0.1807 -0.0191
 2630SOL     OW10565   1.068   3.643   4.199 -0.6094 -0.0349  0.1774
 2630SOL    HW210566   1.064   3.654   4.294 -1.0679 -0.5290  0.2148
 2630SOL    HW310567   0.982   3.609   4.175 -0.6861  0.6315 -0.4910
 2630SOL    MW410568   1.056   3.640   4.209 -0.6800 -0.0122  0.0939
 2631SOL     OW10569   3.214   1.760   4.332 -0.3133  0.6611 -0.5767
 2631SOL    HW210570   3.137   1.815   4.345  1.0375  1.9429  2.6069
 2631SOL    HW310571   3.232   1.723   4.419  1.6288 -0.9953 -1.6281
 2631SOL    MW410572   3.206   1.762   4.346  0.1209  0.6117 -0.2952
 2632SOL     OW10573   0.018   0.306   4.157  0.2330  0.2666  0.7055
 2632SOL    HW210574   0.026   0.220   4.199  1.0073 -0.2503 -0.4637
 2632SOL    HW310575   0.074   0.364   4.208  1.0252 -0.3093  0.4984
 2632SOL    MW410576   0.026   0.302   4.169  0.4397  0.1224  0.5236
 2633SOL     OW10577   0.437   0.436   4.151  0.2357  0.1674  0.4938
 2633SOL    HW210578   0.429   0.354   4.198  1.1843  0.4827  1.2246
 2633SOL    HW310579   0.456   0.411   4.060  0.4845 -0.4125  0.7085
 2633SOL    MW410580   0.439   0.422   4.145  0.3937  0.1325  0.6185
 2634SOL     OW10581   0.179   1.364   4.575  0.1548  0.0970 -0.0548
 2634SOL    HW210582   0.137   1.450   4.578 -0.7278 -0.3377  0.3915
 2634SOL    HW310583   0.202   1.351   4.484 -1.9316 -0.2385 -0.5595
 2634SOL    MW410584   0.177   1.374   4.564 -0.2369 -0.0048 -0.0625
 2635SOL     OW10585   1.149   2.302   3.837 -0.2003  0.0985 -0.3450
 2635SOL    HW210586   1.158   2.208   3.817  0.2218  0.2935 -1.1082
 2635SOL    HW310587   1.139   2.305   3.932  0.8543 -0.6558 -0.1969
 2635SOL    MW410588   1.149   2.290   3.847 -0.0055  0.0248 -0.4261
 2636SOL     OW10589   3.628   3.750   4.594  0.3708 -0.4797 -0.3005
 2636SOL    HW210590   3.579   3.705   4.525  0.9477 -0.4548 -0.7307
 2636SOL    HW310591   3.660   3.680   4.650  0.2800 -0.5316 -0.3139
 2636SOL    MW410592   3.625   3.735   4.592  0.4349 -0.4833 -0.3591
 2637SOL     OW10593   1.349   0.399   4.172  0.0884  0.2536  0.3036
 2637SOL    HW210594   1.343   0.313   4.213 -1.1208 -0.2552 -0.9006
 2637SOL    HW310595   1.439   0.426   4.186  0.8741 -1.8515 -0.5623
 2637SOL    MW410596   1.360   0.391   4.179  0.0324 -0.0913  0.0310
 2638SOL     OW10597   2.262   3.526   4.148  0.3324  0.4753  0.1293
 2638SOL    HW210598   2.304   3.448   4.184 -0.3018  0.1057  0.0701
 2638SOL    HW310599   2.234   3.500   4.060 -0.3286  0.6095  0.2943
 2638SOL    MW410600   2.264   3.513   4.141  0.1614  0.4444  0.1435
 2639SOL     OW10601   1.041   3.693   4.475  0.1471  0.0916  0.0727
 2639SOL    HW210602   1.128   3.674   4.509  0.9972  0.3266 -1.9228
 2639SOL    HW310603   1.023   3.783   4.504  0.5063 -0.0043  0.5985
 2639SOL    MW410604   1.050   3.702   4.484  0.3066  0.1099 -0.1211
 2640SOL     OW10605   0.231   2.564   4.179 -0.2512  0.3722  0.0618
 2640SOL    HW210606   0.284   2.485   4.184 -2.6591 -1.2391  0.8875
 2640SOL    HW310607   0.285   2.626   4.131  2.3792 -1.1831  0.9470
 2640SOL    MW410608   0.245   2.562   4.173 -0.2218 -0.0455  0.2871
 2641SOL     OW10609   4.456   2.615   4.115  0.2651 -0.5560  0.2828
 2641SOL    HW210610   4.459   2.704   4.150  0.3008  0.1943 -1.5853
 2641SOL    HW310611   4.544   2.581   4.127  0.0383 -0.6561  1.7612
 2641SOL    MW410612   4.468   2.622   4.121  0.2403 -0.4699  0.2313
 2642SOL     OW10613   0.911   0.094   4.307  0.0763 -0.3777 -0.0097
 2642SOL    HW210614   0.838   0.071   4.250  0.7434 -2.9682  0.1044
 2642SOL    HW310615   0.883   0.068   4.394 -0.0595  1.4838  0.5105
 2642SOL    MW410616   0.898   0.087   4.311  0.1464 -0.4739  0.0739
 2643SOL     OW10617   2.790   1.640   4.208 -0.2202  0.8945  0.1454
 2643SOL    HW210618   2.848   1.564   4.219  0.0981  0.9984 -0.8060
 2643SOL    HW310619   2.710   1.604   4.170 -0.0265  1.0591 -0.4099
 2643SOL    MW410620   2.787   1.625   4.205 -0.1526  0.9301 -0.0529
 2644SOL     OW10621   1.061   4.454   4.613  0.1400 -0.1992  0.0982
 2644SOL    HW210622   1.134   4.436   4.553  0.3557  1.1033 -0.0465
 2644SOL    HW310623   0.983   4.424   4.565  0.5456 -1.4670  0.1966
 2644SOL    MW410624   1.060   4.447   4.599  0.2220 -0.1950  0.0925
 2645SOL     OW10625   1.800   1.931   3.878 -0.1888 -0.1167 -0.2453
 2645SOL    HW210626   1.740   1.998   3.845 -0.1928 -0.2574 -0.5197
 2645SOL    HW310627   1.887   1.964   3.857 -0.1829 -0.0911 -0.1814
 2645SOL    MW410628   1.804   1.944   3.871 -0.1885 -0.1317 -0.2732
 2646SOL     OW10629   2.114   1.465   4.617  0.0902 -0.1018 -0.2119
 2646SOL    HW210630   2.133   1.408   4.542  2.3993 -0.8175  0.8402
 2646SOL    HW310631   2.061   1.412   4.676  0.5901 -0.5016 -0.1193
 2646SOL    MW410632   2.110   1.451   4.615  0.4609 -0.2489 -0.0610
 2647SOL     OW10633   3.194   1.110   4.370  0.1090 -0.1542  0.1603
 2647SOL    HW210634   3.193   1.015   4.358 -0.5494 -0.1798  0.3666
 2647SOL    HW310635   3.238   1.144   4.292 -0.0384 -0.6002 -0.1206
 2647SOL    MW410636   3.200   1.102   4.358  0.0026 -0.2162  0.1507
 2648SOL     OW10637   2.475   4.411   4.546  0.5898  0.4496  0.2294
 2648SOL    HW210638   2.486   4.331   4.597 -1.7048 -0.6707 -0.9157
 2648SOL    HW310639   2.448   4.379   4.459 -0.1739  2.4666 -0.2858
 2648SOL    MW410640   2.473   4.396   4.541  0.1862  0.5679  0.0100
 2649SOL     OW10641   0.447   1.191   4.120  0.3880  0.0448  0.0337
 2649SOL    HW210642   0.540   1.213   4.117  0.6037 -0.8312  0.1659
 2649SOL    HW310643   0.421   1.180   4.029  0.3774  0.4137 -0.0094
 2649SOL    MW410644   0.456   1.193   4.108  0.4151 -0.0222  0.0458
 2650SOL     OW10645   2.057   1.277   3.824 -0.3502 -0.5657 -0.0205
 2650SOL    HW210646   2.063   1.368   3.853 -1.2934 -0.6374  0.4125
 2650SOL    HW310647   2.142   1.239   3.849  0.0003  0.1570 -0.0885
 2650SOL    MW410648   2.069   1.284   3.831 -0.4284 -0.4799  0.0279
 2651SOL     OW10649   1.982   0.011   4.150 -0.2318 -0.2059 -0.1755
 2651SOL    HW210650   1.972  -0.079   4.181 -0.0662  0.0505  0.6281
 2651SOL    HW310651   2.020   0.002   4.063 -2.5889 -1.0039 -1.1741
 2651SOL    MW410652   1.986  -0.002   4.143 -0.5211 -0.2774 -0.2007
 2652SOL     OW10653   3.795   0.236   4.585  0.0413 -0.0968 -0.0832
 2652SOL    HW210654   3.771   0.241   4.678 -0.5836 -0.0354 -0.2446
 2652SOL    HW310655   3.777   0.323   4.550  1.5051  0.2468  0.0275
 2652SOL    MW410656   3.789   0.248   4.593  0.1519 -0.0434 -0.0901
 2653SOL     OW10657   0.306   2.098   4.164  0.3389 -0.5894  0.2626
 2653SOL    HW210658   0.211   2.094   4.151  0.4955  2.1667 -2.2063
 2653SOL    HW310659   0.316   2.128   4.255 -1.1709 -0.3209  0.3596
 2653SOL    MW410660   0.295   2.102   4.174  0.1604 -0.1907 -0.0505
 2654SOL     OW10661   3.400   2.418   4.388 -0.0211  0.0278  0.0036
 2654SOL    HW210662   3.392   2.375   4.473 -0.5343  0.3402  0.1167
 2654SOL    HW310663   3.356   2.502   4.400 -0.6336 -0.1797 -0.7504
 2654SOL    MW410664   3.393   2.423   4.401 -0.1695  0.0415 -0.0811
 2655SOL     OW10665   1.719   1.078   4.121  0.2133 -0.1937  0.3084
 2655SOL    HW210666   1.743   1.099   4.030 -1.7394  0.8773  0.0193
 2655SOL    HW310667   1.754   1.151   4.172  0.0200 -0.0484  0.2343
 2655SOL    MW410668   1.727   1.090   4.115 -0.0699 -0.0333  0.2608
 2656SOL     OW10669   1.396   1.296   4.258 -0.5422  0.0697 -0.2366
 2656SOL    HW210670   1.412   1.211   4.217 -0.7369  0.0185 -0.2072
 2656SOL    HW310671   1.303   1.295   4.281 -0.5574  0.3117 -0.2852
 2656SOL    MW410672   1.386   1.285   4.256 -0.5701  0.0950 -0.2394
 2657SOL     OW10673   1.590   2.118   3.769  0.2954  0.2702 -0.1491
 2657SOL    HW210674   1.519   2.072   3.815  2.1361 -1.6034  0.9338
 2657SOL    HW310675   1.583   2.088   3.679 -1.0495  1.0863 -0.3336
 2657SOL    MW410676   1.580   2.108   3.763  0.3607  0.1307 -0.0305
 2658SOL     OW10677   4.040   1.622   4.320 -0.7609  0.2553  0.3460
 2658SOL    HW210678   4.029   1.709   4.283  1.6788  1.0372  1.3676
 2658SOL    HW310679   4.125   1.592   4.286 -0.8172 -1.0465  1.2989
 2658SOL    MW410680   4.050   1.629   4.310 -0.4463  0.1866  0.6065
 2659SOL     OW10681   3.469   1.503   4.475 -0.6751  0.0054 -0.5695
 2659SOL    HW210682   3.478   1.559   4.552 -1.1881 -1.1829  0.3685
 2659SOL    HW310683   3.540   1.531   4.417  0.5755 -0.0008  0.9149
 2659SOL    MW410684   3.480   1.514   4.477 -0.5777 -0.1521 -0.2503
 2660SOL     OW10685   2.657   0.406   4.580 -0.5325  0.7803  0.0825
 2660SOL    HW210686   2.630   0.355   4.656  0.5655  0.2268  0.0940
 2660SOL    HW310687   2.575   0.423   4.533 -0.7718 -2.0748 -0.6051
 2660SOL    MW410688   2.642   0.401   4.584 -0.4194  0.3305 -0.0067
 2661SOL     OW10689   4.140   2.320   4.787 -0.0980  0.1536  0.3834
 2661SOL    HW210690   4.215   2.378   4.773  1.0591 -1.4167 -0.0346
 2661SOL    HW310691   4.156   2.281   4.873 -0.4079 -0.2456  0.2566
 2661SOL    MW410692   4.152   2.323   4.797  0.0138 -0.1061  0.3109
 2662SOL     OW10693   3.250   1.517   4.189 -0.2575  0.1137  0.5531
 2662SOL    HW210694   3.279   1.530   4.099 -1.2708  0.0981  0.2170
 2662SOL    HW310695   3.252   1.604   4.228 -0.5166  0.2361  0.2973
 2662SOL    MW410696   3.254   1.530   4.182 -0.4253  0.1276  0.4745
 2663SOL     OW10697   1.082   3.063   4.206 -0.0846  0.3573 -0.2249
 2663SOL    HW210698   1.049   2.993   4.150 -1.5765  2.0478 -1.5226
 2663SOL    HW310699   1.168   3.085   4.169 -0.6054  0.7547 -1.1992
 2663SOL    MW410700   1.089   3.057   4.194 -0.3501  0.6330 -0.5245
 2664SOL     OW10701   2.881   4.098   4.543  0.2353 -0.0848 -0.1411
 2664SOL    HW210702   2.824   4.079   4.469  1.7412 -1.2958 -1.0107
 2664SOL    HW310703   2.899   4.192   4.535 -1.4831  0.2891  0.0697
 2664SOL    MW410704   2.876   4.108   4.532  0.2072 -0.1955 -0.2279
 2665SOL     OW10705   3.830   3.102   3.881 -0.0480 -0.4108 -0.1959
 2665SOL    HW210706   3.848   3.104   3.975 -0.8550 -0.5437 -0.0340
 2665SOL    HW310707   3.794   3.015   3.866  1.2877 -0.8496 -0.8605
 2665SOL    MW410708   3.828   3.091   3.892  0.0217 -0.4861 -0.2623
 2666SOL     OW10709   2.030   2.370   4.097 -0.6341  0.7346  0.0584
 2666SOL    HW210710   1.949   2.398   4.140 -0.1935  1.4687  0.4119
 2666SOL    HW310711   2.100   2.401   4.153 -0.1052 -0.3541  0.0218
 2666SOL    MW410712   2.028   2.378   4.110 -0.5062  0.6878  0.1006
 2667SOL     OW10713   1.955   4.030   4.524 -0.1722 -0.5936  0.2234
 2667SOL    HW210714   2.018   4.030   4.452 -0.9869  1.1876 -0.5359
 2667SOL    HW310715   1.982   3.958   4.581  2.2056 -0.1948 -0.3730
 2667SOL    MW410716   1.967   4.021   4.522  0.0341 -0.3066  0.0448
 2668SOL     OW10717   0.214   1.572   3.890 -0.2856 -0.0123 -0.1788
 2668SOL    HW210718   0.135   1.621   3.866 -0.2800  0.3056  0.4305
 2668SOL    HW310719   0.220   1.583   3.985  1.3766  1.2804 -0.4321
 2668SOL    MW410720   0.204   1.580   3.900 -0.0655  0.2002 -0.1321
 2669SOL     OW10721   3.354   3.826   4.187  0.4331 -0.7672  0.5003
 2669SOL    HW210722   3.386   3.761   4.250 -0.5178 -0.3573  1.4332
 2669SOL    HW310723   3.406   3.904   4.205  0.9204 -0.9835  0.0278
 2669SOL    MW410724   3.365   3.828   4.198  0.3717 -0.7415  0.5612
 2670SOL     OW10725   3.503   1.966   4.558  0.3842 -0.7205  0.0283
 2670SOL    HW210726   3.442   2.025   4.603  0.7763 -0.0451 -0.3307
 2670SOL    HW310727   3.465   1.953   4.472  1.2217  0.4401 -0.5222
 2670SOL    MW410728   3.490   1.972   4.553  0.5462 -0.4783 -0.0916
 2671SOL     OW10729   3.689   2.983   4.619 -0.1647  0.3949 -0.1929
 2671SOL    HW210730   3.613   2.955   4.568 -1.2325  0.1208  1.5439
 2671SOL    HW310731   3.747   2.907   4.619 -0.8195 -0.1013  0.2685
 2671SOL    MW410732   3.687   2.969   4.612 -0.3920  0.2933  0.0973
 2672SOL     OW10733   0.159   2.011   4.536  0.1070 -0.2084  0.3091
 2672SOL    HW210734   0.212   2.067   4.479 -0.6035  0.8993  0.7362
 2672SOL    HW310735   0.195   1.923   4.523  1.6643  0.4432  0.1474
 2672SOL    MW410736   0.171   2.007   4.527  0.2187  0.0234  0.3443
 2673SOL     OW10737   3.356   0.567   4.503  0.1761  0.1074  0.0946
 2673SOL    HW210738   3.439   0.605   4.529  0.1033  1.1175 -1.0615
 2673SOL    HW310739   3.363   0.556   4.408 -0.3761 -1.3874  0.2082
 2673SOL    MW410740   3.368   0.571   4.494  0.0937  0.0434 -0.0429
 2674SOL     OW10741   4.008   2.699   3.903 -0.1797  0.2201 -0.3963
 2674SOL    HW210742   3.996   2.609   3.875 -1.4824  0.6632 -1.2778
 2674SOL    HW310743   4.090   2.727   3.862  0.6595 -0.8089  0.5493
 2674SOL    MW410744   4.017   2.691   3.894 -0.2408  0.1426 -0.3877
 2675SOL     OW10745   0.340   4.069   4.723  0.0675 -0.4303 -0.0513
 2675SOL    HW210746   0.362   4.078   4.816 -2.1298  3.2146  0.1946
 2675SOL    HW310747   0.271   4.002   4.722 -0.3976  0.0163  1.0287
 2675SOL    MW410748   0.334   4.061   4.735 -0.2838  0.1101  0.1235
 2676SOL     OW10749   0.922   3.080   4.631 -0.0464  0.2246 -0.1416
 2676SOL    HW210750   0.885   2.996   4.658 -1.0811  1.0066  0.8878
 2676SOL    HW310751   0.848   3.130   4.595  0.4659  0.8922 -0.2898
 2676SOL    MW410752   0.908   3.075   4.629 -0.1153  0.4160 -0.0257
 2677SOL     OW10753   1.973   2.439   4.447 -0.3966  0.4794  0.0646
 2677SOL    HW210754   1.922   2.471   4.372 -2.1445  2.6164  2.0762
 2677SOL    HW310755   1.952   2.346   4.451 -2.0552  0.7857 -0.7944
 2677SOL    MW410756   1.963   2.431   4.438 -0.8461  0.8016  0.2165
 2678SOL     OW10757   4.145   1.161   4.507  0.3548 -0.2047 -0.2842
 2678SOL    HW210758   4.223   1.176   4.560  0.1158  1.2423 -0.3168
 2678SOL    HW310759   4.171   1.189   4.419 -0.2922  0.6042 -0.2282
 2678SOL    MW410760   4.159   1.167   4.502  0.2379  0.0930 -0.2813
 2679SOL     OW10761   2.064   2.835   4.248 -0.4263 -0.3238 -0.4523
 2679SOL    HW210762   2.135   2.782   4.211  0.6118  0.4723  0.3631
 2679SOL    HW310763   2.075   2.827   4.343 -0.8984  0.5050 -0.3191
 2679SOL    MW410764   2.075   2.827   4.256 -0.3517 -0.1094 -0.3271
 2680SOL     OW10765   0.675   1.858   4.784 -0.3147 -0.1863  0.5174
 2680SOL    HW210766   0.762   1.887   4.755 -0.8549 -0.2704 -1.2649
 2680SOL    HW310767   0.652   1.787   4.724 -1.1987 -0.8485  1.6106
 2680SOL    MW410768   0.683   1.853   4.772 -0.5025 -0.2848  0.4263
 2681SOL     OW10769   0.725   1.262   4.244 -0.1915  0.1676  0.0890
 2681SOL    HW210770   0.816   1.242   4.224 -0.0019 -0.3337  1.4316
 2681SOL    HW310771   0.713   1.233   4.334 -1.0159  2.4335  0.7500
 2681SOL    MW410772   0.735   1.256   4.253 -0.2752  0.4004  0.3533
 2682SOL     OW10773   4.347   3.609   4.265 -0.4497 -0.4208 -0.5705
 2682SOL    HW210774   4.424   3.557   4.245 -0.7311 -0.6757 -1.0112
 2682SOL    HW310775   4.341   3.609   4.360  1.1748  1.1869 -0.4252
 2682SOL    MW410776   4.356   3.602   4.275 -0.2728 -0.2425 -0.6094
 2683SOL     OW10777   3.898   4.362   4.532 -0.0661 -0.1069  0.3091
 2683SOL    HW210778   3.905   4.312   4.614 -0.2998  1.0440  1.0451
 2683SOL    HW310779   3.839   4.434   4.553 -1.3368 -0.6444 -1.3184
 2683SOL    MW410780   3.891   4.365   4.546 -0.2646 -0.0262  0.1917
 2684SOL     OW10781   1.649   4.264   4.748 -0.6072  0.2275 -0.0961
 2684SOL    HW210782   1.627   4.316   4.826 -0.2909  0.5716 -0.2380
 2684SOL    HW310783   1.741   4.243   4.759 -0.3499  0.9648 -0.7802
 2684SOL    MW410784   1.658   4.268   4.760 -0.5316  0.3700 -0.2050
 2685SOL     OW10785   1.982   4.424   4.524  0.2031  0.1414  0.3519
 2685SOL    HW210786   1.972   4.344   4.576 -1.4036  0.7181  0.9564
 2685SOL    HW310787   2.067   4.460   4.551  0.6989 -1.0877  0.4427
 2685SOL    MW410788   1.992   4.418   4.534  0.0564  0.0553  0.4435
 2686SOL     OW10789   3.372   2.854   4.233 -0.1077  0.6624 -0.1547
 2686SOL    HW210790   3.308   2.784   4.223 -0.6016  1.2264 -0.9433
 2686SOL    HW310791   3.455   2.814   4.207 -0.1334 -0.0591  0.8405
 2686SOL    MW410792   3.375   2.839   4.228 -0.1764  0.6418 -0.1273
 2687SOL     OW10793   2.438   0.213   4.675 -0.1825 -0.2426  0.8753
 2687SOL    HW210794   2.490   0.140   4.640  1.9631  0.9606  1.4595
 2687SOL    HW310795   2.385   0.174   4.743 -0.9589 -1.7429 -0.5504
 2687SOL    MW410796   2.438   0.198   4.679 -0.0017 -0.2818  0.7639
 2688SOL     OW10797   0.242   2.966   4.121  0.3578 -0.3936  0.1534
 2688SOL    HW210798   0.151   2.937   4.129  0.3510 -0.6158 -0.7296
 2688SOL    HW310799   0.245   3.012   4.037  1.0047 -0.1772  0.2915
 2688SOL    MW410800   0.230   2.969   4.111  0.4422 -0.3943  0.0553
 2689SOL     OW10801   3.128   3.983   4.247  0.1111  0.2142  0.6622
 2689SOL    HW210802   3.191   3.912   4.232  0.7224  0.7355  0.7673
 2689SOL    HW310803   3.147   4.013   4.336  1.8125  2.4625 -0.4283
 2689SOL    MW410804   3.139   3.977   4.257  0.4163  0.5798  0.5322
 2690SOL     OW10805   1.259   4.392   4.453 -0.2036 -0.2319 -0.1500
 2690SOL    HW210806   1.352   4.404   4.471 -0.1293  0.0496 -0.7009
 2690SOL    HW310807   1.240   4.303   4.482  0.2028 -0.2394  0.0982
 2690SOL    MW410808   1.269   4.382   4.459 -0.1401 -0.1955 -0.1898
 2691SOL     OW10809   3.793   3.872   4.163 -0.1510 -0.3581 -0.3702
 2691SOL    HW210810   3.817   3.784   4.195  1.4433  0.6055  1.2077
 2691SOL    HW310811   3.795   3.864   4.068  0.1133 -1.9971 -0.2519
 2691SOL    MW410812   3.796   3.859   4.155  0.0939 -0.4473 -0.1459
 2692SOL     OW10813   0.247   0.313   4.643  0.3707  0.0507  0.0681
 2692SOL    HW210814   0.327   0.270   4.612  1.3397  2.3947 -0.8699
 2692SOL    HW310815   0.179   0.246   4.636  1.9445 -1.5157 -0.6556
 2692SOL    MW410816   0.249   0.299   4.638  0.7062  0.1533 -0.1507
 2693SOL     OW10817   1.596   3.099   3.813  0.2193  0.2797 -0.0448
 2693SOL    HW210818   1.576   3.080   3.905 -0.7670  1.3655 -0.0104
 2693SOL    HW310819   1.596   3.014   3.770  0.6809 -0.2372  0.9675
 2693SOL    MW410820   1.593   3.085   3.819  0.1501  0.3545  0.0932
 2694SOL     OW10821   4.073   3.238   4.252  0.0635  0.1383  0.1577
 2694SOL    HW210822   3.986   3.199   4.243 -0.3852  0.8747  1.2122
 2694SOL    HW310823   4.131   3.176   4.208 -1.1256  0.1997 -1.5404
 2694SOL    MW410824   4.069   3.225   4.245 -0.1531  0.2434  0.0730
 2695SOL     OW10825   0.018   2.090   4.109 -0.0005  0.1516 -0.2270
 2695SOL    HW210826  -0.033   2.171   4.110  0.6021  0.5345 -0.3175
 2695SOL    HW310827  -0.035   2.027   4.158  0.0372  0.9114  0.7923
 2695SOL    MW410828   0.004   2.092   4.116  0.0839  0.3023 -0.1044
 2696SOL     OW10829   0.034   3.269   4.403 -0.5407  0.0540  0.2605
 2696SOL    HW210830   0.018   3.298   4.313 -0.3185  0.7374  0.4437
 2696SOL    HW310831   0.114   3.216   4.396 -0.7876 -0.2831 -0.0242
 2696SOL    MW410832   0.043   3.266   4.390 -0.5440  0.0994  0.2465
 2697SOL     OW10833   4.063   0.119   4.213  0.3355 -0.6030  0.6066
 2697SOL    HW210834   3.991   0.056   4.202  0.9420 -1.4524  1.4197
 2697SOL    HW310835   4.136   0.079   4.166  0.0363  0.7106 -1.0294
 2697SOL    MW410836   4.063   0.105   4.205  0.3757 -0.5418  0.4983
 2698SOL     OW10837   3.670   4.504   4.613 -0.0949  0.6761  0.2064
 2698SOL    HW210838   3.592   4.471   4.568 -0.5904  1.2337  0.6512
 2698SOL    HW310839   3.662   4.471   4.702  0.5985  0.0498  0.0423
 2698SOL    MW410840   3.659   4.495   4.618 -0.0689  0.6676  0.2437
 2699SOL     OW10841   4.094   3.180   4.522  0.2936 -0.2027  0.3796
 2699SOL    HW210842   4.084   3.202   4.429 -0.7450 -0.5543  0.3964
 2699SOL    HW310843   4.176   3.221   4.548  0.6570 -0.1999 -0.7265
 2699SOL    MW410844   4.103   3.188   4.513  0.2050 -0.2487  0.2356
 2700SOL     OW10845   2.933   1.525   3.917 -0.1847  0.2352 -0.3192
 2700SOL    HW210846   2.873   1.588   3.878 -0.6433 -0.1858 -0.3019
 2700SOL    HW310847   3.019   1.565   3.909 -0.5485  1.1446  0.2563
 2700SOL    MW410848   2.936   1.539   3.911 -0.2933  0.2996 -0.2410
 2701SOL     OW10849   2.282   1.689   3.775  0.1540 -0.1498  0.0523
 2701SOL    HW210850   2.214   1.655   3.834 -0.1785 -1.3590 -0.9856
 2701SOL    HW310851   2.303   1.776   3.809 -0.7352 -0.4312  1.3575
 2701SOL    MW410852   2.276   1.696   3.787 -0.0069 -0.3464  0.0875
 2702SOL     OW10853   2.980   4.355   4.494 -0.1768 -0.1852 -0.1552
 2702SOL    HW210854   2.937   4.355   4.409  0.8817  0.6931 -0.7018
 2702SOL    HW310855   2.978   4.447   4.521 -0.0166 -0.3770  0.5182
 2702SOL    MW410856   2.974   4.367   4.487 -0.0160 -0.0944 -0.1388
 2703SOL     OW10857   0.462   3.465   4.158 -0.0452  0.1481 -0.2588
 2703SOL    HW210858   0.382   3.504   4.192 -0.5596 -1.3908  0.3593
 2703SOL    HW310859   0.444   3.446   4.066 -0.3356 -0.0427 -0.1621
 2703SOL    MW410860   0.449   3.468   4.151 -0.1513 -0.0801 -0.1645
 2704SOL     OW10861   1.133   1.532   3.833 -0.0286 -0.1083 -0.6460
 2704SOL    HW210862   1.136   1.450   3.782 -0.5249 -0.5877  0.0848
 2704SOL    HW310863   1.134   1.503   3.924 -1.3355  0.6661 -0.3863
 2704SOL    MW410864   1.134   1.517   3.838 -0.2666 -0.0693 -0.5152
 2705SOL     OW10865   1.450   3.812   4.122  0.1046 -0.5899 -0.1314
 2705SOL    HW210866   1.410   3.725   4.117  0.5014 -0.7138 -1.3459
 2705SOL    HW310867   1.495   3.822   4.038  1.4045  0.1386  0.6326
 2705SOL    MW410868   1.451   3.802   4.110  0.3285 -0.5100 -0.1912
 2706SOL     OW10869   1.337   0.443   4.880  0.1147 -0.3465 -0.1164
 2706SOL    HW210870   1.331   0.420   4.972 -0.6738  1.2807  0.2439
 2706SOL    HW310871   1.362   0.535   4.879 -0.6291 -0.1455 -1.5256
 2706SOL    MW410872   1.340   0.452   4.892 -0.0875 -0.1052 -0.2546
 2707SOL     OW10873   0.450   1.706   4.965  0.2387  0.0120 -0.3282
 2707SOL    HW210874   0.520   1.761   4.928  0.4782 -0.9777 -1.3830
 2707SOL    HW310875   0.374   1.726   4.911 -0.3276  1.1225  0.8493
 2707SOL    MW410876   0.449   1.716   4.953  0.1956  0.0280 -0.3119
 2708SOL     OW10877   1.972   3.870   4.174  0.0920 -0.0746  0.1416
 2708SOL    HW210878   1.975   3.778   4.198  2.8884 -0.1323 -0.2974
 2708SOL    HW310879   1.912   3.910   4.237  0.4311 -1.8266  1.6033
 2708SOL    MW410880   1.964   3.863   4.185  0.5057 -0.3133  0.2766
 2709SOL     OW10881   1.757   0.208   4.585  0.3367  0.3805 -0.2474
 2709SOL    HW210882   1.754   0.191   4.491 -0.1496  0.2214 -0.2053
 2709SOL    HW310883   1.667   0.230   4.608  0.0877 -1.3570  0.5148
 2709SOL    MW410884   1.745   0.209   4.576  0.2395  0.1303 -0.1416
 2710SOL     OW10885   1.241   0.605   4.490  0.0563  1.0483  0.3926
 2710SOL    HW210886   1.191   0.542   4.541 -1.1175  1.5354 -0.1414
 2710SOL    HW310887   1.206   0.597   4.401  3.1642 -0.9399 -0.7336
 2710SOL    MW410888   1.230   0.596   4.485  0.3115  0.8502  0.1736
 2711SOL     OW10889   0.810   2.351   4.451 -0.5986 -0.5194 -0.0506
 2711SOL    HW210890   0.845   2.384   4.368  1.5037 -1.0574  0.5814
 2711SOL    HW310891   0.730   2.402   4.466  0.2057  1.1512 -1.2727
 2711SOL    MW410892   0.804   2.362   4.442 -0.2151 -0.3700 -0.1287
 2712SOL     OW10893   3.838   2.048   4.284 -0.2298 -0.6549  0.0154
 2712SOL    HW210894   3.914   1.992   4.270  0.6577  0.5502 -0.1494
 2712SOL    HW310895   3.870   2.136   4.264 -1.3921 -0.0095  0.9408
 2712SOL    MW410896   3.852   2.052   4.280 -0.2661 -0.4110  0.1159
 2713SOL     OW10897   3.119   0.062   4.274  0.0198 -0.5121  0.0623
 2713SOL    HW210898   3.194   0.030   4.224 -0.1905  1.0262 -1.2669
 2713SOL    HW310899   3.157   0.100   4.353  0.4683 -1.6868  0.4132
 2713SOL    MW410900   3.134   0.063   4.278  0.0510 -0.4641 -0.0668
 2714SOL     OW10901   3.660   1.620   4.312  0.1806  0.0033  0.0138
 2714SOL    HW210902   3.655   1.708   4.273 -1.2736 -0.2827 -0.5024
 2714SOL    HW310903   3.723   1.573   4.258  0.3248  0.4821 -0.2365
 2714SOL    MW410904   3.667   1.625   4.299  0.0076  0.0287 -0.0877
 2715SOL     OW10905   3.074   3.723   4.468  0.0316  0.4602  0.3802
 2715SOL    HW210906   2.987   3.685   4.483  0.8536 -0.8261  1.9477
 2715SOL    HW310907   3.127   3.650   4.438  0.7481  1.1280  0.0009
 2715SOL    MW410908   3.069   3.709   4.466  0.2348  0.3786  0.5369
 2716SOL     OW10909   2.780   3.599   4.204 -0.5519  0.4160  0.2305
 2716SOL    HW210910   2.702   3.604   4.259  1.5494  1.1199  3.2653
 2716SOL    HW310911   2.819   3.686   4.208  1.0120 -0.2322 -0.2505
 2716SOL    MW410912   2.775   3.611   4.212 -0.0682  0.4232  0.5679
 2717SOL     OW10913   4.296   0.285   4.514 -0.4280 -0.0161  0.4758
 2717SOL    HW210914   4.359   0.271   4.443  0.7503  0.4150  1.4271
 2717SOL    HW310915   4.240   0.207   4.512  0.7109 -0.8390  0.2095
 2717SOL    MW410916   4.297   0.273   4.504 -0.1225 -0.0678  0.5665
 2718SOL     OW10917   2.054   1.545   3.892  0.1720  0.5096  0.0871
 2718SOL    HW210918   2.058   1.574   3.983  2.0743  1.7252 -0.3525
 2718SOL    HW310919   1.974   1.584   3.858 -2.0806 -2.2872  1.9731
 2718SOL    MW410920   2.044   1.554   3.899  0.1256  0.3009  0.2782
 2719SOL     OW10921   0.481   1.910   4.078  0.6436 -0.0362  0.3855
 2719SOL    HW210922   0.468   1.827   4.124 -1.5950 -1.1326 -2.0535
 2719SOL    HW310923   0.411   1.967   4.112  0.0401 -0.2998 -0.3905
 2719SOL    MW410924   0.470   1.907   4.088  0.2687 -0.2156 -0.0391
 2720SOL     OW10925   3.554   0.096   4.559 -0.0670 -0.5715 -0.0673
 2720SOL    HW210926   3.636   0.137   4.586 -0.1606 -0.7592  0.5084
 2720SOL    HW310927   3.564   0.004   4.585  0.2963 -1.0103 -1.6735
 2720SOL    MW410928   3.566   0.089   4.566 -0.0315 -0.6542 -0.2031
 2721SOL     OW10929   0.645   2.857   4.202 -0.5117 -0.2007 -0.5217
 2721SOL    HW210930   0.731   2.814   4.203  0.5673  1.8712  0.2310
 2721SOL    HW310931   0.616   2.854   4.293 -1.1988 -0.8144 -0.7608
 2721SOL    MW410932   0.653   2.851   4.214 -0.4600 -0.0081 -0.4535
 2722SOL     OW10933   0.193   0.522   4.243 -0.2526 -0.1344  0.5006
 2722SOL    HW210934   0.272   0.489   4.201 -1.3495 -1.4400 -0.6040
 2722SOL    HW310935   0.219   0.538   4.334  0.9999 -1.6118  0.4204
 2722SOL    MW410936   0.207   0.520   4.250 -0.2321 -0.5016  0.3448
 2723SOL     OW10937   0.218   3.094   3.863 -0.2096  0.3057  0.1083
 2723SOL    HW210938   0.136   3.138   3.838 -0.2189  0.0790 -0.2665
 2723SOL    HW310939   0.208   3.005   3.828  1.0454  0.8466 -1.7093
 2723SOL    MW410940   0.206   3.088   3.855 -0.0452  0.3474 -0.1810
 2724SOL     OW10941   1.536   4.419   4.526  0.4207  0.1877  0.4155
 2724SOL    HW210942   1.565   4.389   4.440 -1.2406 -0.2217 -0.0118
 2724SOL    HW310943   1.566   4.351   4.586  1.1638  0.2332  0.0998
 2724SOL    MW410944   1.544   4.406   4.522  0.2995  0.1392  0.3176
 2725SOL     OW10945   4.292   3.867   3.842  0.0981 -0.1094  0.6038
 2725SOL    HW210946   4.298   3.869   3.937  0.2048  0.3037  0.5878
 2725SOL    HW310947   4.207   3.907   3.822  0.2065  0.0753  0.5119
 2725SOL    MW410948   4.282   3.873   3.852  0.1264 -0.0305  0.5894
 2726SOL     OW10949   0.460   0.667   4.622  0.0818 -0.0860 -0.0610
 2726SOL    HW210950   0.443   0.649   4.715 -2.0868 -0.4714 -0.4923
 2726SOL    HW310951   0.530   0.607   4.598 -0.6262 -1.3082  0.8733
 2726SOL    MW410952   0.467   0.657   4.631 -0.2977 -0.2981  0.0052
 2727SOL     OW10953   1.410   4.623   4.669 -0.3184  0.5581 -0.4855
 2727SOL    HW210954   1.456   4.653   4.748 -0.9488 -1.4494  0.6837
 2727SOL    HW310955   1.475   4.572   4.621 -1.1196 -1.8236  0.8980
 2727SOL    MW410956   1.425   4.621   4.673 -0.5072 -0.0205 -0.1493
 2728SOL     OW10957   3.123   4.252   4.157  0.4870 -0.5530  0.0027
 2728SOL    HW210958   3.037   4.288   4.176  0.1532 -0.3597 -1.7841
 2728SOL    HW310959   3.114   4.158   4.176  0.0441 -0.4522  0.3027
 2728SOL    MW410960   3.110   4.244   4.162  0.3843 -0.5145 -0.1931
 2729SOL     OW10961   0.155   3.437   4.594  0.1509 -0.1176  0.1757
 2729SOL    HW210962   0.111   3.398   4.518 -1.3407  0.0238  0.9499
 2729SOL    HW310963   0.192   3.362   4.641 -1.4421 -0.5181  0.8633
 2729SOL    MW410964   0.154   3.422   4.590 -0.2561 -0.1519  0.3686
 2730SOL     OW10965   3.969   1.260   4.671 -0.3919 -0.0857  0.5891
 2730SOL    HW210966   4.024   1.227   4.600 -0.8464  0.4687 -0.0299
 2730SOL    HW310967   3.991   1.353   4.677  1.0081 -0.5043  2.4375
 2730SOL    MW410968   3.979   1.268   4.663 -0.2673 -0.0677  0.7520
 2731SOL     OW10969   0.653   2.089   4.177 -0.0581  0.3581  0.0178
 2731SOL    HW210970   0.739   2.051   4.158  0.1749  0.9892 -0.1943
 2731SOL    HW310971   0.591   2.031   4.131  0.1156 -1.0511  1.5386
 2731SOL    MW410972   0.656   2.076   4.168 -0.0044  0.2553  0.1903
 2732SOL     OW10973   4.398   1.236   4.618  0.7574 -0.2557  0.4515
 2732SOL    HW210974   4.488   1.268   4.624  0.9439 -0.7282  0.2168
 2732SOL    HW310975   4.404   1.144   4.642  0.2693 -0.1853  0.8490
 2732SOL    MW410976   4.411   1.228   4.622  0.7176 -0.3088  0.4735
 2733SOL     OW10977   1.340   2.824   4.521  0.1439 -0.0574  0.0725
 2733SOL    HW210978   1.290   2.905   4.526 -0.2052 -0.2417 -0.4077
 2733SOL    HW310979   1.431   2.851   4.535  0.0083  0.3969  0.0677
 2733SOL    MW410980   1.346   2.838   4.523  0.0800 -0.0219  0.0091
 2734SOL     OW10981   0.595   0.893   4.509 -0.3481 -0.2043 -0.3530
 2734SOL    HW210982   0.546   0.822   4.552 -0.5959 -0.5893 -1.2619
 2734SOL    HW310983   0.556   0.899   4.422  1.0274 -0.3045 -0.9833
 2734SOL    MW410984   0.583   0.884   4.503 -0.1994 -0.2684 -0.5560
 2735SOL     OW10985   0.438   2.714   3.818 -0.3421  0.2097 -0.1025
 2735SOL    HW210986   0.426   2.715   3.913 -1.4299  0.2981 -0.2426
 2735SOL    HW310987   0.455   2.623   3.796  0.5357  0.2805  0.2484
 2735SOL    MW410988   0.439   2.702   3.827 -0.3698  0.2306 -0.0749
 2736SOL     OW10989   2.353   2.072   4.414 -0.2257 -0.3806 -0.4052
 2736SOL    HW210990   2.293   2.039   4.481 -1.0883  0.9866 -0.4767
 2736SOL    HW310991   2.440   2.049   4.447 -0.5924  0.8642  1.5617
 2736SOL    MW410992   2.357   2.065   4.427 -0.3879 -0.0362 -0.1554
 2737SOL     OW10993   2.706   0.348   4.143  0.4496 -0.3249  0.0072
 2737SOL    HW210994   2.785   0.400   4.155  1.3614 -1.8248  0.7340
 2737SOL    HW310995   2.633   0.409   4.159  1.4764  0.7336  0.6958
 2737SOL    MW410996   2.706   0.363   4.147  0.7055 -0.3831  0.1941
 2738SOL     OW10997   1.093   2.096   4.274  0.5267 -0.3497 -0.2038
 2738SOL    HW210998   1.030   2.032   4.241  0.0777 -1.3295  2.4028
 2738SOL    HW310999   1.079   2.174   4.221 -0.6588 -1.6122 -1.7724
 2738SOL    MW411000   1.083   2.098   4.263  0.3110 -0.6459 -0.0668
 2739SOL     OW11001   2.493   2.842   4.320 -0.2846  0.1144  0.0033
 2739SOL    HW211002   2.467   2.891   4.398  0.5063  1.7091 -0.7000
 2739SOL    HW311003   2.574   2.798   4.346 -0.0664  0.5747  0.1111
 2739SOL    MW411004   2.501   2.843   4.334 -0.1512  0.3853 -0.0753
 2740SOL     OW11005   3.201   0.831   4.330  0.2575 -0.2550  0.4398
 2740SOL    HW211006   3.112   0.796   4.324  0.1488 -0.0627  0.8344
 2740SOL    HW311007   3.223   0.822   4.423  0.8029 -0.6630  0.2678
 2740SOL    MW411008   3.192   0.825   4.342  0.3150 -0.2834  0.4687
 2741SOL     OW11009   0.651   3.900   4.148  0.6285  0.4568  0.0527
 2741SOL    HW211010   0.725   3.946   4.187  1.9023 -1.3847 -0.1506
 2741SOL    HW311011   0.658   3.810   4.181 -1.5347  0.2644  0.0643
 2741SOL    MW411012   0.662   3.894   4.157  0.5112  0.1884  0.0272
 2742SOL     OW11013   4.481   3.667   4.705  0.2365 -0.0905  0.1020
 2742SOL    HW211014   4.410   3.641   4.645 -0.1027  1.5441 -0.2218
 2742SOL    HW311015   4.539   3.591   4.706 -1.4412 -1.4187  0.2689
 2742SOL    MW411016   4.479   3.654   4.697 -0.0296 -0.0501  0.0811
 2743SOL     OW11017   2.689   3.950   4.692  0.2721 -0.2960  0.0494
 2743SOL    HW211018   2.765   4.007   4.682  0.6296 -0.6230  0.8175
 2743SOL    HW311019   2.704   3.878   4.631  0.5278 -0.3042  0.1227
 2743SOL    MW411020   2.701   3.948   4.683  0.3526 -0.3402  0.1602
 2744SOL     OW11021   1.813   4.198   4.213  0.1852 -0.2303 -0.2670
 2744SOL    HW211022   1.799   4.185   4.119  0.9190 -1.0483 -0.2721
 2744SOL    HW311023   1.786   4.116   4.253 -1.7473  0.7128  0.4229
 2744SOL    MW411024   1.808   4.186   4.206  0.0271 -0.2136 -0.1769
 2745SOL     OW11025   2.439   1.932   4.706 -0.4723  0.1651  0.2189
 2745SOL    HW211026   2.497   1.873   4.754 -1.7459 -0.6263  0.8083
 2745SOL    HW311027   2.498   1.986   4.653  0.8277 -0.2108  1.2631
 2745SOL    MW411028   2.455   1.931   4.705 -0.4685  0.0111  0.4344
 2746SOL     OW11029   1.117   1.561   4.101  0.2046 -0.4273  0.4427
 2746SOL    HW211030   1.187   1.616   4.133  0.1326  0.8495 -1.4854
 2746SOL    HW311031   1.038   1.595   4.142  0.4710 -0.7309  1.2216
 2746SOL    MW411032   1.116   1.572   4.110  0.2303 -0.2989  0.2909
 2747SOL     OW11033   2.015   3.760   4.672  0.7303 -0.2283 -0.1051
 2747SOL    HW211034   1.952   3.753   4.744  0.4558 -1.6980 -0.4565
 2747SOL    HW311035   1.989   3.690   4.612  1.8968  0.0059 -0.8903
 2747SOL    MW411036   2.003   3.750   4.674  0.8481 -0.3915 -0.2551
 2748SOL     OW11037   4.061   2.456   4.417 -0.9059  0.0283  0.0017
 2748SOL    HW211038   4.031   2.397   4.349  1.2069 -1.0475 -0.0535
 2748SOL    HW311039   4.025   2.421   4.498 -0.4846 -0.7682 -0.1527
 2748SOL    MW411040   4.052   2.444   4.419 -0.5717 -0.2186 -0.0257
 2749SOL     OW11041   1.670   2.541   4.467  0.0453 -0.1220 -0.1701
 2749SOL    HW211042   1.690   2.537   4.374 -0.4903  0.7256 -0.3325
 2749SOL    HW311043   1.575   2.538   4.471  0.1130 -1.5517  0.4381
 2749SOL    MW411044   1.660   2.540   4.455 -0.0165 -0.1986 -0.1111
 2750SOL     OW11045   2.672   2.552   4.130 -0.0148 -0.1216 -0.1121
 2750SOL    HW211046   2.679   2.611   4.055 -0.6070  0.2386  0.1157
 2750SOL    HW311047   2.718   2.598   4.201  1.2402 -0.8154 -0.4620
 2750SOL    MW411048   2.679   2.566   4.130  0.0730 -0.1655 -0.1283
 2751SOL     OW11049   1.637   2.893   4.498 -0.1557 -0.0839  0.2090
 2751SOL    HW211050   1.689   2.970   4.479 -0.6001  0.4422  1.0766
 2751SOL    HW311051   1.694   2.837   4.550  0.7233 -1.0819 -1.8041
 2751SOL    MW411052   1.651   2.896   4.502 -0.0985 -0.1462  0.0577
 2752SOL     OW11053   3.023   1.956   4.359  0.4577  0.2788  0.4929
 2752SOL    HW211054   2.928   1.948   4.362  0.3351  0.7698 -1.3995
 2752SOL    HW311055   3.042   2.039   4.402  0.0155  0.2961  0.6566
 2752SOL    MW411056   3.013   1.966   4.365  0.3831  0.3458  0.2651
 2753SOL     OW11057   3.902   2.324   4.644 -0.5907  0.1227 -0.6686
 2753SOL    HW211058   3.979   2.319   4.701  0.2159  1.0444 -1.6435
 2753SOL    HW311059   3.877   2.233   4.630 -0.1573 -0.1559  0.2955
 2753SOL    MW411060   3.909   2.311   4.650 -0.4270  0.2074 -0.6695
 2754SOL     OW11061   1.486   2.107   4.688  0.6331  0.1622  0.1414
 2754SOL    HW211062   1.552   2.129   4.623  0.5274 -0.1231 -0.0659
 2754SOL    HW311063   1.536   2.082   4.766  0.9252 -3.6549 -1.1281
 2754SOL    MW411064   1.501   2.106   4.690  0.6577 -0.3791 -0.0544
 2755SOL     OW11065   1.360   0.852   4.263  0.3168  0.1100  0.0836
 2755SOL    HW211066   1.437   0.802   4.236  0.4452 -0.9438  2.2983
 2755SOL    HW311067   1.377   0.876   4.354 -2.3269 -0.8875  0.9073
 2755SOL    MW411068   1.372   0.848   4.271 -0.0150 -0.1607  0.4845
 2756SOL     OW11069   4.472   1.643   4.301 -0.0795 -0.1280  0.1627
 2756SOL    HW211070   4.405   1.582   4.271  0.7563 -0.2906 -1.3920
 2756SOL    HW311071   4.486   1.620   4.393 -1.7319 -0.4649  0.3377
 2756SOL    MW411072   4.465   1.632   4.310 -0.1869 -0.1938 -0.0191
 2757SOL     OW11073   3.844   4.620   4.141  0.5106  0.4151 -0.0255
 2757SOL    HW211074   3.841   4.527   4.162  0.1610  0.2213 -0.9198
 2757SOL    HW311075   3.758   4.653   4.167  0.2418  0.2636 -0.6918
 2757SOL    MW411076   3.832   4.612   4.147  0.4289  0.3695 -0.2313
 2758SOL     OW11077   1.219   4.140   4.534  0.1602  0.5677  0.2031
 2758SOL    HW211078   1.277   4.133   4.611  0.8066  0.2529 -0.3066
 2758SOL    HW311079   1.257   4.079   4.470 -0.4394  0.7493 -0.3246
 2758SOL    MW411080   1.232   4.131   4.536  0.1663  0.5503  0.0663
 2759SOL     OW11081   2.231   4.496   4.643 -0.0879 -0.0581  0.2934
 2759SOL    HW211082   2.310   4.491   4.589  0.3737 -1.4473  1.1042
 2759SOL    HW311083   2.243   4.576   4.695  0.6012 -0.0602  0.1402
 2759SOL    MW411084   2.243   4.506   4.642  0.0641 -0.2418  0.3800
 2760SOL     OW11085   3.358   4.667   4.175  0.1905  0.3862 -0.0425
 2760SOL    HW211086   3.360   4.572   4.190  0.2598  0.3082 -0.5468
 2760SOL    HW311087   3.429   4.701   4.229 -0.0573  0.1893  0.4136
 2760SOL    MW411088   3.368   4.659   4.185  0.1669  0.3505 -0.0486
 2761SOL     OW11089   2.412   1.218   4.517  0.3096  0.4357  0.5466
 2761SOL    HW211090   2.410   1.304   4.558  1.2619 -0.2636  2.1213
 2761SOL    HW311091   2.502   1.188   4.529  0.4277 -0.0583 -1.5229
 2761SOL    MW411092   2.424   1.225   4.524  0.4508  0.2782  0.4811
 2762SOL     OW11093   3.668   2.463   4.338 -0.2295  0.4170 -0.0675
 2762SOL    HW211094   3.574   2.450   4.347 -0.1252 -0.9345 -0.8192
 2762SOL    HW311095   3.699   2.480   4.427 -1.0601  0.0095  0.3019
 2762SOL    MW411096   3.660   2.464   4.351 -0.3254  0.1853 -0.1178
 2763SOL     OW11097   3.156   3.975   4.540  0.0640  0.0463 -0.5186
 2763SOL    HW211098   3.130   3.884   4.527  0.9642 -0.2185 -0.4807
 2763SOL    HW311099   3.075   4.020   4.566  0.0682 -1.1786  1.6807
 2763SOL    MW411100   3.142   3.969   4.541  0.1833 -0.1504 -0.2232
 2764SOL     OW11101   1.309   3.165   4.094 -0.0260 -0.5420 -0.1405
 2764SOL    HW211102   1.396   3.125   4.091  0.6252  0.8632 -0.2588
 2764SOL    HW311103   1.266   3.136   4.013 -0.0585 -2.0766  0.4065
 2764SOL    MW411104   1.315   3.156   4.083  0.0558 -0.5591 -0.0839
 2765SOL     OW11105   1.842   0.369   4.229 -0.3013  0.3664 -0.5394
 2765SOL    HW211106   1.867   0.356   4.138  1.2943 -1.0203  0.0555
 2765SOL    HW311107   1.807   0.284   4.256 -0.7663  0.7706  0.1525
 2765SOL    MW411108   1.841   0.356   4.221 -0.1521  0.2368 -0.3691
 2766SOL     OW11109   2.888   4.620   4.203  0.2147  0.0931  0.4161
 2766SOL    HW211110   2.972   4.655   4.234  0.3958 -0.6504  0.7799
 2766SOL    HW311111   2.891   4.629   4.108  0.2573  1.0644  0.5001
 2766SOL    MW411112   2.900   4.626   4.195  0.2441  0.1230  0.4754
 2767SOL     OW11113   3.835   1.200   4.304  0.0766  0.5988  0.3892
 2767SOL    HW211114   3.766   1.173   4.243  0.1843  1.4782 -0.1344
 2767SOL    HW311115   3.794   1.194   4.391 -0.7151  1.2692  0.0714
 2767SOL    MW411116   3.821   1.195   4.308 -0.0138  0.8034  0.2780
 2768SOL     OW11117   3.404   1.952   4.299 -0.4238  0.1120 -0.2706
 2768SOL    HW211118   3.482   1.915   4.257 -0.6380 -1.8229  0.9818
 2768SOL    HW311119   3.346   1.877   4.313 -1.2908  1.0648  1.4403
 2768SOL    MW411120   3.407   1.937   4.296 -0.5665 -0.0175  0.1202
 2769SOL     OW11121   1.343   0.134   4.277 -0.2923 -0.6260  0.2828
 2769SOL    HW211122   1.409   0.065   4.264 -0.7541 -1.1584  0.7268
 2769SOL    HW311123   1.262   0.095   4.244 -0.4953 -0.1815  0.2602
 2769SOL    MW411124   1.341   0.120   4.271 -0.3799 -0.6376  0.3386
 2770SOL     OW11125   3.577   4.207   3.832  0.0894 -0.2310 -0.0690
 2770SOL    HW211126   3.666   4.241   3.816  0.7319 -1.5220  0.6756
 2770SOL    HW311127   3.567   4.208   3.927 -0.6443 -0.2300 -0.1432
 2770SOL    MW411128   3.588   4.212   3.842  0.0775 -0.4015  0.0196
 2771SOL     OW11129   3.623   0.357   4.161  0.2688 -0.0086  0.4622
 2771SOL    HW211130   3.698   0.411   4.185 -0.1123 -0.0405  1.7875
 2771SOL    HW311131   3.618   0.363   4.065  1.4157  0.7057  0.4419
 2771SOL    MW411132   3.632   0.365   4.151  0.3698  0.0814  0.6347
 2772SOL     OW11133   2.532   1.269   3.743  0.1707 -0.2215 -0.3561
 2772SOL    HW211134   2.615   1.232   3.775  0.4583  1.5994  1.0991
 2772SOL    HW311135   2.513   1.340   3.804 -1.9938 -0.0150 -1.2454
 2772SOL    MW411136   2.541   1.273   3.755 -0.0770  0.0460 -0.2816
 2773SOL     OW11137   1.262   3.878   4.722  0.0645  0.7774  0.9050
 2773SOL    HW211138   1.174   3.900   4.690  0.7319  2.1433 -0.0262
 2773SOL    HW311139   1.295   3.960   4.759  0.8726  0.2108  1.4541
 2773SOL    MW411140   1.255   3.892   4.723  0.2590  0.8826  0.8550
 2774SOL     OW11141   3.645   1.861   4.201 -0.2348 -0.5214  0.2956
 2774SOL    HW211142   3.715   1.923   4.223 -0.4574 -0.3214  0.4414
 2774SOL    HW311143   3.643   1.860   4.106  1.0464 -1.7395  0.2606
 2774SOL    MW411144   3.654   1.869   4.191 -0.0949 -0.6557  0.3099
 2775SOL     OW11145   3.873   1.042   4.846 -0.4678 -0.2185  0.3828
 2775SOL    HW211146   3.832   1.067   4.929 -0.6722 -0.2502  0.2903
 2775SOL    HW311147   3.895   1.125   4.804  0.3927 -0.1976  0.8444
 2775SOL    MW411148   3.871   1.056   4.852 -0.3812 -0.2199  0.4315
 2776SOL     OW11149   3.092   2.193   4.512  0.2006 -0.1067  0.2446
 2776SOL    HW211150   3.006   2.203   4.553  0.0945  0.8329 -0.1996
 2776SOL    HW311151   3.106   2.275   4.465  2.1380  0.5148  1.7940
 2776SOL    MW411152   3.083   2.205   4.512  0.4423  0.0992  0.3901
 2777SOL     OW11153   3.003   3.267   4.357 -0.0260 -0.2166 -0.3276
 2777SOL    HW211154   3.010   3.190   4.301  0.1765 -0.5093  0.0962
 2777SOL    HW311155   3.021   3.341   4.299  1.1240 -0.5823 -0.4444
 2777SOL    MW411156   3.006   3.267   4.342  0.1523 -0.3037 -0.2871
 2778SOL     OW11157   0.468   0.916   4.252  0.0163  0.2121 -0.1192
 2778SOL    HW211158   0.394   0.868   4.214  0.0603  0.5485 -0.6444
 2778SOL    HW311159   0.458   1.005   4.217  0.1522  0.4885  0.5341
 2778SOL    MW411160   0.457   0.922   4.243  0.0400  0.2930 -0.1025
 2779SOL     OW11161   3.771   3.516   4.662 -0.3695  0.7819 -0.0449
 2779SOL    HW211162   3.767   3.422   4.646  2.1767  0.7554 -0.6268
 2779SOL    HW311163   3.802   3.524   4.752 -0.0252  1.0679 -0.1882
 2779SOL    MW411164   3.774   3.505   4.672  0.0117  0.8159 -0.1407
 2780SOL     OW11165   4.040   0.384   4.101  0.1725 -0.9185  0.3234
 2780SOL    HW211166   3.975   0.427   4.156  0.0678 -0.3683 -0.2331
 2780SOL    HW311167   4.051   0.297   4.141  1.1551 -0.0228  2.0525
 2780SOL    MW411168   4.033   0.378   4.113  0.2885 -0.7277  0.4778
 2781SOL     OW11169   0.875   3.989   3.757  0.0687  0.0717 -0.0237
 2781SOL    HW211170   0.951   3.950   3.800  0.1960  0.5416  0.1929
 2781SOL    HW311171   0.889   3.975   3.664  1.0791  1.3063 -0.0689
 2781SOL    MW411172   0.887   3.982   3.751  0.2188  0.2966 -0.0010
 2782SOL     OW11173   1.758   3.964   4.352 -0.3746 -0.0545  0.2101
 2782SOL    HW211174   1.684   3.910   4.380 -1.2134  0.3677 -1.1592
 2782SOL    HW311175   1.805   3.983   4.433 -0.9498 -1.5154  0.9147
 2782SOL    MW411176   1.755   3.959   4.367 -0.5612 -0.1917  0.1225
 2783SOL     OW11177   0.455   4.279   4.177 -0.0078 -0.1116  0.2446
 2783SOL    HW211178   0.450   4.273   4.081 -2.3123  0.0296  0.3135
 2783SOL    HW311179   0.466   4.188   4.206  1.4635 -0.0801 -0.1656
 2783SOL    MW411180   0.456   4.266   4.168 -0.1177 -0.0892  0.1998
 2784SOL     OW11181   2.547   3.646   4.344  0.3877  0.9234 -0.2502
 2784SOL    HW211182   2.485   3.591   4.392  2.0691 -1.2967 -0.5349
 2784SOL    HW311183   2.494   3.693   4.280 -0.9874 -0.9920 -0.5499
 2784SOL    MW411184   2.532   3.645   4.342  0.4280  0.3779 -0.3271
 2785SOL     OW11185   3.885   2.312   4.257  0.2880  0.1654 -0.5273
 2785SOL    HW211186   3.803   2.351   4.288  0.0666 -0.0767 -0.7941
 2785SOL    HW311187   3.885   2.329   4.163  1.0407  1.0516 -0.3710
 2785SOL    MW411188   3.874   2.319   4.249  0.3579  0.2503 -0.5422
 2786SOL     OW11189   0.262   3.113   4.350 -0.1484  0.4606  0.1103
 2786SOL    HW211190   0.264   3.047   4.281 -0.1344  0.3757  0.1921
 2786SOL    HW311191   0.342   3.164   4.336 -1.5155  2.1937 -1.6488
 2786SOL    MW411192   0.273   3.111   4.339 -0.3269  0.6781 -0.1116
 2787SOL     OW11193   0.668   0.552   4.223 -0.3401 -0.6538  0.1159
 2787SOL    HW211194   0.585   0.515   4.193 -1.1451  0.6203  0.7613
 2787SOL    HW311195   0.731   0.480   4.212 -1.7297 -1.9847  0.6697
 2787SOL    MW411196   0.666   0.538   4.217 -0.6297 -0.6613  0.2742
 2788SOL     OW11197   3.193   0.285   4.156  0.3849  0.0131  0.1665
 2788SOL    HW211198   3.120   0.342   4.181 -0.0857 -0.3765 -0.3095
 2788SOL    HW311199   3.167   0.199   4.188  0.5392 -0.1680 -0.2033
 2788SOL    MW411200   3.180   0.281   4.163  0.3433 -0.0622  0.0548
 2789SOL     OW11201   0.658   1.176   4.501  0.2728  0.1146 -0.1836
 2789SOL    HW211202   0.602   1.233   4.553  0.2681 -0.0947  0.0381
 2789SOL    HW311203   0.634   1.087   4.527  2.4374  0.0440  1.7486
 2789SOL    MW411204   0.647   1.172   4.511  0.5578  0.0776  0.1006
 2790SOL     OW11205   3.777   3.990   4.574 -0.1460 -0.2752 -0.2790
 2790SOL    HW211206   3.720   4.051   4.528 -1.2918 -0.6346  0.6528
 2790SOL    HW311207   3.733   3.906   4.567  1.0522 -0.8677 -0.9016
 2790SOL    MW411208   3.764   3.987   4.567 -0.1392 -0.4008 -0.2384
 2791SOL     OW11209   3.387   0.456   4.259  0.0113  0.1677  0.0763
 2791SOL    HW211210   3.469   0.428   4.218 -0.2089  2.0474 -1.7471
 2791SOL    HW311211   3.320   0.398   4.220  0.1798  0.1142 -0.1360
 2791SOL    MW411212   3.389   0.444   4.248  0.0043  0.4086 -0.1926
 2792SOL     OW11213   2.705   1.682   3.540  0.2208  0.2893 -0.5950
 2792SOL    HW211214   2.638   1.626   3.500 -0.4723 -0.2711  1.2930
 2792SOL    HW311215   2.695   1.766   3.496  1.1064 -0.9322 -3.3145
 2792SOL    MW411216   2.695   1.685   3.529  0.2458  0.0542 -0.7048
 2793SOL     OW11217   2.934   1.213   4.340 -0.0692  0.5103  0.0124
 2793SOL    HW211218   2.943   1.298   4.297 -0.0426  0.8196  0.6178
 2793SOL    HW311219   3.022   1.175   4.338 -0.4166 -0.2567 -1.7768
 2793SOL    MW411220   2.947   1.219   4.334 -0.1113  0.4499 -0.1440
 2794SOL     OW11221   0.136   3.900   4.669  0.8061  0.4435 -0.7142
 2794SOL    HW211222   0.081   3.953   4.612  0.9417  1.8804  0.4572
 2794SOL    HW311223   0.080   3.827   4.697 -0.2025  1.3732 -0.2893
 2794SOL    MW411224   0.122   3.897   4.665  0.6909  0.7558 -0.5040
 2795SOL     OW11225   2.893   3.857   4.215 -0.0443 -0.4103  0.0018
 2795SOL    HW211226   2.830   3.899   4.274  0.8683 -0.8362  1.2986
 2795SOL    HW311227   2.975   3.905   4.229 -0.4007  1.0873 -2.7494
 2795SOL    MW411228   2.896   3.869   4.225  0.0291 -0.2689 -0.1903
 2796SOL     OW11229   0.673   4.427   4.268  0.3172  0.1333 -0.4292
 2796SOL    HW211230   0.663   4.515   4.231 -0.0977  0.0906 -0.4204
 2796SOL    HW311231   0.595   4.379   4.239 -0.1727  0.1944  0.7493
 2796SOL    MW411232   0.661   4.432   4.259  0.1979  0.1364 -0.2728
 2797SOL     OW11233   1.141   0.799   4.113 -0.3210  0.2535  0.0169
 2797SOL    HW211234   1.135   0.704   4.124 -2.7382  0.5390  1.4142
 2797SOL    HW311235   1.211   0.826   4.172 -0.8225 -0.4708  0.9544
 2797SOL    MW411236   1.149   0.790   4.122 -0.7060  0.1957  0.3242
 2798SOL     OW11237   3.103   2.859   4.515  0.1188 -0.1546  0.4224
 2798SOL    HW211238   3.032   2.880   4.576  0.9922  0.3005  1.2972
 2798SOL    HW311239   3.156   2.939   4.513  1.7210 -1.1948  1.3179
 2798SOL    MW411240   3.100   2.872   4.522  0.4456 -0.2317  0.6557
 2799SOL     OW11241   3.466   3.657   4.382 -0.0388  0.0932  0.2915
 2799SOL    HW211242   3.519   3.601   4.326 -0.4165 -0.3843  0.4098
 2799SOL    HW311243   3.380   3.616   4.383 -0.4700  0.9750 -0.0599
 2799SOL    MW411244   3.462   3.645   4.375 -0.1457  0.1464  0.2608
 2800SOL     OW11245   3.473   4.219   4.804  0.0489  0.2393  0.3835
 2800SOL    HW211246   3.452   4.133   4.768 -1.0299 -0.1184  1.8628
 2800SOL    HW311247   3.402   4.276   4.773 -0.0114  0.2851  0.6097
 2800SOL    MW411248   3.461   4.215   4.795 -0.1011  0.1984  0.6084
 2801SOL     OW11249   2.959   0.739   4.629  0.0650  0.0960 -0.7710
 2801SOL    HW211250   3.052   0.760   4.626 -0.3202  2.0028 -0.6731
 2801SOL    HW311251   2.945   0.704   4.717  0.5188  0.7695 -0.4205
 2801SOL    MW411252   2.969   0.737   4.640  0.0741  0.4364 -0.7119
 2802SOL     OW11253   4.279   3.570   4.522  0.2077  0.0901 -0.5360
 2802SOL    HW211254   4.303   3.482   4.553  0.1438  0.5709  0.9289
 2802SOL    HW311255   4.184   3.574   4.535  0.2784  0.5397 -0.1407
 2802SOL    MW411256   4.269   3.559   4.528  0.2084  0.2129 -0.2899
 2803SOL     OW11257   2.284   1.957   4.161 -0.8147  0.4121 -0.0677
 2803SOL    HW211258   2.322   1.993   4.241 -0.4737  0.6307 -0.3279
 2803SOL    HW311259   2.200   2.001   4.153 -0.5482  0.8991 -0.1981
 2803SOL    MW411260   2.278   1.968   4.171 -0.7348  0.5052 -0.1192
 2804SOL     OW11261   4.278   2.274   4.425 -0.0163  0.1085 -0.2869
 2804SOL    HW211262   4.194   2.305   4.460 -0.2243  0.2571 -0.8981
 2804SOL    HW311263   4.279   2.180   4.446 -0.8873 -0.1478 -1.3210
 2804SOL    MW411264   4.267   2.265   4.432 -0.1583  0.0944 -0.5040
 2805SOL     OW11265   3.382   2.035   3.800  0.2410  0.4892  0.1377
 2805SOL    HW211266   3.370   2.042   3.705  1.9754  0.4772 -0.1153
 2805SOL    HW311267   3.379   2.125   3.831  0.2349  0.5406 -0.0089
 2805SOL    MW411268   3.380   2.048   3.791  0.4687  0.4945  0.0846
 2806SOL     OW11269   3.413   1.188   4.543 -0.2337  0.6863  0.1605
 2806SOL    HW211270   3.431   1.276   4.510  0.0713  0.6161  0.1396
 2806SOL    HW311271   3.353   1.150   4.479  0.2605  0.5947 -0.2477
 2806SOL    MW411272   3.408   1.195   4.530 -0.1280  0.6649  0.1044
 2807SOL     OW11273   2.488   0.460   3.768  0.0947 -0.3037 -0.2975
 2807SOL    HW211274   2.498   0.457   3.672 -4.0248  0.1746 -0.8567
 2807SOL    HW311275   2.512   0.549   3.792  0.1465 -0.1180 -1.0180
 2807SOL    MW411276   2.492   0.471   3.758 -0.4420 -0.2161 -0.4663
 2808SOL     OW11277   4.192   4.102   4.630 -0.1070  0.3927 -0.5352
 2808SOL    HW211278   4.123   4.115   4.696 -0.2690 -0.0988 -0.6037
 2808SOL    HW311279   4.159   4.031   4.575  0.5669 -0.0022 -0.4254
 2808SOL    MW411280   4.178   4.095   4.631 -0.0396  0.2761 -0.5293
 2809SOL     OW11281   3.175   0.352   4.522  0.4222  0.0805  0.3607
 2809SOL    HW211282   3.244   0.419   4.514  0.2838  0.2825  0.8581
 2809SOL    HW311283   3.093   0.401   4.514  0.3361 -0.2172 -0.6531
 2809SOL    MW411284   3.173   0.368   4.520  0.3927  0.0679  0.2928
 2810SOL     OW11285   1.326   1.989   4.172  0.0158 -0.1657 -0.1916
 2810SOL    HW211286   1.243   2.030   4.196  0.4307 -0.0366  1.0357
 2810SOL    HW311287   1.316   1.897   4.196 -0.1915 -0.4010 -1.1348
 2810SOL    MW411288   1.314   1.982   4.178  0.0433 -0.1799 -0.1545
 2811SOL     OW11289   2.867   4.340   4.240 -0.3653  0.5362 -0.0235
 2811SOL    HW211290   2.776   4.311   4.244 -0.2989  0.4909  1.3484
 2811SOL    HW311291   2.862   4.434   4.222 -0.6867  0.5283  0.0272
 2811SOL    MW411292   2.855   4.349   4.238 -0.3991  0.5298  0.1636
 2812SOL     OW11293   2.733   2.689   4.372  0.8070  0.3330 -0.0437
 2812SOL    HW211294   2.821   2.712   4.345  1.3756 -2.2040 -0.4660
 2812SOL    HW311295   2.745   2.620   4.438 -0.8386 -0.1031 -0.1726
 2812SOL    MW411296   2.746   2.683   4.377  0.6652 -0.0594 -0.1163
 2813SOL     OW11297   3.705   2.514   4.613  0.2420 -0.2595 -0.2542
 2813SOL    HW211298   3.772   2.453   4.646  0.0985 -0.6454 -0.6733
 2813SOL    HW311299   3.622   2.472   4.633  0.1694 -1.1667 -2.3499
 2813SOL    MW411300   3.703   2.500   4.620  0.2134 -0.4301 -0.5860
 2814SOL     OW11301   4.224   2.695   4.380  0.3313  0.2373  1.0034
 2814SOL    HW211302   4.191   2.740   4.302 -0.5077  0.4571  1.4787
 2814SOL    HW311303   4.180   2.610   4.379 -0.7750  0.7971  2.0123
 2814SOL    MW411304   4.214   2.689   4.370  0.0749  0.3402  1.1992
 2815SOL     OW11305   0.291   3.667   4.530 -0.0734 -0.5542 -0.3493
 2815SOL    HW211306   0.245   3.744   4.565  1.5735  0.1784  0.2743
 2815SOL    HW311307   0.235   3.593   4.551 -0.0734  0.1156  2.0748
 2815SOL    MW411308   0.278   3.668   4.537  0.1439 -0.3693  0.0529
 2816SOL     OW11309   0.645   3.116   4.104 -0.1431 -0.0571 -0.3020
 2816SOL    HW211310   0.645   3.024   4.129  0.4562 -0.3560 -1.3605
 2816SOL    HW311311   0.596   3.160   4.173 -0.8078 -1.2310 -0.0190
 2816SOL    MW411312   0.639   3.110   4.117 -0.1517 -0.2513 -0.4039
 2817SOL     OW11313   1.796   3.210   4.229  0.1908  0.2492  0.1386
 2817SOL    HW211314   1.885   3.178   4.213  0.4653  0.8528  0.4465
 2817SOL    HW311315   1.800   3.303   4.207 -0.7094 -0.0052 -1.1508
 2817SOL    MW411316   1.809   3.218   4.224  0.1082  0.2954  0.0086
 2818SOL     OW11317   2.012   0.607   4.559  0.3465 -0.0812 -0.0979
 2818SOL    HW211318   2.031   0.570   4.473  0.6278  0.3738 -0.2296
 2818SOL    HW311319   1.946   0.674   4.544 -1.6461 -1.8612  0.4008
 2818SOL    MW411320   2.006   0.611   4.546  0.1206 -0.2559 -0.0496
 2819SOL     OW11321   1.805   1.138   3.866  0.0794 -0.2123  0.6310
 2819SOL    HW211322   1.890   1.182   3.861  0.4442 -0.8295  1.2537
 2819SOL    HW311323   1.822   1.050   3.832 -0.6131  0.0781 -0.4881
 2819SOL    MW411324   1.818   1.132   3.861  0.0362 -0.2555  0.5655
 2820SOL     OW11325   4.301   0.771   4.141 -0.0790 -0.4496  0.1107
 2820SOL    HW211326   4.314   0.792   4.049 -0.7627 -0.7402 -0.0537
 2820SOL    HW311327   4.322   0.678   4.147 -0.4062 -0.5187  0.1773
 2820SOL    MW411328   4.306   0.761   4.130 -0.2122 -0.4970  0.0973
 2821SOL     OW11329   0.645   1.528   4.172  0.3936  0.1257 -0.2150
 2821SOL    HW211330   0.657   1.437   4.198 -0.3861 -0.6055 -2.2830
 2821SOL    HW311331   0.651   1.526   4.076  0.8853  2.3263 -0.2517
 2821SOL    MW411332   0.648   1.516   4.163  0.3556  0.3196 -0.4926
 2822SOL     OW11333   0.530   3.253   4.325 -0.1407  0.4975 -0.1107
 2822SOL    HW211334   0.580   3.282   4.401  0.2458 -0.3005 -0.0645
 2822SOL    HW311335   0.530   3.329   4.266 -0.5376  1.1502  0.7254
 2822SOL    MW411336   0.537   3.267   4.327 -0.1420  0.4787  0.0057
 2823SOL     OW11337   4.237   1.748   4.542  0.3156 -0.6473  0.4060
 2823SOL    HW211338   4.143   1.759   4.535  0.4629  0.3282 -0.0436
 2823SOL    HW311339   4.248   1.679   4.608 -0.7251 -1.5086 -0.2984
 2823SOL    MW411340   4.226   1.740   4.550  0.1979 -0.6322  0.2537
 2824SOL     OW11341   2.018   0.719   4.168  0.4744  0.1640  0.5420
 2824SOL    HW211342   2.027   0.634   4.211  0.9431 -0.9094 -1.5678
 2824SOL    HW311343   2.090   0.771   4.202  1.4582 -1.0071  0.2923
 2824SOL    MW411344   2.029   0.715   4.178  0.6659 -0.1321  0.2308
 2825SOL     OW11345   2.214   0.147   4.250  0.6952  0.0294 -0.0535
 2825SOL    HW211346   2.214   0.165   4.344  0.0265  0.4104 -0.1260
 2825SOL    HW311347   2.128   0.109   4.233  1.0977 -0.7303 -0.3794
 2825SOL    MW411348   2.203   0.145   4.260  0.6597 -0.0206 -0.1063
 2826SOL     OW11349   1.578   0.746   4.152 -0.0497 -0.1750 -0.0076
 2826SOL    HW211350   1.589   0.654   4.174  0.0718  0.0253  0.7781
 2826SOL    HW311351   1.633   0.793   4.214 -1.4737  0.5339  0.7612
 2826SOL    MW411352   1.586   0.740   4.163 -0.2215 -0.0551  0.1979
 2827SOL     OW11353   0.880   1.655   4.217  0.0995 -0.2518  0.2414
 2827SOL    HW211354   0.883   1.654   4.313  0.4359  1.6663  0.2661
 2827SOL    HW311355   0.795   1.616   4.195  0.5888 -1.9433  1.2671
 2827SOL    MW411356   0.869   1.650   4.227  0.2084 -0.2218  0.3800
 2828SOL     OW11357   1.339   4.249   4.145 -0.0852  0.2470 -0.2996
 2828SOL    HW211358   1.355   4.256   4.051  1.5908  2.1685  0.0876
 2828SOL    HW311359   1.261   4.303   4.160  0.4083  1.0083 -0.4225
 2828SOL    MW411360   1.331   4.257   4.134  0.2011  0.6008 -0.2646
 2829SOL     OW11361   2.006   3.598   3.774 -0.0188  0.7443 -0.4428
 2829SOL    HW211362   1.994   3.689   3.800 -1.9668  0.3943 -0.0534
 2829SOL    HW311363   2.011   3.602   3.678 -0.4288  1.2307 -0.4506
 2829SOL    MW411364   2.005   3.611   3.765 -0.3300  0.7622 -0.3922
 2830SOL     OW11365   2.635   2.155   4.276 -0.0261 -0.3543  0.1758
 2830SOL    HW211366   2.677   2.072   4.251  0.4909  0.3138 -1.2447
 2830SOL    HW311367   2.624   2.148   4.370  1.0370 -1.5892  0.2352
 2830SOL    MW411368   2.639   2.143   4.285  0.1824 -0.4292 -0.0033
 2831SOL     OW11369   4.046   1.104   4.140  0.1730  0.0521  0.0941
 2831SOL    HW211370   3.975   1.133   4.197 -1.2530 -0.1854 -1.4908
 2831SOL    HW311371   4.065   1.015   4.168 -0.5080 -0.0578  0.2089
 2831SOL    MW411372   4.039   1.096   4.151 -0.1044  0.0061 -0.1001
 2832SOL     OW11373   1.763   3.487   3.849 -0.1407 -0.3480 -0.0921
 2832SOL    HW211374   1.763   3.484   3.944 -0.5855 -1.1878 -0.1140
 2832SOL    HW311375   1.850   3.520   3.826 -0.6687  1.5667  0.6412
 2832SOL    MW411376   1.775   3.491   3.858 -0.2691 -0.2060  0.0017
 2833SOL     OW11377   1.568   2.096   4.261  0.3935  0.0479 -0.7061
 2833SOL    HW211378   1.639   2.044   4.223  1.3930 -0.7228  2.0598
 2833SOL    HW311379   1.488   2.052   4.235  1.1180 -1.3185 -0.6439
 2833SOL    MW411380   1.567   2.083   4.253  0.6210 -0.2339 -0.3328
 2834SOL     OW11381   0.052   3.441   4.174 -0.1704  0.1202  0.2551
 2834SOL    HW211382   0.130   3.491   4.195 -0.6461  1.1516 -0.3765
 2834SOL    HW311383   0.042   3.449   4.079 -0.1958 -1.2700  0.1288
 2834SOL    MW411384   0.061   3.449   4.164 -0.2365  0.0727  0.1550
 2835SOL     OW11385   3.604   4.243   4.112  0.2002 -0.8244 -0.3186
 2835SOL    HW211386   3.526   4.290   4.141  0.7378  0.8487 -1.4813
 2835SOL    HW311387   3.676   4.286   4.158  0.4781 -2.0453  0.3836
 2835SOL    MW411388   3.603   4.255   4.122  0.3076 -0.7648 -0.3791
 2836SOL     OW11389   0.845   1.684   4.502 -0.0574  0.2172 -0.0709
 2836SOL    HW211390   0.905   1.611   4.520 -0.6325 -0.8118 -2.1937
 2836SOL    HW311391   0.759   1.652   4.529 -0.3067  0.1045 -0.9730
 2836SOL    MW411392   0.842   1.670   4.508 -0.1662  0.0665 -0.4697
 2837SOL     OW11393   2.171   1.965   4.595 -0.0518  0.1591 -0.2496
 2837SOL    HW211394   2.249   1.956   4.649  0.8805  1.7960 -1.2945
 2837SOL    HW311395   2.152   1.876   4.565  0.7995 -0.3980  0.8307
 2837SOL    MW411396   2.178   1.952   4.598  0.1833  0.3016 -0.2446
 2838SOL     OW11397   1.667   1.606   4.395  0.2133 -0.2632 -0.2979
 2838SOL    HW211398   1.589   1.650   4.429 -0.2942 -0.7281 -0.8407
 2838SOL    HW311399   1.643   1.580   4.306  1.3534  0.5175 -0.8495
 2838SOL    MW411400   1.654   1.609   4.388  0.2967 -0.2215 -0.4425
 2839SOL     OW11401   1.571   3.092   4.094  0.1705 -0.2128 -0.1415
 2839SOL    HW211402   1.571   3.008   4.140 -0.4469  0.4046  1.0148
 2839SOL    HW311403   1.649   3.137   4.128 -0.2153  0.1951  0.1946
 2839SOL    MW411404   1.582   3.087   4.105  0.0381 -0.0775  0.0553
 2840SOL     OW11405   0.806   3.543   4.573  0.0318  0.2164  0.2690
 2840SOL    HW211406   0.881   3.598   4.549 -0.7514  0.3376 -2.0716
 2840SOL    HW311407   0.731   3.602   4.573 -0.5744 -0.5235 -0.7731
 2840SOL    MW411408   0.806   3.558   4.570 -0.1516  0.1347 -0.1779
 2841SOL     OW11409   0.760   3.277   4.477 -0.0053 -0.0994 -0.8001
 2841SOL    HW211410   0.808   3.267   4.395  0.3514  0.6153 -0.6790
 2841SOL    HW311411   0.784   3.363   4.509 -0.1292 -0.3824  0.0719
 2841SOL    MW411412   0.769   3.287   4.470  0.0253 -0.0422 -0.6695
 2842SOL     OW11413   0.217   2.722   4.441  0.1025 -0.3652  0.1255
 2842SOL    HW211414   0.125   2.740   4.456  0.3569  1.2759 -0.1258
 2842SOL    HW311415   0.219   2.678   4.356 -0.2681  1.7635 -1.0168
 2842SOL    MW411416   0.205   2.719   4.431  0.0872  0.1323 -0.0587
 2843SOL     OW11417   0.851   4.048   4.264 -0.1252 -0.2206 -0.4069
 2843SOL    HW211418   0.863   4.141   4.244  1.1823 -0.1570  0.5542
 2843SOL    HW311419   0.929   4.005   4.227 -0.4318 -0.8469 -0.3398
 2843SOL    MW411420   0.863   4.054   4.257  0.0068 -0.2952 -0.2718
 2844SOL     OW11421   1.383   2.531   4.478  0.0272 -0.0051  0.2501
 2844SOL    HW211422   1.359   2.620   4.504 -2.6254  0.0681 -2.1657
 2844SOL    HW311423   1.340   2.474   4.542 -1.4868  0.3413 -0.4538
 2844SOL    MW411424   1.374   2.535   4.490 -0.5225  0.0503 -0.1612
 2845SOL     OW11425   1.971   1.077   4.523 -0.0409 -0.1487  0.1362
 2845SOL    HW211426   1.926   1.117   4.449  0.9734  0.5187 -0.1353
 2845SOL    HW311427   1.972   1.145   4.590  1.5320  0.2590 -0.2662
 2845SOL    MW411428   1.965   1.091   4.522  0.3004 -0.0068  0.0477
 2846SOL     OW11429   3.273   3.121   4.131  0.0315 -0.5154  0.1896
 2846SOL    HW211430   3.299   3.031   4.153  0.1788 -0.6550 -0.5572
 2846SOL    HW311431   3.314   3.138   4.047 -0.2122  0.1645  0.2078
 2846SOL    MW411432   3.282   3.111   4.123  0.0188 -0.4442  0.0939
 2847SOL     OW11433   2.224   0.272   4.514  0.2469  0.1588  0.2288
 2847SOL    HW211434   2.156   0.309   4.571 -0.1534 -1.4028  0.8017
 2847SOL    HW311435   2.285   0.230   4.574  0.7421 -0.0192 -0.3960
 2847SOL    MW411436   2.223   0.271   4.529  0.2594 -0.0707  0.2222
 2848SOL     OW11437   3.687   4.375   4.859  0.3897  0.6630 -0.0856
 2848SOL    HW211438   3.619   4.309   4.850  0.4110  0.8165 -1.4421
 2848SOL    HW311439   3.688   4.396   4.953 -1.4979  0.7311 -0.0596
 2848SOL    MW411440   3.678   4.369   4.870  0.1435  0.6924 -0.2618
 2849SOL     OW11441   0.755   0.040   4.552  0.0729  0.3385  0.0109
 2849SOL    HW211442   0.830   0.055   4.610 -0.2538 -1.1962  0.8770
 2849SOL    HW311443   0.741  -0.055   4.556 -0.2228  0.2594 -2.2705
 2849SOL    MW411444   0.763   0.029   4.560 -0.0092  0.1256 -0.1760
 2850SOL     OW11445   2.380   1.465   4.624 -0.2644 -0.8691  0.1326
 2850SOL    HW211446   2.406   1.549   4.587 -0.8661 -0.7798 -0.0946
 2850SOL    HW311447   2.289   1.478   4.651 -0.1173 -1.2157  0.7975
 2850SOL    MW411448   2.371   1.478   4.622 -0.3245 -0.9030  0.1907
 2851SOL     OW11449   3.320   1.232   4.167 -0.1377 -0.1794  0.1097
 2851SOL    HW211450   3.298   1.325   4.170  0.6713  0.0371 -0.3473
 2851SOL    HW311451   3.273   1.199   4.090 -0.8365 -0.2594  0.5739
 2851SOL    MW411452   3.311   1.240   4.157 -0.1233 -0.1613  0.1106
 2852SOL     OW11453   1.829   4.642   4.711  0.0861  0.1484 -0.2076
 2852SOL    HW211454   1.855   4.569   4.655 -0.5593  0.3589 -0.7821
 2852SOL    HW311455   1.819   4.716   4.652  0.0592  0.5406  0.2798
 2852SOL    MW411456   1.832   4.642   4.696 -0.0025  0.2279 -0.2193
 2853SOL     OW11457   1.378   1.988   3.885 -0.3902  0.0615  0.1144
 2853SOL    HW211458   1.362   1.983   3.979 -0.2841 -0.4148  0.1073
 2853SOL    HW311459   1.295   2.018   3.848 -0.1479  1.1560  0.4555
 2853SOL    MW411460   1.365   1.991   3.893 -0.3443  0.1431  0.1583
 2854SOL     OW11461   2.270   2.434   3.740 -0.6928 -0.1487 -0.3250
 2854SOL    HW211462   2.347   2.381   3.762 -1.6440 -1.7007 -0.6301
 2854SOL    HW311463   2.196   2.385   3.777 -1.7747  0.0266 -2.1972
 2854SOL    MW411464   2.270   2.420   3.748 -0.9608 -0.3302 -0.6123
 2855SOL     OW11465   0.217   0.557   4.526 -0.1915 -0.1669  0.1237
 2855SOL    HW211466   0.234   0.471   4.565  0.8581 -1.5586 -3.2371
 2855SOL    HW311467   0.296   0.607   4.545  0.5163 -0.9961 -0.5555
 2855SOL    MW411468   0.230   0.552   4.534  0.0404 -0.4599 -0.4091
 2856SOL     OW11469   2.501   0.732   3.863 -0.1434  0.4227 -0.3249
 2856SOL    HW211470   2.488   0.757   3.955 -0.4653  0.7952 -0.4703
 2856SOL    HW311471   2.429   0.775   3.817 -0.0255  0.1685 -0.7411
 2856SOL    MW411472   2.490   0.741   3.869 -0.1705  0.4384 -0.3991
 2857SOL     OW11473   1.129   4.412   4.214  0.2925  0.0875  0.1038
 2857SOL    HW211474   1.163   4.396   4.302 -0.5853 -0.4173  0.3578
 2857SOL    HW311475   1.049   4.360   4.209  2.0785 -2.6113 -2.1773
 2857SOL    MW411476   1.123   4.403   4.225  0.4122 -0.3347 -0.1636
 2858SOL     OW11477   3.602   0.709   4.504 -0.1037 -0.5308  0.2968
 2858SOL    HW211478   3.642   0.767   4.569 -2.6458 -0.0218  1.4564
 2858SOL    HW311479   3.599   0.761   4.424 -0.1978  0.0973  0.7077
 2858SOL    MW411480   3.607   0.723   4.502 -0.4516 -0.3808  0.5040
 2859SOL     OW11481   0.877   3.253   4.226  0.4794  0.5486  0.1518
 2859SOL    HW211482   0.956   3.200   4.215  0.2576 -0.2081  1.9649
 2859SOL    HW311483   0.811   3.211   4.171  1.1050  0.6917 -0.7149
 2859SOL    MW411484   0.879   3.240   4.217  0.5327  0.4675  0.2766
 2860SOL     OW11485   0.887   1.188   3.877  0.3808  0.2971 -0.0235
 2860SOL    HW211486   0.930   1.192   3.962  0.6772 -2.0299 -0.0422
 2860SOL    HW311487   0.901   1.098   3.847 -0.0453  0.9876 -2.3568
 2860SOL    MW411488   0.894   1.177   3.884  0.3636  0.0812 -0.3338
 2861SOL     OW11489   2.610   4.204   4.197  0.1350 -0.0108 -0.3930
 2861SOL    HW211490   2.618   4.216   4.103  1.7137  2.8052  0.0476
 2861SOL    HW311491   2.548   4.271   4.225  1.2477  0.5347  0.8220
 2861SOL    MW411492   2.603   4.214   4.188  0.4900  0.4330 -0.1745
 2862SOL     OW11493   1.431   1.279   4.524 -0.7468 -0.1755 -0.2394
 2862SOL    HW211494   1.424   1.186   4.547  1.5684 -0.1564  0.7022
 2862SOL    HW311495   1.418   1.281   4.429  1.1069 -1.7192 -0.5603
 2862SOL    MW411496   1.428   1.267   4.514 -0.1967 -0.3766 -0.1574
 2863SOL     OW11497   0.911   1.925   4.160 -0.0267  0.3230 -0.2199
 2863SOL    HW211498   0.927   1.919   4.066 -0.7401 -0.7339 -0.2788
 2863SOL    HW311499   0.906   1.834   4.190 -0.9026  0.6411  0.6436
 2863SOL    MW411500   0.912   1.912   4.152 -0.2364  0.2255 -0.1140
 2864SOL     OW11501   2.657   1.422   4.671  0.3527 -0.4201  0.1178
 2864SOL    HW211502   2.561   1.424   4.676  0.4023  0.2380  0.8360
 2864SOL    HW311503   2.676   1.349   4.612 -0.5840 -0.7674  0.2364
 2864SOL    MW411504   2.647   1.412   4.664  0.2356 -0.3792  0.2284
 2865SOL     OW11505   1.249   1.497   4.659 -0.0569 -0.6850  0.0452
 2865SOL    HW211506   1.316   1.430   4.648 -0.3840 -0.8279 -1.1493
 2865SOL    HW311507   1.215   1.483   4.747  1.4807 -0.6010  0.6553
 2865SOL    MW411508   1.253   1.487   4.669  0.1029 -0.6927 -0.0319
 2866SOL     OW11509   0.727   2.087   4.438  0.5959 -0.2050  0.1500
 2866SOL    HW211510   0.769   2.173   4.437  0.7343 -0.2703  0.3254
 2866SOL    HW311511   0.687   2.078   4.352  0.4085  0.1238  0.2010
 2866SOL    MW411512   0.727   2.097   4.427  0.5894 -0.1702  0.1798
 2867SOL     OW11513   3.993   3.618   4.491 -0.2255 -0.1799  0.2862
 2867SOL    HW211514   3.922   3.592   4.549  1.3756 -1.1409  1.8678
 2867SOL    HW311515   4.006   3.711   4.509 -2.0747  0.3987 -1.1491
 2867SOL    MW411516   3.985   3.627   4.501 -0.2582 -0.2306  0.3057
 2868SOL     OW11517   0.024   0.108   4.614  0.7403  0.4319 -0.0741
 2868SOL    HW211518  -0.067   0.139   4.617  1.0119  1.1589  1.0040
 2868SOL    HW311519   0.018   0.015   4.635  0.2267  0.4358 -0.1875
 2868SOL    MW411520   0.011   0.100   4.617  0.7084  0.5284  0.0534
 2869SOL     OW11521   4.108   3.498   4.145 -0.4468 -0.0815 -0.1662
 2869SOL    HW211522   4.099   3.411   4.185  0.5753  0.4623  1.2840
 2869SOL    HW311523   4.193   3.529   4.175 -1.6533  2.2694  1.0076
 2869SOL    MW411524   4.118   3.490   4.154 -0.4716  0.3006  0.1802
 2870SOL     OW11525   3.240   3.096   4.516  0.3861  0.2994 -0.0269
 2870SOL    HW211526   3.284   3.134   4.440 -1.1571 -1.0195 -1.6051
 2870SOL    HW311527   3.203   3.171   4.562  2.7122  1.2623  0.3602
 2870SOL    MW411528   3.241   3.111   4.512  0.4892  0.2527 -0.1845
 2871SOL     OW11529   3.694   1.156   4.538 -0.2234 -0.1634  0.2202
 2871SOL    HW211530   3.735   1.225   4.590 -0.9101  0.5781 -0.2152
 2871SOL    HW311531   3.600   1.177   4.539 -0.3895 -0.8508 -0.2718
 2871SOL    MW411532   3.687   1.168   4.545 -0.3357 -0.1562  0.0982
 2872SOL     OW11533   2.992   3.242   4.639 -0.4072 -0.0040  0.0944
 2872SOL    HW211534   2.981   3.258   4.545 -0.0896 -1.2794 -0.1702
 2872SOL    HW311535   2.962   3.152   4.651 -0.1526  0.0547  1.1614
 2872SOL    MW411536   2.987   3.232   4.628 -0.3319 -0.1647  0.2003
 2873SOL     OW11537   1.372   3.375   4.279  0.5976 -0.0785 -0.3175
 2873SOL    HW211538   1.313   3.378   4.354  2.0050  1.4619  0.7804
 2873SOL    HW311539   1.346   3.297   4.230 -1.8461  0.1809  0.5144
 2873SOL    MW411540   1.361   3.365   4.282  0.4610  0.1590 -0.0629
 2874SOL     OW11541   3.676   0.908   4.660 -0.1305 -0.0242 -0.0303
 2874SOL    HW211542   3.688   0.970   4.588 -0.5266  0.2707  0.1551
 2874SOL    HW311543   3.736   0.937   4.728 -0.0374 -0.0711 -0.0936
 2874SOL    MW411544   3.685   0.920   4.659 -0.1705  0.0085 -0.0138
 2875SOL     OW11545   0.523   4.010   4.527 -0.2313 -0.0651  0.5285
 2875SOL    HW211546   0.452   4.043   4.582 -0.9771  0.2572 -0.6139
 2875SOL    HW311547   0.530   3.918   4.548  1.1865  0.5771  3.0262
 2875SOL    MW411548   0.515   4.002   4.537 -0.1428  0.0625  0.7067
 2876SOL     OW11549   3.832   0.509   4.245 -0.3423  0.3763 -0.1965
 2876SOL    HW211550   3.818   0.598   4.212 -2.0896  0.2770  0.2294
 2876SOL    HW311551   3.830   0.519   4.340 -0.7384 -0.1420 -0.1509
 2876SOL    MW411552   3.830   0.522   4.253 -0.6249  0.2949 -0.1345
 2877SOL     OW11553   1.843   0.840   4.538  0.1259  0.3280 -0.3433
 2877SOL    HW211554   1.913   0.901   4.557 -1.2371  2.0075 -0.6168
 2877SOL    HW311555   1.830   0.846   4.444  0.9400 -1.4714 -0.6004
 2877SOL    MW411556   1.850   0.849   4.528  0.0534  0.3122 -0.4134
 2878SOL     OW11557   1.273   2.342   4.652 -0.1736  0.5796  0.2933
 2878SOL    HW211558   1.219   2.269   4.623 -0.0063  1.3931 -2.2231
 2878SOL    HW311559   1.356   2.302   4.679 -0.5073 -0.2554  0.0863
 2878SOL    MW411560   1.277   2.327   4.652 -0.1955  0.5770 -0.0658
 2879SOL     OW11561   4.023   1.542   4.596 -0.0221  0.2219  0.0834
 2879SOL    HW211562   4.031   1.559   4.502 -1.7150 -1.0018 -0.3171
 2879SOL    HW311563   3.947   1.594   4.623 -0.2685 -0.3540  0.5149
 2879SOL    MW411564   4.014   1.551   4.587 -0.2780 -0.0155  0.0873
 2880SOL     OW11565   4.206   4.380   4.543 -0.3311  0.2627 -0.3883
 2880SOL    HW211566   4.196   4.292   4.579 -0.8139  0.8078  0.8312
 2880SOL    HW311567   4.118   4.407   4.519 -0.1606  0.3569 -0.9341
 2880SOL    MW411568   4.193   4.372   4.544 -0.3719  0.3471 -0.2995
 2881SOL     OW11569   1.028   3.967   4.584 -0.0921 -0.3950  0.5649
 2881SOL    HW211570   0.945   4.011   4.567  0.1026 -0.9386 -1.9805
 2881SOL    HW311571   1.094   4.036   4.574  0.0814 -0.8567 -1.8248
 2881SOL    MW411572   1.026   3.982   4.580 -0.0435 -0.5276 -0.0863
 2882SOL     OW11573   0.568   2.802   4.468  0.3262 -0.2573  0.1179
 2882SOL    HW211574   0.489   2.849   4.494 -0.9598 -2.0420 -0.4948
 2882SOL    HW311575   0.552   2.711   4.496  0.8572 -1.2632 -2.7319
 2882SOL    MW411576   0.555   2.796   4.475  0.2266 -0.6256 -0.3390
 2883SOL     OW11577   3.603   1.121   4.159 -0.0133  0.6544 -0.1005
 2883SOL    HW211578   3.614   1.128   4.064  0.8375 -0.5719 -0.1000
 2883SOL    HW311579   3.529   1.178   4.178 -0.6062  0.4175 -1.5872
 2883SOL    MW411580   3.595   1.130   4.149  0.0207  0.4613 -0.2966
 2884SOL     OW11581   1.362   2.716   4.075 -0.1592  0.0700  0.3139
 2884SOL    HW211582   1.428   2.768   4.121  0.8260 -0.1640 -0.8076
 2884SOL    HW311583   1.349   2.639   4.131 -0.5166  0.7894  1.2299
 2884SOL    MW411584   1.369   2.713   4.088 -0.0764  0.1342  0.2866
 2885NA      NA11585   4.274   2.512   0.479 -0.0621  0.3264 -0.3158
   4.49070   4.66690  10.00000
