Gromacs Runs On Most of All Computer Systems
   64
    1C      O5'    1   1.773   2.364   5.508
    1C      H5T    2   1.682   2.360   5.467
    1C      C5'    3   1.804   2.498   5.542
    1C     H5'1    4   1.735   2.530   5.606
    1C     H5'2    5   1.800   2.553   5.458
    1C      C4'    6   1.942   2.504   5.604
    1C      H4'    7   1.967   2.599   5.621
    1C      O4'    8   1.941   2.430   5.729
    1C      C1'    9   2.077   2.378   5.742
    1C      H1'   10   2.121   2.430   5.815
    1C       N1   11   2.074   2.236   5.781
    1C       C6   12   1.991   2.163   5.702
    1C       H6   13   1.941   2.208   5.628
    1C       C5   14   1.975   2.030   5.723
    1C       H5   15   1.914   1.975   5.666
    1C       C4   16   2.050   1.972   5.830
    1C       N4   17   2.039   1.841   5.855
    1C      H41   18   1.979   1.784   5.799
    1C      H42   19   2.091   1.800   5.930
    1C       N3   20   2.132   2.046   5.906
    1C       C2   21   2.146   2.179   5.884
    1C       O2   22   2.221   2.247   5.954
    1C      C3'   23   2.041   2.430   5.514
    1C      H3'   24   2.004   2.354   5.461
    1C      C2'   25   2.153   2.394   5.611
    1C     H2'1   26   2.211   2.317   5.585
    1C      O2'   27   2.243   2.503   5.621
    1C     HO'2   28   2.293   2.513   5.535
    1C      O3'   29   2.090   2.519   5.415
    2G        P   30   2.064   2.487   5.259
    2G      O1P   31   2.104   2.606   5.181
    2G      O2P   32   1.926   2.433   5.246
    2G      O5'   33   2.167   2.368   5.226
    2G      C5'   34   2.304   2.396   5.196
    2G     H5'1   35   2.342   2.450   5.271
    2G     H5'2   36   2.308   2.449   5.111
    2G      C4'   37   2.379   2.266   5.180
    2G      H4'   38   2.474   2.286   5.157
    2G      O4'   39   2.375   2.191   5.304
    2G      C1'   40   2.366   2.053   5.269
    2G      H1'   41   2.450   2.009   5.302
    2G       N9   42   2.248   1.996   5.336
    2G       C8   43   2.118   2.043   5.336
    2G       H8   44   2.089   2.126   5.287
    2G       N7   45   2.036   1.969   5.406
    2G       C5   46   2.117   1.867   5.455
    2G       C6   47   2.089   1.756   5.537
    2G       O6   48   1.977   1.732   5.581
    2G       N1   49   2.200   1.676   5.564
    2G       H1   50   2.185   1.596   5.622
    2G       C2   51   2.333   1.697   5.518
    2G       N2   52   2.436   1.616   5.547
    2G      H21   53   2.422   1.535   5.604
    2G      H22   54   2.527   1.636   5.511
    2G       N3   55   2.352   1.803   5.441
    2G       C4   56   2.246   1.883   5.413
    2G      C3'   57   2.308   2.179   5.077
    2G      H3'   58   2.210   2.194   5.069
    2G      C2'   59   2.350   2.038   5.118
    2G     H2'1   60   2.291   1.963   5.087
    2G      O2'   61   2.476   2.009   5.061
    2G     HO'2   62   2.466   1.999   4.962
    2G      O3'   63   2.358   2.208   4.947
    2G      H3T   64   2.311   2.151   4.880
   4.49070   4.66690  10.00000
