;
;	File 'topol.top' was generated
;	By user: chemistry (1000)
;	On host: Cas2
;	At date: Fri Aug 16 13:21:49 2024
;
;	This is a standalone topology file
;
;	Created by:
;	                    :-) GROMACS - gmx pdb2gmx, 2020.3 (-:
;	
;	Executable:   /usr/local/gromacs/bin/gmx
;	Data prefix:  /usr/local/gromacs
;	Working dir:  /home/chemistry/MD/CG_RNA/ROTATED
;	Command line:
;	  gmx pdb2gmx -f CG_rotated.gro -ignh
;	Force field was read from the standard GROMACS share directory.
;

; Include forcefield parameters
#include "amber_na_desres.ff/forcefield.itp"

[ moleculetype ]
; Name            nrexcl
RNA                 3

[ atoms ]
;   nr       type  resnr residue  atom   cgnr     charge       mass  typeB    chargeB      massB
; residue   1 C   rtp RC5  q -0.3
     1         OH      1      C    O5'      1    -0.6223         16
     2         HO      1      C    H5T      2     0.4295      1.008
     3         CI      1      C    C5'      3     0.0558      12.01
     4         H1      1      C   H5'1      4     0.0679      1.008
     5         H1      1      C   H5'2      5     0.0679      1.008
     6         CT      1      C    C4'      6     0.1065      12.01
     7         H1      1      C    H4'      7     0.1174      1.008
     8         OS      1      C    O4'      8    -0.3548         16
     9         CT      1      C    C1'      9     0.0066      12.01
    10         H2      1      C    H1'     10     0.2029      1.008
    11    N*_desN      1      C     N1     11    -0.0484      14.01
    12    CM_desN      1      C     C6     12     0.0053      12.01
    13         H4      1      C     H6     13     0.1958      1.008
    14    CM_desN      1      C     C5     14    -0.5215      12.01
    15         HA      1      C     H5     15     0.1928      1.008
    16    CA_desN      1      C     C4     16     0.8185      12.01
    17    N2_desN      1      C     N4     17    -0.8716      14.01
    18      H_des      1      C    H41     18     0.3827      1.008
    19      H_des      1      C    H42     19     0.3827      1.008
    20    NC_desN      1      C     N3     20    -0.7584      14.01
    21     C_desN      1      C     C2     21     0.7538      12.01
    22          O      1      C     O2     22    -0.6252         16
    23         CT      1      C    C3'     23     0.2022      12.01
    24         H1      1      C    H3'     24     0.0615      1.008
    25         CT      1      C    C2'     25      0.067      12.01
    26         H1      1      C   H2'1     26     0.0972      1.008
    27         OH      1      C    O2'     27    -0.6139         16
    28         HO      1      C   HO'2     28     0.4186      1.008
    29    OS_case      1      C    O3'     29    -0.5246         16   ; qtot -0.3081
; residue   2 G   rtp RG3  q -0.7
    30          P      2      G      P     30     1.1662      30.97
    31    O2_case      2      G    O1P     31     -0.776         16
    32    O2_case      2      G    O2P     32     -0.776         16
    33    OS_case      2      G    O5'     33    -0.4989         16
    34         CI      2      G    C5'     34     0.0558      12.01
    35         H1      2      G   H5'1     35     0.0679      1.008
    36         H1      2      G   H5'2     36     0.0679      1.008
    37         CT      2      G    C4'     37     0.1065      12.01
    38         H1      2      G    H4'     38     0.1174      1.008
    39         OS      2      G    O4'     39    -0.3548         16
    40         CT      2      G    C1'     40     0.0191      12.01
    41         H2      2      G    H1'     41     0.2006      1.008
    42    N*_desA      2      G     N9     42     0.0492      14.01
    43    CK_desN      2      G     C8     43     0.1374      12.01
    44         H5      2      G     H8     44      0.164      1.008
    45    NB_desA      2      G     N7     45    -0.5709      14.01
    46    CB_desN      2      G     C5     46     0.1744      12.01
    47     C_desN      2      G     C6     47      0.477      12.01
    48          O      2      G     O6     48    -0.5597         16
    49    NA_desN      2      G     N1     49    -0.5606      14.01
    50      H_des      2      G     H1     50     0.4243      1.008
    51    CA_desN      2      G     C2     51     0.7657      12.01
    52    N2_desN      2      G     N2     52    -1.0158      14.01
    53      H_des      2      G    H21     53     0.4607      1.008
    54      H_des      2      G    H22     54     0.4607      1.008
    55    NC_desN      2      G     N3     55    -0.6323      14.01
    56    CB_desN      2      G     C4     56     0.1222      12.01
    57         CT      2      G    C3'     57     0.2022      12.01
    58         H1      2      G    H3'     58     0.0615      1.008
    59         CT      2      G    C2'     59      0.067      12.01
    60         H1      2      G   H2'1     60     0.0972      1.008
    61         OH      2      G    O2'     61    -0.6139         16
    62         HO      2      G   HO'2     62     0.4186      1.008
    63         OH      2      G    O3'     63    -0.6541         16
    64         HO      2      G    H3T     64     0.4376      1.008   ; qtot -1

[ bonds ]
;  ai    aj funct            c0            c1            c2            c3
    1     2     1 
    1     3     1 
    3     4     1 
    3     5     1 
    3     6     1 
    6     7     1 
    6     8     1 
    6    23     1 
    8     9     1 
    9    10     1 
    9    11     1 
    9    25     1 
   11    12     1 
   11    21     1 
   12    13     1 
   12    14     1 
   14    15     1 
   14    16     1 
   16    17     1 
   16    20     1 
   17    18     1 
   17    19     1 
   20    21     1 
   21    22     1 
   23    24     1 
   23    25     1 
   23    29     1 
   25    26     1 
   25    27     1 
   27    28     1 
   29    30     1 
   30    31     1 
   30    32     1 
   30    33     1 
   33    34     1 
   34    35     1 
   34    36     1 
   34    37     1 
   37    38     1 
   37    39     1 
   37    57     1 
   39    40     1 
   40    41     1 
   40    42     1 
   40    59     1 
   42    43     1 
   42    56     1 
   43    44     1 
   43    45     1 
   45    46     1 
   46    47     1 
   46    56     1 
   47    48     1 
   47    49     1 
   49    50     1 
   49    51     1 
   51    52     1 
   51    55     1 
   52    53     1 
   52    54     1 
   55    56     1 
   57    58     1 
   57    59     1 
   57    63     1 
   59    60     1 
   59    61     1 
   61    62     1 
   63    64     1 

[ pairs ]
;  ai    aj funct            c0            c1            c2            c3
    1     7     1 
    1     8     1 
    1    23     1 
    2     4     1 
    2     5     1 
    2     6     1 
    3     9     1 
    3    24     1 
    3    25     1 
    3    29     1 
    4     7     1 
    4     8     1 
    4    23     1 
    5     7     1 
    5     8     1 
    5    23     1 
    6    10     1 
    6    11     1 
    6    26     1 
    6    27     1 
    6    30     1 
    7     9     1 
    7    24     1 
    7    25     1 
    7    29     1 
    8    12     1 
    8    21     1 
    8    24     1 
    8    26     1 
    8    27     1 
    8    29     1 
    9    13     1 
    9    14     1 
    9    20     1 
    9    22     1 
    9    24     1 
    9    28     1 
    9    29     1 
   10    12     1 
   10    21     1 
   10    23     1 
   10    26     1 
   10    27     1 
   11    15     1 
   11    16     1 
   11    23     1 
   11    26     1 
   11    27     1 
   12    17     1 
   12    20     1 
   12    22     1 
   12    25     1 
   13    15     1 
   13    16     1 
   13    21     1 
   14    18     1 
   14    19     1 
   14    21     1 
   15    17     1 
   15    20     1 
   16    22     1 
   17    21     1 
   18    20     1 
   19    20     1 
   21    25     1 
   23    28     1 
   23    31     1 
   23    32     1 
   23    33     1 
   24    26     1 
   24    27     1 
   24    30     1 
   25    30     1 
   26    28     1 
   26    29     1 
   27    29     1 
   29    34     1 
   30    35     1 
   30    36     1 
   30    37     1 
   31    34     1 
   32    34     1 
   33    38     1 
   33    39     1 
   33    57     1 
   34    40     1 
   34    58     1 
   34    59     1 
   34    63     1 
   35    38     1 
   35    39     1 
   35    57     1 
   36    38     1 
   36    39     1 
   36    57     1 
   37    41     1 
   37    42     1 
   37    60     1 
   37    61     1 
   37    64     1 
   38    40     1 
   38    58     1 
   38    59     1 
   38    63     1 
   39    43     1 
   39    56     1 
   39    58     1 
   39    60     1 
   39    61     1 
   39    63     1 
   40    44     1 
   40    45     1 
   40    46     1 
   40    55     1 
   40    58     1 
   40    62     1 
   40    63     1 
   41    43     1 
   41    56     1 
   41    57     1 
   41    60     1 
   41    61     1 
   42    47     1 
   42    51     1 
   42    57     1 
   42    60     1 
   42    61     1 
   43    47     1 
   43    55     1 
   43    59     1 
   44    46     1 
   44    56     1 
   45    48     1 
   45    49     1 
   45    55     1 
   46    50     1 
   46    51     1 
   47    52     1 
   47    55     1 
   48    50     1 
   48    51     1 
   48    56     1 
   49    53     1 
   49    54     1 
   49    56     1 
   50    52     1 
   50    55     1 
   52    56     1 
   53    55     1 
   54    55     1 
   56    59     1 
   57    62     1 
   58    60     1 
   58    61     1 
   58    64     1 
   59    64     1 
   60    62     1 
   60    63     1 
   61    63     1 

[ angles ]
;  ai    aj    ak funct            c0            c1            c2            c3
    2     1     3     1 
    1     3     4     1 
    1     3     5     1 
    1     3     6     1 
    4     3     5     1 
    4     3     6     1 
    5     3     6     1 
    3     6     7     1 
    3     6     8     1 
    3     6    23     1 
    7     6     8     1 
    7     6    23     1 
    8     6    23     1 
    6     8     9     1 
    8     9    10     1 
    8     9    11     1 
    8     9    25     1 
   10     9    11     1 
   10     9    25     1 
   11     9    25     1 
    9    11    12     1 
    9    11    21     1 
   12    11    21     1 
   11    12    13     1 
   11    12    14     1 
   13    12    14     1 
   12    14    15     1 
   12    14    16     1 
   15    14    16     1 
   14    16    17     1 
   14    16    20     1 
   17    16    20     1 
   16    17    18     1 
   16    17    19     1 
   18    17    19     1 
   16    20    21     1 
   11    21    20     1 
   11    21    22     1 
   20    21    22     1 
    6    23    24     1 
    6    23    25     1 
    6    23    29     1 
   24    23    25     1 
   24    23    29     1 
   25    23    29     1 
    9    25    23     1 
    9    25    26     1 
    9    25    27     1 
   23    25    26     1 
   23    25    27     1 
   26    25    27     1 
   25    27    28     1 
   23    29    30     1 
   29    30    31     1 
   29    30    32     1 
   29    30    33     1 
   31    30    32     1 
   31    30    33     1 
   32    30    33     1 
   30    33    34     1 
   33    34    35     1 
   33    34    36     1 
   33    34    37     1 
   35    34    36     1 
   35    34    37     1 
   36    34    37     1 
   34    37    38     1 
   34    37    39     1 
   34    37    57     1 
   38    37    39     1 
   38    37    57     1 
   39    37    57     1 
   37    39    40     1 
   39    40    41     1 
   39    40    42     1 
   39    40    59     1 
   41    40    42     1 
   41    40    59     1 
   42    40    59     1 
   40    42    43     1 
   40    42    56     1 
   43    42    56     1 
   42    43    44     1 
   42    43    45     1 
   44    43    45     1 
   43    45    46     1 
   45    46    47     1 
   45    46    56     1 
   47    46    56     1 
   46    47    48     1 
   46    47    49     1 
   48    47    49     1 
   47    49    50     1 
   47    49    51     1 
   50    49    51     1 
   49    51    52     1 
   49    51    55     1 
   52    51    55     1 
   51    52    53     1 
   51    52    54     1 
   53    52    54     1 
   51    55    56     1 
   42    56    46     1 
   42    56    55     1 
   46    56    55     1 
   37    57    58     1 
   37    57    59     1 
   37    57    63     1 
   58    57    59     1 
   58    57    63     1 
   59    57    63     1 
   40    59    57     1 
   40    59    60     1 
   40    59    61     1 
   57    59    60     1 
   57    59    61     1 
   60    59    61     1 
   59    61    62     1 
   57    63    64     1 

[ dihedrals ]
;  ai    aj    ak    al funct            c0            c1            c2            c3            c4            c5
    2     1     3     4     9 
    2     1     3     5     9 
    2     1     3     6     9 
    1     3     6     7     9 
    1     3     6     8     9 
    1     3     6    23     9 
    4     3     6     7     9 
    4     3     6     8     9 
    4     3     6    23     9 
    5     3     6     7     9 
    5     3     6     8     9 
    5     3     6    23     9 
    3     6     8     9     9 
    7     6     8     9     9 
   23     6     8     9     9 
    3     6    23    24     9 
    3     6    23    25     9 
    3     6    23    29     9 
    7     6    23    24     9 
    7     6    23    25     9 
    7     6    23    29     9 
    8     6    23    24     9 
    8     6    23    25     9 
    8     6    23    29     9 
    6     8     9    10     9 
    6     8     9    11     9 
    6     8     9    25     9 
    8     9    11    12     9    torsion_RC_O4S_C1S_N1_C6_mult1
    8     9    11    12     9    torsion_RC_O4S_C1S_N1_C6_mult2
    8     9    11    12     9    torsion_RC_O4S_C1S_N1_C6_mult3
    8     9    11    12     9    torsion_RC_O4S_C1S_N1_C6_mult4
    8     9    11    21     9 
   10     9    11    12     9 
   10     9    11    21     9 
   25     9    11    12     9 
   25     9    11    21     9 
    8     9    25    23     9 
    8     9    25    26     9 
    8     9    25    27     9 
   10     9    25    23     9 
   10     9    25    26     9 
   10     9    25    27     9 
   11     9    25    23     9 
   11     9    25    26     9 
   11     9    25    27     9 
    9    11    12    13     9 
    9    11    12    14     9 
   21    11    12    13     9 
   21    11    12    14     9 
    9    11    21    20     9 
    9    11    21    22     9 
   12    11    21    20     9 
   12    11    21    22     9 
   11    12    14    15     9 
   11    12    14    16     9 
   13    12    14    15     9 
   13    12    14    16     9 
   12    14    16    17     9 
   12    14    16    20     9 
   15    14    16    17     9 
   15    14    16    20     9 
   14    16    17    18     9 
   14    16    17    19     9 
   20    16    17    18     9 
   20    16    17    19     9 
   14    16    20    21     9 
   17    16    20    21     9 
   16    20    21    11     9 
   16    20    21    22     9 
    6    23    25     9     9 
    6    23    25    26     9 
    6    23    25    27     9 
   24    23    25     9     9 
   24    23    25    26     9 
   24    23    25    27     9 
   29    23    25     9     9 
   29    23    25    26     9 
   29    23    25    27     9 
    6    23    29    30     9 
   24    23    29    30     9 
   25    23    29    30     9 
    9    25    27    28     9 
   23    25    27    28     9 
   26    25    27    28     9 
   23    29    30    31     9 
   23    29    30    32     9 
   23    29    30    33     9 
   29    30    33    34     9 
   31    30    33    34     9 
   32    30    33    34     9 
   30    33    34    35     9 
   30    33    34    36     9 
   30    33    34    37     9 
   33    34    37    38     9 
   33    34    37    39     9 
   33    34    37    57     9 
   35    34    37    38     9 
   35    34    37    39     9 
   35    34    37    57     9 
   36    34    37    38     9 
   36    34    37    39     9 
   36    34    37    57     9 
   34    37    39    40     9 
   38    37    39    40     9 
   57    37    39    40     9 
   34    37    57    58     9 
   34    37    57    59     9 
   34    37    57    63     9 
   38    37    57    58     9 
   38    37    57    59     9 
   38    37    57    63     9 
   39    37    57    58     9 
   39    37    57    59     9 
   39    37    57    63     9 
   37    39    40    41     9 
   37    39    40    42     9 
   37    39    40    59     9 
   39    40    42    43     9    torsion_RG_O4S_C1S_N9_C8_mult1
   39    40    42    43     9    torsion_RG_O4S_C1S_N9_C8_mult2
   39    40    42    43     9    torsion_RG_O4S_C1S_N9_C8_mult3
   39    40    42    43     9    torsion_RG_O4S_C1S_N9_C8_mult4
   39    40    42    56     9 
   41    40    42    43     9 
   41    40    42    56     9 
   59    40    42    43     9 
   59    40    42    56     9 
   39    40    59    57     9 
   39    40    59    60     9 
   39    40    59    61     9 
   41    40    59    57     9 
   41    40    59    60     9 
   41    40    59    61     9 
   42    40    59    57     9 
   42    40    59    60     9 
   42    40    59    61     9 
   40    42    43    44     9 
   40    42    43    45     9 
   56    42    43    44     9 
   56    42    43    45     9 
   40    42    56    46     9 
   40    42    56    55     9 
   43    42    56    46     9 
   43    42    56    55     9 
   42    43    45    46     9 
   44    43    45    46     9 
   43    45    46    47     9 
   43    45    46    56     9 
   45    46    47    48     9 
   45    46    47    49     9 
   56    46    47    48     9 
   56    46    47    49     9 
   45    46    56    42     9 
   45    46    56    55     9 
   47    46    56    42     9 
   47    46    56    55     9 
   46    47    49    50     9 
   46    47    49    51     9 
   48    47    49    50     9 
   48    47    49    51     9 
   47    49    51    52     9 
   47    49    51    55     9 
   50    49    51    52     9 
   50    49    51    55     9 
   49    51    52    53     9 
   49    51    52    54     9 
   55    51    52    53     9 
   55    51    52    54     9 
   49    51    55    56     9 
   52    51    55    56     9 
   51    55    56    42     9 
   51    55    56    46     9 
   37    57    59    40     9 
   37    57    59    60     9 
   37    57    59    61     9 
   58    57    59    40     9 
   58    57    59    60     9 
   58    57    59    61     9 
   63    57    59    40     9 
   63    57    59    60     9 
   63    57    59    61     9 
   37    57    63    64     9 
   58    57    63    64     9 
   59    57    63    64     9 
   40    59    61    62     9 
   57    59    61    62     9 
   60    59    61    62     9 

[ dihedrals ]
;  ai    aj    ak    al funct            c0            c1            c2            c3
    9    11    12    21     4 
   11    14    12    13     4 
   11    20    21    22     4 
   12    16    14    15     4 
   14    17    16    20     4 
   16    18    17    19     4 
   40    42    43    56     4 
   42    45    43    44     4 
   46    49    47    48     4 
   47    51    49    50     4 
   51    53    52    54     4 
   52    49    51    55     4 

; Include Position restraint file
#ifdef POSRES
#include "posre.itp"
#endif

; Include water topology
#include "amber_na_desres.ff/tip4pd.itp"

#ifdef POSRES_WATER
; Position restraint for each water oxygen
[ position_restraints ]
;  i funct       fcx        fcy        fcz
   1    1       1000       1000       1000
#endif

; Include topology for ions
#include "amber_na_desres.ff/ions.itp"

[ system ]
; Name
Gromacs Runs On Most of All Computer Systems in water

[ molecules ]
; Compound        #mols
RNA                 1
SOL              2880
NA                  1
