Gromacs Runs On Most of All Computer Systems in water
11558
    1RG35     P    1   2.144   2.759   4.477 -0.2976 -0.0934  0.1964
    1RG35   O1P    2   2.191   2.684   4.360 -0.0616  0.2496 -0.0817
    1RG35   O2P    3   2.000   2.791   4.475  0.0387  0.4042  0.3071
    1RG35   O5'    4   2.159   2.647   4.588  0.0741  0.8245  0.4095
    1RG35   C5'    5   2.136   2.681   4.728  0.0490 -0.0161 -0.5354
    1RG35  H5'1    6   2.046   2.741   4.735  0.9104  1.0385  2.0213
    1RG35  H5'2    7   2.221   2.746   4.749 -0.7733  1.1311 -0.6826
    1RG35   C4'    8   2.120   2.555   4.813  0.5169  0.6150  0.0095
    1RG35   H4'    9   2.100   2.576   4.918 -0.8363 -0.7199  0.0375
    1RG35   O4'   10   2.020   2.474   4.758 -0.3493 -0.1990 -0.0687
    1RG35   C1'   11   2.059   2.340   4.750  0.1900  0.0357 -0.5181
    1RG35   H1'   12   2.050   2.292   4.848  0.1901 -0.1984 -0.6337
    1RG35    N9   13   1.985   2.257   4.657 -0.2458 -0.2320  0.3587
    1RG35    C8   14   1.885   2.297   4.572  0.8878 -0.7483  0.0953
    1RG35    H8   15   1.857   2.401   4.560  0.2557 -0.9941 -0.5410
    1RG35    N7   16   1.815   2.199   4.520  0.4006 -0.1745 -0.3337
    1RG35    C5   17   1.876   2.087   4.572 -0.1557 -0.4798 -0.7412
    1RG35    C6   18   1.846   1.950   4.556  0.4514  0.6110 -0.1210
    1RG35    O6   19   1.767   1.896   4.483 -0.2607 -0.7842  0.1638
    1RG35    N1   20   1.936   1.867   4.623  0.8739  0.8039 -0.5836
    1RG35    H1   21   1.924   1.767   4.616  0.9240  0.6361  1.2667
    1RG35    C2   22   2.030   1.911   4.710  0.0476 -0.9006 -0.1520
    1RG35    N2   23   2.098   1.825   4.779  0.3196 -0.1017  0.0846
    1RG35   H21   24   2.098   1.726   4.761  2.6134 -0.2466  0.7348
    1RG35   H22   25   2.172   1.868   4.833 -0.1788  1.1885 -0.2306
    1RG35    N3   26   2.054   2.037   4.739  0.4072  0.7492  0.3028
    1RG35    C4   27   1.975   2.121   4.662  0.4976 -0.2593  0.3006
    1RG35   C3'   28   2.246   2.466   4.817  0.1964 -0.3917  0.2761
    1RG35   H3'   29   2.326   2.531   4.781 -1.0024  0.0592 -1.6373
    1RG35   C2'   30   2.208   2.356   4.718  0.3954  0.2742  0.1799
    1RG35  H2'1   31   2.223   2.396   4.617  0.6131 -0.7515 -0.1984
    1RG35   O2'   32   2.277   2.230   4.735 -0.3185 -0.3893  0.2716
    1RG35  HO'2   33   2.217   2.156   4.722  0.5639 -1.2414  0.9488
    1RG35   O3'   34   2.279   2.400   4.937 -0.1718 -0.0468  0.2362
    1RG35   H3T   35   2.337   2.330   4.906  1.0176  0.0096  2.2140
    1RG35   O3P   36   2.233   2.867   4.520  0.0726 -0.3136 -0.1543
    1SOL     OW   37   0.415   0.051   0.457  0.8156 -0.2346  0.5547
    1SOL    HW2   38   0.488   0.101   0.421  0.7024 -0.9561 -0.6917
    1SOL    HW3   39   0.337   0.104   0.438  0.8162 -0.3371  0.2766
    1SOL    MW4   40   0.414   0.065   0.450  0.8008 -0.3433  0.3536
    1SOL     OW   41   3.979   0.094   0.448  0.2554 -0.1183 -0.1799
    1SOL    HW2   42   4.046   0.149   0.408  0.9338 -0.3327  0.6574
    1SOL    HW3   43   4.004   0.005   0.423 -0.5518 -0.1001 -1.0996
    1SOL    MW4   44   3.991   0.089   0.439  0.2387 -0.1442 -0.1907
    1SOL     OW   45   3.546   0.271   0.403  0.0003  0.1875  0.2979
    1SOL    HW2   46   3.560   0.363   0.426  1.2618 -0.1912  1.1192
    1SOL    HW3   47   3.453   0.256   0.421 -0.5162  1.6313 -1.0633
    1SOL    MW4   48   3.536   0.281   0.409  0.0985  0.3280  0.2267
    1SOL     OW   49   0.066   1.677   0.477  0.0225  0.5353 -0.0837
    1SOL    HW2   50   0.034   1.699   0.564 -0.2237  0.2306 -0.0945
    1SOL    HW3   51   0.037   1.587   0.463 -1.4426  1.1493 -1.1682
    1SOL    MW4   52   0.058   1.668   0.486 -0.2033  0.5763 -0.2283
    1SOL     OW   53   1.401   0.859   0.530  0.0283  0.0886  0.3318
    1SOL    HW2   54   1.411   0.825   0.619 -0.8111 -0.1657  0.3323
    1SOL    HW3   55   1.315   0.900   0.529 -0.8486 -1.6800 -0.9165
    1SOL    MW4   56   1.391   0.860   0.541 -0.1981 -0.1783  0.1672
    1SOL     OW   57   0.237   0.492   0.463 -0.1786 -0.3576 -0.1853
    1SOL    HW2   58   0.242   0.505   0.557 -0.2024  2.3944 -0.5210
    1SOL    HW3   59   0.242   0.397   0.451 -1.3942 -0.8255  2.6432
    1SOL    MW4   60   0.238   0.481   0.474 -0.3422 -0.0563  0.1436
    1SOL     OW   61   0.463   0.933   0.493  0.1303 -0.0660 -0.1788
    1SOL    HW2   62   0.456   0.925   0.588 -0.6165 -1.0000 -0.3064
    1SOL    HW3   63   0.442   0.846   0.459  0.1506  0.3167 -1.2070
    1SOL    MW4   64   0.459   0.921   0.501  0.0344 -0.1388 -0.3313
    1SOL     OW   65   0.934   0.894   0.502  0.2684  0.2789  0.1981
    1SOL    HW2   66   0.898   0.868   0.586 -0.6187 -0.5727 -0.4315
    1SOL    HW3   67   0.858   0.926   0.452  0.6321 -0.0770 -0.5963
    1SOL    MW4   68   0.919   0.895   0.506  0.1993  0.1196  0.0103
    1SOL     OW   69   0.697   0.988   0.374 -0.2358 -0.3933 -0.2171
    1SOL    HW2   70   0.700   0.944   0.289 -1.8477 -0.2914 -0.3315
    1SOL    HW3   71   0.611   0.967   0.410 -0.8264  2.1427 -0.0015
    1SOL    MW4   72   0.686   0.980   0.368 -0.5264 -0.0452 -0.2038
    1SOL     OW   73   0.620   1.593   0.263 -0.3407 -0.6221 -0.2029
    1SOL    HW2   74   0.624   1.561   0.173 -0.8303  2.7696 -1.5334
    1SOL    HW3   75   0.545   1.549   0.301 -1.2276 -0.7933 -2.0612
    1SOL    MW4   76   0.610   1.583   0.256 -0.5223 -0.1971 -0.6236
    1SOL     OW   77   4.189   1.993   0.474  0.0457 -0.0967  0.1383
    1SOL    HW2   78   4.227   1.912   0.438 -1.0990  0.2125 -1.8258
    1SOL    HW3   79   4.096   1.987   0.454  0.1242  2.2586 -1.0724
    1SOL    MW4   80   4.182   1.981   0.467 -0.0949  0.2548 -0.2806
    1SOL     OW   81   0.146   1.855   0.237  0.1492  0.0023 -0.2665
    1SOL    HW2   82   0.061   1.898   0.228 -0.7271 -1.2821  1.3577
    1SOL    HW3   83   0.139   1.808   0.320  1.9658 -1.2171 -0.7831
    1SOL    MW4   84   0.134   1.854   0.247  0.2733 -0.3279 -0.1204
    1SOL     OW   85   0.332   2.427   0.505  0.3525  0.1995 -0.4891
    1SOL    HW2   86   0.272   2.480   0.453 -0.4935  0.1988  0.4747
    1SOL    HW3   87   0.305   2.337   0.490 -1.0719  0.2933  1.3684
    1SOL    MW4   88   0.320   2.422   0.496  0.0529  0.2117 -0.1169
    1SOL     OW   89   0.106   2.499   0.341  0.1926  0.0094  0.1638
    1SOL    HW2   90   0.124   2.588   0.312  0.9814  0.2914  1.4720
    1SOL    HW3   91   0.137   2.443   0.269 -0.9915  0.8079 -0.9773
    1SOL    MW4   92   0.113   2.503   0.328  0.1404  0.1519  0.1859
    1SOL     OW   93   4.261   3.315   0.435  0.5349 -0.1194 -0.4123
    1SOL    HW2   94   4.177   3.279   0.465 -0.1944 -0.8029 -3.1444
    1SOL    HW3   95   4.320   3.240   0.431 -0.0849 -0.4988 -3.0392
    1SOL    MW4   96   4.258   3.300   0.438  0.3567 -0.2594 -1.1193
    1SOL     OW   97   0.039   2.830   0.515  0.0085 -0.2386 -0.2908
    1SOL    HW2   98   0.082   2.797   0.436 -1.9006 -1.1902 -0.9622
    1SOL    HW3   99  -0.038   2.775   0.526  0.1233  0.0124  2.1449
    1SOL    MW4  100   0.034   2.819   0.506 -0.2282 -0.3307 -0.0580
    1SOL     OW  101   0.387   3.368   0.449 -0.0807 -0.0544 -0.2939
    1SOL    HW2  102   0.355   3.322   0.526 -0.1541  1.4379  0.5959
    1SOL    HW3  103   0.470   3.407   0.477 -1.0862  2.1797 -0.3276
    1SOL    MW4  104   0.394   3.367   0.463 -0.2231  0.4373 -0.1810
    1SOL     OW  105   0.703   3.769   0.414 -0.3946 -0.0507  0.0034
    1SOL    HW2  106   0.621   3.819   0.410 -1.5010 -1.9209 -1.4383
    1SOL    HW3  107   0.772   3.835   0.409 -1.8207  1.2738 -3.5071
    1SOL    MW4  108   0.701   3.784   0.413 -0.7287 -0.1225 -0.6500
    1SOL     OW  109   3.887   3.293   0.356 -0.0482  0.0949 -0.3909
    1SOL    HW2  110   3.836   3.359   0.402  1.5129 -0.1642  1.7448
    1SOL    HW3  111   3.931   3.341   0.285  0.6656  1.2526  0.8280
    1SOL    MW4  112   3.886   3.308   0.353  0.2520  0.2131  0.0517
    1SOL     OW  113   4.406   3.783   0.268 -0.0544  0.5314 -0.0635
    1SOL    HW2  114   4.396   3.719   0.339 -0.4736  0.1124 -0.4886
    1SOL    HW3  115   4.500   3.785   0.250  0.1508  1.2837  1.0829
    1SOL    MW4  116   4.417   3.775   0.275 -0.0830  0.5753  0.0317
    1SOL     OW  117   0.000   4.485   0.348 -0.0972 -0.2386  0.3302
    1SOL    HW2  118   0.040   4.460   0.265 -0.7066  0.2142 -0.1025
    1SOL    HW3  119  -0.073   4.423   0.359 -0.6322  0.3413  0.0365
    1SOL    MW4  120  -0.004   4.473   0.338 -0.2484 -0.1030  0.2343
    1SOL     OW  121   4.274   4.304   0.464  0.1694  0.5375 -0.2303
    1SOL    HW2  122   4.270   4.296   0.559  1.1045  0.6597 -0.1787
    1SOL    HW3  123   4.255   4.216   0.432 -1.4184  0.7770  0.0309
    1SOL    MW4  124   4.271   4.291   0.472  0.0839  0.5851 -0.1890
    1SOL     OW  125   4.280   4.022   0.393  0.5490 -0.1820 -0.1386
    1SOL    HW2  126   4.298   3.952   0.331 -0.6389  0.9866 -1.8700
    1SOL    HW3  127   4.199   3.995   0.437  0.2090 -0.0040 -0.6518
    1SOL    MW4  128   4.271   4.009   0.391  0.3476 -0.0048 -0.4348
    1SOL     OW  129   0.545   3.055   0.484 -0.8293 -0.2040  0.1460
    1SOL    HW2  130   0.511   3.112   0.553  0.2134 -0.3566  0.8115
    1SOL    HW3  131   0.576   3.116   0.416  0.1807  0.0418  0.8048
    1SOL    MW4  132   0.545   3.071   0.484 -0.5584 -0.1917  0.3207
    1SOL     OW  133   0.403   4.428   0.389 -0.4943 -0.1001 -0.4520
    1SOL    HW2  134   0.319   4.387   0.408 -0.3623  0.4811  1.4794
    1SOL    HW3  135   0.395   4.517   0.424  1.5575 -0.6145  1.4629
    1SOL    MW4  136   0.391   4.434   0.396 -0.2062 -0.0911  0.0555
    1SOL     OW  137   0.171   0.200   0.464 -0.4024  0.1332  0.0001
    1SOL    HW2  138   0.176   0.164   0.552  0.7241 -2.0527 -0.9288
    1SOL    HW3  139   0.089   0.168   0.428 -0.1321 -0.2409 -0.2864
    1SOL    MW4  140   0.161   0.191   0.471 -0.2181 -0.2046 -0.1602
    1SOL     OW  141   4.465   0.610   0.472 -0.0017  0.6103 -0.8288
    1SOL    HW2  142   4.543   0.572   0.431 -0.9813 -1.8977 -0.4621
    1SOL    HW3  143   4.484   0.610   0.565 -0.0794  0.8445 -0.8132
    1SOL    MW4  144   4.478   0.605   0.479 -0.1411  0.3102 -0.7784
    1SOL     OW  145   0.962   4.466   0.473  0.6056  0.0949  0.3316
    1SOL    HW2  146   1.002   4.440   0.556  1.0228  0.6209  0.2949
    1SOL    HW3  147   0.888   4.406   0.463  1.4911 -1.0247  0.3077
    1SOL    MW4  148   0.957   4.454   0.483  0.7775  0.0167  0.3237
    1SOL     OW  149   1.172   1.023   0.494 -0.2500 -0.5544 -0.1877
    1SOL    HW2  150   1.101   0.989   0.549 -0.3530 -0.0305  0.0125
    1SOL    HW3  151   1.141   1.008   0.404 -0.6607 -0.2611 -0.1031
    1SOL    MW4  152   1.158   1.017   0.489 -0.3178 -0.4466 -0.1501
    1SOL     OW  153   0.637   0.512   0.482 -0.3505 -0.3288  0.1652
    1SOL    HW2  154   0.725   0.545   0.468 -1.0733  1.1107 -1.1605
    1SOL    HW3  155   0.636   0.427   0.437 -0.1039  0.3884 -1.2198
    1SOL    MW4  156   0.648   0.505   0.474 -0.4134 -0.0442 -0.1924
    1SOL     OW  157   0.238   1.115   0.494  0.2566 -0.1312  0.1271
    1SOL    HW2  158   0.150   1.087   0.468  0.7029 -0.8889 -0.5907
    1SOL    HW3  159   0.297   1.054   0.450  1.1291  0.0651  1.0029
    1SOL    MW4  160   0.234   1.103   0.484  0.4306 -0.2054  0.1479
    1SOL     OW  161   0.541   1.913   0.384  0.2760 -0.4503  0.7133
    1SOL    HW2  162   0.628   1.884   0.357 -0.6094 -1.4245 -1.1946
    1SOL    HW3  163   0.497   1.834   0.414  0.0473  0.0421  1.6940
    1SOL    MW4  164   0.547   1.899   0.384  0.1290 -0.5139  0.5910
    1SOL     OW  165   0.334   2.064   0.289  0.0747  0.1520  0.2147
    1SOL    HW2  166   0.414   2.021   0.318 -0.3946  0.4089  1.9671
    1SOL    HW3  167   0.279   1.993   0.255  1.7469  0.2118 -2.7488
    1SOL    MW4  168   0.337   2.049   0.288  0.2334  0.1938  0.0549
    1SOL     OW  169   0.523   2.439   0.280 -0.1462 -0.2113  0.3376
    1SOL    HW2  170   0.491   2.442   0.370 -1.1043  0.6504 -0.0198
    1SOL    HW3  171   0.452   2.397   0.231 -0.8220  1.8249 -0.4862
    1SOL    MW4  172   0.509   2.434   0.285 -0.3617  0.1712  0.1817
    1SOL     OW  173   0.901   2.343   0.248 -0.0723 -0.1544  0.0364
    1SOL    HW2  174   0.883   2.250   0.237  0.1464 -0.2178  0.2232
    1SOL    HW3  175   0.995   2.348   0.262 -0.2802 -0.0445  1.4811
    1SOL    MW4  176   0.911   2.331   0.249 -0.0708 -0.1483  0.2517
    1SOL     OW  177   3.904   2.542   0.330  0.4915  0.4555  0.4223
    1SOL    HW2  178   3.976   2.605   0.323  0.5700  0.1181 -2.4351
    1SOL    HW3  179   3.946   2.457   0.317 -0.3993  0.2675 -1.3743
    1SOL    MW4  180   3.919   2.539   0.327  0.3846  0.3862 -0.1917
    1SOL     OW  181   0.720   2.720   0.357  0.1149  0.2766  0.3861
    1SOL    HW2  182   0.760   2.784   0.417  1.9827 -1.1046  0.6764
    1SOL    HW3  183   0.629   2.749   0.348  0.7652  2.6334  0.9649
    1SOL    MW4  184   0.714   2.732   0.364  0.4471  0.4055  0.5008
    1SOL     OW  185   0.691   2.392   0.535  0.1362  0.0617  0.2734
    1SOL    HW2  186   0.693   2.297   0.538 -0.7266  0.0532  0.5861
    1SOL    HW3  187   0.748   2.420   0.606  1.6239 -0.2128 -0.7764
    1SOL    MW4  188   0.699   2.383   0.545  0.2186  0.0243  0.1761
    1SOL     OW  189   4.443   3.097   0.471 -0.4586  0.1411 -0.0088
    1SOL    HW2  190   4.520   3.135   0.429 -0.8280  0.5626 -0.3083
    1SOL    HW3  191   4.472   3.010   0.500 -0.0353  0.0749 -0.6185
    1SOL    MW4  192   4.457   3.091   0.469 -0.4520  0.1881 -0.1288
    1SOL     OW  193   0.213   2.752   0.294 -0.2740  0.3043 -0.7362
    1SOL    HW2  194   0.292   2.758   0.349  0.6833 -0.4631 -1.9968
    1SOL    HW3  195   0.242   2.782   0.208 -1.2103 -0.5018 -1.3391
    1SOL    MW4  196   0.228   2.757   0.290 -0.2713  0.0968 -0.9820
    1SOL     OW  197   1.151   0.071   0.117 -0.0096  0.2246 -0.1375
    1SOL    HW2  198   1.240   0.059   0.149  0.2322  0.6474 -0.6442
    1SOL    HW3  199   1.161   0.117   0.034 -0.6877  0.0653 -0.3140
    1SOL    MW4  200   1.164   0.076   0.110 -0.0672  0.2594 -0.2276
    1SOL     OW  201   0.186   3.591   0.485  0.1844 -0.2145  0.2977
    1SOL    HW2  202   0.201   3.667   0.429  0.1073  0.0444  0.6231
    1SOL    HW3  203   0.242   3.522   0.449  0.4042  0.0567  0.1223
    1SOL    MW4  204   0.195   3.592   0.473  0.2032 -0.1447  0.3175
    1SOL     OW  205   0.680   3.498   0.514  0.1764 -0.2992  0.2219
    1SOL    HW2  206   0.678   3.577   0.460 -0.0610 -0.5865 -0.1972
    1SOL    HW3  207   0.698   3.529   0.602 -0.7035  0.2952  0.1904
    1SOL    MW4  208   0.682   3.513   0.518  0.0289 -0.2587  0.1624
    1SOL     OW  209   1.240   3.661   0.406  0.2913 -0.0947  0.1603
    1SOL    HW2  210   1.176   3.725   0.376  1.8689  1.0972 -0.7478
    1SOL    HW3  211   1.197   3.576   0.397 -0.6540  0.5820 -1.7559
    1SOL    MW4  212   1.226   3.658   0.401  0.3747  0.1521 -0.2124
    1SOL     OW  213   0.141   4.311   0.510 -0.0041 -0.5680 -0.0362
    1SOL    HW2  214   0.086   4.368   0.456  0.4706  0.4791  0.5908
    1SOL    HW3  215   0.096   4.226   0.507 -0.8595 -0.1040 -0.7357
    1SOL    MW4  216   0.128   4.307   0.502 -0.0543 -0.3681 -0.0458
    1SOL     OW  217   1.106   3.893   0.324 -0.2111 -0.3401  0.0749
    1SOL    HW2  218   1.035   3.947   0.359  0.0940  0.9786 -1.2904
    1SOL    HW3  219   1.087   3.886   0.231  0.6913 -1.1639 -0.0525
    1SOL    MW4  220   1.094   3.900   0.317 -0.0519 -0.2747 -0.1220
    1SOL     OW  221   0.778   4.254   0.488  0.1846 -0.1682  0.5858
    1SOL    HW2  222   0.705   4.216   0.440  0.6457  0.4818 -0.6553
    1SOL    HW3  223   0.738   4.291   0.567 -0.5853 -1.2067  0.6879
    1SOL    MW4  224   0.763   4.254   0.492  0.1439 -0.2193  0.4355
    1SOL     OW  225   0.721   0.211   0.395 -0.3219 -0.3766 -0.0413
    1SOL    HW2  226   0.791   0.162   0.439 -0.5903  0.0936  0.9330
    1SOL    HW3  227   0.751   0.222   0.305  0.4973 -0.8676  0.1708
    1SOL    MW4  228   0.734   0.206   0.389 -0.2493 -0.3793  0.1152
    1SOL     OW  229   0.879   0.598   0.445  0.1679 -0.1959 -0.1045
    1SOL    HW2  230   0.918   0.677   0.483  0.7003 -0.5745  0.1320
    1SOL    HW3  231   0.950   0.534   0.444  0.5630  0.2186 -2.9658
    1SOL    MW4  232   0.893   0.600   0.450  0.2903 -0.1911 -0.4508
    1SOL     OW  233   0.419   0.689   0.401  0.0932  0.3073 -0.4811
    1SOL    HW2  234   0.348   0.625   0.408  0.4817 -0.0549  0.2471
    1SOL    HW3  235   0.498   0.636   0.397  0.6787  0.7222  3.3225
    1SOL    MW4  236   0.420   0.673   0.402  0.2218  0.3143  0.1168
    1SOL     OW  237   1.366   0.597   0.426 -0.0692 -0.1582 -0.2401
    1SOL    HW2  238   1.368   0.692   0.441 -1.1206 -0.3566  1.2667
    1SOL    HW3  239   1.451   0.566   0.458  0.2064  0.2430 -0.5701
    1SOL    MW4  240   1.377   0.605   0.432 -0.1715 -0.1314 -0.0848
    1SOL     OW  241   1.747   0.776   0.525  0.1535 -0.2330  0.2205
    1SOL    HW2  242   1.733   0.803   0.616 -0.0185  0.0081  0.1230
    1SOL    HW3  243   1.685   0.703   0.512 -1.1268  0.9096 -0.2458
    1SOL    MW4  244   1.737   0.770   0.536 -0.0380 -0.0504  0.1460
    1SOL     OW  245   1.618   1.083   0.486 -0.5643 -0.2860  0.4511
    1SOL    HW2  246   1.555   1.013   0.503  0.1514 -0.9716  0.3158
    1SOL    HW3  247   1.700   1.051   0.524 -0.7228  1.4178  2.3488
    1SOL    MW4  248   1.620   1.069   0.494 -0.4908 -0.1516  0.6836
    1SOL     OW  249   0.444   1.396   0.412  0.0940  0.1849 -0.0935
    1SOL    HW2  250   0.518   1.346   0.446  0.4321  0.3381 -0.6185
    1SOL    HW3  251   0.367   1.343   0.436  0.3694  0.0192  0.4287
    1SOL    MW4  252   0.443   1.382   0.420  0.1749  0.1833 -0.0938
    1SOL     OW  253   0.668   1.245   0.485 -0.9411 -0.2461  0.3189
    1SOL    HW2  254   0.667   1.154   0.456  0.2234  0.1753 -1.0885
    1SOL    HW3  255   0.754   1.278   0.459 -1.6447  1.4865  0.0952
    1SOL    MW4  256   0.679   1.237   0.478 -0.8804  0.0383  0.1037
    1SOL     OW  257   1.331   1.432   0.305 -0.2110 -0.4597 -0.1355
    1SOL    HW2  258   1.328   1.450   0.211  0.1231 -0.4973 -0.1552
    1SOL    HW3  259   1.304   1.514   0.347 -1.5204 -0.7980 -0.2885
    1SOL    MW4  260   1.327   1.445   0.298 -0.3397 -0.5093 -0.1583
    1SOL     OW  261   0.896   1.400   0.430  0.5533  0.4041  0.1182
    1SOL    HW2  262   0.987   1.401   0.458  0.0594 -0.4162  1.7956
    1SOL    HW3  263   0.873   1.493   0.419  0.7379  0.7647  2.5805
    1SOL    MW4  264   0.905   1.412   0.432  0.5125  0.3434  0.6644
    1SOL     OW  265   0.993   1.681   0.455 -0.5902 -0.0543  0.0130
    1SOL    HW2  266   1.088   1.671   0.451 -0.4690  1.3037 -1.0258
    1SOL    HW3  267   0.974   1.694   0.548  0.2409 -0.2933  0.2237
    1SOL    MW4  268   1.003   1.682   0.466 -0.4646  0.0933 -0.0963
    1SOL     OW  269   0.167   2.181   0.487 -0.1215 -0.1939 -0.1061
    1SOL    HW2  270   0.076   2.182   0.458 -0.0229  0.7901 -0.4207
    1SOL    HW3  271   0.214   2.133   0.419 -0.6056 -1.8653  0.7177
    1SOL    MW4  272   0.161   2.175   0.475 -0.1723 -0.2847 -0.0389
    1SOL     OW  273   0.791   1.796   0.295 -0.1441 -0.0752 -0.2216
    1SOL    HW2  274   0.735   1.720   0.278 -0.9198  0.3035  0.5602
    1SOL    HW3  275   0.872   1.760   0.329 -0.1706 -0.5992 -0.7099
    1SOL    MW4  276   0.794   1.781   0.297 -0.2500 -0.0943 -0.1829
    1SOL     OW  277   0.958   2.557   0.467 -0.6242 -0.2825 -0.2404
    1SOL    HW2  278   1.033   2.507   0.434 -2.1585 -1.7318 -1.6772
    1SOL    HW3  279   0.952   2.533   0.560 -0.0795 -1.1617 -0.4279
    1SOL    MW4  280   0.967   2.547   0.475 -0.7547 -0.5898 -0.4547
    1SOL     OW  281   0.675   2.117   0.504 -0.4639  0.5973  0.0693
    1SOL    HW2  282   0.752   2.099   0.451  1.2288 -0.5838  2.8315
    1SOL    HW3  283   0.611   2.051   0.477 -0.2972  1.1339 -1.7147
    1SOL    MW4  284   0.677   2.106   0.493 -0.2185  0.5124  0.1983
    1SOL     OW  285   1.081   2.803   0.480 -0.0096 -0.0607  0.5190
    1SOL    HW2  286   1.020   2.729   0.476  0.7172 -0.6822  0.7435
    1SOL    HW3  287   1.026   2.881   0.471 -0.6730 -0.6643 -0.6311
    1SOL    MW4  288   1.066   2.804   0.478 -0.0012 -0.2224  0.3969
    1SOL     OW  289   0.266   2.304   0.166 -0.0791 -0.1523  0.5537
    1SOL    HW2  290   0.299   2.220   0.199  0.6679  0.0018  0.2159
    1SOL    HW3  291   0.225   2.283   0.083 -0.1608 -0.2273  0.6122
    1SOL    MW4  292   0.265   2.290   0.160  0.0086 -0.1419  0.5168
    1SOL     OW  293   0.456   2.801   0.431  0.2828  0.5697  0.0534
    1SOL    HW2  294   0.482   2.892   0.444  0.7242  0.5572 -0.7009
    1SOL    HW3  295   0.477   2.757   0.514  0.6436  1.0214  0.1986
    1SOL    MW4  296   0.462   2.807   0.444  0.3887  0.6278 -0.0270
    1SOL     OW  297   0.858   3.273   0.489  0.5008  0.0996  0.5151
    1SOL    HW2  298   0.889   3.267   0.580 -0.5240 -0.4520  0.8348
    1SOL    HW3  299   0.806   3.353   0.488 -0.2343 -0.3769  0.6415
    1SOL    MW4  300   0.855   3.283   0.501  0.2686 -0.0360  0.5739
    1SOL     OW  301   1.502   3.595   0.511 -0.2970  0.3812 -0.2245
    1SOL    HW2  302   1.571   3.639   0.462 -0.1515 -0.4088 -0.7353
    1SOL    HW3  303   1.420   3.629   0.475 -0.2047 -0.8106 -1.6039
    1SOL    MW4  304   1.500   3.605   0.500 -0.2655  0.1197 -0.4738
    1SOL     OW  305   0.890   3.994   0.454  0.4787 -0.2168 -0.0369
    1SOL    HW2  306   0.874   4.089   0.458 -0.4709 -0.4204  1.6271
    1SOL    HW3  307   0.904   3.969   0.545  0.1414 -1.7804 -0.4029
    1SOL    MW4  308   0.889   4.004   0.467  0.3089 -0.4497  0.1344
    1SOL     OW  309   0.473   3.943   0.397 -0.0963 -0.3276 -0.2250
    1SOL    HW2  310   0.454   3.953   0.491  1.6025 -2.7081  0.4281
    1SOL    HW3  311   0.506   4.028   0.370 -2.1008  0.8633  0.9543
    1SOL    MW4  312   0.475   3.955   0.406 -0.1366 -0.4849  0.0168
    1SOL     OW  313   1.185   4.491   0.320 -0.1831 -0.1440 -0.1334
    1SOL    HW2  314   1.143   4.517   0.238 -0.2918  0.0497 -0.0165
    1SOL    HW3  315   1.114   4.491   0.384 -0.3133 -1.3750 -0.2741
    1SOL    MW4  316   1.170   4.494   0.317 -0.2146 -0.2804 -0.1365
    1SOL     OW  317   1.121   0.489   0.458  0.2797 -0.5118 -0.2829
    1SOL    HW2  318   1.116   0.412   0.401  0.5410  0.6290 -1.8681
    1SOL    HW3  319   1.208   0.526   0.441  0.5242 -0.3921  1.1684
    1SOL    MW4  320   1.132   0.484   0.448  0.3465 -0.3455 -0.3005
    1SOL     OW  321   0.939   0.066   0.509 -0.1809  0.3032  0.3560
    1SOL    HW2  322   0.952  -0.027   0.495 -1.2659  0.1326  0.3999
    1SOL    HW3  323   0.930   0.076   0.604 -1.1623  0.2883  0.2737
    1SOL    MW4  324   0.939   0.055   0.519 -0.4534  0.2787  0.3510
    1SOL     OW  325   1.373   0.190   0.480  0.3914  0.1539 -0.1837
    1SOL    HW2  326   1.323   0.257   0.432  0.7729  0.4923 -0.1061
    1SOL    HW3  327   1.464   0.214   0.466  0.5451 -0.7200 -0.6781
    1SOL    MW4  328   1.378   0.202   0.472  0.4621  0.0832 -0.2387
    1SOL     OW  329   1.615   0.504   0.504 -0.2981  0.3280  0.2882
    1SOL    HW2  330   1.633   0.423   0.456  0.4379  0.3859  0.4482
    1SOL    HW3  331   1.634   0.482   0.595 -0.4204  0.5840  0.3737
    1SOL    MW4  332   1.620   0.490   0.509 -0.2171  0.3694  0.3206
    1SOL     OW  333   1.104   0.242   0.321  0.1355 -0.8269 -0.5486
    1SOL    HW2  334   1.077   0.182   0.390 -1.7789  0.3043 -0.2878
    1SOL    HW3  335   1.115   0.187   0.243 -0.0607 -1.7318  0.0633
    1SOL    MW4  336   1.102   0.227   0.320 -0.1429 -0.7970 -0.4334
    1SOL     OW  337   2.017   0.700   0.520 -0.1554 -0.8265  0.1121
    1SOL    HW2  338   2.063   0.778   0.488 -2.0115  0.2938  0.0755
    1SOL    HW3  339   1.925   0.726   0.521 -0.6797 -2.6564  1.2004
    1SOL    MW4  340   2.011   0.714   0.516 -0.4694 -0.9202  0.2509
    1SOL     OW  341   2.409   0.799   0.407  0.4356  0.4267  0.3340
    1SOL    HW2  342   2.504   0.793   0.418  0.2799 -2.7641  0.4135
    1SOL    HW3  343   2.394   0.788   0.313  0.0582 -0.7923  0.5292
    1SOL    MW4  344   2.420   0.797   0.396  0.3653 -0.1551  0.3702
    1SOL     OW  345   1.762   1.507   0.486 -0.1616  0.7228  0.2422
    1SOL    HW2  346   1.696   1.498   0.554  0.4423 -1.4706  0.5953
    1SOL    HW3  347   1.723   1.464   0.410  1.1589 -1.3718  0.7078
    1SOL    MW4  348   1.748   1.500   0.485  0.0923  0.1571  0.3502
    1SOL     OW  349   1.597   1.341   0.357 -0.0634 -0.1446 -0.0133
    1SOL    HW2  350   1.598   1.249   0.382  0.2917  0.4580  2.3406
    1SOL    HW3  351   1.504   1.365   0.357 -0.1982 -0.6511 -1.2467
    1SOL    MW4  352   1.585   1.332   0.361 -0.0343 -0.1318  0.1345
    1SOL     OW  353   1.160   1.310   0.507 -0.6187  0.1362 -0.0694
    1SOL    HW2  354   1.231   1.342   0.452  0.7389 -0.0763  1.5160
    1SOL    HW3  355   1.150   1.219   0.482 -0.8257  0.3625 -0.8130
    1SOL    MW4  356   1.168   1.302   0.497 -0.4669  0.1380  0.0417
    1SOL     OW  357   1.275   1.687   0.443 -0.4362  0.0394  0.2045
    1SOL    HW2  358   1.281   1.681   0.539 -0.7884 -0.1842  0.2131
    1SOL    HW3  359   1.290   1.780   0.425 -1.8147  0.3503  0.5957
    1SOL    MW4  360   1.277   1.699   0.453 -0.6645  0.0510  0.2573
    1SOL     OW  361   1.147   2.335   0.410  0.1090 -0.0877 -0.4595
    1SOL    HW2  362   1.235   2.364   0.435  1.0442 -1.7388 -1.7012
    1SOL    HW3  363   1.143   2.244   0.440 -0.6796 -0.4341 -1.5890
    1SOL    MW4  364   1.158   2.327   0.417  0.1285 -0.3517 -0.7724
    1SOL     OW  365   1.484   2.723   0.348 -0.0422  0.4563  0.5358
    1SOL    HW2  366   1.474   2.727   0.253 -0.3825 -0.8582  0.5081
    1SOL    HW3  367   1.441   2.803   0.380  0.7255  1.2850 -0.4548
    1SOL    MW4  368   1.477   2.734   0.339  0.0143  0.3920  0.4015
    1SOL     OW  369   1.865   2.257   0.245 -0.3326  0.1506 -0.1878
    1SOL    HW2  370   1.941   2.293   0.292 -1.6675  0.8646  1.4475
    1SOL    HW3  371   1.874   2.163   0.254  1.0563  0.1839 -1.1015
    1SOL    MW4  372   1.876   2.250   0.252 -0.3256  0.2489 -0.0926
    1SOL     OW  373   1.562   2.056   0.480 -0.5561 -0.3579 -0.4641
    1SOL    HW2  374   1.572   2.146   0.449  0.8590  0.2693  1.7232
    1SOL    HW3  375   1.645   2.013   0.456  0.2667 -0.0558  1.6885
    1SOL    MW4  376   1.575   2.062   0.473 -0.2608 -0.2356  0.1085
    1SOL     OW  377   0.886   2.068   0.276 -0.1773  0.3446  0.0325
    1SOL    HW2  378   0.949   2.064   0.348  0.6585 -0.5033 -0.7274
    1SOL    HW3  379   0.861   1.976   0.261 -0.6284  0.5533 -0.5017
    1SOL    MW4  380   0.891   2.055   0.284 -0.1265  0.2604 -0.1383
    1SOL     OW  381   0.861   2.969   0.475  0.3281 -0.1290  0.2307
    1SOL    HW2  382   0.804   2.949   0.550 -0.5297  1.1465 -0.0684
    1SOL    HW3  383   0.858   3.064   0.468  1.0938 -0.1881 -0.8991
    1SOL    MW4  384   0.853   2.979   0.484  0.3160  0.0317  0.0422
    1SOL     OW  385   2.039   2.384   0.420 -0.2541  0.0004 -0.3690
    1SOL    HW2  386   2.040   2.306   0.477  1.2261  1.1701  1.2731
    1SOL    HW3  387   2.127   2.419   0.427 -0.9297  1.8796 -1.0170
    1SOL    MW4  388   2.051   2.378   0.429 -0.1478  0.4025 -0.2379
    1SOL     OW  389   1.659   4.607   0.296  0.1699  0.2855 -0.0412
    1SOL    HW2  390   1.570   4.632   0.269  0.0667 -0.8501 -0.7853
    1SOL    HW3  391   1.645   4.538   0.361  0.5046  0.5730  0.3409
    1SOL    MW4  392   1.645   4.601   0.301  0.2004  0.1736 -0.0889
    1SOL     OW  393   1.321   4.009   0.458 -0.6063  0.0827 -0.3172
    1SOL    HW2  394   1.262   3.957   0.404 -1.3762  0.4912  0.1228
    1SOL    HW3  395   1.342   4.086   0.404 -0.5671 -0.0024 -0.4246
    1SOL    MW4  396   1.316   4.013   0.444 -0.7027  0.1254 -0.2733
    1SOL     OW  397   1.738   2.763   0.483 -0.4975  0.6233  0.1540
    1SOL    HW2  398   1.710   2.792   0.570  0.4246 -1.6652  1.2445
    1SOL    HW3  399   1.657   2.742   0.437 -0.8894  0.2005  1.0417
    1SOL    MW4  400   1.723   2.764   0.488 -0.4276  0.2658  0.4150
    1SOL     OW  401   1.861   3.800   0.157  0.5123  0.3433  0.4912
    1SOL    HW2  402   1.952   3.784   0.183  1.0203  0.9136 -0.8780
    1SOL    HW3  403   1.866   3.871   0.093 -0.8452  0.0724  0.0589
    1SOL    MW4  404   1.874   3.807   0.152  0.4002  0.3829  0.2535
    1SOL     OW  405   1.155   3.397   0.430  0.4033 -0.3821  0.0124
    1SOL    HW2  406   1.070   3.355   0.419  0.4286 -0.8670  1.5014
    1SOL    HW3  407   1.213   3.352   0.369 -0.3328 -0.2679 -0.7729
    1SOL    MW4  408   1.151   3.385   0.421  0.3095 -0.4308  0.1052
    1SOL     OW  409   2.091   3.753   0.300 -0.0219 -0.3537  0.2309
    1SOL    HW2  410   2.063   3.676   0.348  0.1710 -0.4431  0.2001
    1SOL    HW3  411   2.180   3.733   0.271 -0.2916 -0.4708 -0.5255
    1SOL    MW4  412   2.099   3.740   0.302 -0.0319 -0.3808  0.1270
    1SOL     OW  413   0.552   4.205   0.309 -0.2246  0.4701  0.0042
    1SOL    HW2  414   0.582   4.240   0.225 -1.0539  0.2628 -0.3866
    1SOL    HW3  415   0.500   4.276   0.348  0.9700  0.9301  0.8065
    1SOL    MW4  416   0.549   4.219   0.303 -0.1764  0.5031  0.0585
    1SOL     OW  417   1.858   4.409   0.264  0.1916 -0.0924  0.1889
    1SOL    HW2  418   1.820   4.331   0.304 -0.7565 -0.9512 -2.2668
    1SOL    HW3  419   1.782   4.464   0.242  0.6663  0.2050 -0.7227
    1SOL    MW4  420   1.843   4.406   0.266  0.1292 -0.1659 -0.2554
    1SOL     OW  421   1.893   4.581   0.531  0.3279  0.1928 -0.5606
    1SOL    HW2  422   1.815   4.531   0.554  0.6895 -0.2506 -0.2987
    1SOL    HW3  423   1.883   4.599   0.437  0.0595 -0.1163 -0.5926
    1SOL    MW4  424   1.881   4.577   0.521  0.3402  0.0935 -0.5302
    1SOL     OW  425   2.040   0.257   0.539  0.3813  0.1348  0.1282
    1SOL    HW2  426   2.052   0.344   0.578 -1.4792 -0.2017  1.5196
    1SOL    HW3  427   1.966   0.219   0.587  0.3260 -1.7060 -1.3540
    1SOL    MW4  428   2.032   0.264   0.551  0.1287 -0.1524  0.1162
    1SOL     OW  429   1.356   4.254   0.334 -0.4386  0.4239  0.1573
    1SOL    HW2  430   1.278   4.309   0.329  0.4520  1.7448  0.5282
    1SOL    HW3  431   1.424   4.311   0.371  0.7905 -0.5946 -0.4697
    1SOL    MW4  432   1.355   4.269   0.338 -0.1589  0.4644  0.1235
    1SOL     OW  433   2.287   0.584   0.528  0.1371 -0.2946  0.1471
    1SOL    HW2  434   2.198   0.612   0.506  0.3703  0.1522 -0.2269
    1SOL    HW3  435   2.342   0.657   0.502  0.7301 -1.0412 -0.6963
    1SOL    MW4  436   2.282   0.597   0.522  0.2460 -0.3342 -0.0135
    1SOL     OW  437   2.133   1.590   0.579 -0.0723 -0.2028  0.6252
    1SOL    HW2  438   2.089   1.511   0.548 -1.9592  1.1934 -0.3150
    1SOL    HW3  439   2.065   1.657   0.582  2.0400  2.1745 -1.4676
    1SOL    MW4  440   2.118   1.588   0.575 -0.0427  0.2950  0.2251
    1SOL     OW  441   2.191   0.936   0.536  0.5974  0.4268 -0.7730
    1SOL    HW2  442   2.195   1.019   0.488  0.7307  0.6140 -0.4374
    1SOL    HW3  443   2.265   0.885   0.501  1.4174  1.0170  0.0685
    1SOL    MW4  444   2.202   0.940   0.525  0.7234  0.5293 -0.6178
    1SOL     OW  445   1.988   1.366   0.508 -0.0479 -0.0034 -0.4690
    1SOL    HW2  446   1.899   1.400   0.504 -0.3524 -0.8626 -1.2580
    1SOL    HW3  447   1.991   1.298   0.441  1.0701 -0.2965 -0.1423
    1SOL    MW4  448   1.977   1.361   0.499  0.0594 -0.1554 -0.5300
    1SOL     OW  449   2.337   1.407   0.544  0.3589 -0.2165  0.4823
    1SOL    HW2  450   2.421   1.433   0.505  0.1686  0.6981  0.6771
    1SOL    HW3  451   2.285   1.487   0.545 -1.0299 -1.0757 -0.8937
    1SOL    MW4  452   2.342   1.421   0.539  0.1507 -0.2093  0.3265
    1SOL     OW  453   1.873   1.996   0.423  0.6380  0.1472 -0.1261
    1SOL    HW2  454   1.892   1.910   0.459  0.8644 -0.4196 -1.5494
    1SOL    HW3  455   1.937   2.054   0.464 -0.5003 -0.0508  2.0028
    1SOL    MW4  456   1.884   1.992   0.433  0.5176  0.0464 -0.0330
    1SOL     OW  457   1.309   1.962   0.351  0.0861  0.0287  0.3270
    1SOL    HW2  458   1.316   1.979   0.257 -0.3620 -0.2477  0.2402
    1SOL    HW3  459   1.394   1.986   0.387  0.5092 -0.5772 -0.2639
    1SOL    MW4  460   1.321   1.967   0.344  0.0827 -0.0876  0.2376
    1SOL     OW  461   2.315   2.414   0.501 -0.5091 -0.0449  0.5276
    1SOL    HW2  462   2.396   2.465   0.500 -0.3708 -0.2824 -0.6474
    1SOL    HW3  463   2.281   2.425   0.590 -0.3127  1.8113  0.3820
    1SOL    MW4  464   2.321   2.422   0.513 -0.4652  0.1688  0.3534
    1SOL     OW  465   1.810   3.325   0.521 -0.2107 -0.1086  0.1242
    1SOL    HW2  466   1.842   3.413   0.501 -0.8551  0.2783  0.7573
    1SOL    HW3  467   1.875   3.267   0.482 -0.2089  0.6376 -0.9976
    1SOL    MW4  468   1.823   3.329   0.513 -0.2955  0.0408  0.0597
    1SOL     OW  469   1.339   2.934   0.436 -0.1734  0.3466 -0.6731
    1SOL    HW2  470   1.316   3.016   0.394  0.9559  0.6320 -0.7600
    1SOL    HW3  471   1.257   2.884   0.438 -0.6562  1.0862 -1.4705
    1SOL    MW4  472   1.325   2.938   0.431 -0.0880  0.4816 -0.7898
    1SOL     OW  473   1.538   3.337   0.469 -0.5020 -0.4678  0.4161
    1SOL    HW2  474   1.628   3.315   0.491 -0.4772 -1.4065 -0.6000
    1SOL    HW3  475   1.530   3.430   0.491  1.5320  0.3357 -2.1067
    1SOL    MW4  476   1.549   3.346   0.475 -0.2303 -0.4854 -0.0508
    1SOL     OW  477   1.085   2.073   0.493 -0.0420  0.1318  0.1570
    1SOL    HW2  478   1.108   2.058   0.585 -0.8895 -1.1871  0.1692
    1SOL    HW3  479   1.158   2.037   0.444  1.4453  2.7881  0.3264
    1SOL    MW4  480   1.097   2.066   0.499  0.0424  0.3083  0.1810
    1SOL     OW  481   3.920   1.996   0.393  0.5265 -0.3791  0.7291
    1SOL    HW2  482   3.900   1.903   0.404  0.1733 -0.4702 -0.6078
    1SOL    HW3  483   3.839   2.041   0.417 -0.5675 -0.6260 -2.3486
    1SOL    MW4  484   3.906   1.990   0.398  0.3357 -0.4238  0.1466
    1SOL     OW  485   1.819   2.498   0.535 -0.0335  0.1993 -0.3509
    1SOL    HW2  486   1.900   2.463   0.497  0.6299  1.4255 -0.0980
    1SOL    HW3  487   1.814   2.587   0.501 -1.6317 -0.0733 -0.8866
    1SOL    MW4  488   1.829   2.505   0.525 -0.1569  0.3252 -0.3881
    1SOL     OW  489   1.400   2.462   0.432 -0.5025 -0.3729 -0.1136
    1SOL    HW2  490   1.478   2.407   0.423  0.0155  0.2157  0.6360
    1SOL    HW3  491   1.427   2.548   0.399 -0.9825 -0.2979 -0.3131
    1SOL    MW4  492   1.414   2.466   0.427 -0.4975 -0.2851 -0.0411
    1SOL     OW  493   1.349   3.237   0.277 -0.3645  0.2562  0.5911
    1SOL    HW2  494   1.382   3.274   0.195  0.5523 -2.7657 -0.4376
    1SOL    HW3  495   1.405   3.275   0.345  0.1135  1.2704 -0.3613
    1SOL    MW4  496   1.361   3.247   0.275 -0.1805 -0.0086  0.3297
    1SOL     OW  497   2.274   3.255   0.537  0.0300 -0.1757 -0.2592
    1SOL    HW2  498   2.187   3.224   0.511  0.3140  0.1573 -1.6781
    1SOL    HW3  499   2.275   3.249   0.632 -1.5906 -0.0804 -0.2226
    1SOL    MW4  500   2.263   3.250   0.546 -0.1464 -0.1190 -0.4416
    1SOL     OW  501   1.755   4.187   0.429 -0.2660 -0.2271  0.0584
    1SOL    HW2  502   1.707   4.106   0.446 -0.0115 -0.5060 -0.5612
    1SOL    HW3  503   1.840   4.175   0.471  0.3238 -0.8747 -1.3030
    1SOL    MW4  504   1.760   4.175   0.437 -0.1545 -0.3490 -0.2030
    1SOL     OW  505   1.611   3.952   0.520  0.2037  0.4083 -0.5795
    1SOL    HW2  506   1.517   3.941   0.506  0.0252  0.2731  0.6904
    1SOL    HW3  507   1.651   3.878   0.473 -0.4196 -0.4001  0.1477
    1SOL    MW4  508   1.604   3.940   0.512  0.0979  0.2837 -0.3160
    1SOL     OW  509   1.586   4.396   0.467  0.6926  0.3190  0.6203
    1SOL    HW2  510   1.568   4.399   0.560 -1.2488 -1.6596  0.3256
    1SOL    HW3  511   1.639   4.317   0.455 -0.7501 -0.5356 -0.2132
    1SOL    MW4  512   1.591   4.386   0.477  0.2462 -0.0548  0.4715
    1SOL     OW  513   1.381   0.012   0.250 -0.1541 -0.2288  0.5038
    1SOL    HW2  514   1.362   0.066   0.327  0.6350  0.4637  0.2245
    1SOL    HW3  515   1.328  -0.066   0.262 -0.3255  0.0398  1.5700
    1SOL    MW4  516   1.372   0.009   0.262 -0.0726 -0.1020  0.6076
    1SOL     OW  517   2.178   4.509   0.501 -0.5229  0.2634 -0.4358
    1SOL    HW2  518   2.224   4.480   0.580 -1.1673  0.6810  0.1022
    1SOL    HW3  519   2.086   4.493   0.520 -0.6254 -0.2810 -1.3857
    1SOL    MW4  520   2.172   4.503   0.514 -0.6213  0.2465 -0.4901
    1SOL     OW  521   2.262   0.098   0.529  0.3803  0.2605 -0.0541
    1SOL    HW2  522   2.228   0.009   0.536 -0.4934  0.5578 -0.5133
    1SOL    HW3  523   2.185   0.153   0.523  0.8712  1.1747  1.5261
    1SOL    MW4  524   2.248   0.093   0.529  0.3297  0.4203  0.0938
    1SOL     OW  525   2.849   1.576   0.382  0.0980  0.2140 -0.2899
    1SOL    HW2  526   2.766   1.554   0.424 -0.1895  0.0959 -0.9023
    1SOL    HW3  527   2.893   1.492   0.370  0.3289  0.2823  0.0829
    1SOL    MW4  528   2.844   1.562   0.386  0.0908  0.2073 -0.3214
    1SOL     OW  529   2.705   0.778   0.446  0.3643  0.2596  0.2674
    1SOL    HW2  530   2.758   0.700   0.459  2.3371  1.7964  1.9738
    1SOL    HW3  531   2.755   0.832   0.384 -1.6041 -0.3547 -1.9134
    1SOL    MW4  532   2.719   0.775   0.440  0.3650  0.3814  0.2048
    1SOL     OW  533   2.922   0.999   0.422 -0.4206 -0.0710 -0.2225
    1SOL    HW2  534   2.909   0.989   0.516  0.5794  1.5270  0.1053
    1SOL    HW3  535   2.992   0.937   0.401  0.5764  0.8101  0.4232
    1SOL    MW4  536   2.930   0.989   0.432 -0.1574  0.2561 -0.0941
    1SOL     OW  537   2.963   1.290   0.458  0.0607 -0.2695  0.2312
    1SOL    HW2  538   2.955   1.202   0.421  0.8788  0.1819 -1.0416
    1SOL    HW3  539   2.951   1.277   0.552  0.1049 -1.7318  0.0494
    1SOL    MW4  540   2.960   1.276   0.466  0.1745 -0.4027  0.0393
    1SOL     OW  541   2.601   1.551   0.504  0.3172 -0.6999 -0.1633
    1SOL    HW2  542   2.597   1.637   0.462  0.1969 -0.2095  0.8421
    1SOL    HW3  543   2.645   1.566   0.588 -0.8986 -1.3596  0.6242
    1SOL    MW4  544   2.606   1.564   0.510  0.1409 -0.7223  0.0732
    1SOL     OW  545   2.958   1.980   0.465 -0.3937 -0.2160  0.3430
    1SOL    HW2  546   2.887   2.025   0.510 -0.6599  0.8649 -1.1108
    1SOL    HW3  547   2.924   1.963   0.377  0.6207 -0.9809  0.0829
    1SOL    MW4  548   2.944   1.984   0.459 -0.2949 -0.1743  0.1168
    1SOL     OW  549   2.985   4.523   0.441 -0.1379 -0.3023 -0.1184
    1SOL    HW2  550   2.994   4.617   0.423 -0.3291  0.0304  1.4598
    1SOL    HW3  551   2.955   4.519   0.532 -0.6036 -1.8833 -0.3370
    1SOL    MW4  552   2.982   4.535   0.451 -0.2244 -0.4668  0.0609
    1SOL     OW  553   2.097   2.145   0.520 -0.3002  0.5338 -0.3938
    1SOL    HW2  554   2.074   2.114   0.608 -1.4147 -0.9763 -1.1812
    1SOL    HW3  555   2.190   2.121   0.510 -0.2817  0.3356  0.2276
    1SOL    MW4  556   2.106   2.138   0.530 -0.4447  0.3083 -0.4157
    1SOL     OW  557   1.568   1.526   0.700  0.1232 -0.1268 -0.1644
    1SOL    HW2  558   1.619   1.569   0.769  0.1412 -0.1411 -0.1689
    1SOL    HW3  559   1.489   1.580   0.691 -0.1787 -0.4917  0.3185
    1SOL    MW4  560   1.565   1.539   0.708  0.0857 -0.1769 -0.1013
    1SOL     OW  561   2.374   2.146   0.536  0.0627 -0.0132  0.8455
    1SOL    HW2  562   2.359   2.240   0.529 -1.2656 -0.1773  1.3049
    1SOL    HW3  563   2.461   2.133   0.498  0.9364  1.6023  2.2140
    1SOL    MW4  564   2.383   2.157   0.530  0.0026  0.1781  1.0867
    1SOL     OW  565   2.621   2.112   0.449 -0.2620  0.5419  0.1727
    1SOL    HW2  566   2.655   2.189   0.403 -1.2102  1.2023  0.5629
    1SOL    HW3  567   2.675   2.104   0.527  0.0731  0.5921 -0.0551
    1SOL    MW4  568   2.633   2.121   0.453 -0.3428  0.6356  0.1941
    1SOL     OW  569   2.597   2.867   0.472  0.3216  0.3187 -0.3513
    1SOL    HW2  570   2.636   2.951   0.450 -0.1739  0.8001  0.5463
    1SOL    HW3  571   2.555   2.882   0.557 -0.3412 -0.6488 -0.4989
    1SOL    MW4  572   2.597   2.880   0.480  0.1688  0.2544 -0.2524
    1SOL     OW  573   1.653   2.314   0.412  0.2162 -0.5135 -0.3158
    1SOL    HW2  574   1.720   2.295   0.345 -0.1189  1.5357 -1.2634
    1SOL    HW3  575   1.691   2.384   0.465 -0.7128 -0.1328 -0.1445
    1SOL    MW4  576   1.667   2.321   0.410  0.0494 -0.1929 -0.4183
    1SOL     OW  577   1.981   2.899   0.526 -0.3480 -0.0838  0.5443
    1SOL    HW2  578   1.989   2.887   0.621  0.4072  0.4868  0.5596
    1SOL    HW3  579   1.908   2.843   0.501  0.3007 -1.2617  1.2668
    1SOL    MW4  580   1.972   2.890   0.535 -0.1627 -0.1638  0.6417
    1SOL     OW  581   2.167   3.940   0.485  0.0843  0.8026 -0.2309
    1SOL    HW2  582   2.247   3.966   0.440  0.1871  0.3557 -0.3156
    1SOL    HW3  583   2.122   3.883   0.421  0.9588 -1.0900  0.7951
    1SOL    MW4  584   2.171   3.936   0.470  0.2131  0.4940 -0.1067
    1SOL     OW  585   2.408   3.951   0.356 -0.1056 -0.1169  0.0249
    1SOL    HW2  586   2.499   3.959   0.385  0.8412  1.1776 -3.0688
    1SOL    HW3  587   2.398   3.858   0.335  1.2640  0.0995 -1.7616
    1SOL    MW4  588   2.418   3.940   0.357  0.2000  0.0827 -0.6190
    1SOL     OW  589   1.729   3.720   0.406  0.1536  0.2643  0.2373
    1SOL    HW2  590   1.805   3.678   0.448 -0.9379 -1.2727  0.7247
    1SOL    HW3  591   1.761   3.747   0.320  1.1283 -0.8196  0.2403
    1SOL    MW4  592   1.743   3.718   0.400  0.1382 -0.0815  0.3020
    1SOL     OW  593   1.969   3.560   0.501  0.1006  0.1242  0.2216
    1SOL    HW2  594   2.056   3.521   0.493  1.0797  2.5243 -1.5046
    1SOL    HW3  595   1.973   3.610   0.583  0.3254  0.2087  0.1582
    1SOL    MW4  596   1.981   3.561   0.511  0.2595  0.4523 -0.0145
    1SOL     OW  597   2.145   4.347   0.281  0.1888  0.2073 -0.2588
    1SOL    HW2  598   2.167   4.412   0.348  0.2332  0.8014 -0.8475
    1SOL    HW3  599   2.058   4.373   0.250  0.3299  0.1478 -0.6967
    1SOL    MW4  600   2.136   4.359   0.286  0.2136  0.2780 -0.3943
    1SOL     OW  601   2.031   4.175   0.471  0.4516  0.1455  0.4482
    1SOL    HW2  602   2.062   4.087   0.488  0.4396  0.4629  2.2269
    1SOL    HW3  603   2.094   4.212   0.409  0.5825 -1.0064 -0.1214
    1SOL    MW4  604   2.043   4.169   0.465  0.4673  0.0353  0.6077
    1SOL     OW  605   3.007   0.129   0.362  0.2298  0.2196 -0.0636
    1SOL    HW2  606   3.101   0.115   0.350  0.0531  0.5098 -1.9778
    1SOL    HW3  607   2.996   0.224   0.358 -0.0072  0.2560  1.3288
    1SOL    MW4  608   3.018   0.140   0.360  0.1752  0.2627 -0.1325
    1SOL     OW  609   2.365   3.682   0.308 -0.2753  0.0883 -0.1657
    1SOL    HW2  610   2.423   3.622   0.261  0.1735  0.7910 -0.5094
    1SOL    HW3  611   2.324   3.628   0.376 -0.3088 -0.7403 -0.8429
    1SOL    MW4  612   2.367   3.667   0.311 -0.2203  0.0715 -0.3004
    1SOL     OW  613   2.411   4.243   0.389 -0.2915  0.2130  0.2692
    1SOL    HW2  614   2.342   4.288   0.341  0.2189  0.8236  0.0996
    1SOL    HW3  615   2.410   4.154   0.356  0.6850  0.8682 -1.5494
    1SOL    MW4  616   2.402   4.237   0.379 -0.0954  0.3800  0.0069
    1SOL     OW  617   2.427   0.334   0.514  0.0865  0.0117  0.2799
    1SOL    HW2  618   2.366   0.405   0.498  1.5362  0.8482 -1.8291
    1SOL    HW3  619   2.373   0.255   0.509 -1.0637  0.8017 -0.1270
    1SOL    MW4  620   2.412   0.333   0.511  0.1256  0.2263 -0.0521
    1SOL     OW  621   1.665   0.221   0.431 -0.2849  0.2963 -0.5166
    1SOL    HW2  622   1.724   0.223   0.507 -0.4068  1.9738 -0.4521
    1SOL    HW3  623   1.680   0.135   0.392  0.1090 -0.4171  1.1456
    1SOL    MW4  624   1.675   0.210   0.436 -0.2490  0.4235 -0.2888
    1SOL     OW  625   3.075   0.412   0.349  0.3099  0.2694  0.1016
    1SOL    HW2  626   3.114   0.486   0.302 -0.1454  0.1025 -0.5365
    1SOL    HW3  627   3.150   0.363   0.382  0.6092  1.4956  1.2749
    1SOL    MW4  628   3.090   0.416   0.347  0.2890  0.4092  0.1721
    1SOL     OW  629   2.217   1.199   0.363  0.2360 -0.5327 -0.2396
    1SOL    HW2  630   2.248   1.269   0.421 -0.0166 -0.2544 -0.4355
    1SOL    HW3  631   2.251   1.223   0.277 -0.2939 -0.3645 -0.4069
    1SOL    MW4  632   2.226   1.212   0.359  0.1326 -0.4737 -0.2875
    1SOL     OW  633   3.142   0.824   0.477 -0.1877 -0.3032  0.1805
    1SOL    HW2  634   3.199   0.897   0.452  0.6066 -0.4397  1.5146
    1SOL    HW3  635   3.132   0.834   0.572 -0.2761 -1.7810  0.3340
    1SOL    MW4  636   3.148   0.835   0.486 -0.0947 -0.5162  0.3768
    1SOL     OW  637   3.054   1.728   0.519  0.2555 -0.1756  0.2411
    1SOL    HW2  638   2.979   1.678   0.487  1.3652 -0.4484 -2.1039
    1SOL    HW3  639   3.029   1.820   0.506 -0.5291 -0.1965  1.5538
    1SOL    MW4  640   3.041   1.734   0.513  0.2983 -0.2143  0.1050
    1SOL     OW  641   2.859   1.830   0.243 -0.1193 -0.3226  0.2152
    1SOL    HW2  642   2.875   1.743   0.280  1.0732 -0.0313  0.4120
    1SOL    HW3  643   2.862   1.816   0.148  0.8638 -0.3601  0.2492
    1SOL    MW4  644   2.862   1.817   0.236  0.1676 -0.2892  0.2457
    1SOL     OW  645   3.679   1.533   0.410  0.0628 -0.4264 -0.1105
    1SOL    HW2  646   3.620   1.523   0.335  0.8900 -1.3607 -0.6489
    1SOL    HW3  647   3.621   1.540   0.486 -0.7644 -0.0692 -0.7689
    1SOL    MW4  648   3.664   1.533   0.410  0.0632 -0.5025 -0.2684
    1SOL     OW  649   2.645   0.152   0.695  0.2395 -0.1042 -0.4792
    1SOL    HW2  650   2.648   0.211   0.770  1.4978  0.2092 -0.7610
    1SOL    HW3  651   2.656   0.209   0.619 -2.3084 -0.2623 -1.0112
    1SOL    MW4  652   2.647   0.167   0.695  0.0694 -0.0837 -0.5866
    1SOL     OW  653   3.178   2.052   0.636  0.1973  0.2239  0.0101
    1SOL    HW2  654   3.093   2.052   0.592 -0.6201 -0.4343  1.5610
    1SOL    HW3  655   3.163   2.006   0.718  1.8692  0.8065  0.6659
    1SOL    MW4  656   3.165   2.046   0.641  0.3099  0.2141  0.3012
    1SOL     OW  657   2.718   2.363   0.331  0.3054 -0.3556  0.0813
    1SOL    HW2  658   2.732   2.348   0.238 -0.2125 -2.1077  0.2806
    1SOL    HW3  659   2.804   2.386   0.365  0.3231  1.2468 -0.9896
    1SOL    MW4  660   2.731   2.364   0.324  0.2396 -0.3757 -0.0337
    1SOL     OW  661   2.618   1.815   0.405  0.2224  0.3031  0.0914
    1SOL    HW2  662   2.684   1.823   0.337 -0.8877  0.6863 -0.9639
    1SOL    HW3  663   2.583   1.904   0.416 -0.9990 -0.1143 -0.2881
    1SOL    MW4  664   2.622   1.828   0.397 -0.0849  0.2985 -0.0979
    1SOL     OW  665   2.567   2.567   0.496 -0.3770 -0.2092  0.4490
    1SOL    HW2  666   2.589   2.660   0.484 -0.4058  0.0176  2.1201
    1SOL    HW3  667   2.623   2.522   0.433 -0.3465  0.9355 -0.3650
    1SOL    MW4  668   2.578   2.573   0.486 -0.3769 -0.0284  0.5621
    1SOL     OW  669   2.735   3.121   0.503  0.3150  0.1831 -0.1163
    1SOL    HW2  670   2.793   3.192   0.478  0.6492  0.1344  0.5305
    1SOL    HW3  671   2.700   3.146   0.588 -0.4104  0.0863 -0.3729
    1SOL    MW4  672   2.738   3.133   0.511  0.2635  0.1640 -0.0647
    1SOL     OW  673   2.950   3.330   0.397  0.1884  0.0741  0.4301
    1SOL    HW2  674   3.014   3.266   0.428 -0.7243 -0.7201  0.6847
    1SOL    HW3  675   2.982   3.414   0.431  0.3127 -0.5151  1.7962
    1SOL    MW4  676   2.962   3.333   0.406  0.0844 -0.1085  0.6439
    1SOL     OW  677   3.125   3.149   0.496  0.1534  0.1189  0.5868
    1SOL    HW2  678   3.140   3.054   0.494 -3.2550 -0.4858  0.8346
    1SOL    HW3  679   3.130   3.172   0.588  1.7593  0.3478  0.4571
    1SOL    MW4  680   3.128   3.139   0.507 -0.0842  0.0691  0.6023
    1SOL     OW  681   2.514   3.335   0.436  0.1109 -0.0729  0.4818
    1SOL    HW2  682   2.572   3.259   0.449 -0.6186 -0.8437 -0.6329
    1SOL    HW3  683   2.429   3.305   0.469 -0.4763 -0.1797 -1.1264
    1SOL    MW4  684   2.511   3.321   0.442 -0.0627 -0.1891  0.1225
    1SOL     OW  685   2.575   3.508   0.241  0.6420  0.6819  0.4858
    1SOL    HW2  686   2.554   3.446   0.311  0.1170 -0.0870 -0.3374
    1SOL    HW3  687   2.653   3.472   0.200 -0.6069 -0.3413 -1.0456
    1SOL    MW4  688   2.582   3.495   0.245  0.4077  0.4456  0.1751
    1SOL     OW  689   3.380   3.779   0.280  0.3892  0.0272  0.0346
    1SOL    HW2  690   3.418   3.736   0.357  0.1584  0.4573  0.3929
    1SOL    HW3  691   3.348   3.707   0.226 -1.6078 -0.2306  1.4572
    1SOL    MW4  692   3.380   3.764   0.283  0.0954  0.0498  0.2695
    1SOL     OW  693   2.679   3.653   0.464  0.2729  0.1454  0.0156
    1SOL    HW2  694   2.651   3.605   0.386 -1.2391  0.5280  0.3050
    1SOL    HW3  695   2.620   3.622   0.533  1.8746 -0.5311  1.1379
    1SOL    MW4  696   2.668   3.642   0.463  0.2844  0.1068  0.2018
    1SOL     OW  697   2.254   3.525   0.506 -0.2601  0.7670 -0.6856
    1SOL    HW2  698   2.291   3.560   0.587 -1.4552  0.0080  0.1873
    1SOL    HW3  699   2.266   3.430   0.513 -0.6358  0.6726 -1.2715
    1SOL    MW4  700   2.261   3.517   0.517 -0.4673  0.6542 -0.6477
    1SOL     OW  701   3.587   4.010   0.383  0.0381  0.3588  0.2191
    1SOL    HW2  702   3.526   4.032   0.453  0.1513 -0.0027  0.4335
    1SOL    HW3  703   3.537   3.952   0.325  0.1686  0.0797  0.3837
    1SOL    MW4  704   3.572   4.005   0.384  0.0701  0.2742  0.2691
    1SOL     OW  705   3.150   4.283   0.392  0.0348 -0.1187  0.2763
    1SOL    HW2  706   3.086   4.212   0.392  0.2740 -0.3619  2.1969
    1SOL    HW3  707   3.097   4.362   0.405 -0.0298 -0.1474  0.1944
    1SOL    MW4  708   3.134   4.284   0.394  0.0579 -0.1545  0.5189
    1SOL     OW  709   3.394   4.647   0.317 -0.2476 -0.1501 -0.0020
    1SOL    HW2  710   3.470   4.596   0.344 -0.4664 -0.7851 -0.5577
    1SOL    HW3  711   3.392   4.638   0.222 -1.1475 -0.3335  0.0307
    1SOL    MW4  712   3.404   4.639   0.308 -0.3951 -0.2584 -0.0710
    1SOL     OW  713   3.375   4.309   0.545  0.1514 -0.2885  0.0092
    1SOL    HW2  714   3.299   4.307   0.486 -0.6564 -1.3586  1.0750
    1SOL    HW3  715   3.429   4.381   0.512 -1.2292  0.3499 -0.8833
    1SOL    MW4  716   3.372   4.318   0.533 -0.1373 -0.3452  0.0321
    1SOL     OW  717   2.799   4.317   0.419  0.2218 -0.3896  0.5682
    1SOL    HW2  718   2.858   4.392   0.418  0.3878 -0.5222  0.2849
    1SOL    HW3  719   2.856   4.240   0.426  0.0796 -0.5141  0.3799
    1SOL    MW4  720   2.814   4.316   0.420  0.2248 -0.4234  0.5060
    1SOL     OW  721   2.693   0.323   0.474 -0.0488  0.1005  0.2522
    1SOL    HW2  722   2.599   0.335   0.490 -0.2585 -0.6816 -0.3574
    1SOL    HW3  723   2.697   0.265   0.398  0.9136  1.9522 -1.1386
    1SOL    MW4  724   2.681   0.317   0.466  0.0508  0.2416 -0.0117
    1SOL     OW  725   3.254   0.633   0.285  0.0120  0.2842 -0.0943
    1SOL    HW2  726   3.286   0.692   0.216 -0.0458  0.6406  0.1780
    1SOL    HW3  727   3.236   0.692   0.359  0.6203 -0.1647  0.4190
    1SOL    MW4  728   3.256   0.649   0.286  0.0844  0.2720  0.0094
    1SOL     OW  729   2.866   0.548   0.462  0.0774  0.1458  0.0698
    1SOL    HW2  730   2.807   0.473   0.466 -0.0010  0.2703  2.3389
    1SOL    HW3  731   2.946   0.515   0.421 -0.4541 -0.8313 -0.1637
    1SOL    MW4  732   2.869   0.534   0.457 -0.0031  0.0333  0.3383
    1SOL     OW  733   3.588   0.918   0.467 -0.0666 -0.3766  0.1168
    1SOL    HW2  734   3.642   0.842   0.441  0.3933 -0.2911  0.8138
    1SOL    HW3  735   3.574   0.906   0.561  0.1217  0.4781  0.2536
    1SOL    MW4  736   3.594   0.906   0.476  0.0191 -0.2526  0.2268
    1SOL     OW  737   2.740   0.103   0.286 -0.7097  0.0155 -0.0707
    1SOL    HW2  738   2.731   0.071   0.196 -1.5130  3.4692 -1.2951
    1SOL    HW3  739   2.834   0.102   0.303 -0.5764 -0.9267 -0.8341
    1SOL    MW4  740   2.751   0.099   0.276 -0.7982  0.3469 -0.3330
    1SOL     OW  741   3.450   1.982   0.560 -0.8858 -0.9020  0.3948
    1SOL    HW2  742   3.458   1.971   0.655 -0.8987  0.8426  0.6181
    1SOL    HW3  743   3.369   2.032   0.549 -0.7427 -0.8717 -0.5207
    1SOL    MW4  744   3.440   1.987   0.571 -0.8688 -0.6677  0.3035
    1SOL     OW  745   3.332   1.733   0.504  0.3152 -0.0646 -0.2195
    1SOL    HW2  746   3.365   1.820   0.526  1.2268 -0.1671 -1.1615
    1SOL    HW3  747   3.239   1.747   0.483  0.2240  0.5240  0.5622
    1SOL    MW4  748   3.324   1.746   0.504  0.4237 -0.0006 -0.2406
    1SOL     OW  749   3.320   0.987   0.362  0.0132 -0.2298  0.1343
    1SOL    HW2  750   3.302   1.080   0.376 -0.0656 -0.3369  0.7640
    1SOL    HW3  751   3.406   0.973   0.402  0.2360 -0.3271 -0.3746
    1SOL    MW4  752   3.329   0.997   0.369  0.0319 -0.2568  0.1502
    1SOL     OW  753   3.869   1.741   0.473 -0.2736 -0.0988  0.8920
    1SOL    HW2  754   3.810   1.680   0.428 -1.3047  2.2151 -0.9777
    1SOL    HW3  755   3.831   1.753   0.559  0.3706 -2.6677  1.5794
    1SOL    MW4  756   3.857   1.734   0.478 -0.3247 -0.1324  0.7360
    1SOL     OW  757   3.311   2.295   0.699 -0.3681 -0.3135 -0.2864
    1SOL    HW2  758   3.253   2.219   0.695 -0.9374  0.0593  0.6305
    1SOL    HW3  759   3.361   2.282   0.779 -1.7303  1.1575  0.8429
    1SOL    MW4  760   3.310   2.283   0.709 -0.6230 -0.0701 -0.0164
    1SOL     OW  761   3.528   2.736   0.639  0.3852 -0.0905 -0.2688
    1SOL    HW2  762   3.575   2.719   0.721 -0.3703 -0.5661  0.0705
    1SOL    HW3  763   3.500   2.649   0.610 -0.2748  0.1932 -0.4770
    1SOL    MW4  764   3.531   2.722   0.646  0.1986 -0.1156 -0.2515
    1SOL     OW  765   2.013   3.163   0.428 -0.1594 -0.1256  0.1773
    1SOL    HW2  766   2.022   3.068   0.439  0.8151 -0.1272 -0.5270
    1SOL    HW3  767   2.010   3.176   0.333 -0.6337  0.5198  0.2791
    1SOL    MW4  768   2.014   3.152   0.417 -0.0932 -0.0405  0.0979
    1SOL     OW  769   3.222   2.592   0.388  0.6162  0.1551  0.1958
    1SOL    HW2  770   3.248   2.583   0.297 -0.7545 -0.3534 -0.1545
    1SOL    HW3  771   3.290   2.546   0.438  0.8758 -0.3526 -0.6244
    1SOL    MW4  772   3.235   2.585   0.383  0.4697  0.0210  0.0414
    1SOL     OW  773   2.882   2.856   0.806 -0.0872 -0.3607  0.1478
    1SOL    HW2  774   2.880   2.816   0.719  0.3638 -1.4772  0.6412
    1SOL    HW3  775   2.946   2.805   0.854 -0.7457 -0.1072  1.3060
    1SOL    MW4  776   2.890   2.844   0.801 -0.1144 -0.4745  0.3657
    1SOL     OW  777   3.261   0.174   0.462  0.0684 -0.0822 -0.1403
    1SOL    HW2  778   3.209   0.151   0.540  0.8108  0.5402  0.5466
    1SOL    HW3  779   3.293   0.089   0.430  1.6557 -0.1872  1.5849
    1SOL    MW4  780   3.258   0.159   0.468  0.3757 -0.0139  0.1779
    1SOL     OW  781   2.939   4.055   0.430 -0.1042  0.5301  0.3023
    1SOL    HW2  782   2.975   3.970   0.408  0.7538  0.9892 -0.0720
    1SOL    HW3  783   2.957   4.066   0.523 -1.0985 -0.1177  0.5848
    1SOL    MW4  784   2.946   4.045   0.440 -0.1221  0.5054  0.2902
    1SOL     OW  785   3.452   3.585   0.464 -0.2878 -0.4713 -0.1101
    1SOL    HW2  786   3.420   3.498   0.440 -0.4135 -0.7675  1.0942
    1SOL    HW3  787   3.422   3.597   0.554 -0.2148  0.7949 -0.2563
    1SOL    MW4  788   3.444   3.575   0.473 -0.2947 -0.3433  0.0295
    1SOL     OW  789   3.615   3.119   0.444 -0.2610 -0.2190  0.3492
    1SOL    HW2  790   3.662   3.169   0.377 -1.8968 -0.5836 -1.1091
    1SOL    HW3  791   3.652   3.031   0.439 -0.8870 -0.4457 -0.6413
    1SOL    MW4  792   3.626   3.114   0.434 -0.5593 -0.2971  0.0261
    1SOL     OW  793   3.385   3.296   0.455 -0.2834 -0.3043 -0.0687
    1SOL    HW2  794   3.307   3.242   0.470 -0.5408 -0.1683 -0.8466
    1SOL    HW3  795   3.456   3.233   0.441 -0.3111 -0.4322  0.3775
    1SOL    MW4  796   3.384   3.280   0.455 -0.3209 -0.3033 -0.1125
    1SOL     OW  797   2.651   3.935   0.472  0.4873  0.5741  0.0929
    1SOL    HW2  798   2.732   3.966   0.433  1.1453  0.8635  1.6559
    1SOL    HW3  799   2.661   3.840   0.478  0.7870  0.6272  0.4442
    1SOL    MW4  800   2.663   3.927   0.468  0.6135  0.6194  0.3455
    1SOL     OW  801   2.821   3.418   0.164  0.1464 -0.2116  0.0662
    1SOL    HW2  802   2.831   3.347   0.101  0.6718  0.2997 -0.4323
    1SOL    HW3  803   2.871   3.390   0.240 -0.6091 -0.8963  0.3141
    1SOL    MW4  804   2.829   3.405   0.166  0.1161 -0.2346  0.0331
    1SOL     OW  805   4.189   0.215   0.323 -0.0921 -0.1069  0.1787
    1SOL    HW2  806   4.261   0.181   0.376  0.1941 -0.8765 -0.6927
    1SOL    HW3  807   4.194   0.166   0.241  0.0125  1.6487 -0.9017
    1SOL    MW4  808   4.199   0.204   0.319 -0.0405  0.0232 -0.0789
    1SOL     OW  809   3.716   0.063   0.489 -0.0515  0.0879 -0.0637
    1SOL    HW2  810   3.660   0.130   0.449  0.5757  0.9696  0.5181
    1SOL    HW3  811   3.802   0.077   0.449  0.0554 -0.4686 -0.0350
    1SOL    MW4  812   3.720   0.073   0.478  0.0455  0.1308  0.0169
    1SOL     OW  813   3.487   0.559   0.445  0.0770  0.7601 -0.3991
    1SOL    HW2  814   3.556   0.625   0.454  0.1354  0.6797 -0.2431
    1SOL    HW3  815   3.433   0.590   0.372  0.0483  1.0289 -0.2650
    1SOL    MW4  816   3.489   0.572   0.437  0.0808  0.7849 -0.3608
    1SOL     OW  817   3.727   0.708   0.377 -0.3200  0.2316 -0.3536
    1SOL    HW2  818   3.813   0.687   0.413 -0.3762  0.1535 -0.2620
    1SOL    HW3  819   3.736   0.698   0.283  0.0997  1.4367 -0.4369
    1SOL    MW4  820   3.739   0.704   0.370 -0.2720  0.3803 -0.3525
    1SOL     OW  821   3.986   0.648   0.495 -0.6356  0.4111 -0.3843
    1SOL    HW2  822   4.051   0.581   0.475  0.5983  1.9040 -1.4421
    1SOL    HW3  823   3.932   0.609   0.565  1.5434 -0.7217  0.7042
    1SOL    MW4  824   3.987   0.634   0.502 -0.1855  0.4586 -0.3803
    1SOL     OW  825   4.373   0.873   0.453  0.1567 -0.1119 -0.1311
    1SOL    HW2  826   4.277   0.866   0.461  0.1252 -0.1246 -0.5074
    1SOL    HW3  827   4.405   0.785   0.475  0.1789  0.2765  1.4077
    1SOL    MW4  828   4.364   0.860   0.457  0.1554 -0.0623  0.0223
    1SOL     OW  829   3.838   1.031   0.483  0.0572  0.1873  0.7771
    1SOL    HW2  830   3.835   1.126   0.487 -0.7452  0.2740 -1.5394
    1SOL    HW3  831   3.748   1.003   0.496  0.2549 -0.2740  1.2170
    1SOL    MW4  832   3.826   1.039   0.486 -0.0226  0.1379  0.5295
    1SOL     OW  833   4.108   1.598   0.489 -0.2642 -0.5206  0.2123
    1SOL    HW2  834   4.027   1.647   0.472 -0.1356 -0.1263  0.7238
    1SOL    HW3  835   4.174   1.644   0.437 -0.4649 -1.1357 -0.5866
    1SOL    MW4  836   4.106   1.611   0.480 -0.2742 -0.5497  0.1744
    1SOL     OW  837   3.859   1.311   0.483 -0.4183 -0.2003 -0.2836
    1SOL    HW2  838   3.952   1.323   0.462 -0.0530  0.3041  1.5232
    1SOL    HW3  839   3.814   1.379   0.434  0.3267  0.4826 -0.0225
    1SOL    MW4  840   3.865   1.321   0.474 -0.2718 -0.0436 -0.0107
    1SOL     OW  841   3.255   1.233   0.470  0.2637 -0.6920  0.0225
    1SOL    HW2  842   3.260   1.236   0.566 -1.5386 -1.7113  0.1520
    1SOL    HW3  843   3.164   1.250   0.450  0.6201 -0.5678 -1.5329
    1SOL    MW4  844   3.244   1.236   0.480  0.0727 -0.8101 -0.1657
    1SOL     OW  845   3.391   1.488   0.358  0.2656 -0.3166 -0.2516
    1SOL    HW2  846   3.352   1.420   0.413 -3.6290 -0.0880 -2.5732
    1SOL    HW3  847   3.352   1.569   0.388  0.0427  0.1091 -1.6670
    1SOL    MW4  848   3.381   1.489   0.369 -0.2780 -0.2302 -0.7447
    1SOL     OW  849   3.660   2.426   0.400 -0.2599  0.0705  0.3034
    1SOL    HW2  850   3.742   2.470   0.378 -0.5957  0.3568 -0.3940
    1SOL    HW3  851   3.676   2.334   0.381  0.4179 -0.0987  1.6855
    1SOL    MW4  852   3.673   2.420   0.394 -0.2148  0.0861  0.3938
    1SOL     OW  853   4.261   2.717   0.552 -0.3959  0.1682 -0.1416
    1SOL    HW2  854   4.230   2.628   0.537 -1.0209  0.1807  1.0794
    1SOL    HW3  855   4.187   2.773   0.529 -0.6290  0.2867  0.9003
    1SOL    MW4  856   4.247   2.713   0.547 -0.5093  0.1853  0.1571
    1SOL     OW  857   2.933   2.513   0.465 -0.1450 -0.4536  0.4149
    1SOL    HW2  858   2.946   2.475   0.552  0.6024  0.9094  0.9135
    1SOL    HW3  859   3.021   2.534   0.435 -0.5398  0.8250  0.1280
    1SOL    MW4  860   2.946   2.510   0.473 -0.0985 -0.1049  0.4428
    1SOL     OW  861   2.956   3.593   0.492  0.1362 -0.2781  0.1027
    1SOL    HW2  862   3.011   3.665   0.462  0.2074 -0.5365 -0.3900
    1SOL    HW3  863   2.867   3.622   0.473  0.2589 -1.0923 -1.8018
    1SOL    MW4  864   2.952   3.606   0.485  0.1616 -0.4199 -0.2136
    1SOL     OW  865   3.148   2.834   0.505  0.2889  0.0305  0.1224
    1SOL    HW2  866   3.174   2.754   0.459 -1.4988  0.3747 -1.5827
    1SOL    HW3  867   3.056   2.819   0.528  0.1026  1.3649  0.2695
    1SOL    MW4  868   3.139   2.821   0.502  0.0286  0.2520 -0.0831
    1SOL     OW  869   4.007   2.852   0.546 -0.2778 -0.6604  0.3618
    1SOL    HW2  870   3.929   2.855   0.491 -0.8828 -0.1213  1.2455
    1SOL    HW3  871   4.035   2.943   0.553 -0.3145 -0.7083  1.1192
    1SOL    MW4  872   4.001   2.864   0.539 -0.3624 -0.5958  0.5783
    1SOL     OW  873   3.754   2.791   0.442 -0.2631 -0.3403  0.7000
    1SOL    HW2  874   3.680   2.771   0.500 -1.1466  0.2149 -0.2198
    1SOL    HW3  875   3.780   2.707   0.406 -1.3347 -0.3777 -0.0123
    1SOL    MW4  876   3.747   2.778   0.445 -0.5212 -0.2720  0.4846
    1SOL     OW  877   3.987   3.630   0.402  0.0212 -0.0452  0.2381
    1SOL    HW2  878   3.896   3.610   0.423 -0.1058 -0.4188 -0.6606
    1SOL    HW3  879   4.013   3.562   0.339  0.5661  0.7525 -0.3985
    1SOL    MW4  880   3.979   3.618   0.397  0.0763  0.0107  0.0355
    1SOL     OW  881   3.434   2.504   0.528  0.7397  0.8446 -0.6916
    1SOL    HW2  882   3.407   2.426   0.576  0.9318  0.7735 -0.6994
    1SOL    HW3  883   3.513   2.478   0.482  1.2503  1.2755 -0.0719
    1SOL    MW4  884   3.441   2.490   0.528  0.8323  0.8919 -0.6109
    1SOL     OW  885   3.132   3.812   0.412  0.0762  0.1376 -0.5075
    1SOL    HW2  886   3.210   3.819   0.358 -0.6277  0.6114 -1.4904
    1SOL    HW3  887   3.160   3.838   0.500  1.0423  0.1893 -0.8292
    1SOL    MW4  888   3.146   3.816   0.417  0.1111  0.2069 -0.6796
    1SOL     OW  889   4.393   3.580   0.481  0.2812  0.5225  0.0416
    1SOL    HW2  890   4.355   3.501   0.443  0.1012  0.5622  0.1379
    1SOL    HW3  891   4.488   3.568   0.472  0.3162 -0.4445  1.5274
    1SOL    MW4  892   4.401   3.568   0.475  0.2623  0.4001  0.2503
    1SOL     OW  893   3.457   4.058   0.624 -0.3127 -0.2232 -0.2257
    1SOL    HW2  894   3.416   4.141   0.597 -1.5928 -1.0012 -0.7601
    1SOL    HW3  895   3.505   4.080   0.703  0.4017  1.3071 -1.0560
    1SOL    MW4  896   3.458   4.072   0.631 -0.3874 -0.1235 -0.4057
    1SOL     OW  897   3.837   4.331   0.495  0.4678  0.3118 -0.1002
    1SOL    HW2  898   3.834   4.243   0.458 -1.9451  0.0652  0.5293
    1SOL    HW3  899   3.831   4.317   0.590  0.9558  1.1219  0.0569
    1SOL    MW4  900   3.835   4.318   0.503  0.2141  0.3867  0.0036
    1SOL     OW  901   4.422   0.084   0.426 -0.0752 -0.0715 -0.8301
    1SOL    HW2  902   4.444  -0.007   0.403 -0.4635 -0.2792 -0.3782
    1SOL    HW3  903   4.424   0.086   0.521 -1.8024 -0.0353 -0.7880
    1SOL    MW4  904   4.425   0.072   0.435 -0.3538 -0.0941 -0.7650
    1SOL     OW  905   4.097   0.894   0.529 -0.1181 -0.0472  0.6780
    1SOL    HW2  906   4.022   0.948   0.505  0.4511  0.5855  0.2893
    1SOL    HW3  907   4.065   0.804   0.522 -0.6301  0.1965 -0.2047
    1SOL    MW4  908   4.083   0.890   0.525 -0.1106  0.0684  0.5102
    1SOL     OW  909   0.374   1.656   0.469 -0.3410 -0.0206  0.0350
    1SOL    HW2  910   0.393   1.565   0.445 -1.7019 -0.3047 -0.0337
    1SOL    HW3  911   0.280   1.665   0.452 -0.3587  1.1759  0.7706
    1SOL    MW4  912   0.364   1.645   0.463 -0.5229  0.0998  0.1231
    1SOL     OW  913   4.203   0.481   0.456 -0.0385 -0.1068 -0.0159
    1SOL    HW2  914   4.205   0.413   0.389  0.0695  0.9507 -1.1026
    1SOL    HW3  915   4.284   0.530   0.443 -0.8118  1.1407 -0.2151
    1SOL    MW4  916   4.214   0.479   0.446 -0.1264  0.1973 -0.1855
    1SOL     OW  917   4.417   1.151   0.447  0.1809 -0.4517  0.0036
    1SOL    HW2  918   4.329   1.185   0.464 -0.1536 -0.3977 -1.7063
    1SOL    HW3  919   4.408   1.056   0.453  0.0161 -0.4437 -0.1112
    1SOL    MW4  920   4.404   1.143   0.450  0.1149 -0.4436 -0.2372
    1SOL     OW  921   3.597   4.481   0.448 -0.1112  0.1291  0.2211
    1SOL    HW2  922   3.672   4.422   0.446  0.7847  1.2243  0.6978
    1SOL    HW3  923   3.635   4.569   0.452 -1.4119  0.6823  1.0539
    1SOL    MW4  924   3.612   4.485   0.448 -0.1645  0.3467  0.3939
    1SOL     OW  925   4.156   1.333   0.509  0.0010  0.0080 -0.5294
    1SOL    HW2  926   4.176   1.315   0.601 -0.5482  0.6990 -0.2696
    1SOL    HW3  927   4.148   1.429   0.505 -0.1413 -0.0321 -1.2622
    1SOL    MW4  928   4.158   1.344   0.521 -0.0901  0.0939 -0.5918
    1SOL     OW  929   0.025   1.413   0.480  0.5967 -0.2041  0.5143
    1SOL    HW2  930   0.073   1.371   0.552  4.1339  0.7959 -1.1451
    1SOL    HW3  931  -0.028   1.344   0.443  0.0828 -1.1788  2.9548
    1SOL    MW4  932   0.025   1.398   0.485  0.9956 -0.2007  0.6173
    1SOL     OW  933   4.013   2.272   0.346  0.5197 -0.1958 -0.0614
    1SOL    HW2  934   3.983   2.184   0.370  0.0063 -0.0413 -0.1312
    1SOL    HW3  935   4.028   2.316   0.430 -1.8421  0.5370 -0.0033
    1SOL    MW4  936   4.011   2.266   0.360  0.1402 -0.0787 -0.0629
    1SOL     OW  937   4.300   1.772   0.357  0.1444  0.0976 -0.4358
    1SOL    HW2  938   4.311   1.824   0.278  1.2905 -0.3766 -0.5913
    1SOL    HW3  939   4.381   1.722   0.365 -0.5535 -0.9441  0.2421
    1SOL    MW4  940   4.312   1.772   0.348  0.2036 -0.1025 -0.3669
    1SOL     OW  941   4.386   2.169   0.392  0.5780  0.0694 -0.1693
    1SOL    HW2  942   4.374   2.256   0.431 -0.3059 -0.1536  0.0567
    1SOL    HW3  943   4.314   2.117   0.426 -0.1243 -0.1827 -1.9780
    1SOL    MW4  944   4.375   2.174   0.402  0.3686  0.0067 -0.3780
    1SOL     OW  945   4.380   1.970   0.159  0.0544  0.5292 -0.0410
    1SOL    HW2  946   4.322   2.008   0.093 -3.6015 -0.6192  2.3014
    1SOL    HW3  947   4.397   2.041   0.220 -0.5817  0.3746  0.3259
    1SOL    MW4  948   4.374   1.984   0.158 -0.5121  0.3573  0.3165
    1SOL     OW  949   4.408   2.423   0.525 -0.1545 -0.3549  0.1455
    1SOL    HW2  950   4.469   2.472   0.471  0.9081 -1.2453  0.5154
    1SOL    HW3  951   4.445   2.427   0.614 -0.8002 -0.6189  0.4321
    1SOL    MW4  952   4.421   2.430   0.530 -0.0997 -0.5074  0.2322
    1SOL     OW  953   4.087   3.418   0.206 -0.6816  0.1627 -0.3658
    1SOL    HW2  954   4.126   3.497   0.169  1.1273 -0.7586 -0.4746
    1SOL    HW3  955   4.154   3.383   0.265 -2.1006 -0.4059  0.9731
    1SOL    MW4  956   4.101   3.424   0.209 -0.6304 -0.0339 -0.2035
    1SOL     OW  957   4.132   2.447   0.540 -0.0866  0.3371 -0.2033
    1SOL    HW2  958   4.101   2.443   0.630 -0.3708 -2.0605 -0.3904
    1SOL    HW3  959   4.224   2.420   0.545 -0.4366 -0.9965 -0.7735
    1SOL    MW4  960   4.140   2.443   0.552 -0.1712 -0.1552 -0.3033
    1SOL     OW  961   0.203   3.843   0.355  0.4406 -0.1683 -0.5583
    1SOL    HW2  962   0.162   3.909   0.411  0.1255  0.0694 -1.0621
    1SOL    HW3  963   0.295   3.870   0.350  0.2212  0.4901 -1.1239
    1SOL    MW4  964   0.210   3.855   0.362  0.3701 -0.0498 -0.6994
    1SOL     OW  965   4.198   3.650   0.086 -0.5556  0.3991  0.3599
    1SOL    HW2  966   4.255   3.694   0.149 -1.5093  1.5565  0.4373
    1SOL    HW3  967   4.230   3.679   0.001 -0.4302  0.2850  0.3667
    1SOL    MW4  968   4.210   3.660   0.083 -0.6647  0.5369  0.3710
    1SOL     OW  969   0.148   3.241   0.331  0.1125 -0.1394  0.0769
    1SOL    HW2  970   0.120   3.284   0.250  0.4690 -0.0649 -0.0057
    1SOL    HW3  971   0.239   3.268   0.342 -0.5105  1.4298  1.5291
    1SOL    MW4  972   0.156   3.250   0.322  0.0774  0.0772  0.2576
    1SOL     OW  973   3.740   3.526   0.466  0.0402  0.2466 -0.4694
    1SOL    HW2  974   3.657   3.571   0.446  0.7884  1.4466 -0.9615
    1SOL    HW3  975   3.748   3.530   0.561 -0.7690 -0.4301 -0.3674
    1SOL    MW4  976   3.730   3.532   0.476  0.0324  0.3154 -0.5209
    1SOL     OW  977   4.040   3.136   0.522 -0.7377  0.5696 -0.4239
    1SOL    HW2  978   4.020   3.167   0.611  0.3966  1.2805 -0.4003
    1SOL    HW3  979   3.986   3.191   0.465  0.3578  1.8220 -0.3023
    1SOL    MW4  980   4.030   3.148   0.526 -0.4435  0.8285 -0.4048
    1SOL     OW  981   0.048   4.041   0.488 -0.1429 -0.2396  0.4178
    1SOL    HW2  982   0.043   4.031   0.583 -0.3439  1.1531  0.5623
    1SOL    HW3  983  -0.043   4.031   0.458 -0.1982  0.1366  0.4589
    1SOL    MW4  984   0.035   4.039   0.496 -0.1767 -0.0057  0.4423
    1SOL     OW  985   4.047   3.884   0.498  0.0808  0.0502 -0.3252
    1SOL    HW2  986   4.024   3.798   0.461 -1.8526  0.1646  0.5681
    1SOL    HW3  987   3.994   3.946   0.449  2.1424  0.8657 -1.5843
    1SOL    MW4  988   4.037   3.881   0.487  0.0978  0.1731 -0.3735
    1SOL     OW  989   3.858   4.054   0.390  0.2187  0.2150  0.0785
    1SOL    HW2  990   3.767   4.027   0.405  0.3552 -0.8505 -0.9883
    1SOL    HW3  991   3.864   4.069   0.296  0.6559  2.1740  0.3973
    1SOL    MW4  992   3.847   4.052   0.380  0.2944  0.3328 -0.0202
    1SOL     OW  993   4.057   4.490   0.427  0.5398 -0.1091 -0.0286
    1SOL    HW2  994   4.131   4.431   0.440  0.3904 -0.5619 -1.1856
    1SOL    HW3  995   3.980   4.437   0.450  0.4381 -0.2223 -0.6312
    1SOL    MW4  996   4.056   4.475   0.432  0.5069 -0.1831 -0.2607
    1SOL     OW  997   0.167   0.035   0.817  0.5963 -0.2391 -0.4360
    1SOL    HW2  998   0.153  -0.059   0.803 -0.4312  0.0973 -1.8687
    1SOL    HW3  999   0.081   0.074   0.803  1.5081  1.1754 -2.3482
    1SOL    MW4 1000   0.154   0.028   0.813  0.5811 -0.0082 -0.8773
    1SOL     OW 1001   4.414   0.103   0.711 -0.0994  0.2101 -0.3036
    1SOL    HW2 1002   4.347   0.051   0.755  0.0987 -0.7323 -1.0872
    1SOL    HW3 1003   4.404   0.191   0.747 -1.1182 -0.1395  0.2943
    1SOL    MW4 1004   4.404   0.108   0.721 -0.2074  0.0397 -0.3281
    1SOL     OW 1005   4.458   0.353   0.839  0.4470 -0.0937  0.8192
    1SOL    HW2 1006   4.465   0.361   0.934 -0.0235  2.1364  0.6880
    1SOL    HW3 1007   4.530   0.404   0.805  0.6459 -0.9377 -0.0376
    1SOL    MW4 1008   4.468   0.360   0.847  0.4115  0.0892  0.6887
    1SOL     OW 1009   0.182   0.498   0.759 -0.4515  0.4338  0.2080
    1SOL    HW2 1010   0.265   0.465   0.793  0.3863  0.1231 -2.0315
    1SOL    HW3 1011   0.175   0.587   0.794  0.6788  0.3507  0.6730
    1SOL    MW4 1012   0.192   0.505   0.768 -0.1918  0.3818 -0.0262
    1SOL     OW 1013   0.190   0.750   0.826  0.0600  0.1314  0.3054
    1SOL    HW2 1014   0.199   0.768   0.920 -0.2914  1.6840  0.0655
    1SOL    HW3 1015   0.117   0.805   0.799  0.7941  0.4411 -1.0799
    1SOL    MW4 1016   0.181   0.760   0.835  0.1105  0.3771  0.0910
    1SOL     OW 1017   4.457   0.884   0.725  0.0577 -0.1091 -0.0736
    1SOL    HW2 1018   4.395   0.820   0.761  1.3265  0.2126  2.8694
    1SOL    HW3 1019   4.419   0.910   0.641 -1.7513 -2.8416 -0.1643
    1SOL    MW4 1020   4.444   0.879   0.719 -0.0143 -0.4271  0.3027
    1SOL     OW 1021   4.437   1.153   0.844  0.3754 -0.1683  0.7902
    1SOL    HW2 1022   4.449   1.143   0.938 -0.4441 -0.8624  0.8324
    1SOL    HW3 1023   4.457   1.066   0.808  1.4825  0.3044  0.2336
    1SOL    MW4 1024   4.441   1.140   0.851  0.4134 -0.1975  0.7222
    1SOL     OW 1025   0.173   1.276   0.706  0.0140  0.1857  0.5242
    1SOL    HW2 1026   0.089   1.249   0.743 -1.3422  0.7104 -2.0000
    1SOL    HW3 1027   0.195   1.205   0.645  0.9802  0.4729  0.5334
    1SOL    MW4 1028   0.164   1.263   0.702 -0.0374  0.2928  0.1924
    1SOL     OW 1029   0.228   1.538   0.845  0.0543  0.3735 -0.4146
    1SOL    HW2 1030   0.307   1.584   0.815  0.8070 -1.1249 -0.7458
    1SOL    HW3 1031   0.231   1.453   0.802 -0.5997 -0.5308  1.2613
    1SOL    MW4 1032   0.239   1.533   0.836  0.0673  0.0565 -0.2372
    1SOL     OW 1033   0.011   1.677   0.771  0.0876 -0.0667  0.2357
    1SOL    HW2 1034  -0.063   1.621   0.794  0.2524  0.2894  1.6588
    1SOL    HW3 1035   0.088   1.626   0.796  0.3302 -0.2659 -0.8677
    1SOL    MW4 1036   0.011   1.662   0.777  0.1413 -0.0459  0.2779
    1SOL     OW 1037   4.454   1.950   0.832 -0.2627  0.1858  0.2608
    1SOL    HW2 1038   4.531   1.986   0.788  0.2327  0.0532  1.0160
    1SOL    HW3 1039   4.461   1.855   0.820 -0.0410  0.1370  0.7550
    1SOL    MW4 1040   4.465   1.942   0.825 -0.1678  0.1619  0.4256
    1SOL     OW 1041   0.193   2.054   0.730 -0.0012 -0.3179  0.8583
    1SOL    HW2 1042   0.207   2.135   0.780  0.9714  0.8606 -1.2798
    1SOL    HW3 1043   0.185   2.082   0.639 -1.4121 -2.4758  0.2631
    1SOL    MW4 1044   0.194   2.068   0.725 -0.0590 -0.4468  0.4977
    1SOL     OW 1045   0.220   2.304   0.875  0.5766  0.1417  0.2419
    1SOL    HW2 1046   0.225   2.311   0.970  1.0093  0.5242  0.1919
    1SOL    HW3 1047   0.283   2.368   0.842 -0.1210  0.5459 -0.3192
    1SOL    MW4 1048   0.229   2.313   0.883  0.5416  0.2456  0.1613
    1SOL     OW 1049   4.486   2.450   0.803 -0.2006  0.2720 -0.1220
    1SOL    HW2 1050   4.412   2.395   0.831 -0.4816  1.5893  1.7789
    1SOL    HW3 1051   4.564   2.400   0.829 -0.3638 -1.1467 -2.1804
    1SOL    MW4 1052   4.486   2.436   0.810 -0.2594  0.2587 -0.1428
    1SOL     OW 1053   0.080   2.690   0.870 -0.6312  0.3073 -0.0203
    1SOL    HW2 1054   0.056   2.702   0.962 -1.3115  0.3133 -0.2015
    1SOL    HW3 1055   0.044   2.605   0.846  0.6647 -0.2827  0.0873
    1SOL    MW4 1056   0.072   2.680   0.879 -0.5500  0.2303 -0.0300
    1SOL     OW 1057   0.231   2.855   0.723 -0.0091 -0.3042 -0.0737
    1SOL    HW2 1058   0.187   2.797   0.786  0.0768 -1.6665 -1.2327
    1SOL    HW3 1059   0.176   2.851   0.644  0.8415 -0.0381 -0.6853
    1SOL    MW4 1060   0.218   2.846   0.721  0.1145 -0.4487 -0.3074
    1SOL     OW 1061   0.228   3.101   0.837  0.1186 -0.3777 -0.0888
    1SOL    HW2 1062   0.237   3.109   0.932  0.1204  1.1907 -0.2057
    1SOL    HW3 1063   0.222   3.007   0.821 -0.1888 -0.6335  1.4889
    1SOL    MW4 1064   0.229   3.090   0.848  0.0783 -0.2046  0.1040
    1SOL     OW 1065   4.476   3.196   0.720 -0.1385 -0.0956  0.1681
    1SOL    HW2 1066   4.559   3.166   0.757 -0.2119 -0.1882  0.2574
    1SOL    HW3 1067   4.484   3.180   0.626 -0.4580 -1.0637  0.2991
    1SOL    MW4 1068   4.488   3.190   0.712 -0.1904 -0.2356  0.1971
    1SOL     OW 1069   0.012   3.452   0.840 -0.0970 -0.1579 -0.5728
    1SOL    HW2 1070  -0.062   3.502   0.806  0.8055  1.2284 -0.5716
    1SOL    HW3 1071   0.004   3.366   0.800 -1.4493  0.1180 -0.9224
    1SOL    MW4 1072   0.001   3.447   0.830 -0.1563  0.0615 -0.6188
    1SOL     OW 1073   0.256   3.612   0.755  0.0490  0.0212 -0.1794
    1SOL    HW2 1074   0.181   3.568   0.794  0.0952  0.5242  0.4862
    1SOL    HW3 1075   0.236   3.617   0.662 -0.8557  0.3800  0.0277
    1SOL    MW4 1076   0.244   3.607   0.748 -0.0643  0.1352 -0.0642
    1SOL     OW 1077   0.227   3.881   0.843  0.1768  0.0079  0.2586
    1SOL    HW2 1078   0.246   3.878   0.937 -0.7867 -1.1592  0.4379
    1SOL    HW3 1079   0.227   3.789   0.816 -0.7762  0.2580 -0.6221
    1SOL    MW4 1080   0.229   3.869   0.852 -0.0760 -0.1128  0.1661
    1SOL     OW 1081   4.482   4.004   0.764  0.0842 -0.2798 -0.0913
    1SOL    HW2 1082   4.400   3.957   0.778 -0.1560  0.1372 -0.0744
    1SOL    HW3 1083   4.550   3.944   0.793 -0.1055 -1.2802 -1.6980
    1SOL    MW4 1084   4.480   3.990   0.770  0.0272 -0.3567 -0.3011
    1SOL     OW 1085   4.461   4.258   0.888 -0.1530  0.8660  0.2999
    1SOL    HW2 1086   4.468   4.251   0.983  0.6803 -0.4274  0.1597
    1SOL    HW3 1087   4.469   4.168   0.857 -3.3622  0.9105 -0.8329
    1SOL    MW4 1088   4.463   4.245   0.896 -0.4663  0.7010  0.1319
    1SOL     OW 1089   0.157   4.414   0.774 -0.3335 -0.1419 -0.4430
    1SOL    HW2 1090   0.091   4.362   0.819  0.0851 -1.5342 -1.4091
    1SOL    HW3 1091   0.150   4.388   0.682  1.5896 -0.3671 -0.5535
    1SOL    MW4 1092   0.147   4.404   0.768 -0.0246 -0.3557 -0.5850
    1SOL     OW 1093   0.675   4.617   0.830  0.0341 -0.2989  0.6770
    1SOL    HW2 1094   0.679   4.603   0.924 -0.1670  1.2611  0.9322
    1SOL    HW3 1095   0.593   4.665   0.816  1.3787  1.8677  0.0466
    1SOL    MW4 1096   0.665   4.622   0.840  0.1850  0.1931  0.6275
    1SOL     OW 1097   0.439   0.091   0.736 -0.3349  0.0749 -0.4623
    1SOL    HW2 1098   0.356   0.050   0.761  0.4358 -1.9894 -1.2128
    1SOL    HW3 1099   0.443   0.080   0.641  1.4727 -1.1571 -0.2673
    1SOL    MW4 1100   0.429   0.085   0.727  0.0052 -0.3600 -0.5356
    1SOL     OW 1101   0.410   0.365   0.832  0.3492 -0.0787  0.1096
    1SOL    HW2 1102   0.489   0.415   0.812  1.1269 -0.9824  0.8357
    1SOL    HW3 1103   0.430   0.276   0.802 -0.6808 -0.1486 -0.3732
    1SOL    MW4 1104   0.423   0.360   0.826  0.3159 -0.2071  0.1417
    1SOL     OW 1105   0.652   0.484   0.760  0.1329 -0.1100  0.4200
    1SOL    HW2 1106   0.736   0.440   0.773 -0.3342 -1.1214  0.0615
    1SOL    HW3 1107   0.649   0.504   0.667 -1.0318 -2.1785 -0.0087
    1SOL    MW4 1108   0.663   0.481   0.750 -0.0824 -0.5164  0.3162
    1SOL     OW 1109   0.626   0.729   0.900  0.1269  0.0817  0.0805
    1SOL    HW2 1110   0.557   0.774   0.851  0.7623  0.1605 -0.7570
    1SOL    HW3 1111   0.633   0.643   0.858  0.2008 -0.1038  0.4771
    1SOL    MW4 1112   0.618   0.724   0.888  0.2206  0.0676  0.0224
    1SOL     OW 1113   0.442   0.910   0.763  0.0336  0.2918  0.4156
    1SOL    HW2 1114   0.433   0.977   0.831 -2.7645 -0.6388  1.0285
    1SOL    HW3 1115   0.362   0.858   0.770  1.4029 -2.1128 -1.1345
    1SOL    MW4 1116   0.430   0.912   0.773 -0.1549 -0.1482  0.2919
    1SOL     OW 1117   0.398   1.170   0.889 -0.2640 -0.0991 -0.3310
    1SOL    HW2 1118   0.475   1.212   0.850  0.2172 -0.8477 -0.1982
    1SOL    HW3 1119   0.323   1.215   0.848  0.2366  0.2181 -0.9176
    1SOL    MW4 1120   0.398   1.182   0.878 -0.1345 -0.1559 -0.3909
    1SOL     OW 1121   0.643   1.288   0.764  0.4648 -0.0954 -0.2723
    1SOL    HW2 1122   0.676   1.377   0.772 -0.9007  0.3660  0.2138
    1SOL    HW3 1123   0.662   1.263   0.673 -1.1337  1.4768 -1.0530
    1SOL    MW4 1124   0.650   1.296   0.753  0.0737  0.1730 -0.3112
    1SOL     OW 1125   0.709   1.556   0.851  0.3353  0.6812 -0.4380
    1SOL    HW2 1126   0.711   1.544   0.946  0.5154  1.5618 -0.3255
    1SOL    HW3 1127   0.623   1.594   0.834 -0.0342 -0.2869 -0.7285
    1SOL    MW4 1128   0.698   1.560   0.862  0.3103  0.6697 -0.4614
    1SOL     OW 1129   0.453   1.692   0.751 -0.4119 -0.4265 -0.0451
    1SOL    HW2 1130   0.446   1.782   0.781 -1.6037 -0.8567  1.0146
    1SOL    HW3 1131   0.430   1.695   0.658 -0.6661  0.3268  0.0431
    1SOL    MW4 1132   0.449   1.704   0.743 -0.6027 -0.3837  0.1063
    1SOL     OW 1133   0.429   1.959   0.830 -0.5419  0.2901 -0.0563
    1SOL    HW2 1134   0.430   1.969   0.925 -1.6945 -1.4368  0.1565
    1SOL    HW3 1135   0.342   1.990   0.804 -0.7857 -0.6524 -0.3778
    1SOL    MW4 1136   0.418   1.965   0.839 -0.7262 -0.0621 -0.0707
    1SOL     OW 1137   0.670   2.079   0.771 -0.0573 -0.0962 -0.2858
    1SOL    HW2 1138   0.585   2.037   0.777 -0.9898  1.7061 -0.4507
    1SOL    HW3 1139   0.684   2.092   0.677  0.2605 -0.1247 -0.2444
    1SOL    MW4 1140   0.661   2.075   0.759 -0.1383  0.1376 -0.3021
    1SOL     OW 1141   0.682   2.355   0.866 -0.7838 -0.2018 -0.0455
    1SOL    HW2 1142   0.652   2.366   0.956 -0.9371  1.9735 -0.3452
    1SOL    HW3 1143   0.670   2.261   0.848 -2.1930 -0.3693  1.6590
    1SOL    MW4 1144   0.677   2.344   0.876 -0.9900  0.0629  0.1398
    1SOL     OW 1145   0.442   2.475   0.767  0.2641 -0.1454  0.5889
    1SOL    HW2 1146   0.507   2.414   0.803  0.9599  0.0814 -0.2700
    1SOL    HW3 1147   0.413   2.434   0.685 -0.5521 -0.1609  0.8819
    1SOL    MW4 1148   0.447   2.461   0.761  0.2483 -0.1175  0.5143
    1SOL     OW 1149   0.480   2.744   0.712 -0.1513 -0.2751 -0.2796
    1SOL    HW2 1150   0.468   2.651   0.731 -0.0742 -0.6259 -1.8933
    1SOL    HW3 1151   0.391   2.778   0.702 -0.1980 -0.0603  0.7513
    1SOL    MW4 1152   0.467   2.736   0.714 -0.1472 -0.2930 -0.3564
    1SOL     OW 1153   0.746   2.870   0.710  0.0565 -0.2017  0.4112
    1SOL    HW2 1154   0.802   2.820   0.770  0.0529 -0.2477  0.3758
    1SOL    HW3 1155   0.658   2.838   0.726  0.0300 -0.0751  0.5211
    1SOL    MW4 1156   0.742   2.860   0.720  0.0526 -0.1912  0.4210
    1SOL     OW 1157   0.692   3.135   0.782  0.3515  0.0079  0.1498
    1SOL    HW2 1158   0.604   3.165   0.759  0.4763 -0.1846 -0.5654
    1SOL    HW3 1159   0.694   3.044   0.754  0.6163 -0.1317  0.6184
    1SOL    MW4 1160   0.680   3.127   0.775  0.4030 -0.0362  0.1172
    1SOL     OW 1161   0.437   3.206   0.694 -0.9889 -0.0099  0.4422
    1SOL    HW2 1162   0.447   3.280   0.753 -0.9656 -0.6653  1.2655
    1SOL    HW3 1163   0.358   3.161   0.723 -1.5962  0.2893 -0.7140
    1SOL    MW4 1164   0.428   3.210   0.705 -1.0659 -0.0572  0.3983
    1SOL     OW 1165   0.478   3.453   0.810 -0.3614 -0.0916 -0.3477
    1SOL    HW2 1166   0.465   3.447   0.904  1.6526  1.7286  0.0610
    1SOL    HW3 1167   0.410   3.512   0.779  0.1749  0.8386  0.2475
    1SOL    MW4 1168   0.467   3.460   0.818 -0.0249  0.2711 -0.2152
    1SOL     OW 1169   0.711   3.637   0.754  0.1827 -0.2967 -0.9664
    1SOL    HW2 1170   0.640   3.590   0.798 -0.4791  0.1389 -1.5575
    1SOL    HW3 1171   0.708   3.725   0.791  0.7104 -0.4080 -0.6607
    1SOL    MW4 1172   0.701   3.642   0.765  0.1650 -0.2542 -1.0040
    1SOL     OW 1173   0.656   3.899   0.839  0.3420 -0.2956 -0.3044
    1SOL    HW2 1174   0.745   3.928   0.817 -0.2859  1.2947 -0.7912
    1SOL    HW3 1175   0.600   3.943   0.776 -0.8196 -1.1941  0.0892
    1SOL    MW4 1176   0.661   3.909   0.828  0.1059 -0.2041 -0.3167
    1SOL     OW 1177   0.451   3.985   0.669  0.1614 -0.3723 -0.5687
    1SOL    HW2 1178   0.433   4.074   0.701  0.5420 -0.4556 -0.1186
    1SOL    HW3 1179   0.393   3.930   0.721  0.5856 -0.4808 -0.2102
    1SOL    MW4 1180   0.441   3.990   0.680  0.2676 -0.3979 -0.4620
    1SOL     OW 1181   0.419   4.246   0.768 -0.0042  0.4240 -0.1600
    1SOL    HW2 1182   0.423   4.242   0.864 -0.6631 -0.1314 -0.1481
    1SOL    HW3 1183   0.335   4.288   0.750 -0.5365 -0.7606 -0.5032
    1SOL    MW4 1184   0.408   4.251   0.778 -0.1614  0.1950 -0.2037
    1SOL     OW 1185   0.688   4.364   0.741 -0.0265  0.0995 -0.1657
    1SOL    HW2 1186   0.599   4.333   0.760  0.4249 -0.2916  1.4318
    1SOL    HW3 1187   0.687   4.457   0.765 -0.1552  0.2404 -0.7056
    1SOL    MW4 1188   0.676   4.372   0.747  0.0161  0.0658 -0.0262
    1SOL     OW 1189   1.114   4.647   0.891  0.1931 -0.0723  0.5410
    1SOL    HW2 1190   1.186   4.678   0.836 -1.9654 -0.3386 -2.5537
    1SOL    HW3 1191   1.039   4.700   0.865 -1.1811 -1.0163  2.4238
    1SOL    MW4 1192   1.113   4.658   0.880 -0.2729 -0.2322  0.3810
    1SOL     OW 1193   0.900   0.106   0.771  0.2945  0.3967 -0.3034
    1SOL    HW2 1194   0.883   0.198   0.791 -0.1370  0.3904 -0.6434
    1SOL    HW3 1195   0.815   0.063   0.781  0.5552 -0.0174  0.1477
    1SOL    MW4 1196   0.886   0.112   0.775  0.2720  0.3413 -0.2887
    1SOL     OW 1197   0.891   0.375   0.847 -0.0818  0.7638  0.0072
    1SOL    HW2 1198   0.891   0.383   0.942 -1.8100 -0.9579  0.2071
    1SOL    HW3 1199   0.976   0.409   0.819  1.4973 -1.0670  2.3888
    1SOL    MW4 1200   0.902   0.380   0.856 -0.1014  0.2951  0.3477
    1SOL     OW 1201   1.144   0.503   0.754  0.1785  0.2835  0.3045
    1SOL    HW2 1202   1.230   0.468   0.775 -0.2797 -0.0646  1.6587
    1SOL    HW3 1203   1.144   0.514   0.659  1.3815 -0.5901  0.2080
    1SOL    MW4 1204   1.155   0.500   0.744  0.2769  0.1223  0.4705
    1SOL     OW 1205   1.075   0.768   0.876 -0.2424  0.5059  0.2441
    1SOL    HW2 1206   1.083   0.748   0.970 -0.3382  0.9837  0.3562
    1SOL    HW3 1207   1.064   0.682   0.834 -0.8729  0.3409  0.7394
    1SOL    MW4 1208   1.075   0.754   0.883 -0.3382  0.5472  0.3242
    1SOL     OW 1209   0.843   0.893   0.786  0.1494  0.2950 -0.1672
    1SOL    HW2 1210   0.919   0.858   0.832 -0.0803  0.7501  0.5635
    1SOL    HW3 1211   0.769   0.839   0.817  0.1936 -0.2458 -0.9884
    1SOL    MW4 1212   0.843   0.881   0.796  0.1249  0.2837 -0.1792
    1SOL     OW 1213   0.885   1.159   0.843  0.0778 -0.2158  0.1879
    1SOL    HW2 1214   0.859   1.073   0.808 -1.4483  0.4586 -0.3506
    1SOL    HW3 1215   0.813   1.217   0.819  0.7152  1.0395  1.3120
    1SOL    MW4 1216   0.872   1.155   0.835 -0.0395  0.0387  0.2651
    1SOL     OW 1217   1.117   1.285   0.787  0.0014  0.1835 -0.0425
    1SOL    HW2 1218   1.032   1.245   0.804  0.2831 -0.1653  0.5301
    1SOL    HW3 1219   1.125   1.283   0.691 -1.2284  1.4592 -0.1764
    1SOL    MW4 1220   1.107   1.279   0.776 -0.1237  0.3058  0.0154
    1SOL     OW 1221   1.109   1.553   0.869 -0.0648 -0.2331 -0.1233
    1SOL    HW2 1222   1.035   1.602   0.835  0.6547  0.5054 -0.6681
    1SOL    HW3 1223   1.104   1.467   0.826 -0.6827 -0.2357 -0.0426
    1SOL    MW4 1224   1.099   1.548   0.859 -0.0514 -0.1360 -0.1845
    1SOL     OW 1225   0.916   1.688   0.719 -0.2101  0.0701  0.0601
    1SOL    HW2 1226   0.897   1.781   0.737  0.8852  0.0919  1.1787
    1SOL    HW3 1227   0.840   1.641   0.753 -0.6662  0.5529 -0.2986
    1SOL    MW4 1228   0.904   1.694   0.726 -0.1258  0.1366  0.1603
    1SOL     OW 1229   0.911   1.946   0.853 -0.6867  0.2748 -0.4203
    1SOL    HW2 1230   0.913   1.950   0.948 -0.4576 -0.6012 -0.3881
    1SOL    HW3 1231   0.825   1.980   0.829 -1.8198 -2.0361  0.2463
    1SOL    MW4 1232   0.900   1.951   0.862 -0.8060 -0.1457 -0.3281
    1SOL     OW 1233   1.154   2.039   0.755 -0.4550 -0.3646 -0.5353
    1SOL    HW2 1234   1.176   2.128   0.782 -0.4508 -0.4200 -0.3559
    1SOL    HW3 1235   1.071   2.020   0.799 -0.6068 -0.3400 -0.8117
    1SOL    MW4 1236   1.146   2.048   0.764 -0.4743 -0.3688 -0.5481
    1SOL     OW 1237   1.153   2.305   0.817  0.1054 -0.2656 -0.2044
    1SOL    HW2 1238   1.161   2.328   0.910 -0.4572  0.4023 -0.3176
    1SOL    HW3 1239   1.216   2.361   0.773 -0.2084  0.0009 -0.3157
    1SOL    MW4 1240   1.162   2.315   0.824 -0.0100 -0.1423 -0.2341
    1SOL     OW 1241   0.914   2.452   0.751  0.3804 -0.0919  0.1058
    1SOL    HW2 1242   0.998   2.416   0.779  0.8633  1.8604  1.2276
    1SOL    HW3 1243   0.850   2.413   0.812  0.5922 -0.7361 -0.0744
    1SOL    MW4 1244   0.917   2.442   0.763  0.4721  0.0808  0.2301
    1SOL     OW 1245   0.887   2.702   0.873  0.0418 -0.1785 -0.0303
    1SOL    HW2 1246   0.892   2.695   0.968  0.4809 -0.3651 -0.0659
    1SOL    HW3 1247   0.880   2.611   0.843 -0.6683 -0.0907 -0.1461
    1SOL    MW4 1248   0.887   2.689   0.881  0.0061 -0.1915 -0.0504
    1SOL     OW 1249   1.133   2.824   0.758 -0.0578  0.1670  0.0292
    1SOL    HW2 1250   1.047   2.814   0.798 -0.3117  1.3526 -0.2001
    1SOL    HW3 1251   1.117   2.815   0.664  0.3403 -1.3354  0.0917
    1SOL    MW4 1252   1.120   2.822   0.751 -0.0387  0.1252  0.0072
    1SOL     OW 1253   1.171   3.093   0.825 -0.0915 -0.1126  0.2005
    1SOL    HW2 1254   1.095   3.140   0.792  1.4854  0.1797 -3.1740
    1SOL    HW3 1255   1.162   3.005   0.790  0.3926 -0.4969  1.0205
    1SOL    MW4 1256   1.160   3.088   0.816  0.1804 -0.1249 -0.1365
    1SOL     OW 1257   0.943   3.238   0.751 -0.4154 -0.4056  0.0501
    1SOL    HW2 1258   0.950   3.323   0.795 -0.2826  0.3399 -1.3821
    1SOL    HW3 1259   0.862   3.200   0.785 -0.6173  0.4102  0.4980
    1SOL    MW4 1260   0.933   3.244   0.761 -0.4246 -0.1996 -0.0797
    1SOL     OW 1261   0.951   3.503   0.852 -0.0753  0.1269 -0.2158
    1SOL    HW2 1262   1.022   3.553   0.811 -0.5933  1.6981  0.7488
    1SOL    HW3 1263   0.871   3.543   0.818 -0.5044  0.5366  1.2248
    1SOL    MW4 1264   0.950   3.515   0.842 -0.2002  0.3884  0.1016
    1SOL     OW 1265   1.137   3.635   0.697 -0.1575 -0.5125 -0.1841
    1SOL    HW2 1266   1.210   3.578   0.722 -1.0052 -2.1155 -1.2948
    1SOL    HW3 1267   1.132   3.627   0.602 -0.3321  1.3952 -0.3465
    1SOL    MW4 1268   1.146   3.626   0.688 -0.2924 -0.4723 -0.3521
    1SOL     OW 1269   1.149   3.871   0.827 -0.2474  0.3685  0.2066
    1SOL    HW2 1270   1.137   3.856   0.921  0.7895 -1.5213  0.0572
    1SOL    HW3 1271   1.158   3.783   0.789  1.7060  1.1734 -1.3114
    1SOL    MW4 1272   1.149   3.857   0.834  0.1472  0.2253 -0.0134
    1SOL     OW 1273   0.913   3.975   0.728 -0.1018 -0.2088  0.2865
    1SOL    HW2 1274   0.925   4.066   0.754  1.0223  0.2388 -1.7083
    1SOL    HW3 1275   0.994   3.932   0.755  0.1486 -0.2123 -0.4702
    1SOL    MW4 1276   0.925   3.981   0.735  0.0795 -0.1502 -0.0765
    1SOL     OW 1277   0.908   4.249   0.835  0.2952 -0.2687 -0.0267
    1SOL    HW2 1278   0.967   4.317   0.802  0.2197 -0.2625 -0.1514
    1SOL    HW3 1279   0.821   4.281   0.812  0.3825 -1.5938 -2.3632
    1SOL    MW4 1280   0.904   4.263   0.827  0.2968 -0.4420 -0.3514
    1SOL     OW 1281   1.084   4.432   0.714  0.6036  0.2685  0.2050
    1SOL    HW2 1282   1.152   4.370   0.742 -0.7066 -0.6194  1.5212
    1SOL    HW3 1283   1.104   4.512   0.763  1.2154  0.3007 -0.0883
    1SOL    MW4 1284   1.096   4.434   0.724  0.5114  0.1554  0.3398
    1SOL     OW 1285   1.564   0.031   0.783  0.0584  0.2012  0.4522
    1SOL    HW2 1286   1.601   0.046   0.870  0.5138  1.5221  0.0461
    1SOL    HW3 1287   1.474   0.064   0.789  0.0856  0.2800  0.4328
    1SOL    MW4 1288   1.557   0.038   0.796  0.1221  0.3858  0.3961
    1SOL     OW 1289   1.297   0.120   0.755 -0.5587 -0.0415  0.4384
    1SOL    HW2 1290   1.308   0.203   0.801 -1.3989 -0.5458  1.5543
    1SOL    HW3 1291   1.309   0.142   0.662  0.9864  0.9989  0.8735
    1SOL    MW4 1292   1.300   0.134   0.749 -0.4658  0.0293  0.6431
    1SOL     OW 1293   1.374   0.391   0.844 -0.1521  0.4025 -0.1620
    1SOL    HW2 1294   1.354   0.409   0.936 -1.0179  0.5966 -0.3819
    1SOL    HW3 1295   1.466   0.412   0.835 -0.0180  0.2225  0.7042
    1SOL    MW4 1296   1.383   0.396   0.855 -0.2488  0.4044 -0.0768
    1SOL     OW 1297   1.653   0.443   0.767  0.2163 -0.1658  0.0632
    1SOL    HW2 1298   1.640   0.532   0.801  0.5523  0.0466 -0.3575
    1SOL    HW3 1299   1.734   0.413   0.809 -0.3227 -0.5722  0.8147
    1SOL    MW4 1300   1.662   0.451   0.777  0.1895 -0.1914  0.1069
    1SOL     OW 1301   1.605   0.698   0.874 -0.3577 -0.4254 -0.1275
    1SOL    HW2 1302   1.675   0.757   0.845 -0.1653  0.4604  2.0473
    1SOL    HW3 1303   1.525   0.749   0.863 -0.3396 -0.2904  0.3609
    1SOL    MW4 1304   1.604   0.713   0.868 -0.3300 -0.2907  0.2239
    1SOL     OW 1305   1.375   0.832   0.800  0.2488 -0.1260 -0.3970
    1SOL    HW2 1306   1.363   0.926   0.815 -0.0483 -0.0815 -0.8895
    1SOL    HW3 1307   1.290   0.794   0.821  0.5085 -0.3484  0.2694
    1SOL    MW4 1308   1.362   0.839   0.805  0.2439 -0.1494 -0.3741
    1SOL     OW 1309   1.343   1.125   0.857 -0.6270 -0.2567  0.7062
    1SOL    HW2 1310   1.415   1.161   0.805 -1.6023 -0.6912 -0.9819
    1SOL    HW3 1311   1.271   1.187   0.845 -1.3745 -1.2122  0.1920
    1SOL    MW4 1312   1.343   1.138   0.849 -0.8543 -0.4401  0.4156
    1SOL     OW 1313   1.574   1.234   0.729  0.2830 -0.1333 -0.4524
    1SOL    HW2 1314   1.560   1.328   0.725  1.3218  0.0999  1.1165
    1SOL    HW3 1315   1.575   1.206   0.638 -0.0954  1.3587 -0.9219
    1SOL    MW4 1316   1.572   1.242   0.717  0.3701  0.0943 -0.3074
    1SOL     OW 1317   1.709   1.667   0.892  0.1303  0.2162  0.0631
    1SOL    HW2 1318   1.666   1.641   0.974  0.5503 -0.4666  0.0714
    1SOL    HW3 1319   1.796   1.625   0.896  0.1836  0.2436 -0.6914
    1SOL    MW4 1320   1.715   1.658   0.904  0.1928  0.1297 -0.0353
    1SOL     OW 1321   1.308   1.668   0.717 -0.8151  0.1099 -0.2095
    1SOL    HW2 1322   1.329   1.745   0.770  0.5637 -0.7252  0.4836
    1SOL    HW3 1323   1.246   1.619   0.769 -2.0138  0.9415 -0.8300
    1SOL    MW4 1324   1.303   1.672   0.730 -0.7914  0.1096 -0.1999
    1SOL     OW 1325   1.375   1.896   0.850 -0.3002  0.2838  0.0310
    1SOL    HW2 1326   1.366   1.896   0.945  0.1591 -0.5078  0.0810
    1SOL    HW3 1327   1.299   1.944   0.818 -0.6063  0.2988  0.7865
    1SOL    MW4 1328   1.364   1.902   0.858 -0.2800  0.1812  0.1372
    1SOL     OW 1329   1.578   2.056   0.760  0.1214  0.1949 -0.0257
    1SOL    HW2 1330   1.503   2.007   0.795 -0.0331 -0.5451 -1.3457
    1SOL    HW3 1331   1.567   2.051   0.665  3.3357 -2.3550 -0.3486
    1SOL    MW4 1332   1.567   2.049   0.752  0.5250 -0.2394 -0.2424
    1SOL     OW 1333   1.536   2.313   0.864 -0.0376 -0.3393 -0.1829
    1SOL    HW2 1334   1.476   2.355   0.801  0.9678  0.3801 -0.6761
    1SOL    HW3 1335   1.547   2.224   0.830  1.0381  0.2529 -1.4208
    1SOL    MW4 1336   1.529   2.307   0.851  0.2371 -0.1667 -0.4113
    1SOL     OW 1337   1.349   2.458   0.711  0.3010 -0.2033  0.2730
    1SOL    HW2 1338   1.367   2.540   0.758  0.5261 -0.9823  1.5951
    1SOL    HW3 1339   1.385   2.473   0.624 -1.4817  1.8344 -0.1499
    1SOL    MW4 1340   1.356   2.471   0.706  0.0956 -0.0374  0.3915
    1SOL     OW 1341   1.399   2.703   0.822  0.4241 -0.3364 -0.4196
    1SOL    HW2 1342   1.402   2.712   0.917  1.0268  2.4481 -0.6377
    1SOL    HW3 1343   1.310   2.729   0.798  0.3579 -0.7618 -0.6442
    1SOL    MW4 1344   1.388   2.708   0.831  0.4948 -0.0255 -0.4781
    1SOL     OW 1345   1.637   2.811   0.758  0.3688  0.3463  0.1868
    1SOL    HW2 1346   1.623   2.905   0.773 -2.4671  0.0868 -0.6738
    1SOL    HW3 1347   1.557   2.769   0.789  2.0249 -1.9247  1.5387
    1SOL    MW4 1348   1.625   2.818   0.764  0.2130  0.0124  0.2517
    1SOL     OW 1349   1.602   3.077   0.829  0.2617  0.3577  0.5639
    1SOL    HW2 1350   1.605   3.082   0.925 -1.2785  0.7451  0.6042
    1SOL    HW3 1351   1.534   3.141   0.804 -0.4053 -0.8230 -0.6909
    1SOL    MW4 1352   1.593   3.086   0.839 -0.0294  0.2527  0.4036
    1SOL     OW 1353   1.402   3.254   0.738 -0.4053  0.4554 -0.8209
    1SOL    HW2 1354   1.327   3.195   0.743  0.4292 -0.4532  0.9950
    1SOL    HW3 1355   1.418   3.264   0.644 -2.2353 -0.0453 -1.2014
    1SOL    MW4 1356   1.394   3.248   0.726 -0.5368  0.2697 -0.6315
    1SOL     OW 1357   1.336   3.492   0.834 -0.0451  0.0312  0.1135
    1SOL    HW2 1358   1.412   3.548   0.818 -0.3977  0.1366 -1.2597
    1SOL    HW3 1359   1.368   3.403   0.821  0.1069  0.0037  0.6490
    1SOL    MW4 1360   1.350   3.488   0.830 -0.0715  0.0415  0.0030
    1SOL     OW 1361   1.541   3.665   0.771  0.1511  0.0147  0.0731
    1SOL    HW2 1362   1.611   3.609   0.804 -0.7401 -0.2891  1.4786
    1SOL    HW3 1363   1.532   3.640   0.679 -0.1987 -2.1561  0.6577
    1SOL    MW4 1364   1.549   3.654   0.763 -0.0126 -0.3119  0.3356
    1SOL     OW 1365   1.531   3.918   0.872  0.1396  0.0372 -0.1243
    1SOL    HW2 1366   1.447   3.942   0.833  0.5205  3.1285  0.8010
    1SOL    HW3 1367   1.554   3.834   0.832 -2.2332  0.3197 -2.1452
    1SOL    MW4 1368   1.523   3.910   0.862 -0.1231  0.4823 -0.2688
    1SOL     OW 1369   1.332   4.059   0.727  0.0506  0.3345 -0.4094
    1SOL    HW2 1370   1.263   3.996   0.745  0.4774 -0.0378 -0.0473
    1SOL    HW3 1371   1.348   4.052   0.633  1.2624 -1.3359 -0.1036
    1SOL    MW4 1372   1.325   4.050   0.717  0.2668  0.0648 -0.3214
    1SOL     OW 1373   1.296   4.296   0.822  0.2779 -0.1057 -0.2471
    1SOL    HW2 1374   1.375   4.341   0.793  0.4424 -1.2372 -1.6369
    1SOL    HW3 1375   1.301   4.210   0.780 -1.2615 -0.5087  0.3594
    1SOL    MW4 1376   1.307   4.290   0.813  0.0966 -0.3080 -0.3504
    1SOL     OW 1377   1.528   4.429   0.755 -0.1270 -0.1886 -0.0354
    1SOL    HW2 1378   1.607   4.383   0.783  0.0155  0.3692  0.4931
    1SOL    HW3 1379   1.549   4.522   0.768 -0.2566  0.0453 -1.4852
    1SOL    MW4 1380   1.541   4.435   0.761 -0.1254 -0.0844 -0.1569
    1SOL     OW 1381   1.980   0.094   0.887  0.3265  0.3636 -0.2442
    1SOL    HW2 1382   2.070   0.097   0.855  0.4534 -2.5361 -0.3010
    1SOL    HW3 1383   1.927   0.076   0.809 -0.2635  1.5240 -0.1243
    1SOL    MW4 1384   1.985   0.092   0.873  0.2655  0.1342 -0.2359
    1SOL     OW 1385   1.804   0.130   0.667 -0.3648  0.7675 -0.3602
    1SOL    HW2 1386   1.839   0.050   0.627  1.2697  0.4461  1.6235
    1SOL    HW3 1387   1.710   0.113   0.677 -0.0688 -0.8109 -0.1552
    1SOL    MW4 1388   1.796   0.117   0.663 -0.1100  0.5169 -0.0714
    1SOL     OW 1389   1.877   0.363   0.904  0.2882  0.2054 -0.3177
    1SOL    HW2 1390   1.912   0.275   0.915 -0.8979 -0.1250  0.8575
    1SOL    HW3 1391   1.936   0.404   0.841  0.1730 -1.8155 -1.7995
    1SOL    MW4 1392   1.890   0.357   0.897  0.1166 -0.1048 -0.3582
    1SOL     OW 1393   2.030   0.498   0.697  0.3338  0.3354  0.1635
    1SOL    HW2 1394   2.025   0.572   0.636 -0.6721 -1.1923 -1.6840
    1SOL    HW3 1395   2.123   0.490   0.718  0.4864  1.9339  0.1777
    1SOL    MW4 1396   2.041   0.507   0.692  0.2215  0.3448 -0.0784
    1SOL     OW 1397   2.013   0.728   0.901  0.4495 -0.0748  0.7142
    1SOL    HW2 1398   2.076   0.793   0.869  0.1748  0.4108  1.1638
    1SOL    HW3 1399   2.027   0.652   0.844 -0.2011  0.8608 -0.7311
    1SOL    MW4 1400   2.023   0.726   0.889  0.3273  0.1127  0.5829
    1SOL     OW 1401   1.801   0.869   0.782 -0.2271 -0.4338  0.5240
    1SOL    HW2 1402   1.778   0.949   0.829  2.5573  0.9483 -0.3642
    1SOL    HW3 1403   1.875   0.833   0.830  0.0198 -1.2185 -0.4235
    1SOL    MW4 1404   1.808   0.874   0.794  0.1729 -0.3549  0.2818
    1SOL     OW 1405   1.765   1.114   0.881  0.5799 -0.4138  0.0084
    1SOL    HW2 1406   1.840   1.164   0.846 -0.0921  0.2380 -0.5185
    1SOL    HW3 1407   1.688   1.161   0.848 -0.0607 -1.1307  0.4844
    1SOL    MW4 1408   1.765   1.127   0.872  0.4069 -0.4225  0.0017
    1SOL     OW 1409   1.976   1.282   0.765  0.6892 -0.0884 -0.0971
    1SOL    HW2 1410   2.065   1.269   0.798  0.9476  0.1376 -0.6905
    1SOL    HW3 1411   1.988   1.307   0.673  0.0270  0.3140 -0.0768
    1SOL    MW4 1412   1.989   1.283   0.757  0.6360 -0.0056 -0.1727
    1SOL     OW 1413   1.932   1.520   0.889 -0.2420  0.0411 -0.2947
    1SOL    HW2 1414   2.023   1.547   0.873 -0.0291 -0.8790 -0.6732
    1SOL    HW3 1415   1.926   1.433   0.849 -1.2118 -0.0185 -0.0177
    1SOL    MW4 1416   1.943   1.512   0.881 -0.3419 -0.0882 -0.3082
    1SOL     OW 1417   1.898   1.740   0.579  0.1208  0.7539 -0.4728
    1SOL    HW2 1418   1.846   1.773   0.652 -0.2214 -0.1053 -0.3226
    1SOL    HW3 1419   1.844   1.671   0.541  0.7698  0.4607 -0.8654
    1SOL    MW4 1420   1.884   1.736   0.584  0.1612  0.6020 -0.5047
    1SOL     OW 1421   1.798   1.924   0.854  0.9522  0.0041 -0.5018
    1SOL    HW2 1422   1.763   1.836   0.866  0.3377  0.3962  0.6065
    1SOL    HW3 1423   1.723   1.976   0.824  1.3007  0.1706 -1.1052
    1SOL    MW4 1424   1.783   1.919   0.851  0.9172  0.0777 -0.4353
    1SOL     OW 1425   2.018   2.063   0.776  0.0581  0.1779  0.1971
    1SOL    HW2 1426   2.021   2.145   0.825  0.0648 -0.0771  0.6283
    1SOL    HW3 1427   1.935   2.023   0.801 -0.6897  0.7839 -1.2135
    1SOL    MW4 1428   2.007   2.068   0.786 -0.0396  0.2241  0.0679
    1SOL     OW 1429   2.040   2.309   0.900 -0.4244  0.1943 -0.1578
    1SOL    HW2 1430   2.055   2.332   0.991 -0.7735 -1.4829  0.3507
    1SOL    HW3 1431   1.966   2.363   0.873 -0.7130  0.2522  0.7378
    1SOL    MW4 1432   2.032   2.319   0.908 -0.5088 -0.0191  0.0275
    1SOL     OW 1433   1.785   2.404   0.812 -0.5590  0.1745  0.0535
    1SOL    HW2 1434   1.703   2.356   0.824 -0.3218 -0.1623  0.3298
    1SOL    HW3 1435   1.776   2.444   0.725 -0.1175 -1.6657 -0.8713
    1SOL    MW4 1436   1.773   2.403   0.802 -0.4693 -0.1125 -0.0321
    1SOL     OW 1437   1.808   2.679   0.913  0.1120  0.0083 -0.0415
    1SOL    HW2 1438   1.804   2.594   0.869  0.0075 -0.0277  0.0372
    1SOL    HW3 1439   1.741   2.731   0.869  0.1201  0.0241 -0.0351
    1SOL    MW4 1440   1.798   2.674   0.901  0.0991  0.0057 -0.0302
    1SOL     OW 1441   2.017   2.853   0.808  0.1261 -0.4991 -0.3388
    1SOL    HW2 1442   2.097   2.802   0.820  0.3855  0.2434  1.2772
    1SOL    HW3 1443   1.951   2.807   0.860  0.1164  0.2154  0.3003
    1SOL    MW4 1444   2.019   2.840   0.817  0.1593 -0.3066 -0.0412
    1SOL     OW 1445   2.036   3.131   0.853  0.4139  0.1773 -0.2653
    1SOL    HW2 1446   1.959   3.180   0.824 -0.4554  0.1287  1.8601
    1SOL    HW3 1447   2.025   3.044   0.814 -1.0930 -0.1104  0.7792
    1SOL    MW4 1448   2.025   3.126   0.844  0.1006  0.1330  0.1529
    1SOL     OW 1449   1.799   3.261   0.784  0.0644 -0.0827 -0.2903
    1SOL    HW2 1450   1.734   3.191   0.789  0.8493 -0.9423 -1.8543
    1SOL    HW3 1451   1.814   3.273   0.690  1.0084  1.1930  0.0095
    1SOL    MW4 1452   1.792   3.254   0.772  0.2924 -0.0274 -0.4570
    1SOL     OW 1453   1.745   3.508   0.876 -0.0600 -0.4558 -0.1745
    1SOL    HW2 1454   1.774   3.490   0.965 -0.7548  0.1424  0.1868
    1SOL    HW3 1455   1.758   3.426   0.828 -0.2774 -0.9704  0.6386
    1SOL    MW4 1456   1.750   3.495   0.881 -0.1805 -0.4447 -0.0195
    1SOL     OW 1457   1.984   3.625   0.765  0.1152  0.1492 -0.0269
    1SOL    HW2 1458   1.971   3.711   0.804  0.4431 -0.2995  1.0870
    1SOL    HW3 1459   1.909   3.573   0.794 -0.0187  0.0227 -0.5943
    1SOL    MW4 1460   1.972   3.629   0.774  0.1408  0.0734  0.0452
    1SOL     OW 1461   1.926   3.882   0.854 -0.3327 -0.3149 -0.4196
    1SOL    HW2 1462   1.941   3.901   0.946  0.0996  2.1197 -0.9512
    1SOL    HW3 1463   1.862   3.948   0.826  0.5231 -0.2017 -2.1755
    1SOL    MW4 1464   1.919   3.893   0.862 -0.1628  0.0212 -0.7214
    1SOL     OW 1465   1.735   4.066   0.762 -0.0077  0.2782  0.0557
    1SOL    HW2 1466   1.664   4.031   0.816  0.4780  0.2394  0.6762
    1SOL    HW3 1467   1.714   4.037   0.673  0.7148 -2.1746  0.6380
    1SOL    MW4 1468   1.723   4.058   0.757  0.1516 -0.0510  0.2144
    1SOL     OW 1469   1.763   4.313   0.828 -0.4358 -0.3000  0.2544
    1SOL    HW2 1470   1.735   4.327   0.918 -2.7278 -0.6158 -0.3704
    1SOL    HW3 1471   1.762   4.218   0.817 -0.2294 -0.2623 -0.1254
    1SOL    MW4 1472   1.759   4.302   0.838 -0.7110 -0.3362  0.1218
    1SOL     OW 1473   2.028   4.343   0.715  0.1089 -0.1552  0.1618
    1SOL    HW2 1474   1.943   4.335   0.758  0.3420 -0.8759  0.5038
    1SOL    HW3 1475   2.017   4.296   0.632  0.1011 -0.0304  0.0916
    1SOL    MW4 1476   2.015   4.336   0.709  0.1388 -0.2341  0.1976
    1SOL     OW 1477   2.497   4.607   0.850  0.4372  0.5915  0.1820
    1SOL    HW2 1478   2.504   4.610   0.945 -0.7610  0.9674  0.2732
    1SOL    HW3 1479   2.569   4.661   0.818  1.9687 -1.0495  0.8149
    1SOL    MW4 1480   2.507   4.615   0.858  0.4811  0.4244  0.2776
    1SOL     OW 1481   2.269   0.111   0.806  0.1455  0.1692  0.0619
    1SOL    HW2 1482   2.351   0.066   0.828  0.4059 -0.2339 -1.7167
    1SOL    HW3 1483   2.266   0.113   0.711 -0.8370  2.1873  0.0954
    1SOL    MW4 1484   2.279   0.105   0.797  0.0501  0.3823 -0.1684
    1SOL     OW 1485   2.243   0.388   0.841  0.0759 -0.3458  0.6862
    1SOL    HW2 1486   2.329   0.429   0.829 -0.3443  0.0436 -1.0209
    1SOL    HW3 1487   2.259   0.294   0.831 -0.2133 -0.0777 -2.9327
    1SOL    MW4 1488   2.257   0.381   0.838 -0.0176 -0.2590 -0.0165
    1SOL     OW 1489   2.477   0.520   0.784  0.4336 -0.0385 -0.1401
    1SOL    HW2 1490   2.457   0.487   0.697 -0.3704 -1.0899  0.4283
    1SOL    HW3 1491   2.557   0.473   0.809  0.2663 -0.2683 -0.0321
    1SOL    MW4 1492   2.485   0.509   0.776  0.3054 -0.2075 -0.0509
    1SOL     OW 1493   2.453   0.805   0.856  0.1636  0.4480  0.1103
    1SOL    HW2 1494   2.526   0.837   0.804 -0.9011 -0.5557 -2.0896
    1SOL    HW3 1495   2.452   0.710   0.839  0.0003  0.0364  2.2615
    1SOL    MW4 1496   2.463   0.796   0.847  0.0014  0.2613  0.1040
    1SOL     OW 1497   2.201   0.897   0.801  0.4840  0.0050  0.1068
    1SOL    HW2 1498   2.293   0.874   0.816  0.8364  1.0332 -0.4312
    1SOL    HW3 1499   2.194   0.910   0.707 -0.0040  0.7798  0.2420
    1SOL    MW4 1500   2.212   0.896   0.791  0.4659  0.2428  0.0536
    1SOL     OW 1501   2.205   1.161   0.896 -0.2062  0.3348 -0.2113
    1SOL    HW2 1502   2.179   1.167   0.988  0.7639 -0.8937  0.1603
    1SOL    HW3 1503   2.215   1.068   0.880  0.8313  0.6103 -1.2269
    1SOL    MW4 1504   2.203   1.150   0.906  0.0589  0.2091 -0.2962
    1SOL     OW 1505   2.423   1.280   0.774  0.1020  0.3154 -0.2686
    1SOL    HW2 1506   2.345   1.243   0.814  0.3016 -1.1180 -1.1631
    1SOL    HW3 1507   2.390   1.339   0.706 -0.2079  0.8431  0.3381
    1SOL    MW4 1508   2.409   1.283   0.770  0.0877  0.1959 -0.3066
    1SOL     OW 1509   2.473   1.528   0.870 -0.1825  0.2077  0.1932
    1SOL    HW2 1510   2.544   1.559   0.814  0.4502 -0.6529  0.5184
    1SOL    HW3 1511   2.471   1.434   0.856  0.1896 -0.0631  1.8520
    1SOL    MW4 1512   2.482   1.520   0.861 -0.0501  0.0584  0.4550
    1SOL     OW 1513   2.204   1.632   0.840  0.2621 -0.1364  0.0822
    1SOL    HW2 1514   2.284   1.585   0.866 -0.0796 -0.8525 -0.1541
    1SOL    HW3 1515   2.194   1.611   0.747  0.4011  0.8403 -0.1556
    1SOL    MW4 1516   2.213   1.623   0.831  0.2353 -0.1020  0.0196
    1SOL     OW 1517   2.215   1.904   0.900  0.2542 -0.0830 -0.2264
    1SOL    HW2 1518   2.217   1.809   0.886 -0.4841 -0.3765  1.5453
    1SOL    HW3 1519   2.141   1.935   0.848 -0.8205 -0.7815  0.8730
    1SOL    MW4 1520   2.206   1.896   0.891  0.0150 -0.2140  0.1524
    1SOL     OW 1521   2.442   2.010   0.763 -0.1895 -0.2910  0.3445
    1SOL    HW2 1522   2.356   1.980   0.794 -0.6997  0.6567 -0.1310
    1SOL    HW3 1523   2.423   2.059   0.684  0.7296  0.5007  0.6099
    1SOL    MW4 1524   2.428   2.012   0.757 -0.1357 -0.0613  0.3169
    1SOL     OW 1525   2.448   2.267   0.866 -0.0422 -0.4983 -0.0753
    1SOL    HW2 1526   2.529   2.308   0.836 -0.4517  0.6221  0.3193
    1SOL    HW3 1527   2.454   2.177   0.836  0.4577  0.0798 -1.7730
    1SOL    MW4 1528   2.459   2.261   0.858 -0.0300 -0.2742 -0.2472
    1SOL     OW 1529   2.243   2.429   0.770  0.0259  0.3377 -0.6379
    1SOL    HW2 1530   2.319   2.383   0.807 -0.0458 -1.2571 -2.4288
    1SOL    HW3 1531   2.168   2.384   0.808 -0.0434 -0.1672 -1.3859
    1SOL    MW4 1532   2.243   2.417   0.780  0.0074  0.0603 -0.9729
    1SOL     OW 1533   2.262   2.707   0.839 -0.0946  0.0120  0.0070
    1SOL    HW2 1534   2.254   2.717   0.934  1.0646  0.0157  0.1080
    1SOL    HW3 1535   2.255   2.613   0.824  0.2621 -0.0378  0.1496
    1SOL    MW4 1536   2.260   2.696   0.850  0.1056  0.0060  0.0391
    1SOL     OW 1537   2.501   2.846   0.754 -0.1240 -0.1509  0.1677
    1SOL    HW2 1538   2.565   2.797   0.806 -0.1294 -0.1880  0.1384
    1SOL    HW3 1539   2.423   2.790   0.753 -0.1202 -0.1548  0.1104
    1SOL    MW4 1540   2.499   2.832   0.761 -0.1242 -0.1562  0.1563
    1SOL     OW 1541   2.475   3.099   0.864 -0.4363 -0.2413 -0.4253
    1SOL    HW2 1542   2.487   3.100   0.959 -2.7261  1.5176 -0.1238
    1SOL    HW3 1543   2.479   3.006   0.840 -0.1809 -0.7211  1.4167
    1SOL    MW4 1544   2.477   3.087   0.873 -0.7045 -0.0725 -0.1425
    1SOL     OW 1545   2.270   3.277   0.803  0.0239  0.0758 -0.3628
    1SOL    HW2 1546   2.187   3.234   0.821  0.1456 -0.4136 -0.9642
    1SOL    HW3 1547   2.336   3.216   0.835  0.1646  0.3530 -0.1174
    1SOL    MW4 1548   2.268   3.264   0.810  0.0584  0.0479 -0.4097
    1SOL     OW 1549   2.217   3.529   0.891 -0.3671  0.4829  0.4103
    1SOL    HW2 1550   2.232   3.443   0.851 -0.4250 -0.1314  1.6948
    1SOL    HW3 1551   2.135   3.559   0.853 -0.8532 -0.4688  0.6976
    1SOL    MW4 1552   2.208   3.522   0.881 -0.4389  0.2761  0.6177
    1SOL     OW 1553   2.428   3.618   0.721 -0.1128  0.4329 -0.4166
    1SOL    HW2 1554   2.495   3.567   0.767 -1.9590 -0.0155  1.8643
    1SOL    HW3 1555   2.353   3.618   0.780 -2.3554  0.4440 -3.1714
    1SOL    MW4 1556   2.427   3.611   0.735 -0.6526  0.3750 -0.4791
    1SOL     OW 1557   2.437   3.861   0.840 -0.1429 -0.2983 -0.6320
    1SOL    HW2 1558   2.344   3.872   0.817 -0.6435 -1.0105  1.0310
    1SOL    HW3 1559   2.465   3.786   0.787 -0.1317  0.7642 -2.1775
    1SOL    MW4 1560   2.428   3.852   0.830 -0.2074 -0.2522 -0.6164
    1SOL     OW 1561   2.188   3.935   0.764 -0.2047 -0.3583 -0.5450
    1SOL    HW2 1562   2.099   3.931   0.799 -0.0705  1.3170  0.0478
    1SOL    HW3 1563   2.177   3.932   0.669 -0.9488  0.4612 -0.4913
    1SOL    MW4 1564   2.175   3.934   0.756 -0.2851 -0.0291 -0.4596
    1SOL     OW 1565   2.268   4.190   0.835  0.1633 -0.1524 -0.2367
    1SOL    HW2 1566   2.272   4.101   0.802  0.2183  0.4257 -1.8565
    1SOL    HW3 1567   2.186   4.225   0.801  0.5496  0.6852 -0.3159
    1SOL    MW4 1568   2.258   4.183   0.826  0.2215  0.0343 -0.4609
    1SOL     OW 1569   2.391   4.416   0.664  0.3470  0.0246  0.3906
    1SOL    HW2 1570   2.430   4.471   0.731  2.0599 -0.6788 -0.0031
    1SOL    HW3 1571   2.370   4.334   0.709 -0.2447  0.2302  0.4923
    1SOL    MW4 1572   2.394   4.413   0.679  0.4950 -0.0415  0.3521
    1SOL     OW 1573   2.898   4.634   0.713  0.2193  0.2199 -0.0692
    1SOL    HW2 1574   2.867   4.563   0.770 -1.2929 -0.1742 -1.3447
    1SOL    HW3 1575   2.830   4.701   0.720  0.3566  0.4505 -0.8725
    1SOL    MW4 1576   2.885   4.633   0.722  0.0379  0.1984 -0.3434
    1SOL     OW 1577   2.567   4.574   0.418 -0.0646  0.0762  0.3691
    1SOL    HW2 1578   2.641   4.631   0.395 -0.0309 -0.7588 -1.7362
    1SOL    HW3 1579   2.489   4.625   0.396 -0.0434 -0.3869 -0.8322
    1SOL    MW4 1580   2.567   4.588   0.412 -0.0570 -0.0958 -0.0671
    1SOL     OW 1581   2.688   0.360   0.886 -0.5767  0.0732 -0.4336
    1SOL    HW2 1582   2.713   0.346   0.977  0.3634 -3.1425 -1.1162
    1SOL    HW3 1583   2.756   0.417   0.850  0.2843 -0.4720  0.3166
    1SOL    MW4 1584   2.700   0.365   0.893 -0.3393 -0.4230 -0.4246
    1SOL     OW 1585   2.906   0.514   0.753  0.1705  0.0507 -0.7026
    1SOL    HW2 1586   2.990   0.474   0.777  0.1708  0.5181  0.1128
    1SOL    HW3 1587   2.905   0.514   0.657  0.7006 -0.7853 -0.7110
    1SOL    MW4 1588   2.917   0.509   0.744  0.2406  0.0021 -0.5961
    1SOL     OW 1589   2.878   0.770   0.844  0.2867  0.2933  0.4481
    1SOL    HW2 1590   2.875   0.765   0.940 -3.6177 -1.3033  0.3205
    1SOL    HW3 1591   2.891   0.679   0.816 -0.8203  0.4366 -0.5580
    1SOL    MW4 1592   2.880   0.757   0.853 -0.3748  0.1016  0.2986
    1SOL     OW 1593   2.671   0.897   0.710 -0.2514 -0.4325  0.2435
    1SOL    HW2 1594   2.741   0.850   0.755  0.0822 -1.5508 -1.4083
    1SOL    HW3 1595   2.680   0.872   0.618 -1.0286  1.6608 -0.4415
    1SOL    MW4 1596   2.682   0.887   0.704 -0.3099 -0.3039 -0.0649
    1SOL     OW 1597   2.676   1.152   0.826 -0.1350 -0.0649 -0.2333
    1SOL    HW2 1598   2.671   1.068   0.781 -1.6182  0.7125 -1.5742
    1SOL    HW3 1599   2.591   1.192   0.811  0.2036  1.2615  1.2372
    1SOL    MW4 1600   2.664   1.146   0.818 -0.2861  0.2127 -0.2162
    1SOL     OW 1601   2.927   1.285   0.746 -0.7416  0.5839  0.0174
    1SOL    HW2 1602   2.982   1.236   0.807 -0.4706  0.8317 -0.0307
    1SOL    HW3 1603   2.838   1.253   0.764 -0.5266 -0.1827 -0.2503
    1SOL    MW4 1604   2.922   1.274   0.756 -0.6773  0.5155 -0.0243
    1SOL     OW 1605   2.915   1.537   0.872 -0.3277 -0.4758 -0.0067
    1SOL    HW2 1606   2.987   1.593   0.846 -0.4786 -0.4715 -0.4183
    1SOL    HW3 1607   2.930   1.455   0.825 -0.3584 -0.6187  0.2332
    1SOL    MW4 1608   2.926   1.533   0.862 -0.3514 -0.4941 -0.0293
    1SOL     OW 1609   2.688   1.634   0.738 -0.3271  0.2768 -0.4312
    1SOL    HW2 1610   2.706   1.726   0.759 -0.5365  0.0040  1.0556
    1SOL    HW3 1611   2.756   1.586   0.785 -2.1445 -0.5007  1.4890
    1SOL    MW4 1612   2.699   1.640   0.747 -0.5946  0.1382  0.0183
    1SOL     OW 1613   2.692   1.895   0.826 -0.6059  0.0116 -0.3925
    1SOL    HW2 1614   2.680   1.907   0.921 -0.3746  0.1454 -0.3798
    1SOL    HW3 1615   2.603   1.898   0.791 -0.7940 -1.3156 -0.0384
    1SOL    MW4 1616   2.679   1.897   0.834 -0.6001 -0.1458 -0.3442
    1SOL     OW 1617   2.795   2.090   0.664  0.0018 -0.1977  0.0204
    1SOL    HW2 1618   2.826   2.156   0.727  0.0142  1.1293 -1.3301
    1SOL    HW3 1619   2.755   2.022   0.718 -1.9905  1.9663  1.3502
    1SOL    MW4 1620   2.794   2.090   0.679 -0.2594  0.2627  0.0178
    1SOL     OW 1621   2.890   2.274   0.836 -0.2472  0.1945 -0.0483
    1SOL    HW2 1622   2.907   2.268   0.930  0.7862 -0.1385 -0.2517
    1SOL    HW3 1623   2.820   2.340   0.829 -2.1320 -1.6070  1.1325
    1SOL    MW4 1624   2.883   2.282   0.847 -0.3595 -0.0870  0.0806
    1SOL     OW 1625   2.657   2.437   0.762 -0.2642 -0.3086 -0.3606
    1SOL    HW2 1626   2.631   2.460   0.673 -0.2237  0.8195 -0.0980
    1SOL    HW3 1627   2.676   2.522   0.803  1.6950 -0.9585  0.1120
    1SOL    MW4 1628   2.656   2.451   0.756 -0.0005 -0.2458 -0.2636
    1SOL     OW 1629   2.685   2.687   0.878 -0.4328 -0.0790  0.4610
    1SOL    HW2 1630   2.684   2.687   0.974  0.1826  2.5609  0.4999
    1SOL    HW3 1631   2.743   2.760   0.854 -0.2999 -0.9259 -1.9196
    1SOL    MW4 1632   2.692   2.697   0.887 -0.3338  0.1576  0.1521
    1SOL     OW 1633   2.873   2.780   0.551  0.6476  0.4808  0.0973
    1SOL    HW2 1634   2.875   2.696   0.505  3.0550  0.1834  0.6717
    1SOL    HW3 1635   2.787   2.817   0.530  0.2224 -1.3506 -1.5319
    1SOL    MW4 1636   2.862   2.774   0.542  0.9091  0.1996 -0.0419
    1SOL     OW 1637   2.951   3.106   0.894 -0.2895 -0.1028 -0.1006
    1SOL    HW2 1638   2.879   3.156   0.856 -0.8611 -0.0260  1.0727
    1SOL    HW3 1639   2.933   3.015   0.870  0.3308  0.1523 -1.5632
    1SOL    MW4 1640   2.939   3.100   0.886 -0.2830 -0.0591 -0.1388
    1SOL     OW 1641   2.720   3.239   0.777  0.2294  0.1404  0.2530
    1SOL    HW2 1642   2.701   3.332   0.789 -0.2474 -0.0052  0.6362
    1SOL    HW3 1643   2.640   3.194   0.804  0.6902 -0.4116  0.7302
    1SOL    MW4 1644   2.707   3.246   0.782  0.2275  0.0482  0.3665
    1SOL     OW 1645   2.645   3.507   0.855  0.3731 -0.0595  0.0235
    1SOL    HW2 1646   2.641   3.485   0.948 -0.1187 -1.0933 -0.2293
    1SOL    HW3 1647   2.731   3.547   0.843  0.9441 -1.0712  0.6797
    1SOL    MW4 1648   2.656   3.510   0.866  0.3836 -0.3295  0.0767
    1SOL     OW 1649   2.895   3.618   0.769 -0.3730  0.1483  0.2818
    1SOL    HW2 1650   2.907   3.712   0.785  0.8483 -0.1696  1.2998
    1SOL    HW3 1651   2.899   3.609   0.674 -0.6838  1.1483  0.1669
    1SOL    MW4 1652   2.897   3.629   0.758 -0.2527  0.2382  0.4010
    1SOL     OW 1653   2.905   3.890   0.874  0.1767 -0.0085 -0.4740
    1SOL    HW2 1654   2.929   3.896   0.966 -0.3793  0.4542 -0.3579
    1SOL    HW3 1655   2.818   3.931   0.869  0.6395  0.8610 -1.3768
    1SOL    MW4 1656   2.896   3.896   0.885  0.1645  0.1671 -0.5777
    1SOL     OW 1657   2.653   4.012   0.762  0.0355  0.0812  0.1921
    1SOL    HW2 1658   2.579   3.971   0.809  0.0901 -0.6709 -0.3742
    1SOL    HW3 1659   2.629   4.005   0.670  0.6901  0.0937  0.0233
    1SOL    MW4 1660   2.640   4.006   0.756  0.1287 -0.0167  0.0951
    1SOL     OW 1661   2.658   4.284   0.728  0.2381 -0.3690 -0.2619
    1SOL    HW2 1662   2.717   4.318   0.795 -0.1894  0.2478 -0.1961
    1SOL    HW3 1663   2.643   4.193   0.754  0.2357 -0.1896  0.3750
    1SOL    MW4 1664   2.664   4.276   0.741  0.1814 -0.2646 -0.1693
    1SOL     OW 1665   2.876   4.416   0.913  0.2127 -0.4546 -0.2191
    1SOL    HW2 1666   2.961   4.372   0.902  0.0189 -0.4879 -1.5860
    1SOL    HW3 1667   2.833   4.365   0.981  0.6149 -1.4635 -0.7057
    1SOL    MW4 1668   2.882   4.403   0.921  0.2403 -0.5922 -0.4637
    1SOL     OW 1669   3.341   4.628   0.807  0.2774  0.1214 -0.6803
    1SOL    HW2 1670   3.325   4.633   0.901 -0.4757 -3.4700 -0.5596
    1SOL    HW3 1671   3.267   4.673   0.768  0.3749  1.2748  0.4123
    1SOL    MW4 1672   3.329   4.635   0.814  0.1907 -0.2003 -0.5202
    1SOL     OW 1673   3.144   0.115   0.700  0.2146 -0.0317 -0.4266
    1SOL    HW2 1674   3.131   0.203   0.735  0.7744 -0.9742  2.2628
    1SOL    HW3 1675   3.059   0.073   0.710  0.1247 -0.0203 -1.1094
    1SOL    MW4 1676   3.131   0.121   0.706  0.2768 -0.1545 -0.1619
    1SOL     OW 1677   3.139   0.375   0.802 -0.5401  0.4112  0.3256
    1SOL    HW2 1678   3.151   0.370   0.897  0.1165  1.6047  0.2998
    1SOL    HW3 1679   3.217   0.419   0.769 -0.4039 -0.6675 -0.8651
    1SOL    MW4 1680   3.151   0.380   0.810 -0.4358  0.4264  0.1650
    1SOL     OW 1681   3.381   0.521   0.694 -0.6267  0.1057 -0.4241
    1SOL    HW2 1682   3.444   0.460   0.733 -1.3851  0.3218  1.1758
    1SOL    HW3 1683   3.410   0.530   0.603 -0.0975 -2.0938 -0.5063
    1SOL    MW4 1684   3.393   0.514   0.687 -0.6568 -0.1560 -0.2239
    1SOL     OW 1685   3.345   0.752   0.858 -0.7920  0.5403 -0.2002
    1SOL    HW2 1686   3.257   0.789   0.845 -0.3623  1.1371 -1.4640
    1SOL    HW3 1687   3.343   0.670   0.810 -1.0133  0.0034  0.7154
    1SOL    MW4 1688   3.333   0.746   0.850 -0.7646  0.5482 -0.2461
    1SOL     OW 1689   3.115   0.884   0.755  0.4705 -0.2430 -0.1586
    1SOL    HW2 1690   3.136   0.964   0.803 -1.0787 -0.3861  0.7711
    1SOL    HW3 1691   3.042   0.845   0.803  0.9333 -2.0020 -0.8361
    1SOL    MW4 1692   3.108   0.889   0.768  0.3269 -0.4939 -0.1253
    1SOL     OW 1693   3.123   1.133   0.886 -0.4156 -0.6807  0.6343
    1SOL    HW2 1694   3.147   1.137   0.978 -0.4266  0.8044  0.5861
    1SOL    HW3 1695   3.193   1.179   0.841 -1.2799  0.1080  0.0803
    1SOL    MW4 1696   3.135   1.139   0.892 -0.5312 -0.3808  0.5547
    1SOL     OW 1697   3.331   1.260   0.738 -0.0014 -0.5113 -0.6114
    1SOL    HW2 1698   3.419   1.231   0.763 -0.4156 -1.4167 -0.1538
    1SOL    HW3 1699   3.327   1.351   0.766  0.2770 -0.9014  0.7723
    1SOL    MW4 1700   3.342   1.268   0.745 -0.0191 -0.6824 -0.3685
    1SOL     OW 1701   3.324   1.519   0.843  0.1217 -0.2822  0.0667
    1SOL    HW2 1702   3.343   1.524   0.937  1.5222 -0.5065 -0.1886
    1SOL    HW3 1703   3.410   1.524   0.801 -0.1215 -3.9163 -1.0651
    1SOL    MW4 1704   3.338   1.520   0.850  0.2744 -0.7912 -0.1163
    1SOL     OW 1705   3.115   1.709   0.784  0.2624 -0.1282  0.2899
    1SOL    HW2 1706   3.195   1.657   0.795 -0.7349 -1.6337  0.5844
    1SOL    HW3 1707   3.099   1.708   0.690  0.1920 -0.4601  0.3033
    1SOL    MW4 1708   3.123   1.702   0.773  0.1216 -0.3705  0.3304
    1SOL     OW 1709   3.183   1.937   0.918 -0.1740 -0.0224  0.4010
    1SOL    HW2 1710   3.167   1.935   1.012 -1.0547 -0.2639  0.2491
    1SOL    HW3 1711   3.150   1.853   0.886 -0.1822  0.1986 -0.1742
    1SOL    MW4 1712   3.177   1.926   0.926 -0.2913 -0.0252  0.3051
    1SOL     OW 1713   3.465   1.960   0.844  0.2024 -0.1458  0.0356
    1SOL    HW2 1714   3.492   2.051   0.857  1.0857 -0.2326 -1.1170
    1SOL    HW3 1715   3.369   1.962   0.854  0.4607  0.4398  2.5913
    1SOL    MW4 1716   3.456   1.972   0.847  0.3526 -0.0799  0.2207
    1SOL     OW 1717   3.497   2.218   0.891 -0.3925  0.3778 -0.2689
    1SOL    HW2 1718   3.475   2.263   0.972  0.1557  0.6576 -0.2719
    1SOL    HW3 1719   3.582   2.254   0.866 -0.3321 -0.0627 -0.7057
    1SOL    MW4 1720   3.506   2.228   0.899 -0.3123  0.3567 -0.3269
    1SOL     OW 1721   3.067   2.448   0.703 -0.2284 -0.1783  0.1753
    1SOL    HW2 1722   3.151   2.404   0.688 -0.1876  0.0992 -0.4264
    1SOL    HW3 1723   3.023   2.394   0.768  0.1969 -0.6218  0.0975
    1SOL    MW4 1724   3.072   2.435   0.709 -0.1667 -0.2005  0.0857
    1SOL     OW 1725   3.095   2.676   0.865  0.2470 -0.6154 -0.1310
    1SOL    HW2 1726   3.087   2.598   0.810 -0.4336  0.2544 -1.2865
    1SOL    HW3 1727   3.160   2.731   0.821 -0.1770  0.0146  0.0152
    1SOL    MW4 1728   3.102   2.673   0.852  0.1013 -0.4177 -0.2642
    1SOL     OW 1729   3.285   2.823   0.744  0.1465  0.2514 -0.0240
    1SOL    HW2 1730   3.233   2.844   0.666  0.6020  0.1160 -0.3630
    1SOL    HW3 1731   3.362   2.778   0.710 -0.7846 -1.9362  0.6994
    1SOL    MW4 1732   3.288   2.820   0.729  0.0837 -0.0551  0.0266
    1SOL     OW 1733   3.366   3.072   0.823 -0.1935  0.1246 -0.0782
    1SOL    HW2 1734   3.348   3.088   0.916  1.3747 -0.4694  0.3326
    1SOL    HW3 1735   3.336   2.982   0.809  1.7251 -0.6212  0.4408
    1SOL    MW4 1736   3.359   3.062   0.833  0.2663 -0.0520  0.0445
    1SOL     OW 1737   3.160   3.229   0.751 -0.2750 -0.7685  0.1184
    1SOL    HW2 1738   3.225   3.161   0.766  0.3253 -0.1144  0.5361
    1SOL    HW3 1739   3.085   3.204   0.804  0.2103 -0.7406  0.8198
    1SOL    MW4 1740   3.159   3.217   0.760 -0.1318 -0.6783  0.2661
    1SOL     OW 1741   3.150   3.501   0.846  1.0607 -0.1441  0.3259
    1SOL    HW2 1742   3.150   3.411   0.812  0.3804 -0.2504  0.5975
    1SOL    HW3 1743   3.071   3.541   0.808  0.5983 -0.0910  1.3239
    1SOL    MW4 1744   3.139   3.494   0.836  0.9100 -0.1512  0.4934
    1SOL     OW 1745   3.389   3.605   0.740 -0.0123 -0.0592  0.3449
    1SOL    HW2 1746   3.425   3.677   0.792 -0.8249  1.7033 -1.4597
    1SOL    HW3 1747   3.314   3.573   0.791  0.2676  0.4672  1.0930
    1SOL    MW4 1748   3.384   3.611   0.753 -0.0825  0.2427  0.2055
    1SOL     OW 1749   3.488   3.875   0.888 -0.3408  0.0436 -0.2192
    1SOL    HW2 1750   3.505   3.969   0.888  0.5781 -0.1190 -0.0990
    1SOL    HW3 1751   3.407   3.864   0.938  0.2050  0.6482  0.7883
    1SOL    MW4 1752   3.479   3.886   0.894 -0.1478  0.1020 -0.0703
    1SOL     OW 1753   3.044   4.065   0.713 -0.4819  0.3965  0.6515
    1SOL    HW2 1754   3.124   4.014   0.700  0.0886  1.4543 -0.0641
    1SOL    HW3 1755   2.989   4.009   0.769  0.1448 -0.9659 -0.0651
    1SOL    MW4 1756   3.047   4.051   0.719 -0.3238  0.3562  0.4625
    1SOL     OW 1757   3.114   4.274   0.884 -0.2196 -1.3179  0.4358
    1SOL    HW2 1758   3.207   4.287   0.865 -0.0557 -0.8742  1.4875
    1SOL    HW3 1759   3.084   4.214   0.816  0.2434  0.4810 -1.4264
    1SOL    MW4 1760   3.122   4.268   0.872 -0.1369 -1.0219  0.3289
    1SOL     OW 1761   3.380   4.371   0.829  0.2791  0.4351  0.6437
    1SOL    HW2 1762   3.381   4.467   0.830 -0.5287  0.4482  1.0186
    1SOL    HW3 1763   3.378   4.348   0.736 -0.5400  0.8072  0.5661
    1SOL    MW4 1764   3.380   4.381   0.817  0.0644  0.4864  0.6829
    1SOL     OW 1765   3.808   4.603   0.857  0.3429  0.0196 -0.0132
    1SOL    HW2 1766   3.883   4.659   0.834 -0.2404  1.0707  0.6359
    1SOL    HW3 1767   3.731   4.657   0.839 -0.2860 -1.1983 -1.0583
    1SOL    MW4 1768   3.808   4.617   0.851  0.1831 -0.0019 -0.0653
    1SOL     OW 1769   3.594   0.086   0.748  0.0755 -0.1391  0.1744
    1SOL    HW2 1770   3.506   0.050   0.747  0.5432 -1.3011 -0.2010
    1SOL    HW3 1771   3.625   0.078   0.658 -0.5496  3.1207 -0.3721
    1SOL    MW4 1772   3.587   0.080   0.736  0.0546  0.1377  0.0528
    1SOL     OW 1773   3.627   0.385   0.802  0.2086 -0.0422 -0.4504
    1SOL    HW2 1774   3.628   0.398   0.897 -3.2758  2.3650 -0.6354
    1SOL    HW3 1775   3.618   0.291   0.790 -1.7751 -0.1772  1.7153
    1SOL    MW4 1776   3.626   0.374   0.813 -0.5128  0.2576 -0.1891
    1SOL     OW 1777   3.828   0.542   0.712  0.1325 -0.2984  0.8106
    1SOL    HW2 1778   3.818   0.621   0.767 -0.3083  0.2351 -0.0248
    1SOL    HW3 1779   3.755   0.486   0.737 -0.4697  0.2456  0.2751
    1SOL    MW4 1780   3.817   0.545   0.723 -0.0052 -0.1562  0.6298
    1SOL     OW 1781   3.788   0.774   0.849  0.4512 -0.1251  0.2404
    1SOL    HW2 1782   3.768   0.768   0.942  0.8306  1.9143  0.4692
    1SOL    HW3 1783   3.880   0.801   0.846  0.1619  0.7664 -0.7097
    1SOL    MW4 1784   3.797   0.776   0.861  0.4630  0.2616  0.1453
    1SOL     OW 1785   3.568   0.890   0.740 -0.0883  0.6533 -0.1872
    1SOL    HW2 1786   3.644   0.848   0.779  1.1138  2.6977 -0.2379
    1SOL    HW3 1787   3.493   0.842   0.774  1.2204 -1.7389 -0.5389
    1SOL    MW4 1788   3.568   0.878   0.749  0.2432  0.6074 -0.2403
    1SOL     OW 1789   3.592   1.154   0.841  0.4008 -0.0689 -0.2863
    1SOL    HW2 1790   3.597   1.137   0.935 -1.0250  0.7610 -0.0397
    1SOL    HW3 1791   3.587   1.067   0.801 -0.2460 -0.3969  0.4962
    1SOL    MW4 1792   3.592   1.140   0.848  0.1273 -0.0026 -0.1506
    1SOL     OW 1793   3.790   1.322   0.758  0.0181 -0.2725 -0.4600
    1SOL    HW2 1794   3.713   1.266   0.759  1.3789 -2.1946 -1.2054
    1SOL    HW3 1795   3.820   1.320   0.667  1.4791 -0.3116  0.0082
    1SOL    MW4 1796   3.784   1.315   0.746  0.3908 -0.5313 -0.4966
    1SOL     OW 1797   3.816   1.581   0.846  0.1687  0.2549 -0.2057
    1SOL    HW2 1798   3.908   1.595   0.826 -0.5513  0.5577 -3.5724
    1SOL    HW3 1799   3.795   1.495   0.810 -0.9654  0.3206  0.2538
    1SOL    MW4 1800   3.825   1.572   0.839 -0.0763  0.3035 -0.5894
    1SOL     OW 1801   3.528   1.598   0.653 -0.0581  0.3779  0.2594
    1SOL    HW2 1802   3.454   1.643   0.612 -0.1358  1.0339  1.0922
    1SOL    HW3 1803   3.594   1.666   0.662  0.8979 -0.3593 -1.0782
    1SOL    MW4 1804   3.527   1.613   0.649  0.0579  0.3670  0.1928
    1SOL     OW 1805   3.726   1.788   0.699 -0.0390  0.2305 -0.0333
    1SOL    HW2 1806   3.749   1.715   0.756 -0.3440 -0.1640 -0.4167
    1SOL    HW3 1807   3.681   1.850   0.758 -2.1485 -1.0595 -0.2297
    1SOL    MW4 1808   3.723   1.787   0.715 -0.3576  0.0082 -0.1098
    1SOL     OW 1809   3.781   2.092   0.767  0.1598  0.2547  0.4848
    1SOL    HW2 1810   3.791   2.187   0.772 -0.4084  0.3891 -0.6265
    1SOL    HW3 1811   3.867   2.057   0.789  0.4517  1.0345  0.5920
    1SOL    MW4 1812   3.794   2.100   0.771  0.1233  0.3753  0.3524
    1SOL     OW 1813   3.688   2.110   0.503  0.2477 -0.7393 -0.3818
    1SOL    HW2 1814   3.603   2.069   0.520  0.5280 -0.9428  0.5772
    1SOL    HW3 1815   3.741   2.086   0.579  0.3342  1.6106  0.3350
    1SOL    MW4 1816   3.684   2.101   0.516  0.2961 -0.4563 -0.1608
    1SOL     OW 1817   3.742   2.369   0.851 -0.0353  0.2714 -0.0068
    1SOL    HW2 1818   3.706   2.457   0.853 -1.1958 -0.2089  1.2188
    1SOL    HW3 1819   3.773   2.354   0.940 -1.5214 -1.2235  0.2776
    1SOL    MW4 1820   3.741   2.378   0.863 -0.3846  0.0107  0.1924
    1SOL     OW 1821   3.634   2.652   0.875  0.3399 -0.0187 -0.1919
    1SOL    HW2 1822   3.582   2.669   0.953  0.6999 -1.0551  0.2710
    1SOL    HW3 1823   3.714   2.703   0.888  0.5814 -0.5291  0.2985
    1SOL    MW4 1824   3.638   2.661   0.887  0.4194 -0.2229 -0.0661
    1SOL     OW 1825   3.884   2.822   0.800 -0.1847  0.1918 -0.1209
    1SOL    HW2 1826   3.852   2.903   0.841  2.8115  0.7547  1.2683
    1SOL    HW3 1827   3.908   2.848   0.712  2.2156  1.2556  0.7956
    1SOL    MW4 1828   3.883   2.836   0.794  0.5271  0.4065  0.1833
    1SOL     OW 1829   3.797   3.072   0.911 -0.2021  0.4393  0.6218
    1SOL    HW2 1830   3.879   3.116   0.886 -0.1880  0.3941  0.5878
    1SOL    HW3 1831   3.728   3.124   0.870 -0.2235  0.7916  1.0950
    1SOL    MW4 1832   3.799   3.085   0.903 -0.2031  0.4799  0.6798
    1SOL     OW 1833   3.612   3.193   0.726 -0.3361 -0.3676  0.1756
    1SOL    HW2 1834   3.534   3.149   0.758  0.1451 -0.3650  1.4106
    1SOL    HW3 1835   3.603   3.194   0.631 -0.2057 -3.3968  0.0842
    1SOL    MW4 1836   3.601   3.188   0.718 -0.2556 -0.7668  0.3266
    1SOL     OW 1837   3.585   3.425   0.858  0.2275  0.0136  0.0743
    1SOL    HW2 1838   3.585   3.344   0.807 -0.5823  0.2697 -0.3414
    1SOL    HW3 1839   3.511   3.475   0.824  0.3102  0.6375  0.7939
    1SOL    MW4 1840   3.575   3.421   0.847  0.1314  0.1295  0.1144
    1SOL     OW 1841   3.800   3.548   0.754  0.3976  0.2933  0.0511
    1SOL    HW2 1842   3.885   3.518   0.787  0.1436  2.1559  2.5046
    1SOL    HW3 1843   3.737   3.487   0.791  0.3279  1.1051  1.3032
    1SOL    MW4 1844   3.803   3.536   0.763  0.3548  0.6461  0.5400
    1SOL     OW 1845   3.753   3.800   0.838  0.0395 -0.3181 -0.3222
    1SOL    HW2 1846   3.659   3.818   0.849 -0.3195  0.4894 -4.0372
    1SOL    HW3 1847   3.756   3.707   0.813  0.4116 -0.7789  1.3472
    1SOL    MW4 1848   3.741   3.790   0.836  0.0410 -0.2725 -0.5921
    1SOL     OW 1849   3.266   3.860   0.662  0.0742 -0.0768  0.0698
    1SOL    HW2 1850   3.336   3.926   0.665  0.2645 -0.3038  1.1381
    1SOL    HW3 1851   3.312   3.776   0.675 -0.4233 -0.2025  1.0601
    1SOL    MW4 1852   3.282   3.857   0.664  0.0336 -0.1235  0.3414
    1SOL     OW 1853   3.555   4.155   0.873  0.3771 -0.0999  0.1920
    1SOL    HW2 1854   3.633   4.203   0.843 -0.5356  1.6502  0.5180
    1SOL    HW3 1855   3.485   4.221   0.872 -1.0027 -1.5352  0.3406
    1SOL    MW4 1856   3.556   4.170   0.869  0.0746 -0.0587  0.2546
    1SOL     OW 1857   3.766   4.337   0.795 -0.0507 -0.1709  0.4392
    1SOL    HW2 1858   3.854   4.309   0.820  0.8215  1.5229 -0.6094
    1SOL    HW3 1859   3.769   4.433   0.802 -1.4292 -0.0224 -0.7936
    1SOL    MW4 1860   3.778   4.346   0.799 -0.1178  0.0725  0.1383
    1SOL     OW 1861   4.231   4.597   0.847 -0.0578 -0.5257  0.1854
    1SOL    HW2 1862   4.228   4.599   0.942  0.0587  1.7233  0.1669
    1SOL    HW3 1863   4.152   4.643   0.819  0.2775 -0.5233 -0.8012
    1SOL    MW4 1864   4.220   4.603   0.856  0.0019 -0.2284  0.0528
    1SOL     OW 1865   4.009   0.081   0.733 -0.5592  0.3279  0.2866
    1SOL    HW2 1866   4.016   0.175   0.754 -2.8614  0.6367 -0.1607
    1SOL    HW3 1867   4.003   0.079   0.638 -2.4687 -0.1147  0.4052
    1SOL    MW4 1868   4.009   0.093   0.723 -1.1148  0.3102  0.2432
    1SOL     OW 1869   4.023   0.363   0.801  0.2684  0.3977 -0.4054
    1SOL    HW2 1870   4.094   0.422   0.773  0.0934  1.4851  1.3653
    1SOL    HW3 1871   3.943   0.411   0.780  0.0642 -0.2377 -1.1147
    1SOL    MW4 1872   4.022   0.377   0.794  0.2179  0.4574 -0.2654
    1SOL     OW 1873   4.254   0.509   0.720 -0.2521 -0.0646  0.3071
    1SOL    HW2 1874   4.318   0.446   0.754  0.1495  0.2854  0.2007
    1SOL    HW3 1875   4.237   0.479   0.630 -0.0220  0.0098  0.2385
    1SOL    MW4 1876   4.260   0.497   0.713 -0.1683 -0.0086  0.2840
    1SOL     OW 1877   4.272   0.733   0.870 -0.6907  0.4974  0.0681
    1SOL    HW2 1878   4.189   0.771   0.845 -0.3685  0.7443 -0.6247
    1SOL    HW3 1879   4.274   0.647   0.828 -0.3301  0.7428 -0.4202
    1SOL    MW4 1880   4.262   0.726   0.861 -0.6008  0.5624 -0.0877
    1SOL     OW 1881   4.046   0.886   0.802  0.1728  0.4900  0.1940
    1SOL    HW2 1882   4.002   0.967   0.829 -0.9022 -0.0354  0.0685
    1SOL    HW3 1883   4.070   0.901   0.711 -1.3290  0.1494 -0.2812
    1SOL    MW4 1884   4.043   0.898   0.793 -0.1664  0.3757  0.1147
    1SOL     OW 1885   3.975   1.140   0.870  0.4712  0.6801 -0.4009
    1SOL    HW2 1886   3.986   1.152   0.964  2.9102  1.4761 -0.7383
    1SOL    HW3 1887   3.908   1.204   0.845 -1.1304 -0.4439  0.9770
    1SOL    MW4 1888   3.967   1.150   0.879  0.5815  0.6368 -0.2637
    1SOL     OW 1889   4.195   1.268   0.767  0.2089 -0.2834 -0.2997
    1SOL    HW2 1890   4.120   1.224   0.807 -0.1528 -0.0074 -0.6760
    1SOL    HW3 1891   4.270   1.216   0.794  0.0582  0.3380  1.4217
    1SOL    MW4 1892   4.195   1.256   0.776  0.1411 -0.1651 -0.1222
    1SOL     OW 1893   4.263   1.521   0.853 -0.0253  0.4248 -0.0958
    1SOL    HW2 1894   4.274   1.513   0.948  0.2124 -0.7439 -0.2085
    1SOL    HW3 1895   4.243   1.432   0.824  0.5810  0.6511 -1.2322
    1SOL    MW4 1896   4.262   1.508   0.862  0.0863  0.3003 -0.2606
    1SOL     OW 1897   4.060   1.662   0.752  0.3898  0.4431 -0.2887
    1SOL    HW2 1898   4.124   1.621   0.810  0.5632  1.5897  0.3492
    1SOL    HW3 1899   4.092   1.644   0.664  0.4598 -0.7801 -0.0261
    1SOL    MW4 1900   4.072   1.654   0.748  0.4220  0.4330 -0.1699
    1SOL     OW 1901   3.996   1.932   0.834  0.2632  0.2895 -0.0403
    1SOL    HW2 1902   4.010   1.843   0.801 -0.5597 -0.5491  1.8427
    1SOL    HW3 1903   4.065   1.984   0.791  0.1402 -1.0458 -1.9081
    1SOL    MW4 1904   4.007   1.927   0.824  0.1383  0.0026 -0.0383
    1SOL     OW 1905   4.211   2.051   0.728 -0.3288 -0.2200 -0.2526
    1SOL    HW2 1906   4.302   2.029   0.750  0.5983  2.8451 -0.7844
    1SOL    HW3 1907   4.204   2.031   0.634  0.4762  1.6321 -0.7167
    1SOL    MW4 1908   4.222   2.045   0.718 -0.1001  0.4289 -0.3840
    1SOL     OW 1909   4.251   2.297   0.836  1.0304 -0.6584 -0.0265
    1SOL    HW2 1910   4.170   2.348   0.831  1.5755  0.4211  1.7761
    1SOL    HW3 1911   4.225   2.209   0.808 -0.6280 -0.1686 -0.0770
    1SOL    MW4 1912   4.237   2.292   0.832  0.8836 -0.4511  0.2047
    1SOL     OW 1913   4.027   2.445   0.799  0.3064  0.4185  0.2313
    1SOL    HW2 1914   4.054   2.535   0.817 -1.2964  0.7234  1.1929
    1SOL    HW3 1915   3.935   2.441   0.826  0.0165 -1.1909 -0.9072
    1SOL    MW4 1916   4.019   2.456   0.805  0.0572  0.2465  0.2080
    1SOL     OW 1917   4.094   2.700   0.929 -0.1798 -0.2977 -0.0229
    1SOL    HW2 1918   4.171   2.735   0.883  0.8580  0.7570  2.4304
    1SOL    HW3 1919   4.022   2.755   0.898  0.0435 -1.1594 -2.1867
    1SOL    MW4 1920   4.095   2.712   0.919 -0.0134 -0.2720  0.0152
    1SOL     OW 1921   4.326   2.802   0.808  0.0736 -0.0234  0.0885
    1SOL    HW2 1922   4.410   2.757   0.818  0.4250  0.6865  0.3455
    1SOL    HW3 1923   4.299   2.781   0.718  1.4037  1.2171 -0.6273
    1SOL    MW4 1924   4.334   2.793   0.797  0.2956  0.2339  0.0279
    1SOL     OW 1925   4.251   3.065   0.845 -0.2923  0.2853  0.2905
    1SOL    HW2 1926   4.268   2.971   0.850  1.2924  0.6784  2.9965
    1SOL    HW3 1927   4.327   3.102   0.801 -0.7209  0.3716 -0.3928
    1SOL    MW4 1928   4.263   3.058   0.840 -0.1392  0.3488  0.5574
    1SOL     OW 1929   4.024   3.196   0.772 -0.3171  0.0702  0.3463
    1SOL    HW2 1930   4.047   3.288   0.785  1.1779 -0.3683  0.8815
    1SOL    HW3 1931   4.097   3.147   0.810 -0.6333 -1.3354 -0.8191
    1SOL    MW4 1932   4.037   3.202   0.779 -0.1612 -0.1729  0.2632
    1SOL     OW 1933   4.047   3.463   0.828 -0.2658  0.1719 -0.1375
    1SOL    HW2 1934   4.059   3.486   0.920  0.8857 -0.8749 -0.0175
    1SOL    HW3 1935   4.114   3.512   0.781 -1.8211  1.8803 -0.6076
    1SOL    MW4 1936   4.057   3.472   0.834 -0.3190  0.2592 -0.1837
    1SOL     OW 1937   4.292   3.594   0.744  0.1943  0.1105 -0.2142
    1SOL    HW2 1938   4.278   3.689   0.751 -1.8141 -0.0597 -1.5224
    1SOL    HW3 1939   4.339   3.583   0.661  0.4639 -0.0474 -0.0414
    1SOL    MW4 1940   4.296   3.605   0.734 -0.0348  0.0672 -0.3641
    1SOL     OW 1941   4.257   3.855   0.807  0.0111  0.3808 -0.6182
    1SOL    HW2 1942   4.267   3.851   0.903 -0.1946  0.3580 -0.5976
    1SOL    HW3 1943   4.166   3.883   0.794  0.3167  1.3175 -0.7932
    1SOL    MW4 1944   4.246   3.858   0.818  0.0243  0.5012 -0.6386
    1SOL     OW 1945   4.001   3.944   0.766  0.1303  0.0345 -0.1294
    1SOL    HW2 1946   3.928   3.888   0.792  0.9537 -0.6666  0.6987
    1SOL    HW3 1947   4.016   3.924   0.673 -0.9058  0.3895 -0.3730
    1SOL    MW4 1948   3.994   3.934   0.757  0.1020 -0.0112 -0.0523
    1SOL     OW 1949   4.012   4.236   0.851  0.0823  0.4520  0.5645
    1SOL    HW2 1950   4.088   4.269   0.804 -1.3500  0.7610 -1.6046
    1SOL    HW3 1951   3.996   4.149   0.813 -0.5181  0.3025  1.1345
    1SOL    MW4 1952   4.020   4.229   0.840 -0.1860  0.4735  0.3535
    1SOL     OW 1953   4.239   4.335   0.737  0.0519  0.0759  0.0968
    1SOL    HW2 1954   4.227   4.430   0.737  1.1143  0.2301 -1.3243
    1SOL    HW3 1955   4.309   4.320   0.800 -2.0119 -0.0540  2.4068
    1SOL    MW4 1956   4.247   4.346   0.745 -0.0801  0.0787  0.2142
    1SOL     OW 1957   0.208   0.004   1.092  0.8202  0.1657 -0.4916
    1SOL    HW2 1958   0.285   0.038   1.138  0.1926  0.2853  0.4904
    1SOL    HW3 1959   0.219   0.034   1.002  1.4839  0.9412 -0.1661
    1SOL    MW4 1960   0.220   0.013   1.086  0.8250  0.2842 -0.3190
    1SOL     OW 1961   4.481   0.102   1.203  0.1594 -0.0198 -0.7268
    1SOL    HW2 1962   4.417   0.040   1.169  1.8550 -3.2031  1.5979
    1SOL    HW3 1963   4.566   0.068   1.173  1.1814  0.7093  1.2056
    1SOL    MW4 1964   4.484   0.090   1.194  0.5178 -0.3436 -0.1652
    1SOL     OW 1965   4.490   0.355   1.121 -0.0860  0.3791  0.4901
    1SOL    HW2 1966   4.409   0.386   1.161 -0.3439 -1.6883  1.6338
    1SOL    HW3 1967   4.493   0.262   1.142  1.3215 -0.1111 -1.7063
    1SOL    MW4 1968   4.480   0.347   1.129  0.0658  0.0416  0.3513
    1SOL     OW 1969   0.227   0.504   1.190  0.3664  0.0569 -0.2260
    1SOL    HW2 1970   0.215   0.589   1.148  0.0073  1.3624  2.4126
    1SOL    HW3 1971   0.147   0.456   1.170  0.2526  0.6132 -1.1195
    1SOL    MW4 1972   0.215   0.509   1.182  0.3040  0.3026  0.0043
    1SOL     OW 1973   0.207   0.781   1.113 -0.1487 -0.6444 -0.2579
    1SOL    HW2 1974   0.287   0.800   1.162  0.5954 -0.0544 -1.6738
    1SOL    HW3 1975   0.137   0.823   1.164  0.4268 -1.1853  0.9976
    1SOL    MW4 1976   0.208   0.789   1.126  0.0254 -0.6379 -0.2789
    1SOL     OW 1977   4.482   0.870   1.258  0.2185  0.2730 -0.3105
    1SOL    HW2 1978   4.477   0.870   1.354  2.3878 -1.0750 -0.1707
    1SOL    HW3 1979   4.399   0.831   1.230 -0.1355  0.0291  1.0185
    1SOL    MW4 1980   4.470   0.865   1.267  0.4582  0.0630 -0.1167
    1SOL     OW 1981   4.451   1.103   1.117  0.2608  0.3585  0.4870
    1SOL    HW2 1982   4.384   1.155   1.160 -0.9486  0.5618 -1.5834
    1SOL    HW3 1983   4.452   1.020   1.166 -1.7531  0.2194  0.3217
    1SOL    MW4 1984   4.443   1.099   1.129 -0.1640  0.3670  0.1919
    1SOL     OW 1985   0.195   1.234   1.268 -0.2098 -0.0898  0.4083
    1SOL    HW2 1986   0.277   1.193   1.239 -0.9730  0.5563 -2.8841
    1SOL    HW3 1987   0.127   1.188   1.219 -1.6973  0.4697  1.9112
    1SOL    MW4 1988   0.197   1.223   1.258 -0.5068  0.0693  0.1721
    1SOL     OW 1989   0.232   1.512   1.112 -0.5573 -0.5771 -0.3279
    1SOL    HW2 1990   0.242   1.421   1.140 -0.1214 -0.8008 -1.2026
    1SOL    HW3 1991   0.199   1.506   1.023 -0.5002  0.1252 -0.3956
    1SOL    MW4 1992   0.229   1.499   1.104 -0.4922 -0.5140 -0.4522
    1SOL     OW 1993   0.016   1.663   1.220  0.0086 -0.1275  0.1838
    1SOL    HW2 1994   0.005   1.745   1.171  1.8246  0.7757  1.2352
    1SOL    HW3 1995   0.094   1.622   1.181 -0.5684 -1.0973  0.0296
    1SOL    MW4 1996   0.025   1.668   1.208  0.1720 -0.1363  0.3023
    1SOL     OW 1997   4.486   1.918   1.129 -0.7897  0.0084 -0.0740
    1SOL    HW2 1998   4.420   1.968   1.176  0.2627  2.0636 -0.7233
    1SOL    HW3 1999   4.464   1.928   1.037 -0.9952 -1.3799 -0.1959
    1SOL    MW4 2000   4.475   1.926   1.123 -0.6779  0.0963 -0.1756
    1SOL     OW 2001   0.237   2.023   1.197  0.5350 -0.8809 -0.1850
    1SOL    HW2 2002   0.231   2.116   1.176  0.4521 -0.7021  0.6134
    1SOL    HW3 2003   0.152   1.987   1.170 -0.6690 -0.1145  2.4475
    1SOL    MW4 2004   0.225   2.030   1.191  0.3652 -0.7563  0.2677
    1SOL     OW 2005   0.228   2.288   1.157  0.3126 -0.0361  0.0291
    1SOL    HW2 2006   0.306   2.336   1.187  0.7922 -0.4452 -0.5338
    1SOL    HW3 2007   0.154   2.338   1.191  0.8325 -0.4976  1.8699
    1SOL    MW4 2008   0.229   2.301   1.165  0.4444 -0.1509  0.1976
    1SOL     OW 2009   0.022   2.424   1.257  0.7514 -0.0573 -0.0852
    1SOL    HW2 2010  -0.003   2.440   1.348  0.9142 -1.7270  0.2654
    1SOL    HW3 2011  -0.053   2.378   1.220  1.2987 -0.7184 -0.3798
    1SOL    MW4 2012   0.009   2.420   1.264  0.8450 -0.3648 -0.0778
    1SOL     OW 2013   0.007   2.687   1.135 -0.2502  0.1716 -0.0174
    1SOL    HW2 2014  -0.069   2.736   1.165  0.0837  0.5639  0.1841
    1SOL    HW3 2015   0.006   2.606   1.186 -0.4451  0.2460  0.0927
    1SOL    MW4 2016  -0.003   2.683   1.146 -0.2317  0.2332  0.0238
    1SOL     OW 2017   0.187   2.859   1.265  0.1592 -0.0420 -0.4831
    1SOL    HW2 2018   0.201   2.843   1.359  0.4370 -0.3310 -0.5743
    1SOL    HW3 2019   0.126   2.791   1.238  0.4318 -0.2334 -0.6135
    1SOL    MW4 2020   0.181   2.848   1.274  0.2318 -0.1054 -0.5124
    1SOL     OW 2021   0.229   3.116   1.116  0.1517  0.7716 -0.0465
    1SOL    HW2 2022   0.316   3.146   1.140  0.1147  0.2795  0.7023
    1SOL    HW3 2023   0.220   3.031   1.158 -0.5984  0.7131 -0.3159
    1SOL    MW4 2024   0.239   3.109   1.125  0.0478  0.6986  0.0167
    1SOL     OW 2025   0.002   3.239   1.230 -0.2951  0.5869  0.2445
    1SOL    HW2 2026  -0.062   3.191   1.176  0.5474  0.1054 -0.3416
    1SOL    HW3 2027   0.087   3.205   1.202  0.3074  2.2894 -0.0495
    1SOL    MW4 2028   0.005   3.228   1.219 -0.1045  0.7479  0.1285
    1SOL     OW 2029   0.023   3.480   1.118  0.2370 -0.3392 -0.7551
    1SOL    HW2 2030   0.024   3.393   1.156  0.2942 -0.2565 -0.5662
    1SOL    HW3 2031   0.023   3.465   1.023  0.2081 -0.5429 -0.7226
    1SOL    MW4 2032   0.023   3.467   1.110  0.2407 -0.3550 -0.7259
    1SOL     OW 2033   0.280   3.579   1.221 -0.1321  0.0195 -0.5243
    1SOL    HW2 2034   0.264   3.600   1.313 -0.6409 -2.7808  0.0810
    1SOL    HW3 2035   0.196   3.544   1.190  1.1611 -2.9121 -0.8812
    1SOL    MW4 2036   0.267   3.577   1.229 -0.0286 -0.7365 -0.4916
    1SOL     OW 2037   0.262   3.838   1.119  0.3724 -0.5752 -0.0539
    1SOL    HW2 2038   0.180   3.880   1.145  0.4623 -0.3652 -0.1010
    1SOL    HW3 2039   0.272   3.764   1.179  0.1591 -0.5879 -0.0346
    1SOL    MW4 2040   0.253   3.834   1.130  0.3561 -0.5491 -0.0575
    1SOL     OW 2041   0.022   3.948   1.231 -0.4813 -0.3290 -0.0130
    1SOL    HW2 2042   0.007   3.951   1.326  1.1768 -1.6562  0.3147
    1SOL    HW3 2043  -0.059   3.909   1.196 -1.0466  0.0413  0.8666
    1SOL    MW4 2044   0.009   3.943   1.239 -0.3371 -0.4551  0.1463
    1SOL     OW 2045   4.482   4.237   1.167 -0.3088 -0.2232 -0.5472
    1SOL    HW2 2046   4.561   4.290   1.174 -0.6162 -0.0051  1.5369
    1SOL    HW3 2047   4.506   4.153   1.205 -0.7145 -0.5855 -1.0786
    1SOL    MW4 2048   4.495   4.233   1.173 -0.4029 -0.2418 -0.3424
    1SOL     OW 2049   0.227   4.391   1.197  0.1290 -0.2355  0.0516
    1SOL    HW2 2050   0.209   4.389   1.291 -1.4823 -0.9141 -0.2642
    1SOL    HW3 2051   0.230   4.484   1.174  0.9327 -0.0630  0.8403
    1SOL    MW4 2052   0.225   4.403   1.206  0.0224 -0.3018  0.1140
    1SOL     OW 2053   0.650   4.614   1.109 -0.2333  0.2850  0.0847
    1SOL    HW2 2054   0.723   4.667   1.142  1.3758 -1.2054 -1.0293
    1SOL    HW3 2055   0.651   4.536   1.164 -0.8568  0.1644 -0.0779
    1SOL    MW4 2056   0.660   4.611   1.121 -0.1032  0.0730 -0.0837
    1SOL     OW 2057   0.429   0.098   1.221  0.3596  0.1129 -0.0619
    1SOL    HW2 2058   0.437   0.189   1.191  0.6651  0.1447  0.1081
    1SOL    HW3 2059   0.488   0.049   1.164 -1.0230 -0.2350 -1.2105
    1SOL    MW4 2060   0.438   0.104   1.209  0.2175  0.0712 -0.1911
    1SOL     OW 2061   0.447   0.343   1.103  0.5590  0.1479  0.0787
    1SOL    HW2 2062   0.376   0.399   1.134  1.3818  0.8227  0.7940
    1SOL    HW3 2063   0.447   0.354   1.008 -0.6448 -0.2935  0.0257
    1SOL    MW4 2064   0.438   0.352   1.094  0.5088  0.1787  0.1658
    1SOL     OW 2065   0.653   0.475   1.276 -0.1542 -0.0589  0.4190
    1SOL    HW2 2066   0.638   0.568   1.259  0.2006 -0.0122  0.3574
    1SOL    HW3 2067   0.589   0.429   1.221  1.6341  0.0571 -1.8408
    1SOL    MW4 2068   0.643   0.481   1.266  0.1285 -0.0374  0.1128
    1SOL     OW 2069   0.655   0.736   1.176  0.2302 -0.0620  0.1955
    1SOL    HW2 2070   0.582   0.790   1.207  0.2552  0.2256 -0.2417
    1SOL    HW3 2071   0.641   0.729   1.081  0.9370  0.2384  0.0666
    1SOL    MW4 2072   0.643   0.742   1.167  0.3267  0.0156  0.1208
    1SOL     OW 2073   0.433   0.862   1.259  0.0414  0.1058 -0.2687
    1SOL    HW2 2074   0.423   0.871   1.353 -2.0158 -0.5827 -0.4087
    1SOL    HW3 2075   0.427   0.951   1.225  0.7111  0.3438  0.2381
    1SOL    MW4 2076   0.431   0.875   1.267 -0.1417  0.0464 -0.2203
    1SOL     OW 2077   0.425   1.126   1.154  0.1615 -0.0554  0.3136
    1SOL    HW2 2078   0.488   1.192   1.181 -0.0909  0.0177  0.7255
    1SOL    HW3 2079   0.410   1.142   1.061  0.8632 -0.1659  0.1823
    1SOL    MW4 2080   0.431   1.137   1.146  0.2208 -0.0603  0.3506
    1SOL     OW 2081   0.653   1.274   1.258 -0.0832  0.1563 -0.3300
    1SOL    HW2 2082   0.714   1.218   1.210 -0.6189 -0.4615 -0.3058
    1SOL    HW3 2083   0.673   1.363   1.229  1.2824  0.0267  0.1777
    1SOL    MW4 2084   0.664   1.278   1.248  0.0262  0.0577 -0.2596
    1SOL     OW 2085   0.679   1.532   1.143 -0.2200 -0.3103 -0.2318
    1SOL    HW2 2086   0.754   1.577   1.183  0.9850 -2.9698  0.6081
    1SOL    HW3 2087   0.604   1.588   1.163  1.4610  2.1316 -0.6127
    1SOL    MW4 2088   0.679   1.545   1.151  0.1608 -0.3392 -0.1712
    1SOL     OW 2089   0.440   1.692   1.202  0.0677 -0.0527  0.2962
    1SOL    HW2 2090   0.429   1.684   1.296 -1.9433  2.9102  0.3862
    1SOL    HW3 2091   0.369   1.639   1.165  0.4776 -0.7194  0.4775
    1SOL    MW4 2092   0.429   1.684   1.209 -0.1436  0.2502  0.3320
    1SOL     OW 2093   0.477   1.968   1.117  0.1893 -0.1156  0.1723
    1SOL    HW2 2094   0.483   1.874   1.133  1.2001 -0.3481 -1.4466
    1SOL    HW3 2095   0.388   1.991   1.146 -0.5067 -1.7961 -0.5281
    1SOL    MW4 2096   0.466   1.958   1.123  0.2308 -0.3680 -0.1336
    1SOL     OW 2097   0.678   2.114   1.246  0.2219  0.5839  0.1430
    1SOL    HW2 2098   0.668   2.110   1.341 -0.3535 -0.6449  0.0460
    1SOL    HW3 2099   0.611   2.054   1.213  1.4055 -0.1229 -0.9808
    1SOL    MW4 2100   0.668   2.106   1.254  0.3022  0.3283 -0.0180
    1SOL     OW 2101   0.644   2.365   1.142  0.1720  0.1136  0.1043
    1SOL    HW2 2102   0.577   2.409   1.195 -2.0648 -1.0516 -1.6610
    1SOL    HW3 2103   0.656   2.280   1.185  1.0963  0.6363  0.8756
    1SOL    MW4 2104   0.636   2.359   1.155 -0.0011  0.0288 -0.0268
    1SOL     OW 2105   0.419   2.439   1.266  0.0365 -0.0652 -0.7295
    1SOL    HW2 2106   0.427   2.425   1.360 -1.3452 -1.9809 -0.8778
    1SOL    HW3 2107   0.424   2.534   1.255  0.5012  0.1551  1.2241
    1SOL    MW4 2108   0.421   2.450   1.277 -0.0844 -0.2890 -0.4913
    1SOL     OW 2109   0.394   2.703   1.151  0.1266  0.0549 -0.3223
    1SOL    HW2 2110   0.330   2.752   1.202  0.3723  0.2632 -0.2172
    1SOL    HW3 2111   0.353   2.693   1.065  0.1270  0.5409 -0.3795
    1SOL    MW4 2112   0.380   2.708   1.146  0.1590  0.1464 -0.3159
    1SOL     OW 2113   0.656   2.844   1.180  0.4990 -0.1655  0.2181
    1SOL    HW2 2114   0.660   2.917   1.118  0.0444  0.8908  1.3965
    1SOL    HW3 2115   0.576   2.796   1.155  0.4898  0.0639 -0.2050
    1SOL    MW4 2116   0.646   2.847   1.168  0.4378  0.0043  0.3179
    1SOL     OW 2117   0.684   3.090   1.051 -0.1824  0.0115  0.1601
    1SOL    HW2 2118   0.756   3.134   1.096  0.3764  1.0427 -1.6607
    1SOL    HW3 2119   0.698   3.110   0.958 -0.7254 -2.8482 -0.6045
    1SOL    MW4 2120   0.695   3.098   1.044 -0.1803 -0.2296 -0.1810
    1SOL     OW 2121   0.471   3.210   1.202 -0.2596  0.2135  0.1581
    1SOL    HW2 2122   0.476   3.302   1.176 -0.2179  0.1610 -0.0182
    1SOL    HW3 2123   0.540   3.167   1.151  1.4297  0.5384  2.1177
    1SOL    MW4 2124   0.481   3.216   1.192 -0.0312  0.2494  0.3933
    1SOL     OW 2125   0.478   3.467   1.076 -0.3858 -0.0161 -0.1162
    1SOL    HW2 2126   0.553   3.506   1.122  0.0352  1.4376 -1.9837
    1SOL    HW3 2127   0.402   3.513   1.110 -0.0760  1.0648 -0.8709
    1SOL    MW4 2128   0.478   3.478   1.086 -0.2894  0.3181 -0.4622
    1SOL     OW 2129   0.681   3.600   1.202  0.0658  0.2294  0.1376
    1SOL    HW2 2130   0.681   3.622   1.295  0.0393 -0.9850  0.4237
    1SOL    HW3 2131   0.655   3.682   1.159 -2.3195  0.1701  1.3610
    1SOL    MW4 2132   0.677   3.614   1.208 -0.2524  0.0613  0.3368
    1SOL     OW 2133   0.631   3.877   1.118  0.1947 -0.1188  0.0251
    1SOL    HW2 2134   0.568   3.939   1.155  0.0518 -0.0498 -0.3351
    1SOL    HW3 2135   0.626   3.890   1.024  1.8973  0.9907  0.0719
    1SOL    MW4 2136   0.622   3.887   1.111  0.4005  0.0367 -0.0162
    1SOL     OW 2137   0.428   4.014   1.234  0.1952 -0.5251  0.1317
    1SOL    HW2 2138   0.435   4.092   1.180  2.6168 -0.6477  0.2238
    1SOL    HW3 2139   0.372   3.955   1.183  1.0579  0.0103 -1.4685
    1SOL    MW4 2140   0.421   4.016   1.220  0.6285 -0.4702 -0.0672
    1SOL     OW 2141   0.434   4.238   1.045 -0.0906 -0.0325  0.0111
    1SOL    HW2 2142   0.510   4.283   1.082  0.6110 -0.3494 -1.0174
    1SOL    HW3 2143   0.359   4.287   1.078  0.3790 -1.4720  3.4873
    1SOL    MW4 2144   0.434   4.251   1.055  0.0639 -0.2642  0.3339
    1SOL     OW 2145   0.650   4.356   1.194 -0.7165 -0.0089  0.0626
    1SOL    HW2 2146   0.651   4.341   1.289 -0.7589 -0.0280  0.0599
    1SOL    HW3 2147   0.735   4.326   1.164 -1.1560 -1.1272 -0.0810
    1SOL    MW4 2148   0.661   4.350   1.203 -0.7800 -0.1593  0.0433
    1SOL     OW 2149   1.117   4.667   1.149 -0.2855  0.1964 -0.2918
    1SOL    HW2 2150   1.111   4.576   1.178  0.7698  0.1410 -0.2540
    1SOL    HW3 2151   1.133   4.661   1.055 -0.6926  0.3511 -0.3724
    1SOL    MW4 2152   1.118   4.654   1.141 -0.2000  0.2095 -0.2975
    1SOL     OW 2153   0.856   0.113   1.212  0.3547  0.1252  0.2882
    1SOL    HW2 2154   0.845   0.123   1.307  0.9488  0.4706  0.3304
    1SOL    HW3 2155   0.939   0.067   1.203  0.8558  1.0778 -0.0853
    1SOL    MW4 2156   0.866   0.108   1.224  0.4992  0.2964  0.2446
    1SOL     OW 2157   0.886   0.386   1.146 -0.3612 -0.1161  0.4679
    1SOL    HW2 2158   0.875   0.294   1.170 -1.0670 -0.3436 -0.6971
    1SOL    HW3 2159   0.807   0.428   1.177 -0.8264 -0.2285 -0.5491
    1SOL    MW4 2160   0.874   0.379   1.153 -0.5157 -0.1609  0.1800
    1SOL     OW 2161   1.092   0.500   1.274 -0.4559  0.0890  0.4632
    1SOL    HW2 2162   1.098   0.498   1.370 -0.8112  2.3767  0.5716
    1SOL    HW3 2163   1.009   0.456   1.255 -0.3849 -0.3815  1.2253
    1SOL    MW4 2164   1.082   0.494   1.284 -0.4934  0.3288  0.5779
    1SOL     OW 2165   1.088   0.763   1.156  0.3509  0.3763  0.2328
    1SOL    HW2 2166   1.019   0.820   1.188  0.7101  0.9361  0.0211
    1SOL    HW3 2167   1.085   0.686   1.213  0.1113  0.7761  0.7553
    1SOL    MW4 2168   1.079   0.760   1.168  0.3667  0.5029  0.2738
    1SOL     OW 2169   0.867   0.919   1.261  0.5545 -0.1458 -0.2608
    1SOL    HW2 2170   0.860   0.998   1.208  1.8905 -0.9184 -1.6315
    1SOL    HW3 2171   0.791   0.866   1.236 -0.7566  1.0083  1.2140
    1SOL    MW4 2172   0.856   0.922   1.251  0.5578 -0.0954 -0.2471
    1SOL     OW 2173   0.848   1.153   1.126 -0.4284 -0.7801 -0.0202
    1SOL    HW2 2174   0.932   1.197   1.140 -0.6752 -0.2794 -0.1249
    1SOL    HW3 2175   0.831   1.163   1.033 -1.2163  0.2050  0.2256
    1SOL    MW4 2176   0.857   1.160   1.116 -0.5650 -0.5840 -0.0017
    1SOL     OW 2177   1.081   1.288   1.222 -0.2267 -0.0272  0.1048
    1SOL    HW2 2178   1.079   1.291   1.318  0.1708 -0.6000  0.1303
    1SOL    HW3 2179   1.163   1.245   1.201 -0.6439 -0.5472 -0.4812
    1SOL    MW4 2180   1.091   1.283   1.232 -0.2294 -0.1713  0.0309
    1SOL     OW 2181   1.109   1.564   1.165 -0.3322 -0.0611 -0.0499
    1SOL    HW2 2182   1.105   1.471   1.188 -0.9868  0.1495  0.7237
    1SOL    HW3 2183   1.094   1.566   1.071  0.4207 -0.7917 -0.1975
    1SOL    MW4 2184   1.107   1.552   1.156 -0.3194 -0.1296  0.0328
    1SOL     OW 2185   0.865   1.708   1.243 -0.4762 -0.2248 -0.0852
    1SOL    HW2 2186   0.863   1.795   1.204 -0.6644 -0.2724 -0.1808
    1SOL    HW3 2187   0.943   1.667   1.206  0.4707  0.4412  1.1160
    1SOL    MW4 2188   0.875   1.714   1.233 -0.3761 -0.1432  0.0608
    1SOL     OW 2189   0.901   1.955   1.129  0.2254 -0.4252  0.2289
    1SOL    HW2 2190   0.976   2.013   1.146 -1.0042  1.3376 -0.2696
    1SOL    HW3 2191   0.825   2.005   1.158 -0.8051 -2.0981  0.4683
    1SOL    MW4 2192   0.901   1.969   1.135 -0.0728 -0.4135  0.1947
    1SOL     OW 2193   1.125   2.094   1.183  0.2991 -0.2476 -0.1193
    1SOL    HW2 2194   1.107   2.115   1.275 -2.5307 -0.0947 -0.6472
    1SOL    HW3 2195   1.134   2.180   1.141  0.9544 -0.3059 -0.0934
    1SOL    MW4 2196   1.124   2.108   1.190  0.0122 -0.2353 -0.1856
    1SOL     OW 2197   1.150   2.352   1.100  0.0153  0.0757  0.2796
    1SOL    HW2 2198   1.217   2.384   1.160  0.4426 -1.3606  0.5944
    1SOL    HW3 2199   1.067   2.366   1.147  0.2146  0.4345  0.5259
    1SOL    MW4 2200   1.148   2.358   1.114  0.0980 -0.0665  0.3537
    1SOL     OW 2201   0.908   2.397   1.237 -0.4346 -0.7695  0.7360
    1SOL    HW2 2202   0.907   2.412   1.332  0.7319  1.6481  0.4235
    1SOL    HW3 2203   0.817   2.405   1.210 -0.3380  2.7545  1.1415
    1SOL    MW4 2204   0.896   2.400   1.246 -0.2679  0.0143  0.7483
    1SOL     OW 2205   0.901   2.699   1.142 -0.2036 -0.6412 -0.1538
    1SOL    HW2 2206   0.916   2.613   1.181 -0.0606 -0.9134 -0.8194
    1SOL    HW3 2207   0.815   2.725   1.175  0.1057 -0.6763  0.7081
    1SOL    MW4 2208   0.892   2.691   1.152 -0.1439 -0.6816 -0.1279
    1SOL     OW 2209   1.108   2.853   1.208  0.6726 -0.3992 -0.0570
    1SOL    HW2 2210   1.127   2.840   1.300 -0.9349  1.4976  0.5706
    1SOL    HW3 2211   1.027   2.804   1.193 -0.2083  0.9996  0.0561
    1SOL    MW4 2212   1.100   2.845   1.218  0.3443  0.0355  0.0409
    1SOL     OW 2213   1.152   3.123   1.111 -0.6746  0.2556 -0.1451
    1SOL    HW2 2214   1.135   3.030   1.128 -1.2259  0.2256 -0.8103
    1SOL    HW3 2215   1.176   3.126   1.018 -0.4545  0.7535 -0.0738
    1SOL    MW4 2216   1.153   3.111   1.101 -0.7184  0.3171 -0.2234
    1SOL     OW 2217   0.902   3.217   1.210  0.5102  0.0565 -0.2271
    1SOL    HW2 2218   0.913   3.303   1.170 -1.6549  0.6731  0.3910
    1SOL    HW3 2219   0.979   3.167   1.183  1.8240  2.1995 -0.5441
    1SOL    MW4 2220   0.913   3.221   1.201  0.3979  0.4206 -0.1874
    1SOL     OW 2221   0.927   3.484   1.122  0.3714  0.9414  0.0464
    1SOL    HW2 2222   0.843   3.519   1.153 -0.0994  0.2941 -0.5045
    1SOL    HW3 2223   0.923   3.494   1.027  0.8138  0.6688  0.0029
    1SOL    MW4 2224   0.915   3.490   1.114  0.3677  0.8199 -0.0321
    1SOL     OW 2225   1.154   3.632   1.198  0.0333  0.7749  0.0007
    1SOL    HW2 2226   1.232   3.593   1.159  0.0202 -0.2875  1.0052
    1SOL    HW3 2227   1.081   3.581   1.164  0.0043 -0.0085  1.2004
    1SOL    MW4 2228   1.154   3.620   1.189  0.0277  0.5314  0.2915
    1SOL     OW 2229   1.119   3.885   1.104 -0.1904 -0.3241  0.3753
    1SOL    HW2 2230   1.036   3.927   1.128  1.5762  2.1886  2.3383
    1SOL    HW3 2231   1.118   3.802   1.151 -1.6375 -0.3468  0.3256
    1SOL    MW4 2232   1.108   3.880   1.113 -0.1482  0.0043  0.6278
    1SOL     OW 2233   0.886   3.989   1.210 -0.3072  0.3771  0.2322
    1SOL    HW2 2234   0.906   3.991   1.303 -1.0644 -1.6976  0.4693
    1SOL    HW3 2235   0.809   3.933   1.203  0.6959 -0.8285 -1.7976
    1SOL    MW4 2236   0.879   3.982   1.221 -0.2747 -0.0558 -0.0044
    1SOL     OW 2237   0.902   4.263   1.123 -0.4668  0.4570 -0.1884
    1SOL    HW2 2238   0.889   4.173   1.155 -0.1586  0.6076  0.3513
    1SOL    HW3 2239   0.916   4.252   1.028  0.7845 -0.1688  0.0626
    1SOL    MW4 2240   0.902   4.249   1.114 -0.2610  0.3939 -0.0840
    1SOL     OW 2241   1.134   4.397   1.205  0.4258  0.0432  0.2828
    1SOL    HW2 2242   1.144   4.359   1.292  0.7262 -0.5169  0.0036
    1SOL    HW3 2243   1.056   4.354   1.169  0.1613  0.4502  0.3653
    1SOL    MW4 2244   1.125   4.386   1.212  0.4306  0.0234  0.2567
    1SOL     OW 2245   1.602   0.022   1.066  0.0907 -0.0314  0.0450
    1SOL    HW2 2246   1.663   0.070   1.122  0.0778 -0.7044  0.6418
    1SOL    HW3 2247   1.594  -0.064   1.108 -0.9307 -0.0928 -0.2747
    1SOL    MW4 2248   1.609   0.017   1.079 -0.0458 -0.1283  0.0815
    1SOL     OW 2249   1.364   0.153   1.231 -0.4328 -0.2918  0.1929
    1SOL    HW2 2250   1.445   0.120   1.192 -0.5761  0.8805 -1.1192
    1SOL    HW3 2251   1.296   0.094   1.200 -0.1494 -1.0501  0.9891
    1SOL    MW4 2252   1.365   0.141   1.222 -0.4144 -0.2372  0.1248
    1SOL     OW 2253   1.343   0.421   1.137 -0.2947 -0.5726 -0.1267
    1SOL    HW2 2254   1.348   0.328   1.159  1.9733 -0.6024 -0.6107
    1SOL    HW3 2255   1.261   0.451   1.176 -0.7164 -2.6269  0.6049
    1SOL    MW4 2256   1.333   0.413   1.145 -0.0510 -0.8476 -0.0939
    1SOL     OW 2257   1.568   0.519   1.256 -0.3728 -0.1037  0.3806
    1SOL    HW2 2258   1.559   0.613   1.242  0.7863 -0.0763 -0.2413
    1SOL    HW3 2259   1.489   0.481   1.216  0.1568  0.4394 -1.2292
    1SOL    MW4 2260   1.556   0.527   1.249 -0.1500 -0.0285  0.0863
    1SOL     OW 2261   1.562   0.763   1.129  0.1250 -0.0941 -0.0148
    1SOL    HW2 2262   1.636   0.795   1.180 -0.5641  1.1449  0.2509
    1SOL    HW3 2263   1.599   0.741   1.043  1.0195 -0.7548  0.5371
    1SOL    MW4 2264   1.576   0.765   1.124  0.1521 -0.0178  0.0930
    1SOL     OW 2265   1.332   0.861   1.258 -0.0584 -0.6588 -0.4306
    1SOL    HW2 2266   1.393   0.812   1.202  0.5711  0.3730 -0.6599
    1SOL    HW3 2267   1.245   0.832   1.230  0.2976 -1.1859 -0.9933
    1SOL    MW4 2268   1.328   0.851   1.247  0.0716 -0.5922 -0.5350
    1SOL     OW 2269   1.314   1.130   1.144  0.2887 -0.5381  0.7111
    1SOL    HW2 2270   1.310   1.040   1.175 -0.5783 -0.5926  0.4394
    1SOL    HW3 2271   1.327   1.122   1.049 -2.9075 -0.4000  0.2294
    1SOL    MW4 2272   1.315   1.117   1.135 -0.2476 -0.5271  0.6117
    1SOL     OW 2273   1.535   1.286   1.216 -0.0045  0.0149  0.4260
    1SOL    HW2 2274   1.602   1.218   1.206  0.7191  0.9440 -1.4105
    1SOL    HW3 2275   1.452   1.239   1.209  0.4862 -0.6929 -1.0078
    1SOL    MW4 2276   1.533   1.271   1.213  0.1558  0.0440 -0.0055
    1SOL     OW 2277   1.571   1.563   1.127  0.2279 -0.3378 -0.0033
    1SOL    HW2 2278   1.649   1.587   1.177  0.7254 -0.8228 -0.5490
    1SOL    HW3 2279   1.551   1.474   1.155 -1.2319  0.4384  1.5254
    1SOL    MW4 2280   1.579   1.554   1.137  0.1010 -0.2992  0.1264
    1SOL     OW 2281   1.343   1.685   1.241 -0.0668 -0.5526  0.3103
    1SOL    HW2 2282   1.415   1.633   1.205 -0.0210  0.2027 -0.6844
    1SOL    HW3 2283   1.266   1.631   1.227  0.0374 -0.5291 -0.3697
    1SOL    MW4 2284   1.342   1.671   1.235 -0.0470 -0.4499  0.0894
    1SOL     OW 2285   1.343   1.928   1.126  0.1677  0.0661  0.4418
    1SOL    HW2 2286   1.335   1.841   1.165  1.2078  0.0251  0.5726
    1SOL    HW3 2287   1.264   1.974   1.156 -0.4269 -0.8432  0.3134
    1SOL    MW4 2288   1.331   1.922   1.135  0.2265 -0.0594  0.4421
    1SOL     OW 2289   1.580   2.069   1.228 -0.2390 -0.1993  0.2486
    1SOL    HW2 2290   1.580   2.165   1.220  0.3367 -0.1304  1.0265
    1SOL    HW3 2291   1.494   2.043   1.195 -0.2731  0.5570 -0.2893
    1SOL    MW4 2292   1.569   2.078   1.222 -0.1675 -0.0904  0.2804
    1SOL     OW 2293   1.594   2.342   1.145 -0.2483  0.3847 -0.0166
    1SOL    HW2 2294   1.512   2.383   1.171 -0.1390  0.9470 -0.5426
    1SOL    HW3 2295   1.586   2.333   1.050  0.1767  0.1773 -0.0306
    1SOL    MW4 2296   1.582   2.346   1.136 -0.1779  0.4315 -0.0879
    1SOL     OW 2297   1.362   2.460   1.242 -0.2163 -0.1921  0.3920
    1SOL    HW2 2298   1.360   2.469   1.337  0.2608 -0.9109  0.4756
    1SOL    HW3 2299   1.374   2.549   1.209 -0.3866  0.0595  1.0028
    1SOL    MW4 2300   1.363   2.473   1.250 -0.1758 -0.2534  0.4836
    1SOL     OW 2301   1.363   2.701   1.109  0.7176  0.1824  0.5514
    1SOL    HW2 2302   1.425   2.765   1.145  0.4260  0.7974 -0.0345
    1SOL    HW3 2303   1.277   2.736   1.131  0.5608 -0.1274  0.4291
    1SOL    MW4 2304   1.360   2.714   1.117  0.6585  0.2227  0.4579
    1SOL     OW 2305   1.544   2.881   1.228  0.2517  0.0874 -0.1527
    1SOL    HW2 2306   1.627   2.835   1.221 -0.8327 -1.8216 -1.0526
    1SOL    HW3 2307   1.558   2.965   1.184  1.6168 -0.3103 -0.5015
    1SOL    MW4 2308   1.556   2.886   1.222  0.2886 -0.2172 -0.3175
    1SOL     OW 2309   1.599   3.116   1.115 -0.3505 -0.0345 -0.4871
    1SOL    HW2 2310   1.676   3.158   1.152  1.4986 -3.6226 -0.1073
    1SOL    HW3 2311   1.525   3.160   1.157  1.5186  1.3795  1.4095
    1SOL    MW4 2312   1.599   3.127   1.125  0.1401 -0.3214 -0.1869
    1SOL     OW 2313   1.371   3.252   1.211 -0.0770  0.2248  0.4191
    1SOL    HW2 2314   1.372   3.250   1.307 -0.5015  1.0134  0.4496
    1SOL    HW3 2315   1.291   3.206   1.187 -0.3480  0.6682  0.4697
    1SOL    MW4 2316   1.360   3.246   1.221 -0.1688  0.3874  0.4299
    1SOL     OW 2317   1.382   3.512   1.100  0.3152  0.0436  0.3422
    1SOL    HW2 2318   1.376   3.424   1.137 -0.4122  0.8133  2.0953
    1SOL    HW3 2319   1.356   3.501   1.009  1.2919 -1.7352  0.2401
    1SOL    MW4 2320   1.378   3.499   1.093  0.3481 -0.0896  0.5599
    1SOL     OW 2321   1.586   3.651   1.201  0.2899  0.0290  0.5112
    1SOL    HW2 2322   1.565   3.744   1.200 -0.5266 -0.1486  0.2372
    1SOL    HW3 2323   1.519   3.611   1.145  1.4769 -0.5512 -0.5469
    1SOL    MW4 2324   1.574   3.658   1.193  0.3389 -0.0710  0.3355
    1SOL     OW 2325   1.547   3.925   1.145  0.3244 -0.1093 -0.0934
    1SOL    HW2 2326   1.464   3.968   1.167  0.9330  0.6568  0.7783
    1SOL    HW3 2327   1.547   3.919   1.050  0.5253  2.4758 -0.2958
    1SOL    MW4 2328   1.536   3.930   1.136  0.4312  0.3326 -0.0051
    1SOL     OW 2329   1.305   4.032   1.241 -0.2087  0.1797 -0.1969
    1SOL    HW2 2330   1.317   4.115   1.195 -0.5607  0.1393 -0.3624
    1SOL    HW3 2331   1.248   3.981   1.183 -0.4132  0.0173  0.1495
    1SOL    MW4 2332   1.299   4.036   1.227 -0.2822  0.1531 -0.1730
    1SOL     OW 2333   1.344   4.281   1.117 -0.0171  0.1364 -0.5404
    1SOL    HW2 2334   1.273   4.336   1.148  0.5098  0.0530  0.8608
    1SOL    HW3 2335   1.336   4.282   1.022 -1.8402  0.1817 -0.3992
    1SOL    MW4 2336   1.334   4.288   1.109 -0.1879  0.1321 -0.3370
    1SOL     OW 2337   1.544   4.448   1.215 -0.6155  0.2111 -0.4096
    1SOL    HW2 2338   1.531   4.452   1.309 -0.0220  2.0512 -0.3890
    1SOL    HW3 2339   1.475   4.391   1.183 -1.6365  0.6603  0.9844
    1SOL    MW4 2340   1.533   4.441   1.223 -0.6719  0.5131 -0.2230
    1SOL     OW 2341   2.012   0.010   1.156 -0.1838  0.0880  0.0277
    1SOL    HW2 2342   2.019  -0.084   1.167  1.1649  0.1500 -0.2551
    1SOL    HW3 2343   2.007   0.023   1.061  2.3737  0.4576 -0.0925
    1SOL    MW4 2344   2.012  -0.000   1.145  0.3316  0.1454 -0.0255
    1SOL     OW 2345   1.770   0.150   1.240  0.2189  0.1002  0.3290
    1SOL    HW2 2346   1.784   0.233   1.194  0.4980  0.2310  0.6565
    1SOL    HW3 2347   1.846   0.096   1.217 -0.0218 -0.1124  0.0167
    1SOL    MW4 2348   1.782   0.153   1.231  0.2241  0.0894  0.3309
    1SOL     OW 2349   1.813   0.426   1.172 -0.5511  0.1602 -0.3286
    1SOL    HW2 2350   1.724   0.457   1.186 -0.2057  1.1284 -0.2083
    1SOL    HW3 2351   1.821   0.416   1.078 -0.4696  1.0675 -0.4236
    1SOL    MW4 2352   1.802   0.429   1.162 -0.4948  0.4076 -0.3252
    1SOL     OW 2353   2.065   0.465   1.259  0.1445  0.5832  0.3448
    1SOL    HW2 2354   2.076   0.480   1.353  1.7815  0.6305  0.1568
    1SOL    HW3 2355   1.972   0.445   1.249  0.0580  0.0458  2.0399
    1SOL    MW4 2356   2.054   0.465   1.270  0.3493  0.5186  0.5436
    1SOL     OW 2357   2.001   0.720   1.184  0.2090  0.1155  0.1990
    1SOL    HW2 2358   2.020   0.631   1.215  1.6222  0.4957  0.4223
    1SOL    HW3 2359   2.012   0.715   1.089  0.1840  0.0304  0.2007
    1SOL    MW4 2360   2.005   0.707   1.175  0.3922  0.1544  0.2286
    1SOL     OW 2361   1.764   0.889   1.275  0.3829  0.0716 -0.5256
    1SOL    HW2 2362   1.779   0.902   1.369  0.0895  1.9737 -0.7068
    1SOL    HW3 2363   1.841   0.842   1.244  0.5691 -0.3955  0.6465
    1SOL    MW4 2364   1.776   0.885   1.283  0.3687  0.2609 -0.3948
    1SOL     OW 2365   1.785   1.147   1.164 -0.4431 -0.0004 -0.0578
    1SOL    HW2 2366   1.782   1.058   1.197 -1.3370  0.1502  0.2692
    1SOL    HW3 2367   1.776   1.138   1.069  1.5744 -0.3953 -0.2345
    1SOL    MW4 2368   1.784   1.134   1.156 -0.2949 -0.0328 -0.0379
    1SOL     OW 2369   1.975   1.306   1.283  0.2441  0.4268  0.1799
    1SOL    HW2 2370   2.054   1.265   1.248  0.0928 -0.4573  0.8665
    1SOL    HW3 2371   1.903   1.256   1.243  0.0449  0.7181  0.1744
    1SOL    MW4 2372   1.976   1.294   1.273  0.1980  0.3486  0.2698
    1SOL     OW 2373   2.005   1.559   1.167  0.1711 -0.0884  0.4545
    1SOL    HW2 2374   1.995   1.471   1.203 -3.0719  0.3163  0.6890
    1SOL    HW3 2375   1.995   1.547   1.072 -1.5671  0.1947  0.6008
    1SOL    MW4 2376   2.003   1.545   1.159 -0.4859  0.0024  0.5046
    1SOL     OW 2377   1.787   1.675   1.281  0.2218 -0.0015 -0.2978
    1SOL    HW2 2378   1.786   1.763   1.244  0.5502 -0.2029 -0.7881
    1SOL    HW3 2379   1.861   1.632   1.239  1.2210  0.0877  1.3221
    1SOL    MW4 2380   1.797   1.681   1.271  0.3970 -0.0163 -0.1488
    1SOL     OW 2381   1.820   1.925   1.148  0.6423 -0.1075  0.3206
    1SOL    HW2 2382   1.738   1.967   1.175  0.5337  0.3262 -0.6726
    1SOL    HW3 2383   1.827   1.944   1.055  0.9896 -1.6258  0.0227
    1SOL    MW4 2384   1.810   1.933   1.140  0.6737 -0.2505  0.1503
    1SOL     OW 2385   2.023   2.093   1.271 -0.4579 -0.3104  0.3704
    1SOL    HW2 2386   2.015   2.093   1.367 -1.4206  0.4167  0.3097
    1SOL    HW3 2387   1.945   2.048   1.241 -1.1948  1.2438 -0.1146
    1SOL    MW4 2388   2.012   2.087   1.280 -0.6821 -0.0095  0.2984
    1SOL     OW 2389   2.058   2.352   1.164  0.1936  0.3639 -0.2325
    1SOL    HW2 2390   2.138   2.395   1.194  0.5745 -1.7105  1.8447
    1SOL    HW3 2391   2.061   2.265   1.203 -2.8319  0.0555 -0.5445
    1SOL    MW4 2392   2.069   2.346   1.173 -0.1554  0.0494  0.0004
    1SOL     OW 2393   1.821   2.463   1.270  0.3197 -0.5247 -0.3432
    1SOL    HW2 2394   1.903   2.434   1.230  0.6074  0.5279 -0.5400
    1SOL    HW3 2395   1.753   2.417   1.223  0.8377 -2.0244  0.3495
    1SOL    MW4 2396   1.823   2.453   1.259  0.4259 -0.5839 -0.2776
    1SOL     OW 2397   1.784   2.745   1.192  0.6760 -0.0011 -0.1554
    1SOL    HW2 2398   1.793   2.662   1.239 -1.7399 -0.2605 -0.1035
    1SOL    HW3 2399   1.763   2.720   1.102 -0.6479  0.5402 -0.0097
    1SOL    MW4 2400   1.782   2.731   1.187  0.1825  0.0360 -0.1293
    1SOL     OW 2401   2.044   2.836   1.248 -0.4548 -0.4036 -0.0144
    1SOL    HW2 2402   2.049   2.925   1.212  0.2024 -0.2616  0.4095
    1SOL    HW3 2403   1.954   2.808   1.232  0.5986 -1.5093 -4.4922
    1SOL    MW4 2404   2.033   2.844   1.241 -0.2291 -0.5307 -0.5493
    1SOL     OW 2405   2.038   3.096   1.137 -0.1174  0.1348  0.6326
    1SOL    HW2 2406   1.962   3.138   1.177  0.3100  1.3343  0.1910
    1SOL    HW3 2407   2.024   3.108   1.043  0.1551 -0.4600  0.5158
    1SOL    MW4 2408   2.026   3.103   1.130 -0.0253  0.2148  0.5587
    1SOL     OW 2409   1.807   3.250   1.234 -0.3473  0.0529 -0.1751
    1SOL    HW2 2410   1.805   3.259   1.329 -0.5109  1.4749 -0.3113
    1SOL    HW3 2411   1.824   3.338   1.201 -0.0103 -0.4743 -1.4598
    1SOL    MW4 2412   1.809   3.263   1.242 -0.3245  0.1709 -0.3625
    1SOL     OW 2413   1.820   3.510   1.141  0.1661 -0.6395  0.1350
    1SOL    HW2 2414   1.890   3.559   1.184  0.7502  0.0434 -1.5167
    1SOL    HW3 2415   1.740   3.554   1.169  0.6263  0.6943 -0.5523
    1SOL    MW4 2416   1.819   3.522   1.150  0.3041 -0.3734 -0.1736
    1SOL     OW 2417   2.007   3.676   1.266  0.2527  0.0354  0.4108
    1SOL    HW2 2418   2.009   3.679   1.361 -0.4384 -0.9375  0.4722
    1SOL    HW3 2419   2.081   3.620   1.242  0.9574  1.0004  0.3291
    1SOL    MW4 2420   2.017   3.669   1.275  0.2542  0.0346  0.4081
    1SOL     OW 2421   1.992   3.909   1.121 -0.1157  0.5316 -0.0435
    1SOL    HW2 2422   1.918   3.965   1.143 -1.2154 -0.6320 -0.7418
    1SOL    HW3 2423   1.981   3.833   1.178 -0.4681 -0.4570 -1.4240
    1SOL    MW4 2424   1.981   3.906   1.132 -0.3072  0.2477 -0.3178
    1SOL     OW 2425   1.773   4.071   1.228 -0.0288  0.0689 -0.1617
    1SOL    HW2 2426   1.765   4.074   1.324 -0.6014 -1.7296 -0.1339
    1SOL    HW3 2427   1.694   4.025   1.199  1.2055 -1.3780 -1.3287
    1SOL    MW4 2428   1.761   4.065   1.237  0.0585 -0.3595 -0.3120
    1SOL     OW 2429   1.753   4.313   1.105  0.0831  0.1439  0.1378
    1SOL    HW2 2430   1.762   4.232   1.154  0.2410  0.7660  1.1519
    1SOL    HW3 2431   1.679   4.358   1.145 -1.0280 -0.2305 -1.4658
    1SOL    MW4 2432   1.745   4.309   1.117 -0.0428  0.1764  0.0600
    1SOL     OW 2433   2.006   4.402   1.214  0.1553  0.2355  0.1452
    1SOL    HW2 2434   2.010   4.401   1.310 -2.4863  0.9648  0.2969
    1SOL    HW3 2435   1.919   4.367   1.193  0.9049 -0.3914 -2.0117
    1SOL    MW4 2436   1.995   4.397   1.224 -0.0944  0.2494 -0.1194
    1SOL     OW 2437   2.497   4.635   1.124 -0.2451  0.0144 -0.1549
    1SOL    HW2 2438   2.577   4.674   1.158 -0.6767  1.7894 -1.1356
    1SOL    HW3 2439   2.426   4.685   1.164 -0.8727 -1.3699  0.5008
    1SOL    MW4 2440   2.498   4.647   1.134 -0.3850  0.0658 -0.1978
    1SOL     OW 2441   2.282   0.103   1.248  0.3905  0.5085 -0.0343
    1SOL    HW2 2442   2.272   0.185   1.199  1.1138  0.9199  0.5057
    1SOL    HW3 2443   2.205   0.051   1.223  0.8147  0.6660 -1.7076
    1SOL    MW4 2444   2.270   0.107   1.238  0.5419  0.5836 -0.1838
    1SOL     OW 2445   2.268   0.360   1.118  0.4736  0.3858  0.3882
    1SOL    HW2 2446   2.193   0.389   1.169  0.7393  2.9171 -0.5656
    1SOL    HW3 2447   2.239   0.363   1.027  0.9267 -1.1906  0.1728
    1SOL    MW4 2448   2.254   0.364   1.112  0.5684  0.5118  0.2339
    1SOL     OW 2449   2.490   0.480   1.225  0.3573  0.5655 -0.2305
    1SOL    HW2 2450   2.460   0.490   1.315  0.7434  1.3021 -0.1781
    1SOL    HW3 2451   2.414   0.447   1.178 -0.2005  1.3385  0.1236
    1SOL    MW4 2452   2.476   0.477   1.231  0.3345  0.7647 -0.1769
    1SOL     OW 2453   2.447   0.777   1.161  0.2893  0.7442 -0.2852
    1SOL    HW2 2454   2.480   0.687   1.162  1.1266  1.0481  0.9277
    1SOL    HW3 2455   2.452   0.803   1.069  0.7051 -0.2044 -0.5407
    1SOL    MW4 2456   2.452   0.769   1.149  0.4544  0.6591 -0.1588
    1SOL     OW 2457   2.210   0.881   1.263  0.4610 -0.0475  0.5626
    1SOL    HW2 2458   2.298   0.851   1.238  0.1789 -0.8267  0.4905
    1SOL    HW3 2459   2.152   0.811   1.233 -0.2560  0.7791  0.0100
    1SOL    MW4 2460   2.214   0.868   1.256  0.3293 -0.0412  0.4801
    1SOL     OW 2461   2.182   1.153   1.192  0.4170  0.3459  0.0251
    1SOL    HW2 2462   2.273   1.185   1.187 -0.3598  2.7910  0.8797
    1SOL    HW3 2463   2.190   1.064   1.226  2.6654 -0.4621 -2.4610
    1SOL    MW4 2464   2.195   1.145   1.196  0.6111  0.5620 -0.1900
    1SOL     OW 2465   2.438   1.254   1.209 -0.1512 -0.4069  0.2436
    1SOL    HW2 2466   2.517   1.212   1.175  0.4462  0.7155  0.2240
    1SOL    HW3 2467   2.451   1.348   1.193 -1.9389 -0.2941 -0.7169
    1SOL    MW4 2468   2.450   1.261   1.202 -0.3080 -0.2439  0.1142
    1SOL     OW 2469   2.513   1.527   1.144 -0.3321 -0.0484 -0.4917
    1SOL    HW2 2470   2.429   1.567   1.169 -0.4293  0.2994 -1.3204
    1SOL    HW3 2471   2.510   1.525   1.048  1.1052  1.0651 -0.5769
    1SOL    MW4 2472   2.502   1.532   1.134 -0.1554  0.1444 -0.6121
    1SOL     OW 2473   2.275   1.660   1.216 -0.1731  0.2161  0.4646
    1SOL    HW2 2474   2.268   1.747   1.177 -0.7407 -0.2163 -0.4163
    1SOL    HW3 2475   2.191   1.619   1.198  0.8879 -1.3250 -1.0890
    1SOL    MW4 2476   2.263   1.666   1.209 -0.1080 -0.0442  0.1433
    1SOL     OW 2477   2.253   1.944   1.187 -0.4963  0.0043 -0.4318
    1SOL    HW2 2478   2.185   1.988   1.238 -0.5559 -0.8436  0.2319
    1SOL    HW3 2479   2.235   1.969   1.096 -2.4495 -1.1890 -0.4010
    1SOL    MW4 2480   2.242   1.953   1.182 -0.7620 -0.2650 -0.3400
    1SOL     OW 2481   2.483   2.069   1.254 -0.1098 -0.5615  0.1719
    1SOL    HW2 2482   2.559   2.030   1.210  1.2571  1.4408  0.6583
    1SOL    HW3 2483   2.410   2.013   1.230  0.9893 -0.8219 -2.8217
    1SOL    MW4 2484   2.483   2.056   1.245  0.2155 -0.3316 -0.1588
    1SOL     OW 2485   2.465   2.321   1.169 -0.7672  0.0060 -0.1184
    1SOL    HW2 2486   2.467   2.236   1.212  3.1024  0.1456  0.1902
    1SOL    HW3 2487   2.456   2.300   1.076  0.0059 -0.7589 -0.0330
    1SOL    MW4 2488   2.464   2.307   1.163 -0.1547 -0.0761 -0.0664
    1SOL     OW 2489   2.266   2.498   1.238  0.3468 -0.0462 -0.4620
    1SOL    HW2 2490   2.260   2.499   1.333  1.5482  2.3262 -0.3792
    1SOL    HW3 2491   2.349   2.452   1.219 -0.4362 -1.5041 -0.4254
    1SOL    MW4 2492   2.276   2.492   1.248  0.4022  0.0744 -0.4462
    1SOL     OW 2493   2.258   2.730   1.104  0.3101  0.4792 -0.5330
    1SOL    HW2 2494   2.259   2.641   1.140  0.9945  0.2479 -1.1090
    1SOL    HW3 2495   2.183   2.772   1.147  0.3113 -0.2007  0.1548
    1SOL    MW4 2496   2.248   2.724   1.115  0.4005  0.3588 -0.5183
    1SOL     OW 2497   2.476   2.849   1.220 -0.1185  0.1361 -0.0623
    1SOL    HW2 2498   2.469   2.841   1.316  1.0987  1.7263  0.1779
    1SOL    HW3 2499   2.395   2.811   1.187  0.0875 -1.7958  1.5400
    1SOL    MW4 2500   2.465   2.843   1.229  0.0694  0.0911  0.1808
    1SOL     OW 2501   2.481   3.124   1.147  0.2029 -0.3456  0.5054
    1SOL    HW2 2502   2.398   3.166   1.171  0.3258 -0.4849  1.1785
    1SOL    HW3 2503   2.470   3.033   1.174  0.4365 -0.4524  0.2460
    1SOL    MW4 2504   2.468   3.118   1.154  0.2499 -0.3781  0.5599
    1SOL     OW 2505   2.232   3.230   1.262 -0.4921 -0.0101 -0.2011
    1SOL    HW2 2506   2.207   3.321   1.244 -1.9235 -0.5685 -1.1191
    1SOL    HW3 2507   2.172   3.178   1.209 -1.0422 -1.5662  1.9229
    1SOL    MW4 2508   2.221   3.235   1.252 -0.7536 -0.2890 -0.0420
    1SOL     OW 2509   2.184   3.497   1.173  0.1701 -0.5321  0.3732
    1SOL    HW2 2510   2.265   3.531   1.210  0.5698 -1.3888  0.2929
    1SOL    HW3 2511   2.189   3.517   1.080  1.2151 -2.3680  0.0158
    1SOL    MW4 2512   2.195   3.504   1.166  0.3610 -0.8874  0.3154
    1SOL     OW 2513   2.431   3.617   1.242  0.0921  0.3261  0.2645
    1SOL    HW2 2514   2.457   3.627   1.333  2.5540  0.0207 -0.3622
    1SOL    HW3 2515   2.461   3.697   1.199  2.1471 -1.0344 -0.9322
    1SOL    MW4 2516   2.438   3.629   1.248  0.6881  0.1066  0.0240
    1SOL     OW 2517   2.476   3.876   1.118  0.1168  0.0002  0.1489
    1SOL    HW2 2518   2.399   3.923   1.149  0.6826  0.5954  0.6689
    1SOL    HW3 2519   2.463   3.866   1.024 -0.1543  0.9077  0.0904
    1SOL    MW4 2520   2.465   3.881   1.110  0.1557  0.1984  0.2097
    1SOL     OW 2521   2.246   3.999   1.201  0.3139  0.1343 -0.2451
    1SOL    HW2 2522   2.238   4.091   1.174 -1.6073  0.1570  0.3449
    1SOL    HW3 2523   2.169   3.956   1.165  1.1731 -1.2559 -0.4627
    1SOL    MW4 2524   2.235   4.006   1.193  0.1738 -0.0458 -0.1960
    1SOL     OW 2525   2.271   4.272   1.101 -0.1061 -0.8112 -0.0844
    1SOL    HW2 2526   2.198   4.331   1.117 -0.6835 -1.5925  0.1999
    1SOL    HW3 2527   2.263   4.247   1.009  0.4620 -0.0182 -0.3532
    1SOL    MW4 2528   2.260   4.276   1.091 -0.1075 -0.8101 -0.0823
    1SOL     OW 2529   2.483   4.390   1.227 -0.4718  0.1063  0.3451
    1SOL    HW2 2530   2.400   4.358   1.194 -0.6275  1.4437 -0.5967
    1SOL    HW3 2531   2.489   4.480   1.196  2.0010 -0.4216 -0.8849
    1SOL    MW4 2532   2.473   4.397   1.219 -0.1662  0.2127  0.0584
    1SOL     OW 2533   2.932   4.579   1.153  0.4518  0.2700  0.0249
    1SOL    HW2 2534   2.932   4.509   1.219  2.8268  1.0922  0.9434
    1SOL    HW3 2535   2.918   4.534   1.070  2.1787 -1.3354  0.5772
    1SOL    MW4 2536   2.930   4.564   1.151  0.9928  0.1664  0.2190
    1SOL     OW 2537   2.719   0.074   1.223  0.4545  0.2338  0.1670
    1SOL    HW2 2538   2.712   0.074   1.319 -1.7933  0.5686  0.0138
    1SOL    HW3 2539   2.788   0.010   1.204  0.8760  0.1199  1.9978
    1SOL    MW4 2540   2.727   0.066   1.233  0.2136  0.2630  0.3883
    1SOL     OW 2541   2.738   0.355   1.154 -0.2532 -0.2097  0.8026
    1SOL    HW2 2542   2.744   0.267   1.191 -2.1343  0.0457  1.7746
    1SOL    HW3 2543   2.652   0.386   1.181  0.9119  2.4458  1.5679
    1SOL    MW4 2544   2.728   0.347   1.162 -0.3476  0.1744  1.0318
    1SOL     OW 2545   2.957   0.511   1.210 -0.1039 -0.1816 -0.9277
    1SOL    HW2 2546   2.933   0.599   1.179 -0.6147  0.6723  1.7714
    1SOL    HW3 2547   2.879   0.458   1.195 -0.8204  0.5554  0.1734
    1SOL    MW4 2548   2.943   0.516   1.204 -0.2658  0.0283 -0.4264
    1SOL     OW 2549   2.894   0.780   1.115 -0.3733  0.2029 -0.1462
    1SOL    HW2 2550   2.977   0.808   1.155 -0.0966  1.9614 -1.8793
    1SOL    HW3 2551   2.827   0.805   1.179  0.4529 -1.8164  1.5613
    1SOL    MW4 2552   2.896   0.787   1.129 -0.2279  0.1684 -0.1496
    1SOL     OW 2553   2.690   0.871   1.266  0.3574 -0.3701 -0.1488
    1SOL    HW2 2554   2.702   0.959   1.232 -0.7422 -0.2109 -0.1577
    1SOL    HW3 2555   2.598   0.850   1.247  0.7424 -1.7145 -0.6037
    1SOL    MW4 2556   2.679   0.880   1.259  0.2630 -0.5264 -0.2100
    1SOL     OW 2557   2.680   1.112   1.119  0.1079  0.3283  0.2438
    1SOL    HW2 2558   2.761   1.148   1.156 -0.0665 -1.1903  2.1412
    1SOL    HW3 2559   2.687   1.132   1.025  1.7263  2.0046  0.6723
    1SOL    MW4 2560   2.692   1.120   1.111  0.2985  0.3490  0.5506
    1SOL     OW 2561   2.905   1.206   1.245  0.1465 -0.3434  0.6572
    1SOL    HW2 2562   2.899   1.218   1.340 -0.6417  1.6816  0.3724
    1SOL    HW3 2563   2.918   1.295   1.211 -1.2683 -0.8498 -1.2560
    1SOL    MW4 2564   2.906   1.220   1.253 -0.1442 -0.1431  0.3672
    1SOL     OW 2565   2.940   1.470   1.144 -0.6391  0.2909 -0.0592
    1SOL    HW2 2566   3.016   1.513   1.183 -0.8031  0.3123  0.2378
    1SOL    HW3 2567   2.934   1.506   1.055 -1.2373  1.4590  0.4413
    1SOL    MW4 2568   2.949   1.480   1.137 -0.7401  0.4479  0.0459
    1SOL     OW 2569   2.761   1.676   1.205  0.2533 -0.3053 -0.0414
    1SOL    HW2 2570   2.832   1.614   1.184  0.9099  0.9890 -1.7179
    1SOL    HW3 2571   2.681   1.631   1.175  0.6435 -0.6556 -0.5723
    1SOL    MW4 2572   2.760   1.662   1.198  0.3915 -0.1807 -0.3326
    1SOL     OW 2573   2.677   1.915   1.100 -0.2719  0.0236 -0.3272
    1SOL    HW2 2574   2.745   1.981   1.110 -0.2604  0.0836 -0.7987
    1SOL    HW3 2575   2.713   1.837   1.142  0.5787 -0.2894 -1.6083
    1SOL    MW4 2576   2.691   1.914   1.107 -0.1581 -0.0095 -0.5584
    1SOL     OW 2577   2.895   2.073   1.225  0.0504 -0.0085 -0.3457
    1SOL    HW2 2578   2.879   2.092   1.318 -0.3387  0.1046 -0.4336
    1SOL    HW3 2579   2.909   2.159   1.185  0.7434 -0.0955 -0.2989
    1SOL    MW4 2580   2.895   2.087   1.232  0.0904 -0.0050 -0.3511
    1SOL     OW 2581   2.929   2.326   1.096  0.0702  0.3827 -0.6022
    1SOL    HW2 2582   3.004   2.376   1.129 -0.5126  0.4721  0.6333
    1SOL    HW3 2583   2.853   2.367   1.139 -0.4875 -1.0329 -0.2178
    1SOL    MW4 2584   2.928   2.338   1.106 -0.0801  0.2079 -0.3886
    1SOL     OW 2585   2.705   2.424   1.240 -1.0909  0.1306 -0.5633
    1SOL    HW2 2586   2.708   2.420   1.335 -0.6150 -1.2354 -0.6114
    1SOL    HW3 2587   2.622   2.382   1.217 -1.3631  0.7651 -0.7329
    1SOL    MW4 2588   2.694   2.418   1.249 -1.0638  0.0339 -0.5919
    1SOL     OW 2589   2.707   2.696   1.148  0.4009 -0.2315 -0.0106
    1SOL    HW2 2590   2.712   2.607   1.182  0.7998 -0.4756 -0.7005
    1SOL    HW3 2591   2.629   2.733   1.189  0.4955 -0.7471  0.6345
    1SOL    MW4 2592   2.697   2.689   1.158  0.4661 -0.3319 -0.0166
    1SOL     OW 2593   2.937   2.845   1.226 -0.2015 -0.1064 -0.2498
    1SOL    HW2 2594   2.938   2.851   1.322  2.3195  0.1896 -0.2709
    1SOL    HW3 2595   2.855   2.798   1.206 -0.0949 -1.3862  2.1285
    1SOL    MW4 2596   2.926   2.839   1.236  0.1450 -0.2363  0.0613
    1SOL     OW 2597   2.937   3.116   1.171  0.5562  0.1601 -0.2441
    1SOL    HW2 2598   2.927   3.024   1.196  0.8737  0.2478  0.2147
    1SOL    HW3 2599   2.927   3.116   1.076  1.3648 -0.4684 -0.3394
    1SOL    MW4 2600   2.935   3.103   1.162  0.7048  0.0889 -0.1961
    1SOL     OW 2601   2.712   3.247   1.257  0.4549 -0.1103 -0.1147
    1SOL    HW2 2602   2.795   3.204   1.235  1.4040  1.0440  1.0957
    1SOL    HW3 2603   2.645   3.185   1.230  1.7081 -1.0215 -1.2209
    1SOL    MW4 2604   2.714   3.234   1.251  0.7458 -0.0782 -0.1009
    1SOL     OW 2605   2.653   3.490   1.133 -0.2074 -0.5253 -0.4957
    1SOL    HW2 2606   2.660   3.399   1.162 -1.4370 -0.2547  0.7086
    1SOL    HW3 2607   2.577   3.525   1.180  0.1474  1.0837 -1.0666
    1SOL    MW4 2608   2.644   3.483   1.143 -0.3226 -0.2770 -0.4121
    1SOL     OW 2609   2.894   3.615   1.235 -0.4877 -0.1949  0.4415
    1SOL    HW2 2610   2.960   3.587   1.172  0.4024  0.9064  0.8581
    1SOL    HW3 2611   2.812   3.579   1.202 -0.3381  1.8945 -2.3882
    1SOL    MW4 2612   2.892   3.607   1.222 -0.3505  0.2258  0.1231
    1SOL     OW 2613   2.939   3.887   1.169 -0.0287  0.0858  0.2110
    1SOL    HW2 2614   3.026   3.902   1.205  0.1223 -1.4437  0.5101
    1SOL    HW3 2615   2.911   3.802   1.205 -1.7883  0.7145  0.4003
    1SOL    MW4 2616   2.946   3.878   1.178 -0.2406 -0.0329  0.2754
    1SOL     OW 2617   2.698   4.008   1.220  0.1504 -0.4252 -0.5815
    1SOL    HW2 2618   2.784   3.970   1.200  0.7664  0.9421 -0.5993
    1SOL    HW3 2619   2.636   3.954   1.172  1.1420 -0.5072 -1.8005
    1SOL    MW4 2620   2.701   3.996   1.211  0.3624 -0.2558 -0.7447
    1SOL     OW 2621   2.725   4.279   1.124  0.1232 -0.0036  0.1176
    1SOL    HW2 2622   2.713   4.185   1.130 -1.0582  0.0517 -1.2034
    1SOL    HW3 2623   2.648   4.316   1.166  1.4233  0.4096  2.2323
    1SOL    MW4 2624   2.714   4.272   1.131  0.1390  0.0587  0.2223
    1SOL     OW 2625   2.920   4.348   1.303 -0.0171 -0.8563 -0.4720
    1SOL    HW2 2626   3.001   4.308   1.271 -0.1722 -0.5635 -1.2407
    1SOL    HW3 2627   2.851   4.307   1.251 -0.1612  0.5491 -1.4241
    1SOL    MW4 2628   2.922   4.338   1.292 -0.0565 -0.6318 -0.6989
    1SOL     OW 2629   3.371   4.627   1.098  0.4987  0.3007  0.2260
    1SOL    HW2 2630   3.446   4.686   1.102  0.5274  0.3524 -0.8607
    1SOL    HW3 2631   3.297   4.679   1.128  0.3086  1.2727 -1.8278
    1SOL    MW4 2632   3.371   4.642   1.103  0.4771  0.4358 -0.1884
    1SOL     OW 2633   3.149   0.102   1.191 -0.3914 -0.1336 -0.0307
    1SOL    HW2 2634   3.144   0.116   1.285  1.7673 -0.2738  0.1315
    1SOL    HW3 2635   3.076   0.044   1.170 -0.5578 -0.5251  1.6366
    1SOL    MW4 2636   3.139   0.096   1.200 -0.1285 -0.2038  0.2106
    1SOL     OW 2637   3.138   0.349   1.076  0.1315 -0.4230  0.2107
    1SOL    HW2 2638   3.139   0.273   1.134  1.7306 -1.3745 -1.0088
    1SOL    HW3 2639   3.080   0.412   1.119  0.5871 -1.4420  2.3801
    1SOL    MW4 2640   3.131   0.347   1.089  0.4027 -0.6830  0.3361
    1SOL     OW 2641   3.379   0.462   1.205  0.4178 -0.7764  0.1551
    1SOL    HW2 2642   3.389   0.555   1.183 -0.7481 -0.3067  1.5231
    1SOL    HW3 2643   3.299   0.435   1.159  0.4047 -0.9374  0.2715
    1SOL    MW4 2644   3.369   0.471   1.196  0.2623 -0.7356  0.3510
    1SOL     OW 2645   3.390   0.734   1.129 -0.6975 -0.0267  0.4038
    1SOL    HW2 2646   3.303   0.759   1.159 -2.3361 -3.3623 -1.2703
    1SOL    HW3 2647   3.385   0.738   1.034  0.1898 -2.5302  0.2126
    1SOL    MW4 2648   3.378   0.738   1.121 -0.7966 -0.7971  0.1576
    1SOL     OW 2649   3.150   0.831   1.221  0.4133  0.2241  0.6159
    1SOL    HW2 2650   3.138   0.839   1.315  1.5247  1.2028  0.6834
    1SOL    HW3 2651   3.164   0.921   1.190 -0.4140 -0.0300 -0.5527
    1SOL    MW4 2652   3.150   0.844   1.229  0.4508  0.3197  0.4705
    1SOL     OW 2653   3.178   1.118   1.162 -0.0055  0.0912  0.0200
    1SOL    HW2 2654   3.245   1.173   1.202 -0.4292  0.0600  0.7919
    1SOL    HW3 2655   3.095   1.154   1.195 -0.2692 -1.3755  1.0414
    1SOL    MW4 2656   3.176   1.130   1.172 -0.0961 -0.1065  0.2567
    1SOL     OW 2657   3.400   1.279   1.199 -0.2723  0.0301 -0.3190
    1SOL    HW2 2658   3.401   1.282   1.295 -1.0332  0.2112 -0.3103
    1SOL    HW3 2659   3.411   1.369   1.171  0.4534 -0.0884 -0.4081
    1SOL    MW4 2660   3.401   1.291   1.208 -0.2770  0.0383 -0.3295
    1SOL     OW 2661   3.383   1.536   1.120 -0.2261 -0.6670 -0.0097
    1SOL    HW2 2662   3.446   1.593   1.164  0.3389 -0.3362 -1.2372
    1SOL    HW3 2663   3.299   1.561   1.158 -0.1948  2.0616 -1.5768
    1SOL    MW4 2664   3.380   1.547   1.131 -0.1473 -0.2633 -0.3783
    1SOL     OW 2665   3.150   1.632   1.231  0.0951 -0.4167 -0.0732
    1SOL    HW2 2666   3.160   1.633   1.326 -0.9234  0.2542  0.0356
    1SOL    HW3 2667   3.138   1.724   1.207 -0.6184 -0.6723 -0.7367
    1SOL    MW4 2668   3.150   1.644   1.240 -0.1333 -0.3619 -0.1463
    1SOL     OW 2669   3.124   1.913   1.192  0.1932 -0.5591  0.3303
    1SOL    HW2 2670   3.201   1.971   1.199  0.2777 -0.0952 -3.3322
    1SOL    HW3 2671   3.052   1.965   1.228  0.9336  0.4544  0.3934
    1SOL    MW4 2672   3.125   1.928   1.198  0.3018 -0.3642 -0.1444
    1SOL     OW 2673   3.351   2.075   1.253  0.6087 -0.4104  0.0951
    1SOL    HW2 2674   3.408   2.012   1.208 -0.3790 -0.3639 -1.2232
    1SOL    HW3 2675   3.380   2.160   1.223 -0.4994 -0.4091 -0.9901
    1SOL    MW4 2676   3.362   2.078   1.243  0.3321 -0.4039 -0.2221
    1SOL     OW 2677   3.398   2.316   1.138 -0.3098  0.1462  0.2229
    1SOL    HW2 2678   3.451   2.385   1.179 -0.4977 -0.4420  1.4462
    1SOL    HW3 2679   3.308   2.343   1.153 -0.3812 -0.0765  0.1864
    1SOL    MW4 2680   3.393   2.329   1.145 -0.3440  0.0393  0.3794
    1SOL     OW 2681   3.159   2.419   1.209 -0.3059  0.0015 -0.4061
    1SOL    HW2 2682   3.155   2.402   1.304 -0.7348 -0.4573 -0.5042
    1SOL    HW3 2683   3.162   2.514   1.202 -3.1365  0.1587 -0.0387
    1SOL    MW4 2684   3.159   2.429   1.221 -0.7360 -0.0381 -0.3704
    1SOL     OW 2685   3.149   2.701   1.143  0.3598  0.6740 -0.1239
    1SOL    HW2 2686   3.071   2.749   1.172 -0.9330 -0.8364 -0.9461
    1SOL    HW3 2687   3.133   2.685   1.050  0.0179 -2.5758  0.4215
    1SOL    MW4 2688   3.136   2.705   1.135  0.1442  0.0455 -0.1603
    1SOL     OW 2689   3.367   2.867   1.197 -0.5641 -0.4007 -0.1882
    1SOL    HW2 2690   3.361   2.953   1.157 -0.6152 -0.5641 -0.5351
    1SOL    HW3 2691   3.279   2.829   1.185 -0.3063 -0.8257 -0.7810
    1SOL    MW4 2692   3.354   2.873   1.190 -0.5369 -0.4783 -0.3122
    1SOL     OW 2693   3.345   3.118   1.083  0.0893 -0.0999  0.0099
    1SOL    HW2 2694   3.420   3.133   1.140  0.5424  1.3468 -0.9188
    1SOL    HW3 2695   3.275   3.171   1.121  0.1443  0.1839 -0.2801
    1SOL    MW4 2696   3.345   3.127   1.095  0.1562  0.1285 -0.1509
    1SOL     OW 2697   3.154   3.269   1.220  0.2882 -0.2875  0.0443
    1SOL    HW2 2698   3.158   3.360   1.191  0.0630 -0.2124  0.2473
    1SOL    HW3 2699   3.066   3.241   1.196  0.3026 -0.4026  0.1310
    1SOL    MW4 2700   3.143   3.278   1.213  0.2604 -0.2930  0.0824
    1SOL     OW 2701   3.127   3.520   1.125 -0.1289 -0.2495  0.2231
    1SOL    HW2 2702   3.202   3.570   1.156  0.8486 -1.2867 -0.4063
    1SOL    HW3 2703   3.135   3.522   1.029 -1.7681  0.9203  0.0909
    1SOL    MW4 2704   3.138   3.527   1.116 -0.2160 -0.2320  0.1225
    1SOL     OW 2705   3.365   3.640   1.210 -0.2650  0.2024  0.4941
    1SOL    HW2 2706   3.356   3.634   1.305  0.4651  0.1839  0.5584
    1SOL    HW3 2707   3.439   3.584   1.188 -0.4325  0.2012 -0.0927
    1SOL    MW4 2708   3.373   3.632   1.220 -0.1910  0.2000  0.4253
    1SOL     OW 2709   3.264   3.817   1.036  0.3922  0.3202  0.3300
    1SOL    HW2 2710   3.241   3.881   1.103  0.8722  1.6039 -0.7079
    1SOL    HW3 2711   3.307   3.746   1.084 -0.1947  0.7408  1.4971
    1SOL    MW4 2712   3.267   3.816   1.051  0.3781  0.5448  0.3471
    1SOL     OW 2713   3.183   3.973   1.237 -0.6955 -0.4273 -0.1625
    1SOL    HW2 2714   3.171   3.966   1.332  0.6715 -1.9649 -0.0880
    1SOL    HW3 2715   3.149   4.060   1.215  0.3355  0.5312  1.9438
    1SOL    MW4 2716   3.177   3.984   1.247 -0.3791 -0.5035  0.1252
    1SOL     OW 2717   3.137   4.240   1.165  0.3881 -0.0038 -0.1059
    1SOL    HW2 2718   3.222   4.279   1.186  0.1665  0.2314  0.3729
    1SOL    HW3 2719   3.131   4.246   1.070 -0.0271  1.9978  0.0060
    1SOL    MW4 2720   3.147   4.246   1.156  0.3042  0.2913 -0.0279
    1SOL     OW 2721   3.374   4.374   1.204 -0.2928  0.0604  0.2342
    1SOL    HW2 2722   3.457   4.336   1.175  0.8773  1.5194  1.5201
    1SOL    HW3 2723   3.377   4.464   1.170 -0.7255  0.5323  1.4453
    1SOL    MW4 2724   3.385   4.381   1.195 -0.1953  0.3152  0.5635
    1SOL     OW 2725   3.807   4.605   1.133  0.3796 -0.1287  0.1374
    1SOL    HW2 2726   3.808   4.520   1.178  0.0154  0.2927  0.9592
    1SOL    HW3 2727   3.791   4.584   1.041 -2.6145 -0.7755  0.7506
    1SOL    MW4 2728   3.805   4.591   1.127 -0.0632 -0.1588  0.3266
    1SOL     OW 2729   3.591   0.118   1.175  0.4407 -0.3878  0.0535
    1SOL    HW2 2730   3.610   0.197   1.124 -0.5836 -0.4797 -0.4856
    1SOL    HW3 2731   3.664   0.059   1.156  0.3145 -0.2347 -0.9407
    1SOL    MW4 2732   3.603   0.121   1.166  0.2890 -0.3798 -0.1489
    1SOL     OW 2733   3.616   0.367   1.083 -0.7685 -0.1457  0.3225
    1SOL    HW2 2734   3.683   0.406   1.140 -0.4509 -0.0958 -0.0762
    1SOL    HW3 2735   3.533   0.391   1.123 -0.5561  0.2267  0.5471
    1SOL    MW4 2736   3.614   0.376   1.095 -0.6986 -0.0900  0.2996
    1SOL     OW 2737   3.799   0.526   1.240 -0.5937  0.2903  0.5391
    1SOL    HW2 2738   3.877   0.483   1.205 -1.7535 -1.3371 -0.0993
    1SOL    HW3 2739   3.796   0.611   1.196  1.3458  0.7921  1.3069
    1SOL    MW4 2740   3.809   0.532   1.230 -0.4909  0.1417  0.5561
    1SOL     OW 2741   3.783   0.784   1.129  0.2492 -0.1325 -0.5575
    1SOL    HW2 2742   3.865   0.798   1.178  0.4169 -2.4705 -0.0679
    1SOL    HW3 2743   3.715   0.824   1.183  0.8032 -0.1453  0.1586
    1SOL    MW4 2744   3.785   0.791   1.143  0.3445 -0.4427 -0.3984
    1SOL     OW 2745   3.562   0.894   1.273  0.2653 -0.0705  0.2274
    1SOL    HW2 2746   3.580   0.969   1.216 -0.3165  0.7924  1.1407
    1SOL    HW3 2747   3.512   0.834   1.219  2.3375 -0.6547 -1.0817
    1SOL    MW4 2748   3.557   0.896   1.258  0.4616 -0.0337  0.1752
    1SOL     OW 2749   3.622   1.127   1.114 -0.0291  0.0976  0.3379
    1SOL    HW2 2750   3.696   1.173   1.154  0.0510  0.0665  0.2259
    1SOL    HW3 2751   3.546   1.179   1.137  0.0846  0.3950  0.0435
    1SOL    MW4 2752   3.622   1.140   1.122 -0.0033  0.1326  0.2843
    1SOL     OW 2753   3.832   1.297   1.229 -0.4397 -0.0196  0.4432
    1SOL    HW2 2754   3.840   1.295   1.325  0.1202 -1.4508  0.3718
    1SOL    HW3 2755   3.838   1.390   1.207 -1.6456  0.4279  1.8827
    1SOL    MW4 2756   3.834   1.309   1.239 -0.5250 -0.1495  0.6237
    1SOL     OW 2757   3.822   1.568   1.131  0.2881 -0.0325  0.1038
    1SOL    HW2 2758   3.897   1.618   1.164 -0.1946  0.6436  0.1877
    1SOL    HW3 2759   3.825   1.579   1.036  0.1890  0.1516  0.1214
    1SOL    MW4 2760   3.832   1.576   1.123  0.2112  0.0808  0.1173
    1SOL     OW 2761   3.579   1.688   1.260 -0.0945 -0.0567 -0.1412
    1SOL    HW2 2762   3.567   1.768   1.208 -0.0856 -0.4442 -0.7406
    1SOL    HW3 2763   3.663   1.653   1.231  0.0295 -0.1465  0.3159
    1SOL    MW4 2764   3.588   1.694   1.249 -0.0770 -0.1197 -0.1600
    1SOL     OW 2765   3.539   1.920   1.108  0.3507  0.4723  0.3370
    1SOL    HW2 2766   3.622   1.969   1.114 -0.2679  1.5679  0.0594
    1SOL    HW3 2767   3.522   1.914   1.014  0.6525 -0.6889  0.3476
    1SOL    MW4 2768   3.548   1.926   1.097  0.3088  0.4636  0.3017
    1SOL     OW 2769   3.782   2.041   1.186  0.4154  0.2128 -0.2470
    1SOL    HW2 2770   3.783   2.029   1.281 -0.7694  2.8159  0.1643
    1SOL    HW3 2771   3.872   2.025   1.159  0.9013 -0.0090  1.4150
    1SOL    MW4 2772   3.794   2.038   1.195  0.3231  0.5271  0.0266
    1SOL     OW 2773   3.830   2.298   1.099  0.2654  0.0971  0.1062
    1SOL    HW2 2774   3.909   2.320   1.147  1.6753 -1.8798 -1.2242
    1SOL    HW3 2775   3.807   2.210   1.129  0.6926 -0.8224 -2.1810
    1SOL    MW4 2776   3.837   2.289   1.109  0.5081 -0.2851 -0.3712
    1SOL     OW 2777   3.602   2.454   1.238  0.1564 -0.0402 -0.3345
    1SOL    HW2 2778   3.579   2.437   1.329  2.0051 -0.4829  0.0723
    1SOL    HW3 2779   3.672   2.391   1.219 -0.1498  0.1080 -2.0376
    1SOL    MW4 2780   3.608   2.443   1.247  0.3600 -0.0789 -0.5056
    1SOL     OW 2781   3.619   2.717   1.167  0.3537  0.0555 -0.2378
    1SOL    HW2 2782   3.603   2.630   1.201 -0.7340  0.6259  0.7294
    1SOL    HW3 2783   3.533   2.759   1.165  0.8453  1.0719 -0.7901
    1SOL    MW4 2784   3.606   2.711   1.171  0.2751  0.2646 -0.1830
    1SOL     OW 2785   3.839   2.851   1.282 -0.6966 -0.7495  0.5378
    1SOL    HW2 2786   3.832   2.844   1.377 -2.5813  0.0655  0.4821
    1SOL    HW3 2787   3.769   2.796   1.248  0.3679 -1.5451 -0.4054
    1SOL    MW4 2788   3.829   2.843   1.290 -0.8049 -0.7467  0.4059
    1SOL     OW 2789   3.821   3.109   1.181 -0.2740  0.3053  0.0595
    1SOL    HW2 2790   3.833   3.027   1.229  0.2228  1.0749  1.2778
    1SOL    HW3 2791   3.810   3.083   1.090 -0.8728 -1.1673  0.5458
    1SOL    MW4 2792   3.821   3.095   1.175 -0.2873  0.2124  0.2844
    1SOL     OW 2793   3.573   3.202   1.244  0.1723  0.5383 -0.0197
    1SOL    HW2 2794   3.580   3.295   1.225  1.4395  0.7883  1.5451
    1SOL    HW3 2795   3.661   3.168   1.228 -0.6265 -0.6720 -1.9703
    1SOL    MW4 2796   3.586   3.210   1.239  0.2341  0.4113 -0.0706
    1SOL     OW 2797   3.598   3.488   1.146  0.1975  0.3237 -0.1722
    1SOL    HW2 2798   3.690   3.500   1.167  0.0264  0.4643  0.4905
    1SOL    HW3 2799   3.597   3.472   1.051  0.7990  1.4404 -0.3712
    1SOL    MW4 2800   3.610   3.487   1.136  0.2542  0.4895 -0.1111
    1SOL     OW 2801   3.840   3.601   1.231  0.2917 -0.9131  0.2716
    1SOL    HW2 2802   3.835   3.611   1.326 -0.5486 -1.4086  0.2840
    1SOL    HW3 2803   3.816   3.687   1.197  0.5993 -0.7324  0.5042
    1SOL    MW4 2804   3.836   3.613   1.239  0.2215 -0.9549  0.3037
    1SOL     OW 2805   3.823   3.861   1.110 -0.1179 -0.5496  0.0304
    1SOL    HW2 2806   3.752   3.922   1.129  0.2098 -0.2575  0.3152
    1SOL    HW3 2807   3.811   3.838   1.017  0.0377  0.3120 -0.2029
    1SOL    MW4 2808   3.812   3.866   1.100 -0.0544 -0.3972  0.0372
    1SOL     OW 2809   3.580   3.937   1.225  0.3651  0.7945  0.1827
    1SOL    HW2 2810   3.571   3.946   1.320 -0.4116  0.7005  0.1155
    1SOL    HW3 2811   3.520   3.866   1.202  0.5844  0.7887 -0.3786
    1SOL    MW4 2812   3.571   3.929   1.234  0.2916  0.7813  0.0998
    1SOL     OW 2813   3.581   4.196   1.152 -0.3442  0.3482  0.2536
    1SOL    HW2 2814   3.564   4.106   1.180  0.4387 -0.1168 -0.7368
    1SOL    HW3 2815   3.587   4.191   1.056  1.8319  1.0721  0.3246
    1SOL    MW4 2816   3.579   4.183   1.143  0.0465  0.3819  0.1322
    1SOL     OW 2817   3.815   4.343   1.235  0.3691  0.3783  0.5115
    1SOL    HW2 2818   3.819   4.360   1.329  0.5933  0.0650  0.5603
    1SOL    HW3 2819   3.736   4.290   1.224  0.4193  0.2982  0.5408
    1SOL    MW4 2820   3.805   4.338   1.246  0.4053  0.3271  0.5219
    1SOL     OW 2821   4.247   4.614   1.133  0.1914 -0.1842 -0.4572
    1SOL    HW2 2822   4.250   4.535   1.188 -0.8490 -0.0985 -0.2525
    1SOL    HW3 2823   4.166   4.658   1.160 -0.3599 -0.1550 -2.0721
    1SOL    MW4 2824   4.237   4.609   1.144 -0.0186 -0.1688 -0.6433
    1SOL     OW 2825   4.015   0.092   1.204 -0.4319  0.4729  0.1556
    1SOL    HW2 2826   4.005   0.104   1.298  1.0819 -1.3597  0.5783
    1SOL    HW3 2827   3.945   0.031   1.180  0.6346 -0.8917  0.5107
    1SOL    MW4 2828   4.004   0.086   1.213 -0.0911  0.0511  0.2583
    1SOL     OW 2829   4.018   0.389   1.111  0.0465  0.4888  0.4625
    1SOL    HW2 2830   4.020   0.295   1.128  1.2143  0.3991 -0.1380
    1SOL    HW3 2831   4.012   0.396   1.016  1.5617  1.0364  0.4038
    1SOL    MW4 2832   4.017   0.378   1.101  0.4005  0.5492  0.3755
    1SOL     OW 2833   4.258   0.488   1.225 -0.0148  0.3105  0.2966
    1SOL    HW2 2834   4.250   0.505   1.319 -1.1661  0.7267  0.1316
    1SOL    HW3 2835   4.187   0.426   1.206  2.1640 -2.2513  0.2820
    1SOL    MW4 2836   4.247   0.482   1.235  0.1211  0.0274  0.2731
    1SOL     OW 2837   4.272   0.760   1.137 -0.1784  0.0042  0.3614
    1SOL    HW2 2838   4.266   0.669   1.164  0.8724 -0.2968 -0.3736
    1SOL    HW3 2839   4.282   0.756   1.042  1.9525  0.7589  0.5056
    1SOL    MW4 2840   4.273   0.748   1.128  0.2413  0.0640  0.2836
    1SOL     OW 2841   4.036   0.878   1.210 -0.5225  0.2873 -0.1383
    1SOL    HW2 2842   4.054   0.886   1.304  1.6095  2.8628 -0.6977
    1SOL    HW3 2843   4.120   0.852   1.172 -1.4530 -1.0449 -1.3147
    1SOL    MW4 2844   4.049   0.876   1.218 -0.3638  0.4513 -0.3674
    1SOL     OW 2845   4.024   1.147   1.135 -0.0046  0.5915 -0.2005
    1SOL    HW2 2846   4.014   1.057   1.167  2.2959  0.3579 -0.0119
    1SOL    HW3 2847   3.951   1.195   1.174 -0.9437 -1.0644  0.1410
    1SOL    MW4 2848   4.013   1.141   1.144  0.1755  0.3421 -0.1307
    1SOL     OW 2849   4.255   1.247   1.252  0.0667 -0.1861  0.8241
    1SOL    HW2 2850   4.255   1.237   1.347  0.7702 -0.8183  0.7621
    1SOL    HW3 2851   4.172   1.208   1.224 -1.0554  1.7571  1.3395
    1SOL    MW4 2852   4.244   1.241   1.261  0.0124 -0.0132  0.8841
    1SOL     OW 2853   4.282   1.521   1.135 -0.0638 -0.1869 -0.3652
    1SOL    HW2 2854   4.282   1.431   1.165  2.4805 -0.5162 -1.2273
    1SOL    HW3 2855   4.358   1.561   1.177 -1.2657  1.6197  0.1606
    1SOL    MW4 2856   4.292   1.515   1.144  0.1135  0.0079 -0.4096
    1SOL     OW 2857   4.064   1.690   1.205 -0.5218  0.0094  0.3077
    1SOL    HW2 2858   4.059   1.675   1.299 -0.2611 -0.6656  0.2141
    1SOL    HW3 2859   4.131   1.629   1.174 -0.3555  0.4732 -0.2620
    1SOL    MW4 2860   4.072   1.680   1.213 -0.4654 -0.0185  0.2201
    1SOL     OW 2861   4.030   1.980   1.114 -0.2564 -0.1043  0.2216
    1SOL    HW2 2862   4.027   1.890   1.146 -0.7346 -0.2162 -0.1185
    1SOL    HW3 2863   4.036   1.971   1.019 -0.8733  0.2225  0.1492
    1SOL    MW4 2864   4.030   1.967   1.106 -0.4010 -0.0758  0.1671
    1SOL     OW 2865   4.254   2.068   1.225 -0.2516 -0.0267 -0.0576
    1SOL    HW2 2866   4.255   2.160   1.199 -1.1457  0.4645  1.6051
    1SOL    HW3 2867   4.173   2.033   1.187 -1.5038  0.6649  1.8988
    1SOL    MW4 2868   4.243   2.075   1.216 -0.5350  0.1295  0.4199
    1SOL     OW 2869   4.280   2.317   1.133 -0.1092  0.1896 -0.2077
    1SOL    HW2 2870   4.200   2.357   1.167 -0.6975  1.3262 -2.7523
    1SOL    HW3 2871   4.261   2.302   1.040  1.7854 -1.7499 -0.3335
    1SOL    MW4 2872   4.267   2.320   1.125  0.0629  0.0837 -0.5599
    1SOL     OW 2873   4.042   2.422   1.248 -0.3605 -0.0448  0.1117
    1SOL    HW2 2874   4.035   2.411   1.343  1.3812  0.8790  0.3730
    1SOL    HW3 2875   4.028   2.516   1.234  0.2043 -0.0384 -0.4444
    1SOL    MW4 2876   4.040   2.433   1.259 -0.0558  0.0782  0.0728
    1SOL     OW 2877   4.072   2.714   1.211 -0.2504  0.1866 -0.1498
    1SOL    HW2 2878   3.995   2.766   1.236  0.1455  0.4824  0.4667
    1SOL    HW3 2879   4.073   2.718   1.115 -0.5847  0.7906 -0.1318
    1SOL    MW4 2880   4.062   2.722   1.201 -0.2418  0.3054 -0.0662
    1SOL     OW 2881   4.312   2.848   1.273  0.5209  0.2000  0.3360
    1SOL    HW2 2882   4.297   2.935   1.236  0.2407  0.2431  0.5474
    1SOL    HW3 2883   4.226   2.805   1.270  0.2994  0.5207  1.7355
    1SOL    MW4 2884   4.299   2.854   1.268  0.4544  0.2482  0.5486
    1SOL     OW 2885   4.310   3.095   1.104  0.1617 -0.6856 -0.3721
    1SOL    HW2 2886   4.225   3.121   1.138  0.7265 -0.2646  0.7529
    1SOL    HW3 2887   4.297   3.088   1.009 -0.4032  2.2801 -0.5706
    1SOL    MW4 2888   4.297   3.098   1.096  0.1616 -0.2389 -0.2499
    1SOL     OW 2889   4.076   3.220   1.218  0.0756  0.0427 -0.4950
    1SOL    HW2 2890   4.094   3.229   1.312  1.3115  1.8594 -0.8873
    1SOL    HW3 2891   3.996   3.168   1.214 -1.1170  1.6448  1.6426
    1SOL    MW4 2892   4.068   3.214   1.230  0.0811  0.4938 -0.2648
    1SOL     OW 2893   4.049   3.485   1.108  0.1335 -0.5011 -0.3530
    1SOL    HW2 2894   4.035   3.394   1.135 -1.4676 -0.8996 -2.4253
    1SOL    HW3 2895   3.978   3.534   1.150  1.8837  0.0720  2.0087
    1SOL    MW4 2896   4.038   3.480   1.117  0.1535 -0.4783 -0.3150
    1SOL     OW 2897   4.274   3.596   1.229  0.5315 -0.4122  0.1733
    1SOL    HW2 2898   4.214   3.536   1.185  0.6779  0.7742 -1.6958
    1SOL    HW3 2899   4.361   3.568   1.202  0.6335  0.2067 -0.1563
    1SOL    MW4 2900   4.278   3.585   1.220  0.5646 -0.1740 -0.1166
    1SOL     OW 2901   4.281   3.844   1.091  0.5744 -0.0021 -0.0959
    1SOL    HW2 2902   4.213   3.898   1.130  1.6462 -0.2560  2.1921
    1SOL    HW3 2903   4.276   3.761   1.139  2.0423 -0.2488 -0.3511
    1SOL    MW4 2904   4.271   3.840   1.102  0.9089 -0.0682  0.1723
    1SOL     OW 2905   4.054   3.983   1.218  0.0770 -0.3690  0.0448
    1SOL    HW2 2906   4.044   4.065   1.170  0.3307  0.0333  0.6793
    1SOL    HW3 2907   3.981   3.928   1.187  0.5473 -0.3079 -1.1903
    1SOL    MW4 2908   4.043   3.986   1.207  0.1726 -0.3078 -0.0342
    1SOL     OW 2909   4.054   4.238   1.128  0.1708  0.3911  0.0359
    1SOL    HW2 2910   3.971   4.267   1.166  0.5544  0.5681  0.7359
    1SOL    HW3 2911   4.041   4.248   1.033 -1.1781 -1.1041  0.0461
    1SOL    MW4 2912   4.041   4.243   1.120  0.0434  0.2179  0.1296
    1SOL     OW 2913   4.274   4.366   1.259 -0.2287 -0.3034  0.2954
    1SOL    HW2 2914   4.205   4.314   1.220 -0.2917 -0.5542  0.7348
    1SOL    HW3 2915   4.355   4.333   1.219 -0.4088  0.4246 -0.6951
    1SOL    MW4 2916   4.276   4.355   1.249 -0.2608 -0.2408  0.2226
    1SOL     OW 2917   0.183   4.608   1.622 -0.2394  0.0064  0.0383
    1SOL    HW2 2918   0.264   4.641   1.585  1.1210 -3.0478  0.1795
    1SOL    HW3 2919   0.115   4.663   1.583  1.7340  1.6007 -1.2587
    1SOL    MW4 2920   0.184   4.620   1.612  0.2005 -0.1860 -0.1142
    1SOL     OW 2921   4.463   0.091   1.500  0.4546 -0.3141  0.2784
    1SOL    HW2 2922   4.381   0.086   1.549  0.4483 -0.1916  0.2806
    1SOL    HW3 2923   4.436   0.101   1.409  0.4546 -2.3895  0.0264
    1SOL    MW4 2924   4.449   0.092   1.494  0.4535 -0.5717  0.2453
    1SOL     OW 2925   0.020   0.348   1.589 -0.5316  0.8315 -0.9143
    1SOL    HW2 2926   0.015   0.339   1.684  1.9233  1.5745 -0.6890
    1SOL    HW3 2927   0.015   0.258   1.556  3.1106  0.1259  0.1933
    1SOL    MW4 2928   0.018   0.335   1.597  0.2728  0.8364 -0.7385
    1SOL     OW 2929   0.246   0.484   1.491 -0.6753 -0.7455 -0.2848
    1SOL    HW2 2930   0.170   0.434   1.518 -1.8038  0.9720 -0.2186
    1SOL    HW3 2931   0.230   0.506   1.399 -0.7864  0.5394  0.0267
    1SOL    MW4 2932   0.234   0.481   1.482 -0.8388 -0.3493 -0.2350
    1SOL     OW 2933   0.237   0.710   1.648 -0.2264  0.2442  0.0648
    1SOL    HW2 2934   0.294   0.779   1.612 -0.3818 -0.2140 -1.0800
    1SOL    HW3 2935   0.251   0.635   1.591 -1.4959 -0.0783  0.1688
    1SOL    MW4 2936   0.246   0.709   1.636 -0.4144  0.1412 -0.0725
    1SOL     OW 2937   0.005   0.852   1.534  0.0876  0.3706  0.1700
    1SOL    HW2 2938   0.021   0.946   1.546  0.8088  0.2463  0.1912
    1SOL    HW3 2939   0.075   0.809   1.584  0.0811 -0.1761 -0.2839
    1SOL    MW4 2940   0.016   0.859   1.542  0.1817  0.2822  0.1128
    1SOL     OW 2941   0.027   1.123   1.626  0.0559  0.2396 -0.2049
    1SOL    HW2 2942   0.019   1.126   1.721  0.5074  2.1054 -0.2050
    1SOL    HW3 2943   0.102   1.179   1.606 -1.2645  1.5107 -1.7749
    1SOL    MW4 2944   0.036   1.131   1.636 -0.0587  0.6534 -0.4122
    1SOL     OW 2945   0.261   1.253   1.532  0.0719  0.2611 -0.0952
    1SOL    HW2 2946   0.252   1.344   1.558 -0.9023  0.1797 -0.1458
    1SOL    HW3 2947   0.238   1.252   1.439  1.3512  0.1804 -0.4187
    1SOL    MW4 2948   0.257   1.265   1.523  0.1121  0.2397 -0.1446
    1SOL     OW 2949   0.185   1.502   1.624  0.3567 -0.2213 -0.5778
    1SOL    HW2 2950   0.185   1.514   1.719  1.5776  0.9559 -0.7120
    1SOL    HW3 2951   0.119   1.563   1.592  0.1294 -0.4285 -0.4988
    1SOL    MW4 2952   0.176   1.512   1.632  0.4878 -0.0933 -0.5850
    1SOL     OW 2953   0.002   1.679   1.507 -0.2428 -0.5591 -0.0427
    1SOL    HW2 2954   0.006   1.773   1.526 -2.9211 -0.2649 -0.6854
    1SOL    HW3 2955   0.008   1.674   1.412  0.3633 -1.0813  0.0231
    1SOL    MW4 2956   0.003   1.691   1.497 -0.5162 -0.5894 -0.1190
    1SOL     OW 2957   0.006   1.940   1.608 -0.1880 -0.1334  0.1593
    1SOL    HW2 2958   0.011   1.951   1.703  0.5407  0.2775  0.0779
    1SOL    HW3 2959  -0.085   1.960   1.586  0.1655  2.0210  0.5003
    1SOL    MW4 2960  -0.005   1.944   1.617 -0.0453  0.2050  0.1935
    1SOL     OW 2961   0.241   2.021   1.484  0.3999 -0.0924  0.2924
    1SOL    HW2 2962   0.152   2.005   1.516  0.0597  1.3596  0.1039
    1SOL    HW3 2963   0.231   2.032   1.389  0.9411 -1.0933  0.1195
    1SOL    MW4 2964   0.228   2.021   1.475  0.4264 -0.0329  0.2446
    1SOL     OW 2965   0.226   2.304   1.600  0.2275  0.4506  0.1007
    1SOL    HW2 2966   0.210   2.276   1.690  0.1595 -0.7054 -0.2613
    1SOL    HW3 2967   0.227   2.223   1.550  0.8273  1.0436 -0.8573
    1SOL    MW4 2968   0.224   2.290   1.606  0.2977  0.3762 -0.0736
    1SOL     OW 2969   4.467   2.442   1.550 -0.1708  0.0680 -0.2600
    1SOL    HW2 2970   4.395   2.387   1.579 -0.0463 -0.9803 -1.8514
    1SOL    HW3 2971   4.546   2.395   1.578 -0.0760 -0.1744 -0.9205
    1SOL    MW4 2972   4.468   2.428   1.557 -0.1421 -0.1023 -0.5571
    1SOL     OW 2973   0.011   2.705   1.630 -0.3575  0.4456 -0.6235
    1SOL    HW2 2974  -0.075   2.730   1.597 -0.1944  0.4746 -1.0270
    1SOL    HW3 2975   0.015   2.610   1.617 -0.1598  0.5034 -1.0078
    1SOL    MW4 2976   0.000   2.696   1.624 -0.3099  0.4570 -0.7274
    1SOL     OW 2977   0.237   2.842   1.535  0.6303 -0.0731  0.1971
    1SOL    HW2 2978   0.317   2.793   1.556  0.1272 -0.3113  1.6508
    1SOL    HW3 2979   0.166   2.780   1.550  0.0202  0.9279  1.5817
    1SOL    MW4 2980   0.238   2.827   1.540  0.4835  0.0274  0.5716
    1SOL     OW 2981   0.220   3.118   1.602 -0.6260 -0.2486  0.1120
    1SOL    HW2 2982   0.134   3.144   1.568 -0.3195  0.1063 -0.3952
    1SOL    HW3 2983   0.225   3.024   1.587 -1.2081 -0.3906  0.7712
    1SOL    MW4 2984   0.209   3.109   1.595 -0.6623 -0.2208  0.1320
    1SOL     OW 2985   4.469   3.180   1.505 -0.0372  0.2375 -0.2186
    1SOL    HW2 2986   4.453   3.274   1.514 -2.8305 -0.1595 -0.5466
    1SOL    HW3 2987   4.473   3.165   1.411  1.3941  0.1606 -0.1560
    1SOL    MW4 2988   4.468   3.190   1.494 -0.2169  0.1748 -0.2537
    1SOL     OW 2989   4.474   3.451   1.556  0.2495 -0.3373  0.3726
    1SOL    HW2 2990   4.491   3.460   1.649  1.5358  1.7373 -0.0412
    1SOL    HW3 2991   4.396   3.504   1.540  0.1877 -0.4787  0.1969
    1SOL    MW4 2992   4.466   3.459   1.566  0.4110 -0.0820  0.2948
    1SOL     OW 2993   0.203   3.592   1.483  0.3303 -0.2105  0.1819
    1SOL    HW2 2994   0.194   3.675   1.529  1.8591  0.3277 -0.5032
    1SOL    HW3 2995   0.125   3.542   1.510 -0.1119  1.0681  1.3234
    1SOL    MW4 2996   0.191   3.596   1.493  0.4737  0.0291  0.2420
    1SOL     OW 2997   0.219   3.835   1.610  0.0007  0.2385 -0.3526
    1SOL    HW2 2998   0.231   3.853   1.703 -0.3783 -2.2669  0.2197
    1SOL    HW3 2999   0.288   3.886   1.567  0.2305  1.3611  1.2920
    1SOL    MW4 3000   0.230   3.844   1.617 -0.0190  0.0558 -0.0601
    1SOL     OW 3001   4.472   3.942   1.509  0.1948  0.0625 -0.3322
    1SOL    HW2 3002   4.480   4.035   1.532  1.2933  0.2541 -1.4124
    1SOL    HW3 3003   4.550   3.902   1.547  0.9892  0.0290 -1.9332
    1SOL    MW4 3004   4.484   3.949   1.517  0.4444  0.0834 -0.6858
    1SOL     OW 3005   4.426   4.214   1.559 -0.3848 -0.0802  0.3127
    1SOL    HW2 3006   4.414   4.227   1.653 -0.8244 -0.8776  0.3664
    1SOL    HW3 3007   4.349   4.255   1.520  0.3985  1.3398  0.2180
    1SOL    MW4 3008   4.414   4.221   1.566 -0.3390  0.0019  0.3074
    1SOL     OW 3009   0.141   4.381   1.468 -0.1174 -0.1736  0.1916
    1SOL    HW2 3010   0.066   4.329   1.498 -0.4579 -0.0791 -0.4852
    1SOL    HW3 3011   0.153   4.448   1.535 -1.1872  0.3463 -0.1246
    1SOL    MW4 3012   0.133   4.383   1.481 -0.3035 -0.0920  0.0607
    1SOL     OW 3013   0.680   4.637   1.620  0.2492 -0.3238  0.3173
    1SOL    HW2 3014   0.753   4.691   1.589  1.0731 -1.7251 -0.2819
    1SOL    HW3 3015   0.602   4.687   1.599  0.9908  0.5591 -0.3907
    1SOL    MW4 3016   0.679   4.650   1.613  0.4558 -0.3915  0.1450
    1SOL     OW 3017   0.418   0.050   1.507  0.8331  0.7392  0.0690
    1SOL    HW2 3018   0.407   0.138   1.542  1.4421  1.2192 -0.8912
    1SOL    HW3 3019   0.423   0.063   1.412 -0.6217 -0.4947 -0.1834
    1SOL    MW4 3020   0.418   0.063   1.499  0.7215  0.6398 -0.0910
    1SOL     OW 3021   0.437   0.295   1.589  0.2438 -0.3195  0.5493
    1SOL    HW2 3022   0.517   0.337   1.558  0.5733 -0.2207  1.4949
    1SOL    HW3 3023   0.366   0.352   1.559  0.5107 -0.5339 -0.4980
    1SOL    MW4 3024   0.438   0.308   1.581  0.3225 -0.3347  0.5358
    1SOL     OW 3025   0.656   0.468   1.545 -0.4800  0.1800  0.3081
    1SOL    HW2 3026   0.646   0.558   1.575 -0.2488 -0.3336  1.9656
    1SOL    HW3 3027   0.649   0.473   1.449  3.4182  2.5057  0.0665
    1SOL    MW4 3028   0.654   0.480   1.536  0.0648  0.4191  0.4948
    1SOL     OW 3029   0.646   0.734   1.597  0.4095 -0.3662  0.4112
    1SOL    HW2 3030   0.655   0.758   1.689  0.9955  1.9314 -0.2245
    1SOL    HW3 3031   0.722   0.773   1.554  0.3840 -1.7910 -0.9897
    1SOL    MW4 3032   0.657   0.742   1.603  0.4835 -0.2511  0.1425
    1SOL     OW 3033   0.412   0.885   1.535  0.1207 -0.0660 -0.5247
    1SOL    HW2 3034   0.434   0.968   1.580 -0.3041  0.0253 -0.4901
    1SOL    HW3 3035   0.490   0.831   1.548  0.4118  0.3368 -0.5653
    1SOL    MW4 3036   0.425   0.889   1.543  0.1031 -0.0009 -0.5256
    1SOL     OW 3037   0.460   1.115   1.667 -0.4240 -0.0544 -0.1557
    1SOL    HW2 3038   0.518   1.166   1.610 -0.2392 -0.8534 -0.6982
    1SOL    HW3 3039   0.372   1.143   1.644 -0.2524  1.2891  0.7896
    1SOL    MW4 3040   0.456   1.125   1.657 -0.3770  0.0175 -0.1026
    1SOL     OW 3041   0.669   1.280   1.573 -0.0999  0.0352 -0.1307
    1SOL    HW2 3042   0.661   1.373   1.593 -1.1391 -0.2438  0.7689
    1SOL    HW3 3043   0.671   1.277   1.477  1.0705  1.0589 -0.1639
    1SOL    MW4 3044   0.668   1.292   1.563 -0.0826  0.1336 -0.0163
    1SOL     OW 3045   0.659   1.563   1.614 -0.1370  0.8787  0.8387
    1SOL    HW2 3046   0.743   1.601   1.586 -0.6615  0.5019 -1.3358
    1SOL    HW3 3047   0.593   1.618   1.572 -0.9362 -0.2741  0.5752
    1SOL    MW4 3048   0.662   1.575   1.605 -0.3116  0.6769  0.5171
    1SOL     OW 3049   0.424   1.674   1.475  0.5249 -0.4110  0.0745
    1SOL    HW2 3050   0.440   1.760   1.513  0.9933 -0.3803 -0.1838
    1SOL    HW3 3051   0.339   1.647   1.509  0.1112  0.4155 -0.3182
    1SOL    MW4 3052   0.415   1.682   1.484  0.5322 -0.2979 -0.0114
    1SOL     OW 3053   0.467   1.914   1.602  0.1403  0.5448  0.1193
    1SOL    HW2 3054   0.459   1.917   1.697 -1.0281  0.8510  0.0262
    1SOL    HW3 3055   0.394   1.968   1.570 -0.2968 -0.6335 -0.9558
    1SOL    MW4 3056   0.456   1.922   1.610 -0.0715  0.4296 -0.0348
    1SOL     OW 3057   0.672   2.091   1.537  0.2910 -0.3959  0.3736
    1SOL    HW2 3058   0.755   2.064   1.577  0.5094 -0.0683  0.1500
    1SOL    HW3 3059   0.608   2.030   1.571  0.2635  0.5469  2.0972
    1SOL    MW4 3060   0.675   2.080   1.547  0.3161 -0.2282  0.5717
    1SOL     OW 3061   0.675   2.346   1.647 -0.7638 -0.1416  0.2034
    1SOL    HW2 3062   0.598   2.388   1.608 -0.9513 -0.7118 -0.0436
    1SOL    HW3 3063   0.671   2.255   1.616  0.3051 -0.0394 -0.2688
    1SOL    MW4 3064   0.665   2.339   1.638 -0.6475 -0.2034  0.1086
    1SOL     OW 3065   0.445   2.433   1.530 -0.1755  0.4407 -0.1131
    1SOL    HW2 3066   0.440   2.524   1.561 -1.5083  0.1720  0.4744
    1SOL    HW3 3067   0.374   2.388   1.576  0.3754 -0.8662 -0.5281
    1SOL    MW4 3068   0.435   2.439   1.540 -0.2787  0.2329 -0.0904
    1SOL     OW 3069   0.467   2.701   1.581 -0.2239 -0.2299 -0.1488
    1SOL    HW2 3070   0.472   2.705   1.676  1.3779 -0.2991 -0.2141
    1SOL    HW3 3071   0.541   2.753   1.550 -0.6285 -0.3410 -1.3532
    1SOL    MW4 3072   0.477   2.708   1.589 -0.0660 -0.2537 -0.3164
    1SOL     OW 3073   0.652   2.871   1.454 -0.7739  0.0414 -0.6156
    1SOL    HW2 3074   0.661   2.958   1.493 -0.4099 -0.1471 -0.2688
    1SOL    HW3 3075   0.627   2.887   1.363  0.1130  0.5210 -0.7719
    1SOL    MW4 3076   0.650   2.885   1.447 -0.6089  0.0796 -0.5906
    1SOL     OW 3077   0.673   3.110   1.591 -0.0057  0.9716  0.0200
    1SOL    HW2 3078   0.751   3.147   1.549 -0.6223  0.6247 -1.4556
    1SOL    HW3 3079   0.600   3.156   1.550 -0.5774  1.4899  1.5891
    1SOL    MW4 3080   0.674   3.121   1.580 -0.1625  0.9942  0.0323
    1SOL     OW 3081   0.458   3.229   1.492 -0.0139 -0.6119 -0.5029
    1SOL    HW2 3082   0.373   3.201   1.526 -0.6781  0.3354 -1.3415
    1SOL    HW3 3083   0.444   3.238   1.397  1.1169 -0.7917 -0.6946
    1SOL    MW4 3084   0.445   3.227   1.484  0.0477 -0.5107 -0.6388
    1SOL     OW 3085   0.458   3.493   1.565  0.2774  0.1760 -0.1981
    1SOL    HW2 3086   0.446   3.404   1.533  2.0785 -0.0621 -0.2380
    1SOL    HW3 3087   0.377   3.538   1.541  0.3465 -0.7989 -2.3676
    1SOL    MW4 3088   0.445   3.487   1.557  0.5241  0.0160 -0.4896
    1SOL     OW 3089   0.677   3.636   1.464 -0.0332 -0.2474 -0.0921
    1SOL    HW2 3090   0.748   3.585   1.503  0.3981 -0.2913 -0.9247
    1SOL    HW3 3091   0.597   3.598   1.500  0.3426 -0.5256  0.4587
    1SOL    MW4 3092   0.676   3.625   1.474  0.0733 -0.2899 -0.1293
    1SOL     OW 3093   0.661   3.874   1.607  0.3497  0.5149 -0.3063
    1SOL    HW2 3094   0.739   3.926   1.586 -0.2883  0.8351 -1.9415
    1SOL    HW3 3095   0.673   3.793   1.558  0.0291  0.2383  0.0740
    1SOL    MW4 3096   0.673   3.870   1.597  0.2232  0.5205 -0.4718
    1SOL     OW 3097   0.418   3.991   1.516  0.2261  0.3113  0.8416
    1SOL    HW2 3098   0.498   3.948   1.549 -0.2677 -2.1683 -1.0334
    1SOL    HW3 3099   0.430   3.994   1.421 -1.8944 -0.0138  0.5456
    1SOL    MW4 3100   0.430   3.986   1.508 -0.1188 -0.0587  0.5552
    1SOL     OW 3101   0.400   4.265   1.548 -0.1189 -0.8191  0.4334
    1SOL    HW2 3102   0.390   4.170   1.543  0.5192 -0.8337 -0.6439
    1SOL    HW3 3103   0.314   4.299   1.526 -0.7377 -1.1546  2.1900
    1SOL    MW4 3104   0.388   4.257   1.545 -0.1163 -0.8650  0.5229
    1SOL     OW 3105   0.655   4.346   1.463 -0.1577  0.6842  0.2185
    1SOL    HW2 3106   0.573   4.309   1.495  0.4975 -0.3672  0.7309
    1SOL    HW3 3107   0.656   4.436   1.495  0.2229 -0.1778  2.7181
    1SOL    MW4 3108   0.644   4.353   1.471 -0.0210  0.4315  0.6158
    1SOL     OW 3109   1.114   4.624   1.579 -0.3648  0.5135  0.0035
    1SOL    HW2 3110   1.105   4.650   1.671 -1.3535  0.7401 -0.1448
    1SOL    HW3 3111   1.198   4.659   1.552  0.6962 -0.9484  1.2752
    1SOL    MW4 3112   1.124   4.632   1.588 -0.3554  0.3510  0.1516
    1SOL     OW 3113   0.890   0.101   1.486  0.8039  0.3541  0.1361
    1SOL    HW2 3114   0.916   0.185   1.526  1.8252  0.3726 -0.5512
    1SOL    HW3 3115   0.961   0.041   1.508  0.6547 -0.0227 -0.3989
    1SOL    MW4 3116   0.903   0.104   1.494  0.9189  0.3068 -0.0252
    1SOL     OW 3117   0.903   0.351   1.601  0.4061 -0.3214  0.2194
    1SOL    HW2 3118   0.903   0.341   1.696  0.7775  1.5094  0.4197
    1SOL    HW3 3119   0.815   0.380   1.579  0.3227 -0.7342 -0.0075
    1SOL    MW4 3120   0.892   0.353   1.610  0.4441 -0.1343  0.2159
    1SOL     OW 3121   1.115   0.523   1.553  0.1407 -0.2985  0.4924
    1SOL    HW2 3122   1.114   0.608   1.597  1.6741  0.0455 -0.1168
    1SOL    HW3 3123   1.031   0.483   1.577 -0.2071  1.0017  1.5175
    1SOL    MW4 3124   1.104   0.529   1.562  0.2971 -0.0816  0.5472
    1SOL     OW 3125   1.116   0.777   1.643 -0.7498 -0.2935  0.4241
    1SOL    HW2 3126   1.111   0.768   1.738  1.0412 -1.8059  0.3879
    1SOL    HW3 3127   1.198   0.823   1.627 -1.0949  0.0517 -0.4040
    1SOL    MW4 3128   1.126   0.782   1.653 -0.5590 -0.4475  0.3101
    1SOL     OW 3129   0.874   0.874   1.534 -0.9599 -0.2180 -0.0446
    1SOL    HW2 3130   0.961   0.835   1.547 -0.4612  0.6400 -0.7346
    1SOL    HW3 3131   0.876   0.906   1.444 -1.6549  0.6468  0.2392
    1SOL    MW4 3132   0.886   0.873   1.524 -0.9858  0.0093 -0.0981
    1SOL     OW 3133   0.910   1.140   1.641  0.2928  0.4085  0.4107
    1SOL    HW2 3134   0.911   1.048   1.612  1.4171  0.5689 -0.0906
    1SOL    HW3 3135   0.819   1.168   1.628 -0.5803 -1.2489  2.5789
    1SOL    MW4 3136   0.898   1.131   1.635  0.3259  0.2109  0.6305
    1SOL     OW 3137   1.104   1.287   1.502  0.3459  0.3685 -0.2223
    1SOL    HW2 3138   1.185   1.270   1.551  1.6595 -0.2099 -2.4912
    1SOL    HW3 3139   1.037   1.238   1.548  1.6897 -0.7784  0.5685
    1SOL    MW4 3140   1.106   1.278   1.514  0.6965  0.1409 -0.4172
    1SOL     OW 3141   1.098   1.557   1.627 -0.1721 -0.4446  0.0092
    1SOL    HW2 3142   1.181   1.597   1.602 -0.3957 -0.2247 -0.3698
    1SOL    HW3 3143   1.089   1.482   1.568 -0.7644  0.1542 -0.6658
    1SOL    MW4 3144   1.108   1.552   1.616 -0.2798 -0.3365 -0.1298
    1SOL     OW 3145   0.880   1.711   1.519 -0.2268 -0.0284  0.0495
    1SOL    HW2 3146   0.967   1.679   1.545 -0.6307 -0.6046  0.7322
    1SOL    HW3 3147   0.882   1.711   1.424 -0.4115 -2.6636  0.0267
    1SOL    MW4 3148   0.892   1.707   1.510 -0.3044 -0.4520  0.1366
    1SOL     OW 3149   0.907   1.980   1.631  0.0987 -0.1216 -0.4118
    1SOL    HW2 3150   0.979   2.013   1.577 -0.1972 -0.8778 -1.2873
    1SOL    HW3 3151   0.886   1.895   1.593 -2.2386  0.7283 -1.0704
    1SOL    MW4 3152   0.914   1.973   1.619 -0.2487 -0.1092 -0.6142
    1SOL     OW 3153   1.102   2.083   1.468  1.0349 -0.1898  0.6645
    1SOL    HW2 3154   1.174   2.027   1.499  2.7841  1.4623 -0.3400
    1SOL    HW3 3155   1.112   2.164   1.517  0.5647  0.4773 -0.3404
    1SOL    MW4 3156   1.113   2.086   1.479  1.2037  0.1161  0.3994
    1SOL     OW 3157   1.136   2.321   1.588 -0.2062 -0.0198 -0.2404
    1SOL    HW2 3158   1.205   2.381   1.559 -0.2231  0.0873 -0.0562
    1SOL    HW3 3159   1.054   2.367   1.569 -0.1822  1.8293  3.7870
    1SOL    MW4 3160   1.134   2.335   1.582 -0.2053  0.2384  0.3152
    1SOL     OW 3161   0.889   2.472   1.525  0.2417  0.3540  0.4145
    1SOL    HW2 3162   0.896   2.565   1.545 -0.1749  0.2006  1.2798
    1SOL    HW3 3163   0.817   2.441   1.580  0.1173 -0.3956 -0.1643
    1SOL    MW4 3164   0.880   2.480   1.535  0.1704  0.2348  0.4523
    1SOL     OW 3165   0.879   2.751   1.577  0.3448  0.2542 -0.2812
    1SOL    HW2 3166   0.876   2.764   1.672  0.8693 -2.6068  0.1795
    1SOL    HW3 3167   0.797   2.789   1.545  0.7553  2.4396  1.1114
    1SOL    MW4 3168   0.867   2.758   1.586  0.4681  0.1650 -0.0366
    1SOL     OW 3169   1.138   2.828   1.471 -0.3073  0.0321  0.1630
    1SOL    HW2 3170   1.131   2.922   1.489 -0.1120 -0.0362  0.6131
    1SOL    HW3 3171   1.058   2.790   1.506 -0.4436  0.0478 -0.1323
    1SOL    MW4 3172   1.127   2.835   1.478 -0.2996  0.0255  0.1833
    1SOL     OW 3173   1.138   3.112   1.559 -0.4444  0.0049 -0.2279
    1SOL    HW2 3174   1.128   3.121   1.654  2.1225 -1.1587  0.1608
    1SOL    HW3 3175   1.214   3.166   1.537 -1.8918  1.4722 -1.8777
    1SOL    MW4 3176   1.146   3.120   1.568 -0.2967  0.0448 -0.3942
    1SOL     OW 3177   0.897   3.241   1.488 -0.1209 -0.1237 -0.4538
    1SOL    HW2 3178   0.980   3.199   1.511  0.1108  0.2617 -0.5866
    1SOL    HW3 3179   0.900   3.246   1.392 -0.8759 -1.3068 -0.5515
    1SOL    MW4 3180   0.908   3.236   1.478 -0.1900 -0.2286 -0.4842
    1SOL     OW 3181   0.878   3.500   1.595  0.7170 -0.6241 -0.4310
    1SOL    HW2 3182   0.950   3.546   1.552  0.8365 -1.1951 -0.8510
    1SOL    HW3 3183   0.880   3.412   1.557  0.0564 -0.7662 -0.1435
    1SOL    MW4 3184   0.887   3.494   1.584  0.6456 -0.7181 -0.4485
    1SOL     OW 3185   1.115   3.600   1.462  0.0459 -0.0150 -1.0188
    1SOL    HW2 3186   1.198   3.577   1.503 -0.0371 -0.4205 -1.0759
    1SOL    HW3 3187   1.137   3.615   1.370 -0.2383 -1.8572 -1.3977
    1SOL    MW4 3188   1.129   3.599   1.455 -0.0025 -0.3114 -1.0763
    1SOL     OW 3189   1.090   3.849   1.602  0.1450 -0.2353 -0.2589
    1SOL    HW2 3190   1.174   3.895   1.598  0.0413  0.0113  0.2930
    1SOL    HW3 3191   1.105   3.768   1.553  0.0154  0.8295 -2.0696
    1SOL    MW4 3192   1.103   3.844   1.595  0.1143 -0.0622 -0.4251
    1SOL     OW 3193   0.877   4.000   1.492 -0.4327 -0.2319  0.1705
    1SOL    HW2 3194   0.896   4.088   1.525 -0.1709 -0.5794  0.9592
    1SOL    HW3 3195   0.950   3.946   1.524 -0.2607 -0.6080 -0.8381
    1SOL    MW4 3196   0.889   4.004   1.501 -0.3755 -0.3271  0.1414
    1SOL     OW 3197   0.882   4.241   1.584  0.2526  0.2534  0.1794
    1SOL    HW2 3198   0.896   4.255   1.677 -1.0171 -1.6328  0.6923
    1SOL    HW3 3199   0.800   4.287   1.565  0.3533  0.3881  0.0775
    1SOL    MW4 3200   0.873   4.249   1.594  0.0984  0.0224  0.2338
    1SOL     OW 3201   1.126   4.351   1.476 -0.2596  0.8179 -0.3459
    1SOL    HW2 3202   1.047   4.300   1.496 -0.3325  0.8276 -0.6026
    1SOL    HW3 3203   1.105   4.440   1.504 -0.2187  0.7530 -0.1108
    1SOL    MW4 3204   1.113   4.356   1.482 -0.2638  0.8111 -0.3488
    1SOL     OW 3205   1.569   0.003   1.617  0.2062  0.3024 -0.1239
    1SOL    HW2 3206   1.549   0.011   1.710  0.3979  1.8866 -0.2092
    1SOL    HW3 3207   1.502   0.055   1.573  1.0391  0.8382 -0.7701
    1SOL    MW4 3208   1.558   0.011   1.623  0.3413  0.5821 -0.2205
    1SOL     OW 3209   1.346   0.114   1.512 -0.2968 -0.0950 -0.1377
    1SOL    HW2 3210   1.326   0.198   1.552 -1.9201 -1.1412  1.2867
    1SOL    HW3 3211   1.355   0.133   1.419 -0.0442  1.7503  0.2541
    1SOL    MW4 3212   1.345   0.127   1.505 -0.4777  0.0104  0.1019
    1SOL     OW 3213   1.343   0.386   1.627 -0.3948  0.0678 -0.3531
    1SOL    HW2 3214   1.413   0.440   1.590 -0.3651 -0.4063 -1.0074
    1SOL    HW3 3215   1.262   0.431   1.601 -0.3482  0.2753 -0.1388
    1SOL    MW4 3216   1.341   0.399   1.618 -0.3846  0.0326 -0.4112
    1SOL     OW 3217   1.566   0.533   1.537  0.3811  0.0764  0.4095
    1SOL    HW2 3218   1.640   0.485   1.575  1.4367  1.4532  0.1329
    1SOL    HW3 3219   1.572   0.516   1.443  0.8114  0.8166  0.3013
    1SOL    MW4 3220   1.577   0.524   1.530  0.5771  0.3557  0.3588
    1SOL     OW 3221   1.541   0.768   1.648  0.4684  0.1795 -0.2641
    1SOL    HW2 3222   1.564   0.754   1.740 -0.0558 -1.1661 -0.3233
    1SOL    HW3 3223   1.553   0.682   1.607 -2.6736 -0.1061 -0.7020
    1SOL    MW4 3224   1.546   0.755   1.655 -0.0153 -0.0358 -0.3295
    1SOL     OW 3225   1.357   0.937   1.534  0.0002  0.0350  0.1560
    1SOL    HW2 3226   1.428   0.882   1.566  0.7283  1.8135  1.7267
    1SOL    HW3 3227   1.357   0.924   1.439  1.6379 -0.8893  0.2596
    1SOL    MW4 3228   1.366   0.928   1.526  0.3122  0.1477  0.3771
    1SOL     OW 3229   1.346   1.212   1.629 -0.5114 -0.0719 -0.5574
    1SOL    HW2 3230   1.362   1.192   1.721 -0.9137 -0.7188 -0.6239
    1SOL    HW3 3231   1.347   1.127   1.586 -0.8052  0.1867 -1.0755
    1SOL    MW4 3232   1.349   1.198   1.635 -0.6033 -0.1231 -0.6346
    1SOL     OW 3233   1.574   1.316   1.512  0.3995  0.0852  0.0089
    1SOL    HW2 3234   1.489   1.292   1.548  0.3791  1.3606  0.8083
    1SOL    HW3 3235   1.561   1.314   1.417 -0.9974  1.9310  0.1312
    1SOL    MW4 3236   1.562   1.312   1.504  0.2126  0.4970  0.1305
    1SOL     OW 3237   1.586   1.593   1.606 -0.4193 -0.4653  0.2980
    1SOL    HW2 3238   1.567   1.592   1.699 -0.3482 -1.0345  0.3093
    1SOL    HW3 3239   1.584   1.501   1.580 -0.9176 -0.2712 -0.3593
    1SOL    MW4 3240   1.583   1.581   1.615 -0.4756 -0.5147  0.2128
    1SOL     OW 3241   1.341   1.672   1.508  0.8378  0.2403 -0.0001
    1SOL    HW2 3242   1.432   1.647   1.526  1.6356  2.1065 -1.2574
    1SOL    HW3 3243   1.338   1.683   1.413 -1.3221 -2.0580 -0.2502
    1SOL    MW4 3244   1.353   1.670   1.498  0.6580  0.1833 -0.1987
    1SOL     OW 3245   1.312   1.942   1.592  0.1556  0.0250 -0.2322
    1SOL    HW2 3246   1.288   1.950   1.685 -0.6593 -0.0260 -0.4400
    1SOL    HW3 3247   1.344   1.852   1.584 -0.7847 -0.3181 -0.2283
    1SOL    MW4 3248   1.313   1.931   1.603 -0.0759 -0.0271 -0.2590
    1SOL     OW 3249   1.561   2.053   1.509  0.4324  0.1877 -0.0174
    1SOL    HW2 3250   1.475   2.028   1.541  0.4731  0.6299  0.4442
    1SOL    HW3 3251   1.559   2.032   1.416 -0.0584 -0.1071  0.0569
    1SOL    MW4 3252   1.550   2.047   1.501  0.3730  0.2072  0.0533
    1SOL     OW 3253   1.586   2.324   1.611 -0.1968  0.0382 -0.0797
    1SOL    HW2 3254   1.667   2.364   1.580 -1.2999 -0.1408 -3.4591
    1SOL    HW3 3255   1.588   2.236   1.573 -1.7557 -0.1175  0.1908
    1SOL    MW4 3256   1.597   2.318   1.602 -0.5480 -0.0057 -0.4900
    1SOL     OW 3257   1.371   2.476   1.526  0.0403  0.0642  0.1523
    1SOL    HW2 3258   1.408   2.562   1.547  0.5593  0.4525 -2.1876
    1SOL    HW3 3259   1.437   2.414   1.558 -0.4571  0.5197  2.0838
    1SOL    MW4 3260   1.385   2.479   1.533  0.0432  0.1755  0.0983
    1SOL     OW 3261   1.383   2.739   1.564 -0.1097 -0.1536 -0.2343
    1SOL    HW2 3262   1.456   2.796   1.538  1.0552 -1.7443 -0.5019
    1SOL    HW3 3263   1.304   2.788   1.537  0.8972  0.7651 -1.6214
    1SOL    MW4 3264   1.382   2.753   1.557  0.1768 -0.2422 -0.4526
    1SOL     OW 3265   1.600   2.908   1.516 -0.0672  0.0632 -0.3404
    1SOL    HW2 3266   1.668   2.846   1.544  0.1409  0.4343 -0.0191
    1SOL    HW3 3267   1.590   2.891   1.422 -0.6444 -1.0686 -0.0834
    1SOL    MW4 3268   1.608   2.897   1.507 -0.1159 -0.0372 -0.2639
    1SOL     OW 3269   1.599   3.149   1.630  0.0324  0.2574 -0.1836
    1SOL    HW2 3270   1.671   3.202   1.596  0.5935  0.1502  0.7935
    1SOL    HW3 3271   1.609   3.064   1.586  0.0168  0.5026 -0.6578
    1SOL    MW4 3272   1.610   3.144   1.620  0.1044  0.2756 -0.1173
    1SOL     OW 3273   1.356   3.242   1.491 -0.2474  0.3202 -0.3907
    1SOL    HW2 3274   1.359   3.336   1.511 -0.2568  0.0230  1.0178
    1SOL    HW3 3275   1.433   3.205   1.534 -0.1351 -0.2934 -1.1071
    1SOL    MW4 3276   1.367   3.250   1.499 -0.2338  0.1998 -0.2995
    1SOL     OW 3277   1.369   3.534   1.569 -0.2652  0.4639 -0.0468
    1SOL    HW2 3278   1.356   3.538   1.663 -0.5665 -1.0132 -0.0029
    1SOL    HW3 3279   1.458   3.566   1.555 -0.3279  0.9659  0.7057
    1SOL    MW4 3280   1.379   3.539   1.579 -0.3133  0.3350  0.0583
    1SOL     OW 3281   1.612   3.614   1.480 -0.1009 -0.2269  0.0144
    1SOL    HW2 3282   1.591   3.706   1.493 -0.9341 -0.5340  0.9626
    1SOL    HW3 3283   1.622   3.604   1.386 -0.4046  0.7458 -0.1226
    1SOL    MW4 3284   1.610   3.625   1.469 -0.2508 -0.1388  0.1214
    1SOL     OW 3285   1.555   3.887   1.552 -0.2481 -0.0025  0.0245
    1SOL    HW2 3286   1.553   3.907   1.646 -0.5983 -0.5430  0.1363
    1SOL    HW3 3287   1.471   3.919   1.519  0.1497  0.7847 -0.2329
    1SOL    MW4 3288   1.543   3.894   1.560 -0.2418  0.0298  0.0054
    1SOL     OW 3289   1.319   4.016   1.520  0.3313 -0.2351  0.5026
    1SOL    HW2 3290   1.360   4.101   1.533  2.2811 -0.9245 -0.7817
    1SOL    HW3 3291   1.287   4.018   1.430 -0.1280 -0.6564  0.6508
    1SOL    MW4 3292   1.320   4.027   1.510  0.5281 -0.3815  0.3527
    1SOL     OW 3293   1.358   4.263   1.621  0.1917  0.1668  0.0924
    1SOL    HW2 3294   1.428   4.322   1.593  0.4598  0.1538  0.7294
    1SOL    HW3 3295   1.279   4.297   1.579  0.6995 -0.2345 -1.1980
    1SOL    MW4 3296   1.357   4.275   1.612  0.2942  0.1121  0.0061
    1SOL     OW 3297   1.538   4.426   1.493  0.0954 -0.1626  0.0197
    1SOL    HW2 3298   1.627   4.401   1.515 -0.3158 -0.6342  1.2075
    1SOL    HW3 3299   1.526   4.511   1.536  0.5029  0.6751 -1.5012
    1SOL    MW4 3300   1.548   4.434   1.502  0.0950 -0.1149 -0.0242
    1SOL     OW 3301   2.046   0.008   1.597 -0.0242  0.0384  0.5363
    1SOL    HW2 3302   2.032  -0.016   1.688 -2.5360 -1.3414 -0.1539
    1SOL    HW3 3303   1.972   0.065   1.575  0.8641  0.8319 -0.5006
    1SOL    MW4 3304   2.034   0.013   1.606 -0.2384 -0.0390  0.3084
    1SOL     OW 3305   1.804   0.141   1.532  0.2788 -0.1988  0.1926
    1SOL    HW2 3306   1.726   0.089   1.553  0.0163  0.5264  1.0458
    1SOL    HW3 3307   1.802   0.147   1.436 -0.2000 -0.9669  0.1440
    1SOL    MW4 3308   1.793   0.135   1.522  0.1810 -0.2045  0.2987
    1SOL     OW 3309   1.796   0.404   1.630 -0.1288  0.4279  0.0291
    1SOL    HW2 3310   1.885   0.436   1.610 -0.6314  0.5949 -2.1217
    1SOL    HW3 3311   1.795   0.314   1.597 -1.3886  1.1232 -1.9160
    1SOL    MW4 3312   1.808   0.396   1.623 -0.3613  0.5417 -0.5113
    1SOL     OW 3313   2.047   0.493   1.541 -0.1011 -0.4087 -0.2924
    1SOL    HW2 3314   2.121   0.449   1.583  0.0933  0.3560  0.1585
    1SOL    HW3 3315   2.047   0.581   1.577 -1.4622 -0.5116 -0.0165
    1SOL    MW4 3316   2.057   0.499   1.551 -0.2549 -0.3214 -0.1965
    1SOL     OW 3317   1.996   0.748   1.627  0.1314  0.2016  0.1702
    1SOL    HW2 3318   2.073   0.800   1.605 -0.0488  0.0592 -0.8339
    1SOL    HW3 3319   1.922   0.802   1.602 -0.0714 -0.1314  0.0429
    1SOL    MW4 3320   1.997   0.762   1.621  0.0808  0.1389  0.0207
    1SOL     OW 3321   1.781   0.893   1.538 -0.3244 -0.2349 -0.0818
    1SOL    HW2 3322   1.777   0.988   1.546 -0.2170 -0.0570 -1.8915
    1SOL    HW3 3323   1.697   0.862   1.574 -0.7141  0.5999 -0.2614
    1SOL    MW4 3324   1.769   0.901   1.544 -0.3618 -0.1012 -0.3444
    1SOL     OW 3325   1.754   1.151   1.634  0.0756  0.3471 -0.0273
    1SOL    HW2 3326   1.834   1.200   1.620 -0.2226  0.8713  0.0748
    1SOL    HW3 3327   1.686   1.204   1.593 -0.1710 -0.2526 -0.3983
    1SOL    MW4 3328   1.755   1.165   1.627  0.0038  0.3371 -0.0629
    1SOL     OW 3329   1.983   1.305   1.566 -0.4742  0.0320  0.7181
    1SOL    HW2 3330   1.996   1.395   1.595 -1.7409  0.9847 -1.5778
    1SOL    HW3 3331   1.978   1.310   1.471  0.3346 -2.5930  0.4889
    1SOL    MW4 3332   1.984   1.317   1.557 -0.5345 -0.1886  0.3849
    1SOL     OW 3333   2.028   1.555   1.675 -0.5049 -0.2491 -0.2046
    1SOL    HW2 3334   2.113   1.583   1.641  0.3854 -0.1541  2.0251
    1SOL    HW3 3335   1.965   1.612   1.631  0.9863  2.9145  1.5910
    1SOL    MW4 3336   2.031   1.567   1.664 -0.1907  0.1808  0.3265
    1SOL     OW 3337   1.835   1.697   1.544 -0.1503  0.3235 -0.0102
    1SOL    HW2 3338   1.749   1.663   1.567  0.3529 -0.3156  0.9622
    1SOL    HW3 3339   1.844   1.679   1.450 -1.2217  0.7395 -0.1944
    1SOL    MW4 3340   1.825   1.690   1.535 -0.2253  0.2941  0.0939
    1SOL     OW 3341   1.787   1.954   1.640 -0.0517 -0.6665 -0.2419
    1SOL    HW2 3342   1.800   1.866   1.604 -0.0692 -0.9493  0.4238
    1SOL    HW3 3343   1.707   1.985   1.598  0.9958 -0.1950 -1.9329
    1SOL    MW4 3344   1.778   1.946   1.630  0.0843 -0.6417 -0.3772
    1SOL     OW 3345   2.014   2.079   1.545  0.0660 -0.7360 -0.0860
    1SOL    HW2 3346   2.076   2.010   1.568  0.1741 -0.1947  1.2509
    1SOL    HW3 3347   1.929   2.046   1.576  0.0380 -0.4924  0.0996
    1SOL    MW4 3348   2.011   2.065   1.552  0.0765 -0.6325  0.1149
    1SOL     OW 3349   2.066   2.330   1.625  0.0797 -0.0016  0.4365
    1SOL    HW2 3350   2.082   2.333   1.719  0.1719 -0.1825  0.4268
    1SOL    HW3 3351   2.059   2.237   1.605 -1.2958  0.0742  0.4892
    1SOL    MW4 3352   2.067   2.318   1.635 -0.0896 -0.0155  0.4423
    1SOL     OW 3353   1.828   2.463   1.548  0.3002 -0.4415 -0.1516
    1SOL    HW2 3354   1.903   2.422   1.590  1.2195 -0.0895 -1.4200
    1SOL    HW3 3355   1.839   2.445   1.455  0.1196  1.7008 -0.6099
    1SOL    MW4 3356   1.839   2.455   1.541  0.3977 -0.1121 -0.3794
    1SOL     OW 3357   1.796   2.728   1.583 -0.3549  0.1257 -0.3088
    1SOL    HW2 3358   1.886   2.758   1.571 -0.8688  0.9980 -2.2190
    1SOL    HW3 3359   1.800   2.634   1.564  0.2098  0.1070 -0.1047
    1SOL    MW4 3360   1.808   2.719   1.579 -0.3482  0.2382 -0.5341
    1SOL     OW 3361   2.060   2.816   1.530  0.3093  0.2737 -0.2757
    1SOL    HW2 3362   2.047   2.907   1.556  0.0780  0.2305 -0.2345
    1SOL    HW3 3363   2.071   2.819   1.435 -0.3175  0.2822 -0.3508
    1SOL    MW4 3364   2.059   2.828   1.521  0.1960  0.2694 -0.2800
    1SOL     OW 3365   1.980   3.082   1.577  0.1068 -0.0328 -0.2517
    1SOL    HW2 3366   1.976   3.087   1.673  1.2948 -0.0836 -0.1929
    1SOL    HW3 3367   2.069   3.110   1.556 -0.2337  0.2214 -1.3625
    1SOL    MW4 3368   1.992   3.086   1.587  0.2186 -0.0060 -0.3905
    1SOL     OW 3369   1.808   3.279   1.498 -0.2857  0.4697 -0.5014
    1SOL    HW2 3370   1.826   3.363   1.540 -2.6147  1.3918 -1.3093
    1SOL    HW3 3371   1.875   3.220   1.533  0.3437  2.2443  1.3445
    1SOL    MW4 3372   1.819   3.282   1.508 -0.5099  0.8256 -0.3645
    1SOL     OW 3373   1.838   3.514   1.627  0.1232 -0.7207 -0.5027
    1SOL    HW2 3374   1.815   3.480   1.714 -0.3013 -0.0203 -0.3403
    1SOL    HW3 3375   1.755   3.543   1.590  0.4718  0.0407 -0.6864
    1SOL    MW4 3376   1.824   3.513   1.634  0.1132 -0.5279 -0.5056
    1SOL     OW 3377   2.075   3.648   1.544 -0.0905  0.5836 -0.0012
    1SOL    HW2 3378   2.142   3.580   1.534  0.3877  1.0873 -0.2054
    1SOL    HW3 3379   1.999   3.601   1.581 -0.1880 -0.3035 -1.3025
    1SOL    MW4 3380   2.074   3.633   1.548 -0.0401  0.5331 -0.1999
    1SOL     OW 3381   2.007   3.919   1.585 -0.2114 -0.3402 -0.1919
    1SOL    HW2 3382   2.090   3.966   1.572 -0.1985 -0.0285  0.8909
    1SOL    HW3 3383   2.029   3.827   1.574  0.4856 -0.3263  1.0019
    1SOL    MW4 3384   2.021   3.913   1.582 -0.1178 -0.2973  0.1085
    1SOL     OW 3385   1.787   4.069   1.510  0.2286 -0.2084  0.1777
    1SOL    HW2 3386   1.848   3.997   1.527  0.0156 -0.3288  0.4310
    1SOL    HW3 3387   1.701   4.031   1.523  0.1264  0.1602  0.5682
    1SOL    MW4 3388   1.784   4.055   1.514  0.1872 -0.1755  0.2626
    1SOL     OW 3389   1.802   4.335   1.607 -0.1485  0.0402  0.2684
    1SOL    HW2 3390   1.882   4.375   1.572 -2.2881  2.7424 -1.7357
    1SOL    HW3 3391   1.805   4.244   1.576  1.6236  0.3968 -0.6726
    1SOL    MW4 3392   1.813   4.328   1.599 -0.1972  0.4435 -0.1202
    1SOL     OW 3393   2.041   4.412   1.499  0.3397  0.1413  0.5136
    1SOL    HW2 3394   2.126   4.377   1.523  0.1353  0.2057  1.3356
    1SOL    HW3 3395   2.046   4.505   1.521  0.2241  0.2477  0.0996
    1SOL    MW4 3396   2.053   4.419   1.505  0.2975  0.1636  0.5674
    1SOL     OW 3397   2.457   4.620   1.624  0.5908  0.0719  0.0588
    1SOL    HW2 3398   2.453   4.627   1.719 -0.6695 -4.0200  0.4126
    1SOL    HW3 3399   2.387   4.677   1.593  0.3461  0.6538  1.6232
    1SOL    MW4 3400   2.447   4.629   1.633  0.3922 -0.3910  0.3119
    1SOL     OW 3401   2.270   0.160   1.540  0.1365 -0.1260  0.1285
    1SOL    HW2 3402   2.185   0.131   1.573  0.3667  0.6449  1.4318
    1SOL    HW3 3403   2.262   0.154   1.445 -1.2011 -0.5532  0.2579
    1SOL    MW4 3404   2.257   0.156   1.532 -0.0098 -0.0806  0.3176
    1SOL     OW 3405   2.268   0.406   1.666 -0.0677  0.0476 -0.6476
    1SOL    HW2 3406   2.262   0.402   1.762  0.4572  0.3659 -0.5971
    1SOL    HW3 3407   2.304   0.322   1.641  0.1200  0.0943 -0.5355
    1SOL    MW4 3408   2.272   0.395   1.676  0.0267  0.0958 -0.6262
    1SOL     OW 3409   2.451   0.540   1.503 -0.0997 -0.0014 -0.1726
    1SOL    HW2 3410   2.521   0.479   1.526  0.0799 -0.6525 -2.2933
    1SOL    HW3 3411   2.381   0.520   1.565  1.2986  0.1354  1.4834
    1SOL    MW4 3412   2.451   0.529   1.514  0.1082 -0.0693 -0.2339
    1SOL     OW 3413   2.437   0.782   1.621  0.5195  0.3068 -0.1538
    1SOL    HW2 3414   2.354   0.824   1.597  0.6290 -0.3075 -1.6394
    1SOL    HW3 3415   2.451   0.716   1.553  1.3441 -0.7973  1.0665
    1SOL    MW4 3416   2.428   0.778   1.609  0.6433  0.0801 -0.1887
    1SOL     OW 3417   2.202   0.907   1.551  0.5122  0.2352  0.0278
    1SOL    HW2 3418   2.197   1.000   1.572 -2.0908  0.2880 -0.6454
    1SOL    HW3 3419   2.202   0.903   1.456 -2.6304 -0.5149 -0.0054
    1SOL    MW4 3420   2.202   0.918   1.541 -0.2460  0.1432 -0.0654
    1SOL     OW 3421   2.223   1.173   1.612  0.1252 -0.4706 -0.1784
    1SOL    HW2 3422   2.231   1.178   1.707 -1.1169  0.0371 -0.0824
    1SOL    HW3 3423   2.143   1.222   1.592  0.4484 -0.4404 -1.4989
    1SOL    MW4 3424   2.214   1.180   1.622  0.0038 -0.3996 -0.3399
    1SOL     OW 3425   2.465   1.263   1.497  0.1740 -0.1539 -0.1545
    1SOL    HW2 3426   2.382   1.230   1.534  0.0536  0.4390  0.1038
    1SOL    HW3 3427   2.451   1.261   1.402 -0.1700  0.0425 -0.1086
    1SOL    MW4 3428   2.452   1.258   1.489  0.1130 -0.0497 -0.1143
    1SOL     OW 3429   2.483   1.529   1.601 -0.5620  0.0005 -0.6221
    1SOL    HW2 3430   2.567   1.572   1.582 -0.6990  0.3167 -0.5138
    1SOL    HW3 3431   2.485   1.448   1.550 -0.4381  0.2889 -1.0725
    1SOL    MW4 3432   2.495   1.524   1.592 -0.5639  0.0802 -0.6673
    1SOL     OW 3433   2.238   1.641   1.512  0.2011  0.0819  0.0383
    1SOL    HW2 3434   2.327   1.613   1.534  0.5748  0.9770 -0.3013
    1SOL    HW3 3435   2.237   1.643   1.417 -0.7896 -1.8119 -0.0160
    1SOL    MW4 3436   2.250   1.637   1.503  0.1197 -0.0497 -0.0138
    1SOL     OW 3437   2.221   1.897   1.604 -0.1733 -0.0219  0.2281
    1SOL    HW2 3438   2.215   1.898   1.700  1.2555 -2.5467  0.3838
    1SOL    HW3 3439   2.202   1.807   1.580  0.5592  0.3457 -1.7926
    1SOL    MW4 3440   2.217   1.886   1.614  0.1118 -0.3065 -0.0179
    1SOL     OW 3441   2.454   2.037   1.558  0.6884  0.2884  0.3970
    1SOL    HW2 3442   2.376   1.982   1.568  1.3608 -0.8322 -0.4117
    1SOL    HW3 3443   2.475   2.031   1.465  2.0545  0.1530  0.7075
    1SOL    MW4 3444   2.446   2.029   1.547  0.9573  0.1228  0.3314
    1SOL     OW 3445   2.487   2.300   1.621  0.2515  0.0557 -0.3681
    1SOL    HW2 3446   2.503   2.300   1.715 -0.5603 -1.3577 -0.2046
    1SOL    HW3 3447   2.489   2.207   1.597  1.3469  0.4529 -1.9103
    1SOL    MW4 3448   2.489   2.288   1.630  0.2890 -0.0784 -0.5499
    1SOL     OW 3449   2.281   2.442   1.508  0.4262 -0.5925  0.3245
    1SOL    HW2 3450   2.350   2.388   1.547  0.6544 -0.3123  0.3186
    1SOL    HW3 3451   2.199   2.403   1.537  0.5955 -0.4089  1.0536
    1SOL    MW4 3452   2.280   2.430   1.517  0.4787 -0.5312  0.4199
    1SOL     OW 3453   2.259   2.681   1.660 -0.0155 -0.1213  0.5985
    1SOL    HW2 3454   2.266   2.593   1.624  0.4427  0.1387  0.0375
    1SOL    HW3 3455   2.178   2.716   1.621  0.2764  0.0213  0.1081
    1SOL    MW4 3456   2.249   2.674   1.650  0.0834 -0.0682  0.4598
    1SOL     OW 3457   2.471   2.810   1.499  0.0758 -0.3868  0.0676
    1SOL    HW2 3458   2.459   2.900   1.530 -0.3750 -0.5588  0.3945
    1SOL    HW3 3459   2.402   2.760   1.543  1.2877 -1.1870  1.1043
    1SOL    MW4 3460   2.460   2.816   1.509  0.1762 -0.5150  0.2476
    1SOL     OW 3461   2.473   3.055   1.654 -0.6161  0.0222 -0.3062
    1SOL    HW2 3462   2.544   3.098   1.606  0.4958 -1.0512  0.3515
    1SOL    HW3 3463   2.393   3.086   1.611  0.1909  2.0412 -0.4152
    1SOL    MW4 3464   2.472   3.065   1.642 -0.3626  0.1469 -0.2338
    1SOL     OW 3465   2.246   3.162   1.533  0.1678 -0.2475 -0.4867
    1SOL    HW2 3466   2.238   3.248   1.574  3.7757  0.8141 -1.8267
    1SOL    HW3 3467   2.253   3.181   1.439  1.4316 -1.9242 -0.7583
    1SOL    MW4 3468   2.246   3.176   1.526  0.8106 -0.3288 -0.6993
    1SOL     OW 3469   2.274   3.450   1.600 -0.3675 -0.2070 -0.2336
    1SOL    HW2 3470   2.258   3.475   1.690 -0.9314 -0.3883 -0.2834
    1SOL    HW3 3471   2.344   3.508   1.571  1.4918 -1.7378  1.0644
    1SOL    MW4 3472   2.281   3.461   1.608 -0.1965 -0.4327 -0.0689
    1SOL     OW 3473   2.478   3.601   1.515  0.2944 -0.2804  0.1654
    1SOL    HW2 3474   2.552   3.544   1.537 -0.0001  0.0189  2.0080
    1SOL    HW3 3475   2.501   3.685   1.554 -1.3049 -0.3668  1.3862
    1SOL    MW4 3476   2.491   3.604   1.523  0.0446 -0.2520  0.5695
    1SOL     OW 3477   2.471   3.858   1.602  0.5916  0.0204  0.0822
    1SOL    HW2 3478   2.457   3.862   1.697  1.2410  1.3520  0.1452
    1SOL    HW3 3479   2.556   3.900   1.589  0.3888  0.0770 -1.1176
    1SOL    MW4 3480   2.481   3.864   1.613  0.6506  0.2036 -0.0676
    1SOL     OW 3481   2.261   4.014   1.503 -0.0161  0.2433 -0.3281
    1SOL    HW2 3482   2.336   3.966   1.537 -0.7589 -0.3257  0.5475
    1SOL    HW3 3483   2.258   3.993   1.410  0.6097 -0.1318 -0.2650
    1SOL    MW4 3484   2.270   4.005   1.495 -0.0317  0.1187 -0.2042
    1SOL     OW 3485   2.257   4.284   1.596  0.1273  0.3671  0.3448
    1SOL    HW2 3486   2.349   4.311   1.588  0.4083 -0.2509  1.4055
    1SOL    HW3 3487   2.256   4.193   1.567 -0.1593  0.3648  0.3579
    1SOL    MW4 3488   2.269   4.276   1.591  0.1266  0.2847  0.4866
    1SOL     OW 3489   2.514   4.370   1.509 -0.1765 -0.3104 -0.1416
    1SOL    HW2 3490   2.505   4.460   1.537 -2.1865 -0.7030  0.4893
    1SOL    HW3 3491   2.486   4.370   1.417  0.5058 -0.1812 -0.3576
    1SOL    MW4 3492   2.509   4.382   1.500 -0.3517 -0.3448 -0.0869
    1SOL     OW 3493   2.944   0.020   1.634 -0.2090  0.7393  0.5831
    1SOL    HW2 3494   2.937   0.023   1.729 -2.1465  3.3132  0.4061
    1SOL    HW3 3495   2.855   0.033   1.603  0.3111 -0.6147 -1.6089
    1SOL    MW4 3496   2.932   0.022   1.642 -0.3963  0.9002  0.2705
    1SOL     OW 3497   2.679   0.098   1.512  0.0432 -0.2765  0.4519
    1SOL    HW2 3498   2.672   0.186   1.550 -0.6193  0.0354 -0.3585
    1SOL    HW3 3499   2.598   0.054   1.537 -1.2112  0.5156 -1.9945
    1SOL    MW4 3500   2.667   0.104   1.520 -0.2096 -0.1308  0.0222
    1SOL     OW 3501   2.643   0.372   1.621 -0.2366 -0.3538 -0.0928
    1SOL    HW2 3502   2.653   0.401   1.712  0.5207 -0.3529 -0.1675
    1SOL    HW3 3503   2.716   0.415   1.575 -1.4227  0.7624 -0.9765
    1SOL    MW4 3504   2.654   0.382   1.627 -0.2933 -0.2064 -0.2193
    1SOL     OW 3505   2.869   0.474   1.491 -0.4665 -0.3298  0.0829
    1SOL    HW2 3506   2.884   0.554   1.542  0.6955 -1.1396  1.0291
    1SOL    HW3 3507   2.895   0.497   1.402  0.8363  0.0428  0.5551
    1SOL    MW4 3508   2.874   0.488   1.486 -0.1416 -0.3875  0.2700
    1SOL     OW 3509   2.873   0.744   1.583 -0.1475  0.1598 -0.0645
    1SOL    HW2 3510   2.894   0.755   1.676 -0.8857 -2.3837  0.4434
    1SOL    HW3 3511   2.798   0.802   1.568  0.9907  1.7905  0.5261
    1SOL    MW4 3512   2.866   0.753   1.593 -0.0949  0.0393  0.0805
    1SOL     OW 3513   2.657   0.926   1.537  0.0265 -0.1761 -0.2886
    1SOL    HW2 3514   2.569   0.892   1.552  0.4656 -1.2052 -0.0645
    1SOL    HW3 3515   2.669   0.920   1.442 -0.4785  0.8105 -0.4275
    1SOL    MW4 3516   2.647   0.921   1.526  0.0176 -0.1817 -0.2774
    1SOL     OW 3517   2.662   1.169   1.671 -0.2763  0.2049  0.2032
    1SOL    HW2 3518   2.672   1.080   1.636 -1.0591 -0.0564  0.6320
    1SOL    HW3 3519   2.589   1.206   1.621  0.5800  0.9126 -0.5557
    1SOL    MW4 3520   2.653   1.162   1.659 -0.2663  0.2639  0.1596
    1SOL     OW 3521   2.868   1.253   1.508 -0.5800 -0.2236  0.1047
    1SOL    HW2 3522   2.952   1.216   1.535  0.0553  0.6805 -0.5907
    1SOL    HW3 3523   2.806   1.223   1.575  0.1697 -1.4025  0.2889
    1SOL    MW4 3524   2.871   1.244   1.520 -0.3970 -0.2598  0.0373
    1SOL     OW 3525   2.915   1.496   1.616 -0.1064 -0.3127 -0.0455
    1SOL    HW2 3526   2.839   1.548   1.587 -0.6354 -0.8744  0.3320
    1SOL    HW3 3527   2.902   1.410   1.576  1.4265  0.1971 -1.7134
    1SOL    MW4 3528   2.903   1.492   1.607  0.0260 -0.3195 -0.2158
    1SOL     OW 3529   2.713   1.643   1.499  0.1485 -0.1867  0.0605
    1SOL    HW2 3530   2.702   1.731   1.535 -0.3798 -0.6726  1.1209
    1SOL    HW3 3531   2.741   1.657   1.409 -0.6921  1.0704 -0.0165
    1SOL    MW4 3532   2.715   1.656   1.492 -0.0322 -0.0849  0.1903
    1SOL     OW 3533   2.682   1.907   1.638  0.1777 -0.3855 -0.5397
    1SOL    HW2 3534   2.682   1.914   1.733 -0.0214 -0.8158 -0.5064
    1SOL    HW3 3535   2.600   1.947   1.610  0.2258 -0.2796 -0.5273
    1SOL    MW4 3536   2.671   1.913   1.647  0.1578 -0.4283 -0.5337
    1SOL     OW 3537   2.887   2.047   1.501  0.3190 -0.5438  0.2928
    1SOL    HW2 3538   2.895   2.124   1.557  1.4239 -0.5662  0.1729
    1SOL    HW3 3539   2.816   1.995   1.540  0.1552  0.1075  0.8623
    1SOL    MW4 3540   2.879   2.050   1.513  0.4432 -0.4609  0.3523
    1SOL     OW 3541   2.908   2.298   1.608  0.3632  0.6813 -0.0145
    1SOL    HW2 3542   2.898   2.291   1.703 -0.4399  0.4155 -0.1083
    1SOL    HW3 3543   2.831   2.348   1.580 -0.4764 -0.9858 -0.7438
    1SOL    MW4 3544   2.896   2.304   1.617  0.1466  0.4265 -0.1230
    1SOL     OW 3545   2.690   2.442   1.508 -0.0915  0.1982  0.1864
    1SOL    HW2 3546   2.707   2.524   1.554  0.4810 -1.0446  2.2976
    1SOL    HW3 3547   2.622   2.399   1.560 -1.0690 -0.2493 -1.4240
    1SOL    MW4 3548   2.683   2.447   1.521 -0.1450 -0.0246  0.2525
    1SOL     OW 3549   2.690   2.724   1.643  0.0980 -0.4074  0.1357
    1SOL    HW2 3550   2.759   2.764   1.591 -0.1926  0.5187  0.4463
    1SOL    HW3 3551   2.609   2.748   1.598 -0.0546 -1.0185  0.0805
    1SOL    MW4 3552   2.688   2.732   1.630  0.0393 -0.3660  0.1694
    1SOL     OW 3553   2.920   2.833   1.499  0.2291 -0.3912 -0.0890
    1SOL    HW2 3554   2.988   2.769   1.520  0.6082 -0.0034 -0.1183
    1SOL    HW3 3555   2.946   2.912   1.546 -0.8238 -0.5809  0.8450
    1SOL    MW4 3556   2.932   2.835   1.508  0.1404 -0.3653  0.0304
    1SOL     OW 3557   2.941   3.092   1.620  0.3876 -0.4085  0.3204
    1SOL    HW2 3558   2.943   3.106   1.714  0.8599  1.1744  0.0828
    1SOL    HW3 3559   3.010   3.148   1.585  0.6610 -1.4713 -0.9128
    1SOL    MW4 3560   2.950   3.101   1.628  0.4861 -0.3397  0.1262
    1SOL     OW 3561   2.680   3.204   1.532 -0.0307 -0.1812 -0.1331
    1SOL    HW2 3562   2.757   3.151   1.554 -0.4991 -0.5244  0.7079
    1SOL    HW3 3563   2.686   3.218   1.438  0.0066 -1.8795 -0.3936
    1SOL    MW4 3564   2.691   3.199   1.523 -0.0875 -0.4504 -0.0566
    1SOL     OW 3565   2.700   3.469   1.599 -0.1836 -0.2426  0.1576
    1SOL    HW2 3566   2.688   3.470   1.694  0.7235 -0.9075  0.2870
    1SOL    HW3 3567   2.702   3.376   1.576  1.5558 -0.1192 -0.2469
    1SOL    MW4 3568   2.699   3.457   1.608  0.1652 -0.3140  0.1214
    1SOL     OW 3569   2.940   3.625   1.514  0.0905  0.6763 -0.2702
    1SOL    HW2 3570   2.866   3.578   1.555  0.9028 -0.1509  0.2819
    1SOL    HW3 3571   2.923   3.619   1.420  0.5511 -1.4142 -0.2550
    1SOL    MW4 3572   2.928   3.618   1.507  0.2582  0.2916 -0.1955
    1SOL     OW 3573   2.932   3.889   1.617  0.2875 -0.2383 -0.2236
    1SOL    HW2 3574   2.859   3.932   1.571  0.6452  0.7798  0.1396
    1SOL    HW3 3575   2.939   3.803   1.576 -1.3566 -0.4923 -0.0151
    1SOL    MW4 3576   2.923   3.883   1.605  0.1178 -0.1376 -0.1481
    1SOL     OW 3577   2.705   4.006   1.501 -0.5267 -0.3885 -0.0846
    1SOL    HW2 3578   2.693   4.093   1.537 -1.1786 -0.2457 -0.6366
    1SOL    HW3 3579   2.713   4.020   1.406 -0.9764 -0.9548 -0.2121
    1SOL    MW4 3580   2.705   4.019   1.493 -0.6721 -0.4439 -0.1742
    1SOL     OW 3581   2.717   4.233   1.627  0.0198 -0.1021  0.0414
    1SOL    HW2 3582   2.801   4.276   1.611  0.5508 -1.1539 -0.0328
    1SOL    HW3 3583   2.652   4.293   1.590  0.6165  1.3255  1.2044
    1SOL    MW4 3584   2.719   4.247   1.620  0.1690 -0.0525  0.1850
    1SOL     OW 3585   2.950   4.376   1.577  0.1132  0.0299  0.0661
    1SOL    HW2 3586   2.959   4.471   1.589  2.0558 -0.1026 -0.1674
    1SOL    HW3 3587   2.942   4.364   1.482 -1.7137  0.0660  0.2037
    1SOL    MW4 3588   2.950   4.387   1.566  0.1287  0.0167  0.0533
    1SOL     OW 3589   3.361   4.648   1.587 -0.3644  0.2526 -0.2233
    1SOL    HW2 3590   3.434   4.687   1.538  0.1570 -0.7809 -0.2730
    1SOL    HW3 3591   3.350   4.561   1.549 -0.7383 -0.1003  0.6871
    1SOL    MW4 3592   3.369   4.642   1.575 -0.3450  0.0696 -0.1098
    1SOL     OW 3593   3.149   0.121   1.485 -0.1500 -0.4563 -0.3610
    1SOL    HW2 3594   3.227   0.093   1.532 -0.4837  0.2704  0.6571
    1SOL    HW3 3595   3.077   0.076   1.530 -0.4351 -0.1170 -0.4742
    1SOL    MW4 3596   3.150   0.111   1.497 -0.2315 -0.3156 -0.2416
    1SOL     OW 3597   3.099   0.369   1.591 -0.2447  0.3216  0.3743
    1SOL    HW2 3598   3.113   0.281   1.555  0.4110  0.3420  0.5623
    1SOL    HW3 3599   3.012   0.395   1.560  0.1282  0.1699 -0.8283
    1SOL    MW4 3600   3.090   0.361   1.582 -0.1090  0.3043  0.2404
    1SOL     OW 3601   3.345   0.478   1.504 -0.4389 -0.0439 -0.1603
    1SOL    HW2 3602   3.257   0.451   1.529 -0.4985 -0.1300 -0.4656
    1SOL    HW3 3603   3.350   0.462   1.410 -0.0349 -0.2153 -0.1129
    1SOL    MW4 3604   3.334   0.473   1.495 -0.3934 -0.0778 -0.1942
    1SOL     OW 3605   3.334   0.744   1.612 -0.2569  0.1964  0.1078
    1SOL    HW2 3606   3.361   0.731   1.703  1.1441 -0.3569 -0.3676
    1SOL    HW3 3607   3.337   0.656   1.574 -0.7601  0.4414 -0.4946
    1SOL    MW4 3608   3.338   0.731   1.619 -0.1380  0.1557 -0.0345
    1SOL     OW 3609   3.114   0.904   1.526  0.5094 -0.6054 -0.0134
    1SOL    HW2 3610   3.184   0.847   1.557 -0.4791 -1.3010  0.9959
    1SOL    HW3 3611   3.033   0.857   1.548 -0.2804  0.3291 -0.8650
    1SOL    MW4 3612   3.113   0.890   1.533  0.2749 -0.5739  0.0074
    1SOL     OW 3613   3.110   1.167   1.596  0.2734  0.4368  0.2615
    1SOL    HW2 3614   3.109   1.174   1.691  2.1634 -0.1043  0.3290
    1SOL    HW3 3615   3.118   1.074   1.579 -1.4502  0.3940 -0.4640
    1SOL    MW4 3616   3.111   1.156   1.606  0.2954  0.3599  0.1748
    1SOL     OW 3617   3.368   1.261   1.481  0.0388  0.3616  0.5447
    1SOL    HW2 3618   3.432   1.212   1.533  0.8410 -1.0404 -1.7159
    1SOL    HW3 3619   3.283   1.232   1.515  0.5010 -2.4600 -0.5765
    1SOL    MW4 3620   3.365   1.251   1.493  0.2055 -0.1957  0.0985
    1SOL     OW 3621   3.370   1.524   1.583  0.3220  0.1594  0.2477
    1SOL    HW2 3622   3.354   1.513   1.677 -1.7099 -0.1383 -0.0942
    1SOL    HW3 3623   3.349   1.439   1.545 -2.8460  1.3507 -0.9026
    1SOL    MW4 3624   3.365   1.511   1.591 -0.3638  0.2773  0.0508
    1SOL     OW 3625   3.122   1.662   1.522 -0.6544  0.1139 -0.5213
    1SOL    HW2 3626   3.208   1.625   1.542  0.3599  1.9282 -1.3649
    1SOL    HW3 3627   3.060   1.593   1.546  1.0041 -1.0837  0.4616
    1SOL    MW4 3628   3.125   1.648   1.528 -0.3016  0.1954 -0.5028
    1SOL     OW 3629   3.129   1.939   1.590  0.0268  0.0653  0.2033
    1SOL    HW2 3630   3.130   1.849   1.558  1.8061  0.4508 -0.8664
    1SOL    HW3 3631   3.046   1.975   1.557 -0.6843 -1.1435  0.6081
    1SOL    MW4 3632   3.118   1.931   1.582  0.1676 -0.0433  0.1156
    1SOL     OW 3633   3.370   2.020   1.523  0.2616  0.1320 -0.1327
    1SOL    HW2 3634   3.288   1.983   1.557  0.5558  0.6962  1.1973
    1SOL    HW3 3635   3.354   2.030   1.429 -1.8390  1.7899  0.3434
    1SOL    MW4 3636   3.357   2.017   1.515  0.0229  0.4256  0.1056
    1SOL     OW 3637   3.351   2.266   1.633  0.3539  0.2530  0.1464
    1SOL    HW2 3638   3.423   2.319   1.600  1.0830 -0.2661  0.8994
    1SOL    HW3 3639   3.359   2.182   1.588  0.4626  0.0570  0.5267
    1SOL    MW4 3640   3.361   2.262   1.623  0.4644  0.1585  0.2959
    1SOL     OW 3641   3.165   2.411   1.486 -0.2106  0.2579 -0.0096
    1SOL    HW2 3642   3.235   2.361   1.528 -1.3698 -0.0078  1.6224
    1SOL    HW3 3643   3.084   2.371   1.517 -1.1295 -0.0086 -2.5735
    1SOL    MW4 3644   3.164   2.399   1.496 -0.4852  0.1876 -0.1327
    1SOL     OW 3645   3.146   2.677   1.588 -0.5583  0.3854  0.5003
    1SOL    HW2 3646   3.226   2.719   1.554 -0.2743  0.5842  1.4060
    1SOL    HW3 3647   3.151   2.587   1.555 -1.0992  1.0042 -1.3373
    1SOL    MW4 3648   3.157   2.671   1.579 -0.5922  0.4933  0.3773
    1SOL     OW 3649   3.367   2.829   1.461  0.1204  0.0003 -0.1033
    1SOL    HW2 3650   3.375   2.914   1.503  1.8797 -0.2697  0.1470
    1SOL    HW3 3651   3.398   2.844   1.371  0.1787 -0.3175 -0.1360
    1SOL    MW4 3652   3.372   2.842   1.454  0.3598 -0.0772 -0.0745
    1SOL     OW 3653   3.364   3.076   1.602 -0.1127 -0.0120 -0.1457
    1SOL    HW2 3654   3.372   3.075   1.697  1.2374 -2.1734 -0.2650
    1SOL    HW3 3655   3.444   3.118   1.571 -0.3327  0.2599 -0.3490
    1SOL    MW4 3656   3.375   3.082   1.610  0.0362 -0.2611 -0.1884
    1SOL     OW 3657   3.163   3.221   1.487  0.5784 -0.2316 -0.1127
    1SOL    HW2 3658   3.240   3.173   1.517  0.6974 -0.4011 -0.6820
    1SOL    HW3 3659   3.171   3.222   1.392 -0.8095 -1.4049 -0.2633
    1SOL    MW4 3660   3.174   3.215   1.479  0.4110 -0.4091 -0.2077
    1SOL     OW 3661   3.150   3.470   1.617  0.4277  0.2161 -0.2178
    1SOL    HW2 3662   3.150   3.387   1.571 -0.8484  0.0420  0.0782
    1SOL    HW3 3663   3.084   3.523   1.572 -0.1776  0.3622  0.8110
    1SOL    MW4 3664   3.141   3.466   1.605  0.1795  0.2122 -0.0430
    1SOL     OW 3665   3.365   3.573   1.483  0.1213  0.0529 -0.0477
    1SOL    HW2 3666   3.436   3.533   1.533 -0.4768 -0.3247  0.5068
    1SOL    HW3 3667   3.286   3.530   1.515 -0.5862  1.9915  0.8784
    1SOL    MW4 3668   3.364   3.562   1.494 -0.0508  0.2592  0.1476
    1SOL     OW 3669   3.362   3.823   1.621 -0.3784  0.1578  0.0445
    1SOL    HW2 3670   3.276   3.858   1.600 -0.4442 -0.2187 -0.3367
    1SOL    HW3 3671   3.361   3.734   1.584  0.8122  0.7933 -1.5755
    1SOL    MW4 3672   3.351   3.816   1.613 -0.2298  0.1922 -0.2195
    1SOL     OW 3673   3.154   3.999   1.523  0.0174  0.2080 -0.2160
    1SOL    HW2 3674   3.173   4.084   1.562 -0.5915  0.1224  0.2682
    1SOL    HW3 3675   3.068   3.975   1.556  0.7111 -1.1850  0.6726
    1SOL    MW4 3676   3.145   4.007   1.532  0.0286  0.0134 -0.0348
    1SOL     OW 3677   3.187   4.248   1.623 -0.0010  0.3169  0.1374
    1SOL    HW2 3678   3.203   4.260   1.716  0.2030 -0.7293  0.2368
    1SOL    HW3 3679   3.099   4.283   1.608 -0.4282 -0.4189  0.9048
    1SOL    MW4 3680   3.178   4.254   1.633 -0.0303  0.0820  0.2517
    1SOL     OW 3681   3.391   4.397   1.489 -0.2935 -0.3260  0.3653
    1SOL    HW2 3682   3.336   4.327   1.523  2.7000 -2.5215  0.8635
    1SOL    HW3 3683   3.405   4.375   1.397  0.9019 -0.5718  0.5940
    1SOL    MW4 3684   3.386   4.385   1.481  0.2592 -0.6485  0.4611
    1SOL     OW 3685   3.810   4.653   1.561  0.3388 -0.2211  0.1702
    1SOL    HW2 3686   3.826   4.639   1.654  0.2028  1.1863  0.4233
    1SOL    HW3 3687   3.884   4.706   1.531  0.3530 -0.6179 -0.5114
    1SOL    MW4 3688   3.822   4.659   1.569  0.3226 -0.0882  0.1137
    1SOL     OW 3689   3.580   0.098   1.453 -0.0822  0.0228 -0.1406
    1SOL    HW2 3690   3.655   0.045   1.480 -0.6710 -0.9593 -0.3751
    1SOL    HW3 3691   3.589   0.107   1.359 -0.9869 -1.2934 -0.3746
    1SOL    MW4 3692   3.591   0.092   1.445 -0.2789 -0.2804 -0.2023
    1SOL     OW 3693   3.559   0.348   1.576 -0.2440 -0.0191  0.4555
    1SOL    HW2 3694   3.557   0.272   1.518  0.5502  1.1545 -1.1692
    1SOL    HW3 3695   3.483   0.400   1.548 -0.4274  0.0867  1.1447
    1SOL    MW4 3696   3.548   0.345   1.565 -0.1633  0.1498  0.3320
    1SOL     OW 3697   3.761   0.531   1.520 -0.5693  0.5145  0.4045
    1SOL    HW2 3698   3.691   0.481   1.560 -0.0381 -0.2921  0.3356
    1SOL    HW3 3699   3.749   0.519   1.426  0.4735 -0.7557  0.4264
    1SOL    MW4 3700   3.750   0.523   1.513 -0.3617  0.2404  0.3983
    1SOL     OW 3701   3.824   0.795   1.577  0.1314 -0.4117  0.1063
    1SOL    HW2 3702   3.734   0.828   1.571  0.3289 -0.0182 -0.8343
    1SOL    HW3 3703   3.817   0.704   1.550 -0.0259 -0.4507  0.2771
    1SOL    MW4 3704   3.811   0.787   1.573  0.1366 -0.3650  0.0048
    1SOL     OW 3705   3.563   0.873   1.537  0.3842  0.3976  0.3689
    1SOL    HW2 3706   3.488   0.821   1.566  1.2000 -0.4688  0.9388
    1SOL    HW3 3707   3.555   0.876   1.441 -0.4396  0.4144  0.4371
    1SOL    MW4 3708   3.552   0.867   1.528  0.3831  0.2856  0.4531
    1SOL     OW 3709   3.588   1.136   1.612  0.1471 -0.0998 -0.6490
    1SOL    HW2 3710   3.662   1.166   1.558 -0.1205 -0.5662 -1.2784
    1SOL    HW3 3711   3.577   1.044   1.589 -0.4231 -0.1174 -0.3121
    1SOL    MW4 3712   3.596   1.128   1.602  0.0367 -0.1637 -0.6876
    1SOL     OW 3713   3.812   1.279   1.506 -0.0333  0.1127  0.1886
    1SOL    HW2 3714   3.892   1.237   1.540 -0.7034 -1.2829  0.0582
    1SOL    HW3 3715   3.800   1.355   1.562  0.2565 -0.8009  1.5187
    1SOL    MW4 3716   3.821   1.283   1.518 -0.0834 -0.1919  0.3469
    1SOL     OW 3717   3.852   1.538   1.619 -0.4668 -0.8306 -0.1364
    1SOL    HW2 3718   3.847   1.529   1.714 -1.4115  0.4814 -0.0528
    1SOL    HW3 3719   3.771   1.581   1.594 -0.4802 -1.6738 -1.6161
    1SOL    MW4 3720   3.841   1.542   1.628 -0.5932 -0.7688 -0.3206
    1SOL     OW 3721   3.610   1.656   1.523  0.2642 -0.3035 -0.7418
    1SOL    HW2 3722   3.530   1.606   1.542 -0.5957  1.6802  1.1400
    1SOL    HW3 3723   3.600   1.682   1.431  0.7602 -3.5325 -1.7754
    1SOL    MW4 3724   3.598   1.653   1.513  0.2160 -0.4679 -0.6299
    1SOL     OW 3725   3.604   1.908   1.628  0.5311 -0.1187 -0.1843
    1SOL    HW2 3726   3.602   1.815   1.605 -0.5446 -0.6612  1.9751
    1SOL    HW3 3727   3.522   1.942   1.593  0.8261 -0.0268 -0.7896
    1SOL    MW4 3728   3.593   1.900   1.620  0.4282 -0.1781  0.0207
    1SOL     OW 3729   3.812   1.982   1.468  0.1657  0.5147 -0.1049
    1SOL    HW2 3730   3.813   2.076   1.487 -1.4501  0.9020 -1.7389
    1SOL    HW3 3731   3.731   1.951   1.508  1.5339 -0.5513  1.9129
    1SOL    MW4 3732   3.801   1.991   1.476  0.1330  0.4250 -0.0542
    1SOL     OW 3733   3.803   2.248   1.563 -0.2566 -0.1132  0.0022
    1SOL    HW2 3734   3.788   2.242   1.657  0.7334 -1.2200  0.1052
    1SOL    HW3 3735   3.886   2.295   1.554 -0.4481  0.1694 -0.3297
    1SOL    MW4 3736   3.812   2.253   1.574 -0.1512 -0.2220 -0.0280
    1SOL     OW 3737   3.569   2.405   1.510 -0.2676  0.2870  0.2036
    1SOL    HW2 3738   3.592   2.493   1.539  0.5789  0.4896 -1.0323
    1SOL    HW3 3739   3.650   2.354   1.518 -0.0610  0.2981 -1.5400
    1SOL    MW4 3740   3.583   2.410   1.515 -0.1290  0.3152 -0.1897
    1SOL     OW 3741   3.576   2.674   1.567  0.0309  0.1726  0.2493
    1SOL    HW2 3742   3.562   2.676   1.661 -2.1539 -0.6545 -0.0413
    1SOL    HW3 3743   3.510   2.734   1.531 -1.2058 -1.8637 -0.9555
    1SOL    MW4 3744   3.566   2.682   1.574 -0.4203 -0.2053  0.0520
    1SOL     OW 3745   3.827   2.830   1.551  0.2589  0.0304  0.3469
    1SOL    HW2 3746   3.903   2.781   1.582  0.6672  0.8860  0.7206
    1SOL    HW3 3747   3.755   2.767   1.555  0.9973 -0.8699 -0.3026
    1SOL    MW4 3748   3.828   2.815   1.556  0.4101  0.0246  0.3105
    1SOL     OW 3749   3.810   3.106   1.609 -0.3785  0.2124  0.1318
    1SOL    HW2 3750   3.895   3.134   1.576 -1.2571  0.8638 -1.6075
    1SOL    HW3 3751   3.808   3.012   1.595 -1.0238  0.5702 -2.3830
    1SOL    MW4 3752   3.820   3.098   1.603 -0.5796  0.3455 -0.4295
    1SOL     OW 3753   3.575   3.229   1.520  0.5294  0.8502 -0.0471
    1SOL    HW2 3754   3.659   3.189   1.543 -1.2271 -3.2151 -0.3523
    1SOL    HW3 3755   3.574   3.229   1.424 -0.4652 -0.5961 -0.0477
    1SOL    MW4 3756   3.586   3.224   1.510  0.1664  0.1228 -0.0875
    1SOL     OW 3757   3.571   3.517   1.646  0.1290  0.1244  0.0419
    1SOL    HW2 3758   3.642   3.564   1.603 -0.1539  0.6484  0.1344
    1SOL    HW3 3759   3.588   3.425   1.629  1.1857  0.2076  0.6067
    1SOL    MW4 3760   3.583   3.511   1.638  0.2313  0.2043  0.1286
    1SOL     OW 3761   3.819   3.607   1.494  0.1751 -0.1334  0.2809
    1SOL    HW2 3762   3.879   3.543   1.531  0.0838 -0.0178  0.6333
    1SOL    HW3 3763   3.848   3.691   1.530 -1.3875 -0.3001  2.0084
    1SOL    MW4 3764   3.830   3.610   1.503 -0.0429 -0.1404  0.5554
    1SOL     OW 3765   3.833   3.863   1.617  0.0789  0.3074 -0.1436
    1SOL    HW2 3766   3.901   3.921   1.582  0.3965  1.1363  1.8027
    1SOL    HW3 3767   3.752   3.892   1.574  0.4310  1.4554 -0.0318
    1SOL    MW4 3768   3.831   3.874   1.606  0.1671  0.5682  0.1279
    1SOL     OW 3769   3.579   3.970   1.502 -0.0068 -0.0940  0.0799
    1SOL    HW2 3770   3.588   4.054   1.548 -1.2122  0.1803 -0.1792
    1SOL    HW3 3771   3.525   3.917   1.559 -0.4259 -0.2049 -0.4189
    1SOL    MW4 3772   3.573   3.974   1.516 -0.2210 -0.0725 -0.0201
    1SOL     OW 3773   3.600   4.248   1.601  0.3464  0.3170  0.6618
    1SOL    HW2 3774   3.596   4.241   1.697 -0.2190 -1.6980  0.5243
    1SOL    HW3 3775   3.529   4.309   1.579 -0.7291 -0.6292  1.4184
    1SOL    MW4 3776   3.590   4.255   1.611  0.1299 -0.0739  0.7434
    1SOL     OW 3777   3.815   4.380   1.517  0.3145 -0.3833 -0.5700
    1SOL    HW2 3778   3.731   4.343   1.545  0.7755 -0.3716  0.8731
    1SOL    HW3 3779   3.806   4.474   1.537  1.6512 -0.7904  2.1131
    1SOL    MW4 3780   3.803   4.388   1.523  0.5517 -0.4358 -0.0257
    1SOL     OW 3781   4.221   0.005   1.611  0.4088  0.3047  0.0979
    1SOL    HW2 3782   4.214   0.002   1.706  0.4737 -0.2345  0.0882
    1SOL    HW3 3783   4.219  -0.087   1.584 -0.9281  0.5067 -0.5217
    1SOL    MW4 3784   4.220  -0.008   1.620  0.2408  0.2604  0.0148
    1SOL     OW 3785   4.034   0.151   1.485 -0.2263 -0.2344 -0.3638
    1SOL    HW2 3786   4.038   0.245   1.506  0.3962  0.2314 -2.4612
    1SOL    HW3 3787   4.111   0.115   1.529  0.3345  0.4874 -0.7371
    1SOL    MW4 3788   4.045   0.159   1.494 -0.0696 -0.0778 -0.6897
    1SOL     OW 3789   3.996   0.410   1.581  0.0468  0.2703  0.2268
    1SOL    HW2 3790   4.001   0.413   1.677 -0.5601  1.5227  0.2278
    1SOL    HW3 3791   3.910   0.446   1.560  0.3006  0.2897 -0.8063
    1SOL    MW4 3792   3.986   0.415   1.591  0.0000  0.4381  0.0906
    1SOL     OW 3793   4.251   0.492   1.502  0.0689  0.3607  0.0784
    1SOL    HW2 3794   4.167   0.461   1.536  0.2839  0.3033  0.5620
    1SOL    HW3 3795   4.317   0.444   1.553  0.3922  0.1112 -0.5670
    1SOL    MW4 3796   4.249   0.481   1.513  0.1402  0.3202  0.0570
    1SOL     OW 3797   4.263   0.749   1.620  0.0072  0.0303  0.0477
    1SOL    HW2 3798   4.265   0.660   1.587 -0.8321  0.5003 -1.3071
    1SOL    HW3 3799   4.348   0.785   1.596  0.7619 -0.7369  1.5534
    1SOL    MW4 3800   4.274   0.742   1.612 -0.0043 -0.0089  0.0676
    1SOL     OW 3801   4.067   0.896   1.474  0.3309  0.3057 -0.3187
    1SOL    HW2 3802   4.135   0.843   1.516  0.7019  0.5149 -0.6566
    1SOL    HW3 3803   3.986   0.868   1.517  0.7003  0.4931  0.5186
    1SOL    MW4 3804   4.065   0.885   1.485  0.4292  0.3580 -0.2527
    1SOL     OW 3805   4.034   1.145   1.596  0.0937  0.5261 -0.4043
    1SOL    HW2 3806   4.045   1.130   1.690  0.4479  1.6853 -0.2471
    1SOL    HW3 3807   4.032   1.058   1.557  0.3344  0.0524  0.6389
    1SOL    MW4 3808   4.035   1.132   1.603  0.1721  0.6164 -0.2459
    1SOL     OW 3809   4.283   1.259   1.528  0.2420  0.1484  0.2239
    1SOL    HW2 3810   4.204   1.226   1.571 -0.4004  1.1642 -0.1732
    1SOL    HW3 3811   4.354   1.208   1.567 -0.6881 -1.3965 -0.0672
    1SOL    MW4 3812   4.282   1.248   1.539  0.0343  0.0786  0.1332
    1SOL     OW 3813   4.278   1.535   1.597 -0.1897 -0.0152  0.3280
    1SOL    HW2 3814   4.283   1.443   1.570 -0.1724 -0.1980  0.9451
    1SOL    HW3 3815   4.358   1.574   1.562  1.2851 -0.9154  2.5903
    1SOL    MW4 3816   4.289   1.528   1.589  0.0072 -0.1583  0.7079
    1SOL     OW 3817   4.055   1.623   1.471  0.4950  0.7298 -0.2180
    1SOL    HW2 3818   4.128   1.577   1.511  0.1528  1.4858  1.3111
    1SOL    HW3 3819   3.977   1.591   1.517  0.0507  1.2951 -0.5650
    1SOL    MW4 3820   4.054   1.613   1.482  0.3915  0.9042 -0.0619
    1SOL     OW 3821   4.036   1.870   1.574  0.4442  0.1946 -0.3627
    1SOL    HW2 3822   4.042   1.786   1.528 -0.6010  0.0888 -0.3119
    1SOL    HW3 3823   3.963   1.915   1.532 -0.1876  0.3076  0.8465
    1SOL    MW4 3824   4.028   1.865   1.562  0.2236  0.1956 -0.1965
    1SOL     OW 3825   4.270   2.022   1.505  0.3696 -0.0499  0.2899
    1SOL    HW2 3826   4.198   1.973   1.544  1.2735 -0.6129  1.2792
    1SOL    HW3 3827   4.263   2.005   1.411 -0.2928 -0.7554  0.4660
    1SOL    MW4 3828   4.259   2.014   1.498  0.4015 -0.2172  0.4437
    1SOL     OW 3829   4.251   2.277   1.590  0.2840 -0.0044  0.0359
    1SOL    HW2 3830   4.244   2.269   1.685 -0.0319  0.8805  0.0928
    1SOL    HW3 3831   4.261   2.187   1.559  0.1342 -0.3190  0.8866
    1SOL    MW4 3832   4.251   2.264   1.598  0.2227  0.0708  0.1554
    1SOL     OW 3833   4.017   2.417   1.514  0.4478 -0.8191  0.5675
    1SOL    HW2 3834   4.019   2.504   1.555  1.0225 -0.2398 -0.6941
    1SOL    HW3 3835   4.096   2.374   1.547  0.5092 -0.6292  0.6729
    1SOL    MW4 3836   4.028   2.423   1.524  0.5322 -0.7174  0.4150
    1SOL     OW 3837   4.045   2.666   1.632 -0.0817  0.2052  0.3463
    1SOL    HW2 3838   4.045   2.670   1.727 -0.8031  1.6399  0.2963
    1SOL    HW3 3839   4.129   2.702   1.606  0.8449 -1.7987  0.4811
    1SOL    MW4 3840   4.056   2.671   1.641 -0.0544  0.1302  0.3575
    1SOL     OW 3841   4.273   2.826   1.544 -0.5550  0.1532 -0.1467
    1SOL    HW2 3842   4.269   2.912   1.587 -0.0601  0.5556 -0.9058
    1SOL    HW3 3843   4.307   2.844   1.457 -0.6853 -0.7882 -0.3956
    1SOL    MW4 3844   4.277   2.840   1.538 -0.5069  0.0820 -0.2797
    1SOL     OW 3845   4.250   3.086   1.641 -0.1359 -0.3113 -0.0928
    1SOL    HW2 3846   4.260   3.085   1.737 -2.0950 -0.1276  0.1316
    1SOL    HW3 3847   4.335   3.115   1.609  0.7118 -0.8832  1.5740
    1SOL    MW4 3848   4.262   3.090   1.650 -0.2828 -0.3626  0.1568
    1SOL     OW 3849   4.062   3.211   1.496 -0.2150 -0.0322 -0.2873
    1SOL    HW2 3850   4.037   3.294   1.536 -0.5523 -0.9033  1.3950
    1SOL    HW3 3851   4.123   3.172   1.558  0.1591 -0.9033 -1.1927
    1SOL    MW4 3852   4.066   3.216   1.510 -0.2103 -0.2620 -0.1848
    1SOL     OW 3853   3.998   3.447   1.627  0.2319  0.0883 -0.3181
    1SOL    HW2 3854   4.008   3.455   1.722  0.5370 -0.3933 -0.3121
    1SOL    HW3 3855   4.073   3.495   1.591  0.0199  0.4215 -0.3203
    1SOL    MW4 3856   4.009   3.454   1.635  0.2441  0.0689 -0.3177
    1SOL     OW 3857   4.234   3.560   1.497  0.0872 -0.0250  0.1541
    1SOL    HW2 3858   4.222   3.652   1.521 -3.7963 -0.1856 -0.6956
    1SOL    HW3 3859   4.246   3.561   1.402 -0.9511 -0.3995  0.0032
    1SOL    MW4 3860   4.234   3.572   1.487 -0.5622 -0.0954  0.0221
    1SOL     OW 3861   4.238   3.810   1.598  0.2566  0.2977 -0.2500
    1SOL    HW2 3862   4.175   3.879   1.577  0.4883  0.3104 -0.9205
    1SOL    HW3 3863   4.321   3.841   1.560  0.4437 -0.1787 -0.2401
    1SOL    MW4 3864   4.241   3.823   1.590  0.3119  0.2365 -0.3372
    1SOL     OW 3865   4.060   4.011   1.518  0.1702  0.0277 -0.0101
    1SOL    HW2 3866   4.063   4.093   1.567 -0.1652  0.5689 -0.8702
    1SOL    HW3 3867   4.079   4.037   1.428 -0.9372 -0.6896 -0.4671
    1SOL    MW4 3868   4.063   4.026   1.512 -0.0205  0.0048 -0.1839
    1SOL     OW 3869   4.045   4.264   1.637 -0.3989 -0.2315  0.6655
    1SOL    HW2 3870   4.033   4.274   1.731 -1.6406 -1.2964  0.6288
    1SOL    HW3 3871   3.963   4.295   1.598 -0.2721 -0.7289 -0.0129
    1SOL    MW4 3872   4.033   4.270   1.644 -0.5460 -0.4373  0.5711
    1SOL     OW 3873   4.240   4.413   1.529  0.2726 -0.2186  0.0148
    1SOL    HW2 3874   4.167   4.361   1.562 -0.6479  0.7823 -0.4660
    1SOL    HW3 3875   4.244   4.393   1.435  0.2459  0.1851 -0.0736
    1SOL    MW4 3876   4.231   4.403   1.521  0.1483 -0.0334 -0.0604
    1SOL     OW 3877   0.196   4.601   1.909  0.4502  0.8190 -0.1822
    1SOL    HW2 3878   0.258   4.665   1.943 -0.1856  1.3428  0.0066
    1SOL    HW3 3879   0.194   4.619   1.814 -0.4368  1.7277 -0.0085
    1SOL    MW4 3880   0.203   4.612   1.901  0.2493  1.0076 -0.1342
    1SOL     OW 3881   4.461   0.066   1.986  0.2149  0.1391 -0.3138
    1SOL    HW2 3882   4.483   0.150   1.947 -1.0690  0.6158 -0.0282
    1SOL    HW3 3883   4.530   0.006   1.956  0.0726  0.8403 -2.0508
    1SOL    MW4 3884   4.473   0.069   1.977  0.0267  0.2945 -0.5053
    1SOL     OW 3885   4.487   0.320   1.862  0.2458  0.1173  0.0449
    1SOL    HW2 3886   4.409   0.362   1.898 -0.3941 -0.8913 -0.1601
    1SOL    HW3 3887   4.560   0.371   1.899 -0.4474  0.1565  1.4150
    1SOL    MW4 3888   4.486   0.332   1.872  0.0701 -0.0106  0.1986
    1SOL     OW 3889   0.199   0.464   1.980  0.0104  0.0412 -0.1699
    1SOL    HW2 3890   0.275   0.425   1.937  0.6834 -1.1888  2.0748
    1SOL    HW3 3891   0.206   0.558   1.960  1.7949 -0.1363 -0.4384
    1SOL    MW4 3892   0.210   0.472   1.971  0.3346 -0.1445  0.0906
    1SOL     OW 3893   0.228   0.736   1.919  0.3201  0.0572  0.2569
    1SOL    HW2 3894   0.300   0.792   1.949 -0.8105  1.1034  1.0464
    1SOL    HW3 3895   0.233   0.741   1.823  1.8059 -0.5516  0.2878
    1SOL    MW4 3896   0.238   0.744   1.910  0.3670  0.1149  0.3651
    1SOL     OW 3897   0.014   0.874   2.015 -0.4262 -0.1601 -0.2242
    1SOL    HW2 3898  -0.059   0.827   1.973 -0.7823  0.0372  0.1787
    1SOL    HW3 3899   0.091   0.823   1.990 -0.7093 -0.4253 -0.5746
    1SOL    MW4 3900   0.014   0.861   2.006 -0.5102 -0.1690 -0.2172
    1SOL     OW 3901   0.020   1.137   1.901  0.2904  0.1279 -0.0177
    1SOL    HW2 3902  -0.060   1.180   1.932 -0.7922 -0.6053 -1.7419
    1SOL    HW3 3903   0.016   1.049   1.939  1.0344  0.5724  1.1092
    1SOL    MW4 3904   0.009   1.131   1.910  0.2456  0.0898 -0.0966
    1SOL     OW 3905   0.228   1.262   2.017  0.0666  0.5083  0.3035
    1SOL    HW2 3906   0.236   1.351   1.984 -0.1986  1.1046  1.7983
    1SOL    HW3 3907   0.154   1.225   1.969  0.4235  0.9587 -0.6036
    1SOL    MW4 3908   0.219   1.269   2.006  0.0787  0.6464  0.3810
    1SOL     OW 3909   0.255   1.521   1.901  0.0322 -0.0977 -0.4617
    1SOL    HW2 3910   0.345   1.548   1.922 -0.6913  1.2199  1.0512
    1SOL    HW3 3911   0.200   1.584   1.947 -1.6810 -0.5226 -1.8780
    1SOL    MW4 3912   0.260   1.533   1.910 -0.2893  0.0200 -0.4489
    1SOL     OW 3913   0.044   1.690   1.999  0.2326  0.3296  0.2583
    1SOL    HW2 3914   0.034   1.666   2.091  0.2630  0.2082  0.2301
    1SOL    HW3 3915  -0.023   1.640   1.953 -0.8771  1.6605  0.4172
    1SOL    MW4 3916   0.034   1.680   2.005  0.0901  0.4892  0.2756
    1SOL     OW 3917   4.485   1.947   1.895 -0.3507  0.2169 -0.0716
    1SOL    HW2 3918   4.400   1.961   1.936 -0.3891 -1.1473  0.3175
    1SOL    HW3 3919   4.508   1.857   1.916  1.4836  0.7578  0.3480
    1SOL    MW4 3920   4.477   1.937   1.903 -0.1138  0.1084  0.0352
    1SOL     OW 3921   0.215   2.070   2.001  0.0826  0.0274  0.3342
    1SOL    HW2 3922   0.191   2.159   1.975 -0.8669 -0.1334  0.6519
    1SOL    HW3 3923   0.143   2.015   1.969  1.2341 -0.8004 -0.9321
    1SOL    MW4 3924   0.202   2.074   1.993  0.1093 -0.1030  0.2091
    1SOL     OW 3925   0.175   2.322   1.877 -0.0692 -0.0990  0.1128
    1SOL    HW2 3926   0.253   2.365   1.911  0.2610  0.7235 -1.6409
    1SOL    HW3 3927   0.103   2.382   1.900 -0.0539 -0.3116  0.7303
    1SOL    MW4 3928   0.176   2.336   1.885 -0.0236 -0.0186 -0.0371
    1SOL     OW 3929   4.444   2.447   1.992 -0.7104 -0.3187 -0.3197
    1SOL    HW2 3930   4.443   2.440   2.088 -2.5110 -0.8157 -0.3511
    1SOL    HW3 3931   4.464   2.539   1.975  0.1498 -0.3405  0.5194
    1SOL    MW4 3932   4.447   2.458   2.002 -0.8340 -0.3872 -0.2129
    1SOL     OW 3933   4.471   2.696   1.896  0.2277  0.4253  0.1097
    1SOL    HW2 3934   4.383   2.720   1.924  0.8779  0.7043  1.9401
    1SOL    HW3 3935   4.470   2.711   1.801 -1.9857 -0.5508 -0.0493
    1SOL    MW4 3936   4.459   2.701   1.887  0.0215  0.3333  0.3301
    1SOL     OW 3937   0.206   2.833   1.991  0.3851 -0.2712 -0.0254
    1SOL    HW2 3938   0.199   2.925   1.967  1.0583 -0.2407 -0.0998
    1SOL    HW3 3939   0.125   2.794   1.959 -0.4089  0.5115  0.9773
    1SOL    MW4 3940   0.194   2.840   1.984  0.3692 -0.1638  0.0972
    1SOL     OW 3941   0.202   3.099   1.876 -1.0089  0.1292  0.3776
    1SOL    HW2 3942   0.290   3.123   1.906 -0.6437 -0.4999 -0.1819
    1SOL    HW3 3943   0.201   3.123   1.784 -1.2301 -0.3876  0.2435
    1SOL    MW4 3944   0.214   3.105   1.868 -0.9899 -0.0219  0.2861
    1SOL     OW 3945   0.000   3.266   1.970 -0.0555  0.2637 -0.4528
    1SOL    HW2 3946  -0.070   3.205   1.947 -0.2095  0.4332 -0.4297
    1SOL    HW3 3947   0.080   3.217   1.950 -0.1731 -0.0306 -0.2221
    1SOL    MW4 3948   0.001   3.251   1.964 -0.0913  0.2472 -0.4195
    1SOL     OW 3949   0.039   3.484   1.828 -0.4450 -0.2676  0.0779
    1SOL    HW2 3950   0.110   3.530   1.871 -1.3806  0.0478  1.3155
    1SOL    HW3 3951   0.027   3.404   1.880 -0.9694 -0.3372 -0.1457
    1SOL    MW4 3952   0.046   3.479   1.840 -0.6376 -0.2351  0.2117
    1SOL     OW 3953   0.232   3.601   1.992  0.0900  0.2808  0.1631
    1SOL    HW2 3954   0.234   3.592   2.087  0.0088  0.2900  0.1657
    1SOL    HW3 3955   0.313   3.560   1.962 -0.2073 -0.3215  0.1853
    1SOL    MW4 3956   0.243   3.595   2.000  0.0401  0.2024  0.1664
    1SOL     OW 3957   0.215   3.852   1.892 -0.1438  0.1413  0.1831
    1SOL    HW2 3958   0.272   3.913   1.939  0.6951 -0.8102  0.4108
    1SOL    HW3 3959   0.239   3.766   1.925 -0.7429 -0.3931 -0.7547
    1SOL    MW4 3960   0.225   3.849   1.903 -0.1122 -0.0546  0.0893
    1SOL     OW 3961   4.462   3.970   1.978 -0.1357 -0.1389  0.2734
    1SOL    HW2 3962   4.454   4.063   1.957 -1.0250 -0.4457 -0.7967
    1SOL    HW3 3963   4.543   3.942   1.937  1.1634  0.5921  2.2525
    1SOL    MW4 3964   4.471   3.979   1.970 -0.0815 -0.0830  0.3932
    1SOL     OW 3965   4.456   4.238   1.839  0.3222 -0.0922 -0.4612
    1SOL    HW2 3966   4.386   4.280   1.888  0.8013 -1.3823  1.3846
    1SOL    HW3 3967   4.536   4.258   1.889  0.9082 -0.8106 -1.0942
    1SOL    MW4 3968   4.457   4.246   1.852  0.4625 -0.3572 -0.3012
    1SOL     OW 3969   0.201   4.333   1.965  0.1179 -0.3118  0.0098
    1SOL    HW2 3970   0.221   4.322   2.058  1.0427  1.4953  0.0621
    1SOL    HW3 3971   0.204   4.428   1.951 -0.8143 -0.5094 -1.6953
    1SOL    MW4 3972   0.204   4.344   1.975  0.1169 -0.0997 -0.2081
    1SOL     OW 3973   0.667   4.625   1.905 -0.1876  0.1615  0.0570
    1SOL    HW2 3974   0.667   4.531   1.922  1.1889 -0.0624 -1.1114
    1SOL    HW3 3975   0.673   4.632   1.810 -2.8682  1.4200 -0.0708
    1SOL    MW4 3976   0.668   4.614   1.895 -0.3597  0.2980 -0.1141
    1SOL     OW 3977   0.409   0.094   1.990  0.4570  0.0698  0.2098
    1SOL    HW2 3978   0.402   0.177   1.944  0.5121  0.6357  1.2211
    1SOL    HW3 3979   0.495   0.059   1.964  0.1067 -0.0598 -0.8265
    1SOL    MW4 3980   0.420   0.100   1.980  0.4181  0.1274  0.2066
    1SOL     OW 3981   0.424   0.346   1.867 -0.0653 -0.0350 -0.0097
    1SOL    HW2 3982   0.506   0.380   1.902 -0.5887 -0.3416  1.5354
    1SOL    HW3 3983   0.438   0.344   1.772  1.2784  1.0378  0.1435
    1SOL    MW4 3984   0.437   0.350   1.859  0.0429  0.0661  0.2143
    1SOL     OW 3985   0.674   0.437   1.963  0.4716 -0.2729  0.2028
    1SOL    HW2 3986   0.669   0.456   2.056  0.7436 -1.6749  0.5066
    1SOL    HW3 3987   0.764   0.406   1.950  0.5930  0.4000 -0.6210
    1SOL    MW4 3988   0.685   0.436   1.973  0.5236 -0.3691  0.1341
    1SOL     OW 3989   0.643   0.729   1.875  0.1412  0.3708  0.1373
    1SOL    HW2 3990   0.714   0.772   1.923 -1.5760 -0.8915  3.9970
    1SOL    HW3 3991   0.665   0.636   1.878 -0.4153  0.1939 -0.8955
    1SOL    MW4 3992   0.656   0.722   1.881 -0.1588  0.1809  0.5103
    1SOL     OW 3993   0.442   0.858   2.017  0.2579  0.1699  0.7394
    1SOL    HW2 3994   0.459   0.947   1.987  1.0511 -0.1231  0.3121
    1SOL    HW3 3995   0.512   0.806   1.979 -0.2104 -0.6437  0.9786
    1SOL    MW4 3996   0.453   0.863   2.008  0.3008  0.0240  0.7143
    1SOL     OW 3997   0.457   1.112   1.947  0.0481 -0.4225 -0.2358
    1SOL    HW2 3998   0.382   1.171   1.960 -0.5160 -1.5102  1.6133
    1SOL    HW3 3999   0.471   1.112   1.852 -1.5783  0.6608 -0.5073
    1SOL    MW4 4000   0.449   1.120   1.936 -0.2409 -0.4231 -0.0277
    1SOL     OW 4001   0.708   1.256   2.010  0.3068  0.1354 -0.4675
    1SOL    HW2 4002   0.706   1.273   2.105  1.3128 -1.3822 -0.1548
    1SOL    HW3 4003   0.624   1.213   1.992 -0.5081  1.7184 -0.5415
    1SOL    MW4 4004   0.696   1.252   2.020  0.3320  0.1441 -0.4361
    1SOL     OW 4005   0.681   1.515   1.891  0.0927 -0.6913 -0.1553
    1SOL    HW2 4006   0.687   1.432   1.938  0.5321 -1.3628 -1.3696
    1SOL    HW3 4007   0.668   1.490   1.799 -0.1449  0.5845 -0.4870
    1SOL    MW4 4008   0.680   1.501   1.885  0.1193 -0.6115 -0.3593
    1SOL     OW 4009   0.470   1.692   1.995  0.1050  0.1031  0.2934
    1SOL    HW2 4010   0.475   1.701   2.090 -1.8649 -1.5356  0.5848
    1SOL    HW3 4011   0.552   1.648   1.970 -0.6268 -2.0631  1.5901
    1SOL    MW4 4012   0.482   1.687   2.004 -0.2515 -0.3990  0.5028
    1SOL     OW 4013   0.408   1.934   1.864  0.5473  0.1446  0.1779
    1SOL    HW2 4014   0.415   1.848   1.906 -0.5838 -1.1454 -2.1328
    1SOL    HW3 4015   0.334   1.976   1.907 -0.6977 -1.2155 -0.5943
    1SOL    MW4 4016   0.400   1.928   1.875  0.2338 -0.2049 -0.2288
    1SOL     OW 4017   0.634   2.073   1.935 -0.0397 -0.3958 -0.6108
    1SOL    HW2 4018   0.648   2.065   2.029 -0.4622  0.1987 -0.4868
    1SOL    HW3 4019   0.545   2.039   1.921 -0.0509 -0.3045 -0.7650
    1SOL    MW4 4020   0.624   2.068   1.946 -0.0969 -0.3052 -0.6148
    1SOL     OW 4021   0.655   2.356   1.939 -0.2921  0.2292 -0.1477
    1SOL    HW2 4022   0.652   2.261   1.948  1.3316  0.2793  1.3518
    1SOL    HW3 4023   0.665   2.372   1.845  1.2542 -1.1481 -0.2283
    1SOL    MW4 4024   0.656   2.345   1.928  0.1261  0.0539  0.0395
    1SOL     OW 4025   0.408   2.451   1.964  0.0110  0.3048 -0.1618
    1SOL    HW2 4026   0.404   2.452   2.059  0.1306  1.2652 -0.1549
    1SOL    HW3 4027   0.489   2.406   1.943 -0.3568 -0.5106  0.1766
    1SOL    MW4 4028   0.418   2.445   1.974 -0.0218  0.3242 -0.1162
    1SOL     OW 4029   0.435   2.713   1.852  0.3806 -0.4656 -0.4103
    1SOL    HW2 4030   0.428   2.629   1.897  0.8493  0.1653  0.8685
    1SOL    HW3 4031   0.360   2.763   1.885  1.0220  0.1815  0.0809
    1SOL    MW4 4032   0.424   2.709   1.862  0.5271 -0.2971 -0.1767
    1SOL     OW 4033   0.636   2.856   1.973 -0.2086  0.0760  0.1211
    1SOL    HW2 4034   0.626   2.858   2.068  1.3732  1.4904  0.2924
    1SOL    HW3 4035   0.563   2.803   1.942 -1.2206  0.2835  2.0603
    1SOL    MW4 4036   0.625   2.850   1.981 -0.1334  0.2902  0.3996
    1SOL     OW 4037   0.694   3.110   1.880 -0.6437  0.2000 -0.0612
    1SOL    HW2 4038   0.673   3.020   1.904 -0.2716  0.1741  0.1575
    1SOL    HW3 4039   0.690   3.111   1.784 -0.1035 -0.1794 -0.0875
    1SOL    MW4 4040   0.691   3.098   1.871 -0.5233  0.1464 -0.0358
    1SOL     OW 4041   0.447   3.186   1.974  0.0978  0.2102 -0.3569
    1SOL    HW2 4042   0.443   3.278   1.948 -0.3296 -0.1311 -1.5577
    1SOL    HW3 4043   0.525   3.152   1.931 -0.4308 -0.2806 -0.9512
    1SOL    MW4 4044   0.457   3.194   1.965 -0.0283  0.1004 -0.5938
    1SOL     OW 4045   0.448   3.458   1.878  0.0752  0.2305 -0.1162
    1SOL    HW2 4046   0.518   3.508   1.919  1.4151 -0.3341 -1.6712
    1SOL    HW3 4047   0.459   3.474   1.784 -0.8550 -1.1921 -0.4810
    1SOL    MW4 4048   0.459   3.467   1.871  0.1293 -0.0319 -0.3695
    1SOL     OW 4049   0.634   3.605   2.007  0.4494 -0.0917 -0.2003
    1SOL    HW2 4050   0.721   3.568   1.991  0.7415  1.0811 -1.4036
    1SOL    HW3 4051   0.638   3.693   1.971 -1.3659 -0.1475 -0.6118
    1SOL    MW4 4052   0.646   3.612   2.001  0.2484  0.0558 -0.4134
    1SOL     OW 4053   0.676   3.865   1.902 -0.1074  0.1269 -0.0127
    1SOL    HW2 4054   0.752   3.909   1.939  0.6734  0.8001 -2.3246
    1SOL    HW3 4055   0.679   3.887   1.809 -0.5939 -3.4761 -0.9566
    1SOL    MW4 4056   0.687   3.874   1.895 -0.0685 -0.2599 -0.4421
    1SOL     OW 4057   0.429   4.021   1.994  0.5116 -0.3359 -0.1862
    1SOL    HW2 4058   0.425   4.103   1.945 -0.6452 -0.2267  0.0766
    1SOL    HW3 4059   0.504   3.974   1.956  0.4475  0.3216 -1.1544
    1SOL    MW4 4060   0.438   4.025   1.982  0.3505 -0.2341 -0.2793
    1SOL     OW 4061   0.431   4.253   1.818 -0.5165 -0.1649  0.4220
    1SOL    HW2 4062   0.346   4.282   1.851 -0.3973 -0.5777  1.0889
    1SOL    HW3 4063   0.427   4.271   1.724 -2.1686 -2.1614  0.0759
    1SOL    MW4 4064   0.420   4.260   1.810 -0.7187 -0.4830  0.4643
    1SOL     OW 4065   0.650   4.361   1.957  0.2745 -0.5496  0.2041
    1SOL    HW2 4066   0.725   4.321   1.913  1.5806  0.8839  1.0616
    1SOL    HW3 4067   0.574   4.326   1.911  1.4325 -2.4959 -0.3089
    1SOL    MW4 4068   0.650   4.351   1.945  0.5996 -0.6170  0.2496
    1SOL     OW 4069   1.110   0.001   1.850  0.2296  0.2163 -0.4544
    1SOL    HW2 4070   1.173   0.046   1.906 -0.6976  1.0205 -0.0272
    1SOL    HW3 4071   1.107  -0.088   1.883  1.7481 -0.0486 -1.0025
    1SOL    MW4 4072   1.118  -0.005   1.862  0.3077  0.2875 -0.4703
    1SOL     OW 4073   0.896   0.091   1.987  0.2181  0.0670  0.0780
    1SOL    HW2 4074   0.971   0.057   1.938  0.3043 -0.0317  0.2758
    1SOL    HW3 4075   0.821   0.041   1.956  0.3205 -0.1995  0.2623
    1SOL    MW4 4076   0.896   0.080   1.977  0.2429  0.0188  0.1284
    1SOL     OW 4077   0.913   0.337   1.878  0.3935  0.0465  0.7301
    1SOL    HW2 4078   0.983   0.385   1.923  0.9738  0.2062 -0.3279
    1SOL    HW3 4079   0.910   0.252   1.923  1.7260 -0.2090  0.3735
    1SOL    MW4 4080   0.922   0.332   1.890  0.6459  0.0339  0.5434
    1SOL     OW 4081   1.094   0.503   2.002  0.3183 -0.4902 -0.4434
    1SOL    HW2 4082   1.174   0.461   1.970 -0.0713 -0.5930 -1.2942
    1SOL    HW3 4083   1.106   0.595   1.982 -0.0432 -0.5913 -1.1584
    1SOL    MW4 4084   1.106   0.509   1.995  0.2192 -0.5171 -0.6498
    1SOL     OW 4085   1.107   0.773   1.914  0.0681 -0.1753  0.1163
    1SOL    HW2 4086   1.181   0.810   1.963 -0.5544 -0.6165  1.4022
    1SOL    HW3 4087   1.030   0.813   1.953 -0.3579  0.7755 -1.6615
    1SOL    MW4 4088   1.107   0.784   1.926 -0.0702 -0.1081  0.0514
    1SOL     OW 4089   0.856   0.863   1.999 -0.0545 -0.1291  0.1734
    1SOL    HW2 4090   0.859   0.865   2.095 -2.8516  0.2520  0.2805
    1SOL    HW3 4091   0.881   0.951   1.972  0.3069 -0.1156  0.5474
    1SOL    MW4 4092   0.860   0.875   2.008 -0.3758 -0.0771  0.2370
    1SOL     OW 4093   0.923   1.120   1.918  0.0132  0.1321 -0.2717
    1SOL    HW2 4094   0.851   1.163   1.965 -0.3576 -0.6718 -0.0778
    1SOL    HW3 4095   0.903   1.134   1.826 -0.4282 -0.1385 -0.2191
    1SOL    MW4 4096   0.911   1.127   1.912 -0.0939 -0.0095 -0.2391
    1SOL     OW 4097   1.126   1.271   2.014  0.1021 -0.3168 -0.2749
    1SOL    HW2 4098   1.114   1.359   1.977  1.7372  0.5331  1.1617
    1SOL    HW3 4099   1.058   1.219   1.972  0.1099  1.2592 -2.3605
    1SOL    MW4 4100   1.115   1.276   2.004  0.3190  0.0033 -0.3603
    1SOL     OW 4101   1.105   1.534   1.895 -0.1471 -0.4169  0.1821
    1SOL    HW2 4102   1.033   1.589   1.927 -1.0345 -1.3745 -0.1378
    1SOL    HW3 4103   1.100   1.540   1.800 -0.1607 -0.9316  0.1484
    1SOL    MW4 4104   1.095   1.542   1.887 -0.2658 -0.6112  0.1355
    1SOL     OW 4105   0.900   1.672   2.013  0.3544  0.1476  0.1172
    1SOL    HW2 4106   0.899   1.765   1.990  0.7086 -0.0774 -0.8552
    1SOL    HW3 4107   0.819   1.637   1.976  0.3165  0.0306  0.3122
    1SOL    MW4 4108   0.890   1.680   2.005  0.3961  0.1025  0.0145
    1SOL     OW 4109   0.868   1.916   1.902  0.1568  0.6984 -0.2486
    1SOL    HW2 4110   0.778   1.948   1.910 -0.9735 -2.2751 -0.1998
    1SOL    HW3 4111   0.893   1.936   1.812 -1.0750  0.3692 -0.6813
    1SOL    MW4 4112   0.859   1.923   1.891 -0.1549  0.2626 -0.2993
    1SOL     OW 4113   1.065   2.084   2.012 -0.3791 -0.0979  0.1481
    1SOL    HW2 4114   1.070   2.174   1.979  1.1769  0.0500  0.7612
    1SOL    HW3 4115   0.983   2.051   1.976 -0.6502  1.3480 -0.6351
    1SOL    MW4 4116   1.055   2.092   2.003 -0.2096  0.1123  0.1259
    1SOL     OW 4117   1.121   2.348   1.887 -0.0923 -0.2226 -0.2219
    1SOL    HW2 4118   1.205   2.382   1.918 -1.0804  1.8966  0.2560
    1SOL    HW3 4119   1.132   2.339   1.793  1.3283 -1.9599  0.0877
    1SOL    MW4 4120   1.134   2.352   1.879 -0.0353 -0.1724 -0.1179
    1SOL     OW 4121   0.919   2.504   1.991  0.2022  0.1614  0.0310
    1SOL    HW2 4122   0.992   2.451   1.961  0.1296  0.5108 -0.7849
    1SOL    HW3 4123   0.845   2.444   1.994  0.1816  0.1526 -0.6238
    1SOL    MW4 4124   0.919   2.489   1.987  0.1898  0.2062 -0.1631
    1SOL     OW 4125   0.855   2.740   1.845  0.2356 -0.4959  0.1861
    1SOL    HW2 4126   0.876   2.660   1.892  0.2251 -0.4992  0.1854
    1SOL    HW3 4127   0.792   2.785   1.901 -0.7256 -1.0839 -0.4124
    1SOL    MW4 4128   0.850   2.736   1.859  0.1074 -0.5739  0.1070
    1SOL     OW 4129   1.112   2.844   1.925  0.7251  0.1074 -0.5996
    1SOL    HW2 4130   1.117   2.829   2.019 -2.0577  1.9390 -0.1176
    1SOL    HW3 4131   1.041   2.788   1.894  2.1319 -1.0764 -1.7718
    1SOL    MW4 4132   1.104   2.835   1.933  0.5436  0.1929 -0.6907
    1SOL     OW 4133   1.101   3.132   1.847  0.0742  0.0420  0.2125
    1SOL    HW2 4134   1.028   3.177   1.889  0.8634  0.4133  1.1968
    1SOL    HW3 4135   1.101   3.044   1.885  0.4219  0.1887  0.5545
    1SOL    MW4 4136   1.092   3.126   1.857  0.2244  0.1104  0.3874
    1SOL     OW 4137   0.903   3.259   1.988  0.6239  0.2251  0.3684
    1SOL    HW2 4138   0.895   3.246   2.082  2.1267 -1.0819  0.3238
    1SOL    HW3 4139   0.829   3.211   1.951  0.3625  0.2617  0.8400
    1SOL    MW4 4140   0.892   3.251   1.995  0.7877  0.0577  0.4247
    1SOL     OW 4141   0.866   3.524   1.896  0.3093  0.2724  0.3616
    1SOL    HW2 4142   0.890   3.433   1.914 -1.6102 -0.3072  0.1512
    1SOL    HW3 4143   0.857   3.528   1.801  0.8178  0.7840  0.3382
    1SOL    MW4 4144   0.868   3.512   1.886  0.1231  0.2637  0.3307
    1SOL     OW 4145   1.123   3.604   1.983  0.4120 -0.2491  0.0964
    1SOL    HW2 4146   1.125   3.586   2.077 -0.1911  1.2114  0.3993
    1SOL    HW3 4147   1.035   3.579   1.955  0.2295  0.3164  0.1428
    1SOL    MW4 4148   1.112   3.599   1.992  0.3083  0.0184  0.1426
    1SOL     OW 4149   1.091   3.890   1.903  0.1161 -0.2085 -0.5405
    1SOL    HW2 4150   1.110   3.803   1.939  0.9684  0.3467  0.3691
    1SOL    HW3 4151   1.101   3.879   1.808  0.0781 -1.1362 -0.4474
    1SOL    MW4 4152   1.095   3.877   1.895  0.2235 -0.2577 -0.4081
    1SOL     OW 4153   0.888   4.028   2.034  0.1877  0.3030 -0.1178
    1SOL    HW2 4154   0.899   4.028   2.129 -1.3582 -2.0378  0.0961
    1SOL    HW3 4155   0.963   3.979   2.000  0.3610  0.5313 -0.0681
    1SOL    MW4 4156   0.899   4.022   2.042  0.0066  0.0243 -0.0832
    1SOL     OW 4157   0.897   4.265   1.869 -0.4368  0.2280  0.2259
    1SOL    HW2 4158   0.976   4.311   1.898  0.1221  0.0603 -0.9823
    1SOL    HW3 4159   0.884   4.196   1.934 -0.8101  1.5669  1.5952
    1SOL    MW4 4160   0.906   4.262   1.882 -0.4123  0.3824  0.2471
    1SOL     OW 4161   1.109   4.394   1.971  0.2597 -0.1005  0.2334
    1SOL    HW2 4162   1.103   4.378   2.066  0.8113  0.7218  0.4081
    1SOL    HW3 4163   1.184   4.342   1.943 -0.0184 -0.4942  0.2104
    1SOL    MW4 4164   1.118   4.385   1.980  0.2959 -0.0439  0.2534
    1SOL     OW 4165   1.538   0.009   1.907 -0.5875 -0.0861  0.2110
    1SOL    HW2 4166   1.623   0.052   1.919 -1.0625  0.6752  0.9762
    1SOL    HW3 4167   1.546  -0.073   1.955  0.1345 -0.5992 -0.7717
    1SOL    MW4 4168   1.551   0.004   1.915 -0.5548 -0.0534  0.1823
    1SOL     OW 4169   1.298   0.138   1.998 -0.1733 -0.3652 -0.0430
    1SOL    HW2 4170   1.307   0.131   2.093  0.1365  1.4661  0.0861
    1SOL    HW3 4171   1.376   0.096   1.964  1.0436  1.3106  0.6090
    1SOL    MW4 4172   1.309   0.131   2.006  0.0281  0.0975  0.0601
    1SOL     OW 4173   1.312   0.402   1.903 -0.3704 -0.6519 -0.1619
    1SOL    HW2 4174   1.307   0.311   1.933 -0.1359 -0.8219 -0.6251
    1SOL    HW3 4175   1.320   0.395   1.807 -0.6194 -0.1358 -0.2226
    1SOL    MW4 4176   1.312   0.389   1.894 -0.3723 -0.6062 -0.2309
    1SOL     OW 4177   1.547   0.503   2.010 -0.2191 -0.0260 -0.1435
    1SOL    HW2 4178   1.629   0.473   1.971  0.2061 -0.1322  0.8137
    1SOL    HW3 4179   1.479   0.465   1.955  0.3450 -1.2252 -0.0357
    1SOL    MW4 4180   1.549   0.494   1.998 -0.0886 -0.1982 -0.0030
    1SOL     OW 4181   1.572   0.762   1.924  0.4538 -0.1042 -0.8335
    1SOL    HW2 4182   1.637   0.801   1.983  0.6760 -0.8825 -0.5616
    1SOL    HW3 4183   1.552   0.677   1.964 -1.9691  0.8234  0.0075
    1SOL    MW4 4184   1.578   0.756   1.937  0.1636 -0.0845 -0.6866
    1SOL     OW 4185   1.341   0.894   2.018 -0.2993 -0.1511 -0.1538
    1SOL    HW2 4186   1.348   0.894   2.114 -0.7347  3.1464 -0.0760
    1SOL    HW3 4187   1.414   0.839   1.989  1.3402  0.8240  1.9898
    1SOL    MW4 4188   1.352   0.887   2.027 -0.1404  0.4126  0.1392
    1SOL     OW 4189   1.348   1.156   1.902 -0.3957  0.0006 -0.6986
    1SOL    HW2 4190   1.342   1.067   1.936  0.4151 -0.2149 -1.0902
    1SOL    HW3 4191   1.273   1.201   1.939  0.5544 -0.1587  1.5099
    1SOL    MW4 4192   1.338   1.150   1.911 -0.1636 -0.0490 -0.4590
    1SOL     OW 4193   1.562   1.311   1.989  0.0487  0.3726  0.1228
    1SOL    HW2 4194   1.549   1.391   1.938 -0.0754  0.6182  0.5338
    1SOL    HW3 4195   1.498   1.249   1.955  0.5237  0.2606 -0.5823
    1SOL    MW4 4196   1.552   1.313   1.978  0.0951  0.3902  0.0840
    1SOL     OW 4197   1.524   1.589   1.869  0.3296  0.0746 -0.2483
    1SOL    HW2 4198   1.602   1.628   1.909 -1.0618  0.1033  2.5533
    1SOL    HW3 4199   1.451   1.633   1.912 -1.2598 -2.2808 -0.4513
    1SOL    MW4 4200   1.525   1.600   1.880 -0.0637 -0.2323  0.0945
    1SOL     OW 4201   1.308   1.701   1.995  0.0344  0.1184  0.2516
    1SOL    HW2 4202   1.326   1.668   2.083 -0.9823  0.7326  0.7083
    1SOL    HW3 4203   1.239   1.643   1.962 -1.6057  1.6078  0.9741
    1SOL    MW4 4204   1.301   1.689   2.002 -0.3161  0.3960  0.4072
    1SOL     OW 4205   1.307   1.972   1.895 -0.2508  0.1110  0.0670
    1SOL    HW2 4206   1.303   1.880   1.922  0.2986 -0.1889 -0.8647
    1SOL    HW3 4207   1.240   2.015   1.948 -0.2542 -0.7565  0.7837
    1SOL    MW4 4208   1.298   1.965   1.906 -0.1788 -0.0429  0.0387
    1SOL     OW 4209   1.553   2.034   1.997  0.0120 -0.0650  0.3180
    1SOL    HW2 4210   1.573   2.126   1.977 -0.9407  0.4237  1.5184
    1SOL    HW3 4211   1.466   2.020   1.959  0.8562 -0.9525 -1.2875
    1SOL    MW4 4212   1.544   2.044   1.990 -0.0023 -0.1175  0.2645
    1SOL     OW 4213   1.577   2.297   1.875 -0.3602 -0.5251  0.1049
    1SOL    HW2 4214   1.648   2.350   1.910 -0.8519 -0.2622  0.7187
    1SOL    HW3 4215   1.578   2.313   1.781 -0.4334  0.4762  0.2770
    1SOL    MW4 4216   1.586   2.306   1.868 -0.4346 -0.3583  0.2085
    1SOL     OW 4217   1.371   2.454   1.979 -0.2508 -0.0334 -0.6812
    1SOL    HW2 4218   1.372   2.535   1.928 -0.1977 -0.3204 -1.1445
    1SOL    HW3 4219   1.439   2.400   1.939  1.7746  0.8157  1.5064
    1SOL    MW4 4220   1.380   2.458   1.967  0.0232  0.0408 -0.4537
    1SOL     OW 4221   1.311   2.689   1.826 -0.3134 -0.0490 -0.1034
    1SOL    HW2 4222   1.250   2.757   1.853 -0.3364  0.1635 -0.6820
    1SOL    HW3 4223   1.326   2.706   1.732  1.6353  0.7030  0.3088
    1SOL    MW4 4224   1.305   2.700   1.817 -0.0592  0.0782 -0.1254
    1SOL     OW 4225   1.522   2.842   1.953 -0.0287 -0.0119 -0.1117
    1SOL    HW2 4226   1.599   2.787   1.936 -0.3083 -0.2752 -0.5636
    1SOL    HW3 4227   1.448   2.791   1.918 -0.3737  0.3524  0.0791
    1SOL    MW4 4228   1.522   2.828   1.946 -0.1112  0.0014 -0.1460
    1SOL     OW 4229   1.502   3.117   1.891 -0.0045  0.0920  0.0121
    1SOL    HW2 4230   1.518   3.028   1.924 -2.4219 -0.6010 -0.5625
    1SOL    HW3 4231   1.523   3.111   1.798 -0.7445 -0.0313 -0.1455
    1SOL    MW4 4232   1.507   3.104   1.883 -0.4212 -0.0157 -0.0845
    1SOL     OW 4233   1.298   3.300   1.981  0.2341  0.2287  0.4179
    1SOL    HW2 4234   1.367   3.239   1.953  0.0897  0.7230 -1.0644
    1SOL    HW3 4235   1.217   3.262   1.945  0.0105  0.7684  0.3549
    1SOL    MW4 4236   1.296   3.287   1.972  0.1855  0.3653  0.2140
    1SOL     OW 4237   1.345   3.529   1.848  0.2459  0.2001 -0.1945
    1SOL    HW2 4238   1.335   3.439   1.878  0.3293  0.3924  0.4159
    1SOL    HW3 4239   1.270   3.576   1.886  0.5863  0.5372  0.0652
    1SOL    MW4 4240   1.334   3.524   1.857  0.3018  0.2699 -0.0796
    1SOL     OW 4241   1.567   3.637   1.976  0.2088  0.5586  0.1038
    1SOL    HW2 4242   1.564   3.646   2.072  0.7112  0.6157  0.1129
    1SOL    HW3 4243   1.486   3.591   1.955  1.3853 -1.9489  0.8394
    1SOL    MW4 4244   1.556   3.632   1.986  0.4303  0.2353  0.2019
    1SOL     OW 4245   1.595   3.880   1.841 -0.2000 -0.2756  0.3106
    1SOL    HW2 4246   1.669   3.925   1.881 -0.4486 -0.5759  1.1182
    1SOL    HW3 4247   1.603   3.789   1.871  0.8375 -1.0205 -2.0540
    1SOL    MW4 4248   1.606   3.874   1.850 -0.0960 -0.4134  0.1051
    1SOL     OW 4249   1.386   3.998   1.995  0.1374 -0.2326 -0.1326
    1SOL    HW2 4250   1.463   3.963   1.952  0.7786  0.9468  0.0150
    1SOL    HW3 4251   1.319   3.931   1.984  0.6472 -0.4832 -1.8559
    1SOL    MW4 4252   1.388   3.985   1.988  0.2893 -0.1101 -0.3406
    1SOL     OW 4253   1.334   4.264   1.906  0.1059  0.4876  0.3548
    1SOL    HW2 4254   1.357   4.180   1.946 -0.3396 -0.3548 -1.1305
    1SOL    HW3 4255   1.351   4.252   1.813  2.1285  2.7736  0.3871
    1SOL    MW4 4256   1.339   4.251   1.899  0.3141  0.6785  0.1632
    1SOL     OW 4257   1.572   4.406   1.999 -0.3189  0.2435  0.4597
    1SOL    HW2 4258   1.557   4.409   2.093 -2.5211  1.7338  0.0886
    1SOL    HW3 4259   1.503   4.349   1.965  0.7746 -0.7072 -0.2048
    1SOL    MW4 4260   1.561   4.399   2.007 -0.4650  0.3147  0.3231
    1SOL     OW 4261   2.003   4.651   1.869  0.0214 -0.3230 -0.2029
    1SOL    HW2 4262   2.071   4.690   1.923  0.0997 -0.9076  0.1216
    1SOL    HW3 4263   1.986   4.566   1.908 -0.3617 -0.4955 -0.7284
    1SOL    MW4 4264   2.010   4.645   1.881 -0.0188 -0.4229 -0.2295
    1SOL     OW 4265   1.781   0.118   1.974 -0.3882 -0.4217 -0.0257
    1SOL    HW2 4266   1.782   0.093   2.066 -0.0760 -1.4160 -0.2860
    1SOL    HW3 4267   1.857   0.074   1.936 -1.3226 -1.2039 -1.0535
    1SOL    MW4 4268   1.791   0.109   1.981 -0.4703 -0.6561 -0.1956
    1SOL     OW 4269   1.773   0.385   1.899  0.9445 -0.1669  0.0910
    1SOL    HW2 4270   1.759   0.290   1.907 -0.9273  0.0739 -0.0346
    1SOL    HW3 4271   1.784   0.400   1.805 -0.5671 -0.0471 -0.0788
    1SOL    MW4 4272   1.772   0.374   1.888  0.4982 -0.1193  0.0520
    1SOL     OW 4273   1.974   0.525   2.024  0.0864  0.2727 -0.1703
    1SOL    HW2 4274   1.975   0.606   1.974  2.9212  0.7531  0.5775
    1SOL    HW3 4275   1.912   0.469   1.978  0.7707  1.5852 -2.7834
    1SOL    MW4 4276   1.966   0.528   2.011  0.5507  0.5092 -0.4163
    1SOL     OW 4277   1.991   0.763   1.895  0.3884 -0.2336  0.2093
    1SOL    HW2 4278   2.078   0.802   1.907  0.3478  0.3511 -1.3124
    1SOL    HW3 4279   1.987   0.742   1.802 -0.9660 -0.6111  0.3460
    1SOL    MW4 4280   2.002   0.765   1.884  0.2043 -0.2062  0.0268
    1SOL     OW 4281   1.778   0.894   2.046  0.5104 -0.0088 -0.7383
    1SOL    HW2 4282   1.770   0.982   2.009 -1.6810 -0.6978 -1.9827
    1SOL    HW3 4283   1.846   0.852   1.993  0.5826  0.4840 -1.0430
    1SOL    MW4 4284   1.786   0.900   2.034  0.2308 -0.0346 -0.9427
    1SOL     OW 4285   1.766   1.131   1.922  0.5014  0.5622  0.0769
    1SOL    HW2 4286   1.695   1.184   1.959  0.4898  0.3384  0.3730
    1SOL    HW3 4287   1.755   1.139   1.828  0.5174  1.1179  0.1210
    1SOL    MW4 4288   1.755   1.139   1.915  0.5019  0.6058  0.1220
    1SOL     OW 4289   1.989   1.254   2.016  0.0532 -0.0870  0.0502
    1SOL    HW2 4290   2.069   1.211   1.985 -0.0268  0.3022 -0.6859
    1SOL    HW3 4291   1.918   1.196   1.990  0.1947 -1.2509  2.1176
    1SOL    MW4 4292   1.990   1.241   2.009  0.0614 -0.1891  0.2260
    1SOL     OW 4293   2.001   1.522   1.951  0.2234  0.0856 -0.2061
    1SOL    HW2 4294   1.994   1.427   1.963  0.1910  0.1931  0.6074
    1SOL    HW3 4295   2.023   1.532   1.858  1.5378 -0.7902 -0.0083
    1SOL    MW4 4296   2.003   1.510   1.940  0.3929 -0.0159 -0.0727
    1SOL     OW 4297   1.774   1.650   2.000 -0.2040 -0.2840  0.4469
    1SOL    HW2 4298   1.792   1.736   1.963 -0.2354 -0.7870 -0.7511
    1SOL    HW3 4299   1.858   1.605   1.999  0.0270  0.1001  2.0500
    1SOL    MW4 4300   1.787   1.656   1.995 -0.1777 -0.2996  0.5004
    1SOL     OW 4301   1.785   1.904   1.914 -0.0399  0.0335  0.2585
    1SOL    HW2 4302   1.708   1.946   1.953  0.8372  0.6237  1.3889
    1SOL    HW3 4303   1.771   1.912   1.819 -1.5095 -0.1431  0.4484
    1SOL    MW4 4304   1.773   1.911   1.906 -0.1180  0.0883  0.4326
    1SOL     OW 4305   1.983   2.057   1.994  0.3714  0.3693 -0.1201
    1SOL    HW2 4306   2.051   2.008   1.947  0.5485 -0.2673  0.7923
    1SOL    HW3 4307   1.902   2.010   1.973  0.0165  1.8262 -2.1789
    1SOL    MW4 4308   1.981   2.045   1.985  0.3480  0.4776 -0.2713
    1SOL     OW 4309   2.041   2.315   1.903  0.5003  0.4734  0.2171
    1SOL    HW2 4310   2.119   2.339   1.954  0.3294 -0.3761  0.9012
    1SOL    HW3 4311   2.026   2.223   1.926  0.0243  0.2802 -0.8610
    1SOL    MW4 4312   2.050   2.306   1.913  0.4151  0.3357  0.1651
    1SOL     OW 4313   1.778   2.447   1.985 -0.2021 -0.0331 -0.5049
    1SOL    HW2 4314   1.760   2.421   2.075 -0.4084 -1.0182 -0.8206
    1SOL    HW3 4315   1.865   2.412   1.967 -1.0983 -1.8716 -1.4238
    1SOL    MW4 4316   1.787   2.439   1.994 -0.3477 -0.4058 -0.6678
    1SOL     OW 4317   1.765   2.709   1.866  0.0534  0.2555 -0.6184
    1SOL    HW2 4318   1.768   2.616   1.888  2.3240  0.6436  0.9480
    1SOL    HW3 4319   1.775   2.712   1.771 -0.3164 -1.1155 -0.7134
    1SOL    MW4 4320   1.767   2.697   1.857  0.3041  0.1259 -0.4241
    1SOL     OW 4321   2.019   2.826   1.999 -0.2962  0.5130 -0.4641
    1SOL    HW2 4322   1.985   2.844   2.087 -0.3737  0.7582 -0.5416
    1SOL    HW3 4323   1.947   2.781   1.955  0.6993 -1.9992  0.4287
    1SOL    MW4 4324   2.005   2.823   2.005 -0.1750  0.2139 -0.3564
    1SOL     OW 4325   1.994   3.074   1.858 -0.0960  0.0355  0.1683
    1SOL    HW2 4326   1.910   3.097   1.900 -0.7137 -1.2959 -0.3129
    1SOL    HW3 4327   2.009   2.983   1.884  0.9522  0.1068 -0.1832
    1SOL    MW4 4328   1.985   3.065   1.867 -0.0392 -0.1307  0.0584
    1SOL     OW 4329   1.760   3.204   1.967  0.0083  0.4468 -0.0341
    1SOL    HW2 4330   1.763   3.212   2.063 -0.3566  0.1621  0.0028
    1SOL    HW3 4331   1.672   3.170   1.949  0.0621  0.5415 -0.4745
    1SOL    MW4 4332   1.749   3.201   1.977 -0.0329  0.4218 -0.0875
    1SOL     OW 4333   1.791   3.464   1.897  0.3763  0.0278 -0.2188
    1SOL    HW2 4334   1.793   3.372   1.925  0.3482 -0.2792 -1.1673
    1SOL    HW3 4335   1.710   3.499   1.933  1.3102  0.2248  1.7578
    1SOL    MW4 4336   1.781   3.456   1.905  0.4957  0.0134 -0.0832
    1SOL     OW 4337   2.001   3.626   1.985 -0.2604 -0.2767 -0.0390
    1SOL    HW2 4338   1.995   3.717   1.955 -0.5896 -0.3977 -0.3524
    1SOL    HW3 4339   1.917   3.588   1.961 -0.0998 -0.6835  0.0399
    1SOL    MW4 4340   1.989   3.633   1.978 -0.2828 -0.3464 -0.0700
    1SOL     OW 4341   2.013   3.878   1.888  0.1315 -0.0183 -0.4081
    1SOL    HW2 4342   2.099   3.913   1.909  0.0323 -0.8881  1.5474
    1SOL    HW3 4343   2.009   3.880   1.792  1.6866  1.5097 -0.4572
    1SOL    MW4 4344   2.024   3.883   1.878  0.3235  0.0682 -0.1565
    1SOL     OW 4345   1.790   4.021   1.965  0.0101  0.0279 -0.8577
    1SOL    HW2 4346   1.795   4.108   1.927  0.1939  0.9811  1.2470
    1SOL    HW3 4347   1.876   3.982   1.949  0.7573  1.1691  0.2756
    1SOL    MW4 4348   1.802   4.027   1.958  0.1329  0.3042 -0.4303
    1SOL     OW 4349   1.790   4.278   1.876  0.1514 -0.3426 -0.7191
    1SOL    HW2 4350   1.722   4.327   1.921  1.5565  1.0412 -0.0632
    1SOL    HW3 4351   1.788   4.312   1.786 -0.4553 -0.7644 -0.8650
    1SOL    MW4 4352   1.781   4.289   1.870  0.2568 -0.2160 -0.6517
    1SOL     OW 4353   2.009   4.417   2.000 -0.0463 -0.2928  0.5813
    1SOL    HW2 4354   2.086   4.376   1.961 -0.0436  1.3179 -1.1610
    1SOL    HW3 4355   1.935   4.373   1.959 -0.0378  0.1036  0.1297
    1SOL    MW4 4356   2.009   4.406   1.989 -0.0448 -0.0286  0.2918
    1SOL     OW 4357   2.427   0.003   1.887  0.7964  0.0374 -0.3483
    1SOL    HW2 4358   2.510   0.047   1.901  2.1115 -2.1223 -1.1167
    1SOL    HW3 4359   2.440  -0.084   1.925 -1.3650 -0.0814  0.1737
    1SOL    MW4 4360   2.440  -0.003   1.894  0.6847 -0.2633 -0.3809
    1SOL     OW 4361   2.209   0.116   2.014 -0.4736 -0.6827 -0.3391
    1SOL    HW2 4362   2.225   0.088   2.104 -0.6118  0.2342 -0.0195
    1SOL    HW3 4363   2.284   0.084   1.965  0.0230 -0.4553  0.2683
    1SOL    MW4 4364   2.221   0.108   2.020 -0.4265 -0.5317 -0.2165
    1SOL     OW 4365   2.198   0.401   1.946  0.0825  0.4074  0.2172
    1SOL    HW2 4366   2.181   0.312   1.977 -0.5422  0.2983 -0.4132
    1SOL    HW3 4367   2.125   0.452   1.981  0.1546  0.5682  0.1319
    1SOL    MW4 4368   2.186   0.396   1.955  0.0095  0.4143  0.1228
    1SOL     OW 4369   2.440   0.544   1.959  0.5139  0.4000  0.3375
    1SOL    HW2 4370   2.509   0.489   1.923  0.1755 -1.2396  2.1332
    1SOL    HW3 4371   2.361   0.490   1.956  0.0405  1.0023  1.5228
    1SOL    MW4 4372   2.439   0.530   1.954  0.4070  0.2632  0.7308
    1SOL     OW 4373   2.461   0.811   1.886  0.4127 -0.0134  0.0484
    1SOL    HW2 4374   2.450   0.720   1.914  0.1116 -0.0220 -0.1013
    1SOL    HW3 4375   2.451   0.808   1.791  1.3613  0.0290 -0.0515
    1SOL    MW4 4376   2.458   0.798   1.877  0.4981 -0.0089  0.0156
    1SOL     OW 4377   2.213   0.876   2.020  0.3195 -0.1852  0.0654
    1SOL    HW2 4378   2.218   0.863   2.114 -0.9736  0.1429  0.1953
    1SOL    HW3 4379   2.300   0.855   1.987  1.7343  2.8604  1.7091
    1SOL    MW4 4380   2.225   0.871   2.028  0.3357  0.2599  0.2995
    1SOL     OW 4381   2.229   1.149   1.898 -0.1901 -0.3211 -0.0010
    1SOL    HW2 4382   2.314   1.176   1.933 -0.1601 -0.2180 -0.1543
    1SOL    HW3 4383   2.221   1.057   1.923  0.1268 -0.4293 -0.2959
    1SOL    MW4 4384   2.239   1.140   1.906 -0.1445 -0.3217 -0.0602
    1SOL     OW 4385   2.477   1.245   2.010 -0.3516 -0.3830  0.6829
    1SOL    HW2 4386   2.480   1.270   2.102 -1.5971 -0.5835  0.7800
    1SOL    HW3 4387   2.481   1.328   1.963 -0.0995 -0.2606  0.9124
    1SOL    MW4 4388   2.478   1.259   2.016 -0.4828 -0.3934  0.7257
    1SOL     OW 4389   2.469   1.488   1.886  0.0876 -0.4535 -0.4812
    1SOL    HW2 4390   2.384   1.527   1.906  0.8039  0.0793  1.5929
    1SOL    HW3 4391   2.482   1.506   1.793 -0.6870  2.1441 -0.1275
    1SOL    MW4 4392   2.459   1.495   1.877  0.0799 -0.0404 -0.1609
    1SOL     OW 4393   2.248   1.661   1.961 -0.6615 -0.1052 -0.1691
    1SOL    HW2 4394   2.281   1.679   2.049  0.2328 -1.0650 -0.2957
    1SOL    HW3 4395   2.166   1.614   1.976  0.0038 -1.1781  0.1622
    1SOL    MW4 4396   2.241   1.657   1.975 -0.4559 -0.3732 -0.1420
    1SOL     OW 4397   2.204   1.920   1.881  0.2024  0.5543 -0.2872
    1SOL    HW2 4398   2.284   1.965   1.907  1.0262 -0.3797 -1.1478
    1SOL    HW3 4399   2.219   1.829   1.906 -0.6349  0.3986 -0.3557
    1SOL    MW4 4400   2.217   1.914   1.887  0.2010  0.4106 -0.4097
    1SOL     OW 4401   2.442   2.061   1.987 -0.2302  0.3014  0.2884
    1SOL    HW2 4402   2.520   2.012   1.960 -0.5127  0.2012 -0.3456
    1SOL    HW3 4403   2.455   2.149   1.951 -0.7801  0.0658 -0.4832
    1SOL    MW4 4404   2.454   2.066   1.979 -0.3402  0.2570  0.1030
    1SOL     OW 4405   2.482   2.310   1.897  0.4194  0.1004 -0.5118
    1SOL    HW2 4406   2.561   2.351   1.930  0.4957 -1.7169  1.6408
    1SOL    HW3 4407   2.410   2.354   1.943  0.2837  0.4216 -1.0260
    1SOL    MW4 4408   2.483   2.321   1.907  0.4117 -0.0970 -0.2958
    1SOL     OW 4409   2.264   2.431   2.012 -0.6977 -0.2857 -0.3794
    1SOL    HW2 4410   2.256   2.420   2.107 -1.9056 -1.9455 -0.6459
    1SOL    HW3 4411   2.258   2.526   1.999 -0.1704 -0.0039  1.2184
    1SOL    MW4 4412   2.262   2.442   2.023 -0.7875 -0.4675 -0.2041
    1SOL     OW 4413   2.265   2.696   1.951 -0.0594  0.1045  0.3775
    1SOL    HW2 4414   2.177   2.728   1.971 -0.4273 -0.7869  0.2471
    1SOL    HW3 4415   2.270   2.698   1.855 -0.0380 -0.0958  0.3743
    1SOL    MW4 4416   2.254   2.700   1.941 -0.1054 -0.0396  0.3598
    1SOL     OW 4417   2.478   2.850   2.043  0.1660 -0.1799  0.0847
    1SOL    HW2 4418   2.465   2.934   1.999 -0.2479 -0.6735 -0.7469
    1SOL    HW3 4419   2.405   2.796   2.015  1.2152 -1.3059 -0.5612
    1SOL    MW4 4420   2.467   2.854   2.033  0.2496 -0.3936 -0.1101
    1SOL     OW 4421   2.448   3.105   1.917  0.6332 -0.2322 -0.2405
    1SOL    HW2 4422   2.363   3.142   1.939 -0.0051 -2.1135  0.5596
    1SOL    HW3 4423   2.450   3.104   1.821  0.1290  0.6369 -0.2641
    1SOL    MW4 4424   2.437   3.110   1.907  0.4826 -0.3657 -0.1382
    1SOL     OW 4425   2.197   3.221   1.973 -0.0861  0.1329  0.3388
    1SOL    HW2 4426   2.191   3.225   2.068  0.4056 -0.2301  0.3894
    1SOL    HW3 4427   2.121   3.170   1.945 -1.2673  1.8158  0.3882
    1SOL    MW4 4428   2.187   3.215   1.982 -0.1769  0.3071  0.3519
    1SOL     OW 4429   2.236   3.489   1.902  0.1572  0.0066 -0.2162
    1SOL    HW2 4430   2.225   3.397   1.926  0.6771 -0.1718 -0.6501
    1SOL    HW3 4431   2.155   3.531   1.930 -0.7121 -0.8560 -1.3868
    1SOL    MW4 4432   2.224   3.483   1.909  0.1111 -0.1307 -0.4278
    1SOL     OW 4433   2.473   3.591   1.988  0.4066  0.2101  0.7267
    1SOL    HW2 4434   2.474   3.603   2.083 -0.4825  1.6300  0.5719
    1SOL    HW3 4435   2.382   3.567   1.968  1.1279 -2.4725  0.4903
    1SOL    MW4 4436   2.461   3.589   1.998  0.3846  0.0434  0.6750
    1SOL     OW 4437   2.440   3.847   1.873 -0.0502 -0.0796  0.6266
    1SOL    HW2 4438   2.377   3.900   1.921  1.8175  0.4117  2.6305
    1SOL    HW3 4439   2.433   3.760   1.913 -0.1721 -0.3024  0.1350
    1SOL    MW4 4440   2.431   3.842   1.884  0.1802 -0.0441  0.8261
    1SOL     OW 4441   2.247   4.013   1.989  0.4882  0.0150  0.1346
    1SOL    HW2 4442   2.261   4.012   2.084 -1.4367 -0.1643  0.4405
    1SOL    HW3 4443   2.256   4.105   1.965  0.0322  0.2011  0.6549
    1SOL    MW4 4444   2.250   4.025   1.998  0.1743  0.0157  0.2434
    1SOL     OW 4445   2.233   4.277   1.876 -0.8972 -0.2171  0.0192
    1SOL    HW2 4446   2.316   4.321   1.892 -0.6423 -0.7433  0.1292
    1SOL    HW3 4447   2.225   4.273   1.781 -0.1002 -1.4944  0.0004
    1SOL    MW4 4448   2.243   4.283   1.866 -0.7584 -0.4554  0.0312
    1SOL     OW 4449   2.488   4.398   1.969  0.5259 -0.1720  0.4425
    1SOL    HW2 4450   2.485   4.413   2.063 -0.4863 -2.2704  0.7654
    1SOL    HW3 4451   2.570   4.352   1.954  0.7483  0.2756  0.2732
    1SOL    MW4 4452   2.498   4.394   1.979  0.4215 -0.3891  0.4627
    1SOL     OW 4453   2.951   0.020   1.911  0.2998 -0.1633  0.2382
    1SOL    HW2 4454   3.024   0.068   1.950  1.3335 -0.0478 -1.7910
    1SOL    HW3 4455   2.958  -0.068   1.946 -0.0366  0.4614  1.9236
    1SOL    MW4 4456   2.961   0.015   1.921  0.3920 -0.0658  0.1928
    1SOL     OW 4457   2.694   0.087   1.944 -0.1674  0.1923 -0.6751
    1SOL    HW2 4458   2.694   0.096   2.039  0.3237 -0.0283 -0.6509
    1SOL    HW3 4459   2.783   0.057   1.923 -0.4088 -0.1918 -1.1579
    1SOL    MW4 4460   2.706   0.084   1.954 -0.1345  0.1125 -0.7356
    1SOL     OW 4461   2.673   0.388   1.888  0.2425  0.1283 -0.5009
    1SOL    HW2 4462   2.752   0.418   1.933  1.5396 -1.2823 -1.7759
    1SOL    HW3 4463   2.666   0.295   1.911  0.1121 -0.2554 -1.9980
    1SOL    MW4 4464   2.682   0.380   1.897  0.3963 -0.1085 -0.8667
    1SOL     OW 4465   2.908   0.479   2.022  0.0540  0.1163 -0.0880
    1SOL    HW2 4466   2.971   0.427   1.972 -1.2699 -0.1105 -1.5725
    1SOL    HW3 4467   2.916   0.568   1.986  1.0857  0.5729  1.2468
    1SOL    MW4 4468   2.917   0.484   2.011  0.0155  0.1466 -0.1078
    1SOL     OW 4469   2.919   0.761   1.874  0.1948 -0.1267  0.6869
    1SOL    HW2 4470   2.991   0.800   1.924  0.2481  0.7495 -0.0671
    1SOL    HW3 4471   2.840   0.787   1.922  0.3241 -0.3647  1.0319
    1SOL    MW4 4472   2.918   0.770   1.887  0.2189 -0.0424  0.6330
    1SOL     OW 4473   2.696   0.870   2.026 -0.2811  0.3279  0.5750
    1SOL    HW2 4474   2.704   0.962   2.001  0.8391  0.3257  0.9054
    1SOL    HW3 4475   2.614   0.841   1.986 -0.3397  1.3150 -0.0198
    1SOL    MW4 4476   2.686   0.878   2.017 -0.1409  0.4579  0.5400
    1SOL     OW 4477   2.733   1.142   1.949 -0.1204  0.1902 -0.3219
    1SOL    HW2 4478   2.652   1.180   1.982 -0.8556 -1.1302 -0.5672
    1SOL    HW3 4479   2.723   1.142   1.854  0.0532 -0.2090 -0.3432
    1SOL    MW4 4480   2.721   1.147   1.941 -0.1943 -0.0367 -0.3570
    1SOL     OW 4481   2.947   1.279   2.037  0.4402  0.2446 -0.8316
    1SOL    HW2 4482   2.937   1.363   1.993  3.1522  0.3467 -1.3329
    1SOL    HW3 4483   2.869   1.230   2.014 -0.6605  2.2267 -1.4129
    1SOL    MW4 4484   2.935   1.284   2.028  0.6530  0.5196 -0.9744
    1SOL     OW 4485   2.885   1.529   1.912 -0.2644 -0.0241 -0.0879
    1SOL    HW2 4486   2.972   1.563   1.932 -0.2875  0.0701 -0.1450
    1SOL    HW3 4487   2.886   1.515   1.817 -0.1852 -0.3853 -0.0328
    1SOL    MW4 4488   2.896   1.532   1.902 -0.2568 -0.0592 -0.0882
    1SOL     OW 4489   2.672   1.673   1.987 -0.5334  0.2913  0.4947
    1SOL    HW2 4490   2.752   1.629   1.958  0.0568  1.4757  0.2788
    1SOL    HW3 4491   2.601   1.621   1.950  0.1349 -0.6912  0.5696
    1SOL    MW4 4492   2.673   1.660   1.979 -0.3672  0.3181  0.4760
    1SOL     OW 4493   2.664   1.930   1.907 -0.4059 -0.5688  0.1874
    1SOL    HW2 4494   2.747   1.963   1.940 -0.7904  0.9410 -0.3026
    1SOL    HW3 4495   2.658   1.841   1.942  1.5065 -0.7805  0.0491
    1SOL    MW4 4496   2.674   1.922   1.916 -0.2043 -0.3977  0.1045
    1SOL     OW 4497   2.903   2.023   1.977  0.0860  0.5146  0.7374
    1SOL    HW2 4498   2.891   2.034   2.071  2.0086  1.5845  0.8875
    1SOL    HW3 4499   2.988   1.978   1.969  1.3928  3.1143 -0.5559
    1SOL    MW4 4500   2.913   2.018   1.988  0.5121  0.9987  0.5865
    1SOL     OW 4501   2.898   2.278   1.875 -0.6129 -0.1265  0.2431
    1SOL    HW2 4502   2.972   2.330   1.907 -1.2760  1.2778 -0.4720
    1SOL    HW3 4503   2.909   2.193   1.916  1.7905 -0.1438 -0.3951
    1SOL    MW4 4504   2.909   2.274   1.885 -0.3834  0.0565  0.0645
    1SOL     OW 4505   2.717   2.462   1.992  0.5572 -0.1192  0.0520
    1SOL    HW2 4506   2.706   2.549   1.955  1.5318 -0.3331 -0.7713
    1SOL    HW3 4507   2.793   2.426   1.946 -0.0019 -1.5005  0.1892
    1SOL    MW4 4508   2.725   2.469   1.981  0.6120 -0.3297 -0.0385
    1SOL     OW 4509   2.709   2.737   1.930 -0.0056 -0.2170  0.1228
    1SOL    HW2 4510   2.631   2.772   1.973  0.3280 -0.4066  0.8849
    1SOL    HW3 4511   2.683   2.728   1.838 -0.1996  1.7895 -0.0592
    1SOL    MW4 4512   2.695   2.741   1.923  0.0126  0.0226  0.1994
    1SOL     OW 4513   2.953   2.837   2.008  0.5171  0.1895 -0.3050
    1SOL    HW2 4514   2.953   2.925   1.970  0.4687  0.0515 -0.6248
    1SOL    HW3 4515   2.873   2.797   1.976  1.3940 -0.5822 -1.5814
    1SOL    MW4 4516   2.943   2.843   1.999  0.6263  0.0694 -0.5157
    1SOL     OW 4517   2.929   3.085   1.897  0.0839 -0.4159 -0.4299
    1SOL    HW2 4518   2.993   3.148   1.931 -0.5953  0.8885 -1.4898
    1SOL    HW3 4519   2.844   3.118   1.927 -0.3532 -0.3169 -1.7272
    1SOL    MW4 4520   2.926   3.098   1.905 -0.0634 -0.2308 -0.7409
    1SOL     OW 4521   2.692   3.206   2.006 -0.1225 -0.0086  0.2431
    1SOL    HW2 4522   2.692   3.289   1.958 -2.2534  0.5614  1.1255
    1SOL    HW3 4523   2.606   3.168   1.988  0.1996 -1.2228  1.1828
    1SOL    MW4 4524   2.681   3.212   1.998 -0.3610 -0.0932  0.4835
    1SOL     OW 4525   2.690   3.458   1.870  0.6435  0.2637  0.2635
    1SOL    HW2 4526   2.760   3.516   1.901  0.2019 -0.1934  2.1428
    1SOL    HW3 4527   2.609   3.501   1.899  0.1637  0.2675 -1.0296
    1SOL    MW4 4528   2.689   3.472   1.878  0.5219  0.2038  0.3408
    1SOL     OW 4529   2.888   3.638   1.991  0.4736  0.1688 -0.0081
    1SOL    HW2 4530   2.891   3.624   2.086 -1.5590 -1.1285 -0.1119
    1SOL    HW3 4531   2.959   3.585   1.956  1.6884  1.2103  0.8276
    1SOL    MW4 4532   2.898   3.629   1.999  0.3657  0.1349  0.0883
    1SOL     OW 4533   2.891   3.900   1.893 -0.0699  0.3121 -1.1803
    1SOL    HW2 4534   2.884   3.808   1.920  2.3261 -0.3432 -2.6061
    1SOL    HW3 4535   2.893   3.896   1.797  0.4513  1.8140 -1.2336
    1SOL    MW4 4536   2.891   3.887   1.884  0.3150  0.4237 -1.3753
    1SOL     OW 4537   2.654   4.010   1.978 -0.2823  0.0753 -0.0746
    1SOL    HW2 4538   2.734   3.963   1.957 -1.3728 -1.3081 -1.2863
    1SOL    HW3 4539   2.584   3.957   1.939 -1.6651  2.0062 -0.3078
    1SOL    MW4 4540   2.655   3.997   1.970 -0.6084  0.1476 -0.2652
    1SOL     OW 4541   2.739   4.272   1.894  0.1013  0.4152  0.3909
    1SOL    HW2 4542   2.699   4.192   1.928  1.0302 -0.3591 -0.3234
    1SOL    HW3 4543   2.736   4.261   1.799  1.1069  0.8069  0.3145
    1SOL    MW4 4544   2.733   4.260   1.886  0.3564  0.3648  0.2867
    1SOL     OW 4545   2.945   4.405   2.007  0.3791  0.1538 -0.0589
    1SOL    HW2 4546   2.928   4.397   2.100 -0.4479  0.8849 -0.1439
    1SOL    HW3 4547   2.869   4.365   1.965 -0.3401  1.8742 -0.4322
    1SOL    MW4 4548   2.933   4.398   2.013  0.1750  0.4773 -0.1192
    1SOL     OW 4549   3.405   4.662   1.856  0.2368 -0.4163  0.0250
    1SOL    HW2 4550   3.409   4.575   1.897 -0.0771 -0.6909 -0.5066
    1SOL    HW3 4551   3.386   4.643   1.764 -1.1461  0.2687  0.1464
    1SOL    MW4 4552   3.403   4.648   1.849  0.0129 -0.3624 -0.0291
    1SOL     OW 4553   3.186   0.132   1.974 -0.4356  0.3129  0.3280
    1SOL    HW2 4554   3.179   0.103   2.064 -1.3707  0.0993  0.1905
    1SOL    HW3 4555   3.269   0.095   1.943 -1.0002 -1.1548  0.5437
    1SOL    MW4 4556   3.196   0.123   1.982 -0.6335  0.0911  0.3381
    1SOL     OW 4557   3.114   0.380   1.870 -0.0968  0.8428 -0.5414
    1SOL    HW2 4558   3.150   0.302   1.913  0.6817  2.5517  1.9986
    1SOL    HW3 4559   3.107   0.354   1.778  1.3115 -1.8112  0.0248
    1SOL    MW4 4560   3.118   0.366   1.863  0.1917  0.7181 -0.1315
    1SOL     OW 4561   3.332   0.500   1.978 -0.2118 -0.0196  0.0926
    1SOL    HW2 4562   3.404   0.453   1.934 -0.6762 -1.1122  0.4940
    1SOL    HW3 4563   3.253   0.462   1.941 -0.6012 -0.2903  1.1875
    1SOL    MW4 4564   3.331   0.489   1.967 -0.3245 -0.1995  0.2900
    1SOL     OW 4565   3.398   0.753   1.881 -0.0374 -0.3730  0.3553
    1SOL    HW2 4566   3.314   0.789   1.911  0.1606 -0.1445  0.6412
    1SOL    HW3 4567   3.400   0.663   1.915 -0.0352 -0.2797  0.6007
    1SOL    MW4 4568   3.387   0.746   1.889 -0.0112 -0.3305  0.4255
    1SOL     OW 4569   3.150   0.869   1.973 -0.1268 -0.0595 -0.1771
    1SOL    HW2 4570   3.168   0.879   2.067  0.5009 -0.5345 -0.2391
    1SOL    HW3 4571   3.143   0.959   1.941  0.1143  0.1152  0.2420
    1SOL    MW4 4572   3.152   0.882   1.981 -0.0122 -0.0991 -0.1301
    1SOL     OW 4573   3.130   1.140   1.893 -0.0949 -0.3132 -0.4521
    1SOL    HW2 4574   3.212   1.181   1.921  0.4328 -0.7451 -1.3483
    1SOL    HW3 4575   3.062   1.186   1.942  0.4818  1.6694 -1.4668
    1SOL    MW4 4576   3.132   1.152   1.903  0.0508 -0.1087 -0.7042
    1SOL     OW 4577   3.370   1.243   1.972  0.4156 -0.1438  0.5225
    1SOL    HW2 4578   3.367   1.246   2.067 -0.1787 -1.0693  0.5338
    1SOL    HW3 4579   3.365   1.335   1.945 -1.1830  0.0101  1.3186
    1SOL    MW4 4580   3.369   1.256   1.981  0.1261 -0.2456  0.6289
    1SOL     OW 4581   3.350   1.496   1.863  0.1692 -0.1907  0.0996
    1SOL    HW2 4582   3.434   1.520   1.901 -0.1518 -0.4976  1.0252
    1SOL    HW3 4583   3.291   1.567   1.889 -0.4346 -1.2014  1.5927
    1SOL    MW4 4584   3.353   1.509   1.871  0.0474 -0.3647  0.4187
    1SOL     OW 4585   3.122   1.628   1.968  0.0176  0.1398  0.1732
    1SOL    HW2 4586   3.131   1.641   2.063 -0.5220 -1.7796  0.5157
    1SOL    HW3 4587   3.098   1.714   1.934 -0.9183  0.6092  1.9335
    1SOL    MW4 4588   3.120   1.641   1.976 -0.1774 -0.0514  0.4506
    1SOL     OW 4589   3.114   1.889   1.870 -0.3212 -0.5407  0.3804
    1SOL    HW2 4590   3.196   1.929   1.900 -1.7004  1.2354  1.8916
    1SOL    HW3 4591   3.115   1.901   1.775  1.3132 -0.8467  0.3302
    1SOL    MW4 4592   3.125   1.896   1.862 -0.2875 -0.3468  0.5732
    1SOL     OW 4593   3.345   2.022   1.959 -0.2714  0.4100 -0.3014
    1SOL    HW2 4594   3.429   1.983   1.933 -0.0165  1.1643 -0.6230
    1SOL    HW3 4595   3.353   2.114   1.934 -0.3011  0.9922  1.7530
    1SOL    MW4 4596   3.357   2.029   1.952 -0.2418  0.5865 -0.0727
    1SOL     OW 4597   3.352   2.286   1.907  0.0810 -0.0142  0.0774
    1SOL    HW2 4598   3.265   2.317   1.933  0.5166  2.5774 -1.3272
    1SOL    HW3 4599   3.347   2.278   1.812  1.3777  0.2523 -0.0251
    1SOL    MW4 4600   3.340   2.289   1.898  0.3095  0.3631 -0.1214
    1SOL     OW 4601   3.113   2.419   1.969 -0.2755 -0.1094 -0.5740
    1SOL    HW2 4602   3.119   2.424   2.064 -0.3013  0.3631 -0.5948
    1SOL    HW3 4603   3.122   2.510   1.940 -0.5853 -0.2124 -1.0020
    1SOL    MW4 4604   3.115   2.432   1.978 -0.3200 -0.0606 -0.6331
    1SOL     OW 4605   3.153   2.680   1.875  0.1102  0.2679 -0.2404
    1SOL    HW2 4606   3.087   2.743   1.902  0.6518  0.9560 -0.5030
    1SOL    HW3 4607   3.149   2.679   1.779  0.2154  0.0270 -0.2446
    1SOL    MW4 4608   3.144   2.688   1.866  0.1955  0.3269 -0.2755
    1SOL     OW 4609   3.359   2.844   1.955 -0.0849 -0.0760  0.5331
    1SOL    HW2 4610   3.376   2.846   2.050 -1.0759  0.8815  0.6992
    1SOL    HW3 4611   3.279   2.793   1.946 -0.9869  1.3235  0.3856
    1SOL    MW4 4612   3.351   2.838   1.966 -0.3345  0.2348  0.5356
    1SOL     OW 4613   3.338   3.120   1.884  0.7259  0.3787 -0.7674
    1SOL    HW2 4614   3.414   3.164   1.922  0.8914 -1.4054  1.0626
    1SOL    HW3 4615   3.346   3.029   1.913 -2.2532  0.2294 -0.3102
    1SOL    MW4 4616   3.349   3.114   1.893  0.3543  0.1235 -0.4655
    1SOL     OW 4617   3.124   3.261   1.991  0.1707  0.2482  0.2053
    1SOL    HW2 4618   3.118   3.349   1.954  0.5851 -0.1694 -0.8791
    1SOL    HW3 4619   3.203   3.224   1.951  0.3257 -0.4034  1.1068
    1SOL    MW4 4620   3.134   3.267   1.981  0.2456  0.1070  0.1813
    1SOL     OW 4621   3.089   3.493   1.872  0.0699  0.6150  0.1662
    1SOL    HW2 4622   3.161   3.540   1.913  0.2250 -0.8138  1.5486
    1SOL    HW3 4623   3.113   3.489   1.779  1.0876  1.3621  0.3916
    1SOL    MW4 4624   3.102   3.499   1.865  0.2244  0.5252  0.3783
    1SOL     OW 4625   3.310   3.598   2.024  0.3985  0.4872 -0.2023
    1SOL    HW2 4626   3.383   3.551   1.984  0.0171 -0.3274  0.0370
    1SOL    HW3 4627   3.325   3.690   2.002  0.9526  0.2109 -1.0073
    1SOL    MW4 4628   3.322   3.604   2.015  0.4210  0.3433 -0.2770
    1SOL     OW 4629   3.360   3.870   1.908  0.4807 -0.5885  0.3068
    1SOL    HW2 4630   3.280   3.920   1.923 -0.0286 -1.7166  1.4523
    1SOL    HW3 4631   3.363   3.858   1.813 -0.7176 -0.5512  0.2512
    1SOL    MW4 4632   3.350   3.875   1.897  0.2556 -0.7327  0.4506
    1SOL     OW 4633   3.132   4.016   1.984  0.0227 -0.2936 -0.4680
    1SOL    HW2 4634   3.141   4.000   2.078  0.6233 -1.0063 -0.6389
    1SOL    HW3 4635   3.047   3.978   1.962 -0.0077 -0.3484 -0.2590
    1SOL    MW4 4636   3.122   4.009   1.993  0.0978 -0.3948 -0.4630
    1SOL     OW 4637   3.175   4.294   1.924  0.3200  0.2584 -0.2350
    1SOL    HW2 4638   3.157   4.204   1.948  1.5162  0.2460  0.6873
    1SOL    HW3 4639   3.092   4.340   1.937  0.1198 -0.3925  0.8578
    1SOL    MW4 4640   3.162   4.288   1.929  0.4513  0.1707  0.0308
    1SOL     OW 4641   3.418   4.393   1.973 -0.4145 -0.0699  0.0711
    1SOL    HW2 4642   3.480   4.326   1.946 -0.4429 -0.2862  0.5540
    1SOL    HW3 4643   3.332   4.356   1.952 -0.3721  0.4257 -1.0495
    1SOL    MW4 4644   3.415   4.380   1.966 -0.4127 -0.0329 -0.0130
    1SOL     OW 4645   3.807   4.638   1.839 -0.1994 -0.3065 -0.1711
    1SOL    HW2 4646   3.801   4.566   1.902  0.9580  0.3979  0.7668
    1SOL    HW3 4647   3.746   4.705   1.872  1.1350  0.4646  0.7539
    1SOL    MW4 4648   3.798   4.638   1.852  0.1292 -0.1121  0.0747
    1SOL     OW 4649   3.608   0.131   1.961  0.1115  0.1739  0.1497
    1SOL    HW2 4650   3.609   0.133   2.057 -0.2552 -1.2519  0.1960
    1SOL    HW3 4651   3.520   0.102   1.938 -0.4156  2.3837 -0.6769
    1SOL    MW4 4652   3.597   0.127   1.970 -0.0062  0.2774  0.0468
    1SOL     OW 4653   3.558   0.369   1.863  0.1502 -0.2337 -0.3478
    1SOL    HW2 4654   3.581   0.282   1.894  1.4146  0.3283  0.3543
    1SOL    HW3 4655   3.556   0.361   1.768  1.0115 -0.8571 -0.3182
    1SOL    MW4 4656   3.561   0.356   1.855  0.4306 -0.2418 -0.2513
    1SOL     OW 4657   3.791   0.498   1.989 -0.4253  0.0827  0.0163
    1SOL    HW2 4658   3.811   0.585   1.955  0.4922  0.1465  0.6720
    1SOL    HW3 4659   3.709   0.474   1.948 -0.0938  0.7737 -1.0807
    1SOL    MW4 4660   3.783   0.506   1.979 -0.2606  0.1823 -0.0421
    1SOL     OW 4661   3.847   0.727   1.850 -0.0601  0.4999  0.3263
    1SOL    HW2 4662   3.779   0.791   1.871 -0.8263  0.1171 -0.9615
    1SOL    HW3 4663   3.870   0.744   1.759 -0.3966 -1.1547 -0.0991
    1SOL    MW4 4664   3.841   0.737   1.841 -0.2055  0.2311  0.1004
    1SOL     OW 4665   3.631   0.880   1.967 -0.1597  0.6798  0.3311
    1SOL    HW2 4666   3.620   0.971   1.941  1.0490  0.1423 -2.2413
    1SOL    HW3 4667   3.554   0.835   1.933  0.4282  0.3337 -0.5710
    1SOL    MW4 4668   3.620   0.886   1.959  0.0777  0.5632 -0.1273
    1SOL     OW 4669   3.624   1.150   1.880 -0.2393 -0.3030  0.1091
    1SOL    HW2 4670   3.540   1.190   1.903 -0.2623 -0.7190  0.7551
    1SOL    HW3 4671   3.618   1.135   1.786 -0.6308  0.2760  0.0406
    1SOL    MW4 4672   3.612   1.153   1.871 -0.2942 -0.2815  0.1853
    1SOL     OW 4673   3.829   1.275   1.996 -0.2048  0.5499 -0.0841
    1SOL    HW2 4674   3.809   1.256   2.088  0.8091 -0.6271 -0.0928
    1SOL    HW3 4675   3.765   1.224   1.946  0.9691 -0.9799 -0.0631
    1SOL    MW4 4676   3.818   1.265   2.002  0.0839  0.1928 -0.0823
    1SOL     OW 4677   3.854   1.540   1.898  0.4383 -0.0802 -0.1212
    1SOL    HW2 4678   3.933   1.573   1.941 -0.0842  0.3300  0.5486
    1SOL    HW3 4679   3.835   1.457   1.942  0.3718 -0.0662 -0.1230
    1SOL    MW4 4680   3.862   1.534   1.909  0.3607 -0.0243 -0.0329
    1SOL     OW 4681   3.581   1.615   1.963 -0.3342 -0.7697 -0.1259
    1SOL    HW2 4682   3.577   1.707   1.939 -1.1736 -0.5091  0.9908
    1SOL    HW3 4683   3.671   1.589   1.943 -0.2693  0.1120 -1.0325
    1SOL    MW4 4684   3.593   1.623   1.957 -0.4365 -0.6189 -0.0982
    1SOL     OW 4685   3.593   1.891   1.905  0.1406 -0.0117  0.0207
    1SOL    HW2 4686   3.674   1.923   1.944  0.0553 -1.2785  1.2948
    1SOL    HW3 4687   3.601   1.912   1.812  1.2431  1.2566  0.3806
    1SOL    MW4 4688   3.605   1.898   1.898  0.2747 -0.0116  0.2364
    1SOL     OW 4689   3.814   2.008   2.002  0.0727  0.0642  0.1640
    1SOL    HW2 4690   3.892   1.971   1.961 -0.3693 -1.0203  0.3108
    1SOL    HW3 4691   3.801   2.091   1.955  1.4118  0.3454  0.2587
    1SOL    MW4 4692   3.823   2.014   1.990  0.1912 -0.0417  0.1960
    1SOL     OW 4693   3.802   2.267   1.845  0.4618  0.0141  0.0226
    1SOL    HW2 4694   3.877   2.305   1.891  0.5267  1.1434 -0.9993
    1SOL    HW3 4695   3.727   2.319   1.874  0.4731  0.6014 -0.9881
    1SOL    MW4 4696   3.802   2.279   1.855  0.4718  0.2408 -0.2457
    1SOL     OW 4697   3.590   2.405   1.964  0.2080  0.4624 -0.1969
    1SOL    HW2 4698   3.575   2.498   1.944 -1.1517  0.1399 -0.7481
    1SOL    HW3 4699   3.507   2.363   1.941  0.2292 -0.6331  1.6566
    1SOL    MW4 4700   3.577   2.412   1.958  0.0312  0.2754 -0.0252
    1SOL     OW 4701   3.564   2.675   1.847 -0.3415 -0.1842  0.1944
    1SOL    HW2 4702   3.643   2.710   1.888 -0.8700 -1.0832  2.0940
    1SOL    HW3 4703   3.494   2.733   1.877 -0.6113 -0.3034 -0.2067
    1SOL    MW4 4704   3.565   2.687   1.857 -0.4468 -0.3185  0.3921
    1SOL     OW 4705   3.770   2.807   1.964 -0.7872  0.0076 -0.3815
    1SOL    HW2 4706   3.768   2.818   2.060 -0.6560  0.1383 -0.3928
    1SOL    HW3 4707   3.760   2.895   1.930  1.0843  0.2202 -0.4624
    1SOL    MW4 4708   3.768   2.820   1.972 -0.5229  0.0532 -0.3937
    1SOL     OW 4709   3.794   3.079   1.898 -0.1515 -0.0047 -0.1193
    1SOL    HW2 4710   3.721   3.132   1.929  0.7284  0.9310  0.3827
    1SOL    HW3 4711   3.804   3.103   1.806 -0.2563  0.1123 -0.0996
    1SOL    MW4 4712   3.786   3.089   1.890 -0.0494  0.1345 -0.0503
    1SOL     OW 4713   3.571   3.235   1.989  0.1899  0.1441  0.3149
    1SOL    HW2 4714   3.568   3.224   2.084 -1.3370  0.3343  0.2969
    1SOL    HW3 4715   3.580   3.329   1.975 -0.6684  0.2164  0.2531
    1SOL    MW4 4716   3.572   3.246   2.000 -0.1247  0.1786  0.3043
    1SOL     OW 4717   3.574   3.516   1.942  0.1409  0.1012 -0.0867
    1SOL    HW2 4718   3.654   3.544   1.985  0.6913 -0.1811 -0.9072
    1SOL    HW3 4719   3.586   3.541   1.850 -0.8776  0.4147 -0.1418
    1SOL    MW4 4720   3.586   3.523   1.935  0.0792  0.1054 -0.2022
    1SOL     OW 4721   3.848   3.581   2.045  0.2710 -0.1138  0.1192
    1SOL    HW2 4722   3.926   3.535   2.013 -0.0596  0.0634 -0.9477
    1SOL    HW3 4723   3.845   3.661   1.994 -0.1203  0.3035  0.7875
    1SOL    MW4 4724   3.858   3.585   2.034  0.1760 -0.0353  0.0665
    1SOL     OW 4725   3.829   3.813   1.904 -0.7688  0.3450  0.1749
    1SOL    HW2 4726   3.762   3.876   1.928 -1.3941  0.1961 -1.1184
    1SOL    HW3 4727   3.845   3.828   1.811  1.2401  0.5920  0.5173
    1SOL    MW4 4728   3.823   3.823   1.895 -0.5860  0.3579  0.0495
    1SOL     OW 4729   3.627   3.991   1.974 -0.0224 -0.0995  0.5726
    1SOL    HW2 4730   3.641   3.992   2.069  0.0694  0.4750  0.5594
    1SOL    HW3 4731   3.551   3.934   1.961 -0.4518  0.3551  1.0546
    1SOL    MW4 4732   3.619   3.984   1.985 -0.0670  0.0360  0.6343
    1SOL     OW 4733   3.621   4.243   1.877  0.3611 -0.0664  0.0799
    1SOL    HW2 4734   3.677   4.303   1.926 -0.7575  1.3857 -0.3860
    1SOL    HW3 4735   3.630   4.159   1.922  1.9577  0.4364  0.7363
    1SOL    MW4 4736   3.630   4.240   1.889  0.4241  0.1912  0.1050
    1SOL     OW 4737   3.820   4.404   2.013  0.0607 -0.0224 -0.3742
    1SOL    HW2 4738   3.815   4.415   2.108  0.0087 -0.6724 -0.2985
    1SOL    HW3 4739   3.906   4.365   1.998  0.0032 -0.0690 -0.5792
    1SOL    MW4 4740   3.831   4.400   2.024  0.0463 -0.1140 -0.3910
    1SOL     OW 4741   4.218   4.633   1.886 -0.3151 -0.3300 -0.1491
    1SOL    HW2 4742   4.143   4.686   1.916 -0.3855 -0.5972  0.1565
    1SOL    HW3 4743   4.294   4.675   1.927 -0.4368 -0.8488  0.6338
    1SOL    MW4 4744   4.218   4.646   1.896 -0.3405 -0.4334 -0.0055
    1SOL     OW 4745   4.003   0.124   1.963 -0.0218  0.1578 -0.3796
    1SOL    HW2 4746   3.990   0.091   2.052  0.6778 -2.0486 -1.0500
    1SOL    HW3 4747   3.951   0.065   1.908  0.3459  0.8815 -1.5206
    1SOL    MW4 4748   3.995   0.112   1.968  0.1190 -0.0378 -0.6186
    1SOL     OW 4749   4.001   0.382   1.864  0.9081 -0.2167 -0.0568
    1SOL    HW2 4750   4.006   0.297   1.906  2.2028 -0.6468 -1.0518
    1SOL    HW3 4751   3.932   0.428   1.911 -0.1945 -2.0153  0.1088
    1SOL    MW4 4752   3.993   0.377   1.875  0.9336 -0.5107 -0.1662
    1SOL     OW 4753   4.256   0.455   1.967  0.2961  0.3052  0.0551
    1SOL    HW2 4754   4.257   0.459   2.063 -0.0165 -2.8817  0.2166
    1SOL    HW3 4755   4.165   0.435   1.945  0.7569 -0.9078 -0.8044
    1SOL    MW4 4756   4.244   0.453   1.977  0.3152 -0.2753 -0.0371
    1SOL     OW 4757   4.277   0.727   1.896 -0.1478 -0.1215  0.0577
    1SOL    HW2 4758   4.287   0.637   1.926 -1.1347 -0.4422 -0.5791
    1SOL    HW3 4759   4.255   0.719   1.804  0.2214  0.7940 -0.1174
    1SOL    MW4 4760   4.276   0.714   1.888 -0.2289 -0.0430 -0.0495
    1SOL     OW 4761   4.054   0.882   1.970 -0.0528 -0.6632  0.3639
    1SOL    HW2 4762   4.134   0.831   1.961  0.0040 -0.3078 -1.3457
    1SOL    HW3 4763   3.985   0.824   1.939  0.0269  0.3229 -1.6955
    1SOL    MW4 4764   4.055   0.867   1.965 -0.0343 -0.4863 -0.1333
    1SOL     OW 4765   4.051   1.146   1.873  0.4233  0.3808 -0.3301
    1SOL    HW2 4766   4.055   1.061   1.918  1.3773  1.2870  1.3287
    1SOL    HW3 4767   3.977   1.191   1.913 -0.6439  0.0107 -1.8306
    1SOL    MW4 4768   4.042   1.141   1.884  0.4082  0.4516 -0.3092
    1SOL     OW 4769   4.284   1.279   1.962  0.0073  0.7801 -0.4164
    1SOL    HW2 4770   4.279   1.289   2.057  1.6549 -1.6229 -0.0526
    1SOL    HW3 4771   4.206   1.230   1.939  0.4199 -0.0312 -0.0958
    1SOL    MW4 4772   4.273   1.274   1.971  0.2789  0.3560 -0.3260
    1SOL     OW 4773   4.326   1.544   1.877 -0.0386  0.0268  0.0036
    1SOL    HW2 4774   4.318   1.456   1.912  2.8059 -0.2421  0.0573
    1SOL    HW3 4775   4.311   1.534   1.783  0.9833 -0.6559 -0.0973
    1SOL    MW4 4776   4.323   1.531   1.869  0.4721 -0.0987 -0.0027
    1SOL     OW 4777   4.084   1.656   1.995  0.1307 -0.2882 -0.5047
    1SOL    HW2 4778   4.080   1.669   2.090 -1.5532  1.6850 -0.7898
    1SOL    HW3 4779   4.175   1.632   1.978  0.8191  0.7422  1.4658
    1SOL    MW4 4780   4.095   1.655   2.005 -0.0005  0.1079 -0.2823
    1SOL     OW 4781   4.003   1.881   1.836 -0.0546  0.2013 -0.3235
    1SOL    HW2 4782   4.030   1.798   1.874  0.5646  0.0961 -0.9789
    1SOL    HW3 4783   3.999   1.864   1.741 -2.0407  0.3200 -0.2834
    1SOL    MW4 4784   4.006   1.868   1.828 -0.2346  0.2031 -0.4047
    1SOL     OW 4785   4.233   2.013   1.991 -0.7314 -0.1894  0.2890
    1SOL    HW2 4786   4.245   1.997   2.085  0.0350  0.8375  0.3815
    1SOL    HW3 4787   4.146   1.979   1.971 -1.3191  0.5063  1.6016
    1SOL    MW4 4788   4.223   2.007   2.001 -0.7081  0.0377  0.4742
    1SOL     OW 4789   4.250   2.271   1.863  0.3706  0.3354 -0.0726
    1SOL    HW2 4790   4.256   2.185   1.905 -0.5051  0.9854  1.4491
    1SOL    HW3 4791   4.331   2.316   1.890  1.2493 -0.2919 -1.5831
    1SOL    MW4 4792   4.262   2.266   1.872  0.3710  0.3383 -0.0712
    1SOL     OW 4793   4.025   2.406   1.954 -0.1987 -0.0028 -0.0474
    1SOL    HW2 4794   4.016   2.404   2.050 -0.6580  0.2272 -0.0827
    1SOL    HW3 4795   4.115   2.380   1.938 -0.0580  0.1618  0.4600
    1SOL    MW4 4796   4.035   2.402   1.965 -0.2413  0.0491  0.0149
    1SOL     OW 4797   4.024   2.678   1.893  0.0009  0.0559  0.4695
    1SOL    HW2 4798   4.027   2.584   1.906  0.2923  0.1476  1.0754
    1SOL    HW3 4799   3.935   2.703   1.917 -0.2560 -0.1510 -0.2747
    1SOL    MW4 4800   4.013   2.669   1.898  0.0052  0.0408  0.4512
    1SOL     OW 4801   4.246   2.818   1.995 -0.1644  0.1017 -0.2491
    1SOL    HW2 4802   4.224   2.821   2.088  0.9969 -2.0550  0.1082
    1SOL    HW3 4803   4.168   2.781   1.954 -0.2877  0.1068 -0.0245
    1SOL    MW4 4804   4.233   2.814   2.002 -0.0277 -0.1822 -0.1721
    1SOL     OW 4805   4.265   3.082   1.917 -0.0967  0.0430  0.3769
    1SOL    HW2 4806   4.182   3.108   1.957 -0.9626  0.0274 -1.3626
    1SOL    HW3 4807   4.275   2.990   1.942 -0.4118  0.1524  0.9211
    1SOL    MW4 4808   4.255   3.073   1.926 -0.2527  0.0551  0.2192
    1SOL     OW 4809   4.036   3.188   2.016  0.4056 -0.2807 -0.2249
    1SOL    HW2 4810   4.039   3.171   2.110  2.1039  1.3654  0.0513
    1SOL    HW3 4811   3.952   3.151   1.988  0.2283 -1.4924  1.7804
    1SOL    MW4 4812   4.025   3.181   2.025  0.6061 -0.2234  0.0761
    1SOL     OW 4813   4.068   3.432   1.895 -0.0568  0.2908 -0.6139
    1SOL    HW2 4814   4.158   3.462   1.911  0.2910 -0.4485 -1.1408
    1SOL    HW3 4815   4.067   3.342   1.926 -1.1967  0.9388  1.2760
    1SOL    MW4 4816   4.080   3.424   1.901 -0.1607  0.2787 -0.4340
    1SOL     OW 4817   4.304   3.568   1.972 -1.0182 -0.0613 -0.1253
    1SOL    HW2 4818   4.286   3.654   1.934 -1.2592  0.6065  1.4416
    1SOL    HW3 4819   4.390   3.544   1.938 -0.1206  1.6456  0.8286
    1SOL    MW4 4820   4.313   3.576   1.963 -0.9317  0.2518  0.2072
    1SOL     OW 4821   4.254   3.818   1.881  0.4012 -0.2127  0.3320
    1SOL    HW2 4822   4.337   3.858   1.907  0.5749 -0.0818 -0.3976
    1SOL    HW3 4823   4.257   3.818   1.785 -0.4552 -0.1763  0.3024
    1SOL    MW4 4824   4.265   3.823   1.872  0.3114 -0.1907  0.2317
    1SOL     OW 4825   4.062   3.982   1.997 -0.0247  0.3895  0.1667
    1SOL    HW2 4826   4.136   3.929   1.968  0.1210  0.9821 -0.5333
    1SOL    HW3 4827   3.985   3.931   1.972  0.1282  0.2374  0.0060
    1SOL    MW4 4828   4.061   3.968   1.990  0.0143  0.4475  0.0530
    1SOL     OW 4829   4.018   4.242   1.921 -0.0164 -0.0346 -0.2701
    1SOL    HW2 4830   4.102   4.284   1.942  0.2758 -0.7721  0.0445
    1SOL    HW3 4831   4.033   4.149   1.936 -1.5504  0.0374  1.8684
    1SOL    MW4 4832   4.031   4.236   1.925 -0.1802 -0.1221  0.0535
    1SOL     OW 4833   4.247   4.375   1.970 -0.1297  0.3430  0.0770
    1SOL    HW2 4834   4.257   4.377   2.065  1.3449  1.3951 -0.0773
    1SOL    HW3 4835   4.224   4.465   1.946  1.4432  0.5503 -0.7295
    1SOL    MW4 4836   4.246   4.387   1.979  0.2728  0.5093 -0.0497
    1SOL     OW 4837   0.232   4.578   2.333 -0.4357  0.4267  0.2571
    1SOL    HW2 4838   0.213   4.572   2.426 -1.4263  1.7569  0.1430
    1SOL    HW3 4839   0.316   4.623   2.329 -0.4742  0.5177  0.4881
    1SOL    MW4 4840   0.241   4.583   2.345 -0.5715  0.6146  0.2725
    1SOL     OW 4841   0.025   0.088   2.276  0.0195  0.3832  0.2893
    1SOL    HW2 4842   0.102   0.032   2.285 -0.7874 -0.5984  1.2579
    1SOL    HW3 4843  -0.007   0.071   2.187 -0.3978 -0.9571  0.6789
    1SOL    MW4 4844   0.031   0.079   2.266 -0.1420  0.0769  0.4683
    1SOL     OW 4845   4.488   0.351   2.343 -0.5169 -0.1904 -0.1018
    1SOL    HW2 4846   4.566   0.401   2.322 -1.5179  0.6967 -1.8284
    1SOL    HW3 4847   4.509   0.261   2.320  0.5194 -0.2100  0.9036
    1SOL    MW4 4848   4.501   0.346   2.337 -0.5121 -0.0760 -0.1972
    1SOL     OW 4849   0.218   0.503   2.272 -0.2506  0.2288 -0.2082
    1SOL    HW2 4850   0.292   0.456   2.312 -0.9840  0.7099  1.7527
    1SOL    HW3 4851   0.219   0.475   2.181  1.8856 -0.3696 -0.0287
    1SOL    MW4 4852   0.228   0.493   2.265 -0.0655  0.2133  0.0741
    1SOL     OW 4853   0.211   0.756   2.351  0.0823  0.5240  0.6170
    1SOL    HW2 4854   0.228   0.751   2.445  0.2946  0.8613  0.5957
    1SOL    HW3 4855   0.224   0.666   2.320 -0.9395  0.2192  1.0696
    1SOL    MW4 4856   0.215   0.743   2.359 -0.0245  0.5283  0.6740
    1SOL     OW 4857   4.474   0.904   2.297 -0.0387 -0.3830 -0.4271
    1SOL    HW2 4858   4.551   0.856   2.324  0.6847  0.8968 -0.1930
    1SOL    HW3 4859   4.485   0.915   2.202  0.6099  0.7325 -0.2317
    1SOL    MW4 4860   4.485   0.899   2.288  0.1426 -0.0670 -0.3705
    1SOL     OW 4861   4.440   1.164   2.394  0.0451  0.0321  0.1453
    1SOL    HW2 4862   4.443   1.157   2.490  1.5327  1.2613  0.2088
    1SOL    HW3 4863   4.446   1.074   2.363  1.7678 -0.2291  1.1832
    1SOL    MW4 4864   4.441   1.151   2.403  0.4683  0.1597  0.2904
    1SOL     OW 4865   0.192   1.286   2.318  0.0012 -0.1909  0.1076
    1SOL    HW2 4866   0.112   1.242   2.345  0.4073 -0.9841  0.0431
    1SOL    HW3 4867   0.202   1.263   2.225  0.6708 -0.6830  0.2942
    1SOL    MW4 4868   0.183   1.277   2.309  0.1431 -0.3606  0.1237
    1SOL     OW 4869   0.226   1.554   2.390  0.2526 -0.1179 -0.4537
    1SOL    HW2 4870   0.233   1.540   2.484  1.1184 -0.3608 -0.5515
    1SOL    HW3 4871   0.217   1.466   2.353  3.1842 -0.3011 -0.8582
    1SOL    MW4 4872   0.226   1.541   2.397  0.7536 -0.1742 -0.5198
    1SOL     OW 4873   4.487   1.641   2.255  0.0986 -0.0839  0.2156
    1SOL    HW2 4874   4.467   1.731   2.283  2.4208  0.2900  0.7423
    1SOL    HW3 4875   4.557   1.613   2.313  1.0254 -1.3836 -1.4936
    1SOL    MW4 4876   4.493   1.649   2.266  0.5274 -0.2061  0.0598
    1SOL     OW 4877   4.458   1.891   2.360  0.1222 -0.4894  0.6065
    1SOL    HW2 4878   4.378   1.941   2.346 -0.1698 -0.7630  1.2744
    1SOL    HW3 4879   4.528   1.945   2.323 -0.3695 -0.2510  0.0273
    1SOL    MW4 4880   4.457   1.904   2.354  0.0186 -0.4941  0.6182
    1SOL     OW 4881   0.189   2.059   2.274  0.1885  0.2037 -0.6301
    1SOL    HW2 4882   0.272   2.023   2.303 -0.8655 -2.1652 -0.4012
    1SOL    HW3 4883   0.192   2.055   2.179  0.5215  0.5777 -0.6351
    1SOL    MW4 4884   0.200   2.054   2.266  0.0934 -0.0596 -0.6008
    1SOL     OW 4885   0.202   2.304   2.374  0.2299  0.1186 -0.2789
    1SOL    HW2 4886   0.178   2.297   2.466  0.9639  0.6323 -0.0408
    1SOL    HW3 4887   0.181   2.218   2.336 -0.4493  0.0442  0.2738
    1SOL    MW4 4888   0.196   2.292   2.381  0.2371  0.1767 -0.1743
    1SOL     OW 4889   4.452   2.430   2.279  0.0224 -0.2485 -0.1941
    1SOL    HW2 4890   4.456   2.523   2.298 -0.9876 -0.1139 -0.6044
    1SOL    HW3 4891   4.534   2.394   2.314  0.5314  0.8282 -0.2737
    1SOL    MW4 4892   4.463   2.437   2.286 -0.0439 -0.0887 -0.2584
    1SOL     OW 4893   4.467   2.697   2.348 -0.0443  0.3818  0.0942
    1SOL    HW2 4894   4.466   2.687   2.444  1.4232 -2.0107 -0.0800
    1SOL    HW3 4895   4.547   2.747   2.331 -0.2408  0.7019  0.1214
    1SOL    MW4 4896   4.478   2.702   2.359  0.1230  0.1085  0.0746
    1SOL     OW 4897   0.206   2.842   2.273  0.2997 -0.1588  0.2480
    1SOL    HW2 4898   0.288   2.804   2.303 -0.1860 -0.3835  1.3063
    1SOL    HW3 4899   0.202   2.821   2.179  1.5093 -0.0144  0.1672
    1SOL    MW4 4900   0.216   2.834   2.264  0.3952 -0.1695  0.3772
    1SOL     OW 4901   0.206   3.112   2.334  0.1169  0.0585 -0.0148
    1SOL    HW2 4902   0.121   3.152   2.318  0.5491  0.0949 -2.3385
    1SOL    HW3 4903   0.196   3.021   2.306  0.8070  0.0251 -0.1685
    1SOL    MW4 4904   0.194   3.105   2.328  0.2650  0.0587 -0.3417
    1SOL     OW 4905   4.449   3.221   2.250  0.0577  0.0869  0.0840
    1SOL    HW2 4906   4.451   3.306   2.295  1.1849  0.2079 -0.1733
    1SOL    HW3 4907   4.449   3.244   2.157  1.8513 -0.1841 -0.0105
    1SOL    MW4 4908   4.449   3.235   2.244  0.4425  0.0670  0.0377
    1SOL     OW 4909   4.464   3.455   2.396  0.0358 -0.0554  0.0878
    1SOL    HW2 4910   4.455   3.447   2.491  0.1405 -1.7561 -0.0368
    1SOL    HW3 4911   4.381   3.493   2.367  0.0454  0.5706  0.8602
    1SOL    MW4 4912   4.452   3.459   2.405  0.0505 -0.1972  0.1733
    1SOL     OW 4913   0.216   3.582   2.293 -0.2533  0.1588  0.1025
    1SOL    HW2 4914   0.296   3.539   2.322  0.2580  0.5889 -0.6665
    1SOL    HW3 4915   0.146   3.537   2.341  0.5403  0.6143  1.7215
    1SOL    MW4 4916   0.217   3.570   2.303 -0.0812  0.2759  0.2143
    1SOL     OW 4917   0.201   3.851   2.360 -0.1086 -0.4370  0.3730
    1SOL    HW2 4918   0.122   3.890   2.322 -0.6988 -1.8228  0.1686
    1SOL    HW3 4919   0.197   3.759   2.334  0.9643 -0.7657  1.3739
    1SOL    MW4 4920   0.190   3.844   2.351 -0.0449 -0.6635  0.4783
    1SOL     OW 4921   4.466   3.969   2.272 -0.1804  0.0722 -0.1997
    1SOL    HW2 4922   4.456   4.062   2.292 -0.1542 -0.2252  1.2868
    1SOL    HW3 4923   4.466   3.965   2.177  0.7867  1.6934 -0.2911
    1SOL    MW4 4924   4.465   3.981   2.262 -0.0496  0.2468 -0.0155
    1SOL     OW 4925   4.458   4.229   2.347  0.3189 -0.0956 -0.0977
    1SOL    HW2 4926   4.468   4.231   2.442  1.1422 -0.2739 -0.1767
    1SOL    HW3 4927   4.544   4.254   2.314 -0.5492  2.0741 -0.7838
    1SOL    MW4 4928   4.471   4.232   2.355  0.3133  0.1678 -0.1988
    1SOL     OW 4929   0.211   4.318   2.237  0.2444  0.1430 -0.2833
    1SOL    HW2 4930   0.294   4.290   2.274  0.0089 -0.7142 -0.3898
    1SOL    HW3 4931   0.202   4.410   2.264  0.5962 -0.1512  0.8417
    1SOL    MW4 4932   0.220   4.327   2.246  0.2597 -0.0081 -0.1490
    1SOL     OW 4933   0.676   4.624   2.319 -0.6926 -0.0548 -0.4427
    1SOL    HW2 4934   0.661   4.611   2.413 -0.2534  0.8478 -0.2454
    1SOL    HW3 4935   0.758   4.673   2.314  0.2817 -1.7554 -1.3884
    1SOL    MW4 4936   0.685   4.629   2.331 -0.5061 -0.1601 -0.5414
    1SOL     OW 4937   0.450   0.092   2.266  0.4403 -0.7367  0.1362
    1SOL    HW2 4938   0.536   0.053   2.282  0.5691 -0.5505 -0.0986
    1SOL    HW3 4939   0.431   0.071   2.174 -0.7335 -2.6726  0.7876
    1SOL    MW4 4940   0.459   0.084   2.256  0.3024 -0.9675  0.1912
    1SOL     OW 4941   0.445   0.370   2.352 -0.4704  0.2250 -0.7250
    1SOL    HW2 4942   0.456   0.371   2.447 -0.5765 -0.1807 -0.7037
    1SOL    HW3 4943   0.427   0.278   2.332 -3.4221  0.7815 -0.7972
    1SOL    MW4 4944   0.444   0.358   2.362 -0.8739  0.2449 -0.7317
    1SOL     OW 4945   0.669   0.502   2.234 -0.2984  0.4539  0.2845
    1SOL    HW2 4946   0.666   0.587   2.277  0.8788 -0.3340  1.9810
    1SOL    HW3 4947   0.597   0.453   2.274 -0.2076  0.2457  0.1913
    1SOL    MW4 4948   0.659   0.507   2.245 -0.1311  0.3224  0.4961
    1SOL     OW 4949   0.665   0.753   2.360 -0.3830  0.5494 -0.0264
    1SOL    HW2 4950   0.663   0.738   2.455  2.2485  0.1490  0.0032
    1SOL    HW3 4951   0.594   0.815   2.344 -1.3392  0.0629  2.0968
    1SOL    MW4 4952   0.656   0.759   2.370 -0.1619  0.4324  0.2577
    1SOL     OW 4953   0.442   0.890   2.298 -0.3567  0.6390 -0.2171
    1SOL    HW2 4954   0.367   0.834   2.318 -1.4289  1.7784 -0.9323
    1SOL    HW3 4955   0.456   0.877   2.204  1.1663 -0.5319  0.1501
    1SOL    MW4 4956   0.434   0.880   2.288 -0.2972  0.6348 -0.2630
    1SOL     OW 4957   0.422   1.157   2.405 -0.0812  0.1367  0.0614
    1SOL    HW2 4958   0.429   1.083   2.346 -2.3947 -0.0574 -0.0046
    1SOL    HW3 4959   0.340   1.200   2.381 -0.2114  1.0391  1.9846
    1SOL    MW4 4960   0.412   1.153   2.394 -0.4036  0.2302  0.3066
    1SOL     OW 4961   0.664   1.291   2.282 -0.0759  0.4534  0.4522
    1SOL    HW2 4962   0.663   1.381   2.315 -1.9125  0.5837  0.0927
    1SOL    HW3 4963   0.596   1.247   2.333 -0.8211 -0.1195 -1.0338
    1SOL    MW4 4964   0.655   1.297   2.293 -0.4165  0.3949  0.2086
    1SOL     OW 4965   0.672   1.542   2.394  0.2587 -0.1054 -0.2913
    1SOL    HW2 4966   0.671   1.548   2.489  1.6025  0.3255 -0.2862
    1SOL    HW3 4967   0.752   1.589   2.368  0.1365 -0.5891 -1.5932
    1SOL    MW4 4968   0.683   1.549   2.403  0.4198 -0.1123 -0.4623
    1SOL     OW 4969   0.449   1.663   2.268  0.0709 -0.4791 -0.2727
    1SOL    HW2 4970   0.523   1.618   2.309 -1.1551 -1.7195  0.6499
    1SOL    HW3 4971   0.372   1.618   2.303 -1.1480  1.3160 -0.5820
    1SOL    MW4 4972   0.448   1.651   2.278 -0.2517 -0.4059 -0.1919
    1SOL     OW 4973   0.423   1.932   2.345  0.3893 -0.3296 -0.0115
    1SOL    HW2 4974   0.503   1.977   2.319  0.8885 -1.1898 -0.0039
    1SOL    HW3 4975   0.441   1.839   2.328  0.4455 -0.8606  2.6160
    1SOL    MW4 4976   0.436   1.925   2.340  0.4626 -0.5131  0.3362
    1SOL     OW 4977   0.645   2.040   2.223 -0.1225  0.0791 -0.4776
    1SOL    HW2 4978   0.725   1.999   2.257 -0.1949  0.0970 -0.2865
    1SOL    HW3 4979   0.656   2.133   2.243  0.5444  0.3262 -1.8885
    1SOL    MW4 4980   0.657   2.047   2.230 -0.0440  0.1137 -0.6387
    1SOL     OW 4981   0.630   2.294   2.304  0.2088 -0.3341 -0.2984
    1SOL    HW2 4982   0.620   2.310   2.398  0.2880  1.2201 -0.5355
    1SOL    HW3 4983   0.697   2.357   2.276 -0.5190 -0.0948 -1.5664
    1SOL    MW4 4984   0.638   2.305   2.313  0.1233 -0.0973 -0.4969
    1SOL     OW 4985   0.396   2.445   2.235  0.3821  0.0272 -0.3603
    1SOL    HW2 4986   0.469   2.398   2.276  1.2372  2.2749  0.7870
    1SOL    HW3 4987   0.317   2.404   2.273  1.1159  0.0120  1.2172
    1SOL    MW4 4988   0.395   2.433   2.246  0.5917  0.3216 -0.0010
    1SOL     OW 4989   0.427   2.699   2.345 -0.4988  0.1023  0.6018
    1SOL    HW2 4990   0.420   2.683   2.439 -1.1049 -0.7284  0.4233
    1SOL    HW3 4991   0.405   2.615   2.305  0.5487  0.2255 -0.2591
    1SOL    MW4 4992   0.424   2.686   2.352 -0.4405  0.0093  0.4649
    1SOL     OW 4993   0.642   2.858   2.264 -0.4073 -0.0255 -0.5201
    1SOL    HW2 4994   0.718   2.808   2.291 -1.0388  0.4550  2.2367
    1SOL    HW3 4995   0.567   2.805   2.291 -1.0826  0.1062 -2.0575
    1SOL    MW4 4996   0.642   2.845   2.271 -0.5797  0.0553 -0.3593
    1SOL     OW 4997   0.666   3.114   2.373  0.1750  0.0389 -0.0214
    1SOL    HW2 4998   0.591   3.158   2.332  1.7430  1.2581 -1.6631
    1SOL    HW3 4999   0.658   3.023   2.346 -0.3802  0.2848 -0.7122
    1SOL    MW4 5000   0.655   3.108   2.364  0.3086  0.2325 -0.3293
    1SOL     OW 5001   0.448   3.241   2.237 -0.0622 -0.2909 -0.0439
    1SOL    HW2 5002   0.361   3.216   2.268  0.4337 -0.7075  1.0250
    1SOL    HW3 5003   0.452   3.208   2.147 -0.5185 -1.4594  0.3572
    1SOL    MW4 5004   0.437   3.233   2.229 -0.0570 -0.5002  0.1500
    1SOL     OW 5005   0.429   3.473   2.398  0.0548 -0.1717 -0.2228
    1SOL    HW2 5006   0.508   3.520   2.370  0.3274 -0.6368 -0.2440
    1SOL    HW3 5007   0.438   3.386   2.358 -0.4819 -0.2186 -0.2457
    1SOL    MW4 5008   0.441   3.468   2.389  0.0200 -0.2391 -0.2286
    1SOL     OW 5009   0.645   3.616   2.301  0.3016 -0.1144 -0.4292
    1SOL    HW2 5010   0.675   3.701   2.334 -1.0621 -0.3402  1.4563
    1SOL    HW3 5011   0.647   3.626   2.206 -0.9646  2.4663 -0.2375
    1SOL    MW4 5012   0.649   3.629   2.293 -0.0454  0.1965 -0.1552
    1SOL     OW 5013   0.678   3.872   2.381  0.0418  0.1232 -0.1936
    1SOL    HW2 5014   0.672   3.876   2.477  0.1496 -0.3526 -0.1685
    1SOL    HW3 5015   0.588   3.887   2.351 -0.1741 -0.7238  0.0122
    1SOL    MW4 5016   0.665   3.875   2.390  0.0275 -0.0513 -0.1628
    1SOL     OW 5017   0.433   3.968   2.285 -0.8774  0.1103  0.1876
    1SOL    HW2 5018   0.359   3.907   2.289  0.2039 -1.2793 -0.1994
    1SOL    HW3 5019   0.439   3.991   2.192 -1.2470  0.7487  0.3257
    1SOL    MW4 5020   0.424   3.963   2.273 -0.7835  0.0112  0.1547
    1SOL     OW 5021   0.447   4.245   2.357  0.2443 -0.1365  0.3077
    1SOL    HW2 5022   0.534   4.280   2.336 -0.0634 -0.9298 -2.4718
    1SOL    HW3 5023   0.452   4.153   2.335 -0.9237 -0.4805  1.4275
    1SOL    MW4 5024   0.459   4.238   2.351  0.0496 -0.2866  0.0887
    1SOL     OW 5025   0.661   4.369   2.223  0.0803 -0.6052  0.4796
    1SOL    HW2 5026   0.672   4.462   2.242 -2.1772 -0.2575  0.1484
    1SOL    HW3 5027   0.659   4.363   2.127  1.6922 -1.1900  0.4627
    1SOL    MW4 5028   0.662   4.380   2.213 -0.0049 -0.6366  0.4334
    1SOL     OW 5029   1.111   4.634   2.352 -0.4023 -0.3421  0.4741
    1SOL    HW2 5030   1.108   4.602   2.443 -0.7215  0.8700  0.9049
    1SOL    HW3 5031   1.028   4.680   2.341 -0.1597 -0.0943 -0.2889
    1SOL    MW4 5032   1.099   4.636   2.363 -0.4126 -0.1493  0.4303
    1SOL     OW 5033   0.895   0.108   2.279 -0.0822 -0.3438 -0.1992
    1SOL    HW2 5034   0.885   0.197   2.313  1.3926 -0.7451  1.3539
    1SOL    HW3 5035   0.898   0.119   2.184  0.5688  1.3146 -0.0002
    1SOL    MW4 5036   0.894   0.121   2.271  0.1983 -0.1779  0.0319
    1SOL     OW 5037   0.863   0.390   2.399  0.2704 -0.1901  0.2584
    1SOL    HW2 5038   0.943   0.426   2.360  0.0637 -0.0486 -0.0428
    1SOL    HW3 5039   0.792   0.433   2.350  0.0108  0.0073  0.8097
    1SOL    MW4 5040   0.864   0.401   2.387  0.2089 -0.1454  0.2911
    1SOL     OW 5041   1.083   0.506   2.267  0.2989 -0.2415  0.0194
    1SOL    HW2 5042   1.167   0.480   2.304  1.0782  1.3121 -0.6262
    1SOL    HW3 5043   1.094   0.496   2.173  0.1198  0.9534 -0.1395
    1SOL    MW4 5044   1.095   0.502   2.260  0.3779  0.1212 -0.0868
    1SOL     OW 5045   1.116   0.746   2.385  0.4111 -0.3322 -0.1366
    1SOL    HW2 5046   1.046   0.791   2.337  0.0134 -0.2852  0.4829
    1SOL    HW3 5047   1.110   0.655   2.356 -0.8086 -0.6117  0.9447
    1SOL    MW4 5048   1.106   0.740   2.375  0.1978 -0.3629  0.0877
    1SOL     OW 5049   0.901   0.874   2.280 -0.1705 -0.0693  0.1258
    1SOL    HW2 5050   0.891   0.960   2.322  0.8646  0.1119  0.0037
    1SOL    HW3 5051   0.828   0.823   2.314 -0.9924  0.9546 -0.0430
    1SOL    MW4 5052   0.890   0.879   2.290 -0.1423  0.0897  0.0873
    1SOL     OW 5053   0.862   1.121   2.396  0.5407 -0.2754 -0.2396
    1SOL    HW2 5054   0.938   1.174   2.373 -0.0134 -0.6213 -3.0054
    1SOL    HW3 5055   0.787   1.170   2.363 -0.1223 -1.7870 -1.0521
    1SOL    MW4 5056   0.862   1.134   2.389  0.3802 -0.5205 -0.7112
    1SOL     OW 5057   1.085   1.250   2.301  0.3058  0.2662 -0.2724
    1SOL    HW2 5058   1.171   1.222   2.333  0.6484 -0.7763 -2.0390
    1SOL    HW3 5059   1.101   1.280   2.211 -1.0240  0.9212 -0.3120
    1SOL    MW4 5060   1.098   1.250   2.293  0.1756  0.2151 -0.5109
    1SOL     OW 5061   1.139   1.513   2.360  0.1509  0.1342 -0.1150
    1SOL    HW2 5062   1.057   1.558   2.340 -0.1243  0.4560  1.5868
    1SOL    HW3 5063   1.122   1.421   2.343 -0.4317  0.2527 -0.1581
    1SOL    MW4 5064   1.126   1.507   2.355  0.0378  0.1923  0.1040
    1SOL     OW 5065   0.903   1.646   2.300 -0.3643 -0.3517  0.1054
    1SOL    HW2 5066   0.899   1.738   2.326 -0.8650 -0.5388  0.7136
    1SOL    HW3 5067   0.906   1.648   2.204 -0.0589  0.3044  0.1254
    1SOL    MW4 5068   0.903   1.658   2.291 -0.3901 -0.2897  0.1884
    1SOL     OW 5069   0.853   1.923   2.360  0.1653 -0.0591 -0.7169
    1SOL    HW2 5070   0.829   1.930   2.453  2.1335 -1.2882 -0.0787
    1SOL    HW3 5071   0.931   1.978   2.352  0.2918 -0.3580 -1.5277
    1SOL    MW4 5072   0.860   1.931   2.371  0.4417 -0.2607 -0.7396
    1SOL     OW 5073   1.089   2.052   2.289  0.1121  0.8772  0.5279
    1SOL    HW2 5074   1.172   2.007   2.303 -0.5976 -0.1335  1.5671
    1SOL    HW3 5075   1.080   2.056   2.194  0.1450 -1.2638  0.4171
    1SOL    MW4 5076   1.099   2.047   2.279  0.0228  0.4613  0.6504
    1SOL     OW 5077   1.084   2.306   2.343 -0.1478 -0.0646  0.3973
    1SOL    HW2 5078   1.160   2.355   2.311  0.2195 -0.9847 -0.1654
    1SOL    HW3 5079   1.106   2.214   2.326 -2.2036 -0.2421 -1.6044
    1SOL    MW4 5080   1.097   2.300   2.337 -0.3705 -0.2091  0.0589
    1SOL     OW 5081   0.857   2.456   2.284  0.2371  0.3853 -0.3906
    1SOL    HW2 5082   0.932   2.401   2.307 -1.8275 -2.1937  0.4563
    1SOL    HW3 5083   0.874   2.483   2.194  2.0840 -0.3069 -0.2843
    1SOL    MW4 5084   0.869   2.452   2.275  0.2084 -0.0463 -0.2644
    1SOL     OW 5085   0.864   2.722   2.340  0.1606  0.7469 -0.3945
    1SOL    HW2 5086   0.868   2.739   2.434 -0.4381  0.0326 -0.2260
    1SOL    HW3 5087   0.847   2.628   2.333  0.0530  0.8151 -1.2118
    1SOL    MW4 5088   0.862   2.712   2.351  0.0674  0.6616 -0.4802
    1SOL     OW 5089   1.089   2.843   2.209 -0.1165 -0.5436  0.0270
    1SOL    HW2 5090   1.147   2.790   2.264  0.2262 -0.4806 -0.2726
    1SOL    HW3 5091   1.001   2.815   2.234  0.0844 -1.9516 -0.8216
    1SOL    MW4 5092   1.085   2.832   2.220 -0.0448 -0.7210 -0.1247
    1SOL     OW 5093   1.103   3.079   2.364 -0.3542 -0.1172  0.0363
    1SOL    HW2 5094   1.031   3.135   2.335 -0.5056  0.0342  0.6898
    1SOL    HW3 5095   1.098   3.003   2.307  0.4825  0.9798 -1.5352
    1SOL    MW4 5096   1.093   3.077   2.353 -0.2638  0.0474 -0.0851
    1SOL     OW 5097   0.875   3.217   2.263  0.1436 -0.7834 -0.3709
    1SOL    HW2 5098   0.873   3.304   2.303  0.6154 -0.4275 -1.1251
    1SOL    HW3 5099   0.797   3.174   2.298  0.3881 -0.3727  0.7069
    1SOL    MW4 5100   0.864   3.223   2.273  0.2381 -0.6824 -0.3281
    1SOL     OW 5101   0.883   3.462   2.342  0.0528  0.3158 -0.2143
    1SOL    HW2 5102   0.890   3.460   2.438  1.5821  1.6812 -0.2741
    1SOL    HW3 5103   0.797   3.501   2.325 -0.0208  0.5297  0.5994
    1SOL    MW4 5104   0.873   3.466   2.352  0.2449  0.5243 -0.1147
    1SOL     OW 5105   1.118   3.596   2.269 -0.1276  0.0643 -0.0868
    1SOL    HW2 5106   1.187   3.543   2.309 -0.4834  1.2240  2.1566
    1SOL    HW3 5107   1.037   3.551   2.292 -0.3293  0.7033  0.4782
    1SOL    MW4 5108   1.116   3.583   2.277 -0.2012  0.3016  0.2837
    1SOL     OW 5109   1.144   3.868   2.369  0.2785 -0.1069  0.2972
    1SOL    HW2 5110   1.220   3.914   2.333 -0.6746  0.1401 -1.4860
    1SOL    HW3 5111   1.146   3.782   2.328 -1.2846  0.4647 -1.0650
    1SOL    MW4 5112   1.154   3.863   2.359 -0.0536  0.0012 -0.1178
    1SOL     OW 5113   0.910   4.008   2.305  0.4546 -0.3394  0.1236
    1SOL    HW2 5114   0.985   3.951   2.325  0.8134 -0.7092 -2.2272
    1SOL    HW3 5115   0.834   3.956   2.332  0.7757 -1.9623 -1.9696
    1SOL    MW4 5116   0.910   3.993   2.311  0.5442 -0.6022 -0.4625
    1SOL     OW 5117   0.868   4.250   2.393  0.1676 -0.4818 -0.1919
    1SOL    HW2 5118   0.859   4.159   2.363 -0.5198 -1.5946  3.1584
    1SOL    HW3 5119   0.801   4.298   2.344 -0.1708 -1.9722 -1.2286
    1SOL    MW4 5120   0.858   4.244   2.383  0.0323 -0.8249  0.1132
    1SOL     OW 5121   1.093   4.366   2.255  0.1523 -0.1060 -0.4750
    1SOL    HW2 5122   1.016   4.323   2.291  0.1358 -0.3019 -0.7406
    1SOL    HW3 5123   1.085   4.458   2.282 -0.7356  0.1069 -1.4320
    1SOL    MW4 5124   1.082   4.372   2.263  0.0330 -0.1035 -0.6363
    1SOL     OW 5125   1.570   4.647   2.402  0.3867  0.0132  0.2419
    1SOL    HW2 5126   1.645   4.698   2.371  0.9078 -0.3262  0.9210
    1SOL    HW3 5127   1.494   4.691   2.364  0.8824  0.7916  0.1253
    1SOL    MW4 5128   1.570   4.660   2.393  0.5209  0.0710  0.3161
    1SOL     OW 5129   1.356   0.099   2.287  0.5059 -0.5268  0.0128
    1SOL    HW2 5130   1.342   0.188   2.319  0.6507 -0.4572 -0.1188
    1SOL    HW3 5131   1.278   0.051   2.315  0.8382 -0.5781  0.8712
    1SOL    MW4 5132   1.344   0.104   2.295  0.5689 -0.5244  0.1087
    1SOL     OW 5133   1.309   0.360   2.353 -0.4117 -0.0639 -0.7779
    1SOL    HW2 5134   1.312   0.362   2.449 -1.5290 -2.4109 -0.6434
    1SOL    HW3 5135   1.397   0.383   2.325  0.2770 -0.6232  0.8729
    1SOL    MW4 5136   1.321   0.363   2.362 -0.4684 -0.4473 -0.5426
    1SOL     OW 5137   1.553   0.488   2.292  0.3298 -0.0795  0.0992
    1SOL    HW2 5138   1.631   0.444   2.326  1.7644  1.1997 -1.4177
    1SOL    HW3 5139   1.555   0.471   2.198 -1.0426  0.2555 -0.0007
    1SOL    MW4 5140   1.564   0.480   2.284  0.3380  0.1335 -0.1140
    1SOL     OW 5141   1.554   0.771   2.421  0.0676  0.1358  0.1745
    1SOL    HW2 5142   1.642   0.800   2.398  0.2527 -0.0746  0.6348
    1SOL    HW3 5143   1.550   0.680   2.394  0.0506  0.0906  0.3319
    1SOL    MW4 5144   1.565   0.763   2.414  0.0896  0.1021  0.2563
    1SOL     OW 5145   1.359   0.901   2.291 -0.1989 -0.2755 -0.1303
    1SOL    HW2 5146   1.435   0.861   2.333 -1.0758  1.5920  3.4450
    1SOL    HW3 5147   1.288   0.839   2.305 -0.4580  0.2818  1.1352
    1SOL    MW4 5148   1.359   0.888   2.299 -0.3488  0.0444  0.5083
    1SOL     OW 5149   1.358   1.160   2.384 -0.0528  0.0303 -0.6243
    1SOL    HW2 5150   1.346   1.151   2.478  0.2384  1.2903 -0.4579
    1SOL    HW3 5151   1.353   1.071   2.350  0.2331 -0.4641  0.6247
    1SOL    MW4 5152   1.355   1.147   2.392  0.0234  0.1314 -0.4377
    1SOL     OW 5153   1.586   1.255   2.275  0.4468  0.3367 -0.2765
    1SOL    HW2 5154   1.496   1.230   2.298  0.5947  0.7932  0.8325
    1SOL    HW3 5155   1.582   1.273   2.181 -0.3408 -0.8404 -0.4857
    1SOL    MW4 5156   1.573   1.254   2.266  0.3624  0.2416 -0.1578
    1SOL     OW 5157   1.584   1.508   2.419  0.6336 -0.1978  0.2571
    1SOL    HW2 5158   1.641   1.563   2.365 -1.4922  1.4215 -0.3962
    1SOL    HW3 5159   1.584   1.423   2.375  0.3986  0.5701 -1.2699
    1SOL    MW4 5160   1.591   1.504   2.406  0.3221  0.1172 -0.0305
    1SOL     OW 5161   1.385   1.633   2.277 -0.1229 -0.1372  0.0474
    1SOL    HW2 5162   1.462   1.594   2.319  1.3501  1.1712 -1.3721
    1SOL    HW3 5163   1.312   1.578   2.305  1.5784 -2.5588 -0.1085
    1SOL    MW4 5164   1.385   1.620   2.287  0.2959 -0.2841 -0.1607
    1SOL     OW 5165   1.318   1.913   2.378 -0.8221  0.3508 -0.6290
    1SOL    HW2 5166   1.385   1.966   2.336  0.6258  0.5468  1.7781
    1SOL    HW3 5167   1.351   1.823   2.372 -0.0465  0.4994  0.9766
    1SOL    MW4 5168   1.331   1.908   2.372 -0.5287  0.3961 -0.0999
    1SOL     OW 5169   1.538   2.055   2.278  0.2179 -0.1043  0.1856
    1SOL    HW2 5170   1.619   2.014   2.309 -0.2648 -1.9259 -0.9113
    1SOL    HW3 5171   1.538   2.042   2.183 -1.1635  0.2318  0.1223
    1SOL    MW4 5172   1.549   2.048   2.270 -0.0280 -0.3004  0.0324
    1SOL     OW 5173   1.518   2.324   2.389 -0.1553  0.3914 -0.0431
    1SOL    HW2 5174   1.513   2.330   2.484 -0.6405  0.9920 -0.0992
    1SOL    HW3 5175   1.499   2.233   2.369 -1.0678  0.4853  0.3814
    1SOL    MW4 5176   1.515   2.313   2.399 -0.3396  0.4833  0.0055
    1SOL     OW 5177   1.306   2.433   2.250 -0.1992  0.3260  0.3061
    1SOL    HW2 5178   1.378   2.399   2.304  0.4227  0.0705 -0.6653
    1SOL    HW3 5179   1.339   2.427   2.160 -2.5464 -2.6043 -0.4497
    1SOL    MW4 5180   1.320   2.428   2.245 -0.4269 -0.0942  0.0780
    1SOL     OW 5181   1.299   2.703   2.326  0.1706 -0.0419 -0.1372
    1SOL    HW2 5182   1.380   2.726   2.281 -0.3664 -0.4184 -1.3038
    1SOL    HW3 5183   1.284   2.612   2.303  0.3934 -0.5355  1.5888
    1SOL    MW4 5184   1.308   2.694   2.317  0.1291 -0.1566 -0.0634
    1SOL     OW 5185   1.532   2.839   2.242  0.1909  0.4661 -0.3645
    1SOL    HW2 5186   1.542   2.928   2.275  0.1322  0.3732 -0.0941
    1SOL    HW3 5187   1.538   2.848   2.147  1.3675  0.5988 -0.2895
    1SOL    MW4 5188   1.534   2.852   2.234  0.3384  0.4711 -0.3190
    1SOL     OW 5189   1.561   3.107   2.310 -0.1909 -0.1686  0.0967
    1SOL    HW2 5190   1.569   3.098   2.405 -1.3762  0.9603  0.3155
    1SOL    HW3 5191   1.474   3.145   2.297 -0.2298 -0.7521 -1.4675
    1SOL    MW4 5192   1.550   3.111   2.321 -0.3525 -0.0966 -0.0808
    1SOL     OW 5193   1.323   3.237   2.273  0.3639  0.6401 -0.2159
    1SOL    HW2 5194   1.260   3.171   2.302  1.2628 -0.2231 -0.2091
    1SOL    HW3 5195   1.294   3.261   2.184  0.8086 -0.7490 -0.7440
    1SOL    MW4 5196   1.310   3.232   2.265  0.5413  0.3433 -0.2849
    1SOL     OW 5197   1.354   3.485   2.389 -0.0229 -0.2341  0.3691
    1SOL    HW2 5198   1.350   3.486   2.484  0.8272 -0.9443  0.4179
    1SOL    HW3 5199   1.373   3.394   2.366 -0.2537 -0.0796 -0.4830
    1SOL    MW4 5200   1.356   3.473   2.398  0.0588 -0.3073  0.2632
    1SOL     OW 5201   1.531   3.648   2.250 -0.4405 -0.1897 -0.1909
    1SOL    HW2 5202   1.550   3.730   2.296 -0.1029 -0.3947  0.0428
    1SOL    HW3 5203   1.454   3.612   2.295 -0.6664  0.0640 -0.3787
    1SOL    MW4 5204   1.524   3.654   2.262 -0.4259 -0.1833 -0.1850
    1SOL     OW 5205   1.563   3.882   2.390 -0.3549 -0.0879 -0.3164
    1SOL    HW2 5206   1.576   3.882   2.484 -0.3714  1.5957 -0.2893
    1SOL    HW3 5207   1.645   3.917   2.354  0.3044 -2.3021 -1.0539
    1SOL    MW4 5208   1.575   3.887   2.397 -0.2700 -0.1578 -0.4101
    1SOL     OW 5209   1.357   4.001   2.268  0.2200  0.2426 -0.5132
    1SOL    HW2 5210   1.429   3.953   2.309 -0.6323  0.2073  0.9740
    1SOL    HW3 5211   1.383   4.010   2.177  2.9107  1.7483  0.3546
    1SOL    MW4 5212   1.370   3.996   2.262  0.4624  0.4365 -0.2027
    1SOL     OW 5213   1.329   4.275   2.355  0.0913 -0.5373 -0.3287
    1SOL    HW2 5214   1.322   4.188   2.315 -0.1376 -0.0966 -1.2564
    1SOL    HW3 5215   1.265   4.328   2.308 -0.2724 -0.0483  0.7226
    1SOL    MW4 5216   1.320   4.270   2.343  0.0130 -0.4148 -0.3123
    1SOL     OW 5217   1.556   4.397   2.279  0.4127  0.1805  0.1273
    1SOL    HW2 5218   1.479   4.355   2.316  0.9982 -0.4603  0.6324
    1SOL    HW3 5219   1.563   4.481   2.325  0.3930 -0.0486  0.5514
    1SOL    MW4 5220   1.547   4.403   2.290  0.4873  0.0653  0.2499
    1SOL     OW 5221   1.999   4.659   2.377 -0.1291  0.2029 -0.4036
    1SOL    HW2 5222   2.083   4.702   2.368 -0.0486  0.1241 -0.0543
    1SOL    HW3 5223   2.009   4.576   2.331 -0.6370  1.0191 -2.0362
    1SOL    MW4 5224   2.011   4.654   2.370 -0.1855  0.3009 -0.5727
    1SOL     OW 5225   1.772   0.100   2.264  0.5610 -0.0985 -0.2072
    1SOL    HW2 5226   1.770   0.190   2.295 -1.7583  0.1195 -0.8447
    1SOL    HW3 5227   1.852   0.063   2.300  1.2692  2.0624  0.4912
    1SOL    MW4 5228   1.782   0.107   2.273  0.3484  0.2154 -0.1993
    1SOL     OW 5229   1.781   0.357   2.364  0.3120  0.3395 -0.2156
    1SOL    HW2 5230   1.783   0.369   2.459 -0.0033 -1.2800  0.0166
    1SOL    HW3 5231   1.853   0.411   2.332  0.5452  0.7575  0.9607
    1SOL    MW4 5232   1.790   0.366   2.372  0.3010  0.1810 -0.0296
    1SOL     OW 5233   2.008   0.498   2.308  0.3261 -0.1599  0.1473
    1SOL    HW2 5234   1.989   0.582   2.350  0.9166  0.4435 -0.7910
    1SOL    HW3 5235   2.007   0.517   2.215  1.3779 -0.9992 -0.0410
    1SOL    MW4 5236   2.005   0.512   2.302  0.5431 -0.1910 -0.0012
    1SOL     OW 5237   2.032   0.764   2.397  0.0929  0.3180  0.7976
    1SOL    HW2 5238   2.106   0.807   2.354  0.2143 -0.2808  0.3921
    1SOL    HW3 5239   1.955   0.808   2.362  0.2079  0.0885  0.2412
    1SOL    MW4 5240   2.032   0.776   2.387  0.1240  0.2087  0.6709
    1SOL     OW 5241   1.787   0.899   2.331 -0.2204  0.0350 -0.4255
    1SOL    HW2 5242   1.802   0.991   2.354 -0.8840 -0.1000  0.6085
    1SOL    HW3 5243   1.782   0.899   2.235  2.3328  0.6654 -0.5951
    1SOL    MW4 5244   1.788   0.911   2.321  0.0288  0.1003 -0.3114
    1SOL     OW 5245   1.818   1.178   2.392 -0.2114  0.3683 -0.2224
    1SOL    HW2 5246   1.887   1.230   2.350  0.0427 -1.3245 -2.0037
    1SOL    HW3 5247   1.736   1.211   2.355 -0.2824  1.5279  0.9433
    1SOL    MW4 5248   1.816   1.189   2.381 -0.1873  0.2979 -0.3035
    1SOL     OW 5249   2.026   1.301   2.285  0.1459 -0.4170  0.1585
    1SOL    HW2 5250   2.015   1.394   2.302 -0.9876 -0.4605 -0.2490
    1SOL    HW3 5251   2.029   1.294   2.190 -1.1216 -0.9168  0.1397
    1SOL    MW4 5252   2.025   1.312   2.275 -0.1707 -0.4886  0.1020
    1SOL     OW 5253   2.015   1.577   2.356 -0.0375  0.2846  0.7792
    1SOL    HW2 5254   2.015   1.572   2.451 -0.4761 -0.9318  0.7329
    1SOL    HW3 5255   1.925   1.598   2.332  0.1303  0.8606  0.6391
    1SOL    MW4 5256   2.003   1.579   2.365 -0.0732  0.2000  0.7546
    1SOL     OW 5257   1.761   1.644   2.268 -0.9412 -0.1640 -0.1136
    1SOL    HW2 5258   1.766   1.736   2.296 -3.5789  0.0372 -0.2067
    1SOL    HW3 5259   1.778   1.648   2.174 -0.3520  0.1491  0.0026
    1SOL    MW4 5260   1.764   1.657   2.259 -1.2114 -0.0961 -0.1104
    1SOL     OW 5261   1.788   1.907   2.366  0.2448  0.2989 -0.0355
    1SOL    HW2 5262   1.798   1.915   2.461  1.6137 -0.1134 -0.1468
    1SOL    HW3 5263   1.861   1.956   2.330 -1.5861  2.4793 -0.9334
    1SOL    MW4 5264   1.799   1.915   2.374  0.1838  0.5320 -0.1688
    1SOL     OW 5265   1.990   2.058   2.268  0.3140 -0.0289  0.1542
    1SOL    HW2 5266   2.083   2.050   2.289  0.2812  2.1066  1.3453
    1SOL    HW3 5267   1.987   2.059   2.172  1.4489 -0.6980  0.1015
    1SOL    MW4 5268   2.002   2.057   2.258  0.4594  0.1645  0.3045
    1SOL     OW 5269   1.968   2.308   2.384  0.0936 -0.1276  0.1425
    1SOL    HW2 5270   2.050   2.348   2.354 -0.4401  0.6513 -0.3131
    1SOL    HW3 5271   1.970   2.220   2.347  0.2277  0.2564 -0.7816
    1SOL    MW4 5272   1.979   2.302   2.375  0.0408  0.0262 -0.0396
    1SOL     OW 5273   1.733   2.431   2.257  0.2234 -0.0105  0.1452
    1SOL    HW2 5274   1.815   2.397   2.292  0.3220 -0.9489 -0.9482
    1SOL    HW3 5275   1.665   2.389   2.309  0.4062 -0.3498  0.1107
    1SOL    MW4 5276   1.735   2.421   2.268  0.2606 -0.1791 -0.0036
    1SOL     OW 5277   1.723   2.700   2.365  0.1130  0.1535 -0.6407
    1SOL    HW2 5278   1.711   2.610   2.335 -1.2962  0.5555 -1.3132
    1SOL    HW3 5279   1.669   2.753   2.306 -0.9146  1.1946  1.1829
    1SOL    MW4 5280   1.715   2.695   2.354 -0.2085  0.3440 -0.4890
    1SOL     OW 5281   1.951   2.814   2.285 -0.0462 -0.1147 -0.2557
    1SOL    HW2 5282   2.023   2.758   2.316  0.2161 -0.1429 -0.8992
    1SOL    HW3 5283   1.872   2.770   2.315  0.1825 -0.4996 -0.2039
    1SOL    MW4 5284   1.950   2.801   2.293  0.0185 -0.1690 -0.3338
    1SOL     OW 5285   1.985   3.095   2.359  0.0898  0.1636  0.1018
    1SOL    HW2 5286   2.062   3.130   2.314 -0.7044  0.3095 -1.1726
    1SOL    HW3 5287   1.981   3.003   2.332  0.0773  0.0314  0.5437
    1SOL    MW4 5288   1.995   3.087   2.350 -0.0166  0.1650 -0.0083
    1SOL     OW 5289   1.784   3.257   2.237  0.0055 -0.3265 -0.4727
    1SOL    HW2 5290   1.860   3.222   2.283 -0.7653 -0.7179  0.5080
    1SOL    HW3 5291   1.713   3.198   2.258 -0.5580 -0.0170 -1.4737
    1SOL    MW4 5292   1.785   3.245   2.246 -0.1707 -0.3374 -0.4754
    1SOL     OW 5293   1.746   3.502   2.344 -0.0724  0.0388 -0.0030
    1SOL    HW2 5294   1.751   3.412   2.313 -1.1983 -0.7539  2.0418
    1SOL    HW3 5295   1.666   3.537   2.305  0.5001  0.2534 -1.0053
    1SOL    MW4 5296   1.736   3.495   2.335 -0.1453 -0.0377  0.1347
    1SOL     OW 5297   1.999   3.633   2.289  0.2819 -0.2155  0.1898
    1SOL    HW2 5298   1.918   3.585   2.304 -0.0367  0.2614 -0.0024
    1SOL    HW3 5299   2.014   3.625   2.195  0.0742  0.3030  0.1101
    1SOL    MW4 5300   1.990   3.626   2.278  0.2127 -0.0839  0.1538
    1SOL     OW 5301   2.043   3.895   2.336  0.3254  0.0396  0.2361
    1SOL    HW2 5302   2.051   3.902   2.431  1.1787 -0.4911  0.2102
    1SOL    HW3 5303   2.022   3.804   2.320 -2.1343  0.6203  0.0490
    1SOL    MW4 5304   2.042   3.884   2.346  0.1137  0.0460  0.2079
    1SOL     OW 5305   1.776   4.015   2.253 -0.0210  0.3324 -0.5561
    1SOL    HW2 5306   1.855   3.962   2.256 -1.1218 -1.3544 -0.4163
    1SOL    HW3 5307   1.749   4.013   2.162 -1.5727 -1.6902 -0.0911
    1SOL    MW4 5308   1.783   4.008   2.242 -0.3709 -0.1569 -0.4764
    1SOL     OW 5309   1.788   4.263   2.406 -0.3982 -0.2645 -0.2493
    1SOL    HW2 5310   1.789   4.177   2.363 -0.6268 -0.3264 -0.1314
    1SOL    HW3 5311   1.705   4.303   2.378 -0.2919 -0.0823 -0.3054
    1SOL    MW4 5312   1.777   4.257   2.397 -0.4145 -0.2494 -0.2413
    1SOL     OW 5313   1.990   4.402   2.275 -0.3296  0.5253  0.3205
    1SOL    HW2 5314   1.922   4.348   2.316  0.1093  0.4122  0.9200
    1SOL    HW3 5315   1.988   4.378   2.183 -0.4567 -0.1813  0.5035
    1SOL    MW4 5316   1.981   4.392   2.268 -0.2884  0.4172  0.4239
    1SOL     OW 5317   2.485   0.021   2.352 -0.3225 -0.5649 -0.7070
    1SOL    HW2 5318   2.557   0.054   2.299 -0.3659  0.5563 -0.0743
    1SOL    HW3 5319   2.486  -0.074   2.337  2.2688 -0.7709  0.4557
    1SOL    MW4 5320   2.495   0.013   2.343  0.0138 -0.4439 -0.4704
    1SOL     OW 5321   2.240   0.093   2.296 -0.0798 -0.2825 -0.0296
    1SOL    HW2 5322   2.243   0.184   2.326 -2.7492 -0.1127 -0.1884
    1SOL    HW3 5323   2.327   0.059   2.316  0.6403  2.0177  0.9435
    1SOL    MW4 5324   2.252   0.100   2.303 -0.3371  0.0434  0.0780
    1SOL     OW 5325   2.247   0.357   2.369 -0.3306 -0.1648 -0.4461
    1SOL    HW2 5326   2.305   0.405   2.310  1.4922  0.8157  2.0450
    1SOL    HW3 5327   2.160   0.394   2.352  0.3954  1.1225 -1.4987
    1SOL    MW4 5328   2.243   0.368   2.359  0.0057  0.1344 -0.2565
    1SOL     OW 5329   2.442   0.527   2.239 -0.0725 -0.2429  0.0824
    1SOL    HW2 5330   2.521   0.477   2.257  0.3874  0.8983  1.3945
    1SOL    HW3 5331   2.439   0.535   2.144  1.3806 -0.2963  0.0218
    1SOL    MW4 5332   2.452   0.521   2.229  0.1795 -0.0994  0.2472
    1SOL     OW 5333   2.461   0.766   2.402  0.2665 -0.7743 -0.4100
    1SOL    HW2 5334   2.547   0.795   2.371  0.9828 -1.6435  0.7135
    1SOL    HW3 5335   2.453   0.677   2.369  0.5681 -1.3173  0.9363
    1SOL    MW4 5336   2.472   0.758   2.393  0.4010 -0.9606 -0.0842
    1SOL     OW 5337   2.235   0.888   2.296 -0.3379  0.2069 -0.6164
    1SOL    HW2 5338   2.252   0.979   2.322  1.9272  0.0371 -1.3739
    1SOL    HW3 5339   2.312   0.840   2.327 -2.1103 -1.7128  0.9462
    1SOL    MW4 5340   2.247   0.894   2.304 -0.2730 -0.0687 -0.5100
    1SOL     OW 5341   2.234   1.158   2.395 -0.1633  0.3293 -0.4339
    1SOL    HW2 5342   2.305   1.212   2.360  0.4747  0.6158  1.2496
    1SOL    HW3 5343   2.154   1.198   2.360  0.2814  2.6546  1.1198
    1SOL    MW4 5344   2.233   1.171   2.386 -0.0203  0.6738 -0.0069
    1SOL     OW 5345   2.449   1.294   2.294 -0.7029  0.1343 -0.5788
    1SOL    HW2 5346   2.526   1.246   2.324 -0.6901  0.5397  0.0648
    1SOL    HW3 5347   2.447   1.372   2.349 -1.2594  0.3980 -0.9673
    1SOL    MW4 5348   2.459   1.298   2.305 -0.7746  0.2226 -0.5453
    1SOL     OW 5349   2.451   1.546   2.407 -0.2815 -0.5650  0.1480
    1SOL    HW2 5350   2.473   1.532   2.499 -0.3936 -3.0005 -0.1665
    1SOL    HW3 5351   2.528   1.589   2.370  0.6529 -1.5436  0.9075
    1SOL    MW4 5352   2.464   1.550   2.415 -0.1731 -1.0154  0.2067
    1SOL     OW 5353   2.245   1.664   2.233 -0.8697  0.1551 -0.2361
    1SOL    HW2 5354   2.308   1.621   2.292  0.4452 -0.4434 -2.0253
    1SOL    HW3 5355   2.160   1.628   2.258 -0.3383 -0.1386  1.2366
    1SOL    MW4 5356   2.242   1.653   2.244 -0.6261  0.0376 -0.2778
    1SOL     OW 5357   2.255   1.977   2.330  0.6399 -0.0327  0.3206
    1SOL    HW2 5358   2.326   2.018   2.280 -0.0921  0.5461 -0.2594
    1SOL    HW3 5359   2.248   1.889   2.294  0.8492  0.0187  0.1532
    1SOL    MW4 5360   2.264   1.971   2.318  0.5710  0.0504  0.2220
    1SOL     OW 5361   2.496   2.080   2.247  0.0959  0.3777  0.0287
    1SOL    HW2 5362   2.556   2.011   2.272  1.5395  1.5850 -0.0262
    1SOL    HW3 5363   2.481   2.067   2.153  0.0876 -0.0612  0.0931
    1SOL    MW4 5364   2.502   2.069   2.238  0.2854  0.4790  0.0300
    1SOL     OW 5365   2.456   2.322   2.342  0.4332  0.4987  0.0862
    1SOL    HW2 5366   2.533   2.373   2.316  1.5865 -0.0847  2.2524
    1SOL    HW3 5367   2.475   2.233   2.313  0.2843  0.4766  0.0551
    1SOL    MW4 5368   2.469   2.317   2.334  0.5655  0.4187  0.3679
    1SOL     OW 5369   2.214   2.438   2.275  0.4110  0.3085  0.0043
    1SOL    HW2 5370   2.199   2.522   2.319 -0.9652  0.0288  0.1083
    1SOL    HW3 5371   2.291   2.401   2.318  0.7249  1.2903  0.2985
    1SOL    MW4 5372   2.222   2.445   2.286  0.2711  0.4013  0.0567
    1SOL     OW 5373   2.182   2.708   2.369 -0.0333  0.2261 -0.4826
    1SOL    HW2 5374   2.214   2.696   2.458 -0.5825  0.8099 -0.1932
    1SOL    HW3 5375   2.245   2.767   2.328 -0.0546  0.3670 -0.3136
    1SOL    MW4 5376   2.194   2.714   2.375 -0.1085  0.3216 -0.4218
    1SOL     OW 5377   2.407   2.848   2.300  0.3396 -0.0996 -0.1819
    1SOL    HW2 5378   2.471   2.797   2.350 -0.1777  0.8272  1.4725
    1SOL    HW3 5379   2.438   2.845   2.210  2.5387  0.0710  0.5473
    1SOL    MW4 5380   2.420   2.841   2.295  0.5615  0.0453  0.1326
    1SOL     OW 5381   2.443   3.119   2.328 -0.1527 -0.0274  0.1313
    1SOL    HW2 5382   2.530   3.146   2.300  0.0550 -0.2735  0.5464
    1SOL    HW3 5383   2.443   3.024   2.321 -0.7178  0.0363 -0.8228
    1SOL    MW4 5384   2.454   3.110   2.324 -0.1998 -0.0513  0.0601
    1SOL     OW 5385   2.205   3.226   2.252 -0.5840 -0.0539  0.3517
    1SOL    HW2 5386   2.217   3.317   2.280  0.3076  0.0528 -0.3256
    1SOL    HW3 5387   2.289   3.184   2.271 -0.8003 -0.5923  0.1295
    1SOL    MW4 5388   2.218   3.232   2.258 -0.4947 -0.1109  0.2332
    1SOL     OW 5389   2.237   3.507   2.337  0.0803  0.2014 -0.2287
    1SOL    HW2 5390   2.246   3.505   2.432 -0.3314 -0.8319 -0.2063
    1SOL    HW3 5391   2.164   3.566   2.321 -0.7048 -0.6506  0.1682
    1SOL    MW4 5392   2.229   3.515   2.348 -0.0777 -0.0474 -0.1733
    1SOL     OW 5393   2.481   3.634   2.282  0.3262 -0.3270  0.0320
    1SOL    HW2 5394   2.471   3.724   2.310 -0.7025  0.4676 -2.7317
    1SOL    HW3 5395   2.396   3.594   2.298  0.4282 -0.5001  0.1542
    1SOL    MW4 5396   2.469   3.640   2.288  0.2036 -0.2449 -0.3169
    1SOL     OW 5397   2.484   3.882   2.385  0.5011 -0.1803 -0.3793
    1SOL    HW2 5398   2.486   3.896   2.480  0.0519  1.7575 -0.6291
    1SOL    HW3 5399   2.397   3.913   2.359  1.5362  1.7114 -1.7509
    1SOL    MW4 5400   2.473   3.888   2.394  0.5786  0.3247 -0.5932
    1SOL     OW 5401   2.270   4.017   2.266 -0.3712  0.6252  0.0458
    1SOL    HW2 5402   2.253   4.107   2.295 -0.3174  0.2543  1.2762
    1SOL    HW3 5403   2.188   3.970   2.286 -0.1650  0.2599  0.0296
    1SOL    MW4 5404   2.257   4.023   2.273 -0.3366  0.5279  0.2060
    1SOL     OW 5405   2.260   4.293   2.356 -0.1146 -0.1430  0.2928
    1SOL    HW2 5406   2.246   4.300   2.450 -0.9171 -0.4010  0.1991
    1SOL    HW3 5407   2.179   4.327   2.317 -0.6717 -2.0408 -0.2716
    1SOL    MW4 5408   2.247   4.299   2.363 -0.2940 -0.4272  0.2058
    1SOL     OW 5409   2.470   4.438   2.247 -0.7694  0.3786 -0.2219
    1SOL    HW2 5410   2.544   4.391   2.285 -0.2813  1.0328 -0.3543
    1SOL    HW3 5411   2.393   4.385   2.270 -0.3030 -0.0938  0.2534
    1SOL    MW4 5412   2.469   4.425   2.255 -0.6435  0.4025 -0.1764
    1SOL     OW 5413   2.911   0.012   2.330  0.1568  0.3328  0.0512
    1SOL    HW2 5414   2.998   0.040   2.301  0.3716 -0.3620  0.0233
    1SOL    HW3 5415   2.907  -0.081   2.307 -0.1823  0.0999  1.0249
    1SOL    MW4 5416   2.922   0.003   2.323  0.1402  0.2103  0.1760
    1SOL     OW 5417   2.695   0.132   2.222  0.1218  0.4125 -0.1834
    1SOL    HW2 5418   2.677   0.215   2.265  0.4044  0.4443 -0.1207
    1SOL    HW3 5419   2.781   0.107   2.255 -0.1428 -0.1045  0.0993
    1SOL    MW4 5420   2.704   0.140   2.232  0.1240  0.3485 -0.1378
    1SOL     OW 5421   2.657   0.377   2.322 -0.1126  0.2845  0.0074
    1SOL    HW2 5422   2.657   0.362   2.417  1.4275  0.7338  0.0820
    1SOL    HW3 5423   2.745   0.410   2.303 -0.2186 -0.3670 -1.6628
    1SOL    MW4 5424   2.669   0.379   2.332  0.0765  0.2578 -0.2034
    1SOL     OW 5425   2.926   0.448   2.293  0.3172 -0.3680  0.2747
    1SOL    HW2 5426   2.937   0.540   2.317  1.4701 -0.3955 -0.1454
    1SOL    HW3 5427   2.924   0.448   2.197 -1.0507 -0.6277  0.2978
    1SOL    MW4 5428   2.927   0.460   2.283  0.2890 -0.4059  0.2220
    1SOL     OW 5429   2.941   0.718   2.373 -0.0687 -0.2428  0.3197
    1SOL    HW2 5430   2.947   0.743   2.466  1.6023 -0.3290  0.2577
    1SOL    HW3 5431   2.861   0.760   2.342  0.1380  1.0200  1.4349
    1SOL    MW4 5432   2.931   0.727   2.381  0.1788 -0.0876  0.4590
    1SOL     OW 5433   2.705   0.849   2.298 -0.2031  0.3150 -0.3012
    1SOL    HW2 5434   2.713   0.939   2.331 -0.3333  0.3153 -0.2733
    1SOL    HW3 5435   2.695   0.860   2.203  1.6861  0.2589 -0.5377
    1SOL    MW4 5436   2.705   0.863   2.290  0.0288  0.3076 -0.3290
    1SOL     OW 5437   2.670   1.126   2.379 -0.2632  0.4413 -0.3921
    1SOL    HW2 5438   2.656   1.149   2.471  0.5722  2.2882 -0.7018
    1SOL    HW3 5439   2.751   1.171   2.355 -0.1267 -0.5493 -1.8575
    1SOL    MW4 5440   2.679   1.135   2.388 -0.1352  0.5543 -0.6266
    1SOL     OW 5441   2.914   1.264   2.302 -0.1074 -0.2034  0.3244
    1SOL    HW2 5442   2.986   1.211   2.338 -1.3072 -1.7578  0.5188
    1SOL    HW3 5443   2.934   1.271   2.209  0.5767 -0.1787  0.4716
    1SOL    MW4 5444   2.926   1.258   2.295 -0.1757 -0.4051  0.3695
    1SOL     OW 5445   2.925   1.522   2.387  0.1665 -0.2012  0.3001
    1SOL    HW2 5446   2.920   1.513   2.482 -1.3055 -0.2228  0.2427
    1SOL    HW3 5447   2.921   1.432   2.354  1.4205 -0.2425  0.2278
    1SOL    MW4 5448   2.924   1.509   2.395  0.1378 -0.2095  0.2828
    1SOL     OW 5449   2.683   1.600   2.259 -0.4734 -0.0578 -0.0599
    1SOL    HW2 5450   2.772   1.574   2.282 -0.8591  0.3651  1.9533
    1SOL    HW3 5451   2.686   1.611   2.163  2.9858  4.8119  0.3569
    1SOL    MW4 5452   2.695   1.598   2.249 -0.0679  0.6405  0.2608
    1SOL     OW 5453   2.661   1.872   2.316 -0.5118 -0.3106 -0.0067
    1SOL    HW2 5454   2.681   1.880   2.410  1.0663  0.2790 -0.3798
    1SOL    HW3 5455   2.670   1.778   2.298 -0.2273 -0.3428  0.2953
    1SOL    MW4 5456   2.665   1.861   2.326 -0.2661 -0.2372 -0.0165
    1SOL     OW 5457   2.855   2.090   2.251  0.0785 -0.1568 -0.3039
    1SOL    HW2 5458   2.926   2.038   2.290 -0.9122 -2.0586 -0.9651
    1SOL    HW3 5459   2.775   2.042   2.275 -0.8630  1.0945 -0.9112
    1SOL    MW4 5460   2.854   2.077   2.259 -0.1762 -0.2427 -0.4711
    1SOL     OW 5461   2.933   2.354   2.340 -0.1210  0.2045  0.1834
    1SOL    HW2 5462   2.909   2.345   2.432 -0.6632  1.3526  0.1663
    1SOL    HW3 5463   2.912   2.269   2.301 -1.1622  0.1597  0.8331
    1SOL    MW4 5464   2.927   2.342   2.347 -0.3297  0.3500  0.2670
    1SOL     OW 5465   2.691   2.466   2.318 -0.3886  0.7612  0.6865
    1SOL    HW2 5466   2.777   2.429   2.336 -1.0693 -0.3664  1.7033
    1SOL    HW3 5467   2.683   2.466   2.223  0.2354 -0.2994  0.6294
    1SOL    MW4 5468   2.701   2.461   2.308 -0.3965  0.4725  0.8132
    1SOL     OW 5469   2.644   2.725   2.387 -0.4007 -0.3543 -0.1884
    1SOL    HW2 5470   2.723   2.772   2.360  0.0714 -0.7033  0.5628
    1SOL    HW3 5471   2.658   2.635   2.357  0.5557 -0.9782  1.9731
    1SOL    MW4 5472   2.657   2.719   2.380 -0.2124 -0.4826  0.1957
    1SOL     OW 5473   2.890   2.848   2.313 -0.2767  0.2688  0.2604
    1SOL    HW2 5474   2.908   2.932   2.355 -0.0524  0.4553 -0.2088
    1SOL    HW3 5475   2.915   2.860   2.222  0.8478 -0.6475  0.4237
    1SOL    MW4 5476   2.896   2.860   2.307 -0.0985  0.1724  0.2203
    1SOL     OW 5477   2.945   3.118   2.398  0.2476 -0.0075  0.0096
    1SOL    HW2 5478   3.019   3.169   2.366  0.0571  0.5752  0.5035
    1SOL    HW3 5479   2.868   3.156   2.355  0.2027 -0.4309 -0.2866
    1SOL    MW4 5480   2.945   3.130   2.388  0.2165  0.0136  0.0355
    1SOL     OW 5481   2.693   3.205   2.294  0.4666 -0.4995 -0.0658
    1SOL    HW2 5482   2.690   3.299   2.314  2.0346 -0.3362 -0.4892
    1SOL    HW3 5483   2.709   3.201   2.200 -0.8470 -1.2160 -0.2664
    1SOL    MW4 5484   2.695   3.217   2.284  0.5000 -0.5722 -0.1481
    1SOL     OW 5485   2.692   3.476   2.369  0.1296 -0.2138  0.3094
    1SOL    HW2 5486   2.773   3.513   2.333 -0.2822  0.1735 -0.2308
    1SOL    HW3 5487   2.623   3.537   2.341 -0.4194 -0.8207  0.3188
    1SOL    MW4 5488   2.693   3.489   2.360  0.0029 -0.2427  0.2394
    1SOL     OW 5489   2.930   3.607   2.267  0.2714 -0.7683  0.5576
    1SOL    HW2 5490   2.987   3.550   2.318  1.2059  0.0330  0.4245
    1SOL    HW3 5491   2.940   3.693   2.308 -0.0443 -0.4051 -0.1250
    1SOL    MW4 5492   2.939   3.611   2.279  0.3531 -0.6149  0.4501
    1SOL     OW 5493   2.933   3.870   2.380  0.1588 -0.1986  0.4829
    1SOL    HW2 5494   2.916   3.862   2.474 -1.0336  1.2173  0.3961
    1SOL    HW3 5495   2.863   3.926   2.347  1.5615  0.7635 -0.9405
    1SOL    MW4 5496   2.922   3.877   2.388  0.1867  0.1154  0.2837
    1SOL     OW 5497   2.700   4.008   2.261 -0.1557  0.0125  0.2848
    1SOL    HW2 5498   2.630   3.970   2.314 -1.4683  0.5732 -1.0466
    1SOL    HW3 5499   2.674   3.992   2.171  2.3219 -1.3646 -0.2302
    1SOL    MW4 5500   2.688   4.001   2.256 -0.0021 -0.0949  0.0412
    1SOL     OW 5501   2.659   4.275   2.369  0.3254 -0.2507 -0.3701
    1SOL    HW2 5502   2.651   4.277   2.465  1.0943  0.4226 -0.3091
    1SOL    HW3 5503   2.699   4.190   2.351 -0.9495 -0.8979 -0.1955
    1SOL    MW4 5504   2.664   4.264   2.379  0.2587 -0.2470 -0.3390
    1SOL     OW 5505   2.912   4.393   2.272 -0.0074 -0.4238 -0.1281
    1SOL    HW2 5506   2.987   4.337   2.295  0.1684 -0.0298  0.2545
    1SOL    HW3 5507   2.838   4.350   2.314 -0.1725 -1.4192 -1.4163
    1SOL    MW4 5508   2.912   4.380   2.281 -0.0060 -0.5031 -0.2475
    1SOL     OW 5509   3.372   4.622   2.351 -0.4396  0.0642 -0.5923
    1SOL    HW2 5510   3.372   4.639   2.445 -0.8271  0.7182 -0.7021
    1SOL    HW3 5511   3.449   4.667   2.317 -0.5478  0.2115 -0.6470
    1SOL    MW4 5512   3.382   4.631   2.359 -0.5050  0.1702 -0.6137
    1SOL     OW 5513   3.153   0.102   2.272 -0.3875  0.3380 -0.4934
    1SOL    HW2 5514   3.172   0.183   2.319  1.0290 -1.5368  2.2849
    1SOL    HW3 5515   3.230   0.047   2.287 -1.1534 -1.4000 -2.6773
    1SOL    MW4 5516   3.166   0.106   2.280 -0.3014 -0.1387 -0.4151
    1SOL     OW 5517   3.164   0.342   2.387 -0.2907 -0.6145  0.0625
    1SOL    HW2 5518   3.216   0.400   2.331  0.7620 -1.5986 -0.0034
    1SOL    HW3 5519   3.073   0.364   2.367  0.0803  1.4873  0.5415
    1SOL    MW4 5520   3.159   0.353   2.377 -0.1032 -0.4670  0.1171
    1SOL     OW 5521   3.342   0.509   2.258 -0.0577 -0.0269  0.1796
    1SOL    HW2 5522   3.418   0.453   2.275  0.0738  0.0816 -0.0360
    1SOL    HW3 5523   3.337   0.513   2.162 -0.1816  0.1734  0.1940
    1SOL    MW4 5524   3.351   0.502   2.247 -0.0565  0.0139  0.1533
    1SOL     OW 5525   3.359   0.761   2.385  0.3679 -0.5138  0.1241
    1SOL    HW2 5526   3.441   0.793   2.348  0.1761  0.8025  0.7922
    1SOL    HW3 5527   3.354   0.669   2.357  1.1024 -0.0703 -1.5676
    1SOL    MW4 5528   3.369   0.753   2.376  0.4394 -0.2816 -0.0110
    1SOL     OW 5529   3.126   0.877   2.244  0.2382 -0.1390  0.0685
    1SOL    HW2 5530   3.200   0.855   2.301  1.1449  0.7562 -0.7264
    1SOL    HW3 5531   3.054   0.823   2.275  1.5421 -1.9031  0.1236
    1SOL    MW4 5532   3.126   0.867   2.255  0.5295 -0.2537 -0.0291
    1SOL     OW 5533   3.133   1.113   2.388  0.0487 -0.2867 -0.1935
    1SOL    HW2 5534   3.202   1.161   2.343  0.8200 -1.4073 -0.2346
    1SOL    HW3 5535   3.113   1.040   2.329 -2.3936  0.9586 -0.9969
    1SOL    MW4 5536   3.140   1.110   2.374 -0.1721 -0.2702 -0.3047
    1SOL     OW 5537   3.324   1.236   2.248  0.0648 -0.2869 -0.4084
    1SOL    HW2 5538   3.401   1.197   2.289 -0.7328  0.0436  1.4601
    1SOL    HW3 5539   3.323   1.327   2.281 -1.2106 -0.3431 -0.2524
    1SOL    MW4 5540   3.334   1.243   2.258 -0.2089 -0.2508 -0.1411
    1SOL     OW 5541   3.333   1.492   2.347  0.0682 -0.6434  0.2304
    1SOL    HW2 5542   3.348   1.500   2.441  1.6466 -1.1628  0.0394
    1SOL    HW3 5543   3.252   1.540   2.331  0.0203 -0.1897  1.7839
    1SOL    MW4 5544   3.325   1.499   2.357  0.2697 -0.6521  0.4103
    1SOL     OW 5545   3.127   1.681   2.267 -0.2692  0.2484  0.5962
    1SOL    HW2 5546   3.115   1.770   2.301 -0.7381  0.4241 -0.0115
    1SOL    HW3 5547   3.058   1.630   2.308  0.8095 -0.1364  1.9694
    1SOL    MW4 5548   3.116   1.686   2.277 -0.1891  0.2207  0.6971
    1SOL     OW 5549   3.081   1.937   2.351 -0.2076 -0.2381 -0.0482
    1SOL    HW2 5550   3.089   1.936   2.447  1.0076  2.7078 -0.0893
    1SOL    HW3 5551   3.162   1.978   2.320 -0.6790 -0.9746 -2.3402
    1SOL    MW4 5552   3.093   1.942   2.360 -0.1097  0.0534 -0.3562
    1SOL     OW 5553   3.337   2.059   2.244  0.0481  0.3888  0.3624
    1SOL    HW2 5554   3.408   2.004   2.276 -0.7209 -0.1967  1.1009
    1SOL    HW3 5555   3.338   2.047   2.149  0.4270 -0.2366  0.4430
    1SOL    MW4 5556   3.346   2.050   2.236 -0.0033  0.2291  0.4704
    1SOL     OW 5557   3.388   2.306   2.327  0.1458  0.7234 -0.2401
    1SOL    HW2 5558   3.307   2.345   2.297  0.0002  0.6748  0.0929
    1SOL    HW3 5559   3.384   2.215   2.296  0.3046  0.8616 -0.6670
    1SOL    MW4 5560   3.377   2.299   2.319  0.1476  0.7353 -0.2525
    1SOL     OW 5561   3.153   2.458   2.232 -0.0163 -0.1124 -0.3661
    1SOL    HW2 5562   3.152   2.542   2.277 -0.1543  0.3716 -1.2707
    1SOL    HW3 5563   3.075   2.413   2.263  0.2256 -0.0405  0.3593
    1SOL    MW4 5564   3.143   2.463   2.242 -0.0026 -0.0393 -0.3901
    1SOL     OW 5565   3.136   2.688   2.362 -0.0298  0.2759  0.5234
    1SOL    HW2 5566   3.133   2.663   2.454 -0.3283 -0.3849  0.3357
    1SOL    HW3 5567   3.061   2.746   2.350 -0.3729 -0.1580  0.5475
    1SOL    MW4 5568   3.126   2.692   2.373 -0.1147  0.1311  0.5019
    1SOL     OW 5569   3.368   2.813   2.242  0.3785  0.0928  0.7579
    1SOL    HW2 5570   3.353   2.901   2.277  0.3706  0.1214  0.6827
    1SOL    HW3 5571   3.295   2.761   2.277  0.5853  0.0313  1.0994
    1SOL    MW4 5572   3.356   2.817   2.251  0.4046  0.0887  0.7927
    1SOL     OW 5573   3.350   3.070   2.368 -0.6628 -0.2605 -0.0645
    1SOL    HW2 5574   3.432   3.109   2.336 -0.2879 -0.6782  0.3966
    1SOL    HW3 5575   3.282   3.124   2.328 -0.1717 -0.0842 -0.6770
    1SOL    MW4 5576   3.352   3.083   2.358 -0.5486 -0.2923 -0.0846
    1SOL     OW 5577   3.158   3.237   2.269  0.2253 -0.1181 -0.1415
    1SOL    HW2 5578   3.153   3.322   2.312 -0.0790 -0.0725 -0.2667
    1SOL    HW3 5579   3.136   3.255   2.177 -0.2409 -0.3951 -0.0863
    1SOL    MW4 5580   3.154   3.250   2.262  0.1237 -0.1485 -0.1504
    1SOL     OW 5581   3.108   3.471   2.413  0.0910  0.2971  0.3271
    1SOL    HW2 5582   3.115   3.474   2.509  0.7099 -0.0043  0.2983
    1SOL    HW3 5583   3.186   3.518   2.382 -0.7814  1.5409 -0.0308
    1SOL    MW4 5584   3.120   3.478   2.422  0.0575  0.4213  0.2761
    1SOL     OW 5585   3.334   3.574   2.300 -0.3138  0.6819  0.2600
    1SOL    HW2 5586   3.421   3.537   2.318 -0.6288 -0.8787 -1.2413
    1SOL    HW3 5587   3.328   3.575   2.204 -1.8403  1.0471  0.3542
    1SOL    MW4 5588   3.345   3.569   2.290 -0.5567  0.5243  0.0744
    1SOL     OW 5589   3.384   3.836   2.419  0.4408  0.2824  0.4037
    1SOL    HW2 5590   3.456   3.865   2.364  1.0363 -0.5572  0.7156
    1SOL    HW3 5591   3.356   3.753   2.380 -0.1079  0.4138  0.5074
    1SOL    MW4 5592   3.390   3.829   2.406  0.4470  0.1891  0.4587
    1SOL     OW 5593   3.182   3.941   2.261  0.2256 -0.3370 -0.1956
    1SOL    HW2 5594   3.253   3.908   2.315 -0.2082 -0.4270  0.3262
    1SOL    HW3 5595   3.102   3.911   2.305 -0.1069 -2.6218 -2.3027
    1SOL    MW4 5596   3.181   3.933   2.274  0.1245 -0.6504 -0.4046
    1SOL     OW 5597   3.115   4.208   2.329 -0.3087 -0.0850  0.0202
    1SOL    HW2 5598   3.186   4.258   2.287 -0.2596 -1.4286 -1.5426
    1SOL    HW3 5599   3.134   4.117   2.307 -0.1743 -0.8767  3.1810
    1SOL    MW4 5600   3.127   4.202   2.321 -0.2844 -0.3667  0.2308
    1SOL     OW 5601   3.344   4.355   2.243  0.0637 -0.1401 -0.1619
    1SOL    HW2 5602   3.346   4.443   2.282  1.4572 -0.2028 -0.0460
    1SOL    HW3 5603   3.378   4.368   2.154  0.1099 -0.5340 -0.2023
    1SOL    MW4 5604   3.349   4.369   2.236  0.2537 -0.2003 -0.1519
    1SOL     OW 5605   3.806   4.661   2.391 -0.1278  0.1088  0.0064
    1SOL    HW2 5606   3.822   4.632   2.481  0.2292  0.7347  0.1498
    1SOL    HW3 5607   3.892   4.685   2.357 -0.3201  0.3066 -0.3471
    1SOL    MW4 5608   3.819   4.660   2.399 -0.1063  0.2174 -0.0215
    1SOL     OW 5609   3.574   0.101   2.257  0.0905 -0.2479 -0.0376
    1SOL    HW2 5610   3.575   0.194   2.281 -0.5303 -0.4777  0.8961
    1SOL    HW3 5611   3.647   0.063   2.304  0.6864 -0.1363 -0.8574
    1SOL    MW4 5612   3.583   0.108   2.266  0.0870 -0.2635 -0.0226
    1SOL     OW 5613   3.565   0.355   2.323 -0.0598  0.0553 -0.3859
    1SOL    HW2 5614   3.568   0.351   2.419  0.2586  0.3943 -0.3789
    1SOL    HW3 5615   3.638   0.413   2.300  0.2942 -0.5812 -0.8671
    1SOL    MW4 5616   3.575   0.362   2.333  0.0291  0.0161 -0.4487
    1SOL     OW 5617   3.804   0.484   2.280 -0.2118  0.3583  0.4820
    1SOL    HW2 5618   3.807   0.578   2.300  0.3883  0.4278  0.0888
    1SOL    HW3 5619   3.797   0.480   2.184 -0.8713  0.0097  0.5472
    1SOL    MW4 5620   3.804   0.496   2.270 -0.2196  0.3215  0.4389
    1SOL     OW 5621   3.798   0.738   2.358  0.3055 -0.0513 -0.0018
    1SOL    HW2 5622   3.806   0.754   2.452  1.6441 -0.5390 -0.0377
    1SOL    HW3 5623   3.864   0.794   2.318 -0.5248  0.4533 -0.6877
    1SOL    MW4 5624   3.807   0.748   2.365  0.3724 -0.0491 -0.0968
    1SOL     OW 5625   3.575   0.857   2.250  0.3468  0.3773 -0.1573
    1SOL    HW2 5626   3.645   0.813   2.298  0.9432  1.9224  0.4349
    1SOL    HW3 5627   3.600   0.846   2.158  1.1571  0.5593  0.0304
    1SOL    MW4 5628   3.588   0.850   2.244  0.5322  0.6052 -0.0541
    1SOL     OW 5629   3.561   1.112   2.330 -0.2702  0.1773 -0.4272
    1SOL    HW2 5630   3.561   1.112   2.426  0.8785  0.1641 -0.4209
    1SOL    HW3 5631   3.558   1.019   2.307 -2.4581  0.2161 -0.4309
    1SOL    MW4 5632   3.560   1.100   2.340 -0.4072  0.1807 -0.4268
    1SOL     OW 5633   3.787   1.249   2.259  0.2926 -0.5177 -0.0391
    1SOL    HW2 5634   3.786   1.332   2.307 -1.1111 -0.4044 -0.2553
    1SOL    HW3 5635   3.712   1.201   2.292  0.8525 -1.5428 -0.2238
    1SOL    MW4 5636   3.777   1.254   2.270  0.1814 -0.6380 -0.0923
    1SOL     OW 5637   3.789   1.515   2.349 -0.8274  0.3721  0.1310
    1SOL    HW2 5638   3.790   1.511   2.445  0.7192  1.2717  0.1605
    1SOL    HW3 5639   3.711   1.567   2.329 -0.1049  1.8230  0.9774
    1SOL    MW4 5640   3.779   1.521   2.359 -0.5279  0.6822  0.2463
    1SOL     OW 5641   3.543   1.641   2.246 -0.1959 -0.4359  0.0033
    1SOL    HW2 5642   3.470   1.590   2.284 -0.8502 -1.2087 -2.2060
    1SOL    HW3 5643   3.539   1.621   2.153  2.2352  0.3499 -0.2807
    1SOL    MW4 5644   3.533   1.631   2.239  0.0386 -0.4343 -0.3254
    1SOL     OW 5645   3.539   1.908   2.361 -0.0815  0.4149 -0.0561
    1SOL    HW2 5646   3.625   1.936   2.329  0.1659  0.4552  0.6436
    1SOL    HW3 5647   3.528   1.820   2.325  0.5122  0.1747  0.3314
    1SOL    MW4 5648   3.549   1.900   2.352  0.0296  0.3885  0.0875
    1SOL     OW 5649   3.773   1.996   2.271  0.4701  0.0332  0.0768
    1SOL    HW2 5650   3.851   1.967   2.317  0.8109  0.5696 -0.1596
    1SOL    HW3 5651   3.790   1.975   2.179  0.1957 -0.1538  0.0682
    1SOL    MW4 5652   3.785   1.989   2.265  0.4787  0.0793  0.0446
    1SOL     OW 5653   3.805   2.262   2.351 -0.1759 -0.4054 -0.0968
    1SOL    HW2 5654   3.732   2.314   2.316 -0.5672 -1.2078 -0.4703
    1SOL    HW3 5655   3.796   2.176   2.310 -0.9699 -1.5510  2.3672
    1SOL    MW4 5656   3.794   2.258   2.341 -0.3324 -0.6626  0.1791
    1SOL     OW 5657   3.608   2.433   2.245 -0.1320  0.2676 -0.0299
    1SOL    HW2 5658   3.539   2.378   2.283 -0.7995  0.0880 -1.4712
    1SOL    HW3 5659   3.599   2.421   2.150 -0.2637  2.8438 -0.3615
    1SOL    MW4 5660   3.598   2.424   2.237 -0.2375  0.5839 -0.2642
    1SOL     OW 5661   3.536   2.658   2.374 -0.2458 -0.5338 -0.2127
    1SOL    HW2 5662   3.550   2.573   2.333 -0.1834 -0.6306  0.0027
    1SOL    HW3 5663   3.475   2.704   2.317  0.7938 -0.1885 -1.0675
    1SOL    MW4 5664   3.530   2.653   2.361 -0.1006 -0.5009 -0.2971
    1SOL     OW 5665   3.793   2.812   2.239  0.4249 -0.3761  0.0248
    1SOL    HW2 5666   3.793   2.894   2.289  0.2898 -0.5364  0.2862
    1SOL    HW3 5667   3.722   2.761   2.276  0.6423 -0.6994 -0.0002
    1SOL    MW4 5668   3.784   2.816   2.250  0.4358 -0.4399  0.0558
    1SOL     OW 5669   3.804   3.049   2.384 -0.2595 -0.2277  0.1538
    1SOL    HW2 5670   3.808   3.071   2.477  1.1043  1.8492 -0.3737
    1SOL    HW3 5671   3.866   3.109   2.341 -0.2904 -1.6602 -2.0043
    1SOL    MW4 5672   3.812   3.060   2.390 -0.0837 -0.1428 -0.2005
    1SOL     OW 5673   3.586   3.185   2.269 -0.2235 -0.0586  0.1773
    1SOL    HW2 5674   3.576   3.270   2.314 -1.7069  0.5366 -1.2238
    1SOL    HW3 5675   3.666   3.148   2.306  0.1634  1.7144  1.2005
    1SOL    MW4 5676   3.595   3.192   2.280 -0.3681  0.2537  0.1273
    1SOL     OW 5677   3.560   3.444   2.380  0.1366 -0.4863  0.4868
    1SOL    HW2 5678   3.558   3.441   2.476  0.2955 -1.6902  0.4687
    1SOL    HW3 5679   3.643   3.486   2.359 -0.0147  0.0184  0.8728
    1SOL    MW4 5680   3.571   3.449   2.390  0.1376 -0.5786  0.5352
    1SOL     OW 5681   3.806   3.573   2.319 -0.6332 -0.5415 -0.0982
    1SOL    HW2 5682   3.804   3.667   2.335  1.4657 -0.7723  1.6819
    1SOL    HW3 5683   3.839   3.565   2.229 -1.2800  0.3914 -0.4339
    1SOL    MW4 5684   3.810   3.584   2.309 -0.4416 -0.4487  0.0925
    1SOL     OW 5685   3.817   3.845   2.400 -0.0097 -0.2839 -0.3852
    1SOL    HW2 5686   3.816   3.849   2.496 -2.8629  1.6482 -0.4412
    1SOL    HW3 5687   3.892   3.900   2.375 -0.1522  0.4438  0.7193
    1SOL    MW4 5688   3.827   3.853   2.410 -0.4048  0.0670 -0.2470
    1SOL     OW 5689   3.611   3.972   2.270  0.5181  0.4089  0.2792
    1SOL    HW2 5690   3.610   4.066   2.289  0.8984  1.1126 -2.8610
    1SOL    HW3 5691   3.689   3.940   2.316  0.5386  1.6614  1.1669
    1SOL    MW4 5692   3.621   3.980   2.279  0.5713  0.6671 -0.0181
    1SOL     OW 5693   3.563   4.230   2.330  0.1753 -0.3418  0.4243
    1SOL    HW2 5694   3.628   4.295   2.304  0.1522 -0.4253  0.1607
    1SOL    HW3 5695   3.481   4.263   2.293  0.2073 -0.6522  0.0758
    1SOL    MW4 5696   3.561   4.243   2.322  0.1764 -0.3939  0.3436
    1SOL     OW 5697   3.777   4.412   2.280 -0.2442 -0.0483  0.1259
    1SOL    HW2 5698   3.850   4.371   2.327 -0.1600 -0.3459 -0.2614
    1SOL    HW3 5699   3.779   4.503   2.309  0.5903  0.0636 -0.2465
    1SOL    MW4 5700   3.787   4.419   2.290 -0.1230 -0.0730  0.0253
    1SOL     OW 5701   4.266   4.639   2.381 -0.4655 -0.4125  0.0427
    1SOL    HW2 5702   4.274   4.621   2.474 -0.5750  0.7529  0.2760
    1SOL    HW3 5703   4.349   4.680   2.357 -0.2825 -1.0643 -0.4593
    1SOL    MW4 5704   4.278   4.642   2.390 -0.4563 -0.3448  0.0072
    1SOL     OW 5705   4.036   0.062   2.260 -0.1451  0.2698  0.4731
    1SOL    HW2 5706   4.039   0.155   2.283 -0.9643  0.6853 -1.0269
    1SOL    HW3 5707   4.126   0.032   2.275  0.3112  1.4817  0.2863
    1SOL    MW4 5708   4.048   0.070   2.265 -0.1926  0.4845  0.2503
    1SOL     OW 5709   4.017   0.331   2.342  0.0969  0.3373  0.4075
    1SOL    HW2 5710   4.093   0.378   2.310  0.1291 -0.8933 -1.3643
    1SOL    HW3 5711   3.942   0.386   2.318  0.3250  0.8571  0.8860
    1SOL    MW4 5712   4.017   0.344   2.335  0.1311  0.2436  0.2367
    1SOL     OW 5713   4.258   0.481   2.244  0.1723 -0.2385 -0.1569
    1SOL    HW2 5714   4.268   0.574   2.266 -0.1130 -0.0287 -0.8900
    1SOL    HW3 5715   4.342   0.442   2.268 -0.0670  0.0004  1.1288
    1SOL    MW4 5716   4.271   0.488   2.250  0.1025 -0.1793 -0.0842
    1SOL     OW 5717   4.249   0.746   2.330 -0.4666 -0.1362 -0.0890
    1SOL    HW2 5718   4.171   0.798   2.311 -0.0703  0.6699  0.4919
    1SOL    HW3 5719   4.322   0.803   2.309 -0.0245 -0.7226 -0.1589
    1SOL    MW4 5720   4.248   0.760   2.325 -0.3557 -0.1072 -0.0217
    1SOL     OW 5721   4.010   0.865   2.238 -0.0593 -0.5157 -0.2471
    1SOL    HW2 5722   4.015   0.955   2.270  0.7531 -0.5688 -0.2098
    1SOL    HW3 5723   4.017   0.873   2.143  0.4125 -0.5664 -0.2179
    1SOL    MW4 5724   4.012   0.878   2.230  0.1101 -0.5293 -0.2384
    1SOL     OW 5725   4.020   1.132   2.338  0.3976 -0.2113  0.1923
    1SOL    HW2 5726   4.019   1.142   2.433  0.4296  1.1155  0.0627
    1SOL    HW3 5727   3.933   1.161   2.311  0.4598 -0.3927 -0.1923
    1SOL    MW4 5728   4.008   1.137   2.347  0.4101 -0.0602  0.1249
    1SOL     OW 5729   4.223   1.284   2.240 -0.2375  0.3815 -0.2509
    1SOL    HW2 5730   4.145   1.235   2.266 -0.8508  0.6238 -1.5720
    1SOL    HW3 5731   4.293   1.249   2.294 -1.1616 -0.2340  0.5530
    1SOL    MW4 5732   4.222   1.273   2.250 -0.4406  0.3322 -0.3190
    1SOL     OW 5733   4.238   1.535   2.377 -0.2713 -0.3173  0.0286
    1SOL    HW2 5734   4.216   1.450   2.337  0.0120 -0.1517 -0.4802
    1SOL    HW3 5735   4.322   1.558   2.338 -1.2077  1.0799 -1.2151
    1SOL    MW4 5736   4.246   1.527   2.366 -0.3572 -0.1111 -0.2029
    1SOL     OW 5737   4.027   1.679   2.264 -0.2436 -0.4280 -0.0654
    1SOL    HW2 5738   4.095   1.628   2.309 -0.8760  0.1078  1.5275
    1SOL    HW3 5739   3.947   1.628   2.277 -0.5788  0.1407  0.1075
    1SOL    MW4 5740   4.025   1.665   2.272 -0.3715 -0.2822  0.1676
    1SOL     OW 5741   4.018   1.932   2.360  0.1580  0.2617 -0.2369
    1SOL    HW2 5742   4.009   1.939   2.455 -1.3736 -0.5150 -0.2865
    1SOL    HW3 5743   4.016   1.837   2.343 -1.0175  0.4259 -1.1352
    1SOL    MW4 5744   4.016   1.920   2.370 -0.1984  0.1808 -0.3624
    1SOL     OW 5745   4.253   2.033   2.267 -0.0957 -0.1323  0.1376
    1SOL    HW2 5746   4.241   2.124   2.294 -1.5330 -0.1692 -0.3317
    1SOL    HW3 5747   4.179   1.987   2.305 -0.5093 -0.7222 -1.3416
    1SOL    MW4 5748   4.242   2.039   2.275 -0.3400 -0.2151 -0.1194
    1SOL     OW 5749   4.230   2.281   2.372  0.1605  0.1908 -0.2140
    1SOL    HW2 5750   4.157   2.320   2.324  0.5120  1.7829  0.5067
    1SOL    HW3 5751   4.307   2.329   2.341  0.5580  0.3083  0.9337
    1SOL    MW4 5752   4.230   2.293   2.362  0.2594  0.4165  0.0327
    1SOL     OW 5753   4.007   2.411   2.231 -0.0897  0.0916  0.0574
    1SOL    HW2 5754   4.003   2.502   2.258  1.5319 -0.4612  2.3561
    1SOL    HW3 5755   3.939   2.367   2.282  0.0620 -0.2036  0.0120
    1SOL    MW4 5756   3.998   2.417   2.241  0.1440 -0.0205  0.3545
    1SOL     OW 5757   4.011   2.674   2.331 -0.1438  0.0471  0.4227
    1SOL    HW2 5758   4.009   2.669   2.426 -0.1736 -1.9991  0.3448
    1SOL    HW3 5759   3.938   2.731   2.308 -1.1828 -0.8177  1.5521
    1SOL    MW4 5760   4.001   2.681   2.340 -0.2847 -0.3371  0.5615
    1SOL     OW 5761   4.230   2.841   2.272  0.6215  0.0222  0.1164
    1SOL    HW2 5762   4.157   2.785   2.300  0.3324  1.2922  2.0018
    1SOL    HW3 5763   4.308   2.794   2.302  0.3813  0.5452  1.6472
    1SOL    MW4 5764   4.230   2.827   2.280  0.5517  0.2587  0.5672
    1SOL     OW 5765   4.263   3.090   2.393  0.3372 -0.5005 -0.3356
    1SOL    HW2 5766   4.249   3.000   2.363  0.0606 -0.4846 -0.2568
    1SOL    HW3 5767   4.330   3.124   2.334  0.5577 -0.8081 -0.2640
    1SOL    MW4 5768   4.270   3.083   2.381  0.3300 -0.5391 -0.3159
    1SOL     OW 5769   4.024   3.196   2.311 -0.0428 -0.2712  0.2038
    1SOL    HW2 5770   4.027   3.288   2.338  1.3764 -0.8742  2.2553
    1SOL    HW3 5771   4.098   3.156   2.356 -1.2397 -2.6248  0.1402
    1SOL    MW4 5772   4.034   3.203   2.321 -0.0134 -0.6614  0.4661
    1SOL     OW 5773   4.039   3.444   2.402 -0.2837 -0.0663 -0.1446
    1SOL    HW2 5774   4.096   3.484   2.337 -2.6932  1.6954 -1.2167
    1SOL    HW3 5775   3.955   3.488   2.392 -2.0315 -2.9440  1.0488
    1SOL    MW4 5776   4.035   3.455   2.392 -0.8326 -0.2134 -0.1283
    1SOL     OW 5777   4.252   3.575   2.258 -0.1810 -0.3324 -0.3642
    1SOL    HW2 5778   4.236   3.666   2.284 -0.0910 -0.4701  0.1803
    1SOL    HW3 5779   4.270   3.580   2.164  2.1650  0.5069  0.1124
    1SOL    MW4 5780   4.252   3.587   2.249  0.1402 -0.2398 -0.2296
    1SOL     OW 5781   4.224   3.838   2.356  0.0514 -0.3832  0.4759
    1SOL    HW2 5782   4.234   3.814   2.448 -0.0417  2.8220  1.3987
    1SOL    HW3 5783   4.308   3.877   2.333  0.1029 -1.2517 -0.8507
    1SOL    MW4 5784   4.237   3.840   2.365  0.0463 -0.0749  0.4227
    1SOL     OW 5785   4.000   4.017   2.279  0.6674  0.2427  0.1834
    1SOL    HW2 5786   4.066   3.965   2.325  0.1515 -1.0025 -0.4597
    1SOL    HW3 5787   4.028   4.015   2.187  0.3842  0.7015  0.0884
    1SOL    MW4 5788   4.013   4.010   2.273  0.5617  0.1388  0.0861
    1SOL     OW 5789   4.016   4.268   2.376 -0.2975  0.0908  0.1375
    1SOL    HW2 5790   4.096   4.312   2.347  0.0458 -0.1520  0.7189
    1SOL    HW3 5791   4.018   4.183   2.332  0.8990 -0.8172  1.8943
    1SOL    MW4 5792   4.027   4.262   2.366 -0.0944 -0.0610  0.4456
    1SOL     OW 5793   4.255   4.374   2.247  0.4270  0.1814 -0.2800
    1SOL    HW2 5794   4.261   4.450   2.305 -0.0320 -0.5127  0.6875
    1SOL    HW3 5795   4.331   4.320   2.270  1.2888  0.7899 -1.6293
    1SOL    MW4 5796   4.266   4.377   2.258  0.4802  0.1698 -0.3304
    1SOL     OW 5797   0.231   4.587   2.599 -0.4929 -0.1637 -0.0610
    1SOL    HW2 5798   0.220   4.505   2.648 -1.6935 -1.3228 -2.2006
    1SOL    HW3 5799   0.154   4.639   2.622  0.1595  0.3194  1.1241
    1SOL    MW4 5800   0.220   4.583   2.609 -0.5653 -0.2527 -0.1869
    1SOL     OW 5801   0.028   0.060   2.726  0.1118 -0.2394 -0.2316
    1SOL    HW2 5802   0.003   0.076   2.817  1.8475  0.0049  0.2289
    1SOL    HW3 5803   0.009   0.143   2.681  0.2905  0.0053  0.1435
    1SOL    MW4 5804   0.022   0.073   2.732  0.3644 -0.1749 -0.1211
    1SOL     OW 5805   4.460   0.329   2.628  0.0577 -0.0263 -0.2248
    1SOL    HW2 5806   4.539   0.360   2.671 -0.2460  1.2137 -0.5432
    1SOL    HW3 5807   4.474   0.347   2.535  0.6188 -2.4808 -0.6440
    1SOL    MW4 5808   4.472   0.336   2.621  0.0916 -0.1866 -0.3221
    1SOL     OW 5809   0.207   0.476   2.725  0.4459  0.3516  0.7194
    1SOL    HW2 5810   0.214   0.489   2.819  0.8865 -0.8474  0.8552
    1SOL    HW3 5811   0.287   0.431   2.701 -0.4210 -0.8592  0.0394
    1SOL    MW4 5812   0.218   0.472   2.734  0.3897  0.0336  0.6473
    1SOL     OW 5813   0.250   0.745   2.640  0.1366 -0.1426  0.0319
    1SOL    HW2 5814   0.324   0.768   2.696  0.2843  1.7280 -0.8858
    1SOL    HW3 5815   0.227   0.656   2.665  0.9381  0.2525  2.2348
    1SOL    MW4 5816   0.257   0.736   2.650  0.2618  0.1563  0.2015
    1SOL     OW 5817   0.018   0.860   2.731 -0.5265  0.1564  0.1581
    1SOL    HW2 5818  -0.047   0.805   2.688  0.2823 -0.4611 -0.2912
    1SOL    HW3 5819   0.102   0.823   2.705  0.0102  0.9456  0.7297
    1SOL    MW4 5820   0.020   0.848   2.722 -0.3490  0.1791  0.1743
    1SOL     OW 5821   4.487   1.139   2.686  0.0396  0.1369  0.0223
    1SOL    HW2 5822   4.566   1.177   2.725 -0.2366  0.4343  0.2952
    1SOL    HW3 5823   4.488   1.047   2.712 -0.4868  0.4796  1.2900
    1SOL    MW4 5824   4.497   1.132   2.695 -0.0668  0.2215  0.2255
    1SOL     OW 5825   0.248   1.255   2.806 -0.2748  0.2292 -0.4721
    1SOL    HW2 5826   0.303   1.200   2.750 -2.4309 -0.7677 -1.6567
    1SOL    HW3 5827   0.240   1.338   2.757  2.0181  1.2528  0.7800
    1SOL    MW4 5828   0.254   1.259   2.792 -0.2567  0.2327 -0.4630
    1SOL     OW 5829   0.255   1.499   2.657  0.1577  0.3622  0.3343
    1SOL    HW2 5830   0.325   1.558   2.683  0.2704  0.0844  0.6675
    1SOL    HW3 5831   0.176   1.538   2.695 -0.0526  1.3204 -1.0458
    1SOL    MW4 5832   0.254   1.512   2.666  0.1448  0.4520  0.1960
    1SOL     OW 5833   0.013   1.636   2.748 -0.0391 -0.2813  0.2633
    1SOL    HW2 5834   0.001   1.641   2.842  0.1306 -0.3303  0.2878
    1SOL    HW3 5835   0.009   1.727   2.718  0.3245 -0.2274  0.3710
    1SOL    MW4 5836   0.011   1.648   2.756  0.0313 -0.2805  0.2806
    1SOL     OW 5837   4.476   1.891   2.648  0.1978 -0.0281  0.0055
    1SOL    HW2 5838   4.547   1.948   2.675  1.4669 -1.9751  0.9469
    1SOL    HW3 5839   4.482   1.888   2.552  0.7210  0.6346  0.0171
    1SOL    MW4 5840   4.486   1.898   2.639  0.4339 -0.1976  0.1311
    1SOL     OW 5841   0.193   2.046   2.708  0.0537  0.7237  0.0367
    1SOL    HW2 5842   0.275   2.020   2.666 -0.5931 -0.5061 -0.4900
    1SOL    HW3 5843   0.184   2.139   2.686 -0.6734 -0.0603 -3.3162
    1SOL    MW4 5844   0.202   2.055   2.699 -0.1276  0.4580 -0.4749
    1SOL     OW 5845   0.169   2.314   2.652  0.2043  0.8348  0.0283
    1SOL    HW2 5846   0.247   2.360   2.682  0.8212 -0.2567  0.1172
    1SOL    HW3 5847   0.097   2.374   2.671  1.0895  2.1439 -0.6972
    1SOL    MW4 5848   0.170   2.328   2.658  0.4025  0.8636 -0.0560
    1SOL     OW 5849   4.438   2.462   2.737  0.4690 -0.4153 -0.0922
    1SOL    HW2 5850   4.444   2.463   2.832  0.2852 -0.9713 -0.0714
    1SOL    HW3 5851   4.368   2.398   2.718  0.5760 -0.3860 -0.5979
    1SOL    MW4 5852   4.429   2.454   2.747  0.4587 -0.4847 -0.1562
    1SOL     OW 5853   4.490   2.702   2.640  0.5195 -0.0268  0.0466
    1SOL    HW2 5854   4.410   2.744   2.673  0.3965 -0.3618  0.1796
    1SOL    HW3 5855   4.492   2.617   2.684  0.1942 -0.6046 -1.0488
    1SOL    MW4 5856   4.480   2.697   2.650  0.4606 -0.1471 -0.0803
    1SOL     OW 5857   0.211   2.858   2.742  0.1897 -0.4251 -0.6265
    1SOL    HW2 5858   0.218   2.944   2.701  0.3864  0.4411  1.1548
    1SOL    HW3 5859   0.129   2.822   2.710 -0.5586  1.0060 -0.3447
    1SOL    MW4 5860   0.201   2.865   2.733  0.1169 -0.1221 -0.3545
    1SOL     OW 5861   0.220   3.112   2.619  0.2765 -0.0887 -0.0431
    1SOL    HW2 5862   0.304   3.150   2.646  0.4800 -0.0464 -0.7308
    1SOL    HW3 5863   0.213   3.132   2.526  0.2932 -1.5361 -0.3785
    1SOL    MW4 5864   0.230   3.119   2.611  0.3056 -0.2739 -0.1783
    1SOL     OW 5865   0.013   3.230   2.781 -0.0510  0.0236 -0.2171
    1SOL    HW2 5866  -0.069   3.191   2.752 -0.7515  0.1689  1.5469
    1SOL    HW3 5867   0.080   3.189   2.726 -1.2362 -0.4795 -1.2992
    1SOL    MW4 5868   0.011   3.220   2.770 -0.2998 -0.0236 -0.1271
    1SOL     OW 5869   0.012   3.474   2.671  0.1479  0.0666 -0.0892
    1SOL    HW2 5870   0.080   3.533   2.702  0.4380 -0.0596 -0.4860
    1SOL    HW3 5871   0.027   3.392   2.719 -0.5576  0.4686  0.8271
    1SOL    MW4 5872   0.023   3.471   2.681  0.0931  0.1030 -0.0207
    1SOL     OW 5873   0.244   3.585   2.781 -0.0567  0.1979 -0.0944
    1SOL    HW2 5874   0.240   3.574   2.876 -1.2656  0.3365 -0.1142
    1SOL    HW3 5875   0.326   3.545   2.755  0.4439  0.4589  1.0548
    1SOL    MW4 5876   0.254   3.578   2.791 -0.1502  0.2506  0.0546
    1SOL     OW 5877   0.195   3.842   2.638  0.2677  0.1304  0.0941
    1SOL    HW2 5878   0.207   3.752   2.669 -0.3650  0.4584  1.3454
    1SOL    HW3 5879   0.183   3.834   2.544  0.0457 -1.1106  0.2186
    1SOL    MW4 5880   0.195   3.829   2.630  0.1549  0.0100  0.2756
    1SOL     OW 5881   4.452   3.939   2.759  0.3815 -0.0569  0.5284
    1SOL    HW2 5882   4.471   4.025   2.721  1.1082 -0.4035  0.0859
    1SOL    HW3 5883   4.522   3.883   2.726 -0.9399 -1.1811 -0.4105
    1SOL    MW4 5884   4.464   3.943   2.749  0.3028 -0.2508  0.3462
    1SOL     OW 5885   4.468   4.187   2.622  0.2098  0.3373 -0.1943
    1SOL    HW2 5886   4.401   4.234   2.672 -0.0108 -0.3382  0.1505
    1SOL    HW3 5887   4.550   4.230   2.647  0.3428 -1.3104  2.3543
    1SOL    MW4 5888   4.470   4.199   2.632  0.1979  0.0305  0.1874
    1SOL     OW 5889   0.192   4.342   2.733 -0.1546  0.3602  0.1707
    1SOL    HW2 5890   0.196   4.331   2.828  1.1972  0.2690  0.1164
    1SOL    HW3 5891   0.275   4.307   2.701 -0.9113 -0.2896 -1.1227
    1SOL    MW4 5892   0.204   4.336   2.742 -0.0761  0.2627 -0.0072
    1SOL     OW 5893   0.677   4.634   2.605 -0.2726  0.1905 -0.2646
    1SOL    HW2 5894   0.755   4.682   2.635  0.6905 -1.1421 -0.5619
    1SOL    HW3 5895   0.604   4.676   2.650  0.6924  1.0159  0.5621
    1SOL    MW4 5896   0.678   4.646   2.615 -0.0182  0.1235 -0.1948
    1SOL     OW 5897   0.445   0.071   2.716  0.1881  0.3531  0.1760
    1SOL    HW2 5898   0.428   0.073   2.810  0.2790  0.6832  0.1881
    1SOL    HW3 5899   0.379   0.013   2.680 -0.6943  1.2795  0.2787
    1SOL    MW4 5900   0.434   0.064   2.724  0.0837  0.5189  0.1912
    1SOL     OW 5901   0.423   0.333   2.637  0.5440 -0.1518  0.0549
    1SOL    HW2 5902   0.498   0.375   2.679  0.2826  0.4046 -0.0359
    1SOL    HW3 5903   0.424   0.244   2.672  0.7896  0.0779  0.6482
    1SOL    MW4 5904   0.433   0.327   2.647  0.5419 -0.0481  0.1214
    1SOL     OW 5905   0.644   0.463   2.746 -0.1917  0.7736  0.5385
    1SOL    HW2 5906   0.633   0.454   2.841 -0.4403  0.0687  0.4528
    1SOL    HW3 5907   0.730   0.426   2.728  0.8564  3.0278  0.7654
    1SOL    MW4 5908   0.654   0.457   2.756 -0.0862  0.9780  0.5569
    1SOL     OW 5909   0.652   0.728   2.658  0.1413 -0.2891 -0.5392
    1SOL    HW2 5910   0.718   0.779   2.704  1.2077 -0.7430 -1.5637
    1SOL    HW3 5911   0.663   0.639   2.692 -1.3182  0.0076  0.8006
    1SOL    MW4 5912   0.662   0.723   2.669  0.0895 -0.3098 -0.4976
    1SOL     OW 5913   0.446   0.846   2.802  0.0858 -0.4851 -0.0374
    1SOL    HW2 5914   0.443   0.936   2.771  1.1831 -1.3358 -2.7972
    1SOL    HW3 5915   0.518   0.806   2.752  0.1627 -2.6657  1.7428
    1SOL    MW4 5916   0.455   0.852   2.791  0.2407 -0.8850 -0.1669
    1SOL     OW 5917   0.438   1.085   2.682 -0.0703  0.1022 -0.2263
    1SOL    HW2 5918   0.503   1.150   2.709  0.5124 -0.9693  0.9987
    1SOL    HW3 5919   0.430   1.097   2.588  0.8241  1.2257 -0.1714
    1SOL    MW4 5920   0.445   1.095   2.673  0.1245  0.1091 -0.0577
    1SOL     OW 5921   0.653   1.279   2.707  0.4803 -0.3616  0.2354
    1SOL    HW2 5922   0.665   1.291   2.801 -0.5895 -2.0666  0.6001
    1SOL    HW3 5923   0.733   1.236   2.677 -0.7554 -3.3132  1.0553
    1SOL    MW4 5924   0.665   1.275   2.715  0.1761 -0.9760  0.3920
    1SOL     OW 5925   0.674   1.544   2.670 -0.2861  0.5130 -0.2462
    1SOL    HW2 5926   0.594   1.579   2.711 -0.2077  1.2436 -0.7107
    1SOL    HW3 5927   0.669   1.450   2.686 -0.2945  0.7657  1.3921
    1SOL    MW4 5928   0.663   1.536   2.678 -0.2768  0.6428 -0.0913
    1SOL     OW 5929   0.448   1.685   2.762 -0.3904  0.0200 -0.1420
    1SOL    HW2 5930   0.448   1.695   2.857  1.1426  0.4138 -0.1576
    1SOL    HW3 5931   0.442   1.775   2.729 -0.1319 -0.0584 -0.4057
    1SOL    MW4 5932   0.447   1.698   2.770 -0.1540  0.0618 -0.1786
    1SOL     OW 5933   0.418   1.925   2.613 -0.1212  0.1041  0.4515
    1SOL    HW2 5934   0.489   1.967   2.661  0.0421 -0.2350  0.5028
    1SOL    HW3 5935   0.445   1.931   2.521 -1.0239  1.8920  0.2814
    1SOL    MW4 5936   0.431   1.931   2.607 -0.2187  0.2953  0.4358
    1SOL     OW 5937   0.629   2.068   2.718  0.1964 -0.1966 -0.4466
    1SOL    HW2 5938   0.640   2.064   2.813 -0.7926 -2.1097 -0.4030
    1SOL    HW3 5939   0.714   2.042   2.683  1.0813  2.0995 -0.1252
    1SOL    MW4 5940   0.642   2.064   2.726  0.1827 -0.1462 -0.3986
    1SOL     OW 5941   0.633   2.324   2.598  0.2014  0.2460 -0.6446
    1SOL    HW2 5942   0.704   2.362   2.649  0.1323 -0.5091  0.0413
    1SOL    HW3 5943   0.619   2.238   2.638 -0.8519  0.2427 -0.9915
    1SOL    MW4 5944   0.640   2.318   2.610  0.0533  0.1459 -0.5999
    1SOL     OW 5945   0.425   2.443   2.733 -0.1386 -0.0817  0.0177
    1SOL    HW2 5946   0.424   2.536   2.712 -1.5368  0.0252  0.4850
    1SOL    HW3 5947   0.506   2.410   2.694  0.7390  1.4743  0.5052
    1SOL    MW4 5948   0.435   2.451   2.725 -0.2073  0.1376  0.1438
    1SOL     OW 5949   0.417   2.713   2.624 -0.6547 -0.3636  0.5772
    1SOL    HW2 5950   0.491   2.761   2.661 -0.3519  1.1638 -1.8778
    1SOL    HW3 5951   0.341   2.750   2.669 -0.2594  1.1062  0.0654
    1SOL    MW4 5952   0.417   2.724   2.635 -0.5626  0.0317  0.1857
    1SOL     OW 5953   0.628   2.814   2.744  0.2907 -0.1483  0.2132
    1SOL    HW2 5954   0.637   2.822   2.839 -0.7883 -0.0143  0.3116
    1SOL    HW3 5955   0.650   2.901   2.711  0.8006 -0.2315  0.3278
    1SOL    MW4 5956   0.632   2.827   2.753  0.2156 -0.1414  0.2413
    1SOL     OW 5957   0.675   3.055   2.658 -0.2349  0.1349  0.2309
    1SOL    HW2 5958   0.754   3.102   2.684  0.7424 -1.2311 -0.2005
    1SOL    HW3 5959   0.661   3.080   2.566  0.9042 -1.2263 -0.3294
    1SOL    MW4 5960   0.683   3.065   2.649  0.0443 -0.2248  0.1001
    1SOL     OW 5961   0.446   3.199   2.753  0.4945 -0.1575  0.1127
    1SOL    HW2 5962   0.420   3.204   2.844 -1.2044  0.8592 -0.4081
    1SOL    HW3 5963   0.511   3.128   2.750  0.5194 -0.2286  2.0758
    1SOL    MW4 5964   0.451   3.190   2.764  0.2736 -0.0327  0.3030
    1SOL     OW 5965   0.486   3.479   2.666 -0.7472  0.2285 -0.2699
    1SOL    HW2 5966   0.473   3.391   2.701  0.1317  0.3516  0.3676
    1SOL    HW3 5967   0.485   3.467   2.571  1.8940 -0.8663 -0.2090
    1SOL    MW4 5968   0.484   3.466   2.658 -0.2828  0.1004 -0.1776
    1SOL     OW 5969   0.692   3.619   2.752 -0.2600 -0.2684  0.5742
    1SOL    HW2 5970   0.700   3.610   2.847  0.8848 -0.4141  0.4677
    1SOL    HW3 5971   0.614   3.569   2.730 -0.8074  0.1688  1.5031
    1SOL    MW4 5972   0.683   3.611   2.762 -0.1812 -0.2301  0.6826
    1SOL     OW 5973   0.669   3.885   2.644  0.1760  0.2942  0.1187
    1SOL    HW2 5974   0.582   3.921   2.660 -0.2114 -0.7918  0.5092
    1SOL    HW3 5975   0.666   3.796   2.681  1.9194  0.7585  1.4657
    1SOL    MW4 5976   0.657   3.878   2.651  0.3549  0.2122  0.3481
    1SOL     OW 5977   0.426   3.973   2.723 -0.0270 -0.3408 -0.0630
    1SOL    HW2 5978   0.405   4.059   2.685 -0.3469 -0.7878 -0.9057
    1SOL    HW3 5979   0.354   3.916   2.695  0.5394 -1.0495 -0.0811
    1SOL    MW4 5980   0.413   3.977   2.714  0.0056 -0.4933 -0.1762
    1SOL     OW 5981   0.425   4.233   2.639  0.2732 -0.0584 -0.1606
    1SOL    HW2 5982   0.499   4.283   2.674 -0.7380  1.2503  0.1613
    1SOL    HW3 5983   0.430   4.247   2.544  0.6860 -0.3267 -0.1792
    1SOL    MW4 5984   0.435   4.242   2.631  0.1942  0.0792 -0.1206
    1SOL     OW 5985   0.658   4.389   2.724  0.3415 -0.0219 -0.0717
    1SOL    HW2 5986   0.725   4.324   2.703  1.4937  0.6809  1.3660
    1SOL    HW3 5987   0.689   4.470   2.684  1.0713  0.6255  1.7272
    1SOL    MW4 5988   0.671   4.391   2.716  0.5898  0.1559  0.3557
    1SOL     OW 5989   1.109   4.586   2.630  0.1118  0.2242  0.0216
    1SOL    HW2 5990   1.178   4.648   2.653 -1.8529  1.6790  2.2895
    1SOL    HW3 5991   1.131   4.507   2.680  0.3273  0.5671  0.4740
    1SOL    MW4 5992   1.121   4.583   2.640 -0.1189  0.4616  0.3805
    1SOL     OW 5993   0.902   0.067   2.710  0.0981  0.1160  0.4621
    1SOL    HW2 5994   0.900   0.069   2.805  1.5143  1.7487  0.4682
    1SOL    HW3 5995   0.975   0.008   2.688  1.5508  1.9154  0.4047
    1SOL    MW4 5996   0.911   0.059   2.719  0.4765  0.5689  0.4551
    1SOL     OW 5997   0.891   0.354   2.659  0.4668  0.5341  0.3436
    1SOL    HW2 5998   0.909   0.261   2.674 -1.2241  0.2751  0.8216
    1SOL    HW3 5999   0.878   0.361   2.564 -0.8788  0.0011  0.4761
    1SOL    MW4 6000   0.892   0.343   2.648  0.0662  0.4296  0.4239
    1SOL     OW 6001   1.095   0.486   2.762 -0.0062 -0.1470 -0.4229
    1SOL    HW2 6002   1.076   0.572   2.725 -1.4285 -0.4537 -0.4292
    1SOL    HW3 6003   1.018   0.433   2.742  0.8450 -1.4281 -0.4169
    1SOL    MW4 6004   1.083   0.490   2.754 -0.0814 -0.3565 -0.4230
    1SOL     OW 6005   1.063   0.749   2.668 -0.0579  0.2943 -0.1856
    1SOL    HW2 6006   1.137   0.801   2.700  1.6254 -2.0858 -0.0552
    1SOL    HW3 6007   1.071   0.753   2.572  0.9346 -0.8407 -0.1705
    1SOL    MW4 6008   1.074   0.756   2.659  0.2952 -0.1695 -0.1667
    1SOL     OW 6009   0.836   0.886   2.808 -0.5011 -0.2243  0.0148
    1SOL    HW2 6010   0.848   0.909   2.900  2.2028  0.6291 -0.5160
    1SOL    HW3 6011   0.911   0.831   2.787 -1.0247 -0.3118 -1.7342
    1SOL    MW4 6012   0.847   0.882   2.818 -0.2134 -0.1233 -0.2861
    1SOL     OW 6013   0.895   1.148   2.716 -0.0828 -0.4090  0.0816
    1SOL    HW2 6014   0.862   1.077   2.771 -0.0960 -1.2698 -1.0288
    1SOL    HW3 6015   0.908   1.109   2.630  1.4190  0.5398 -0.1541
    1SOL    MW4 6016   0.892   1.134   2.712  0.1136 -0.3974 -0.0961
    1SOL     OW 6017   1.137   1.295   2.763 -0.0007  0.0049  0.4016
    1SOL    HW2 6018   1.129   1.381   2.723 -0.1994 -0.1440  0.1174
    1SOL    HW3 6019   1.056   1.250   2.740 -0.1029 -0.0958  0.9436
    1SOL    MW4 6020   1.126   1.300   2.755 -0.0404 -0.0279  0.4356
    1SOL     OW 6021   1.141   1.552   2.659  0.3571  0.4110 -0.0520
    1SOL    HW2 6022   1.056   1.594   2.665  0.4312  0.5256  0.2076
    1SOL    HW3 6023   1.152   1.532   2.566 -0.7698 -1.3009  0.1456
    1SOL    MW4 6024   1.132   1.555   2.647  0.2182  0.2002  0.0083
    1SOL     OW 6025   0.905   1.670   2.709  0.4101  0.1290  0.1287
    1SOL    HW2 6026   0.916   1.698   2.800 -0.6688  0.5823  0.1203
    1SOL    HW3 6027   0.818   1.630   2.707  1.6918 -2.7710  0.0182
    1SOL    MW4 6028   0.895   1.668   2.721  0.4368 -0.1938  0.1128
    1SOL     OW 6029   0.865   1.948   2.641  0.2510 -0.0118 -0.1414
    1SOL    HW2 6030   0.940   1.993   2.680  0.7527 -1.0930  0.1636
    1SOL    HW3 6031   0.874   1.857   2.670 -0.6908 -0.3334 -0.8340
    1SOL    MW4 6032   0.876   1.942   2.650  0.1929 -0.1968 -0.1926
    1SOL     OW 6033   1.091   2.070   2.757  0.3298  0.2257  0.0052
    1SOL    HW2 6034   1.156   2.012   2.718 -1.1066 -0.9931 -0.6385
    1SOL    HW3 6035   1.095   2.149   2.704  0.0848 -0.5051 -1.1359
    1SOL    MW4 6036   1.100   2.073   2.745  0.1080 -0.0315 -0.2301
    1SOL     OW 6037   1.083   2.320   2.621 -0.4578  0.0548  0.0647
    1SOL    HW2 6038   1.153   2.380   2.647  1.3833 -1.8085 -0.4211
    1SOL    HW3 6039   1.093   2.311   2.526  0.4166 -2.3248  0.3490
    1SOL    MW4 6040   1.093   2.327   2.612 -0.0995 -0.5052  0.0379
    1SOL     OW 6041   0.857   2.431   2.730 -0.0368  0.0629  0.3735
    1SOL    HW2 6042   0.839   2.512   2.683 -1.9019 -1.0211 -0.8610
    1SOL    HW3 6043   0.939   2.399   2.692 -0.0438  0.6576 -0.1430
    1SOL    MW4 6044   0.866   2.437   2.719 -0.2838 -0.0017  0.1426
    1SOL     OW 6045   0.851   2.703   2.613 -0.0395  0.1993  0.0473
    1SOL    HW2 6046   0.930   2.744   2.648  0.2954 -0.1425 -0.3026
    1SOL    HW3 6047   0.780   2.737   2.668  0.3467  0.5161  0.3553
    1SOL    MW4 6048   0.852   2.713   2.625  0.0556  0.1960  0.0417
    1SOL     OW 6049   1.083   2.832   2.709  0.0000  0.0000  0.4340
    1SOL    HW2 6050   1.106   2.825   2.802  0.0000  0.0000  0.4345
    1SOL    HW3 6051   1.159   2.795   2.663  0.0000  0.0000  0.4360
    1SOL    MW4 6052   1.096   2.826   2.715  0.0000  0.0000  0.4342
    1SOL     OW 6053   1.148   3.096   2.641  0.0000  0.0000  0.0549
    1SOL    HW2 6054   1.122   3.007   2.664  0.0000  0.0000  0.0574
    1SOL    HW3 6055   1.136   3.101   2.546  0.0000  0.0000  0.0549
    1SOL    MW4 6056   1.143   3.085   2.631  0.0000  0.0000  0.0553
    1SOL     OW 6057   0.919   3.208   2.734  0.0000  0.0000 -0.1110
    1SOL    HW2 6058   0.903   3.287   2.682  0.0000  0.0000 -0.0990
    1SOL    HW3 6059   1.006   3.179   2.706  0.0000  0.0000 -0.1290
    1SOL    MW4 6060   0.928   3.214   2.723  0.0000  0.0000 -0.1118
    1SOL     OW 6061   0.887   3.462   2.620  0.0000  0.0000  0.2766
    1SOL    HW2 6062   0.961   3.507   2.663  0.0000  0.0000  0.2921
    1SOL    HW3 6063   0.810   3.511   2.651  0.0000  0.0000  0.2609
    1SOL    MW4 6064   0.887   3.475   2.630  0.0000  0.0000  0.2766
    1SOL     OW 6065   1.102   3.599   2.741  0.0000  0.0000 -0.1712
    1SOL    HW2 6066   1.101   3.626   2.833  0.0000  0.0000 -0.1722
    1SOL    HW3 6067   1.100   3.681   2.692  0.0000  0.0000 -0.1745
    1SOL    MW4 6068   1.102   3.613   2.746  0.0000  0.0000 -0.1719
    1SOL     OW 6069   1.098   3.851   2.637  0.0000  0.0000  0.0617
    1SOL    HW2 6070   1.178   3.889   2.675  0.0000  0.0000  0.0544
    1SOL    HW3 6071   1.110   3.859   2.543  0.0000  0.0000  0.0604
    1SOL    MW4 6072   1.110   3.857   2.630  0.0000  0.0000  0.0606
    1SOL     OW 6073   0.893   4.008   2.750  0.0000  0.0000  0.0583
    1SOL    HW2 6074   0.958   3.963   2.696  0.0000  0.0000  0.0666
    1SOL    HW3 6075   0.809   3.970   2.722  0.0000  0.0000  0.0303
    1SOL    MW4 6076   0.890   3.997   2.740  0.0000  0.0000  0.0558
    1SOL     OW 6077   0.888   4.266   2.677  0.0000  0.0000  0.0354
    1SOL    HW2 6078   0.892   4.174   2.702  0.0000  0.0000  0.0305
    1SOL    HW3 6079   0.884   4.265   2.581  0.0000  0.0000  0.0351
    1SOL    MW4 6080   0.888   4.254   2.667  0.0000  0.0000  0.0346
    1SOL     OW 6081   1.144   4.351   2.770  0.0000  0.0000 -0.1603
    1SOL    HW2 6082   1.137   4.378   2.861  0.0000  0.0000 -0.1614
    1SOL    HW3 6083   1.055   4.327   2.745  0.0000  0.0000 -0.1714
    1SOL    MW4 6084   1.131   4.351   2.778  0.0000  0.0000 -0.1621
    1SOL     OW 6085   1.582   4.635   2.683 -0.2635 -0.0623  0.0777
    1SOL    HW2 6086   1.586   4.544   2.714 -2.9699 -0.3394 -0.2896
    1SOL    HW3 6087   1.581   4.628   2.588  2.3872  0.5187 -0.0174
    1SOL    MW4 6088   1.582   4.622   2.675 -0.2710 -0.0224  0.0165
    1SOL     OW 6089   1.321   0.076   2.719  0.1968  0.4929  0.1115
    1SOL    HW2 6090   1.321   0.168   2.692  1.5788  0.4698 -0.0156
    1SOL    HW3 6091   1.413   0.051   2.716 -0.2626 -1.1737 -0.8250
    1SOL    MW4 6092   1.333   0.085   2.715  0.3184  0.2699 -0.0286
    1SOL     OW 6093   1.336   0.360   2.639 -0.2766 -0.3385  0.0154
    1SOL    HW2 6094   1.402   0.411   2.687 -1.0616  0.1538  0.5743
    1SOL    HW3 6095   1.253   0.383   2.680 -0.6911 -1.7462 -0.0131
    1SOL    MW4 6096   1.334   0.370   2.650 -0.4349 -0.4592  0.0854
    1SOL     OW 6097   1.553   0.509   2.759 -0.2600 -0.3118 -0.0043
    1SOL    HW2 6098   1.634   0.480   2.718  1.5896  1.1402  2.5108
    1SOL    HW3 6099   1.546   0.602   2.738 -0.0076  0.1258  1.7961
    1SOL    MW4 6100   1.562   0.517   2.751  0.0174 -0.0625  0.5651
    1SOL     OW 6101   1.534   0.763   2.684 -0.0735 -0.2226 -0.5922
    1SOL    HW2 6102   1.442   0.788   2.694 -0.9379 -2.7697 -1.8684
    1SOL    HW3 6103   1.549   0.766   2.589  0.5677 -1.7885 -0.5560
    1SOL    MW4 6104   1.523   0.767   2.673 -0.1029 -0.7652 -0.7558
    1SOL     OW 6105   1.288   0.887   2.744 -0.5675  0.3730 -0.5754
    1SOL    HW2 6106   1.304   0.897   2.838  0.5494 -0.1201 -0.7035
    1SOL    HW3 6107   1.312   0.971   2.706 -0.2625  0.3187 -0.5069
    1SOL    MW4 6108   1.293   0.899   2.751 -0.3800  0.3008 -0.5832
    1SOL     OW 6109   1.357   1.149   2.652  0.2362  0.3072  0.1749
    1SOL    HW2 6110   1.436   1.188   2.691  1.1743 -1.2000 -0.1942
    1SOL    HW3 6111   1.285   1.204   2.684  1.3553  1.2734  1.0850
    1SOL    MW4 6112   1.358   1.162   2.662  0.5077  0.2358  0.2460
    1SOL     OW 6113   1.579   1.263   2.771  0.0454 -0.3184 -0.0213
    1SOL    HW2 6114   1.588   1.254   2.866 -0.5637 -1.5750 -0.0742
    1SOL    HW3 6115   1.662   1.231   2.735  0.2340  0.0568  0.0785
    1SOL    MW4 6116   1.591   1.258   2.779 -0.0103 -0.4348 -0.0153
    1SOL     OW 6117   1.561   1.533   2.686  0.3200 -0.2976  0.2620
    1SOL    HW2 6118   1.562   1.442   2.716  0.0914 -0.4774 -0.2664
    1SOL    HW3 6119   1.565   1.527   2.590  0.8824  0.2659  0.2432
    1SOL    MW4 6120   1.562   1.520   2.677  0.3639 -0.2469  0.1898
    1SOL     OW 6121   1.358   1.696   2.782  0.0249 -0.1762  0.3786
    1SOL    HW2 6122   1.428   1.640   2.749 -0.3009 -0.0984 -0.4776
    1SOL    HW3 6123   1.278   1.647   2.764 -0.1640 -0.1367  1.0870
    1SOL    MW4 6124   1.356   1.682   2.775 -0.0430 -0.1608  0.3591
    1SOL     OW 6125   1.336   1.939   2.658 -0.0726 -0.1388 -0.0395
    1SOL    HW2 6126   1.349   1.849   2.690  2.4170 -0.5895 -2.0642
    1SOL    HW3 6127   1.329   1.929   2.563  0.1149  1.7947 -0.2757
    1SOL    MW4 6128   1.337   1.925   2.650  0.2806  0.0567 -0.3378
    1SOL     OW 6129   1.561   2.071   2.740  0.1884 -0.3845  0.2128
    1SOL    HW2 6130   1.629   2.013   2.707  0.6795  0.6408 -0.6119
    1SOL    HW3 6131   1.479   2.031   2.713  0.5212 -0.7027 -0.3354
    1SOL    MW4 6132   1.560   2.058   2.732  0.2972 -0.2911  0.0319
    1SOL     OW 6133   1.521   2.341   2.654 -0.2322  0.1562 -0.4084
    1SOL    HW2 6134   1.603   2.387   2.675 -1.4700  1.1640  2.4665
    1SOL    HW3 6135   1.532   2.254   2.694 -1.0178  0.7251  1.1043
    1SOL    MW4 6136   1.533   2.335   2.662 -0.4991  0.3643  0.1707
    1SOL     OW 6137   1.289   2.471   2.721 -0.1042 -0.0877 -0.5532
    1SOL    HW2 6138   1.297   2.562   2.690 -0.4852  0.2084  0.2098
    1SOL    HW3 6139   1.364   2.426   2.683  0.4395  0.6999 -0.4112
    1SOL    MW4 6140   1.300   2.477   2.712 -0.0829  0.0553 -0.4337
    1SOL     OW 6141   1.321   2.730   2.606  0.2989  0.2599 -0.0876
    1SOL    HW2 6142   1.389   2.788   2.640  1.1240 -1.0822  0.5844
    1SOL    HW3 6143   1.344   2.717   2.514 -0.4430  1.7752 -0.4972
    1SOL    MW4 6144   1.333   2.736   2.598  0.3097  0.2828 -0.0529
    1SOL     OW 6145   1.560   2.867   2.724  0.3717 -0.6386 -0.3799
    1SOL    HW2 6146   1.548   2.859   2.819  1.6818  2.1384  0.0827
    1SOL    HW3 6147   1.646   2.829   2.708  0.6577 -0.0315 -0.2799
    1SOL    MW4 6148   1.570   2.861   2.735  0.5823 -0.1922 -0.3059
    1SOL     OW 6149   1.563   3.094   2.572 -0.5274  0.3510  0.6094
    1SOL    HW2 6150   1.630   3.145   2.618  1.0470 -0.7455 -0.4349
    1SOL    HW3 6151   1.564   3.009   2.616 -1.6276  0.5218  0.9572
    1SOL    MW4 6152   1.572   3.089   2.584 -0.4648  0.2291  0.5171
    1SOL     OW 6153   1.359   3.221   2.737 -0.8597  0.2959  0.1533
    1SOL    HW2 6154   1.441   3.196   2.695 -0.3045 -0.5156  1.6559
    1SOL    HW3 6155   1.292   3.173   2.689 -0.2314 -0.7019  0.2599
    1SOL    MW4 6156   1.361   3.211   2.725 -0.7035  0.0572  0.3655
    1SOL     OW 6157   1.347   3.477   2.667  0.2118  0.4129  0.3363
    1SOL    HW2 6158   1.339   3.388   2.702  0.7417  0.0763 -0.3776
    1SOL    HW3 6159   1.268   3.522   2.697  0.1680 -0.1581  1.1024
    1SOL    MW4 6160   1.335   3.471   2.676  0.2759  0.2930  0.3433
    1SOL     OW 6161   1.572   3.622   2.739  0.0978  0.0345 -0.2156
    1SOL    HW2 6162   1.650   3.576   2.709 -0.2027  0.6817 -2.0638
    1SOL    HW3 6163   1.499   3.566   2.713 -0.0347 -0.9985  2.3017
    1SOL    MW4 6164   1.572   3.609   2.731  0.0408 -0.0162 -0.1273
    1SOL     OW 6165   1.567   3.884   2.663 -0.4254  0.5031 -0.4936
    1SOL    HW2 6166   1.485   3.910   2.705 -0.6296 -0.2313 -0.4372
    1SOL    HW3 6167   1.584   3.796   2.697  0.3354  0.6169 -0.5787
    1SOL    MW4 6168   1.558   3.876   2.673 -0.3520  0.4210 -0.4971
    1SOL     OW 6169   1.311   3.980   2.730  0.5338  0.3607 -0.2554
    1SOL    HW2 6170   1.335   3.993   2.821 -0.4173  1.8967 -0.2206
    1SOL    HW3 6171   1.323   4.065   2.689  1.0455 -0.3401 -1.5952
    1SOL    MW4 6172   1.316   3.993   2.737  0.4758  0.4709 -0.4275
    1SOL     OW 6173   1.361   4.252   2.637 -0.7986  0.2339 -0.6332
    1SOL    HW2 6174   1.282   4.294   2.669 -0.9495  0.2342 -0.9978
    1SOL    HW3 6175   1.355   4.259   2.541 -0.6487 -0.2858 -0.6835
    1SOL    MW4 6176   1.350   4.258   2.628 -0.7987  0.1650 -0.6876
    1SOL     OW 6177   1.592   4.368   2.758 -0.0921  0.0584 -0.2587
    1SOL    HW2 6178   1.569   4.374   2.850  0.6958  0.3089 -0.0711
    1SOL    HW3 6179   1.521   4.318   2.718  0.0560 -0.9141  0.6749
    1SOL    MW4 6180   1.580   4.362   2.765  0.0315 -0.0367 -0.1109
    1SOL     OW 6181   1.987   4.663   2.661 -0.1107 -0.3881 -0.5622
    1SOL    HW2 6182   2.070   4.710   2.674  0.6533 -1.8761  0.0359
    1SOL    HW3 6183   1.989   4.635   2.570 -0.7472  1.0426 -1.0370
    1SOL    MW4 6184   1.998   4.666   2.651 -0.0939 -0.3958 -0.5460
    1SOL     OW 6185   1.799   0.152   2.776 -0.1693 -0.0300  0.4593
    1SOL    HW2 6186   1.863   0.096   2.731 -0.0261  0.2170  0.3573
    1SOL    HW3 6187   1.714   0.115   2.751 -0.0455 -0.9409  1.3597
    1SOL    MW4 6188   1.796   0.140   2.766 -0.1341 -0.1176  0.5646
    1SOL     OW 6189   1.781   0.391   2.639 -0.4836 -0.3007  0.0823
    1SOL    HW2 6190   1.854   0.438   2.681 -0.6315 -0.7755  0.8699
    1SOL    HW3 6191   1.776   0.308   2.686 -1.5892 -0.2355  0.0862
    1SOL    MW4 6192   1.790   0.386   2.651 -0.6490 -0.3548  0.1867
    1SOL     OW 6193   1.987   0.518   2.730 -0.3382 -0.0787  0.7141
    1SOL    HW2 6194   2.072   0.483   2.706  0.4939  0.8615  2.1902
    1SOL    HW3 6195   1.994   0.612   2.713 -1.5769 -0.1814 -0.4932
    1SOL    MW4 6196   1.999   0.526   2.725 -0.3918  0.0318  0.7493
    1SOL     OW 6197   2.026   0.790   2.676  0.0248 -0.3882  0.1165
    1SOL    HW2 6198   1.945   0.833   2.705 -0.0893 -0.0349 -0.7246
    1SOL    HW3 6199   2.024   0.797   2.581  1.0053 -0.4587  0.0902
    1SOL    MW4 6200   2.015   0.796   2.668  0.1390 -0.3510  0.0019
    1SOL     OW 6201   1.770   0.895   2.777 -0.5750  0.3334 -0.4678
    1SOL    HW2 6202   1.770   0.987   2.752 -1.1135  0.1987 -0.9880
    1SOL    HW3 6203   1.693   0.858   2.733 -0.2445 -0.4079 -0.4405
    1SOL    MW4 6204   1.760   0.902   2.768 -0.6024  0.2177 -0.5326
    1SOL     OW 6205   1.828   1.162   2.679 -0.2874 -0.3635  0.5276
    1SOL    HW2 6206   1.891   1.223   2.717 -0.7351  0.3864  0.0940
    1SOL    HW3 6207   1.827   1.184   2.586 -1.6329  0.0370  0.6318
    1SOL    MW4 6208   1.836   1.173   2.672 -0.5239 -0.2117  0.4842
    1SOL     OW 6209   2.030   1.322   2.783 -0.3532  0.1048 -0.1481
    1SOL    HW2 6210   2.012   1.305   2.876 -0.6914  0.8527 -0.0758
    1SOL    HW3 6211   2.097   1.257   2.760  0.2368  0.3540  0.8052
    1SOL    MW4 6212   2.037   1.311   2.792 -0.3200  0.2365 -0.0124
    1SOL     OW 6213   2.004   1.549   2.634 -0.3309  0.1369  0.1278
    1SOL    HW2 6214   1.932   1.600   2.671  0.1413  0.7039  0.2709
    1SOL    HW3 6215   2.011   1.472   2.691 -0.7789  0.1084  0.1473
    1SOL    MW4 6216   1.995   1.545   2.646 -0.3277  0.2078  0.1495
    1SOL     OW 6217   1.772   1.677   2.773  0.1077 -0.3065  0.0095
    1SOL    HW2 6218   1.753   1.681   2.867 -1.0404 -0.7745 -0.1893
    1SOL    HW3 6219   1.698   1.629   2.736 -0.3010  1.3316 -1.3726
    1SOL    MW4 6220   1.759   1.671   2.780 -0.0978 -0.1521 -0.1991
    1SOL     OW 6221   1.789   1.924   2.641  0.0219  0.1993 -0.0935
    1SOL    HW2 6222   1.873   1.963   2.665 -0.3055  0.7596  0.1497
    1SOL    HW3 6223   1.791   1.837   2.681 -0.5172  1.1309  2.0122
    1SOL    MW4 6224   1.800   1.917   2.649 -0.0923  0.3961  0.2165
    1SOL     OW 6225   2.035   2.020   2.726  0.0779  0.0254 -0.0525
    1SOL    HW2 6226   2.024   2.019   2.821  2.5800 -1.4823  0.2832
    1SOL    HW3 6227   2.041   2.113   2.703  0.5319  0.3681  1.4121
    1SOL    MW4 6228   2.035   2.032   2.736  0.4680 -0.1280  0.1850
    1SOL     OW 6229   2.023   2.294   2.659  0.4632 -0.2400  0.0886
    1SOL    HW2 6230   2.092   2.357   2.678 -0.4693  0.9602 -0.4352
    1SOL    HW3 6231   2.007   2.302   2.565 -1.9765  1.1742  0.5805
    1SOL    MW4 6232   2.030   2.303   2.649  0.0184  0.1051  0.0842
    1SOL     OW 6233   1.795   2.459   2.711 -0.1906  0.0569  0.5231
    1SOL    HW2 6234   1.803   2.477   2.804  0.0862 -0.1199  0.5379
    1SOL    HW3 6235   1.867   2.398   2.693 -1.4435 -1.4791  0.5990
    1SOL    MW4 6236   1.806   2.453   2.721 -0.3195 -0.1688  0.5352
    1SOL     OW 6237   1.780   2.732   2.635 -0.2003 -0.1982  0.4185
    1SOL    HW2 6238   1.788   2.639   2.658 -0.0422 -0.1239  0.6691
    1SOL    HW3 6239   1.756   2.732   2.543 -0.2786 -0.4908  0.4380
    1SOL    MW4 6240   1.778   2.720   2.626 -0.1898 -0.2270  0.4542
    1SOL     OW 6241   2.023   2.847   2.706  0.0938 -0.3690 -0.3255
    1SOL    HW2 6242   2.101   2.799   2.678  0.2862 -0.7217  0.7686
    1SOL    HW3 6243   1.949   2.793   2.678  0.1513  0.7676 -2.8564
    1SOL    MW4 6244   2.024   2.834   2.699  0.1266 -0.2656 -0.5150
    1SOL     OW 6245   2.011   3.139   2.687  0.0334  0.0799 -0.0653
    1SOL    HW2 6246   2.027   3.045   2.702  1.7904  0.4226  0.3710
    1SOL    HW3 6247   1.991   3.146   2.594 -1.0643 -0.8495  0.0922
    1SOL    MW4 6248   2.010   3.127   2.677  0.1202  0.0026  0.0131
    1SOL     OW 6249   1.764   3.209   2.722 -0.0706 -0.3680  0.1251
    1SOL    HW2 6250   1.781   3.298   2.694 -1.9794 -0.3905 -1.1928
    1SOL    HW3 6251   1.849   3.166   2.720  0.7542  1.2434  0.1834
    1SOL    MW4 6252   1.777   3.215   2.718 -0.2136 -0.1583 -0.0410
    1SOL     OW 6253   1.780   3.470   2.619 -0.1005 -0.4318  0.2384
    1SOL    HW2 6254   1.862   3.509   2.649 -0.0699 -0.0334 -0.3690
    1SOL    HW3 6255   1.779   3.483   2.525 -0.7612 -0.6332  0.2116
    1SOL    MW4 6256   1.790   3.477   2.611 -0.1836 -0.4058  0.1547
    1SOL     OW 6257   2.006   3.599   2.697 -0.2787 -0.0720  0.6595
    1SOL    HW2 6258   2.006   3.607   2.793  0.8538  0.8924  0.5776
    1SOL    HW3 6259   2.089   3.556   2.676 -0.2148  0.3366  0.0628
    1SOL    MW4 6260   2.017   3.594   2.707 -0.1209  0.1092  0.5701
    1SOL     OW 6261   2.039   3.880   2.641  0.6681 -0.2553  0.2360
    1SOL    HW2 6262   1.962   3.921   2.680 -0.2980  0.3885 -2.2810
    1SOL    HW3 6263   2.020   3.786   2.645 -0.3919 -0.0870 -0.6365
    1SOL    MW4 6264   2.026   3.873   2.647  0.4008 -0.1481 -0.2112
    1SOL     OW 6265   1.818   3.981   2.774  0.0107  0.2586 -0.1124
    1SOL    HW2 6266   1.825   4.074   2.754  0.3120  0.2456 -0.0751
    1SOL    HW3 6267   1.737   3.953   2.730 -0.1023  0.5450 -0.0876
    1SOL    MW4 6268   1.808   3.989   2.765  0.0356  0.2949 -0.1040
    1SOL     OW 6269   1.843   4.235   2.692  0.4255  0.2200  0.8023
    1SOL    HW2 6270   1.769   4.281   2.731  0.5680 -0.5181  1.9604
    1SOL    HW3 6271   1.822   4.230   2.598 -0.1405  1.5833  0.8434
    1SOL    MW4 6272   1.831   4.241   2.684  0.3695  0.3023  0.9603
    1SOL     OW 6273   2.035   4.424   2.761  0.2365  0.3396 -0.2128
    1SOL    HW2 6274   1.966   4.367   2.726  0.2892  0.5670 -0.6895
    1SOL    HW3 6275   2.011   4.512   2.731  0.5547  0.4641 -0.1003
    1SOL    MW4 6276   2.022   4.428   2.752  0.2856  0.3867 -0.2608
    1SOL     OW 6277   2.454   0.022   2.631 -0.0770 -0.0604  0.4907
    1SOL    HW2 6278   2.532   0.057   2.674  0.2677 -0.0459 -0.1314
    1SOL    HW3 6279   2.472   0.033   2.537 -0.8963  0.0847  0.3528
    1SOL    MW4 6280   2.467   0.028   2.624 -0.1397 -0.0396  0.3903
    1SOL     OW 6281   2.224   0.141   2.733 -0.4242  0.0437 -0.2769
    1SOL    HW2 6282   2.231   0.135   2.828  0.9338  1.3015 -0.2875
    1SOL    HW3 6283   2.303   0.100   2.700 -0.8459 -0.2998 -0.8671
    1SOL    MW4 6284   2.235   0.135   2.741 -0.3009  0.1644 -0.3564
    1SOL     OW 6285   2.220   0.404   2.639  0.0677 -0.3917  0.2257
    1SOL    HW2 6286   2.226   0.314   2.671  2.7594 -0.3002  0.1001
    1SOL    HW3 6287   2.227   0.396   2.544  0.5343 -0.0602  0.2262
    1SOL    MW4 6288   2.222   0.391   2.631  0.4847 -0.3358  0.2091
    1SOL     OW 6289   2.455   0.496   2.761  0.0156  0.1537  0.4981
    1SOL    HW2 6290   2.457   0.589   2.737 -0.7570 -0.2520 -1.1752
    1SOL    HW3 6291   2.384   0.459   2.709  0.9203 -1.5739  0.4528
    1SOL    MW4 6292   2.446   0.503   2.751  0.0329 -0.1278  0.2713
    1SOL     OW 6293   2.450   0.746   2.664 -0.6664 -0.1382 -0.2411
    1SOL    HW2 6294   2.372   0.792   2.692 -0.6076  0.3800 -0.9207
    1SOL    HW3 6295   2.450   0.753   2.568  0.3425  0.0968 -0.2396
    1SOL    MW4 6296   2.440   0.753   2.655 -0.5255 -0.0389 -0.3304
    1SOL     OW 6297   2.235   0.897   2.787 -0.1658 -0.3588  0.2447
    1SOL    HW2 6298   2.229   0.878   2.881 -0.8477  0.1282  0.3050
    1SOL    HW3 6299   2.163   0.848   2.748 -1.0871  0.9840  0.2312
    1SOL    MW4 6300   2.225   0.888   2.795 -0.3772 -0.1174  0.2506
    1SOL     OW 6301   2.234   1.143   2.685  0.0826  0.2975 -0.6018
    1SOL    HW2 6302   2.222   1.054   2.717 -0.8943  0.3945 -0.6784
    1SOL    HW3 6303   2.208   1.139   2.593 -0.2637  0.7240 -0.5244
    1SOL    MW4 6304   2.229   1.131   2.677 -0.0920  0.3666 -0.6018
    1SOL     OW 6305   2.431   1.301   2.814  0.1031 -0.0098 -0.0048
    1SOL    HW2 6306   2.502   1.256   2.768  0.6101  0.9683 -0.1871
    1SOL    HW3 6307   2.352   1.252   2.790  0.9339 -2.1985  1.6384
    1SOL    MW4 6308   2.430   1.289   2.805  0.2794 -0.1696  0.1881
    1SOL     OW 6309   2.473   1.529   2.693  0.0386  0.1494  0.2653
    1SOL    HW2 6310   2.401   1.584   2.723  0.3381  0.6522  0.0556
    1SOL    HW3 6311   2.454   1.443   2.730 -0.7842  0.2273  0.0395
    1SOL    MW4 6312   2.461   1.525   2.702 -0.0308  0.2259  0.2081
    1SOL     OW 6313   2.230   1.667   2.747 -0.1770  0.0705 -0.0078
    1SOL    HW2 6314   2.247   1.747   2.697 -1.3285 -0.0486 -0.5914
    1SOL    HW3 6315   2.150   1.631   2.709 -0.2921 -0.7574  1.0053
    1SOL    MW4 6316   2.222   1.673   2.736 -0.3438 -0.0544  0.0491
    1SOL     OW 6317   2.283   1.920   2.610  0.0683 -0.0015  0.3124
    1SOL    HW2 6318   2.194   1.939   2.638 -0.0821  0.0142 -0.1717
    1SOL    HW3 6319   2.288   1.953   2.520  0.0743 -1.3954 -0.2153
    1SOL    MW4 6320   2.272   1.927   2.602  0.0494 -0.1835  0.1788
    1SOL     OW 6321   2.440   2.098   2.782 -0.5926  0.2210 -0.4716
    1SOL    HW2 6322   2.424   2.176   2.729  1.7225  0.0570 -1.4851
    1SOL    HW3 6323   2.386   2.030   2.741  0.5395  0.3023 -2.1449
    1SOL    MW4 6324   2.431   2.099   2.770 -0.1376  0.2100 -0.8261
    1SOL     OW 6325   2.435   2.365   2.640 -0.0617  0.2223  0.0312
    1SOL    HW2 6326   2.523   2.390   2.668 -0.1966  1.5151 -0.6620
    1SOL    HW3 6327   2.445   2.346   2.547 -0.0070 -2.1609  0.4915
    1SOL    MW4 6328   2.448   2.365   2.631 -0.0720  0.0784  0.0005
    1SOL     OW 6329   2.212   2.480   2.732 -0.1489  0.0365 -0.1112
    1SOL    HW2 6330   2.209   2.475   2.828  0.0911 -0.3882 -0.1213
    1SOL    HW3 6331   2.294   2.436   2.709  0.1660  0.8078 -0.4719
    1SOL    MW4 6332   2.222   2.473   2.742 -0.0756  0.0820 -0.1602
    1SOL     OW 6333   2.260   2.713   2.622 -0.2659  0.1491 -0.1173
    1SOL    HW2 6334   2.333   2.760   2.663  0.1039 -0.7154  0.2359
    1SOL    HW3 6335   2.257   2.629   2.668 -0.1385 -0.6575 -1.5585
    1SOL    MW4 6336   2.269   2.708   2.634 -0.2003 -0.0715 -0.2604
    1SOL     OW 6337   2.452   2.859   2.753 -0.1694 -0.1772 -0.5243
    1SOL    HW2 6338   2.538   2.822   2.734  0.2326 -0.0298  0.9506
    1SOL    HW3 6339   2.452   2.945   2.713  0.4508 -0.1006 -0.3557
    1SOL    MW4 6340   2.463   2.865   2.745 -0.0346 -0.1478 -0.3078
    1SOL     OW 6341   2.463   3.117   2.617 -0.0276 -0.1825 -0.4620
    1SOL    HW2 6342   2.395   3.167   2.662  0.8117 -0.0329  0.6577
    1SOL    HW3 6343   2.457   3.144   2.526 -0.2670  1.1796 -0.0491
    1SOL    MW4 6344   2.453   3.127   2.611  0.0515  0.0169 -0.2601
    1SOL     OW 6345   2.274   3.274   2.765 -0.0811  0.4578 -0.1343
    1SOL    HW2 6346   2.284   3.268   2.860 -1.5044  2.0108  0.1320
    1SOL    HW3 6347   2.183   3.250   2.749 -0.3009  1.8005 -0.9438
    1SOL    MW4 6348   2.264   3.270   2.775 -0.2978  0.8397 -0.2062
    1SOL     OW 6349   2.270   3.504   2.616  0.3236  0.2406 -0.7950
    1SOL    HW2 6350   2.329   3.567   2.657  2.3314 -0.1041 -3.0546
    1SOL    HW3 6351   2.283   3.423   2.665 -0.9919  1.0649  1.0051
    1SOL    MW4 6352   2.279   3.502   2.628  0.4151  0.3040 -0.8557
    1SOL     OW 6353   2.477   3.642   2.751  0.1654  0.0307  0.0124
    1SOL    HW2 6354   2.491   3.647   2.845 -0.8867 -0.4344  0.1913
    1SOL    HW3 6355   2.449   3.730   2.726 -1.3763 -0.3316  0.4341
    1SOL    MW4 6356   2.475   3.654   2.760 -0.1771 -0.0782  0.0918
    1SOL     OW 6357   2.460   3.905   2.674  0.1903 -0.4363  0.4019
    1SOL    HW2 6358   2.537   3.953   2.705 -0.1836 -0.4165  1.3157
    1SOL    HW3 6359   2.386   3.960   2.700 -0.0896  0.0655 -1.4062
    1SOL    MW4 6360   2.460   3.919   2.681  0.1042 -0.3674  0.2842
    1SOL     OW 6361   2.237   4.029   2.747 -0.2422  0.0115 -0.2794
    1SOL    HW2 6362   2.248   4.011   2.840 -1.6163  1.5800  0.2070
    1SOL    HW3 6363   2.171   3.966   2.717 -0.2498 -0.0873 -0.0563
    1SOL    MW4 6364   2.230   4.018   2.755 -0.4246  0.2055 -0.1860
    1SOL     OW 6365   2.232   4.291   2.629  0.2313  0.0193  0.1423
    1SOL    HW2 6366   2.243   4.205   2.670 -0.1837 -0.2802 -0.3678
    1SOL    HW3 6367   2.166   4.335   2.681  0.1137 -0.1451  0.1313
    1SOL    MW4 6368   2.225   4.285   2.641  0.1614 -0.0420  0.0734
    1SOL     OW 6369   2.467   4.446   2.748 -0.5576  0.7421  0.6555
    1SOL    HW2 6370   2.384   4.411   2.715 -1.4609  1.3733  2.2360
    1SOL    HW3 6371   2.472   4.535   2.713  0.9868 -0.3193 -2.0403
    1SOL    MW4 6372   2.457   4.453   2.739 -0.4728  0.6852  0.5081
    1SOL     OW 6373   2.917   4.622   2.621  0.4702  0.1269  0.5196
    1SOL    HW2 6374   2.990   4.667   2.663 -0.3734  0.4226  1.7113
    1SOL    HW3 6375   2.917   4.654   2.531  1.5246  0.4728  0.6415
    1SOL    MW4 6376   2.927   4.632   2.615  0.4978  0.2108  0.6928
    1SOL     OW 6377   2.705   0.102   2.737  0.5527 -0.3218  0.3459
    1SOL    HW2 6378   2.697   0.097   2.832  1.1075 -2.7086  0.2788
    1SOL    HW3 6379   2.777   0.043   2.715  1.0062  0.8413 -1.5009
    1SOL    MW4 6380   2.714   0.094   2.746  0.6857 -0.4833  0.0935
    1SOL     OW 6381   2.666   0.347   2.599 -0.1725  0.1480  0.3275
    1SOL    HW2 6382   2.634   0.268   2.643 -0.3645  0.3653  0.5828
    1SOL    HW3 6383   2.624   0.419   2.647  2.0847  0.5139  1.8260
    1SOL    MW4 6384   2.656   0.346   2.611  0.0997  0.2249  0.5586
    1SOL     OW 6385   2.885   0.492   2.717 -0.2949  0.1335 -0.3979
    1SOL    HW2 6386   2.894   0.577   2.675 -0.7198  0.9957  1.1876
    1SOL    HW3 6387   2.818   0.447   2.666  0.3811  0.4904 -1.6261
    1SOL    MW4 6388   2.877   0.497   2.705 -0.2618  0.2944 -0.3510
    1SOL     OW 6389   2.893   0.756   2.656  0.0416  0.3164 -0.1708
    1SOL    HW2 6390   2.977   0.787   2.691 -0.3682  1.8057 -0.4609
    1SOL    HW3 6391   2.828   0.817   2.691 -0.8890 -0.6418 -0.1953
    1SOL    MW4 6392   2.896   0.769   2.665 -0.1354  0.3864 -0.2124
    1SOL     OW 6393   2.677   0.899   2.741  0.3489 -0.4017 -0.1430
    1SOL    HW2 6394   2.684   0.917   2.835  1.5988  0.0951 -0.3166
    1SOL    HW3 6395   2.598   0.847   2.732 -0.4289  0.5389  1.0533
    1SOL    MW4 6396   2.667   0.895   2.752  0.4113 -0.2121 -0.0081
    1SOL     OW 6397   2.631   1.182   2.652  0.0225  0.1461 -0.4313
    1SOL    HW2 6398   2.717   1.214   2.679  0.1113 -0.2488 -0.2390
    1SOL    HW3 6399   2.632   1.089   2.675 -0.4183  0.1182 -0.5223
    1SOL    MW4 6400   2.642   1.174   2.659 -0.0241  0.0904 -0.4182
    1SOL     OW 6401   2.878   1.299   2.746  0.1919 -0.3996  0.2730
    1SOL    HW2 6402   2.870   1.296   2.841  0.4521 -2.4006  0.2585
    1SOL    HW3 6403   2.953   1.242   2.727 -0.1720 -0.4115 -1.1560
    1SOL    MW4 6404   2.887   1.291   2.756  0.1781 -0.6651  0.0825
    1SOL     OW 6405   2.931   1.553   2.678  0.0507  0.4349  0.2105
    1SOL    HW2 6406   2.851   1.604   2.664 -0.2825 -0.0565  0.3220
    1SOL    HW3 6407   2.900   1.465   2.699  0.6352  0.1183 -0.2594
    1SOL    MW4 6408   2.916   1.548   2.679  0.0839  0.3283  0.1633
    1SOL     OW 6409   2.688   1.672   2.736 -0.0729 -0.2716 -0.0971
    1SOL    HW2 6410   2.680   1.676   2.832 -0.3532 -0.7022 -0.1067
    1SOL    HW3 6411   2.620   1.612   2.708  1.0829 -1.4385 -0.4307
    1SOL    MW4 6412   2.678   1.665   2.745  0.0422 -0.4823 -0.1423
    1SOL     OW 6413   2.679   1.922   2.585 -0.5459  0.1078 -0.1897
    1SOL    HW2 6414   2.671   1.845   2.641  1.4464  1.1810  1.6681
    1SOL    HW3 6415   2.620   1.986   2.624 -0.8999  0.1025 -0.7101
    1SOL    MW4 6416   2.670   1.920   2.598 -0.3300  0.2487 -0.0129
    1SOL     OW 6417   2.879   2.044   2.728 -0.0857  0.1978  0.6988
    1SOL    HW2 6418   2.881   2.129   2.685 -1.4275  0.4674  1.1686
    1SOL    HW3 6419   2.819   1.992   2.674  1.4092 -0.7469 -0.1082
    1SOL    MW4 6420   2.871   2.048   2.715 -0.0656  0.1087  0.6542
    1SOL     OW 6421   2.903   2.287   2.604 -0.1693 -0.3779  0.0568
    1SOL    HW2 6422   2.980   2.326   2.645 -1.1247  1.4284  0.1466
    1SOL    HW3 6423   2.828   2.328   2.647 -1.2096 -2.1394 -0.0054
    1SOL    MW4 6424   2.903   2.298   2.615 -0.4325 -0.3719  0.0606
    1SOL     OW 6425   2.698   2.453   2.701 -0.3958 -0.5089 -0.4998
    1SOL    HW2 6426   2.678   2.446   2.795  0.3019 -0.7785 -0.3694
    1SOL    HW3 6427   2.686   2.546   2.681 -1.6034 -0.6366 -0.3852
    1SOL    MW4 6428   2.694   2.465   2.711 -0.4632 -0.5612 -0.4673
    1SOL     OW 6429   2.688   2.729   2.667 -0.4750  0.2639 -0.0788
    1SOL    HW2 6430   2.764   2.786   2.679 -0.8241  0.6059  0.4755
    1SOL    HW3 6431   2.662   2.744   2.576  0.2888 -0.0644 -0.3610
    1SOL    MW4 6432   2.695   2.738   2.656 -0.4201  0.2656 -0.0429
    1SOL     OW 6433   2.922   2.854   2.709  0.4148 -0.4099  0.0222
    1SOL    HW2 6434   2.921   2.848   2.804  2.1130  0.3419  0.1022
    1SOL    HW3 6435   2.937   2.947   2.691  0.6051 -0.6256 -0.9754
    1SOL    MW4 6436   2.924   2.865   2.719  0.6638 -0.3393 -0.0989
    1SOL     OW 6437   2.929   3.129   2.678 -0.1936  0.4733 -0.0169
    1SOL    HW2 6438   2.844   3.156   2.711  0.5019  0.6783  1.6898
    1SOL    HW3 6439   2.922   3.135   2.583 -2.8417 -1.8001 -0.0283
    1SOL    MW4 6440   2.917   3.133   2.670 -0.4511  0.2005  0.2069
    1SOL     OW 6441   2.682   3.222   2.749  0.5750 -0.2950  0.2352
    1SOL    HW2 6442   2.670   3.315   2.730 -0.8935 -0.3517  0.8887
    1SOL    HW3 6443   2.612   3.178   2.701  0.5503 -0.9758  0.8870
    1SOL    MW4 6444   2.671   3.228   2.740  0.3781 -0.3922  0.4075
    1SOL     OW 6445   2.668   3.486   2.664 -0.1161 -0.2232  0.5692
    1SOL    HW2 6446   2.595   3.543   2.689  1.5571  2.1091  0.3520
    1SOL    HW3 6447   2.676   3.498   2.569  2.6708  2.3180  1.0161
    1SOL    MW4 6448   2.660   3.495   2.654  0.4723  0.4196  0.5994
    1SOL     OW 6449   2.889   3.646   2.733 -0.3455 -0.3404  0.0668
    1SOL    HW2 6450   2.911   3.626   2.824  1.4143 -2.0074 -0.6865
    1SOL    HW3 6451   2.833   3.573   2.706 -0.4879 -0.0905 -0.3090
    1SOL    MW4 6452   2.885   3.633   2.741 -0.1321 -0.5276 -0.0823
    1SOL     OW 6453   2.881   3.884   2.648 -0.1365 -0.2083  0.4824
    1SOL    HW2 6454   2.973   3.903   2.667 -0.0069 -1.1258  0.7790
    1SOL    HW3 6455   2.868   3.795   2.679 -0.6381 -0.7513 -1.2557
    1SOL    MW4 6456   2.892   3.875   2.654 -0.1857 -0.4010  0.2923
    1SOL     OW 6457   2.688   4.029   2.787 -0.1271 -0.3218 -0.1692
    1SOL    HW2 6458   2.684   4.109   2.734  1.2899  0.5680  1.0461
    1SOL    HW3 6459   2.763   3.981   2.751 -0.5064 -0.7515 -0.3907
    1SOL    MW4 6460   2.697   4.033   2.775  0.0100 -0.2613 -0.0379
    1SOL     OW 6461   2.651   4.260   2.641  0.0072 -0.3507  0.0285
    1SOL    HW2 6462   2.740   4.293   2.655  0.2172 -1.0695  0.4183
    1SOL    HW3 6463   2.594   4.326   2.680  0.4044 -0.2195  0.3894
    1SOL    MW4 6464   2.655   4.273   2.648  0.0877 -0.4277  0.1276
    1SOL     OW 6465   2.904   4.365   2.715  0.3650  0.1401  0.2687
    1SOL    HW2 6466   2.912   4.374   2.810 -1.9366  1.4980  0.3706
    1SOL    HW3 6467   2.926   4.452   2.681 -1.1731  0.3374 -0.2635
    1SOL    MW4 6468   2.908   4.378   2.723 -0.1416  0.3457  0.2117
    1SOL     OW 6469   3.351   4.615   2.649  0.0514 -0.1735  0.2668
    1SOL    HW2 6470   3.345   4.522   2.673  1.7049 -0.1320  0.9247
    1SOL    HW3 6471   3.272   4.654   2.687 -0.9843 -1.4158 -0.5702
    1SOL    MW4 6472   3.340   4.608   2.657  0.1326 -0.3324  0.2432
    1SOL     OW 6473   3.130   0.086   2.751  0.1922  0.0784 -0.0408
    1SOL    HW2 6474   3.122   0.081   2.846 -0.7351  2.1460  0.0151
    1SOL    HW3 6475   3.135   0.180   2.732 -1.5791 -0.2260 -2.1708
    1SOL    MW4 6476   3.130   0.098   2.761 -0.1638  0.3110 -0.3142
    1SOL     OW 6477   3.119   0.365   2.656  0.2912 -0.4071 -0.1359
    1SOL    HW2 6478   3.032   0.398   2.675  0.7681  0.6111  0.3294
    1SOL    HW3 6479   3.118   0.348   2.562 -0.8937 -1.9023  0.1318
    1SOL    MW4 6480   3.108   0.367   2.646  0.1976 -0.4700 -0.0393
    1SOL     OW 6481   3.371   0.518   2.768 -0.4971  0.1450  0.1449
    1SOL    HW2 6482   3.374   0.611   2.744 -0.9237 -0.0247 -0.5663
    1SOL    HW3 6483   3.288   0.487   2.733  1.0349 -1.2429 -2.3446
    1SOL    MW4 6484   3.361   0.526   2.760 -0.3512 -0.0605 -0.2775
    1SOL     OW 6485   3.324   0.772   2.651 -0.1895 -0.1719 -0.3035
    1SOL    HW2 6486   3.405   0.819   2.671  0.3134 -0.6861 -1.0750
    1SOL    HW3 6487   3.333   0.749   2.558 -0.6830 -1.2791 -0.0791
    1SOL    MW4 6488   3.336   0.775   2.641 -0.1881 -0.3858 -0.3755
    1SOL     OW 6489   3.102   0.883   2.765 -0.2288 -0.4883  0.2656
    1SOL    HW2 6490   3.106   0.891   2.860  1.6016  1.6769  0.0356
    1SOL    HW3 6491   3.187   0.847   2.740 -0.8044 -1.3211 -0.5539
    1SOL    MW4 6492   3.114   0.879   2.774 -0.0632 -0.3124  0.1273
    1SOL     OW 6493   3.091   1.127   2.658  0.0741  0.3348  0.4468
    1SOL    HW2 6494   3.089   1.039   2.695 -1.0978  0.5576  0.9431
    1SOL    HW3 6495   3.108   1.114   2.565  0.4952 -0.3810  0.6219
    1SOL    MW4 6496   3.093   1.114   2.651 -0.0248  0.2698  0.5352
    1SOL     OW 6497   3.338   1.255   2.700  0.0010  0.1002 -0.7610
    1SOL    HW2 6498   3.346   1.250   2.795  1.7102 -1.3122 -0.9662
    1SOL    HW3 6499   3.264   1.198   2.679 -0.3429  0.3708 -0.3060
    1SOL    MW4 6500   3.329   1.247   2.710  0.1814 -0.0505 -0.7284
    1SOL     OW 6501   3.385   1.509   2.610  0.6169 -0.3680  0.5261
    1SOL    HW2 6502   3.312   1.558   2.647  1.1736  0.3268  0.7050
    1SOL    HW3 6503   3.372   1.420   2.643  0.8026  0.1181  1.9620
    1SOL    MW4 6504   3.373   1.504   2.619  0.7145 -0.2122  0.7391
    1SOL     OW 6505   3.172   1.667   2.732 -0.0231 -0.2505 -0.2313
    1SOL    HW2 6506   3.157   1.756   2.701 -1.0042 -0.4409 -0.3158
    1SOL    HW3 6507   3.088   1.623   2.720  0.1104 -0.8460  0.9479
    1SOL    MW4 6508   3.159   1.673   2.726 -0.1349 -0.3543 -0.0868
    1SOL     OW 6509   3.110   1.926   2.630  0.2527 -0.4526 -0.0974
    1SOL    HW2 6510   3.180   1.983   2.661 -0.7277  0.6790  0.0806
    1SOL    HW3 6511   3.033   1.954   2.679 -0.6049 -0.8261 -1.2024
    1SOL    MW4 6512   3.109   1.937   2.641  0.0103 -0.3526 -0.2196
    1SOL     OW 6513   3.325   2.082   2.706  0.3658 -0.1504 -0.6684
    1SOL    HW2 6514   3.318   2.108   2.798 -3.1824 -0.2182 -0.8357
    1SOL    HW3 6515   3.369   2.156   2.664 -0.6918  1.2195  0.5871
    1SOL    MW4 6516   3.330   2.096   2.713 -0.2420  0.0212 -0.5252
    1SOL     OW 6517   3.416   2.331   2.613  0.2549 -0.4738  0.0572
    1SOL    HW2 6518   3.476   2.402   2.636  0.0642  0.4086 -2.0477
    1SOL    HW3 6519   3.404   2.340   2.518 -1.7816 -1.7357  0.1749
    1SOL    MW4 6520   3.422   2.342   2.603 -0.0391 -0.5236 -0.2053
    1SOL     OW 6521   3.158   2.376   2.702 -0.3129 -0.3220 -0.3584
    1SOL    HW2 6522   3.152   2.471   2.699 -0.3082 -0.3186 -0.2517
    1SOL    HW3 6523   3.247   2.357   2.671 -0.1603 -0.2690  0.0445
    1SOL    MW4 6524   3.169   2.386   2.698 -0.2923 -0.3145 -0.2911
    1SOL     OW 6525   3.126   2.661   2.629 -0.5995 -0.8458 -0.3370
    1SOL    HW2 6526   3.203   2.709   2.660 -1.7550  1.0964 -0.4053
    1SOL    HW3 6527   3.051   2.711   2.661 -1.8398 -1.7074 -1.7835
    1SOL    MW4 6528   3.126   2.673   2.637 -0.9158 -0.7033 -0.5369
    1SOL     OW 6529   3.377   2.795   2.713  0.0298  0.0901  0.1044
    1SOL    HW2 6530   3.380   2.764   2.804  1.2392  0.8306  0.3351
    1SOL    HW3 6531   3.461   2.769   2.676  1.1270  3.0444  0.3334
    1SOL    MW4 6532   3.388   2.788   2.720  0.3340  0.5777  0.1650
    1SOL     OW 6533   3.381   3.073   2.650 -0.0122 -0.3693 -0.3050
    1SOL    HW2 6534   3.378   2.983   2.683  0.9810 -0.4837 -0.4891
    1SOL    HW3 6535   3.350   3.066   2.559  1.4013 -0.7662 -0.7716
    1SOL    MW4 6536   3.377   3.060   2.642  0.3054 -0.4365 -0.3908
    1SOL     OW 6537   3.165   3.255   2.752  0.0898  0.0865 -0.2524
    1SOL    HW2 6538   3.245   3.214   2.717  0.1057  0.3092 -0.4765
    1SOL    HW3 6539   3.094   3.198   2.722 -0.0925  1.4105 -2.4133
    1SOL    MW4 6540   3.166   3.242   2.743  0.0677  0.2904 -0.5672
    1SOL     OW 6541   3.136   3.523   2.683 -0.0047  0.3783 -0.0175
    1SOL    HW2 6542   3.131   3.432   2.712 -1.2643 -0.3661 -2.4055
    1SOL    HW3 6543   3.051   3.561   2.708 -0.7065  0.0045 -1.7391
    1SOL    MW4 6544   3.124   3.516   2.690 -0.2635  0.2306 -0.5598
    1SOL     OW 6545   3.359   3.604   2.789 -0.1348  0.1615 -0.5550
    1SOL    HW2 6546   3.356   3.587   2.883 -1.2838  1.3558 -0.3735
    1SOL    HW3 6547   3.272   3.579   2.757  0.0692  0.2826 -1.2194
    1SOL    MW4 6548   3.347   3.598   2.797 -0.2594  0.3352 -0.6187
    1SOL     OW 6549   3.389   3.853   2.704 -0.4297 -0.0302  0.3461
    1SOL    HW2 6550   3.380   3.764   2.739  0.2467 -0.2274  0.0362
    1SOL    HW3 6551   3.397   3.841   2.609  0.6375  0.2750  0.3844
    1SOL    MW4 6552   3.389   3.840   2.696 -0.1996 -0.0160  0.3102
    1SOL     OW 6553   3.137   3.981   2.757 -0.0379  0.0119 -0.0742
    1SOL    HW2 6554   3.127   4.067   2.717  1.9910  0.5592  0.5441
    1SOL    HW3 6555   3.216   3.945   2.718 -1.2800 -1.9288 -0.8974
    1SOL    MW4 6556   3.146   3.987   2.747  0.0658 -0.1719 -0.1016
    1SOL     OW 6557   3.124   4.225   2.612 -0.4624  0.0940  0.0912
    1SOL    HW2 6558   3.052   4.284   2.633 -0.8915 -0.5515  0.4312
    1SOL    HW3 6559   3.117   4.211   2.518 -0.8638 -0.0849  0.1496
    1SOL    MW4 6560   3.114   4.231   2.602 -0.5717 -0.0148  0.1438
    1SOL     OW 6561   3.356   4.348   2.728 -0.0618 -0.1744 -0.3966
    1SOL    HW2 6562   3.371   4.333   2.822  0.7447  0.7537 -0.3622
    1SOL    HW3 6563   3.280   4.295   2.707 -0.2449 -0.4023  0.7945
    1SOL    MW4 6564   3.348   4.339   2.738  0.0205 -0.0820 -0.2348
    1SOL     OW 6565   3.852   4.607   2.647  0.1117 -0.2532 -0.4283
    1SOL    HW2 6566   3.853   4.520   2.685 -0.6400 -0.3122 -0.5302
    1SOL    HW3 6567   3.787   4.655   2.699  0.7762  0.3567 -0.1355
    1SOL    MW4 6568   3.844   4.602   2.659  0.1001 -0.1802 -0.4032
    1SOL     OW 6569   3.602   0.063   2.731  0.7267  0.1314 -0.5156
    1SOL    HW2 6570   3.577   0.154   2.715  0.1621 -0.3628 -2.6184
    1SOL    HW3 6571   3.522   0.013   2.715  1.2296 -0.8139 -0.1350
    1SOL    MW4 6572   3.588   0.069   2.727  0.7188 -0.0585 -0.7429
    1SOL     OW 6573   3.581   0.370   2.621  0.1608 -0.3033 -0.0438
    1SOL    HW2 6574   3.651   0.419   2.664  0.6681 -2.6668  1.9897
    1SOL    HW3 6575   3.500   0.411   2.651  0.6253  0.9577 -0.5118
    1SOL    MW4 6576   3.579   0.382   2.630  0.2892 -0.4488  0.1626
    1SOL     OW 6577   3.808   0.504   2.718  0.4328  0.2207  0.4600
    1SOL    HW2 6578   3.794   0.476   2.808 -0.3125 -0.7600  0.0402
    1SOL    HW3 6579   3.883   0.453   2.688 -0.7647 -1.1633 -0.2202
    1SOL    MW4 6580   3.816   0.494   2.726  0.1767 -0.0913  0.3150
    1SOL     OW 6581   3.821   0.786   2.632  0.1767  0.3401 -0.3349
    1SOL    HW2 6582   3.732   0.818   2.651  0.3714  0.7470 -0.1136
    1SOL    HW3 6583   3.822   0.698   2.670  0.2064  0.7340  0.6015
    1SOL    MW4 6584   3.809   0.779   2.640  0.2062  0.4457 -0.1819
    1SOL     OW 6585   3.575   0.861   2.689 -0.5196 -0.1536  0.3797
    1SOL    HW2 6586   3.567   0.855   2.784 -1.3236 -0.9914  0.2710
    1SOL    HW3 6587   3.590   0.954   2.672  1.8878 -0.3203  1.4676
    1SOL    MW4 6588   3.576   0.872   2.699 -0.3080 -0.2862  0.5088
    1SOL     OW 6589   3.570   1.116   2.604 -0.6831 -0.2955  0.1302
    1SOL    HW2 6590   3.655   1.140   2.640  0.3604 -0.2866 -2.2465
    1SOL    HW3 6591   3.507   1.168   2.654  0.7274  0.0990  1.5468
    1SOL    MW4 6592   3.573   1.126   2.615 -0.3595 -0.2424  0.0038
    1SOL     OW 6593   3.788   1.220   2.725  0.0366  0.1757  0.2548
    1SOL    HW2 6594   3.871   1.187   2.691  0.2485  0.2445  0.6983
    1SOL    HW3 6595   3.790   1.314   2.707  0.4742  0.3379  1.1112
    1SOL    MW4 6596   3.799   1.228   2.718  0.1225  0.2064  0.4265
    1SOL     OW 6597   3.797   1.492   2.624  0.0051 -0.3566 -0.2967
    1SOL    HW2 6598   3.876   1.543   2.639 -0.6452  0.5990 -0.0455
    1SOL    HW3 6599   3.727   1.544   2.663 -0.5103 -2.0911  1.1941
    1SOL    MW4 6600   3.798   1.505   2.631 -0.1488 -0.4594 -0.0670
    1SOL     OW 6601   3.595   1.676   2.715 -0.0470  0.1407 -0.4474
    1SOL    HW2 6602   3.583   1.766   2.685 -3.5911  0.0417  0.5029
    1SOL    HW3 6603   3.530   1.625   2.667  1.0251 -1.7107 -0.0091
    1SOL    MW4 6604   3.585   1.681   2.705 -0.3731 -0.1166 -0.2642
    1SOL     OW 6605   3.541   1.938   2.632 -0.0730 -0.6760 -0.0869
    1SOL    HW2 6606   3.457   1.973   2.663 -0.5455 -2.5058  0.7843
    1SOL    HW3 6607   3.525   1.915   2.541 -0.0118  0.5885 -0.4130
    1SOL    MW4 6608   3.528   1.939   2.624 -0.1273 -0.7505 -0.0153
    1SOL     OW 6609   3.769   2.049   2.756  0.5762  0.2439 -0.0233
    1SOL    HW2 6610   3.852   2.021   2.716  0.4193  0.2513 -0.3511
    1SOL    HW3 6611   3.701   2.012   2.700  0.3352 -0.8619  0.9804
    1SOL    MW4 6612   3.771   2.041   2.744  0.5236  0.0992  0.0656
    1SOL     OW 6613   3.796   2.307   2.662 -0.1323 -0.3748 -0.2568
    1SOL    HW2 6614   3.779   2.223   2.706  1.6204 -0.4277  0.3644
    1SOL    HW3 6615   3.795   2.285   2.569 -0.6810 -0.8889 -0.1387
    1SOL    MW4 6616   3.793   2.293   2.656  0.0267 -0.4497 -0.1595
    1SOL     OW 6617   3.619   2.487   2.736  0.0378  0.0627  0.6464
    1SOL    HW2 6618   3.606   2.480   2.830 -0.5533 -1.9816  0.4477
    1SOL    HW3 6619   3.681   2.418   2.714  0.0178  0.3798 -0.4898
    1SOL    MW4 6620   3.625   2.477   2.745 -0.0427 -0.1657  0.4704
    1SOL     OW 6621   3.629   2.736   2.628 -0.2107 -0.0410  0.2210
    1SOL    HW2 6622   3.643   2.647   2.660 -0.3676 -0.2584 -0.3165
    1SOL    HW3 6623   3.590   2.725   2.542 -1.7204  0.5673  0.8200
    1SOL    MW4 6624   3.626   2.723   2.621 -0.4308  0.0105  0.2289
    1SOL     OW 6625   3.857   2.833   2.762  0.2314  0.3373 -0.3518
    1SOL    HW2 6626   3.913   2.764   2.726 -1.1864 -0.6876 -0.6172
    1SOL    HW3 6627   3.777   2.829   2.710 -0.4480  1.1942  0.6137
    1SOL    MW4 6628   3.854   2.823   2.751 -0.0453  0.3152 -0.2594
    1SOL     OW 6629   3.808   3.096   2.651  0.1373  0.2249 -0.1474
    1SOL    HW2 6630   3.737   3.146   2.692  0.9242  0.8831  0.4366
    1SOL    HW3 6631   3.822   3.022   2.710 -1.1536 -0.8056 -1.1076
    1SOL    MW4 6632   3.800   3.093   2.664  0.0713  0.1760 -0.1969
    1SOL     OW 6633   3.593   3.216   2.744 -0.0181  0.2774  0.0120
    1SOL    HW2 6634   3.573   3.304   2.711  0.4001  0.2802 -0.2369
    1SOL    HW3 6635   3.518   3.163   2.718  0.5559  0.1558 -1.4508
    1SOL    MW4 6636   3.580   3.221   2.736  0.1128  0.2615 -0.2141
    1SOL     OW 6637   3.564   3.456   2.641  0.0950 -0.0392 -0.9254
    1SOL    HW2 6638   3.643   3.485   2.686 -0.3894  0.8796 -0.6375
    1SOL    HW3 6639   3.492   3.500   2.688 -0.5255 -0.2855 -1.6264
    1SOL    MW4 6640   3.565   3.466   2.653 -0.0508  0.0491 -0.9799
    1SOL     OW 6641   3.765   3.569   2.778  0.0245 -0.3626  0.1054
    1SOL    HW2 6642   3.843   3.523   2.747  0.6060  1.0543 -0.5630
    1SOL    HW3 6643   3.775   3.658   2.747 -1.7673 -0.1000  0.2092
    1SOL    MW4 6644   3.776   3.574   2.770 -0.1352 -0.1411  0.0310
    1SOL     OW 6645   3.782   3.847   2.675 -0.2126  0.4833  0.3080
    1SOL    HW2 6646   3.864   3.894   2.687 -0.4565  1.0194 -0.1124
    1SOL    HW3 6647   3.715   3.905   2.713 -0.3759 -0.0248  0.8022
    1SOL    MW4 6648   3.784   3.861   2.682 -0.2663  0.4871  0.3178
    1SOL     OW 6649   3.594   4.021   2.793 -0.0543  0.5930 -0.4508
    1SOL    HW2 6650   3.596   4.092   2.729 -0.5304  0.1566 -0.9535
    1SOL    HW3 6651   3.520   3.967   2.766  0.7231 -0.4717 -0.4658
    1SOL    MW4 6652   3.584   4.023   2.781 -0.0145  0.3948 -0.5193
    1SOL     OW 6653   3.604   4.245   2.605  0.0358  0.0874  0.0285
    1SOL    HW2 6654   3.521   4.290   2.620 -0.7191 -1.4547  0.6449
    1SOL    HW3 6655   3.596   4.209   2.517 -0.2377 -0.6313  0.3411
    1SOL    MW4 6656   3.592   4.246   2.595 -0.1001 -0.2112  0.1512
    1SOL     OW 6657   3.814   4.347   2.758 -0.3976  0.2733 -0.4113
    1SOL    HW2 6658   3.891   4.307   2.719 -0.0992  1.6710 -1.2523
    1SOL    HW3 6659   3.740   4.303   2.715 -0.0863 -0.4486 -0.2241
    1SOL    MW4 6660   3.814   4.336   2.747 -0.3169  0.3624 -0.4976
    1SOL     OW 6661   4.285   4.588   2.653 -0.1669  0.1643  0.2713
    1SOL    HW2 6662   4.224   4.649   2.694  1.1428  0.5423  1.7072
    1SOL    HW3 6663   4.372   4.622   2.674  0.5549 -0.4258 -1.6420
    1SOL    MW4 6664   4.289   4.600   2.662  0.1006  0.1359  0.2081
    1SOL     OW 6665   4.062   0.099   2.738 -0.3128  0.1263  0.0223
    1SOL    HW2 6666   4.041   0.122   2.828  0.1773  0.8206 -0.0364
    1SOL    HW3 6667   3.985   0.050   2.707 -0.4470 -0.1785  0.8335
    1SOL    MW4 6668   4.049   0.096   2.745 -0.2661  0.1777  0.1216
    1SOL     OW 6669   4.046   0.347   2.611  0.0510 -0.3399  0.1268
    1SOL    HW2 6670   4.047   0.256   2.639 -0.3715  0.0995  1.6225
    1SOL    HW3 6671   4.049   0.343   2.515  0.5584 -1.9011  0.1942
    1SOL    MW4 6672   4.046   0.335   2.602  0.0625 -0.4879  0.3333
    1SOL     OW 6673   4.263   0.473   2.737 -0.2256  0.0025  0.1553
    1SOL    HW2 6674   4.180   0.432   2.715 -0.2150  0.2998 -0.4350
    1SOL    HW3 6675   4.329   0.410   2.708 -0.2526 -0.3947  0.9539
    1SOL    MW4 6676   4.261   0.459   2.730 -0.2279 -0.0107  0.1829
    1SOL     OW 6677   4.259   0.724   2.627  0.1980 -0.2850 -0.2839
    1SOL    HW2 6678   4.265   0.634   2.658  0.8200 -0.2779 -0.3790
    1SOL    HW3 6679   4.262   0.718   2.532 -3.6969 -0.4582 -0.4642
    1SOL    MW4 6680   4.260   0.712   2.619 -0.2337 -0.3070 -0.3204
    1SOL     OW 6681   4.059   0.892   2.732  0.1621  0.1588  0.0699
    1SOL    HW2 6682   4.128   0.828   2.715  0.6033  0.9121 -0.9978
    1SOL    HW3 6683   3.979   0.851   2.699  0.4321  0.1273 -0.5434
    1SOL    MW4 6684   4.057   0.878   2.726  0.2561  0.2541 -0.1521
    1SOL     OW 6685   4.027   1.152   2.614 -0.1053  0.2123  0.3326
    1SOL    HW2 6686   4.090   1.206   2.662  0.4843 -0.6541  0.5510
    1SOL    HW3 6687   4.019   1.072   2.666 -2.3416  0.8098  0.9639
    1SOL    MW4 6688   4.034   1.149   2.627 -0.3228  0.1768  0.4449
    1SOL     OW 6689   4.235   1.270   2.741  0.4082 -0.2643 -0.0455
    1SOL    HW2 6690   4.242   1.365   2.729  0.8255 -0.4229 -1.1050
    1SOL    HW3 6691   4.320   1.236   2.713 -0.7277 -1.2050 -2.5323
    1SOL    MW4 6692   4.247   1.278   2.736  0.3138 -0.4092 -0.5136
    1SOL     OW 6693   4.248   1.529   2.658 -0.3304  0.0506 -0.0817
    1SOL    HW2 6694   4.318   1.579   2.699  0.8457 -0.7145 -1.1478
    1SOL    HW3 6695   4.268   1.531   2.564 -2.0439  0.3095 -0.4654
    1SOL    MW4 6696   4.260   1.536   2.651 -0.4015 -0.0162 -0.2732
    1SOL     OW 6697   4.012   1.661   2.668 -0.1772  0.1906 -0.2075
    1SOL    HW2 6698   3.983   1.682   2.757 -0.8056  1.5505 -0.7092
    1SOL    HW3 6699   4.096   1.617   2.680 -0.0506  0.7406  1.0402
    1SOL    MW4 6700   4.019   1.658   2.681 -0.2437  0.4425 -0.1094
    1SOL     OW 6701   4.001   1.951   2.639  0.1690 -0.0459 -0.0468
    1SOL    HW2 6702   4.089   1.974   2.668  0.7124 -0.7362 -1.1381
    1SOL    HW3 6703   4.001   1.856   2.633 -0.2591  0.0227 -1.2627
    1SOL    MW4 6704   4.013   1.942   2.642  0.1845 -0.1279 -0.3512
    1SOL     OW 6705   4.241   2.028   2.733 -0.1940  0.1505 -0.3351
    1SOL    HW2 6706   4.242   2.121   2.712 -0.0397  0.1399 -0.3737
    1SOL    HW3 6707   4.325   1.994   2.700 -0.1406  0.0487 -0.0986
    1SOL    MW4 6708   4.252   2.036   2.726 -0.1664  0.1354 -0.3088
    1SOL     OW 6709   4.236   2.274   2.647  0.1057  0.4825  0.0619
    1SOL    HW2 6710   4.156   2.324   2.661 -1.1281 -1.5761  0.6433
    1SOL    HW3 6711   4.244   2.267   2.552 -1.1884 -0.4601  0.0083
    1SOL    MW4 6712   4.227   2.280   2.636 -0.2275  0.0865  0.1318
    1SOL     OW 6713   4.033   2.431   2.754  0.0435  0.2302  0.0188
    1SOL    HW2 6714   4.043   2.417   2.848 -0.3661 -1.5726 -0.1772
    1SOL    HW3 6715   3.953   2.384   2.732  0.5646 -0.0232 -1.3770
    1SOL    MW4 6716   4.023   2.423   2.763  0.0582 -0.0412 -0.1915
    1SOL     OW 6717   4.049   2.675   2.623 -0.1222 -0.1603 -0.0583
    1SOL    HW2 6718   4.130   2.711   2.660  1.0286 -0.4589 -2.2497
    1SOL    HW3 6719   4.036   2.592   2.669  1.3922 -0.6200 -0.4449
    1SOL    MW4 6720   4.058   2.669   2.634  0.2289 -0.2604 -0.3984
    1SOL     OW 6721   4.253   2.838   2.741  0.0961 -0.0880  0.0198
    1SOL    HW2 6722   4.246   2.829   2.836  1.8160 -0.3152  0.1379
    1SOL    HW3 6723   4.259   2.932   2.726 -1.6625  0.0496 -0.0020
    1SOL    MW4 6724   4.253   2.849   2.751  0.0906 -0.0999  0.0324
    1SOL     OW 6725   4.283   3.106   2.673  0.1899  0.1262  0.4398
    1SOL    HW2 6726   4.198   3.145   2.695  0.8183  0.9730  1.3902
    1SOL    HW3 6727   4.290   3.116   2.578 -0.7238  0.1504  0.3712
    1SOL    MW4 6728   4.272   3.113   2.663  0.1526  0.2415  0.5562
    1SOL     OW 6729   4.045   3.216   2.727 -0.0862  0.0301  0.1215
    1SOL    HW2 6730   4.040   3.307   2.699 -0.5318 -0.3509 -1.0978
    1SOL    HW3 6731   3.967   3.175   2.690  0.9319 -1.2014 -0.7250
    1SOL    MW4 6732   4.034   3.222   2.718 -0.0105 -0.1824 -0.1514
    1SOL     OW 6733   3.994   3.473   2.665 -0.2782  0.5471 -0.0484
    1SOL    HW2 6734   4.073   3.508   2.705 -0.4920  1.5467 -0.4843
    1SOL    HW3 6735   4.013   3.470   2.571 -0.4838  0.0888 -0.0765
    1SOL    MW4 6736   4.007   3.477   2.658 -0.3338  0.6185 -0.1099
    1SOL     OW 6737   4.251   3.563   2.764  0.1401 -0.0116  0.3120
    1SOL    HW2 6738   4.261   3.591   2.855  1.7159 -3.6309  1.3733
    1SOL    HW3 6739   4.332   3.515   2.745 -1.1634 -1.3370 -2.2100
    1SOL    MW4 6740   4.263   3.560   2.773  0.1760 -0.6638  0.1194
    1SOL     OW 6741   4.250   3.804   2.634 -0.0744 -0.5647 -0.0996
    1SOL    HW2 6742   4.261   3.718   2.673  0.4538 -0.2583  0.4427
    1SOL    HW3 6743   4.312   3.860   2.681  0.4432 -0.1498 -1.2553
    1SOL    MW4 6744   4.260   3.800   2.645  0.0634 -0.4697 -0.1805
    1SOL     OW 6745   4.028   3.964   2.698 -0.3630  0.1117  0.6499
    1SOL    HW2 6746   4.043   3.975   2.792  0.2961  1.1997  0.4077
    1SOL    HW3 6747   4.094   3.900   2.671  1.0976  1.7041  0.4236
    1SOL    MW4 6748   4.038   3.957   2.707 -0.0839  0.4654  0.5879
    1SOL     OW 6749   4.030   4.230   2.654  0.2466  0.4273  0.0185
    1SOL    HW2 6750   4.034   4.134   2.664  0.2032  0.3262 -0.9367
    1SOL    HW3 6751   4.024   4.244   2.560 -1.9753  1.2769  0.2475
    1SOL    MW4 6752   4.029   4.219   2.643 -0.0520  0.5260 -0.0777
    1SOL     OW 6753   4.266   4.332   2.744 -0.3573 -0.0282 -0.1913
    1SOL    HW2 6754   4.179   4.301   2.717 -1.8471  3.1826  0.7033
    1SOL    HW3 6755   4.280   4.411   2.692  2.2620 -0.7544 -0.6462
    1SOL    MW4 6756   4.256   4.339   2.733 -0.2084  0.2995 -0.1330
    1SOL     OW 6757   0.221   4.633   3.137  0.8084 -0.1256 -0.0483
    1SOL    HW2 6758   0.198   4.604   3.226 -0.7720  0.4975 -0.2332
    1SOL    HW3 6759   0.137   4.658   3.098  1.3934 -1.1734 -2.0102
    1SOL    MW4 6760   0.207   4.633   3.144  0.6770 -0.1817 -0.3316
    1SOL     OW 6761   4.469   0.068   2.992 -0.0847 -0.4043 -0.1719
    1SOL    HW2 6762   4.401   0.027   3.046  0.2702 -0.6924  0.0605
    1SOL    HW3 6763   4.479   0.156   3.028 -1.2378  0.0765 -1.0218
    1SOL    MW4 6764   4.462   0.074   3.004 -0.1898 -0.3789 -0.2537
    1SOL     OW 6765   0.011   0.322   3.088 -0.3405  0.3840 -0.5561
    1SOL    HW2 6766   0.022   0.350   3.179 -0.8844 -0.0431 -0.3529
    1SOL    HW3 6767  -0.072   0.362   3.061 -0.6749 -0.2944 -0.5479
    1SOL    MW4 6768   0.001   0.331   3.096 -0.4564  0.2381 -0.5281
    1SOL     OW 6769   0.216   0.492   2.990 -0.2950 -0.3468  0.2949
    1SOL    HW2 6770   0.282   0.444   3.041  0.4471 -1.8188 -1.9511
    1SOL    HW3 6771   0.137   0.438   2.997 -1.0134  0.9280  2.2076
    1SOL    MW4 6772   0.214   0.478   2.998 -0.2919 -0.3728  0.2508
    1SOL     OW 6773   0.204   0.762   3.120 -0.2463 -0.6298 -0.1534
    1SOL    HW2 6774   0.207   0.741   3.214  1.2720  0.0035 -0.0524
    1SOL    HW3 6775   0.211   0.677   3.076 -0.3805 -0.8762  0.2944
    1SOL    MW4 6776   0.205   0.748   3.127 -0.0637 -0.5787 -0.0811
    1SOL     OW 6777   4.469   0.896   3.009 -0.1016 -0.4206  0.2096
    1SOL    HW2 6778   4.552   0.860   3.043  0.7967  1.5298  0.1565
    1SOL    HW3 6779   4.477   0.888   2.914  1.2056  2.1825  0.0601
    1SOL    MW4 6780   4.481   0.890   3.001  0.1898  0.1802  0.1831
    1SOL     OW 6781   4.463   1.146   3.142  0.2745 -0.4525  0.0028
    1SOL    HW2 6782   4.384   1.196   3.124 -0.5402 -1.4891  0.7078
    1SOL    HW3 6783   4.446   1.058   3.109  0.7502 -0.9467  1.0247
    1SOL    MW4 6784   4.451   1.141   3.135  0.2303 -0.6543  0.2310
    1SOL     OW 6785   0.239   1.237   3.075 -0.4587  0.2088  0.7773
    1SOL    HW2 6786   0.152   1.205   3.100  0.1804 -0.7128  1.8973
    1SOL    HW3 6787   0.232   1.255   2.982 -1.7183 -0.3089  0.7574
    1SOL    MW4 6788   0.226   1.235   3.066 -0.5405  0.0188  0.9224
    1SOL     OW 6789   0.254   1.520   3.122  0.0120  0.3823 -0.1266
    1SOL    HW2 6790   0.171   1.555   3.089 -0.1957  0.0164  0.0043
    1SOL    HW3 6791   0.240   1.425   3.125 -0.6353  0.5192  2.8506
    1SOL    MW4 6792   0.241   1.512   3.118 -0.1008  0.3520  0.2835
    1SOL     OW 6793   0.006   1.636   3.038 -0.1251 -0.3389 -0.2269
    1SOL    HW2 6794  -0.083   1.605   3.050 -0.4320 -0.1117 -1.8175
    1SOL    HW3 6795   0.012   1.715   3.093 -0.5679 -0.9344  0.6881
    1SOL    MW4 6796  -0.005   1.643   3.047 -0.2240 -0.3874 -0.3161
    1SOL     OW 6797   0.002   1.899   3.147 -0.1244 -0.8055 -0.2074
    1SOL    HW2 6798  -0.075   1.951   3.126 -0.2477 -0.6251  0.6774
    1SOL    HW3 6799   0.072   1.936   3.093 -0.1066  0.5651  0.7455
    1SOL    MW4 6800   0.001   1.911   3.137 -0.1383 -0.6008  0.0350
    1SOL     OW 6801   0.212   2.043   2.995  0.2912  0.7281  0.2333
    1SOL    HW2 6802   0.215   2.138   3.007 -0.4185  0.7642  0.1317
    1SOL    HW3 6803   0.190   2.031   2.902  1.7926  0.4571 -0.1082
    1SOL    MW4 6804   0.209   2.054   2.984  0.3956  0.6971  0.1748
    1SOL     OW 6805   0.233   2.300   3.093 -0.0180 -0.4805 -0.5924
    1SOL    HW2 6806   0.210   2.299   3.186 -0.0174 -0.9637 -0.5945
    1SOL    HW3 6807   0.313   2.353   3.089 -0.1339 -0.2850 -0.3456
    1SOL    MW4 6808   0.240   2.307   3.105 -0.0332 -0.5186 -0.5603
    1SOL     OW 6809   0.013   2.478   3.017 -0.0016 -0.1191 -0.2256
    1SOL    HW2 6810   0.022   2.552   3.076 -0.2111 -0.9093  0.8040
    1SOL    HW3 6811   0.093   2.426   3.031 -0.2031 -0.4803 -0.3990
    1SOL    MW4 6812   0.025   2.481   3.026 -0.0563 -0.2711 -0.1128
    1SOL     OW 6813   4.455   2.750   3.176  0.2092  0.2498  0.1351
    1SOL    HW2 6814   4.469   2.753   3.270 -1.2013  0.0346  0.3574
    1SOL    HW3 6815   4.540   2.776   3.138  0.5481  1.1023  1.4578
    1SOL    MW4 6816   4.468   2.753   3.183  0.0672  0.3338  0.3388
    1SOL     OW 6817   0.209   2.837   3.033  0.6149  0.3291  0.2363
    1SOL    HW2 6818   0.293   2.800   3.061 -0.1436 -1.6163  0.0022
    1SOL    HW3 6819   0.219   2.853   2.940 -0.1982 -2.6324 -0.4164
    1SOL    MW4 6820   0.221   2.834   3.025  0.4075 -0.3183  0.1190
    1SOL     OW 6821   0.226   3.082   3.181  0.0467  0.1957 -0.2711
    1SOL    HW2 6822   0.152   3.140   3.163 -0.9538 -0.9824  0.0658
    1SOL    HW3 6823   0.208   3.003   3.130  1.6993  0.3841 -1.1910
    1SOL    MW4 6824   0.214   3.080   3.172  0.1327  0.0653 -0.3476
    1SOL     OW 6825   0.000   3.213   3.081  0.0604 -0.4478  0.3874
    1SOL    HW2 6826  -0.073   3.156   3.102 -1.0106  0.6765 -0.1866
    1SOL    HW3 6827   0.008   3.207   2.986 -0.4155  0.7581  0.2635
    1SOL    MW4 6828  -0.008   3.205   3.071 -0.1435 -0.1404  0.2952
    1SOL     OW 6829   0.004   3.484   3.149 -0.2275  0.1044  0.1494
    1SOL    HW2 6830  -0.067   3.530   3.106 -0.1845 -0.3337 -0.3936
    1SOL    HW3 6831  -0.001   3.395   3.115 -0.2075 -0.2546  1.0549
    1SOL    MW4 6832  -0.006   3.478   3.139 -0.2192 -0.0012  0.1969
    1SOL     OW 6833   0.233   3.583   3.053 -0.0402 -0.3966  0.5539
    1SOL    HW2 6834   0.236   3.676   3.074  0.5821 -0.5756  1.2502
    1SOL    HW3 6835   0.151   3.552   3.092 -0.8261  0.1036 -0.6862
    1SOL    MW4 6836   0.222   3.591   3.061 -0.0618 -0.3543  0.4823
    1SOL     OW 6837   0.232   3.841   3.127 -0.4116 -0.3097  0.0290
    1SOL    HW2 6838   0.245   3.863   3.219  0.0526 -2.0674  0.4039
    1SOL    HW3 6839   0.306   3.880   3.081 -1.0804  1.2841  0.2598
    1SOL    MW4 6840   0.243   3.849   3.133 -0.4386 -0.3312  0.1092
    1SOL     OW 6841   0.021   3.968   3.029  0.3462 -0.0369  0.1817
    1SOL    HW2 6842   0.095   3.912   3.054 -0.5002 -0.7747  1.0789
    1SOL    HW3 6843   0.013   3.956   2.934 -0.5770 -2.4222  0.5136
    1SOL    MW4 6844   0.030   3.959   3.020  0.1130 -0.4489  0.3440
    1SOL     OW 6845   0.012   4.230   3.120  0.5569  0.5698  0.3361
    1SOL    HW2 6846   0.001   4.212   3.213 -0.2034 -0.5649  0.0317
    1SOL    HW3 6847   0.025   4.145   3.080  1.1561  1.0827 -0.5630
    1SOL    MW4 6848   0.012   4.217   3.127  0.5357  0.4883  0.1774
    1SOL     OW 6849   0.232   4.381   3.018  0.5360  0.0650 -0.1075
    1SOL    HW2 6850   0.162   4.334   3.062 -2.3061  0.9191 -3.5004
    1SOL    HW3 6851   0.228   4.470   3.053  1.1445 -0.3328  1.0009
    1SOL    MW4 6852   0.222   4.387   3.028  0.2413  0.1254 -0.4091
    1SOL     OW 6853   0.673   4.653   3.084  0.1275  0.2335 -0.0821
    1SOL    HW2 6854   0.660   4.560   3.068  0.6709  0.0163  0.7598
    1SOL    HW3 6855   0.594   4.694   3.047 -1.1434 -0.7508  1.4678
    1SOL    MW4 6856   0.661   4.647   3.077  0.0315  0.0753  0.2337
    1SOL     OW 6857   0.422   0.111   2.996  0.3536  0.0851  0.2141
    1SOL    HW2 6858   0.418   0.191   3.049 -0.6370  0.1437  0.0640
    1SOL    HW3 6859   0.355   0.054   3.034 -0.0495 -0.0467 -0.6911
    1SOL    MW4 6860   0.412   0.114   3.008  0.1697  0.0755  0.0749
    1SOL     OW 6861   0.410   0.356   3.147  0.1760  0.2271 -0.4220
    1SOL    HW2 6862   0.422   0.358   3.242  0.9739 -1.7357 -0.4769
    1SOL    HW3 6863   0.482   0.408   3.112  0.2594  0.4018  0.0091
    1SOL    MW4 6864   0.421   0.363   3.155  0.2923 -0.0088 -0.3726
    1SOL     OW 6865   0.639   0.495   3.055 -0.3626 -0.1660  0.4412
    1SOL    HW2 6866   0.708   0.437   3.087 -0.9373 -0.4053  1.2823
    1SOL    HW3 6867   0.663   0.581   3.089  0.6566  0.1516 -1.0703
    1SOL    MW4 6868   0.651   0.499   3.064 -0.3040 -0.1557  0.3529
    1SOL     OW 6869   0.685   0.747   3.154 -0.1247 -0.0781  0.6441
    1SOL    HW2 6870   0.681   0.740   3.250 -0.5333  0.0985  0.6422
    1SOL    HW3 6871   0.604   0.793   3.131 -1.5007 -2.7554 -0.0471
    1SOL    MW4 6872   0.674   0.753   3.164 -0.3603 -0.4080  0.5527
    1SOL     OW 6873   0.457   0.874   3.070 -0.1247 -0.2522  0.4585
    1SOL    HW2 6874   0.381   0.832   3.110  0.0475 -0.6181  0.4052
    1SOL    HW3 6875   0.445   0.859   2.976 -0.7626  0.9961  0.3347
    1SOL    MW4 6876   0.445   0.866   3.063 -0.1861 -0.1358  0.4351
    1SOL     OW 6877   0.472   1.127   3.158 -0.4177  0.1042  0.0536
    1SOL    HW2 6878   0.464   1.039   3.121  0.0686  0.1456 -0.1520
    1SOL    HW3 6879   0.394   1.173   3.127 -0.0528  0.1192 -0.8677
    1SOL    MW4 6880   0.461   1.121   3.149 -0.3054  0.1116 -0.0951
    1SOL     OW 6881   0.658   1.265   2.987 -0.0067  0.3947 -0.3736
    1SOL    HW2 6882   0.732   1.258   3.047  1.0553 -1.7836 -1.8945
    1SOL    HW3 6883   0.592   1.206   3.024 -1.2498  2.7122  1.2597
    1SOL    MW4 6884   0.659   1.256   3.000 -0.0305  0.4131 -0.3588
    1SOL     OW 6885   0.689   1.554   3.069 -0.1513  0.7950 -0.0367
    1SOL    HW2 6886   0.704   1.547   3.163  1.8922  1.4303 -0.2764
    1SOL    HW3 6887   0.682   1.464   3.039  0.8833  0.5241  0.4950
    1SOL    MW4 6888   0.690   1.541   3.078  0.2548  0.8432  0.0017
    1SOL     OW 6889   0.452   1.677   3.031 -0.1684  0.0282  0.3546
    1SOL    HW2 6890   0.537   1.639   3.055 -0.1745 -0.6849 -0.6863
    1SOL    HW3 6891   0.388   1.615   3.066 -0.2338  0.1768  0.4938
    1SOL    MW4 6892   0.455   1.663   3.039 -0.1778 -0.0463  0.2353
    1SOL     OW 6893   0.430   1.944   3.136  0.7804  0.1019 -0.3635
    1SOL    HW2 6894   0.435   1.865   3.083 -2.6052 -0.3117 -0.1582
    1SOL    HW3 6895   0.352   1.990   3.105  0.7749  1.6553  1.7985
    1SOL    MW4 6896   0.421   1.940   3.125  0.3330  0.2524 -0.0513
    1SOL     OW 6897   0.654   2.063   2.995  0.1446  0.4042  0.2365
    1SOL    HW2 6898   0.736   2.030   3.031 -0.2869 -2.0936 -0.9451
    1SOL    HW3 6899   0.585   2.021   3.048 -0.4122  0.0371 -0.7640
    1SOL    MW4 6900   0.655   2.053   3.007  0.0142  0.0262 -0.0515
    1SOL     OW 6901   0.671   2.323   3.072 -0.2379  0.3451  0.2575
    1SOL    HW2 6902   0.658   2.322   3.167  0.6682 -0.0666  0.3842
    1SOL    HW3 6903   0.665   2.231   3.046  0.0182  0.4049 -0.0125
    1SOL    MW4 6904   0.669   2.310   3.081 -0.0846  0.2985  0.2387
    1SOL     OW 6905   0.438   2.455   3.016  0.1046  0.2232  0.2558
    1SOL    HW2 6906   0.522   2.410   3.027 -0.0612 -0.2656 -0.4292
    1SOL    HW3 6907   0.425   2.460   2.921 -1.2395 -0.8390  0.3642
    1SOL    MW4 6908   0.447   2.450   3.005 -0.0946  0.0184  0.1798
    1SOL     OW 6909   0.443   2.708   3.133  0.4047 -0.3654 -0.3941
    1SOL    HW2 6910   0.507   2.762   3.089 -0.9972  0.2848 -1.6734
    1SOL    HW3 6911   0.459   2.619   3.101  0.0478 -0.0536 -1.4370
    1SOL    MW4 6912   0.453   2.703   3.123  0.1726 -0.2389 -0.7007
    1SOL     OW 6913   0.639   2.855   3.014 -0.1928 -0.0352 -0.0340
    1SOL    HW2 6914   0.720   2.810   3.037 -0.1919 -0.5722 -1.0553
    1SOL    HW3 6915   0.651   2.945   3.045  0.7923 -0.1156 -0.1841
    1SOL    MW4 6916   0.651   2.861   3.021 -0.0626 -0.1166 -0.1886
    1SOL     OW 6917   0.682   3.109   3.080  0.3304  0.3935  0.0019
    1SOL    HW2 6918   0.688   3.111   3.175 -2.7173 -1.7231  0.3293
    1SOL    HW3 6919   0.600   3.156   3.060 -0.2384 -1.1056 -1.3639
    1SOL    MW4 6920   0.672   3.115   3.090 -0.1467 -0.0832 -0.1352
    1SOL     OW 6921   0.402   3.208   3.036  0.0158  0.0681  0.3433
    1SOL    HW2 6922   0.412   3.286   3.090  0.4473 -0.0522  0.4396
    1SOL    HW3 6923   0.335   3.155   3.080 -1.4733  1.1297 -0.5879
    1SOL    MW4 6924   0.394   3.211   3.049 -0.1237  0.1924  0.2332
    1SOL     OW 6925   0.459   3.454   3.144  0.0853  0.2045 -0.5682
    1SOL    HW2 6926   0.452   3.486   3.234 -1.4944 -1.1937 -0.1779
    1SOL    HW3 6927   0.387   3.496   3.098 -1.4749 -2.0828 -0.2520
    1SOL    MW4 6928   0.449   3.464   3.150 -0.3290 -0.2818 -0.4752
    1SOL     OW 6929   0.675   3.580   3.026 -0.0823  0.4530  0.3963
    1SOL    HW2 6930   0.761   3.549   3.055  0.7101  1.5428 -0.7808
    1SOL    HW3 6931   0.613   3.532   3.082  1.1026 -3.1151 -1.2128
    1SOL    MW4 6932   0.678   3.569   3.037  0.1785  0.1259  0.0284
    1SOL     OW 6933   0.634   3.846   3.116 -0.0169 -0.0460 -0.0324
    1SOL    HW2 6934   0.643   3.834   3.211  1.4759  0.7042 -0.0719
    1SOL    HW3 6935   0.639   3.758   3.080  0.3374 -0.2560  0.5151
    1SOL    MW4 6936   0.636   3.833   3.124  0.2268  0.0253  0.0346
    1SOL     OW 6937   0.426   3.973   3.004  0.3584 -0.0865  0.3650
    1SOL    HW2 6938   0.505   3.923   3.022  1.8965  1.9994 -0.4430
    1SOL    HW3 6939   0.428   3.988   2.909 -0.2783  1.1843  0.5374
    1SOL    MW4 6940   0.436   3.968   2.994  0.4773  0.3567  0.2813
    1SOL     OW 6941   0.460   4.241   3.080  0.2031 -0.4467 -0.3152
    1SOL    HW2 6942   0.437   4.150   3.062  0.8285 -0.5810 -0.4538
    1SOL    HW3 6943   0.388   4.292   3.045  0.3278 -0.8396 -1.1427
    1SOL    MW4 6944   0.448   4.235   3.073  0.3021 -0.5164 -0.4425
    1SOL     OW 6945   0.678   4.382   2.986 -0.3717  0.6533  0.2909
    1SOL    HW2 6946   0.617   4.314   3.015  1.2338 -0.3940  1.2841
    1SOL    HW3 6947   0.657   4.394   2.894 -1.0415 -0.8142  0.2288
    1SOL    MW4 6948   0.667   4.375   2.978 -0.2482  0.3214  0.4137
    1SOL     OW 6949   1.104   4.664   3.141  0.2999  0.0721  0.0703
    1SOL    HW2 6950   1.186   4.688   3.099  0.4600 -0.6466 -0.0403
    1SOL    HW3 6951   1.036   4.710   3.092  0.4668 -0.9092 -1.0976
    1SOL    MW4 6952   1.106   4.673   3.129  0.3430 -0.1516 -0.0982
    1SOL     OW 6953   0.886   0.123   2.979 -0.0143 -0.1475 -0.1611
    1SOL    HW2 6954   0.886   0.201   3.034 -1.5398 -0.2881  0.0749
    1SOL    HW3 6955   0.811   0.072   3.010  0.6643 -1.4619 -0.6530
    1SOL    MW4 6956   0.876   0.127   2.990 -0.1261 -0.3394 -0.1948
    1SOL     OW 6957   0.880   0.348   3.112  0.3213 -0.0501  0.2121
    1SOL    HW2 6958   0.894   0.340   3.206 -2.3166  1.8509  0.8242
    1SOL    HW3 6959   0.941   0.417   3.084  0.9699 -0.4803  0.5717
    1SOL    MW4 6960   0.890   0.356   3.121  0.0588  0.1439  0.3405
    1SOL     OW 6961   1.097   0.513   3.034 -0.2305 -0.0774  0.2446
    1SOL    HW2 6962   1.179   0.473   3.062  0.3320  0.4996 -0.5456
    1SOL    HW3 6963   1.101   0.512   2.938 -0.4101  1.4147  0.2124
    1SOL    MW4 6964   1.109   0.508   3.025 -0.1801  0.1956  0.1361
    1SOL     OW 6965   1.109   0.792   3.130  0.0940  0.0803  0.2006
    1SOL    HW2 6966   1.124   0.804   3.223 -0.2134 -1.0830  0.4063
    1SOL    HW3 6967   1.103   0.697   3.118  0.6278  0.1890 -1.0757
    1SOL    MW4 6968   1.110   0.781   3.140  0.1237 -0.0589  0.0594
    1SOL     OW 6969   0.883   0.941   3.087 -0.4192 -0.2992  0.0257
    1SOL    HW2 6970   0.956   0.882   3.106 -0.0506  0.6921  1.8237
    1SOL    HW3 6971   0.805   0.888   3.106 -0.1230 -0.6018  0.4062
    1SOL    MW4 6972   0.882   0.926   3.092 -0.3315 -0.2084  0.3130
    1SOL     OW 6973   0.889   1.211   3.141  0.2614  0.3988  0.2167
    1SOL    HW2 6974   0.957   1.263   3.097 -1.1473  2.2214  0.1103
    1SOL    HW3 6975   0.900   1.123   3.106 -0.4087  1.6470 -3.4202
    1SOL    MW4 6976   0.899   1.207   3.131 -0.0129  0.8039 -0.2770
    1SOL     OW 6977   1.132   1.313   3.036  0.5207 -0.3297 -0.3531
    1SOL    HW2 6978   1.190   1.244   3.067  0.8023 -0.0774 -0.3103
    1SOL    HW3 6979   1.135   1.306   2.941 -0.3085 -1.0759 -0.3300
    1SOL    MW4 6980   1.140   1.303   3.028  0.4485 -0.3949 -0.3445
    1SOL     OW 6981   1.128   1.560   3.148  0.9616 -0.0416  0.3898
    1SOL    HW2 6982   1.210   1.607   3.134 -0.2700  2.2606  0.6143
    1SOL    HW3 6983   1.140   1.476   3.103  2.3861  1.4255 -2.0833
    1SOL    MW4 6984   1.140   1.555   3.140  0.9869  0.4557  0.0932
    1SOL     OW 6985   0.924   1.689   3.004  0.0250 -0.1061  0.3123
    1SOL    HW2 6986   0.995   1.651   3.056  0.3528  0.3092  0.1725
    1SOL    HW3 6987   0.848   1.636   3.025  0.4418 -0.7337  0.2461
    1SOL    MW4 6988   0.923   1.677   3.014  0.1233 -0.1342  0.2851
    1SOL     OW 6989   0.854   1.952   3.147 -0.0183  0.1113  0.5990
    1SOL    HW2 6990   0.871   1.946   3.241 -1.4119  0.0536  0.8638
    1SOL    HW3 6991   0.865   1.863   3.115 -3.1455 -0.6087  1.3795
    1SOL    MW4 6992   0.857   1.940   3.155 -0.6147  0.0087  0.7370
    1SOL     OW 6993   1.102   2.076   3.037  0.3453  0.3766 -0.5298
    1SOL    HW2 6994   1.029   2.021   3.064  1.2182 -0.1310  0.7809
    1SOL    HW3 6995   1.106   2.065   2.942  0.3266 -1.5751 -0.3143
    1SOL    MW4 6996   1.093   2.067   3.028  0.4580  0.0522 -0.3281
    1SOL     OW 6997   1.095   2.331   3.130  0.7385  0.1675 -0.3174
    1SOL    HW2 6998   1.019   2.379   3.098  0.3164  0.8062  1.5698
    1SOL    HW3 6999   1.077   2.239   3.111 -0.9774  0.2080  1.0166
    1SOL    MW4 7000   1.083   2.325   3.123  0.4565  0.2573  0.1075
    1SOL     OW 7001   0.895   2.476   2.992 -0.4637 -0.0665 -0.2631
    1SOL    HW2 7002   0.823   2.425   3.029 -0.3984 -0.9037 -1.2734
    1SOL    HW3 7003   0.893   2.457   2.898  1.0951 -0.1302 -0.2994
    1SOL    MW4 7004   0.885   2.467   2.984 -0.2493 -0.1853 -0.4010
    1SOL     OW 7005   0.872   2.745   3.073 -0.3075 -0.0890 -0.0871
    1SOL    HW2 7006   0.873   2.735   3.168 -0.2078  0.7780  0.0013
    1SOL    HW3 7007   0.873   2.655   3.040  0.0968 -0.3912  0.7282
    1SOL    MW4 7008   0.873   2.732   3.081 -0.2410 -0.0148  0.0322
    1SOL     OW 7009   1.124   2.830   2.977 -0.2330  0.3708  0.0742
    1SOL    HW2 7010   1.121   2.910   3.030 -0.5689  0.0422  0.5569
    1SOL    HW3 7011   1.043   2.784   2.999 -0.7813  0.6258 -1.3416
    1SOL    MW4 7012   1.113   2.834   2.987 -0.3498  0.3612 -0.0489
    1SOL     OW 7013   1.114   3.075   3.115 -0.2065  0.1069  0.3659
    1SOL    HW2 7014   1.193   3.119   3.084  0.2754 -0.9086  0.1334
    1SOL    HW3 7015   1.043   3.136   3.096  0.4498  0.7782  0.0491
    1SOL    MW4 7016   1.115   3.089   3.109 -0.0563  0.0613  0.2935
    1SOL     OW 7017   0.915   3.249   3.005 -0.3699  0.1582  0.1611
    1SOL    HW2 7018   0.852   3.187   3.039 -2.2772  1.9847  0.0443
    1SOL    HW3 7019   0.908   3.241   2.910  1.4654 -1.4763  0.1367
    1SOL    MW4 7020   0.906   3.240   2.997 -0.3794  0.1836  0.1426
    1SOL     OW 7021   0.937   3.508   3.138  0.2945 -0.1319  0.1129
    1SOL    HW2 7022   1.011   3.551   3.095 -1.5721  1.0626 -2.0666
    1SOL    HW3 7023   0.925   3.427   3.089  0.0508 -0.2066  0.2959
    1SOL    MW4 7024   0.945   3.503   3.126  0.0162  0.0160 -0.1504
    1SOL     OW 7025   1.159   3.621   3.022  0.1008  0.1890  0.2841
    1SOL    HW2 7026   1.241   3.576   3.038  0.1013  0.1509  0.1734
    1SOL    HW3 7027   1.173   3.710   3.053  0.2711  0.2553  0.0189
    1SOL    MW4 7028   1.171   3.627   3.028  0.1233  0.1924  0.2344
    1SOL     OW 7029   1.124   3.877   3.116 -0.0352 -0.0274 -0.1783
    1SOL    HW2 7030   1.132   3.875   3.211  0.4067 -0.1810 -0.2137
    1SOL    HW3 7031   1.037   3.912   3.099 -0.4057 -0.7220  0.2930
    1SOL    MW4 7032   1.114   3.881   3.126 -0.0257 -0.1392 -0.1209
    1SOL     OW 7033   0.879   3.984   3.060 -0.4796 -0.2550  0.0696
    1SOL    HW2 7034   0.804   3.936   3.094 -0.9252  0.5559  0.2345
    1SOL    HW3 7035   0.873   3.973   2.965 -0.9152 -0.0272  0.0712
    1SOL    MW4 7036   0.868   3.976   3.052 -0.5958 -0.1178  0.0918
    1SOL     OW 7037   0.910   4.249   3.125 -0.2633 -0.0554  0.6045
    1SOL    HW2 7038   0.893   4.159   3.097  1.3320 -0.0748 -0.3555
    1SOL    HW3 7039   0.850   4.302   3.074 -0.9306 -0.5347  0.8815
    1SOL    MW4 7040   0.900   4.244   3.115 -0.1409 -0.1216  0.5143
    1SOL     OW 7041   1.126   4.401   3.050  0.0123  0.2062 -0.2006
    1SOL    HW2 7042   1.049   4.351   3.078 -1.6819  1.7533 -1.9539
    1SOL    HW3 7043   1.114   4.487   3.088 -0.1761  1.0571 -2.1289
    1SOL    MW4 7044   1.114   4.406   3.058 -0.2359  0.5226 -0.6862
    1SOL     OW 7045   1.569   4.661   3.111 -0.1006 -0.5562  0.0383
    1SOL    HW2 7046   1.574   4.667   3.206  1.8180 -1.4080  0.0228
    1SOL    HW3 7047   1.485   4.700   3.089 -0.2809  0.2605  2.0271
    1SOL    MW4 7048   1.559   4.667   3.121  0.1286 -0.5608  0.2990
    1SOL     OW 7049   1.319   0.086   3.012  0.0985  0.4701 -0.6114
    1SOL    HW2 7050   1.330   0.179   3.031  1.0990  0.0816  0.7416
    1SOL    HW3 7051   1.301   0.083   2.918 -0.6032  2.0775 -0.5407
    1SOL    MW4 7052   1.318   0.098   3.002  0.1380  0.6309 -0.4234
    1SOL     OW 7053   1.337   0.362   3.092  0.3839 -0.0886 -0.2259
    1SOL    HW2 7054   1.347   0.362   3.187 -0.8401 -0.4326 -0.0827
    1SOL    HW3 7055   1.416   0.404   3.059  1.2933 -0.8814  0.8915
    1SOL    MW4 7056   1.349   0.367   3.100  0.3424 -0.2386 -0.0598
    1SOL     OW 7057   1.597   0.504   3.027  0.4201  0.0447  0.7059
    1SOL    HW2 7058   1.587   0.595   3.053  0.1397  0.6120 -1.2955
    1SOL    HW3 7059   1.584   0.504   2.932  1.2192 -1.9602  0.5609
    1SOL    MW4 7060   1.594   0.516   3.018  0.4885 -0.1451  0.4230
    1SOL     OW 7061   1.558   0.746   3.149  0.4447  0.5491 -0.6190
    1SOL    HW2 7062   1.560   0.752   3.245  0.5754 -1.5656 -0.4665
    1SOL    HW3 7063   1.487   0.805   3.123  1.3747  2.2803  0.6570
    1SOL    MW4 7064   1.549   0.755   3.158  0.5847  0.4985 -0.4306
    1SOL     OW 7065   1.369   0.884   3.020 -0.2622  0.1318  0.4799
    1SOL    HW2 7066   1.356   0.971   3.056 -0.1607  0.1421  0.4912
    1SOL    HW3 7067   1.297   0.832   3.056 -1.8660  0.8284 -1.5790
    1SOL    MW4 7068   1.358   0.888   3.029 -0.4605  0.2250  0.2100
    1SOL     OW 7069   1.328   1.146   3.128 -0.2436 -0.1393 -0.3969
    1SOL    HW2 7070   1.332   1.135   3.223 -1.5778 -0.8974 -0.4060
    1SOL    HW3 7071   1.413   1.181   3.103 -0.5584  1.9106  1.3181
    1SOL    MW4 7072   1.339   1.149   3.137 -0.4611  0.0311 -0.1717
    1SOL     OW 7073   1.567   1.258   3.034  0.1165  0.0545 -0.0500
    1SOL    HW2 7074   1.649   1.217   3.062  0.8485  1.2206 -0.4568
    1SOL    HW3 7075   1.568   1.345   3.076 -0.9338  0.0633 -0.0237
    1SOL    MW4 7076   1.578   1.264   3.043  0.0745  0.2095 -0.1001
    1SOL     OW 7077   1.569   1.517   3.121  0.3243  0.0923  0.0178
    1SOL    HW2 7078   1.640   1.582   3.118 -0.3328  0.9977  2.7246
    1SOL    HW3 7079   1.490   1.568   3.102  0.0162 -0.2704  0.3326
    1SOL    MW4 7080   1.568   1.533   3.118  0.1969  0.1639  0.4163
    1SOL     OW 7081   1.356   1.698   3.059 -0.4549  0.2009  0.0198
    1SOL    HW2 7082   1.359   1.788   3.091 -2.2125  0.4674 -0.5137
    1SOL    HW3 7083   1.340   1.706   2.965 -1.5611 -0.6763  0.1188
    1SOL    MW4 7084   1.354   1.711   3.051 -0.8326  0.1203 -0.0374
    1SOL     OW 7085   1.337   1.964   3.144 -0.4174  0.0262 -0.4874
    1SOL    HW2 7086   1.346   1.971   3.239  0.5875  0.8825 -0.6367
    1SOL    HW3 7087   1.261   2.019   3.124 -0.8627 -0.4546 -0.1491
    1SOL    MW4 7088   1.328   1.972   3.154 -0.3436  0.0757 -0.4623
    1SOL     OW 7089   1.573   2.063   3.031  0.0989 -0.0325 -0.1908
    1SOL    HW2 7090   1.490   2.030   3.066 -0.9860  1.7310 -1.0732
    1SOL    HW3 7091   1.566   2.047   2.937  0.9700 -0.2960 -0.2125
    1SOL    MW4 7092   1.561   2.056   3.023  0.0707  0.1655 -0.3102
    1SOL     OW 7093   1.584   2.329   3.067  0.3664 -0.0369 -0.0647
    1SOL    HW2 7094   1.498   2.370   3.057  0.7457  0.9895  0.7335
    1SOL    HW3 7095   1.570   2.238   3.043 -1.1409 -0.0647  0.8380
    1SOL    MW4 7096   1.571   2.323   3.063  0.2176  0.0947  0.1597
    1SOL     OW 7097   1.326   2.427   3.014  0.1671  0.3475  0.5094
    1SOL    HW2 7098   1.238   2.391   3.026  0.6340 -1.4661 -1.2333
    1SOL    HW3 7099   1.333   2.445   2.921  1.6626  0.3777  0.6010
    1SOL    MW4 7100   1.316   2.424   3.003  0.4259  0.1123  0.2913
    1SOL     OW 7101   1.318   2.693   3.122  0.0416 -0.2837  0.2813
    1SOL    HW2 7102   1.323   2.601   3.094  0.8856 -0.2267  0.2394
    1SOL    HW3 7103   1.255   2.733   3.061  0.0481 -0.7175 -0.0134
    1SOL    MW4 7104   1.310   2.686   3.110  0.1538 -0.3338  0.2367
    1SOL     OW 7105   1.528   2.817   3.007  0.2908 -0.5747  0.1085
    1SOL    HW2 7106   1.607   2.783   3.048  0.4978 -0.5640 -0.2818
    1SOL    HW3 7107   1.456   2.779   3.058  0.5568 -0.0613  0.8709
    1SOL    MW4 7108   1.529   2.807   3.019  0.3531 -0.5052  0.1576
    1SOL     OW 7109   1.578   3.069   3.105 -0.5110  0.3196  0.4246
    1SOL    HW2 7110   1.584   3.061   3.200 -0.4394 -0.4681  0.3582
    1SOL    HW3 7111   1.553   2.982   3.075  1.8023 -0.0747 -0.4546
    1SOL    MW4 7112   1.576   3.057   3.113 -0.1963  0.1638  0.2997
    1SOL     OW 7113   1.346   3.190   3.012 -0.2578  0.0730 -0.3462
    1SOL    HW2 7114   1.414   3.131   3.043 -0.4463 -0.4965 -1.0106
    1SOL    HW3 7115   1.358   3.194   2.917 -0.7303  0.4930 -0.3942
    1SOL    MW4 7116   1.357   3.183   3.004 -0.3451  0.0532 -0.4404
    1SOL     OW 7117   1.385   3.448   3.077  0.3579 -0.1690  0.2289
    1SOL    HW2 7118   1.362   3.453   3.170 -0.3053 -0.1179  0.0598
    1SOL    HW3 7119   1.364   3.358   3.051 -0.2448  0.0558 -0.0780
    1SOL    MW4 7120   1.379   3.437   3.086  0.1909 -0.1323  0.1659
    1SOL     OW 7121   1.581   3.639   3.009  0.4355  0.4023 -0.3560
    1SOL    HW2 7122   1.520   3.570   3.037  1.7088 -0.3260  0.6666
    1SOL    HW3 7123   1.583   3.632   2.914 -0.0362 -0.4628 -0.3088
    1SOL    MW4 7124   1.573   3.629   3.000  0.5412  0.1919 -0.2148
    1SOL     OW 7125   1.564   3.885   3.146 -0.6102 -0.1327 -0.4590
    1SOL    HW2 7126   1.647   3.924   3.119 -0.5134  0.2720  0.3864
    1SOL    HW3 7127   1.569   3.795   3.116  0.8336 -0.5684  0.9980
    1SOL    MW4 7128   1.576   3.878   3.139 -0.4070 -0.1369 -0.1554
    1SOL     OW 7129   1.352   4.009   2.995 -0.3001  0.4088 -0.0759
    1SOL    HW2 7130   1.421   3.961   3.040 -0.6182 -0.2489 -0.2828
    1SOL    HW3 7131   1.271   3.965   3.020 -0.6083  0.9239 -0.1561
    1SOL    MW4 7132   1.351   3.997   3.004 -0.3827  0.3903 -0.1142
    1SOL     OW 7133   1.336   4.253   3.176  0.3352 -0.0548 -0.6009
    1SOL    HW2 7134   1.347   4.180   3.114  0.4194  0.5407 -1.2905
    1SOL    HW3 7135   1.264   4.304   3.140  1.6871  1.3949 -1.2835
    1SOL    MW4 7136   1.328   4.250   3.163  0.5248  0.2151 -0.7820
    1SOL     OW 7137   1.534   4.386   3.029 -0.1128 -0.1395 -0.4263
    1SOL    HW2 7138   1.475   4.338   3.087  0.7443 -1.9698 -1.0397
    1SOL    HW3 7139   1.525   4.477   3.057 -1.0253 -0.7603  1.4295
    1SOL    MW4 7140   1.525   4.392   3.040 -0.1200 -0.4625 -0.2620
    1SOL     OW 7141   2.044   0.014   3.139 -0.4458 -0.6349  0.1296
    1SOL    HW2 7142   2.027   0.010   3.233 -0.7900  1.2711  0.1606
    1SOL    HW3 7143   1.974   0.069   3.104  0.8463  0.3710 -0.9413
    1SOL    MW4 7144   2.032   0.020   3.147 -0.3207 -0.2508 -0.0079
    1SOL     OW 7145   1.813   0.133   3.045 -0.0662 -0.2962  0.2050
    1SOL    HW2 7146   1.731   0.086   3.063 -0.4635 -0.5794 -2.1587
    1SOL    HW3 7147   1.816   0.140   2.950  1.6147  1.6244  0.3669
    1SOL    MW4 7148   1.802   0.127   3.035  0.1034 -0.0802 -0.0856
    1SOL     OW 7149   1.810   0.390   3.158  0.0389  0.3709  0.5458
    1SOL    HW2 7150   1.801   0.303   3.121  0.5983  0.3356  0.4961
    1SOL    HW3 7151   1.734   0.438   3.125 -0.1424 -0.0280  0.3871
    1SOL    MW4 7152   1.799   0.385   3.149  0.0888  0.3136  0.5181
    1SOL     OW 7153   2.013   0.502   3.035  0.0922 -0.3954 -0.4311
    1SOL    HW2 7154   1.939   0.456   3.073  0.0272 -0.2130 -0.3343
    1SOL    HW3 7155   1.990   0.513   2.943 -0.3202  0.2886 -0.2541
    1SOL    MW4 7156   2.000   0.498   3.028  0.0291 -0.2811 -0.3951
    1SOL     OW 7157   2.008   0.778   3.172 -0.1600 -0.1133  0.2210
    1SOL    HW2 7158   1.924   0.816   3.146  0.4327  0.9461 -0.1890
    1SOL    HW3 7159   2.004   0.688   3.140 -1.1846 -0.1137  0.3076
    1SOL    MW4 7160   1.996   0.771   3.164 -0.2170  0.0264  0.1783
    1SOL     OW 7161   1.770   0.911   3.070 -0.0035  0.2804 -0.0982
    1SOL    HW2 7162   1.695   0.858   3.100  0.4253 -0.9618 -1.1517
    1SOL    HW3 7163   1.769   0.901   2.975  1.7668 -0.1015 -0.0875
    1SOL    MW4 7164   1.760   0.903   3.062  0.2867  0.0662 -0.2358
    1SOL     OW 7165   1.808   1.158   3.149  0.4561 -0.3046 -0.3176
    1SOL    HW2 7166   1.812   1.149   3.244 -0.5485 -1.3990 -0.3641
    1SOL    HW3 7167   1.790   1.069   3.117  0.4146  0.1160 -1.5066
    1SOL    MW4 7168   1.806   1.145   3.157  0.3182 -0.3935 -0.4807
    1SOL     OW 7169   2.039   1.309   3.077 -0.4810  0.3804 -0.3684
    1SOL    HW2 7170   2.117   1.270   3.117 -0.4354  1.1847  0.3573
    1SOL    HW3 7171   1.967   1.253   3.105 -0.3258  0.3972  0.0698
    1SOL    MW4 7172   2.040   1.297   3.086 -0.4547  0.4886 -0.2146
    1SOL     OW 7173   1.960   1.557   3.142 -0.0485 -0.0893 -0.2749
    1SOL    HW2 7174   1.988   1.565   3.234  2.0892  1.8904 -1.0406
    1SOL    HW3 7175   1.987   1.469   3.117 -1.3909 -0.9526  1.2236
    1SOL    MW4 7176   1.968   1.546   3.151  0.0564  0.0579 -0.1783
    1SOL     OW 7177   1.747   1.726   3.067  0.5480  0.2014 -0.2137
    1SOL    HW2 7178   1.765   1.818   3.089 -0.3065  0.6093 -1.1411
    1SOL    HW3 7179   1.830   1.682   3.079  1.0951  1.2045 -0.2284
    1SOL    MW4 7180   1.760   1.732   3.072  0.5075  0.3877 -0.3378
    1SOL     OW 7181   1.825   1.996   3.154  0.0391 -0.0055  0.0712
    1SOL    HW2 7182   1.898   2.019   3.096 -0.2635  0.5745 -0.0841
    1SOL    HW3 7183   1.752   2.051   3.124 -0.3457 -0.2919  0.4815
    1SOL    MW4 7184   1.825   2.006   3.143 -0.0517  0.0331  0.1047
    1SOL     OW 7185   2.040   2.057   2.993 -0.0659 -0.2474 -0.4110
    1SOL    HW2 7186   2.111   2.011   3.037 -0.7287 -1.0388 -0.1419
    1SOL    HW3 7187   2.050   2.149   3.019  1.1144 -0.2755 -0.7361
    1SOL    MW4 7188   2.050   2.063   3.002  0.0021 -0.3557 -0.4184
    1SOL     OW 7189   2.050   2.324   3.096  0.1658  0.0571 -0.0361
    1SOL    HW2 7190   2.119   2.380   3.062  0.4502 -0.9039 -1.1054
    1SOL    HW3 7191   1.969   2.369   3.074  0.4060  0.4157 -0.1905
    1SOL    MW4 7192   2.048   2.337   3.089  0.2348 -0.0224 -0.1976
    1SOL     OW 7193   1.825   2.463   2.997  0.2961 -0.6388  0.3632
    1SOL    HW2 7194   1.807   2.555   3.018 -0.8679 -0.3742 -1.6857
    1SOL    HW3 7195   1.751   2.415   3.033 -0.2947 -0.4977 -0.6507
    1SOL    MW4 7196   1.813   2.469   3.005  0.0646 -0.5853 -0.0410
    1SOL     OW 7197   1.755   2.712   3.113  0.2291 -0.1484  0.4566
    1SOL    HW2 7198   1.763   2.723   3.207  1.6472  1.4078  0.1812
    1SOL    HW3 7199   1.828   2.762   3.077 -0.3426 -0.6593 -1.4641
    1SOL    MW4 7200   1.765   2.720   3.120  0.3408 -0.0100  0.1669
    1SOL     OW 7201   1.975   2.844   2.996 -0.3662 -0.1283 -0.0602
    1SOL    HW2 7202   2.004   2.920   3.048 -0.1595 -0.3851  0.1976
    1SOL    HW3 7203   2.004   2.864   2.907 -1.7147  0.8464 -0.2934
    1SOL    MW4 7204   1.983   2.857   2.991 -0.5170 -0.0334 -0.0570
    1SOL     OW 7205   2.014   3.106   3.107 -0.2927  0.0518 -0.0035
    1SOL    HW2 7206   2.003   3.108   3.202  0.3091  2.0460  0.0407
    1SOL    HW3 7207   1.929   3.134   3.073 -0.1113  0.5971 -0.0142
    1SOL    MW4 7208   2.001   3.110   3.115 -0.1893  0.3870  0.0010
    1SOL     OW 7209   1.777   3.207   3.000 -0.0027  0.2220 -0.2968
    1SOL    HW2 7210   1.701   3.158   3.031 -0.7438  2.0526  0.9116
    1SOL    HW3 7211   1.771   3.203   2.905 -1.5813  0.2716 -0.2159
    1SOL    MW4 7212   1.766   3.200   2.992 -0.3088  0.4704 -0.1266
    1SOL     OW 7213   1.793   3.478   3.098  0.0105  0.0484 -0.0570
    1SOL    HW2 7214   1.778   3.392   3.060 -0.2050  0.7031 -1.4992
    1SOL    HW3 7215   1.720   3.531   3.066  1.5770  1.4533 -1.3788
    1SOL    MW4 7216   1.781   3.474   3.089  0.1888  0.3200 -0.4215
    1SOL     OW 7217   2.009   3.606   2.976  0.3486  0.9035  0.0837
    1SOL    HW2 7218   2.019   3.687   3.026 -0.8058  0.9133  0.3036
    1SOL    HW3 7219   1.935   3.562   3.017  2.1105 -1.1467  1.1581
    1SOL    MW4 7220   2.001   3.611   2.988  0.4289  0.6344  0.2544
    1SOL     OW 7221   2.033   3.843   3.126 -0.3445 -0.2938 -0.3251
    1SOL    HW2 7222   2.046   3.852   3.221  0.0371 -2.4447 -0.1482
    1SOL    HW3 7223   1.956   3.897   3.107  0.7136  1.7318  0.8708
    1SOL    MW4 7224   2.025   3.852   3.136 -0.1543 -0.3104 -0.1440
    1SOL     OW 7225   1.805   3.980   3.039  0.3685  0.0959  0.0260
    1SOL    HW2 7226   1.800   4.075   3.040  1.1222  0.1318  0.5823
    1SOL    HW3 7227   1.812   3.957   2.947  1.7576  0.6722 -0.0246
    1SOL    MW4 7228   1.805   3.989   3.027  0.6512  0.1769  0.0927
    1SOL     OW 7229   1.772   4.264   3.100 -0.3486 -0.2834  0.5692
    1SOL    HW2 7230   1.850   4.313   3.074 -0.2041 -1.0728 -0.5826
    1SOL    HW3 7231   1.699   4.322   3.080 -0.0808  0.2469  1.1326
    1SOL    MW4 7232   1.773   4.278   3.094 -0.2942 -0.3176  0.4916
    1SOL     OW 7233   1.987   4.425   3.037 -0.0558  0.1402 -0.2207
    1SOL    HW2 7234   1.994   4.508   3.084 -0.3561  0.1097 -0.1230
    1SOL    HW3 7235   1.995   4.449   2.945 -0.2966  0.2941 -0.2018
    1SOL    MW4 7236   1.989   4.439   3.031 -0.1273  0.1574 -0.2053
    1SOL     OW 7237   2.454   0.005   3.166 -0.3118  0.0318  0.0957
    1SOL    HW2 7238   2.455  -0.083   3.130 -0.8577 -0.1874  0.6002
    1SOL    HW3 7239   2.385   0.051   3.117  0.5729  0.4442 -0.7726
    1SOL    MW4 7240   2.445  -0.001   3.155 -0.2670  0.0577  0.0479
    1SOL     OW 7241   2.267   0.128   3.006 -0.1797 -0.3645  0.3066
    1SOL    HW2 7242   2.270   0.218   3.039 -0.7432  0.2017 -1.1378
    1SOL    HW3 7243   2.192   0.089   3.050 -0.3492  0.0916  0.4269
    1SOL    MW4 7244   2.257   0.135   3.016 -0.2763 -0.2296  0.1318
    1SOL     OW 7245   2.257   0.394   3.130 -0.4582  0.3174  0.2220
    1SOL    HW2 7246   2.253   0.378   3.224  0.7580  1.2065  0.4397
    1SOL    HW3 7247   2.191   0.461   3.114 -0.0897  0.7728  0.5925
    1SOL    MW4 7248   2.248   0.401   3.140 -0.2494  0.4948  0.2995
    1SOL     OW 7249   2.477   0.524   3.057  0.4522 -0.0845 -0.2542
    1SOL    HW2 7250   2.402   0.476   3.091 -0.0483  2.0549  1.7548
    1SOL    HW3 7251   2.477   0.506   2.963 -1.3499 -1.7363  0.0440
    1SOL    MW4 7252   2.467   0.515   3.049  0.1485 -0.0201  0.0501
    1SOL     OW 7253   2.488   0.782   3.151 -0.2012  0.5064 -0.5388
    1SOL    HW2 7254   2.568   0.816   3.110 -0.2648 -0.1493 -1.2159
    1SOL    HW3 7255   2.478   0.694   3.115 -0.2394 -0.1030  0.9064
    1SOL    MW4 7256   2.498   0.775   3.141 -0.2146  0.3394 -0.4375
    1SOL     OW 7257   2.247   0.896   3.073  0.5180  0.4195  0.3813
    1SOL    HW2 7258   2.329   0.854   3.102  1.0443  0.6000 -0.8291
    1SOL    HW3 7259   2.179   0.849   3.121  1.2041 -0.9056  0.0903
    1SOL    MW4 7260   2.249   0.884   3.083  0.6781  0.2686  0.1833
    1SOL     OW 7261   2.230   1.145   3.181  0.4508 -0.0299 -0.2156
    1SOL    HW2 7262   2.207   1.118   3.270  0.0785 -1.0424 -0.6065
    1SOL    HW3 7263   2.241   1.062   3.133  0.4257  0.5104 -1.1650
    1SOL    MW4 7264   2.229   1.130   3.186  0.3984 -0.0924 -0.3927
    1SOL     OW 7265   2.450   1.296   3.084 -0.3687 -0.1619 -0.3658
    1SOL    HW2 7266   2.380   1.236   3.111  0.1886 -0.7417 -0.1844
    1SOL    HW3 7267   2.437   1.306   2.990 -1.0427  0.1900 -0.2402
    1SOL    MW4 7268   2.439   1.289   3.075 -0.3841 -0.1919 -0.3250
    1SOL     OW 7269   2.438   1.572   3.161  0.2310  0.0104  0.4704
    1SOL    HW2 7270   2.358   1.607   3.123  0.2964 -0.0408  0.2844
    1SOL    HW3 7271   2.443   1.482   3.128  0.2587 -0.0510  0.6438
    1SOL    MW4 7272   2.428   1.565   3.151  0.2432 -0.0044  0.4687
    1SOL     OW 7273   2.204   1.656   3.025  0.3214 -0.2814  0.4475
    1SOL    HW2 7274   2.120   1.620   3.052 -0.2444  0.7026  0.0060
    1SOL    HW3 7275   2.200   1.658   2.929  0.4958  0.5911  0.4499
    1SOL    MW4 7276   2.192   1.651   3.016  0.2697 -0.0365  0.3896
    1SOL     OW 7277   2.230   1.908   3.143  0.2934 -0.1012  0.5833
    1SOL    HW2 7278   2.302   1.956   3.103 -0.5463  0.4726 -0.2675
    1SOL    HW3 7279   2.233   1.821   3.105 -0.0258  0.2081 -0.1528
    1SOL    MW4 7280   2.240   1.903   3.133  0.1404  0.0155  0.3738
    1SOL     OW 7281   2.449   2.049   3.051  0.1718 -0.2698 -0.0819
    1SOL    HW2 7282   2.531   2.008   3.080  1.0898  1.2131 -0.4943
    1SOL    HW3 7283   2.465   2.072   2.960 -0.3858  0.8094  0.0819
    1SOL    MW4 7284   2.462   2.046   3.043  0.2193  0.0684 -0.1147
    1SOL     OW 7285   2.432   2.317   3.098  0.3953  0.5248  0.0153
    1SOL    HW2 7286   2.460   2.326   3.189  0.4183  1.0622 -0.0435
    1SOL    HW3 7287   2.441   2.224   3.079  2.2330  0.6913 -0.0128
    1SOL    MW4 7288   2.437   2.306   3.107  0.6409  0.6177  0.0041
    1SOL     OW 7289   2.239   2.485   3.002  0.7642  0.0496 -0.2104
    1SOL    HW2 7290   2.244   2.567   3.051  0.8177  0.7566 -1.4039
    1SOL    HW3 7291   2.316   2.436   3.031  0.6437  0.3376  0.6329
    1SOL    MW4 7292   2.250   2.489   3.013  0.7555  0.1810 -0.2570
    1SOL     OW 7293   2.221   2.740   3.154  0.5067  0.5279  0.5311
    1SOL    HW2 7294   2.297   2.791   3.128  0.0981  1.4703  1.1791
    1SOL    HW3 7295   2.150   2.774   3.101  0.3680  0.2039  0.5101
    1SOL    MW4 7296   2.222   2.751   3.144  0.4344  0.6099  0.6137
    1SOL     OW 7297   2.453   2.827   3.028  0.2720  0.0366 -0.1797
    1SOL    HW2 7298   2.472   2.915   3.059  1.2379 -0.3146  0.2516
    1SOL    HW3 7299   2.435   2.838   2.934 -1.9403  0.9952  0.3197
    1SOL    MW4 7300   2.453   2.840   3.020  0.1075  0.1166 -0.0570
    1SOL     OW 7301   2.479   3.087   3.147 -0.4348  0.3816 -0.2857
    1SOL    HW2 7302   2.559   3.127   3.112 -0.2707  0.2744 -0.0332
    1SOL    HW3 7303   2.408   3.135   3.104 -0.2367  0.6804 -0.2846
    1SOL    MW4 7304   2.481   3.099   3.136 -0.3870  0.4067 -0.2522
    1SOL     OW 7305   2.273   3.227   3.032 -0.7154 -0.1550  0.0442
    1SOL    HW2 7306   2.259   3.317   3.061 -1.4815 -0.2405 -0.0661
    1SOL    HW3 7307   2.194   3.181   3.057 -0.1421 -0.9067  0.4984
    1SOL    MW4 7308   2.261   3.233   3.039 -0.7410 -0.2654  0.0894
    1SOL     OW 7309   2.248   3.500   3.119 -0.6922 -0.0995 -0.2035
    1SOL    HW2 7310   2.325   3.551   3.092 -0.3351 -0.3522  0.3419
    1SOL    HW3 7311   2.174   3.544   3.076 -0.4305  1.1190  0.5797
    1SOL    MW4 7312   2.248   3.513   3.110 -0.6108  0.0277 -0.0284
    1SOL     OW 7313   2.472   3.643   3.042  0.0355  0.6678 -0.1820
    1SOL    HW2 7314   2.556   3.600   3.059 -0.8576 -0.6762  0.9917
    1SOL    HW3 7315   2.478   3.726   3.089 -0.0473 -0.3202  1.6312
    1SOL    MW4 7316   2.484   3.648   3.051 -0.0932  0.3600  0.2122
    1SOL     OW 7317   2.469   3.889   3.158  0.3430  0.1865 -0.2251
    1SOL    HW2 7318   2.469   3.876   3.252  0.2902  1.0642 -0.1010
    1SOL    HW3 7319   2.547   3.941   3.141  0.3336  0.0618 -0.6639
    1SOL    MW4 7320   2.479   3.894   3.168  0.3347  0.2856 -0.2668
    1SOL     OW 7321   2.239   3.999   3.020 -0.1558  0.4165  0.6998
    1SOL    HW2 7322   2.318   3.969   3.066  0.5200 -0.7274 -1.1778
    1SOL    HW3 7323   2.166   3.964   3.072  0.6041 -1.7912  0.3389
    1SOL    MW4 7324   2.240   3.991   3.033  0.0334 -0.0257  0.4046
    1SOL     OW 7325   2.242   4.278   3.100  0.6778  0.6224  0.3877
    1SOL    HW2 7326   2.228   4.190   3.064  1.7296  0.8813 -0.7231
    1SOL    HW3 7327   2.158   4.322   3.091  0.6793  0.3724 -0.9338
    1SOL    MW4 7328   2.229   4.272   3.094  0.8168  0.6232  0.0670
    1SOL     OW 7329   2.476   4.415   3.036  0.2916 -0.5290  0.0064
    1SOL    HW2 7330   2.394   4.368   3.052  0.4372 -0.3881  1.2456
    1SOL    HW3 7331   2.478   4.429   2.942 -2.0607  1.1972  0.1771
    1SOL    MW4 7332   2.466   4.411   3.026  0.0005 -0.2828  0.1926
    1SOL     OW 7333   2.901   4.614   3.123  0.5715  0.2160  0.1033
    1SOL    HW2 7334   2.972   4.663   3.081 -1.0158  0.1796 -2.7333
    1SOL    HW3 7335   2.907   4.527   3.084 -1.0666  0.2345 -0.2026
    1SOL    MW4 7336   2.911   4.609   3.113  0.1462  0.2136 -0.3116
    1SOL     OW 7337   2.674   0.085   3.031  0.0309  0.2970 -0.1256
    1SOL    HW2 7338   2.736   0.026   3.075  2.2144  1.9529 -0.8608
    1SOL    HW3 7339   2.591   0.072   3.077  1.8058  0.6884  3.3558
    1SOL    MW4 7340   2.672   0.075   3.043  0.5531  0.5671  0.2367
    1SOL     OW 7341   2.674   0.347   3.126  0.4337 -0.4833  0.0600
    1SOL    HW2 7342   2.656   0.265   3.079 -0.3731 -0.3059  0.0670
    1SOL    HW3 7343   2.605   0.407   3.098  1.7394  0.6113 -0.9328
    1SOL    MW4 7344   2.663   0.344   3.116  0.4992 -0.3155 -0.0701
    1SOL     OW 7345   2.897   0.453   3.005  0.3244 -0.4166  0.1720
    1SOL    HW2 7346   2.818   0.413   3.041  0.4733 -0.0529  0.8961
    1SOL    HW3 7347   2.886   0.445   2.910 -0.1384 -1.2282  0.2823
    1SOL    MW4 7348   2.885   0.446   2.997  0.2830 -0.4756  0.2820
    1SOL     OW 7349   2.922   0.745   3.128  0.4378 -0.2727  0.2582
    1SOL    HW2 7350   2.939   0.763   3.221  1.8088 -0.0217 -0.0461
    1SOL    HW3 7351   2.938   0.651   3.119  0.6090 -0.2386  0.2078
    1SOL    MW4 7352   2.926   0.735   3.139  0.6413 -0.2351  0.2115
    1SOL     OW 7353   2.718   0.917   3.029 -0.1413  0.1368  0.2942
    1SOL    HW2 7354   2.740   0.994   3.081  0.2861 -0.4928  1.0622
    1SOL    HW3 7355   2.787   0.854   3.049 -0.9493 -0.7468  0.3339
    1SOL    MW4 7356   2.730   0.919   3.038 -0.1915 -0.0628  0.4008
    1SOL     OW 7357   2.723   1.163   3.165 -0.1737 -0.3447 -0.2061
    1SOL    HW2 7358   2.781   1.216   3.110  0.3889 -0.4153  0.3192
    1SOL    HW3 7359   2.635   1.194   3.143  0.1229  0.5387 -0.1936
    1SOL    MW4 7360   2.719   1.174   3.155 -0.0606 -0.2373 -0.1352
    1SOL     OW 7361   2.885   1.343   3.018 -0.1254  0.7172 -0.1852
    1SOL    HW2 7362   2.961   1.324   3.073 -0.4004  1.4247  0.4490
    1SOL    HW3 7363   2.861   1.434   3.039 -1.5724  0.2813  0.1484
    1SOL    MW4 7364   2.892   1.353   3.028 -0.3529  0.7530 -0.0577
    1SOL     OW 7365   2.894   1.606   3.122 -0.5355 -0.0552  0.0345
    1SOL    HW2 7366   2.898   1.593   3.216 -0.8665  1.5899  0.3022
    1SOL    HW3 7367   2.985   1.624   3.096 -0.6506  0.8901  0.2711
    1SOL    MW4 7368   2.907   1.607   3.131 -0.5946  0.2866  0.1011
    1SOL     OW 7369   2.651   1.691   3.021 -0.1666 -0.3963  0.1337
    1SOL    HW2 7370   2.729   1.676   3.073 -0.5607 -2.4059  0.1898
    1SOL    HW3 7371   2.580   1.650   3.071 -1.3215  1.6125  0.2193
    1SOL    MW4 7372   2.652   1.683   3.035 -0.3710 -0.3965  0.1523
    1SOL     OW 7373   2.681   1.934   3.135 -0.0067  0.3592  0.2438
    1SOL    HW2 7374   2.752   1.973   3.084 -0.6883  0.7286 -0.4125
    1SOL    HW3 7375   2.665   1.850   3.092  0.3720  0.0464  0.7011
    1SOL    MW4 7376   2.688   1.928   3.122 -0.0465  0.3668  0.2177
    1SOL     OW 7377   2.897   2.051   3.020 -0.5365  0.8639 -0.0930
    1SOL    HW2 7378   2.900   2.140   3.054 -0.4814  0.9203 -0.2444
    1SOL    HW3 7379   2.890   2.062   2.925  0.6243  0.7020 -0.2069
    1SOL    MW4 7380   2.896   2.064   3.012 -0.3760  0.8497 -0.1280
    1SOL     OW 7381   2.910   2.315   3.095  0.3403 -0.1159 -0.7113
    1SOL    HW2 7382   2.980   2.368   3.056  2.2102 -1.1084  1.1936
    1SOL    HW3 7383   2.829   2.357   3.065  1.6998  0.6387 -3.5595
    1SOL    MW4 7384   2.908   2.328   3.086  0.7668 -0.1471 -0.8357
    1SOL     OW 7385   2.665   2.438   2.974 -0.7481 -0.2677  0.4253
    1SOL    HW2 7386   2.640   2.526   3.001 -2.4717 -0.6029 -0.0037
    1SOL    HW3 7387   2.595   2.381   3.007 -0.8654 -1.1689 -1.2686
    1SOL    MW4 7388   2.653   2.442   2.982 -0.9911 -0.4311  0.1452
    1SOL     OW 7389   2.695   2.706   3.059 -0.3865  0.0064 -0.4341
    1SOL    HW2 7390   2.717   2.703   3.152 -0.6920 -3.0555 -0.4120
    1SOL    HW3 7391   2.612   2.753   3.055 -0.0234  0.7739  0.7483
    1SOL    MW4 7392   2.687   2.712   3.071 -0.3791 -0.2964 -0.2754
    1SOL     OW 7393   2.916   2.839   2.975  0.0291 -0.3261 -0.1141
    1SOL    HW2 7394   2.984   2.785   3.016  0.8571  1.9178  1.6430
    1SOL    HW3 7395   2.834   2.796   2.998  0.6900 -1.1347  0.7757
    1SOL    MW4 7396   2.914   2.827   2.984  0.2255 -0.1369  0.2351
    1SOL     OW 7397   2.908   3.089   3.105 -0.0382  0.1650 -0.3783
    1SOL    HW2 7398   2.822   3.115   3.073 -0.1283  1.0428  0.5383
    1SOL    HW3 7399   2.919   2.998   3.076 -1.7250 -0.3103  0.4032
    1SOL    MW4 7400   2.898   3.080   3.097 -0.2728  0.2182 -0.1543
    1SOL     OW 7401   2.682   3.220   3.017  0.7980 -0.2429 -0.2198
    1SOL    HW2 7402   2.689   3.311   3.046 -1.1435  0.0168 -0.4725
    1SOL    HW3 7403   2.686   3.224   2.922 -2.0803 -0.0804 -0.3824
    1SOL    MW4 7404   2.683   3.232   3.008  0.1621 -0.1874 -0.2747
    1SOL     OW 7405   2.707   3.490   3.100  0.2440 -0.5423 -0.3877
    1SOL    HW2 7406   2.705   3.496   3.196  1.9776 -0.3945 -0.3317
    1SOL    HW3 7407   2.795   3.520   3.077  0.4940 -2.3261 -1.8933
    1SOL    MW4 7408   2.719   3.494   3.110  0.5059 -0.7579 -0.5791
    1SOL     OW 7409   2.940   3.589   2.998 -0.0434 -0.8571  0.2042
    1SOL    HW2 7410   3.008   3.551   3.053 -0.3951 -0.5479  0.8546
    1SOL    HW3 7411   2.924   3.676   3.035  0.4555 -0.2299 -1.0138
    1SOL    MW4 7412   2.946   3.595   3.010 -0.0243 -0.7334  0.1292
    1SOL     OW 7413   2.901   3.832   3.140 -0.5166 -0.3143  0.7720
    1SOL    HW2 7414   2.899   3.830   3.236 -1.3243  0.4035  0.7761
    1SOL    HW3 7415   2.831   3.892   3.116  0.1979  0.1148 -0.2524
    1SOL    MW4 7416   2.892   3.839   3.149 -0.5288 -0.1633  0.6373
    1SOL     OW 7417   2.706   4.007   3.063 -0.4032  0.2862  0.4967
    1SOL    HW2 7418   2.708   4.090   3.112 -2.3213  0.3539  0.4828
    1SOL    HW3 7419   2.705   4.034   2.971  2.9746  0.1606  0.3503
    1SOL    MW4 7420   2.706   4.022   3.058 -0.2105  0.2775  0.4756
    1SOL     OW 7421   2.694   4.290   3.171  0.4461  0.0828 -0.1786
    1SOL    HW2 7422   2.694   4.267   3.263 -0.1513 -1.3719 -0.5280
    1SOL    HW3 7423   2.609   4.334   3.158  1.0748  1.4317  0.2308
    1SOL    MW4 7424   2.683   4.293   3.181  0.4501  0.0687 -0.1705
    1SOL     OW 7425   2.895   4.362   3.000  0.0151 -0.1398  0.4645
    1SOL    HW2 7426   2.970   4.341   3.056 -0.9618 -0.1471  1.8097
    1SOL    HW3 7427   2.819   4.343   3.055 -0.9647  0.0884 -0.8052
    1SOL    MW4 7428   2.895   4.357   3.015 -0.2429 -0.1106  0.4745
    1SOL     OW 7429   3.340   4.614   3.148  0.3380 -0.1570 -0.1205
    1SOL    HW2 7430   3.416   4.669   3.127  0.7192 -0.5210  0.2772
    1SOL    HW3 7431   3.354   4.534   3.098  0.6312 -0.5425  0.5628
    1SOL    MW4 7432   3.352   4.611   3.139  0.4268 -0.2556  0.0219
    1SOL     OW 7433   3.125   0.070   3.017 -0.1264  0.2203 -0.4040
    1SOL    HW2 7434   3.127   0.158   3.053  1.3066  0.6564 -1.4884
    1SOL    HW3 7435   3.204   0.028   3.052 -1.4918 -1.0787  1.1681
    1SOL    MW4 7436   3.136   0.076   3.026 -0.1173  0.1064 -0.3395
    1SOL     OW 7437   3.114   0.323   3.113  0.0788 -0.1711  0.2731
    1SOL    HW2 7438   3.181   0.386   3.084 -0.2157  0.4230  0.8647
    1SOL    HW3 7439   3.031   0.363   3.085 -0.0309 -0.8972 -0.4454
    1SOL    MW4 7440   3.112   0.337   3.105  0.0257 -0.1885  0.2563
    1SOL     OW 7441   3.331   0.469   3.044 -0.3686 -0.0243 -0.4683
    1SOL    HW2 7442   3.411   0.424   3.071  1.1497  3.5315  1.3391
    1SOL    HW3 7443   3.344   0.485   2.951  1.0898  0.5833 -0.1790
    1SOL    MW4 7444   3.343   0.465   3.035  0.0241  0.5250 -0.1917
    1SOL     OW 7445   3.359   0.733   3.128  0.0950 -0.4832 -0.2527
    1SOL    HW2 7446   3.358   0.728   3.224  0.2265 -0.6448 -0.2582
    1SOL    HW3 7447   3.355   0.641   3.100  0.6841 -0.4703 -0.3947
    1SOL    MW4 7448   3.358   0.720   3.137  0.1898 -0.5028 -0.2720
    1SOL     OW 7449   3.150   0.891   3.047 -0.5495  0.0163  0.1151
    1SOL    HW2 7450   3.224   0.833   3.066 -1.1620 -0.5816  0.7415
    1SOL    HW3 7451   3.075   0.847   3.088 -1.2408  0.6288 -0.4829
    1SOL    MW4 7452   3.150   0.877   3.055 -0.7217  0.0182  0.1190
    1SOL     OW 7453   3.136   1.174   3.099 -0.2435  0.6613  0.2464
    1SOL    HW2 7454   3.222   1.207   3.072 -0.3371  0.6329 -0.0977
    1SOL    HW3 7455   3.141   1.079   3.083 -0.3326  0.6579  0.2402
    1SOL    MW4 7456   3.148   1.166   3.093 -0.2673  0.6571  0.1998
    1SOL     OW 7457   3.400   1.271   2.966 -0.4927 -0.1149  0.4184
    1SOL    HW2 7458   3.463   1.214   3.009  2.9921  1.9341 -1.7361
    1SOL    HW3 7459   3.393   1.347   3.025 -1.3429 -0.5569  0.8928
    1SOL    MW4 7460   3.407   1.274   2.979 -0.1450  0.0970  0.1967
    1SOL     OW 7461   3.370   1.502   3.107  0.4156 -0.0102 -0.6121
    1SOL    HW2 7462   3.377   1.520   3.201 -0.1091  1.2402 -0.8088
    1SOL    HW3 7463   3.440   1.554   3.067  0.9613 -0.9257 -0.8840
    1SOL    MW4 7464   3.380   1.511   3.114  0.4187  0.0339 -0.6738
    1SOL     OW 7465   3.149   1.651   3.019  0.1434  0.0013  0.2494
    1SOL    HW2 7466   3.222   1.600   3.055  1.0795  1.8565  1.0379
    1SOL    HW3 7467   3.170   1.661   2.926  1.2195  1.0450  0.5944
    1SOL    MW4 7468   3.161   1.646   3.011  0.4086  0.3837  0.3986
    1SOL     OW 7469   3.140   1.933   3.091  0.2211 -0.1738  0.5037
    1SOL    HW2 7470   3.130   1.841   3.067  0.1609 -0.0063 -0.1244
    1SOL    HW3 7471   3.050   1.967   3.093  0.2883  0.0528 -0.0169
    1SOL    MW4 7472   3.126   1.926   3.088  0.2220 -0.1217  0.3521
    1SOL     OW 7473   3.344   2.110   2.980  0.0403 -0.0780  0.2705
    1SOL    HW2 7474   3.433   2.079   3.000 -0.1763  0.8476  2.8662
    1SOL    HW3 7475   3.286   2.042   3.015 -0.3153  0.5018  0.8171
    1SOL    MW4 7476   3.348   2.097   2.987 -0.0350  0.1204  0.6847
    1SOL     OW 7477   3.371   2.345   3.106 -0.0420  0.5551  0.1368
    1SOL    HW2 7478   3.343   2.334   3.197 -1.3923 -0.0888 -0.3402
    1SOL    HW3 7479   3.349   2.261   3.065  0.3752  0.9189 -0.8294
    1SOL    MW4 7480   3.365   2.332   3.113 -0.1652  0.5181 -0.0539
    1SOL     OW 7481   3.140   2.431   2.975 -0.2763  0.2283  0.0297
    1SOL    HW2 7482   3.221   2.402   3.017 -0.7845  0.4637  1.1870
    1SOL    HW3 7483   3.149   2.403   2.884  0.9603 -0.0424  0.2231
    1SOL    MW4 7484   3.152   2.424   2.969 -0.1802  0.2239  0.2077
    1SOL     OW 7485   3.119   2.693   3.095 -0.2996  0.3006 -0.1178
    1SOL    HW2 7486   3.143   2.697   3.188  1.3637 -0.3376 -0.4987
    1SOL    HW3 7487   3.129   2.601   3.072  0.1584  0.6089 -1.1460
    1SOL    MW4 7488   3.123   2.682   3.104 -0.0198  0.2570 -0.3035
    1SOL     OW 7489   3.365   2.785   3.010  0.0795 -0.1261  0.1119
    1SOL    HW2 7490   3.369   2.878   3.031  2.6176 -0.0830 -0.3741
    1SOL    HW3 7491   3.277   2.758   3.035 -0.9841  2.5906 -0.5591
    1SOL    MW4 7492   3.354   2.793   3.016  0.2744  0.2382 -0.0408
    1SOL     OW 7493   3.377   3.050   3.104 -0.4641  0.2508  0.4533
    1SOL    HW2 7494   3.370   3.028   3.197  2.5171  1.7589  1.0878
    1SOL    HW3 7495   3.309   3.115   3.089 -2.3995 -1.6097  1.0475
    1SOL    MW4 7496   3.367   3.056   3.114 -0.3262  0.2046  0.6154
    1SOL     OW 7497   3.156   3.214   3.041  0.4214  0.3757 -0.4088
    1SOL    HW2 7498   3.070   3.175   3.059  0.2378  0.8763 -0.1657
    1SOL    HW3 7499   3.159   3.223   2.946  0.3192  0.0950 -0.4385
    1SOL    MW4 7500   3.145   3.210   3.031  0.3839  0.4048 -0.3810
    1SOL     OW 7501   3.112   3.465   3.151 -0.3517  0.0043  0.2676
    1SOL    HW2 7502   3.195   3.509   3.134 -0.6785  0.6304  0.2797
    1SOL    HW3 7503   3.128   3.374   3.127  0.2034  0.2097 -0.1609
    1SOL    MW4 7504   3.125   3.459   3.145 -0.3214  0.1144  0.2127
    1SOL     OW 7505   3.350   3.586   3.064  0.2761  0.4264  0.4719
    1SOL    HW2 7506   3.424   3.545   3.107 -0.2476  0.9518  1.9179
    1SOL    HW3 7507   3.363   3.680   3.078 -0.8379  0.5031  1.0666
    1SOL    MW4 7508   3.361   3.593   3.072  0.0598  0.5057  0.7412
    1SOL     OW 7509   3.405   3.850   3.103  0.1829 -0.2587  0.1860
    1SOL    HW2 7510   3.404   3.844   3.199 -0.3967 -0.0702  0.1915
    1SOL    HW3 7511   3.320   3.889   3.080  0.1533 -0.6713 -0.4261
    1SOL    MW4 7512   3.393   3.854   3.113  0.1028 -0.2882  0.1061
    1SOL     OW 7513   3.137   3.971   3.063  0.0508  0.2228 -0.5817
    1SOL    HW2 7514   3.067   3.910   3.085  0.0074  0.0249 -1.2751
    1SOL    HW3 7515   3.142   3.969   2.968  0.2200  1.1069 -0.6011
    1SOL    MW4 7516   3.128   3.963   3.054  0.0675  0.3133 -0.6757
    1SOL     OW 7517   3.143   4.252   3.124 -0.6344 -0.1114  0.5356
    1SOL    HW2 7518   3.140   4.242   3.219 -3.6042 -1.7628  0.3339
    1SOL    HW3 7519   3.142   4.162   3.090  0.1165  0.4587 -1.0474
    1SOL    MW4 7520   3.142   4.239   3.132 -0.9272 -0.2542  0.3002
    1SOL     OW 7521   3.352   4.389   3.009 -0.0665  0.1974  0.4937
    1SOL    HW2 7522   3.429   4.339   3.034  1.0213  1.8953  0.6738
    1SOL    HW3 7523   3.279   4.342   3.048  0.9371 -1.0647  0.8945
    1SOL    MW4 7524   3.353   4.377   3.017  0.2091  0.2551  0.5705
    1SOL     OW 7525   3.803   4.635   3.142  0.4278 -0.1149 -0.2509
    1SOL    HW2 7526   3.828   4.551   3.103  0.9599 -0.6799  1.2767
    1SOL    HW3 7527   3.712   4.648   3.115  1.3094  0.3546 -3.1069
    1SOL    MW4 7528   3.794   4.626   3.133  0.6142 -0.1273 -0.4258
    1SOL     OW 7529   3.564   0.059   3.016 -0.0343  0.7343  0.0290
    1SOL    HW2 7530   3.553   0.152   3.039  1.1484  0.4393  1.8818
    1SOL    HW3 7531   3.571   0.059   2.920 -0.0347  2.5590  0.0016
    1SOL    MW4 7532   3.563   0.071   3.006  0.1221  0.9361  0.2699
    1SOL     OW 7533   3.556   0.324   3.093 -0.0068  0.6268 -0.6453
    1SOL    HW2 7534   3.569   0.318   3.187  0.4400 -0.8742 -0.7903
    1SOL    HW3 7535   3.637   0.362   3.060  0.3890 -0.1494 -0.5709
    1SOL    MW4 7536   3.568   0.329   3.101  0.1042  0.3263 -0.6547
    1SOL     OW 7537   3.773   0.455   3.004  0.2282 -0.0537  0.5942
    1SOL    HW2 7538   3.840   0.413   3.056  2.0086  1.3631 -0.4835
    1SOL    HW3 7539   3.776   0.547   3.029 -0.0669  0.3441 -0.7565
    1SOL    MW4 7540   3.782   0.462   3.014  0.4241  0.1856  0.2739
    1SOL     OW 7541   3.800   0.730   3.075  0.0729 -0.0423  0.0366
    1SOL    HW2 7542   3.800   0.743   3.170 -1.6373  0.8288 -0.0736
    1SOL    HW3 7543   3.885   0.764   3.047  1.1360 -1.5143  1.4045
    1SOL    MW4 7544   3.811   0.736   3.084 -0.0126 -0.1216  0.2024
    1SOL     OW 7545   3.553   0.856   2.974  0.0057 -0.6816  0.3815
    1SOL    HW2 7546   3.631   0.819   3.015 -0.8263 -0.2036  2.4803
    1SOL    HW3 7547   3.480   0.814   3.020 -0.9661 -0.0436 -0.5503
    1SOL    MW4 7548   3.553   0.845   2.986 -0.2325 -0.5343  0.5357
    1SOL     OW 7549   3.588   1.115   3.094  0.0285  0.3270  0.0572
    1SOL    HW2 7550   3.661   1.160   3.052 -0.7016  0.0182 -1.5801
    1SOL    HW3 7551   3.589   1.027   3.057 -1.8107  0.6431 -0.8263
    1SOL    MW4 7552   3.598   1.110   3.084 -0.3104  0.3281 -0.2754
    1SOL     OW 7553   3.804   1.265   2.996  0.4695 -0.0538 -0.1130
    1SOL    HW2 7554   3.816   1.360   2.997 -0.2943  0.0626 -1.4592
    1SOL    HW3 7555   3.810   1.241   2.904  1.3532 -1.4099  0.2885
    1SOL    MW4 7556   3.807   1.275   2.984  0.4854 -0.2174 -0.2375
    1SOL     OW 7557   3.811   1.528   3.073 -0.1414 -0.1317  0.2402
    1SOL    HW2 7558   3.821   1.515   3.167 -0.8709  1.3731  0.5371
    1SOL    HW3 7559   3.731   1.581   3.064  1.2121  1.7758 -1.0371
    1SOL    MW4 7560   3.802   1.533   3.084 -0.0589  0.3185  0.1109
    1SOL     OW 7561   3.577   1.663   2.996  0.1330  0.0595 -0.1865
    1SOL    HW2 7562   3.571   1.758   3.009 -0.9723 -0.0304  0.0325
    1SOL    HW3 7563   3.587   1.652   2.902 -2.6370  0.2960 -0.5520
    1SOL    MW4 7564   3.577   1.674   2.985 -0.3786  0.0787 -0.2058
    1SOL     OW 7565   3.577   1.930   3.092 -0.1380  0.1616  0.0235
    1SOL    HW2 7566   3.584   1.912   3.186  0.2002  0.7892  0.1257
    1SOL    HW3 7567   3.663   1.966   3.069 -0.2058 -0.0359 -0.5391
    1SOL    MW4 7568   3.589   1.933   3.102 -0.1020  0.2184 -0.0377
    1SOL     OW 7569   3.806   2.048   3.038 -0.5465  0.3227 -0.2312
    1SOL    HW2 7570   3.794   2.140   3.059 -0.4495  0.5572 -1.2035
    1SOL    HW3 7571   3.804   2.044   2.942 -2.1727 -0.9051 -0.1562
    1SOL    MW4 7572   3.804   2.059   3.028 -0.7482  0.1919 -0.3498
    1SOL     OW 7573   3.825   2.325   3.098 -0.0952  0.1890  0.2308
    1SOL    HW2 7574   3.837   2.322   3.193 -0.7588 -0.2720  0.2990
    1SOL    HW3 7575   3.751   2.383   3.084 -0.9136 -0.8770  0.0788
    1SOL    MW4 7576   3.817   2.332   3.109 -0.2906 -0.0126  0.2198
    1SOL     OW 7577   3.607   2.459   3.011  0.0360  0.3010 -0.5113
    1SOL    HW2 7578   3.603   2.541   3.059  0.0443  0.6208 -1.0608
    1SOL    HW3 7579   3.548   2.400   3.059 -0.9655  1.0080 -0.8586
    1SOL    MW4 7580   3.598   2.462   3.024 -0.0951  0.4365 -0.6297
    1SOL     OW 7581   3.588   2.694   3.156  0.0922 -0.6524  0.0378
    1SOL    HW2 7582   3.664   2.745   3.128 -0.7671  1.2194  1.0168
    1SOL    HW3 7583   3.514   2.738   3.114 -0.8375 -0.0106  2.2887
    1SOL    MW4 7584   3.588   2.707   3.146 -0.1435 -0.3207  0.4640
    1SOL     OW 7585   3.819   2.827   3.042 -0.1781  0.2171  0.1126
    1SOL    HW2 7586   3.829   2.915   3.079  0.0136  0.2013  0.1005
    1SOL    HW3 7587   3.835   2.839   2.948  0.3406  0.0841  0.1847
    1SOL    MW4 7588   3.822   2.840   3.034 -0.0844  0.1974  0.1204
    1SOL     OW 7589   3.847   3.087   3.142 -0.4052  0.0478  0.2783
    1SOL    HW2 7590   3.914   3.145   3.106 -0.5525 -0.5721 -1.0472
    1SOL    HW3 7591   3.764   3.131   3.121 -0.4871 -0.2578 -0.0473
    1SOL    MW4 7592   3.845   3.101   3.134 -0.4356 -0.0744  0.0603
    1SOL     OW 7593   3.606   3.203   3.046 -0.1569 -0.5281  0.1668
    1SOL    HW2 7594   3.524   3.157   3.062  0.3872 -1.0742  1.4751
    1SOL    HW3 7595   3.606   3.221   2.952 -1.0867 -1.8396 -0.0950
    1SOL    MW4 7596   3.595   3.199   3.036 -0.2077 -0.7732  0.3049
    1SOL     OW 7597   3.581   3.454   3.146 -0.6617  0.1724 -0.3006
    1SOL    HW2 7598   3.668   3.474   3.113 -0.0775  0.2707  1.2335
    1SOL    HW3 7599   3.569   3.361   3.127  0.4166 -0.2139  0.8401
    1SOL    MW4 7600   3.590   3.444   3.139 -0.4425  0.1342  0.0522
    1SOL     OW 7601   3.836   3.542   3.045  0.1977  0.4637 -0.1041
    1SOL    HW2 7602   3.842   3.632   3.077 -3.4226  0.8023 -0.1519
    1SOL    HW3 7603   3.821   3.552   2.951  0.4603 -0.2291 -0.2189
    1SOL    MW4 7604   3.835   3.555   3.037 -0.2456  0.4170 -0.1259
    1SOL     OW 7605   3.885   3.811   3.118 -0.1445 -0.1926 -0.7290
    1SOL    HW2 7606   3.882   3.800   3.213  0.5545  0.1013 -0.6654
    1SOL    HW3 7607   3.809   3.865   3.097 -0.0848  0.0589 -0.2882
    1SOL    MW4 7608   3.875   3.817   3.128 -0.0443 -0.1209 -0.6623
    1SOL     OW 7609   3.650   3.967   3.051 -0.2672 -0.5036  0.2687
    1SOL    HW2 7610   3.565   3.940   3.085 -0.9022  1.0239 -0.0570
    1SOL    HW3 7611   3.636   3.975   2.957 -0.1092  0.9903  0.3694
    1SOL    MW4 7612   3.637   3.964   3.043 -0.3302 -0.1051  0.2389
    1SOL     OW 7613   3.584   4.236   3.129  0.0730  0.0958 -0.4211
    1SOL    HW2 7614   3.664   4.285   3.109  1.1022 -0.4986  2.0596
    1SOL    HW3 7615   3.607   4.145   3.112 -0.2402 -0.0269 -0.1924
    1SOL    MW4 7616   3.597   4.231   3.124  0.1676  0.0010 -0.0634
    1SOL     OW 7617   3.815   4.376   3.042  0.0238 -0.2061  0.2614
    1SOL    HW2 7618   3.894   4.335   3.075 -0.3442 -0.4539  0.8454
    1SOL    HW3 7619   3.816   4.359   2.948  0.0235 -1.3095  0.4557
    1SOL    MW4 7620   3.825   4.368   3.034 -0.0248 -0.3843  0.3638
    1SOL     OW 7621   4.210   4.660   3.083  0.1753  0.0953 -0.0934
    1SOL    HW2 7622   4.220   4.649   3.177 -0.0518  0.0659 -0.0721
    1SOL    HW3 7623   4.231   4.574   3.046 -0.6967 -0.1623  0.0048
    1SOL    MW4 7624   4.214   4.647   3.090  0.0305  0.0577 -0.0777
    1SOL     OW 7625   3.984   0.135   3.021 -0.4329 -0.3675 -0.3493
    1SOL    HW2 7626   4.065   0.086   3.034 -0.3817  0.0102  0.8665
    1SOL    HW3 7627   3.919   0.086   3.071 -0.7453 -0.1374 -0.5309
    1SOL    MW4 7628   3.986   0.122   3.029 -0.4673 -0.2873 -0.2129
    1SOL     OW 7629   4.029   0.373   3.144  0.3850  0.2692  0.6712
    1SOL    HW2 7630   4.117   0.400   3.118  0.2662  1.6045  1.6290
    1SOL    HW3 7631   4.017   0.288   3.101  2.2155 -0.0396  0.7106
    1SOL    MW4 7632   4.039   0.365   3.135  0.6108  0.4046  0.8028
    1SOL     OW 7633   4.267   0.457   3.014 -0.3954 -0.1137 -0.1074
    1SOL    HW2 7634   4.254   0.549   3.035  1.4459  0.2266 -0.4499
    1SOL    HW3 7635   4.263   0.452   2.919 -1.0898 -0.4876 -0.0636
    1SOL    MW4 7636   4.264   0.468   3.004 -0.2441 -0.1181 -0.1469
    1SOL     OW 7637   4.261   0.710   3.099 -0.1578  0.2468  0.0683
    1SOL    HW2 7638   4.181   0.755   3.072 -0.1052 -0.1072 -0.6820
    1SOL    HW3 7639   4.331   0.771   3.078 -0.2044  0.4258  0.4304
    1SOL    MW4 7640   4.260   0.724   3.093 -0.1569  0.2236  0.0172
    1SOL     OW 7641   4.039   0.843   3.016 -0.0960 -0.2968  0.3570
    1SOL    HW2 7642   4.043   0.934   3.045  0.3276 -0.3578  0.4882
    1SOL    HW3 7643   4.059   0.847   2.923  0.7518 -0.3505  0.5390
    1SOL    MW4 7644   4.042   0.855   3.008  0.0715 -0.3119  0.3986
    1SOL     OW 7645   4.007   1.099   3.099 -0.1947  0.2264  0.1573
    1SOL    HW2 7646   3.999   1.106   3.194  1.3198  2.6984  0.1525
    1SOL    HW3 7647   3.941   1.159   3.065 -0.1557 -0.0131 -0.3399
    1SOL    MW4 7648   3.997   1.108   3.107  0.0105  0.5209  0.0913
    1SOL     OW 7649   4.221   1.264   3.039  0.3006  0.0433  0.1374
    1SOL    HW2 7650   4.155   1.201   3.069  0.0800  0.4675  0.5411
    1SOL    HW3 7651   4.226   1.250   2.944 -0.7660  0.3882  0.0243
    1SOL    MW4 7652   4.213   1.254   3.030  0.1311  0.1446  0.1757
    1SOL     OW 7653   4.227   1.531   3.079 -0.4324 -0.4434  0.0356
    1SOL    HW2 7654   4.153   1.578   3.042 -0.5314  0.1096  0.9298
    1SOL    HW3 7655   4.206   1.438   3.066 -1.3772 -0.2929  0.4568
    1SOL    MW4 7656   4.214   1.525   3.073 -0.5698 -0.3505  0.2093
    1SOL     OW 7657   4.012   1.679   2.951 -0.1951 -0.2777 -0.4393
    1SOL    HW2 7658   4.023   1.764   2.994 -3.0145  0.6995 -1.4992
    1SOL    HW3 7659   3.930   1.644   2.988 -0.2233 -1.5236 -1.6364
    1SOL    MW4 7660   4.003   1.685   2.962 -0.5708 -0.3130 -0.7370
    1SOL     OW 7661   4.032   1.905   3.101 -0.5547  0.3127  0.2896
    1SOL    HW2 7662   4.110   1.958   3.083  0.0273 -1.6021 -3.1888
    1SOL    HW3 7663   3.959   1.961   3.077  0.0318 -0.1546 -2.7218
    1SOL    MW4 7664   4.033   1.919   3.095 -0.4001 -0.0015 -0.5667
    1SOL     OW 7665   4.266   2.031   3.018 -0.1085  0.4117  0.4840
    1SOL    HW2 7666   4.284   2.123   3.035  1.2026  0.5133 -1.3106
    1SOL    HW3 7667   4.254   2.026   2.923 -0.5504 -1.2040  0.6095
    1SOL    MW4 7668   4.267   2.042   3.008  0.0057  0.2120  0.2637
    1SOL     OW 7669   4.307   2.305   3.146  0.2973  0.1681  0.0960
    1SOL    HW2 7670   4.228   2.345   3.110  0.3738  1.2833  1.1312
    1SOL    HW3 7671   4.378   2.361   3.115  0.5399  0.0281  0.3954
    1SOL    MW4 7672   4.306   2.318   3.137  0.3395  0.2968  0.2723
    1SOL     OW 7673   4.077   2.428   3.034  0.3510  0.6580 -0.2731
    1SOL    HW2 7674   4.066   2.514   3.073  1.3193  0.7223 -0.1458
    1SOL    HW3 7675   3.994   2.384   3.052  0.2486  1.1855  0.6136
    1SOL    MW4 7676   4.064   2.433   3.042  0.4654  0.7360 -0.1395
    1SOL     OW 7677   4.036   2.678   3.142  0.2688 -0.4220  0.2518
    1SOL    HW2 7678   4.024   2.693   3.236  1.4205 -1.4699  0.5644
    1SOL    HW3 7679   3.963   2.725   3.102  0.1934  0.6660  1.6205
    1SOL    MW4 7680   4.025   2.686   3.149  0.4106 -0.4168  0.4735
    1SOL     OW 7681   4.219   2.826   3.028  0.0659  0.1303 -0.0988
    1SOL    HW2 7682   4.146   2.785   3.074  1.5310  0.7283  2.9021
    1SOL    HW3 7683   4.297   2.791   3.071  1.4844  1.4111 -1.5598
    1SOL    MW4 7684   4.220   2.816   3.040  0.4463  0.3781  0.1044
    1SOL     OW 7685   4.260   3.079   3.152 -0.1157 -0.0642 -0.0646
    1SOL    HW2 7686   4.195   3.135   3.110 -0.6424 -0.9912 -0.5122
    1SOL    HW3 7687   4.257   2.997   3.101 -0.2089 -0.9202  1.3050
    1SOL    MW4 7688   4.251   3.075   3.139 -0.1969 -0.2995  0.0570
    1SOL     OW 7689   4.061   3.219   3.024 -0.0898 -0.0306  0.0095
    1SOL    HW2 7690   4.068   3.308   3.059 -1.1549 -0.0487  0.2819
    1SOL    HW3 7691   4.067   3.230   2.929  0.4483  0.2543  0.0719
    1SOL    MW4 7692   4.063   3.232   3.016 -0.1588  0.0048  0.0539
    1SOL     OW 7693   4.085   3.461   3.153 -0.7001 -0.3605  0.2702
    1SOL    HW2 7694   4.081   3.475   3.248 -0.5799  1.3108  0.0466
    1SOL    HW3 7695   4.003   3.499   3.121 -0.8646 -1.1734 -0.2668
    1SOL    MW4 7696   4.073   3.468   3.161 -0.7057 -0.2472  0.1698
    1SOL     OW 7697   4.273   3.606   3.034 -0.3465  0.2100 -0.2931
    1SOL    HW2 7698   4.259   3.696   3.064 -0.9085 -0.5829  1.8746
    1SOL    HW3 7699   4.211   3.553   3.084 -0.7451 -1.2819 -2.2962
    1SOL    MW4 7700   4.263   3.611   3.045 -0.4740 -0.0913 -0.2713
    1SOL     OW 7701   4.270   3.867   3.124  0.0509 -0.4252 -0.3891
    1SOL    HW2 7702   4.196   3.921   3.094 -0.6606 -0.9719  0.3558
    1SOL    HW3 7703   4.347   3.908   3.085 -0.6887 -0.0999 -1.5302
    1SOL    MW4 7704   4.270   3.879   3.115 -0.1407 -0.4542 -0.4413
    1SOL     OW 7705   4.057   3.984   2.977  0.3280  0.2637 -0.2308
    1SOL    HW2 7706   4.039   4.072   3.010  0.6049  0.5406 -0.8082
    1SOL    HW3 7707   4.003   3.927   3.031 -0.4922  0.8633 -0.4082
    1SOL    MW4 7708   4.048   3.988   2.988  0.2565  0.3793 -0.3304
    1SOL     OW 7709   4.063   4.254   3.128 -0.1887  0.5108 -0.3007
    1SOL    HW2 7710   4.065   4.229   3.221 -0.3924 -1.1728 -0.7368
    1SOL    HW3 7711   4.150   4.290   3.111  0.2124 -0.1703  0.2754
    1SOL    MW4 7712   4.074   4.256   3.138 -0.1626  0.1984 -0.2820
    1SOL     OW 7713   4.277   4.401   3.024 -1.3131  0.6137 -0.1313
    1SOL    HW2 7714   4.363   4.364   3.042 -1.0253  1.1300 -0.4276
    1SOL    HW3 7715   4.262   4.384   2.931 -0.7219  2.1614 -0.5197
    1SOL    MW4 7716   4.286   4.394   3.014 -1.1969  0.8860 -0.2217
    1SOL     OW 7717   0.189   4.614   3.407  0.2437  0.1379 -0.2677
    1SOL    HW2 7718   0.266   4.661   3.439  1.0879 -0.4142 -1.4440
    1SOL    HW3 7719   0.210   4.522   3.422 -0.5003  0.0194  0.0558
    1SOL    MW4 7720   0.202   4.608   3.413  0.2570  0.0496 -0.3805
    1SOL     OW 7721   4.457   0.097   3.479  0.0097  0.0538 -0.0546
    1SOL    HW2 7722   4.481   0.184   3.446  0.4873 -0.0453  0.0217
    1SOL    HW3 7723   4.535   0.044   3.464 -0.7574 -0.7176 -1.3795
    1SOL    MW4 7724   4.470   0.101   3.473 -0.0286 -0.0611 -0.2193
    1SOL     OW 7725   4.488   0.346   3.387  1.1436  0.2096  0.3487
    1SOL    HW2 7726   4.406   0.377   3.426  0.7559  0.2191 -0.4643
    1SOL    HW3 7727   4.556   0.389   3.438  0.6430  0.0188  1.1810
    1SOL    MW4 7728   4.486   0.356   3.399  1.0262  0.1857  0.3514
    1SOL     OW 7729   0.231   0.481   3.517  0.3296  0.0330 -0.3507
    1SOL    HW2 7730   0.318   0.448   3.496  0.4846  0.1255  0.1596
    1SOL    HW3 7731   0.228   0.568   3.477  1.6391  1.3768  2.3981
    1SOL    MW4 7732   0.242   0.488   3.509  0.5228  0.2225  0.0794
    1SOL     OW 7733   0.221   0.725   3.399  0.4283 -0.1723  0.1331
    1SOL    HW2 7734   0.293   0.783   3.423 -0.5644  0.7505  0.9269
    1SOL    HW3 7735   0.144   0.764   3.441 -0.5601 -1.0423 -0.8515
    1SOL    MW4 7736   0.220   0.738   3.408  0.1669 -0.1653  0.1080
    1SOL     OW 7737   0.006   0.835   3.521  0.5064 -0.6207 -0.5563
    1SOL    HW2 7738   0.010   0.832   3.616 -0.2372 -1.4021 -0.5410
    1SOL    HW3 7739   0.012   0.928   3.499 -0.4946 -0.3376  0.3141
    1SOL    MW4 7740   0.007   0.847   3.530  0.2761 -0.6864 -0.4394
    1SOL     OW 7741   0.037   1.099   3.428  0.3874  0.1554  0.3952
    1SOL    HW2 7742   0.101   1.154   3.474  1.4073 -1.8190  1.4072
    1SOL    HW3 7743   0.056   1.113   3.335  1.4480  0.5782  0.6725
    1SOL    MW4 7744   0.048   1.108   3.422  0.6614 -0.0494  0.5653
    1SOL     OW 7745   0.228   1.278   3.530 -0.4487  0.6164  0.4316
    1SOL    HW2 7746   0.311   1.233   3.518 -1.3216 -0.9884  0.2052
    1SOL    HW3 7747   0.235   1.358   3.478 -0.1894 -1.0192 -2.1385
    1SOL    MW4 7748   0.240   1.282   3.522 -0.5297  0.1888  0.0627
    1SOL     OW 7749   0.240   1.519   3.400 -0.4656  0.3755 -0.0090
    1SOL    HW2 7750   0.321   1.564   3.425 -1.0439  0.9089  0.9474
    1SOL    HW3 7751   0.243   1.517   3.305  1.7374 -1.6039  0.0642
    1SOL    MW4 7752   0.251   1.525   3.391 -0.2512  0.1848  0.1268
    1SOL     OW 7753   4.481   1.632   3.510  0.3266  0.0883  0.1047
    1SOL    HW2 7754   4.420   1.582   3.455 -0.1492  0.3682  0.3714
    1SOL    HW3 7755   4.567   1.600   3.485  0.0432 -0.6851  0.0780
    1SOL    MW4 7756   4.484   1.621   3.499  0.2264  0.0232  0.1366
    1SOL     OW 7757   0.042   1.903   3.423  0.1943 -0.0372  0.3896
    1SOL    HW2 7758   0.026   1.814   3.455 -1.9418  0.1877  0.0439
    1SOL    HW3 7759   0.033   1.896   3.328  0.1988  0.5230  0.3472
    1SOL    MW4 7760   0.039   1.890   3.414 -0.0869  0.0664  0.3383
    1SOL     OW 7761   0.261   2.065   3.474 -0.1866 -0.1358 -0.4628
    1SOL    HW2 7762   0.251   2.053   3.568  1.1761  0.1183 -0.2795
    1SOL    HW3 7763   0.192   2.010   3.436 -1.6095  0.7986  0.6937
    1SOL    MW4 7764   0.251   2.056   3.481 -0.1945  0.0212 -0.2863
    1SOL     OW 7765   0.206   2.319   3.355 -0.2757  0.0423 -0.0383
    1SOL    HW2 7766   0.149   2.368   3.413  0.2676  0.1731  0.3944
    1SOL    HW3 7767   0.218   2.235   3.399 -1.6451 -0.6930 -1.0404
    1SOL    MW4 7768   0.200   2.314   3.369 -0.3847 -0.0372 -0.1132
    1SOL     OW 7769   0.042   2.472   3.515  0.3504  0.4490  0.1578
    1SOL    HW2 7770   0.039   2.460   3.609 -0.2413  0.4859  0.1460
    1SOL    HW3 7771  -0.037   2.428   3.482 -0.3244  1.8604 -0.1594
    1SOL    MW4 7772   0.031   2.464   3.523  0.1833  0.6402  0.1142
    1SOL     OW 7773   0.017   2.739   3.444 -0.0467  0.4733 -0.2436
    1SOL    HW2 7774   0.085   2.782   3.495 -1.4950 -0.5800  2.6552
    1SOL    HW3 7775   0.021   2.647   3.471 -0.4757 -0.2388 -2.4664
    1SOL    MW4 7776   0.026   2.732   3.454 -0.2944  0.2403 -0.1545
    1SOL     OW 7777   0.262   2.859   3.543  0.0876 -0.0403 -0.0120
    1SOL    HW2 7778   0.329   2.814   3.492  0.6904 -0.9475  1.5560
    1SOL    HW3 7779   0.257   2.947   3.504  1.2196 -0.3981 -0.9953
    1SOL    MW4 7780   0.270   2.865   3.531  0.3164 -0.2074  0.0653
    1SOL     OW 7781   0.265   3.140   3.443  0.3002 -0.1205  0.0424
    1SOL    HW2 7782   0.176   3.171   3.460  0.0531 -0.5630 -0.4160
    1SOL    HW3 7783   0.264   3.115   3.350  0.2677 -2.2477  0.5917
    1SOL    MW4 7784   0.253   3.140   3.433  0.2633 -0.4597  0.0544
    1SOL     OW 7785   0.003   3.220   3.509 -0.5058  0.3669  0.1853
    1SOL    HW2 7786  -0.075   3.179   3.472 -0.5826  0.4946  0.2061
    1SOL    HW3 7787   0.002   3.310   3.475  0.5881 -0.1446 -1.2641
    1SOL    MW4 7788  -0.007   3.226   3.499 -0.3715  0.3161 -0.0031
    1SOL     OW 7789   0.007   3.491   3.426 -0.5589 -0.0994 -0.1415
    1SOL    HW2 7790  -0.061   3.546   3.464  1.3747  1.2003  1.5204
    1SOL    HW3 7791  -0.001   3.505   3.331 -2.0499  0.6646  0.0856
    1SOL    MW4 7792  -0.003   3.500   3.418 -0.5005  0.1731  0.1080
    1SOL     OW 7793   0.239   3.637   3.503  0.0902  0.0998 -0.1447
    1SOL    HW2 7794   0.235   3.634   3.598  1.2456  1.2173 -0.0381
    1SOL    HW3 7795   0.165   3.585   3.473 -0.1425 -0.4398  1.3638
    1SOL    MW4 7796   0.229   3.630   3.511  0.2120  0.1762  0.0684
    1SOL     OW 7797   0.256   3.900   3.389  0.1357  0.1200  0.3959
    1SOL    HW2 7798   0.177   3.943   3.422 -0.0398  0.0670  0.0454
    1SOL    HW3 7799   0.247   3.809   3.417 -0.4090 -0.1082 -0.5010
    1SOL    MW4 7800   0.244   3.894   3.397  0.0407  0.0830  0.2313
    1SOL     OW 7801   0.025   3.983   3.503 -0.1522  0.0231 -0.0915
    1SOL    HW2 7802   0.025   3.985   3.599 -0.4980 -1.9206 -0.0366
    1SOL    HW3 7803   0.022   4.075   3.477  1.5220  0.6341  1.7593
    1SOL    MW4 7804   0.024   3.996   3.512  0.0231 -0.1528  0.1597
    1SOL     OW 7805   4.478   4.233   3.393 -0.0906  0.0050  0.1139
    1SOL    HW2 7806   4.404   4.278   3.432  0.0262 -0.6444  1.0984
    1SOL    HW3 7807   4.555   4.281   3.423  0.0167 -0.6598  0.9160
    1SOL    MW4 7808   4.479   4.245   3.402 -0.0606 -0.1683  0.3498
    1SOL     OW 7809   0.229   4.347   3.464  0.0512 -0.6683 -0.1211
    1SOL    HW2 7810   0.236   4.349   3.559  2.8517  2.4365 -0.2758
    1SOL    HW3 7811   0.312   4.308   3.435  0.4277  0.9496 -1.3106
    1SOL    MW4 7812   0.241   4.342   3.472  0.4703 -0.0453 -0.2987
    1SOL     OW 7813   0.649   4.637   3.357 -0.1409 -0.2226  0.4360
    1SOL    HW2 7814   0.725   4.680   3.397  1.2620 -2.8815  0.7022
    1SOL    HW3 7815   0.660   4.651   3.263 -0.0726  0.5746  0.5585
    1SOL    MW4 7816   0.660   4.645   3.350  0.0533 -0.4683  0.4873
    1SOL     OW 7817   0.430   0.080   3.491 -0.5596  0.2631  0.1749
    1SOL    HW2 7818   0.459   0.089   3.582 -2.0889 -1.2863  0.8432
    1SOL    HW3 7819   0.503   0.038   3.447 -0.4606 -0.5529  1.0880
    1SOL    MW4 7820   0.443   0.076   3.498 -0.7483 -0.0490  0.3834
    1SOL     OW 7821   0.458   0.365   3.445  0.3713 -0.1430  0.1424
    1SOL    HW2 7822   0.545   0.398   3.468  0.4946  0.3566 -1.0060
    1SOL    HW3 7823   0.461   0.272   3.468  1.4469 -0.2923 -0.5363
    1SOL    MW4 7824   0.470   0.357   3.451  0.5295 -0.0968 -0.0989
    1SOL     OW 7825   0.678   0.501   3.529 -0.3641  0.2230 -0.5204
    1SOL    HW2 7826   0.689   0.498   3.624 -0.3594  0.8249 -0.4980
    1SOL    HW3 7827   0.746   0.443   3.495 -0.0798  0.3512 -0.1761
    1SOL    MW4 7828   0.688   0.493   3.537 -0.3260  0.3193 -0.4723
    1SOL     OW 7829   0.701   0.735   3.422 -0.0819 -0.2886 -0.3103
    1SOL    HW2 7830   0.616   0.773   3.449  1.1839  0.1673  3.4164
    1SOL    HW3 7831   0.694   0.643   3.444  1.5671  0.3919  3.4979
    1SOL    MW4 7832   0.688   0.728   3.429  0.3027 -0.1387  0.6838
    1SOL     OW 7833   0.454   0.869   3.489 -0.0196  0.0203 -0.1247
    1SOL    HW2 7834   0.435   0.867   3.583  2.3579  0.0455  0.3959
    1SOL    HW3 7835   0.457   0.962   3.468 -1.0859  0.0052 -0.3406
    1SOL    MW4 7836   0.452   0.881   3.499  0.1534  0.0216 -0.0842
    1SOL     OW 7837   0.453   1.130   3.427  0.0791  0.0146  0.3499
    1SOL    HW2 7838   0.528   1.185   3.453 -0.0069  0.2913  0.0122
    1SOL    HW3 7839   0.456   1.129   3.332 -0.4451  0.1622  0.3306
    1SOL    MW4 7840   0.463   1.137   3.418 -0.0014  0.0705  0.3028
    1SOL     OW 7841   0.708   1.266   3.471  0.4073 -0.2266  0.2765
    1SOL    HW2 7842   0.796   1.230   3.455  0.1911 -0.7732  0.2979
    1SOL    HW3 7843   0.702   1.342   3.414 -0.0213 -1.6255 -1.5966
    1SOL    MW4 7844   0.719   1.271   3.461  0.3221 -0.4834  0.0324
    1SOL     OW 7845   0.703   1.514   3.356 -0.2581 -0.4371 -0.3344
    1SOL    HW2 7846   0.780   1.558   3.390  0.0590 -0.1169 -1.4407
    1SOL    HW3 7847   0.631   1.548   3.409  0.2047  0.1441 -0.0687
    1SOL    MW4 7848   0.703   1.524   3.367 -0.1552 -0.3182 -0.4451
    1SOL     OW 7849   0.480   1.643   3.495 -0.6069 -0.0286 -0.3258
    1SOL    HW2 7850   0.494   1.654   3.589 -1.4549  0.5543 -0.2620
    1SOL    HW3 7851   0.473   1.732   3.461  1.0506 -0.2091 -1.1620
    1SOL    MW4 7852   0.481   1.656   3.503 -0.5001  0.0243 -0.4280
    1SOL     OW 7853   0.466   1.893   3.414 -0.3692  0.3369  0.2883
    1SOL    HW2 7854   0.389   1.940   3.448 -0.4002 -0.8110  1.8797
    1SOL    HW3 7855   0.460   1.901   3.319 -1.8527  1.1953  0.4446
    1SOL    MW4 7856   0.455   1.900   3.406 -0.5690  0.2987  0.5190
    1SOL     OW 7857   0.671   2.075   3.470 -0.0029  0.2700  0.2901
    1SOL    HW2 7858   0.670   2.088   3.565 -1.2795 -0.8548  0.4380
    1SOL    HW3 7859   0.604   2.009   3.454 -0.2190  0.8959 -1.4685
    1SOL    MW4 7860   0.662   2.068   3.480 -0.1998  0.2043  0.0777
    1SOL     OW 7861   0.671   2.327   3.348 -0.2943 -0.1958 -0.2572
    1SOL    HW2 7862   0.753   2.357   3.385 -0.1319 -0.2970 -0.5317
    1SOL    HW3 7863   0.661   2.237   3.379 -0.2875 -0.1928 -0.2460
    1SOL    MW4 7864   0.680   2.319   3.357 -0.2720 -0.2091 -0.2918
    1SOL     OW 7865   0.416   2.434   3.484  0.1806  0.1484  0.0851
    1SOL    HW2 7866   0.495   2.405   3.439 -0.3008 -2.1757  0.6689
    1SOL    HW3 7867   0.346   2.383   3.445 -0.7451  0.7275  0.9699
    1SOL    MW4 7868   0.418   2.424   3.473 -0.0050 -0.0818  0.2789
    1SOL     OW 7869   0.454   2.715   3.407  0.1675  0.3934  0.3316
    1SOL    HW2 7870   0.439   2.629   3.446  0.6874  0.3251  0.3870
    1SOL    HW3 7871   0.440   2.702   3.313  0.5529  0.1779  0.3032
    1SOL    MW4 7872   0.450   2.702   3.400  0.2869  0.3557  0.3350
    1SOL     OW 7873   0.677   2.865   3.461  0.4238  0.4854  0.2294
    1SOL    HW2 7874   0.733   2.813   3.403  1.5237  0.8625  0.9390
    1SOL    HW3 7875   0.593   2.818   3.461  1.6381 -1.8284  1.5238
    1SOL    MW4 7876   0.673   2.852   3.454  0.7290  0.2301  0.4935
    1SOL     OW 7877   0.703   3.133   3.354  0.0211 -0.0388 -0.0549
    1SOL    HW2 7878   0.632   3.187   3.389 -0.1711 -0.1126 -0.3232
    1SOL    HW3 7879   0.694   3.049   3.399  0.2280  0.1074  0.2549
    1SOL    MW4 7880   0.692   3.129   3.364  0.0229 -0.0296 -0.0494
    1SOL     OW 7881   0.503   3.269   3.498  0.0391  0.5386  0.2372
    1SOL    HW2 7882   0.502   3.285   3.592 -1.2986  0.0899  0.3058
    1SOL    HW3 7883   0.423   3.220   3.481  1.6918 -1.9789 -0.6831
    1SOL    MW4 7884   0.492   3.264   3.508  0.0806  0.1471  0.1249
    1SOL     OW 7885   0.468   3.533   3.423  0.0866  0.5338  0.6260
    1SOL    HW2 7886   0.487   3.444   3.454 -0.3658 -0.2371 -1.2738
    1SOL    HW3 7887   0.391   3.559   3.475 -1.1964 -1.0731 -0.3918
    1SOL    MW4 7888   0.460   3.524   3.434 -0.1423  0.2201  0.2408
    1SOL     OW 7889   0.722   3.610   3.534 -0.3424  0.0962  0.5129
    1SOL    HW2 7890   0.798   3.564   3.499 -0.0948  0.4063  0.6369
    1SOL    HW3 7891   0.648   3.578   3.483 -0.2057 -0.6168  0.7624
    1SOL    MW4 7892   0.722   3.600   3.523 -0.2917  0.0429  0.5622
    1SOL     OW 7893   0.697   3.891   3.396  0.0103  0.4390 -0.2169
    1SOL    HW2 7894   0.622   3.936   3.433 -0.0400  0.1298  0.0530
    1SOL    HW3 7895   0.697   3.805   3.438 -0.9857 -0.5115 -2.0954
    1SOL    MW4 7896   0.687   3.885   3.406 -0.1278  0.2728 -0.4292
    1SOL     OW 7897   0.486   4.013   3.511 -0.0370  0.3242  0.6699
    1SOL    HW2 7898   0.477   4.090   3.454  1.0350 -0.6748 -0.8655
    1SOL    HW3 7899   0.412   3.957   3.487  0.6704 -0.2999 -0.0658
    1SOL    MW4 7900   0.475   4.016   3.501  0.1978  0.1097  0.3705
    1SOL     OW 7901   0.469   4.251   3.376 -0.0614  0.0674 -0.1076
    1SOL    HW2 7902   0.547   4.289   3.417  0.4059 -1.1133  0.1095
    1SOL    HW3 7903   0.482   4.265   3.282  0.1702  0.3286 -0.0370
    1SOL    MW4 7904   0.481   4.258   3.369  0.0308 -0.0544 -0.0696
    1SOL     OW 7905   0.695   4.397   3.498  0.5025 -0.2449  0.4191
    1SOL    HW2 7906   0.776   4.349   3.484  1.0238  0.8691 -0.4950
    1SOL    HW3 7907   0.710   4.482   3.457 -1.2520 -0.1452 -0.0625
    1SOL    MW4 7908   0.708   4.402   3.491  0.3397 -0.0844  0.2351
    1SOL     OW 7909   1.120   4.653   3.410  0.2077 -0.0863 -0.2076
    1SOL    HW2 7910   1.210   4.686   3.414  0.2162 -0.0527 -0.6313
    1SOL    HW3 7911   1.100   4.651   3.316  0.3440 -1.6278 -0.2164
    1SOL    MW4 7912   1.129   4.657   3.398  0.2267 -0.2853 -0.2644
    1SOL     OW 7913   0.873   0.094   3.490  0.0596 -0.3314 -0.1156
    1SOL    HW2 7914   0.890   0.121   3.580  0.3413  0.5565 -0.4208
    1SOL    HW3 7915   0.956   0.056   3.461  1.4843  3.5090 -1.4295
    1SOL    MW4 7916   0.887   0.093   3.498  0.2847  0.2924 -0.3293
    1SOL     OW 7917   0.888   0.357   3.399 -0.3651 -0.0060 -0.5065
    1SOL    HW2 7918   0.979   0.384   3.414 -0.8929  0.7312  1.5688
    1SOL    HW3 7919   0.885   0.266   3.430 -0.9507  0.8443  2.0738
    1SOL    MW4 7920   0.900   0.349   3.405 -0.5119  0.2034  0.1078
    1SOL     OW 7921   1.122   0.485   3.457  0.2832  0.3969 -0.0269
    1SOL    HW2 7922   1.126   0.501   3.551 -0.8061  0.8991 -0.0605
    1SOL    HW3 7923   1.108   0.571   3.418  1.8615  0.3473 -0.7324
    1SOL    MW4 7924   1.120   0.498   3.464  0.3476  0.4566 -0.1242
    1SOL     OW 7925   1.147   0.773   3.417 -0.6397 -0.0083  0.4063
    1SOL    HW2 7926   1.218   0.809   3.469 -0.5845 -2.6346  2.2758
    1SOL    HW3 7927   1.067   0.804   3.459 -0.5874 -0.7134  1.0362
    1SOL    MW4 7928   1.146   0.782   3.429 -0.6255 -0.4478  0.7358
    1SOL     OW 7929   0.918   0.875   3.528 -0.3228  0.5534 -0.6019
    1SOL    HW2 7930   0.914   0.964   3.492 -1.5381  1.0116  0.5937
    1SOL    HW3 7931   0.844   0.830   3.487 -0.8295  0.6517  0.1880
    1SOL    MW4 7932   0.907   0.881   3.518 -0.5500  0.6267 -0.3400
    1SOL     OW 7933   0.952   1.133   3.413 -0.0871 -0.6269 -0.3124
    1SOL    HW2 7934   1.017   1.188   3.457  0.1445 -2.0453  1.1748
    1SOL    HW3 7935   0.951   1.165   3.323 -0.1485  1.9722  0.5533
    1SOL    MW4 7936   0.960   1.145   3.407 -0.0647 -0.4711 -0.0019
    1SOL     OW 7937   1.138   1.295   3.527  0.1163  1.0620  0.2106
    1SOL    HW2 7938   1.142   1.289   3.622 -1.2871  1.8152  0.3277
    1SOL    HW3 7939   1.150   1.388   3.508 -0.0934  0.9849 -0.3204
    1SOL    MW4 7940   1.140   1.306   3.537 -0.0966  1.1513  0.1559
    1SOL     OW 7941   1.144   1.552   3.431  0.1020 -0.5845  0.2617
    1SOL    HW2 7942   1.225   1.600   3.447  0.3844 -0.7128 -0.7642
    1SOL    HW3 7943   1.141   1.541   3.336 -1.5183  0.1322  0.2180
    1SOL    MW4 7944   1.154   1.557   3.421 -0.0745 -0.5069  0.1204
    1SOL     OW 7945   0.913   1.673   3.499  0.3512 -0.1216 -0.5688
    1SOL    HW2 7946   0.915   1.763   3.469  0.2993 -0.1865 -0.7695
    1SOL    HW3 7947   0.998   1.637   3.474  0.2301 -0.2333 -0.8167
    1SOL    MW4 7948   0.924   1.680   3.492  0.3283 -0.1450 -0.6278
    1SOL     OW 7949   0.898   1.934   3.421 -0.0357  0.3551  0.5893
    1SOL    HW2 7950   0.979   1.974   3.453 -1.0587  2.0648  1.0858
    1SOL    HW3 7951   0.829   1.996   3.445 -1.5311 -1.1881  0.3798
    1SOL    MW4 7952   0.900   1.947   3.428 -0.3680  0.3772  0.6273
    1SOL     OW 7953   1.112   2.072   3.514 -0.0638 -0.3609 -0.3364
    1SOL    HW2 7954   1.196   2.029   3.499  0.9476  0.7860  1.7719
    1SOL    HW3 7955   1.122   2.158   3.473 -0.4039 -0.4200 -0.5464
    1SOL    MW4 7956   1.124   2.078   3.507  0.0248 -0.2172 -0.0858
    1SOL     OW 7957   1.154   2.333   3.398  0.2157  0.1873  0.3072
    1SOL    HW2 7958   1.239   2.371   3.421  0.0369 -0.4600  2.1141
    1SOL    HW3 7959   1.157   2.322   3.303  2.3343 -0.2521  0.4090
    1SOL    MW4 7960   1.165   2.336   3.389  0.4718  0.0439  0.5591
    1SOL     OW 7961   0.934   2.468   3.452  0.4021 -0.2233 -0.0292
    1SOL    HW2 7962   0.927   2.459   3.547  1.6006  0.3624  0.1340
    1SOL    HW3 7963   1.012   2.417   3.429 -0.7628 -1.6522 -0.9197
    1SOL    MW4 7964   0.944   2.460   3.461  0.4065 -0.3345 -0.1252
    1SOL     OW 7965   0.866   2.712   3.332  0.1598  0.1774  0.0949
    1SOL    HW2 7966   0.920   2.770   3.386 -0.7561 -0.2940  1.5453
    1SOL    HW3 7967   0.889   2.624   3.363 -0.2896 -0.0995 -0.3663
    1SOL    MW4 7968   0.876   2.708   3.343 -0.0203  0.0787  0.2253
    1SOL     OW 7969   1.040   2.852   3.508 -0.7449 -0.4400  0.3619
    1SOL    HW2 7970   1.035   2.861   3.603  0.7357 -0.9100  0.4966
    1SOL    HW3 7971   1.115   2.795   3.493 -1.1148 -0.5712 -1.0853
    1SOL    MW4 7972   1.049   2.846   3.518 -0.5983 -0.5193  0.1886
    1SOL     OW 7973   1.196   3.044   3.382  0.8565  0.3079 -0.3929
    1SOL    HW2 7974   1.140   2.974   3.418  0.0782  0.6235 -0.9804
    1SOL    HW3 7975   1.171   3.049   3.289  0.1252  2.0970 -0.1263
    1SOL    MW4 7976   1.185   3.035   3.374  0.6574  0.5858 -0.4351
    1SOL     OW 7977   0.970   3.198   3.486  0.3086  0.1608  0.5623
    1SOL    HW2 7978   1.050   3.153   3.460  0.1554  0.9712 -1.3842
    1SOL    HW3 7979   0.901   3.159   3.433 -0.3350  0.5398  1.1021
    1SOL    MW4 7980   0.972   3.187   3.476  0.2035  0.3176  0.3767
    1SOL     OW 7981   0.926   3.474   3.403  0.5617  0.2115 -0.2677
    1SOL    HW2 7982   0.921   3.382   3.427  0.8511  0.3924  0.4843
    1SOL    HW3 7983   0.931   3.473   3.307  1.6264 -0.6084 -0.2148
    1SOL    MW4 7984   0.926   3.462   3.393  0.7403  0.1271 -0.1616
    1SOL     OW 7985   1.138   3.625   3.494 -0.1971  0.2101  0.1128
    1SOL    HW2 7986   1.147   3.612   3.588 -0.5488  1.1188  0.2767
    1SOL    HW3 7987   1.061   3.573   3.469  0.7485 -1.2137  0.0610
    1SOL    MW4 7988   1.129   3.616   3.503 -0.1189  0.1423  0.1276
    1SOL     OW 7989   1.147   3.889   3.392  0.2254  0.2836 -0.1452
    1SOL    HW2 7990   1.201   3.946   3.446 -2.1889  2.3157  0.2113
    1SOL    HW3 7991   1.149   3.805   3.438  0.0830  1.3501  1.8880
    1SOL    MW4 7992   1.154   3.885   3.405 -0.1118  0.6924  0.1702
    1SOL     OW 7993   0.926   4.001   3.482 -0.3917 -0.1391 -0.4646
    1SOL    HW2 7994   0.999   3.951   3.446 -0.7888 -0.4450 -0.8561
    1SOL    HW3 7995   0.848   3.962   3.442 -0.9361 -1.3090  1.6793
    1SOL    MW4 7996   0.925   3.989   3.472 -0.5159 -0.3333 -0.2334
    1SOL     OW 7997   0.919   4.274   3.401 -0.2583  0.0401 -0.1869
    1SOL    HW2 7998   0.920   4.192   3.450  1.4955  0.3983  0.4006
    1SOL    HW3 7999   0.934   4.248   3.310  0.6875 -0.2700  0.0502
    1SOL    MW4 8000   0.921   4.260   3.395  0.0979  0.0467 -0.0780
    1SOL     OW 8001   1.144   4.400   3.523 -0.1001 -0.1599  0.2996
    1SOL    HW2 8002   1.072   4.352   3.483 -1.1477  0.5468  1.3164
    1SOL    HW3 8003   1.135   4.489   3.492  0.6391 -0.1789  0.0258
    1SOL    MW4 8004   1.133   4.405   3.514 -0.1409 -0.0691  0.3979
    1SOL     OW 8005   1.600   4.664   3.375 -0.2053  0.1961  0.0578
    1SOL    HW2 8006   1.598   4.575   3.410  2.5173  0.7168  1.6804
    1SOL    HW3 8007   1.526   4.709   3.416 -0.9377 -0.9929  0.0575
    1SOL    MW4 8008   1.590   4.658   3.385  0.0573  0.1078  0.2718
    1SOL     OW 8009   1.366   0.113   3.490 -0.2776 -0.0464 -0.1371
    1SOL    HW2 8010   1.350   0.118   3.584  1.3550  0.9053  0.1047
    1SOL    HW3 8011   1.366   0.203   3.460 -0.8997 -0.3505 -1.0921
    1SOL    MW4 8012   1.364   0.125   3.498 -0.1444  0.0390 -0.2313
    1SOL     OW 8013   1.360   0.371   3.372 -0.6049 -0.3082 -0.2979
    1SOL    HW2 8014   1.433   0.409   3.420 -0.7583 -0.0432 -0.2702
    1SOL    HW3 8015   1.283   0.417   3.406 -0.9260 -1.5033  0.6110
    1SOL    MW4 8016   1.359   0.382   3.383 -0.6676 -0.4309 -0.1740
    1SOL     OW 8017   1.563   0.477   3.542 -0.2781  0.1043  0.1564
    1SOL    HW2 8018   1.578   0.497   3.634 -0.2020 -0.3998  0.2543
    1SOL    HW3 8019   1.644   0.436   3.513 -0.0670  0.8310 -0.2988
    1SOL    MW4 8020   1.576   0.475   3.550 -0.2402  0.1337  0.1097
    1SOL     OW 8021   1.587   0.733   3.425 -0.5234 -0.4912 -0.8044
    1SOL    HW2 8022   1.515   0.781   3.465  1.9016  0.5828  2.4690
    1SOL    HW3 8023   1.580   0.645   3.463  0.3880 -0.1379  0.1936
    1SOL    MW4 8024   1.576   0.727   3.435 -0.0831 -0.3029 -0.2403
    1SOL     OW 8025   1.387   0.878   3.529 -0.3222 -0.4418 -0.3480
    1SOL    HW2 8026   1.365   0.885   3.622  0.4210 -1.7240 -0.0623
    1SOL    HW3 8027   1.377   0.967   3.495  0.3761  0.2327  1.1743
    1SOL    MW4 8028   1.383   0.891   3.536 -0.1320 -0.5219 -0.1094
    1SOL     OW 8029   1.365   1.136   3.405 -0.3097  0.4452  0.3130
    1SOL    HW2 8030   1.440   1.183   3.441  0.2594  0.3364 -0.7234
    1SOL    HW3 8031   1.289   1.187   3.434  0.2807  1.9011 -0.6382
    1SOL    MW4 8032   1.365   1.149   3.414 -0.1568  0.6229  0.0508
    1SOL     OW 8033   1.571   1.292   3.510  0.4428 -0.4072 -0.2922
    1SOL    HW2 8034   1.579   1.299   3.605  1.1671 -0.1480 -0.3688
    1SOL    HW3 8035   1.646   1.239   3.484 -0.8472 -2.1833 -0.5235
    1SOL    MW4 8036   1.582   1.286   3.519  0.3682 -0.6074 -0.3331
    1SOL     OW 8037   1.603   1.550   3.403 -0.6512 -0.1832  0.0585
    1SOL    HW2 8038   1.594   1.459   3.432 -0.5212  0.2761  1.5436
    1SOL    HW3 8039   1.615   1.543   3.308 -1.4146 -1.6693  0.0495
    1SOL    MW4 8040   1.603   1.537   3.394 -0.7348 -0.3185  0.2534
    1SOL     OW 8041   1.368   1.698   3.489  0.4483  0.6227  0.2512
    1SOL    HW2 8042   1.362   1.690   3.584  1.5850  0.8471  0.3561
    1SOL    HW3 8043   1.432   1.631   3.463 -0.2804  0.1856 -0.4143
    1SOL    MW4 8044   1.376   1.688   3.498  0.5021  0.5946  0.1774
    1SOL     OW 8045   1.345   1.957   3.433 -0.1865 -0.1115 -0.3076
    1SOL    HW2 8046   1.427   1.999   3.461 -0.5807  0.2491  0.3235
    1SOL    HW3 8047   1.356   1.865   3.457 -0.8698  0.3514  1.8507
    1SOL    MW4 8048   1.358   1.951   3.440 -0.3285 -0.0029  0.0606
    1SOL     OW 8049   1.585   2.066   3.503 -0.1163  0.0348 -0.3004
    1SOL    HW2 8050   1.665   2.016   3.484 -0.3214 -0.4902  0.1880
    1SOL    HW3 8051   1.597   2.150   3.459  1.0743  0.2814  0.4757
    1SOL    MW4 8052   1.597   2.070   3.495  0.0137 -0.0019 -0.1338
    1SOL     OW 8053   1.605   2.318   3.354  0.0916 -0.0602  0.4165
    1SOL    HW2 8054   1.525   2.363   3.382 -1.1629 -1.8802 -0.1471
    1SOL    HW3 8055   1.617   2.344   3.263  0.6657  0.9221  0.7630
    1SOL    MW4 8056   1.596   2.328   3.346  0.0017 -0.1705  0.3879
    1SOL     OW 8057   1.387   2.459   3.469  0.1139  0.6602 -0.0878
    1SOL    HW2 8058   1.386   2.467   3.565  0.6847  1.7898 -0.1638
    1SOL    HW3 8059   1.375   2.549   3.438  0.5339  0.3765 -1.0741
    1SOL    MW4 8060   1.385   2.472   3.478  0.2446  0.7718 -0.2279
    1SOL     OW 8061   1.277   2.713   3.405 -0.0099 -0.3372 -0.3184
    1SOL    HW2 8062   1.357   2.757   3.432  0.2648 -1.4114  0.6984
    1SOL    HW3 8063   1.271   2.729   3.311  1.6388 -0.6229 -0.4906
    1SOL    MW4 8064   1.287   2.721   3.396  0.2439 -0.5167 -0.2069
    1SOL     OW 8065   1.534   2.831   3.472 -0.6747  0.1732 -0.1411
    1SOL    HW2 8066   1.621   2.808   3.442 -0.2626 -0.1437  1.2684
    1SOL    HW3 8067   1.525   2.924   3.450  0.2694  0.3692  0.2850
    1SOL    MW4 8068   1.544   2.841   3.466 -0.4958  0.1571  0.1009
    1SOL     OW 8069   1.549   3.107   3.389 -0.0220  0.5785 -0.2015
    1SOL    HW2 8070   1.640   3.134   3.406  0.2374 -1.5336  2.1334
    1SOL    HW3 8071   1.496   3.171   3.436  0.3227  1.0452 -0.4440
    1SOL    MW4 8072   1.554   3.119   3.398  0.0577  0.3614  0.0746
    1SOL     OW 8073   1.333   3.259   3.520  0.2925 -0.1956  0.1853
    1SOL    HW2 8074   1.336   3.234   3.613  0.8356 -1.1400 -0.0677
    1SOL    HW3 8075   1.273   3.196   3.481 -1.3348  1.3348  0.2118
    1SOL    MW4 8076   1.326   3.247   3.527  0.1495 -0.1183  0.1557
    1SOL     OW 8077   1.305   3.477   3.346  0.1199 -0.1989 -0.1663
    1SOL    HW2 8078   1.317   3.404   3.408 -1.4554 -1.3600 -1.1815
    1SOL    HW3 8079   1.242   3.534   3.389  1.1999  0.4750  0.5415
    1SOL    MW4 8080   1.298   3.475   3.360  0.0545 -0.2632 -0.2069
    1SOL     OW 8081   1.540   3.616   3.462 -0.0419  0.2735 -0.1892
    1SOL    HW2 8082   1.533   3.600   3.556  2.0628 -2.0226 -0.3492
    1SOL    HW3 8083   1.460   3.579   3.425 -0.9192  1.2679  0.7083
    1SOL    MW4 8084   1.529   3.609   3.470  0.1200  0.1018 -0.0918
    1SOL     OW 8085   1.585   3.904   3.456 -0.0239  0.0058 -0.4409
    1SOL    HW2 8086   1.580   3.820   3.500 -1.3143  0.7985  0.9987
    1SOL    HW3 8087   1.576   3.884   3.363 -0.4391 -1.4268 -0.0936
    1SOL    MW4 8088   1.583   3.891   3.449 -0.2489 -0.0787 -0.2050
    1SOL     OW 8089   1.352   4.021   3.541  0.6388  0.1359  0.3542
    1SOL    HW2 8090   1.350   4.112   3.513  0.2456  0.0302  0.0256
    1SOL    HW3 8091   1.437   3.988   3.510  0.7966  0.3988  0.5084
    1SOL    MW4 8092   1.363   4.029   3.533  0.6078  0.1569  0.3314
    1SOL     OW 8093   1.382   4.285   3.440  0.1716 -0.6103 -0.1610
    1SOL    HW2 8094   1.308   4.337   3.472  0.0837 -0.8525  0.0360
    1SOL    HW3 8095   1.365   4.274   3.346  0.7241  0.5799 -0.3958
    1SOL    MW4 8096   1.370   4.290   3.432  0.2329 -0.4854 -0.1659
    1SOL     OW 8097   1.621   4.412   3.518 -0.0069 -0.5261  0.0018
    1SOL    HW2 8098   1.685   4.359   3.472  0.6411 -1.3261  1.8253
    1SOL    HW3 8099   1.536   4.372   3.496  0.3226 -1.0927 -0.2385
    1SOL    MW4 8100   1.618   4.400   3.509  0.1221 -0.7067  0.2105
    1SOL     OW 8101   2.010   4.636   3.404 -0.2020 -0.1040  0.6939
    1SOL    HW2 8102   2.087   4.685   3.434 -0.0903 -0.3583  0.8266
    1SOL    HW3 8103   1.939   4.669   3.459  0.3083 -1.7120  2.3641
    1SOL    MW4 8104   2.011   4.647   3.415 -0.1202 -0.3495  0.9320
    1SOL     OW 8105   1.819   0.121   3.505  0.2395  0.1600  0.1935
    1SOL    HW2 8106   1.791   0.138   3.595  0.7292 -1.0502  0.5877
    1SOL    HW3 8107   1.745   0.075   3.465  0.7558 -1.0503  0.5784
    1SOL    MW4 8108   1.805   0.117   3.511  0.3723 -0.1594  0.2964
    1SOL     OW 8109   1.787   0.387   3.432 -0.0174 -0.4839 -0.1577
    1SOL    HW2 8110   1.815   0.297   3.446  0.5042 -0.3746 -0.4586
    1SOL    HW3 8111   1.785   0.397   3.337 -1.0162 -0.4633 -0.1355
    1SOL    MW4 8112   1.791   0.377   3.421 -0.0805 -0.4668 -0.1945
    1SOL     OW 8113   1.998   0.504   3.546  0.3072 -0.1230  0.1258
    1SOL    HW2 8114   1.999   0.598   3.528  0.7678  0.0167  0.8575
    1SOL    HW3 8115   1.921   0.471   3.500  0.2480  0.5832 -0.2794
    1SOL    MW4 8116   1.988   0.512   3.538  0.3601 -0.0114  0.1690
    1SOL     OW 8117   2.013   0.767   3.447  0.0609 -0.0676  0.3816
    1SOL    HW2 8118   2.104   0.778   3.475  0.4946 -0.6828 -0.7378
    1SOL    HW3 8119   2.014   0.790   3.354 -0.8818 -0.3108  0.3071
    1SOL    MW4 8120   2.025   0.771   3.439 -0.0062 -0.1808  0.2244
    1SOL     OW 8121   1.788   0.889   3.513  0.5674  0.1576 -0.4386
    1SOL    HW2 8122   1.871   0.848   3.488 -0.1615 -0.5968 -1.6834
    1SOL    HW3 8123   1.722   0.825   3.489 -0.2472 -0.3546  2.9314
    1SOL    MW4 8124   1.791   0.875   3.507  0.3637 -0.0095 -0.1583
    1SOL     OW 8125   1.810   1.171   3.443  0.4087 -0.1178 -0.3351
    1SOL    HW2 8126   1.889   1.215   3.475  1.0078 -0.6026 -1.1443
    1SOL    HW3 8127   1.812   1.085   3.485  0.4582 -0.2343 -0.5763
    1SOL    MW4 8128   1.821   1.166   3.453  0.4944 -0.1971 -0.4737
    1SOL     OW 8129   2.047   1.301   3.528 -0.7230  0.6682 -0.8846
    1SOL    HW2 8130   2.015   1.314   3.617 -0.8340  1.5185 -1.0451
    1SOL    HW3 8131   2.024   1.382   3.482 -0.0143  0.5260 -1.4942
    1SOL    MW4 8132   2.039   1.313   3.534 -0.6442  0.7615 -0.9861
    1SOL     OW 8133   2.015   1.555   3.421 -0.1522  0.0786  0.3647
    1SOL    HW2 8134   2.102   1.592   3.438  0.0699 -0.7666  1.1225
    1SOL    HW3 8135   1.955   1.607   3.475 -0.1272  0.7032 -0.2072
    1SOL    MW4 8136   2.019   1.567   3.430 -0.1194  0.0496  0.3889
    1SOL     OW 8137   1.797   1.680   3.531 -0.2184 -0.3189 -0.7377
    1SOL    HW2 8138   1.793   1.772   3.505  0.5276 -0.7088 -2.2638
    1SOL    HW3 8139   1.719   1.640   3.492 -0.2703 -0.4454 -0.5094
    1SOL    MW4 8140   1.786   1.687   3.523 -0.1267 -0.3871 -0.9089
    1SOL     OW 8141   1.812   1.927   3.425 -0.0181  0.2972 -0.0369
    1SOL    HW2 8142   1.900   1.958   3.447  0.9863 -1.1511 -1.7995
    1SOL    HW3 8143   1.804   1.943   3.331 -1.4530 -0.0458  0.0162
    1SOL    MW4 8144   1.823   1.933   3.415 -0.0749  0.0609 -0.2623
    1SOL     OW 8145   2.037   2.044   3.518  0.0859  0.2946 -0.1099
    1SOL    HW2 8146   2.109   1.993   3.482 -0.5364  0.1098 -1.1059
    1SOL    HW3 8147   2.044   2.129   3.475 -0.2281  0.3130 -0.1231
    1SOL    MW4 8148   2.048   2.048   3.508 -0.0379  0.2728 -0.2429
    1SOL     OW 8149   2.064   2.285   3.390 -0.1368 -0.3500  0.0173
    1SOL    HW2 8150   2.136   2.341   3.418 -1.4536  1.1373  0.4982
    1SOL    HW3 8151   2.067   2.287   3.294  0.1831  0.0562  0.0393
    1SOL    MW4 8152   2.074   2.292   3.381 -0.2685 -0.1004  0.0839
    1SOL     OW 8153   1.837   2.444   3.458 -0.3292 -0.4742 -0.2930
    1SOL    HW2 8154   1.908   2.382   3.445  0.4727  0.3359  0.1169
    1SOL    HW3 8155   1.760   2.401   3.423  0.2522 -1.6152 -0.1799
    1SOL    MW4 8156   1.837   2.430   3.452 -0.1466 -0.5178 -0.2241
    1SOL     OW 8157   1.791   2.735   3.386  0.1375 -0.3752 -0.5505
    1SOL    HW2 8158   1.877   2.771   3.407  0.8201 -0.8708 -2.3616
    1SOL    HW3 8159   1.798   2.642   3.409 -0.1942 -0.2477  0.0744
    1SOL    MW4 8160   1.803   2.728   3.392  0.1837 -0.4239 -0.7074
    1SOL     OW 8161   2.037   2.854   3.466 -0.2153  0.1832 -0.0333
    1SOL    HW2 8162   2.013   2.857   3.559 -0.5762 -0.1241 -0.1149
    1SOL    HW3 8163   2.023   2.943   3.435 -0.1627  0.2707  0.1901
    1SOL    MW4 8164   2.032   2.866   3.474 -0.2561  0.1540 -0.0145
    1SOL     OW 8165   1.996   3.122   3.390 -0.0389  0.3821 -0.4746
    1SOL    HW2 8166   2.069   3.164   3.435 -0.2052  0.4846 -0.3029
    1SOL    HW3 8167   1.921   3.177   3.409 -0.0953  0.4726 -0.9443
    1SOL    MW4 8168   1.996   3.135   3.398 -0.0683  0.4075 -0.5140
    1SOL     OW 8169   1.771   3.251   3.466 -0.5633 -0.2914 -0.3319
    1SOL    HW2 8170   1.775   3.242   3.561  0.1344 -0.9470 -0.4198
    1SOL    HW3 8171   1.773   3.346   3.451 -0.4177 -0.1913  0.2997
    1SOL    MW4 8172   1.772   3.263   3.476 -0.4520 -0.3650 -0.2601
    1SOL     OW 8173   1.788   3.505   3.374  0.4588  0.0072 -0.0888
    1SOL    HW2 8174   1.707   3.546   3.406  0.5521 -0.5382  0.8732
    1SOL    HW3 8175   1.773   3.493   3.281 -0.2403  0.6877 -0.0690
    1SOL    MW4 8176   1.775   3.509   3.366  0.3788  0.0248  0.0408
    1SOL     OW 8177   2.024   3.628   3.488 -0.2108 -0.5427 -0.1871
    1SOL    HW2 8178   2.102   3.580   3.462 -0.1992 -0.7799  0.2715
    1SOL    HW3 8179   1.953   3.587   3.439 -0.0394 -0.2771 -0.6616
    1SOL    MW4 8180   2.025   3.616   3.478 -0.1867 -0.5388 -0.1888
    1SOL     OW 8181   2.024   3.890   3.396 -0.1868 -0.0980 -0.0740
    1SOL    HW2 8182   1.951   3.936   3.437  1.0273 -0.2865  2.3443
    1SOL    HW3 8183   2.017   3.801   3.428  0.0053 -0.5957 -1.3692
    1SOL    MW4 8184   2.013   3.885   3.405 -0.0014 -0.1884  0.0744
    1SOL     OW 8185   1.819   4.035   3.503  0.4495 -0.2875 -0.5652
    1SOL    HW2 8186   1.842   4.019   3.594  0.4990 -1.0489 -0.7015
    1SOL    HW3 8187   1.745   3.976   3.486  0.7038 -0.4499 -1.1233
    1SOL    MW4 8188   1.812   4.025   3.512  0.4895 -0.4096 -0.6568
    1SOL     OW 8189   1.816   4.279   3.379 -0.0847  0.3453  0.3011
    1SOL    HW2 8190   1.808   4.196   3.426 -0.4967  0.7059  0.8780
    1SOL    HW3 8191   1.810   4.255   3.286 -1.3210 -0.1489  0.4985
    1SOL    MW4 8192   1.814   4.265   3.373 -0.3023  0.3276  0.4034
    1SOL     OW 8193   2.046   4.374   3.509  0.0485 -0.1456 -0.1074
    1SOL    HW2 8194   1.963   4.337   3.480 -1.2180  1.4221  1.3762
    1SOL    HW3 8195   2.047   4.463   3.473  1.6483 -0.5564 -1.1109
    1SOL    MW4 8196   2.035   4.381   3.501  0.0925  0.0072 -0.0441
    1SOL     OW 8197   2.502   0.002   3.440  0.0988 -0.3526  0.0435
    1SOL    HW2 8198   2.481  -0.084   3.477 -1.1219  0.1891  0.6655
    1SOL    HW3 8199   2.496  -0.010   3.346 -0.4010 -0.8840  0.1413
    1SOL    MW4 8200   2.498  -0.011   3.433 -0.1285 -0.3514  0.1383
    1SOL     OW 8201   2.238   0.093   3.482  0.2050  0.2380  0.0636
    1SOL    HW2 8202   2.228   0.179   3.442 -0.8287 -0.2909 -0.8300
    1SOL    HW3 8203   2.329   0.069   3.465  0.1696  0.6424 -0.6959
    1SOL    MW4 8204   2.249   0.101   3.474  0.0639  0.2216 -0.1547
    1SOL     OW 8205   2.197   0.351   3.409 -0.5723  0.3015 -0.6727
    1SOL    HW2 8206   2.283   0.385   3.434 -0.7572  0.9057 -0.8528
    1SOL    HW3 8207   2.135   0.399   3.465 -0.6388 -1.7793  1.1184
    1SOL    MW4 8208   2.200   0.362   3.420 -0.6056  0.1067 -0.4599
    1SOL     OW 8209   2.460   0.459   3.489  0.4548  0.5516 -0.2744
    1SOL    HW2 8210   2.550   0.427   3.480  0.3045  0.4343 -1.3881
    1SOL    HW3 8211   2.464   0.551   3.463  0.4366  0.8180  0.6422
    1SOL    MW4 8212   2.472   0.467   3.485  0.4325  0.5713 -0.3004
    1SOL     OW 8213   2.483   0.726   3.434  0.1617 -0.5997 -0.3039
    1SOL    HW2 8214   2.568   0.756   3.468 -0.3766 -1.5001  1.9731
    1SOL    HW3 8215   2.486   0.745   3.340  1.3284  3.0769  0.3631
    1SOL    MW4 8216   2.495   0.733   3.426  0.2446 -0.2334  0.0846
    1SOL     OW 8217   2.266   0.851   3.530  0.0218  0.1747  0.5553
    1SOL    HW2 8218   2.272   0.945   3.510 -2.2835 -0.0005 -1.1084
    1SOL    HW3 8219   2.348   0.814   3.499  1.0456  1.6771  1.4298
    1SOL    MW4 8220   2.277   0.859   3.524 -0.1471  0.3498  0.4511
    1SOL     OW 8221   2.278   1.122   3.481  0.1125  0.1254  0.3995
    1SOL    HW2 8222   2.354   1.179   3.476 -0.5084  0.8964 -0.5022
    1SOL    HW3 8223   2.206   1.180   3.506 -0.4313 -0.3430 -0.0550
    1SOL    MW4 8224   2.278   1.137   3.483 -0.0415  0.1653  0.2205
    1SOL     OW 8225   2.516   1.284   3.532  0.1297 -0.3340 -0.3165
    1SOL    HW2 8226   2.502   1.292   3.626  0.6707  1.5900 -0.3874
    1SOL    HW3 8227   2.605   1.250   3.523  1.1843  2.3263 -0.1754
    1SOL    MW4 8228   2.526   1.280   3.543  0.3400  0.2710 -0.3073
    1SOL     OW 8229   2.475   1.527   3.431  0.1155 -0.1922 -0.0535
    1SOL    HW2 8230   2.488   1.439   3.465  0.3251  0.1681  0.8081
    1SOL    HW3 8231   2.464   1.515   3.336 -1.4862 -1.2996  0.2559
    1SOL    MW4 8232   2.475   1.514   3.423 -0.0679 -0.2908  0.1009
    1SOL     OW 8233   2.243   1.675   3.518  0.2427 -0.0660 -0.2443
    1SOL    HW2 8234   2.241   1.667   3.613 -0.7956 -0.9396 -0.3299
    1SOL    HW3 8235   2.318   1.622   3.491 -0.2332 -0.8624 -0.0066
    1SOL    MW4 8236   2.253   1.667   3.527  0.0429 -0.2862 -0.2241
    1SOL     OW 8237   2.262   1.928   3.410  0.2834 -0.2377  0.4707
    1SOL    HW2 8238   2.244   1.842   3.448 -1.7379 -0.7882 -1.6845
    1SOL    HW3 8239   2.233   1.922   3.319  0.3247  2.6576  0.2041
    1SOL    MW4 8240   2.256   1.916   3.403  0.0222  0.0718  0.1514
    1SOL     OW 8241   2.471   2.099   3.495 -0.1926  0.2157  0.1797
    1SOL    HW2 8242   2.464   2.082   3.589 -2.1613  1.3979  0.2860
    1SOL    HW3 8243   2.401   2.046   3.456 -0.0640  0.5439 -0.5105
    1SOL    MW4 8244   2.461   2.090   3.502 -0.4356  0.4151  0.1025
    1SOL     OW 8245   2.477   2.343   3.374 -0.1542  0.4311 -0.2421
    1SOL    HW2 8246   2.558   2.375   3.413 -0.2180 -0.3422  0.5454
    1SOL    HW3 8247   2.459   2.260   3.420 -0.0374 -0.6739 -2.1378
    1SOL    MW4 8248   2.485   2.336   3.385 -0.1471  0.1833 -0.3881
    1SOL     OW 8249   2.263   2.450   3.492 -0.5326 -0.2099 -0.7576
    1SOL    HW2 8250   2.262   2.541   3.462  1.9364  0.0512 -0.1453
    1SOL    HW3 8251   2.340   2.411   3.451 -1.8121 -2.1662 -1.3640
    1SOL    MW4 8252   2.273   2.457   3.483 -0.3753 -0.4337 -0.7565
    1SOL     OW 8253   2.262   2.714   3.422 -0.0322  0.1232 -0.1632
    1SOL    HW2 8254   2.179   2.751   3.452  0.1617  0.9361 -0.6290
    1SOL    HW3 8255   2.259   2.721   3.327  0.7527  0.5670 -0.1633
    1SOL    MW4 8256   2.251   2.720   3.414  0.0968  0.2890 -0.2248
    1SOL     OW 8257   2.500   2.827   3.451  0.0009  0.6341  0.2832
    1SOL    HW2 8258   2.478   2.920   3.460 -1.1271  0.4770 -0.8180
    1SOL    HW3 8259   2.416   2.783   3.439  0.6599 -0.3558 -0.7717
    1SOL    MW4 8260   2.486   2.833   3.451 -0.0613  0.4828 -0.0014
    1SOL     OW 8261   2.438   3.114   3.424 -0.5842 -0.0154 -0.0064
    1SOL    HW2 8262   2.515   3.147   3.471 -1.0320 -1.5303  1.8277
    1SOL    HW3 8263   2.463   3.119   3.331  0.7758  1.8527  0.4306
    1SOL    MW4 8264   2.452   3.119   3.418 -0.4637  0.0312  0.2933
    1SOL     OW 8265   2.201   3.230   3.537  0.0764  0.2796  0.0995
    1SOL    HW2 8266   2.194   3.214   3.631 -0.7997 -2.1294 -0.3328
    1SOL    HW3 8267   2.274   3.175   3.508  0.4978  1.1826 -0.6114
    1SOL    MW4 8268   2.210   3.221   3.545  0.0162  0.0808 -0.0510
    1SOL     OW 8269   2.237   3.479   3.407  0.3402 -0.2593  0.1317
    1SOL    HW2 8270   2.240   3.396   3.455  0.5041 -0.4149 -0.1427
    1SOL    HW3 8271   2.234   3.453   3.315 -2.6213 -0.0190  0.1061
    1SOL    MW4 8272   2.237   3.465   3.401 -0.0288 -0.2482  0.0920
    1SOL     OW 8273   2.487   3.576   3.493 -0.1698  0.1321 -0.2688
    1SOL    HW2 8274   2.478   3.671   3.482 -0.9162 -0.0091 -0.9929
    1SOL    HW3 8275   2.409   3.540   3.449  0.3583 -0.8325 -0.4198
    1SOL    MW4 8276   2.475   3.584   3.486 -0.1986 -0.0136 -0.3841
    1SOL     OW 8277   2.491   3.842   3.433  0.2571 -0.0653 -0.1177
    1SOL    HW2 8278   2.566   3.882   3.476 -0.1059 -0.5740  1.0113
    1SOL    HW3 8279   2.415   3.890   3.466 -0.1364 -1.3175  0.8511
    1SOL    MW4 8280   2.491   3.854   3.443  0.1571 -0.2973  0.1590
    1SOL     OW 8281   2.256   3.982   3.490  0.1211 -0.0681 -0.1298
    1SOL    HW2 8282   2.244   4.073   3.462  0.8194  0.4243  1.1269
    1SOL    HW3 8283   2.179   3.936   3.456 -0.0651  0.9276 -1.0642
    1SOL    MW4 8284   2.244   3.988   3.482  0.1888  0.1280 -0.0875
    1SOL     OW 8285   2.272   4.241   3.392 -0.7723  0.2741  0.2899
    1SOL    HW2 8286   2.187   4.270   3.425 -1.2104 -0.2358 -0.3887
    1SOL    HW3 8287   2.270   4.260   3.299 -0.0521  0.4620  0.3068
    1SOL    MW4 8288   2.260   4.247   3.384 -0.7350  0.2313  0.2027
    1SOL     OW 8289   2.466   4.415   3.522 -0.0345  0.1815 -0.4534
    1SOL    HW2 8290   2.459   4.399   3.616  0.3006  3.4091  0.1653
    1SOL    HW3 8291   2.392   4.367   3.484 -0.9672 -0.0374  1.5833
    1SOL    MW4 8292   2.456   4.407   3.529 -0.1135  0.5789 -0.1030
    1SOL     OW 8293   2.937   4.640   3.413  0.0146 -0.1025  0.3863
    1SOL    HW2 8294   2.862   4.688   3.447 -0.5122  0.3566 -1.3541
    1SOL    HW3 8295   2.919   4.632   3.319  1.6280 -0.9260  0.1374
    1SOL    MW4 8296   2.925   4.645   3.405  0.1581 -0.1506  0.1237
    1SOL     OW 8297   2.741   0.128   3.536  0.3525 -0.1768 -0.0760
    1SOL    HW2 8298   2.733   0.199   3.472  0.7247 -1.4242 -1.5355
    1SOL    HW3 8299   2.666   0.071   3.517  0.0930 -0.2170  1.0399
    1SOL    MW4 8300   2.730   0.130   3.525  0.3672 -0.3467 -0.1214
    1SOL     OW 8301   2.718   0.377   3.403  0.4389  0.6917  0.0489
    1SOL    HW2 8302   2.787   0.442   3.413  0.4094  0.7487 -0.1130
    1SOL    HW3 8303   2.709   0.366   3.308  1.1144 -0.2744  0.0899
    1SOL    MW4 8304   2.726   0.384   3.392  0.5240  0.5718  0.0329
    1SOL     OW 8305   2.936   0.550   3.481  0.0019  0.1321 -0.3295
    1SOL    HW2 8306   2.937   0.541   3.577 -0.3045 -0.9794 -0.4324
    1SOL    HW3 8307   2.958   0.642   3.466  1.1854  0.0364  0.7700
    1SOL    MW4 8308   2.939   0.561   3.492  0.1178 -0.0272 -0.1979
    1SOL     OW 8309   2.965   0.819   3.393 -0.3355  0.3245 -0.1572
    1SOL    HW2 8310   3.027   0.866   3.449  0.4061 -0.3764 -0.3789
    1SOL    HW3 8311   2.882   0.824   3.440  0.4925 -1.0904  1.5031
    1SOL    MW4 8312   2.962   0.826   3.407 -0.1285  0.0454  0.0324
    1SOL     OW 8313   2.717   0.865   3.510 -0.5328  0.1794 -0.0191
    1SOL    HW2 8314   2.719   0.863   3.605 -0.7215 -1.8547 -0.0344
    1SOL    HW3 8315   2.700   0.956   3.488  1.0597  0.9691  1.8528
    1SOL    MW4 8316   2.715   0.876   3.519 -0.3476  0.0153  0.2258
    1SOL     OW 8317   2.739   1.156   3.442 -0.1573  0.2109 -0.4259
    1SOL    HW2 8318   2.815   1.211   3.460 -0.5823  0.7947 -0.3662
    1SOL    HW3 8319   2.727   1.163   3.347 -0.1762  0.1718 -0.4266
    1SOL    MW4 8320   2.747   1.164   3.432 -0.2158  0.2826 -0.4182
    1SOL     OW 8321   2.961   1.327   3.530  0.0942  0.1797  0.0251
    1SOL    HW2 8322   2.958   1.292   3.619  0.6082  0.1145  0.0169
    1SOL    HW3 8323   3.021   1.269   3.483 -0.2638  0.1489 -0.3913
    1SOL    MW4 8324   2.969   1.315   3.536  0.1147  0.1671 -0.0310
    1SOL     OW 8325   2.906   1.573   3.393 -0.0763  0.3612  0.1362
    1SOL    HW2 8326   2.839   1.614   3.446 -0.0481  0.4802  0.0803
    1SOL    HW3 8327   2.913   1.484   3.427 -2.0911 -0.4835 -1.5156
    1SOL    MW4 8328   2.898   1.566   3.404 -0.3386  0.2655 -0.0889
    1SOL     OW 8329   2.688   1.697   3.507  0.6436  0.2646 -0.5835
    1SOL    HW2 8330   2.673   1.785   3.474  0.1632  0.2750 -0.3539
    1SOL    HW3 8331   2.615   1.646   3.472 -0.0436  0.3432  0.7017
    1SOL    MW4 8332   2.676   1.702   3.498  0.4897  0.2763 -0.3839
    1SOL     OW 8333   2.680   1.951   3.416  0.3434  0.0451  0.1016
    1SOL    HW2 8334   2.605   1.991   3.459  0.9289 -1.2201  2.4341
    1SOL    HW3 8335   2.662   1.959   3.322 -3.3028 -1.3355  0.6068
    1SOL    MW4 8336   2.668   1.957   3.409 -0.0606 -0.3040  0.4759
    1SOL     OW 8337   2.930   2.070   3.462  0.3134  0.1945 -0.3303
    1SOL    HW2 8338   2.938   2.070   3.557 -0.1988 -1.0630 -0.2686
    1SOL    HW3 8339   2.851   2.019   3.445  0.9424 -0.4353 -1.4580
    1SOL    MW4 8340   2.921   2.063   3.472  0.3290 -0.0544 -0.4709
    1SOL     OW 8341   2.908   2.345   3.385  0.0029  0.4632  0.2376
    1SOL    HW2 8342   2.903   2.251   3.404  0.3507  0.2654 -0.5888
    1SOL    HW3 8343   2.908   2.349   3.289  0.6449  1.2694  0.2690
    1SOL    MW4 8344   2.907   2.333   3.375  0.1335  0.5434  0.1326
    1SOL     OW 8345   2.689   2.483   3.479 -0.5180 -0.1926 -0.0823
    1SOL    HW2 8346   2.685   2.480   3.575  0.7218  0.3497 -0.0022
    1SOL    HW3 8347   2.768   2.435   3.457  0.3257  1.4319 -0.7058
    1SOL    MW4 8348   2.699   2.476   3.489 -0.2429  0.0932 -0.1540
    1SOL     OW 8349   2.738   2.707   3.333  0.1969 -0.1463  0.0567
    1SOL    HW2 8350   2.725   2.622   3.375  2.4395  0.9026  3.0324
    1SOL    HW3 8351   2.669   2.763   3.370  0.7634  0.1854  0.6130
    1SOL    MW4 8352   2.727   2.704   3.343  0.5674  0.0362  0.5231
    1SOL     OW 8353   2.966   2.833   3.486 -0.3092  0.0095  0.3013
    1SOL    HW2 8354   2.952   2.843   3.580 -1.8736 -0.2047  0.1070
    1SOL    HW3 8355   2.890   2.783   3.456  0.0312  0.3287 -1.1252
    1SOL    MW4 8356   2.954   2.828   3.495 -0.4709  0.0234  0.0870
    1SOL     OW 8357   2.918   3.092   3.410 -0.6633 -0.0834  0.3170
    1SOL    HW2 8358   2.917   3.002   3.442  0.4472 -0.1735  0.1303
    1SOL    HW3 8359   2.908   3.084   3.315 -0.2519 -0.0357  0.2673
    1SOL    MW4 8360   2.916   3.079   3.401 -0.4628 -0.0892  0.2861
    1SOL     OW 8361   2.689   3.188   3.523  0.0102  0.3419  0.3235
    1SOL    HW2 8362   2.700   3.199   3.617  0.8661 -0.3435  0.3069
    1SOL    HW3 8363   2.775   3.161   3.491 -0.6519 -0.9390 -0.4257
    1SOL    MW4 8364   2.702   3.186   3.531  0.0358  0.0823  0.2227
    1SOL     OW 8365   2.699   3.441   3.387 -0.0315  0.1982 -0.2129
    1SOL    HW2 8366   2.686   3.356   3.430 -0.7421  0.7089  0.5923
    1SOL    HW3 8367   2.633   3.498   3.426 -0.1104  0.9094 -1.3549
    1SOL    MW4 8368   2.689   3.437   3.398 -0.1357  0.3595 -0.2575
    1SOL     OW 8369   2.919   3.573   3.505 -0.3116  0.8502  0.1688
    1SOL    HW2 8370   2.926   3.661   3.469  1.7464 -0.2221 -2.2284
    1SOL    HW3 8371   2.839   3.537   3.467 -0.3655  1.1824 -0.0298
    1SOL    MW4 8372   2.909   3.580   3.495 -0.0472  0.7524 -0.1738
    1SOL     OW 8373   2.926   3.822   3.409 -0.0782  0.3270 -0.1685
    1SOL    HW2 8374   3.004   3.875   3.424 -0.5157  1.4378 -1.7151
    1SOL    HW3 8375   2.852   3.881   3.424 -0.6309 -0.6636  1.1111
    1SOL    MW4 8376   2.926   3.837   3.413 -0.2089  0.3428 -0.2036
    1SOL     OW 8377   2.722   3.977   3.499  0.1258 -0.1006 -0.0323
    1SOL    HW2 8378   2.732   3.968   3.594 -1.9417 -1.5383  0.0686
    1SOL    HW3 8379   2.709   4.071   3.486 -1.5162 -0.0979  1.3483
    1SOL    MW4 8380   2.722   3.988   3.510 -0.3633 -0.2897  0.1633
    1SOL     OW 8381   2.683   4.252   3.449 -0.1209 -0.7569  0.0398
    1SOL    HW2 8382   2.762   4.305   3.462 -0.5415  0.4952 -2.4069
    1SOL    HW3 8383   2.611   4.311   3.472 -0.4363 -1.5032  1.0181
    1SOL    MW4 8384   2.684   4.267   3.454 -0.2179 -0.6900 -0.1535
    1SOL     OW 8385   2.926   4.381   3.481 -0.0540 -0.1888  0.5230
    1SOL    HW2 8386   2.922   4.376   3.576  3.4995 -0.5659  0.7345
    1SOL    HW3 8387   2.949   4.472   3.462  0.0998 -0.3146  0.0855
    1SOL    MW4 8388   2.928   4.392   3.491  0.4351 -0.2546  0.4930
    1SOL     OW 8389   3.389   0.012   3.412 -0.6186 -0.6275  0.5430
    1SOL    HW2 8390   3.308   0.047   3.451 -0.5811  1.1973 -0.9321
    1SOL    HW3 8391   3.366  -0.006   3.321  0.4516 -0.7490  0.2890
    1SOL    MW4 8392   3.375   0.014   3.405 -0.4723 -0.4029  0.3150
    1SOL     OW 8393   3.143   0.123   3.507 -0.3186 -0.2719 -0.1656
    1SOL    HW2 8394   3.127   0.207   3.464  1.7269 -0.5092 -1.4985
    1SOL    HW3 8395   3.077   0.064   3.471 -1.8135  0.7738  0.8360
    1SOL    MW4 8396   3.132   0.126   3.497 -0.2463 -0.1653 -0.2093
    1SOL     OW 8397   3.120   0.363   3.391  0.2666  0.2835 -0.3523
    1SOL    HW2 8398   3.057   0.429   3.420  1.0858  1.4338 -1.0934
    1SOL    HW3 8399   3.112   0.362   3.295  1.5377  0.6405 -0.4730
    1SOL    MW4 8400   3.111   0.372   3.382  0.5426  0.4824 -0.4661
    1SOL     OW 8401   3.368   0.481   3.478  0.2793 -0.3883 -0.1519
    1SOL    HW2 8402   3.372   0.478   3.574  0.9642  0.4883 -0.1500
    1SOL    HW3 8403   3.285   0.437   3.457  0.4278 -1.1516  0.8017
    1SOL    MW4 8404   3.357   0.475   3.488  0.3891 -0.3734 -0.0257
    1SOL     OW 8405   3.350   0.769   3.415  0.1670  0.1772  0.4750
    1SOL    HW2 8406   3.430   0.817   3.438  0.2252  0.1483  0.3329
    1SOL    HW3 8407   3.368   0.678   3.438 -0.4727  0.4534  2.1001
    1SOL    MW4 8408   3.363   0.764   3.421  0.0904  0.2097  0.6709
    1SOL     OW 8409   3.164   0.932   3.541  0.4248  0.3768 -0.4843
    1SOL    HW2 8410   3.150   0.998   3.474 -0.7696 -0.2510 -0.8658
    1SOL    HW3 8411   3.234   0.877   3.506  2.8223  2.5748  0.7111
    1SOL    MW4 8412   3.172   0.933   3.528  0.5836  0.5839 -0.3767
    1SOL     OW 8413   3.124   1.165   3.382  0.3772 -0.0636  0.3681
    1SOL    HW2 8414   3.212   1.195   3.403  0.0663  0.7810  0.4864
    1SOL    HW3 8415   3.121   1.164   3.286  0.5870 -0.3345  0.3618
    1SOL    MW4 8416   3.135   1.168   3.372  0.3636  0.0122  0.3829
    1SOL     OW 8417   3.354   1.286   3.459 -0.0551 -0.3142  0.5811
    1SOL    HW2 8418   3.440   1.250   3.438 -0.5512 -1.3692  0.2782
    1SOL    HW3 8419   3.364   1.380   3.450  0.7126 -0.5128 -0.7860
    1SOL    MW4 8420   3.367   1.294   3.455 -0.0196 -0.4795  0.3607
    1SOL     OW 8421   3.374   1.540   3.365 -0.0545 -0.2748  0.0254
    1SOL    HW2 8422   3.452   1.584   3.398 -1.0164  0.6671  1.0953
    1SOL    HW3 8423   3.302   1.601   3.384 -0.8886 -0.5115 -2.1609
    1SOL    MW4 8424   3.374   1.554   3.372 -0.2916 -0.1818 -0.1221
    1SOL     OW 8425   3.156   1.688   3.473  0.1020  0.1299 -0.0370
    1SOL    HW2 8426   3.149   1.778   3.439  2.3852 -0.0056 -0.9901
    1SOL    HW3 8427   3.077   1.645   3.443 -0.9099  1.7543  0.2116
    1SOL    MW4 8428   3.145   1.694   3.465  0.2697  0.3263 -0.1297
    1SOL     OW 8429   3.165   1.956   3.379 -0.2568 -0.1354  0.0841
    1SOL    HW2 8430   3.083   2.003   3.394 -0.3882  0.0342 -1.1207
    1SOL    HW3 8431   3.169   1.943   3.285  0.8620 -0.5974  0.1789
    1SOL    MW4 8432   3.155   1.960   3.369 -0.1264 -0.1739 -0.0620
    1SOL     OW 8433   3.402   2.068   3.491 -0.1372  0.0422 -0.5956
    1SOL    HW2 8434   3.399   2.160   3.465  1.1186  0.2263 -0.1396
    1SOL    HW3 8435   3.319   2.031   3.460 -0.9653  1.4911 -0.1184
    1SOL    MW4 8436   3.391   2.075   3.483 -0.0806  0.2580 -0.4723
    1SOL     OW 8437   3.344   2.333   3.375 -0.0616 -0.1363  0.0631
    1SOL    HW2 8438   3.423   2.372   3.412  0.1832  0.8429 -1.4399
    1SOL    HW3 8439   3.272   2.372   3.425  0.2848  0.7430 -0.1201
    1SOL    MW4 8440   3.345   2.343   3.386  0.0167  0.1087 -0.1595
    1SOL     OW 8441   3.131   2.425   3.515  0.2030 -0.1746  0.0497
    1SOL    HW2 8442   3.153   2.514   3.487  0.3300 -1.2402 -3.3833
    1SOL    HW3 8443   3.056   2.401   3.460 -0.9394 -1.5853  2.1609
    1SOL    MW4 8444   3.124   2.434   3.504  0.0691 -0.5016 -0.1249
    1SOL     OW 8445   3.164   2.665   3.372 -0.1972  0.0043 -0.0546
    1SOL    HW2 8446   3.233   2.723   3.404 -0.0165 -0.5709  0.6023
    1SOL    HW3 8447   3.083   2.704   3.406 -0.1725  0.5006 -0.5576
    1SOL    MW4 8448   3.163   2.678   3.381 -0.1702 -0.0064 -0.0343
    1SOL     OW 8449   3.370   2.816   3.513  0.3940  0.0931  0.2533
    1SOL    HW2 8450   3.454   2.780   3.487  0.6671  0.5979  0.4417
    1SOL    HW3 8451   3.365   2.900   3.467  0.5271  0.6219  1.2066
    1SOL    MW4 8452   3.380   2.823   3.503  0.4475  0.2296  0.4041
    1SOL     OW 8453   3.404   3.062   3.381 -0.0949  0.4472  0.1543
    1SOL    HW2 8454   3.479   3.109   3.417  0.1337 -0.1716  0.4951
    1SOL    HW3 8455   3.328   3.111   3.411  0.1118  0.1542  1.1561
    1SOL    MW4 8456   3.404   3.074   3.389 -0.0377  0.3269  0.3312
    1SOL     OW 8457   3.173   3.199   3.454 -0.7852 -0.0276  0.5813
    1SOL    HW2 8458   3.160   3.294   3.450  0.2251  0.1029  0.3473
    1SOL    HW3 8459   3.085   3.162   3.448 -1.1963  0.9024  0.8517
    1SOL    MW4 8460   3.160   3.207   3.453 -0.7062  0.1125  0.5860
    1SOL     OW 8461   3.171   3.469   3.433  0.4522  0.1422 -0.4473
    1SOL    HW2 8462   3.089   3.508   3.465  1.5829  1.3476  1.0741
    1SOL    HW3 8463   3.161   3.466   3.338 -2.3155 -1.9270 -0.1413
    1SOL    MW4 8464   3.159   3.474   3.425  0.2363  0.0279 -0.2062
    1SOL     OW 8465   3.397   3.617   3.513  0.2464  0.4450 -0.1869
    1SOL    HW2 8466   3.390   3.701   3.469  0.7258  0.6695  0.1596
    1SOL    HW3 8467   3.314   3.573   3.495  0.4348  0.5352 -1.2954
    1SOL    MW4 8468   3.385   3.622   3.505  0.3343  0.4864 -0.2875
    1SOL     OW 8469   3.381   3.840   3.370 -0.4227  0.0429 -0.3293
    1SOL    HW2 8470   3.451   3.900   3.395  0.4244 -1.1317  0.1283
    1SOL    HW3 8471   3.300   3.887   3.393  0.1951  1.5189 -1.1461
    1SOL    MW4 8472   3.379   3.854   3.376 -0.2294  0.0825 -0.3767
    1SOL     OW 8473   3.156   3.965   3.446 -0.1825  0.4670 -0.5850
    1SOL    HW2 8474   3.147   3.978   3.540 -0.4104 -0.1581 -0.5151
    1SOL    HW3 8475   3.154   4.053   3.409 -1.2937  0.6530 -0.1044
    1SOL    MW4 8476   3.154   3.978   3.453 -0.3588  0.4091 -0.5124
    1SOL     OW 8477   3.146   4.231   3.408  0.5989  0.3212  0.0216
    1SOL    HW2 8478   3.218   4.283   3.444  1.0761 -0.0131 -0.4364
    1SOL    HW3 8479   3.068   4.285   3.421  1.2398  1.6242 -1.3937
    1SOL    MW4 8480   3.145   4.245   3.414  0.7463  0.4492 -0.2258
    1SOL     OW 8481   3.347   4.416   3.511 -0.2692  0.5100 -0.1964
    1SOL    HW2 8482   3.322   4.429   3.602  1.6728  0.9969  0.2750
    1SOL    HW3 8483   3.351   4.504   3.474  0.6785  0.4315 -0.2853
    1SOL    MW4 8484   3.344   4.429   3.518  0.1123  0.5636 -0.1462
    1SOL     OW 8485   3.805   4.630   3.424  0.1868 -0.2747 -0.0168
    1SOL    HW2 8486   3.744   4.699   3.450  0.0550 -0.9136  1.4208
    1SOL    HW3 8487   3.789   4.618   3.330 -2.0320 -0.5194  0.3524
    1SOL    MW4 8488   3.795   4.637   3.415 -0.1235 -0.3915  0.2215
    1SOL     OW 8489   3.619   0.137   3.511  0.0550 -0.0362  0.2623
    1SOL    HW2 8490   3.610   0.218   3.462 -0.1881 -0.0830  0.2270
    1SOL    HW3 8491   3.551   0.080   3.476 -1.6225  0.7106  2.2265
    1SOL    MW4 8492   3.609   0.140   3.500 -0.1986  0.0561  0.5171
    1SOL     OW 8493   3.578   0.357   3.372  0.2667  0.0944  0.1159
    1SOL    HW2 8494   3.650   0.408   3.408  1.3735 -0.3637 -1.4128
    1SOL    HW3 8495   3.500   0.390   3.418  1.3282  1.1542  1.1876
    1SOL    MW4 8496   3.577   0.368   3.383  0.5531  0.1738  0.0556
    1SOL     OW 8497   3.759   0.508   3.494  0.1194 -0.1811 -0.1221
    1SOL    HW2 8498   3.741   0.490   3.586  1.0397  2.4108  0.6305
    1SOL    HW3 8499   3.838   0.458   3.474  0.5247  0.0801  0.8204
    1SOL    MW4 8500   3.767   0.499   3.503  0.2942  0.1953  0.1016
    1SOL     OW 8501   3.790   0.751   3.367 -0.0556 -0.1168 -0.0541
    1SOL    HW2 8502   3.878   0.782   3.389  0.2643 -0.3471 -0.9892
    1SOL    HW3 8503   3.779   0.672   3.421  0.2419  0.0085  0.1928
    1SOL    MW4 8504   3.800   0.745   3.377  0.0257 -0.1305 -0.1452
    1SOL     OW 8505   3.581   0.916   3.465 -0.3699  0.1195  0.4611
    1SOL    HW2 8506   3.588   0.907   3.560 -0.8150 -0.1395  0.4706
    1SOL    HW3 8507   3.656   0.866   3.431 -1.8372 -2.2505  0.5868
    1SOL    MW4 8508   3.592   0.908   3.473 -0.6223 -0.2273  0.4790
    1SOL     OW 8509   3.626   1.163   3.387 -0.1417  0.1902 -0.2425
    1SOL    HW2 8510   3.616   1.070   3.405  1.2353 -0.1832 -1.3652
    1SOL    HW3 8511   3.616   1.171   3.292  0.3846  1.0943 -0.2322
    1SOL    MW4 8512   3.623   1.152   3.377  0.1094  0.2601 -0.3889
    1SOL     OW 8513   3.832   1.311   3.509  0.3945 -0.3226 -0.1329
    1SOL    HW2 8514   3.829   1.277   3.598  1.1718 -1.5272 -0.5560
    1SOL    HW3 8515   3.759   1.269   3.465  1.7283 -1.9843 -0.8263
    1SOL    MW4 8516   3.822   1.301   3.515  0.6731 -0.7010 -0.2804
    1SOL     OW 8517   3.822   1.543   3.366  0.1920 -0.3711  0.3460
    1SOL    HW2 8518   3.901   1.595   3.381 -0.7484  1.4062 -0.7262
    1SOL    HW3 8519   3.832   1.466   3.423  1.8690  0.7061  1.5254
    1SOL    MW4 8520   3.833   1.539   3.376  0.2890  0.0055  0.3605
    1SOL     OW 8521   3.596   1.678   3.461 -0.1264 -0.3018  0.7326
    1SOL    HW2 8522   3.617   1.760   3.417 -1.0911 -0.5827 -0.2877
    1SOL    HW3 8523   3.663   1.617   3.432 -0.7690 -0.4884 -0.3731
    1SOL    MW4 8524   3.607   1.681   3.451 -0.3386 -0.3635  0.4523
    1SOL     OW 8525   3.613   1.932   3.375 -0.2506 -0.1432 -0.0386
    1SOL    HW2 8526   3.689   1.981   3.406 -1.0253  1.7182 -0.9873
    1SOL    HW3 8527   3.538   1.973   3.418 -0.6988 -2.3156  1.3087
    1SOL    MW4 8528   3.613   1.944   3.385 -0.4117 -0.1843  0.0136
    1SOL     OW 8529   3.820   2.068   3.489 -1.0538 -0.5313 -0.1437
    1SOL    HW2 8530   3.834   2.045   3.581  0.0115 -1.5693 -0.5491
    1SOL    HW3 8531   3.902   2.043   3.445 -1.9491 -1.0743 -1.5617
    1SOL    MW4 8532   3.833   2.061   3.495 -1.0312 -0.7401 -0.3843
    1SOL     OW 8533   3.807   2.318   3.391 -0.3985 -0.3851 -0.3290
    1SOL    HW2 8534   3.882   2.359   3.435 -1.7352  1.2608  0.4565
    1SOL    HW3 8535   3.801   2.231   3.431 -1.3222  0.9120  2.5381
    1SOL    MW4 8536   3.816   2.312   3.402 -0.6964  0.0031  0.1528
    1SOL     OW 8537   3.581   2.426   3.501 -0.4054 -0.0322 -0.3213
    1SOL    HW2 8538   3.584   2.520   3.481 -1.8986 -0.0889 -0.8636
    1SOL    HW3 8539   3.664   2.392   3.469  1.2944  1.5372  2.1688
    1SOL    MW4 8540   3.592   2.434   3.494 -0.3781  0.1674 -0.0644
    1SOL     OW 8541   3.621   2.695   3.448 -0.0328  0.0795 -0.1494
    1SOL    HW2 8542   3.698   2.747   3.469  1.0552 -0.4824 -2.5913
    1SOL    HW3 8543   3.614   2.699   3.353 -1.9238 -1.4198 -0.1100
    1SOL    MW4 8544   3.630   2.702   3.438 -0.1388 -0.1922 -0.4666
    1SOL     OW 8545   3.833   2.859   3.508  0.1919 -0.2151 -0.1398
    1SOL    HW2 8546   3.833   2.866   3.604 -0.6839  0.1219 -0.1573
    1SOL    HW3 8547   3.849   2.948   3.477  1.0735 -0.4255 -0.3118
    1SOL    MW4 8548   3.835   2.871   3.517  0.1926 -0.1986 -0.1647
    1SOL     OW 8549   3.835   3.118   3.419  0.2177 -0.6522  0.3810
    1SOL    HW2 8550   3.902   3.170   3.462 -0.3862  0.1032  0.4092
    1SOL    HW3 8551   3.854   3.126   3.326 -0.5351  0.5271  0.3239
    1SOL    MW4 8552   3.846   3.126   3.412  0.0386 -0.3970  0.3769
    1SOL     OW 8553   3.595   3.213   3.510  0.3719 -0.2414  0.0878
    1SOL    HW2 8554   3.598   3.302   3.476 -0.0169 -0.7641 -1.3489
    1SOL    HW3 8555   3.680   3.175   3.485  0.0050 -0.6914 -0.4721
    1SOL    MW4 8556   3.607   3.220   3.502  0.2723 -0.3698 -0.1757
    1SOL     OW 8557   3.617   3.479   3.412  0.3391  0.3914  0.1400
    1SOL    HW2 8558   3.546   3.526   3.455  1.0304  1.1736  0.4322
    1SOL    HW3 8559   3.589   3.471   3.321  0.7542  2.4502 -0.1959
    1SOL    MW4 8560   3.604   3.484   3.406  0.4847  0.7660  0.1340
    1SOL     OW 8561   3.829   3.614   3.512 -0.3071 -0.0598  0.2823
    1SOL    HW2 8562   3.823   3.612   3.608  0.2953 -2.0654  0.3004
    1SOL    HW3 8563   3.758   3.557   3.483  1.5531 -2.0876 -0.3486
    1SOL    MW4 8564   3.819   3.606   3.521  0.0176 -0.5920  0.2015
    1SOL     OW 8565   3.821   3.865   3.391 -0.4663  0.5011  0.0356
    1SOL    HW2 8566   3.744   3.909   3.426 -0.2729  0.3440  0.6714
    1SOL    HW3 8567   3.822   3.780   3.435 -0.9714 -0.2429 -1.3662
    1SOL    MW4 8568   3.811   3.859   3.402 -0.5076  0.3822 -0.0656
    1SOL     OW 8569   3.580   3.997   3.492 -0.1495 -0.3111 -0.7352
    1SOL    HW2 8570   3.558   3.999   3.585  1.4841 -0.3900 -0.3415
    1SOL    HW3 8571   3.569   4.088   3.464 -0.1330 -0.1896 -0.3531
    1SOL    MW4 8572   3.576   4.010   3.500  0.0684 -0.3052 -0.6330
    1SOL     OW 8573   3.553   4.263   3.401 -0.2434 -0.0375 -0.2295
    1SOL    HW2 8574   3.496   4.334   3.430 -0.4211  0.0627 -0.8254
    1SOL    HW3 8575   3.547   4.264   3.305  3.0935  1.9484 -0.5029
    1SOL    MW4 8576   3.545   4.273   3.392  0.1736  0.2379 -0.3440
    1SOL     OW 8577   3.794   4.351   3.481  0.4193  0.5026  0.1726
    1SOL    HW2 8578   3.708   4.321   3.453  0.4076  0.1170  0.6354
    1SOL    HW3 8579   3.793   4.446   3.464  0.1496  0.3905 -0.4531
    1SOL    MW4 8580   3.783   4.360   3.475  0.3819  0.4368  0.1509
    1SOL     OW 8581   4.249   4.645   3.361  0.2854 -0.3105 -0.2608
    1SOL    HW2 8582   4.274   4.555   3.382  0.4144 -0.3698 -0.6596
    1SOL    HW3 8583   4.321   4.698   3.396 -0.3108 -0.2789  0.9299
    1SOL    MW4 8584   4.262   4.640   3.368  0.2236 -0.3138 -0.1564
    1SOL     OW 8585   4.041   0.109   3.494 -0.1368  0.5158 -0.3469
    1SOL    HW2 8586   4.119   0.078   3.449  0.0903  0.2129  0.2550
    1SOL    HW3 8587   3.972   0.048   3.466  0.3193 -0.5680  0.8639
    1SOL    MW4 8588   4.042   0.097   3.485 -0.0467  0.3328 -0.1078
    1SOL     OW 8589   3.991   0.367   3.418 -0.1259  0.5444  0.1761
    1SOL    HW2 8590   3.993   0.277   3.449 -0.3630  0.7316  0.7500
    1SOL    HW3 8591   4.010   0.361   3.325  1.4565  0.0430  0.5113
    1SOL    MW4 8592   3.993   0.354   3.410  0.0517  0.5029  0.2959
    1SOL     OW 8593   4.249   0.440   3.506 -0.0942  0.0403 -0.1025
    1SOL    HW2 8594   4.255   0.528   3.469 -0.3722  0.2746  0.4020
    1SOL    HW3 8595   4.156   0.417   3.499  0.2686 -0.9666 -1.9510
    1SOL    MW4 8596   4.237   0.448   3.500 -0.0834 -0.0616 -0.2797
    1SOL     OW 8597   4.279   0.685   3.389  0.1087 -0.3204 -0.0419
    1SOL    HW2 8598   4.351   0.716   3.443 -0.1056 -0.0202  0.0776
    1SOL    HW3 8599   4.305   0.704   3.300  0.4058 -0.6941 -0.0383
    1SOL    MW4 8600   4.292   0.691   3.385  0.1202 -0.3301 -0.0255
    1SOL     OW 8601   4.027   0.871   3.443  0.3955  0.2373  0.3285
    1SOL    HW2 8602   4.031   0.963   3.417  0.0436 -0.3259 -1.8088
    1SOL    HW3 8603   4.116   0.838   3.430  0.5279  0.2563  1.1127
    1SOL    MW4 8604   4.040   0.879   3.438  0.3672  0.1654  0.1500
    1SOL     OW 8605   4.043   1.135   3.382 -0.0789 -0.2244  0.0387
    1SOL    HW2 8606   4.134   1.159   3.396  0.0770 -0.1899 -1.0122
    1SOL    HW3 8607   3.994   1.191   3.442  0.6381 -0.8261  1.2209
    1SOL    MW4 8608   4.048   1.145   3.392  0.0362 -0.2992  0.0563
    1SOL     OW 8609   4.287   1.216   3.456  0.4883 -0.1149 -0.1083
    1SOL    HW2 8610   4.302   1.308   3.433  0.6855 -0.3031 -0.7372
    1SOL    HW3 8611   4.374   1.176   3.451  0.2606 -0.5371 -0.7417
    1SOL    MW4 8612   4.301   1.223   3.453  0.4845 -0.1954 -0.2749
    1SOL     OW 8613   4.285   1.502   3.350 -0.0552  0.1035 -0.0482
    1SOL    HW2 8614   4.204   1.532   3.391  0.1739  1.1061 -0.3138
    1SOL    HW3 8615   4.271   1.516   3.256  0.2419 -0.1567 -0.1307
    1SOL    MW4 8616   4.273   1.508   3.343  0.0143  0.2013 -0.0942
    1SOL     OW 8617   4.066   1.664   3.430 -0.0866 -0.1627 -0.2956
    1SOL    HW2 8618   4.053   1.653   3.524 -0.2979  0.0639 -0.2982
    1SOL    HW3 8619   4.051   1.758   3.415 -0.1168 -0.2115 -0.5649
    1SOL    MW4 8620   4.063   1.675   3.441 -0.1192 -0.1392 -0.3314
    1SOL     OW 8621   4.039   1.939   3.385  0.0439 -0.0453 -0.5031
    1SOL    HW2 8622   4.122   1.983   3.402 -0.5032  1.1910 -0.9500
    1SOL    HW3 8623   4.037   1.928   3.290 -1.1701  1.6814 -0.6794
    1SOL    MW4 8624   4.050   1.943   3.375 -0.1884  0.3456 -0.5851
    1SOL     OW 8625   4.293   2.060   3.434 -0.3841  0.1041 -0.2784
    1SOL    HW2 8626   4.292   2.153   3.409  0.0350  0.0750 -0.3946
    1SOL    HW3 8627   4.377   2.027   3.403 -1.1558 -0.6857 -1.6016
    1SOL    MW4 8628   4.304   2.068   3.427 -0.4301 -0.0041 -0.4685
    1SOL     OW 8629   4.304   2.336   3.420  0.1266 -0.4961  0.0478
    1SOL    HW2 8630   4.218   2.366   3.449  0.4544  0.0643  0.4560
    1SOL    HW3 8631   4.300   2.338   3.325  0.1814  0.9799  0.0691
    1SOL    MW4 8632   4.292   2.340   3.412  0.1769 -0.2272  0.1042
    1SOL     OW 8633   4.044   2.421   3.503  0.1630 -0.3583 -0.3563
    1SOL    HW2 8634   4.047   2.420   3.598 -0.7559  0.2482 -0.3115
    1SOL    HW3 8635   4.056   2.514   3.480 -2.1728 -0.1173 -0.7172
    1SOL    MW4 8636   4.046   2.433   3.512 -0.2666 -0.2463 -0.3979
    1SOL     OW 8637   4.039   2.688   3.433 -0.0760  0.1730 -0.0481
    1SOL    HW2 8638   4.120   2.736   3.452  0.0269 -0.5893  1.4890
    1SOL    HW3 8639   3.970   2.744   3.469  0.1045 -1.1796  2.4920
    1SOL    MW4 8640   4.041   2.702   3.440 -0.0391 -0.1061  0.4897
    1SOL     OW 8641   4.258   2.837   3.515 -0.2853 -0.4866 -0.0058
    1SOL    HW2 8642   4.238   2.831   3.608 -1.2427 -1.3259 -0.2560
    1SOL    HW3 8643   4.347   2.803   3.507 -0.8541 -2.0733  0.3623
    1SOL    MW4 8644   4.267   2.832   3.526 -0.4869 -0.8063  0.0095
    1SOL     OW 8645   4.258   3.108   3.430  0.0534 -0.2960  0.2889
    1SOL    HW2 8646   4.256   3.014   3.453  0.6189 -0.4182 -0.1545
    1SOL    HW3 8647   4.258   3.109   3.335  1.2784  0.1181  0.2822
    1SOL    MW4 8648   4.258   3.095   3.421  0.2894 -0.2573  0.2294
    1SOL     OW 8649   4.054   3.254   3.534 -0.2697 -0.5836  0.1034
    1SOL    HW2 8650   4.053   3.343   3.499 -1.8757 -0.8910 -0.7057
    1SOL    HW3 8651   4.133   3.215   3.496  0.4958  0.5076  0.5323
    1SOL    MW4 8652   4.064   3.261   3.524 -0.3810 -0.4804  0.0529
    1SOL     OW 8653   4.055   3.511   3.419  0.1598  0.0723 -0.9746
    1SOL    HW2 8654   4.129   3.557   3.458  0.5538 -0.8714 -0.5996
    1SOL    HW3 8655   3.978   3.552   3.460  0.5865 -1.5732  1.6077
    1SOL    MW4 8656   4.054   3.523   3.430  0.2680 -0.2694 -0.5846
    1SOL     OW 8657   4.282   3.626   3.508 -0.7004 -0.0150 -0.3949
    1SOL    HW2 8658   4.302   3.627   3.602  1.7168 -0.4395 -0.8676
    1SOL    HW3 8659   4.286   3.717   3.481  0.5779 -0.0819 -0.4585
    1SOL    MW4 8660   4.285   3.638   3.517 -0.2131 -0.0799 -0.4659
    1SOL     OW 8661   4.273   3.883   3.416  0.0056  0.2493 -0.5103
    1SOL    HW2 8662   4.361   3.911   3.442  1.0519 -2.7207 -0.6464
    1SOL    HW3 8663   4.272   3.892   3.321  0.3527 -0.1308 -0.5554
    1SOL    MW4 8664   4.285   3.888   3.407  0.1898 -0.1926 -0.5343
    1SOL     OW 8665   4.047   3.979   3.516 -0.3584 -0.4135  0.4016
    1SOL    HW2 8666   4.119   3.943   3.464  0.2582 -1.3518  1.8460
    1SOL    HW3 8667   3.968   3.950   3.472  0.1499 -2.4141  0.7501
    1SOL    MW4 8668   4.046   3.970   3.504 -0.2103 -0.8011  0.6380
    1SOL     OW 8669   4.021   4.222   3.389  0.4186 -0.3787  0.2611
    1SOL    HW2 8670   4.020   4.146   3.447 -0.9218 -0.5730  0.0126
    1SOL    HW3 8671   3.947   4.275   3.417  0.5399  0.1705 -0.4325
    1SOL    MW4 8672   4.011   4.219   3.400  0.2580 -0.3324  0.1369
    1SOL     OW 8673   4.261   4.374   3.469 -0.0148  0.1417 -0.3213
    1SOL    HW2 8674   4.259   4.412   3.557 -0.4546 -0.9692  0.1704
    1SOL    HW3 8675   4.178   4.327   3.463 -0.7453  1.6161 -1.9788
    1SOL    MW4 8676   4.250   4.373   3.480 -0.1688  0.1898 -0.4752
    1SOL     OW 8677   0.230   4.646   3.826 -0.4834 -0.3807 -0.0628
    1SOL    HW2 8678   0.228   4.638   3.922  1.2084  0.7280  0.0888
    1SOL    HW3 8679   0.143   4.679   3.803 -0.8709 -0.5552  1.1027
    1SOL    MW4 8680   0.218   4.650   3.836 -0.3113 -0.2570  0.1109
    1SOL     OW 8681   4.473   0.105   3.759 -0.2822  0.1418  0.0253
    1SOL    HW2 8682   4.494   0.194   3.788  1.1832 -0.0082 -0.5514
    1SOL    HW3 8683   4.466   0.112   3.664 -0.8635 -0.2180  0.0435
    1SOL    MW4 8684   4.475   0.118   3.750 -0.1656  0.0746 -0.0484
    1SOL     OW 8685   0.020   0.366   3.836 -0.6984 -0.3932 -0.0403
    1SOL    HW2 8686  -0.064   0.406   3.813 -1.0678  0.4939  2.6642
    1SOL    HW3 8687   0.086   0.424   3.798 -1.3027 -0.2450 -0.8616
    1SOL    MW4 8688   0.018   0.379   3.828 -0.8269 -0.2567  0.2081
    1SOL     OW 8689   0.259   0.507   3.781 -0.4057  0.3937 -0.0373
    1SOL    HW2 8690   0.257   0.586   3.834 -0.1538  0.4739 -0.1454
    1SOL    HW3 8691   0.249   0.538   3.691  0.5126  0.3689 -0.1449
    1SOL    MW4 8692   0.257   0.522   3.776 -0.2513  0.4010 -0.0660
    1SOL     OW 8693   0.233   0.748   3.927 -0.0410  0.2320 -0.3827
    1SOL    HW2 8694   0.245   0.784   4.015 -1.0087  0.1286 -0.2031
    1SOL    HW3 8695   0.149   0.783   3.898  0.0243 -0.1649 -1.0582
    1SOL    MW4 8696   0.223   0.757   3.934 -0.1600  0.1661 -0.4480
    1SOL     OW 8697   4.485   0.829   3.804 -0.0819 -0.5612 -0.2295
    1SOL    HW2 8698   4.398   0.790   3.810  0.4533 -1.4547  2.8199
    1SOL    HW3 8699   4.472   0.922   3.824 -0.3666 -0.6795  0.1370
    1SOL    MW4 8700   4.472   0.836   3.808 -0.0491 -0.6947  0.2213
    1SOL     OW 8701   4.458   1.105   3.865  0.0842 -0.2597 -0.1080
    1SOL    HW2 8702   4.381   1.138   3.818 -0.0368  0.6115  0.6859
    1SOL    HW3 8703   4.527   1.167   3.845  0.6287 -1.1201 -0.9304
    1SOL    MW4 8704   4.457   1.117   3.856  0.1401 -0.2583 -0.1116
    1SOL     OW 8705   0.198   1.250   3.807  0.0332  0.1570  0.0900
    1SOL    HW2 8706   0.187   1.338   3.843  0.9194  0.5154 -0.5139
    1SOL    HW3 8707   0.216   1.263   3.714 -0.9717 -0.7150 -0.2379
    1SOL    MW4 8708   0.199   1.263   3.799  0.0176  0.0893 -0.0329
    1SOL     OW 8709   0.254   1.538   3.863  0.0682  0.2214  0.2869
    1SOL    HW2 8710   0.240   1.538   3.957  0.1056 -0.2793  0.2919
    1SOL    HW3 8711   0.182   1.591   3.828 -0.6093 -0.5608  0.4947
    1SOL    MW4 8712   0.243   1.545   3.871 -0.0163  0.0522  0.3150
    1SOL     OW 8713   0.025   1.689   3.776 -0.4667 -0.4013 -0.0355
    1SOL    HW2 8714   0.021   1.782   3.796 -1.5294 -0.5261  0.3798
    1SOL    HW3 8715   0.019   1.685   3.680 -1.2590 -0.0702 -0.0082
    1SOL    MW4 8716   0.023   1.700   3.766 -0.7114 -0.3742  0.0229
    1SOL     OW 8717   0.037   1.951   3.874  0.0173 -0.0040  0.3024
    1SOL    HW2 8718   0.020   1.959   3.968  0.5447 -0.3182  0.4256
    1SOL    HW3 8719  -0.042   1.984   3.833 -0.8559 -1.3703  0.8555
    1SOL    MW4 8720   0.025   1.957   3.881 -0.0283 -0.2257  0.3920
    1SOL     OW 8721   0.281   2.056   3.768 -0.6165  0.0891 -0.0899
    1SOL    HW2 8722   0.298   2.143   3.805  1.4806 -0.2986 -0.0949
    1SOL    HW3 8723   0.209   2.021   3.821 -0.7882  1.4055  0.5691
    1SOL    MW4 8724   0.274   2.063   3.780 -0.3625  0.2117 -0.0038
    1SOL     OW 8725   0.279   2.314   3.890  0.2178 -0.3575  0.2691
    1SOL    HW2 8726   0.271   2.334   3.983  0.9884  0.4925  0.1613
    1SOL    HW3 8727   0.199   2.349   3.851  0.3748  0.2320  0.4648
    1SOL    MW4 8728   0.267   2.321   3.897  0.3402 -0.1678  0.2806
    1SOL     OW 8729   0.053   2.430   3.797  0.0528 -0.3052 -0.1934
    1SOL    HW2 8730  -0.034   2.391   3.805  0.5723 -1.5136 -0.4099
    1SOL    HW3 8731   0.046   2.513   3.844 -1.5732  0.1905 -1.2564
    1SOL    MW4 8732   0.041   2.436   3.804 -0.0931 -0.3994 -0.3622
    1SOL     OW 8733   4.489   2.695   3.888 -0.0017 -0.3712 -0.0588
    1SOL    HW2 8734   4.478   2.711   3.982  1.7366  1.0376 -0.0631
    1SOL    HW3 8735   4.570   2.742   3.865 -1.8500  1.6112 -2.8070
    1SOL    MW4 8736   4.499   2.703   3.898 -0.0162  0.0763 -0.4218
    1SOL     OW 8737   0.230   2.826   3.816  0.2928  0.2823  0.1309
    1SOL    HW2 8738   0.310   2.793   3.856  0.0643 -0.7687 -0.2629
    1SOL    HW3 8739   0.252   2.839   3.724  0.0876  0.2442  0.0746
    1SOL    MW4 8740   0.243   2.823   3.809  0.2356  0.1385  0.0715
    1SOL     OW 8741   0.252   3.107   3.866  0.0482  0.1625 -0.0980
    1SOL    HW2 8742   0.226   3.109   3.958  2.0596 -0.6498  0.5322
    1SOL    HW3 8743   0.238   3.017   3.838 -0.9124  0.4920 -0.7120
    1SOL    MW4 8744   0.247   3.096   3.874  0.1868  0.0989 -0.0961
    1SOL     OW 8745   0.026   3.242   3.768 -0.2755 -0.0364 -0.3780
    1SOL    HW2 8746   0.105   3.194   3.794 -0.0307  0.6814  0.2194
    1SOL    HW3 8747   0.020   3.229   3.674  2.0170  2.0356 -0.8528
    1SOL    MW4 8748   0.035   3.234   3.759  0.0593  0.3316 -0.3614
    1SOL     OW 8749   0.015   3.500   3.891 -0.7797 -0.1103 -0.0227
    1SOL    HW2 8750   0.082   3.548   3.842 -0.4067 -0.1477  0.4633
    1SOL    HW3 8751   0.013   3.414   3.850 -1.4455  0.3040 -0.8976
    1SOL    MW4 8752   0.023   3.495   3.879 -0.8183 -0.0608 -0.0741
    1SOL     OW 8753   0.226   3.628   3.777 -0.0627  0.7252 -0.0517
    1SOL    HW2 8754   0.293   3.587   3.831 -0.5492  0.6901  0.5348
    1SOL    HW3 8755   0.221   3.718   3.809  0.0997  0.8811 -0.4683
    1SOL    MW4 8756   0.234   3.634   3.789 -0.1054  0.7410 -0.0296
    1SOL     OW 8757   0.211   3.882   3.848  0.0184 -0.2746 -0.1383
    1SOL    HW2 8758   0.202   3.888   3.943  1.9748 -1.4643  0.1625
    1SOL    HW3 8759   0.295   3.924   3.829 -0.8591  0.9018 -1.4654
    1SOL    MW4 8760   0.221   3.888   3.858  0.1608 -0.2763 -0.2735
    1SOL     OW 8761   4.469   4.005   3.770 -0.1562 -0.4676 -0.3679
    1SOL    HW2 8762   4.390   3.970   3.811 -0.1155 -1.9298 -1.5298
    1SOL    HW3 8763   4.540   3.949   3.801 -0.0175 -1.1026 -1.8214
    1SOL    MW4 8764   4.468   3.993   3.780 -0.1326 -0.7441 -0.7131
    1SOL     OW 8765   0.006   4.298   3.856 -0.4050 -0.2784 -0.5412
    1SOL    HW2 8766   0.094   4.313   3.822  0.7510 -0.6115  2.1268
    1SOL    HW3 8767  -0.018   4.211   3.823  0.2323 -0.1398 -1.3751
    1SOL    MW4 8768   0.015   4.288   3.847 -0.1678 -0.3047 -0.2990
    1SOL     OW 8769   0.252   4.384   3.746  0.1741  0.4374 -0.0466
    1SOL    HW2 8770   0.325   4.361   3.804  0.9914  0.3160 -1.0943
    1SOL    HW3 8771   0.235   4.476   3.766  0.3043  0.3338  0.5460
    1SOL    MW4 8772   0.260   4.393   3.756  0.2991  0.4077 -0.1066
    1SOL     OW 8773   0.676   4.664   3.866 -0.1698 -0.3983 -0.0282
    1SOL    HW2 8774   0.669   4.574   3.837 -0.1344 -0.0106 -1.2570
    1SOL    HW3 8775   0.595   4.705   3.836 -0.0755  0.0393  0.3111
    1SOL    MW4 8776   0.664   4.658   3.858 -0.1527 -0.2890 -0.1454
    1SOL     OW 8777   0.458   0.123   3.766  0.2000 -0.2613 -0.6575
    1SOL    HW2 8778   0.469   0.209   3.807 -2.2705 -0.2820  0.1286
    1SOL    HW3 8779   0.369   0.096   3.790  0.2409 -2.1816 -2.5264
    1SOL    MW4 8780   0.448   0.131   3.775 -0.1206 -0.5174 -0.8001
    1SOL     OW 8781   0.475   0.364   3.882 -0.6011  0.6743  0.4301
    1SOL    HW2 8782   0.559   0.406   3.865 -0.7841  0.6996 -0.4484
    1SOL    HW3 8783   0.412   0.416   3.833 -0.7826 -0.7887 -0.9382
    1SOL    MW4 8784   0.478   0.376   3.873 -0.6492  0.4846  0.1335
    1SOL     OW 8785   0.700   0.514   3.819 -0.2560 -0.8313 -0.0863
    1SOL    HW2 8786   0.777   0.479   3.864  0.3819 -0.0807 -0.5829
    1SOL    HW3 8787   0.693   0.604   3.850 -1.6416 -1.2511  0.8642
    1SOL    MW4 8788   0.709   0.521   3.829 -0.3546 -0.7876 -0.0265
    1SOL     OW 8789   0.649   0.775   3.926  0.0135  0.2070 -0.4931
    1SOL    HW2 8790   0.724   0.828   3.900  0.7890 -1.0082 -0.7883
    1SOL    HW3 8791   0.579   0.803   3.868 -0.0083  1.9312  0.3330
    1SOL    MW4 8792   0.650   0.786   3.915  0.1130  0.2742 -0.4232
    1SOL     OW 8793   0.415   0.867   3.758 -0.2302  0.1910 -0.3039
    1SOL    HW2 8794   0.424   0.949   3.806  2.2088 -0.3849  0.3324
    1SOL    HW3 8795   0.356   0.814   3.812  0.7334  0.3705  0.9632
    1SOL    MW4 8796   0.409   0.871   3.772  0.2187  0.1387 -0.0529
    1SOL     OW 8797   0.430   1.128   3.894 -0.2800  0.5238  0.3775
    1SOL    HW2 8798   0.494   1.183   3.849 -0.0844 -0.6452 -0.8147
    1SOL    HW3 8799   0.346   1.171   3.880 -0.0277  0.9312  0.1256
    1SOL    MW4 8800   0.428   1.141   3.886 -0.2209  0.4234  0.1869
    1SOL     OW 8801   0.642   1.271   3.754  0.3572  0.3776 -0.3818
    1SOL    HW2 8802   0.710   1.229   3.805  0.2413 -0.0075 -0.5389
    1SOL    HW3 8803   0.667   1.256   3.663 -0.3477 -0.4673 -0.4495
    1SOL    MW4 8804   0.654   1.263   3.749  0.2488  0.2154 -0.4115
    1SOL     OW 8805   0.666   1.512   3.912  0.3157  0.1106 -0.2655
    1SOL    HW2 8806   0.737   1.568   3.879 -1.4891  0.9754 -2.9200
    1SOL    HW3 8807   0.657   1.444   3.845 -1.2377 -0.0490  0.0953
    1SOL    MW4 8808   0.674   1.511   3.899 -0.1274  0.2037 -0.5682
    1SOL     OW 8809   0.478   1.672   3.773 -0.2121 -0.1847 -0.0082
    1SOL    HW2 8810   0.546   1.618   3.813 -0.0995 -1.4243 -1.8565
    1SOL    HW3 8811   0.396   1.627   3.795 -0.0537 -1.7557 -2.4459
    1SOL    MW4 8812   0.476   1.659   3.782 -0.1763 -0.5555 -0.5739
    1SOL     OW 8813   0.479   1.926   3.893 -0.0943 -0.4250  0.0900
    1SOL    HW2 8814   0.472   1.835   3.863  0.8572 -1.1089  1.9193
    1SOL    HW3 8815   0.412   1.972   3.843 -0.2349 -2.0192 -1.2512
    1SOL    MW4 8816   0.469   1.920   3.882  0.0127 -0.7256  0.1545
    1SOL     OW 8817   0.678   2.068   3.752 -0.3886 -0.1848  0.2975
    1SOL    HW2 8818   0.693   2.157   3.784 -0.7132 -0.0361  0.0419
    1SOL    HW3 8819   0.598   2.040   3.798 -1.2117  0.2579 -0.8381
    1SOL    MW4 8820   0.669   2.076   3.763 -0.5401 -0.1070  0.1142
    1SOL     OW 8821   0.692   2.310   3.873 -0.3158  0.1791  0.0028
    1SOL    HW2 8822   0.770   2.341   3.828 -0.1655 -1.6013 -0.9882
    1SOL    HW3 8823   0.620   2.359   3.833  0.0650  0.2955 -0.5423
    1SOL    MW4 8824   0.693   2.321   3.862 -0.2457 -0.0403 -0.1998
    1SOL     OW 8825   0.498   2.453   3.754  0.6378 -0.1646  0.2737
    1SOL    HW2 8826   0.437   2.398   3.803  1.5760 -0.3542  1.2520
    1SOL    HW3 8827   0.475   2.440   3.662  0.4422 -1.7034  0.5352
    1SOL    MW4 8828   0.487   2.444   3.749  0.7358 -0.3929  0.4373
    1SOL     OW 8829   0.479   2.717   3.889 -0.1546 -0.1158 -0.1030
    1SOL    HW2 8830   0.542   2.764   3.834 -0.2822 -0.1231 -0.2551
    1SOL    HW3 8831   0.489   2.626   3.863  0.6143 -0.2711  0.7059
    1SOL    MW4 8832   0.489   2.711   3.879 -0.0700 -0.1373 -0.0162
    1SOL     OW 8833   0.670   2.877   3.753 -0.0316 -0.2965 -0.2664
    1SOL    HW2 8834   0.745   2.822   3.773 -0.6874 -1.2107 -0.2776
    1SOL    HW3 8835   0.688   2.911   3.665  0.1018 -0.9655 -0.5005
    1SOL    MW4 8836   0.682   2.874   3.744 -0.1004 -0.5052 -0.2985
    1SOL     OW 8837   0.702   3.131   3.864  0.1893 -0.3364  0.5347
    1SOL    HW2 8838   0.686   3.114   3.957 -0.8906  0.6427  0.5379
    1SOL    HW3 8839   0.694   3.045   3.822 -0.6658 -0.5689  1.1670
    1SOL    MW4 8840   0.699   3.118   3.871 -0.0660 -0.2379  0.6182
    1SOL     OW 8841   0.475   3.271   3.786  0.1294  0.0936  0.2320
    1SOL    HW2 8842   0.542   3.215   3.825  0.3777 -0.3345 -0.7866
    1SOL    HW3 8843   0.392   3.227   3.805 -0.0062  1.2971  2.6389
    1SOL    MW4 8844   0.473   3.258   3.793  0.1443  0.1957  0.4153
    1SOL     OW 8845   0.431   3.527   3.921 -0.1206  0.0510 -0.0792
    1SOL    HW2 8846   0.512   3.562   3.884 -0.2801  0.6893  0.1729
    1SOL    HW3 8847   0.431   3.434   3.896  0.4247  0.1730 -0.5327
    1SOL    MW4 8848   0.441   3.519   3.913 -0.0697  0.1512 -0.1059
    1SOL     OW 8849   0.679   3.639   3.810  0.4471  0.2278 -0.1301
    1SOL    HW2 8850   0.662   3.732   3.821 -1.5813 -0.1030 -0.2840
    1SOL    HW3 8851   0.693   3.628   3.716  1.6466  0.5278  0.0140
    1SOL    MW4 8852   0.679   3.650   3.799  0.3377  0.2239 -0.1314
    1SOL     OW 8853   0.674   3.902   3.882  0.4190 -0.0604 -0.0734
    1SOL    HW2 8854   0.681   3.916   3.976  1.6792 -1.0302 -0.0035
    1SOL    HW3 8855   0.747   3.950   3.844  0.3559 -0.2833 -0.4865
    1SOL    MW4 8856   0.684   3.910   3.889  0.5770 -0.2179 -0.1187
    1SOL     OW 8857   0.450   4.031   3.794  0.3769 -0.0637 -0.0326
    1SOL    HW2 8858   0.516   3.974   3.834 -0.3714  1.1727  3.1671
    1SOL    HW3 8859   0.481   4.045   3.705  1.8048 -3.5226 -0.1655
    1SOL    MW4 8860   0.463   4.025   3.788  0.4666 -0.3572  0.3719
    1SOL     OW 8861   0.435   4.288   3.911  0.1665 -0.3126  0.5757
    1SOL    HW2 8862   0.517   4.323   3.877  0.2540  1.3248  2.3721
    1SOL    HW3 8863   0.440   4.194   3.894  1.8957 -0.0706 -0.3559
    1SOL    MW4 8864   0.447   4.280   3.904  0.4062 -0.0648  0.6900
    1SOL     OW 8865   0.671   4.379   3.782  0.4982  0.5284  0.2414
    1SOL    HW2 8866   0.741   4.324   3.817  1.0133  0.2911 -1.1135
    1SOL    HW3 8867   0.677   4.367   3.687 -2.1881 -0.4994  0.1638
    1SOL    MW4 8868   0.681   4.370   3.774  0.2117  0.3619  0.0525
    1SOL     OW 8869   1.093   4.661   3.823 -0.6764 -0.1097  0.1839
    1SOL    HW2 8870   1.176   4.698   3.794 -0.0504 -0.3353  1.6422
    1SOL    HW3 8871   1.105   4.566   3.817 -0.7544 -0.1456  0.5734
    1SOL    MW4 8872   1.105   4.654   3.818 -0.6042 -0.1445  0.4277
    1SOL     OW 8873   0.888   0.147   3.764 -0.6825  0.3235  0.8217
    1SOL    HW2 8874   0.961   0.090   3.786 -0.7085  0.1315  0.4230
    1SOL    HW3 8875   0.812   0.107   3.806 -0.9159 -0.6081 -0.4367
    1SOL    MW4 8876   0.887   0.134   3.772 -0.7167  0.1753  0.6027
    1SOL     OW 8877   0.933   0.390   3.914  0.2957 -0.1989  0.3768
    1SOL    HW2 8878   0.928   0.364   4.006  0.3008 -1.2935  0.0772
    1SOL    HW3 8879   0.914   0.310   3.865  0.8130  0.2463 -0.5807
    1SOL    MW4 8880   0.930   0.376   3.919  0.3647 -0.2846  0.2110
    1SOL     OW 8881   1.119   0.532   3.742 -0.1160 -0.2270 -0.0429
    1SOL    HW2 8882   1.202   0.500   3.776  1.5191  3.3622 -0.4456
    1SOL    HW3 8883   1.052   0.480   3.787  2.2754 -2.7670  0.7105
    1SOL    MW4 8884   1.121   0.521   3.752  0.4152 -0.0887  0.0033
    1SOL     OW 8885   1.101   0.792   3.902  0.5059  0.8112  0.0739
    1SOL    HW2 8886   1.111   0.788   3.997 -0.9157  3.0622  0.3568
    1SOL    HW3 8887   1.087   0.701   3.876 -0.2318  0.2821  2.1654
    1SOL    MW4 8888   1.100   0.780   3.911  0.2210  1.0384  0.3874
    1SOL     OW 8889   0.858   0.898   3.818 -0.6615  0.4419 -0.6732
    1SOL    HW2 8890   0.944   0.868   3.848 -0.7191  1.8125  0.8987
    1SOL    HW3 8891   0.859   0.882   3.723  0.9901 -0.3558 -0.5360
    1SOL    MW4 8892   0.870   0.892   3.809 -0.4511  0.5174 -0.4475
    1SOL     OW 8893   0.850   1.172   3.914 -0.0256 -0.1127  0.0033
    1SOL    HW2 8894   0.859   1.159   4.009  0.0624 -0.1996 -0.0167
    1SOL    HW3 8895   0.848   1.084   3.878 -0.4934 -0.0845 -0.0358
    1SOL    MW4 8896   0.851   1.159   3.922 -0.0758 -0.1205 -0.0045
    1SOL     OW 8897   1.082   1.268   3.811  0.2305 -0.0203 -0.0820
    1SOL    HW2 8898   1.095   1.362   3.823  0.7637 -0.2398  1.0845
    1SOL    HW3 8899   0.995   1.250   3.844  0.3850 -0.0500  0.3061
    1SOL    MW4 8900   1.072   1.278   3.817  0.3213 -0.0530  0.1230
    1SOL     OW 8901   1.124   1.552   3.850 -0.3716  0.3402  0.0803
    1SOL    HW2 8902   1.137   1.575   3.942  1.2064 -0.7005  0.1327
    1SOL    HW3 8903   1.176   1.616   3.801  1.9787 -1.4674  0.1180
    1SOL    MW4 8904   1.133   1.563   3.856  0.1466 -0.0355  0.0923
    1SOL     OW 8905   0.871   1.660   3.791  0.3099  0.6509  0.1481
    1SOL    HW2 8906   0.948   1.615   3.826 -0.3694  0.0117  0.8556
    1SOL    HW3 8907   0.882   1.657   3.696  1.7685  1.6731  0.2618
    1SOL    MW4 8908   0.883   1.654   3.784  0.4128  0.7014  0.2563
    1SOL     OW 8909   0.863   1.924   3.896 -0.4996 -0.1268 -0.1346
    1SOL    HW2 8910   0.877   1.834   3.866 -0.4619  0.0615 -0.6819
    1SOL    HW3 8911   0.787   1.955   3.846 -0.2055  0.3136 -0.3171
    1SOL    MW4 8912   0.855   1.916   3.885 -0.4559 -0.0439 -0.2308
    1SOL     OW 8913   1.052   2.093   3.786 -0.8084  0.1962  0.5264
    1SOL    HW2 8914   0.992   2.026   3.820 -1.7777  0.6400 -0.3149
    1SOL    HW3 8915   1.049   2.082   3.691 -0.8110  1.2892  0.3931
    1SOL    MW4 8916   1.044   2.083   3.778 -0.9365  0.3991  0.3979
    1SOL     OW 8917   1.141   2.340   3.864  0.8735 -0.0978 -0.0492
    1SOL    HW2 8918   1.155   2.340   3.959  0.3880 -0.1580  0.0229
    1SOL    HW3 8919   1.128   2.247   3.842 -1.8663  0.1786  0.2553
    1SOL    MW4 8920   1.141   2.327   3.874  0.4481 -0.0694  0.0005
    1SOL     OW 8921   0.885   2.424   3.725 -0.5277  0.3749 -0.1694
    1SOL    HW2 8922   0.858   2.501   3.774  0.3668  1.6081 -1.5724
    1SOL    HW3 8923   0.977   2.411   3.750  0.8075  2.6827 -3.5240
    1SOL    MW4 8924   0.894   2.432   3.735 -0.2335  0.8419 -0.7970
    1SOL     OW 8925   0.844   2.674   3.879 -0.7790  0.1300  0.4462
    1SOL    HW2 8926   0.832   2.675   3.974 -0.2544  0.0319  0.5148
    1SOL    HW3 8927   0.931   2.711   3.866 -0.7094 -0.1860  0.0259
    1SOL    MW4 8928   0.854   2.679   3.890 -0.7007  0.0756  0.3996
    1SOL     OW 8929   1.044   2.835   3.794 -0.9685  0.1509 -0.1556
    1SOL    HW2 8930   1.133   2.801   3.796 -1.3419 -0.8212 -0.1821
    1SOL    HW3 8931   1.053   2.926   3.822  0.0604  0.1181 -0.3692
    1SOL    MW4 8932   1.057   2.843   3.798 -0.8820  0.0184 -0.1872
    1SOL     OW 8933   1.091   3.089   3.890 -0.2297  0.7268 -0.0892
    1SOL    HW2 8934   1.177   3.118   3.859 -0.5936  1.4791 -0.3989
    1SOL    HW3 8935   1.030   3.156   3.860 -0.9554  0.1099 -0.0194
    1SOL    MW4 8936   1.094   3.102   3.882 -0.3735  0.7448 -0.1211
    1SOL     OW 8937   0.922   3.262   3.753  0.1245 -0.3103 -0.0248
    1SOL    HW2 8938   0.835   3.242   3.788  0.1123 -0.1090  0.0617
    1SOL    HW3 8939   0.915   3.246   3.659 -0.4832  1.3125 -0.2646
    1SOL    MW4 8940   0.910   3.257   3.745  0.0427 -0.0694 -0.0453
    1SOL     OW 8941   0.920   3.511   3.887  0.3423  0.3643 -0.6179
    1SOL    HW2 8942   0.910   3.437   3.827  0.8027  0.6813 -1.1018
    1SOL    HW3 8943   0.851   3.572   3.862 -0.0576  0.0845 -0.1977
    1SOL    MW4 8944   0.910   3.510   3.876  0.3502  0.3691 -0.6263
    1SOL     OW 8945   1.156   3.597   3.804 -0.5502 -0.2375  0.3799
    1SOL    HW2 8946   1.153   3.689   3.833  0.4857 -0.4664  1.2606
    1SOL    HW3 8947   1.074   3.559   3.837  0.6248 -0.5077  3.1726
    1SOL    MW4 8948   1.145   3.604   3.812 -0.2584 -0.3035  0.8643
    1SOL     OW 8949   1.162   3.892   3.843 -0.0867  0.1479 -0.1784
    1SOL    HW2 8950   1.144   3.901   3.937 -1.0026  0.6332 -0.3976
    1SOL    HW3 8951   1.249   3.929   3.832  0.1117 -0.1010  0.5179
    1SOL    MW4 8952   1.171   3.898   3.854 -0.1814  0.1791 -0.1154
    1SOL     OW 8953   0.913   3.976   3.750  0.3637 -0.0418 -0.1258
    1SOL    HW2 8954   0.999   3.938   3.766  0.3074 -0.2832 -0.3934
    1SOL    HW3 8955   0.904   3.975   3.655 -0.2909 -0.8101 -0.0655
    1SOL    MW4 8956   0.923   3.971   3.740  0.2699 -0.1750 -0.1531
    1SOL     OW 8957   0.925   4.251   3.838  0.1255 -0.1540 -0.5568
    1SOL    HW2 8958   0.915   4.251   3.934  0.3473 -0.1626 -0.5334
    1SOL    HW3 8959   0.924   4.158   3.815  0.1880 -0.1564 -0.5512
    1SOL    MW4 8960   0.924   4.238   3.848  0.1630 -0.1554 -0.5531
    1SOL     OW 8961   1.152   4.393   3.793 -0.4408  0.0100 -0.0405
    1SOL    HW2 8962   1.064   4.359   3.810  0.0262 -1.1279  0.1321
    1SOL    HW3 8963   1.155   4.406   3.698 -0.7943  0.0467 -0.0470
    1SOL    MW4 8964   1.141   4.390   3.783 -0.4258 -0.1354 -0.0186
    1SOL     OW 8965   1.555   0.008   3.873 -0.3510 -0.0640 -0.1871
    1SOL    HW2 8966   1.564   0.002   3.968  1.0470  0.6358 -0.2509
    1SOL    HW3 8967   1.582  -0.078   3.841 -0.1088 -0.0629  0.0115
    1SOL    MW4 8968   1.560  -0.004   3.882 -0.1345  0.0285 -0.1693
    1SOL     OW 8969   1.344   0.124   3.773 -0.1139 -0.0222 -0.0990
    1SOL    HW2 8970   1.348   0.206   3.822  1.1719  1.0126 -1.8404
    1SOL    HW3 8971   1.411   0.069   3.812 -1.5108 -0.5592  1.5845
    1SOL    MW4 8972   1.354   0.128   3.784 -0.1286  0.0434 -0.1063
    1SOL     OW 8973   1.347   0.412   3.859 -0.1912 -0.0889 -0.4165
    1SOL    HW2 8974   1.358   0.403   3.953 -0.3678  0.8498 -0.2968
    1SOL    HW3 8975   1.435   0.430   3.826 -0.0057 -1.2088 -0.5277
    1SOL    MW4 8976   1.360   0.413   3.867 -0.1900 -0.1128 -0.4153
    1SOL     OW 8977   1.603   0.539   3.799  0.2468  0.1413 -0.2790
    1SOL    HW2 8978   1.664   0.485   3.850 -0.3779 -0.2648  0.0604
    1SOL    HW3 8979   1.612   0.627   3.836  0.6262  0.0865 -0.2347
    1SOL    MW4 8980   1.612   0.543   3.811  0.2145  0.0805 -0.2286
    1SOL     OW 8981   1.581   0.781   3.917  0.3912  0.1566  0.0390
    1SOL    HW2 8982   1.652   0.837   3.884 -0.0472 -0.0222 -1.2486
    1SOL    HW3 8983   1.503   0.813   3.871 -0.1959 -0.2533  0.7481
    1SOL    MW4 8984   1.580   0.793   3.906  0.2558  0.0790 -0.0372
    1SOL     OW 8985   1.343   0.873   3.790  0.4445  0.3483  0.0763
    1SOL    HW2 8986   1.361   0.956   3.833  0.5914  0.9851 -1.1905
    1SOL    HW3 8987   1.262   0.842   3.829  0.5766  0.9119  0.7989
    1SOL    MW4 8988   1.335   0.880   3.801  0.4814  0.5068  0.0045
    1SOL     OW 8989   1.334   1.153   3.904 -0.2799 -0.0519  0.4545
    1SOL    HW2 8990   1.404   1.214   3.880  0.7675 -2.1217 -1.9618
    1SOL    HW3 8991   1.254   1.195   3.873  0.2765  0.6878 -0.0159
    1SOL    MW4 8992   1.333   1.167   3.897 -0.0684 -0.2276  0.0737
    1SOL     OW 8993   1.553   1.302   3.796 -0.1221  0.1260  0.1723
    1SOL    HW2 8994   1.627   1.264   3.843  0.7242  1.2250 -0.2552
    1SOL    HW3 8995   1.543   1.389   3.834  0.9298  1.2497 -2.0642
    1SOL    MW4 8996   1.562   1.308   3.807  0.1284  0.4194 -0.1791
    1SOL     OW 8997   1.533   1.568   3.918 -0.1373  0.0138 -0.4598
    1SOL    HW2 8998   1.557   1.554   4.009 -1.0147  2.4108  0.1892
    1SOL    HW3 8999   1.604   1.620   3.881 -0.3343  0.0270 -0.8307
    1SOL    MW4 9000   1.545   1.573   3.925 -0.2791  0.3318 -0.4232
    1SOL     OW 9001   1.336   1.702   3.757  0.2352  0.7778 -0.1308
    1SOL    HW2 9002   1.322   1.794   3.781 -0.6710  0.5206  0.3315
    1SOL    HW3 9003   1.405   1.673   3.817  0.5792  1.1744 -0.3279
    1SOL    MW4 9004   1.343   1.711   3.768  0.1611  0.7962 -0.0958
    1SOL     OW 9005   1.309   1.969   3.827  0.2484  0.4883 -0.0080
    1SOL    HW2 9006   1.333   1.960   3.920  0.5904  0.6351 -0.0793
    1SOL    HW3 9007   1.223   2.010   3.829  0.0421  0.0527  0.2552
    1SOL    MW4 9008   1.301   1.973   3.840  0.2664  0.4504  0.0174
    1SOL     OW 9009   1.565   2.050   3.782  0.1139 -0.5978  0.1786
    1SOL    HW2 9010   1.473   2.024   3.794  0.0797 -0.4884  0.1513
    1SOL    HW3 9011   1.572   2.070   3.689 -0.1265  0.5368  0.3909
    1SOL    MW4 9012   1.554   2.049   3.772  0.0776 -0.4337  0.2027
    1SOL     OW 9013   1.567   2.335   3.917  0.2663  0.4392  0.1166
    1SOL    HW2 9014   1.636   2.375   3.864  0.9809  0.1800  0.8278
    1SOL    HW3 9015   1.567   2.243   3.891 -0.2129  0.5582 -0.3021
    1SOL    MW4 9016   1.576   2.328   3.907  0.2973  0.4208  0.1554
    1SOL     OW 9017   1.361   2.467   3.777  0.2004  0.3185  0.2503
    1SOL    HW2 9018   1.430   2.413   3.816  0.7809  0.7487 -0.1777
    1SOL    HW3 9019   1.280   2.432   3.813  0.7069  0.4663  1.5447
    1SOL    MW4 9020   1.359   2.455   3.787  0.3439  0.3948  0.3645
    1SOL     OW 9021   1.299   2.754   3.818  0.1086  0.6744  0.1234
    1SOL    HW2 9022   1.300   2.757   3.914  0.1385 -0.3658  0.1663
    1SOL    HW3 9023   1.328   2.665   3.797  0.2434  0.9447 -0.8560
    1SOL    MW4 9024   1.303   2.743   3.828  0.1303  0.5729 -0.0002
    1SOL     OW 9025   1.554   2.850   3.759 -0.0244 -0.5742  0.0319
    1SOL    HW2 9026   1.468   2.816   3.784 -0.8027  0.5358 -1.0778
    1SOL    HW3 9027   1.556   2.844   3.664  1.1761 -0.6885  0.0590
    1SOL    MW4 9028   1.542   2.845   3.750  0.0312 -0.4427 -0.1111
    1SOL     OW 9029   1.580   3.104   3.865 -0.3583  0.1424 -0.0669
    1SOL    HW2 9030   1.571   3.107   3.961 -1.2681  0.0650 -0.1441
    1SOL    HW3 9031   1.574   3.011   3.844  1.0440  0.0589 -0.0920
    1SOL    MW4 9032   1.578   3.092   3.875 -0.2934  0.1214 -0.0803
    1SOL     OW 9033   1.340   3.212   3.800  0.0821 -0.2845  0.0403
    1SOL    HW2 9034   1.365   3.302   3.822 -0.8368 -0.1908  0.7090
    1SOL    HW3 9035   1.421   3.162   3.813  0.4138  0.3222  0.3668
    1SOL    MW4 9036   1.354   3.218   3.805  0.0045 -0.1919  0.1717
    1SOL     OW 9037   1.387   3.464   3.878 -0.1606  0.2276  0.3998
    1SOL    HW2 9038   1.461   3.514   3.843 -0.1000 -0.6106 -0.6846
    1SOL    HW3 9039   1.309   3.512   3.848 -0.0983 -0.1768 -0.4121
    1SOL    MW4 9040   1.386   3.477   3.869 -0.1444  0.0637  0.1497
    1SOL     OW 9041   1.615   3.593   3.758  0.4499  0.1418  0.2119
    1SOL    HW2 9042   1.677   3.545   3.813  0.5715  0.5780  0.4569
    1SOL    HW3 9043   1.613   3.681   3.795  0.6642  0.4825 -0.5942
    1SOL    MW4 9044   1.623   3.598   3.770  0.4942  0.2446  0.1378
    1SOL     OW 9045   1.606   3.863   3.872  0.0806  0.3276  0.0990
    1SOL    HW2 9046   1.612   3.857   3.968 -0.1873 -1.0758  0.0364
    1SOL    HW3 9047   1.529   3.918   3.857  0.1511  0.6005  0.6897
    1SOL    MW4 9048   1.597   3.869   3.883  0.0546  0.1783  0.1686
    1SOL     OW 9049   1.392   4.027   3.828  0.0645  0.5735  0.0752
    1SOL    HW2 9050   1.372   4.113   3.865 -1.0701  0.6101 -0.6031
    1SOL    HW3 9051   1.377   4.038   3.734 -0.6161 -0.5104  0.0496
    1SOL    MW4 9052   1.387   4.040   3.820 -0.1750  0.4354 -0.0176
    1SOL     OW 9053   1.354   4.273   3.944 -0.4072  0.0090 -0.4111
    1SOL    HW2 9054   1.437   4.314   3.919 -0.1365  0.0451  0.5608
    1SOL    HW3 9055   1.289   4.316   3.888  0.1993  0.0923 -1.0638
    1SOL    MW4 9056   1.356   4.284   3.933 -0.2913  0.0243 -0.3688
    1SOL     OW 9057   1.564   4.388   3.787  0.3742 -0.2851 -0.1049
    1SOL    HW2 9058   1.635   4.339   3.827  2.0743  1.4625 -0.9166
    1SOL    HW3 9059   1.587   4.391   3.694 -0.4693  0.7980 -0.2821
    1SOL    MW4 9060   1.576   4.382   3.780  0.4872  0.0887 -0.2353
    1SOL     OW 9061   1.978   4.648   3.902  0.5826 -0.2699 -0.0811
    1SOL    HW2 9062   2.055   4.688   3.862  0.5641 -0.3144 -0.1615
    1SOL    HW3 9063   1.967   4.565   3.855  0.3857 -0.1848 -0.1849
    1SOL    MW4 9064   1.987   4.642   3.891  0.5541 -0.2642 -0.1054
    1SOL     OW 9065   1.767   0.140   3.785  0.1559 -0.1234 -0.3519
    1SOL    HW2 9066   1.837   0.095   3.833  1.3813  0.7169 -1.3292
    1SOL    HW3 9067   1.686   0.100   3.817  1.0900 -1.1674  0.7258
    1SOL    MW4 9068   1.765   0.129   3.796  0.4407 -0.1503 -0.3386
    1SOL     OW 9069   1.772   0.377   3.943 -0.7076  0.1530  0.1360
    1SOL    HW2 9070   1.804   0.364   4.032 -0.2092 -0.2012 -0.0918
    1SOL    HW3 9071   1.764   0.288   3.908  1.4288  0.3761 -0.9861
    1SOL    MW4 9072   1.775   0.363   3.950 -0.3601  0.1357 -0.0422
    1SOL     OW 9073   1.990   0.495   3.835 -0.2986 -0.1061  0.6045
    1SOL    HW2 9074   1.914   0.459   3.881 -0.0715  0.0336  1.0991
    1SOL    HW3 9075   1.970   0.482   3.742 -0.0146 -1.9289  0.7777
    1SOL    MW4 9076   1.977   0.488   3.829 -0.2314 -0.3282  0.6926
    1SOL     OW 9077   2.044   0.767   3.895  0.2717  0.1982 -0.0539
    1SOL    HW2 9078   2.013   0.783   3.984 -0.5336  0.7939 -0.4325
    1SOL    HW3 9079   2.030   0.673   3.881  0.1203  0.1596  0.3473
    1SOL    MW4 9080   2.038   0.757   3.905  0.1454  0.2717 -0.0508
    1SOL     OW 9081   1.813   0.907   3.794 -0.2869 -0.1233 -0.5249
    1SOL    HW2 9082   1.896   0.865   3.818 -0.7263 -0.8915 -0.3225
    1SOL    HW3 9083   1.796   0.878   3.704 -1.0745 -1.1845 -0.0519
    1SOL    MW4 9084   1.822   0.898   3.785 -0.4489 -0.3647 -0.4356
    1SOL     OW 9085   1.781   1.164   3.899  0.2026 -0.1618  0.1180
    1SOL    HW2 9086   1.776   1.149   3.994 -0.5737  0.2900  0.1566
    1SOL    HW3 9087   1.794   1.077   3.861  2.1617 -0.1649  0.7427
    1SOL    MW4 9088   1.782   1.151   3.907  0.3587 -0.1025  0.2055
    1SOL     OW 9089   1.990   1.335   3.804  0.1704  0.1631 -0.4668
    1SOL    HW2 9090   2.067   1.281   3.826  0.0266 -0.3230 -1.1425
    1SOL    HW3 9091   1.916   1.285   3.837  0.0245 -0.1296 -1.2306
    1SOL    MW4 9092   1.991   1.321   3.811  0.1322  0.0603 -0.6568
    1SOL     OW 9093   1.969   1.586   3.910  0.5321 -0.2575 -0.2290
    1SOL    HW2 9094   1.880   1.614   3.889  0.3390  0.0495  0.9491
    1SOL    HW3 9095   1.987   1.515   3.849 -0.8872 -0.9682  0.1608
    1SOL    MW4 9096   1.960   1.580   3.899  0.3194 -0.3109 -0.0224
    1SOL     OW 9097   1.738   1.702   3.804 -0.0004  0.0097 -0.1771
    1SOL    HW2 9098   1.753   1.795   3.819  1.1178 -0.2684  0.4429
    1SOL    HW3 9099   1.767   1.687   3.714  0.7389  0.0539  0.0574
    1SOL    MW4 9100   1.744   1.712   3.794  0.2447 -0.0211 -0.0644
    1SOL     OW 9101   1.800   1.958   3.873 -0.1332  0.2595  0.2988
    1SOL    HW2 9102   1.804   1.952   3.969 -0.9422 -0.9590  0.2572
    1SOL    HW3 9103   1.715   1.998   3.855 -0.8443 -1.3573  0.0191
    1SOL    MW4 9104   1.789   1.963   3.884 -0.3338 -0.1147  0.2563
    1SOL     OW 9105   2.034   2.068   3.804 -0.0780 -0.5765  0.3591
    1SOL    HW2 9106   1.951   2.028   3.830  0.4034 -1.0052  1.2702
    1SOL    HW3 9107   2.040   2.052   3.710 -0.4570 -1.6046  0.5050
    1SOL    MW4 9108   2.024   2.061   3.795 -0.0641 -0.7689  0.4985
    1SOL     OW 9109   2.030   2.351   3.860  0.2285 -0.3059 -0.1380
    1SOL    HW2 9110   1.950   2.371   3.811 -0.3579  0.6834  1.1849
    1SOL    HW3 9111   2.038   2.256   3.856 -0.4369 -0.3216 -1.1698
    1SOL    MW4 9112   2.021   2.341   3.853  0.0629 -0.1771 -0.0997
    1SOL     OW 9113   1.778   2.425   3.731 -0.4402 -0.3891  0.5841
    1SOL    HW2 9114   1.784   2.514   3.765 -0.7442 -0.4127  0.7053
    1SOL    HW3 9115   1.794   2.434   3.637  0.0794 -0.2820  0.6852
    1SOL    MW4 9116   1.781   2.438   3.723 -0.4117 -0.3781  0.6132
    1SOL     OW 9117   1.772   2.694   3.810  0.3507 -0.1179  0.7163
    1SOL    HW2 9118   1.783   2.687   3.905  1.2715  1.2596  0.7301
    1SOL    HW3 9119   1.700   2.756   3.798  0.4745 -0.0136  0.5124
    1SOL    MW4 9120   1.764   2.701   3.821  0.4886  0.0777  0.6912
    1SOL     OW 9121   1.985   2.845   3.746  0.3033 -0.1676 -0.2039
    1SOL    HW2 9122   2.063   2.817   3.794 -0.5616  0.3570  1.5822
    1SOL    HW3 9123   1.918   2.781   3.771 -0.2477  0.3208 -0.4265
    1SOL    MW4 9124   1.986   2.833   3.756  0.1166 -0.0339  0.0026
    1SOL     OW 9125   1.998   3.082   3.876 -0.3851  0.5120  0.1389
    1SOL    HW2 9126   1.990   3.004   3.821 -0.6068 -0.0455  0.9573
    1SOL    HW3 9127   2.087   3.112   3.862 -0.0246 -0.3805  0.4586
    1SOL    MW4 9128   2.008   3.076   3.867 -0.3669  0.3207  0.2887
    1SOL     OW 9129   1.800   3.211   3.736  0.4016 -0.2231  0.3757
    1SOL    HW2 9130   1.873   3.166   3.779  0.9532  0.5383  0.2546
    1SOL    HW3 9131   1.722   3.175   3.777  0.8400 -1.1000  0.4648
    1SOL    MW4 9132   1.799   3.200   3.747  0.5322 -0.2384  0.3712
    1SOL     OW 9133   1.822   3.457   3.872  0.5261 -0.2739  0.0556
    1SOL    HW2 9134   1.892   3.517   3.846 -0.1003  0.2146 -0.5489
    1SOL    HW3 9135   1.827   3.386   3.808  0.4263 -0.1980 -0.0381
    1SOL    MW4 9136   1.832   3.456   3.860  0.4305 -0.1996 -0.0365
    1SOL     OW 9137   2.020   3.634   3.787  0.0548  0.1440  0.2734
    1SOL    HW2 9138   2.089   3.580   3.825 -0.4087  0.9861  2.3835
    1SOL    HW3 9139   2.037   3.633   3.693  0.4930 -3.0772  0.3237
    1SOL    MW4 9140   2.031   3.627   3.780  0.0513 -0.1700  0.5581
    1SOL     OW 9141   2.025   3.888   3.949  0.3705 -0.2151  0.1750
    1SOL    HW2 9142   2.103   3.937   3.923 -0.1328  1.2403  1.3299
    1SOL    HW3 9143   2.014   3.822   3.881  1.5071  0.7923 -1.0100
    1SOL    MW4 9144   2.034   3.886   3.936  0.4539  0.1097  0.1707
    1SOL     OW 9145   1.821   4.012   3.787 -0.1849  0.0463  0.4559
    1SOL    HW2 9146   1.883   3.992   3.857  0.4154 -1.5628 -0.5019
    1SOL    HW3 9147   1.755   3.942   3.792 -0.1077 -0.1198 -0.5937
    1SOL    MW4 9148   1.820   4.000   3.797 -0.0955 -0.1884  0.1910
    1SOL     OW 9149   1.752   4.247   3.914  0.1990 -0.2388 -0.1445
    1SOL    HW2 9150   1.829   4.286   3.872  0.7357 -1.8736 -0.7078
    1SOL    HW3 9151   1.743   4.161   3.874 -1.5848 -0.3036  0.3503
    1SOL    MW4 9152   1.761   4.241   3.903  0.0346 -0.4630 -0.1540
    1SOL     OW 9153   1.966   4.389   3.775 -0.2235  0.3278 -0.4770
    1SOL    HW2 9154   2.046   4.358   3.817 -0.9363  0.9226  1.3476
    1SOL    HW3 9155   1.990   4.398   3.683  1.9989  1.1020  0.1456
    1SOL    MW4 9156   1.980   4.386   3.768 -0.0244  0.5078 -0.1540
    1SOL     OW 9157   2.438   4.635   3.869 -0.0342  0.0358  0.1018
    1SOL    HW2 9158   2.453   4.620   3.963 -0.3864  1.0558  0.3210
    1SOL    HW3 9159   2.514   4.685   3.841 -1.2367  2.0736  0.4301
    1SOL    MW4 9160   2.450   4.639   3.878 -0.2394  0.4392  0.1740
    1SOL     OW 9161   2.217   0.083   3.760  0.1250 -0.0485  0.0654
    1SOL    HW2 9162   2.301   0.042   3.777 -0.3890 -1.2036 -0.1207
    1SOL    HW3 9163   2.217   0.102   3.666  0.8371  1.4954  0.3538
    1SOL    MW4 9164   2.228   0.080   3.750  0.1512  0.0028  0.0792
    1SOL     OW 9165   2.245   0.342   3.883 -0.5381 -0.2489  0.8114
    1SOL    HW2 9166   2.240   0.254   3.846 -0.5956 -0.0608  0.3714
    1SOL    HW3 9167   2.156   0.377   3.872  0.0923  0.7845 -1.2948
    1SOL    MW4 9168   2.232   0.335   3.877 -0.4623 -0.0877  0.4754
    1SOL     OW 9169   2.438   0.512   3.761 -0.1492  0.5351 -0.1211
    1SOL    HW2 9170   2.365   0.455   3.785 -0.2656  0.5626 -0.4112
    1SOL    HW3 9171   2.445   0.504   3.665 -0.6517  1.5957 -0.2529
    1SOL    MW4 9172   2.429   0.503   3.751 -0.2308  0.6787 -0.1767
    1SOL     OW 9173   2.460   0.762   3.865 -0.0821  0.0552 -0.1219
    1SOL    HW2 9174   2.387   0.815   3.831  0.2084  0.4323 -0.1571
    1SOL    HW3 9175   2.444   0.674   3.829 -0.8947 -0.0282  0.4195
    1SOL    MW4 9176   2.448   0.757   3.856 -0.1509  0.0939 -0.0548
    1SOL     OW 9177   2.260   0.929   3.803  0.8496  0.0742 -0.1810
    1SOL    HW2 9178   2.192   0.880   3.848  0.6270  0.5694  0.0256
    1SOL    HW3 9179   2.246   0.910   3.710 -0.4224  1.2489 -0.2462
    1SOL    MW4 9180   2.250   0.920   3.796  0.6523  0.2946 -0.1624
    1SOL     OW 9181   2.244   1.195   3.869  0.1210  0.4269  0.1080
    1SOL    HW2 9182   2.237   1.199   3.965  1.7466  0.9986  0.2217
    1SOL    HW3 9183   2.241   1.101   3.849  0.2745  0.2804  0.7653
    1SOL    MW4 9184   2.243   1.183   3.879  0.3557  0.4829  0.2098
    1SOL     OW 9185   2.492   1.275   3.802  0.3971  0.2787  0.1092
    1SOL    HW2 9186   2.503   1.365   3.832 -0.7831  0.9783 -1.4742
    1SOL    HW3 9187   2.404   1.250   3.832  0.4250 -0.0942 -0.1147
    1SOL    MW4 9188   2.482   1.284   3.810  0.2449  0.3219 -0.1290
    1SOL     OW 9189   2.463   1.560   3.872  0.2444  0.0718  0.0741
    1SOL    HW2 9190   2.533   1.606   3.827  1.1094 -1.9379 -0.6883
    1SOL    HW3 9191   2.384   1.612   3.854  1.1836  1.2372 -0.7394
    1SOL    MW4 9192   2.462   1.573   3.864  0.4826 -0.0396 -0.1338
    1SOL     OW 9193   2.230   1.687   3.803  0.0016 -0.0541 -0.1142
    1SOL    HW2 9194   2.253   1.779   3.817  1.4753 -0.6404  1.5009
    1SOL    HW3 9195   2.141   1.678   3.838 -0.6970  1.0542 -1.5675
    1SOL    MW4 9196   2.221   1.698   3.810  0.1040  0.0148 -0.0930
    1SOL     OW 9197   2.271   1.947   3.880 -0.3214  0.6263 -0.5113
    1SOL    HW2 9198   2.264   1.954   3.975  0.7645  2.0787 -0.5102
    1SOL    HW3 9199   2.193   1.992   3.847 -0.3533  0.7153 -0.3129
    1SOL    MW4 9200   2.259   1.954   3.888 -0.1824  0.8297 -0.4849
    1SOL     OW 9201   2.474   2.089   3.759 -0.0163 -0.2742 -0.0798
    1SOL    HW2 9202   2.474   2.175   3.801 -1.3876 -0.0124 -0.6027
    1SOL    HW3 9203   2.403   2.042   3.802 -0.1452 -0.6807 -0.7482
    1SOL    MW4 9204   2.465   2.094   3.771 -0.2143 -0.2930 -0.2370
    1SOL     OW 9205   2.466   2.333   3.888 -0.3845  0.3671 -0.5555
    1SOL    HW2 9206   2.545   2.376   3.854 -0.6121  1.7221  0.5598
    1SOL    HW3 9207   2.394   2.383   3.851 -0.6406  1.6217  1.5541
    1SOL    MW4 9208   2.467   2.345   3.878 -0.4482  0.7117 -0.1302
    1SOL     OW 9209   2.261   2.471   3.768 -0.1603 -0.0642 -0.1385
    1SOL    HW2 9210   2.178   2.431   3.794 -0.8347  0.3528 -1.6403
    1SOL    HW3 9211   2.266   2.459   3.673  0.2242  2.2771 -0.4426
    1SOL    MW4 9212   2.251   2.464   3.759 -0.1988  0.2995 -0.3767
    1SOL     OW 9213   2.214   2.739   3.844  0.0005  0.4889 -0.4577
    1SOL    HW2 9214   2.175   2.727   3.931  0.4467  0.7690 -0.2129
    1SOL    HW3 9215   2.221   2.651   3.808 -0.5636  0.4080 -0.3746
    1SOL    MW4 9216   2.210   2.726   3.851 -0.0150  0.5152 -0.4144
    1SOL     OW 9217   2.452   2.834   3.737 -0.2371  0.6404 -0.1647
    1SOL    HW2 9218   2.370   2.795   3.768  0.0543  0.4702  0.3942
    1SOL    HW3 9219   2.455   2.812   3.644 -0.1085 -0.6403  0.1256
    1SOL    MW4 9220   2.442   2.826   3.729 -0.1817  0.4489 -0.0529
    1SOL     OW 9221   2.467   3.062   3.920 -0.2376  0.1299  0.2712
    1SOL    HW2 9222   2.464   3.016   4.003  2.1994 -1.1982 -0.3438
    1SOL    HW3 9223   2.464   2.993   3.854  0.4151  1.0086 -0.6984
    1SOL    MW4 9224   2.466   3.047   3.922  0.1702  0.0703  0.0620
    1SOL     OW 9225   2.236   3.192   3.822  0.1559  0.2031 -0.0099
    1SOL    HW2 9226   2.245   3.280   3.859  0.2621 -0.2621  1.0883
    1SOL    HW3 9227   2.305   3.142   3.863 -0.1922 -0.5111 -0.2932
    1SOL    MW4 9228   2.246   3.197   3.832  0.1242  0.0477  0.0978
    1SOL     OW 9229   2.210   3.473   3.885 -0.0670 -0.0889  0.7589
    1SOL    HW2 9230   2.230   3.456   3.977  0.6967  0.9309  0.7884
    1SOL    HW3 9231   2.293   3.501   3.847  0.3521 -3.3003 -0.9345
    1SOL    MW4 9232   2.224   3.474   3.892  0.0892 -0.3781  0.5393
    1SOL     OW 9233   2.448   3.561   3.799 -0.5021 -0.1016  0.1984
    1SOL    HW2 9234   2.528   3.511   3.815 -0.8504 -0.9165 -0.5476
    1SOL    HW3 9235   2.455   3.587   3.707 -0.5036  0.9194  0.4765
    1SOL    MW4 9236   2.460   3.558   3.789 -0.5484 -0.0744  0.1366
    1SOL     OW 9237   2.454   3.837   3.870 -0.1915 -0.3356 -0.2701
    1SOL    HW2 9238   2.538   3.866   3.837 -0.4912  1.6086  0.6333
    1SOL    HW3 9239   2.445   3.747   3.837  1.5547 -0.0513 -1.5777
    1SOL    MW4 9240   2.464   3.829   3.861 -0.0010 -0.0415 -0.3233
    1SOL     OW 9241   2.243   4.005   3.768 -0.0267  0.1272  0.2043
    1SOL    HW2 9242   2.310   3.951   3.808  0.0017 -0.9153 -1.2380
    1SOL    HW3 9243   2.260   4.000   3.674 -2.3750 -0.5153 -0.2168
    1SOL    MW4 9244   2.254   3.997   3.761 -0.3328 -0.0954 -0.0417
    1SOL     OW 9245   2.196   4.242   3.879  0.3431 -0.7211 -0.0083
    1SOL    HW2 9246   2.186   4.222   3.972  0.0627 -0.7638 -0.0483
    1SOL    HW3 9247   2.198   4.156   3.836 -1.6912 -0.6492 -0.2654
    1SOL    MW4 9248   2.195   4.228   3.885  0.0377 -0.7172 -0.0474
    1SOL     OW 9249   2.429   4.362   3.793  0.2950  0.2336  0.0186
    1SOL    HW2 9250   2.348   4.325   3.830 -0.1054  0.8300 -0.2493
    1SOL    HW3 9251   2.434   4.450   3.832  0.8385  0.1837  0.0640
    1SOL    MW4 9252   2.419   4.369   3.803  0.3142  0.3061 -0.0105
    1SOL     OW 9253   2.897   4.613   3.891  0.3372  0.0437 -0.2892
    1SOL    HW2 9254   2.909   4.609   3.985  0.1160  0.1776 -0.2543
    1SOL    HW3 9255   2.970   4.666   3.859 -0.0809  0.7326 -0.0979
    1SOL    MW4 9256   2.908   4.619   3.899  0.2527  0.1521 -0.2594
    1SOL     OW 9257   2.659   0.113   3.795  0.1478  0.2180  0.4140
    1SOL    HW2 9258   2.717   0.047   3.832 -0.1683 -0.3722 -0.1421
    1SOL    HW3 9259   2.687   0.122   3.704 -0.7417 -0.1995  0.0908
    1SOL    MW4 9260   2.671   0.105   3.788 -0.0112  0.0850  0.2980
    1SOL     OW 9261   2.680   0.385   3.838  0.2383  0.0044 -0.4156
    1SOL    HW2 9262   2.675   0.292   3.818 -1.6522 -0.1344  0.6287
    1SOL    HW3 9263   2.594   0.419   3.816  0.1740  1.0651  1.4424
    1SOL    MW4 9264   2.668   0.377   3.832 -0.0196  0.1260 -0.0327
    1SOL     OW 9265   2.927   0.517   3.754  0.2023  0.7884  0.4693
    1SOL    HW2 9266   2.999   0.461   3.783 -0.1289  0.3657  0.4820
    1SOL    HW3 9267   2.848   0.472   3.784 -0.1552  0.2298 -1.2991
    1SOL    MW4 9268   2.926   0.504   3.762  0.1116  0.6590  0.2379
    1SOL     OW 9269   2.912   0.753   3.938 -0.4380 -0.8045 -0.5397
    1SOL    HW2 9270   2.990   0.806   3.921 -1.6952  1.5701  0.8449
    1SOL    HW3 9271   2.926   0.674   3.887  2.9804 -0.5301 -0.1667
    1SOL    MW4 9272   2.924   0.750   3.929 -0.1528 -0.4550 -0.3080
    1SOL     OW 9273   2.720   0.866   3.792 -0.5270  0.1014  0.3070
    1SOL    HW2 9274   2.782   0.821   3.849  0.0121  0.2862 -0.1211
    1SOL    HW3 9275   2.637   0.820   3.805 -0.1950 -0.4381  0.5519
    1SOL    MW4 9276   2.717   0.854   3.801 -0.4120  0.0545  0.2828
    1SOL     OW 9277   2.706   1.126   3.900  0.0186  0.3695 -0.3562
    1SOL    HW2 9278   2.710   1.037   3.865 -0.5958  0.3778 -0.4583
    1SOL    HW3 9279   2.632   1.166   3.855 -1.1858  0.1831  1.3946
    1SOL    MW4 9280   2.696   1.120   3.889 -0.2213  0.3459 -0.1388
    1SOL     OW 9281   2.946   1.250   3.784  0.2872 -0.0124  0.1068
    1SOL    HW2 9282   2.947   1.343   3.806 -1.6824  0.5451 -1.9514
    1SOL    HW3 9283   2.867   1.216   3.826  0.2263 -0.4464 -0.3553
    1SOL    MW4 9284   2.936   1.257   3.793  0.0193  0.0038 -0.2258
    1SOL     OW 9285   2.927   1.523   3.824 -0.6871  0.0389 -0.3318
    1SOL    HW2 9286   2.937   1.527   3.919 -0.8764 -0.1743 -0.3020
    1SOL    HW3 9287   3.001   1.575   3.790 -0.1207 -0.6061 -0.0928
    1SOL    MW4 9288   2.938   1.531   3.832 -0.6373 -0.0744 -0.2964
    1SOL     OW 9289   2.689   1.676   3.776  0.3449 -0.1110  0.3638
    1SOL    HW2 9290   2.766   1.632   3.813  0.7255  0.7470  0.6009
    1SOL    HW3 9291   2.697   1.663   3.682 -0.1785 -1.5679  0.4919
    1SOL    MW4 9292   2.700   1.668   3.769  0.3262 -0.1901  0.4122
    1SOL     OW 9293   2.716   1.950   3.815  0.0009 -0.0109  0.1634
    1SOL    HW2 9294   2.706   1.857   3.795 -0.8398  0.2067 -0.4661
    1SOL    HW3 9295   2.634   1.990   3.786  0.7878  1.1001 -0.5856
    1SOL    MW4 9296   2.704   1.943   3.809 -0.0064  0.1644 -0.0186
    1SOL     OW 9297   2.936   2.095   3.755  0.0069 -0.2240  0.1090
    1SOL    HW2 9298   2.932   2.174   3.809 -1.3155  0.1456 -0.5291
    1SOL    HW3 9299   2.859   2.044   3.781  0.7918 -1.2627  0.4376
    1SOL    MW4 9300   2.926   2.098   3.766 -0.0639 -0.3121  0.0682
    1SOL     OW 9301   2.916   2.334   3.872  0.2212 -0.1572 -0.0122
    1SOL    HW2 9302   2.934   2.309   3.962 -0.3255 -0.9271 -0.1152
    1SOL    HW3 9303   2.999   2.371   3.841  0.3160  0.4146  0.8997
    1SOL    MW4 9304   2.930   2.336   3.879  0.1619 -0.1833  0.0947
    1SOL     OW 9305   2.667   2.455   3.773 -0.0671  0.0928  0.0200
    1SOL    HW2 9306   2.701   2.541   3.797  0.4808 -0.0816 -0.1068
    1SOL    HW3 9307   2.736   2.394   3.800 -0.9245 -0.4029  1.1041
    1SOL    MW4 9308   2.681   2.458   3.780 -0.1078  0.0041  0.1464
    1SOL     OW 9309   2.693   2.749   3.834  0.0389 -0.0490  0.5726
    1SOL    HW2 9310   2.683   2.739   3.928 -1.3658 -1.5735  0.2796
    1SOL    HW3 9311   2.609   2.784   3.804  0.2434 -0.2036 -0.1985
    1SOL    MW4 9312   2.680   2.753   3.842 -0.1194 -0.2706  0.4325
    1SOL     OW 9313   2.930   2.853   3.752  0.3222  0.3168 -0.0395
    1SOL    HW2 9314   2.911   2.936   3.795 -0.2969  0.1985 -0.0792
    1SOL    HW3 9315   2.863   2.793   3.785  0.3265  0.0222 -0.5578
    1SOL    MW4 9316   2.919   2.856   3.762  0.2410  0.2623 -0.1130
    1SOL     OW 9317   2.935   3.088   3.917  0.1222  0.8281 -0.2288
    1SOL    HW2 9318   3.007   3.140   3.883  0.1649 -0.7528 -2.6619
    1SOL    HW3 9319   2.856   3.129   3.882  0.1422 -0.5318 -1.9326
    1SOL    MW4 9320   2.934   3.100   3.908  0.1304  0.4401 -0.7746
    1SOL     OW 9321   2.699   3.190   3.795  0.8525  0.1575  0.4654
    1SOL    HW2 9322   2.704   3.282   3.822 -1.3380  0.2238  0.7535
    1SOL    HW3 9323   2.629   3.153   3.849  0.5531 -1.2516 -0.8538
    1SOL    MW4 9324   2.690   3.197   3.806  0.5236 -0.0196  0.3297
    1SOL     OW 9325   2.681   3.446   3.876 -0.2652 -0.1428 -0.0390
    1SOL    HW2 9326   2.713   3.432   3.965  1.3930 -1.2507 -0.7970
    1SOL    HW3 9327   2.744   3.505   3.837  0.4667 -1.7517 -1.3149
    1SOL    MW4 9328   2.693   3.452   3.883  0.0503 -0.5014 -0.3073
    1SOL     OW 9329   2.894   3.616   3.783  0.1147 -0.0799 -0.1952
    1SOL    HW2 9330   2.969   3.574   3.825  0.4189  1.3501  0.7175
    1SOL    HW3 9331   2.906   3.598   3.689  0.0645 -2.2674  0.1836
    1SOL    MW4 9332   2.905   3.608   3.776  0.1483 -0.1795 -0.0246
    1SOL     OW 9333   2.918   3.866   3.895  0.6293 -0.7541  0.0835
    1SOL    HW2 9334   2.925   3.866   3.990  0.3665 -0.1167  0.1059
    1SOL    HW3 9335   2.906   3.774   3.871 -0.5457 -0.7916  0.7641
    1SOL    MW4 9336   2.917   3.854   3.904  0.4396 -0.6752  0.1762
    1SOL     OW 9337   2.691   3.966   3.787  0.1217  0.1837 -0.1218
    1SOL    HW2 9338   2.676   4.051   3.828 -0.3198  0.0404  0.0242
    1SOL    HW3 9339   2.767   3.930   3.834  0.9368  0.9204 -0.8629
    1SOL    MW4 9340   2.699   3.973   3.799  0.1707  0.2620 -0.2003
    1SOL     OW 9341   2.665   4.227   3.863  0.4826  0.0095 -0.2467
    1SOL    HW2 9342   2.733   4.269   3.810 -1.9316  1.1786 -2.5393
    1SOL    HW3 9343   2.583   4.268   3.834 -1.2248 -1.3608  2.4160
    1SOL    MW4 9344   2.663   4.238   3.852 -0.0610 -0.0172 -0.1976
    1SOL     OW 9345   2.894   4.363   3.747  0.4163 -0.1746  0.7266
    1SOL    HW2 9346   2.966   4.323   3.794 -0.0289  0.5636  2.0694
    1SOL    HW3 9347   2.875   4.444   3.795  0.6436  1.1537 -1.3207
    1SOL    MW4 9348   2.901   4.369   3.759  0.3874  0.0982  0.6337
    1SOL     OW 9349   3.338   0.002   3.883 -0.7573  0.1301  0.2672
    1SOL    HW2 9350   3.357   0.019   3.975 -1.6615  1.1387  0.2660
    1SOL    HW3 9351   3.414   0.038   3.836 -0.3929 -0.2015  0.5942
    1SOL    MW4 9352   3.351   0.009   3.889 -0.8285  0.2189  0.3102
    1SOL     OW 9353   3.094   0.102   3.779 -0.8137 -0.0728 -0.0685
    1SOL    HW2 9354   3.181   0.077   3.809 -1.6325 -1.7690  1.0294
    1SOL    HW3 9355   3.104   0.116   3.684  0.7554  0.3299  0.1480
    1SOL    MW4 9356   3.107   0.100   3.770 -0.7148 -0.2434  0.1047
    1SOL     OW 9357   3.145   0.375   3.848 -0.1517 -0.6781 -0.0906
    1SOL    HW2 9358   3.134   0.373   3.943  0.5970  0.7315  0.0394
    1SOL    HW3 9359   3.125   0.286   3.820  0.2799 -1.2863  1.4730
    1SOL    MW4 9360   3.141   0.363   3.857  0.0041 -0.5724  0.1328
    1SOL     OW 9361   3.378   0.488   3.752 -0.1815 -1.1564 -0.3553
    1SOL    HW2 9362   3.447   0.432   3.788 -1.2483 -2.2651  0.0032
    1SOL    HW3 9363   3.296   0.444   3.776 -1.0660  0.8622  0.4624
    1SOL    MW4 9364   3.376   0.475   3.760 -0.4389 -1.0363 -0.2003
    1SOL     OW 9365   3.362   0.738   3.841 -0.0221  0.0666 -0.4637
    1SOL    HW2 9366   3.362   0.745   3.936  2.2557  1.1408 -0.5296
    1SOL    HW3 9367   3.395   0.650   3.823  0.7813  0.3234 -0.2711
    1SOL    MW4 9368   3.366   0.727   3.851  0.3846  0.2422 -0.4473
    1SOL     OW 9369   3.136   0.905   3.837 -0.5549 -0.6654 -0.0156
    1SOL    HW2 9370   3.214   0.849   3.831  0.2219  0.4216 -0.3545
    1SOL    HW3 9371   3.118   0.930   3.746 -0.0083  0.8028  0.2682
    1SOL    MW4 9372   3.144   0.901   3.824 -0.3805 -0.3282 -0.0229
    1SOL     OW 9373   3.197   1.183   3.897  0.2160 -0.3022 -0.1234
    1SOL    HW2 9374   3.195   1.088   3.900 -0.4159 -0.3470 -1.9780
    1SOL    HW3 9375   3.111   1.209   3.865  1.0918  0.8058 -1.6586
    1SOL    MW4 9376   3.185   1.174   3.893  0.2482 -0.1619 -0.5705
    1SOL     OW 9377   3.400   1.298   3.744  0.5033  0.3072  0.1764
    1SOL    HW2 9378   3.332   1.246   3.786  0.4899  0.1680 -0.0159
    1SOL    HW3 9379   3.384   1.286   3.650  2.1860 -1.5570  0.1151
    1SOL    MW4 9380   3.389   1.289   3.737  0.7236  0.0428  0.1431
    1SOL     OW 9381   3.384   1.561   3.829 -0.2279  0.1822  0.2933
    1SOL    HW2 9382   3.297   1.585   3.798 -0.7885 -0.7552  1.1184
    1SOL    HW3 9383   3.397   1.472   3.798  1.4221  1.1100 -1.8428
    1SOL    MW4 9384   3.374   1.553   3.821 -0.0844  0.1810  0.1199
    1SOL     OW 9385   3.151   1.675   3.751 -0.3291 -0.3599 -0.0928
    1SOL    HW2 9386   3.134   1.762   3.789 -1.3829 -0.7927  0.4356
    1SOL    HW3 9387   3.162   1.692   3.657 -0.0236  0.4047  0.0747
    1SOL    MW4 9388   3.150   1.689   3.743 -0.4277 -0.3160 -0.0007
    1SOL     OW 9389   3.157   1.917   3.889 -0.2981  0.1343  0.4644
    1SOL    HW2 9390   3.149   1.936   3.983 -0.6385  0.0290  0.4565
    1SOL    HW3 9391   3.101   1.983   3.847  0.2301  0.4882  0.3039
    1SOL    MW4 9392   3.148   1.928   3.896 -0.2732  0.1673  0.4420
    1SOL     OW 9393   3.398   2.069   3.771 -0.2038 -0.0110  0.0208
    1SOL    HW2 9394   3.326   2.009   3.791  0.0347 -0.0689  0.6978
    1SOL    HW3 9395   3.403   2.068   3.675 -0.3751 -0.8712  0.0159
    1SOL    MW4 9396   3.389   2.061   3.761 -0.1948 -0.1321  0.1094
    1SOL     OW 9397   3.375   2.313   3.906 -0.5686  0.1235 -0.2459
    1SOL    HW2 9398   3.301   2.356   3.863 -0.9891 -0.7935 -0.4732
    1SOL    HW3 9399   3.379   2.227   3.863 -0.0948 -0.2603  0.5673
    1SOL    MW4 9400   3.365   2.307   3.895 -0.5617 -0.0482 -0.1686
    1SOL     OW 9401   3.151   2.443   3.788 -0.4196  0.3306  0.6822
    1SOL    HW2 9402   3.150   2.534   3.816 -1.5590  0.8421 -1.0141
    1SOL    HW3 9403   3.171   2.445   3.695  0.6161 -1.2191  0.8434
    1SOL    MW4 9404   3.153   2.455   3.780 -0.4334  0.1938  0.4797
    1SOL     OW 9405   3.146   2.710   3.870 -0.1224  0.1507 -0.6918
    1SOL    HW2 9406   3.147   2.723   3.965  0.2288  0.9658 -0.7974
    1SOL    HW3 9407   3.072   2.763   3.840 -0.9933 -1.0792 -0.7506
    1SOL    MW4 9408   3.136   2.719   3.879 -0.1912  0.0961 -0.7136
    1SOL     OW 9409   3.400   2.823   3.795 -0.5419 -0.0411 -0.1837
    1SOL    HW2 9410   3.328   2.783   3.843 -0.3702  0.0952  0.1867
    1SOL    HW3 9411   3.377   2.811   3.703 -1.0265 -0.0229 -0.0664
    1SOL    MW4 9412   3.388   2.816   3.789 -0.5832 -0.0207 -0.1192
    1SOL     OW 9413   3.357   3.087   3.900 -0.0796 -0.3446  0.2465
    1SOL    HW2 9414   3.426   3.136   3.856  0.0758 -0.4864  0.3309
    1SOL    HW3 9415   3.364   2.998   3.865  1.8591 -1.1830  2.5842
    1SOL    MW4 9416   3.367   3.081   3.890  0.1967 -0.4737  0.5660
    1SOL     OW 9417   3.147   3.231   3.786 -0.3505  0.3254  0.5072
    1SOL    HW2 9418   3.213   3.174   3.825 -1.6046 -1.1337  0.5485
    1SOL    HW3 9419   3.159   3.220   3.691 -1.7034 -1.4101  0.4916
    1SOL    MW4 9420   3.157   3.222   3.779 -0.6945 -0.0963  0.5105
    1SOL     OW 9421   3.107   3.504   3.907 -0.1112  0.5882  0.2518
    1SOL    HW2 9422   3.190   3.546   3.883 -0.1563 -0.6728 -2.3227
    1SOL    HW3 9423   3.121   3.412   3.886 -2.0705  0.3255  0.0868
    1SOL    MW4 9424   3.120   3.497   3.901 -0.3757  0.3872 -0.1099
    1SOL     OW 9425   3.381   3.615   3.803  0.2595 -0.1649  0.7202
    1SOL    HW2 9426   3.388   3.709   3.819  0.2163 -0.5200  3.1348
    1SOL    HW3 9427   3.381   3.606   3.708  1.4360  2.1900  0.4562
    1SOL    MW4 9428   3.382   3.626   3.793  0.4089  0.0989  1.0040
    1SOL     OW 9429   3.338   3.881   3.898 -0.3237  0.3809 -0.0507
    1SOL    HW2 9430   3.394   3.955   3.873 -0.1134  0.5608  0.9383
    1SOL    HW3 9431   3.258   3.894   3.848 -0.1175  1.0321 -0.2208
    1SOL    MW4 9432   3.335   3.892   3.888 -0.2687  0.4907  0.0575
    1SOL     OW 9433   3.101   3.976   3.721 -0.4920  0.0261  0.4668
    1SOL    HW2 9434   3.089   4.063   3.760 -2.5715  0.5368 -1.1965
    1SOL    HW3 9435   3.026   3.925   3.754 -0.0958 -0.6906  0.2515
    1SOL    MW4 9436   3.089   3.981   3.731 -0.7141 -0.0010  0.2191
    1SOL     OW 9437   3.112   4.225   3.871 -0.1482  0.2862 -0.1954
    1SOL    HW2 9438   3.113   4.235   3.966 -0.3059 -0.7189 -0.0824
    1SOL    HW3 9439   3.180   4.285   3.840  1.4462 -0.9956  0.7309
    1SOL    MW4 9440   3.121   4.234   3.880  0.0412 -0.0153 -0.0582
    1SOL     OW 9441   3.302   4.407   3.780 -0.1487 -0.3498  0.0407
    1SOL    HW2 9442   3.395   4.387   3.782 -0.2641 -1.0687 -1.1845
    1SOL    HW3 9443   3.295   4.493   3.823  1.0020 -0.5207  0.5851
    1SOL    MW4 9444   3.313   4.416   3.786 -0.0122 -0.4668 -0.0491
    1SOL     OW 9445   3.795   4.657   3.873 -0.3459 -0.3752 -0.2134
    1SOL    HW2 9446   3.867   4.713   3.845 -0.0738 -0.2122  0.7877
    1SOL    HW3 9447   3.817   4.570   3.838  0.0309 -0.2011 -0.4067
    1SOL    MW4 9448   3.807   4.653   3.865 -0.2601 -0.3307 -0.1068
    1SOL     OW 9449   3.565   0.116   3.767  0.1210 -0.1159 -0.0334
    1SOL    HW2 9450   3.635   0.055   3.795 -1.3211 -1.4995  0.6588
    1SOL    HW3 9451   3.582   0.131   3.674 -0.1016 -2.4758 -0.5012
    1SOL    MW4 9452   3.577   0.110   3.759 -0.0987 -0.6098 -0.0038
    1SOL     OW 9453   3.589   0.355   3.883  0.0493  0.3547 -0.3600
    1SOL    HW2 9454   3.664   0.404   3.848 -0.2613 -0.0233 -1.5845
    1SOL    HW3 9455   3.603   0.265   3.851  0.0164 -0.1146  0.9141
    1SOL    MW4 9456   3.601   0.349   3.874  0.0041  0.2429 -0.3536
    1SOL     OW 9457   3.794   0.484   3.769 -0.1521  0.2952 -0.0332
    1SOL    HW2 9458   3.884   0.462   3.794  0.1072 -0.0625 -1.2574
    1SOL    HW3 9459   3.781   0.573   3.802  0.2785 -0.0608  1.1072
    1SOL    MW4 9460   3.804   0.493   3.777 -0.0615  0.2010 -0.0441
    1SOL     OW 9461   3.772   0.730   3.871 -0.4794  0.2032  0.0901
    1SOL    HW2 9462   3.850   0.772   3.833  0.7800 -2.4966 -0.4744
    1SOL    HW3 9463   3.698   0.772   3.827  0.6712  2.3340  0.1176
    1SOL    MW4 9464   3.773   0.741   3.860 -0.1614  0.1281  0.0193
    1SOL     OW 9465   3.575   0.867   3.738  0.1952  0.0613  0.3767
    1SOL    HW2 9466   3.573   0.945   3.793 -0.2361  1.2318 -1.2626
    1SOL    HW3 9467   3.491   0.824   3.755  0.3772  0.0247  1.1848
    1SOL    MW4 9468   3.564   0.872   3.747  0.1626  0.2109  0.2670
    1SOL     OW 9469   3.585   1.123   3.870  0.3823 -0.6525 -0.2093
    1SOL    HW2 9470   3.665   1.165   3.837 -0.3819  0.4549 -0.6579
    1SOL    HW3 9471   3.514   1.171   3.829 -0.5515 -0.8462  1.1654
    1SOL    MW4 9472   3.586   1.135   3.860  0.1583 -0.5320 -0.0870
    1SOL     OW 9473   3.815   1.259   3.789 -0.0629  0.0017  0.3366
    1SOL    HW2 9474   3.902   1.233   3.819 -0.6255 -1.7285  0.5129
    1SOL    HW3 9475   3.808   1.351   3.813  1.9329  0.3253 -0.1835
    1SOL    MW4 9476   3.825   1.268   3.796  0.1261 -0.1839  0.2913
    1SOL     OW 9477   3.846   1.533   3.833  0.8171  0.6443 -0.1916
    1SOL    HW2 9478   3.829   1.534   3.927  0.5415 -0.4039 -0.2258
    1SOL    HW3 9479   3.781   1.592   3.796 -1.6476 -1.9508 -0.1396
    1SOL    MW4 9480   3.835   1.541   3.841  0.4554  0.1637 -0.1891
    1SOL     OW 9481   3.618   1.705   3.740  0.7537 -0.0242  0.0217
    1SOL    HW2 9482   3.540   1.659   3.772  1.6852 -0.7664  1.2800
    1SOL    HW3 9483   3.610   1.702   3.645  1.0256 -3.2268  0.0487
    1SOL    MW4 9484   3.607   1.698   3.732  0.9124 -0.5445  0.1912
    1SOL     OW 9485   3.617   1.931   3.887 -0.0186 -0.7376 -0.4107
    1SOL    HW2 9486   3.619   1.853   3.832 -1.7489 -0.2660 -1.1853
    1SOL    HW3 9487   3.538   1.977   3.860 -0.2108  0.1608  1.5799
    1SOL    MW4 9488   3.607   1.927   3.876 -0.2723 -0.5568 -0.2501
    1SOL     OW 9489   3.837   2.077   3.773  0.0150 -0.2988  0.2012
    1SOL    HW2 9490   3.906   2.015   3.797  0.2292 -0.7472 -1.4694
    1SOL    HW3 9491   3.757   2.039   3.809  0.4365 -0.4676  0.9799
    1SOL    MW4 9492   3.836   2.064   3.781  0.0987 -0.3800  0.0834
    1SOL     OW 9493   3.841   2.324   3.911 -0.4034 -0.6694  0.1565
    1SOL    HW2 9494   3.762   2.355   3.866 -0.8535 -1.2500  0.5435
    1SOL    HW3 9495   3.851   2.233   3.883  0.3467 -0.4874 -0.1832
    1SOL    MW4 9496   3.832   2.316   3.901 -0.3636 -0.7219  0.1628
    1SOL     OW 9497   3.611   2.432   3.790  0.2802 -0.5434  0.1605
    1SOL    HW2 9498   3.535   2.388   3.827 -0.2408 -0.1615 -0.4582
    1SOL    HW3 9499   3.594   2.436   3.696 -0.2470  2.0746  0.3434
    1SOL    MW4 9500   3.599   2.427   3.783  0.1419 -0.1478  0.1025
    1SOL     OW 9501   3.627   2.695   3.882 -0.4039  0.3681  0.4126
    1SOL    HW2 9502   3.635   2.608   3.843 -1.3055 -0.0300  1.0904
    1SOL    HW3 9503   3.546   2.730   3.846  0.3709  1.2605 -0.4815
    1SOL    MW4 9504   3.617   2.688   3.872 -0.4203  0.4337  0.3839
    1SOL     OW 9505   3.837   2.891   3.785  0.1590  0.0778  0.3028
    1SOL    HW2 9506   3.912   2.834   3.803 -0.3823 -0.4904  0.7754
    1SOL    HW3 9507   3.762   2.844   3.822 -0.7142 -0.2575 -1.8161
    1SOL    MW4 9508   3.837   2.877   3.792 -0.0279 -0.0410  0.0854
    1SOL     OW 9509   3.826   3.158   3.856 -0.1188  0.5083  0.5371
    1SOL    HW2 9510   3.737   3.186   3.832 -0.2876  0.7510  1.4189
    1SOL    HW3 9511   3.834   3.070   3.819 -0.6089  0.6102  0.1786
    1SOL    MW4 9512   3.815   3.150   3.848 -0.2055  0.5536  0.6063
    1SOL     OW 9513   3.568   3.226   3.787  0.2852  0.1808  0.4525
    1SOL    HW2 9514   3.579   3.314   3.822  1.5177 -0.1854  0.9934
    1SOL    HW3 9515   3.557   3.240   3.693  1.3995  0.8450  0.4159
    1SOL    MW4 9516   3.568   3.240   3.779  0.5944  0.2201  0.5190
    1SOL     OW 9517   3.615   3.478   3.869 -0.3033  0.2221  0.0095
    1SOL    HW2 9518   3.617   3.482   3.965 -0.5402 -0.8809  0.0673
    1SOL    HW3 9519   3.542   3.534   3.844  0.3800  1.3335  0.4090
    1SOL    MW4 9520   3.606   3.486   3.879 -0.2444  0.2232  0.0699
    1SOL     OW 9521   3.858   3.603   3.797  0.1241 -0.1867 -0.0000
    1SOL    HW2 9522   3.847   3.689   3.838  0.9447 -0.0764  0.0017
    1SOL    HW3 9523   3.779   3.555   3.821 -1.4120  1.3329 -1.9078
    1SOL    MW4 9524   3.846   3.608   3.806  0.0298  0.0286 -0.2518
    1SOL     OW 9525   3.800   3.871   3.876  0.0428  0.0042  0.5143
    1SOL    HW2 9526   3.804   3.866   3.971  0.0489  1.7604  0.6398
    1SOL    HW3 9527   3.877   3.923   3.852 -0.6312  0.6328 -0.3345
    1SOL    MW4 9528   3.811   3.878   3.885 -0.0455  0.3188  0.4189
    1SOL     OW 9529   3.562   4.033   3.790 -0.5726 -0.0740 -0.0218
    1SOL    HW2 9530   3.576   4.121   3.826  0.3688 -0.2436  0.0322
    1SOL    HW3 9531   3.645   3.988   3.802 -1.3570 -1.3244  0.8741
    1SOL    MW4 9532   3.574   4.039   3.796 -0.5519 -0.2613  0.1035
    1SOL     OW 9533   3.568   4.308   3.867 -0.1767 -0.5136 -0.2552
    1SOL    HW2 9534   3.564   4.299   3.962 -0.7670  1.2719 -0.0869
    1SOL    HW3 9535   3.654   4.347   3.850 -0.2864 -0.3285 -0.3972
    1SOL    MW4 9536   3.579   4.312   3.877 -0.2692 -0.2537 -0.2518
    1SOL     OW 9537   3.821   4.403   3.744 -0.0274 -0.4929  0.2621
    1SOL    HW2 9538   3.891   4.346   3.777  0.1639  0.5518  1.6908
    1SOL    HW3 9539   3.805   4.371   3.655  2.3017 -0.7329 -0.1137
    1SOL    MW4 9540   3.828   4.391   3.737  0.3052 -0.3867  0.4013
    1SOL     OW 9541   4.242   4.663   3.873 -0.6427 -0.2904  0.7057
    1SOL    HW2 9542   4.235   4.642   3.966 -0.3788  0.1717  0.8297
    1SOL    HW3 9543   4.329   4.702   3.862 -0.5236 -0.6869  0.1968
    1SOL    MW4 9544   4.252   4.666   3.884 -0.5922 -0.2818  0.6549
    1SOL     OW 9545   4.015   0.116   3.773 -0.1417 -0.2180  0.1559
    1SOL    HW2 9546   4.090   0.068   3.808  0.1219  0.0040 -0.0937
    1SOL    HW3 9547   4.025   0.109   3.678  0.1948  0.7755  0.1105
    1SOL    MW4 9548   4.027   0.109   3.765 -0.0625 -0.0576  0.1168
    1SOL     OW 9549   4.036   0.376   3.875  0.5523  0.3789 -0.0289
    1SOL    HW2 9550   4.066   0.357   3.964  0.2373 -0.4320 -0.0840
    1SOL    HW3 9551   4.023   0.289   3.836  1.0716  0.7333 -0.9960
    1SOL    MW4 9552   4.038   0.362   3.882  0.5794  0.3186 -0.1636
    1SOL     OW 9553   4.269   0.486   3.773 -0.2957 -0.1482 -0.5935
    1SOL    HW2 9554   4.184   0.465   3.811 -0.1774 -1.6863 -1.1514
    1SOL    HW3 9555   4.256   0.473   3.679  0.2166  0.8273 -0.8076
    1SOL    MW4 9556   4.256   0.482   3.765 -0.2122 -0.2224 -0.6952
    1SOL     OW 9557   4.214   0.751   3.825 -0.4101  0.1163 -0.3288
    1SOL    HW2 9558   4.130   0.770   3.784  0.2326  0.1218 -1.6542
    1SOL    HW3 9559   4.227   0.657   3.810 -0.0148  0.1865 -0.4107
    1SOL    MW4 9560   4.205   0.741   3.818 -0.2728  0.1264 -0.5145
    1SOL     OW 9561   3.983   0.863   3.733  0.3094  0.0781 -0.3139
    1SOL    HW2 9562   3.992   0.956   3.755  2.1025 -0.3738  0.9539
    1SOL    HW3 9563   4.001   0.859   3.639 -0.2802  1.0834 -0.4733
    1SOL    MW4 9564   3.987   0.875   3.724  0.4683  0.1512 -0.1674
    1SOL     OW 9565   4.046   1.135   3.834  0.0269  0.1228  0.3248
    1SOL    HW2 9566   4.046   1.127   3.929  0.6937 -1.1384  0.2371
    1SOL    HW3 9567   4.127   1.182   3.813  0.0998  0.0127  0.3577
    1SOL    MW4 9568   4.057   1.140   3.844  0.1245 -0.0581  0.3178
    1SOL     OW 9569   4.261   1.254   3.728 -0.3560 -0.3140  0.1444
    1SOL    HW2 9570   4.273   1.347   3.749  0.1050 -0.1464 -0.8290
    1SOL    HW3 9571   4.250   1.252   3.633  0.2458 -1.3168  0.0883
    1SOL    MW4 9572   4.262   1.266   3.718 -0.2155 -0.4241  0.0088
    1SOL     OW 9573   4.271   1.528   3.779  0.0753  0.8983 -0.4626
    1SOL    HW2 9574   4.194   1.577   3.749  0.6769  1.2380 -1.4481
    1SOL    HW3 9575   4.341   1.593   3.782  0.0554  0.8542  1.5965
    1SOL    MW4 9576   4.270   1.543   3.776  0.1516  0.9372 -0.3209
    1SOL     OW 9577   4.055   1.664   3.720 -0.4489 -0.3519  0.2754
    1SOL    HW2 9578   4.051   1.751   3.761  2.3146 -0.2349  0.3744
    1SOL    HW3 9579   3.991   1.612   3.768 -0.5649  1.0462  1.6813
    1SOL    MW4 9580   4.046   1.669   3.732 -0.0997 -0.1520  0.4740
    1SOL     OW 9581   4.057   1.914   3.831 -0.2950 -0.3489 -0.9059
    1SOL    HW2 9582   4.049   1.913   3.927 -2.6635 -1.3572 -1.0804
    1SOL    HW3 9583   4.137   1.964   3.815 -0.3563  0.6529  1.5647
    1SOL    MW4 9584   4.067   1.920   3.842 -0.6156 -0.3498 -0.6030
    1SOL     OW 9585   4.309   2.039   3.730  0.2959 -0.2156 -0.1776
    1SOL    HW2 9586   4.288   2.128   3.756 -0.1575 -0.5102  0.4755
    1SOL    HW3 9587   4.308   2.041   3.634  1.2504  0.7024 -0.1744
    1SOL    MW4 9588   4.306   2.051   3.721  0.3619 -0.1333 -0.0908
    1SOL     OW 9589   4.268   2.286   3.848 -0.0699 -0.0150 -0.0131
    1SOL    HW2 9590   4.280   2.302   3.942  2.5334  0.4577 -0.3934
    1SOL    HW3 9591   4.191   2.339   3.825 -0.1140  0.6825  1.6450
    1SOL    MW4 9592   4.260   2.295   3.858  0.2680  0.1395  0.1552
    1SOL     OW 9593   4.049   2.451   3.777 -0.0699  0.0594 -0.3629
    1SOL    HW2 9594   4.051   2.543   3.803  0.2169  0.1487 -0.6907
    1SOL    HW3 9595   3.979   2.413   3.830 -0.0974  0.4334 -0.1212
    1SOL    MW4 9596   4.040   2.458   3.788 -0.0358  0.1204 -0.3743
    1SOL     OW 9597   4.036   2.719   3.872  0.6235 -0.2601  0.0488
    1SOL    HW2 9598   4.042   2.715   3.968  1.9340 -0.9497 -0.0397
    1SOL    HW3 9599   4.114   2.768   3.846  0.4628 -0.4026 -0.6861
    1SOL    MW4 9600   4.047   2.725   3.882  0.7753 -0.3698 -0.0598
    1SOL     OW 9601   4.265   2.857   3.784 -0.5096  0.0634 -0.1405
    1SOL    HW2 9602   4.298   2.945   3.803 -1.2635  0.7820 -1.9979
    1SOL    HW3 9603   4.330   2.798   3.821  0.7127  1.4134 -0.1109
    1SOL    MW4 9604   4.278   2.861   3.792 -0.4482  0.3366 -0.3815
    1SOL     OW 9605   4.310   3.104   3.886  0.1318  0.0982  0.0098
    1SOL    HW2 9606   4.239   3.156   3.852  0.0883  0.1616  0.1941
    1SOL    HW3 9607   4.389   3.145   3.852  0.0833  0.0903 -0.1096
    1SOL    MW4 9608   4.311   3.116   3.877  0.1197  0.1054  0.0184
    1SOL     OW 9609   4.083   3.252   3.814 -0.4790  0.1368 -0.0094
    1SOL    HW2 9610   3.999   3.217   3.842  0.1943 -1.5599 -0.0305
    1SOL    HW3 9611   4.075   3.261   3.719 -0.2092 -1.2351 -0.1677
    1SOL    MW4 9612   4.071   3.248   3.805 -0.3548 -0.2677 -0.0331
    1SOL     OW 9613   4.076   3.506   3.927 -0.2985  0.2428  0.3587
    1SOL    HW2 9614   4.087   3.418   3.890 -1.8907 -0.4574  1.4947
    1SOL    HW3 9615   3.998   3.541   3.885 -0.5021  0.5340  0.9634
    1SOL    MW4 9616   4.068   3.499   3.917 -0.5355  0.1891  0.5882
    1SOL     OW 9617   4.289   3.651   3.788 -0.1295  0.3870 -0.1420
    1SOL    HW2 9618   4.212   3.609   3.826  0.3911 -1.2075 -0.8305
    1SOL    HW3 9619   4.363   3.605   3.829  0.4372 -0.1117 -1.7184
    1SOL    MW4 9620   4.289   3.639   3.799  0.0143  0.1109 -0.4411
    1SOL     OW 9621   4.259   3.903   3.894  0.3154 -0.4220  0.1807
    1SOL    HW2 9622   4.183   3.938   3.848  1.4519  0.9199 -0.7529
    1SOL    HW3 9623   4.280   3.821   3.849 -0.3011 -0.5618  0.1512
    1SOL    MW4 9624   4.252   3.897   3.882  0.3839 -0.2630  0.0536
    1SOL     OW 9625   4.020   4.011   3.779  0.3947 -0.3347  0.1834
    1SOL    HW2 9626   4.037   4.104   3.797  0.5568 -0.3727  0.2206
    1SOL    HW3 9627   4.036   4.001   3.686  3.1243 -0.9417  0.6796
    1SOL    MW4 9628   4.024   4.022   3.769  0.7763 -0.4201  0.2537
    1SOL     OW 9629   4.049   4.271   3.872  0.2447 -0.3022 -0.2699
    1SOL    HW2 9630   4.052   4.284   3.967 -3.2987  1.0724 -0.2650
    1SOL    HW3 9631   4.132   4.307   3.840  1.2070 -0.2263  2.2473
    1SOL    MW4 9632   4.061   4.278   3.880 -0.0963 -0.1101  0.0627
    1SOL     OW 9633   4.273   4.429   3.743  0.1981 -0.3048  0.2267
    1SOL    HW2 9634   4.266   4.514   3.787 -0.8115 -0.0533 -0.3946
    1SOL    HW3 9635   4.352   4.390   3.780  0.2105  0.5428  1.1417
    1SOL    MW4 9636   4.283   4.435   3.754  0.0668 -0.1597  0.2656
    1SOL     OW 9637   0.253   4.653   4.105  0.0982 -0.3892 -0.0496
    1SOL    HW2 9638   0.326   4.686   4.158  0.1768  0.0419 -0.4261
    1SOL    HW3 9639   0.229   4.570   4.146  0.3564 -0.2011  0.4829
    1SOL    MW4 9640   0.260   4.646   4.117  0.1426 -0.3080 -0.0291
    1SOL     OW 9641   0.014   0.084   4.169 -0.3239  0.2535 -0.4219
    1SOL    HW2 9642   0.020   0.100   4.263 -2.6195 -1.2956  0.0083
    1SOL    HW3 9643   0.105   0.073   4.141  0.2734 -1.2466  1.9799
    1SOL    MW4 9644   0.027   0.085   4.178 -0.5480 -0.1488 -0.0477
    1SOL     OW 9645   0.018   0.401   4.127 -0.4318 -0.4414 -0.4651
    1SOL    HW2 9646   0.017   0.306   4.141 -0.2770 -0.3803 -0.0141
    1SOL    HW3 9647   0.030   0.411   4.033 -1.1504 -0.8744 -0.6060
    1SOL    MW4 9648   0.020   0.389   4.116 -0.5062 -0.4905 -0.4239
    1SOL     OW 9649   0.207   0.535   4.275 -0.0667 -0.2354  0.4682
    1SOL    HW2 9650   0.276   0.477   4.244 -0.0199  0.2296 -0.2978
    1SOL    HW3 9651   0.126   0.500   4.239 -0.0488  0.1274  0.0764
    1SOL    MW4 9652   0.206   0.523   4.266 -0.0582 -0.1262  0.3157
    1SOL     OW 9653   0.210   0.794   4.187 -0.2438  0.4100  0.0164
    1SOL    HW2 9654   0.120   0.815   4.210 -0.6349 -0.1741 -0.9581
    1SOL    HW3 9655   0.225   0.707   4.225  0.5840  1.3389  1.9284
    1SOL    MW4 9656   0.200   0.785   4.195 -0.1862  0.4556  0.1397
    1SOL     OW 9657   4.444   0.869   4.240  0.1448 -0.0074 -0.6260
    1SOL    HW2 9658   4.369   0.829   4.197 -1.2664  0.9158  0.9040
    1SOL    HW3 9659   4.448   0.958   4.205  0.2058  0.1148 -0.3116
    1SOL    MW4 9660   4.435   0.875   4.230 -0.0339  0.1305 -0.3824
    1SOL     OW 9661   4.455   1.134   4.162 -0.4539  0.2271  0.0636
    1SOL    HW2 9662   4.535   1.167   4.202  0.4409 -0.9147 -0.7218
    1SOL    HW3 9663   4.474   1.134   4.068 -1.3603 -0.0920 -0.1220
    1SOL    MW4 9664   4.468   1.138   4.155 -0.4554  0.0345 -0.0648
    1SOL     OW 9665   0.173   1.279   4.270  0.0542 -0.0561 -0.3892
    1SOL    HW2 9666   0.180   1.306   4.362 -0.8610  0.8508 -0.5758
    1SOL    HW3 9667   0.260   1.245   4.248 -0.0938 -1.5844  1.2179
    1SOL    MW4 9668   0.185   1.278   4.279 -0.0861 -0.1380 -0.2017
    1SOL     OW 9669   4.479   1.659   4.495  0.0058 -0.3974 -0.3288
    1SOL    HW2 9670   4.496   1.646   4.402  2.7658 -0.8936  0.1978
    1SOL    HW3 9671   4.412   1.727   4.499  1.5951  1.3524 -2.6218
    1SOL    MW4 9672   4.472   1.666   4.483  0.5794 -0.2320 -0.5617
    1SOL     OW 9673   4.478   1.679   4.227  0.3436 -0.3934 -0.6191
    1SOL    HW2 9674   4.406   1.640   4.177  0.1971  0.1014 -0.7969
    1SOL    HW3 9675   4.479   1.771   4.200  0.9348 -0.3602 -0.4934
    1SOL    MW4 9676   4.469   1.686   4.217  0.4020 -0.3238 -0.6261
    1SOL     OW 9677   0.233   2.087   4.274  0.0910 -0.0408  0.4680
    1SOL    HW2 9678   0.243   2.088   4.369  1.8615 -0.8508  0.3024
    1SOL    HW3 9679   0.292   2.018   4.243 -1.0999 -0.3794 -1.1592
    1SOL    MW4 9680   0.242   2.078   4.282  0.1674 -0.1922  0.2317
    1SOL     OW 9681   0.632   1.546   4.654 -0.6813  0.1964 -0.3952
    1SOL    HW2 9682   0.568   1.564   4.586 -1.0028  0.6231  0.0188
    1SOL    HW3 9683   0.581   1.513   4.728 -0.2998 -0.5822 -0.4674
    1SOL    MW4 9684   0.617   1.544   4.655 -0.6734  0.1500 -0.3495
    1SOL     OW 9685   0.238   2.359   4.167 -0.1790  0.0442 -0.1986
    1SOL    HW2 9686   0.321   2.384   4.206  0.4180 -1.9903 -0.1069
    1SOL    HW3 9687   0.221   2.271   4.201 -1.5787 -0.2012 -1.4695
    1SOL    MW4 9688   0.247   2.350   4.176 -0.2849 -0.2568 -0.3548
    1SOL     OW 9689   4.489   2.485   4.230 -0.0574 -0.4655  0.2206
    1SOL    HW2 9690   4.422   2.420   4.209  0.7561 -1.2185 -0.0548
    1SOL    HW3 9691   4.570   2.447   4.198  0.3997  0.7685 -0.1109
    1SOL    MW4 9692   4.491   2.471   4.223  0.1103 -0.4022  0.1411
    1SOL     OW 9693   4.469   2.762   4.167 -0.6062  0.0106 -0.5539
    1SOL    HW2 9694   4.559   2.790   4.183 -0.8905  0.9056 -0.5220
    1SOL    HW3 9695   4.469   2.669   4.192 -0.0941  0.4115  0.9887
    1SOL    MW4 9696   4.481   2.753   4.172 -0.5762  0.1817 -0.3467
    1SOL     OW 9697   0.219   2.863   4.270  0.1100 -0.3492  0.0353
    1SOL    HW2 9698   0.308   2.828   4.260 -0.2274 -1.3756  0.5859
    1SOL    HW3 9699   0.227   2.954   4.243  1.0434 -0.7850 -1.2135
    1SOL    MW4 9700   0.232   2.870   4.265  0.1886 -0.5424 -0.0567
    1SOL     OW 9701   0.227   3.119   4.160  0.7599 -0.0975 -0.0626
    1SOL    HW2 9702   0.308   3.158   4.191  0.8949 -0.4448  0.0274
    1SOL    HW3 9703   0.158   3.172   4.198  0.9266 -0.3596  0.6188
    1SOL    MW4 9704   0.229   3.131   4.169  0.7997 -0.1779  0.0391
    1SOL     OW 9705   0.005   3.250   4.285  0.2724  0.5476  0.2755
    1SOL    HW2 9706  -0.085   3.223   4.265 -0.1615  1.0757  1.4726
    1SOL    HW3 9707   0.016   3.333   4.239  0.0872  0.5781  0.2871
    1SOL    MW4 9708  -0.006   3.257   4.277  0.1912  0.6213  0.4354
    1SOL     OW 9709   0.030   3.514   4.198 -0.3019 -0.0927 -0.1351
    1SOL    HW2 9710  -0.056   3.526   4.237  0.0677 -1.1349  1.0286
    1SOL    HW3 9711   0.018   3.537   4.106 -1.2661  2.0044  0.4792
    1SOL    MW4 9712   0.017   3.519   4.191 -0.3803  0.0465  0.0997
    1SOL     OW 9713   0.227   3.673   4.283  0.0103 -0.4465 -0.0536
    1SOL    HW2 9714   0.306   3.620   4.290  1.0916  1.2623  0.9550
    1SOL    HW3 9715   0.160   3.612   4.251  1.0704 -2.5456  1.6331
    1SOL    MW4 9716   0.228   3.657   4.279  0.2928 -0.4981  0.3018
    1SOL     OW 9717   0.203   3.904   4.128  0.1288 -0.6097  0.8071
    1SOL    HW2 9718   0.125   3.945   4.167  0.3112 -0.5540  1.1133
    1SOL    HW3 9719   0.219   3.827   4.182  1.0750  0.1057  1.5509
    1SOL    MW4 9720   0.194   3.899   4.140  0.2777 -0.5081  0.9456
    1SOL     OW 9721   0.010   4.062   4.259  0.1021 -0.0081  0.1323
    1SOL    HW2 9722   0.027   4.078   4.351  1.5067 -2.4607  0.3359
    1SOL    HW3 9723  -0.067   4.005   4.258 -1.0954  1.5744 -0.3197
    1SOL    MW4 9724   0.002   4.057   4.271  0.1297 -0.1225  0.0997
    1SOL     OW 9725   4.484   4.301   4.132  0.0130  0.0437  0.3253
    1SOL    HW2 9726   4.497   4.210   4.161  1.3010  0.2319  0.3418
    1SOL    HW3 9727   4.484   4.295   4.037 -0.9561 -0.1105  0.3246
    1SOL    MW4 9728   4.486   4.288   4.123  0.0548  0.0477  0.3271
    1SOL     OW 9729   0.195   4.433   4.261 -0.1495  0.2045 -0.1215
    1SOL    HW2 9730   0.180   4.423   4.355 -0.3877 -0.6477 -0.2510
    1SOL    HW3 9731   0.110   4.414   4.221 -0.0377  0.5258 -0.5137
    1SOL    MW4 9732   0.182   4.429   4.268 -0.1662  0.1345 -0.1907
    1SOL     OW 9733   0.684   0.008   4.152 -0.3033  0.1652 -0.1565
    1SOL    HW2 9734   0.605   0.049   4.187  0.8803  2.0464  0.3558
    1SOL    HW3 9735   0.679   0.021   4.057 -0.6892  0.1292 -0.1382
    1SOL    MW4 9736   0.673   0.015   4.144 -0.1981  0.4087 -0.0858
    1SOL     OW 9737   0.452   0.086   4.284  0.0041 -0.4799 -0.2957
    1SOL    HW2 9738   0.482   0.093   4.375 -1.6863 -0.1772  0.2561
    1SOL    HW3 9739   0.443   0.176   4.255 -0.2009 -0.5728 -0.5161
    1SOL    MW4 9740   0.455   0.099   4.292 -0.2459 -0.4522 -0.2522
    1SOL     OW 9741   0.418   0.371   4.196 -0.1649 -0.3737 -0.3296
    1SOL    HW2 9742   0.496   0.414   4.233 -0.8622 -0.8740  1.8204
    1SOL    HW3 9743   0.430   0.378   4.101  1.6565  1.0743 -0.0435
    1SOL    MW4 9744   0.430   0.378   4.189 -0.0166 -0.2486 -0.0086
    1SOL     OW 9745   0.662   0.467   4.288  0.0257 -0.3504 -0.1224
    1SOL    HW2 9746   0.745   0.441   4.249  0.0230 -0.7038  0.1073
    1SOL    HW3 9747   0.655   0.561   4.269  0.3734 -0.3653 -0.3264
    1SOL    MW4 9748   0.672   0.476   4.280  0.0712 -0.3991 -0.1192
    1SOL     OW 9749   0.634   0.735   4.210  0.1563  0.0771  0.1833
    1SOL    HW2 9750   0.566   0.799   4.230  0.8668  0.9403 -0.1857
    1SOL    HW3 9751   0.634   0.728   4.115  0.2438 -0.3043  0.2080
    1SOL    MW4 9752   0.625   0.742   4.200  0.2616  0.1407  0.1378
    1SOL     OW 9753   0.448   0.925   4.256 -0.5250  0.3300  0.1962
    1SOL    HW2 9754   0.441   1.020   4.249 -0.4248  0.3101 -0.2160
    1SOL    HW3 9755   0.361   0.892   4.229 -0.3433  0.2779 -0.3331
    1SOL    MW4 9756   0.435   0.933   4.251 -0.4878  0.3204  0.0715
    1SOL     OW 9757   0.437   1.198   4.174  0.4736 -0.2225  0.4218
    1SOL    HW2 9758   0.524   1.226   4.201  0.4113 -0.9834  1.4560
    1SOL    HW3 9759   0.444   1.182   4.080  0.9205  1.6595  0.1237
    1SOL    MW4 9760   0.449   1.200   4.165  0.5243 -0.0746  0.5188
    1SOL     OW 9761   0.677   1.287   4.285  0.3551 -0.1961 -0.2505
    1SOL    HW2 9762   0.673   1.274   4.379 -0.4732 -1.8195 -0.4904
    1SOL    HW3 9763   0.665   1.381   4.273 -0.4805 -0.0968  1.2106
    1SOL    MW4 9764   0.675   1.298   4.296  0.1356 -0.3972 -0.0901
    1SOL     OW 9765   0.660   1.530   4.183  0.1677  0.0855 -0.0375
    1SOL    HW2 9766   0.730   1.596   4.189  0.9337 -0.7780  0.7428
    1SOL    HW3 9767   0.652   1.511   4.090  1.1444  0.0178 -0.1142
    1SOL    MW4 9768   0.668   1.536   4.172  0.3976 -0.0374  0.0553
    1SOL     OW 9769   0.182   1.514   4.130 -0.3666 -0.3177  0.1318
    1SOL    HW2 9770   0.156   1.437   4.181 -0.6905  0.3499  0.9932
    1SOL    HW3 9771   0.116   1.580   4.151  2.0108  1.4508  2.4552
    1SOL    MW4 9772   0.170   1.512   4.139 -0.0956  0.0039  0.5517
    1SOL     OW 9773   0.446   1.941   4.182  0.2887  0.2981  0.0841
    1SOL    HW2 9774   0.451   1.846   4.190  0.5545  0.3044  0.0046
    1SOL    HW3 9775   0.469   1.959   4.091  0.8766  0.4847  0.2692
    1SOL    MW4 9776   0.450   1.931   4.171  0.4013  0.3235  0.0978
    1SOL     OW 9777   0.632   2.132   4.276 -0.1661 -0.0378 -0.0739
    1SOL    HW2 9778   0.629   2.147   4.370 -1.5331  1.7958 -0.3857
    1SOL    HW3 9779   0.565   2.066   4.260 -0.6715  0.4271  0.1126
    1SOL    MW4 9780   0.623   2.125   4.286 -0.4131  0.2654 -0.0901
    1SOL     OW 9781   0.687   2.360   4.144 -0.0201 -0.2519  0.1295
    1SOL    HW2 9782   0.670   2.272   4.179 -1.1790 -0.1401 -0.1275
    1SOL    HW3 9783   0.685   2.349   4.049 -0.0382  0.0312  0.0967
    1SOL    MW4 9784   0.685   2.347   4.136 -0.1754 -0.1998  0.0911
    1SOL     OW 9785   0.483   2.488   4.284 -0.3434  0.0406 -0.1454
    1SOL    HW2 9786   0.480   2.579   4.256  0.5912  0.3337  0.6518
    1SOL    HW3 9787   0.559   2.452   4.240 -0.5312 -0.2704 -0.2146
    1SOL    MW4 9788   0.493   2.495   4.275 -0.2449  0.0381 -0.0496
    1SOL     OW 9789   0.462   2.735   4.186 -0.5336 -0.1559  0.2330
    1SOL    HW2 9790   0.539   2.777   4.223 -0.2196 -0.9498  0.4984
    1SOL    HW3 9791   0.480   2.728   4.092 -0.9667  1.0957  0.0527
    1SOL    MW4 9792   0.474   2.740   4.179 -0.5493 -0.0956  0.2451
    1SOL     OW 9793   0.697   2.868   4.255 -0.0706  0.0765  0.0452
    1SOL    HW2 9794   0.713   2.884   4.348  1.4033 -0.1530 -0.1545
    1SOL    HW3 9795   0.694   2.955   4.216 -1.1182  0.1918  0.3662
    1SOL    MW4 9796   0.699   2.881   4.263 -0.0144  0.0613  0.0610
    1SOL     OW 9797   0.665   3.117   4.142  0.9394 -0.1921 -0.0019
    1SOL    HW2 9798   0.736   3.175   4.171  0.6454  0.1740 -0.0111
    1SOL    HW3 9799   0.590   3.142   4.196  0.8131 -0.5711 -0.0021
    1SOL    MW4 9800   0.664   3.128   4.153  0.8840 -0.1941 -0.0029
    1SOL     OW 9801   0.458   3.238   4.263 -0.0477 -0.4407  0.5291
    1SOL    HW2 9802   0.457   3.234   4.359  2.6189  0.7024  0.6269
    1SOL    HW3 9803   0.451   3.331   4.243  1.0136 -0.5537 -0.3735
    1SOL    MW4 9804   0.457   3.250   4.273  0.4441 -0.3047  0.4230
    1SOL     OW 9805   0.477   3.511   4.196 -0.1662  0.2458  0.3914
    1SOL    HW2 9806   0.559   3.559   4.211 -1.1747  2.2593 -0.3483
    1SOL    HW3 9807   0.466   3.511   4.101 -0.8401 -0.3458  0.4653
    1SOL    MW4 9808   0.487   3.518   4.185 -0.3881  0.4334  0.3033
    1SOL     OW 9809   0.686   3.661   4.283  0.1157 -0.3072  0.3772
    1SOL    HW2 9810   0.684   3.661   4.379  0.5144 -0.1192  0.3845
    1SOL    HW3 9811   0.769   3.619   4.261  0.0078 -0.3839  0.1119
    1SOL    MW4 9812   0.697   3.655   4.293  0.1541 -0.2923  0.3428
    1SOL     OW 9813   0.675   3.925   4.165 -0.2271  0.2143 -0.7590
    1SOL    HW2 9814   0.595   3.968   4.194 -0.3182  0.5235 -1.4663
    1SOL    HW3 9815   0.669   3.836   4.201 -0.0837  0.7498  0.6038
    1SOL    MW4 9816   0.664   3.919   4.173 -0.2202  0.3259 -0.6723
    1SOL     OW 9817   0.429   4.026   4.229  0.4574 -0.2831 -0.1449
    1SOL    HW2 9818   0.411   4.119   4.217 -1.8461 -0.5150  1.3017
    1SOL    HW3 9819   0.353   3.981   4.191  0.0909 -1.4518  1.8933
    1SOL    MW4 9820   0.417   4.032   4.222  0.1051 -0.4678  0.3147
    1SOL     OW 9821   0.431   4.299   4.193  0.0175  0.3257 -0.0594
    1SOL    HW2 9822   0.361   4.350   4.233 -0.7558 -0.5499 -0.2891
    1SOL    HW3 9823   0.415   4.306   4.099  0.9267  1.0914 -0.1704
    1SOL    MW4 9824   0.420   4.307   4.186  0.0354  0.3104 -0.1049
    1SOL     OW 9825   0.676   4.390   4.239 -0.0436 -0.2847  0.2629
    1SOL    HW2 9826   0.588   4.355   4.227 -0.2816 -0.2175  1.7193
    1SOL    HW3 9827   0.674   4.477   4.200 -0.7940 -0.0422  0.8512
    1SOL    MW4 9828   0.664   4.397   4.232 -0.1740 -0.2437  0.5326
    1SOL     OW 9829   1.130   4.625   4.106  0.3385 -0.2838  0.1030
    1SOL    HW2 9830   1.133   4.533   4.131  2.7415 -0.2088  0.2803
    1SOL    HW3 9831   1.130   4.624   4.010  1.3247 -0.4819  0.0967
    1SOL    MW4 9832   1.131   4.613   4.096  0.7857 -0.2999  0.1254
    1SOL     OW 9833   0.927   0.082   4.259 -0.2369 -0.0272 -0.3901
    1SOL    HW2 9834   0.993   0.039   4.204  1.2435 -0.6302  1.7726
    1SOL    HW3 9835   0.843   0.052   4.224  0.6935 -1.2971 -1.5953
    1SOL    MW4 9836   0.925   0.073   4.247  0.0811 -0.2743 -0.2642
    1SOL     OW 9837   0.907   0.342   4.181 -0.1504  0.1243  0.5373
    1SOL    HW2 9838   0.978   0.383   4.230 -0.1772  1.0682 -0.2028
    1SOL    HW3 9839   0.912   0.249   4.205  0.5705  0.3855  1.4114
    1SOL    MW4 9840   0.917   0.335   4.191 -0.0587  0.2833  0.5550
    1SOL     OW 9841   1.167   0.469   4.244 -0.1615 -0.5279 -0.0230
    1SOL    HW2 9842   1.215   0.498   4.321 -0.1194 -0.1865 -0.1772
    1SOL    HW3 9843   1.228   0.412   4.197 -0.0318 -0.3824 -0.0308
    1SOL    MW4 9844   1.181   0.465   4.248 -0.1389 -0.4637 -0.0448
    1SOL     OW 9845   1.107   0.728   4.168  0.0522  0.1317  0.0003
    1SOL    HW2 9846   1.183   0.762   4.215 -0.4780  1.4624 -0.0880
    1SOL    HW3 9847   1.111   0.633   4.181  0.6630  0.3661  1.6092
    1SOL    MW4 9848   1.117   0.720   4.176  0.0628  0.3382  0.2017
    1SOL     OW 9849   0.885   0.888   4.259 -0.0357 -0.5064 -0.0933
    1SOL    HW2 9850   0.953   0.831   4.224 -0.1953 -0.2930 -0.7561
    1SOL    HW3 9851   0.804   0.837   4.248 -0.0190 -0.6488  0.4400
    1SOL    MW4 9852   0.883   0.874   4.253 -0.0545 -0.4971 -0.1101
    1SOL     OW 9853   0.883   1.157   4.175  0.1909 -0.1233  0.2946
    1SOL    HW2 9854   0.883   1.065   4.203  0.5325 -0.1400  0.2444
    1SOL    HW3 9855   0.808   1.195   4.219  0.4720 -0.2534  0.8951
    1SOL    MW4 9856   0.873   1.150   4.185  0.2730 -0.1427  0.3672
    1SOL     OW 9857   1.122   1.284   4.219  0.0039  0.0574 -0.0975
    1SOL    HW2 9858   1.129   1.311   4.310  0.2144 -0.4784  0.0403
    1SOL    HW3 9859   1.039   1.236   4.214 -0.4278  0.8045 -0.3693
    1SOL    MW4 9860   1.112   1.281   4.230 -0.0253  0.0852 -0.1154
    1SOL     OW 9861   1.091   1.539   4.115  0.0447 -0.5861  0.3086
    1SOL    HW2 9862   1.010   1.586   4.137 -0.3095 -1.0656  0.0283
    1SOL    HW3 9863   1.081   1.453   4.157 -0.1181 -1.0818 -0.7493
    1SOL    MW4 9864   1.079   1.534   4.124 -0.0235 -0.7148  0.1321
    1SOL     OW 9865   0.882   1.698   4.207 -0.0392  0.0109  0.4344
    1SOL    HW2 9866   0.898   1.682   4.300  0.5546 -0.3497  0.2694
    1SOL    HW3 9867   0.864   1.792   4.202 -0.7887 -0.0958  1.0128
    1SOL    MW4 9868   0.881   1.709   4.219 -0.0598 -0.0508  0.4892
    1SOL     OW 9869   0.863   2.001   4.159  0.4020  0.3484 -0.3422
    1SOL    HW2 9870   0.781   2.038   4.191 -0.3006 -1.9511  0.6388
    1SOL    HW3 9871   0.847   1.984   4.066  0.6167  2.1201 -0.7183
    1SOL    MW4 9872   0.850   2.004   4.151  0.3377  0.2789 -0.2623
    1SOL     OW 9873   1.123   2.020   4.238  0.2288 -0.2293 -0.1955
    1SOL    HW2 9874   1.138   1.999   4.331 -1.2848 -1.3992 -0.1897
    1SOL    HW3 9875   1.028   2.020   4.229  0.3362  1.0473 -1.5118
    1SOL    MW4 9876   1.113   2.017   4.249  0.0433 -0.2153 -0.3686
    1SOL     OW 9877   1.149   2.328   4.158  0.0827 -0.0980  0.6749
    1SOL    HW2 9878   1.193   2.363   4.235  0.3758  0.0905  0.4223
    1SOL    HW3 9879   1.141   2.234   4.176  1.4422 -0.2926  0.3106
    1SOL    MW4 9880   1.154   2.320   4.171  0.3008 -0.0987  0.5932
    1SOL     OW 9881   0.919   2.471   4.236  0.2555  0.4885 -0.0571
    1SOL    HW2 9882   1.002   2.434   4.205  0.6503  2.4462 -1.3833
    1SOL    HW3 9883   0.852   2.424   4.186  0.5709 -0.6504  0.5578
    1SOL    MW4 9884   0.921   2.460   4.225  0.3492  0.5965 -0.1507
    1SOL     OW 9885   0.877   2.710   4.144 -0.0448 -0.1113  0.1971
    1SOL    HW2 9886   0.880   2.624   4.186 -0.9140  0.2465  1.0202
    1SOL    HW3 9887   0.808   2.757   4.191  1.0897  1.3784  0.3925
    1SOL    MW4 9888   0.868   2.705   4.156 -0.0098  0.1326  0.3314
    1SOL     OW 9889   1.110   2.853   4.243 -0.1210  0.3017 -0.1224
    1SOL    HW2 9890   1.100   2.944   4.213  1.2044  0.0196 -1.4440
    1SOL    HW3 9891   1.033   2.808   4.208 -0.5396  0.8079  0.1353
    1SOL    MW4 9892   1.098   2.859   4.234 -0.0015  0.3314 -0.2627
    1SOL     OW 9893   1.078   3.109   4.180 -0.0384 -0.1150  0.0856
    1SOL    HW2 9894   1.158   3.155   4.204  0.9211 -1.9660  0.4921
    1SOL    HW3 9895   1.082   3.103   4.084 -0.3777  0.9767 -0.0093
    1SOL    MW4 9896   1.089   3.114   4.170  0.0434 -0.2151  0.1268
    1SOL     OW 9897   0.870   3.281   4.225  0.0412  0.1505  0.0506
    1SOL    HW2 9898   0.823   3.252   4.303 -0.5522  0.1539 -0.2987
    1SOL    HW3 9899   0.941   3.218   4.215  0.6918  0.6903  1.1255
    1SOL    MW4 9900   0.873   3.269   4.234  0.0486  0.2217  0.1464
    1SOL     OW 9901   0.924   3.545   4.161 -0.1977 -0.1883  0.5814
    1SOL    HW2 9902   0.918   3.456   4.195 -1.5519  0.2538  1.5402
    1SOL    HW3 9903   0.901   3.537   4.068  0.4324 -0.9466  0.4908
    1SOL    MW4 9904   0.920   3.532   4.153 -0.2931 -0.2303  0.6967
    1SOL     OW 9905   1.154   3.626   4.251 -0.5126  0.3167  0.0291
    1SOL    HW2 9906   1.154   3.708   4.203 -0.7277  0.1010 -0.3381
    1SOL    HW3 9907   1.072   3.583   4.226 -0.6055  0.1832  0.5490
    1SOL    MW4 9908   1.143   3.631   4.241 -0.5533  0.2706  0.0491
    1SOL     OW 9909   1.144   3.876   4.120 -0.0758  0.7484  0.3301
    1SOL    HW2 9910   1.215   3.905   4.178 -0.4412  2.7765 -0.2091
    1SOL    HW3 9911   1.068   3.927   4.147 -0.5211  0.9303 -1.2221
    1SOL    MW4 9912   1.144   3.886   4.132 -0.1827  1.0400  0.0539
    1SOL     OW 9913   0.929   4.026   4.243 -0.3249  0.0218 -0.2929
    1SOL    HW2 9914   0.930   4.112   4.201  1.2307  0.5491  0.7928
    1SOL    HW3 9915   0.841   3.992   4.225 -2.0641  3.1156  1.8212
    1SOL    MW4 9916   0.917   4.033   4.235 -0.3490  0.4992  0.1292
    1SOL     OW 9917   0.906   4.266   4.122 -0.4919 -0.2228 -0.1234
    1SOL    HW2 9918   0.983   4.298   4.169 -0.3697 -1.2498  0.4033
    1SOL    HW3 9919   0.832   4.304   4.168 -0.3540 -0.7651  0.5521
    1SOL    MW4 9920   0.907   4.275   4.134 -0.4575 -0.4296  0.0348
    1SOL     OW 9921   1.132   4.373   4.243 -0.5603  0.1113 -0.2987
    1SOL    HW2 9922   1.094   4.374   4.331  0.5864  0.2575  0.2096
    1SOL    HW3 9923   1.213   4.324   4.252  0.4709  1.6531 -0.8740
    1SOL    MW4 9924   1.138   4.367   4.256 -0.2730  0.3343 -0.3071
    1SOL     OW 9925   1.559   4.662   4.151  0.3306 -0.3481  0.2414
    1SOL    HW2 9926   1.630   4.690   4.208  0.5356 -2.1162  0.8883
    1SOL    HW3 9927   1.480   4.696   4.193  0.5371 -1.0432  1.2078
    1SOL    MW4 9928   1.558   4.670   4.164  0.3848 -0.6733  0.4544
    1SOL     OW 9929   1.334   0.067   4.272 -0.1749 -0.2065 -0.1437
    1SOL    HW2 9930   1.302   0.044   4.359 -0.3389  1.6044  0.2959
    1SOL    HW3 9931   1.270   0.028   4.212 -0.0301 -1.5140  0.5294
    1SOL    MW4 9932   1.321   0.059   4.276 -0.1774 -0.1401  0.0033
    1SOL     OW 9933   1.387   0.334   4.128  0.4166  0.3817 -0.2759
    1SOL    HW2 9934   1.461   0.384   4.163 -0.0056  0.5418  0.3977
    1SOL    HW3 9935   1.388   0.252   4.177 -0.7277  0.9817  0.7589
    1SOL    MW4 9936   1.397   0.330   4.139  0.2099  0.4820 -0.0501
    1SOL     OW 9937   1.610   0.454   4.241 -0.2887 -0.3070  0.1146
    1SOL    HW2 9938   1.610   0.457   4.336  1.6271 -0.0509  0.1321
    1SOL    HW3 9939   1.598   0.545   4.214 -0.9399 -0.3932  0.0960
    1SOL    MW4 9940   1.608   0.466   4.250 -0.1218 -0.2846  0.1144
    1SOL     OW 9941   1.557   0.719   4.188  0.3301 -0.3154 -0.7192
    1SOL    HW2 9942   1.631   0.769   4.222 -0.0258  0.4877 -1.0791
    1SOL    HW3 9943   1.562   0.732   4.093 -1.1112  0.9973 -0.6462
    1SOL    MW4 9944   1.567   0.728   4.180  0.0931 -0.0362 -0.7567
    1SOL     OW 9945   1.315   0.847   4.283  0.1340 -0.2535  0.0669
    1SOL    HW2 9946   1.309   0.939   4.257  0.5891 -0.2032  0.1409
    1SOL    HW3 9947   1.391   0.814   4.236  0.4946 -0.3640  0.7257
    1SOL    MW4 9948   1.324   0.855   4.274  0.2416 -0.2615  0.1640
    1SOL     OW 9949   1.314   1.109   4.184  0.0396  0.5452  0.0772
    1SOL    HW2 9950   1.242   1.170   4.205  1.5769  1.9944  1.3105
    1SOL    HW3 9951   1.320   1.111   4.089 -0.6029  1.5552  0.0449
    1SOL    MW4 9952   1.305   1.117   4.174  0.1577  0.8696  0.2356
    1SOL     OW 9953   1.559   1.204   4.260  0.0346  0.3434 -0.1604
    1SOL    HW2 9954   1.550   1.222   4.354  0.2813 -0.2134 -0.0222
    1SOL    HW3 9955   1.472   1.172   4.234  0.1442 -0.1101  0.0226
    1SOL    MW4 9956   1.546   1.202   4.269  0.0817  0.2100 -0.1183
    1SOL     OW 9957   1.565   1.486   4.206 -0.4550 -0.0743  0.1681
    1SOL    HW2 9958   1.475   1.519   4.204 -0.3718  0.1708  0.3536
    1SOL    HW3 9959   1.557   1.394   4.233 -0.7409 -0.4049 -1.0259
    1SOL    MW4 9960   1.552   1.478   4.209 -0.4816 -0.0856  0.0348
    1SOL     OW 9961   1.342   1.666   4.200  0.0434  0.1691 -0.2079
    1SOL    HW2 9962   1.353   1.742   4.142 -0.3524  1.5227  1.4290
    1SOL    HW3 9963   1.255   1.632   4.178  0.3445  0.0107 -1.1599
    1SOL    MW4 9964   1.332   1.672   4.190  0.0309  0.3268 -0.1178
    1SOL     OW 9965   1.354   1.913   4.080  0.0515 -0.0812 -0.0917
    1SOL    HW2 9966   1.425   1.944   4.136 -0.6423 -0.9322  1.2912
    1SOL    HW3 9967   1.274   1.937   4.126 -0.5843  1.0035 -1.7157
    1SOL    MW4 9968   1.353   1.920   4.094 -0.1240 -0.0504 -0.1235
    1SOL     OW 9969   1.556   2.011   4.247  0.3369 -0.3723 -0.1376
    1SOL    HW2 9970   1.541   1.986   4.338 -2.2034  0.2182 -0.3544
    1SOL    HW3 9971   1.609   2.090   4.251 -1.1375  0.5737  0.8953
    1SOL    MW4 9972   1.561   2.018   4.259 -0.1926 -0.1698 -0.0300
    1SOL     OW 9973   1.609   2.502   4.141  0.0824 -0.1892 -0.1785
    1SOL    HW2 9974   1.638   2.427   4.193  0.6171  0.3805  0.3597
    1SOL    HW3 9975   1.567   2.463   4.065  0.8704 -1.0397 -0.1928
    1SOL    MW4 9976   1.608   2.487   4.138  0.2569 -0.2265 -0.1092
    1SOL     OW 9977   1.457   2.604   4.352 -0.5368 -0.2788 -0.2968
    1SOL    HW2 9978   1.466   2.696   4.329  0.7154 -0.8061 -2.0217
    1SOL    HW3 9979   1.499   2.557   4.280  0.1894 -2.1341  1.2841
    1SOL    MW4 9980   1.464   2.610   4.340 -0.2756 -0.5934 -0.3161
    1SOL     OW 9981   1.344   2.772   4.090  0.5241 -0.2640 -0.0342
    1SOL    HW2 9982   1.415   2.811   4.141 -1.2532  0.2645  2.0819
    1SOL    HW3 9983   1.265   2.814   4.123 -0.9919 -2.4008 -0.8775
    1SOL    MW4 9984   1.343   2.783   4.101  0.0895 -0.4766  0.1340
    1SOL     OW 9985   1.574   2.549   4.592  0.3854 -0.4162  0.4001
    1SOL    HW2 9986   1.664   2.580   4.602  1.4877 -2.6385 -2.1033
    1SOL    HW3 9987   1.553   2.565   4.501 -1.5431 -0.5623  0.7962
    1SOL    MW4 9988   1.584   2.555   4.582  0.2764 -0.7286  0.1221
    1SOL     OW 9989   1.541   3.095   4.132 -0.0162  0.0381  0.6306
    1SOL    HW2 9990   1.630   3.102   4.166  0.2322 -2.0245  0.4907
    1SOL    HW3 9991   1.503   3.021   4.179 -1.4424  0.4862  0.2233
    1SOL    MW4 9992   1.548   3.086   4.142 -0.1717 -0.1750  0.5589
    1SOL     OW 9993   1.321   3.222   4.286 -0.4616  0.3892  0.1477
    1SOL    HW2 9994   1.404   3.178   4.271 -0.2953  0.4923  0.7450
    1SOL    HW3 9995   1.337   3.314   4.264 -0.8990  0.1095 -1.4202
    1SOL    MW4 9996   1.334   3.228   4.281 -0.4973  0.3660  0.0191
    1SOL     OW 9997   1.367   3.478   4.168  0.5510 -0.5841 -0.2425
    1SOL    HW2 9998   1.289   3.528   4.189  2.3558  1.9403  0.7224
    1SOL    HW3 9999   1.372   3.479   4.072  0.1511  0.4599 -0.2564
    1SOL    MW410000   1.358   3.485   4.158  0.7364 -0.1132 -0.1173
    1SOL     OW10001   1.610   3.608   4.245  0.1764  0.3349  0.0956
    1SOL    HW210002   1.593   3.625   4.337 -2.3851  1.9617 -0.6180
    1SOL    HW310003   1.534   3.558   4.215  0.0448  1.5140 -1.5876
    1SOL    MW410004   1.598   3.603   4.253 -0.1791  0.7048 -0.2198
    1SOL     OW10005   1.591   3.884   4.163 -0.4529  0.1631  0.2060
    1SOL    HW210006   1.500   3.912   4.173 -0.6019 -0.7975  1.7331
    1SOL    HW310007   1.591   3.791   4.185  1.1660  0.5161  1.8485
    1SOL    MW410008   1.579   3.875   4.167 -0.2590  0.0830  0.6242
    1SOL     OW10009   1.355   3.961   4.266 -0.1151  0.3447 -0.5215
    1SOL    HW210010   1.355   3.964   4.362  2.1289  0.4285 -0.4914
    1SOL    HW310011   1.363   4.053   4.239  2.4755  0.1083 -0.7010
    1SOL    MW410012   1.356   3.974   4.275  0.5229  0.3245 -0.5407
    1SOL     OW10013   1.350   4.218   4.212  0.2635  0.3867 -0.3123
    1SOL    HW210014   1.411   4.274   4.261  1.6292 -0.8178 -0.6311
    1SOL    HW310015   1.357   4.249   4.122 -0.6031  1.1345 -0.1289
    1SOL    MW410016   1.359   4.230   4.207  0.3294  0.3266 -0.3300
    1SOL     OW10017   1.523   4.417   4.296 -0.2317 -0.3643 -0.2547
    1SOL    HW210018   1.509   4.497   4.245 -2.0666 -0.7538 -0.3902
    1SOL    HW310019   1.606   4.382   4.263 -0.7118  0.1220 -2.0135
    1SOL    MW410020   1.532   4.423   4.285 -0.5372 -0.3510 -0.5045
    1SOL     OW10021   2.030   4.617   4.183 -0.2384 -0.0459  0.3135
    1SOL    HW210022   1.949   4.654   4.218 -0.5512  0.7512 -1.2049
    1SOL    HW310023   2.017   4.616   4.089  0.2027 -3.0727  0.2480
    1SOL    MW410024   2.018   4.622   4.176 -0.2215 -0.3405  0.1044
    1SOL     OW10025   1.809   0.048   4.300  0.5678 -0.0160  0.2834
    1SOL    HW210026   1.794   0.025   4.392 -2.1322  1.0573  0.1588
    1SOL    HW310027   1.821   0.143   4.301  2.1152 -0.1914 -0.3196
    1SOL    MW410028   1.808   0.057   4.312  0.4158  0.1024  0.1869
    1SOL     OW10029   1.855   0.319   4.210  0.0131  0.6496  0.2910
    1SOL    HW210030   1.919   0.368   4.261 -0.2626  0.3781  0.9022
    1SOL    HW310031   1.772   0.365   4.224 -0.3461 -0.2871  1.2847
    1SOL    MW410032   1.852   0.331   4.218 -0.0707  0.4902  0.5031
    1SOL     OW10033   2.055   0.504   4.295  0.3105  0.0830 -0.2439
    1SOL    HW210034   2.070   0.485   4.387 -0.9714  2.1007  0.4095
    1SOL    HW310035   2.121   0.453   4.249 -0.2518 -2.4569  1.6564
    1SOL    MW410036   2.066   0.495   4.301  0.0672  0.0140  0.0925
    1SOL     OW10037   1.959   0.761   4.161 -0.4512  0.5565  0.1445
    1SOL    HW210038   2.027   0.817   4.199  0.4605 -0.4325 -0.0275
    1SOL    HW310039   1.976   0.674   4.196  0.0085 -0.2471 -2.0092
    1SOL    MW410040   1.970   0.757   4.170 -0.2704  0.3200 -0.1626
    1SOL     OW10041   1.747   0.869   4.302 -0.0679  0.5931  0.2964
    1SOL    HW210042   1.761   0.961   4.278 -0.3508  0.9687  1.5645
    1SOL    HW310043   1.807   0.820   4.245 -1.1516  1.4236 -1.6206
    1SOL    MW410044   1.757   0.875   4.291 -0.2482  0.7523  0.2112
    1SOL     OW10045   1.795   1.108   4.177  0.2811  0.0264 -0.3050
    1SOL    HW210046   1.868   1.154   4.217 -0.0286 -0.2521  0.5826
    1SOL    HW310047   1.718   1.139   4.224 -0.0322 -0.6778 -0.3467
    1SOL    MW410048   1.794   1.118   4.188  0.1990 -0.1034 -0.1931
    1SOL     OW10049   2.006   1.226   4.311  0.0118 -0.5666 -0.0031
    1SOL    HW210050   2.093   1.216   4.273  0.7572  0.1398  1.4751
    1SOL    HW310051   1.986   1.319   4.301 -0.1543 -0.5423  0.5330
    1SOL    MW410052   2.015   1.237   4.305  0.0882 -0.4702  0.2632
    1SOL     OW10053   1.998   1.494   4.166  0.1618 -0.2462 -0.4394
    1SOL    HW210054   2.068   1.551   4.199 -0.0524  0.5465 -1.3448
    1SOL    HW310055   1.982   1.524   4.077 -2.1675  0.4004  0.1544
    1SOL    MW410056   2.005   1.506   4.159 -0.1736 -0.0563 -0.4802
    1SOL     OW10057   1.786   1.628   4.261 -0.6973 -0.2060 -0.0496
    1SOL    HW210058   1.850   1.581   4.207 -2.1661 -0.8315 -1.2834
    1SOL    HW310059   1.709   1.572   4.260 -0.5519 -0.6160  3.3276
    1SOL    MW410060   1.785   1.614   4.254 -0.8719 -0.3425  0.2337
    1SOL     OW10061   1.777   1.879   4.132  0.2313  0.0400 -0.3226
    1SOL    HW210062   1.790   1.789   4.163  1.1431  0.2831  0.0027
    1SOL    HW310063   1.694   1.906   4.172  0.8270 -0.0493  0.9681
    1SOL    MW410064   1.768   1.871   4.141  0.4302  0.0603 -0.1092
    1SOL     OW10065   1.717   2.253   4.261 -0.6716  0.3110 -0.4958
    1SOL    HW210066   1.787   2.274   4.199 -0.3718 -0.2796 -0.3621
    1SOL    HW310067   1.763   2.217   4.338 -1.0838  0.4132 -0.2005
    1SOL    MW410068   1.733   2.251   4.263 -0.6863  0.2465 -0.4392
    1SOL     OW10069   1.951   2.319   4.134  0.0533 -0.2286  0.2237
    1SOL    HW210070   1.989   2.343   4.050  0.2497 -0.5693  0.2168
    1SOL    HW310071   1.956   2.400   4.186 -0.0886 -0.0154 -0.0958
    1SOL    MW410072   1.957   2.333   4.130  0.0604 -0.2453  0.1807
    1SOL     OW10073   1.949   2.515   4.341 -0.3762  0.1789  0.1936
    1SOL    HW210074   1.901   2.575   4.397 -0.6907 -0.0198  0.1373
    1SOL    HW310075   2.040   2.545   4.346 -0.5661  0.7725  0.0076
    1SOL    MW410076   1.955   2.527   4.349 -0.4427  0.2310  0.1616
    1SOL     OW10077   1.803   2.687   4.087  0.0953 -0.4077 -0.2913
    1SOL    HW210078   1.733   2.621   4.099 -1.0438  1.0121  1.1001
    1SOL    HW310079   1.820   2.720   4.175  1.0761  0.7498 -0.9002
    1SOL    MW410080   1.796   2.682   4.100  0.0744 -0.0677 -0.1884
    1SOL     OW10081   1.813   2.850   4.307  0.0613 -0.0460 -0.0298
    1SOL    HW210082   1.879   2.833   4.374 -0.3353 -0.5817  0.2339
    1SOL    HW310083   1.855   2.910   4.246  0.3359  0.6685  0.8525
    1SOL    MW410084   1.827   2.856   4.308  0.0453 -0.0222  0.1216
    1SOL     OW10085   2.202   3.067   4.337  0.3504 -0.2526  0.3533
    1SOL    HW210086   2.213   2.990   4.394 -0.6018 -0.5467  0.1415
    1SOL    HW310087   2.139   3.039   4.271  0.8610  0.3479 -0.3877
    1SOL    MW410088   2.195   3.053   4.336  0.2921 -0.2120  0.2275
    1SOL     OW10089   1.799   3.161   4.238 -0.1126 -0.2502 -0.4366
    1SOL    HW210090   1.791   3.252   4.211  1.0669  0.3744  1.2011
    1SOL    HW310091   1.885   3.134   4.207 -0.2030 -0.6191 -0.3720
    1SOL    MW410092   1.809   3.170   4.230  0.0311 -0.2162 -0.2122
    1SOL     OW10093   1.798   3.437   4.149 -0.3605 -0.2529 -0.2093
    1SOL    HW210094   1.731   3.500   4.175  0.5926  0.9828 -0.6838
    1SOL    HW310095   1.793   3.436   4.054  1.4561  1.1652 -0.3376
    1SOL    MW410096   1.788   3.445   4.140  0.0049  0.0970 -0.2890
    1SOL     OW10097   2.047   3.530   4.251  0.2606  0.4130 -0.1088
    1SOL    HW210098   2.037   3.626   4.248 -1.0328  0.2856 -0.2497
    1SOL    HW310099   1.967   3.497   4.210  2.2039 -0.6780 -3.2135
    1SOL    MW410100   2.035   3.539   4.245  0.3459  0.2525 -0.5374
    1SOL     OW10101   2.029   3.805   4.247  0.3230  0.1659 -0.4240
    1SOL    HW210102   1.949   3.844   4.284 -0.0232 -1.0779  0.1811
    1SOL    HW310103   2.021   3.818   4.153 -1.0526 -0.7657 -0.4542
    1SOL    MW410104   2.017   3.812   4.240  0.0958 -0.1211 -0.3486
    1SOL     OW10105   1.807   3.993   4.286  0.8082 -0.6869 -0.4162
    1SOL    HW210106   1.790   4.085   4.265  0.4539 -0.7060 -0.1981
    1SOL    HW310107   1.732   3.945   4.251  0.1912 -0.7203  0.9080
    1SOL    MW410108   1.795   3.999   4.279  0.6801 -0.6938 -0.2127
    1SOL     OW10109   1.785   4.245   4.179 -0.2951  0.0903 -0.1098
    1SOL    HW210110   1.862   4.297   4.200 -0.5242  0.4273 -0.0977
    1SOL    HW310111   1.779   4.250   4.083  0.4669 -1.0424 -0.2171
    1SOL    MW410112   1.794   4.253   4.169 -0.2249 -0.0143 -0.1225
    1SOL     OW10113   1.997   4.373   4.295  0.0820  0.0740  0.3364
    1SOL    HW210114   2.011   4.372   4.390 -2.0650 -0.0503  0.6758
    1SOL    HW310115   2.003   4.466   4.272 -0.0741  0.1820  0.7131
    1SOL    MW410116   1.999   4.385   4.305 -0.2217  0.0720  0.4301
    1SOL     OW10117   2.470   4.601   4.157 -0.1251 -0.0321  0.4996
    1SOL    HW210118   2.543   4.657   4.184 -0.8360  1.2694 -0.2107
    1SOL    HW310119   2.498   4.512   4.179  2.0985  0.3423 -0.6326
    1SOL    MW410120   2.484   4.597   4.163  0.0744  0.1888  0.2565
    1SOL     OW10121   2.262   0.115   4.252 -0.0125 -0.8694 -0.4383
    1SOL    HW210122   2.328   0.056   4.215 -0.7664 -0.8511 -1.8742
    1SOL    HW310123   2.179   0.077   4.224 -0.4987  1.4036 -2.2429
    1SOL    MW410124   2.260   0.102   4.243 -0.1762 -0.5671 -0.8655
    1SOL     OW10125   2.266   0.373   4.166  0.2366  0.1974 -0.7653
    1SOL    HW210126   2.262   0.285   4.203 -1.9377 -0.0418 -1.5099
    1SOL    HW310127   2.266   0.360   4.072 -1.8811  1.0191 -0.9064
    1SOL    MW410128   2.266   0.360   4.159 -0.3300  0.2742 -0.8821
    1SOL     OW10129   2.506   0.487   4.243 -0.2767  0.7173 -0.4593
    1SOL    HW210130   2.493   0.511   4.335 -0.6023  1.3310 -0.6589
    1SOL    HW310131   2.424   0.444   4.218 -0.1239  0.3991 -0.4198
    1SOL    MW410132   2.493   0.485   4.252 -0.2999  0.7563 -0.4807
    1SOL     OW10133   2.454   0.772   4.163  0.3628 -0.2903 -0.0165
    1SOL    HW210134   2.452   0.679   4.185 -1.2007 -0.2875 -0.0712
    1SOL    HW310135   2.460   0.774   4.067 -1.3721 -0.3709 -0.1498
    1SOL    MW410136   2.454   0.760   4.153 -0.0725 -0.3006 -0.0420
    1SOL     OW10137   2.187   0.882   4.248  0.2198  0.3134 -0.0997
    1SOL    HW210138   2.182   0.871   4.343  0.8513 -2.0512 -0.3041
    1SOL    HW310139   2.272   0.845   4.224 -0.0957  0.5494 -1.6249
    1SOL    MW410140   2.198   0.876   4.257  0.2613  0.0325 -0.3285
    1SOL     OW10141   2.222   1.158   4.148 -0.1871  0.4925 -0.0696
    1SOL    HW210142   2.309   1.184   4.178  0.1599 -0.6172 -0.0801
    1SOL    HW310143   2.218   1.064   4.165 -0.5234  0.1068 -2.1881
    1SOL    MW410144   2.233   1.149   4.155 -0.1855  0.2952 -0.3505
    1SOL     OW10145   2.470   1.263   4.220  0.4443 -0.0612  0.4705
    1SOL    HW210146   2.470   1.266   4.316  0.7656 -1.1835  0.5068
    1SOL    HW310147   2.555   1.226   4.197  0.0534 -0.5338 -0.2228
    1SOL    MW410148   2.481   1.259   4.230  0.4354 -0.2716  0.3834
    1SOL     OW10149   2.467   1.536   4.127  0.1538 -0.0654  0.3300
    1SOL    HW210150   2.482   1.446   4.157 -0.5010 -0.2871 -0.0096
    1SOL    HW310151   2.465   1.530   4.032 -1.7487 -0.0038  0.3401
    1SOL    MW410152   2.469   1.523   4.119 -0.1833 -0.0865  0.2866
    1SOL     OW10153   2.226   1.642   4.239 -0.6986 -0.4115 -0.5386
    1SOL    HW210154   2.298   1.587   4.207 -0.3962 -0.3848  0.0972
    1SOL    HW310155   2.243   1.728   4.200  0.1856 -0.1375  0.4213
    1SOL    MW410156   2.238   1.646   4.229 -0.5422 -0.3718 -0.3285
    1SOL     OW10157   2.248   1.920   4.154 -0.3369 -0.0353 -0.3668
    1SOL    HW210158   2.324   1.958   4.197 -0.0972  1.1291 -1.7529
    1SOL    HW310159   2.173   1.951   4.205  0.0755 -0.5386  0.5398
    1SOL    MW410160   2.248   1.929   4.166 -0.2508  0.0520 -0.4296
    1SOL     OW10161   2.497   2.057   4.185  0.3760 -0.2107 -0.0239
    1SOL    HW210162   2.534   2.056   4.273 -0.7570  0.1956  0.4758
    1SOL    HW310163   2.571   2.041   4.127  1.0523 -0.9674  1.0303
    1SOL    MW410164   2.512   2.055   4.189  0.3157 -0.2570  0.1812
    1SOL     OW10165   2.418   2.341   4.151  0.3077 -0.0932  0.4377
    1SOL    HW210166   2.443   2.249   4.147  1.7000  0.2723  0.4952
    1SOL    HW310167   2.434   2.374   4.063 -1.0247 -0.1139  0.1871
    1SOL    MW410168   2.424   2.333   4.139  0.3154 -0.0477  0.4120
    1SOL     OW10169   2.486   2.521   4.534 -0.3467 -0.5256  0.2785
    1SOL    HW210170   2.407   2.472   4.509 -0.6536  0.7250 -1.3270
    1SOL    HW310171   2.458   2.576   4.607 -0.6113 -1.0812  0.5914
    1SOL    MW410172   2.472   2.522   4.540 -0.4222 -0.4337  0.1082
    1SOL     OW10173   2.091   2.730   4.101 -0.8696 -0.4734 -0.0215
    1SOL    HW210174   2.130   2.718   4.188 -0.7028 -2.4326 -0.3519
    1SOL    HW310175   2.014   2.674   4.102 -0.0160 -1.7172 -1.6486
    1SOL    MW410176   2.086   2.721   4.113 -0.7346 -0.8960 -0.2804
    1SOL     OW10177   2.463   2.720   4.340  0.0328 -0.6280  0.1785
    1SOL    HW210178   2.496   2.653   4.400 -0.5297  0.3467  1.6106
    1SOL    HW310179   2.368   2.719   4.354  0.0874  0.9124  0.6985
    1SOL    MW410180   2.455   2.711   4.350 -0.0343 -0.2959  0.4363
    1SOL     OW10181   2.411   2.943   4.198  0.2958 -0.2408 -0.0809
    1SOL    HW210182   2.331   2.982   4.232  0.5168  0.1098  0.0414
    1SOL    HW310183   2.420   2.860   4.244  0.6968  0.3193  0.8460
    1SOL    MW410184   2.402   2.937   4.208  0.3779 -0.1206  0.0572
    1SOL     OW10185   2.013   3.002   4.146 -0.3947 -0.5698 -0.0585
    1SOL    HW210186   1.999   3.034   4.057 -0.8339 -1.2121 -0.2185
    1SOL    HW310187   2.029   2.908   4.136 -1.9175 -0.9209  0.6640
    1SOL    MW410188   2.013   2.994   4.133 -0.6535 -0.7007  0.0157
    1SOL     OW10189   2.292   3.460   4.133 -0.1098  0.2179  0.1750
    1SOL    HW210190   2.333   3.383   4.172  0.3857  0.0893 -0.5849
    1SOL    HW310191   2.217   3.479   4.190 -0.7978 -1.3956 -0.1635
    1SOL    MW410192   2.287   3.452   4.146 -0.1354 -0.0119  0.0300
    1SOL     OW10193   2.498   3.613   4.267 -0.6548 -0.1195  0.4451
    1SOL    HW210194   2.449   3.548   4.217 -0.8608 -0.6304  1.3068
    1SOL    HW310195   2.480   3.696   4.222 -2.5209 -0.2641  0.8883
    1SOL    MW410196   2.489   3.616   4.254 -0.9279 -0.2060  0.6175
    1SOL     OW10197   2.432   3.870   4.161  0.1325 -0.4543  0.1620
    1SOL    HW210198   2.521   3.904   4.171  0.3134 -1.3219  1.6449
    1SOL    HW310199   2.427   3.845   4.069  0.8840  1.0599 -0.3228
    1SOL    MW410200   2.443   3.871   4.151  0.2553 -0.3691  0.2933
    1SOL     OW10201   2.235   3.970   4.323  0.0089  0.0506 -0.2399
    1SOL    HW210202   2.307   3.934   4.271  0.1334 -0.2665  0.1543
    1SOL    HW310203   2.163   3.908   4.311  0.2924 -0.4396  0.6141
    1SOL    MW410204   2.235   3.957   4.315  0.0627 -0.0558 -0.0753
    1SOL     OW10205   2.185   4.189   4.162  0.3436  0.3278 -0.0707
    1SOL    HW210206   2.181   4.112   4.218 -2.1468  0.4643 -0.0067
    1SOL    HW310207   2.133   4.255   4.207 -0.3076  0.9778 -1.7131
    1SOL    MW410208   2.178   4.188   4.175 -0.0708  0.4320 -0.2794
    1SOL     OW10209   2.434   4.278   4.255  0.1238 -0.1695 -0.2917
    1SOL    HW210210   2.493   4.238   4.191  0.6372 -0.0759  0.1184
    1SOL    HW310211   2.347   4.247   4.230  0.0714  1.4117 -2.2115
    1SOL    MW410212   2.431   4.268   4.243  0.1848  0.0515 -0.4907
    1SOL     OW10213   2.918   4.619   4.162 -0.0322 -0.1221  0.1513
    1SOL    HW210214   2.999   4.653   4.199  0.4683 -1.9691  0.8244
    1SOL    HW310215   2.907   4.534   4.204 -0.4016 -1.4928 -2.6598
    1SOL    MW410216   2.927   4.612   4.173 -0.0150 -0.5460 -0.1311
    1SOL     OW10217   2.692   0.087   4.221 -0.0915 -0.1513  0.1152
    1SOL    HW210218   2.700   0.180   4.200 -1.0247  0.0814  0.7595
    1SOL    HW310219   2.777   0.049   4.198  0.0980  0.7599 -0.6630
    1SOL    MW410220   2.704   0.094   4.215 -0.1895 -0.0004  0.0973
    1SOL     OW10221   2.724   0.364   4.130  0.7243 -0.5309  0.0890
    1SOL    HW210222   2.653   0.411   4.174  0.9432 -0.9420  0.8899
    1SOL    HW310223   2.702   0.368   4.037  0.2958  0.4108  0.2290
    1SOL    MW410224   2.712   0.371   4.123  0.6967 -0.4609  0.2131
    1SOL     OW10225   2.929   0.519   4.244 -0.3521  0.0507  0.2544
    1SOL    HW210226   2.916   0.614   4.234  0.2067 -0.0573 -1.5654
    1SOL    HW310227   2.858   0.480   4.193  0.9293 -0.5143 -1.0991
    1SOL    MW410228   2.918   0.526   4.236 -0.1092 -0.0381 -0.1640
    1SOL     OW10229   2.896   0.801   4.218  0.4097 -0.5335  0.2198
    1SOL    HW210230   2.979   0.841   4.244 -0.0753  0.6910 -0.0623
    1SOL    HW310231   2.902   0.794   4.123 -0.2295  0.5603  0.0864
    1SOL    MW410232   2.908   0.805   4.209  0.2611 -0.2277  0.1650
    1SOL     OW10233   2.652   0.937   4.308  0.2533 -0.0444  0.1200
    1SOL    HW210234   2.734   0.895   4.284  0.1538  0.7242 -1.6250
    1SOL    HW310235   2.584   0.881   4.269  0.0677  0.9149 -0.9654
    1SOL    MW410236   2.654   0.924   4.299  0.2158  0.1836 -0.2532
    1SOL     OW10237   2.736   1.153   4.168  0.6916  0.2164 -0.0538
    1SOL    HW210238   2.692   1.076   4.203  2.6753 -1.3410 -0.9485
    1SOL    HW310239   2.709   1.157   4.077  0.7254  0.5112 -0.0535
    1SOL    MW410240   2.726   1.144   4.161  0.9580  0.0497 -0.1721
    1SOL     OW10241   2.949   1.323   4.259 -0.2768 -0.1858 -0.0747
    1SOL    HW210242   3.037   1.287   4.265  0.1535  1.2349  3.2455
    1SOL    HW310243   2.895   1.251   4.226  1.5371 -2.1173  1.0868
    1SOL    MW410244   2.953   1.309   4.255  0.0193 -0.2532  0.5159
    1SOL     OW10245   2.908   1.551   4.093 -0.0515 -0.1988 -0.2906
    1SOL    HW210246   2.988   1.598   4.119 -0.1187 -0.2478  0.0100
    1SOL    HW310247   2.913   1.468   4.140  0.2054 -0.6125 -1.0396
    1SOL    MW410248   2.919   1.546   4.103 -0.0260 -0.2600 -0.3495
    1SOL     OW10249   2.705   1.706   4.177 -0.1416 -0.3137  0.8005
    1SOL    HW210250   2.772   1.652   4.135 -0.0548  1.1156 -0.9554
    1SOL    HW310251   2.625   1.654   4.171 -0.1607 -0.0725 -1.3001
    1SOL    MW410252   2.703   1.692   4.171 -0.1328 -0.0933  0.2913
    1SOL     OW10253   2.761   1.959   4.102  0.1287 -0.0214  0.3711
    1SOL    HW210254   2.738   1.869   4.126  3.0937 -0.6532  1.1138
    1SOL    HW310255   2.760   1.959   4.007 -0.1477 -0.7610  0.3642
    1SOL    MW410256   2.758   1.947   4.093  0.4835 -0.2023  0.4683
    1SOL     OW10257   2.941   2.068   4.290  0.0716 -0.4512  0.3264
    1SOL    HW210258   2.949   2.149   4.240  0.8375 -0.0470  1.1039
    1SOL    HW310259   2.886   2.012   4.235  0.4698  0.1768 -0.7246
    1SOL    MW410260   2.935   2.071   4.276  0.2251 -0.3152  0.2899
    1SOL     OW10261   2.924   2.285   4.150  0.1642 -0.4332 -0.1647
    1SOL    HW210262   2.987   2.347   4.186 -0.7205  0.1362  0.4215
    1SOL    HW310263   2.838   2.317   4.179 -0.2736 -2.2793  0.6740
    1SOL    MW410264   2.921   2.297   4.159 -0.0105 -0.6018  0.0234
    1SOL     OW10265   2.679   2.416   4.230  0.0760 -0.2777 -0.0824
    1SOL    HW210266   2.690   2.442   4.322  0.6590  2.0179 -0.7798
    1SOL    HW310267   2.585   2.401   4.221 -0.0715  0.1099  0.7275
    1SOL    MW410268   2.668   2.417   4.241  0.1333  0.0763 -0.0677
    1SOL     OW10269   2.675   2.686   4.121 -0.3854  0.3648  0.4227
    1SOL    HW210270   2.698   2.599   4.154  1.9057  1.1258  0.9119
    1SOL    HW310271   2.604   2.715   4.178 -0.9098 -1.0320  0.4914
    1SOL    MW410272   2.669   2.678   4.133 -0.1521  0.2809  0.4964
    1SOL     OW10273   2.913   2.753   4.235 -0.6571  0.5907  0.1661
    1SOL    HW210274   2.904   2.719   4.324  0.1240 -1.5180 -0.5250
    1SOL    HW310275   2.832   2.728   4.191  0.3327 -1.3246 -0.6260
    1SOL    MW410276   2.901   2.745   4.241 -0.4234  0.0598 -0.0296
    1SOL     OW10277   2.944   3.039   4.190  0.1264  0.2701 -0.5333
    1SOL    HW210278   2.915   2.949   4.206 -1.9723  1.0218  0.0819
    1SOL    HW310279   2.960   3.043   4.096 -0.2553 -0.6084 -0.6408
    1SOL    MW410280   2.942   3.027   4.180 -0.2010  0.2532 -0.4663
    1SOL     OW10281   2.731   3.203   4.289  0.0691 -0.3805 -0.1898
    1SOL    HW210282   2.746   3.204   4.384 -2.3755 -2.3142  0.2560
    1SOL    HW310283   2.791   3.136   4.256  0.2430 -0.3659  0.0957
    1SOL    MW410284   2.741   3.194   4.297 -0.2303 -0.6337 -0.0930
    1SOL     OW10285   2.720   3.448   4.154 -0.1008  0.3492 -0.7534
    1SOL    HW210286   2.715   3.366   4.203  0.9646  1.6706  1.6468
    1SOL    HW310287   2.658   3.506   4.199 -0.5150  1.0116 -2.1549
    1SOL    MW410288   2.711   3.445   4.167 -0.0145  0.6111 -0.6218
    1SOL     OW10289   2.938   3.592   4.296  0.2118 -0.2727 -0.2078
    1SOL    HW210290   2.934   3.559   4.386 -0.5766 -0.3155 -0.2565
    1SOL    HW310291   2.884   3.531   4.246 -0.8770  0.8136 -0.3812
    1SOL    MW410292   2.931   3.580   4.302 -0.0360 -0.1349 -0.2370
    1SOL     OW10293   2.954   3.861   4.167 -0.1351 -0.3886  0.4019
    1SOL    HW210294   3.011   3.918   4.217 -0.6848  0.2418  0.3236
    1SOL    HW310295   2.946   3.782   4.219 -0.2334  0.0348  1.0301
    1SOL    MW410296   2.960   3.858   4.180 -0.2205 -0.2494  0.4745
    1SOL     OW10297   2.683   3.955   4.234 -0.1544 -0.2818  0.0757
    1SOL    HW210298   2.685   4.049   4.219 -0.3763 -0.3823 -0.6090
    1SOL    HW310299   2.768   3.924   4.202  0.7174 -0.0549  2.1331
    1SOL    MW410300   2.695   3.963   4.228 -0.0687 -0.2649  0.2565
    1SOL     OW10301   2.680   4.207   4.145 -0.1975 -0.4597  0.2467
    1SOL    HW210302   2.733   4.281   4.174 -0.5542 -0.1877  0.2069
    1SOL    HW310303   2.679   4.214   4.049 -0.4255 -0.3805  0.2542
    1SOL    MW410304   2.687   4.218   4.136 -0.2744 -0.4134  0.2422
    1SOL     OW10305   2.870   4.362   4.241  0.3240  0.4329  0.0863
    1SOL    HW210306   2.881   4.321   4.327  0.3133 -0.5209 -0.3596
    1SOL    HW310307   2.946   4.332   4.191  0.2325  0.8425 -0.2962
    1SOL    MW410308   2.882   4.353   4.246  0.3102  0.3605 -0.0224
    1SOL     OW10309   3.391   0.029   4.155 -0.1989 -0.0253  0.0978
    1SOL    HW210310   3.469   0.070   4.194 -1.2531  1.0671  1.1427
    1SOL    HW310311   3.393  -0.061   4.187  0.4327  0.0964  0.4213
    1SOL    MW410312   3.402   0.023   4.165 -0.2546  0.1348  0.2785
    1SOL     OW10313   3.149   0.078   4.260 -0.1136  0.1668  0.5201
    1SOL    HW210314   3.163   0.105   4.350  1.3218  3.1554 -0.5547
    1SOL    HW310315   3.236   0.067   4.224 -0.6780 -1.1203 -0.5179
    1SOL    MW410316   3.162   0.080   4.267  0.0012  0.3913  0.2408
    1SOL     OW10317   3.123   0.338   4.133 -0.0599  0.0566 -0.4166
    1SOL    HW210318   3.119   0.249   4.167 -2.0450 -0.1404 -1.0744
    1SOL    HW310319   3.065   0.388   4.190  1.9152  1.2036  0.6566
    1SOL    MW410320   3.115   0.333   4.145 -0.0613  0.1819 -0.3619
    1SOL     OW10321   3.343   0.469   4.219 -0.1547 -0.3018 -0.3678
    1SOL    HW210322   3.417   0.409   4.209 -1.3607 -1.6611 -1.3870
    1SOL    HW310323   3.268   0.420   4.185 -1.3643  1.3782 -0.1706
    1SOL    MW410324   3.343   0.455   4.213 -0.4733 -0.2595 -0.4764
    1SOL     OW10325   3.340   0.743   4.113 -0.2855 -0.1578  0.0602
    1SOL    HW210326   3.273   0.787   4.165  0.4803  0.5857  0.4231
    1SOL    HW310327   3.338   0.652   4.145  0.3052  0.3305  1.5251
    1SOL    MW410328   3.331   0.737   4.124 -0.1066  0.0047  0.3004
    1SOL     OW10329   3.161   0.887   4.289 -0.4458  0.0515  0.5422
    1SOL    HW210330   3.153   0.873   4.383  1.1719  0.9370  0.8241
    1SOL    HW310331   3.188   0.979   4.280  1.0626 -0.4821 -0.6969
    1SOL    MW410332   3.164   0.897   4.300 -0.0331  0.0979  0.4158
    1SOL     OW10333   3.201   1.171   4.302  0.4441  0.5304 -0.3079
    1SOL    HW210334   3.255   1.171   4.382 -1.6255  1.8800  1.1308
    1SOL    HW310335   3.252   1.223   4.240  0.6280  2.1457  1.1611
    1SOL    MW410336   3.215   1.178   4.304  0.1953  0.9216  0.0753
    1SOL     OW10337   3.416   1.317   4.196  0.2464  0.1240 -0.5219
    1SOL    HW210338   3.415   1.365   4.278  2.8575 -0.2028 -0.2375
    1SOL    HW310339   3.421   1.385   4.129  0.2781  0.3463 -0.2967
    1SOL    MW410340   3.417   1.332   4.198  0.5951  0.1103 -0.4554
    1SOL     OW10341   3.419   1.594   4.112  0.2207  0.1422 -0.3349
    1SOL    HW210342   3.339   1.620   4.159 -0.6325 -1.2217 -1.0081
    1SOL    HW310343   3.391   1.584   4.021  1.2883  0.2055 -0.6668
    1SOL    MW410344   3.404   1.596   4.107  0.2491 -0.0296 -0.4673
    1SOL     OW10345   3.152   1.672   4.186  0.0151  0.4052  0.4777
    1SOL    HW210346   3.153   1.659   4.281  0.9414  0.1026  0.4298
    1SOL    HW310347   3.142   1.767   4.175 -1.5234  0.3011  0.8594
    1SOL    MW410348   3.150   1.683   4.197 -0.0656  0.3515  0.5217
    1SOL     OW10349   3.147   1.942   4.179  0.0983 -0.4068  0.2618
    1SOL    HW210350   3.228   1.968   4.223  0.3573  1.5819 -1.3316
    1SOL    HW310351   3.078   1.987   4.227  0.1567 -0.2516  0.2014
    1SOL    MW410352   3.149   1.951   4.191  0.1402 -0.1239  0.0439
    1SOL     OW10353   3.389   2.029   4.314  0.8128  0.4220 -0.3759
    1SOL    HW210354   3.481   2.007   4.326  0.8836  0.6691 -0.4742
    1SOL    HW310355   3.389   2.122   4.293  0.4574  0.7158  0.8626
    1SOL    MW410356   3.401   2.039   4.313  0.7753  0.4933 -0.2255
    1SOL     OW10357   3.367   2.282   4.179  0.2691 -0.0410 -0.8219
    1SOL    HW210358   3.443   2.335   4.204  0.5877 -0.5114 -0.7764
    1SOL    HW310359   3.368   2.284   4.083 -0.0894  0.5539 -0.8141
    1SOL    MW410360   3.377   2.290   4.170  0.2642 -0.0246 -0.8149
    1SOL     OW10361   3.151   2.420   4.256  0.2757  0.3028 -0.1115
    1SOL    HW210362   3.159   2.507   4.216 -1.2103  0.2960 -0.4522
    1SOL    HW310363   3.229   2.373   4.226 -0.1287  0.7333 -1.9065
    1SOL    MW410364   3.163   2.426   4.247  0.0262  0.3586 -0.3934
    1SOL     OW10365   3.167   2.677   4.169 -0.7897  0.4497 -0.1778
    1SOL    HW210366   3.223   2.732   4.223  0.4002 -0.0554 -0.8686
    1SOL    HW310367   3.078   2.696   4.198 -0.2856  1.6140  0.6114
    1SOL    MW410368   3.163   2.687   4.180 -0.5662  0.5369 -0.1645
    1SOL     OW10369   3.378   2.833   4.294  0.2674  0.2835 -0.1724
    1SOL    HW210370   3.456   2.803   4.247 -0.1874 -1.1679 -0.0325
    1SOL    HW310371   3.356   2.916   4.252  0.7010 -0.2876 -1.5848
    1SOL    MW410372   3.386   2.840   4.282  0.2646  0.0167 -0.3405
    1SOL     OW10373   3.379   3.104   4.178  0.1098  0.7444 -0.4286
    1SOL    HW210374   3.295   3.135   4.211 -0.3881 -0.2200 -0.7723
    1SOL    HW310375   3.366   3.096   4.083  0.4440  0.1698 -0.4280
    1SOL    MW410376   3.366   3.107   4.170  0.0882  0.5412 -0.4740
    1SOL     OW10377   3.158   3.199   4.294  0.1656 -0.0768 -0.3790
    1SOL    HW210378   3.141   3.284   4.253  0.3651 -0.6495 -1.6904
    1SOL    HW310379   3.082   3.145   4.269  0.4078 -0.5051 -0.1906
    1SOL    MW410380   3.145   3.203   4.285  0.2241 -0.2089 -0.5264
    1SOL     OW10381   3.167   3.484   4.178 -0.2664 -0.1672  0.5901
    1SOL    HW210382   3.089   3.516   4.222 -0.6115 -1.3503  0.8579
    1SOL    HW310383   3.148   3.494   4.085 -0.8881 -0.7991  0.6504
    1SOL    MW410384   3.155   3.489   4.171 -0.3941 -0.4067  0.6337
    1SOL     OW10385   3.406   3.645   4.256 -0.1791 -0.4351  0.2686
    1SOL    HW210386   3.402   3.647   4.352 -0.1227  1.3400  0.2524
    1SOL    HW310387   3.327   3.597   4.230 -0.8938  0.2202  1.1814
    1SOL    MW410388   3.395   3.639   4.265 -0.2658 -0.1144  0.3877
    1SOL     OW10389   3.362   3.917   4.170  0.2524 -0.4303 -0.1530
    1SOL    HW210390   3.383   3.828   4.199 -0.8914 -0.6023  0.1413
    1SOL    HW310391   3.347   3.909   4.075  1.9808 -0.2172 -0.4645
    1SOL    MW410392   3.363   3.904   4.161  0.3297 -0.4249 -0.1550
    1SOL     OW10393   3.141   4.049   4.278  0.1326  0.0846  0.0006
    1SOL    HW210394   3.127   4.029   4.371  1.6778 -0.1167  0.2004
    1SOL    HW310395   3.209   3.987   4.251  0.8736  1.2648 -0.8456
    1SOL    MW410396   3.148   4.038   4.287  0.4344  0.2141 -0.0844
    1SOL     OW10397   3.122   4.284   4.148  0.1011  0.1463 -0.2748
    1SOL    HW210398   3.178   4.352   4.187 -1.0116 -0.2416  2.0774
    1SOL    HW310399   3.132   4.209   4.207 -0.4594 -0.9686 -1.5942
    1SOL    MW410400   3.131   4.283   4.161 -0.1197 -0.0515 -0.1383
    1SOL     OW10401   3.352   4.427   4.231 -0.2672 -0.3553  0.1713
    1SOL    HW210402   3.359   4.410   4.325  1.2302  1.1688  0.3434
    1SOL    HW310403   3.431   4.388   4.193  0.6507  1.6564 -0.0562
    1SOL    MW410404   3.363   4.419   4.239  0.0515  0.1121  0.1640
    1SOL     OW10405   3.828   4.651   4.143  0.1375 -0.4308 -0.6711
    1SOL    HW210406   3.908   4.700   4.162 -0.7135  0.5717  0.4445
    1SOL    HW310407   3.824   4.648   4.047  0.4409  1.3162 -0.7567
    1SOL    MW410408   3.838   4.657   4.133  0.0653 -0.0677 -0.5345
    1SOL     OW10409   3.619   0.106   4.290 -0.5621 -0.0414  0.2831
    1SOL    HW210410   3.635   0.198   4.268  0.3439 -0.3035 -0.1839
    1SOL    HW310411   3.683   0.057   4.238 -1.9549 -1.0329 -0.5440
    1SOL    MW410412   3.630   0.111   4.280 -0.6266 -0.2068  0.1125
    1SOL     OW10413   3.600   0.356   4.154 -0.6273  0.1627  0.0271
    1SOL    HW210414   3.668   0.417   4.181  1.0749 -1.4363 -0.5882
    1SOL    HW310415   3.613   0.345   4.060 -0.1891 -2.0042  0.3162
    1SOL    MW410416   3.610   0.363   4.145 -0.3450 -0.3342 -0.0162
    1SOL     OW10417   3.817   0.499   4.237  0.1375 -0.0146  0.3304
    1SOL    HW210418   3.805   0.491   4.332  0.7981 -0.2695  0.3967
    1SOL    HW310419   3.853   0.586   4.225 -0.6718  0.3078  0.2421
    1SOL    MW410420   3.820   0.509   4.248  0.1178 -0.0057  0.3281
    1SOL     OW10421   3.839   0.762   4.163  0.1725  0.6876 -0.1836
    1SOL    HW210422   3.751   0.743   4.196  0.7298 -0.5764  0.6189
    1SOL    HW310423   3.833   0.746   4.069 -0.3452  0.1046 -0.0585
    1SOL    MW410424   3.827   0.757   4.155  0.1776  0.4439 -0.0615
    1SOL     OW10425   3.560   0.842   4.269 -0.5452 -0.5235  0.3266
    1SOL    HW210426   3.590   0.924   4.229 -1.8785 -0.3754 -0.3863
    1SOL    HW310427   3.476   0.824   4.227 -0.5005 -1.9977  0.8460
    1SOL    MW410428   3.553   0.850   4.258 -0.7153 -0.6984  0.3009
    1SOL     OW10429   3.612   1.098   4.153 -0.1972  0.0972  0.1638
    1SOL    HW210430   3.540   1.154   4.182 -0.8239 -0.5930 -0.0399
    1SOL    HW310431   3.619   1.114   4.059 -0.2502 -0.0200  0.1395
    1SOL    MW410432   3.603   1.107   4.145 -0.2871 -0.0093  0.1340
    1SOL     OW10433   3.808   1.284   4.242  0.3439 -0.1710  0.0310
    1SOL    HW210434   3.756   1.208   4.215  0.3433 -0.0895 -0.1969
    1SOL    HW310435   3.766   1.358   4.199  0.9189 -0.1585 -0.5100
    1SOL    MW410436   3.795   1.283   4.233  0.4199 -0.1585 -0.0701
    1SOL     OW10437   3.775   1.548   4.107  0.0816  0.0803  0.0555
    1SOL    HW210438   3.860   1.562   4.150 -1.3589 -0.4329  3.1668
    1SOL    HW310439   3.730   1.632   4.115 -0.1849 -0.0104 -0.4949
    1SOL    MW410440   3.780   1.561   4.114 -0.1435  0.0005  0.3939
    1SOL     OW10441   3.656   1.937   4.330 -0.1288  0.0323  0.3885
    1SOL    HW210442   3.642   1.878   4.256 -0.2101  2.2279 -1.4080
    1SOL    HW310443   3.672   1.879   4.405  1.4718 -2.2375 -1.6370
    1SOL    MW410444   3.656   1.921   4.330  0.0718  0.0225 -0.1159
    1SOL     OW10445   3.614   1.772   4.115 -0.0743  0.2419  0.3522
    1SOL    HW210446   3.538   1.715   4.105 -0.6545  0.7400  1.8694
    1SOL    HW310447   3.605   1.836   4.045 -0.4903 -0.3014 -0.1026
    1SOL    MW410448   3.603   1.773   4.104 -0.2058  0.2359  0.4926
    1SOL     OW10449   3.897   2.070   4.323  0.1876  0.0258 -0.1584
    1SOL    HW210450   3.919   2.102   4.411 -0.5926  0.9775 -0.3088
    1SOL    HW310451   3.809   2.034   4.332  0.3609 -0.4626 -0.4080
    1SOL    MW410452   3.889   2.069   4.336  0.1075  0.0870 -0.2108
    1SOL     OW10453   3.856   2.323   4.202  0.2324  0.0221 -0.2235
    1SOL    HW210454   3.869   2.233   4.233  1.3025  0.3215  0.2470
    1SOL    HW310455   3.861   2.317   4.107 -0.3606 -0.5108 -0.2243
    1SOL    MW410456   3.859   2.311   4.194  0.2952 -0.0088 -0.1612
    1SOL     OW10457   3.604   2.435   4.242 -0.1944 -0.0833  0.3920
    1SOL    HW210458   3.569   2.438   4.331  0.2450 -2.2208  0.6572
    1SOL    HW310459   3.697   2.414   4.253 -0.4138 -1.6544 -0.6044
    1SOL    MW410460   3.612   2.433   4.255 -0.1655 -0.5724  0.2956
    1SOL     OW10461   3.571   2.697   4.148  0.1699  0.0795  0.0979
    1SOL    HW210462   3.572   2.603   4.165 -2.9641 -0.2750 -1.2387
    1SOL    HW310463   3.596   2.705   4.056 -1.9579  0.3178 -0.4798
    1SOL    MW410464   3.574   2.685   4.138 -0.5243  0.0644 -0.1540
    1SOL     OW10465   3.808   2.829   4.220 -0.2348  0.3895  0.3277
    1SOL    HW210466   3.793   2.824   4.315 -0.7097 -0.5150  0.2097
    1SOL    HW310467   3.729   2.791   4.182  0.6673 -0.7816 -0.4041
    1SOL    MW410468   3.795   2.824   4.228 -0.1786  0.1154  0.2155
    1SOL     OW10469   3.816   3.113   4.139 -0.1251 -0.0982  0.3164
    1SOL    HW210470   3.804   3.022   4.163  1.2464 -0.3514  0.1215
    1SOL    HW310471   3.817   3.113   4.043 -0.4767  0.1735  0.3109
    1SOL    MW410472   3.815   3.101   4.130  0.0095 -0.0956  0.2894
    1SOL     OW10473   3.607   3.251   4.255 -0.1850 -0.3963  0.4854
    1SOL    HW210474   3.671   3.202   4.204 -0.9243  0.6645 -1.5275
    1SOL    HW310475   3.523   3.213   4.232 -0.6147  0.7439  0.0941
    1SOL    MW410476   3.604   3.240   4.245 -0.3393 -0.1061  0.1678
    1SOL     OW10477   3.595   3.499   4.129  0.0204  0.0677 -0.1542
    1SOL    HW210478   3.604   3.419   4.181 -0.2766 -0.8217 -1.4499
    1SOL    HW310479   3.524   3.547   4.171 -0.4365 -0.7983  0.0667
    1SOL    MW410480   3.587   3.495   4.141 -0.0792 -0.1643 -0.2956
    1SOL     OW10481   3.781   3.630   4.286 -0.1488  0.2877  0.1996
    1SOL    HW210482   3.872   3.601   4.292  0.1866  1.1604 -0.5381
    1SOL    HW310483   3.745   3.580   4.212  0.1323  0.9745 -0.4046
    1SOL    MW410484   3.788   3.619   4.277 -0.0672  0.4933  0.0224
    1SOL     OW10485   3.763   3.887   4.162  0.3757  0.2591  0.3127
    1SOL    HW210486   3.700   3.943   4.208 -0.0427  0.0964 -0.0542
    1SOL    HW310487   3.767   3.807   4.214  0.1581  0.2093  0.2558
    1SOL    MW410488   3.755   3.884   4.175  0.2918  0.2310  0.2575
    1SOL     OW10489   3.562   4.065   4.282 -0.2810 -0.6538  0.4896
    1SOL    HW210490   3.538   4.079   4.374 -0.7287  0.3616  0.2184
    1SOL    HW310491   3.484   4.029   4.242 -0.2773 -0.5324  0.3724
    1SOL    MW410492   3.549   4.062   4.289 -0.3397 -0.5040  0.4387
    1SOL     OW10493   3.592   4.312   4.166 -0.1894  0.4860 -0.6123
    1SOL    HW210494   3.667   4.352   4.210 -2.1286  2.4128  1.0770
    1SOL    HW310495   3.588   4.223   4.200 -0.3000  1.2490  1.4186
    1SOL    MW410496   3.601   4.305   4.176 -0.4599  0.8407 -0.1216
    1SOL     OW10497   3.816   4.433   4.301  0.4794  0.3603 -0.0894
    1SOL    HW210498   3.891   4.375   4.315  0.1506 -0.2474 -0.8391
    1SOL    HW310499   3.845   4.494   4.233  0.2547  0.0517 -0.4636
    1SOL    MW410500   3.830   4.433   4.294  0.4063  0.2398 -0.2375
    1SOL     OW10501   4.267   4.610   4.139 -0.5598 -0.2476 -0.4189
    1SOL    HW210502   4.270   4.523   4.180  0.2730 -0.0835 -0.1333
    1SOL    HW310503   4.353   4.648   4.157 -0.1734 -0.1662 -2.3063
    1SOL    MW410504   4.279   4.604   4.146 -0.3991 -0.2155 -0.6299
    1SOL     OW10505   4.070   0.098   4.247  0.6623  0.2279 -0.3173
    1SOL    HW210506   4.091   0.191   4.235  1.6555  0.2196  1.2611
    1SOL    HW310507   4.146   0.051   4.212  0.6752  0.0300 -0.0181
    1SOL    MW410508   4.082   0.104   4.241  0.7944  0.2007 -0.0696
    1SOL     OW10509   4.071   0.366   4.161  0.1256  0.2822 -0.6579
    1SOL    HW210510   4.135   0.423   4.204 -0.4806 -1.1214  2.2003
    1SOL    HW310511   3.986   0.406   4.181 -0.1743 -0.5177 -0.3050
    1SOL    MW410512   4.068   0.379   4.169  0.0057 -0.0086 -0.2341
    1SOL     OW10513   4.293   0.524   4.237 -0.0741 -0.3089  0.0097
    1SOL    HW210514   4.255   0.595   4.186 -2.0036 -1.1692  0.1954
    1SOL    HW310515   4.370   0.497   4.187  0.2991  1.4600 -0.3942
    1SOL    MW410516   4.298   0.530   4.224 -0.2789 -0.1891 -0.0191
    1SOL     OW10517   4.217   0.753   4.104  0.2485 -0.1082 -0.3375
    1SOL    HW210518   4.175   0.832   4.138  1.0844 -0.5993  1.9188
    1SOL    HW310519   4.220   0.767   4.009  0.5855  2.6550  0.0366
    1SOL    MW410520   4.212   0.765   4.096  0.4029  0.1916  0.0095
    1SOL     OW10521   4.063   0.940   4.257  0.1976  0.0687  0.6530
    1SOL    HW210522   4.045   1.020   4.208 -0.3182 -0.4103  0.0498
    1SOL    HW310523   3.988   0.883   4.239  1.1745 -1.0465  0.0049
    1SOL    MW410524   4.051   0.943   4.248  0.2580 -0.1416  0.4883
    1SOL     OW10525   4.042   1.181   4.109 -0.2561 -0.2088 -0.1364
    1SOL    HW210526   4.126   1.225   4.122  0.6099 -1.5903 -0.8862
    1SOL    HW310527   3.979   1.233   4.159  1.1545  0.4756  0.9534
    1SOL    MW410528   4.045   1.194   4.117  0.0443 -0.3009 -0.0916
    1SOL     OW10529   4.280   1.317   4.207  0.2402 -0.5203  0.0571
    1SOL    HW210530   4.262   1.307   4.300 -0.0625 -1.3570 -0.0870
    1SOL    HW310531   4.339   1.244   4.187  1.8095  0.7409 -0.0028
    1SOL    MW410532   4.286   1.306   4.217  0.4072 -0.4643  0.0305
    1SOL     OW10533   4.276   1.565   4.086 -0.1071  0.1961  0.0296
    1SOL    HW210534   4.301   1.480   4.120  1.8083  0.1586 -1.3861
    1SOL    HW310535   4.275   1.554   3.991 -1.6293  1.2843 -0.1133
    1SOL    MW410536   4.279   1.553   4.078 -0.0553  0.3349 -0.1764
    1SOL     OW10537   4.033   1.648   4.184 -0.0537 -0.2598 -0.9064
    1SOL    HW210538   4.023   1.659   4.279  1.5630  1.3251 -0.8968
    1SOL    HW310539   4.117   1.602   4.174  0.0124 -0.0049 -1.5764
    1SOL    MW410540   4.043   1.643   4.195  0.1683 -0.0170 -0.9937
    1SOL     OW10541   4.037   1.923   4.114 -0.2246  0.2703 -0.6314
    1SOL    HW210542   4.039   1.831   4.141  0.0317 -0.3898 -2.8325
    1SOL    HW310543   3.983   1.966   4.180 -0.6744 -1.5303  0.1985
    1SOL    MW410544   4.030   1.917   4.126 -0.2508 -0.0544 -0.8125
    1SOL     OW10545   0.001   1.961   4.144  0.2803 -0.1339 -0.0578
    1SOL    HW210546   0.069   2.002   4.198 -0.2694  0.6327  0.0620
    1SOL    HW310547  -0.081   1.995   4.179 -0.1689 -1.0138 -0.2371
    1SOL    MW410548  -0.001   1.971   4.156  0.1478 -0.1490 -0.0658
    1SOL     OW10549   4.298   2.320   4.139  0.3438 -0.0423  0.1084
    1SOL    HW210550   4.233   2.359   4.197 -0.5094 -0.2996 -0.6595
    1SOL    HW310551   4.296   2.227   4.159 -0.3753 -0.2141 -0.7384
    1SOL    MW410552   4.289   2.313   4.149  0.1359 -0.0989 -0.1054
    1SOL     OW10553   4.094   2.471   4.285 -0.1465  0.2747 -0.5696
    1SOL    HW210554   4.096   2.483   4.380  0.8237  0.1679 -0.5761
    1SOL    HW310555   4.014   2.420   4.269 -0.3680  0.3854  0.1754
    1SOL    MW410556   4.084   2.466   4.296 -0.0472  0.2754 -0.4721
    1SOL     OW10557   4.041   2.712   4.157 -0.2624 -0.2366 -0.3561
    1SOL    HW210558   4.049   2.628   4.203 -1.9330 -0.3167 -0.1766
    1SOL    HW310559   3.966   2.755   4.199  0.8696  1.5565 -0.1328
    1SOL    MW410560   4.032   2.706   4.169 -0.3333 -0.0105 -0.3028
    1SOL     OW10561   4.250   2.879   4.285 -0.3398  0.7094 -0.0859
    1SOL    HW210562   4.183   2.830   4.237 -0.8040  2.1151 -0.8989
    1SOL    HW310563   4.333   2.852   4.246 -0.3186 -1.7144  1.5148
    1SOL    MW410564   4.252   2.869   4.274 -0.3986  0.5751  0.0186
    1SOL     OW10565   4.252   3.143   4.160 -0.1496 -0.0996  0.2059
    1SOL    HW210566   4.272   3.058   4.197  0.7875  0.1598  0.3093
    1SOL    HW310567   4.278   3.136   4.068 -0.9210 -0.2078 -0.0134
    1SOL    MW410568   4.258   3.131   4.153 -0.1278 -0.0799  0.1907
    1SOL     OW10569   4.012   3.221   4.302 -0.2317 -0.4148  0.7630
    1SOL    HW210570   4.087   3.202   4.246 -0.9837  2.4293 -1.2947
    1SOL    HW310571   3.942   3.165   4.269 -0.0210 -0.4584  0.3960
    1SOL    MW410572   4.013   3.211   4.291 -0.3028 -0.0453  0.4425
    1SOL     OW10573   4.033   3.506   4.212  0.0088 -0.2348  0.6741
    1SOL    HW210574   4.013   3.415   4.233 -0.4989 -0.3008 -0.0821
    1SOL    HW310575   4.031   3.510   4.116  0.0623  0.5608  0.6994
    1SOL    MW410576   4.030   3.494   4.202 -0.0510 -0.1385  0.5779
    1SOL     OW10577   4.271   3.615   4.308 -0.0136  0.2668 -1.0423
    1SOL    HW210578   4.280   3.706   4.279 -3.1896  1.1787  0.6368
    1SOL    HW310579   4.190   3.584   4.268 -0.9620 -0.5793  1.4004
    1SOL    MW410580   4.262   3.623   4.299 -0.5569  0.2759 -0.4983
    1SOL     OW10581   4.260   3.920   4.178 -0.0805 -0.2448 -0.1454
    1SOL    HW210582   4.174   3.944   4.213 -0.5598 -3.3696  1.0513
    1SOL    HW310583   4.249   3.924   4.083 -0.8209  1.7283  0.0142
    1SOL    MW410584   4.247   3.924   4.170 -0.2418 -0.3967  0.0334
    1SOL     OW10585   4.000   4.028   4.227 -0.1421  0.3239  0.0991
    1SOL    HW210586   4.005   4.041   4.322  0.2540 -1.1254  0.3022
    1SOL    HW310587   3.917   3.982   4.214  0.9978 -1.7938  0.0615
    1SOL    MW410588   3.990   4.023   4.238  0.0603 -0.1464  0.1211
    1SOL     OW10589   4.035   4.296   4.141  0.2912 -0.3438 -0.0457
    1SOL    HW210590   4.096   4.333   4.205 -0.2105  0.3062  0.0659
    1SOL    HW310591   4.019   4.207   4.171  0.2020 -0.0999  0.6338
    1SOL    MW410592   4.041   4.289   4.153  0.2127 -0.2255  0.0591
    1SOL     OW10593   3.969   4.364   4.623 -0.2691  0.2649 -0.2500
    1SOL    HW210594   3.880   4.397   4.613 -0.2013  0.3405 -0.6004
    1SOL    HW310595   4.022   4.441   4.644 -0.3231  0.1880  0.1728
    1SOL    MW410596   3.964   4.378   4.625 -0.2673  0.2651 -0.2403
    1SOL     OW10597   0.074   0.189   4.773  0.1091 -0.2371 -0.7706
    1SOL    HW210598   0.031   0.249   4.712 -0.2597 -0.1866 -0.4644
    1SOL    HW310599   0.087   0.240   4.853 -0.9655 -0.7966 -0.2186
    1SOL    MW410600   0.070   0.204   4.776 -0.0813 -0.3042 -0.6576
    1SOL     OW10601   4.354   4.538   4.475 -0.2624 -0.2887  0.2785
    1SOL    HW210602   4.403   4.620   4.471 -0.4745 -0.1588  0.3605
    1SOL    HW310603   4.303   4.545   4.555  0.8686 -1.1502  1.0925
    1SOL    MW410604   4.354   4.550   4.485 -0.1407 -0.3848  0.3963
    1SOL     OW10605   3.994   0.118   4.532 -0.0738 -0.1060 -0.1549
    1SOL    HW210606   4.018   0.110   4.440 -0.4167 -1.5954 -0.1269
    1SOL    HW310607   3.901   0.097   4.535 -0.1358  0.2477  0.4935
    1SOL    MW410608   3.985   0.114   4.520 -0.1271 -0.2558 -0.0648
    1SOL     OW10609   4.225   1.610   4.792 -0.0340  0.5399  0.1757
    1SOL    HW210610   4.299   1.552   4.777  0.2220  0.7382  0.6946
    1SOL    HW310611   4.152   1.569   4.744  0.3078  0.1417  0.0010
    1SOL    MW410612   4.225   1.597   4.783  0.0448  0.5136  0.2217
    1SOL     OW10613   0.486   0.183   4.555 -0.2833 -0.3281  0.0787
    1SOL    HW210614   0.398   0.155   4.583  0.0095  0.0344  1.3764
    1SOL    HW310615   0.544   0.115   4.590 -0.0492 -0.6075 -0.8461
    1SOL    MW410616   0.482   0.170   4.564 -0.2138 -0.3171  0.1278
    1SOL     OW10617   0.172   0.826   4.562  0.3560 -0.1268 -0.3384
    1SOL    HW210618   0.208   0.737   4.567  0.5015 -0.0575 -0.1718
    1SOL    HW310619   0.077   0.813   4.559  0.4163 -0.3581 -1.7237
    1SOL    MW410620   0.164   0.812   4.562  0.3832 -0.1482 -0.4988
    1SOL     OW10621   4.385   0.816   4.525 -0.0387 -0.4999 -0.1370
    1SOL    HW210622   4.340   0.732   4.534  0.0910 -0.5723 -0.1651
    1SOL    HW310623   4.398   0.826   4.430 -1.3217  0.2163 -0.2521
    1SOL    MW410624   4.380   0.807   4.513 -0.1912 -0.4150 -0.1559
    1SOL     OW10625   0.652   1.276   4.568 -0.1269  0.4148  0.1417
    1SOL    HW210626   0.673   1.366   4.594 -2.3114  0.8724  0.4572
    1SOL    HW310627   0.558   1.268   4.585  0.1359 -2.1015  0.6081
    1SOL    MW410628   0.643   1.287   4.574 -0.3805  0.1431  0.2451
    1SOL     OW10629   1.147   1.973   4.515 -0.0607  0.0696 -0.1248
    1SOL    HW210630   1.213   2.028   4.558  0.4171 -0.6023 -0.0010
    1SOL    HW310631   1.066   1.992   4.563  0.8563 -2.1794  2.4191
    1SOL    MW410632   1.145   1.983   4.527  0.1234 -0.3158  0.2275
    1SOL     OW10633   4.220   1.302   4.478  0.0229 -0.0153 -0.0649
    1SOL    HW210634   4.214   1.210   4.502  0.8027 -0.4346 -1.4248
    1SOL    HW310635   4.295   1.335   4.527  1.4844 -0.8210 -1.6813
    1SOL    MW410636   4.229   1.295   4.487  0.3190 -0.1769 -0.4573
    1SOL     OW10637   0.213   1.778   4.585 -0.0474  0.4619 -0.1690
    1SOL    HW210638   0.129   1.742   4.557  0.3675  0.1181 -1.0118
    1SOL    HW310639   0.215   1.866   4.548  0.2285  0.2404 -0.6858
    1SOL    MW410640   0.202   1.785   4.576  0.0437  0.3872 -0.3486
    1SOL     OW10641   0.433   1.671   4.219 -0.5841 -0.2714 -0.2069
    1SOL    HW210642   0.368   1.614   4.178 -0.1406 -0.8666 -0.0953
    1SOL    HW310643   0.517   1.635   4.192 -0.2927  0.4735 -0.3222
    1SOL    MW410644   0.435   1.659   4.210 -0.4872 -0.2517 -0.2074
    1SOL     OW10645   0.223   2.076   4.540  0.1899  0.2145  0.2212
    1SOL    HW210646   0.286   2.143   4.568  0.4659 -0.3903  1.0766
    1SOL    HW310647   0.145   2.093   4.593  0.6431 -0.8122  1.2260
    1SOL    MW410648   0.221   2.087   4.551  0.2861 -0.0007  0.4668
    1SOL     OW10649   4.032   2.384   4.732  0.0650  0.3561  0.9298
    1SOL    HW210650   4.091   2.314   4.760  0.5377 -0.1193 -1.1495
    1SOL    HW310651   4.088   2.444   4.684 -0.9192  0.5362 -0.0083
    1SOL    MW410652   4.047   2.382   4.729 -0.0024  0.3169  0.5322
    1SOL     OW10653   0.104   2.866   4.522 -0.3486 -0.2842 -0.0337
    1SOL    HW210654   0.113   2.776   4.552  1.7431  0.0530  0.4239
    1SOL    HW310655   0.154   2.869   4.440  3.5021  1.5240  2.2575
    1SOL    MW410656   0.112   2.855   4.515  0.4354 -0.0010  0.3290
    1SOL     OW10657   0.254   3.115   4.598  0.0337 -0.7627 -0.2944
    1SOL    HW210658   0.220   3.025   4.596  1.8284 -1.4639  0.2378
    1SOL    HW310659   0.177   3.168   4.619 -0.4644 -2.4672  2.4200
    1SOL    MW410660   0.239   3.110   4.600  0.2048 -1.0803  0.1340
    1SOL     OW10661   4.445   2.449   4.503 -0.0671  0.0838  0.2650
    1SOL    HW210662   4.454   2.452   4.408  0.2566  0.1528  0.2985
    1SOL    HW310663   4.514   2.507   4.536  1.4166 -1.8457  0.6404
    1SOL    MW410664   4.455   2.457   4.495  0.1712 -0.1616  0.3190
    1SOL     OW10665   4.216   3.339   4.638 -0.0779 -0.0093 -0.3282
    1SOL    HW210666   4.308   3.330   4.615 -0.0112  1.3885 -0.6712
    1SOL    HW310667   4.174   3.261   4.601  0.9156 -0.4899 -0.4432
    1SOL    MW410668   4.222   3.328   4.630  0.0620  0.1116 -0.3881
    1SOL     OW10669   4.475   3.309   4.557 -0.0848 -0.1363  0.3671
    1SOL    HW210670   4.505   3.303   4.466  0.0842 -0.3841  0.4382
    1SOL    HW310671   4.511   3.393   4.588 -1.1452  0.5223 -0.1548
    1SOL    MW410672   4.484   3.319   4.549 -0.2022 -0.0825  0.3076
    1SOL     OW10673   4.289   4.109   4.634  0.1292  0.0406  0.3640
    1SOL    HW210674   4.203   4.117   4.593  1.0114 -0.0587 -1.5658
    1SOL    HW310675   4.274   4.053   4.711 -1.8785  1.6658  1.2197
    1SOL    MW410676   4.276   4.102   4.639 -0.0196  0.2422  0.2227
    1SOL     OW10677   0.018   0.113   4.443  0.1204  0.1989 -0.4970
    1SOL    HW210678   0.005   0.203   4.474  0.7953  0.4877 -1.0326
    1SOL    HW310679   0.101   0.086   4.482 -0.0093 -0.1373 -0.4572
    1SOL    MW410680   0.027   0.121   4.452  0.1924  0.1926 -0.5622
    1SOL     OW10681   3.767   0.476   4.506  0.2098  0.3305 -0.0154
    1SOL    HW210682   3.692   0.421   4.527 -0.1132  0.8910  0.3018
    1SOL    HW310683   3.750   0.558   4.551  0.4184  0.8857 -0.9381
    1SOL    MW410684   3.755   0.479   4.515  0.1950  0.4777 -0.0954
    1SOL     OW10685   4.060   3.822   4.599  0.6138 -0.0269  0.1736
    1SOL    HW210686   4.074   3.851   4.689  0.1642  1.4345 -0.2083
    1SOL    HW310687   4.117   3.746   4.589  1.7516  0.6728  1.2478
    1SOL    MW410688   4.069   3.816   4.609  0.7043  0.2584  0.2651
    1SOL     OW10689   3.949   4.159   4.808 -0.3654  0.0507  0.5164
    1SOL    HW210690   3.956   4.238   4.755  0.9110 -0.6804 -0.4384
    1SOL    HW310691   3.855   4.141   4.812 -0.5338  0.5064 -0.9422
    1SOL    MW410692   3.937   4.167   4.801 -0.2191  0.0148  0.1979
    1SOL     OW10693   0.690   4.666   4.614  0.2330  0.2859 -0.0973
    1SOL    HW210694   0.775   4.692   4.579 -0.2580  2.1354  0.0212
    1SOL    HW310695   0.705   4.652   4.708  0.4996  0.1693 -0.1584
    1SOL    MW410696   0.703   4.667   4.622  0.2034  0.5150 -0.0892
    1SOL     OW10697   0.109   1.091   4.671  0.4174 -0.5318  0.1361
    1SOL    HW210698   0.150   1.011   4.637  1.7795 -0.5597  1.7683
    1SOL    HW310699   0.033   1.061   4.720 -0.0177 -0.6885 -0.6259
    1SOL    MW410700   0.105   1.077   4.673  0.5397 -0.5561  0.2513
    1SOL     OW10701   1.190   0.994   4.751 -0.1575  0.2215  0.2530
    1SOL    HW210702   1.108   1.041   4.735  0.2186  0.2782 -1.5883
    1SOL    HW310703   1.186   0.918   4.693  1.6536  0.9204 -0.8428
    1SOL    MW410704   1.178   0.991   4.741  0.1309  0.3213 -0.1349
    1SOL     OW10705   0.538   0.459   4.543 -0.0965  0.3443  0.1093
    1SOL    HW210706   0.509   0.371   4.568  3.0607 -0.6749  0.4358
    1SOL    HW310707   0.582   0.447   4.459 -0.0125  1.7131 -0.0630
    1SOL    MW410708   0.540   0.446   4.535  0.3311  0.3904  0.1297
    1SOL     OW10709   1.196   0.795   4.545  0.0637 -0.2722 -0.3877
    1SOL    HW210710   1.247   0.828   4.471 -0.9105 -2.2062 -1.9689
    1SOL    HW310711   1.106   0.789   4.512 -0.0767 -2.8519  0.3562
    1SOL    MW410712   1.191   0.798   4.531 -0.0834 -0.8677 -0.4983
    1SOL     OW10713   0.435   0.899   4.549  0.2914  0.2548 -0.2322
    1SOL    HW210714   0.347   0.864   4.563 -0.2144  1.4471 -0.4266
    1SOL    HW310715   0.438   0.919   4.455  0.7385  0.3245 -0.2046
    1SOL    MW410716   0.424   0.897   4.538  0.2837  0.4213 -0.2537
    1SOL     OW10717   1.988   1.072   4.545  0.5959 -0.1013 -0.2206
    1SOL    HW210718   1.988   1.111   4.458 -2.5732  0.8064  0.0919
    1SOL    HW310719   2.012   1.144   4.603 -2.1609  0.6931  0.0499
    1SOL    MW410720   1.991   1.086   4.541 -0.1861  0.1231 -0.1435
    1SOL     OW10721   0.411   1.583   4.501 -0.1744  0.1761  0.3171
    1SOL    HW210722   0.351   1.644   4.544 -0.4778  0.6787 -0.7888
    1SOL    HW310723   0.419   1.617   4.412  0.1002 -1.0812 -0.1466
    1SOL    MW410724   0.404   1.596   4.495 -0.1782  0.0764  0.1097
    1SOL     OW10725   1.329   1.226   4.639  0.0337 -0.3560 -0.0018
    1SOL    HW210726   1.295   1.139   4.659 -0.4967 -0.0272  0.5535
    1SOL    HW310727   1.262   1.266   4.582 -0.5474  0.3135  1.1389
    1SOL    MW410728   1.315   1.220   4.634 -0.1129 -0.2242  0.2217
    1SOL     OW10729   0.968   1.590   4.494  0.0491 -0.4480  0.1285
    1SOL    HW210730   0.894   1.603   4.554  0.5579 -1.4802  1.0062
    1SOL    HW310731   1.036   1.650   4.526 -1.0556  1.9082 -1.8406
    1SOL    MW410732   0.967   1.600   4.506 -0.0295 -0.2733 -0.0157
    1SOL     OW10733   0.695   2.213   4.581  0.4526 -0.2828 -0.1854
    1SOL    HW210734   0.753   2.289   4.575  0.0329  0.1373  1.0070
    1SOL    HW310735   0.750   2.143   4.616 -0.2071  0.6336  2.7925
    1SOL    MW410736   0.710   2.213   4.584  0.3102 -0.1068  0.3648
    1SOL     OW10737   1.175   1.718   4.651 -0.1083  0.0249 -0.0473
    1SOL    HW210738   1.252   1.681   4.609 -0.1371 -0.0067 -0.0729
    1SOL    HW310739   1.167   1.806   4.614  0.3283  0.2944  0.4785
    1SOL    MW410740   1.184   1.725   4.641 -0.0544  0.0561  0.0186
    1SOL     OW10741   0.412   2.255   4.607  0.2288  0.1669 -0.4424
    1SOL    HW210742   0.506   2.247   4.595  0.4443  0.7032  0.8655
    1SOL    HW310743   0.394   2.348   4.596 -0.1194  0.0986 -0.4612
    1SOL    MW410744   0.422   2.266   4.604  0.2113  0.2286 -0.2718
    1SOL     OW10745   1.148   2.708   4.660 -0.0810  0.0099  0.1215
    1SOL    HW210746   1.124   2.788   4.614 -0.7088 -0.0264  0.3839
    1SOL    HW310747   1.239   2.722   4.688 -0.4213  0.9107  0.7834
    1SOL    MW410748   1.157   2.721   4.658 -0.2086  0.1237  0.2432
    1SOL     OW10749   0.670   2.669   4.630 -0.1478  0.0548 -0.2473
    1SOL    HW210750   0.696   2.667   4.722  0.7681 -1.4350 -0.5276
    1SOL    HW310751   0.723   2.601   4.588 -2.8401 -1.4561 -1.2784
    1SOL    MW410752   0.681   2.660   4.636 -0.3821 -0.3412 -0.4206
    1SOL     OW10753   1.209   3.138   4.540  0.7046 -0.9467 -0.1607
    1SOL    HW210754   1.212   3.221   4.587  0.9004 -1.3275  0.5151
    1SOL    HW310755   1.218   3.162   4.448  0.3489 -0.1938 -0.0028
    1SOL    MW410756   1.211   3.152   4.534  0.6834 -0.8976 -0.0505
    1SOL     OW10757   0.488   3.271   4.531 -0.2093 -0.0191  0.7554
    1SOL    HW210758   0.506   3.348   4.585  0.4208  0.7294 -0.5129
    1SOL    HW310759   0.409   3.233   4.569 -1.4717  2.1839  0.3875
    1SOL    MW410760   0.480   3.276   4.543 -0.2927  0.3703  0.5398
    1SOL     OW10761   1.287   4.402   4.574  0.1438  0.0289  0.1524
    1SOL    HW210762   1.256   4.317   4.607 -0.2653  0.4605  0.8931
    1SOL    HW310763   1.382   4.400   4.588 -0.0917  0.4130  1.8477
    1SOL    MW410764   1.296   4.391   4.580  0.0589  0.1373  0.4740
    1SOL     OW10765   0.144   2.606   4.617 -0.1913 -0.0951 -0.0090
    1SOL    HW210766   0.239   2.595   4.615 -0.1683  0.1746 -0.7543
    1SOL    HW310767   0.123   2.619   4.709  0.4994 -0.1193  0.1557
    1SOL    MW410768   0.154   2.606   4.629 -0.0972 -0.0627 -0.0863
    1SOL     OW10769   4.242   3.622   4.583 -0.2253  0.2109 -0.0588
    1SOL    HW210770   4.205   3.537   4.609  2.8676 -1.2724 -0.3171
    1SOL    HW310771   4.241   3.620   4.487 -0.4353  0.5928 -0.0627
    1SOL    MW410772   4.237   3.610   4.574  0.1554  0.0656 -0.0935
    1SOL     OW10773   0.935   4.103   4.500  0.6952  0.4882 -0.0800
    1SOL    HW210774   0.934   4.068   4.410 -0.6127 -0.1761  0.1770
    1SOL    HW310775   0.846   4.088   4.532  1.2933  0.2622  1.5073
    1SOL    MW410776   0.923   4.096   4.492  0.6016  0.3705  0.1631
    1SOL     OW10777   0.129   4.423   4.529 -0.2139 -0.2587 -0.2956
    1SOL    HW210778   0.132   4.328   4.538 -2.3083 -0.3471 -0.2823
    1SOL    HW310779   0.037   4.446   4.539  0.1191  1.6870 -1.2824
    1SOL    MW410780   0.118   4.414   4.531 -0.4463 -0.0134 -0.4234
    1SOL     OW10781   0.065   4.085   4.534  0.2146 -0.2871  0.0448
    1SOL    HW210782   0.103   3.997   4.542  0.8818 -0.0759 -0.7212
    1SOL    HW310783  -0.012   4.083   4.590  1.1782 -0.8243  1.3841
    1SOL    MW410784   0.060   4.073   4.543  0.4298 -0.3304  0.1202
    1SOL     OW10785   0.242   0.044   4.627 -0.0220 -0.4314  0.3601
    1SOL    HW210786   0.182   0.078   4.694  0.6326 -1.1904  1.3445
    1SOL    HW310787   0.221  -0.050   4.622 -1.2037 -0.1150 -1.6970
    1SOL    MW410788   0.231   0.036   4.635 -0.0915 -0.4898  0.2189
    1SOL     OW10789   0.954   0.011   4.523  0.3191  0.4907  0.4776
    1SOL    HW210790   0.948  -0.084   4.523  0.7171  0.4577  1.0428
    1SOL    HW310791   0.939   0.037   4.432  1.2846 -0.1871  0.1131
    1SOL    MW410792   0.951   0.002   4.511  0.4990  0.3972  0.5040
    1SOL     OW10793   1.001   4.410   4.490  0.2885 -0.4075  0.2210
    1SOL    HW210794   1.087   4.420   4.530 -0.8436 -0.0280  2.6746
    1SOL    HW310795   0.975   4.320   4.512 -0.2725 -0.2497  0.2047
    1SOL    MW410796   1.009   4.399   4.498  0.0651 -0.3366  0.5422
    1SOL     OW10797   0.647   0.721   4.534 -0.1765  0.4787 -0.1399
    1SOL    HW210798   0.582   0.788   4.558  0.5557  0.4064  2.2172
    1SOL    HW310799   0.598   0.639   4.535 -0.3930  0.6088  0.0568
    1SOL    MW410800   0.632   0.719   4.537 -0.1085  0.4863  0.1969
    1SOL     OW10801   1.530   0.901   4.743 -0.1995 -0.1307 -0.6701
    1SOL    HW210802   1.467   0.971   4.760  1.2241  0.8257  0.9072
    1SOL    HW310803   1.601   0.944   4.696  0.0291 -0.8249 -0.9574
    1SOL    MW410804   1.531   0.916   4.739  0.0185 -0.0960 -0.5002
    1SOL     OW10805   1.625   0.664   4.600  0.5171  0.3604  0.1550
    1SOL    HW210806   1.576   0.739   4.634 -0.1050 -0.1509  0.4024
    1SOL    HW310807   1.716   0.682   4.622  0.4657  1.4179 -0.4731
    1SOL    MW410808   1.630   0.676   4.607  0.4282  0.4324  0.1059
    1SOL     OW10809   0.391   1.167   4.636 -0.2006 -0.3129  0.0506
    1SOL    HW210810   0.412   1.076   4.616 -0.8176 -0.4577  0.0431
    1SOL    HW310811   0.309   1.162   4.685 -1.2947  0.3534 -1.6676
    1SOL    MW410812   0.383   1.154   4.640 -0.4264 -0.2441 -0.1769
    1SOL     OW10813   0.914   2.027   4.695 -0.1180  0.0929 -0.0742
    1SOL    HW210814   0.971   2.083   4.748  1.3624 -0.4809 -1.0227
    1SOL    HW310815   0.914   1.943   4.740 -0.5506  0.2031  0.1390
    1SOL    MW410816   0.921   2.024   4.708  0.0203  0.0319 -0.1707
    1SOL     OW10817   0.921   1.141   4.555  0.7183  0.3971 -0.3980
    1SOL    HW210818   0.835   1.180   4.568  1.2016  1.5442 -0.5104
    1SOL    HW310819   0.905   1.047   4.551 -0.1494  0.3647  2.6740
    1SOL    MW410820   0.908   1.134   4.556  0.6676  0.5441 -0.0076
    1SOL     OW10821   1.698   1.027   4.546 -0.0751 -0.2675  0.3782
    1SOL    HW210822   1.688   0.969   4.471 -2.1978 -0.0261  0.4391
    1SOL    HW310823   1.792   1.032   4.561  0.3942 -0.1442 -2.4053
    1SOL    MW410824   1.709   1.020   4.538 -0.2934 -0.2195  0.0186
    1SOL     OW10825   1.115   1.342   4.488 -0.1992  0.1592  0.3010
    1SOL    HW210826   1.042   1.285   4.514 -0.4870  0.0325 -0.7603
    1SOL    HW310827   1.089   1.429   4.518 -0.3178 -0.0531  0.8330
    1SOL    MW410828   1.102   1.346   4.496 -0.2528  0.1146  0.2308
    1SOL     OW10829   1.105   2.441   4.643 -0.0545 -0.5615  0.1607
    1SOL    HW210830   1.114   2.533   4.666 -1.5849 -0.4579  0.3985
    1SOL    HW310831   1.170   2.427   4.574  0.8560  0.4433  0.7936
    1SOL    MW410832   1.115   2.451   4.637 -0.1364 -0.4151  0.2751
    1SOL     OW10833   1.425   2.766   4.697  0.2142  0.1458  0.0554
    1SOL    HW210834   1.460   2.686   4.657  1.2913  0.4301  0.4192
    1SOL    HW310835   1.490   2.791   4.763 -0.6824  0.6755  0.7576
    1SOL    MW410836   1.439   2.759   4.701  0.2379  0.2534  0.1960
    1SOL     OW10837   1.523   2.869   4.289  0.0020 -0.1327  0.1911
    1SOL    HW210838   1.618   2.862   4.292 -0.0363 -0.8199  0.0328
    1SOL    HW310839   1.499   2.907   4.373  0.4964  1.1116 -0.2228
    1SOL    MW410840   1.532   2.873   4.301  0.0621 -0.0594  0.1159
    1SOL     OW10841   1.315   3.425   4.596 -0.1479 -0.1937  0.6924
    1SOL    HW210842   1.375   3.370   4.546 -1.1901 -0.4204 -0.3300
    1SOL    HW310843   1.364   3.449   4.675  0.7614 -1.5606  0.5559
    1SOL    MW410844   1.329   3.421   4.600 -0.1655 -0.4039  0.5398
    1SOL     OW10845   0.768   2.902   4.521 -0.4212 -0.2230  0.2884
    1SOL    HW210846   0.860   2.898   4.547  0.3913 -1.0233 -2.4562
    1SOL    HW310847   0.729   2.823   4.559  0.3597 -0.5582  0.4111
    1SOL    MW410848   0.775   2.891   4.529 -0.2109 -0.3726 -0.0577
    1SOL     OW10849   0.492   3.948   4.486 -0.3281  0.1927 -0.2866
    1SOL    HW210850   0.548   4.016   4.524  0.2809 -0.4587 -0.0004
    1SOL    HW310851   0.483   3.974   4.394  0.0899  0.5353 -0.2359
    1SOL    MW410852   0.498   3.961   4.479 -0.1926  0.1519 -0.2422
    1SOL     OW10853   1.043   2.918   4.519 -0.0990 -0.4049  0.0515
    1SOL    HW210854   1.037   2.884   4.430  0.8436 -0.5372  0.0298
    1SOL    HW310855   1.103   2.993   4.512 -1.3046  0.6088  0.2874
    1SOL    MW410856   1.050   2.924   4.506 -0.1338 -0.2885  0.0801
    1SOL     OW10857   0.742   3.171   4.438 -0.0260 -0.1687 -0.0095
    1SOL    HW210858   0.664   3.207   4.480 -0.1992  0.3093 -0.7383
    1SOL    HW310859   0.756   3.087   4.482 -0.5012  0.0902  0.6515
    1SOL    MW410860   0.734   3.165   4.449 -0.1115 -0.0715 -0.0186
    1SOL     OW10861   1.596   3.548   4.535 -0.2245 -0.6648 -0.2482
    1SOL    HW210862   1.690   3.548   4.553 -0.4487 -1.2425  1.0171
    1SOL    HW310863   1.570   3.457   4.543 -1.3259 -0.2013  1.9392
    1SOL    MW410864   1.605   3.536   4.539 -0.3994 -0.6800  0.2079
    1SOL     OW10865   0.466   3.528   4.667 -0.3016  0.3440  0.3789
    1SOL    HW210866   0.534   3.593   4.649 -0.4895  0.4281 -0.0136
    1SOL    HW310867   0.385   3.578   4.670 -0.6087 -0.0568 -1.1803
    1SOL    MW410868   0.465   3.543   4.665 -0.3669  0.3023  0.1216
    1SOL     OW10869   0.209   3.840   4.520 -0.4249 -0.0966  0.2747
    1SOL    HW210870   0.297   3.877   4.516 -0.6296  0.1959 -1.6865
    1SOL    HW310871   0.202   3.783   4.444 -2.3473  0.8209 -0.2783
    1SOL    MW410872   0.220   3.837   4.510 -0.7055  0.0632 -0.0572
    1SOL     OW10873   0.683   4.135   4.617 -0.0367  0.2317  0.3811
    1SOL    HW210874   0.684   4.228   4.597  1.2912  0.1792  0.1727
    1SOL    HW310875   0.681   4.131   4.713 -2.2844  0.4696  0.3606
    1SOL    MW410876   0.683   4.147   4.627 -0.1581  0.2561  0.3510
    1SOL     OW10877   0.696   4.407   4.534  0.2877  0.0947  0.1552
    1SOL    HW210878   0.707   4.500   4.555 -0.2470  0.1706  0.1098
    1SOL    HW310879   0.699   4.404   4.438  1.2056 -0.0549  0.1828
    1SOL    MW410880   0.698   4.419   4.524  0.3382  0.0849  0.1526
    1SOL     OW10881   1.728   3.751   4.845  0.0531 -0.1805 -0.1860
    1SOL    HW210882   1.759   3.667   4.813 -1.6338 -1.4204  1.3262
    1SOL    HW310883   1.669   3.782   4.777 -0.8558 -1.1698  0.1372
    1SOL    MW410884   1.724   3.744   4.832 -0.2893 -0.4745  0.0558
    1SOL     OW10885   1.563   4.457   4.570 -0.5569  0.1343  0.1538
    1SOL    HW210886   1.619   4.382   4.592  0.2816  0.7544  0.1538
    1SOL    HW310887   1.544   4.446   4.477 -0.2335  0.0504  0.0964
    1SOL    MW410888   1.568   4.446   4.560 -0.4035  0.2046  0.1459
    1SOL     OW10889   1.188   4.154   4.641 -0.2321  0.7072  0.2312
    1SOL    HW210890   1.237   4.072   4.637  0.6766  1.2366  0.2899
    1SOL    HW310891   1.099   4.130   4.613  0.3155 -0.0742 -0.9070
    1SOL    MW410892   1.183   4.140   4.636 -0.0398  0.6738  0.0896
    1SOL     OW10893   1.318   0.538   4.464 -0.1085  0.0320  0.2547
    1SOL    HW210894   1.288   0.608   4.521 -0.3339 -0.3897  0.6613
    1SOL    HW310895   1.413   0.549   4.459 -0.3445  1.5533 -1.2655
    1SOL    MW410896   1.326   0.548   4.471 -0.1694  0.1771  0.1082
    1SOL     OW10897   1.752   4.643   4.567  0.0115 -0.5186 -0.2213
    1SOL    HW210898   1.666   4.601   4.567  0.5984 -1.7735 -1.6496
    1SOL    HW310899   1.813   4.571   4.587  0.8719  0.0081 -0.9378
    1SOL    MW410900   1.749   4.628   4.569  0.2024 -0.6146 -0.5040
    1SOL     OW10901   1.346   0.263   4.616 -0.7244  0.4165  0.1540
    1SOL    HW210902   1.299   0.331   4.569 -0.2720  0.5039 -0.1750
    1SOL    HW310903   1.308   0.181   4.583 -1.5470  0.5093  0.8426
    1SOL    MW410904   1.335   0.261   4.606 -0.7733  0.4403  0.2007
    1SOL     OW10905   1.849   1.599   4.546 -0.4932  0.8752  0.0933
    1SOL    HW210906   1.761   1.576   4.576 -0.5380  1.7617  0.6668
    1SOL    HW310907   1.842   1.600   4.450 -1.1217  0.9798  0.1368
    1SOL    MW410908   1.836   1.596   4.537 -0.5821  1.0061  0.1750
    1SOL     OW10909   0.911   0.871   4.529  0.0947  0.0478  0.2188
    1SOL    HW210910   0.903   0.876   4.434  0.3315 -1.5899  0.0901
    1SOL    HW310911   0.837   0.816   4.556  0.4771 -0.1383  0.8952
    1SOL    MW410912   0.900   0.864   4.520  0.1764 -0.1928  0.2904
    1SOL     OW10913   2.060   0.432   4.562 -0.2862 -0.2959  0.2020
    1SOL    HW210914   2.134   0.396   4.610 -0.2664  1.0185  1.1881
    1SOL    HW310915   2.000   0.358   4.551  2.0084 -1.8310 -2.3181
    1SOL    MW410916   2.062   0.417   4.567  0.0191 -0.3250  0.0000
    1SOL     OW10917   1.571   1.263   4.523  0.1122 -0.0743  0.6443
    1SOL    HW210918   1.488   1.252   4.569  0.5519  0.7101  1.6453
    1SOL    HW310919   1.618   1.182   4.539 -0.4614 -0.5202  0.0770
    1SOL    MW410920   1.566   1.251   4.531  0.0945 -0.0297  0.7019
    1SOL     OW10921   1.410   1.691   4.480 -0.1590  0.1192  0.5591
    1SOL    HW210922   1.471   1.621   4.503 -0.9940 -0.3650  1.3056
    1SOL    HW310923   1.404   1.686   4.384 -0.3225 -0.9305  0.6147
    1SOL    MW410924   1.417   1.681   4.470 -0.2908 -0.0831  0.6652
    1SOL     OW10925   1.471   2.996   4.541  0.3056  0.2873  0.4915
    1SOL    HW210926   1.381   3.028   4.545 -0.3864 -1.3625 -1.1308
    1SOL    HW310927   1.472   2.919   4.597  0.3426 -0.4753 -0.5353
    1SOL    MW410928   1.459   2.990   4.549  0.2192 -0.0310  0.1421
    1SOL     OW10929   2.266   2.426   4.374  0.3628 -0.2205 -0.3082
    1SOL    HW210930   2.309   2.407   4.290 -0.5409 -0.4440 -0.7287
    1SOL    HW310931   2.246   2.519   4.370 -0.2106 -0.3544 -0.5914
    1SOL    MW410932   2.269   2.436   4.362  0.1683 -0.2677 -0.4015
    1SOL     OW10933   0.857   2.462   4.530  0.4509 -0.2062  0.0486
    1SOL    HW210934   0.942   2.461   4.574  0.8101 -0.9454 -0.6600
    1SOL    HW310935   0.877   2.470   4.437 -0.2356 -0.9895 -0.1724
    1SOL    MW410936   0.871   2.463   4.524  0.4078 -0.4070 -0.0744
    1SOL     OW10937   1.329   3.925   4.541 -0.2166 -0.1751  0.3987
    1SOL    HW210938   1.289   3.838   4.543  0.1314 -0.2934  2.4444
    1SOL    HW310939   1.411   3.916   4.590 -0.6708  1.5431  1.5188
    1SOL    MW410940   1.335   3.913   4.547 -0.2307  0.0360  0.8163
    1SOL     OW10941   1.269   2.375   4.397 -0.4771 -0.4882 -0.0811
    1SOL    HW210942   1.299   2.466   4.394 -2.1411  0.1600  1.6376
    1SOL    HW310943   1.348   2.325   4.416  0.1968  0.7790  0.5611
    1SOL    MW410944   1.283   2.381   4.399 -0.6076 -0.2353  0.2308
    1SOL     OW10945   1.519   2.285   4.518  0.1105 -0.2894  0.1599
    1SOL    HW210946   1.593   2.257   4.463  0.3086  0.0094  0.2746
    1SOL    HW310947   1.544   2.372   4.549  1.2959 -1.5827  3.0380
    1SOL    MW410948   1.532   2.293   4.515  0.2930 -0.4208  0.5546
    1SOL     OW10949   1.567   3.272   4.585 -0.5892  0.0958 -0.3411
    1SOL    HW210950   1.515   3.193   4.600 -0.0868  0.0207  1.1634
    1SOL    HW310951   1.654   3.239   4.562 -1.0876  0.2205 -2.4453
    1SOL    MW410952   1.571   3.257   4.584 -0.5887  0.1025 -0.4201
    1SOL     OW10953   1.193   3.677   4.515  0.4892  0.0871 -0.5737
    1SOL    HW210954   1.231   3.599   4.556 -0.6268  0.0265  0.3743
    1SOL    HW310955   1.172   3.649   4.426  0.5915 -0.5341 -0.4070
    1SOL    MW410956   1.195   3.663   4.509  0.3555 -0.0029 -0.4272
    1SOL     OW10957   0.672   3.722   4.549  0.0938  0.2683  0.4830
    1SOL    HW210958   0.617   3.794   4.518  0.0168  0.6717  1.5257
    1SOL    HW310959   0.761   3.758   4.550  0.0433  0.3844  1.0888
    1SOL    MW410960   0.676   3.736   4.545  0.0770  0.3369  0.7005
    1SOL     OW10961   2.090   3.547   4.513  0.0597  0.3149  0.2423
    1SOL    HW210962   2.076   3.532   4.420 -1.1304  0.1275  0.4381
    1SOL    HW310963   2.087   3.460   4.553  0.3227  0.4150  0.4845
    1SOL    MW410964   2.088   3.534   4.506 -0.0627  0.3033  0.2999
    1SOL     OW10965   1.829   3.201   4.508 -0.3783 -0.1824  0.1040
    1SOL    HW210966   1.917   3.238   4.524 -1.0195  1.3555  0.1788
    1SOL    HW310967   1.830   3.175   4.416  0.8854 -2.2416  0.6660
    1SOL    MW410968   1.841   3.203   4.498 -0.2962 -0.2511  0.1884
    1SOL     OW10969   2.457   3.299   4.290  0.3556  0.1602 -0.1733
    1SOL    HW210970   2.430   3.246   4.366 -0.4971  0.9172  0.0626
    1SOL    HW310971   2.538   3.258   4.260 -0.2815 -1.2719  0.0178
    1SOL    MW410972   2.464   3.286   4.296  0.1593  0.0710 -0.1168
    1SOL     OW10973   0.935   3.816   4.572  0.3336  0.2759  0.5873
    1SOL    HW210974   0.953   3.909   4.564  0.3082  0.3488  1.3020
    1SOL    HW310975   1.021   3.774   4.576  0.3543  0.0732 -1.7354
    1SOL    MW410976   0.949   3.822   4.572  0.3330  0.2587  0.3753
    1SOL     OW10977   2.009   3.858   4.773  0.3650 -0.1612 -0.2036
    1SOL    HW210978   1.928   3.830   4.815 -0.0218  0.0657 -0.7938
    1SOL    HW310979   2.074   3.794   4.801  0.2232  0.2563  1.1317
    1SOL    MW410980   2.007   3.846   4.783  0.2952 -0.0761 -0.1054
    1SOL     OW10981   2.309   0.327   4.652  0.3041 -0.1901  0.0144
    1SOL    HW210982   2.339   0.416   4.631  0.4621  0.0060  1.0550
    1SOL    HW310983   2.356   0.304   4.732 -0.0044 -1.0801 -0.0517
    1SOL    MW410984   2.319   0.336   4.660  0.2844 -0.2816  0.1435
    1SOL     OW10985   1.240   0.027   4.535 -0.0824 -0.7139  0.5163
    1SOL    HW210986   1.146   0.032   4.554  0.0000  0.0425  0.7453
    1SOL    HW310987   1.269  -0.053   4.578 -0.7590 -1.3315 -0.1519
    1SOL    MW410988   1.231   0.017   4.543 -0.1608 -0.6956  0.4582
    1SOL     OW10989   1.828   0.273   4.543  0.1453  0.5958  0.4007
    1SOL    HW210990   1.808   0.195   4.594 -0.5828  0.0470 -0.6943
    1SOL    HW310991   1.743   0.308   4.517  0.4887 -0.1120 -1.8495
    1SOL    MW410992   1.814   0.268   4.546  0.0945  0.4300 -0.0405
    1SOL     OW10993   2.363   0.082   4.504 -0.2094 -0.3244  0.2663
    1SOL    HW210994   2.329   0.090   4.414 -0.3126 -1.0416  0.2415
    1SOL    HW310995   2.343   0.167   4.544 -0.9758 -0.3214 -0.1112
    1SOL    MW410996   2.355   0.095   4.497 -0.3240 -0.4187  0.2131
    1SOL     OW10997   1.912   0.659   4.645  0.1758  0.4255  0.3214
    1SOL    HW210998   1.936   0.570   4.618  0.1921  0.7817 -0.8820
    1SOL    HW310999   1.951   0.669   4.732  0.4916 -0.6114  0.3075
    1SOL    MW411000   1.921   0.648   4.653  0.2197  0.3357  0.1602
    1SOL     OW11001   1.580   0.402   4.499  0.1509 -0.1064 -0.3820
    1SOL    HW211002   1.594   0.469   4.567  1.7997 -0.4051 -0.4190
    1SOL    HW311003   1.511   0.347   4.535 -0.1207  0.6857  0.3524
    1SOL    MW411004   1.573   0.404   4.513  0.3327 -0.0413 -0.2904
    1SOL     OW11005   2.091   1.533   4.643  0.3071  0.1108 -0.2684
    1SOL    HW211006   2.106   1.440   4.661  0.5251  0.4944  1.6062
    1SOL    HW311007   2.004   1.536   4.603  0.6357 -0.9751 -1.0890
    1SOL    MW411008   2.081   1.521   4.640  0.3793  0.0181 -0.1297
    1SOL     OW11009   0.970   1.780   4.830 -0.0649 -0.1095 -0.3812
    1SOL    HW211010   1.054   1.744   4.801  0.6247  1.1689 -0.0101
    1SOL    HW311011   0.990   1.823   4.913 -1.2458 -0.4336  0.0736
    1SOL    MW411012   0.984   1.781   4.837 -0.1296  0.0166 -0.2728
    1SOL     OW11013   1.585   1.529   4.613  0.5937  0.3907 -0.1570
    1SOL    HW211014   1.581   1.442   4.574 -3.1557  1.6260 -2.7704
    1SOL    HW311015   1.542   1.519   4.698  1.0899 -0.5052 -0.0062
    1SOL    MW411016   1.579   1.516   4.619  0.1644  0.4355 -0.4821
    1SOL     OW11017   1.132   2.172   4.777 -0.5719 -0.0661  0.1484
    1SOL    HW211018   1.217   2.143   4.745 -0.8507  0.4754 -1.1368
    1SOL    HW311019   1.123   2.261   4.743 -1.9551 -0.3836 -0.3495
    1SOL    MW411020   1.142   2.180   4.768 -0.7913 -0.0367 -0.0868
    1SOL     OW11021   1.519   1.942   4.515 -0.3335  0.0722  0.1360
    1SOL    HW211022   1.608   1.911   4.504 -0.5999 -0.0352 -2.0013
    1SOL    HW311023   1.464   1.865   4.504 -0.7272  0.2904  0.5378
    1SOL    MW411024   1.523   1.928   4.512 -0.4207  0.0869 -0.0930
    1SOL     OW11025   2.017   2.038   4.256 -0.2205  0.1447  0.0953
    1SOL    HW211026   1.971   1.976   4.200  3.0727 -0.8053 -1.6708
    1SOL    HW311027   1.990   2.124   4.224 -2.1141 -0.3693  0.2776
    1SOL    MW411028   2.007   2.041   4.245 -0.0360 -0.0484 -0.1130
    1SOL     OW11029   1.352   2.107   4.657 -0.1539 -0.0269  0.1713
    1SOL    HW211030   1.403   2.027   4.643  0.2065  0.2686 -0.2268
    1SOL    HW311031   1.408   2.176   4.622 -1.1447  0.2272 -0.9111
    1SOL    MW411032   1.366   2.105   4.651 -0.2371  0.0453 -0.0243
    1SOL     OW11033   2.480   3.019   4.476  0.1731 -0.4627  0.8160
    1SOL    HW211034   2.505   2.991   4.388 -1.0772  2.1932 -0.4075
    1SOL    HW311035   2.399   2.972   4.495 -0.6373  0.4938 -0.2687
    1SOL    MW411036   2.473   3.009   4.467 -0.0987  0.0141  0.5107
    1SOL     OW11037   1.690   2.824   4.811 -0.2832 -0.2673 -0.4235
    1SOL    HW211038   1.740   2.889   4.762  0.3403 -1.1733 -1.0173
    1SOL    HW311039   1.746   2.746   4.812 -1.2420 -0.9691 -0.2109
    1SOL    MW411040   1.704   2.822   4.804 -0.3275 -0.4792 -0.4745
    1SOL     OW11041   1.833   3.882   4.535  0.2070  0.2195 -0.3863
    1SOL    HW211042   1.847   3.938   4.459  0.4838 -0.3376 -0.7481
    1SOL    HW311043   1.915   3.886   4.583  0.1839  0.2255 -0.3475
    1SOL    MW411044   1.846   3.890   4.531  0.2403  0.1471 -0.4287
    1SOL     OW11045   2.522   3.225   4.670  0.0631  0.1671 -0.2199
    1SOL    HW211046   2.615   3.204   4.663 -0.2721 -1.9020  1.0397
    1SOL    HW311047   2.479   3.158   4.616 -0.9842 -1.8743  3.0278
    1SOL    MW411048   2.528   3.213   4.662 -0.1194 -0.3750  0.3757
    1SOL     OW11049   2.102   3.267   4.530  0.7444 -0.0695 -0.1387
    1SOL    HW211050   2.145   3.211   4.465  0.6322 -0.4860  0.1463
    1SOL    HW311051   2.107   3.218   4.611  1.8086  0.9077  0.3957
    1SOL    MW411052   2.108   3.253   4.532  0.8700  0.0043 -0.0310
    1SOL     OW11053   2.643   3.788   4.458 -0.0252  0.3987  0.2469
    1SOL    HW211054   2.592   3.724   4.408  1.6913 -0.0840 -0.8958
    1SOL    HW311055   2.653   3.863   4.400  0.1909  0.6746  0.6341
    1SOL    MW411056   2.637   3.789   4.444  0.2296  0.3712  0.1473
    1SOL     OW11057   2.464   3.826   4.660 -0.0280  0.4918 -0.0435
    1SOL    HW211058   2.413   3.748   4.638 -1.1079  0.9415  0.8076
    1SOL    HW311059   2.539   3.823   4.601  0.2024 -1.4492  0.3377
    1SOL    MW411060   2.467   3.816   4.649 -0.1402  0.2952  0.1192
    1SOL     OW11061   2.356   3.609   4.543  0.3702  0.2748  0.0198
    1SOL    HW211062   2.265   3.583   4.531  0.1333  1.3625 -0.6675
    1SOL    HW311063   2.404   3.563   4.475  0.3897 -0.5544  0.5883
    1SOL    MW411064   2.351   3.600   4.533  0.3417  0.3090  0.0043
    1SOL     OW11065   1.857   3.602   4.649 -0.0174 -0.4223  0.3407
    1SOL    HW211066   1.939   3.588   4.603 -1.0765 -0.6806 -1.5017
    1SOL    HW311067   1.838   3.695   4.637  0.6996 -0.0448  1.9725
    1SOL    MW411068   1.865   3.612   4.642 -0.0626 -0.4067  0.3138
    1SOL     OW11069   2.058   4.096   4.606  0.0779  0.2126  0.0916
    1SOL    HW211070   2.152   4.076   4.604  0.3398  1.1206  2.1898
    1SOL    HW311071   2.025   4.052   4.684 -1.0306  0.7671 -0.0501
    1SOL    MW411072   2.066   4.088   4.616 -0.0336  0.4063  0.3495
    1SOL     OW11073   1.757   4.265   4.515 -0.0618  0.3356 -0.0463
    1SOL    HW211074   1.769   4.230   4.427  0.2578  0.5665 -0.0995
    1SOL    HW311075   1.841   4.308   4.535 -0.4184  1.0064  0.0366
    1SOL    MW411076   1.770   4.266   4.506 -0.0668  0.4549 -0.0420
    1SOL     OW11077   2.017   4.369   4.573  0.5938  0.0406 -0.4704
    1SOL    HW211078   2.032   4.276   4.589  1.1327  0.1085 -0.6021
    1SOL    HW311079   2.104   4.407   4.566  0.3780  0.6648  0.1943
    1SOL    MW411080   2.030   4.362   4.575  0.6366  0.1326 -0.4001
    1SOL     OW11081   2.255   4.488   4.528 -0.4846 -0.3818  0.1268
    1SOL    HW211082   2.325   4.423   4.537 -0.5619 -0.5773 -0.6637
    1SOL    HW311083   2.301   4.572   4.537 -0.2179 -0.5171  0.0519
    1SOL    MW411084   2.271   4.491   4.531 -0.4597 -0.4258  0.0129
    1SOL     OW11085   1.445   1.384   4.832 -0.0519 -0.1469  0.1075
    1SOL    HW211086   1.363   1.417   4.866 -0.4425 -0.1144 -0.8487
    1SOL    HW311087   1.420   1.319   4.767  0.6863 -0.7197  0.3920
    1SOL    MW411088   1.431   1.380   4.828 -0.0060 -0.2182  0.0191
    1SOL     OW11089   2.646   0.133   4.488 -0.2099 -0.1909 -0.1021
    1SOL    HW211090   2.555   0.105   4.496  0.0311 -0.8623  0.3392
    1SOL    HW311091   2.667   0.119   4.396 -0.9597  1.2460 -0.5027
    1SOL    MW411092   2.637   0.127   4.477 -0.2773 -0.0899 -0.0968
    1SOL     OW11093   2.350   0.776   4.668  0.0365 -0.6425 -0.4050
    1SOL    HW211094   2.276   0.808   4.616  0.8918 -1.2451 -2.0323
    1SOL    HW311095   2.419   0.840   4.653 -0.3564  0.3212  1.7080
    1SOL    MW411096   2.349   0.789   4.659  0.0975 -0.5948 -0.3405
    1SOL     OW11097   2.829   0.725   4.588 -0.2036 -0.3413 -0.3747
    1SOL    HW211098   2.915   0.767   4.597 -0.6426  0.1471  1.9088
    1SOL    HW311099   2.847   0.643   4.542  1.5401 -0.3738  0.3131
    1SOL    MW411100   2.843   0.720   4.583 -0.0315 -0.2812  0.0172
    1SOL     OW11101   2.162   1.260   4.665  0.0526  0.1189 -0.4138
    1SOL    HW211102   2.225   1.258   4.737  0.7014 -0.2009 -0.9876
    1SOL    HW311103   2.210   1.225   4.590 -1.0733 -0.9985 -0.6360
    1SOL    MW411104   2.176   1.255   4.665 -0.0103 -0.0707 -0.5193
    1SOL     OW11105   2.403   1.285   4.484  0.4297 -0.1506  0.1166
    1SOL    HW211106   2.472   1.240   4.532  1.1266  0.6424 -0.1180
    1SOL    HW311107   2.407   1.375   4.516 -0.8994 -0.2422  0.5390
    1SOL    MW411108   2.413   1.291   4.494  0.3464 -0.0579  0.1416
    1SOL     OW11109   2.458   1.553   4.584  0.0310  0.2156 -0.3272
    1SOL    HW211110   2.524   1.616   4.553 -0.4583  0.4921 -0.8175
    1SOL    HW311111   2.376   1.601   4.580 -0.2382 -0.2161  0.0404
    1SOL    MW411112   2.456   1.568   4.579 -0.0689  0.1950 -0.3428
    1SOL     OW11113   2.237   1.708   4.494  0.2712  0.1269  0.0856
    1SOL    HW211114   2.219   1.690   4.401  2.6721  0.2144 -0.4356
    1SOL    HW311115   2.176   1.651   4.541 -0.6772 -0.2533 -1.5412
    1SOL    MW411116   2.226   1.698   4.488  0.4628  0.0882 -0.1979
    1SOL     OW11117   2.217   2.150   4.408  0.2695  0.1191  0.0273
    1SOL    HW211118   2.223   2.244   4.390  1.2792  0.0087 -0.2619
    1SOL    HW311119   2.148   2.118   4.351  0.9416  0.4257 -0.9604
    1SOL    MW411120   2.209   2.158   4.398  0.4914  0.1450 -0.1411
    1SOL     OW11121   2.347   1.965   4.622 -0.5055 -0.1250  0.0278
    1SOL    HW211122   2.320   1.875   4.603 -0.4909  0.1592 -1.4098
    1SOL    HW311123   2.299   2.018   4.559  1.0136  0.6869 -0.4680
    1SOL    MW411124   2.337   1.960   4.611 -0.3035  0.0196 -0.2275
    1SOL     OW11125   2.751   2.432   4.489 -0.5251  0.0662 -0.0017
    1SOL    HW211126   2.664   2.463   4.514  0.0213  2.7697 -1.2485
    1SOL    HW311127   2.809   2.505   4.511  1.1056 -0.8025 -1.3104
    1SOL    MW411128   2.747   2.446   4.495 -0.2379  0.3080 -0.3386
    1SOL     OW11129   1.845   2.624   4.607 -0.8654  0.1692  0.6547
    1SOL    HW211130   1.901   2.693   4.570 -1.4616  0.1555 -0.2725
    1SOL    HW311131   1.906   2.566   4.652 -0.2074  0.5804  0.3070
    1SOL    MW411132   1.861   2.625   4.608 -0.8572  0.2215  0.4864
    1SOL     OW11133   2.133   3.052   4.706 -0.0867  0.3952  0.1867
    1SOL    HW211134   2.041   3.025   4.708  0.1843 -0.5728  0.1120
    1SOL    HW311135   2.174   2.990   4.645  0.6419  0.7242  0.3389
    1SOL    MW411136   2.126   3.040   4.698  0.0453  0.3107  0.1969
    1SOL     OW11137   2.661   3.481   4.648  0.3068 -0.6895  0.3340
    1SOL    HW211138   2.603   3.404   4.649  2.2289 -2.2571 -2.8760
    1SOL    HW311139   2.605   3.552   4.618 -1.3868 -0.8487  2.9043
    1SOL    MW411140   2.646   3.480   4.644  0.3369 -0.9174  0.2494
    1SOL     OW11141   2.394   3.018   4.819  0.2369 -0.0968  0.0856
    1SOL    HW211142   2.440   3.095   4.787  0.1891 -0.1101 -0.0156
    1SOL    HW311143   2.301   3.041   4.813  0.2257 -0.1226  0.1550
    1SOL    MW411144   2.388   3.031   4.814  0.2291 -0.1018  0.0815
    1SOL     OW11145   1.578   3.814   4.617  0.0512 -0.3633  0.2860
    1SOL    HW211146   1.659   3.842   4.577  0.9932 -1.2536  1.5178
    1SOL    HW311147   1.562   3.726   4.582 -0.0050 -0.4637  0.5549
    1SOL    MW411148   1.586   3.806   4.607  0.1682 -0.4942  0.4835
    1SOL     OW11149   2.712   4.355   4.657 -0.3738 -0.5683 -0.0399
    1SOL    HW211150   2.628   4.339   4.613 -1.3637  3.8026  0.1075
    1SOL    HW311151   2.693   4.343   4.750 -1.4011  2.3710  0.1689
    1SOL    MW411152   2.699   4.351   4.664 -0.6399  0.3963  0.0072
    1SOL     OW11153   1.876   2.969   4.648  0.3107  0.5299  0.1445
    1SOL    HW211154   1.923   2.910   4.589 -1.7088 -0.5710 -0.4079
    1SOL    HW311155   1.846   3.041   4.592  0.4015  0.6767  0.2833
    1SOL    MW411156   1.878   2.971   4.633  0.0564  0.4039  0.0896
    1SOL     OW11157   3.442   4.004   4.885 -0.5359 -0.1043 -0.1044
    1SOL    HW211158   3.359   4.047   4.865 -0.5319 -0.3502 -0.6769
    1SOL    HW311159   3.431   3.971   4.974 -0.4196  1.3347  0.4517
    1SOL    MW411160   3.430   4.005   4.894 -0.5200  0.0529 -0.1063
    1SOL     OW11161   3.100   4.002   4.547 -0.0147 -0.1428  0.2351
    1SOL    HW211162   3.037   3.930   4.548  0.0902 -0.2270  0.7279
    1SOL    HW311163   3.181   3.964   4.580 -0.2509  0.4691  1.5524
    1SOL    MW411164   3.102   3.988   4.551 -0.0319 -0.0732  0.4730
    1SOL     OW11165   2.320   4.053   4.586 -0.0026  0.3077  0.5573
    1SOL    HW211166   2.349   3.974   4.632  1.9064  0.9062  0.4084
    1SOL    HW311167   2.303   4.024   4.496 -0.3762 -0.1499  0.7727
    1SOL    MW411168   2.322   4.039   4.580  0.2000  0.3266  0.5660
    1SOL     OW11169   2.461   4.301   4.536 -0.4112  0.3680  0.3103
    1SOL    HW211170   2.406   4.228   4.566 -1.8056  0.9672 -0.6946
    1SOL    HW311171   2.459   4.294   4.440  1.4969  0.2621  0.2704
    1SOL    MW411172   2.453   4.290   4.527 -0.3433  0.4330  0.1721
    1SOL     OW11173   2.968   0.460   4.509  0.7014 -0.4214 -0.1127
    1SOL    HW211174   2.957   0.479   4.416 -2.1793 -0.1479  0.2506
    1SOL    HW311175   3.061   0.474   4.525  1.3198 -0.8816 -3.0333
    1SOL    MW411176   2.979   0.464   4.499  0.4027 -0.4461 -0.4497
    1SOL     OW11177   2.833   0.277   4.663  0.0943  0.5411  0.4388
    1SOL    HW211178   2.778   0.224   4.605  1.7125 -1.0846  0.3220
    1SOL    HW311179   2.885   0.332   4.604  1.3212 -0.6915  0.3505
    1SOL    MW411180   2.833   0.277   4.648  0.4697  0.1640  0.4120
    1SOL     OW11181   3.196   0.194   4.505 -0.1705 -0.2349 -0.0919
    1SOL    HW211182   3.137   0.160   4.572 -0.7544  0.5353 -0.2073
    1SOL    HW311183   3.199   0.288   4.522 -1.8999  0.2709 -2.3660
    1SOL    MW411184   3.189   0.202   4.516 -0.4756 -0.0665 -0.4072
    1SOL     OW11185   2.618   0.900   4.600  0.1471  0.1615 -0.2279
    1SOL    HW211186   2.670   0.821   4.611  1.6081  1.1965  0.5288
    1SOL    HW311187   2.622   0.918   4.506 -0.1320 -0.6213 -0.3884
    1SOL    MW411188   2.625   0.892   4.589  0.3030  0.1948 -0.1493
    1SOL     OW11189   3.545   0.563   4.778 -0.5189 -1.3871  0.2342
    1SOL    HW211190   3.518   0.497   4.714 -0.1875 -0.9040 -0.4165
    1SOL    HW311191   3.615   0.611   4.734 -1.7491  0.3446  0.1210
    1SOL    MW411192   3.551   0.561   4.764 -0.6378 -1.0948  0.1335
    1SOL     OW11193   2.128   0.845   4.518 -0.6444  0.0451  0.3142
    1SOL    HW211194   2.077   0.922   4.543 -0.2844  0.4290 -0.1363
    1SOL    HW311195   2.064   0.774   4.516 -0.5475 -0.1471  3.0497
    1SOL    MW411196   2.113   0.846   4.521 -0.5841  0.0704  0.6156
    1SOL     OW11197   2.645   1.181   4.574  0.2624 -0.3383  0.6059
    1SOL    HW211198   2.737   1.205   4.561  0.3593 -1.4977 -0.8973
    1SOL    HW311199   2.648   1.089   4.600 -0.4584 -0.2426  1.0372
    1SOL    MW411200   2.658   1.172   4.576  0.1800 -0.4786  0.4644
    1SOL     OW11201   2.896   1.287   4.524  0.0771  0.2053  0.2820
    1SOL    HW211202   2.893   1.378   4.554 -0.7928 -0.0510  0.9719
    1SOL    HW311203   2.899   1.293   4.429  2.2846  1.0098  0.3676
    1SOL    MW411204   2.896   1.300   4.516  0.2539  0.2776  0.3843
    1SOL     OW11205   2.895   1.553   4.599  0.3823 -0.5332 -0.2539
    1SOL    HW211206   2.825   1.596   4.549  2.4377  3.7971  0.3494
    1SOL    HW311207   2.861   1.545   4.688 -0.5160 -1.4077 -0.6727
    1SOL    MW411208   2.882   1.558   4.604  0.5350 -0.0772 -0.2298
    1SOL     OW11209   2.691   1.701   4.452 -0.3323  0.0618 -0.0236
    1SOL    HW211210   2.659   1.790   4.471 -1.3615 -0.3116  0.0311
    1SOL    HW311211   2.704   1.700   4.357 -0.8218  0.1133 -0.0931
    1SOL    MW411212   2.688   1.713   4.442 -0.5329  0.0193 -0.0257
    1SOL     OW11213   2.602   1.963   4.481  0.1703  0.1522 -0.1679
    1SOL    HW211214   2.657   2.029   4.523  0.6420 -1.1610  1.3206
    1SOL    HW311215   2.521   1.964   4.531  0.0716 -0.2020 -0.3243
    1SOL    MW411216   2.599   1.972   4.493  0.2198 -0.0678  0.0076
    1SOL     OW11217   2.810   2.165   4.521  0.2604 -0.1013  0.0956
    1SOL    HW211218   2.786   2.256   4.506  1.0776 -0.0045 -0.6364
    1SOL    HW311219   2.841   2.133   4.436 -1.2283 -1.4432  0.0329
    1SOL    MW411220   2.811   2.173   4.508  0.1719 -0.2658 -0.0095
    1SOL     OW11221   3.064   2.179   4.633  0.0355 -0.0253 -0.6712
    1SOL    HW211222   3.059   2.165   4.728 -0.5041 -2.3519 -1.0109
    1SOL    HW311223   2.975   2.165   4.601  0.3082  0.2545 -1.5763
    1SOL    MW411224   3.052   2.175   4.641  0.0002 -0.2952 -0.8359
    1SOL     OW11225   2.454   2.790   4.673 -0.1450  0.1256  0.0321
    1SOL    HW211226   2.441   2.865   4.731 -1.4285 -0.0416 -0.0360
    1SOL    HW311227   2.380   2.794   4.612  0.4368 -0.5033 -0.7298
    1SOL    MW411228   2.443   2.801   4.672 -0.2377  0.0205 -0.0777
    1SOL     OW11229   3.444   3.114   4.632  0.3751  0.1145 -0.1137
    1SOL    HW211230   3.419   3.023   4.618 -0.5331  0.2282  0.7848
    1SOL    HW311231   3.528   3.123   4.585 -0.6120 -0.5791 -2.0688
    1SOL    MW411232   3.452   3.103   4.624  0.1252  0.0379 -0.2527
    1SOL     OW11233   2.715   2.884   4.623 -0.1641 -0.1497 -0.4925
    1SOL    HW211234   2.680   2.833   4.696  0.1384  1.4527  0.8063
    1SOL    HW311235   2.639   2.905   4.569 -0.5135 -0.6159 -0.1835
    1SOL    MW411236   2.701   2.880   4.625 -0.1702  0.0002 -0.2799
    1SOL     OW11237   2.920   3.498   4.557 -0.4300  0.1404 -0.2845
    1SOL    HW211238   2.830   3.492   4.589 -0.6261 -0.3005 -0.8958
    1SOL    HW311239   2.963   3.418   4.590 -0.4000  0.1069 -0.4020
    1SOL    MW411240   2.914   3.487   4.566 -0.4520  0.0777 -0.3810
    1SOL     OW11241   2.793   3.170   4.571  0.1887 -0.1389  0.0394
    1SOL    HW211242   2.864   3.201   4.628 -0.6375  1.2997  0.2963
    1SOL    HW311243   2.786   3.077   4.592  2.3959 -0.4369 -0.4145
    1SOL    MW411244   2.802   3.162   4.582  0.3707  0.0117  0.0138
    1SOL     OW11245   2.828   4.595   4.576  0.3630  0.2151  0.3399
    1SOL    HW211246   2.762   4.537   4.614  1.2072 -1.9540 -1.4461
    1SOL    HW311247   2.777   4.669   4.541 -0.8497 -0.1100  1.3770
    1SOL    MW411248   2.812   4.597   4.576  0.3142 -0.1135  0.2408
    1SOL     OW11249   3.355   3.870   4.625 -0.4942 -0.1987  0.3499
    1SOL    HW211250   3.384   3.780   4.610 -0.8494 -0.3262  0.4340
    1SOL    HW311251   3.390   3.892   4.712 -1.1059 -0.5369  0.6825
    1SOL    MW411252   3.363   3.861   4.634 -0.6218 -0.2601  0.4044
    1SOL     OW11253   3.771   3.793   4.627  0.0947  0.5362 -0.4499
    1SOL    HW211254   3.857   3.795   4.587 -0.8093  0.6954 -2.4674
    1SOL    HW311255   3.739   3.704   4.608 -0.3059  0.5854 -0.0009
    1SOL    MW411256   3.778   3.781   4.619 -0.0777  0.5636 -0.6571
    1SOL     OW11257   2.922   3.785   4.547  0.5226 -0.1677  0.4692
    1SOL    HW211258   2.829   3.782   4.526  0.9583  1.7629 -1.8973
    1SOL    HW311259   2.945   3.694   4.568 -2.0514 -0.5176  1.9751
    1SOL    MW411260   2.913   3.772   4.547  0.2408  0.0408  0.3552
    1SOL     OW11261   2.945   4.270   4.496  0.6229  0.3210  0.1915
    1SOL    HW211262   2.865   4.306   4.535  1.0416  1.0648  0.3526
    1SOL    HW311263   2.955   4.185   4.538  0.7449  0.8681  1.2776
    1SOL    MW411264   2.935   4.263   4.506  0.6945  0.4911  0.3562
    1SOL     OW11265   3.023   0.093   4.693 -0.0648  0.0811  0.0458
    1SOL    HW211266   2.976   0.022   4.649  0.0377  0.1730 -0.2077
    1SOL    HW311267   2.955   0.157   4.715 -0.0301  0.2972 -0.4825
    1SOL    MW411268   3.008   0.092   4.690 -0.0467  0.1218 -0.0572
    1SOL     OW11269   3.250   0.477   4.501 -0.1840  0.1516  0.1661
    1SOL    HW211270   3.275   0.485   4.409  0.4162 -0.5371  0.2648
    1SOL    HW311271   3.268   0.563   4.538 -0.3973  0.4241 -0.3508
    1SOL    MW411272   3.255   0.489   4.494 -0.1333  0.0967  0.1106
    1SOL     OW11273   2.437   0.558   4.548  0.5149 -0.2415 -0.0028
    1SOL    HW211274   2.526   0.545   4.580  0.8496 -0.8566 -1.1444
    1SOL    HW311275   2.407   0.638   4.592  1.0564 -0.8862  1.5782
    1SOL    MW411276   2.445   0.567   4.558  0.6309 -0.4078  0.0548
    1SOL     OW11277   2.573   1.367   4.771 -0.2420  0.2123  0.4307
    1SOL    HW211278   2.537   1.438   4.717 -0.0181  0.6491  0.8451
    1SOL    HW311279   2.587   1.295   4.710 -0.4917  0.5213  0.0045
    1SOL    MW411280   2.570   1.367   4.756 -0.2453  0.3108  0.4296
    1SOL     OW11281   2.659   0.513   4.733  0.0655  0.2677 -0.2743
    1SOL    HW211282   2.712   0.593   4.730  0.0840  0.4162  2.3884
    1SOL    HW311283   2.720   0.443   4.713  0.6069  0.7208 -0.2300
    1SOL    MW411284   2.674   0.515   4.730  0.1395  0.3470  0.0825
    1SOL     OW11285   3.348   0.694   4.636 -0.2565  0.0104 -0.1264
    1SOL    HW211286   3.407   0.763   4.606  0.6330 -0.9048 -0.4980
    1SOL    HW311287   3.392   0.654   4.710 -0.5971 -0.4055 -0.1433
    1SOL    MW411288   3.362   0.698   4.642 -0.1841 -0.1653 -0.1769
    1SOL     OW11289   3.354   1.170   4.530 -0.3665 -0.2169  0.2498
    1SOL    HW211290   3.267   1.169   4.571 -1.0113  0.3693 -1.0553
    1SOL    HW311291   3.389   1.082   4.546 -1.1258 -0.4032  0.9323
    1SOL    MW411292   3.347   1.158   4.538 -0.5517 -0.1642  0.1678
    1SOL     OW11293   2.823   1.470   4.870  0.2176 -0.0144  0.5247
    1SOL    HW211294   2.740   1.424   4.859 -0.1145  0.6782  0.0530
    1SOL    HW311295   2.812   1.519   4.952  0.7459 -1.1274  1.2710
    1SOL    MW411296   2.810   1.471   4.880  0.2434 -0.0697  0.5612
    1SOL     OW11297   3.936   0.967   4.653  1.1781 -0.8002 -0.3574
    1SOL    HW211298   4.021   1.001   4.622  1.0507  0.3078  0.4988
    1SOL    HW311299   3.915   1.020   4.729  0.2659 -1.8603  0.1458
    1SOL    MW411300   3.945   0.978   4.659  1.0407 -0.7939 -0.1774
    1SOL     OW11301   3.347   1.458   4.421  0.1829 -0.0231 -0.2455
    1SOL    HW211302   3.281   1.524   4.440  0.2382  0.3356 -1.2335
    1SOL    HW311303   3.318   1.380   4.468 -0.5721  0.3333 -0.1112
    1SOL    MW411304   3.335   1.457   4.429  0.0906  0.0712 -0.3581
    1SOL     OW11305   3.140   1.647   4.458  0.3063  0.1883  0.3096
    1SOL    HW211306   3.169   1.734   4.485  0.2919  0.5551 -0.8433
    1SOL    HW311307   3.057   1.635   4.504  0.6619  0.4893  1.0345
    1SOL    MW411308   3.133   1.657   4.468  0.3514  0.2764  0.2527
    1SOL     OW11309   3.211   1.930   4.501 -0.3279 -0.0427  0.8518
    1SOL    HW211310   3.152   1.996   4.538  1.1334  2.1894 -0.6961
    1SOL    HW311311   3.256   1.975   4.429  0.7981 -2.7014 -0.1786
    1SOL    MW411312   3.209   1.945   4.496  0.0134 -0.0989  0.5121
    1SOL     OW11313   3.663   1.784   4.585 -0.1429 -0.0239 -0.2609
    1SOL    HW211314   3.581   1.825   4.613  0.4319  0.7862  0.2706
    1SOL    HW311315   3.636   1.704   4.540 -1.2160  0.1502  0.0590
    1SOL    MW411316   3.648   1.779   4.583 -0.2086  0.1060 -0.1483
    1SOL     OW11317   2.874   2.691   4.496 -0.0836 -0.0998 -0.0944
    1SOL    HW211318   2.833   2.761   4.545 -0.7811 -0.5121 -0.0834
    1SOL    HW311319   2.968   2.699   4.516 -0.2414  0.3872  0.4539
    1SOL    MW411320   2.881   2.701   4.505 -0.1965 -0.0901 -0.0200
    1SOL     OW11321   3.476   2.441   4.501 -0.5868  0.0305 -0.3370
    1SOL    HW211322   3.386   2.436   4.535 -0.4756  0.5945  0.0583
    1SOL    HW311323   3.510   2.522   4.538  0.3520 -0.5777  0.1509
    1SOL    MW411324   3.469   2.451   4.511 -0.4482  0.0248 -0.2203
    1SOL     OW11325   3.158   2.441   4.525  0.1159  0.5566 -0.2526
    1SOL    HW211326   3.165   2.421   4.432  1.1217  0.3005 -0.1259
    1SOL    HW311327   3.114   2.365   4.563  0.1110  0.4625 -0.4483
    1SOL    MW411328   3.153   2.428   4.517  0.2480  0.5102 -0.2618
    1SOL     OW11329   3.615   2.651   4.595 -0.3389 -0.2407 -0.1862
    1SOL    HW211330   3.660   2.728   4.560  0.1123 -0.7882 -0.8237
    1SOL    HW311331   3.674   2.617   4.661 -1.3746  1.0304  1.4283
    1SOL    MW411332   3.629   2.657   4.599 -0.4163 -0.1454 -0.0577
    1SOL     OW11333   3.037   3.283   4.686 -0.4536  0.3217  0.2427
    1SOL    HW211334   3.123   3.266   4.649 -0.8751  0.6408 -0.9083
    1SOL    HW311335   3.055   3.332   4.767  0.4314  0.7322 -0.1948
    1SOL    MW411336   3.051   3.287   4.692 -0.3924  0.4182  0.0334
    1SOL     OW11337   3.401   2.853   4.574 -0.0072  0.1631 -0.1370
    1SOL    HW211338   3.395   2.858   4.478  0.5432  0.8938 -0.1376
    1SOL    HW311339   3.466   2.784   4.590 -0.5849 -0.4134 -0.2803
    1SOL    MW411340   3.409   2.844   4.563 -0.0107  0.1833 -0.1564
    1SOL     OW11341   4.196   2.527   4.547 -0.1026  0.0147  0.5191
    1SOL    HW211342   4.284   2.493   4.532 -0.3903 -0.2841 -0.5703
    1SOL    HW311343   4.210   2.620   4.567  0.4670 -0.0465  0.4305
    1SOL    MW411344   4.210   2.535   4.547 -0.0648 -0.0324  0.3633
    1SOL     OW11345   3.682   3.142   4.493 -0.1936  0.1970 -0.1358
    1SOL    HW211346   3.745   3.207   4.523  1.1492 -0.4912 -1.3753
    1SOL    HW311347   3.652   3.175   4.408  0.8156 -1.0069 -0.9698
    1SOL    MW411348   3.686   3.155   4.485  0.1168 -0.0529 -0.4091
    1SOL     OW11349   3.491   4.095   4.548  0.1197 -0.0521  0.0533
    1SOL    HW211350   3.567   4.098   4.606  0.3617 -1.9615 -0.1159
    1SOL    HW311351   3.436   4.026   4.586 -0.3271 -0.4181 -1.2411
    1SOL    MW411352   3.494   4.086   4.561  0.0927 -0.3529 -0.1407
    1SOL     OW11353   3.225   4.146   4.765  0.4428  0.3732 -0.2374
    1SOL    HW211354   3.161   4.116   4.700 -0.4254 -0.3084  0.9141
    1SOL    HW311355   3.230   4.241   4.751 -1.4060  0.5481  0.1658
    1SOL    MW411356   3.217   4.155   4.755  0.0842  0.3057 -0.0324
    1SOL     OW11357   3.182   4.405   4.628  0.4957  0.2485 -0.0842
    1SOL    HW211358   3.254   4.391   4.567  0.2612  0.1811 -0.3505
    1SOL    HW311359   3.103   4.389   4.575  0.3197 -1.4031  0.6371
    1SOL    MW411360   3.181   4.401   4.613  0.4413  0.0215 -0.0234
    1SOL     OW11361   3.427   4.364   4.500  0.4186 -0.5754  0.1571
    1SOL    HW211362   3.453   4.275   4.525 -0.2138 -0.2589  1.9882
    1SOL    HW311363   3.496   4.420   4.536 -0.7768 -0.0698  1.7527
    1SOL    MW411364   3.440   4.359   4.508  0.1774 -0.4668  0.6099
    1SOL     OW11365   3.683   4.051   4.751  0.4485 -0.4568 -0.4171
    1SOL    HW211366   3.713   3.965   4.725 -0.2109 -1.0164  0.6452
    1SOL    HW311367   3.609   4.034   4.810  0.8232  0.8103  0.4365
    1SOL    MW411368   3.677   4.038   4.755  0.4108 -0.3638 -0.1640
    1SOL     OW11369   3.429   0.129   4.653  0.0591  0.3688  0.1938
    1SOL    HW211370   3.399   0.059   4.712  1.5216 -0.9952 -0.6370
    1SOL    HW311371   3.365   0.129   4.582 -1.1091  1.2965  1.2131
    1SOL    MW411372   3.417   0.119   4.651  0.0978  0.3112  0.2184
    1SOL     OW11373   3.104   0.856   4.563 -0.3573 -0.2876  0.1232
    1SOL    HW211374   3.093   0.939   4.609  0.8980  0.0168 -0.1001
    1SOL    HW311375   3.164   0.806   4.618  0.7579 -0.1177 -0.9071
    1SOL    MW411376   3.111   0.861   4.576 -0.0443 -0.2251 -0.0424
    1SOL     OW11377   3.108   1.122   4.655 -0.0326 -0.0816 -0.2187
    1SOL    HW211378   3.101   1.170   4.738 -1.6754  0.5268 -0.6894
    1SOL    HW311379   3.042   1.163   4.599 -0.3495 -1.8519 -1.1478
    1SOL    MW411380   3.098   1.134   4.659 -0.2909 -0.2348 -0.4029
    1SOL     OW11381   4.033   1.479   4.607  0.3188 -0.0846 -0.1641
    1SOL    HW211382   4.100   1.416   4.580 -0.1917 -1.0020  0.6901
    1SOL    HW311383   3.950   1.438   4.583 -0.0792 -0.3035  1.5043
    1SOL    MW411384   4.031   1.465   4.600  0.1988 -0.2346  0.1683
    1SOL     OW11385   3.700   1.096   4.545 -0.2609 -0.1092 -0.4109
    1SOL    HW211386   3.722   1.189   4.547 -0.5009 -0.0633  0.6182
    1SOL    HW311387   3.784   1.051   4.538  0.0169  0.1281  1.2644
    1SOL    MW411388   3.714   1.102   4.544 -0.2558 -0.0719 -0.0544
    1SOL     OW11389   4.169   1.020   4.518  0.0362 -0.4906 -0.1539
    1SOL    HW211390   4.236   0.953   4.535  0.4151  0.0333  0.4033
    1SOL    HW311391   4.128   0.992   4.436  0.8535 -0.8786 -0.4351
    1SOL    MW411392   4.173   1.007   4.510  0.1941 -0.4728 -0.1173
    1SOL     OW11393   4.293   0.545   4.508 -0.0009 -0.0430 -0.3620
    1SOL    HW211394   4.310   0.545   4.414  0.2637 -0.0209 -0.3136
    1SOL    HW311395   4.205   0.506   4.516 -0.0559  0.0238 -0.6223
    1SOL    MW411396   4.283   0.540   4.497  0.0267 -0.0314 -0.3901
    1SOL     OW11397   3.603   1.570   4.428 -0.2195 -0.5477 -0.3317
    1SOL    HW211398   3.609   1.617   4.344  0.2858  1.1646  0.6354
    1SOL    HW311399   3.512   1.544   4.435 -0.4539  0.0649 -1.0258
    1SOL    MW411400   3.592   1.573   4.418 -0.1836 -0.2409 -0.2952
    1SOL     OW11401   3.907   1.908   4.615 -0.1577  0.3593 -0.1978
    1SOL    HW211402   3.834   1.850   4.635  0.5341  0.2447  2.1989
    1SOL    HW311403   3.871   1.996   4.626  0.2587  0.2995  1.9495
    1SOL    MW411404   3.892   1.912   4.619 -0.0114  0.3363  0.4015
    1SOL     OW11405   3.443   1.919   4.665  0.4676  0.0975 -0.4148
    1SOL    HW211406   3.474   2.006   4.638  0.4167  0.6584  1.2776
    1SOL    HW311407   3.359   1.909   4.621 -0.2962  1.6097  0.6511
    1SOL    MW411408   3.436   1.929   4.655  0.3600  0.3710 -0.0515
    1SOL     OW11409   4.215   2.159   4.820 -0.0584  0.1623  0.1274
    1SOL    HW211410   4.202   2.066   4.801  1.6110  0.1055 -0.8417
    1SOL    HW311411   4.260   2.160   4.904 -0.4920  0.1229  0.3634
    1SOL    MW411412   4.219   2.147   4.828  0.1049  0.1495  0.0305
    1SOL     OW11413   4.168   1.885   4.735 -0.4327  0.1706  0.4304
    1SOL    HW211414   4.077   1.875   4.706 -0.8971 -0.2887  2.0108
    1SOL    HW311415   4.188   1.802   4.779  1.2118 -0.2817 -1.1136
    1SOL    MW411416   4.158   1.873   4.737 -0.2766  0.0503  0.4349
    1SOL     OW11417   3.868   2.198   4.611 -0.4028 -0.1224 -0.0715
    1SOL    HW211418   3.912   2.271   4.654 -0.5591 -0.0298 -0.0691
    1SOL    HW311419   3.775   2.217   4.621 -0.4518 -0.6457  0.4906
    1SOL    MW411420   3.862   2.210   4.618 -0.4296 -0.1793  0.0033
    1SOL     OW11421   3.809   2.537   4.787 -0.3834 -0.1207 -0.4464
    1SOL    HW211422   3.889   2.486   4.774 -0.4076 -0.1323 -0.5529
    1SOL    HW311423   3.834   2.608   4.846 -0.7092 -1.1616  0.9834
    1SOL    MW411424   3.823   2.539   4.793 -0.4296 -0.2596 -0.2718
    1SOL     OW11425   3.773   2.857   4.491  0.2986  0.3507 -0.0610
    1SOL    HW211426   3.849   2.850   4.548  0.4626  1.9378 -0.0598
    1SOL    HW311427   3.739   2.945   4.508  0.3027  0.8091 -2.3266
    1SOL    MW411428   3.779   2.867   4.501  0.3209  0.6204 -0.3600
    1SOL     OW11429   3.983   2.856   4.677  0.1993 -0.1299  0.6985
    1SOL    HW211430   4.005   2.948   4.662  0.1818  0.1049  2.0978
    1SOL    HW311431   4.059   2.808   4.643 -0.9745  0.2091 -2.6770
    1SOL    MW411432   3.996   2.862   4.670  0.0420 -0.0546  0.4373
    1SOL     OW11433   3.308   3.321   4.515  0.2311 -0.2629  0.2521
    1SOL    HW211434   3.359   3.260   4.569  1.4316 -0.4150 -1.0203
    1SOL    HW311435   3.260   3.264   4.455 -0.0736 -0.0273  0.2736
    1SOL    MW411436   3.308   3.305   4.514  0.3493 -0.2518  0.0873
    1SOL     OW11437   3.889   3.347   4.528  0.1388 -0.4782  0.1313
    1SOL    HW211438   3.960   3.350   4.591 -1.1167 -2.0529  1.6585
    1SOL    HW311439   3.931   3.318   4.446  1.6337  0.8598  0.4051
    1SOL    MW411440   3.904   3.344   4.525  0.1705 -0.5095  0.3691
    1SOL     OW11441   3.416   3.591   4.530  0.0322 -0.1896 -0.1989
    1SOL    HW211442   3.375   3.506   4.519  0.3847 -0.5698  1.2924
    1SOL    HW311443   3.510   3.572   4.534  0.0639  0.1648  0.9756
    1SOL    MW411444   3.423   3.578   4.529  0.0832 -0.1931  0.1531
    1SOL     OW11445   3.689   3.547   4.539 -0.0573  0.1768  0.1157
    1SOL    HW211446   3.703   3.580   4.450  0.1003  2.1434  0.8541
    1SOL    HW311447   3.751   3.474   4.548 -1.1454 -1.0497 -1.8979
    1SOL    MW411448   3.699   3.542   4.528 -0.1800  0.2742 -0.0529
    1SOL     OW11449   4.387   3.049   4.574  0.0649  0.3898  0.1054
    1SOL    HW211450   4.420   3.138   4.573  1.2774 -0.0376  1.0753
    1SOL    HW311451   4.458   2.996   4.539 -0.6919 -0.1919 -0.5875
    1SOL    MW411452   4.401   3.054   4.569  0.1249  0.2565  0.1411
    1SOL     OW11453   4.040   4.091   4.502  0.2242 -0.1232 -0.1831
    1SOL    HW211454   3.974   4.151   4.537  0.3021  1.1774 -2.1822
    1SOL    HW311455   4.025   4.009   4.549 -1.5313  0.7264  0.7918
    1SOL    MW411456   4.030   4.088   4.513  0.0024  0.1607 -0.3181
    1SOL     OW11457   3.693   4.469   4.552  0.3708 -0.4467 -0.0478
    1SOL    HW211458   3.727   4.444   4.467  0.0641 -0.2098 -0.2419
    1SOL    HW311459   3.681   4.564   4.546  1.7727 -0.2095  0.7619
    1SOL    MW411460   3.696   4.478   4.540  0.5152 -0.3843  0.0329
    1SOL     OW11461   3.273   4.605   4.808 -0.1422  0.1427 -0.1989
    1SOL    HW211462   3.262   4.522   4.762 -1.0490  0.0889  0.1151
    1SOL    HW311463   3.192   4.653   4.791 -0.2428  0.3527  0.8780
    1SOL    MW411464   3.261   4.601   4.800 -0.2751  0.1636 -0.0153
    1SOL     OW11465   3.494   0.912   4.530  0.2190 -0.5118  0.1518
    1SOL    HW211466   3.575   0.961   4.543  1.0841 -2.3542  1.8128
    1SOL    HW311467   3.504   0.871   4.444  0.4891  0.3013 -0.2077
    1SOL    MW411468   3.506   0.913   4.520  0.3688 -0.6476  0.3233
    1SOL     OW11469   3.763   0.739   4.636  0.3305  0.5602  0.1556
    1SOL    HW211470   3.838   0.791   4.663  1.0580 -0.1466 -0.4899
    1SOL    HW311471   3.711   0.799   4.582  0.6036  0.9422  0.3122
    1SOL    MW411472   3.766   0.754   4.632  0.4625  0.5174  0.0911
    1SOL     OW11473   0.010   0.377   4.567 -0.3420  0.1537 -0.7263
    1SOL    HW211474   0.087   0.433   4.570 -0.1352 -0.1717  0.3223
    1SOL    HW311475  -0.064   0.438   4.562 -0.0992  0.5175  0.0306
    1SOL    MW411476   0.010   0.392   4.567 -0.2827  0.1588 -0.4883
    1SOL     OW11477   0.249   0.544   4.555  0.2001  0.2635  0.4892
    1SOL    HW211478   0.344   0.536   4.566  0.0980  0.4313  1.5118
    1SOL    HW311479   0.236   0.540   4.460  1.2411  0.3783  0.3324
    1SOL    MW411480   0.260   0.543   4.544  0.3240  0.3008  0.6032
    1SOL     OW11481   4.064   0.404   4.574 -0.1637  0.2658 -0.3002
    1SOL    HW211482   4.063   0.309   4.563  0.0899  0.1421  0.7143
    1SOL    HW311483   3.972   0.430   4.562 -0.0510  0.0487 -1.7826
    1SOL    MW411484   4.052   0.395   4.571 -0.1159  0.2208 -0.3624
    1SOL     OW11485   3.789   1.365   4.515  0.4103  0.0338 -0.0517
    1SOL    HW211486   3.793   1.336   4.424  0.8732  2.1814 -0.7329
    1SOL    HW311487   3.727   1.438   4.514  0.9185  0.4904  1.2407
    1SOL    MW411488   3.781   1.371   4.503  0.5383  0.3774  0.0291
    1SOL     OW11489   4.412   1.414   4.621  0.1556 -0.2296  0.5121
    1SOL    HW211490   4.493   1.375   4.653  0.0168 -1.5561 -0.7114
    1SOL    HW311491   4.440   1.496   4.579  0.8756 -0.6739  0.1118
    1SOL    MW411492   4.426   1.420   4.620  0.2317 -0.4634  0.2975
    1SOL     OW11493   0.236   1.374   4.517  0.5950  0.2698 -0.4908
    1SOL    HW211494   0.297   1.306   4.546  0.8085  1.2279  1.4077
    1SOL    HW311495   0.291   1.452   4.507 -0.1399  0.9124  0.3629
    1SOL    MW411496   0.252   1.376   4.520  0.5262  0.4810 -0.1278
    1SOL     OW11497   3.972   1.695   4.435 -0.0096  0.6038 -0.0762
    1SOL    HW211498   3.989   1.621   4.493 -0.9291  0.3780 -0.0882
    1SOL    HW311499   3.951   1.767   4.495 -0.4914  0.4922 -0.1080
    1SOL    MW411500   3.972   1.695   4.451 -0.1943  0.5592 -0.0815
    1SOL     OW11501   3.144   2.704   4.545  0.4661 -0.4300  0.5671
    1SOL    HW211502   3.227   2.737   4.579  0.7973 -0.9004  0.2167
    1SOL    HW311503   3.157   2.610   4.535  0.4292 -0.2730 -1.0163
    1SOL    MW411504   3.157   2.696   4.548  0.5050 -0.4716  0.3123
    1SOL     OW11505   4.244   2.042   4.248 -0.3172 -0.1758 -0.2655
    1SOL    HW211506   4.170   1.993   4.213 -0.6761  0.2264 -0.0673
    1SOL    HW311507   4.266   1.997   4.330  0.4280 -1.0238 -0.9192
    1SOL    MW411508   4.237   2.030   4.254 -0.2661 -0.2346 -0.3257
    1SOL     OW11509   4.443   2.166   4.602  0.0107 -0.1763 -0.1297
    1SOL    HW211510   4.372   2.168   4.665  0.5605 -0.7372  0.5110
    1SOL    HW311511   4.452   2.257   4.573 -2.2579 -0.3997 -1.7031
    1SOL    MW411512   4.435   2.178   4.606 -0.2165 -0.2801 -0.2527
    1SOL     OW11513   4.336   1.918   4.498 -0.0720  0.1851 -0.3630
    1SOL    HW211514   4.275   1.892   4.567  0.2109 -0.3046 -0.2940
    1SOL    HW311515   4.388   1.988   4.538 -0.0524  0.0504 -0.1472
    1SOL    MW411516   4.335   1.924   4.512 -0.0319  0.1026 -0.3257
    1SOL     OW11517   3.586   2.201   4.623 -0.6408 -0.4158 -0.1647
    1SOL    HW211518   3.550   2.262   4.560  1.5810 -0.4095 -1.4763
    1SOL    HW311519   3.575   2.244   4.708 -0.8584  0.9317 -0.8729
    1SOL    MW411520   3.580   2.215   4.626 -0.3760 -0.2375 -0.4311
    1SOL     OW11521   0.402   2.535   4.551  0.0157 -0.7243  0.1716
    1SOL    HW211522   0.421   2.523   4.458  1.1777  1.6706  0.0628
    1SOL    HW311523   0.486   2.561   4.589 -1.0031  0.8147  1.4173
    1SOL    MW411524   0.415   2.537   4.544  0.0346 -0.2053  0.3214
    1SOL     OW11525   4.245   2.792   4.561 -0.2587  0.4532 -0.1215
    1SOL    HW211526   4.298   2.862   4.600 -1.0746  0.7833  0.4178
    1SOL    HW311527   4.245   2.810   4.467  0.2146  0.7032 -0.0735
    1SOL    MW411528   4.252   2.803   4.554 -0.3037  0.5295 -0.0434
    1SOL     OW11529   4.113   3.091   4.548 -0.0873 -0.3724  0.5364
    1SOL    HW211530   4.087   3.095   4.456 -0.0659 -2.2971  0.4203
    1SOL    HW311531   4.201   3.052   4.547  0.5166  0.9441  1.2806
    1SOL    MW411532   4.121   3.086   4.536 -0.0048 -0.4525  0.6194
    1SOL     OW11533   0.044   3.576   4.584 -0.7960  0.4398 -0.2101
    1SOL    HW211534   0.098   3.656   4.580 -0.2321  0.0651 -0.1957
    1SOL    HW311535  -0.044   3.608   4.602 -0.5732  1.0628 -0.1839
    1SOL    MW411536   0.040   3.591   4.586 -0.6921  0.4725 -0.2046
    1SOL     OW11537   4.167   4.612   4.684  0.1248  0.1005 -0.0553
    1SOL    HW211538   4.107   4.665   4.633 -0.6858 -0.9550 -0.2206
    1SOL    HW311539   4.186   4.665   4.762  0.0953  1.0240 -0.6728
    1SOL    MW411540   4.162   4.626   4.688  0.0143  0.0825 -0.1588
    1SOL     OW11541   3.711   0.089   4.555 -0.3898 -0.0220 -0.0571
    1SOL    HW211542   3.629   0.106   4.602  0.0544  2.0624  0.0272
    1SOL    HW311543   3.692   0.110   4.464 -0.1122 -0.0690 -0.1266
    1SOL    MW411544   3.698   0.094   4.549 -0.2947  0.2468 -0.0553
    1SOL     OW11545   4.152   3.964   4.829  0.2738  0.0573  0.2416
    1SOL    HW211546   4.082   4.028   4.817  0.6925  0.6037  0.7326
    1SOL    HW311547   4.156   3.950   4.924  0.6881 -0.1327  0.1973
    1SOL    MW411548   4.143   3.970   4.840  0.3839  0.1042  0.3004
    1SOL     OW11549   3.518   0.380   4.569  0.1250  0.2200 -0.2433
    1SOL    HW211550   3.448   0.420   4.519  1.6844  0.6310 -2.1646
    1SOL    HW311551   3.477   0.306   4.614 -1.5728  0.6246 -1.1049
    1SOL    MW411552   3.504   0.375   4.569  0.1066  0.3276 -0.6104
    1SOL     OW11553   4.263   4.378   4.281 -0.1117 -0.2448  0.0157
    1SOL    HW211554   4.345   4.348   4.243 -0.7558 -1.7076 -0.2622
    1SOL    HW311555   4.287   4.411   4.367  0.8062 -0.3604 -0.1916
    1SOL    MW411556   4.277   4.378   4.287 -0.0753 -0.4525 -0.0482
    1NA      NA11557   2.573   4.356   0.523  0.2944  0.7608 -0.2283
    1NA      NA11558   0.744   2.495   0.336 -0.1784  0.5520  0.1138
   4.49070   4.66690  10.00000
