Gromacs Runs On Most of All Computer Systems in water t= 480.00000 step= 480000
11558
    1RG35     P    1   2.142   2.855   4.550
    1RG35   O1P    2   2.145   2.773   4.426
    1RG35   O2P    3   2.052   2.970   4.546
    1RG35   O5'    4   2.087   2.751   4.651
    1RG35   C5'    5   1.995   2.774   4.755
    1RG35  H5'1    6   1.926   2.852   4.721
    1RG35  H5'2    7   2.050   2.818   4.838
    1RG35   C4'    8   1.918   2.658   4.806
    1RG35   H4'    9   1.833   2.687   4.868
    1RG35   O4'   10   1.868   2.582   4.701
    1RG35   C1'   11   1.904   2.445   4.708
    1RG35   H1'   12   1.834   2.390   4.771
    1RG35    N9   13   1.923   2.372   4.582
    1RG35    C8   14   2.007   2.409   4.477
    1RG35    H8   15   2.049   2.508   4.469
    1RG35    N7   16   2.021   2.307   4.385
    1RG35    C5   17   1.946   2.204   4.435
    1RG35    C6   18   1.923   2.068   4.391
    1RG35    O6   19   1.971   2.003   4.292
    1RG35    N1   20   1.836   2.002   4.475
    1RG35    H1   21   1.811   1.909   4.446
    1RG35    C2   22   1.768   2.050   4.579
    1RG35    N2   23   1.695   1.970   4.647
    1RG35   H21   24   1.677   1.877   4.612
    1RG35   H22   25   1.655   2.001   4.734
    1RG35    N3   26   1.787   2.176   4.627
    1RG35    C4   27   1.882   2.245   4.556
    1RG35   C3'   28   2.002   2.561   4.893
    1RG35   H3'   29   2.093   2.613   4.923
    1RG35   C2'   30   2.034   2.454   4.789
    1RG35  H2'1   31   2.118   2.485   4.726
    1RG35   O2'   32   2.055   2.324   4.856
    1RG35  HO'2   33   2.072   2.258   4.788
    1RG35   O3'   34   1.937   2.512   5.007
    1RG35   H3T   35   1.955   2.417   5.004
    1RG35   O3P   36   2.276   2.883   4.606
    2SOL     OW   37   0.467   0.084   0.468
    2SOL    HW2   38   0.488  -0.006   0.443
    2SOL    HW3   39   0.546   0.134   0.446
    2SOL    MW4   40   0.480   0.079   0.461
    3SOL     OW   41   4.000   0.084   0.424
    3SOL    HW2   42   4.092   0.082   0.398
    3SOL    HW3   43   3.980  -0.006   0.449
    3SOL    MW4   44   4.010   0.072   0.424
    4SOL     OW   45   3.866   0.485   0.462
    4SOL    HW2   46   3.798   0.539   0.421
    4SOL    HW3   47   3.862   0.508   0.554
    4SOL    MW4   48   3.856   0.495   0.468
    5SOL     OW   49   0.398   1.513   0.460
    5SOL    HW2   50   0.379   1.420   0.472
    5SOL    HW3   51   0.316   1.551   0.431
    5SOL    MW4   52   0.385   1.506   0.458
    6SOL     OW   53   1.402   0.799   0.492
    6SOL    HW2   54   1.482   0.850   0.480
    6SOL    HW3   55   1.380   0.809   0.584
    6SOL    MW4   56   1.410   0.807   0.502
    7SOL     OW   57   0.231   0.540   0.442
    7SOL    HW2   58   0.224   0.541   0.537
    7SOL    HW3   59   0.260   0.451   0.420
    7SOL    MW4   60   0.234   0.528   0.451
    8SOL     OW   61   0.440   0.996   0.461
    8SOL    HW2   62   0.431   0.976   0.555
    8SOL    HW3   63   0.434   0.911   0.418
    8SOL    MW4   64   0.438   0.982   0.468
    9SOL     OW   65   0.922   0.929   0.458
    9SOL    HW2   66   0.890   0.920   0.548
    9SOL    HW3   67   0.846   0.961   0.410
    9SOL    MW4   68   0.907   0.932   0.464
   10SOL     OW   69   0.689   1.036   0.321
   10SOL    HW2   70   0.670   0.975   0.249
   10SOL    HW3   71   0.612   1.032   0.377
   10SOL    MW4   72   0.676   1.027   0.319
   11SOL     OW   73   0.280   1.888   0.392
   11SOL    HW2   74   0.239   1.802   0.407
   11SOL    HW3   75   0.373   1.869   0.386
   11SOL    MW4   76   0.287   1.874   0.394
   12SOL     OW   77   4.018   2.177   0.425
   12SOL    HW2   78   3.977   2.189   0.511
   12SOL    HW3   79   3.990   2.090   0.397
   12SOL    MW4   80   4.009   2.167   0.433
   13SOL     OW   81   0.128   1.632   0.415
   13SOL    HW2   82   0.092   1.606   0.330
   13SOL    HW3   83   0.070   1.593   0.479
   13SOL    MW4   84   0.116   1.624   0.412
   14SOL     OW   85   0.744   2.357   0.210
   14SOL    HW2   86   0.840   2.358   0.220
   14SOL    HW3   87   0.723   2.443   0.174
   14SOL    MW4   88   0.754   2.368   0.207
   15SOL     OW   89   0.297   2.628   0.510
   15SOL    HW2   90   0.286   2.695   0.577
   15SOL    HW3   91   0.376   2.653   0.463
   15SOL    MW4   92   0.306   2.640   0.513
   16SOL     OW   93   4.155   3.347   0.464
   16SOL    HW2   94   4.094   3.287   0.421
   16SOL    HW3   95   4.158   3.318   0.555
   16SOL    MW4   96   4.147   3.335   0.471
   17SOL     OW   97   0.309   3.014   0.493
   17SOL    HW2   98   0.360   3.091   0.469
   17SOL    HW3   99   0.222   3.031   0.456
   17SOL    MW4  100   0.304   3.027   0.485
   18SOL     OW  101   0.456   3.469   0.426
   18SOL    HW2  102   0.490   3.380   0.440
   18SOL    HW3  103   0.534   3.523   0.416
   18SOL    MW4  104   0.471   3.464   0.426
   19SOL     OW  105   0.621   3.855   0.332
   19SOL    HW2  106   0.674   3.852   0.252
   19SOL    HW3  107   0.645   3.938   0.374
   19SOL    MW4  108   0.631   3.866   0.327
   20SOL     OW  109   4.189   3.860   0.393
   20SOL    HW2  110   4.233   3.893   0.472
   20SOL    HW3  111   4.216   3.769   0.386
   20SOL    MW4  112   4.199   3.852   0.402
   21SOL     OW  113   0.102   3.805   0.194
   21SOL    HW2  114   0.185   3.835   0.232
   21SOL    HW3  115   0.116   3.811   0.099
   21SOL    MW4  116   0.115   3.810   0.186
   22SOL     OW  117   4.413   4.487   0.384
   22SOL    HW2  118   4.381   4.412   0.334
   22SOL    HW3  119   4.384   4.470   0.474
   22SOL    MW4  120   4.405   4.475   0.389
   23SOL     OW  121   4.300   4.276   0.250
   23SOL    HW2  122   4.322   4.183   0.258
   23SOL    HW3  123   4.214   4.284   0.293
   23SOL    MW4  124   4.291   4.265   0.256
   24SOL     OW  125   4.391   4.010   0.286
   24SOL    HW2  126   4.315   3.958   0.313
   24SOL    HW3  127   4.439   3.953   0.226
   24SOL    MW4  128   4.388   3.995   0.282
   25SOL     OW  129   0.546   3.192   0.475
   25SOL    HW2  130   0.548   3.207   0.570
   25SOL    HW3  131   0.632   3.220   0.445
   25SOL    MW4  132   0.558   3.198   0.484
   26SOL     OW  133   0.473   4.485   0.378
   26SOL    HW2  134   0.401   4.462   0.438
   26SOL    HW3  135   0.434   4.478   0.291
   26SOL    MW4  136   0.458   4.481   0.374
   27SOL     OW  137   0.251   0.262   0.410
   27SOL    HW2  138   0.173   0.206   0.410
   27SOL    HW3  139   0.324   0.202   0.429
   27SOL    MW4  140   0.250   0.247   0.413
   28SOL     OW  141   0.017   0.696   0.356
   28SOL    HW2  142   0.047   0.716   0.267
   28SOL    HW3  143   0.087   0.643   0.394
   28SOL    MW4  144   0.030   0.691   0.349
   29SOL     OW  145   0.954   4.478   0.372
   29SOL    HW2  146   1.017   4.406   0.378
   29SOL    HW3  147   0.871   4.438   0.398
   29SOL    MW4  148   0.951   4.463   0.377
   30SOL     OW  149   1.193   1.033   0.446
   30SOL    HW2  150   1.113   0.984   0.467
   30SOL    HW3  151   1.264   0.970   0.462
   30SOL    MW4  152   1.192   1.018   0.451
   31SOL     OW  153   0.636   0.500   0.509
   31SOL    HW2  154   0.729   0.524   0.509
   31SOL    HW3  155   0.637   0.407   0.486
   31SOL    MW4  156   0.649   0.491   0.506
   32SOL     OW  157   0.291   1.227   0.472
   32SOL    HW2  158   0.340   1.145   0.479
   32SOL    HW3  159   0.208   1.201   0.431
   32SOL    MW4  160   0.287   1.212   0.467
   33SOL     OW  161   0.204   2.160   0.402
   33SOL    HW2  162   0.117   2.179   0.367
   33SOL    HW3  163   0.219   2.068   0.382
   33SOL    MW4  164   0.194   2.150   0.395
   34SOL     OW  165   0.671   2.092   0.245
   34SOL    HW2  166   0.687   2.169   0.190
   34SOL    HW3  167   0.757   2.048   0.251
   34SOL    MW4  168   0.685   2.096   0.239
   35SOL     OW  169   0.940   2.765   0.183
   35SOL    HW2  170   1.028   2.726   0.182
   35SOL    HW3  171   0.944   2.831   0.253
   35SOL    MW4  172   0.952   2.769   0.193
   36SOL     OW  173   0.693   2.642   0.124
   36SOL    HW2  174   0.684   2.648   0.029
   36SOL    HW3  175   0.774   2.690   0.143
   36SOL    MW4  176   0.703   2.649   0.114
   37SOL     OW  177   3.914   2.480   0.298
   37SOL    HW2  178   3.893   2.513   0.211
   37SOL    HW3  179   3.999   2.437   0.287
   37SOL    MW4  180   3.923   2.479   0.285
   38SOL     OW  181   1.344   2.449   0.511
   38SOL    HW2  182   1.379   2.387   0.448
   38SOL    HW3  183   1.349   2.534   0.467
   38SOL    MW4  184   1.349   2.452   0.497
   39SOL     OW  185   0.686   2.508   0.492
   39SOL    HW2  186   0.627   2.561   0.437
   39SOL    HW3  187   0.770   2.553   0.488
   39SOL    MW4  188   0.689   2.521   0.484
   40SOL     OW  189   0.037   3.040   0.449
   40SOL    HW2  190   0.001   3.109   0.393
   40SOL    HW3  191  -0.021   2.965   0.433
   40SOL    MW4  192   0.025   3.039   0.439
   41SOL     OW  193   0.519   2.682   0.352
   41SOL    HW2  194   0.565   2.667   0.269
   41SOL    HW3  195   0.549   2.768   0.381
   41SOL    MW4  196   0.529   2.691   0.345
   42SOL     OW  197   0.805   0.449   0.217
   42SOL    HW2  198   0.804   0.504   0.138
   42SOL    HW3  199   0.827   0.509   0.288
   42SOL    MW4  200   0.808   0.464   0.216
   43SOL     OW  201   0.231   3.643   0.472
   43SOL    HW2  202   0.269   3.716   0.423
   43SOL    HW3  203   0.299   3.576   0.471
   43SOL    MW4  204   0.245   3.644   0.465
   44SOL     OW  205   0.673   3.615   0.458
   44SOL    HW2  206   0.655   3.702   0.424
   44SOL    HW3  207   0.679   3.627   0.553
   44SOL    MW4  208   0.672   3.628   0.466
   45SOL     OW  209   1.158   3.586   0.509
   45SOL    HW2  210   1.088   3.531   0.477
   45SOL    HW3  211   1.232   3.569   0.450
   45SOL    MW4  212   1.159   3.577   0.497
   46SOL     OW  213   0.185   4.392   0.427
   46SOL    HW2  214   0.111   4.442   0.391
   46SOL    HW3  215   0.165   4.301   0.405
   46SOL    MW4  216   0.172   4.387   0.419
   47SOL     OW  217   0.897   3.496   0.390
   47SOL    HW2  218   0.905   3.537   0.304
   47SOL    HW3  219   0.817   3.533   0.426
   47SOL    MW4  220   0.888   3.506   0.383
   48SOL     OW  221   0.722   4.361   0.464
   48SOL    HW2  222   0.644   4.401   0.425
   48SOL    HW3  223   0.720   4.388   0.556
   48SOL    MW4  224   0.711   4.370   0.471
   49SOL     OW  225   0.695   0.247   0.389
   49SOL    HW2  226   0.766   0.187   0.410
   49SOL    HW3  227   0.733   0.307   0.324
   49SOL    MW4  228   0.709   0.247   0.383
   50SOL     OW  229   0.905   0.635   0.425
   50SOL    HW2  230   0.908   0.730   0.414
   50SOL    HW3  231   0.997   0.609   0.425
   50SOL    MW4  232   0.918   0.644   0.423
   51SOL     OW  233   0.488   0.703   0.386
   51SOL    HW2  234   0.401   0.662   0.384
   51SOL    HW3  235   0.546   0.635   0.418
   51SOL    MW4  236   0.484   0.689   0.390
   52SOL     OW  237   1.413   0.517   0.479
   52SOL    HW2  238   1.466   0.509   0.558
   52SOL    HW3  239   1.399   0.611   0.469
   52SOL    MW4  240   1.418   0.529   0.488
   53SOL     OW  241   1.888   0.878   0.340
   53SOL    HW2  242   1.807   0.891   0.390
   53SOL    HW3  243   1.865   0.901   0.250
   53SOL    MW4  244   1.874   0.882   0.335
   54SOL     OW  245   1.593   0.154   0.194
   54SOL    HW2  246   1.557   0.173   0.107
   54SOL    HW3  247   1.527   0.187   0.254
   54SOL    MW4  248   1.579   0.161   0.190
   55SOL     OW  249   0.892   1.678   0.430
   55SOL    HW2  250   0.815   1.623   0.415
   55SOL    HW3  251   0.904   1.678   0.525
   55SOL    MW4  252   0.884   1.671   0.440
   56SOL     OW  253   0.767   1.291   0.406
   56SOL    HW2  254   0.738   1.210   0.365
   56SOL    HW3  255   0.854   1.270   0.440
   56SOL    MW4  256   0.775   1.278   0.405
   57SOL     OW  257   1.238   1.383   0.286
   57SOL    HW2  258   1.247   1.386   0.191
   57SOL    HW3  259   1.209   1.471   0.310
   57SOL    MW4  260   1.236   1.395   0.277
   58SOL     OW  261   1.049   1.268   0.475
   58SOL    HW2  262   1.091   1.183   0.468
   58SOL    HW3  263   1.100   1.325   0.416
   58SOL    MW4  264   1.061   1.265   0.466
   59SOL     OW  265   1.159   1.678   0.287
   59SOL    HW2  266   1.225   1.724   0.338
   59SOL    HW3  267   1.076   1.705   0.326
   59SOL    MW4  268   1.156   1.687   0.299
   60SOL     OW  269   4.415   2.239   0.346
   60SOL    HW2  270   4.352   2.277   0.283
   60SOL    HW3  271   4.468   2.313   0.375
   60SOL    MW4  272   4.413   2.254   0.341
   61SOL     OW  273   0.579   1.873   0.402
   61SOL    HW2  274   0.629   1.795   0.381
   61SOL    HW3  275   0.598   1.934   0.331
   61SOL    MW4  276   0.588   1.871   0.390
   62SOL     OW  277   0.843   2.210   0.507
   62SOL    HW2  278   0.839   2.119   0.477
   62SOL    HW3  279   0.936   2.233   0.502
   62SOL    MW4  280   0.855   2.201   0.503
   63SOL     OW  281   0.582   2.191   0.610
   63SOL    HW2  282   0.671   2.197   0.644
   63SOL    HW3  283   0.558   2.099   0.622
   63SOL    MW4  284   0.590   2.180   0.616
   64SOL     OW  285   0.990   2.578   0.509
   64SOL    HW2  286   1.022   2.519   0.441
   64SOL    HW3  287   1.010   2.533   0.591
   64SOL    MW4  288   0.997   2.564   0.511
   65SOL     OW  289   1.060   2.408   0.290
   65SOL    HW2  290   1.138   2.354   0.305
   65SOL    HW3  291   1.093   2.488   0.249
   65SOL    MW4  292   1.075   2.411   0.287
   66SOL     OW  293   0.638   2.920   0.474
   66SOL    HW2  294   0.597   3.006   0.473
   66SOL    HW3  295   0.646   2.897   0.566
   66SOL    MW4  296   0.634   2.928   0.486
   67SOL     OW  297   0.829   3.240   0.484
   67SOL    HW2  298   0.861   3.226   0.573
   67SOL    HW3  299   0.870   3.322   0.456
   67SOL    MW4  300   0.839   3.249   0.492
   68SOL     OW  301   2.186   3.547   0.471
   68SOL    HW2  302   2.150   3.568   0.558
   68SOL    HW3  303   2.152   3.460   0.451
   68SOL    MW4  304   2.177   3.539   0.480
   69SOL     OW  305   0.961   4.048   0.529
   69SOL    HW2  306   0.871   4.064   0.503
   69SOL    HW3  307   0.958   4.042   0.625
   69SOL    MW4  308   0.949   4.050   0.539
   70SOL     OW  309   0.698   4.075   0.473
   70SOL    HW2  310   0.643   4.074   0.551
   70SOL    HW3  311   0.701   4.167   0.446
   70SOL    MW4  312   0.691   4.087   0.480
   71SOL     OW  313   1.148   4.264   0.445
   71SOL    HW2  314   1.106   4.181   0.470
   71SOL    HW3  315   1.152   4.313   0.527
   71SOL    MW4  316   1.143   4.259   0.459
   72SOL     OW  317   1.128   0.476   0.490
   72SOL    HW2  318   1.114   0.387   0.458
   72SOL    HW3  319   1.223   0.488   0.490
   72SOL    MW4  320   1.139   0.466   0.486
   73SOL     OW  321   0.914   0.081   0.463
   73SOL    HW2  322   0.921  -0.009   0.432
   73SOL    HW3  323   0.933   0.077   0.556
   73SOL    MW4  324   0.917   0.069   0.471
   74SOL     OW  325   1.384   0.258   0.372
   74SOL    HW2  326   1.289   0.246   0.366
   74SOL    HW3  327   1.395   0.342   0.416
   74SOL    MW4  328   1.373   0.267   0.377
   75SOL     OW  329   2.074   0.122   0.336
   75SOL    HW2  330   1.994   0.173   0.322
   75SOL    HW3  331   2.047   0.051   0.395
   75SOL    MW4  332   2.060   0.120   0.342
   76SOL     OW  333   1.103   0.237   0.346
   76SOL    HW2  334   1.038   0.179   0.385
   76SOL    HW3  335   1.065   0.262   0.262
   76SOL    MW4  336   1.089   0.232   0.340
   77SOL     OW  337   2.308   0.482   0.470
   77SOL    HW2  338   2.214   0.497   0.474
   77SOL    HW3  339   2.317   0.387   0.474
   77SOL    MW4  340   2.297   0.471   0.471
   78SOL     OW  341   2.412   1.001   0.366
   78SOL    HW2  342   2.480   0.960   0.312
   78SOL    HW3  343   2.330   0.981   0.321
   78SOL    MW4  344   2.410   0.993   0.353
   79SOL     OW  345   1.789   1.275   0.229
   79SOL    HW2  346   1.712   1.332   0.237
   79SOL    HW3  347   1.816   1.283   0.138
   79SOL    MW4  348   1.783   1.284   0.218
   80SOL     OW  349   1.642   0.947   0.465
   80SOL    HW2  350   1.668   0.955   0.557
   80SOL    HW3  351   1.590   1.026   0.448
   80SOL    MW4  352   1.638   0.959   0.475
   81SOL     OW  353   1.462   1.172   0.405
   81SOL    HW2  354   1.367   1.169   0.400
   81SOL    HW3  355   1.487   1.247   0.350
   81SOL    MW4  356   1.453   1.182   0.397
   82SOL     OW  357   1.666   1.570   0.433
   82SOL    HW2  358   1.761   1.558   0.439
   82SOL    HW3  359   1.632   1.543   0.518
   82SOL    MW4  360   1.674   1.565   0.445
   83SOL     OW  361   1.200   2.632   0.209
   83SOL    HW2  362   1.251   2.658   0.132
   83SOL    HW3  363   1.244   2.676   0.282
   83SOL    MW4  364   1.213   2.641   0.209
   84SOL     OW  365   1.357   2.733   0.432
   84SOL    HW2  366   1.294   2.780   0.487
   84SOL    HW3  367   1.443   2.757   0.469
   84SOL    MW4  368   1.360   2.743   0.445
   85SOL     OW  369   2.149   1.897   0.365
   85SOL    HW2  370   2.143   1.990   0.387
   85SOL    HW3  371   2.242   1.876   0.374
   85SOL    MW4  372   2.160   1.906   0.369
   86SOL     OW  373   1.537   2.120   0.433
   86SOL    HW2  374   1.608   2.184   0.441
   86SOL    HW3  375   1.581   2.036   0.420
   86SOL    MW4  376   1.552   2.118   0.433
   87SOL     OW  377   0.910   1.963   0.352
   87SOL    HW2  378   1.004   1.972   0.365
   87SOL    HW3  379   0.893   1.870   0.367
   87SOL    MW4  380   0.920   1.952   0.356
   88SOL     OW  381   0.899   2.973   0.386
   88SOL    HW2  382   0.893   3.067   0.401
   88SOL    HW3  383   0.813   2.939   0.413
   88SOL    MW4  384   0.887   2.981   0.392
   89SOL     OW  385   2.056   2.152   0.479
   89SOL    HW2  386   2.069   2.121   0.568
   89SOL    HW3  387   2.113   2.229   0.472
   89SOL    MW4  388   2.065   2.158   0.490
   90SOL     OW  389   2.017   0.530   0.463
   90SOL    HW2  390   1.992   0.607   0.413
   90SOL    HW3  391   1.970   0.458   0.421
   90SOL    MW4  392   2.007   0.530   0.451
   91SOL     OW  393   1.103   3.836   0.396
   91SOL    HW2  394   1.098   3.762   0.458
   91SOL    HW3  395   1.052   3.905   0.439
   91SOL    MW4  396   1.095   3.835   0.410
   92SOL     OW  397   2.073   2.619   0.347
   92SOL    HW2  398   2.080   2.692   0.409
   92SOL    HW3  399   2.164   2.594   0.328
   92SOL    MW4  400   2.086   2.626   0.352
   93SOL     OW  401   1.359   3.956   0.524
   93SOL    HW2  402   1.283   3.918   0.481
   93SOL    HW3  403   1.369   4.042   0.484
   93SOL    MW4  404   1.351   3.963   0.513
   94SOL     OW  405   1.791   2.979   0.454
   94SOL    HW2  406   1.871   2.930   0.438
   94SOL    HW3  407   1.721   2.916   0.441
   94SOL    MW4  408   1.792   2.965   0.450
   95SOL     OW  409   2.205   3.834   0.418
   95SOL    HW2  410   2.202   3.739   0.424
   95SOL    HW3  411   2.283   3.852   0.365
   95SOL    MW4  412   2.215   3.824   0.411
   96SOL     OW  413   0.904   3.754   0.200
   96SOL    HW2  414   0.943   3.761   0.114
   96SOL    HW3  415   0.964   3.802   0.258
   96SOL    MW4  416   0.917   3.761   0.197
   97SOL     OW  417   1.913   4.632   0.536
   97SOL    HW2  418   1.857   4.709   0.543
   97SOL    HW3  419   1.856   4.564   0.499
   97SOL    MW4  420   1.898   4.633   0.532
   98SOL     OW  421   2.058   4.564   0.771
   98SOL    HW2  422   2.074   4.469   0.773
   98SOL    HW3  423   2.020   4.581   0.685
   98SOL    MW4  424   2.055   4.553   0.760
   99SOL     OW  425   2.562   4.333   0.150
   99SOL    HW2  426   2.612   4.391   0.208
   99SOL    HW3  427   2.569   4.374   0.063
   99SOL    MW4  428   2.569   4.346   0.146
  100SOL     OW  429   1.395   4.228   0.324
  100SOL    HW2  430   1.305   4.259   0.335
  100SOL    HW3  431   1.422   4.261   0.239
  100SOL    MW4  432   1.387   4.236   0.314
  101SOL     OW  433   2.539   0.631   0.504
  101SOL    HW2  434   2.461   0.582   0.479
  101SOL    HW3  435   2.557   0.688   0.428
  101SOL    MW4  436   2.531   0.632   0.490
  102SOL     OW  437   1.611   1.845   0.445
  102SOL    HW2  438   1.620   1.757   0.408
  102SOL    HW3  439   1.699   1.866   0.478
  102SOL    MW4  440   1.624   1.836   0.445
  103SOL     OW  441   1.918   1.308   0.459
  103SOL    HW2  442   1.936   1.402   0.457
  103SOL    HW3  443   1.860   1.293   0.385
  103SOL    MW4  444   1.912   1.319   0.449
  104SOL     OW  445   2.475   1.267   0.407
  104SOL    HW2  446   2.565   1.290   0.430
  104SOL    HW3  447   2.478   1.173   0.389
  104SOL    MW4  448   2.487   1.258   0.408
  105SOL     OW  449   2.436   1.825   0.393
  105SOL    HW2  450   2.456   1.914   0.422
  105SOL    HW3  451   2.511   1.773   0.422
  105SOL    MW4  452   2.449   1.830   0.401
  106SOL     OW  453   1.527   1.401   0.256
  106SOL    HW2  454   1.436   1.411   0.284
  106SOL    HW3  455   1.572   1.477   0.293
  106SOL    MW4  456   1.521   1.412   0.265
  107SOL     OW  457   1.326   1.835   0.452
  107SOL    HW2  458   1.418   1.856   0.438
  107SOL    HW3  459   1.326   1.781   0.531
  107SOL    MW4  460   1.338   1.830   0.461
  108SOL     OW  461   2.280   2.327   0.478
  108SOL    HW2  462   2.296   2.393   0.411
  108SOL    HW3  463   2.316   2.364   0.558
  108SOL    MW4  464   2.287   2.340   0.479
  109SOL     OW  465   1.835   3.255   0.480
  109SOL    HW2  466   1.817   3.161   0.474
  109SOL    HW3  467   1.922   3.266   0.441
  109SOL    MW4  468   1.844   3.244   0.474
  110SOL     OW  469   1.103   2.845   0.536
  110SOL    HW2  470   1.064   2.893   0.463
  110SOL    HW3  471   1.072   2.755   0.526
  110SOL    MW4  472   1.094   2.840   0.525
  111SOL     OW  473   1.568   3.461   0.474
  111SOL    HW2  474   1.651   3.416   0.458
  111SOL    HW3  475   1.589   3.554   0.460
  111SOL    MW4  476   1.582   3.467   0.470
  112SOL     OW  477   1.166   2.068   0.417
  112SOL    HW2  478   1.145   2.079   0.510
  112SOL    HW3  479   1.221   1.990   0.414
  112SOL    MW4  480   1.171   2.059   0.429
  113SOL     OW  481   3.606   1.597   0.462
  113SOL    HW2  482   3.522   1.569   0.427
  113SOL    HW3  483   3.591   1.608   0.555
  113SOL    MW4  484   3.593   1.594   0.469
  114SOL     OW  485   1.786   2.267   0.490
  114SOL    HW2  486   1.867   2.220   0.468
  114SOL    HW3  487   1.787   2.344   0.433
  114SOL    MW4  488   1.797   2.271   0.480
  115SOL     OW  489   1.338   2.243   0.275
  115SOL    HW2  490   1.420   2.202   0.304
  115SOL    HW3  491   1.270   2.181   0.301
  115SOL    MW4  492   1.340   2.229   0.282
  116SOL     OW  493   1.326   3.357   0.411
  116SOL    HW2  494   1.409   3.401   0.430
  116SOL    HW3  495   1.350   3.288   0.349
  116SOL    MW4  496   1.340   3.354   0.405
  117SOL     OW  497   2.455   3.539   0.494
  117SOL    HW2  498   2.361   3.534   0.477
  117SOL    HW3  499   2.462   3.537   0.589
  117SOL    MW4  500   2.443   3.538   0.504
  118SOL     OW  501   1.819   4.400   0.382
  118SOL    HW2  502   1.761   4.342   0.431
  118SOL    HW3  503   1.906   4.365   0.398
  118SOL    MW4  504   1.823   4.388   0.391
  119SOL     OW  505   1.602   3.736   0.510
  119SOL    HW2  506   1.513   3.771   0.524
  119SOL    HW3  507   1.654   3.813   0.488
  119SOL    MW4  508   1.597   3.751   0.509
  120SOL     OW  509   1.593   4.575   0.325
  120SOL    HW2  510   1.600   4.644   0.259
  120SOL    HW3  511   1.679   4.533   0.326
  120SOL    MW4  512   1.605   4.578   0.316
  121SOL     OW  513   1.476   0.061   0.530
  121SOL    HW2  514   1.441   0.128   0.471
  121SOL    HW3  515   1.513  -0.006   0.471
  121SOL    MW4  516   1.476   0.061   0.514
  122SOL     OW  517   2.482   4.454   0.647
  122SOL    HW2  518   2.508   4.379   0.700
  122SOL    HW3  519   2.448   4.518   0.710
  122SOL    MW4  520   2.481   4.453   0.663
  123SOL     OW  521   2.304   0.212   0.492
  123SOL    HW2  522   2.257   0.193   0.573
  123SOL    HW3  523   2.245   0.182   0.423
  123SOL    MW4  524   2.290   0.205   0.494
  124SOL     OW  525   2.853   1.499   0.406
  124SOL    HW2  526   2.783   1.560   0.430
  124SOL    HW3  527   2.808   1.418   0.385
  124SOL    MW4  528   2.838   1.497   0.406
  125SOL     OW  529   2.938   0.401   0.457
  125SOL    HW2  530   2.848   0.397   0.425
  125SOL    HW3  531   2.981   0.467   0.402
  125SOL    MW4  532   2.932   0.410   0.445
  126SOL     OW  533   2.063   1.076   0.459
  126SOL    HW2  534   2.005   1.152   0.450
  126SOL    HW3  535   2.013   1.003   0.423
  126SOL    MW4  536   2.049   1.077   0.453
  127SOL     OW  537   2.732   1.268   0.501
  127SOL    HW2  538   2.759   1.180   0.474
  127SOL    HW3  539   2.783   1.286   0.580
  127SOL    MW4  540   2.742   1.258   0.508
  128SOL     OW  541   2.679   1.697   0.476
  128SOL    HW2  542   2.745   1.756   0.439
  128SOL    HW3  543   2.698   1.695   0.570
  128SOL    MW4  544   2.690   1.704   0.484
  129SOL     OW  545   3.066   1.860   0.425
  129SOL    HW2  546   3.100   1.924   0.488
  129SOL    HW3  547   3.136   1.852   0.359
  129SOL    MW4  548   3.080   1.868   0.424
  130SOL     OW  549   2.942   4.546   0.433
  130SOL    HW2  550   2.998   4.623   0.425
  130SOL    HW3  551   3.002   4.473   0.441
  130SOL    MW4  552   2.957   4.547   0.433
  131SOL     OW  553   1.914   1.845   0.531
  131SOL    HW2  554   1.950   1.894   0.605
  131SOL    HW3  555   1.978   1.858   0.461
  131SOL    MW4  556   1.927   1.853   0.532
  132SOL     OW  557   1.571   1.511   0.687
  132SOL    HW2  558   1.630   1.555   0.749
  132SOL    HW3  559   1.491   1.564   0.689
  132SOL    MW4  560   1.569   1.524   0.696
  133SOL     OW  561   2.464   2.091   0.493
  133SOL    HW2  562   2.413   2.171   0.483
  133SOL    HW3  563   2.551   2.113   0.460
  133SOL    MW4  564   2.469   2.104   0.487
  134SOL     OW  565   2.744   2.158   0.435
  134SOL    HW2  566   2.760   2.103   0.359
  134SOL    HW3  567   2.796   2.118   0.505
  134SOL    MW4  568   2.753   2.145   0.435
  135SOL     OW  569   2.569   2.657   0.380
  135SOL    HW2  570   2.615   2.574   0.391
  135SOL    HW3  571   2.633   2.723   0.408
  135SOL    MW4  572   2.584   2.655   0.385
  136SOL     OW  573   1.811   2.571   0.458
  136SOL    HW2  574   1.857   2.569   0.542
  136SOL    HW3  575   1.881   2.580   0.393
  136SOL    MW4  576   1.827   2.572   0.460
  137SOL     OW  577   1.610   2.784   0.513
  137SOL    HW2  578   1.640   2.796   0.603
  137SOL    HW3  579   1.657   2.707   0.482
  137SOL    MW4  580   1.620   2.775   0.520
  138SOL     OW  581   2.004   4.006   0.348
  138SOL    HW2  582   2.021   4.005   0.254
  138SOL    HW3  583   2.065   3.942   0.385
  138SOL    MW4  584   2.014   3.998   0.341
  139SOL     OW  585   2.467   3.888   0.299
  139SOL    HW2  586   2.517   3.808   0.315
  139SOL    HW3  587   2.530   3.949   0.262
  139SOL    MW4  588   2.482   3.885   0.297
  140SOL     OW  589   1.758   3.978   0.462
  140SOL    HW2  590   1.723   4.067   0.453
  140SOL    HW3  591   1.836   3.977   0.407
  140SOL    MW4  592   1.764   3.990   0.454
  141SOL     OW  593   2.097   3.281   0.370
  141SOL    HW2  594   2.130   3.198   0.406
  141SOL    HW3  595   2.116   3.275   0.276
  141SOL    MW4  596   2.104   3.269   0.362
  142SOL     OW  597   2.358   4.349   0.413
  142SOL    HW2  598   2.398   4.375   0.330
  142SOL    HW3  599   2.394   4.410   0.478
  142SOL    MW4  600   2.368   4.360   0.411
  143SOL     OW  601   2.081   4.253   0.465
  143SOL    HW2  602   2.066   4.165   0.430
  143SOL    HW3  603   2.170   4.274   0.438
  143SOL    MW4  604   2.091   4.244   0.457
  144SOL     OW  605   3.071   0.138   0.444
  144SOL    HW2  606   3.018   0.218   0.453
  144SOL    HW3  607   3.075   0.103   0.533
  144SOL    MW4  608   3.064   0.144   0.457
  145SOL     OW  609   2.622   3.653   0.316
  145SOL    HW2  610   2.568   3.617   0.387
  145SOL    HW3  611   2.610   3.592   0.243
  145SOL    MW4  612   2.613   3.640   0.316
  146SOL     OW  613   2.570   4.109   0.511
  146SOL    HW2  614   2.519   4.189   0.498
  146SOL    HW3  615   2.505   4.043   0.537
  146SOL    MW4  616   2.555   4.111   0.513
  147SOL     OW  617   2.581   0.136   0.469
  147SOL    HW2  618   2.625   0.212   0.431
  147SOL    HW3  619   2.487   0.157   0.465
  147SOL    MW4  620   2.574   0.149   0.463
  148SOL     OW  621   1.844   0.299   0.348
  148SOL    HW2  622   1.815   0.253   0.427
  148SOL    HW3  623   1.766   0.303   0.293
  148SOL    MW4  624   1.830   0.294   0.351
  149SOL     OW  625   3.096   0.610   0.320
  149SOL    HW2  626   3.060   0.692   0.355
  149SOL    HW3  627   3.162   0.583   0.384
  149SOL    MW4  628   3.100   0.617   0.333
  150SOL     OW  629   2.276   1.552   0.452
  150SOL    HW2  630   2.298   1.473   0.403
  150SOL    HW3  631   2.321   1.622   0.404
  150SOL    MW4  632   2.285   1.551   0.439
  151SOL     OW  633   2.647   0.813   0.312
  151SOL    HW2  634   2.699   0.880   0.357
  151SOL    HW3  635   2.711   0.764   0.260
  151SOL    MW4  636   2.662   0.815   0.311
  152SOL     OW  637   3.083   1.608   0.528
  152SOL    HW2  638   3.006   1.556   0.508
  152SOL    HW3  639   3.069   1.691   0.482
  152SOL    MW4  640   3.071   1.612   0.520
  153SOL     OW  641   3.420   1.247   0.470
  153SOL    HW2  642   3.512   1.235   0.446
  153SOL    HW3  643   3.422   1.260   0.565
  153SOL    MW4  644   3.433   1.247   0.479
  154SOL     OW  645   3.451   1.955   0.491
  154SOL    HW2  646   3.435   2.049   0.497
  154SOL    HW3  647   3.545   1.947   0.477
  154SOL    MW4  648   3.461   1.966   0.490
  155SOL     OW  649   2.693   0.074   0.713
  155SOL    HW2  650   2.704   0.161   0.751
  155SOL    HW3  651   2.661   0.091   0.624
  155SOL    MW4  652   2.690   0.088   0.706
  156SOL     OW  653   3.158   2.047   0.618
  156SOL    HW2  654   3.067   2.060   0.646
  156SOL    HW3  655   3.201   2.010   0.695
  156SOL    MW4  656   3.152   2.044   0.632
  157SOL     OW  657   2.744   2.430   0.449
  157SOL    HW2  658   2.832   2.468   0.455
  157SOL    HW3  659   2.757   2.336   0.460
  157SOL    MW4  660   2.757   2.423   0.451
  158SOL     OW  661   2.827   1.916   0.310
  158SOL    HW2  662   2.849   1.906   0.218
  158SOL    HW3  663   2.905   1.885   0.357
  158SOL    MW4  664   2.840   1.910   0.304
  159SOL     OW  665   2.348   2.531   0.319
  159SOL    HW2  666   2.375   2.479   0.244
  159SOL    HW3  667   2.420   2.592   0.334
  159SOL    MW4  668   2.361   2.532   0.311
  160SOL     OW  669   2.680   2.866   0.526
  160SOL    HW2  670   2.623   2.851   0.602
  160SOL    HW3  671   2.628   2.919   0.466
  160SOL    MW4  672   2.666   2.871   0.528
  161SOL     OW  673   3.077   3.099   0.499
  161SOL    HW2  674   3.108   3.136   0.581
  161SOL    HW3  675   3.054   3.008   0.520
  161SOL    MW4  676   3.078   3.092   0.513
  162SOL     OW  677   3.339   3.086   0.409
  162SOL    HW2  678   3.360   2.997   0.438
  162SOL    HW3  679   3.245   3.094   0.420
  162SOL    MW4  680   3.330   3.076   0.414
  163SOL     OW  681   2.245   3.073   0.511
  163SOL    HW2  682   2.265   3.103   0.600
  163SOL    HW3  683   2.330   3.055   0.472
  163SOL    MW4  684   2.259   3.075   0.518
  164SOL     OW  685   1.632   4.246   0.480
  164SOL    HW2  686   1.619   4.285   0.567
  164SOL    HW3  687   1.548   4.259   0.435
  164SOL    MW4  688   1.619   4.253   0.485
  165SOL     OW  689   3.414   3.976   0.392
  165SOL    HW2  690   3.340   4.022   0.353
  165SOL    HW3  691   3.375   3.899   0.434
  165SOL    MW4  692   3.399   3.972   0.392
  166SOL     OW  693   2.864   3.289   0.524
  166SOL    HW2  694   2.827   3.264   0.609
  166SOL    HW3  695   2.934   3.226   0.509
  166SOL    MW4  696   2.868   3.277   0.533
  167SOL     OW  697   2.632   3.299   0.366
  167SOL    HW2  698   2.717   3.296   0.409
  167SOL    HW3  699   2.583   3.367   0.414
  167SOL    MW4  700   2.637   3.308   0.378
  168SOL     OW  701   3.804   3.993   0.701
  168SOL    HW2  702   3.843   3.938   0.634
  168SOL    HW3  703   3.725   4.028   0.660
  168SOL    MW4  704   3.799   3.991   0.687
  169SOL     OW  705   3.190   4.130   0.307
  169SOL    HW2  706   3.165   4.199   0.368
  169SOL    HW3  707   3.107   4.091   0.280
  169SOL    MW4  708   3.176   4.134   0.311
  170SOL     OW  709   3.342   0.227   0.424
  170SOL    HW2  710   3.255   0.190   0.417
  170SOL    HW3  711   3.395   0.159   0.465
  170SOL    MW4  712   3.338   0.213   0.428
  171SOL     OW  713   2.662   4.508   0.361
  171SOL    HW2  714   2.623   4.587   0.397
  171SOL    HW3  715   2.756   4.519   0.374
  171SOL    MW4  716   2.669   4.520   0.367
  172SOL     OW  717   2.930   4.002   0.311
  172SOL    HW2  718   2.920   3.916   0.353
  172SOL    HW3  719   2.843   4.023   0.278
  172SOL    MW4  720   2.917   3.993   0.313
  173SOL     OW  721   2.682   0.385   0.360
  173SOL    HW2  722   2.663   0.473   0.391
  173SOL    HW3  723   2.656   0.386   0.267
  173SOL    MW4  724   2.676   0.396   0.352
  174SOL     OW  725   3.067   0.882   0.429
  174SOL    HW2  726   3.081   0.866   0.522
  174SOL    HW3  727   3.151   0.918   0.398
  174SOL    MW4  728   3.080   0.885   0.437
  175SOL     OW  729   3.302   0.492   0.490
  175SOL    HW2  730   3.309   0.399   0.470
  175SOL    HW3  731   3.389   0.528   0.471
  175SOL    MW4  732   3.314   0.485   0.485
  176SOL     OW  733   3.592   0.871   0.521
  176SOL    HW2  734   3.611   0.779   0.499
  176SOL    HW3  735   3.584   0.872   0.616
  176SOL    MW4  736   3.594   0.859   0.530
  177SOL     OW  737   3.546   0.347   0.276
  177SOL    HW2  738   3.467   0.312   0.316
  177SOL    HW3  739   3.618   0.300   0.318
  177SOL    MW4  740   3.545   0.336   0.287
  178SOL     OW  741   3.497   1.875   0.743
  178SOL    HW2  742   3.481   1.897   0.652
  178SOL    HW3  743   3.411   1.880   0.785
  178SOL    MW4  744   3.483   1.879   0.737
  179SOL     OW  745   3.305   1.807   0.282
  179SOL    HW2  746   3.330   1.715   0.285
  179SOL    HW3  747   3.355   1.848   0.352
  179SOL    MW4  748   3.314   1.800   0.291
  180SOL     OW  749   3.324   0.986   0.419
  180SOL    HW2  750   3.392   0.933   0.461
  180SOL    HW3  751   3.348   1.076   0.439
  180SOL    MW4  752   3.336   0.991   0.427
  181SOL     OW  753   3.921   1.918   0.329
  181SOL    HW2  754   3.899   1.870   0.249
  181SOL    HW3  755   3.840   1.917   0.381
  181SOL    MW4  756   3.907   1.911   0.326
  182SOL     OW  757   3.340   2.268   0.652
  182SOL    HW2  758   3.286   2.189   0.656
  182SOL    HW3  759   3.389   2.268   0.734
  182SOL    MW4  760   3.339   2.258   0.663
  183SOL     OW  761   3.590   2.658   0.518
  183SOL    HW2  762   3.598   2.631   0.610
  183SOL    HW3  763   3.553   2.581   0.474
  183SOL    MW4  764   3.586   2.644   0.524
  184SOL     OW  765   2.057   2.844   0.497
  184SOL    HW2  766   2.046   2.825   0.591
  184SOL    HW3  767   2.125   2.911   0.494
  184SOL    MW4  768   2.064   2.850   0.509
  185SOL     OW  769   3.240   2.606   0.338
  185SOL    HW2  770   3.257   2.607   0.244
  185SOL    HW3  771   3.315   2.560   0.376
  185SOL    MW4  772   3.252   2.600   0.331
  186SOL     OW  773   2.955   2.847   0.841
  186SOL    HW2  774   2.946   2.834   0.747
  186SOL    HW3  775   3.013   2.776   0.869
  186SOL    MW4  776   2.961   2.836   0.832
  187SOL     OW  777   2.825   0.639   0.178
  187SOL    HW2  778   2.918   0.644   0.197
  187SOL    HW3  779   2.818   0.663   0.085
  187SOL    MW4  780   2.836   0.643   0.168
  188SOL     OW  781   2.922   4.118   0.557
  188SOL    HW2  782   2.916   4.084   0.468
  188SOL    HW3  783   2.993   4.066   0.597
  188SOL    MW4  784   2.931   4.106   0.551
  189SOL     OW  785   3.264   3.528   0.569
  189SOL    HW2  786   3.323   3.458   0.540
  189SOL    HW3  787   3.242   3.505   0.659
  189SOL    MW4  788   3.269   3.515   0.577
  190SOL     OW  789   3.722   3.379   0.415
  190SOL    HW2  790   3.768   3.447   0.464
  190SOL    HW3  791   3.756   3.387   0.326
  190SOL    MW4  792   3.733   3.389   0.409
  191SOL     OW  793   3.453   3.314   0.503
  191SOL    HW2  794   3.526   3.343   0.449
  191SOL    HW3  795   3.418   3.237   0.457
  191SOL    MW4  796   3.458   3.308   0.490
  192SOL     OW  797   2.818   3.786   0.478
  192SOL    HW2  798   2.874   3.712   0.500
  192SOL    HW3  799   2.750   3.749   0.422
  192SOL    MW4  800   2.816   3.771   0.474
  193SOL     OW  801   2.530   3.033   0.377
  193SOL    HW2  802   2.500   3.024   0.287
  193SOL    HW3  803   2.556   3.125   0.384
  193SOL    MW4  804   2.529   3.044   0.366
  194SOL     OW  805   4.269   0.059   0.335
  194SOL    HW2  806   4.275   0.112   0.256
  194SOL    HW3  807   4.327  -0.016   0.319
  194SOL    MW4  808   4.277   0.056   0.322
  195SOL     OW  809   3.762   0.224   0.426
  195SOL    HW2  810   3.785   0.312   0.455
  195SOL    HW3  811   3.840   0.192   0.380
  195SOL    MW4  812   3.775   0.231   0.424
  196SOL     OW  813   3.567   0.598   0.406
  196SOL    HW2  814   3.569   0.525   0.345
  196SOL    HW3  815   3.518   0.667   0.361
  196SOL    MW4  816   3.561   0.598   0.392
  197SOL     OW  817   3.369   0.744   0.272
  197SOL    HW2  818   3.277   0.726   0.249
  197SOL    HW3  819   3.370   0.836   0.295
  197SOL    MW4  820   3.357   0.753   0.272
  198SOL     OW  821   4.101   0.651   0.392
  198SOL    HW2  822   4.176   0.600   0.421
  198SOL    HW3  823   4.026   0.593   0.403
  198SOL    MW4  824   4.101   0.637   0.397
  199SOL     OW  825   4.381   0.928   0.452
  199SOL    HW2  826   4.287   0.914   0.439
  199SOL    HW3  827   4.422   0.847   0.423
  199SOL    MW4  828   4.374   0.915   0.447
  200SOL     OW  829   3.846   1.027   0.523
  200SOL    HW2  830   3.837   1.108   0.474
  200SOL    HW3  831   3.758   0.989   0.524
  200SOL    MW4  832   3.833   1.032   0.517
  201SOL     OW  833   4.099   1.680   0.428
  201SOL    HW2  834   4.044   1.755   0.405
  201SOL    HW3  835   4.186   1.717   0.440
  201SOL    MW4  836   4.103   1.695   0.426
  202SOL     OW  837   3.774   1.364   0.489
  202SOL    HW2  838   3.861   1.393   0.461
  202SOL    HW3  839   3.719   1.443   0.480
  202SOL    MW4  840   3.778   1.378   0.484
  203SOL     OW  841   3.326   1.523   0.401
  203SOL    HW2  842   3.246   1.549   0.446
  203SOL    HW3  843   3.330   1.428   0.410
  203SOL    MW4  844   3.316   1.514   0.408
  204SOL     OW  845   2.798   0.992   0.444
  204SOL    HW2  846   2.775   0.975   0.536
  204SOL    HW3  847   2.888   0.961   0.436
  204SOL    MW4  848   2.806   0.986   0.455
  205SOL     OW  849   3.707   2.309   0.434
  205SOL    HW2  850   3.779   2.333   0.375
  205SOL    HW3  851   3.750   2.263   0.506
  205SOL    MW4  852   3.722   2.306   0.436
  206SOL     OW  853   4.321   2.827   0.451
  206SOL    HW2  854   4.322   2.732   0.444
  206SOL    HW3  855   4.230   2.849   0.470
  206SOL    MW4  856   4.309   2.817   0.453
  207SOL     OW  857   3.018   2.539   0.493
  207SOL    HW2  858   3.045   2.492   0.572
  207SOL    HW3  859   3.099   2.558   0.447
  207SOL    MW4  860   3.032   2.536   0.498
  208SOL     OW  861   2.968   3.548   0.534
  208SOL    HW2  862   3.062   3.531   0.529
  208SOL    HW3  863   2.927   3.466   0.506
  208SOL    MW4  864   2.975   3.535   0.529
  209SOL     OW  865   3.361   2.818   0.503
  209SOL    HW2  866   3.449   2.783   0.494
  209SOL    HW3  867   3.309   2.771   0.437
  209SOL    MW4  868   3.366   2.807   0.493
  210SOL     OW  869   4.039   2.900   0.497
  210SOL    HW2  870   3.970   2.839   0.473
  210SOL    HW3  871   4.003   2.986   0.477
  210SOL    MW4  872   4.025   2.903   0.491
  211SOL     OW  873   3.849   2.719   0.442
  211SOL    HW2  874   3.882   2.650   0.385
  211SOL    HW3  875   3.757   2.699   0.455
  211SOL    MW4  876   3.841   2.707   0.436
  212SOL     OW  877   3.881   4.059   0.346
  212SOL    HW2  878   3.886   3.974   0.390
  212SOL    HW3  879   3.888   4.038   0.253
  212SOL    MW4  880   3.882   4.045   0.340
  213SOL     OW  881   3.455   2.436   0.439
  213SOL    HW2  882   3.406   2.379   0.499
  213SOL    HW3  883   3.544   2.401   0.440
  213SOL    MW4  884   3.460   2.424   0.447
  214SOL     OW  885   3.300   3.805   0.610
  214SOL    HW2  886   3.369   3.814   0.676
  214SOL    HW3  887   3.292   3.711   0.595
  214SOL    MW4  888   3.308   3.794   0.616
  215SOL     OW  889   4.273   3.978   0.629
  215SOL    HW2  890   4.234   3.930   0.702
  215SOL    HW3  891   4.223   4.059   0.623
  215SOL    MW4  892   4.262   3.982   0.637
  216SOL     OW  893   3.630   4.095   0.492
  216SOL    HW2  894   3.704   4.085   0.432
  216SOL    HW3  895   3.556   4.059   0.445
  216SOL    MW4  896   3.630   4.089   0.478
  217SOL     OW  897   3.592   4.490   0.394
  217SOL    HW2  898   3.575   4.434   0.470
  217SOL    HW3  899   3.567   4.436   0.319
  217SOL    MW4  900   3.586   4.475   0.395
  218SOL     OW  901   4.457   0.219   0.473
  218SOL    HW2  902   4.394   0.152   0.444
  218SOL    HW3  903   4.468   0.202   0.567
  218SOL    MW4  904   4.450   0.208   0.482
  219SOL     OW  905   4.104   0.938   0.445
  219SOL    HW2  906   4.015   0.974   0.444
  219SOL    HW3  907   4.091   0.845   0.427
  219SOL    MW4  908   4.090   0.930   0.442
  220SOL     OW  909   0.640   1.571   0.362
  220SOL    HW2  910   0.550   1.563   0.393
  220SOL    HW3  911   0.679   1.485   0.380
  220SOL    MW4  912   0.634   1.559   0.368
  221SOL     OW  913   4.339   0.479   0.479
  221SOL    HW2  914   4.383   0.396   0.461
  221SOL    HW3  915   4.391   0.545   0.433
  221SOL    MW4  916   4.351   0.477   0.471
  222SOL     OW  917   4.247   1.247   0.437
  222SOL    HW2  918   4.218   1.158   0.420
  222SOL    HW3  919   4.223   1.263   0.528
  222SOL    MW4  920   4.240   1.237   0.447
  223SOL     OW  921   3.555   0.063   0.525
  223SOL    HW2  922   3.553  -0.019   0.475
  223SOL    HW3  923   3.633   0.108   0.492
  223SOL    MW4  924   3.565   0.058   0.514
  224SOL     OW  925   4.030   1.411   0.432
  224SOL    HW2  926   4.058   1.500   0.412
  224SOL    HW3  927   4.110   1.359   0.424
  224SOL    MW4  928   4.044   1.416   0.428
  225SOL     OW  929   0.019   1.197   0.377
  225SOL    HW2  930  -0.063   1.241   0.403
  225SOL    HW3  931  -0.004   1.104   0.372
  225SOL    MW4  932   0.005   1.191   0.380
  226SOL     OW  933   4.168   2.361   0.273
  226SOL    HW2  934   4.131   2.297   0.334
  226SOL    HW3  935   4.215   2.423   0.329
  226SOL    MW4  936   4.169   2.360   0.288
  227SOL     OW  937   4.329   1.809   0.501
  227SOL    HW2  938   4.408   1.781   0.547
  227SOL    HW3  939   4.326   1.904   0.515
  227SOL    MW4  940   4.339   1.818   0.509
  228SOL     OW  941   0.406   2.360   0.403
  228SOL    HW2  942   0.329   2.303   0.401
  228SOL    HW3  943   0.376   2.438   0.451
  228SOL    MW4  944   0.392   2.363   0.409
  229SOL     OW  945   4.265   2.077   0.511
  229SOL    HW2  946   4.185   2.122   0.486
  229SOL    HW3  947   4.333   2.116   0.457
  229SOL    MW4  948   4.263   2.088   0.501
  230SOL     OW  949   0.063   2.437   0.480
  230SOL    HW2  950   0.138   2.493   0.464
  230SOL    HW3  951   0.055   2.433   0.575
  230SOL    MW4  952   0.072   2.444   0.490
  231SOL     OW  953   4.284   3.607   0.420
  231SOL    HW2  954   4.364   3.595   0.368
  231SOL    HW3  955   4.238   3.524   0.413
  231SOL    MW4  956   4.289   3.595   0.412
  232SOL     OW  957   4.284   2.537   0.448
  232SOL    HW2  958   4.251   2.502   0.530
  232SOL    HW3  959   4.379   2.526   0.454
  232SOL    MW4  960   4.292   2.531   0.460
  233SOL     OW  961   0.335   3.867   0.334
  233SOL    HW2  962   0.315   3.936   0.397
  233SOL    HW3  963   0.430   3.868   0.326
  233SOL    MW4  964   0.345   3.876   0.341
  234SOL     OW  965   0.022   3.556   0.279
  234SOL    HW2  966   0.040   3.638   0.234
  234SOL    HW3  967   0.083   3.555   0.353
  234SOL    MW4  968   0.032   3.567   0.283
  235SOL     OW  969   4.418   3.272   0.330
  235SOL    HW2  970   4.331   3.305   0.353
  235SOL    HW3  971   4.467   3.350   0.305
  235SOL    MW4  972   4.413   3.287   0.330
  236SOL     OW  973   3.944   3.838   0.503
  236SOL    HW2  974   3.913   3.751   0.526
  236SOL    HW3  975   4.025   3.823   0.454
  236SOL    MW4  976   3.951   3.825   0.499
  237SOL     OW  977   3.939   3.176   0.463
  237SOL    HW2  978   3.969   3.184   0.554
  237SOL    HW3  979   3.857   3.225   0.461
  237SOL    MW4  980   3.932   3.183   0.475
  238SOL     OW  981   0.153   4.095   0.459
  238SOL    HW2  982   0.140   4.113   0.552
  238SOL    HW3  983   0.067   4.064   0.429
  238SOL    MW4  984   0.140   4.093   0.467
  239SOL     OW  985   4.054   4.272   0.375
  239SOL    HW2  986   3.995   4.197   0.384
  239SOL    HW3  987   3.998   4.348   0.390
  239SOL    MW4  988   4.039   4.272   0.378
  240SOL     OW  989   4.161   4.240   0.624
  240SOL    HW2  990   4.222   4.310   0.649
  240SOL    HW3  991   4.122   4.271   0.542
  240SOL    MW4  992   4.164   4.254   0.616
  241SOL     OW  993   3.882   4.486   0.487
  241SOL    HW2  994   3.866   4.454   0.576
  241SOL    HW3  995   3.799   4.470   0.441
  241SOL    MW4  996   3.869   4.479   0.493
  242SOL     OW  997   0.214   4.664   0.833
  242SOL    HW2  998   0.192   4.576   0.803
  242SOL    HW3  999   0.141   4.718   0.802
  242SOL    MW4 1000   0.201   4.659   0.825
  243SOL     OW 1001   0.003   0.147   0.744
  243SOL    HW2 1002  -0.083   0.108   0.757
  243SOL    HW3 1003   0.005   0.221   0.805
  243SOL    MW4 1004  -0.008   0.152   0.754
  244SOL     OW 1005   4.478   0.394   0.860
  244SOL    HW2 1006   4.493   0.404   0.954
  244SOL    HW3 1007   4.533   0.461   0.820
  244SOL    MW4 1008   4.487   0.404   0.867
  245SOL     OW 1009   0.183   0.533   0.711
  245SOL    HW2 1010   0.245   0.480   0.760
  245SOL    HW3 1011   0.183   0.618   0.756
  245SOL    MW4 1012   0.191   0.537   0.723
  246SOL     OW 1013   0.189   0.787   0.852
  246SOL    HW2 1014   0.213   0.805   0.943
  246SOL    HW3 1015   0.098   0.817   0.845
  246SOL    MW4 1016   0.180   0.793   0.863
  247SOL     OW 1017   4.435   0.893   0.753
  247SOL    HW2 1018   4.370   0.834   0.791
  247SOL    HW3 1019   4.418   0.890   0.659
  247SOL    MW4 1020   4.424   0.885   0.746
  248SOL     OW 1021   4.481   1.159   0.836
  248SOL    HW2 1022   4.498   1.161   0.930
  248SOL    HW3 1023   4.474   1.067   0.814
  248SOL    MW4 1024   4.482   1.147   0.845
  249SOL     OW 1025   0.230   1.286   0.743
  249SOL    HW2 1026   0.153   1.239   0.776
  249SOL    HW3 1027   0.232   1.265   0.650
  249SOL    MW4 1028   0.220   1.277   0.735
  250SOL     OW 1029   0.247   1.541   0.865
  250SOL    HW2 1030   0.322   1.584   0.824
  250SOL    HW3 1031   0.245   1.453   0.827
  250SOL    MW4 1032   0.257   1.535   0.855
  251SOL     OW 1033   0.042   1.674   0.716
  251SOL    HW2 1034  -0.039   1.638   0.752
  251SOL    HW3 1035   0.112   1.629   0.763
  251SOL    MW4 1036   0.040   1.664   0.727
  252SOL     OW 1037   0.041   1.940   0.801
  252SOL    HW2 1038   0.121   1.986   0.776
  252SOL    HW3 1039   0.054   1.851   0.768
  252SOL    MW4 1040   0.054   1.934   0.793
  253SOL     OW 1041   0.256   2.076   0.671
  253SOL    HW2 1042   0.285   2.155   0.717
  253SOL    HW3 1043   0.241   2.105   0.581
  253SOL    MW4 1044   0.258   2.090   0.665
  254SOL     OW 1045   0.298   2.323   0.793
  254SOL    HW2 1046   0.309   2.329   0.888
  254SOL    HW3 1047   0.375   2.368   0.757
  254SOL    MW4 1048   0.310   2.330   0.801
  255SOL     OW 1049   0.040   2.437   0.751
  255SOL    HW2 1050  -0.024   2.387   0.802
  255SOL    HW3 1051   0.124   2.396   0.771
  255SOL    MW4 1052   0.043   2.425   0.761
  256SOL     OW 1053   0.040   2.703   0.808
  256SOL    HW2 1054   0.022   2.717   0.901
  256SOL    HW3 1055   0.043   2.608   0.798
  256SOL    MW4 1056   0.038   2.692   0.819
  257SOL     OW 1057   0.281   2.823   0.702
  257SOL    HW2 1058   0.190   2.806   0.726
  257SOL    HW3 1059   0.275   2.891   0.635
  257SOL    MW4 1060   0.268   2.830   0.697
  258SOL     OW 1061   0.277   3.102   0.814
  258SOL    HW2 1062   0.267   3.098   0.910
  258SOL    HW3 1063   0.266   3.012   0.785
  258SOL    MW4 1064   0.274   3.090   0.823
  259SOL     OW 1065   0.052   3.210   0.670
  259SOL    HW2 1066   0.137   3.183   0.703
  259SOL    HW3 1067   0.035   3.152   0.596
  259SOL    MW4 1068   0.061   3.199   0.665
  260SOL     OW 1069   0.030   3.464   0.824
  260SOL    HW2 1070  -0.049   3.501   0.786
  260SOL    HW3 1071   0.037   3.377   0.785
  260SOL    MW4 1072   0.021   3.457   0.814
  261SOL     OW 1073   0.227   3.648   0.751
  261SOL    HW2 1074   0.166   3.578   0.776
  261SOL    HW3 1075   0.209   3.662   0.658
  261SOL    MW4 1076   0.217   3.640   0.742
  262SOL     OW 1077   0.282   3.912   0.806
  262SOL    HW2 1078   0.263   3.916   0.899
  262SOL    HW3 1079   0.275   3.819   0.784
  262SOL    MW4 1080   0.279   3.900   0.815
  263SOL     OW 1081   0.073   4.070   0.723
  263SOL    HW2 1082   0.008   4.009   0.691
  263SOL    HW3 1083   0.148   4.015   0.746
  263SOL    MW4 1084   0.075   4.055   0.721
  264SOL     OW 1085   0.022   4.336   0.827
  264SOL    HW2 1086   0.007   4.328   0.921
  264SOL    HW3 1087   0.016   4.247   0.794
  264SOL    MW4 1088   0.019   4.324   0.835
  265SOL     OW 1089   0.240   4.379   0.687
  265SOL    HW2 1090   0.156   4.373   0.732
  265SOL    HW3 1091   0.217   4.388   0.594
  265SOL    MW4 1092   0.226   4.379   0.680
  266SOL     OW 1093   0.666   4.656   0.820
  266SOL    HW2 1094   0.669   4.658   0.915
  266SOL    HW3 1095   0.579   4.688   0.797
  266SOL    MW4 1096   0.655   4.660   0.829
  267SOL     OW 1097   0.440   0.127   0.750
  267SOL    HW2 1098   0.356   0.084   0.766
  267SOL    HW3 1099   0.449   0.129   0.655
  267SOL    MW4 1100   0.430   0.122   0.740
  268SOL     OW 1101   0.371   0.394   0.859
  268SOL    HW2 1102   0.448   0.444   0.831
  268SOL    HW3 1103   0.389   0.304   0.833
  268SOL    MW4 1104   0.383   0.389   0.852
  269SOL     OW 1105   0.604   0.528   0.804
  269SOL    HW2 1106   0.682   0.483   0.835
  269SOL    HW3 1107   0.619   0.538   0.710
  269SOL    MW4 1108   0.616   0.523   0.796
  270SOL     OW 1109   0.620   0.798   0.868
  270SOL    HW2 1110   0.547   0.832   0.817
  270SOL    HW3 1111   0.623   0.704   0.847
  270SOL    MW4 1112   0.611   0.790   0.859
  271SOL     OW 1113   0.398   0.922   0.724
  271SOL    HW2 1114   0.406   1.003   0.774
  271SOL    HW3 1115   0.325   0.876   0.767
  271SOL    MW4 1116   0.389   0.926   0.736
  272SOL     OW 1117   0.465   1.174   0.814
  272SOL    HW2 1118   0.541   1.218   0.776
  272SOL    HW3 1119   0.391   1.230   0.789
  272SOL    MW4 1120   0.465   1.187   0.806
  273SOL     OW 1121   0.677   1.294   0.680
  273SOL    HW2 1122   0.685   1.384   0.713
  273SOL    HW3 1123   0.679   1.304   0.584
  273SOL    MW4 1124   0.678   1.307   0.671
  274SOL     OW 1125   0.688   1.550   0.795
  274SOL    HW2 1126   0.673   1.538   0.889
  274SOL    HW3 1127   0.616   1.606   0.765
  274SOL    MW4 1128   0.677   1.556   0.803
  275SOL     OW 1129   0.441   1.652   0.699
  275SOL    HW2 1130   0.451   1.744   0.673
  275SOL    HW3 1131   0.431   1.605   0.616
  275SOL    MW4 1132   0.441   1.658   0.684
  276SOL     OW 1133   0.501   1.921   0.661
  276SOL    HW2 1134   0.415   1.953   0.634
  276SOL    HW3 1135   0.543   1.893   0.580
  276SOL    MW4 1136   0.495   1.922   0.647
  277SOL     OW 1137   0.613   2.029   0.884
  277SOL    HW2 1138   0.568   2.016   0.967
  277SOL    HW3 1139   0.564   1.975   0.822
  277SOL    MW4 1140   0.601   2.020   0.887
  278SOL     OW 1141   0.717   2.316   0.886
  278SOL    HW2 1142   0.712   2.337   0.979
  278SOL    HW3 1143   0.679   2.229   0.879
  278SOL    MW4 1144   0.711   2.308   0.897
  279SOL     OW 1145   0.549   2.482   0.746
  279SOL    HW2 1146   0.612   2.430   0.796
  279SOL    HW3 1147   0.601   2.523   0.677
  279SOL    MW4 1148   0.564   2.481   0.743
  280SOL     OW 1149   0.480   2.712   0.861
  280SOL    HW2 1150   0.503   2.625   0.827
  280SOL    HW3 1151   0.416   2.746   0.798
  280SOL    MW4 1152   0.474   2.705   0.848
  281SOL     OW 1153   0.696   2.825   0.755
  281SOL    HW2 1154   0.778   2.803   0.799
  281SOL    HW3 1155   0.630   2.773   0.799
  281SOL    MW4 1156   0.698   2.815   0.766
  282SOL     OW 1157   0.690   3.076   0.909
  282SOL    HW2 1158   0.626   3.130   0.863
  282SOL    HW3 1159   0.688   2.992   0.862
  282SOL    MW4 1160   0.681   3.072   0.896
  283SOL     OW 1161   0.521   3.250   0.772
  283SOL    HW2 1162   0.506   3.342   0.793
  283SOL    HW3 1163   0.435   3.208   0.786
  283SOL    MW4 1164   0.508   3.256   0.777
  284SOL     OW 1165   0.469   3.520   0.834
  284SOL    HW2 1166   0.448   3.508   0.926
  284SOL    HW3 1167   0.391   3.561   0.797
  284SOL    MW4 1168   0.456   3.524   0.841
  285SOL     OW 1169   0.705   3.643   0.753
  285SOL    HW2 1170   0.630   3.591   0.782
  285SOL    HW3 1171   0.681   3.733   0.777
  285SOL    MW4 1172   0.692   3.648   0.760
  286SOL     OW 1173   0.673   3.905   0.841
  286SOL    HW2 1174   0.762   3.917   0.810
  286SOL    HW3 1175   0.621   3.968   0.791
  286SOL    MW4 1176   0.678   3.915   0.830
  287SOL     OW 1177   0.512   4.056   0.691
  287SOL    HW2 1178   0.492   4.139   0.734
  287SOL    HW3 1179   0.447   3.995   0.724
  287SOL    MW4 1180   0.501   4.059   0.701
  288SOL     OW 1181   0.483   4.316   0.809
  288SOL    HW2 1182   0.468   4.316   0.903
  288SOL    HW3 1183   0.398   4.335   0.771
  288SOL    MW4 1184   0.470   4.318   0.816
  289SOL     OW 1185   0.740   4.406   0.737
  289SOL    HW2 1186   0.646   4.391   0.746
  289SOL    HW3 1187   0.751   4.500   0.755
  289SOL    MW4 1188   0.729   4.417   0.740
  290SOL     OW 1189   1.152   4.639   0.860
  290SOL    HW2 1190   1.232   4.676   0.823
  290SOL    HW3 1191   1.082   4.698   0.829
  290SOL    MW4 1192   1.153   4.652   0.851
  291SOL     OW 1193   0.920   0.129   0.792
  291SOL    HW2 1194   0.892   0.208   0.838
  291SOL    HW3 1195   0.844   0.071   0.795
  291SOL    MW4 1196   0.906   0.132   0.799
  292SOL     OW 1197   0.816   0.383   0.892
  292SOL    HW2 1198   0.839   0.390   0.984
  292SOL    HW3 1199   0.895   0.409   0.845
  292SOL    MW4 1200   0.829   0.388   0.898
  293SOL     OW 1201   1.085   0.450   0.764
  293SOL    HW2 1202   1.165   0.415   0.803
  293SOL    HW3 1203   1.095   0.434   0.670
  293SOL    MW4 1204   1.096   0.443   0.756
  294SOL     OW 1205   1.080   0.719   0.843
  294SOL    HW2 1206   1.078   0.721   0.938
  294SOL    HW3 1207   1.078   0.626   0.820
  294SOL    MW4 1208   1.079   0.707   0.852
  295SOL     OW 1209   0.842   0.862   0.712
  295SOL    HW2 1210   0.911   0.804   0.745
  295SOL    HW3 1211   0.765   0.840   0.764
  295SOL    MW4 1212   0.841   0.851   0.723
  296SOL     OW 1213   0.865   1.116   0.826
  296SOL    HW2 1214   0.857   1.028   0.788
  296SOL    HW3 1215   0.798   1.167   0.781
  296SOL    MW4 1216   0.855   1.111   0.815
  297SOL     OW 1217   1.090   1.258   0.756
  297SOL    HW2 1218   1.016   1.208   0.789
  297SOL    HW3 1219   1.082   1.254   0.660
  297SOL    MW4 1220   1.079   1.251   0.748
  298SOL     OW 1221   1.118   1.528   0.807
  298SOL    HW2 1222   1.040   1.566   0.768
  298SOL    HW3 1223   1.113   1.435   0.786
  298SOL    MW4 1224   1.107   1.521   0.799
  299SOL     OW 1225   0.905   1.670   0.702
  299SOL    HW2 1226   0.902   1.753   0.750
  299SOL    HW3 1227   0.828   1.622   0.733
  299SOL    MW4 1228   0.895   1.675   0.713
  300SOL     OW 1229   0.891   1.922   0.860
  300SOL    HW2 1230   0.926   1.949   0.944
  300SOL    HW3 1231   0.796   1.930   0.869
  300SOL    MW4 1232   0.883   1.927   0.872
  301SOL     OW 1233   1.105   2.061   0.710
  301SOL    HW2 1234   1.114   2.147   0.751
  301SOL    HW3 1235   1.026   2.023   0.749
  301SOL    MW4 1236   1.096   2.067   0.720
  302SOL     OW 1237   1.188   2.302   0.842
  302SOL    HW2 1238   1.193   2.295   0.937
  302SOL    HW3 1239   1.264   2.355   0.817
  302SOL    MW4 1240   1.198   2.308   0.851
  303SOL     OW 1241   0.939   2.441   0.772
  303SOL    HW2 1242   1.019   2.396   0.800
  303SOL    HW3 1243   0.868   2.388   0.809
  303SOL    MW4 1244   0.940   2.428   0.781
  304SOL     OW 1245   0.935   2.714   0.878
  304SOL    HW2 1246   0.940   2.701   0.973
  304SOL    HW3 1247   0.921   2.626   0.843
  304SOL    MW4 1248   0.934   2.701   0.886
  305SOL     OW 1249   1.161   2.861   0.807
  305SOL    HW2 1250   1.087   2.818   0.850
  305SOL    HW3 1251   1.143   2.851   0.713
  305SOL    MW4 1252   1.149   2.854   0.800
  306SOL     OW 1253   1.169   3.154   0.810
  306SOL    HW2 1254   1.076   3.177   0.801
  306SOL    HW3 1255   1.170   3.059   0.809
  306SOL    MW4 1256   1.157   3.145   0.809
  307SOL     OW 1257   0.893   3.214   0.768
  307SOL    HW2 1258   0.894   3.309   0.783
  307SOL    HW3 1259   0.830   3.181   0.832
  307SOL    MW4 1260   0.885   3.223   0.779
  308SOL     OW 1261   0.904   3.487   0.833
  308SOL    HW2 1262   0.992   3.525   0.822
  308SOL    HW3 1263   0.844   3.559   0.814
  308SOL    MW4 1264   0.908   3.501   0.829
  309SOL     OW 1265   1.161   3.583   0.794
  309SOL    HW2 1266   1.245   3.545   0.817
  309SOL    HW3 1267   1.159   3.581   0.698
  309SOL    MW4 1268   1.172   3.577   0.784
  310SOL     OW 1269   1.161   3.836   0.896
  310SOL    HW2 1270   1.125   3.846   0.984
  310SOL    HW3 1271   1.179   3.742   0.888
  310SOL    MW4 1272   1.158   3.825   0.907
  311SOL     OW 1273   0.930   3.977   0.800
  311SOL    HW2 1274   0.947   4.069   0.824
  311SOL    HW3 1275   1.009   3.930   0.827
  311SOL    MW4 1276   0.942   3.983   0.807
  312SOL     OW 1277   0.956   4.278   0.856
  312SOL    HW2 1278   1.035   4.321   0.823
  312SOL    HW3 1279   0.884   4.325   0.815
  312SOL    MW4 1280   0.957   4.290   0.846
  313SOL     OW 1281   1.165   4.399   0.698
  313SOL    HW2 1282   1.229   4.349   0.748
  313SOL    HW3 1283   1.164   4.485   0.740
  313SOL    MW4 1284   1.173   4.404   0.710
  314SOL     OW 1285   1.634   4.617   0.893
  314SOL    HW2 1286   1.626   4.621   0.988
  314SOL    HW3 1287   1.553   4.657   0.861
  314SOL    MW4 1288   1.622   4.623   0.901
  315SOL     OW 1289   1.392   0.074   0.789
  315SOL    HW2 1290   1.371   0.165   0.814
  315SOL    HW3 1291   1.424   0.081   0.699
  315SOL    MW4 1292   1.393   0.087   0.781
  316SOL     OW 1293   1.332   0.351   0.864
  316SOL    HW2 1294   1.332   0.377   0.956
  316SOL    HW3 1295   1.403   0.402   0.825
  316SOL    MW4 1296   1.341   0.361   0.871
  317SOL     OW 1297   1.552   0.471   0.737
  317SOL    HW2 1298   1.560   0.558   0.778
  317SOL    HW3 1299   1.627   0.423   0.771
  317SOL    MW4 1300   1.563   0.476   0.747
  318SOL     OW 1301   1.544   0.725   0.841
  318SOL    HW2 1302   1.616   0.783   0.818
  318SOL    HW3 1303   1.465   0.773   0.816
  318SOL    MW4 1304   1.543   0.739   0.835
  319SOL     OW 1305   1.310   0.843   0.753
  319SOL    HW2 1306   1.322   0.931   0.788
  319SOL    HW3 1307   1.228   0.813   0.791
  319SOL    MW4 1308   1.301   0.851   0.763
  320SOL     OW 1309   1.329   1.120   0.805
  320SOL    HW2 1310   1.398   1.175   0.767
  320SOL    HW3 1311   1.250   1.174   0.800
  320SOL    MW4 1312   1.328   1.134   0.799
  321SOL     OW 1313   1.550   1.242   0.674
  321SOL    HW2 1314   1.561   1.336   0.682
  321SOL    HW3 1315   1.523   1.228   0.584
  321SOL    MW4 1316   1.548   1.252   0.663
  322SOL     OW 1317   1.734   1.658   0.852
  322SOL    HW2 1318   1.702   1.622   0.934
  322SOL    HW3 1319   1.822   1.622   0.842
  322SOL    MW4 1320   1.741   1.649   0.861
  323SOL     OW 1321   1.342   1.660   0.681
  323SOL    HW2 1322   1.328   1.737   0.736
  323SOL    HW3 1323   1.267   1.603   0.699
  323SOL    MW4 1324   1.330   1.663   0.691
  324SOL     OW 1325   1.324   1.920   0.791
  324SOL    HW2 1326   1.324   1.929   0.886
  324SOL    HW3 1327   1.237   1.949   0.764
  324SOL    MW4 1328   1.312   1.925   0.800
  325SOL     OW 1329   1.535   2.072   0.701
  325SOL    HW2 1330   1.458   2.025   0.732
  325SOL    HW3 1331   1.514   2.094   0.610
  325SOL    MW4 1332   1.522   2.068   0.693
  326SOL     OW 1333   1.579   2.281   0.875
  326SOL    HW2 1334   1.522   2.355   0.854
  326SOL    HW3 1335   1.553   2.212   0.815
  326SOL    MW4 1336   1.568   2.282   0.864
  327SOL     OW 1337   1.426   2.474   0.773
  327SOL    HW2 1338   1.421   2.564   0.804
  327SOL    HW3 1339   1.406   2.480   0.679
  327SOL    MW4 1340   1.423   2.486   0.764
  328SOL     OW 1341   1.416   2.751   0.878
  328SOL    HW2 1342   1.398   2.749   0.972
  328SOL    HW3 1343   1.340   2.795   0.840
  328SOL    MW4 1344   1.403   2.757   0.885
  329SOL     OW 1345   1.673   2.829   0.773
  329SOL    HW2 1346   1.670   2.924   0.781
  329SOL    HW3 1347   1.592   2.799   0.813
  329SOL    MW4 1348   1.662   2.838   0.780
  330SOL     OW 1349   1.611   3.114   0.794
  330SOL    HW2 1350   1.580   3.108   0.884
  330SOL    HW3 1351   1.535   3.143   0.744
  330SOL    MW4 1352   1.597   3.117   0.799
  331SOL     OW 1353   1.382   3.244   0.666
  331SOL    HW2 1354   1.299   3.211   0.701
  331SOL    HW3 1355   1.363   3.267   0.575
  331SOL    MW4 1356   1.368   3.243   0.659
  332SOL     OW 1357   1.413   3.464   0.843
  332SOL    HW2 1358   1.491   3.512   0.815
  332SOL    HW3 1359   1.407   3.390   0.783
  332SOL    MW4 1360   1.422   3.461   0.831
  333SOL     OW 1361   1.634   3.644   0.792
  333SOL    HW2 1362   1.710   3.593   0.818
  333SOL    HW3 1363   1.636   3.643   0.697
  333SOL    MW4 1364   1.644   3.637   0.783
  334SOL     OW 1365   1.588   3.911   0.859
  334SOL    HW2 1366   1.502   3.948   0.838
  334SOL    HW3 1367   1.578   3.817   0.846
  334SOL    MW4 1368   1.576   3.904   0.854
  335SOL     OW 1369   1.346   4.006   0.791
  335SOL    HW2 1370   1.273   3.954   0.823
  335SOL    HW3 1371   1.347   3.991   0.697
  335SOL    MW4 1372   1.336   3.998   0.783
  336SOL     OW 1373   1.354   4.283   0.862
  336SOL    HW2 1374   1.429   4.315   0.812
  336SOL    HW3 1375   1.356   4.188   0.850
  336SOL    MW4 1376   1.364   4.275   0.854
  337SOL     OW 1377   1.623   4.360   0.743
  337SOL    HW2 1378   1.670   4.281   0.772
  337SOL    HW3 1379   1.655   4.429   0.801
  337SOL    MW4 1380   1.634   4.358   0.755
  338SOL     OW 1381   1.892   0.055   0.907
  338SOL    HW2 1382   1.953  -0.006   0.867
  338SOL    HW3 1383   1.806   0.015   0.895
  338SOL    MW4 1384   1.888   0.042   0.900
  339SOL     OW 1385   1.729   0.171   0.586
  339SOL    HW2 1386   1.634   0.160   0.596
  339SOL    HW3 1387   1.758   0.205   0.671
  339SOL    MW4 1388   1.720   0.174   0.599
  340SOL     OW 1389   1.784   0.311   0.832
  340SOL    HW2 1390   1.841   0.249   0.878
  340SOL    HW3 1391   1.839   0.387   0.815
  340SOL    MW4 1392   1.799   0.313   0.836
  341SOL     OW 1393   1.970   0.503   0.765
  341SOL    HW2 1394   1.959   0.509   0.670
  341SOL    HW3 1395   2.059   0.469   0.777
  341SOL    MW4 1396   1.980   0.499   0.754
  342SOL     OW 1397   1.955   0.768   0.827
  342SOL    HW2 1398   2.024   0.812   0.777
  342SOL    HW3 1399   1.959   0.677   0.799
  342SOL    MW4 1400   1.965   0.762   0.817
  343SOL     OW 1401   1.730   0.896   0.735
  343SOL    HW2 1402   1.748   0.988   0.756
  343SOL    HW3 1403   1.806   0.848   0.766
  343SOL    MW4 1404   1.742   0.902   0.742
  344SOL     OW 1405   1.753   1.162   0.832
  344SOL    HW2 1406   1.828   1.220   0.817
  344SOL    HW3 1407   1.683   1.201   0.779
  344SOL    MW4 1408   1.754   1.175   0.823
  345SOL     OW 1409   1.987   1.290   0.735
  345SOL    HW2 1410   2.071   1.244   0.746
  345SOL    HW3 1411   1.971   1.289   0.641
  345SOL    MW4 1412   1.996   1.284   0.724
  346SOL     OW 1413   1.998   1.547   0.837
  346SOL    HW2 1414   2.076   1.583   0.795
  346SOL    HW3 1415   1.999   1.454   0.813
  346SOL    MW4 1416   2.009   1.539   0.828
  347SOL     OW 1417   1.969   1.571   0.491
  347SOL    HW2 1418   1.959   1.661   0.523
  347SOL    HW3 1419   2.061   1.564   0.465
  347SOL    MW4 1420   1.980   1.582   0.492
  348SOL     OW 1421   1.763   1.931   0.783
  348SOL    HW2 1422   1.735   1.840   0.794
  348SOL    HW3 1423   1.688   1.975   0.745
  348SOL    MW4 1424   1.750   1.925   0.780
  349SOL     OW 1425   2.023   2.034   0.735
  349SOL    HW2 1426   2.034   2.121   0.773
  349SOL    HW3 1427   1.936   2.006   0.763
  349SOL    MW4 1428   2.013   2.042   0.744
  350SOL     OW 1429   2.073   2.293   0.832
  350SOL    HW2 1430   2.086   2.300   0.926
  350SOL    HW3 1431   1.983   2.322   0.818
  350SOL    MW4 1432   2.063   2.298   0.842
  351SOL     OW 1433   1.813   2.348   0.758
  351SOL    HW2 1434   1.741   2.326   0.817
  351SOL    HW3 1435   1.782   2.323   0.671
  351SOL    MW4 1436   1.800   2.342   0.755
  352SOL     OW 1437   1.849   2.621   0.852
  352SOL    HW2 1438   1.824   2.537   0.815
  352SOL    HW3 1439   1.788   2.684   0.815
  352SOL    MW4 1440   1.838   2.618   0.842
  353SOL     OW 1441   2.054   2.777   0.758
  353SOL    HW2 1442   2.140   2.746   0.789
  353SOL    HW3 1443   1.992   2.710   0.787
  353SOL    MW4 1444   2.058   2.764   0.766
  354SOL     OW 1445   2.017   3.045   0.834
  354SOL    HW2 1446   1.939   3.088   0.799
  354SOL    HW3 1447   2.022   2.962   0.787
  354SOL    MW4 1448   2.008   3.040   0.823
  355SOL     OW 1449   1.848   3.240   0.755
  355SOL    HW2 1450   1.757   3.215   0.773
  355SOL    HW3 1451   1.849   3.261   0.662
  355SOL    MW4 1452   1.836   3.240   0.745
  356SOL     OW 1453   1.855   3.503   0.860
  356SOL    HW2 1454   1.850   3.507   0.955
  356SOL    HW3 1455   1.853   3.410   0.839
  356SOL    MW4 1456   1.854   3.492   0.870
  357SOL     OW 1457   2.096   3.607   0.732
  357SOL    HW2 1458   2.115   3.684   0.786
  357SOL    HW3 1459   2.013   3.574   0.765
  357SOL    MW4 1460   2.088   3.613   0.743
  358SOL     OW 1461   2.069   3.870   0.814
  358SOL    HW2 1462   2.038   3.857   0.904
  358SOL    HW3 1463   1.993   3.903   0.766
  358SOL    MW4 1464   2.055   3.872   0.819
  359SOL     OW 1465   1.815   3.964   0.731
  359SOL    HW2 1466   1.733   3.941   0.775
  359SOL    HW3 1467   1.798   3.949   0.638
  359SOL    MW4 1468   1.802   3.959   0.725
  360SOL     OW 1469   1.870   4.216   0.847
  360SOL    HW2 1470   1.860   4.207   0.941
  360SOL    HW3 1471   1.835   4.134   0.811
  360SOL    MW4 1472   1.864   4.204   0.854
  361SOL     OW 1473   2.117   4.289   0.760
  361SOL    HW2 1474   2.028   4.259   0.778
  361SOL    HW3 1475   2.130   4.271   0.667
  361SOL    MW4 1476   2.107   4.283   0.750
  362SOL     OW 1477   2.456   4.666   0.828
  362SOL    HW2 1478   2.461   4.662   0.923
  362SOL    HW3 1479   2.543   4.697   0.801
  362SOL    MW4 1480   2.468   4.670   0.837
  363SOL     OW 1481   2.232   0.138   0.741
  363SOL    HW2 1482   2.313   0.101   0.776
  363SOL    HW3 1483   2.165   0.073   0.763
  363SOL    MW4 1484   2.234   0.125   0.748
  364SOL     OW 1485   2.250   0.417   0.802
  364SOL    HW2 1486   2.336   0.450   0.778
  364SOL    HW3 1487   2.254   0.323   0.786
  364SOL    MW4 1488   2.262   0.409   0.797
  365SOL     OW 1489   2.499   0.528   0.764
  365SOL    HW2 1490   2.506   0.533   0.669
  365SOL    HW3 1491   2.568   0.467   0.790
  365SOL    MW4 1492   2.509   0.521   0.755
  366SOL     OW 1493   2.423   0.855   0.625
  366SOL    HW2 1494   2.432   0.913   0.550
  366SOL    HW3 1495   2.463   0.772   0.596
  366SOL    MW4 1496   2.430   0.851   0.612
  367SOL     OW 1497   2.156   0.914   0.664
  367SOL    HW2 1498   2.245   0.890   0.638
  367SOL    HW3 1499   2.132   0.984   0.602
  367SOL    MW4 1500   2.165   0.920   0.652
  368SOL     OW 1501   2.228   1.155   0.805
  368SOL    HW2 1502   2.231   1.162   0.901
  368SOL    HW3 1503   2.206   1.064   0.788
  368SOL    MW4 1504   2.226   1.144   0.816
  369SOL     OW 1505   2.455   1.278   0.711
  369SOL    HW2 1506   2.384   1.220   0.738
  369SOL    HW3 1507   2.453   1.277   0.616
  369SOL    MW4 1508   2.446   1.270   0.702
  370SOL     OW 1509   2.462   1.547   0.826
  370SOL    HW2 1510   2.528   1.604   0.787
  370SOL    HW3 1511   2.476   1.462   0.786
  370SOL    MW4 1512   2.472   1.544   0.816
  371SOL     OW 1513   2.231   1.653   0.714
  371SOL    HW2 1514   2.314   1.623   0.751
  371SOL    HW3 1515   2.233   1.625   0.623
  371SOL    MW4 1516   2.242   1.645   0.707
  372SOL     OW 1517   2.257   1.911   0.805
  372SOL    HW2 1518   2.254   1.826   0.760
  372SOL    HW3 1519   2.171   1.950   0.790
  372SOL    MW4 1520   2.245   1.905   0.797
  373SOL     OW 1521   2.478   2.058   0.757
  373SOL    HW2 1522   2.399   2.012   0.785
  373SOL    HW3 1523   2.466   2.073   0.664
  373SOL    MW4 1524   2.466   2.054   0.749
  374SOL     OW 1525   2.529   2.313   0.895
  374SOL    HW2 1526   2.584   2.355   0.829
  374SOL    HW3 1527   2.519   2.223   0.864
  374SOL    MW4 1528   2.535   2.307   0.882
  375SOL     OW 1529   2.302   2.429   0.751
  375SOL    HW2 1530   2.375   2.389   0.800
  375SOL    HW3 1531   2.224   2.389   0.788
  375SOL    MW4 1532   2.302   2.419   0.762
  376SOL     OW 1533   2.297   2.688   0.862
  376SOL    HW2 1534   2.280   2.680   0.956
  376SOL    HW3 1535   2.304   2.597   0.831
  376SOL    MW4 1536   2.296   2.675   0.870
  377SOL     OW 1537   2.537   2.803   0.763
  377SOL    HW2 1538   2.605   2.745   0.797
  377SOL    HW3 1539   2.455   2.769   0.800
  377SOL    MW4 1540   2.535   2.791   0.772
  378SOL     OW 1541   2.488   3.066   0.857
  378SOL    HW2 1542   2.485   3.053   0.952
  378SOL    HW3 1543   2.493   2.978   0.820
  378SOL    MW4 1544   2.488   3.053   0.865
  379SOL     OW 1545   2.270   3.174   0.760
  379SOL    HW2 1546   2.187   3.135   0.788
  379SOL    HW3 1547   2.337   3.126   0.810
  379SOL    MW4 1548   2.268   3.163   0.771
  380SOL     OW 1549   2.273   3.427   0.869
  380SOL    HW2 1550   2.277   3.351   0.811
  380SOL    HW3 1551   2.208   3.485   0.828
  380SOL    MW4 1552   2.265   3.425   0.856
  381SOL     OW 1553   2.478   3.584   0.771
  381SOL    HW2 1554   2.553   3.537   0.809
  381SOL    HW3 1555   2.401   3.543   0.810
  381SOL    MW4 1556   2.478   3.573   0.781
  382SOL     OW 1557   2.488   3.859   0.812
  382SOL    HW2 1558   2.421   3.882   0.748
  382SOL    HW3 1559   2.506   3.766   0.796
  382SOL    MW4 1560   2.482   3.850   0.802
  383SOL     OW 1561   2.337   3.988   0.616
  383SOL    HW2 1562   2.279   4.031   0.680
  383SOL    HW3 1563   2.280   3.927   0.570
  383SOL    MW4 1564   2.322   3.986   0.619
  384SOL     OW 1565   2.260   4.091   0.874
  384SOL    HW2 1566   2.195   4.023   0.893
  384SOL    HW3 1567   2.208   4.162   0.834
  384SOL    MW4 1568   2.244   4.091   0.871
  385SOL     OW 1569   2.552   4.216   0.822
  385SOL    HW2 1570   2.473   4.162   0.831
  385SOL    HW3 1571   2.563   4.257   0.907
  385SOL    MW4 1572   2.543   4.214   0.834
  386SOL     OW 1573   2.882   4.565   0.816
  386SOL    HW2 1574   2.851   4.486   0.772
  386SOL    HW3 1575   2.818   4.632   0.793
  386SOL    MW4 1576   2.870   4.563   0.807
  387SOL     OW 1577   2.772   4.394   0.636
  387SOL    HW2 1578   2.830   4.407   0.562
  387SOL    HW3 1579   2.692   4.441   0.614
  387SOL    MW4 1580   2.769   4.402   0.624
  388SOL     OW 1581   2.705   0.337   0.792
  388SOL    HW2 1582   2.704   0.336   0.888
  388SOL    HW3 1583   2.787   0.381   0.770
  388SOL    MW4 1584   2.716   0.343   0.802
  389SOL     OW 1585   2.935   0.497   0.732
  389SOL    HW2 1586   2.990   0.433   0.778
  389SOL    HW3 1587   2.938   0.470   0.641
  389SOL    MW4 1588   2.943   0.485   0.726
  390SOL     OW 1589   2.841   0.739   0.837
  390SOL    HW2 1590   2.854   0.744   0.932
  390SOL    HW3 1591   2.854   0.647   0.815
  390SOL    MW4 1592   2.844   0.728   0.847
  391SOL     OW 1593   2.708   0.955   0.706
  391SOL    HW2 1594   2.753   0.889   0.758
  391SOL    HW3 1595   2.617   0.925   0.704
  391SOL    MW4 1596   2.702   0.942   0.712
  392SOL     OW 1597   2.685   1.190   0.853
  392SOL    HW2 1598   2.709   1.110   0.807
  392SOL    HW3 1599   2.605   1.220   0.811
  392SOL    MW4 1600   2.678   1.183   0.841
  393SOL     OW 1601   2.950   1.277   0.782
  393SOL    HW2 1602   3.007   1.200   0.789
  393SOL    HW3 1603   2.865   1.246   0.813
  393SOL    MW4 1604   2.946   1.262   0.787
  394SOL     OW 1605   2.936   1.531   0.872
  394SOL    HW2 1606   3.019   1.569   0.843
  394SOL    HW3 1607   2.942   1.439   0.845
  394SOL    MW4 1608   2.948   1.524   0.864
  395SOL     OW 1609   2.724   1.647   0.755
  395SOL    HW2 1610   2.728   1.740   0.778
  395SOL    HW3 1611   2.802   1.609   0.796
  395SOL    MW4 1612   2.735   1.654   0.763
  396SOL     OW 1613   2.710   1.898   0.835
  396SOL    HW2 1614   2.711   1.910   0.930
  396SOL    HW3 1615   2.632   1.945   0.805
  396SOL    MW4 1616   2.700   1.906   0.844
  397SOL     OW 1617   2.886   2.052   0.675
  397SOL    HW2 1618   2.907   2.123   0.736
  397SOL    HW3 1619   2.826   1.995   0.724
  397SOL    MW4 1620   2.881   2.054   0.689
  398SOL     OW 1621   2.940   2.273   0.844
  398SOL    HW2 1622   2.936   2.268   0.939
  398SOL    HW3 1623   2.860   2.319   0.819
  398SOL    MW4 1624   2.929   2.279   0.853
  399SOL     OW 1625   2.728   2.418   0.731
  399SOL    HW2 1626   2.715   2.440   0.639
  399SOL    HW3 1627   2.735   2.503   0.775
  399SOL    MW4 1628   2.727   2.432   0.725
  400SOL     OW 1629   2.744   2.659   0.850
  400SOL    HW2 1630   2.734   2.651   0.945
  400SOL    HW3 1631   2.822   2.713   0.839
  400SOL    MW4 1632   2.753   2.665   0.861
  401SOL     OW 1633   2.952   2.802   0.556
  401SOL    HW2 1634   2.968   2.710   0.533
  401SOL    HW3 1635   2.864   2.821   0.521
  401SOL    MW4 1636   2.942   2.792   0.548
  402SOL     OW 1637   2.950   3.110   0.901
  402SOL    HW2 1638   2.870   3.140   0.858
  402SOL    HW3 1639   2.946   3.014   0.896
  402SOL    MW4 1640   2.939   3.101   0.895
  403SOL     OW 1641   2.731   3.204   0.752
  403SOL    HW2 1642   2.705   3.285   0.796
  403SOL    HW3 1643   2.661   3.141   0.774
  403SOL    MW4 1644   2.718   3.206   0.761
  404SOL     OW 1645   2.670   3.439   0.873
  404SOL    HW2 1646   2.664   3.436   0.968
  404SOL    HW3 1647   2.753   3.483   0.855
  404SOL    MW4 1648   2.680   3.444   0.883
  405SOL     OW 1649   2.935   3.551   0.813
  405SOL    HW2 1650   2.923   3.642   0.842
  405SOL    HW3 1651   2.930   3.556   0.718
  405SOL    MW4 1652   2.933   3.564   0.804
  406SOL     OW 1653   2.938   3.831   0.889
  406SOL    HW2 1654   2.934   3.865   0.978
  406SOL    HW3 1655   2.856   3.859   0.848
  406SOL    MW4 1656   2.927   3.839   0.895
  407SOL     OW 1657   2.736   3.929   0.715
  407SOL    HW2 1658   2.650   3.897   0.742
  407SOL    HW3 1659   2.753   3.884   0.632
  407SOL    MW4 1660   2.727   3.919   0.708
  408SOL     OW 1661   2.903   4.159   0.859
  408SOL    HW2 1662   2.841   4.178   0.930
  408SOL    HW3 1663   2.989   4.170   0.899
  408SOL    MW4 1664   2.906   4.163   0.874
  409SOL     OW 1665   3.086   4.328   0.469
  409SOL    HW2 1666   3.161   4.323   0.528
  409SOL    HW3 1667   3.025   4.262   0.502
  409SOL    MW4 1668   3.088   4.319   0.481
  410SOL     OW 1669   3.322   4.587   0.816
  410SOL    HW2 1670   3.330   4.611   0.908
  410SOL    HW3 1671   3.254   4.644   0.782
  410SOL    MW4 1672   3.314   4.597   0.824
  411SOL     OW 1673   3.089   0.034   0.701
  411SOL    HW2 1674   3.091   0.116   0.751
  411SOL    HW3 1675   3.007  -0.009   0.728
  411SOL    MW4 1676   3.078   0.039   0.711
  412SOL     OW 1677   3.113   0.306   0.819
  412SOL    HW2 1678   3.122   0.305   0.914
  412SOL    HW3 1679   3.194   0.346   0.788
  412SOL    MW4 1680   3.125   0.311   0.827
  413SOL     OW 1681   3.345   0.466   0.754
  413SOL    HW2 1682   3.433   0.430   0.760
  413SOL    HW3 1683   3.329   0.475   0.660
  413SOL    MW4 1684   3.354   0.463   0.742
  414SOL     OW 1685   3.323   0.715   0.870
  414SOL    HW2 1686   3.245   0.756   0.833
  414SOL    HW3 1687   3.327   0.629   0.829
  414SOL    MW4 1688   3.313   0.709   0.860
  415SOL     OW 1689   3.077   0.814   0.720
  415SOL    HW2 1690   3.081   0.902   0.758
  415SOL    HW3 1691   3.004   0.772   0.765
  415SOL    MW4 1692   3.068   0.820   0.731
  416SOL     OW 1693   3.132   1.077   0.796
  416SOL    HW2 1694   3.143   1.098   0.888
  416SOL    HW3 1695   3.202   1.125   0.751
  416SOL    MW4 1696   3.143   1.086   0.802
  417SOL     OW 1697   3.374   1.241   0.732
  417SOL    HW2 1698   3.451   1.203   0.773
  417SOL    HW3 1699   3.371   1.331   0.763
  417SOL    MW4 1700   3.384   1.248   0.741
  418SOL     OW 1701   3.382   1.486   0.854
  418SOL    HW2 1702   3.378   1.504   0.948
  418SOL    HW3 1703   3.466   1.522   0.826
  418SOL    MW4 1704   3.393   1.493   0.862
  419SOL     OW 1705   3.162   1.654   0.791
  419SOL    HW2 1706   3.228   1.589   0.815
  419SOL    HW3 1707   3.143   1.637   0.699
  419SOL    MW4 1708   3.169   1.643   0.782
  420SOL     OW 1709   3.244   1.925   0.840
  420SOL    HW2 1710   3.209   1.949   0.926
  420SOL    HW3 1711   3.217   1.835   0.827
  420SOL    MW4 1712   3.236   1.917   0.850
  421SOL     OW 1713   3.658   2.058   0.904
  421SOL    HW2 1714   3.606   2.138   0.897
  421SOL    HW3 1715   3.616   1.997   0.843
  421SOL    MW4 1716   3.645   2.061   0.895
  422SOL     OW 1717   3.488   2.286   0.886
  422SOL    HW2 1718   3.448   2.316   0.968
  422SOL    HW3 1719   3.564   2.343   0.874
  422SOL    MW4 1720   3.492   2.297   0.896
  423SOL     OW 1721   3.134   2.429   0.728
  423SOL    HW2 1722   3.215   2.381   0.710
  423SOL    HW3 1723   3.080   2.367   0.776
  423SOL    MW4 1724   3.138   2.415   0.732
  424SOL     OW 1725   3.138   2.656   0.870
  424SOL    HW2 1726   3.132   2.575   0.820
  424SOL    HW3 1727   3.205   2.708   0.824
  424SOL    MW4 1728   3.146   2.652   0.858
  425SOL     OW 1729   3.368   2.776   0.793
  425SOL    HW2 1730   3.367   2.772   0.697
  425SOL    HW3 1731   3.444   2.724   0.818
  425SOL    MW4 1732   3.378   2.769   0.783
  426SOL     OW 1733   3.383   3.037   0.857
  426SOL    HW2 1734   3.382   3.054   0.951
  426SOL    HW3 1735   3.364   2.944   0.850
  426SOL    MW4 1736   3.380   3.027   0.869
  427SOL     OW 1737   3.171   3.178   0.753
  427SOL    HW2 1738   3.250   3.129   0.773
  427SOL    HW3 1739   3.102   3.136   0.804
  427SOL    MW4 1740   3.172   3.166   0.762
  428SOL     OW 1741   3.193   3.455   0.824
  428SOL    HW2 1742   3.196   3.360   0.807
  428SOL    HW3 1743   3.100   3.478   0.817
  428SOL    MW4 1744   3.181   3.445   0.821
  429SOL     OW 1745   3.571   4.328   0.621
  429SOL    HW2 1746   3.576   4.240   0.584
  429SOL    HW3 1747   3.660   4.347   0.651
  429SOL    MW4 1748   3.584   4.319   0.620
  430SOL     OW 1749   3.475   3.864   0.825
  430SOL    HW2 1750   3.491   3.959   0.826
  430SOL    HW3 1751   3.442   3.844   0.912
  430SOL    MW4 1752   3.472   3.874   0.836
  431SOL     OW 1753   3.094   3.968   0.709
  431SOL    HW2 1754   3.157   3.904   0.677
  431SOL    HW3 1755   3.043   3.920   0.774
  431SOL    MW4 1756   3.095   3.954   0.713
  432SOL     OW 1757   3.230   4.173   0.852
  432SOL    HW2 1758   3.251   4.236   0.783
  432SOL    HW3 1759   3.194   4.098   0.806
  432SOL    MW4 1760   3.228   4.172   0.837
  433SOL     OW 1761   3.297   4.365   0.655
  433SOL    HW2 1762   3.295   4.449   0.701
  433SOL    HW3 1763   3.390   4.348   0.638
  433SOL    MW4 1764   3.309   4.374   0.659
  434SOL     OW 1765   3.830   4.630   0.873
  434SOL    HW2 1766   3.885   4.676   0.810
  434SOL    HW3 1767   3.740   4.652   0.847
  434SOL    MW4 1768   3.825   4.639   0.861
  435SOL     OW 1769   3.583   0.074   0.799
  435SOL    HW2 1770   3.508   0.036   0.844
  435SOL    HW3 1771   3.560   0.070   0.706
  435SOL    MW4 1772   3.570   0.069   0.793
  436SOL     OW 1773   3.597   0.351   0.877
  436SOL    HW2 1774   3.599   0.353   0.973
  436SOL    HW3 1775   3.600   0.259   0.854
  436SOL    MW4 1776   3.597   0.339   0.887
  437SOL     OW 1777   3.787   0.499   0.726
  437SOL    HW2 1778   3.786   0.584   0.770
  437SOL    HW3 1779   3.715   0.450   0.766
  437SOL    MW4 1780   3.777   0.504   0.737
  438SOL     OW 1781   3.810   0.735   0.864
  438SOL    HW2 1782   3.835   0.740   0.957
  438SOL    HW3 1783   3.876   0.788   0.819
  438SOL    MW4 1784   3.822   0.742   0.870
  439SOL     OW 1785   3.560   0.840   0.805
  439SOL    HW2 1786   3.631   0.802   0.857
  439SOL    HW3 1787   3.481   0.800   0.839
  439SOL    MW4 1788   3.559   0.830   0.816
  440SOL     OW 1789   3.622   1.103   0.829
  440SOL    HW2 1790   3.584   1.117   0.915
  440SOL    HW3 1791   3.609   1.009   0.812
  440SOL    MW4 1792   3.615   1.092   0.838
  441SOL     OW 1793   3.813   1.310   0.769
  441SOL    HW2 1794   3.749   1.240   0.777
  441SOL    HW3 1795   3.812   1.334   0.676
  441SOL    MW4 1796   3.804   1.304   0.758
  442SOL     OW 1797   3.849   1.567   0.859
  442SOL    HW2 1798   3.918   1.608   0.807
  442SOL    HW3 1799   3.845   1.477   0.828
  442SOL    MW4 1800   3.858   1.561   0.848
  443SOL     OW 1801   3.594   1.624   0.742
  443SOL    HW2 1802   3.559   1.711   0.760
  443SOL    HW3 1803   3.672   1.618   0.797
  443SOL    MW4 1804   3.600   1.635   0.751
  444SOL     OW 1805   3.853   2.027   0.715
  444SOL    HW2 1806   3.929   1.986   0.756
  444SOL    HW3 1807   3.788   2.033   0.786
  444SOL    MW4 1808   3.855   2.022   0.730
  445SOL     OW 1809   3.908   2.310   0.671
  445SOL    HW2 1810   3.836   2.359   0.711
  445SOL    HW3 1811   3.896   2.220   0.703
  445SOL    MW4 1812   3.897   2.304   0.680
  446SOL     OW 1813   3.712   1.882   0.501
  446SOL    HW2 1814   3.760   1.885   0.584
  446SOL    HW3 1815   3.685   1.791   0.492
  446SOL    MW4 1816   3.715   1.871   0.511
  447SOL     OW 1817   3.716   2.436   0.848
  447SOL    HW2 1818   3.693   2.529   0.846
  447SOL    HW3 1819   3.761   2.424   0.932
  447SOL    MW4 1820   3.719   2.447   0.859
  448SOL     OW 1821   3.617   2.678   0.828
  448SOL    HW2 1822   3.617   2.688   0.923
  448SOL    HW3 1823   3.692   2.731   0.798
  448SOL    MW4 1824   3.627   2.687   0.836
  449SOL     OW 1825   3.838   2.798   0.721
  449SOL    HW2 1826   3.820   2.891   0.734
  449SOL    HW3 1827   3.843   2.788   0.626
  449SOL    MW4 1828   3.836   2.809   0.710
  450SOL     OW 1829   3.828   3.055   0.812
  450SOL    HW2 1830   3.911   3.091   0.781
  450SOL    HW3 1831   3.762   3.115   0.778
  450SOL    MW4 1832   3.830   3.068   0.803
  451SOL     OW 1833   3.589   3.180   0.716
  451SOL    HW2 1834   3.532   3.125   0.769
  451SOL    HW3 1835   3.532   3.214   0.647
  451SOL    MW4 1836   3.574   3.177   0.714
  452SOL     OW 1837   3.519   3.417   0.870
  452SOL    HW2 1838   3.549   3.343   0.818
  452SOL    HW3 1839   3.424   3.409   0.870
  452SOL    MW4 1840   3.511   3.406   0.863
  453SOL     OW 1841   3.845   3.588   0.568
  453SOL    HW2 1842   3.773   3.609   0.628
  453SOL    HW3 1843   3.912   3.549   0.624
  453SOL    MW4 1844   3.844   3.586   0.584
  454SOL     OW 1845   3.649   3.643   0.780
  454SOL    HW2 1846   3.592   3.718   0.799
  454SOL    HW3 1847   3.609   3.571   0.828
  454SOL    MW4 1848   3.636   3.643   0.789
  455SOL     OW 1849   2.660   4.092   0.255
  455SOL    HW2 1850   2.620   4.169   0.215
  455SOL    HW3 1851   2.642   4.101   0.348
  455SOL    MW4 1852   2.652   4.104   0.262
  456SOL     OW 1853   3.508   4.155   0.842
  456SOL    HW2 1854   3.533   4.227   0.783
  456SOL    HW3 1855   3.416   4.173   0.862
  456SOL    MW4 1856   3.499   4.167   0.837
  457SOL     OW 1857   3.814   4.395   0.729
  457SOL    HW2 1858   3.873   4.334   0.772
  457SOL    HW3 1859   3.794   4.461   0.796
  457SOL    MW4 1860   3.819   4.396   0.743
  458SOL     OW 1861   4.254   0.029   0.775
  458SOL    HW2 1862   4.236   0.025   0.869
  458SOL    HW3 1863   4.169   0.043   0.735
  458SOL    MW4 1864   4.241   0.030   0.782
  459SOL     OW 1865   3.994   0.088   0.698
  459SOL    HW2 1866   3.996   0.172   0.743
  459SOL    HW3 1867   3.991   0.111   0.605
  459SOL    MW4 1868   3.994   0.102   0.691
  460SOL     OW 1869   3.987   0.326   0.830
  460SOL    HW2 1870   4.069   0.374   0.816
  460SOL    HW3 1871   3.920   0.380   0.787
  460SOL    MW4 1872   3.989   0.340   0.822
  461SOL     OW 1873   4.235   0.452   0.727
  461SOL    HW2 1874   4.313   0.433   0.778
  461SOL    HW3 1875   4.267   0.467   0.638
  461SOL    MW4 1876   4.249   0.452   0.722
  462SOL     OW 1877   4.229   0.715   0.848
  462SOL    HW2 1878   4.155   0.763   0.812
  462SOL    HW3 1879   4.227   0.630   0.802
  462SOL    MW4 1880   4.219   0.710   0.837
  463SOL     OW 1881   4.027   0.886   0.741
  463SOL    HW2 1882   4.023   0.974   0.777
  463SOL    HW3 1883   4.036   0.899   0.647
  463SOL    MW4 1884   4.028   0.900   0.733
  464SOL     OW 1885   4.039   1.145   0.836
  464SOL    HW2 1886   4.038   1.164   0.929
  464SOL    HW3 1887   3.968   1.197   0.799
  464SOL    MW4 1888   4.029   1.154   0.843
  465SOL     OW 1889   4.241   1.295   0.713
  465SOL    HW2 1890   4.184   1.226   0.748
  465SOL    HW3 1891   4.330   1.265   0.732
  465SOL    MW4 1892   4.245   1.282   0.720
  466SOL     OW 1893   4.293   1.551   0.813
  466SOL    HW2 1894   4.298   1.555   0.908
  466SOL    HW3 1895   4.283   1.458   0.793
  466SOL    MW4 1896   4.292   1.539   0.823
  467SOL     OW 1897   4.074   1.662   0.714
  467SOL    HW2 1898   4.151   1.617   0.749
  467SOL    HW3 1899   4.086   1.660   0.619
  467SOL    MW4 1900   4.086   1.656   0.706
  468SOL     OW 1901   4.061   1.911   0.831
  468SOL    HW2 1902   4.077   1.819   0.808
  468SOL    HW3 1903   4.142   1.956   0.806
  468SOL    MW4 1904   4.074   1.905   0.824
  469SOL     OW 1905   4.272   2.051   0.769
  469SOL    HW2 1906   4.353   2.000   0.775
  469SOL    HW3 1907   4.260   2.067   0.676
  469SOL    MW4 1908   4.281   2.047   0.758
  470SOL     OW 1909   4.320   2.302   0.861
  470SOL    HW2 1910   4.265   2.347   0.796
  470SOL    HW3 1911   4.310   2.209   0.841
  470SOL    MW4 1912   4.311   2.296   0.850
  471SOL     OW 1913   4.151   2.445   0.701
  471SOL    HW2 1914   4.129   2.531   0.736
  471SOL    HW3 1915   4.067   2.399   0.697
  471SOL    MW4 1916   4.137   2.450   0.705
  472SOL     OW 1917   4.084   2.705   0.801
  472SOL    HW2 1918   4.150   2.772   0.786
  472SOL    HW3 1919   4.003   2.741   0.763
  472SOL    MW4 1920   4.082   2.718   0.794
  473SOL     OW 1921   4.316   2.849   0.742
  473SOL    HW2 1922   4.391   2.792   0.756
  473SOL    HW3 1923   4.309   2.857   0.647
  473SOL    MW4 1924   4.325   2.843   0.732
  474SOL     OW 1925   4.284   3.127   0.804
  474SOL    HW2 1926   4.294   3.033   0.787
  474SOL    HW3 1927   4.366   3.166   0.774
  474SOL    MW4 1928   4.296   3.119   0.798
  475SOL     OW 1929   4.037   3.210   0.708
  475SOL    HW2 1930   4.028   3.294   0.752
  475SOL    HW3 1931   4.120   3.175   0.739
  475SOL    MW4 1932   4.047   3.217   0.718
  476SOL     OW 1933   4.035   3.470   0.778
  476SOL    HW2 1934   4.032   3.487   0.872
  476SOL    HW3 1935   4.119   3.506   0.750
  476SOL    MW4 1936   4.046   3.477   0.787
  477SOL     OW 1937   4.283   3.570   0.716
  477SOL    HW2 1938   4.272   3.657   0.755
  477SOL    HW3 1939   4.297   3.587   0.623
  477SOL    MW4 1940   4.284   3.584   0.709
  478SOL     OW 1941   4.186   3.816   0.833
  478SOL    HW2 1942   4.213   3.837   0.922
  478SOL    HW3 1943   4.091   3.807   0.838
  478SOL    MW4 1944   4.177   3.817   0.846
  479SOL     OW 1945   3.876   3.801   0.859
  479SOL    HW2 1946   3.806   3.736   0.851
  479SOL    HW3 1947   3.852   3.871   0.798
  479SOL    MW4 1948   3.863   3.802   0.850
  480SOL     OW 1949   3.967   4.198   0.842
  480SOL    HW2 1950   4.040   4.200   0.780
  480SOL    HW3 1951   3.916   4.121   0.817
  480SOL    MW4 1952   3.970   4.188   0.830
  481SOL     OW 1953   4.343   4.449   0.646
  481SOL    HW2 1954   4.320   4.541   0.664
  481SOL    HW3 1955   4.402   4.425   0.718
  481SOL    MW4 1956   4.348   4.458   0.658
  482SOL     OW 1957   0.210   4.660   1.123
  482SOL    HW2 1958   0.285   4.712   1.153
  482SOL    HW3 1959   0.216   4.662   1.028
  482SOL    MW4 1960   0.221   4.667   1.115
  483SOL     OW 1961   4.459   0.130   1.179
  483SOL    HW2 1962   4.398   0.065   1.142
  483SOL    HW3 1963   4.545   0.087   1.172
  483SOL    MW4 1964   4.462   0.116   1.173
  484SOL     OW 1965   4.478   0.405   1.126
  484SOL    HW2 1966   4.401   0.449   1.162
  484SOL    HW3 1967   4.462   0.311   1.140
  484SOL    MW4 1968   4.466   0.398   1.133
  485SOL     OW 1969   0.223   0.544   1.220
  485SOL    HW2 1970   0.214   0.636   1.197
  485SOL    HW3 1971   0.141   0.504   1.192
  485SOL    MW4 1972   0.211   0.551   1.213
  486SOL     OW 1973   0.216   0.791   1.122
  486SOL    HW2 1974   0.288   0.840   1.161
  486SOL    HW3 1975   0.137   0.834   1.156
  486SOL    MW4 1976   0.215   0.803   1.132
  487SOL     OW 1977   4.477   0.906   1.217
  487SOL    HW2 1978   4.473   0.885   1.311
  487SOL    HW3 1979   4.399   0.864   1.180
  487SOL    MW4 1980   4.466   0.898   1.225
  488SOL     OW 1981   4.482   1.163   1.105
  488SOL    HW2 1982   4.413   1.220   1.141
  488SOL    HW3 1983   4.467   1.079   1.147
  488SOL    MW4 1984   4.471   1.160   1.115
  489SOL     OW 1985   0.209   1.300   1.196
  489SOL    HW2 1986   0.287   1.276   1.146
  489SOL    HW3 1987   0.145   1.233   1.174
  489SOL    MW4 1988   0.211   1.288   1.187
  490SOL     OW 1989   0.184   1.565   1.127
  490SOL    HW2 1990   0.189   1.477   1.164
  490SOL    HW3 1991   0.209   1.555   1.035
  490SOL    MW4 1992   0.188   1.552   1.120
  491SOL     OW 1993   4.471   1.713   1.241
  491SOL    HW2 1994   4.474   1.797   1.195
  491SOL    HW3 1995   4.553   1.669   1.215
  491SOL    MW4 1996   4.482   1.718   1.231
  492SOL     OW 1997   0.009   1.963   1.091
  492SOL    HW2 1998  -0.076   1.997   1.122
  492SOL    HW3 1999   0.009   1.982   0.997
  492SOL    MW4 2000  -0.003   1.970   1.082
  493SOL     OW 2001   0.236   2.062   1.180
  493SOL    HW2 2002   0.227   2.152   1.149
  493SOL    HW3 2003   0.154   2.020   1.155
  493SOL    MW4 2004   0.224   2.068   1.172
  494SOL     OW 2005   0.257   2.340   1.088
  494SOL    HW2 2006   0.323   2.392   1.134
  494SOL    HW3 2007   0.175   2.388   1.101
  494SOL    MW4 2008   0.255   2.353   1.096
  495SOL     OW 2009   0.014   2.451   1.145
  495SOL    HW2 2010   0.004   2.454   1.240
  495SOL    HW3 2011  -0.055   2.391   1.115
  495SOL    MW4 2012   0.004   2.443   1.153
  496SOL     OW 2013   0.041   2.739   1.117
  496SOL    HW2 2014  -0.030   2.769   1.173
  496SOL    HW3 2015   0.042   2.644   1.128
  496SOL    MW4 2016   0.032   2.730   1.126
  497SOL     OW 2017   0.269   2.866   1.208
  497SOL    HW2 2018   0.270   2.848   1.302
  497SOL    HW3 2019   0.193   2.817   1.175
  497SOL    MW4 2020   0.259   2.857   1.216
  498SOL     OW 2021   0.271   3.114   1.098
  498SOL    HW2 2022   0.340   3.164   1.141
  498SOL    HW3 2023   0.269   3.030   1.145
  498SOL    MW4 2024   0.280   3.109   1.110
  499SOL     OW 2025   0.072   3.252   1.232
  499SOL    HW2 2026  -0.011   3.215   1.199
  499SOL    HW3 2027   0.140   3.210   1.179
  499SOL    MW4 2028   0.070   3.241   1.220
  500SOL     OW 2029   0.023   3.526   1.129
  500SOL    HW2 2030   0.043   3.437   1.158
  500SOL    HW3 2031   0.030   3.521   1.033
  500SOL    MW4 2032   0.027   3.513   1.120
  501SOL     OW 2033   0.234   3.672   1.203
  501SOL    HW2 2034   0.245   3.658   1.297
  501SOL    HW3 2035   0.146   3.637   1.185
  501SOL    MW4 2036   0.224   3.665   1.213
  502SOL     OW 2037   0.235   3.933   1.096
  502SOL    HW2 2038   0.149   3.966   1.123
  502SOL    HW3 2039   0.239   3.845   1.133
  502SOL    MW4 2040   0.224   3.926   1.104
  503SOL     OW 2041   4.476   4.040   1.174
  503SOL    HW2 2042   4.480   4.035   1.270
  503SOL    HW3 2043   4.399   3.988   1.151
  503SOL    MW4 2044   4.466   4.033   1.184
  504SOL     OW 2045   4.489   4.302   1.102
  504SOL    HW2 2046   4.575   4.331   1.134
  504SOL    HW3 2047   4.484   4.209   1.124
  504SOL    MW4 2048   4.500   4.294   1.109
  505SOL     OW 2049   0.246   4.377   1.205
  505SOL    HW2 2050   0.242   4.374   1.301
  505SOL    HW3 2051   0.232   4.470   1.183
  505SOL    MW4 2052   0.243   4.389   1.215
  506SOL     OW 2053   0.657   0.007   1.112
  506SOL    HW2 2054   0.735   0.052   1.143
  506SOL    HW3 2055   0.656  -0.076   1.161
  506SOL    MW4 2056   0.667   0.002   1.123
  507SOL     OW 2057   0.434   0.156   1.214
  507SOL    HW2 2058   0.429   0.247   1.185
  507SOL    HW3 2059   0.514   0.123   1.173
  507SOL    MW4 2060   0.444   0.164   1.204
  508SOL     OW 2061   0.438   0.412   1.132
  508SOL    HW2 2062   0.358   0.453   1.164
  508SOL    HW3 2063   0.425   0.403   1.037
  508SOL    MW4 2064   0.426   0.416   1.123
  509SOL     OW 2065   0.681   0.532   1.222
  509SOL    HW2 2066   0.703   0.617   1.184
  509SOL    HW3 2067   0.595   0.511   1.186
  509SOL    MW4 2068   0.672   0.540   1.212
  510SOL     OW 2069   0.645   0.821   1.149
  510SOL    HW2 2070   0.569   0.857   1.194
  510SOL    HW3 2071   0.626   0.831   1.056
  510SOL    MW4 2072   0.633   0.827   1.143
  511SOL     OW 2073   0.417   0.953   1.235
  511SOL    HW2 2074   0.400   0.961   1.329
  511SOL    HW3 2075   0.424   1.043   1.204
  511SOL    MW4 2076   0.416   0.966   1.243
  512SOL     OW 2077   0.452   1.206   1.091
  512SOL    HW2 2078   0.537   1.243   1.112
  512SOL    HW3 2079   0.457   1.187   0.997
  512SOL    MW4 2080   0.464   1.209   1.081
  513SOL     OW 2081   0.697   1.299   1.191
  513SOL    HW2 2082   0.779   1.259   1.163
  513SOL    HW3 2083   0.700   1.387   1.155
  513SOL    MW4 2084   0.708   1.305   1.183
  514SOL     OW 2085   0.685   1.561   1.074
  514SOL    HW2 2086   0.762   1.610   1.101
  514SOL    HW3 2087   0.614   1.594   1.130
  514SOL    MW4 2088   0.686   1.572   1.085
  515SOL     OW 2089   0.449   1.653   1.188
  515SOL    HW2 2090   0.426   1.664   1.280
  515SOL    HW3 2091   0.365   1.640   1.144
  515SOL    MW4 2092   0.435   1.653   1.194
  516SOL     OW 2093   0.479   1.939   1.107
  516SOL    HW2 2094   0.469   1.848   1.133
  516SOL    HW3 2095   0.412   1.986   1.156
  516SOL    MW4 2096   0.469   1.933   1.117
  517SOL     OW 2097   0.707   2.052   1.219
  517SOL    HW2 2098   0.696   2.060   1.314
  517SOL    HW3 2099   0.631   2.002   1.190
  517SOL    MW4 2100   0.695   2.047   1.227
  518SOL     OW 2101   0.715   2.319   1.164
  518SOL    HW2 2102   0.628   2.355   1.179
  518SOL    HW3 2103   0.710   2.231   1.201
  518SOL    MW4 2104   0.703   2.312   1.171
  519SOL     OW 2105   0.476   2.469   1.207
  519SOL    HW2 2106   0.484   2.471   1.303
  519SOL    HW3 2107   0.499   2.557   1.179
  519SOL    MW4 2108   0.480   2.481   1.216
  520SOL     OW 2109   0.495   2.742   1.132
  520SOL    HW2 2110   0.414   2.784   1.163
  520SOL    HW3 2111   0.483   2.735   1.038
  520SOL    MW4 2112   0.483   2.747   1.124
  521SOL     OW 2113   0.712   2.852   1.244
  521SOL    HW2 2114   0.714   2.945   1.223
  521SOL    HW3 2115   0.643   2.816   1.187
  521SOL    MW4 2116   0.703   2.859   1.233
  522SOL     OW 2117   0.685   3.127   1.176
  522SOL    HW2 2118   0.770   3.169   1.189
  522SOL    HW3 2119   0.687   3.096   1.086
  522SOL    MW4 2120   0.696   3.129   1.166
  523SOL     OW 2121   0.459   3.271   1.232
  523SOL    HW2 2122   0.465   3.354   1.185
  523SOL    HW3 2123   0.533   3.220   1.200
  523SOL    MW4 2124   0.470   3.275   1.221
  524SOL     OW 2125   0.445   3.512   1.099
  524SOL    HW2 2126   0.529   3.540   1.134
  524SOL    HW3 2127   0.381   3.569   1.140
  524SOL    MW4 2128   0.448   3.523   1.109
  525SOL     OW 2129   0.682   3.585   1.245
  525SOL    HW2 2130   0.672   3.587   1.340
  525SOL    HW3 2131   0.688   3.677   1.219
  525SOL    MW4 2132   0.681   3.597   1.254
  526SOL     OW 2133   0.678   3.838   1.115
  526SOL    HW2 2134   0.602   3.887   1.146
  526SOL    HW3 2135   0.673   3.844   1.019
  526SOL    MW4 2136   0.668   3.845   1.106
  527SOL     OW 2137   0.489   4.016   1.214
  527SOL    HW2 2138   0.516   4.105   1.193
  527SOL    HW3 2139   0.406   4.004   1.167
  527SOL    MW4 2140   0.481   4.026   1.205
  528SOL     OW 2141   0.475   4.293   1.114
  528SOL    HW2 2142   0.533   4.355   1.158
  528SOL    HW3 2143   0.388   4.316   1.144
  528SOL    MW4 2144   0.471   4.304   1.124
  529SOL     OW 2145   0.671   4.431   1.245
  529SOL    HW2 2146   0.681   4.417   1.339
  529SOL    HW3 2147   0.747   4.388   1.206
  529SOL    MW4 2148   0.683   4.423   1.252
  530SOL     OW 2149   1.127   4.656   1.157
  530SOL    HW2 2150   1.110   4.572   1.199
  530SOL    HW3 2151   1.122   4.637   1.063
  530SOL    MW4 2152   1.124   4.643   1.150
  531SOL     OW 2153   0.885   0.109   1.216
  531SOL    HW2 2154   0.876   0.109   1.311
  531SOL    HW3 2155   0.970   0.068   1.200
  531SOL    MW4 2156   0.895   0.103   1.226
  532SOL     OW 2157   0.906   0.382   1.157
  532SOL    HW2 2158   0.907   0.287   1.171
  532SOL    HW3 2159   0.823   0.411   1.195
  532SOL    MW4 2160   0.895   0.373   1.164
  533SOL     OW 2161   1.129   0.518   1.251
  533SOL    HW2 2162   1.137   0.521   1.346
  533SOL    HW3 2163   1.045   0.475   1.235
  533SOL    MW4 2164   1.119   0.513   1.261
  534SOL     OW 2165   1.118   0.744   1.115
  534SOL    HW2 2166   1.052   0.800   1.156
  534SOL    HW3 2167   1.122   0.667   1.172
  534SOL    MW4 2168   1.110   0.741   1.128
  535SOL     OW 2169   0.908   0.874   1.230
  535SOL    HW2 2170   0.918   0.964   1.199
  535SOL    HW3 2171   0.816   0.852   1.211
  535SOL    MW4 2172   0.897   0.883   1.223
  536SOL     OW 2173   0.921   1.142   1.111
  536SOL    HW2 2174   0.993   1.205   1.124
  536SOL    HW3 2175   0.918   1.128   1.016
  536SOL    MW4 2176   0.930   1.149   1.100
  537SOL     OW 2177   1.137   1.294   1.183
  537SOL    HW2 2178   1.123   1.284   1.277
  537SOL    HW3 2179   1.208   1.232   1.163
  537SOL    MW4 2180   1.145   1.285   1.192
  538SOL     OW 2181   1.129   1.555   1.082
  538SOL    HW2 2182   1.137   1.466   1.117
  538SOL    HW3 2183   1.118   1.542   0.988
  538SOL    MW4 2184   1.129   1.542   1.074
  539SOL     OW 2185   0.905   1.707   1.150
  539SOL    HW2 2186   0.933   1.792   1.117
  539SOL    HW3 2187   0.979   1.649   1.132
  539SOL    MW4 2188   0.918   1.711   1.144
  540SOL     OW 2189   0.956   1.991   1.120
  540SOL    HW2 2190   1.030   2.010   1.179
  540SOL    HW3 2191   0.879   2.014   1.171
  540SOL    MW4 2192   0.956   1.997   1.135
  541SOL     OW 2193   1.190   2.078   1.252
  541SOL    HW2 2194   1.174   2.086   1.346
  541SOL    HW3 2195   1.181   2.167   1.218
  541SOL    MW4 2196   1.187   2.090   1.260
  542SOL     OW 2197   1.167   2.320   1.126
  542SOL    HW2 2198   1.235   2.380   1.156
  542SOL    HW3 2199   1.088   2.349   1.172
  542SOL    MW4 2200   1.165   2.332   1.136
  543SOL     OW 2201   0.947   2.440   1.263
  543SOL    HW2 2202   0.956   2.449   1.358
  543SOL    HW3 2203   0.857   2.411   1.250
  543SOL    MW4 2204   0.937   2.438   1.274
  544SOL     OW 2205   0.935   2.708   1.192
  544SOL    HW2 2206   0.920   2.621   1.229
  544SOL    HW3 2207   0.856   2.758   1.215
  544SOL    MW4 2208   0.923   2.703   1.200
  545SOL     OW 2209   1.166   2.880   1.186
  545SOL    HW2 2210   1.175   2.878   1.281
  545SOL    HW3 2211   1.084   2.833   1.168
  545SOL    MW4 2212   1.156   2.873   1.196
  546SOL     OW 2213   1.168   3.146   1.098
  546SOL    HW2 2214   1.170   3.051   1.114
  546SOL    HW3 2215   1.194   3.155   1.006
  546SOL    MW4 2216   1.172   3.135   1.088
  547SOL     OW 2217   0.947   3.261   1.198
  547SOL    HW2 2218   0.948   3.346   1.155
  547SOL    HW3 2219   1.020   3.213   1.159
  547SOL    MW4 2220   0.956   3.266   1.187
  548SOL     OW 2221   0.923   3.516   1.110
  548SOL    HW2 2222   0.836   3.546   1.138
  548SOL    HW3 2223   0.917   3.513   1.015
  548SOL    MW4 2224   0.911   3.520   1.101
  549SOL     OW 2225   1.174   3.622   1.269
  549SOL    HW2 2226   1.234   3.570   1.216
  549SOL    HW3 2227   1.087   3.601   1.234
  549SOL    MW4 2228   1.170   3.612   1.257
  550SOL     OW 2229   1.109   3.874   1.152
  550SOL    HW2 2230   1.037   3.933   1.174
  550SOL    HW3 2231   1.106   3.807   1.220
  550SOL    MW4 2232   1.099   3.873   1.164
  551SOL     OW 2233   0.857   4.031   1.225
  551SOL    HW2 2234   0.868   4.014   1.318
  551SOL    HW3 2235   0.789   3.971   1.197
  551SOL    MW4 2236   0.849   4.021   1.234
  552SOL     OW 2237   0.898   4.285   1.129
  552SOL    HW2 2238   0.879   4.192   1.145
  552SOL    HW3 2239   0.916   4.290   1.035
  552SOL    MW4 2240   0.898   4.273   1.119
  553SOL     OW 2241   1.133   4.384   1.248
  553SOL    HW2 2242   1.131   4.373   1.343
  553SOL    HW3 2243   1.054   4.339   1.217
  553SOL    MW4 2244   1.122   4.377   1.256
  554SOL     OW 2245   1.597   4.654   1.188
  554SOL    HW2 2246   1.665   4.708   1.228
  554SOL    HW3 2247   1.611   4.566   1.224
  554SOL    MW4 2248   1.608   4.649   1.198
  555SOL     OW 2249   1.364   0.130   1.256
  555SOL    HW2 2250   1.449   0.102   1.224
  555SOL    HW3 2251   1.303   0.063   1.224
  555SOL    MW4 2252   1.367   0.118   1.247
  556SOL     OW 2253   1.335   0.389   1.134
  556SOL    HW2 2254   1.326   0.294   1.146
  556SOL    HW3 2255   1.262   0.427   1.183
  556SOL    MW4 2256   1.324   0.381   1.142
  557SOL     OW 2257   1.580   0.472   1.271
  557SOL    HW2 2258   1.577   0.557   1.227
  557SOL    HW3 2259   1.502   0.426   1.239
  557SOL    MW4 2260   1.569   0.477   1.261
  558SOL     OW 2261   1.574   0.692   1.121
  558SOL    HW2 2262   1.655   0.742   1.135
  558SOL    HW3 2263   1.546   0.716   1.033
  558SOL    MW4 2264   1.581   0.702   1.111
  559SOL     OW 2265   1.351   0.875   1.177
  559SOL    HW2 2266   1.429   0.820   1.184
  559SOL    HW3 2267   1.284   0.818   1.140
  559SOL    MW4 2268   1.353   0.861   1.173
  560SOL     OW 2269   1.349   1.151   1.077
  560SOL    HW2 2270   1.355   1.062   1.111
  560SOL    HW3 2271   1.336   1.140   0.983
  560SOL    MW4 2272   1.348   1.138   1.069
  561SOL     OW 2273   1.553   1.289   1.190
  561SOL    HW2 2274   1.627   1.231   1.167
  561SOL    HW3 2275   1.478   1.251   1.143
  561SOL    MW4 2276   1.553   1.276   1.181
  562SOL     OW 2277   1.621   1.537   1.099
  562SOL    HW2 2278   1.681   1.585   1.156
  562SOL    HW3 2279   1.616   1.449   1.136
  562SOL    MW4 2280   1.628   1.532   1.111
  563SOL     OW 2281   1.379   1.655   1.173
  563SOL    HW2 2282   1.453   1.600   1.148
  563SOL    HW3 2283   1.302   1.607   1.144
  563SOL    MW4 2284   1.379   1.641   1.166
  564SOL     OW 2285   1.357   1.928   1.086
  564SOL    HW2 2286   1.353   1.847   1.137
  564SOL    HW3 2287   1.296   1.988   1.130
  564SOL    MW4 2288   1.348   1.925   1.098
  565SOL     OW 2289   1.615   2.027   1.220
  565SOL    HW2 2290   1.624   2.117   1.189
  565SOL    HW3 2291   1.535   1.996   1.180
  565SOL    MW4 2292   1.606   2.035   1.211
  566SOL     OW 2293   1.624   2.291   1.153
  566SOL    HW2 2294   1.541   2.328   1.182
  566SOL    HW3 2295   1.614   2.282   1.058
  566SOL    MW4 2296   1.612   2.295   1.144
  567SOL     OW 2297   1.393   2.452   1.202
  567SOL    HW2 2298   1.376   2.429   1.294
  567SOL    HW3 2299   1.389   2.548   1.201
  567SOL    MW4 2300   1.390   2.462   1.214
  568SOL     OW 2301   1.383   2.720   1.153
  568SOL    HW2 2302   1.464   2.770   1.161
  568SOL    HW3 2303   1.314   2.782   1.176
  568SOL    MW4 2304   1.385   2.735   1.157
  569SOL     OW 2305   1.616   2.863   1.200
  569SOL    HW2 2306   1.694   2.813   1.178
  569SOL    HW3 2307   1.628   2.947   1.155
  569SOL    MW4 2308   1.628   2.868   1.191
  570SOL     OW 2309   1.597   3.106   1.076
  570SOL    HW2 2310   1.681   3.144   1.103
  570SOL    HW3 2311   1.532   3.157   1.123
  570SOL    MW4 2312   1.600   3.117   1.086
  571SOL     OW 2313   1.394   3.226   1.222
  571SOL    HW2 2314   1.397   3.220   1.317
  571SOL    HW3 2315   1.312   3.184   1.198
  571SOL    MW4 2316   1.384   3.220   1.231
  572SOL     OW 2317   1.385   3.483   1.136
  572SOL    HW2 2318   1.396   3.397   1.176
  572SOL    HW3 2319   1.393   3.466   1.042
  572SOL    MW4 2320   1.387   3.469   1.129
  573SOL     OW 2321   1.600   3.640   1.263
  573SOL    HW2 2322   1.608   3.722   1.214
  573SOL    HW3 2323   1.523   3.597   1.224
  573SOL    MW4 2324   1.591   3.645   1.251
  574SOL     OW 2325   1.601   3.891   1.132
  574SOL    HW2 2326   1.523   3.942   1.158
  574SOL    HW3 2327   1.599   3.893   1.036
  574SOL    MW4 2328   1.590   3.898   1.123
  575SOL     OW 2329   1.375   4.055   1.226
  575SOL    HW2 2330   1.370   4.139   1.179
  575SOL    HW3 2331   1.291   4.013   1.208
  575SOL    MW4 2332   1.363   4.061   1.217
  576SOL     OW 2333   1.376   4.329   1.136
  576SOL    HW2 2334   1.287   4.358   1.156
  576SOL    HW3 2335   1.377   4.317   1.041
  576SOL    MW4 2336   1.364   4.331   1.126
  577SOL     OW 2337   1.629   4.387   1.271
  577SOL    HW2 2338   1.599   4.385   1.362
  577SOL    HW3 2339   1.551   4.368   1.220
  577SOL    MW4 2340   1.615   4.384   1.276
  578SOL     OW 2341   2.023   4.659   1.141
  578SOL    HW2 2342   2.020   4.564   1.154
  578SOL    HW3 2343   1.974   4.674   1.060
  578SOL    MW4 2344   2.016   4.648   1.132
  579SOL     OW 2345   1.818   0.127   1.300
  579SOL    HW2 2346   1.816   0.198   1.236
  579SOL    HW3 2347   1.899   0.080   1.282
  579SOL    MW4 2348   1.828   0.130   1.289
  580SOL     OW 2349   1.782   0.347   1.128
  580SOL    HW2 2350   1.712   0.375   1.188
  580SOL    HW3 2351   1.746   0.363   1.041
  580SOL    MW4 2352   1.768   0.353   1.125
  581SOL     OW 2353   2.008   0.511   1.179
  581SOL    HW2 2354   2.011   0.517   1.275
  581SOL    HW3 2355   1.933   0.454   1.161
  581SOL    MW4 2356   1.998   0.504   1.189
  582SOL     OW 2357   2.017   0.783   1.106
  582SOL    HW2 2358   2.001   0.690   1.126
  582SOL    HW3 2359   1.991   0.792   1.014
  582SOL    MW4 2360   2.011   0.772   1.096
  583SOL     OW 2361   1.772   0.859   1.192
  583SOL    HW2 2362   1.777   0.877   1.286
  583SOL    HW3 2363   1.860   0.831   1.168
  583SOL    MW4 2364   1.784   0.858   1.201
  584SOL     OW 2365   1.784   1.134   1.120
  584SOL    HW2 2366   1.757   1.044   1.136
  584SOL    HW3 2367   1.792   1.140   1.025
  584SOL    MW4 2368   1.781   1.123   1.110
  585SOL     OW 2369   2.007   1.284   1.210
  585SOL    HW2 2370   2.084   1.260   1.158
  585SOL    HW3 2371   1.939   1.223   1.180
  585SOL    MW4 2372   2.008   1.273   1.199
  586SOL     OW 2373   2.036   1.552   1.110
  586SOL    HW2 2374   2.031   1.460   1.135
  586SOL    HW3 2375   2.013   1.554   1.017
  586SOL    MW4 2376   2.032   1.540   1.101
  587SOL     OW 2377   1.827   1.709   1.206
  587SOL    HW2 2378   1.823   1.786   1.150
  587SOL    HW3 2379   1.914   1.672   1.190
  587SOL    MW4 2380   1.838   1.714   1.196
  588SOL     OW 2381   1.826   1.951   1.074
  588SOL    HW2 2382   1.750   1.975   1.126
  588SOL    HW3 2383   1.791   1.932   0.987
  588SOL    MW4 2384   1.812   1.952   1.069
  589SOL     OW 2385   2.058   2.022   1.194
  589SOL    HW2 2386   2.048   2.038   1.288
  589SOL    HW3 2387   1.970   1.998   1.164
  589SOL    MW4 2388   2.045   2.021   1.202
  590SOL     OW 2389   2.079   2.291   1.105
  590SOL    HW2 2390   2.123   2.342   1.173
  590SOL    HW3 2391   2.075   2.202   1.141
  590SOL    MW4 2392   2.084   2.286   1.119
  591SOL     OW 2393   1.847   2.433   1.224
  591SOL    HW2 2394   1.914   2.390   1.171
  591SOL    HW3 2395   1.766   2.388   1.201
  591SOL    MW4 2396   1.845   2.421   1.214
  592SOL     OW 2397   1.824   2.674   1.119
  592SOL    HW2 2398   1.821   2.590   1.165
  592SOL    HW3 2399   1.824   2.651   1.027
  592SOL    MW4 2400   1.824   2.660   1.113
  593SOL     OW 2401   2.023   2.796   1.295
  593SOL    HW2 2402   2.018   2.882   1.253
  593SOL    HW3 2403   1.957   2.744   1.250
  593SOL    MW4 2404   2.013   2.801   1.284
  594SOL     OW 2405   1.996   3.037   1.124
  594SOL    HW2 2406   1.928   3.102   1.144
  594SOL    HW3 2407   2.000   3.035   1.029
  594SOL    MW4 2408   1.987   3.045   1.115
  595SOL     OW 2409   1.818   3.251   1.177
  595SOL    HW2 2410   1.832   3.265   1.271
  595SOL    HW3 2411   1.801   3.338   1.143
  595SOL    MW4 2412   1.818   3.264   1.185
  596SOL     OW 2413   1.793   3.512   1.116
  596SOL    HW2 2414   1.873   3.548   1.155
  596SOL    HW3 2415   1.723   3.541   1.173
  596SOL    MW4 2416   1.795   3.521   1.129
  597SOL     OW 2417   2.068   3.595   1.189
  597SOL    HW2 2418   2.078   3.609   1.284
  597SOL    HW3 2419   2.121   3.517   1.171
  597SOL    MW4 2420   2.076   3.587   1.199
  598SOL     OW 2421   2.010   3.851   1.074
  598SOL    HW2 2422   1.953   3.884   1.144
  598SOL    HW3 2423   2.026   3.760   1.098
  598SOL    MW4 2424   2.004   3.843   1.086
  599SOL     OW 2425   1.844   3.984   1.255
  599SOL    HW2 2426   1.820   3.991   1.348
  599SOL    HW3 2427   1.768   3.941   1.215
  599SOL    MW4 2428   1.831   3.979   1.262
  600SOL     OW 2429   1.812   4.219   1.131
  600SOL    HW2 2430   1.834   4.140   1.180
  600SOL    HW3 2431   1.752   4.267   1.189
  600SOL    MW4 2432   1.807   4.215   1.145
  601SOL     OW 2433   2.031   4.387   1.187
  601SOL    HW2 2434   2.027   4.394   1.282
  601SOL    HW3 2435   1.954   4.336   1.163
  601SOL    MW4 2436   2.021   4.381   1.196
  602SOL     OW 2437   2.431   0.006   1.113
  602SOL    HW2 2438   2.509   0.050   1.146
  602SOL    HW3 2439   2.358   0.050   1.157
  602SOL    MW4 2440   2.431   0.018   1.123
  603SOL     OW 2441   2.231   0.169   1.237
  603SOL    HW2 2442   2.233   0.245   1.179
  603SOL    HW3 2443   2.162   0.113   1.201
  603SOL    MW4 2444   2.222   0.172   1.225
  604SOL     OW 2445   2.226   0.373   1.058
  604SOL    HW2 2446   2.157   0.429   1.094
  604SOL    HW3 2447   2.232   0.399   0.966
  604SOL    MW4 2448   2.218   0.384   1.051
  605SOL     OW 2449   2.454   0.511   1.168
  605SOL    HW2 2450   2.460   0.499   1.263
  605SOL    HW3 2451   2.382   0.453   1.141
  605SOL    MW4 2452   2.445   0.502   1.177
  606SOL     OW 2453   2.448   0.746   1.038
  606SOL    HW2 2454   2.439   0.664   1.087
  606SOL    HW3 2455   2.466   0.718   0.948
  606SOL    MW4 2456   2.449   0.731   1.032
  607SOL     OW 2457   2.260   0.918   1.154
  607SOL    HW2 2458   2.322   0.862   1.107
  607SOL    HW3 2459   2.174   0.883   1.131
  607SOL    MW4 2460   2.257   0.906   1.145
  608SOL     OW 2461   2.240   1.192   1.079
  608SOL    HW2 2462   2.312   1.243   1.117
  608SOL    HW3 2463   2.249   1.105   1.117
  608SOL    MW4 2464   2.251   1.187   1.089
  609SOL     OW 2465   2.460   1.310   1.227
  609SOL    HW2 2466   2.529   1.251   1.195
  609SOL    HW3 2467   2.477   1.393   1.184
  609SOL    MW4 2468   2.471   1.313   1.217
  610SOL     OW 2469   2.509   1.551   1.118
  610SOL    HW2 2470   2.426   1.580   1.155
  610SOL    HW3 2471   2.492   1.543   1.024
  610SOL    MW4 2472   2.496   1.553   1.111
  611SOL     OW 2473   2.278   1.656   1.209
  611SOL    HW2 2474   2.285   1.740   1.165
  611SOL    HW3 2475   2.202   1.614   1.169
  611SOL    MW4 2476   2.269   1.661   1.198
  612SOL     OW 2477   2.278   1.906   1.083
  612SOL    HW2 2478   2.201   1.946   1.123
  612SOL    HW3 2479   2.259   1.904   0.990
  612SOL    MW4 2480   2.265   1.911   1.076
  613SOL     OW 2481   2.480   2.023   1.235
  613SOL    HW2 2482   2.559   1.988   1.195
  613SOL    HW3 2483   2.409   1.996   1.176
  613SOL    MW4 2484   2.481   2.015   1.222
  614SOL     OW 2485   2.475   2.299   1.205
  614SOL    HW2 2486   2.466   2.205   1.219
  614SOL    HW3 2487   2.465   2.312   1.111
  614SOL    MW4 2488   2.473   2.289   1.195
  615SOL     OW 2489   2.238   2.423   1.287
  615SOL    HW2 2490   2.238   2.444   1.381
  615SOL    HW3 2491   2.328   2.398   1.268
  615SOL    MW4 2492   2.250   2.423   1.297
  616SOL     OW 2493   2.226   2.672   1.153
  616SOL    HW2 2494   2.237   2.596   1.211
  616SOL    HW3 2495   2.167   2.731   1.200
  616SOL    MW4 2496   2.220   2.670   1.167
  617SOL     OW 2497   2.489   2.779   1.212
  617SOL    HW2 2498   2.485   2.825   1.296
  617SOL    HW3 2499   2.406   2.731   1.208
  617SOL    MW4 2500   2.477   2.779   1.223
  618SOL     OW 2501   2.487   3.047   1.131
  618SOL    HW2 2502   2.408   3.090   1.164
  618SOL    HW3 2503   2.472   2.953   1.147
  618SOL    MW4 2504   2.474   3.040   1.137
  619SOL     OW 2505   2.257   3.143   1.211
  619SOL    HW2 2506   2.260   3.238   1.194
  619SOL    HW3 2507   2.175   3.115   1.169
  619SOL    MW4 2508   2.246   3.152   1.203
  620SOL     OW 2509   2.248   3.400   1.128
  620SOL    HW2 2510   2.294   3.483   1.141
  620SOL    HW3 2511   2.227   3.398   1.035
  620SOL    MW4 2512   2.251   3.411   1.117
  621SOL     OW 2513   2.407   3.618   1.206
  621SOL    HW2 2514   2.423   3.617   1.301
  621SOL    HW3 2515   2.420   3.709   1.180
  621SOL    MW4 2516   2.411   3.630   1.215
  622SOL     OW 2517   2.465   3.863   1.097
  622SOL    HW2 2518   2.384   3.904   1.127
  622SOL    HW3 2519   2.464   3.874   1.002
  622SOL    MW4 2520   2.454   3.870   1.088
  623SOL     OW 2521   2.248   3.972   1.213
  623SOL    HW2 2522   2.248   4.063   1.185
  623SOL    HW3 2523   2.162   3.939   1.186
  623SOL    MW4 2524   2.237   3.980   1.205
  624SOL     OW 2525   2.249   4.239   1.120
  624SOL    HW2 2526   2.165   4.284   1.122
  624SOL    HW3 2527   2.255   4.202   1.032
  624SOL    MW4 2528   2.239   4.240   1.109
  625SOL     OW 2529   2.448   4.420   1.222
  625SOL    HW2 2530   2.373   4.367   1.196
  625SOL    HW3 2531   2.429   4.507   1.187
  625SOL    MW4 2532   2.436   4.425   1.214
  626SOL     OW 2533   2.883   4.618   1.098
  626SOL    HW2 2534   2.874   4.531   1.135
  626SOL    HW3 2535   2.887   4.604   1.004
  626SOL    MW4 2536   2.883   4.605   1.091
  627SOL     OW 2537   2.677   0.105   1.179
  627SOL    HW2 2538   2.669   0.108   1.275
  627SOL    HW3 2539   2.750   0.046   1.163
  627SOL    MW4 2540   2.685   0.098   1.190
  628SOL     OW 2541   2.677   0.342   1.068
  628SOL    HW2 2542   2.662   0.255   1.106
  628SOL    HW3 2543   2.606   0.396   1.102
  628SOL    MW4 2544   2.666   0.338   1.077
  629SOL     OW 2545   2.893   0.465   1.218
  629SOL    HW2 2546   2.903   0.558   1.198
  629SOL    HW3 2547   2.819   0.436   1.164
  629SOL    MW4 2548   2.884   0.473   1.208
  630SOL     OW 2549   2.906   0.722   1.130
  630SOL    HW2 2550   2.973   0.790   1.137
  630SOL    HW3 2551   2.827   0.763   1.165
  630SOL    MW4 2552   2.905   0.736   1.136
  631SOL     OW 2553   2.674   0.862   1.208
  631SOL    HW2 2554   2.676   0.953   1.179
  631SOL    HW3 2555   2.598   0.824   1.166
  631SOL    MW4 2556   2.664   0.869   1.199
  632SOL     OW 2557   2.661   1.148   1.124
  632SOL    HW2 2558   2.744   1.170   1.166
  632SOL    HW3 2559   2.677   1.165   1.031
  632SOL    MW4 2560   2.674   1.153   1.117
  633SOL     OW 2561   2.905   1.258   1.206
  633SOL    HW2 2562   2.935   1.260   1.297
  633SOL    HW3 2563   2.894   1.350   1.183
  633SOL    MW4 2564   2.908   1.271   1.215
  634SOL     OW 2565   2.942   1.542   1.138
  634SOL    HW2 2566   3.020   1.596   1.146
  634SOL    HW3 2567   2.923   1.541   1.044
  634SOL    MW4 2568   2.949   1.549   1.126
  635SOL     OW 2569   2.726   1.679   1.245
  635SOL    HW2 2570   2.802   1.631   1.212
  635SOL    HW3 2571   2.651   1.640   1.199
  635SOL    MW4 2572   2.726   1.667   1.235
  636SOL     OW 2573   2.703   1.923   1.125
  636SOL    HW2 2574   2.780   1.967   1.162
  636SOL    HW3 2575   2.697   1.841   1.173
  636SOL    MW4 2576   2.712   1.918   1.136
  637SOL     OW 2577   2.916   2.091   1.227
  637SOL    HW2 2578   2.915   2.113   1.321
  637SOL    HW3 2579   2.927   2.175   1.183
  637SOL    MW4 2580   2.918   2.105   1.234
  638SOL     OW 2581   2.903   2.342   1.111
  638SOL    HW2 2582   2.973   2.358   1.174
  638SOL    HW3 2583   2.824   2.374   1.155
  638SOL    MW4 2584   2.902   2.348   1.126
  639SOL     OW 2585   2.703   2.433   1.273
  639SOL    HW2 2586   2.703   2.445   1.368
  639SOL    HW3 2587   2.621   2.387   1.255
  639SOL    MW4 2588   2.692   2.429   1.283
  640SOL     OW 2589   2.734   2.664   1.136
  640SOL    HW2 2590   2.724   2.585   1.189
  640SOL    HW3 2591   2.655   2.716   1.155
  640SOL    MW4 2592   2.722   2.661   1.145
  641SOL     OW 2593   2.941   2.819   1.223
  641SOL    HW2 2594   2.942   2.824   1.319
  641SOL    HW3 2595   2.868   2.762   1.203
  641SOL    MW4 2596   2.932   2.812   1.233
  642SOL     OW 2597   2.945   3.083   1.181
  642SOL    HW2 2598   2.936   2.989   1.193
  642SOL    HW3 2599   2.952   3.095   1.086
  642SOL    MW4 2600   2.945   3.072   1.170
  643SOL     OW 2601   2.698   3.197   1.215
  643SOL    HW2 2602   2.774   3.142   1.196
  643SOL    HW3 2603   2.624   3.149   1.177
  643SOL    MW4 2604   2.698   3.183   1.207
  644SOL     OW 2605   2.666   3.469   1.137
  644SOL    HW2 2606   2.667   3.381   1.173
  644SOL    HW3 2607   2.580   3.504   1.162
  644SOL    MW4 2608   2.655   3.462   1.145
  645SOL     OW 2609   2.918   3.606   1.176
  645SOL    HW2 2610   2.988   3.547   1.149
  645SOL    HW3 2611   2.837   3.556   1.162
  645SOL    MW4 2612   2.916   3.592   1.170
  646SOL     OW 2613   2.908   3.891   1.167
  646SOL    HW2 2614   3.000   3.916   1.173
  646SOL    HW3 2615   2.908   3.796   1.168
  646SOL    MW4 2616   2.920   3.882   1.168
  647SOL     OW 2617   2.656   4.015   1.213
  647SOL    HW2 2618   2.742   3.973   1.203
  647SOL    HW3 2619   2.594   3.952   1.176
  647SOL    MW4 2620   2.659   4.001   1.207
  648SOL     OW 2621   2.646   4.266   1.092
  648SOL    HW2 2622   2.637   4.185   1.142
  648SOL    HW3 2623   2.592   4.330   1.139
  648SOL    MW4 2624   2.638   4.264   1.104
  649SOL     OW 2625   2.888   4.355   1.194
  649SOL    HW2 2626   2.963   4.329   1.139
  649SOL    HW3 2627   2.813   4.313   1.153
  649SOL    MW4 2628   2.888   4.346   1.181
  650SOL     OW 2629   3.353   4.638   1.089
  650SOL    HW2 2630   3.426   4.682   1.133
  650SOL    HW3 2631   3.276   4.662   1.141
  650SOL    MW4 2632   3.353   4.647   1.102
  651SOL     OW 2633   3.114   0.081   1.196
  651SOL    HW2 2634   3.102   0.098   1.290
  651SOL    HW3 2635   3.046   0.017   1.175
  651SOL    MW4 2636   3.103   0.074   1.206
  652SOL     OW 2637   3.103   0.342   1.098
  652SOL    HW2 2638   3.112   0.250   1.124
  652SOL    HW3 2639   3.019   0.369   1.135
  652SOL    MW4 2640   3.093   0.333   1.106
  653SOL     OW 2641   3.319   0.491   1.238
  653SOL    HW2 2642   3.313   0.583   1.213
  653SOL    HW3 2643   3.257   0.447   1.180
  653SOL    MW4 2644   3.310   0.497   1.227
  654SOL     OW 2645   3.327   0.768   1.154
  654SOL    HW2 2646   3.256   0.832   1.157
  654SOL    HW3 2647   3.338   0.748   1.061
  654SOL    MW4 2648   3.319   0.774   1.142
  655SOL     OW 2649   3.100   0.923   1.165
  655SOL    HW2 2650   3.114   0.934   1.259
  655SOL    HW3 2651   3.122   1.008   1.127
  655SOL    MW4 2652   3.105   0.936   1.173
  656SOL     OW 2653   3.143   1.180   1.069
  656SOL    HW2 2654   3.216   1.210   1.123
  656SOL    HW3 2655   3.065   1.209   1.116
  656SOL    MW4 2656   3.142   1.188   1.083
  657SOL     OW 2657   3.361   1.276   1.206
  657SOL    HW2 2658   3.359   1.284   1.302
  657SOL    HW3 2659   3.375   1.365   1.175
  657SOL    MW4 2660   3.363   1.289   1.215
  658SOL     OW 2661   3.382   1.533   1.124
  658SOL    HW2 2662   3.461   1.573   1.159
  658SOL    HW3 2663   3.310   1.583   1.163
  658SOL    MW4 2664   3.383   1.545   1.133
  659SOL     OW 2665   3.171   1.681   1.221
  659SOL    HW2 2666   3.162   1.690   1.316
  659SOL    HW3 2667   3.154   1.769   1.186
  659SOL    MW4 2668   3.167   1.694   1.229
  660SOL     OW 2669   3.157   1.947   1.133
  660SOL    HW2 2670   3.233   1.985   1.177
  660SOL    HW3 2671   3.085   2.005   1.155
  660SOL    MW4 2672   3.158   1.960   1.142
  661SOL     OW 2673   3.372   2.077   1.229
  661SOL    HW2 2674   3.450   2.027   1.206
  661SOL    HW3 2675   3.382   2.161   1.185
  661SOL    MW4 2676   3.383   2.081   1.220
  662SOL     OW 2677   3.392   2.356   1.126
  662SOL    HW2 2678   3.450   2.415   1.175
  662SOL    HW3 2679   3.304   2.384   1.151
  662SOL    MW4 2680   3.388   2.368   1.136
  663SOL     OW 2681   3.136   2.421   1.240
  663SOL    HW2 2682   3.119   2.438   1.332
  663SOL    HW3 2683   3.137   2.507   1.199
  663SOL    MW4 2684   3.134   2.434   1.246
  664SOL     OW 2685   3.165   2.684   1.150
  664SOL    HW2 2686   3.101   2.748   1.183
  664SOL    HW3 2687   3.153   2.685   1.055
  664SOL    MW4 2688   3.155   2.693   1.142
  665SOL     OW 2689   3.398   2.829   1.226
  665SOL    HW2 2690   3.382   2.918   1.196
  665SOL    HW3 2691   3.318   2.781   1.201
  665SOL    MW4 2692   3.385   2.834   1.219
  666SOL     OW 2693   3.355   3.094   1.131
  666SOL    HW2 2694   3.438   3.126   1.165
  666SOL    HW3 2695   3.289   3.145   1.177
  666SOL    MW4 2696   3.357   3.105   1.141
  667SOL     OW 2697   3.170   3.235   1.294
  667SOL    HW2 2698   3.162   3.318   1.247
  667SOL    HW3 2699   3.097   3.182   1.262
  667SOL    MW4 2700   3.159   3.239   1.284
  668SOL     OW 2701   3.146   3.457   1.106
  668SOL    HW2 2702   3.225   3.493   1.146
  668SOL    HW3 2703   3.165   3.456   1.012
  668SOL    MW4 2704   3.159   3.461   1.099
  669SOL     OW 2705   3.378   3.563   1.213
  669SOL    HW2 2706   3.370   3.577   1.307
  669SOL    HW3 2707   3.468   3.533   1.201
  669SOL    MW4 2708   3.389   3.561   1.224
  670SOL     OW 2709   3.387   3.818   1.082
  670SOL    HW2 2710   3.302   3.861   1.092
  670SOL    HW3 2711   3.377   3.734   1.126
  670SOL    MW4 2712   3.375   3.813   1.089
  671SOL     OW 2713   3.172   3.969   1.166
  671SOL    HW2 2714   3.179   3.965   1.261
  671SOL    HW3 2715   3.160   4.063   1.147
  671SOL    MW4 2716   3.171   3.981   1.176
  672SOL     OW 2717   3.137   4.251   1.105
  672SOL    HW2 2718   3.207   4.281   1.163
  672SOL    HW3 2719   3.180   4.242   1.020
  672SOL    MW4 2720   3.152   4.254   1.101
  673SOL     OW 2721   3.383   4.370   1.218
  673SOL    HW2 2722   3.457   4.316   1.189
  673SOL    HW3 2723   3.381   4.444   1.157
  673SOL    MW4 2724   3.392   4.372   1.206
  674SOL     OW 2725   3.792   4.658   1.150
  674SOL    HW2 2726   3.790   4.564   1.170
  674SOL    HW3 2727   3.818   4.663   1.058
  674SOL    MW4 2728   3.795   4.646   1.140
  675SOL     OW 2729   3.539   0.107   1.221
  675SOL    HW2 2730   3.548   0.201   1.211
  675SOL    HW3 2731   3.625   0.071   1.201
  675SOL    MW4 2732   3.551   0.114   1.217
  676SOL     OW 2733   3.566   0.369   1.166
  676SOL    HW2 2734   3.639   0.418   1.204
  676SOL    HW3 2735   3.488   0.416   1.196
  676SOL    MW4 2736   3.565   0.382   1.175
  677SOL     OW 2737   3.784   0.516   1.277
  677SOL    HW2 2738   3.844   0.466   1.221
  677SOL    HW3 2739   3.796   0.607   1.249
  677SOL    MW4 2740   3.794   0.521   1.266
  678SOL     OW 2741   3.835   0.763   1.161
  678SOL    HW2 2742   3.909   0.822   1.176
  678SOL    HW3 2743   3.757   0.817   1.174
  678SOL    MW4 2744   3.834   0.778   1.165
  679SOL     OW 2745   3.577   0.890   1.220
  679SOL    HW2 2746   3.577   0.980   1.186
  679SOL    HW3 2747   3.489   0.858   1.203
  679SOL    MW4 2748   3.565   0.898   1.213
  680SOL     OW 2749   3.581   1.130   1.098
  680SOL    HW2 2750   3.662   1.171   1.130
  680SOL    HW3 2751   3.512   1.189   1.126
  680SOL    MW4 2752   3.583   1.143   1.106
  681SOL     OW 2753   3.814   1.274   1.210
  681SOL    HW2 2754   3.821   1.275   1.305
  681SOL    HW3 2755   3.813   1.367   1.185
  681SOL    MW4 2756   3.815   1.286   1.219
  682SOL     OW 2757   3.833   1.539   1.134
  682SOL    HW2 2758   3.911   1.580   1.171
  682SOL    HW3 2759   3.842   1.553   1.039
  682SOL    MW4 2760   3.845   1.546   1.126
  683SOL     OW 2761   3.592   1.693   1.219
  683SOL    HW2 2762   3.602   1.788   1.213
  683SOL    HW3 2763   3.677   1.659   1.191
  683SOL    MW4 2764   3.605   1.701   1.214
  684SOL     OW 2765   3.626   1.980   1.162
  684SOL    HW2 2766   3.707   2.015   1.198
  684SOL    HW3 2767   3.625   2.009   1.071
  684SOL    MW4 2768   3.636   1.989   1.155
  685SOL     OW 2769   3.843   2.126   1.243
  685SOL    HW2 2770   3.848   2.104   1.336
  685SOL    HW3 2771   3.922   2.087   1.205
  685SOL    MW4 2772   3.854   2.118   1.250
  686SOL     OW 2773   3.808   2.359   1.109
  686SOL    HW2 2774   3.879   2.417   1.136
  686SOL    HW3 2775   3.816   2.282   1.165
  686SOL    MW4 2776   3.818   2.357   1.120
  687SOL     OW 2777   3.607   2.493   1.245
  687SOL    HW2 2778   3.610   2.485   1.340
  687SOL    HW3 2779   3.670   2.429   1.213
  687SOL    MW4 2780   3.615   2.484   1.253
  688SOL     OW 2781   3.633   2.740   1.107
  688SOL    HW2 2782   3.632   2.653   1.148
  688SOL    HW3 2783   3.563   2.788   1.151
  688SOL    MW4 2784   3.624   2.735   1.118
  689SOL     OW 2785   3.883   2.845   1.168
  689SOL    HW2 2786   3.880   2.831   1.263
  689SOL    HW3 2787   3.801   2.806   1.136
  689SOL    MW4 2788   3.872   2.838   1.176
  690SOL     OW 2789   3.830   3.091   1.081
  690SOL    HW2 2790   3.839   2.999   1.106
  690SOL    HW3 2791   3.822   3.089   0.986
  690SOL    MW4 2792   3.830   3.079   1.072
  691SOL     OW 2793   3.617   3.171   1.252
  691SOL    HW2 2794   3.607   3.264   1.235
  691SOL    HW3 2795   3.695   3.146   1.203
  691SOL    MW4 2796   3.626   3.180   1.243
  692SOL     OW 2797   3.634   3.425   1.152
  692SOL    HW2 2798   3.712   3.472   1.180
  692SOL    HW3 2799   3.620   3.453   1.061
  692SOL    MW4 2800   3.643   3.435   1.143
  693SOL     OW 2801   3.856   3.594   1.204
  693SOL    HW2 2802   3.841   3.607   1.297
  693SOL    HW3 2803   3.860   3.682   1.167
  693SOL    MW4 2804   3.854   3.607   1.211
  694SOL     OW 2805   3.863   3.855   1.122
  694SOL    HW2 2806   3.772   3.883   1.129
  694SOL    HW3 2807   3.880   3.849   1.028
  694SOL    MW4 2808   3.854   3.858   1.111
  695SOL     OW 2809   3.605   3.948   1.202
  695SOL    HW2 2810   3.589   3.959   1.296
  695SOL    HW3 2811   3.532   3.893   1.172
  695SOL    MW4 2812   3.593   3.942   1.210
  696SOL     OW 2813   3.607   4.199   1.099
  696SOL    HW2 2814   3.622   4.111   1.134
  696SOL    HW3 2815   3.592   4.186   1.006
  696SOL    MW4 2816   3.607   4.185   1.091
  697SOL     OW 2817   3.798   4.379   1.200
  697SOL    HW2 2818   3.790   4.373   1.295
  697SOL    HW3 2819   3.731   4.319   1.167
  697SOL    MW4 2820   3.788   4.370   1.208
  698SOL     OW 2821   4.227   4.647   1.059
  698SOL    HW2 2822   4.219   4.565   1.108
  698SOL    HW3 2823   4.168   4.708   1.103
  698SOL    MW4 2824   4.218   4.644   1.071
  699SOL     OW 2825   4.042   0.102   1.206
  699SOL    HW2 2826   4.064   0.101   1.299
  699SOL    HW3 2827   3.960   0.052   1.200
  699SOL    MW4 2828   4.034   0.095   1.217
  700SOL     OW 2829   3.982   0.366   1.123
  700SOL    HW2 2830   3.983   0.278   1.159
  700SOL    HW3 2831   3.980   0.353   1.028
  700SOL    MW4 2832   3.982   0.353   1.115
  701SOL     OW 2833   4.222   0.483   1.204
  701SOL    HW2 2834   4.216   0.469   1.298
  701SOL    HW3 2835   4.137   0.455   1.169
  701SOL    MW4 2836   4.210   0.477   1.212
  702SOL     OW 2837   4.275   0.755   1.129
  702SOL    HW2 2838   4.255   0.675   1.178
  702SOL    HW3 2839   4.258   0.732   1.038
  702SOL    MW4 2840   4.270   0.741   1.123
  703SOL     OW 2841   4.074   0.920   1.201
  703SOL    HW2 2842   4.063   0.901   1.294
  703SOL    HW3 2843   4.120   0.844   1.167
  703SOL    MW4 2844   4.078   0.907   1.209
  704SOL     OW 2845   4.069   1.185   1.103
  704SOL    HW2 2846   4.078   1.100   1.146
  704SOL    HW3 2847   3.986   1.220   1.137
  704SOL    MW4 2848   4.059   1.178   1.113
  705SOL     OW 2849   4.275   1.321   1.218
  705SOL    HW2 2850   4.260   1.316   1.312
  705SOL    HW3 2851   4.198   1.280   1.179
  705SOL    MW4 2852   4.263   1.315   1.225
  706SOL     OW 2853   4.287   1.574   1.097
  706SOL    HW2 2854   4.284   1.485   1.132
  706SOL    HW3 2855   4.355   1.618   1.148
  706SOL    MW4 2856   4.295   1.568   1.108
  707SOL     OW 2857   4.056   1.689   1.204
  707SOL    HW2 2858   4.091   1.688   1.293
  707SOL    HW3 2859   4.129   1.658   1.150
  707SOL    MW4 2860   4.070   1.685   1.209
  708SOL     OW 2861   4.037   1.980   1.104
  708SOL    HW2 2862   4.016   1.894   1.139
  708SOL    HW3 2863   4.032   1.970   1.009
  708SOL    MW4 2864   4.034   1.968   1.096
  709SOL     OW 2865   4.271   2.062   1.220
  709SOL    HW2 2866   4.283   2.154   1.193
  709SOL    HW3 2867   4.194   2.033   1.172
  709SOL    MW4 2868   4.263   2.070   1.210
  710SOL     OW 2869   4.253   2.314   1.113
  710SOL    HW2 2870   4.186   2.379   1.132
  710SOL    HW3 2871   4.253   2.305   1.018
  710SOL    MW4 2872   4.244   2.321   1.103
  711SOL     OW 2873   4.028   2.502   1.199
  711SOL    HW2 2874   4.048   2.486   1.291
  711SOL    HW3 2875   4.083   2.578   1.176
  711SOL    MW4 2876   4.038   2.510   1.208
  712SOL     OW 2877   4.119   2.744   1.084
  712SOL    HW2 2878   4.034   2.778   1.112
  712SOL    HW3 2879   4.110   2.730   0.990
  712SOL    MW4 2880   4.107   2.747   1.075
  713SOL     OW 2881   4.298   2.883   1.208
  713SOL    HW2 2882   4.290   2.975   1.180
  713SOL    HW3 2883   4.236   2.836   1.152
  713SOL    MW4 2884   4.288   2.889   1.197
  714SOL     OW 2885   4.325   3.153   1.117
  714SOL    HW2 2886   4.239   3.186   1.142
  714SOL    HW3 2887   4.325   3.156   1.022
  714SOL    MW4 2888   4.314   3.157   1.108
  715SOL     OW 2889   4.054   3.242   1.177
  715SOL    HW2 2890   4.036   3.228   1.270
  715SOL    HW3 2891   3.995   3.181   1.132
  715SOL    MW4 2892   4.044   3.232   1.183
  716SOL     OW 2893   4.059   3.495   1.061
  716SOL    HW2 2894   4.074   3.405   1.090
  716SOL    HW3 2895   3.989   3.528   1.117
  716SOL    MW4 2896   4.052   3.488   1.072
  717SOL     OW 2897   4.252   3.629   1.210
  717SOL    HW2 2898   4.177   3.586   1.168
  717SOL    HW3 2899   4.327   3.573   1.188
  717SOL    MW4 2900   4.252   3.616   1.202
  718SOL     OW 2901   4.254   3.872   1.097
  718SOL    HW2 2902   4.193   3.922   1.151
  718SOL    HW3 2903   4.264   3.789   1.144
  718SOL    MW4 2904   4.247   3.868   1.110
  719SOL     OW 2905   4.059   4.009   1.239
  719SOL    HW2 2906   4.044   4.094   1.197
  719SOL    HW3 2907   3.980   3.958   1.218
  719SOL    MW4 2908   4.046   4.014   1.231
  720SOL     OW 2909   4.010   4.239   1.117
  720SOL    HW2 2910   3.929   4.285   1.138
  720SOL    HW3 2911   4.016   4.242   1.021
  720SOL    MW4 2912   4.000   4.245   1.107
  721SOL     OW 2913   4.228   4.410   1.212
  721SOL    HW2 2914   4.162   4.361   1.163
  721SOL    HW3 2915   4.311   4.375   1.181
  721SOL    MW4 2916   4.230   4.399   1.201
  722SOL     OW 2917   0.210   4.661   1.559
  722SOL    HW2 2918   0.298   4.687   1.531
  722SOL    HW3 2919   0.153   4.730   1.525
  722SOL    MW4 2920   0.214   4.674   1.551
  723SOL     OW 2921   4.482   0.153   1.463
  723SOL    HW2 2922   4.412   0.095   1.493
  723SOL    HW3 2923   4.483   0.142   1.368
  723SOL    MW4 2924   4.473   0.144   1.454
  724SOL     OW 2925   4.469   0.416   1.558
  724SOL    HW2 2926   4.464   0.413   1.654
  724SOL    HW3 2927   4.475   0.325   1.531
  724SOL    MW4 2928   4.469   0.404   1.567
  725SOL     OW 2929   0.218   0.547   1.479
  725SOL    HW2 2930   0.137   0.504   1.507
  725SOL    HW3 2931   0.216   0.541   1.383
  725SOL    MW4 2932   0.207   0.541   1.470
  726SOL     OW 2933   0.209   0.770   1.607
  726SOL    HW2 2934   0.290   0.813   1.580
  726SOL    HW3 2935   0.212   0.684   1.565
  726SOL    MW4 2936   0.220   0.764   1.598
  727SOL     OW 2937   4.468   0.882   1.496
  727SOL    HW2 2938   4.468   0.977   1.507
  727SOL    HW3 2939   4.546   0.853   1.543
  727SOL    MW4 2940   4.479   0.891   1.503
  728SOL     OW 2941   4.483   1.144   1.592
  728SOL    HW2 2942   4.509   1.139   1.684
  728SOL    HW3 2943   4.553   1.194   1.550
  728SOL    MW4 2944   4.496   1.150   1.598
  729SOL     OW 2945   0.211   1.313   1.481
  729SOL    HW2 2946   0.218   1.401   1.518
  729SOL    HW3 2947   0.200   1.327   1.387
  729SOL    MW4 2948   0.210   1.326   1.474
  730SOL     OW 2949   0.223   1.557   1.597
  730SOL    HW2 2950   0.223   1.549   1.692
  730SOL    HW3 2951   0.135   1.587   1.575
  730SOL    MW4 2952   0.211   1.560   1.607
  731SOL     OW 2953   4.487   1.683   1.530
  731SOL    HW2 2954   4.510   1.770   1.565
  731SOL    HW3 2955   4.478   1.697   1.436
  731SOL    MW4 2956   4.489   1.697   1.522
  732SOL     OW 2957   0.058   1.953   1.599
  732SOL    HW2 2958   0.035   1.945   1.691
  732SOL    HW3 2959  -0.020   1.990   1.558
  732SOL    MW4 2960   0.045   1.957   1.606
  733SOL     OW 2961   0.255   2.083   1.462
  733SOL    HW2 2962   0.182   2.035   1.501
  733SOL    HW3 2963   0.246   2.069   1.368
  733SOL    MW4 2964   0.244   2.075   1.455
  734SOL     OW 2965   0.226   2.331   1.539
  734SOL    HW2 2966   0.227   2.321   1.634
  734SOL    HW3 2967   0.223   2.241   1.505
  734SOL    MW4 2968   0.225   2.317   1.547
  735SOL     OW 2969   0.018   2.502   1.457
  735SOL    HW2 2970  -0.058   2.464   1.503
  735SOL    HW3 2971   0.092   2.447   1.482
  735SOL    MW4 2972   0.018   2.490   1.466
  736SOL     OW 2973   0.046   2.745   1.591
  736SOL    HW2 2974  -0.036   2.787   1.564
  736SOL    HW3 2975   0.039   2.655   1.561
  736SOL    MW4 2976   0.035   2.739   1.584
  737SOL     OW 2977   0.271   2.854   1.486
  737SOL    HW2 2978   0.343   2.796   1.510
  737SOL    HW3 2979   0.192   2.807   1.514
  737SOL    MW4 2980   0.270   2.840   1.493
  738SOL     OW 2981   0.265   3.110   1.620
  738SOL    HW2 2982   0.188   3.157   1.588
  738SOL    HW3 2983   0.261   3.024   1.578
  738SOL    MW4 2984   0.254   3.105   1.611
  739SOL     OW 2985   0.051   3.243   1.505
  739SOL    HW2 2986   0.059   3.334   1.536
  739SOL    HW3 2987   0.079   3.246   1.414
  739SOL    MW4 2988   0.056   3.256   1.497
  740SOL     OW 2989   0.032   3.501   1.592
  740SOL    HW2 2990   0.016   3.488   1.685
  740SOL    HW3 2991  -0.056   3.504   1.553
  740SOL    MW4 2992   0.018   3.500   1.599
  741SOL     OW 2993   0.257   3.644   1.484
  741SOL    HW2 2994   0.255   3.728   1.530
  741SOL    HW3 2995   0.180   3.597   1.517
  741SOL    MW4 2996   0.246   3.649   1.495
  742SOL     OW 2997   0.244   3.909   1.582
  742SOL    HW2 2998   0.225   3.903   1.676
  742SOL    HW3 2999   0.325   3.959   1.577
  742SOL    MW4 3000   0.252   3.915   1.594
  743SOL     OW 3001   0.021   3.984   1.450
  743SOL    HW2 3002   0.006   4.055   1.512
  743SOL    HW3 3003   0.103   3.944   1.479
  743SOL    MW4 3004   0.030   3.988   1.462
  744SOL     OW 3005   4.448   4.256   1.596
  744SOL    HW2 3006   4.434   4.260   1.690
  744SOL    HW3 3007   4.364   4.284   1.558
  744SOL    MW4 3008   4.435   4.260   1.603
  745SOL     OW 3009   0.188   4.380   1.494
  745SOL    HW2 3010   0.103   4.365   1.534
  745SOL    HW3 3011   0.206   4.473   1.510
  745SOL    MW4 3012   0.179   4.391   1.501
  746SOL     OW 3013   0.666   4.640   1.621
  746SOL    HW2 3014   0.748   4.679   1.590
  746SOL    HW3 3015   0.598   4.692   1.579
  746SOL    MW4 3016   0.668   4.652   1.612
  747SOL     OW 3017   0.456   0.110   1.510
  747SOL    HW2 3018   0.431   0.195   1.545
  747SOL    HW3 3019   0.460   0.123   1.415
  747SOL    MW4 3020   0.453   0.123   1.502
  748SOL     OW 3021   0.421   0.382   1.587
  748SOL    HW2 3022   0.506   0.421   1.571
  748SOL    HW3 3023   0.358   0.443   1.549
  748SOL    MW4 3024   0.424   0.395   1.580
  749SOL     OW 3025   0.642   0.520   1.501
  749SOL    HW2 3026   0.646   0.613   1.521
  749SOL    HW3 3027   0.624   0.516   1.407
  749SOL    MW4 3028   0.640   0.531   1.492
  750SOL     OW 3029   0.645   0.785   1.581
  750SOL    HW2 3030   0.647   0.797   1.676
  750SOL    HW3 3031   0.722   0.832   1.549
  750SOL    MW4 3032   0.655   0.793   1.589
  751SOL     OW 3033   0.404   0.918   1.501
  751SOL    HW2 3034   0.406   1.008   1.532
  751SOL    HW3 3035   0.489   0.882   1.526
  751SOL    MW4 3036   0.415   0.925   1.508
  752SOL     OW 3037   0.423   1.174   1.579
  752SOL    HW2 3038   0.500   1.230   1.569
  752SOL    HW3 3039   0.351   1.228   1.547
  752SOL    MW4 3040   0.424   1.189   1.574
  753SOL     OW 3041   0.638   1.313   1.482
  753SOL    HW2 3042   0.651   1.406   1.502
  753SOL    HW3 3043   0.642   1.308   1.387
  753SOL    MW4 3044   0.640   1.325   1.472
  754SOL     OW 3045   0.647   1.585   1.566
  754SOL    HW2 3046   0.719   1.624   1.515
  754SOL    HW3 3047   0.569   1.630   1.534
  754SOL    MW4 3048   0.646   1.596   1.555
  755SOL     OW 3049   0.415   1.696   1.469
  755SOL    HW2 3050   0.439   1.775   1.517
  755SOL    HW3 3051   0.344   1.657   1.520
  755SOL    MW4 3052   0.408   1.702   1.482
  756SOL     OW 3053   0.471   1.950   1.572
  756SOL    HW2 3054   0.463   1.950   1.668
  756SOL    HW3 3055   0.402   2.007   1.541
  756SOL    MW4 3056   0.461   1.957   1.581
  757SOL     OW 3057   0.709   2.060   1.486
  757SOL    HW2 3058   0.789   2.021   1.521
  757SOL    HW3 3059   0.638   2.014   1.530
  757SOL    MW4 3060   0.710   2.049   1.496
  758SOL     OW 3061   0.718   2.327   1.588
  758SOL    HW2 3062   0.641   2.361   1.543
  758SOL    HW3 3063   0.724   2.236   1.559
  758SOL    MW4 3064   0.709   2.319   1.578
  759SOL     OW 3065   0.488   2.446   1.485
  759SOL    HW2 3066   0.483   2.524   1.540
  759SOL    HW3 3067   0.407   2.399   1.502
  759SOL    MW4 3068   0.477   2.450   1.494
  760SOL     OW 3069   0.461   2.704   1.588
  760SOL    HW2 3070   0.457   2.725   1.682
  760SOL    HW3 3071   0.538   2.750   1.556
  760SOL    MW4 3072   0.471   2.712   1.596
  761SOL     OW 3073   0.682   2.859   1.514
  761SOL    HW2 3074   0.689   2.949   1.544
  761SOL    HW3 3075   0.692   2.865   1.419
  761SOL    MW4 3076   0.684   2.871   1.505
  762SOL     OW 3077   0.721   3.111   1.582
  762SOL    HW2 3078   0.797   3.159   1.550
  762SOL    HW3 3079   0.648   3.172   1.570
  762SOL    MW4 3080   0.721   3.126   1.576
  763SOL     OW 3081   0.490   3.223   1.499
  763SOL    HW2 3082   0.410   3.177   1.524
  763SOL    HW3 3083   0.477   3.245   1.407
  763SOL    MW4 3084   0.478   3.220   1.490
  764SOL     OW 3085   0.455   3.468   1.610
  764SOL    HW2 3086   0.461   3.377   1.579
  764SOL    HW3 3087   0.388   3.507   1.555
  764SOL    MW4 3088   0.447   3.461   1.599
  765SOL     OW 3089   0.681   3.616   1.529
  765SOL    HW2 3090   0.764   3.584   1.564
  765SOL    HW3 3091   0.615   3.555   1.563
  765SOL    MW4 3092   0.683   3.604   1.538
  766SOL     OW 3093   0.689   3.877   1.632
  766SOL    HW2 3094   0.774   3.912   1.608
  766SOL    HW3 3095   0.689   3.788   1.599
  766SOL    MW4 3096   0.700   3.870   1.625
  767SOL     OW 3097   0.495   4.024   1.501
  767SOL    HW2 3098   0.560   3.968   1.543
  767SOL    HW3 3099   0.519   4.022   1.408
  767SOL    MW4 3100   0.507   4.016   1.494
  768SOL     OW 3101   0.443   4.284   1.579
  768SOL    HW2 3102   0.462   4.195   1.552
  768SOL    HW3 3103   0.353   4.299   1.551
  768SOL    MW4 3104   0.433   4.274   1.572
  769SOL     OW 3105   0.690   4.391   1.511
  769SOL    HW2 3106   0.612   4.342   1.535
  769SOL    HW3 3107   0.680   4.476   1.554
  769SOL    MW4 3108   0.679   4.396   1.520
  770SOL     OW 3109   1.118   4.667   1.645
  770SOL    HW2 3110   1.118   4.686   1.739
  770SOL    HW3 3111   1.194   4.715   1.611
  770SOL    MW4 3112   1.128   4.676   1.653
  771SOL     OW 3113   0.895   0.111   1.502
  771SOL    HW2 3114   0.906   0.203   1.526
  771SOL    HW3 3115   0.967   0.066   1.545
  771SOL    MW4 3116   0.906   0.117   1.511
  772SOL     OW 3117   0.868   0.381   1.568
  772SOL    HW2 3118   0.877   0.393   1.663
  772SOL    HW3 3119   0.791   0.434   1.545
  772SOL    MW4 3120   0.859   0.390   1.578
  773SOL     OW 3121   1.135   0.499   1.534
  773SOL    HW2 3122   1.146   0.592   1.555
  773SOL    HW3 3123   1.047   0.478   1.565
  773SOL    MW4 3124   1.125   0.509   1.541
  774SOL     OW 3125   1.133   0.760   1.613
  774SOL    HW2 3126   1.162   0.766   1.704
  774SOL    HW3 3127   1.204   0.799   1.562
  774SOL    MW4 3128   1.146   0.766   1.618
  775SOL     OW 3129   0.892   0.892   1.522
  775SOL    HW2 3130   0.956   0.833   1.560
  775SOL    HW3 3131   0.909   0.889   1.428
  775SOL    MW4 3132   0.903   0.884   1.515
  776SOL     OW 3133   0.864   1.167   1.531
  776SOL    HW2 3134   0.862   1.072   1.532
  776SOL    HW3 3135   0.776   1.193   1.503
  776SOL    MW4 3136   0.852   1.158   1.527
  777SOL     OW 3137   1.115   1.291   1.471
  777SOL    HW2 3138   1.195   1.250   1.504
  777SOL    HW3 3139   1.044   1.243   1.514
  777SOL    MW4 3140   1.116   1.279   1.481
  778SOL     OW 3141   1.097   1.566   1.545
  778SOL    HW2 3142   1.180   1.607   1.521
  778SOL    HW3 3143   1.115   1.472   1.543
  778SOL    MW4 3144   1.110   1.559   1.542
  779SOL     OW 3145   0.866   1.693   1.456
  779SOL    HW2 3146   0.943   1.648   1.491
  779SOL    HW3 3147   0.878   1.691   1.361
  779SOL    MW4 3148   0.878   1.687   1.448
  780SOL     OW 3149   0.929   1.935   1.608
  780SOL    HW2 3150   1.002   1.993   1.586
  780SOL    HW3 3151   0.938   1.862   1.546
  780SOL    MW4 3152   0.940   1.933   1.597
  781SOL     OW 3153   1.142   2.092   1.543
  781SOL    HW2 3154   1.216   2.049   1.587
  781SOL    HW3 3155   1.146   2.183   1.573
  781SOL    MW4 3156   1.153   2.098   1.553
  782SOL     OW 3157   1.157   2.349   1.636
  782SOL    HW2 3158   1.226   2.396   1.589
  782SOL    HW3 3159   1.077   2.399   1.618
  782SOL    MW4 3160   1.155   2.362   1.627
  783SOL     OW 3161   0.944   2.491   1.534
  783SOL    HW2 3162   0.932   2.582   1.561
  783SOL    HW3 3163   0.866   2.445   1.566
  783SOL    MW4 3164   0.932   2.497   1.542
  784SOL     OW 3165   0.933   2.785   1.589
  784SOL    HW2 3166   0.940   2.763   1.682
  784SOL    HW3 3167   0.843   2.815   1.578
  784SOL    MW4 3168   0.922   2.786   1.600
  785SOL     OW 3169   1.152   2.902   1.464
  785SOL    HW2 3170   1.152   2.988   1.505
  785SOL    HW3 3171   1.079   2.855   1.503
  785SOL    MW4 3172   1.143   2.907   1.474
  786SOL     OW 3173   1.134   3.159   1.575
  786SOL    HW2 3174   1.141   3.134   1.668
  786SOL    HW3 3175   1.223   3.180   1.549
  786SOL    MW4 3176   1.147   3.158   1.584
  787SOL     OW 3177   0.915   3.278   1.474
  787SOL    HW2 3178   0.998   3.243   1.504
  787SOL    HW3 3179   0.923   3.279   1.378
  787SOL    MW4 3180   0.927   3.274   1.465
  788SOL     OW 3181   0.911   3.524   1.620
  788SOL    HW2 3182   0.991   3.567   1.590
  788SOL    HW3 3183   0.914   3.437   1.582
  788SOL    MW4 3184   0.922   3.518   1.611
  789SOL     OW 3185   1.173   3.609   1.548
  789SOL    HW2 3186   1.244   3.557   1.585
  789SOL    HW3 3187   1.190   3.610   1.453
  789SOL    MW4 3188   1.185   3.602   1.540
  790SOL     OW 3189   1.135   3.878   1.596
  790SOL    HW2 3190   1.214   3.923   1.567
  790SOL    HW3 3191   1.153   3.785   1.580
  790SOL    MW4 3192   1.148   3.872   1.590
  791SOL     OW 3193   0.912   3.995   1.487
  791SOL    HW2 3194   0.913   4.085   1.519
  791SOL    HW3 3195   0.989   3.954   1.528
  791SOL    MW4 3196   0.922   4.001   1.497
  792SOL     OW 3197   0.914   4.263   1.607
  792SOL    HW2 3198   0.883   4.252   1.697
  792SOL    HW3 3199   0.839   4.301   1.561
  792SOL    MW4 3200   0.900   4.267   1.613
  793SOL     OW 3201   1.129   4.416   1.523
  793SOL    HW2 3202   1.048   4.376   1.553
  793SOL    HW3 3203   1.125   4.506   1.556
  793SOL    MW4 3204   1.118   4.423   1.531
  794SOL     OW 3205   1.544   4.657   1.614
  794SOL    HW2 3206   1.546   4.680   1.707
  794SOL    HW3 3207   1.469   4.705   1.579
  794SOL    MW4 3208   1.534   4.666   1.621
  795SOL     OW 3209   1.322   0.135   1.522
  795SOL    HW2 3210   1.329   0.227   1.550
  795SOL    HW3 3211   1.339   0.137   1.428
  795SOL    MW4 3212   1.325   0.148   1.514
  796SOL     OW 3213   1.362   0.372   1.653
  796SOL    HW2 3214   1.433   0.427   1.622
  796SOL    HW3 3215   1.285   0.403   1.606
  796SOL    MW4 3216   1.361   0.383   1.643
  797SOL     OW 3217   1.556   0.545   1.549
  797SOL    HW2 3218   1.634   0.511   1.593
  797SOL    HW3 3219   1.560   0.507   1.461
  797SOL    MW4 3220   1.567   0.536   1.543
  798SOL     OW 3221   1.549   0.797   1.620
  798SOL    HW2 3222   1.566   0.798   1.714
  798SOL    HW3 3223   1.556   0.705   1.595
  798SOL    MW4 3224   1.552   0.785   1.629
  799SOL     OW 3225   1.327   0.904   1.486
  799SOL    HW2 3226   1.403   0.871   1.533
  799SOL    HW3 3227   1.348   0.892   1.393
  799SOL    MW4 3228   1.340   0.898   1.480
  800SOL     OW 3229   1.365   1.189   1.562
  800SOL    HW2 3230   1.364   1.192   1.658
  800SOL    HW3 3231   1.336   1.101   1.540
  800SOL    MW4 3232   1.361   1.178   1.572
  801SOL     OW 3233   1.605   1.298   1.470
  801SOL    HW2 3234   1.533   1.255   1.515
  801SOL    HW3 3235   1.580   1.297   1.378
  801SOL    MW4 3236   1.592   1.292   1.464
  802SOL     OW 3237   1.596   1.560   1.533
  802SOL    HW2 3238   1.595   1.557   1.628
  802SOL    HW3 3239   1.602   1.468   1.506
  802SOL    MW4 3240   1.597   1.548   1.542
  803SOL     OW 3241   1.329   1.675   1.455
  803SOL    HW2 3242   1.397   1.625   1.501
  803SOL    HW3 3243   1.353   1.667   1.363
  803SOL    MW4 3244   1.341   1.667   1.449
  804SOL     OW 3245   1.381   1.955   1.612
  804SOL    HW2 3246   1.382   1.933   1.705
  804SOL    HW3 3247   1.365   1.872   1.567
  804SOL    MW4 3248   1.379   1.941   1.618
  805SOL     OW 3249   1.558   2.103   1.486
  805SOL    HW2 3250   1.494   2.049   1.532
  805SOL    HW3 3251   1.561   2.067   1.397
  805SOL    MW4 3252   1.550   2.091   1.480
  806SOL     OW 3253   1.594   2.336   1.604
  806SOL    HW2 3254   1.680   2.370   1.580
  806SOL    HW3 3255   1.589   2.250   1.563
  806SOL    MW4 3256   1.605   2.329   1.596
  807SOL     OW 3257   1.365   2.472   1.495
  807SOL    HW2 3258   1.364   2.560   1.533
  807SOL    HW3 3259   1.450   2.436   1.521
  807SOL    MW4 3260   1.376   2.479   1.504
  808SOL     OW 3261   1.337   2.734   1.606
  808SOL    HW2 3262   1.417   2.766   1.564
  808SOL    HW3 3263   1.266   2.782   1.561
  808SOL    MW4 3264   1.338   2.745   1.594
  809SOL     OW 3265   1.555   2.828   1.481
  809SOL    HW2 3266   1.626   2.772   1.511
  809SOL    HW3 3267   1.572   2.841   1.387
  809SOL    MW4 3268   1.566   2.823   1.472
  810SOL     OW 3269   1.637   3.091   1.596
  810SOL    HW2 3270   1.711   3.121   1.544
  810SOL    HW3 3271   1.634   2.997   1.581
  810SOL    MW4 3272   1.646   3.082   1.587
  811SOL     OW 3273   1.395   3.202   1.500
  811SOL    HW2 3274   1.396   3.288   1.542
  811SOL    HW3 3275   1.477   3.161   1.528
  811SOL    MW4 3276   1.406   3.208   1.509
  812SOL     OW 3277   1.380   3.437   1.645
  812SOL    HW2 3278   1.374   3.449   1.740
  812SOL    HW3 3279   1.446   3.500   1.616
  812SOL    MW4 3280   1.388   3.447   1.654
  813SOL     OW 3281   1.569   3.628   1.536
  813SOL    HW2 3282   1.569   3.717   1.572
  813SOL    HW3 3283   1.579   3.640   1.442
  813SOL    MW4 3284   1.571   3.641   1.529
  814SOL     OW 3285   1.560   3.884   1.663
  814SOL    HW2 3286   1.543   3.903   1.756
  814SOL    HW3 3287   1.501   3.944   1.617
  814SOL    MW4 3288   1.550   3.895   1.669
  815SOL     OW 3289   1.358   4.035   1.532
  815SOL    HW2 3290   1.334   4.117   1.576
  815SOL    HW3 3291   1.388   4.062   1.445
  815SOL    MW4 3292   1.359   4.050   1.527
  816SOL     OW 3293   1.332   4.278   1.643
  816SOL    HW2 3294   1.411   4.321   1.611
  816SOL    HW3 3295   1.260   4.327   1.603
  816SOL    MW4 3296   1.333   4.290   1.633
  817SOL     OW 3297   1.561   4.376   1.535
  817SOL    HW2 3298   1.640   4.328   1.560
  817SOL    HW3 3299   1.579   4.467   1.556
  817SOL    MW4 3300   1.573   4.382   1.541
  818SOL     OW 3301   1.958   4.655   1.579
  818SOL    HW2 3302   1.954   4.629   1.671
  818SOL    HW3 3303   1.889   4.721   1.569
  818SOL    MW4 3304   1.948   4.660   1.589
  819SOL     OW 3305   1.740   0.161   1.546
  819SOL    HW2 3306   1.674   0.095   1.569
  819SOL    HW3 3307   1.757   0.147   1.453
  819SOL    MW4 3308   1.734   0.150   1.537
  820SOL     OW 3309   1.793   0.406   1.639
  820SOL    HW2 3310   1.868   0.440   1.590
  820SOL    HW3 3311   1.780   0.318   1.605
  820SOL    MW4 3312   1.801   0.399   1.628
  821SOL     OW 3313   2.005   0.513   1.484
  821SOL    HW2 3314   2.085   0.471   1.515
  821SOL    HW3 3315   2.026   0.607   1.483
  821SOL    MW4 3316   2.019   0.520   1.488
  822SOL     OW 3317   2.063   0.780   1.506
  822SOL    HW2 3318   2.140   0.835   1.496
  822SOL    HW3 3319   1.991   0.841   1.519
  822SOL    MW4 3320   2.064   0.795   1.506
  823SOL     OW 3321   1.797   0.912   1.472
  823SOL    HW2 3322   1.807   0.997   1.513
  823SOL    HW3 3323   1.712   0.880   1.504
  823SOL    MW4 3324   1.787   0.919   1.481
  824SOL     OW 3325   1.812   1.155   1.593
  824SOL    HW2 3326   1.884   1.207   1.560
  824SOL    HW3 3327   1.735   1.186   1.546
  824SOL    MW4 3328   1.811   1.166   1.583
  825SOL     OW 3329   2.003   1.311   1.493
  825SOL    HW2 3330   1.993   1.400   1.526
  825SOL    HW3 3331   2.008   1.321   1.398
  825SOL    MW4 3332   2.002   1.324   1.485
  826SOL     OW 3333   1.984   1.585   1.594
  826SOL    HW2 3334   2.062   1.618   1.549
  826SOL    HW3 3335   1.912   1.633   1.554
  826SOL    MW4 3336   1.985   1.596   1.583
  827SOL     OW 3337   1.798   1.737   1.486
  827SOL    HW2 3338   1.722   1.681   1.500
  827SOL    HW3 3339   1.804   1.745   1.391
  827SOL    MW4 3340   1.789   1.731   1.475
  828SOL     OW 3341   1.818   2.001   1.585
  828SOL    HW2 3342   1.811   1.913   1.550
  828SOL    HW3 3343   1.740   2.047   1.551
  828SOL    MW4 3344   1.807   1.996   1.576
  829SOL     OW 3345   2.044   2.116   1.472
  829SOL    HW2 3346   2.114   2.059   1.505
  829SOL    HW3 3347   1.964   2.078   1.509
  829SOL    MW4 3348   2.042   2.103   1.481
  830SOL     OW 3349   2.062   2.372   1.608
  830SOL    HW2 3350   2.069   2.366   1.703
  830SOL    HW3 3351   2.067   2.282   1.577
  830SOL    MW4 3352   2.064   2.359   1.616
  831SOL     OW 3353   1.818   2.459   1.502
  831SOL    HW2 3354   1.905   2.435   1.534
  831SOL    HW3 3355   1.822   2.443   1.408
  831SOL    MW4 3356   1.830   2.454   1.494
  832SOL     OW 3357   1.760   2.704   1.624
  832SOL    HW2 3358   1.846   2.746   1.622
  832SOL    HW3 3359   1.778   2.614   1.597
  832SOL    MW4 3360   1.774   2.698   1.620
  833SOL     OW 3361   1.994   2.819   1.558
  833SOL    HW2 3362   1.992   2.910   1.588
  833SOL    HW3 3363   1.983   2.824   1.463
  833SOL    MW4 3364   1.992   2.832   1.550
  834SOL     OW 3365   2.013   3.102   1.611
  834SOL    HW2 3366   2.018   3.113   1.706
  834SOL    HW3 3367   2.100   3.125   1.580
  834SOL    MW4 3368   2.025   3.107   1.619
  835SOL     OW 3369   1.832   3.267   1.456
  835SOL    HW2 3370   1.830   3.352   1.501
  835SOL    HW3 3371   1.894   3.215   1.508
  835SOL    MW4 3372   1.840   3.271   1.469
  836SOL     OW 3373   1.821   3.519   1.578
  836SOL    HW2 3374   1.840   3.495   1.668
  836SOL    HW3 3375   1.727   3.538   1.578
  836SOL    MW4 3376   1.811   3.518   1.590
  837SOL     OW 3377   2.068   3.628   1.479
  837SOL    HW2 3378   2.131   3.571   1.524
  837SOL    HW3 3379   1.983   3.588   1.498
  837SOL    MW4 3380   2.065   3.615   1.487
  838SOL     OW 3381   2.051   3.887   1.595
  838SOL    HW2 3382   2.130   3.933   1.568
  838SOL    HW3 3383   2.056   3.802   1.551
  838SOL    MW4 3384   2.062   3.882   1.586
  839SOL     OW 3385   1.797   4.002   1.544
  839SOL    HW2 3386   1.880   3.958   1.560
  839SOL    HW3 3387   1.732   3.950   1.592
  839SOL    MW4 3388   1.799   3.989   1.552
  840SOL     OW 3389   1.809   4.280   1.616
  840SOL    HW2 3390   1.876   4.304   1.552
  840SOL    HW3 3391   1.808   4.184   1.615
  840SOL    MW4 3392   1.818   4.270   1.608
  841SOL     OW 3393   2.019   4.401   1.454
  841SOL    HW2 3394   2.076   4.352   1.514
  841SOL    HW3 3395   1.998   4.481   1.502
  841SOL    MW4 3396   2.024   4.405   1.468
  842SOL     OW 3397   2.451   4.648   1.565
  842SOL    HW2 3398   2.446   4.656   1.661
  842SOL    HW3 3399   2.375   4.696   1.533
  842SOL    MW4 3400   2.441   4.655   1.574
  843SOL     OW 3401   2.224   0.127   1.502
  843SOL    HW2 3402   2.142   0.081   1.520
  843SOL    HW3 3403   2.222   0.142   1.407
  843SOL    MW4 3404   2.213   0.123   1.492
  844SOL     OW 3405   2.238   0.392   1.582
  844SOL    HW2 3406   2.223   0.414   1.674
  844SOL    HW3 3407   2.225   0.298   1.577
  844SOL    MW4 3408   2.234   0.383   1.594
  845SOL     OW 3409   2.467   0.506   1.447
  845SOL    HW2 3410   2.540   0.451   1.476
  845SOL    HW3 3411   2.396   0.484   1.507
  845SOL    MW4 3412   2.467   0.496   1.459
  846SOL     OW 3413   2.463   0.749   1.592
  846SOL    HW2 3414   2.394   0.795   1.545
  846SOL    HW3 3415   2.472   0.665   1.547
  846SOL    MW4 3416   2.455   0.744   1.580
  847SOL     OW 3417   2.279   0.932   1.450
  847SOL    HW2 3418   2.275   1.019   1.489
  847SOL    HW3 3419   2.265   0.947   1.356
  847SOL    MW4 3420   2.276   0.946   1.442
  848SOL     OW 3421   2.232   1.175   1.572
  848SOL    HW2 3422   2.226   1.169   1.667
  848SOL    HW3 3423   2.153   1.222   1.546
  848SOL    MW4 3424   2.221   1.181   1.581
  849SOL     OW 3425   2.488   1.296   1.492
  849SOL    HW2 3426   2.396   1.278   1.512
  849SOL    HW3 3427   2.491   1.302   1.396
  849SOL    MW4 3428   2.476   1.295   1.482
  850SOL     OW 3429   2.465   1.559   1.587
  850SOL    HW2 3430   2.548   1.603   1.567
  850SOL    HW3 3431   2.480   1.468   1.562
  850SOL    MW4 3432   2.478   1.553   1.581
  851SOL     OW 3433   2.225   1.690   1.488
  851SOL    HW2 3434   2.297   1.645   1.533
  851SOL    HW3 3435   2.251   1.691   1.396
  851SOL    MW4 3436   2.238   1.684   1.482
  852SOL     OW 3437   2.268   1.971   1.590
  852SOL    HW2 3438   2.269   1.973   1.686
  852SOL    HW3 3439   2.275   1.878   1.568
  852SOL    MW4 3440   2.269   1.959   1.600
  853SOL     OW 3441   2.508   2.063   1.519
  853SOL    HW2 3442   2.421   2.026   1.536
  853SOL    HW3 3443   2.513   2.070   1.424
  853SOL    MW4 3444   2.497   2.059   1.509
  854SOL     OW 3445   2.513   2.325   1.622
  854SOL    HW2 3446   2.507   2.306   1.715
  854SOL    HW3 3447   2.516   2.238   1.580
  854SOL    MW4 3448   2.513   2.311   1.629
  855SOL     OW 3449   2.288   2.501   1.554
  855SOL    HW2 3450   2.357   2.438   1.576
  855SOL    HW3 3451   2.208   2.463   1.588
  855SOL    MW4 3452   2.287   2.488   1.562
  856SOL     OW 3453   2.262   2.773   1.609
  856SOL    HW2 3454   2.269   2.680   1.586
  856SOL    HW3 3455   2.171   2.795   1.588
  856SOL    MW4 3456   2.251   2.764   1.603
  857SOL     OW 3457   2.479   2.869   1.463
  857SOL    HW2 3458   2.508   2.941   1.519
  857SOL    HW3 3459   2.400   2.836   1.507
  857SOL    MW4 3460   2.472   2.875   1.476
  858SOL     OW 3461   2.492   3.103   1.626
  858SOL    HW2 3462   2.555   3.155   1.575
  858SOL    HW3 3463   2.407   3.133   1.595
  858SOL    MW4 3464   2.489   3.114   1.615
  859SOL     OW 3465   2.250   3.155   1.496
  859SOL    HW2 3466   2.256   3.250   1.506
  859SOL    HW3 3467   2.263   3.140   1.402
  859SOL    MW4 3468   2.252   3.166   1.485
  860SOL     OW 3469   2.266   3.444   1.571
  860SOL    HW2 3470   2.248   3.440   1.665
  860SOL    HW3 3471   2.339   3.506   1.563
  860SOL    MW4 3472   2.273   3.452   1.582
  861SOL     OW 3473   2.454   3.616   1.487
  861SOL    HW2 3474   2.535   3.574   1.516
  861SOL    HW3 3475   2.450   3.698   1.536
  861SOL    MW4 3476   2.464   3.621   1.497
  862SOL     OW 3477   2.480   3.853   1.599
  862SOL    HW2 3478   2.487   3.852   1.695
  862SOL    HW3 3479   2.558   3.901   1.570
  862SOL    MW4 3480   2.492   3.860   1.608
  863SOL     OW 3481   2.266   4.001   1.494
  863SOL    HW2 3482   2.342   3.956   1.532
  863SOL    HW3 3483   2.279   3.993   1.399
  863SOL    MW4 3484   2.278   3.994   1.486
  864SOL     OW 3485   2.220   4.268   1.609
  864SOL    HW2 3486   2.298   4.309   1.571
  864SOL    HW3 3487   2.225   4.177   1.580
  864SOL    MW4 3488   2.231   4.261   1.600
  865SOL     OW 3489   2.435   4.384   1.483
  865SOL    HW2 3490   2.442   4.473   1.518
  865SOL    HW3 3491   2.445   4.396   1.388
  865SOL    MW4 3492   2.437   4.398   1.475
  866SOL     OW 3493   2.893   4.629   1.551
  866SOL    HW2 3494   2.889   4.637   1.647
  866SOL    HW3 3495   2.829   4.693   1.520
  866SOL    MW4 3496   2.884   4.639   1.560
  867SOL     OW 3497   2.674   0.124   1.458
  867SOL    HW2 3498   2.677   0.208   1.505
  867SOL    HW3 3499   2.595   0.081   1.492
  867SOL    MW4 3500   2.664   0.129   1.469
  868SOL     OW 3501   2.689   0.401   1.584
  868SOL    HW2 3502   2.700   0.419   1.677
  868SOL    HW3 3503   2.758   0.450   1.541
  868SOL    MW4 3504   2.699   0.410   1.590
  869SOL     OW 3505   2.910   0.502   1.495
  869SOL    HW2 3506   2.900   0.596   1.507
  869SOL    HW3 3507   2.902   0.489   1.400
  869SOL    MW4 3508   2.907   0.513   1.484
  870SOL     OW 3509   2.910   0.776   1.544
  870SOL    HW2 3510   2.922   0.783   1.639
  870SOL    HW3 3511   2.824   0.813   1.528
  870SOL    MW4 3512   2.901   0.782   1.554
  871SOL     OW 3513   2.657   0.902   1.482
  871SOL    HW2 3514   2.587   0.846   1.516
  871SOL    HW3 3515   2.664   0.879   1.389
  871SOL    MW4 3516   2.649   0.891   1.474
  872SOL     OW 3517   2.724   1.164   1.566
  872SOL    HW2 3518   2.707   1.073   1.540
  872SOL    HW3 3519   2.645   1.211   1.542
  872SOL    MW4 3520   2.711   1.158   1.560
  873SOL     OW 3521   2.954   1.280   1.486
  873SOL    HW2 3522   3.023   1.233   1.533
  873SOL    HW3 3523   2.873   1.235   1.511
  873SOL    MW4 3524   2.952   1.268   1.496
  874SOL     OW 3525   2.955   1.556   1.572
  874SOL    HW2 3526   2.875   1.601   1.545
  874SOL    HW3 3527   2.948   1.469   1.534
  874SOL    MW4 3528   2.943   1.551   1.564
  875SOL     OW 3529   2.700   1.674   1.522
  875SOL    HW2 3530   2.716   1.765   1.549
  875SOL    HW3 3531   2.702   1.677   1.426
  875SOL    MW4 3532   2.702   1.687   1.512
  876SOL     OW 3533   2.739   1.942   1.617
  876SOL    HW2 3534   2.740   1.932   1.712
  876SOL    HW3 3535   2.651   1.977   1.598
  876SOL    MW4 3536   2.727   1.946   1.627
  877SOL     OW 3537   2.954   2.112   1.496
  877SOL    HW2 3538   2.949   2.195   1.543
  877SOL    HW3 3539   2.885   2.058   1.533
  877SOL    MW4 3540   2.944   2.116   1.507
  878SOL     OW 3541   2.952   2.337   1.640
  878SOL    HW2 3542   2.963   2.344   1.735
  878SOL    HW3 3543   2.877   2.393   1.620
  878SOL    MW4 3544   2.944   2.345   1.650
  879SOL     OW 3545   2.731   2.474   1.541
  879SOL    HW2 3546   2.719   2.565   1.568
  879SOL    HW3 3547   2.656   2.428   1.578
  879SOL    MW4 3548   2.720   2.480   1.550
  880SOL     OW 3549   2.696   2.750   1.595
  880SOL    HW2 3550   2.775   2.783   1.551
  880SOL    HW3 3551   2.625   2.774   1.536
  880SOL    MW4 3552   2.697   2.758   1.581
  881SOL     OW 3553   2.944   2.845   1.510
  881SOL    HW2 3554   3.020   2.803   1.551
  881SOL    HW3 3555   2.951   2.937   1.535
  881SOL    MW4 3556   2.955   2.852   1.518
  882SOL     OW 3557   2.938   3.103   1.606
  882SOL    HW2 3558   2.922   3.106   1.700
  882SOL    HW3 3559   3.017   3.155   1.593
  882SOL    MW4 3560   2.946   3.110   1.616
  883SOL     OW 3561   2.718   3.243   1.499
  883SOL    HW2 3562   2.796   3.203   1.537
  883SOL    HW3 3563   2.712   3.205   1.411
  883SOL    MW4 3564   2.728   3.233   1.493
  884SOL     OW 3565   2.683   3.506   1.569
  884SOL    HW2 3566   2.683   3.495   1.664
  884SOL    HW3 3567   2.690   3.417   1.535
  884SOL    MW4 3568   2.684   3.493   1.577
  885SOL     OW 3569   2.916   3.629   1.468
  885SOL    HW2 3570   2.834   3.591   1.498
  885SOL    HW3 3571   2.916   3.614   1.373
  885SOL    MW4 3572   2.905   3.622   1.459
  886SOL     OW 3573   2.914   3.878   1.588
  886SOL    HW2 3574   2.842   3.926   1.548
  886SOL    HW3 3575   2.917   3.795   1.541
  886SOL    MW4 3576   2.905   3.873   1.577
  887SOL     OW 3577   2.701   4.016   1.493
  887SOL    HW2 3578   2.685   4.108   1.517
  887SOL    HW3 3579   2.697   4.016   1.397
  887SOL    MW4 3580   2.699   4.028   1.484
  888SOL     OW 3581   2.646   4.262   1.589
  888SOL    HW2 3582   2.726   4.300   1.553
  888SOL    HW3 3583   2.575   4.304   1.541
  888SOL    MW4 3584   2.647   4.272   1.578
  889SOL     OW 3585   2.883   4.369   1.485
  889SOL    HW2 3586   2.883   4.462   1.507
  889SOL    HW3 3587   2.879   4.367   1.390
  889SOL    MW4 3588   2.882   4.381   1.476
  890SOL     OW 3589   3.357   4.660   1.618
  890SOL    HW2 3590   3.431   4.702   1.576
  890SOL    HW3 3591   3.350   4.575   1.576
  890SOL    MW4 3592   3.366   4.654   1.607
  891SOL     OW 3593   3.121   0.101   1.483
  891SOL    HW2 3594   3.196   0.076   1.537
  891SOL    HW3 3595   3.048   0.049   1.518
  891SOL    MW4 3596   3.121   0.091   1.495
  892SOL     OW 3597   3.111   0.336   1.597
  892SOL    HW2 3598   3.111   0.252   1.552
  892SOL    HW3 3599   3.042   0.386   1.555
  892SOL    MW4 3600   3.102   0.331   1.586
  893SOL     OW 3601   3.336   0.496   1.538
  893SOL    HW2 3602   3.266   0.435   1.561
  893SOL    HW3 3603   3.336   0.498   1.442
  893SOL    MW4 3604   3.327   0.488   1.528
  894SOL     OW 3605   3.348   0.763   1.564
  894SOL    HW2 3606   3.352   0.783   1.657
  894SOL    HW3 3607   3.338   0.668   1.560
  894SOL    MW4 3608   3.347   0.753   1.576
  895SOL     OW 3609   3.138   0.922   1.441
  895SOL    HW2 3610   3.216   0.872   1.467
  895SOL    HW3 3611   3.065   0.868   1.470
  895SOL    MW4 3612   3.139   0.908   1.449
  896SOL     OW 3613   3.158   1.150   1.603
  896SOL    HW2 3614   3.158   1.133   1.697
  896SOL    HW3 3615   3.146   1.064   1.563
  896SOL    MW4 3616   3.156   1.137   1.610
  897SOL     OW 3617   3.367   1.303   1.483
  897SOL    HW2 3618   3.445   1.254   1.508
  897SOL    HW3 3619   3.295   1.254   1.523
  897SOL    MW4 3620   3.368   1.290   1.492
  898SOL     OW 3621   3.391   1.557   1.577
  898SOL    HW2 3622   3.375   1.549   1.671
  898SOL    HW3 3623   3.390   1.466   1.545
  898SOL    MW4 3624   3.389   1.544   1.585
  899SOL     OW 3625   3.181   1.731   1.495
  899SOL    HW2 3626   3.259   1.676   1.504
  899SOL    HW3 3627   3.110   1.678   1.531
  899SOL    MW4 3628   3.182   1.717   1.501
  900SOL     OW 3629   3.149   1.956   1.628
  900SOL    HW2 3630   3.153   1.881   1.569
  900SOL    HW3 3631   3.088   2.017   1.586
  900SOL    MW4 3632   3.141   1.954   1.615
  901SOL     OW 3633   3.367   2.069   1.509
  901SOL    HW2 3634   3.291   2.032   1.555
  901SOL    HW3 3635   3.336   2.082   1.419
  901SOL    MW4 3636   3.353   2.066   1.503
  902SOL     OW 3637   3.378   2.337   1.608
  902SOL    HW2 3638   3.463   2.371   1.581
  902SOL    HW3 3639   3.381   2.244   1.585
  902SOL    MW4 3640   3.390   2.330   1.601
  903SOL     OW 3641   3.168   2.471   1.525
  903SOL    HW2 3642   3.251   2.434   1.556
  903SOL    HW3 3643   3.101   2.412   1.561
  903SOL    MW4 3644   3.170   2.458   1.534
  904SOL     OW 3645   3.161   2.728   1.631
  904SOL    HW2 3646   3.244   2.766   1.602
  904SOL    HW3 3647   3.157   2.643   1.585
  904SOL    MW4 3648   3.171   2.721   1.621
  905SOL     OW 3649   3.379   2.827   1.505
  905SOL    HW2 3650   3.377   2.918   1.536
  905SOL    HW3 3651   3.384   2.835   1.410
  905SOL    MW4 3652   3.380   2.840   1.497
  906SOL     OW 3653   3.379   3.084   1.601
  906SOL    HW2 3654   3.377   3.084   1.697
  906SOL    HW3 3655   3.461   3.128   1.579
  906SOL    MW4 3656   3.390   3.090   1.611
  907SOL     OW 3657   3.162   3.247   1.558
  907SOL    HW2 3658   3.240   3.196   1.579
  907SOL    HW3 3659   3.159   3.249   1.463
  907SOL    MW4 3660   3.172   3.241   1.548
  908SOL     OW 3661   3.134   3.528   1.625
  908SOL    HW2 3662   3.138   3.434   1.608
  908SOL    HW3 3663   3.053   3.557   1.583
  908SOL    MW4 3664   3.124   3.519   1.617
  909SOL     OW 3665   3.375   3.592   1.488
  909SOL    HW2 3666   3.452   3.557   1.532
  909SOL    HW3 3667   3.301   3.555   1.535
  909SOL    MW4 3668   3.375   3.583   1.500
  910SOL     OW 3669   3.343   3.868   1.593
  910SOL    HW2 3670   3.267   3.893   1.540
  910SOL    HW3 3671   3.353   3.774   1.577
  910SOL    MW4 3672   3.334   3.859   1.584
  911SOL     OW 3673   3.129   3.981   1.443
  911SOL    HW2 3674   3.148   4.069   1.475
  911SOL    HW3 3675   3.054   3.951   1.495
  911SOL    MW4 3676   3.122   3.989   1.454
  912SOL     OW 3677   3.141   4.235   1.562
  912SOL    HW2 3678   3.154   4.217   1.655
  912SOL    HW3 3679   3.049   4.262   1.555
  912SOL    MW4 3680   3.130   4.236   1.574
  913SOL     OW 3681   3.348   4.416   1.491
  913SOL    HW2 3682   3.271   4.362   1.511
  913SOL    HW3 3683   3.358   4.410   1.396
  913SOL    MW4 3684   3.339   4.408   1.481
  914SOL     OW 3685   3.799   4.640   1.569
  914SOL    HW2 3686   3.796   4.668   1.661
  914SOL    HW3 3687   3.886   4.666   1.538
  914SOL    MW4 3688   3.810   4.647   1.577
  915SOL     OW 3689   3.572   0.124   1.513
  915SOL    HW2 3690   3.656   0.084   1.534
  915SOL    HW3 3691   3.563   0.115   1.418
  915SOL    MW4 3692   3.582   0.118   1.504
  916SOL     OW 3693   3.557   0.386   1.643
  916SOL    HW2 3694   3.554   0.297   1.608
  916SOL    HW3 3695   3.481   0.429   1.604
  916SOL    MW4 3696   3.546   0.380   1.633
  917SOL     OW 3697   3.785   0.509   1.542
  917SOL    HW2 3698   3.702   0.467   1.565
  917SOL    HW3 3699   3.781   0.521   1.447
  917SOL    MW4 3700   3.773   0.505   1.533
  918SOL     OW 3701   3.815   0.796   1.610
  918SOL    HW2 3702   3.733   0.838   1.586
  918SOL    HW3 3703   3.806   0.705   1.579
  918SOL    MW4 3704   3.803   0.789   1.603
  919SOL     OW 3705   3.582   0.898   1.503
  919SOL    HW2 3706   3.510   0.840   1.527
  919SOL    HW3 3707   3.581   0.900   1.407
  919SOL    MW4 3708   3.572   0.891   1.494
  920SOL     OW 3709   3.588   1.161   1.586
  920SOL    HW2 3710   3.677   1.190   1.566
  920SOL    HW3 3711   3.583   1.073   1.548
  920SOL    MW4 3712   3.599   1.153   1.578
  921SOL     OW 3713   3.809   1.289   1.483
  921SOL    HW2 3714   3.896   1.266   1.515
  921SOL    HW3 3715   3.802   1.383   1.500
  921SOL    MW4 3716   3.820   1.299   1.490
  922SOL     OW 3717   3.837   1.547   1.589
  922SOL    HW2 3718   3.850   1.551   1.684
  922SOL    HW3 3719   3.752   1.590   1.575
  922SOL    MW4 3720   3.827   1.553   1.600
  923SOL     OW 3721   3.615   1.689   1.491
  923SOL    HW2 3722   3.538   1.644   1.526
  923SOL    HW3 3723   3.598   1.695   1.397
  923SOL    MW4 3724   3.603   1.684   1.483
  924SOL     OW 3725   3.612   1.943   1.550
  924SOL    HW2 3726   3.604   1.848   1.546
  924SOL    HW3 3727   3.525   1.976   1.531
  924SOL    MW4 3728   3.600   1.935   1.547
  925SOL     OW 3729   3.866   2.069   1.499
  925SOL    HW2 3730   3.856   2.162   1.522
  925SOL    HW3 3731   3.781   2.030   1.521
  925SOL    MW4 3732   3.853   2.076   1.505
  926SOL     OW 3733   3.846   2.354   1.555
  926SOL    HW2 3734   3.854   2.348   1.650
  926SOL    HW3 3735   3.923   2.404   1.527
  926SOL    MW4 3736   3.857   2.360   1.563
  927SOL     OW 3737   3.600   2.460   1.529
  927SOL    HW2 3738   3.609   2.547   1.568
  927SOL    HW3 3739   3.685   2.419   1.542
  927SOL    MW4 3740   3.612   2.466   1.536
  928SOL     OW 3741   3.613   2.722   1.612
  928SOL    HW2 3742   3.580   2.711   1.701
  928SOL    HW3 3743   3.543   2.769   1.566
  928SOL    MW4 3744   3.599   2.727   1.618
  929SOL     OW 3745   3.834   2.788   1.438
  929SOL    HW2 3746   3.901   2.743   1.489
  929SOL    HW3 3747   3.753   2.773   1.487
  929SOL    MW4 3748   3.832   2.780   1.451
  930SOL     OW 3749   3.817   3.054   1.559
  930SOL    HW2 3750   3.887   3.094   1.509
  930SOL    HW3 3751   3.817   2.962   1.531
  930SOL    MW4 3752   3.826   3.047   1.548
  931SOL     OW 3753   3.601   3.219   1.513
  931SOL    HW2 3754   3.673   3.161   1.540
  931SOL    HW3 3755   3.600   3.213   1.418
  931SOL    MW4 3756   3.611   3.210   1.504
  932SOL     OW 3757   3.609   3.489   1.578
  932SOL    HW2 3758   3.685   3.532   1.538
  932SOL    HW3 3759   3.622   3.396   1.561
  932SOL    MW4 3760   3.621   3.482   1.571
  933SOL     OW 3761   3.820   3.616   1.469
  933SOL    HW2 3762   3.882   3.558   1.512
  933SOL    HW3 3763   3.835   3.702   1.508
  933SOL    MW4 3764   3.830   3.620   1.480
  934SOL     OW 3765   3.803   3.863   1.592
  934SOL    HW2 3766   3.875   3.923   1.571
  934SOL    HW3 3767   3.725   3.907   1.558
  934SOL    MW4 3768   3.802   3.877   1.585
  935SOL     OW 3769   3.570   3.969   1.467
  935SOL    HW2 3770   3.562   4.057   1.504
  935SOL    HW3 3771   3.498   3.920   1.507
  935SOL    MW4 3772   3.559   3.974   1.477
  936SOL     OW 3773   3.555   4.236   1.584
  936SOL    HW2 3774   3.548   4.233   1.679
  936SOL    HW3 3775   3.481   4.291   1.556
  936SOL    MW4 3776   3.544   4.243   1.593
  937SOL     OW 3777   3.791   4.380   1.482
  937SOL    HW2 3778   3.712   4.331   1.504
  937SOL    HW3 3779   3.783   4.463   1.530
  937SOL    MW4 3780   3.780   4.385   1.491
  938SOL     OW 3781   4.284   0.011   1.574
  938SOL    HW2 3782   4.262   0.007   1.667
  938SOL    HW3 3783   4.279  -0.079   1.543
  938SOL    MW4 3784   4.281  -0.001   1.582
  939SOL     OW 3785   4.033   0.085   1.494
  939SOL    HW2 3786   4.022   0.175   1.525
  939SOL    HW3 3787   4.124   0.064   1.514
  939SOL    MW4 3788   4.044   0.094   1.501
  940SOL     OW 3789   4.013   0.346   1.603
  940SOL    HW2 3790   4.033   0.362   1.695
  940SOL    HW3 3791   3.937   0.401   1.585
  940SOL    MW4 3792   4.005   0.356   1.612
  941SOL     OW 3793   4.207   0.503   1.474
  941SOL    HW2 3794   4.145   0.438   1.507
  941SOL    HW3 3795   4.292   0.472   1.504
  941SOL    MW4 3796   4.210   0.490   1.483
  942SOL     OW 3797   4.236   0.748   1.580
  942SOL    HW2 3798   4.232   0.658   1.547
  942SOL    HW3 3799   4.319   0.782   1.546
  942SOL    MW4 3800   4.246   0.740   1.571
  943SOL     OW 3801   4.039   0.899   1.482
  943SOL    HW2 3802   4.098   0.845   1.534
  943SOL    HW3 3803   3.952   0.880   1.516
  943SOL    MW4 3804   4.035   0.890   1.493
  944SOL     OW 3805   4.055   1.173   1.562
  944SOL    HW2 3806   4.051   1.171   1.658
  944SOL    HW3 3807   4.064   1.081   1.537
  944SOL    MW4 3808   4.056   1.160   1.572
  945SOL     OW 3809   4.278   1.295   1.488
  945SOL    HW2 3810   4.192   1.254   1.499
  945SOL    HW3 3811   4.336   1.246   1.546
  945SOL    MW4 3812   4.274   1.283   1.497
  946SOL     OW 3813   4.260   1.518   1.624
  946SOL    HW2 3814   4.269   1.436   1.575
  946SOL    HW3 3815   4.343   1.563   1.610
  946SOL    MW4 3816   4.272   1.513   1.615
  947SOL     OW 3817   4.062   1.663   1.492
  947SOL    HW2 3818   4.129   1.626   1.550
  947SOL    HW3 3819   3.983   1.613   1.512
  947SOL    MW4 3820   4.060   1.652   1.502
  948SOL     OW 3821   4.095   1.913   1.581
  948SOL    HW2 3822   4.072   1.831   1.537
  948SOL    HW3 3823   4.021   1.971   1.563
  948SOL    MW4 3824   4.082   1.910   1.573
  949SOL     OW 3825   4.323   2.093   1.503
  949SOL    HW2 3826   4.256   2.033   1.537
  949SOL    HW3 3827   4.316   2.084   1.408
  949SOL    MW4 3828   4.313   2.084   1.495
  950SOL     OW 3829   4.312   2.353   1.596
  950SOL    HW2 3830   4.305   2.359   1.691
  950SOL    HW3 3831   4.309   2.259   1.577
  950SOL    MW4 3832   4.311   2.341   1.606
  951SOL     OW 3833   4.083   2.452   1.467
  951SOL    HW2 3834   4.078   2.537   1.510
  951SOL    HW3 3835   4.152   2.405   1.513
  951SOL    MW4 3836   4.091   2.457   1.478
  952SOL     OW 3837   4.072   2.702   1.563
  952SOL    HW2 3838   4.061   2.712   1.657
  952SOL    HW3 3839   4.158   2.741   1.545
  952SOL    MW4 3840   4.082   2.708   1.573
  953SOL     OW 3841   4.308   2.860   1.495
  953SOL    HW2 3842   4.292   2.950   1.524
  953SOL    HW3 3843   4.308   2.865   1.399
  953SOL    MW4 3844   4.306   2.873   1.486
  954SOL     OW 3845   4.301   3.112   1.590
  954SOL    HW2 3846   4.315   3.108   1.684
  954SOL    HW3 3847   4.379   3.157   1.556
  954SOL    MW4 3848   4.313   3.117   1.598
  955SOL     OW 3849   4.046   3.199   1.485
  955SOL    HW2 3850   4.031   3.280   1.533
  955SOL    HW3 3851   4.132   3.169   1.515
  955SOL    MW4 3852   4.055   3.206   1.496
  956SOL     OW 3853   4.002   3.461   1.609
  956SOL    HW2 3854   3.996   3.475   1.703
  956SOL    HW3 3855   4.090   3.493   1.586
  956SOL    MW4 3856   4.013   3.467   1.618
  957SOL     OW 3857   4.250   3.576   1.500
  957SOL    HW2 3858   4.254   3.667   1.529
  957SOL    HW3 3859   4.252   3.581   1.405
  957SOL    MW4 3860   4.251   3.589   1.492
  958SOL     OW 3861   4.266   3.860   1.557
  958SOL    HW2 3862   4.204   3.923   1.523
  958SOL    HW3 3863   4.351   3.887   1.522
  958SOL    MW4 3864   4.269   3.872   1.548
  959SOL     OW 3865   4.039   4.027   1.519
  959SOL    HW2 3866   4.050   4.120   1.541
  959SOL    HW3 3867   4.048   4.024   1.423
  959SOL    MW4 3868   4.042   4.039   1.509
  960SOL     OW 3869   4.031   4.289   1.604
  960SOL    HW2 3870   4.023   4.278   1.699
  960SOL    HW3 3871   3.945   4.323   1.577
  960SOL    MW4 3872   4.018   4.292   1.613
  961SOL     OW 3873   4.239   4.419   1.499
  961SOL    HW2 3874   4.161   4.373   1.530
  961SOL    HW3 3875   4.230   4.422   1.404
  961SOL    MW4 3876   4.228   4.413   1.491
  962SOL     OW 3877   0.176   4.638   1.867
  962SOL    HW2 3878   0.253   4.691   1.887
  962SOL    HW3 3879   0.167   4.645   1.772
  962SOL    MW4 3880   0.185   4.646   1.857
  963SOL     OW 3881   4.461   0.157   1.960
  963SOL    HW2 3882   4.491   0.238   1.919
  963SOL    HW3 3883   4.530   0.093   1.939
  963SOL    MW4 3884   4.474   0.159   1.952
  964SOL     OW 3885   0.008   0.407   1.836
  964SOL    HW2 3886  -0.071   0.440   1.879
  964SOL    HW3 3887   0.080   0.444   1.886
  964SOL    MW4 3888   0.007   0.416   1.848
  965SOL     OW 3889   0.203   0.504   1.984
  965SOL    HW2 3890   0.280   0.450   1.971
  965SOL    HW3 3891   0.222   0.585   1.938
  965SOL    MW4 3892   0.215   0.507   1.976
  966SOL     OW 3893   0.225   0.766   1.882
  966SOL    HW2 3894   0.304   0.806   1.917
  966SOL    HW3 3895   0.231   0.779   1.787
  966SOL    MW4 3896   0.236   0.773   1.874
  967SOL     OW 3897   0.002   0.892   1.959
  967SOL    HW2 3898  -0.076   0.844   1.934
  967SOL    HW3 3899   0.075   0.836   1.933
  967SOL    MW4 3900   0.001   0.879   1.953
  968SOL     OW 3901   0.068   1.131   1.860
  968SOL    HW2 3902  -0.004   1.173   1.907
  968SOL    HW3 3903   0.061   1.038   1.883
  968SOL    MW4 3904   0.058   1.124   1.869
  969SOL     OW 3905   0.249   1.300   1.987
  969SOL    HW2 3906   0.225   1.379   1.939
  969SOL    HW3 3907   0.186   1.234   1.958
  969SOL    MW4 3908   0.237   1.301   1.977
  970SOL     OW 3909   0.196   1.554   1.869
  970SOL    HW2 3910   0.278   1.595   1.897
  970SOL    HW3 3911   0.128   1.604   1.914
  970SOL    MW4 3912   0.198   1.566   1.879
  971SOL     OW 3913   4.487   1.674   2.001
  971SOL    HW2 3914   4.480   1.664   2.096
  971SOL    HW3 3915   4.412   1.625   1.967
  971SOL    MW4 3916   4.476   1.666   2.009
  972SOL     OW 3917   0.017   1.908   1.854
  972SOL    HW2 3918  -0.064   1.950   1.886
  972SOL    HW3 3919   0.028   1.832   1.911
  972SOL    MW4 3920   0.008   1.903   1.866
  973SOL     OW 3921   0.247   2.055   1.923
  973SOL    HW2 3922   0.234   2.140   1.883
  973SOL    HW3 3923   0.170   2.004   1.897
  973SOL    MW4 3924   0.235   2.059   1.915
  974SOL     OW 3925   0.228   2.321   1.820
  974SOL    HW2 3926   0.302   2.370   1.856
  974SOL    HW3 3927   0.150   2.365   1.855
  974SOL    MW4 3928   0.227   2.334   1.829
  975SOL     OW 3929   0.020   2.440   1.949
  975SOL    HW2 3930   0.001   2.437   2.043
  975SOL    HW3 3931  -0.010   2.527   1.921
  975SOL    MW4 3932   0.013   2.451   1.958
  976SOL     OW 3933   4.449   2.711   1.873
  976SOL    HW2 3934   4.366   2.757   1.862
  976SOL    HW3 3935   4.491   2.715   1.787
  976SOL    MW4 3936   4.444   2.717   1.860
  977SOL     OW 3937   0.212   2.828   1.961
  977SOL    HW2 3938   0.200   2.923   1.953
  977SOL    HW3 3939   0.123   2.793   1.966
  977SOL    MW4 3940   0.199   2.836   1.961
  978SOL     OW 3941   0.208   3.107   1.893
  978SOL    HW2 3942   0.284   3.156   1.923
  978SOL    HW3 3943   0.220   3.100   1.798
  978SOL    MW4 3944   0.220   3.112   1.884
  979SOL     OW 3945   0.012   3.232   2.015
  979SOL    HW2 3946  -0.071   3.200   1.978
  979SOL    HW3 3947   0.080   3.198   1.957
  979SOL    MW4 3948   0.010   3.223   2.003
  980SOL     OW 3949   0.024   3.474   1.868
  980SOL    HW2 3950   0.091   3.517   1.921
  980SOL    HW3 3951   0.008   3.391   1.914
  980SOL    MW4 3952   0.031   3.468   1.881
  981SOL     OW 3953   0.225   3.633   2.009
  981SOL    HW2 3954   0.235   3.619   2.103
  981SOL    HW3 3955   0.303   3.593   1.970
  981SOL    MW4 3956   0.237   3.626   2.016
  982SOL     OW 3957   0.221   3.874   1.856
  982SOL    HW2 3958   0.257   3.940   1.916
  982SOL    HW3 3959   0.225   3.792   1.906
  982SOL    MW4 3960   0.226   3.872   1.871
  983SOL     OW 3961   4.470   3.969   1.966
  983SOL    HW2 3962   4.469   4.061   1.939
  983SOL    HW3 3963   4.560   3.940   1.950
  983SOL    MW4 3964   4.482   3.977   1.961
  984SOL     OW 3965   4.448   4.245   1.879
  984SOL    HW2 3966   4.399   4.315   1.920
  984SOL    HW3 3967   4.540   4.275   1.881
  984SOL    MW4 3968   4.454   4.258   1.885
  985SOL     OW 3969   0.202   4.367   1.937
  985SOL    HW2 3970   0.190   4.378   2.031
  985SOL    HW3 3971   0.194   4.455   1.901
  985SOL    MW4 3972   0.199   4.380   1.945
  986SOL     OW 3973   0.653   4.652   1.888
  986SOL    HW2 3974   0.645   4.565   1.927
  986SOL    HW3 3975   0.655   4.635   1.794
  986SOL    MW4 3976   0.652   4.638   1.881
  987SOL     OW 3977   0.396   0.111   1.972
  987SOL    HW2 3978   0.408   0.205   1.963
  987SOL    HW3 3979   0.479   0.073   1.941
  987SOL    MW4 3980   0.409   0.118   1.967
  988SOL     OW 3981   0.426   0.375   1.874
  988SOL    HW2 3982   0.506   0.425   1.891
  988SOL    HW3 3983   0.414   0.379   1.779
  988SOL    MW4 3984   0.435   0.382   1.864
  989SOL     OW 3985   0.673   0.511   1.940
  989SOL    HW2 3986   0.686   0.526   2.034
  989SOL    HW3 3987   0.750   0.462   1.913
  989SOL    MW4 3988   0.685   0.507   1.949
  990SOL     OW 3989   0.648   0.775   1.850
  990SOL    HW2 3990   0.731   0.812   1.881
  990SOL    HW3 3991   0.660   0.680   1.857
  990SOL    MW4 3992   0.661   0.767   1.855
  991SOL     OW 3993   0.433   0.923   1.974
  991SOL    HW2 3994   0.425   1.008   1.931
  991SOL    HW3 3995   0.508   0.881   1.931
  991SOL    MW4 3996   0.442   0.929   1.963
  992SOL     OW 3997   0.453   1.166   1.856
  992SOL    HW2 3998   0.387   1.227   1.887
  992SOL    HW3 3999   0.439   1.159   1.762
  992SOL    MW4 4000   0.443   1.173   1.848
  993SOL     OW 4001   0.678   1.329   1.927
  993SOL    HW2 4002   0.660   1.337   2.021
  993SOL    HW3 4003   0.601   1.284   1.892
  993SOL    MW4 4004   0.665   1.324   1.935
  994SOL     OW 4005   0.692   1.578   1.832
  994SOL    HW2 4006   0.702   1.484   1.846
  994SOL    HW3 4007   0.665   1.585   1.741
  994SOL    MW4 4008   0.689   1.566   1.822
  995SOL     OW 4009   0.445   1.649   1.920
  995SOL    HW2 4010   0.451   1.651   2.016
  995SOL    HW3 4011   0.533   1.627   1.891
  995SOL    MW4 4012   0.457   1.646   1.929
  996SOL     OW 4013   0.479   1.915   1.860
  996SOL    HW2 4014   0.464   1.822   1.875
  996SOL    HW3 4015   0.400   1.957   1.896
  996SOL    MW4 4016   0.466   1.909   1.867
  997SOL     OW 4017   0.691   2.082   1.948
  997SOL    HW2 4018   0.693   2.079   2.043
  997SOL    HW3 4019   0.624   2.018   1.923
  997SOL    MW4 4020   0.683   2.073   1.957
  998SOL     OW 4021   0.693   2.344   1.868
  998SOL    HW2 4022   0.692   2.255   1.904
  998SOL    HW3 4023   0.685   2.332   1.773
  998SOL    MW4 4024   0.692   2.331   1.860
  999SOL     OW 4025   0.448   2.449   1.931
  999SOL    HW2 4026   0.459   2.462   2.025
  999SOL    HW3 4027   0.529   2.407   1.902
  999SOL    MW4 4028   0.460   2.445   1.939
 1000SOL     OW 4029   0.439   2.732   1.860
 1000SOL    HW2 4030   0.443   2.638   1.881
 1000SOL    HW3 4031   0.355   2.760   1.896
 1000SOL    MW4 4032   0.428   2.723   1.867
 1001SOL     OW 4033   0.679   2.857   1.958
 1001SOL    HW2 4034   0.665   2.855   2.053
 1001SOL    HW3 4035   0.596   2.828   1.921
 1001SOL    MW4 4036   0.666   2.853   1.966
 1002SOL     OW 4037   0.673   3.121   1.880
 1002SOL    HW2 4038   0.676   3.042   1.934
 1002SOL    HW3 4039   0.701   3.092   1.793
 1002SOL    MW4 4040   0.677   3.107   1.876
 1003SOL     OW 4041   0.439   3.221   1.997
 1003SOL    HW2 4042   0.436   3.311   1.963
 1003SOL    HW3 4043   0.524   3.188   1.969
 1003SOL    MW4 4044   0.450   3.228   1.989
 1004SOL     OW 4045   0.432   3.479   1.909
 1004SOL    HW2 4046   0.504   3.534   1.941
 1004SOL    HW3 4047   0.440   3.480   1.814
 1004SOL    MW4 4048   0.442   3.487   1.901
 1005SOL     OW 4049   0.637   3.639   2.010
 1005SOL    HW2 4050   0.726   3.612   1.988
 1005SOL    HW3 4051   0.635   3.733   1.992
 1005SOL    MW4 4052   0.648   3.648   2.005
 1006SOL     OW 4053   0.642   3.902   1.899
 1006SOL    HW2 4054   0.728   3.936   1.923
 1006SOL    HW3 4055   0.647   3.889   1.805
 1006SOL    MW4 4056   0.654   3.905   1.890
 1007SOL     OW 4057   0.415   4.045   1.967
 1007SOL    HW2 4058   0.432   4.133   1.933
 1007SOL    HW3 4059   0.489   3.993   1.935
 1007SOL    MW4 4060   0.427   4.050   1.958
 1008SOL     OW 4061   0.449   4.298   1.852
 1008SOL    HW2 4062   0.360   4.331   1.852
 1008SOL    HW3 4063   0.473   4.294   1.759
 1008SOL    MW4 4064   0.441   4.302   1.839
 1009SOL     OW 4065   0.644   4.383   2.004
 1009SOL    HW2 4066   0.711   4.331   1.960
 1009SOL    HW3 4067   0.564   4.366   1.954
 1009SOL    MW4 4068   0.642   4.374   1.991
 1010SOL     OW 4069   1.093   0.001   1.948
 1010SOL    HW2 4070   1.182   0.033   1.964
 1010SOL    HW3 4071   1.095  -0.090   1.976
 1010SOL    MW4 4072   1.105  -0.007   1.954
 1011SOL     OW 4073   0.854   0.138   1.976
 1011SOL    HW2 4074   0.934   0.085   1.984
 1011SOL    HW3 4075   0.788   0.077   1.941
 1011SOL    MW4 4076   0.856   0.123   1.972
 1012SOL     OW 4077   0.914   0.396   1.856
 1012SOL    HW2 4078   0.989   0.418   1.912
 1012SOL    HW3 4079   0.882   0.313   1.891
 1012SOL    MW4 4080   0.920   0.388   1.868
 1013SOL     OW 4081   1.123   0.512   2.021
 1013SOL    HW2 4082   1.208   0.473   2.001
 1013SOL    HW3 4083   1.127   0.598   1.978
 1013SOL    MW4 4084   1.135   0.519   2.013
 1014SOL     OW 4085   1.138   0.762   1.908
 1014SOL    HW2 4086   1.213   0.819   1.925
 1014SOL    HW3 4087   1.063   0.820   1.908
 1014SOL    MW4 4088   1.138   0.777   1.911
 1015SOL     OW 4089   0.880   0.905   1.909
 1015SOL    HW2 4090   0.904   0.915   2.001
 1015SOL    HW3 4091   0.869   0.995   1.878
 1015SOL    MW4 4092   0.881   0.918   1.917
 1016SOL     OW 4093   0.884   1.176   1.820
 1016SOL    HW2 4094   0.816   1.225   1.867
 1016SOL    HW3 4095   0.870   1.197   1.728
 1016SOL    MW4 4096   0.873   1.185   1.814
 1017SOL     OW 4097   1.115   1.296   1.943
 1017SOL    HW2 4098   1.119   1.386   1.913
 1017SOL    HW3 4099   1.042   1.258   1.895
 1017SOL    MW4 4100   1.106   1.303   1.933
 1018SOL     OW 4101   1.094   1.567   1.842
 1018SOL    HW2 4102   1.032   1.618   1.896
 1018SOL    HW3 4103   1.063   1.580   1.752
 1018SOL    MW4 4104   1.082   1.576   1.837
 1019SOL     OW 4105   0.903   1.676   1.983
 1019SOL    HW2 4106   0.904   1.766   1.952
 1019SOL    HW3 4107   0.828   1.636   1.937
 1019SOL    MW4 4108   0.893   1.682   1.973
 1020SOL     OW 4109   0.904   1.931   1.885
 1020SOL    HW2 4110   0.828   1.988   1.898
 1020SOL    HW3 4111   0.916   1.928   1.790
 1020SOL    MW4 4112   0.895   1.938   1.874
 1021SOL     OW 4113   1.145   2.012   2.005
 1021SOL    HW2 4114   1.139   2.105   1.983
 1021SOL    HW3 4115   1.062   1.975   1.976
 1021SOL    MW4 4116   1.134   2.020   1.999
 1022SOL     OW 4117   1.153   2.273   1.918
 1022SOL    HW2 4118   1.229   2.326   1.945
 1022SOL    HW3 4119   1.157   2.273   1.823
 1022SOL    MW4 4120   1.164   2.280   1.909
 1023SOL     OW 4121   0.925   2.432   1.956
 1023SOL    HW2 4122   0.999   2.374   1.937
 1023SOL    HW3 4123   0.848   2.381   1.930
 1023SOL    MW4 4124   0.925   2.417   1.950
 1024SOL     OW 4125   0.915   2.706   1.852
 1024SOL    HW2 4126   0.917   2.614   1.877
 1024SOL    HW3 4127   0.838   2.742   1.896
 1024SOL    MW4 4128   0.905   2.699   1.861
 1025SOL     OW 4129   1.107   2.877   1.978
 1025SOL    HW2 4130   1.105   2.855   2.071
 1025SOL    HW3 4131   1.042   2.819   1.939
 1025SOL    MW4 4132   1.098   2.866   1.985
 1026SOL     OW 4133   1.138   3.129   1.867
 1026SOL    HW2 4134   1.051   3.163   1.887
 1026SOL    HW3 4135   1.145   3.048   1.917
 1026SOL    MW4 4136   1.127   3.123   1.876
 1027SOL     OW 4137   0.912   3.257   1.965
 1027SOL    HW2 4138   0.910   3.250   2.060
 1027SOL    HW3 4139   0.836   3.207   1.935
 1027SOL    MW4 4140   0.902   3.250   1.974
 1028SOL     OW 4141   0.876   3.515   1.913
 1028SOL    HW2 4142   0.889   3.422   1.932
 1028SOL    HW3 4143   0.893   3.522   1.819
 1028SOL    MW4 4144   0.880   3.504   1.903
 1029SOL     OW 4145   1.125   3.611   1.977
 1029SOL    HW2 4146   1.120   3.625   2.072
 1029SOL    HW3 4147   1.039   3.577   1.953
 1029SOL    MW4 4148   1.113   3.609   1.987
 1030SOL     OW 4149   1.117   3.859   1.879
 1030SOL    HW2 4150   1.118   3.773   1.921
 1030SOL    HW3 4151   1.148   3.843   1.790
 1030SOL    MW4 4152   1.121   3.845   1.873
 1031SOL     OW 4153   0.885   3.995   1.976
 1031SOL    HW2 4154   0.879   4.011   2.070
 1031SOL    HW3 4155   0.970   3.953   1.964
 1031SOL    MW4 4156   0.895   3.992   1.987
 1032SOL     OW 4157   0.860   4.253   1.879
 1032SOL    HW2 4158   0.937   4.292   1.919
 1032SOL    HW3 4159   0.866   4.160   1.902
 1032SOL    MW4 4160   0.871   4.246   1.887
 1033SOL     OW 4161   1.085   4.377   1.982
 1033SOL    HW2 4162   1.084   4.399   2.075
 1033SOL    HW3 4163   1.170   4.335   1.969
 1033SOL    MW4 4164   1.096   4.374   1.993
 1034SOL     OW 4165   1.550   0.016   1.881
 1034SOL    HW2 4166   1.628   0.054   1.920
 1034SOL    HW3 4167   1.554  -0.077   1.904
 1034SOL    MW4 4168   1.561   0.009   1.889
 1035SOL     OW 4169   1.327   0.119   2.021
 1035SOL    HW2 4170   1.331   0.107   2.116
 1035SOL    HW3 4171   1.405   0.074   1.988
 1035SOL    MW4 4172   1.338   0.112   2.029
 1036SOL     OW 4173   1.343   0.374   1.937
 1036SOL    HW2 4174   1.339   0.281   1.961
 1036SOL    HW3 4175   1.348   0.374   1.842
 1036SOL    MW4 4176   1.343   0.362   1.928
 1037SOL     OW 4177   1.579   0.518   2.016
 1037SOL    HW2 4178   1.660   0.480   1.981
 1037SOL    HW3 4179   1.509   0.463   1.981
 1037SOL    MW4 4180   1.581   0.505   2.007
 1038SOL     OW 4181   1.574   0.762   1.889
 1038SOL    HW2 4182   1.659   0.803   1.905
 1038SOL    HW3 4183   1.574   0.684   1.944
 1038SOL    MW4 4184   1.585   0.757   1.898
 1039SOL     OW 4185   1.360   0.918   1.954
 1039SOL    HW2 4186   1.348   0.940   2.047
 1039SOL    HW3 4187   1.436   0.860   1.953
 1039SOL    MW4 4188   1.369   0.913   1.966
 1040SOL     OW 4189   1.356   1.185   1.849
 1040SOL    HW2 4190   1.341   1.092   1.864
 1040SOL    HW3 4191   1.272   1.227   1.871
 1040SOL    MW4 4192   1.343   1.178   1.854
 1041SOL     OW 4193   1.601   1.289   1.940
 1041SOL    HW2 4194   1.592   1.377   1.901
 1041SOL    HW3 4195   1.517   1.247   1.922
 1041SOL    MW4 4196   1.589   1.295   1.933
 1042SOL     OW 4197   1.610   1.541   1.828
 1042SOL    HW2 4198   1.679   1.586   1.876
 1042SOL    HW3 4199   1.528   1.577   1.862
 1042SOL    MW4 4200   1.608   1.551   1.839
 1043SOL     OW 4201   1.373   1.625   1.924
 1043SOL    HW2 4202   1.353   1.615   2.017
 1043SOL    HW3 4203   1.289   1.612   1.880
 1043SOL    MW4 4204   1.359   1.622   1.930
 1044SOL     OW 4205   1.381   1.902   1.884
 1044SOL    HW2 4206   1.401   1.816   1.919
 1044SOL    HW3 4207   1.303   1.930   1.931
 1044SOL    MW4 4208   1.374   1.895   1.895
 1045SOL     OW 4209   1.609   2.083   1.969
 1045SOL    HW2 4210   1.585   2.171   1.939
 1045SOL    HW3 4211   1.538   2.027   1.937
 1045SOL    MW4 4212   1.596   2.088   1.960
 1046SOL     OW 4213   1.577   2.357   1.890
 1046SOL    HW2 4214   1.663   2.378   1.929
 1046SOL    HW3 4215   1.593   2.355   1.796
 1046SOL    MW4 4216   1.591   2.359   1.883
 1047SOL     OW 4217   1.351   2.464   1.986
 1047SOL    HW2 4218   1.354   2.548   1.941
 1047SOL    HW3 4219   1.431   2.419   1.959
 1047SOL    MW4 4220   1.362   2.469   1.976
 1048SOL     OW 4221   1.335   2.740   1.884
 1048SOL    HW2 4222   1.260   2.799   1.896
 1048SOL    HW3 4223   1.337   2.723   1.790
 1048SOL    MW4 4224   1.325   2.745   1.873
 1049SOL     OW 4225   1.563   2.852   1.978
 1049SOL    HW2 4226   1.641   2.797   1.970
 1049SOL    HW3 4227   1.491   2.796   1.948
 1049SOL    MW4 4228   1.564   2.837   1.973
 1050SOL     OW 4229   1.602   3.112   1.891
 1050SOL    HW2 4230   1.584   3.022   1.917
 1050SOL    HW3 4231   1.613   3.108   1.796
 1050SOL    MW4 4232   1.602   3.099   1.882
 1051SOL     OW 4233   1.365   3.244   1.982
 1051SOL    HW2 4234   1.434   3.193   1.938
 1051SOL    HW3 4235   1.283   3.201   1.955
 1051SOL    MW4 4236   1.363   3.231   1.973
 1052SOL     OW 4237   1.377   3.513   1.897
 1052SOL    HW2 4238   1.363   3.422   1.922
 1052SOL    HW3 4239   1.302   3.560   1.934
 1052SOL    MW4 4240   1.365   3.507   1.905
 1053SOL     OW 4241   1.605   3.635   1.975
 1053SOL    HW2 4242   1.596   3.645   2.069
 1053SOL    HW3 4243   1.526   3.587   1.949
 1053SOL    MW4 4244   1.593   3.630   1.984
 1054SOL     OW 4245   1.550   3.896   1.924
 1054SOL    HW2 4246   1.625   3.936   1.968
 1054SOL    HW3 4247   1.566   3.802   1.931
 1054SOL    MW4 4248   1.562   3.889   1.931
 1055SOL     OW 4249   1.332   4.031   2.001
 1055SOL    HW2 4250   1.408   3.976   1.984
 1055SOL    HW3 4251   1.258   3.982   1.963
 1055SOL    MW4 4252   1.332   4.017   1.994
 1056SOL     OW 4253   1.334   4.300   1.910
 1056SOL    HW2 4254   1.332   4.208   1.937
 1056SOL    HW3 4255   1.333   4.297   1.814
 1056SOL    MW4 4256   1.334   4.288   1.901
 1057SOL     OW 4257   1.577   4.433   1.985
 1057SOL    HW2 4258   1.575   4.431   2.081
 1057SOL    HW3 4259   1.488   4.411   1.958
 1057SOL    MW4 4260   1.565   4.430   1.994
 1058SOL     OW 4261   1.984   4.647   1.869
 1058SOL    HW2 4262   2.057   4.709   1.869
 1058SOL    HW3 4263   2.012   4.577   1.927
 1058SOL    MW4 4264   1.998   4.646   1.876
 1059SOL     OW 4265   1.774   0.130   1.990
 1059SOL    HW2 4266   1.790   0.112   2.083
 1059SOL    HW3 4267   1.837   0.075   1.944
 1059SOL    MW4 4268   1.784   0.120   1.996
 1060SOL     OW 4269   1.795   0.390   1.910
 1060SOL    HW2 4270   1.798   0.306   1.956
 1060SOL    HW3 4271   1.792   0.367   1.818
 1060SOL    MW4 4272   1.795   0.376   1.904
 1061SOL     OW 4273   2.024   0.514   1.976
 1061SOL    HW2 4274   2.019   0.604   1.944
 1061SOL    HW3 4275   1.943   0.473   1.946
 1061SOL    MW4 4276   2.013   0.521   1.968
 1062SOL     OW 4277   2.055   0.764   1.815
 1062SOL    HW2 4278   2.129   0.812   1.853
 1062SOL    HW3 4279   2.073   0.763   1.721
 1062SOL    MW4 4280   2.067   0.770   1.808
 1063SOL     OW 4281   1.827   0.884   1.963
 1063SOL    HW2 4282   1.833   0.977   1.943
 1063SOL    HW3 4283   1.898   0.843   1.913
 1063SOL    MW4 4284   1.837   0.891   1.954
 1064SOL     OW 4285   1.826   1.134   1.874
 1064SOL    HW2 4286   1.751   1.186   1.904
 1064SOL    HW3 4287   1.817   1.131   1.779
 1064SOL    MW4 4288   1.815   1.140   1.866
 1065SOL     OW 4289   2.016   1.315   1.938
 1065SOL    HW2 4290   2.103   1.281   1.916
 1065SOL    HW3 4291   1.956   1.243   1.919
 1065SOL    MW4 4292   2.020   1.301   1.933
 1066SOL     OW 4293   2.044   1.588   1.866
 1066SOL    HW2 4294   2.045   1.494   1.887
 1066SOL    HW3 4295   2.041   1.591   1.770
 1066SOL    MW4 4296   2.043   1.576   1.856
 1067SOL     OW 4297   1.801   1.734   1.934
 1067SOL    HW2 4298   1.820   1.824   1.906
 1067SOL    HW3 4299   1.885   1.688   1.923
 1067SOL    MW4 4300   1.815   1.740   1.929
 1068SOL     OW 4301   1.838   2.004   1.855
 1068SOL    HW2 4302   1.750   2.024   1.888
 1068SOL    HW3 4303   1.828   2.000   1.760
 1068SOL    MW4 4304   1.825   2.006   1.846
 1069SOL     OW 4305   2.057   2.089   2.004
 1069SOL    HW2 4306   2.128   2.040   1.963
 1069SOL    HW3 4307   1.978   2.062   1.956
 1069SOL    MW4 4308   2.056   2.079   1.992
 1070SOL     OW 4309   2.077   2.345   1.891
 1070SOL    HW2 4310   2.150   2.385   1.938
 1070SOL    HW3 4311   2.073   2.255   1.925
 1070SOL    MW4 4312   2.086   2.338   1.901
 1071SOL     OW 4313   1.814   2.453   1.978
 1071SOL    HW2 4314   1.824   2.444   2.072
 1071SOL    HW3 4315   1.896   2.421   1.941
 1071SOL    MW4 4316   1.826   2.447   1.985
 1072SOL     OW 4317   1.783   2.714   1.897
 1072SOL    HW2 4318   1.794   2.623   1.924
 1072SOL    HW3 4319   1.789   2.712   1.801
 1072SOL    MW4 4320   1.785   2.702   1.888
 1073SOL     OW 4321   2.043   2.848   2.000
 1073SOL    HW2 4322   2.045   2.861   2.095
 1073SOL    HW3 4323   1.957   2.808   1.984
 1073SOL    MW4 4324   2.032   2.845   2.011
 1074SOL     OW 4325   2.013   3.103   1.886
 1074SOL    HW2 4326   1.936   3.150   1.918
 1074SOL    HW3 4327   2.015   3.022   1.936
 1074SOL    MW4 4328   2.003   3.099   1.896
 1075SOL     OW 4329   1.820   3.247   2.005
 1075SOL    HW2 4330   1.808   3.241   2.100
 1075SOL    HW3 4331   1.746   3.199   1.968
 1075SOL    MW4 4332   1.809   3.240   2.012
 1076SOL     OW 4333   1.815   3.478   1.853
 1076SOL    HW2 4334   1.814   3.398   1.906
 1076SOL    HW3 4335   1.750   3.535   1.895
 1076SOL    MW4 4336   1.806   3.475   1.865
 1077SOL     OW 4337   2.030   3.617   1.987
 1077SOL    HW2 4338   2.030   3.702   1.943
 1077SOL    HW3 4339   1.956   3.570   1.947
 1077SOL    MW4 4340   2.020   3.622   1.976
 1078SOL     OW 4341   2.028   3.868   1.880
 1078SOL    HW2 4342   2.098   3.921   1.918
 1078SOL    HW3 4343   2.036   3.883   1.785
 1078SOL    MW4 4344   2.039   3.877   1.872
 1079SOL     OW 4345   1.799   4.029   2.008
 1079SOL    HW2 4346   1.808   4.123   1.990
 1079SOL    HW3 4347   1.868   3.988   1.957
 1079SOL    MW4 4348   1.809   4.036   1.999
 1080SOL     OW 4349   1.817   4.312   1.922
 1080SOL    HW2 4350   1.737   4.359   1.946
 1080SOL    HW3 4351   1.817   4.313   1.827
 1080SOL    MW4 4352   1.806   4.318   1.913
 1081SOL     OW 4353   2.043   4.423   2.031
 1081SOL    HW2 4354   2.102   4.370   1.977
 1081SOL    HW3 4355   1.955   4.401   1.999
 1081SOL    MW4 4356   2.039   4.413   2.020
 1082SOL     OW 4357   2.436   4.659   1.843
 1082SOL    HW2 4358   2.510   4.710   1.876
 1082SOL    HW3 4359   2.446   4.574   1.886
 1082SOL    MW4 4360   2.447   4.654   1.853
 1083SOL     OW 4361   2.208   0.151   1.923
 1083SOL    HW2 4362   2.197   0.134   2.016
 1083SOL    HW3 4363   2.291   0.111   1.900
 1083SOL    MW4 4364   2.217   0.144   1.932
 1084SOL     OW 4365   2.252   0.425   1.853
 1084SOL    HW2 4366   2.253   0.337   1.889
 1084SOL    HW3 4367   2.173   0.465   1.889
 1084SOL    MW4 4368   2.242   0.419   1.862
 1085SOL     OW 4369   2.471   0.547   1.980
 1085SOL    HW2 4370   2.540   0.492   1.942
 1085SOL    HW3 4371   2.390   0.517   1.939
 1085SOL    MW4 4372   2.469   0.536   1.969
 1086SOL     OW 4373   2.491   0.793   1.857
 1086SOL    HW2 4374   2.483   0.709   1.901
 1086SOL    HW3 4375   2.492   0.772   1.764
 1086SOL    MW4 4376   2.490   0.779   1.850
 1087SOL     OW 4377   2.261   0.925   1.924
 1087SOL    HW2 4378   2.255   0.920   2.019
 1087SOL    HW3 4379   2.349   0.891   1.904
 1087SOL    MW4 4380   2.272   0.920   1.934
 1088SOL     OW 4381   2.255   1.181   1.857
 1088SOL    HW2 4382   2.336   1.211   1.898
 1088SOL    HW3 4383   2.256   1.086   1.868
 1088SOL    MW4 4384   2.265   1.172   1.864
 1089SOL     OW 4385   2.529   1.295   1.954
 1089SOL    HW2 4386   2.512   1.302   2.048
 1089SOL    HW3 4387   2.536   1.386   1.924
 1089SOL    MW4 4388   2.528   1.308   1.963
 1090SOL     OW 4389   2.488   1.574   1.860
 1090SOL    HW2 4390   2.411   1.622   1.892
 1090SOL    HW3 4391   2.480   1.578   1.765
 1090SOL    MW4 4392   2.477   1.581   1.852
 1091SOL     OW 4393   2.275   1.689   1.975
 1091SOL    HW2 4394   2.265   1.692   2.070
 1091SOL    HW3 4395   2.195   1.647   1.943
 1091SOL    MW4 4396   2.263   1.684   1.983
 1092SOL     OW 4397   2.283   1.953   1.876
 1092SOL    HW2 4398   2.358   1.989   1.925
 1092SOL    HW3 4399   2.277   1.862   1.906
 1092SOL    MW4 4400   2.292   1.946   1.887
 1093SOL     OW 4401   2.510   2.042   2.010
 1093SOL    HW2 4402   2.584   1.994   1.974
 1093SOL    HW3 4403   2.527   2.134   1.987
 1093SOL    MW4 4404   2.522   2.048   2.002
 1094SOL     OW 4405   2.517   2.306   1.907
 1094SOL    HW2 4406   2.592   2.365   1.921
 1094SOL    HW3 4407   2.443   2.351   1.946
 1094SOL    MW4 4408   2.517   2.320   1.914
 1095SOL     OW 4409   2.306   2.452   2.018
 1095SOL    HW2 4410   2.288   2.464   2.111
 1095SOL    HW3 4411   2.293   2.539   1.979
 1095SOL    MW4 4412   2.302   2.465   2.025
 1096SOL     OW 4413   2.245   2.698   1.869
 1096SOL    HW2 4414   2.175   2.750   1.909
 1096SOL    HW3 4415   2.261   2.740   1.784
 1096SOL    MW4 4416   2.238   2.710   1.863
 1097SOL     OW 4417   2.465   2.836   2.000
 1097SOL    HW2 4418   2.449   2.922   1.960
 1097SOL    HW3 4419   2.394   2.781   1.968
 1097SOL    MW4 4420   2.454   2.840   1.991
 1098SOL     OW 4421   2.475   3.094   1.890
 1098SOL    HW2 4422   2.396   3.145   1.905
 1098SOL    HW3 4423   2.490   3.099   1.795
 1098SOL    MW4 4424   2.467   3.101   1.879
 1099SOL     OW 4425   2.253   3.224   1.955
 1099SOL    HW2 4426   2.242   3.227   2.050
 1099SOL    HW3 4427   2.175   3.180   1.922
 1099SOL    MW4 4428   2.241   3.219   1.963
 1100SOL     OW 4429   2.223   3.475   1.847
 1100SOL    HW2 4430   2.224   3.391   1.894
 1100SOL    HW3 4431   2.159   3.528   1.895
 1100SOL    MW4 4432   2.215   3.471   1.860
 1101SOL     OW 4433   2.447   3.607   1.936
 1101SOL    HW2 4434   2.447   3.598   2.031
 1101SOL    HW3 4435   2.365   3.565   1.908
 1101SOL    MW4 4436   2.436   3.600   1.945
 1102SOL     OW 4437   2.478   3.859   1.869
 1102SOL    HW2 4438   2.399   3.911   1.886
 1102SOL    HW3 4439   2.461   3.775   1.910
 1102SOL    MW4 4440   2.465   3.855   1.877
 1103SOL     OW 4441   2.269   4.019   1.957
 1103SOL    HW2 4442   2.269   4.024   2.052
 1103SOL    HW3 4443   2.275   4.110   1.928
 1103SOL    MW4 4444   2.270   4.031   1.965
 1104SOL     OW 4445   2.245   4.284   1.882
 1104SOL    HW2 4446   2.326   4.330   1.903
 1104SOL    HW3 4447   2.227   4.306   1.791
 1104SOL    MW4 4448   2.253   4.293   1.873
 1105SOL     OW 4449   2.470   4.437   1.999
 1105SOL    HW2 4450   2.481   4.407   2.090
 1105SOL    HW3 4451   2.534   4.386   1.949
 1105SOL    MW4 4452   2.480   4.426   2.005
 1106SOL     OW 4453   2.884   4.626   1.828
 1106SOL    HW2 4454   2.955   4.681   1.861
 1106SOL    HW3 4455   2.901   4.540   1.867
 1106SOL    MW4 4456   2.895   4.622   1.838
 1107SOL     OW 4457   2.689   0.156   1.931
 1107SOL    HW2 4458   2.701   0.165   2.025
 1107SOL    HW3 4459   2.761   0.098   1.904
 1107SOL    MW4 4460   2.700   0.149   1.940
 1108SOL     OW 4461   2.678   0.408   1.864
 1108SOL    HW2 4462   2.766   0.431   1.893
 1108SOL    HW3 4463   2.671   0.314   1.880
 1108SOL    MW4 4464   2.689   0.399   1.870
 1109SOL     OW 4465   2.920   0.522   1.977
 1109SOL    HW2 4466   2.994   0.474   1.940
 1109SOL    HW3 4467   2.926   0.609   1.938
 1109SOL    MW4 4468   2.931   0.527   1.967
 1110SOL     OW 4469   2.908   0.788   1.820
 1110SOL    HW2 4470   2.995   0.819   1.846
 1110SOL    HW3 4471   2.847   0.836   1.875
 1110SOL    MW4 4472   2.912   0.798   1.831
 1111SOL     OW 4473   2.719   0.915   1.961
 1111SOL    HW2 4474   2.714   0.999   1.915
 1111SOL    HW3 4475   2.644   0.865   1.929
 1111SOL    MW4 4476   2.709   0.920   1.950
 1112SOL     OW 4477   2.735   1.157   1.829
 1112SOL    HW2 4478   2.655   1.196   1.862
 1112SOL    HW3 4479   2.726   1.160   1.733
 1112SOL    MW4 4480   2.723   1.162   1.820
 1113SOL     OW 4481   2.937   1.308   1.955
 1113SOL    HW2 4482   2.926   1.395   1.916
 1113SOL    HW3 4483   2.860   1.259   1.925
 1113SOL    MW4 4484   2.925   1.313   1.946
 1114SOL     OW 4485   2.908   1.560   1.846
 1114SOL    HW2 4486   2.987   1.589   1.891
 1114SOL    HW3 4487   2.928   1.569   1.753
 1114SOL    MW4 4488   2.921   1.565   1.840
 1115SOL     OW 4489   2.707   1.680   2.000
 1115SOL    HW2 4490   2.775   1.629   1.956
 1115SOL    HW3 4491   2.625   1.651   1.959
 1115SOL    MW4 4492   2.705   1.670   1.989
 1116SOL     OW 4493   2.736   1.929   1.916
 1116SOL    HW2 4494   2.800   1.984   1.960
 1116SOL    HW3 4495   2.753   1.840   1.948
 1116SOL    MW4 4496   2.747   1.924   1.926
 1117SOL     OW 4497   2.957   2.074   1.997
 1117SOL    HW2 4498   2.954   2.062   2.092
 1117SOL    HW3 4499   3.026   2.014   1.967
 1117SOL    MW4 4500   2.965   2.065   2.005
 1118SOL     OW 4501   2.980   2.346   1.909
 1118SOL    HW2 4502   3.063   2.370   1.948
 1118SOL    HW3 4503   2.962   2.258   1.942
 1118SOL    MW4 4504   2.988   2.337   1.918
 1119SOL     OW 4505   2.733   2.480   1.978
 1119SOL    HW2 4506   2.718   2.568   1.943
 1119SOL    HW3 4507   2.826   2.463   1.963
 1119SOL    MW4 4508   2.743   2.490   1.972
 1120SOL     OW 4509   2.713   2.759   1.879
 1120SOL    HW2 4510   2.636   2.803   1.917
 1120SOL    HW3 4511   2.703   2.773   1.785
 1120SOL    MW4 4512   2.701   2.767   1.872
 1121SOL     OW 4513   2.952   2.837   1.980
 1121SOL    HW2 4514   2.962   2.931   1.963
 1121SOL    HW3 4515   2.869   2.815   1.938
 1121SOL    MW4 4516   2.942   2.847   1.972
 1122SOL     OW 4517   2.942   3.126   1.883
 1122SOL    HW2 4518   3.017   3.167   1.926
 1122SOL    HW3 4519   2.866   3.178   1.911
 1122SOL    MW4 4520   2.942   3.139   1.892
 1123SOL     OW 4521   2.713   3.244   1.952
 1123SOL    HW2 4522   2.694   3.331   1.916
 1123SOL    HW3 4523   2.630   3.198   1.949
 1123SOL    MW4 4524   2.700   3.249   1.947
 1124SOL     OW 4525   2.670   3.493   1.840
 1124SOL    HW2 4526   2.739   3.555   1.864
 1124SOL    HW3 4527   2.590   3.532   1.874
 1124SOL    MW4 4528   2.669   3.506   1.847
 1125SOL     OW 4529   2.868   3.667   1.959
 1125SOL    HW2 4530   2.850   3.653   2.052
 1125SOL    HW3 4531   2.961   3.648   1.949
 1125SOL    MW4 4532   2.878   3.663   1.970
 1126SOL     OW 4533   2.870   3.923   1.869
 1126SOL    HW2 4534   2.855   3.834   1.901
 1126SOL    HW3 4535   2.882   3.913   1.775
 1126SOL    MW4 4536   2.870   3.910   1.861
 1127SOL     OW 4537   2.645   4.069   1.963
 1127SOL    HW2 4538   2.723   4.027   1.928
 1127SOL    HW3 4539   2.573   4.015   1.930
 1127SOL    MW4 4540   2.645   4.056   1.954
 1128SOL     OW 4541   2.654   4.312   1.855
 1128SOL    HW2 4542   2.666   4.225   1.893
 1128SOL    HW3 4543   2.659   4.297   1.760
 1128SOL    MW4 4544   2.656   4.298   1.847
 1129SOL     OW 4545   2.919   4.374   1.948
 1129SOL    HW2 4546   2.926   4.382   2.044
 1129SOL    HW3 4547   2.826   4.356   1.932
 1129SOL    MW4 4548   2.908   4.373   1.959
 1130SOL     OW 4549   3.344   0.006   1.885
 1130SOL    HW2 4550   3.350  -0.088   1.899
 1130SOL    HW3 4551   3.356   0.017   1.790
 1130SOL    MW4 4552   3.347  -0.005   1.874
 1131SOL     OW 4553   3.093   0.100   1.939
 1131SOL    HW2 4554   3.085   0.095   2.034
 1131SOL    HW3 4555   3.174   0.052   1.919
 1131SOL    MW4 4556   3.103   0.093   1.949
 1132SOL     OW 4557   3.127   0.376   1.876
 1132SOL    HW2 4558   3.138   0.295   1.925
 1132SOL    HW3 4559   3.129   0.350   1.784
 1132SOL    MW4 4560   3.129   0.362   1.870
 1133SOL     OW 4561   3.355   0.527   1.974
 1133SOL    HW2 4562   3.438   0.480   1.961
 1133SOL    HW3 4563   3.289   0.472   1.932
 1133SOL    MW4 4564   3.358   0.513   1.967
 1134SOL     OW 4565   3.387   0.784   1.848
 1134SOL    HW2 4566   3.314   0.821   1.898
 1134SOL    HW3 4567   3.391   0.692   1.876
 1134SOL    MW4 4568   3.378   0.776   1.858
 1135SOL     OW 4569   3.144   0.881   1.954
 1135SOL    HW2 4570   3.120   0.878   2.047
 1135SOL    HW3 4571   3.135   0.973   1.930
 1135SOL    MW4 4572   3.140   0.893   1.963
 1136SOL     OW 4573   3.147   1.134   1.876
 1136SOL    HW2 4574   3.228   1.166   1.915
 1136SOL    HW3 4575   3.078   1.184   1.920
 1136SOL    MW4 4576   3.148   1.145   1.887
 1137SOL     OW 4577   3.385   1.262   1.967
 1137SOL    HW2 4578   3.364   1.288   2.057
 1137SOL    HW3 4579   3.386   1.344   1.918
 1137SOL    MW4 4580   3.382   1.276   1.973
 1138SOL     OW 4581   3.366   1.505   1.851
 1138SOL    HW2 4582   3.444   1.551   1.882
 1138SOL    HW3 4583   3.295   1.541   1.904
 1138SOL    MW4 4584   3.367   1.516   1.862
 1139SOL     OW 4585   3.143   1.638   1.972
 1139SOL    HW2 4586   3.149   1.635   2.068
 1139SOL    HW3 4587   3.158   1.730   1.950
 1139SOL    MW4 4588   3.146   1.650   1.982
 1140SOL     OW 4589   3.196   1.912   1.907
 1140SOL    HW2 4590   3.280   1.954   1.927
 1140SOL    HW3 4591   3.181   1.932   1.815
 1140SOL    MW4 4592   3.206   1.920   1.897
 1141SOL     OW 4593   3.436   2.052   1.992
 1141SOL    HW2 4594   3.495   2.007   1.931
 1141SOL    HW3 4595   3.425   2.139   1.955
 1141SOL    MW4 4596   3.443   2.057   1.979
 1142SOL     OW 4597   3.420   2.290   1.874
 1142SOL    HW2 4598   3.351   2.332   1.926
 1142SOL    HW3 4599   3.406   2.321   1.785
 1142SOL    MW4 4600   3.409   2.299   1.869
 1143SOL     OW 4601   3.225   2.420   2.012
 1143SOL    HW2 4602   3.201   2.437   2.103
 1143SOL    HW3 4603   3.227   2.507   1.971
 1143SOL    MW4 4604   3.222   2.434   2.018
 1144SOL     OW 4605   3.177   2.679   1.889
 1144SOL    HW2 4606   3.102   2.728   1.922
 1144SOL    HW3 4607   3.175   2.692   1.794
 1144SOL    MW4 4608   3.167   2.687   1.881
 1145SOL     OW 4609   3.358   2.869   1.972
 1145SOL    HW2 4610   3.377   2.861   2.065
 1145SOL    HW3 4611   3.286   2.808   1.957
 1145SOL    MW4 4612   3.351   2.860   1.982
 1146SOL     OW 4613   3.402   3.123   1.904
 1146SOL    HW2 4614   3.493   3.143   1.928
 1146SOL    HW3 4615   3.392   3.030   1.923
 1146SOL    MW4 4616   3.413   3.114   1.910
 1147SOL     OW 4617   3.161   3.266   1.978
 1147SOL    HW2 4618   3.139   3.356   1.953
 1147SOL    HW3 4619   3.254   3.258   1.960
 1147SOL    MW4 4620   3.170   3.277   1.973
 1148SOL     OW 4621   3.111   3.521   1.894
 1148SOL    HW2 4622   3.195   3.549   1.931
 1148SOL    HW3 4623   3.117   3.544   1.801
 1148SOL    MW4 4624   3.123   3.527   1.887
 1149SOL     OW 4625   3.362   3.614   1.959
 1149SOL    HW2 4626   3.441   3.571   1.925
 1149SOL    HW3 4627   3.359   3.698   1.914
 1149SOL    MW4 4628   3.372   3.619   1.949
 1150SOL     OW 4629   3.360   3.878   1.867
 1150SOL    HW2 4630   3.275   3.908   1.900
 1150SOL    HW3 4631   3.355   3.891   1.773
 1150SOL    MW4 4632   3.349   3.884   1.859
 1151SOL     OW 4633   3.130   3.968   1.986
 1151SOL    HW2 4634   3.116   3.982   2.079
 1151SOL    HW3 4635   3.042   3.951   1.951
 1151SOL    MW4 4636   3.117   3.968   1.993
 1152SOL     OW 4637   3.140   4.227   1.843
 1152SOL    HW2 4638   3.158   4.145   1.888
 1152SOL    HW3 4639   3.061   4.261   1.884
 1152SOL    MW4 4640   3.132   4.221   1.854
 1153SOL     OW 4641   3.356   4.411   1.959
 1153SOL    HW2 4642   3.419   4.349   1.923
 1153SOL    HW3 4643   3.271   4.379   1.931
 1153SOL    MW4 4644   3.353   4.399   1.951
 1154SOL     OW 4645   3.779   4.662   1.852
 1154SOL    HW2 4646   3.756   4.572   1.872
 1154SOL    HW3 4647   3.707   4.714   1.887
 1154SOL    MW4 4648   3.767   4.657   1.859
 1155SOL     OW 4649   3.568   0.117   1.980
 1155SOL    HW2 4650   3.568   0.115   2.075
 1155SOL    HW3 4651   3.484   0.078   1.955
 1155SOL    MW4 4652   3.557   0.112   1.989
 1156SOL     OW 4653   3.579   0.392   1.913
 1156SOL    HW2 4654   3.564   0.301   1.936
 1156SOL    HW3 4655   3.567   0.396   1.818
 1156SOL    MW4 4656   3.576   0.381   1.903
 1157SOL     OW 4657   3.810   0.503   1.995
 1157SOL    HW2 4658   3.814   0.584   1.944
 1157SOL    HW3 4659   3.723   0.467   1.977
 1157SOL    MW4 4660   3.799   0.509   1.986
 1158SOL     OW 4661   3.833   0.746   1.876
 1158SOL    HW2 4662   3.759   0.792   1.915
 1158SOL    HW3 4663   3.827   0.765   1.782
 1158SOL    MW4 4664   3.823   0.754   1.869
 1159SOL     OW 4665   3.617   0.919   1.963
 1159SOL    HW2 4666   3.643   0.993   1.909
 1159SOL    HW3 4667   3.536   0.887   1.923
 1159SOL    MW4 4668   3.610   0.924   1.951
 1160SOL     OW 4669   3.630   1.205   1.847
 1160SOL    HW2 4670   3.546   1.223   1.889
 1160SOL    HW3 4671   3.607   1.178   1.758
 1160SOL    MW4 4672   3.616   1.204   1.841
 1161SOL     OW 4673   3.873   1.307   1.966
 1161SOL    HW2 4674   3.865   1.301   2.061
 1161SOL    HW3 4675   3.793   1.267   1.932
 1161SOL    MW4 4676   3.861   1.301   1.974
 1162SOL     OW 4677   3.837   1.551   1.862
 1162SOL    HW2 4678   3.907   1.599   1.906
 1162SOL    HW3 4679   3.843   1.462   1.897
 1162SOL    MW4 4680   3.847   1.545   1.872
 1163SOL     OW 4681   3.584   1.651   1.927
 1163SOL    HW2 4682   3.594   1.743   1.899
 1163SOL    HW3 4683   3.670   1.612   1.909
 1163SOL    MW4 4684   3.597   1.658   1.921
 1164SOL     OW 4685   3.633   1.919   1.831
 1164SOL    HW2 4686   3.720   1.949   1.855
 1164SOL    HW3 4687   3.619   1.953   1.742
 1164SOL    MW4 4688   3.642   1.928   1.822
 1165SOL     OW 4689   3.849   2.064   1.941
 1165SOL    HW2 4690   3.920   2.025   1.891
 1165SOL    HW3 4691   3.838   2.152   1.904
 1165SOL    MW4 4692   3.857   2.071   1.930
 1166SOL     OW 4693   3.839   2.335   1.844
 1166SOL    HW2 4694   3.910   2.359   1.903
 1166SOL    HW3 4695   3.761   2.378   1.880
 1166SOL    MW4 4696   3.838   2.343   1.857
 1167SOL     OW 4697   3.621   2.432   1.983
 1167SOL    HW2 4698   3.609   2.521   1.951
 1167SOL    HW3 4699   3.550   2.382   1.942
 1167SOL    MW4 4700   3.610   2.437   1.974
 1168SOL     OW 4701   3.566   2.690   1.886
 1168SOL    HW2 4702   3.651   2.729   1.907
 1168SOL    HW3 4703   3.502   2.750   1.925
 1168SOL    MW4 4704   3.569   2.703   1.894
 1169SOL     OW 4705   3.802   2.789   1.963
 1169SOL    HW2 4706   3.840   2.775   2.050
 1169SOL    HW3 4707   3.817   2.881   1.945
 1169SOL    MW4 4708   3.809   2.799   1.972
 1170SOL     OW 4709   3.862   3.044   1.830
 1170SOL    HW2 4710   3.791   3.097   1.865
 1170SOL    HW3 4711   3.854   3.052   1.735
 1170SOL    MW4 4712   3.852   3.052   1.822
 1171SOL     OW 4713   3.653   3.220   1.943
 1171SOL    HW2 4714   3.651   3.246   2.035
 1171SOL    HW3 4715   3.617   3.296   1.896
 1171SOL    MW4 4716   3.648   3.234   1.949
 1172SOL     OW 4717   3.572   3.457   1.845
 1172SOL    HW2 4718   3.645   3.500   1.888
 1172SOL    HW3 4719   3.583   3.477   1.752
 1172SOL    MW4 4720   3.583   3.465   1.838
 1173SOL     OW 4721   3.775   3.619   1.976
 1173SOL    HW2 4722   3.846   3.568   1.937
 1173SOL    HW3 4723   3.794   3.710   1.952
 1173SOL    MW4 4724   3.787   3.624   1.968
 1174SOL     OW 4725   3.798   3.868   1.882
 1174SOL    HW2 4726   3.725   3.910   1.927
 1174SOL    HW3 4727   3.773   3.869   1.789
 1174SOL    MW4 4728   3.785   3.874   1.875
 1175SOL     OW 4729   3.579   4.001   1.993
 1175SOL    HW2 4730   3.567   3.991   2.087
 1175SOL    HW3 4731   3.498   3.967   1.955
 1175SOL    MW4 4732   3.567   3.995   2.000
 1176SOL     OW 4733   3.544   4.237   1.868
 1176SOL    HW2 4734   3.617   4.288   1.904
 1176SOL    HW3 4735   3.542   4.157   1.921
 1176SOL    MW4 4736   3.553   4.233   1.880
 1177SOL     OW 4737   3.761   4.384   1.953
 1177SOL    HW2 4738   3.765   4.403   2.047
 1177SOL    HW3 4739   3.851   4.358   1.930
 1177SOL    MW4 4740   3.774   4.383   1.962
 1178SOL     OW 4741   4.261   0.002   1.845
 1178SOL    HW2 4742   4.182   0.037   1.887
 1178SOL    HW3 4743   4.333   0.047   1.888
 1178SOL    MW4 4744   4.260   0.013   1.856
 1179SOL     OW 4745   4.024   0.093   1.952
 1179SOL    HW2 4746   4.003   0.112   2.043
 1179SOL    HW3 4747   3.946   0.052   1.916
 1179SOL    MW4 4748   4.011   0.090   1.959
 1180SOL     OW 4749   4.030   0.365   1.890
 1180SOL    HW2 4750   4.025   0.276   1.926
 1180SOL    HW3 4751   3.955   0.410   1.928
 1180SOL    MW4 4752   4.019   0.359   1.900
 1181SOL     OW 4753   4.260   0.488   1.948
 1181SOL    HW2 4754   4.257   0.494   2.044
 1181SOL    HW3 4755   4.178   0.445   1.925
 1181SOL    MW4 4756   4.249   0.483   1.958
 1182SOL     OW 4757   4.255   0.755   1.890
 1182SOL    HW2 4758   4.250   0.666   1.922
 1182SOL    HW3 4759   4.260   0.746   1.795
 1182SOL    MW4 4760   4.255   0.742   1.881
 1183SOL     OW 4761   4.037   0.913   1.967
 1183SOL    HW2 4762   4.118   0.870   1.937
 1183SOL    HW3 4763   3.967   0.856   1.935
 1183SOL    MW4 4764   4.039   0.900   1.959
 1184SOL     OW 4765   4.068   1.154   1.854
 1184SOL    HW2 4766   4.043   1.064   1.876
 1184SOL    HW3 4767   3.997   1.208   1.889
 1184SOL    MW4 4768   4.055   1.149   1.861
 1185SOL     OW 4769   4.310   1.239   1.975
 1185SOL    HW2 4770   4.303   1.246   2.070
 1185SOL    HW3 4771   4.221   1.216   1.946
 1185SOL    MW4 4772   4.297   1.237   1.984
 1186SOL     OW 4773   4.271   1.520   1.907
 1186SOL    HW2 4774   4.283   1.429   1.933
 1186SOL    HW3 4775   4.264   1.517   1.812
 1186SOL    MW4 4776   4.272   1.508   1.898
 1187SOL     OW 4777   4.048   1.684   1.970
 1187SOL    HW2 4778   4.043   1.693   2.065
 1187SOL    HW3 4779   4.121   1.623   1.956
 1187SOL    MW4 4780   4.057   1.677   1.981
 1188SOL     OW 4781   4.075   1.929   1.850
 1188SOL    HW2 4782   4.062   1.847   1.898
 1188SOL    HW3 4783   4.084   1.901   1.758
 1188SOL    MW4 4784   4.074   1.914   1.844
 1189SOL     OW 4785   4.300   2.059   1.947
 1189SOL    HW2 4786   4.284   2.071   2.040
 1189SOL    HW3 4787   4.216   2.030   1.911
 1189SOL    MW4 4788   4.287   2.056   1.954
 1190SOL     OW 4789   4.284   2.321   1.866
 1190SOL    HW2 4790   4.295   2.231   1.898
 1190SOL    HW3 4791   4.359   2.368   1.902
 1190SOL    MW4 4792   4.295   2.315   1.875
 1191SOL     OW 4793   4.053   2.430   1.984
 1191SOL    HW2 4794   4.045   2.417   2.078
 1191SOL    HW3 4795   4.133   2.383   1.960
 1191SOL    MW4 4796   4.062   2.422   1.993
 1192SOL     OW 4797   4.033   2.686   1.861
 1192SOL    HW2 4798   4.044   2.601   1.902
 1192SOL    HW3 4799   3.951   2.720   1.897
 1192SOL    MW4 4800   4.024   2.680   1.871
 1193SOL     OW 4801   4.229   2.868   1.935
 1193SOL    HW2 4802   4.244   2.849   2.028
 1193SOL    HW3 4803   4.158   2.810   1.909
 1193SOL    MW4 4804   4.222   2.858   1.944
 1194SOL     OW 4805   4.298   3.132   1.856
 1194SOL    HW2 4806   4.229   3.185   1.896
 1194SOL    HW3 4807   4.278   3.042   1.884
 1194SOL    MW4 4808   4.286   3.127   1.865
 1195SOL     OW 4809   4.045   3.227   1.924
 1195SOL    HW2 4810   4.042   3.196   2.015
 1195SOL    HW3 4811   3.997   3.160   1.875
 1195SOL    MW4 4812   4.038   3.214   1.930
 1196SOL     OW 4813   4.006   3.506   1.900
 1196SOL    HW2 4814   4.089   3.553   1.903
 1196SOL    HW3 4815   4.030   3.415   1.919
 1196SOL    MW4 4816   4.020   3.500   1.903
 1197SOL     OW 4817   4.254   3.597   1.936
 1197SOL    HW2 4818   4.254   3.692   1.921
 1197SOL    HW3 4819   4.346   3.571   1.926
 1197SOL    MW4 4820   4.266   3.606   1.933
 1198SOL     OW 4821   4.243   3.873   1.846
 1198SOL    HW2 4822   4.318   3.905   1.897
 1198SOL    HW3 4823   4.271   3.880   1.755
 1198SOL    MW4 4824   4.256   3.878   1.841
 1199SOL     OW 4825   4.027   4.018   1.964
 1199SOL    HW2 4826   4.102   3.978   1.920
 1199SOL    HW3 4827   3.951   3.971   1.928
 1199SOL    MW4 4828   4.027   4.007   1.953
 1200SOL     OW 4829   4.012   4.288   1.878
 1200SOL    HW2 4830   4.087   4.326   1.924
 1200SOL    HW3 4831   4.017   4.194   1.897
 1200SOL    MW4 4832   4.022   4.281   1.887
 1201SOL     OW 4833   4.246   4.410   1.963
 1201SOL    HW2 4834   4.236   4.425   2.057
 1201SOL    HW3 4835   4.256   4.498   1.926
 1201SOL    MW4 4836   4.246   4.424   1.971
 1202SOL     OW 4837   0.190   4.631   2.353
 1202SOL    HW2 4838   0.199   4.608   2.446
 1202SOL    HW3 4839   0.273   4.675   2.332
 1202SOL    MW4 4840   0.202   4.634   2.363
 1203SOL     OW 4841   4.472   0.127   2.236
 1203SOL    HW2 4842   4.545   0.074   2.268
 1203SOL    HW3 4843   4.480   0.123   2.141
 1203SOL    MW4 4844   4.483   0.120   2.228
 1204SOL     OW 4845   4.423   0.359   2.341
 1204SOL    HW2 4846   4.493   0.415   2.309
 1204SOL    HW3 4847   4.440   0.273   2.302
 1204SOL    MW4 4848   4.434   0.355   2.332
 1205SOL     OW 4849   0.160   0.494   2.259
 1205SOL    HW2 4850   0.250   0.465   2.274
 1205SOL    HW3 4851   0.156   0.510   2.165
 1205SOL    MW4 4852   0.171   0.492   2.248
 1206SOL     OW 4853   0.225   0.743   2.315
 1206SOL    HW2 4854   0.218   0.751   2.410
 1206SOL    HW3 4855   0.192   0.655   2.295
 1206SOL    MW4 4856   0.220   0.733   2.325
 1207SOL     OW 4857   4.489   0.890   2.249
 1207SOL    HW2 4858   4.563   0.837   2.281
 1207SOL    HW3 4859   4.499   0.890   2.154
 1207SOL    MW4 4860   4.501   0.883   2.241
 1208SOL     OW 4861   0.005   1.152   2.357
 1208SOL    HW2 4862  -0.013   1.153   2.451
 1208SOL    HW3 4863   0.008   1.059   2.335
 1208SOL    MW4 4864   0.003   1.140   2.367
 1209SOL     OW 4865   0.221   1.320   2.260
 1209SOL    HW2 4866   0.145   1.263   2.278
 1209SOL    HW3 4867   0.240   1.305   2.167
 1209SOL    MW4 4868   0.213   1.310   2.250
 1210SOL     OW 4869   0.239   1.590   2.326
 1210SOL    HW2 4870   0.217   1.595   2.419
 1210SOL    HW3 4871   0.233   1.497   2.306
 1210SOL    MW4 4872   0.235   1.579   2.336
 1211SOL     OW 4873   4.474   1.652   2.273
 1211SOL    HW2 4874   4.467   1.746   2.291
 1211SOL    HW3 4875   4.567   1.632   2.286
 1211SOL    MW4 4876   4.485   1.662   2.277
 1212SOL     OW 4877   0.007   1.927   2.338
 1212SOL    HW2 4878  -0.067   1.980   2.306
 1212SOL    HW3 4879   0.085   1.976   2.313
 1212SOL    MW4 4880   0.007   1.940   2.331
 1213SOL     OW 4881   0.222   2.075   2.225
 1213SOL    HW2 4882   0.304   2.032   2.248
 1213SOL    HW3 4883   0.228   2.089   2.130
 1213SOL    MW4 4884   0.233   2.071   2.215
 1214SOL     OW 4885   0.205   2.338   2.295
 1214SOL    HW2 4886   0.206   2.338   2.390
 1214SOL    HW3 4887   0.221   2.247   2.270
 1214SOL    MW4 4888   0.207   2.326   2.304
 1215SOL     OW 4889   4.465   2.436   2.220
 1215SOL    HW2 4890   4.470   2.524   2.258
 1215SOL    HW3 4891   4.539   2.389   2.258
 1215SOL    MW4 4892   4.475   2.441   2.230
 1216SOL     OW 4893   0.017   2.691   2.348
 1216SOL    HW2 4894   0.013   2.690   2.444
 1216SOL    HW3 4895   0.107   2.717   2.328
 1216SOL    MW4 4896   0.029   2.695   2.358
 1217SOL     OW 4897   0.242   2.838   2.262
 1217SOL    HW2 4898   0.328   2.802   2.286
 1217SOL    HW3 4899   0.238   2.831   2.167
 1217SOL    MW4 4900   0.253   2.832   2.253
 1218SOL     OW 4901   0.246   3.067   2.391
 1218SOL    HW2 4902   0.168   3.115   2.362
 1218SOL    HW3 4903   0.242   2.984   2.344
 1218SOL    MW4 4904   0.236   3.063   2.381
 1219SOL     OW 4905   0.011   3.203   2.296
 1219SOL    HW2 4906  -0.014   3.287   2.334
 1219SOL    HW3 4907   0.024   3.221   2.203
 1219SOL    MW4 4908   0.009   3.216   2.289
 1220SOL     OW 4909   4.480   3.469   2.371
 1220SOL    HW2 4910   4.458   3.460   2.464
 1220SOL    HW3 4911   4.400   3.503   2.331
 1220SOL    MW4 4912   4.466   3.472   2.378
 1221SOL     OW 4913   0.225   3.606   2.283
 1221SOL    HW2 4914   0.296   3.563   2.331
 1221SOL    HW3 4915   0.148   3.553   2.300
 1221SOL    MW4 4916   0.224   3.594   2.292
 1222SOL     OW 4917   0.210   3.875   2.371
 1222SOL    HW2 4918   0.128   3.914   2.341
 1222SOL    HW3 4919   0.204   3.783   2.343
 1222SOL    MW4 4920   0.199   3.868   2.363
 1223SOL     OW 4921   4.451   4.004   2.270
 1223SOL    HW2 4922   4.441   4.093   2.303
 1223SOL    HW3 4923   4.454   4.014   2.174
 1223SOL    MW4 4924   4.450   4.017   2.261
 1224SOL     OW 4925   4.450   4.274   2.344
 1224SOL    HW2 4926   4.462   4.252   2.437
 1224SOL    HW3 4927   4.533   4.314   2.318
 1224SOL    MW4 4928   4.462   4.276   2.353
 1225SOL     OW 4929   0.190   4.391   2.240
 1225SOL    HW2 4930   0.257   4.348   2.294
 1225SOL    HW3 4931   0.181   4.478   2.279
 1225SOL    MW4 4932   0.198   4.397   2.253
 1226SOL     OW 4933   0.612   4.645   2.321
 1226SOL    HW2 4934   0.617   4.646   2.416
 1226SOL    HW3 4935   0.691   4.692   2.292
 1226SOL    MW4 4936   0.623   4.651   2.330
 1227SOL     OW 4937   0.400   0.129   2.253
 1227SOL    HW2 4938   0.468   0.065   2.274
 1227SOL    HW3 4939   0.382   0.115   2.160
 1227SOL    MW4 4940   0.406   0.118   2.244
 1228SOL     OW 4941   0.418   0.412   2.324
 1228SOL    HW2 4942   0.413   0.417   2.419
 1228SOL    HW3 4943   0.408   0.319   2.304
 1228SOL    MW4 4944   0.416   0.401   2.334
 1229SOL     OW 4945   0.674   0.491   2.213
 1229SOL    HW2 4946   0.682   0.582   2.241
 1229SOL    HW3 4947   0.600   0.457   2.262
 1229SOL    MW4 4948   0.666   0.498   2.223
 1230SOL     OW 4949   0.695   0.756   2.320
 1230SOL    HW2 4950   0.688   0.730   2.412
 1230SOL    HW3 4951   0.607   0.786   2.298
 1230SOL    MW4 4952   0.682   0.756   2.329
 1231SOL     OW 4953   0.449   0.893   2.242
 1231SOL    HW2 4954   0.386   0.826   2.270
 1231SOL    HW3 4955   0.438   0.899   2.147
 1231SOL    MW4 4956   0.439   0.885   2.233
 1232SOL     OW 4957   0.472   1.166   2.325
 1232SOL    HW2 4958   0.479   1.073   2.303
 1232SOL    HW3 4959   0.386   1.192   2.292
 1232SOL    MW4 4960   0.462   1.157   2.318
 1233SOL     OW 4961   0.683   1.324   2.209
 1233SOL    HW2 4962   0.674   1.403   2.263
 1233SOL    HW3 4963   0.611   1.267   2.236
 1233SOL    MW4 4964   0.673   1.327   2.220
 1234SOL     OW 4965   0.661   1.561   2.337
 1234SOL    HW2 4966   0.653   1.546   2.431
 1234SOL    HW3 4967   0.742   1.611   2.327
 1234SOL    MW4 4968   0.670   1.566   2.348
 1235SOL     OW 4969   0.454   1.686   2.190
 1235SOL    HW2 4970   0.532   1.650   2.232
 1235SOL    HW3 4971   0.382   1.664   2.250
 1235SOL    MW4 4972   0.455   1.678   2.204
 1236SOL     OW 4973   0.452   1.931   2.323
 1236SOL    HW2 4974   0.529   1.971   2.283
 1236SOL    HW3 4975   0.434   1.855   2.269
 1236SOL    MW4 4976   0.460   1.926   2.311
 1237SOL     OW 4977   0.670   2.064   2.215
 1237SOL    HW2 4978   0.740   2.030   2.270
 1237SOL    HW3 4979   0.659   2.155   2.244
 1237SOL    MW4 4980   0.678   2.072   2.226
 1238SOL     OW 4981   0.664   2.320   2.325
 1238SOL    HW2 4982   0.663   2.333   2.420
 1238SOL    HW3 4983   0.750   2.350   2.297
 1238SOL    MW4 4984   0.675   2.326   2.334
 1239SOL     OW 4985   0.444   2.469   2.235
 1239SOL    HW2 4986   0.509   2.418   2.283
 1239SOL    HW3 4987   0.362   2.423   2.249
 1239SOL    MW4 4988   0.442   2.456   2.243
 1240SOL     OW 4989   0.473   2.729   2.353
 1240SOL    HW2 4990   0.457   2.714   2.446
 1240SOL    HW3 4991   0.474   2.641   2.314
 1240SOL    MW4 4992   0.471   2.715   2.360
 1241SOL     OW 4993   0.692   2.859   2.230
 1241SOL    HW2 4994   0.766   2.810   2.265
 1241SOL    HW3 4995   0.615   2.816   2.268
 1241SOL    MW4 4996   0.691   2.847   2.240
 1242SOL     OW 4997   0.685   3.098   2.380
 1242SOL    HW2 4998   0.599   3.134   2.360
 1242SOL    HW3 4999   0.690   3.018   2.329
 1242SOL    MW4 5000   0.674   3.092   2.371
 1243SOL     OW 5001   0.453   3.230   2.291
 1243SOL    HW2 5002   0.377   3.179   2.321
 1243SOL    HW3 5003   0.440   3.240   2.197
 1243SOL    MW4 5004   0.441   3.224   2.282
 1244SOL     OW 5005   0.440   3.472   2.397
 1244SOL    HW2 5006   0.503   3.525   2.346
 1244SOL    HW3 5007   0.436   3.389   2.350
 1244SOL    MW4 5008   0.448   3.468   2.384
 1245SOL     OW 5009   0.637   3.597   2.290
 1245SOL    HW2 5010   0.662   3.686   2.316
 1245SOL    HW3 5011   0.614   3.604   2.198
 1245SOL    MW4 5012   0.637   3.609   2.282
 1246SOL     OW 5013   0.664   3.866   2.362
 1246SOL    HW2 5014   0.667   3.872   2.457
 1246SOL    HW3 5015   0.581   3.907   2.337
 1246SOL    MW4 5016   0.653   3.872   2.371
 1247SOL     OW 5017   0.435   3.995   2.232
 1247SOL    HW2 5018   0.356   3.954   2.267
 1247SOL    HW3 5019   0.419   4.000   2.138
 1247SOL    MW4 5020   0.423   3.990   2.224
 1248SOL     OW 5021   0.393   4.248   2.363
 1248SOL    HW2 5022   0.467   4.304   2.341
 1248SOL    HW3 5023   0.412   4.165   2.320
 1248SOL    MW4 5024   0.405   4.245   2.354
 1249SOL     OW 5025   0.645   4.367   2.287
 1249SOL    HW2 5026   0.641   4.463   2.293
 1249SOL    HW3 5027   0.655   4.350   2.193
 1249SOL    MW4 5028   0.646   4.378   2.275
 1250SOL     OW 5029   1.057   0.013   2.375
 1250SOL    HW2 5030   1.050  -0.002   2.470
 1250SOL    HW3 5031   0.972   0.047   2.350
 1250SOL    MW4 5032   1.045   0.015   2.385
 1251SOL     OW 5033   0.828   0.134   2.271
 1251SOL    HW2 5034   0.847   0.221   2.308
 1251SOL    HW3 5035   0.835   0.146   2.177
 1251SOL    MW4 5036   0.831   0.147   2.264
 1252SOL     OW 5037   0.874   0.390   2.389
 1252SOL    HW2 5038   0.959   0.431   2.370
 1252SOL    HW3 5039   0.811   0.443   2.340
 1252SOL    MW4 5040   0.877   0.403   2.380
 1253SOL     OW 5041   1.107   0.512   2.305
 1253SOL    HW2 5042   1.187   0.468   2.335
 1253SOL    HW3 5043   1.102   0.491   2.212
 1253SOL    MW4 5044   1.117   0.503   2.297
 1254SOL     OW 5045   1.099   0.808   2.311
 1254SOL    HW2 5046   1.023   0.846   2.268
 1254SOL    HW3 5047   1.102   0.718   2.280
 1254SOL    MW4 5048   1.089   0.801   2.301
 1255SOL     OW 5049   0.877   0.922   2.201
 1255SOL    HW2 5050   0.877   1.004   2.249
 1255SOL    HW3 5051   0.802   0.874   2.235
 1255SOL    MW4 5052   0.867   0.926   2.212
 1256SOL     OW 5053   0.900   1.162   2.338
 1256SOL    HW2 5054   0.984   1.197   2.308
 1256SOL    HW3 5055   0.835   1.219   2.296
 1256SOL    MW4 5056   0.902   1.174   2.328
 1257SOL     OW 5057   1.121   1.307   2.237
 1257SOL    HW2 5058   1.215   1.295   2.246
 1257SOL    HW3 5059   1.106   1.311   2.143
 1257SOL    MW4 5060   1.131   1.306   2.226
 1258SOL     OW 5061   1.127   1.577   2.324
 1258SOL    HW2 5062   1.043   1.619   2.302
 1258SOL    HW3 5063   1.117   1.487   2.295
 1258SOL    MW4 5064   1.115   1.571   2.317
 1259SOL     OW 5065   0.900   1.697   2.256
 1259SOL    HW2 5066   0.911   1.789   2.281
 1259SOL    HW3 5067   0.895   1.699   2.160
 1259SOL    MW4 5068   0.901   1.709   2.247
 1260SOL     OW 5069   0.891   1.961   2.335
 1260SOL    HW2 5070   0.867   1.953   2.428
 1260SOL    HW3 5071   0.979   1.998   2.336
 1260SOL    MW4 5072   0.899   1.965   2.348
 1261SOL     OW 5073   1.150   2.074   2.281
 1261SOL    HW2 5074   1.238   2.044   2.305
 1261SOL    HW3 5075   1.146   2.065   2.186
 1261SOL    MW4 5076   1.161   2.069   2.272
 1262SOL     OW 5077   1.123   2.340   2.361
 1262SOL    HW2 5078   1.194   2.381   2.310
 1262SOL    HW3 5079   1.132   2.247   2.344
 1262SOL    MW4 5080   1.134   2.333   2.352
 1263SOL     OW 5081   0.900   2.420   2.243
 1263SOL    HW2 5082   0.979   2.392   2.290
 1263SOL    HW3 5083   0.928   2.429   2.152
 1263SOL    MW4 5084   0.914   2.418   2.238
 1264SOL     OW 5085   0.885   2.694   2.320
 1264SOL    HW2 5086   0.875   2.701   2.415
 1264SOL    HW3 5087   0.883   2.600   2.303
 1264SOL    MW4 5088   0.884   2.682   2.331
 1265SOL     OW 5089   1.118   2.858   2.268
 1265SOL    HW2 5090   1.200   2.827   2.306
 1265SOL    HW3 5091   1.054   2.790   2.289
 1265SOL    MW4 5092   1.121   2.845   2.276
 1266SOL     OW 5093   1.137   3.119   2.342
 1266SOL    HW2 5094   1.055   3.163   2.317
 1266SOL    HW3 5095   1.128   3.030   2.310
 1266SOL    MW4 5096   1.125   3.113   2.334
 1267SOL     OW 5097   0.897   3.234   2.253
 1267SOL    HW2 5098   0.905   3.323   2.288
 1267SOL    HW3 5099   0.829   3.193   2.306
 1267SOL    MW4 5100   0.889   3.240   2.265
 1268SOL     OW 5101   0.898   3.486   2.336
 1268SOL    HW2 5102   0.904   3.474   2.431
 1268SOL    HW3 5103   0.814   3.531   2.323
 1268SOL    MW4 5104   0.887   3.490   2.347
 1269SOL     OW 5105   1.113   3.637   2.246
 1269SOL    HW2 5106   1.182   3.598   2.299
 1269SOL    HW3 5107   1.031   3.607   2.287
 1269SOL    MW4 5108   1.111   3.628   2.259
 1270SOL     OW 5109   1.083   3.880   2.356
 1270SOL    HW2 5110   1.148   3.937   2.315
 1270SOL    HW3 5111   1.100   3.793   2.318
 1270SOL    MW4 5112   1.094   3.876   2.346
 1271SOL     OW 5113   0.877   4.024   2.240
 1271SOL    HW2 5114   0.953   3.973   2.266
 1271SOL    HW3 5115   0.802   3.974   2.271
 1271SOL    MW4 5116   0.877   4.011   2.247
 1272SOL     OW 5117   0.897   4.269   2.373
 1272SOL    HW2 5118   0.899   4.191   2.317
 1272SOL    HW3 5119   0.812   4.309   2.355
 1272SOL    MW4 5120   0.886   4.264   2.363
 1273SOL     OW 5121   1.086   4.438   2.245
 1273SOL    HW2 5122   1.021   4.380   2.287
 1273SOL    HW3 5123   1.069   4.524   2.283
 1273SOL    MW4 5124   1.075   4.442   2.256
 1274SOL     OW 5125   1.599   4.666   2.396
 1274SOL    HW2 5126   1.678   4.682   2.344
 1274SOL    HW3 5127   1.532   4.721   2.356
 1274SOL    MW4 5128   1.600   4.675   2.384
 1275SOL     OW 5129   1.335   0.093   2.298
 1275SOL    HW2 5130   1.332   0.185   2.324
 1275SOL    HW3 5131   1.261   0.053   2.343
 1275SOL    MW4 5132   1.325   0.099   2.307
 1276SOL     OW 5133   1.336   0.378   2.403
 1276SOL    HW2 5134   1.338   0.368   2.499
 1276SOL    HW3 5135   1.418   0.424   2.383
 1276SOL    MW4 5136   1.347   0.383   2.413
 1277SOL     OW 5137   1.542   0.529   2.298
 1277SOL    HW2 5138   1.626   0.491   2.324
 1277SOL    HW3 5139   1.551   0.543   2.203
 1277SOL    MW4 5140   1.554   0.526   2.289
 1278SOL     OW 5141   1.549   0.823   2.361
 1278SOL    HW2 5142   1.626   0.849   2.310
 1278SOL    HW3 5143   1.535   0.731   2.339
 1278SOL    MW4 5144   1.558   0.815   2.351
 1279SOL     OW 5145   1.337   0.958   2.231
 1279SOL    HW2 5146   1.398   0.923   2.296
 1279SOL    HW3 5147   1.252   0.921   2.256
 1279SOL    MW4 5148   1.334   0.949   2.243
 1280SOL     OW 5149   1.357   1.216   2.323
 1280SOL    HW2 5150   1.370   1.199   2.416
 1280SOL    HW3 5151   1.348   1.129   2.284
 1280SOL    MW4 5152   1.358   1.203   2.330
 1281SOL     OW 5153   1.596   1.335   2.228
 1281SOL    HW2 5154   1.513   1.310   2.267
 1281SOL    HW3 5155   1.587   1.314   2.135
 1281SOL    MW4 5156   1.584   1.329   2.220
 1282SOL     OW 5157   1.579   1.586   2.350
 1282SOL    HW2 5158   1.635   1.652   2.310
 1282SOL    HW3 5159   1.596   1.506   2.300
 1282SOL    MW4 5160   1.588   1.584   2.338
 1283SOL     OW 5161   1.353   1.670   2.200
 1283SOL    HW2 5162   1.423   1.630   2.253
 1283SOL    HW3 5163   1.272   1.640   2.242
 1283SOL    MW4 5164   1.352   1.661   2.213
 1284SOL     OW 5165   1.399   1.928   2.315
 1284SOL    HW2 5166   1.474   1.979   2.284
 1284SOL    HW3 5167   1.387   1.860   2.249
 1284SOL    MW4 5168   1.407   1.926   2.302
 1285SOL     OW 5169   1.572   2.132   2.241
 1285SOL    HW2 5170   1.655   2.097   2.274
 1285SOL    HW3 5171   1.569   2.106   2.149
 1285SOL    MW4 5172   1.582   2.124   2.233
 1286SOL     OW 5173   1.563   2.381   2.339
 1286SOL    HW2 5174   1.565   2.360   2.432
 1286SOL    HW3 5175   1.573   2.297   2.295
 1286SOL    MW4 5176   1.564   2.367   2.346
 1287SOL     OW 5177   1.332   2.500   2.249
 1287SOL    HW2 5178   1.411   2.463   2.287
 1287SOL    HW3 5179   1.342   2.488   2.155
 1287SOL    MW4 5180   1.343   2.494   2.242
 1288SOL     OW 5181   1.339   2.755   2.373
 1288SOL    HW2 5182   1.416   2.793   2.330
 1288SOL    HW3 5183   1.330   2.668   2.333
 1288SOL    MW4 5184   1.348   2.748   2.362
 1289SOL     OW 5185   1.567   2.830   2.258
 1289SOL    HW2 5186   1.575   2.919   2.291
 1289SOL    HW3 5187   1.566   2.839   2.162
 1289SOL    MW4 5188   1.568   2.843   2.249
 1290SOL     OW 5189   1.595   3.094   2.348
 1290SOL    HW2 5190   1.591   3.081   2.443
 1290SOL    HW3 5191   1.517   3.145   2.327
 1290SOL    MW4 5192   1.584   3.099   2.358
 1291SOL     OW 5193   1.385   3.256   2.263
 1291SOL    HW2 5194   1.311   3.199   2.279
 1291SOL    HW3 5195   1.384   3.270   2.168
 1291SOL    MW4 5196   1.375   3.251   2.252
 1292SOL     OW 5197   1.346   3.520   2.365
 1292SOL    HW2 5198   1.345   3.515   2.460
 1292SOL    HW3 5199   1.374   3.433   2.336
 1292SOL    MW4 5200   1.349   3.508   2.373
 1293SOL     OW 5201   1.561   3.681   2.265
 1293SOL    HW2 5202   1.575   3.768   2.303
 1293SOL    HW3 5203   1.482   3.649   2.308
 1293SOL    MW4 5204   1.552   3.688   2.276
 1294SOL     OW 5205   1.567   3.948   2.357
 1294SOL    HW2 5206   1.568   3.933   2.452
 1294SOL    HW3 5207   1.653   3.984   2.337
 1294SOL    MW4 5208   1.579   3.951   2.367
 1295SOL     OW 5209   1.312   4.030   2.283
 1295SOL    HW2 5210   1.396   4.000   2.316
 1295SOL    HW3 5211   1.321   4.028   2.187
 1295SOL    MW4 5212   1.324   4.026   2.274
 1296SOL     OW 5213   1.320   4.303   2.343
 1296SOL    HW2 5214   1.319   4.214   2.310
 1296SOL    HW3 5215   1.236   4.340   2.315
 1296SOL    MW4 5216   1.308   4.296   2.335
 1297SOL     OW 5217   1.577   4.413   2.275
 1297SOL    HW2 5218   1.494   4.367   2.293
 1297SOL    HW3 5219   1.574   4.490   2.332
 1297SOL    MW4 5220   1.565   4.417   2.285
 1298SOL     OW 5221   2.065   4.638   2.323
 1298SOL    HW2 5222   2.136   4.680   2.275
 1298SOL    HW3 5223   2.081   4.544   2.311
 1298SOL    MW4 5224   2.076   4.631   2.315
 1299SOL     OW 5225   1.821   0.119   2.278
 1299SOL    HW2 5226   1.818   0.210   2.307
 1299SOL    HW3 5227   1.908   0.088   2.305
 1299SOL    MW4 5228   1.832   0.127   2.286
 1300SOL     OW 5229   1.748   0.381   2.380
 1300SOL    HW2 5230   1.755   0.365   2.474
 1300SOL    HW3 5231   1.832   0.421   2.356
 1300SOL    MW4 5232   1.760   0.384   2.389
 1301SOL     OW 5233   1.997   0.512   2.257
 1301SOL    HW2 5234   1.989   0.602   2.290
 1301SOL    HW3 5235   1.994   0.521   2.162
 1301SOL    MW4 5236   1.996   0.525   2.249
 1302SOL     OW 5237   2.042   0.790   2.379
 1302SOL    HW2 5238   2.120   0.822   2.334
 1302SOL    HW3 5239   1.971   0.845   2.345
 1302SOL    MW4 5240   2.043   0.802   2.368
 1303SOL     OW 5241   1.817   0.891   2.255
 1303SOL    HW2 5242   1.805   0.983   2.276
 1303SOL    HW3 5243   1.829   0.889   2.160
 1303SOL    MW4 5244   1.817   0.903   2.245
 1304SOL     OW 5245   1.790   1.162   2.342
 1304SOL    HW2 5246   1.867   1.206   2.306
 1304SOL    HW3 5247   1.716   1.217   2.315
 1304SOL    MW4 5248   1.790   1.175   2.333
 1305SOL     OW 5249   2.005   1.306   2.245
 1305SOL    HW2 5250   1.998   1.400   2.261
 1305SOL    HW3 5251   2.020   1.299   2.151
 1305SOL    MW4 5252   2.006   1.317   2.235
 1306SOL     OW 5253   2.011   1.604   2.323
 1306SOL    HW2 5254   2.008   1.589   2.418
 1306SOL    HW3 5255   1.928   1.649   2.304
 1306SOL    MW4 5256   1.999   1.608   2.333
 1307SOL     OW 5257   1.775   1.713   2.211
 1307SOL    HW2 5258   1.764   1.804   2.238
 1307SOL    HW3 5259   1.774   1.716   2.115
 1307SOL    MW4 5260   1.773   1.725   2.202
 1308SOL     OW 5261   1.777   1.972   2.348
 1308SOL    HW2 5262   1.774   1.962   2.443
 1308SOL    HW3 5263   1.862   2.012   2.331
 1308SOL    MW4 5264   1.788   1.976   2.359
 1309SOL     OW 5265   2.012   2.088   2.284
 1309SOL    HW2 5266   2.086   2.044   2.325
 1309SOL    HW3 5267   2.031   2.084   2.190
 1309SOL    MW4 5268   2.025   2.081   2.277
 1310SOL     OW 5269   2.026   2.356   2.385
 1310SOL    HW2 5270   2.104   2.398   2.347
 1310SOL    HW3 5271   2.024   2.269   2.345
 1310SOL    MW4 5272   2.036   2.350   2.374
 1311SOL     OW 5273   1.817   2.490   2.266
 1311SOL    HW2 5274   1.881   2.436   2.312
 1311SOL    HW3 5275   1.733   2.463   2.302
 1311SOL    MW4 5276   1.814   2.479   2.277
 1312SOL     OW 5277   1.790   2.735   2.394
 1312SOL    HW2 5278   1.811   2.649   2.358
 1312SOL    HW3 5279   1.714   2.765   2.344
 1312SOL    MW4 5280   1.783   2.728   2.383
 1313SOL     OW 5281   2.000   2.861   2.285
 1313SOL    HW2 5282   2.079   2.832   2.330
 1313SOL    HW3 5283   1.929   2.814   2.329
 1313SOL    MW4 5284   2.001   2.851   2.297
 1314SOL     OW 5285   2.036   3.120   2.370
 1314SOL    HW2 5286   2.117   3.147   2.328
 1314SOL    HW3 5287   2.022   3.030   2.341
 1314SOL    MW4 5288   2.045   3.112   2.361
 1315SOL     OW 5289   1.801   3.260   2.296
 1315SOL    HW2 5290   1.881   3.220   2.331
 1315SOL    HW3 5291   1.731   3.200   2.323
 1315SOL    MW4 5292   1.803   3.246   2.304
 1316SOL     OW 5293   1.788   3.548   2.376
 1316SOL    HW2 5294   1.787   3.457   2.346
 1316SOL    HW3 5295   1.715   3.589   2.330
 1316SOL    MW4 5296   1.778   3.542   2.366
 1317SOL     OW 5297   2.027   3.666   2.257
 1317SOL    HW2 5298   1.945   3.628   2.289
 1317SOL    HW3 5299   2.021   3.659   2.162
 1317SOL    MW4 5300   2.015   3.660   2.249
 1318SOL     OW 5301   2.039   3.916   2.361
 1318SOL    HW2 5302   2.056   3.906   2.455
 1318SOL    HW3 5303   2.028   3.827   2.329
 1318SOL    MW4 5304   2.040   3.903   2.369
 1319SOL     OW 5305   1.808   4.024   2.274
 1319SOL    HW2 5306   1.891   3.981   2.295
 1319SOL    HW3 5307   1.808   4.029   2.178
 1319SOL    MW4 5308   1.819   4.019   2.264
 1320SOL     OW 5309   1.831   4.279   2.360
 1320SOL    HW2 5310   1.828   4.185   2.341
 1320SOL    HW3 5311   1.756   4.316   2.314
 1320SOL    MW4 5312   1.821   4.271   2.351
 1321SOL     OW 5313   2.092   4.365   2.298
 1321SOL    HW2 5314   2.014   4.332   2.342
 1321SOL    HW3 5315   2.067   4.368   2.205
 1321SOL    MW4 5316   2.078   4.361   2.292
 1322SOL     OW 5317   2.459   4.646   2.348
 1322SOL    HW2 5318   2.538   4.693   2.319
 1322SOL    HW3 5319   2.470   4.557   2.314
 1322SOL    MW4 5320   2.471   4.641   2.340
 1323SOL     OW 5321   2.251   0.118   2.208
 1323SOL    HW2 5322   2.256   0.198   2.260
 1323SOL    HW3 5323   2.327   0.066   2.235
 1323SOL    MW4 5324   2.262   0.121   2.218
 1324SOL     OW 5325   2.232   0.357   2.345
 1324SOL    HW2 5326   2.287   0.432   2.320
 1324SOL    HW3 5327   2.142   0.388   2.332
 1324SOL    MW4 5328   2.227   0.371   2.340
 1325SOL     OW 5329   2.444   0.543   2.268
 1325SOL    HW2 5330   2.517   0.489   2.298
 1325SOL    HW3 5331   2.446   0.535   2.172
 1325SOL    MW4 5332   2.454   0.535   2.259
 1326SOL     OW 5333   2.455   0.801   2.341
 1326SOL    HW2 5334   2.527   0.844   2.295
 1326SOL    HW3 5335   2.460   0.709   2.314
 1326SOL    MW4 5336   2.465   0.795   2.331
 1327SOL     OW 5337   2.247   0.907   2.203
 1327SOL    HW2 5338   2.247   0.991   2.248
 1327SOL    HW3 5339   2.317   0.857   2.245
 1327SOL    MW4 5340   2.256   0.911   2.215
 1328SOL     OW 5341   2.225   1.173   2.316
 1328SOL    HW2 5342   2.295   1.213   2.265
 1328SOL    HW3 5343   2.148   1.226   2.297
 1328SOL    MW4 5344   2.224   1.185   2.307
 1329SOL     OW 5345   2.458   1.270   2.224
 1329SOL    HW2 5346   2.524   1.220   2.272
 1329SOL    HW3 5347   2.455   1.355   2.267
 1329SOL    MW4 5348   2.466   1.275   2.236
 1330SOL     OW 5349   2.460   1.510   2.372
 1330SOL    HW2 5350   2.476   1.493   2.465
 1330SOL    HW3 5351   2.538   1.558   2.343
 1330SOL    MW4 5352   2.472   1.514   2.381
 1331SOL     OW 5353   2.259   1.681   2.241
 1331SOL    HW2 5354   2.318   1.630   2.296
 1331SOL    HW3 5355   2.174   1.638   2.249
 1331SOL    MW4 5356   2.256   1.669   2.249
 1332SOL     OW 5357   2.229   1.935   2.389
 1332SOL    HW2 5358   2.306   1.983   2.359
 1332SOL    HW3 5359   2.222   1.861   2.330
 1332SOL    MW4 5360   2.238   1.932   2.377
 1333SOL     OW 5361   2.484   2.059   2.285
 1333SOL    HW2 5362   2.567   2.015   2.303
 1333SOL    HW3 5363   2.477   2.058   2.189
 1333SOL    MW4 5364   2.494   2.053   2.275
 1334SOL     OW 5365   2.456   2.353   2.356
 1334SOL    HW2 5366   2.525   2.401   2.310
 1334SOL    HW3 5367   2.464   2.263   2.324
 1334SOL    MW4 5368   2.466   2.348   2.346
 1335SOL     OW 5369   2.243   2.494   2.274
 1335SOL    HW2 5370   2.244   2.582   2.311
 1335SOL    HW3 5371   2.314   2.449   2.320
 1335SOL    MW4 5372   2.253   2.500   2.285
 1336SOL     OW 5373   2.252   2.757   2.379
 1336SOL    HW2 5374   2.236   2.753   2.473
 1336SOL    HW3 5375   2.344   2.782   2.371
 1336SOL    MW4 5376   2.262   2.760   2.390
 1337SOL     OW 5377   2.498   2.839   2.294
 1337SOL    HW2 5378   2.588   2.809   2.303
 1337SOL    HW3 5379   2.479   2.832   2.200
 1337SOL    MW4 5380   2.507   2.834   2.283
 1338SOL     OW 5381   2.482   3.104   2.344
 1338SOL    HW2 5382   2.566   3.137   2.310
 1338SOL    HW3 5383   2.486   3.010   2.329
 1338SOL    MW4 5384   2.494   3.096   2.337
 1339SOL     OW 5385   2.253   3.211   2.241
 1339SOL    HW2 5386   2.259   3.302   2.270
 1339SOL    HW3 5387   2.324   3.167   2.287
 1339SOL    MW4 5388   2.263   3.217   2.251
 1340SOL     OW 5389   2.214   3.476   2.331
 1340SOL    HW2 5390   2.209   3.472   2.427
 1340SOL    HW3 5391   2.139   3.530   2.306
 1340SOL    MW4 5392   2.203   3.483   2.340
 1341SOL     OW 5393   2.427   3.602   2.207
 1341SOL    HW2 5394   2.428   3.690   2.245
 1341SOL    HW3 5395   2.358   3.556   2.255
 1341SOL    MW4 5396   2.418   3.608   2.219
 1342SOL     OW 5397   2.452   3.879   2.326
 1342SOL    HW2 5398   2.459   3.895   2.420
 1342SOL    HW3 5399   2.375   3.928   2.299
 1342SOL    MW4 5400   2.443   3.887   2.335
 1343SOL     OW 5401   2.251   4.050   2.234
 1343SOL    HW2 5402   2.268   4.127   2.287
 1343SOL    HW3 5403   2.163   4.022   2.259
 1343SOL    MW4 5404   2.242   4.056   2.244
 1344SOL     OW 5405   2.315   4.255   2.402
 1344SOL    HW2 5406   2.303   4.228   2.493
 1344SOL    HW3 5407   2.240   4.312   2.383
 1344SOL    MW4 5408   2.304   4.259   2.411
 1345SOL     OW 5409   2.519   4.394   2.271
 1345SOL    HW2 5410   2.601   4.358   2.305
 1345SOL    HW3 5411   2.452   4.332   2.301
 1345SOL    MW4 5412   2.521   4.381   2.280
 1346SOL     OW 5413   2.885   0.004   2.301
 1346SOL    HW2 5414   2.965   0.053   2.282
 1346SOL    HW3 5415   2.908  -0.087   2.282
 1346SOL    MW4 5416   2.899  -0.002   2.296
 1347SOL     OW 5417   2.674   0.156   2.210
 1347SOL    HW2 5418   2.672   0.220   2.281
 1347SOL    HW3 5419   2.741   0.093   2.237
 1347SOL    MW4 5420   2.683   0.156   2.223
 1348SOL     OW 5421   2.632   0.372   2.372
 1348SOL    HW2 5422   2.632   0.369   2.467
 1348SOL    HW3 5423   2.707   0.427   2.349
 1348SOL    MW4 5424   2.642   0.379   2.381
 1349SOL     OW 5425   2.850   0.495   2.249
 1349SOL    HW2 5426   2.879   0.579   2.284
 1349SOL    HW3 5427   2.865   0.501   2.155
 1349SOL    MW4 5428   2.856   0.507   2.241
 1350SOL     OW 5429   2.890   0.784   2.330
 1350SOL    HW2 5430   2.872   0.769   2.423
 1350SOL    HW3 5431   2.806   0.814   2.294
 1350SOL    MW4 5432   2.876   0.786   2.338
 1351SOL     OW 5433   2.674   0.894   2.218
 1351SOL    HW2 5434   2.689   0.983   2.249
 1351SOL    HW3 5435   2.695   0.896   2.125
 1351SOL    MW4 5436   2.679   0.906   2.210
 1352SOL     OW 5437   2.674   1.152   2.339
 1352SOL    HW2 5438   2.674   1.175   2.432
 1352SOL    HW3 5439   2.746   1.204   2.302
 1352SOL    MW4 5440   2.684   1.162   2.347
 1353SOL     OW 5441   2.905   1.283   2.250
 1353SOL    HW2 5442   2.991   1.260   2.285
 1353SOL    HW3 5443   2.918   1.287   2.155
 1353SOL    MW4 5444   2.918   1.280   2.242
 1354SOL     OW 5445   2.928   1.539   2.350
 1354SOL    HW2 5446   2.916   1.541   2.445
 1354SOL    HW3 5447   2.914   1.448   2.326
 1354SOL    MW4 5448   2.925   1.527   2.359
 1355SOL     OW 5449   2.681   1.660   2.283
 1355SOL    HW2 5450   2.765   1.618   2.299
 1355SOL    HW3 5451   2.677   1.671   2.188
 1355SOL    MW4 5452   2.691   1.656   2.273
 1356SOL     OW 5453   2.708   1.917   2.371
 1356SOL    HW2 5454   2.695   1.924   2.465
 1356SOL    HW3 5455   2.701   1.823   2.353
 1356SOL    MW4 5456   2.705   1.905   2.381
 1357SOL     OW 5457   2.911   2.071   2.267
 1357SOL    HW2 5458   2.994   2.032   2.296
 1357SOL    HW3 5459   2.844   2.018   2.310
 1357SOL    MW4 5460   2.913   2.059   2.276
 1358SOL     OW 5461   2.892   2.339   2.363
 1358SOL    HW2 5462   2.883   2.320   2.456
 1358SOL    HW3 5463   2.892   2.254   2.320
 1358SOL    MW4 5464   2.891   2.325   2.370
 1359SOL     OW 5465   2.671   2.492   2.250
 1359SOL    HW2 5466   2.738   2.434   2.285
 1359SOL    HW3 5467   2.695   2.504   2.158
 1359SOL    MW4 5468   2.683   2.486   2.242
 1360SOL     OW 5469   2.737   2.727   2.393
 1360SOL    HW2 5470   2.810   2.770   2.349
 1360SOL    HW3 5471   2.719   2.650   2.340
 1360SOL    MW4 5472   2.744   2.722   2.380
 1361SOL     OW 5473   2.948   2.870   2.275
 1361SOL    HW2 5474   2.947   2.962   2.299
 1361SOL    HW3 5475   2.968   2.869   2.181
 1361SOL    MW4 5476   2.951   2.882   2.265
 1362SOL     OW 5477   2.919   3.120   2.398
 1362SOL    HW2 5478   2.997   3.161   2.360
 1362SOL    HW3 5479   2.846   3.154   2.346
 1362SOL    MW4 5480   2.920   3.130   2.386
 1363SOL     OW 5481   2.713   3.222   2.244
 1363SOL    HW2 5482   2.695   3.314   2.265
 1363SOL    HW3 5483   2.738   3.224   2.151
 1363SOL    MW4 5484   2.714   3.234   2.234
 1364SOL     OW 5485   2.648   3.464   2.347
 1364SOL    HW2 5486   2.721   3.520   2.322
 1364SOL    HW3 5487   2.571   3.504   2.305
 1364SOL    MW4 5488   2.647   3.477   2.338
 1365SOL     OW 5489   2.838   3.636   2.222
 1365SOL    HW2 5490   2.915   3.584   2.245
 1365SOL    HW3 5491   2.858   3.723   2.254
 1365SOL    MW4 5492   2.851   3.640   2.229
 1366SOL     OW 5493   2.881   3.888   2.341
 1366SOL    HW2 5494   2.874   3.888   2.437
 1366SOL    HW3 5495   2.801   3.932   2.312
 1366SOL    MW4 5496   2.869   3.894   2.350
 1367SOL     OW 5497   2.651   4.039   2.246
 1367SOL    HW2 5498   2.573   3.995   2.278
 1367SOL    HW3 5499   2.640   4.041   2.151
 1367SOL    MW4 5500   2.639   4.034   2.237
 1368SOL     OW 5501   2.759   4.273   2.350
 1368SOL    HW2 5502   2.744   4.279   2.445
 1368SOL    HW3 5503   2.719   4.190   2.325
 1368SOL    MW4 5504   2.751   4.263   2.359
 1369SOL     OW 5505   2.958   4.410   2.224
 1369SOL    HW2 5506   3.034   4.381   2.276
 1369SOL    HW3 5507   2.883   4.365   2.264
 1369SOL    MW4 5508   2.958   4.400   2.236
 1370SOL     OW 5509   3.327   4.658   2.339
 1370SOL    HW2 5510   3.334   4.664   2.435
 1370SOL    HW3 5511   3.408   4.696   2.307
 1370SOL    MW4 5512   3.338   4.664   2.348
 1371SOL     OW 5513   3.117   0.126   2.218
 1371SOL    HW2 5514   3.105   0.208   2.266
 1371SOL    HW3 5515   3.196   0.087   2.256
 1371SOL    MW4 5516   3.126   0.131   2.230
 1372SOL     OW 5517   3.096   0.365   2.345
 1372SOL    HW2 5518   3.176   0.415   2.328
 1372SOL    HW3 5519   3.027   0.414   2.301
 1372SOL    MW4 5520   3.097   0.378   2.337
 1373SOL     OW 5521   3.327   0.497   2.245
 1373SOL    HW2 5522   3.414   0.474   2.278
 1373SOL    HW3 5523   3.339   0.502   2.150
 1373SOL    MW4 5524   3.340   0.495   2.237
 1374SOL     OW 5525   3.337   0.756   2.333
 1374SOL    HW2 5526   3.419   0.798   2.304
 1374SOL    HW3 5527   3.346   0.665   2.307
 1374SOL    MW4 5528   3.349   0.750   2.326
 1375SOL     OW 5529   3.101   0.924   2.234
 1375SOL    HW2 5530   3.170   0.859   2.248
 1375SOL    HW3 5531   3.022   0.883   2.270
 1375SOL    MW4 5532   3.100   0.910   2.241
 1376SOL     OW 5533   3.157   1.161   2.380
 1376SOL    HW2 5534   3.235   1.190   2.331
 1376SOL    HW3 5535   3.130   1.080   2.336
 1376SOL    MW4 5536   3.164   1.154   2.368
 1377SOL     OW 5537   3.369   1.286   2.254
 1377SOL    HW2 5538   3.455   1.255   2.282
 1377SOL    HW3 5539   3.366   1.378   2.281
 1377SOL    MW4 5540   3.380   1.294   2.261
 1378SOL     OW 5541   3.387   1.531   2.354
 1378SOL    HW2 5542   3.387   1.538   2.449
 1378SOL    HW3 5543   3.301   1.562   2.327
 1378SOL    MW4 5544   3.376   1.536   2.363
 1379SOL     OW 5545   3.153   1.650   2.252
 1379SOL    HW2 5546   3.142   1.744   2.267
 1379SOL    HW3 5547   3.070   1.611   2.281
 1379SOL    MW4 5548   3.140   1.657   2.258
 1380SOL     OW 5549   3.145   1.916   2.334
 1380SOL    HW2 5550   3.161   1.917   2.429
 1380SOL    HW3 5551   3.208   1.979   2.299
 1380SOL    MW4 5552   3.156   1.924   2.342
 1381SOL     OW 5553   3.347   2.092   2.245
 1381SOL    HW2 5554   3.410   2.047   2.302
 1381SOL    HW3 5555   3.372   2.065   2.157
 1381SOL    MW4 5556   3.359   2.082   2.241
 1382SOL     OW 5557   3.371   2.341   2.371
 1382SOL    HW2 5558   3.297   2.391   2.336
 1382SOL    HW3 5559   3.369   2.258   2.323
 1382SOL    MW4 5560   3.361   2.337   2.360
 1383SOL     OW 5561   3.132   2.461   2.268
 1383SOL    HW2 5562   3.132   2.549   2.306
 1383SOL    HW3 5563   3.054   2.419   2.304
 1383SOL    MW4 5564   3.122   2.467   2.278
 1384SOL     OW 5565   3.179   2.714   2.382
 1384SOL    HW2 5566   3.193   2.710   2.477
 1384SOL    HW3 5567   3.102   2.769   2.371
 1384SOL    MW4 5568   3.171   2.721   2.394
 1385SOL     OW 5569   3.391   2.843   2.241
 1385SOL    HW2 5570   3.395   2.936   2.265
 1385SOL    HW3 5571   3.304   2.814   2.268
 1385SOL    MW4 5572   3.380   2.852   2.248
 1386SOL     OW 5573   3.395   3.110   2.326
 1386SOL    HW2 5574   3.464   3.160   2.283
 1386SOL    HW3 5575   3.316   3.162   2.313
 1386SOL    MW4 5576   3.393   3.123   2.318
 1387SOL     OW 5577   3.160   3.242   2.264
 1387SOL    HW2 5578   3.141   3.333   2.286
 1387SOL    HW3 5579   3.166   3.242   2.168
 1387SOL    MW4 5580   3.158   3.254   2.254
 1388SOL     OW 5581   3.075   3.498   2.316
 1388SOL    HW2 5582   3.084   3.487   2.411
 1388SOL    HW3 5583   3.161   3.528   2.288
 1388SOL    MW4 5584   3.088   3.500   2.325
 1389SOL     OW 5585   3.328   3.596   2.237
 1389SOL    HW2 5586   3.410   3.556   2.266
 1389SOL    HW3 5587   3.339   3.606   2.142
 1389SOL    MW4 5588   3.340   3.592   2.228
 1390SOL     OW 5589   3.340   3.845   2.361
 1390SOL    HW2 5590   3.406   3.910   2.336
 1390SOL    HW3 5591   3.355   3.772   2.302
 1390SOL    MW4 5592   3.351   3.844   2.350
 1391SOL     OW 5593   3.132   4.003   2.262
 1391SOL    HW2 5594   3.206   3.951   2.293
 1391SOL    HW3 5595   3.055   3.961   2.301
 1391SOL    MW4 5596   3.132   3.991   2.271
 1392SOL     OW 5597   3.144   4.250   2.397
 1392SOL    HW2 5598   3.217   4.296   2.355
 1392SOL    HW3 5599   3.142   4.164   2.354
 1392SOL    MW4 5600   3.153   4.245   2.386
 1393SOL     OW 5601   3.322   4.403   2.246
 1393SOL    HW2 5602   3.328   4.496   2.270
 1393SOL    HW3 5603   3.311   4.403   2.151
 1393SOL    MW4 5604   3.321   4.415   2.237
 1394SOL     OW 5605   3.820   0.031   2.335
 1394SOL    HW2 5606   3.841   0.003   2.424
 1394SOL    HW3 5607   3.890   0.093   2.312
 1394SOL    MW4 5608   3.832   0.036   2.344
 1395SOL     OW 5609   3.565   0.117   2.254
 1395SOL    HW2 5610   3.547   0.199   2.301
 1395SOL    HW3 5611   3.649   0.087   2.289
 1395SOL    MW4 5612   3.574   0.124   2.265
 1396SOL     OW 5613   3.543   0.384   2.381
 1396SOL    HW2 5614   3.544   0.385   2.477
 1396SOL    HW3 5615   3.629   0.417   2.355
 1396SOL    MW4 5616   3.554   0.389   2.390
 1397SOL     OW 5617   3.762   0.530   2.261
 1397SOL    HW2 5618   3.762   0.624   2.279
 1397SOL    HW3 5619   3.773   0.524   2.166
 1397SOL    MW4 5620   3.764   0.541   2.251
 1398SOL     OW 5621   3.791   0.779   2.358
 1398SOL    HW2 5622   3.782   0.785   2.453
 1398SOL    HW3 5623   3.871   0.829   2.338
 1398SOL    MW4 5624   3.800   0.787   2.368
 1399SOL     OW 5625   3.558   0.912   2.238
 1399SOL    HW2 5626   3.639   0.883   2.282
 1399SOL    HW3 5627   3.578   0.903   2.144
 1399SOL    MW4 5628   3.572   0.907   2.231
 1400SOL     OW 5629   3.612   1.167   2.329
 1400SOL    HW2 5630   3.573   1.163   2.416
 1400SOL    HW3 5631   3.615   1.076   2.299
 1400SOL    MW4 5632   3.607   1.154   2.336
 1401SOL     OW 5633   3.844   1.286   2.239
 1401SOL    HW2 5634   3.849   1.376   2.270
 1401SOL    HW3 5635   3.755   1.258   2.261
 1401SOL    MW4 5636   3.833   1.294   2.246
 1402SOL     OW 5637   3.814   1.552   2.326
 1402SOL    HW2 5638   3.809   1.557   2.421
 1402SOL    HW3 5639   3.739   1.603   2.295
 1402SOL    MW4 5640   3.804   1.559   2.335
 1403SOL     OW 5641   3.584   1.651   2.220
 1403SOL    HW2 5642   3.523   1.597   2.269
 1403SOL    HW3 5643   3.547   1.656   2.132
 1403SOL    MW4 5644   3.571   1.645   2.215
 1404SOL     OW 5645   3.570   1.915   2.318
 1404SOL    HW2 5646   3.643   1.975   2.299
 1404SOL    HW3 5647   3.602   1.829   2.289
 1404SOL    MW4 5648   3.584   1.911   2.311
 1405SOL     OW 5649   3.807   2.040   2.237
 1405SOL    HW2 5650   3.884   1.996   2.273
 1405SOL    HW3 5651   3.813   2.026   2.142
 1405SOL    MW4 5652   3.818   2.032   2.229
 1406SOL     OW 5653   3.820   2.290   2.369
 1406SOL    HW2 5654   3.749   2.342   2.332
 1406SOL    HW3 5655   3.800   2.200   2.343
 1406SOL    MW4 5656   3.808   2.285   2.360
 1407SOL     OW 5657   3.614   2.452   2.264
 1407SOL    HW2 5658   3.527   2.416   2.281
 1407SOL    HW3 5659   3.625   2.446   2.169
 1407SOL    MW4 5660   3.604   2.446   2.254
 1408SOL     OW 5661   3.625   2.723   2.364
 1408SOL    HW2 5662   3.601   2.635   2.336
 1408SOL    HW3 5663   3.551   2.778   2.336
 1408SOL    MW4 5664   3.612   2.719   2.356
 1409SOL     OW 5665   3.866   2.807   2.243
 1409SOL    HW2 5666   3.866   2.902   2.251
 1409SOL    HW3 5667   3.793   2.778   2.298
 1409SOL    MW4 5668   3.857   2.816   2.251
 1410SOL     OW 5669   3.827   3.089   2.327
 1410SOL    HW2 5670   3.826   3.101   2.422
 1410SOL    HW3 5671   3.913   3.121   2.299
 1410SOL    MW4 5672   3.838   3.095   2.336
 1411SOL     OW 5673   3.631   3.230   2.216
 1411SOL    HW2 5674   3.631   3.320   2.248
 1411SOL    HW3 5675   3.705   3.189   2.261
 1411SOL    MW4 5676   3.641   3.236   2.226
 1412SOL     OW 5677   3.592   3.494   2.303
 1412SOL    HW2 5678   3.572   3.488   2.397
 1412SOL    HW3 5679   3.680   3.532   2.301
 1412SOL    MW4 5680   3.601   3.498   2.315
 1413SOL     OW 5681   3.824   3.607   2.254
 1413SOL    HW2 5682   3.838   3.698   2.278
 1413SOL    HW3 5683   3.800   3.609   2.161
 1413SOL    MW4 5684   3.822   3.619   2.245
 1414SOL     OW 5685   3.791   3.874   2.311
 1414SOL    HW2 5686   3.790   3.871   2.406
 1414SOL    HW3 5687   3.865   3.930   2.289
 1414SOL    MW4 5688   3.801   3.881   2.321
 1415SOL     OW 5689   3.547   4.021   2.274
 1415SOL    HW2 5690   3.560   4.111   2.303
 1415SOL    HW3 5691   3.632   3.979   2.292
 1415SOL    MW4 5692   3.560   4.027   2.280
 1416SOL     OW 5693   3.569   4.283   2.359
 1416SOL    HW2 5694   3.642   4.327   2.315
 1416SOL    HW3 5695   3.491   4.325   2.323
 1416SOL    MW4 5696   3.568   4.295   2.348
 1417SOL     OW 5697   3.775   4.434   2.228
 1417SOL    HW2 5698   3.843   4.381   2.268
 1417SOL    HW3 5699   3.793   4.524   2.256
 1417SOL    MW4 5700   3.786   4.439   2.237
 1418SOL     OW 5701   4.226   0.028   2.340
 1418SOL    HW2 5702   4.245  -0.006   2.427
 1418SOL    HW3 5703   4.311   0.048   2.303
 1418SOL    MW4 5704   4.240   0.026   2.347
 1419SOL     OW 5705   4.020   0.189   2.221
 1419SOL    HW2 5706   4.014   0.264   2.279
 1419SOL    HW3 5707   4.071   0.124   2.270
 1419SOL    MW4 5708   4.026   0.190   2.235
 1420SOL     OW 5709   3.991   0.413   2.385
 1420SOL    HW2 5710   4.060   0.453   2.332
 1420SOL    HW3 5711   3.911   0.459   2.360
 1420SOL    MW4 5712   3.990   0.425   2.375
 1421SOL     OW 5713   4.209   0.485   2.229
 1421SOL    HW2 5714   4.218   0.573   2.267
 1421SOL    HW3 5715   4.283   0.436   2.265
 1421SOL    MW4 5716   4.220   0.490   2.239
 1422SOL     OW 5717   4.257   0.749   2.327
 1422SOL    HW2 5718   4.179   0.800   2.307
 1422SOL    HW3 5719   4.329   0.798   2.288
 1422SOL    MW4 5720   4.256   0.762   2.320
 1423SOL     OW 5721   4.024   0.912   2.260
 1423SOL    HW2 5722   4.033   1.001   2.292
 1423SOL    HW3 5723   4.037   0.919   2.165
 1423SOL    MW4 5724   4.027   0.924   2.252
 1424SOL     OW 5725   4.058   1.162   2.357
 1424SOL    HW2 5726   4.039   1.159   2.451
 1424SOL    HW3 5727   3.988   1.214   2.319
 1424SOL    MW4 5728   4.047   1.168   2.364
 1425SOL     OW 5729   4.284   1.258   2.243
 1425SOL    HW2 5730   4.207   1.217   2.282
 1425SOL    HW3 5731   4.357   1.223   2.293
 1425SOL    MW4 5732   4.283   1.248   2.255
 1426SOL     OW 5733   4.238   1.512   2.330
 1426SOL    HW2 5734   4.238   1.428   2.284
 1426SOL    HW3 5735   4.322   1.551   2.308
 1426SOL    MW4 5736   4.249   1.506   2.321
 1427SOL     OW 5737   4.038   1.685   2.248
 1427SOL    HW2 5738   4.118   1.641   2.276
 1427SOL    HW3 5739   3.967   1.633   2.286
 1427SOL    MW4 5740   4.039   1.672   2.257
 1428SOL     OW 5741   4.059   1.948   2.324
 1428SOL    HW2 5742   4.048   1.946   2.419
 1428SOL    HW3 5743   4.052   1.857   2.297
 1428SOL    MW4 5744   4.057   1.936   2.333
 1429SOL     OW 5745   4.274   2.069   2.223
 1429SOL    HW2 5746   4.274   2.148   2.276
 1429SOL    HW3 5747   4.199   2.019   2.254
 1429SOL    MW4 5748   4.264   2.073   2.234
 1430SOL     OW 5749   4.278   2.302   2.371
 1430SOL    HW2 5750   4.199   2.331   2.324
 1430SOL    HW3 5751   4.349   2.348   2.327
 1430SOL    MW4 5752   4.277   2.312   2.359
 1431SOL     OW 5753   4.042   2.381   2.250
 1431SOL    HW2 5754   4.037   2.473   2.275
 1431SOL    HW3 5755   3.969   2.340   2.295
 1431SOL    MW4 5756   4.032   2.388   2.259
 1432SOL     OW 5757   4.089   2.651   2.299
 1432SOL    HW2 5758   4.097   2.665   2.394
 1432SOL    HW3 5759   4.009   2.698   2.274
 1432SOL    MW4 5760   4.080   2.659   2.308
 1433SOL     OW 5761   4.297   2.814   2.213
 1433SOL    HW2 5762   4.226   2.760   2.248
 1433SOL    HW3 5763   4.376   2.780   2.255
 1433SOL    MW4 5764   4.298   2.802   2.223
 1434SOL     OW 5765   4.278   3.034   2.350
 1434SOL    HW2 5766   4.296   2.946   2.317
 1434SOL    HW3 5767   4.359   3.083   2.335
 1434SOL    MW4 5768   4.291   3.029   2.344
 1435SOL     OW 5769   4.076   3.163   2.208
 1435SOL    HW2 5770   4.086   3.245   2.257
 1435SOL    HW3 5771   4.148   3.108   2.238
 1435SOL    MW4 5772   4.087   3.166   2.219
 1436SOL     OW 5773   4.052   3.431   2.317
 1436SOL    HW2 5774   4.126   3.483   2.287
 1436SOL    HW3 5775   3.975   3.477   2.284
 1436SOL    MW4 5776   4.052   3.444   2.308
 1437SOL     OW 5777   4.254   3.577   2.216
 1437SOL    HW2 5778   4.242   3.670   2.237
 1437SOL    HW3 5779   4.247   3.574   2.120
 1437SOL    MW4 5780   4.252   3.589   2.206
 1438SOL     OW 5781   4.223   3.843   2.305
 1438SOL    HW2 5782   4.231   3.817   2.396
 1438SOL    HW3 5783   4.302   3.894   2.287
 1438SOL    MW4 5784   4.235   3.846   2.314
 1439SOL     OW 5785   3.993   4.045   2.238
 1439SOL    HW2 5786   4.070   4.017   2.287
 1439SOL    HW3 5787   4.023   4.048   2.147
 1439SOL    MW4 5788   4.007   4.042   2.232
 1440SOL     OW 5789   3.998   4.309   2.345
 1440SOL    HW2 5790   4.069   4.365   2.314
 1440SOL    HW3 5791   4.013   4.225   2.300
 1440SOL    MW4 5792   4.009   4.305   2.335
 1441SOL     OW 5793   4.230   4.434   2.249
 1441SOL    HW2 5794   4.223   4.526   2.273
 1441SOL    HW3 5795   4.304   4.401   2.300
 1441SOL    MW4 5796   4.239   4.442   2.259
 1442SOL     OW 5797   0.222   4.583   2.640
 1442SOL    HW2 5798   0.197   4.495   2.668
 1442SOL    HW3 5799   0.150   4.639   2.669
 1442SOL    MW4 5800   0.209   4.579   2.648
 1443SOL     OW 5801   0.003   0.073   2.734
 1443SOL    HW2 5802   0.019   0.098   2.826
 1443SOL    HW3 5803  -0.014   0.156   2.689
 1443SOL    MW4 5804   0.003   0.087   2.741
 1444SOL     OW 5805   4.466   0.350   2.606
 1444SOL    HW2 5806   4.553   0.389   2.618
 1444SOL    HW3 5807   4.453   0.349   2.512
 1444SOL    MW4 5808   4.476   0.355   2.596
 1445SOL     OW 5809   0.211   0.478   2.691
 1445SOL    HW2 5810   0.226   0.476   2.786
 1445SOL    HW3 5811   0.286   0.431   2.654
 1445SOL    MW4 5812   0.223   0.472   2.699
 1446SOL     OW 5813   0.197   0.770   2.590
 1446SOL    HW2 5814   0.284   0.803   2.608
 1446SOL    HW3 5815   0.199   0.679   2.619
 1446SOL    MW4 5816   0.208   0.762   2.596
 1447SOL     OW 5817   0.004   0.910   2.718
 1447SOL    HW2 5818  -0.075   0.874   2.678
 1447SOL    HW3 5819   0.076   0.873   2.667
 1447SOL    MW4 5820   0.003   0.901   2.706
 1448SOL     OW 5821   0.002   1.168   2.628
 1448SOL    HW2 5822   0.082   1.212   2.658
 1448SOL    HW3 5823   0.009   1.079   2.662
 1448SOL    MW4 5824   0.013   1.162   2.636
 1449SOL     OW 5825   0.233   1.303   2.729
 1449SOL    HW2 5826   0.303   1.254   2.686
 1449SOL    HW3 5827   0.221   1.381   2.675
 1449SOL    MW4 5828   0.240   1.307   2.716
 1450SOL     OW 5829   0.196   1.558   2.588
 1450SOL    HW2 5830   0.268   1.585   2.645
 1450SOL    HW3 5831   0.121   1.608   2.620
 1450SOL    MW4 5832   0.196   1.568   2.599
 1451SOL     OW 5833   4.464   1.667   2.694
 1451SOL    HW2 5834   4.466   1.680   2.789
 1451SOL    HW3 5835   4.441   1.754   2.659
 1451SOL    MW4 5836   4.461   1.680   2.702
 1452SOL     OW 5837   4.464   1.939   2.625
 1452SOL    HW2 5838   4.539   1.978   2.670
 1452SOL    HW3 5839   4.481   1.954   2.532
 1452SOL    MW4 5840   4.476   1.946   2.618
 1453SOL     OW 5841   0.204   2.083   2.706
 1453SOL    HW2 5842   0.285   2.040   2.678
 1453SOL    HW3 5843   0.207   2.168   2.662
 1453SOL    MW4 5844   0.215   2.089   2.697
 1454SOL     OW 5845   0.214   2.328   2.579
 1454SOL    HW2 5846   0.289   2.371   2.621
 1454SOL    HW3 5847   0.139   2.351   2.634
 1454SOL    MW4 5848   0.214   2.337   2.592
 1455SOL     OW 5849   4.484   2.415   2.698
 1455SOL    HW2 5850   4.481   2.420   2.793
 1455SOL    HW3 5851   4.395   2.392   2.673
 1455SOL    MW4 5852   4.472   2.412   2.707
 1456SOL     OW 5853   0.026   2.697   2.626
 1456SOL    HW2 5854  -0.051   2.735   2.669
 1456SOL    HW3 5855   0.028   2.607   2.657
 1456SOL    MW4 5856   0.016   2.690   2.636
 1457SOL     OW 5857   0.253   2.790   2.743
 1457SOL    HW2 5858   0.268   2.870   2.693
 1457SOL    HW3 5859   0.168   2.759   2.713
 1457SOL    MW4 5860   0.244   2.797   2.732
 1458SOL     OW 5861   0.232   3.056   2.657
 1458SOL    HW2 5862   0.304   3.107   2.692
 1458SOL    HW3 5863   0.243   3.059   2.562
 1458SOL    MW4 5864   0.243   3.063   2.649
 1459SOL     OW 5865   4.474   3.167   2.733
 1459SOL    HW2 5866   4.401   3.125   2.688
 1459SOL    HW3 5867   4.551   3.115   2.710
 1459SOL    MW4 5868   4.475   3.155   2.724
 1460SOL     OW 5869   4.471   3.453   2.650
 1460SOL    HW2 5870   4.550   3.501   2.674
 1460SOL    HW3 5871   4.487   3.364   2.682
 1460SOL    MW4 5872   4.484   3.447   2.657
 1461SOL     OW 5873   0.195   3.587   2.736
 1461SOL    HW2 5874   0.214   3.586   2.829
 1461SOL    HW3 5875   0.271   3.545   2.695
 1461SOL    MW4 5876   0.208   3.582   2.743
 1462SOL     OW 5877   0.189   3.856   2.657
 1462SOL    HW2 5878   0.191   3.763   2.680
 1462SOL    HW3 5879   0.208   3.858   2.563
 1462SOL    MW4 5880   0.192   3.844   2.648
 1463SOL     OW 5881   4.436   3.958   2.715
 1463SOL    HW2 5882   4.446   4.051   2.694
 1463SOL    HW3 5883   4.523   3.920   2.702
 1463SOL    MW4 5884   4.449   3.965   2.711
 1464SOL     OW 5885   4.437   4.212   2.602
 1464SOL    HW2 5886   4.375   4.268   2.649
 1464SOL    HW3 5887   4.523   4.251   2.620
 1464SOL    MW4 5888   4.440   4.225   2.610
 1465SOL     OW 5889   0.181   4.324   2.701
 1465SOL    HW2 5890   0.185   4.363   2.789
 1465SOL    HW3 5891   0.266   4.282   2.689
 1465SOL    MW4 5892   0.192   4.324   2.711
 1466SOL     OW 5893   0.649   4.643   2.594
 1466SOL    HW2 5894   0.722   4.689   2.635
 1466SOL    HW3 5895   0.571   4.679   2.636
 1466SOL    MW4 5896   0.648   4.654   2.605
 1467SOL     OW 5897   0.417   0.091   2.708
 1467SOL    HW2 5898   0.413   0.080   2.803
 1467SOL    HW3 5899   0.351   0.031   2.674
 1467SOL    MW4 5900   0.408   0.082   2.716
 1468SOL     OW 5901   0.428   0.341   2.591
 1468SOL    HW2 5902   0.504   0.385   2.630
 1468SOL    HW3 5903   0.429   0.253   2.628
 1468SOL    MW4 5904   0.438   0.335   2.601
 1469SOL     OW 5905   0.633   0.486   2.726
 1469SOL    HW2 5906   0.634   0.506   2.819
 1469SOL    HW3 5907   0.720   0.450   2.708
 1469SOL    MW4 5908   0.645   0.484   2.736
 1470SOL     OW 5909   0.685   0.716   2.596
 1470SOL    HW2 5910   0.769   0.748   2.630
 1470SOL    HW3 5911   0.672   0.632   2.639
 1470SOL    MW4 5912   0.694   0.709   2.606
 1471SOL     OW 5913   0.456   0.877   2.647
 1471SOL    HW2 5914   0.465   0.967   2.617
 1471SOL    HW3 5915   0.545   0.841   2.641
 1471SOL    MW4 5916   0.469   0.884   2.643
 1472SOL     OW 5917   0.448   1.154   2.610
 1472SOL    HW2 5918   0.525   1.199   2.647
 1472SOL    HW3 5919   0.462   1.156   2.516
 1472SOL    MW4 5920   0.460   1.160   2.603
 1473SOL     OW 5921   0.674   1.276   2.713
 1473SOL    HW2 5922   0.669   1.256   2.806
 1473SOL    HW3 5923   0.751   1.229   2.682
 1473SOL    MW4 5924   0.683   1.267   2.721
 1474SOL     OW 5925   0.668   1.542   2.626
 1474SOL    HW2 5926   0.590   1.577   2.669
 1474SOL    HW3 5927   0.666   1.449   2.646
 1474SOL    MW4 5928   0.657   1.535   2.634
 1475SOL     OW 5929   0.425   1.654   2.722
 1475SOL    HW2 5930   0.431   1.670   2.817
 1475SOL    HW3 5931   0.424   1.741   2.683
 1475SOL    MW4 5932   0.426   1.667   2.730
 1476SOL     OW 5933   0.432   1.908   2.612
 1476SOL    HW2 5934   0.511   1.949   2.647
 1476SOL    HW3 5935   0.439   1.919   2.518
 1476SOL    MW4 5936   0.444   1.915   2.605
 1477SOL     OW 5937   0.647   2.052   2.687
 1477SOL    HW2 5938   0.643   2.054   2.782
 1477SOL    HW3 5939   0.730   2.010   2.667
 1477SOL    MW4 5940   0.657   2.047   2.697
 1478SOL     OW 5941   0.652   2.305   2.593
 1478SOL    HW2 5942   0.731   2.342   2.631
 1478SOL    HW3 5943   0.645   2.218   2.633
 1478SOL    MW4 5944   0.661   2.298   2.603
 1479SOL     OW 5945   0.443   2.421   2.729
 1479SOL    HW2 5946   0.455   2.514   2.708
 1479SOL    HW3 5947   0.522   2.379   2.694
 1479SOL    MW4 5948   0.455   2.428   2.722
 1480SOL     OW 5949   0.466   2.671   2.637
 1480SOL    HW2 5950   0.541   2.726   2.657
 1480SOL    HW3 5951   0.394   2.709   2.687
 1480SOL    MW4 5952   0.466   2.683   2.646
 1481SOL     OW 5953   0.664   2.840   2.754
 1481SOL    HW2 5954   0.686   2.847   2.847
 1481SOL    HW3 5955   0.668   2.930   2.722
 1481SOL    MW4 5956   0.667   2.853   2.762
 1482SOL     OW 5957   0.678   3.094   2.652
 1482SOL    HW2 5958   0.760   3.125   2.690
 1482SOL    HW3 5959   0.689   3.105   2.557
 1482SOL    MW4 5960   0.690   3.099   2.644
 1483SOL     OW 5961   0.448   3.221   2.736
 1483SOL    HW2 5962   0.431   3.223   2.830
 1483SOL    HW3 5963   0.529   3.171   2.727
 1483SOL    MW4 5964   0.456   3.214   2.747
 1484SOL     OW 5965   0.442   3.494   2.669
 1484SOL    HW2 5966   0.455   3.402   2.693
 1484SOL    HW3 5967   0.428   3.492   2.574
 1484SOL    MW4 5968   0.442   3.481   2.660
 1485SOL     OW 5969   0.679   3.623   2.727
 1485SOL    HW2 5970   0.691   3.628   2.822
 1485SOL    HW3 5971   0.591   3.588   2.716
 1485SOL    MW4 5972   0.669   3.619   2.738
 1486SOL     OW 5973   0.672   3.883   2.642
 1486SOL    HW2 5974   0.583   3.914   2.659
 1486SOL    HW3 5975   0.674   3.795   2.680
 1486SOL    MW4 5976   0.660   3.875   2.649
 1487SOL     OW 5977   0.434   3.953   2.749
 1487SOL    HW2 5978   0.433   4.038   2.706
 1487SOL    HW3 5979   0.348   3.915   2.729
 1487SOL    MW4 5980   0.423   3.959   2.741
 1488SOL     OW 5981   0.425   4.204   2.636
 1488SOL    HW2 5982   0.500   4.261   2.652
 1488SOL    HW3 5983   0.411   4.209   2.542
 1488SOL    MW4 5984   0.433   4.212   2.626
 1489SOL     OW 5985   0.638   4.384   2.716
 1489SOL    HW2 5986   0.722   4.343   2.696
 1489SOL    HW3 5987   0.640   4.468   2.669
 1489SOL    MW4 5988   0.649   4.390   2.707
 1490SOL     OW 5989   1.080   4.595   2.650
 1490SOL    HW2 5990   1.158   4.636   2.688
 1490SOL    HW3 5991   1.080   4.506   2.685
 1490SOL    MW4 5992   1.091   4.589   2.660
 1491SOL     OW 5993   0.848   0.104   2.743
 1491SOL    HW2 5994   0.843   0.093   2.838
 1491SOL    HW3 5995   0.930   0.060   2.719
 1491SOL    MW4 5996   0.858   0.097   2.752
 1492SOL     OW 5997   0.874   0.367   2.659
 1492SOL    HW2 5998   0.849   0.275   2.674
 1492SOL    HW3 5999   0.862   0.381   2.565
 1492SOL    MW4 6000   0.869   0.357   2.649
 1493SOL     OW 6001   1.126   0.499   2.754
 1493SOL    HW2 6002   1.135   0.578   2.700
 1493SOL    HW3 6003   1.038   0.466   2.734
 1493SOL    MW4 6004   1.115   0.505   2.744
 1494SOL     OW 6005   1.117   0.723   2.581
 1494SOL    HW2 6006   1.185   0.784   2.607
 1494SOL    HW3 6007   1.099   0.742   2.489
 1494SOL    MW4 6008   1.123   0.733   2.573
 1495SOL     OW 6009   0.914   0.879   2.693
 1495SOL    HW2 6010   0.935   0.885   2.787
 1495SOL    HW3 6011   0.986   0.829   2.655
 1495SOL    MW4 6012   0.926   0.873   2.701
 1496SOL     OW 6013   0.900   1.148   2.622
 1496SOL    HW2 6014   0.902   1.055   2.644
 1496SOL    HW3 6015   0.897   1.151   2.526
 1496SOL    MW4 6016   0.900   1.136   2.612
 1497SOL     OW 6017   1.131   1.283   2.698
 1497SOL    HW2 6018   1.143   1.366   2.653
 1497SOL    HW3 6019   1.042   1.256   2.675
 1497SOL    MW4 6020   1.121   1.290   2.689
 1498SOL     OW 6021   1.145   1.548   2.599
 1498SOL    HW2 6022   1.067   1.599   2.620
 1498SOL    HW3 6023   1.155   1.558   2.504
 1498SOL    MW4 6024   1.136   1.556   2.589
 1499SOL     OW 6025   0.913   1.662   2.714
 1499SOL    HW2 6026   0.915   1.675   2.809
 1499SOL    HW3 6027   0.830   1.618   2.697
 1499SOL    MW4 6028   0.902   1.658   2.724
 1500SOL     OW 6029   0.878   1.909   2.602
 1500SOL    HW2 6030   0.959   1.953   2.628
 1500SOL    HW3 6031   0.883   1.822   2.643
 1500SOL    MW4 6032   0.890   1.903   2.611
 1501SOL     OW 6033   1.106   2.024   2.679
 1501SOL    HW2 6034   1.196   2.002   2.656
 1501SOL    HW3 6035   1.096   2.115   2.652
 1501SOL    MW4 6036   1.117   2.033   2.673
 1502SOL     OW 6037   1.103   2.312   2.625
 1502SOL    HW2 6038   1.188   2.338   2.660
 1502SOL    HW3 6039   1.112   2.319   2.530
 1502SOL    MW4 6040   1.115   2.317   2.617
 1503SOL     OW 6041   0.864   2.443   2.695
 1503SOL    HW2 6042   0.867   2.531   2.656
 1503SOL    HW3 6043   0.954   2.410   2.687
 1503SOL    MW4 6044   0.876   2.450   2.689
 1504SOL     OW 6045   0.870   2.717   2.595
 1504SOL    HW2 6046   0.946   2.754   2.641
 1504SOL    HW3 6047   0.794   2.759   2.637
 1504SOL    MW4 6048   0.870   2.728   2.607
 1505SOL     OW 6049   1.083   2.832   2.712
 1505SOL    HW2 6050   1.106   2.825   2.805
 1505SOL    HW3 6051   1.159   2.795   2.667
 1505SOL    MW4 6052   1.096   2.826   2.719
 1506SOL     OW 6053   1.148   3.096   2.629
 1506SOL    HW2 6054   1.122   3.007   2.652
 1506SOL    HW3 6055   1.136   3.101   2.534
 1506SOL    MW4 6056   1.143   3.085   2.620
 1507SOL     OW 6057   0.919   3.208   2.729
 1507SOL    HW2 6058   0.903   3.286   2.676
 1507SOL    HW3 6059   1.006   3.179   2.701
 1507SOL    MW4 6060   0.928   3.215   2.718
 1508SOL     OW 6061   0.887   3.462   2.617
 1508SOL    HW2 6062   0.961   3.508   2.659
 1508SOL    HW3 6063   0.810   3.512   2.645
 1508SOL    MW4 6064   0.887   3.475   2.626
 1509SOL     OW 6065   1.102   3.599   2.725
 1509SOL    HW2 6066   1.101   3.626   2.817
 1509SOL    HW3 6067   1.100   3.681   2.676
 1509SOL    MW4 6068   1.102   3.613   2.730
 1510SOL     OW 6069   1.098   3.851   2.624
 1510SOL    HW2 6070   1.178   3.889   2.662
 1510SOL    HW3 6071   1.110   3.859   2.530
 1510SOL    MW4 6072   1.110   3.857   2.617
 1511SOL     OW 6073   0.893   4.008   2.746
 1511SOL    HW2 6074   0.958   3.963   2.691
 1511SOL    HW3 6075   0.809   3.970   2.718
 1511SOL    MW4 6076   0.890   3.997   2.735
 1512SOL     OW 6077   0.888   4.266   2.650
 1512SOL    HW2 6078   0.892   4.174   2.675
 1512SOL    HW3 6079   0.884   4.265   2.554
 1512SOL    MW4 6080   0.888   4.254   2.640
 1513SOL     OW 6081   1.144   4.351   2.740
 1513SOL    HW2 6082   1.137   4.378   2.831
 1513SOL    HW3 6083   1.055   4.327   2.715
 1513SOL    MW4 6084   1.131   4.351   2.749
 1514SOL     OW 6085   1.540   4.610   2.660
 1514SOL    HW2 6086   1.565   4.522   2.688
 1514SOL    HW3 6087   1.579   4.619   2.573
 1514SOL    MW4 6088   1.549   4.599   2.653
 1515SOL     OW 6089   1.307   0.044   2.753
 1515SOL    HW2 6090   1.310   0.131   2.715
 1515SOL    HW3 6091   1.392   0.005   2.731
 1515SOL    MW4 6092   1.319   0.050   2.745
 1516SOL     OW 6093   1.334   0.316   2.665
 1516SOL    HW2 6094   1.416   0.360   2.686
 1516SOL    HW3 6095   1.268   0.362   2.716
 1516SOL    MW4 6096   1.336   0.328   2.674
 1517SOL     OW 6097   1.560   0.496   2.711
 1517SOL    HW2 6098   1.645   0.455   2.691
 1517SOL    HW3 6099   1.567   0.585   2.675
 1517SOL    MW4 6100   1.572   0.502   2.703
 1518SOL     OW 6101   1.586   0.764   2.636
 1518SOL    HW2 6102   1.500   0.795   2.666
 1518SOL    HW3 6103   1.591   0.795   2.545
 1518SOL    MW4 6104   1.575   0.772   2.628
 1519SOL     OW 6105   1.337   0.894   2.672
 1519SOL    HW2 6106   1.340   0.911   2.766
 1519SOL    HW3 6107   1.365   0.976   2.631
 1519SOL    MW4 6108   1.341   0.907   2.679
 1520SOL     OW 6109   1.364   1.155   2.587
 1520SOL    HW2 6110   1.435   1.195   2.637
 1520SOL    HW3 6111   1.284   1.179   2.634
 1520SOL    MW4 6112   1.363   1.163   2.600
 1521SOL     OW 6113   1.585   1.285   2.681
 1521SOL    HW2 6114   1.583   1.296   2.776
 1521SOL    HW3 6115   1.667   1.238   2.664
 1521SOL    MW4 6116   1.595   1.280   2.692
 1522SOL     OW 6117   1.601   1.556   2.631
 1522SOL    HW2 6118   1.590   1.462   2.645
 1522SOL    HW3 6119   1.609   1.565   2.536
 1522SOL    MW4 6120   1.601   1.545   2.620
 1523SOL     OW 6121   1.365   1.702   2.696
 1523SOL    HW2 6122   1.438   1.648   2.665
 1523SOL    HW3 6123   1.287   1.648   2.681
 1523SOL    MW4 6124   1.364   1.688   2.690
 1524SOL     OW 6125   1.371   1.950   2.596
 1524SOL    HW2 6126   1.374   1.868   2.645
 1524SOL    HW3 6127   1.391   1.925   2.505
 1524SOL    MW4 6128   1.374   1.936   2.590
 1525SOL     OW 6129   1.587   2.073   2.733
 1525SOL    HW2 6130   1.669   2.033   2.704
 1525SOL    HW3 6131   1.519   2.026   2.685
 1525SOL    MW4 6132   1.589   2.061   2.723
 1526SOL     OW 6133   1.597   2.330   2.630
 1526SOL    HW2 6134   1.651   2.381   2.690
 1526SOL    HW3 6135   1.599   2.241   2.666
 1526SOL    MW4 6136   1.604   2.325   2.643
 1527SOL     OW 6137   1.343   2.433   2.710
 1527SOL    HW2 6138   1.343   2.527   2.690
 1527SOL    HW3 6139   1.434   2.406   2.698
 1527SOL    MW4 6140   1.355   2.442   2.706
 1528SOL     OW 6141   1.328   2.708   2.661
 1528SOL    HW2 6142   1.392   2.771   2.696
 1528SOL    HW3 6143   1.327   2.724   2.567
 1528SOL    MW4 6144   1.337   2.718   2.653
 1529SOL     OW 6145   1.522   2.877   2.753
 1529SOL    HW2 6146   1.503   2.872   2.847
 1529SOL    HW3 6147   1.605   2.829   2.743
 1529SOL    MW4 6148   1.531   2.870   2.764
 1530SOL     OW 6149   1.556   3.098   2.612
 1530SOL    HW2 6150   1.631   3.145   2.648
 1530SOL    HW3 6151   1.549   3.019   2.664
 1530SOL    MW4 6152   1.565   3.094   2.623
 1531SOL     OW 6153   1.367   3.230   2.738
 1531SOL    HW2 6154   1.445   3.201   2.689
 1531SOL    HW3 6155   1.295   3.181   2.699
 1531SOL    MW4 6156   1.368   3.220   2.727
 1532SOL     OW 6157   1.348   3.486   2.659
 1532SOL    HW2 6158   1.348   3.394   2.684
 1532SOL    HW3 6159   1.265   3.519   2.694
 1532SOL    MW4 6160   1.337   3.478   2.667
 1533SOL     OW 6161   1.573   3.627   2.762
 1533SOL    HW2 6162   1.662   3.597   2.742
 1533SOL    HW3 6163   1.516   3.565   2.716
 1533SOL    MW4 6164   1.577   3.615   2.753
 1534SOL     OW 6165   1.554   3.858   2.620
 1534SOL    HW2 6166   1.471   3.894   2.652
 1534SOL    HW3 6167   1.564   3.775   2.668
 1534SOL    MW4 6168   1.544   3.851   2.631
 1535SOL     OW 6169   1.325   3.973   2.706
 1535SOL    HW2 6170   1.350   3.990   2.797
 1535SOL    HW3 6171   1.329   4.059   2.664
 1535SOL    MW4 6172   1.329   3.987   2.713
 1536SOL     OW 6173   1.354   4.260   2.609
 1536SOL    HW2 6174   1.286   4.293   2.667
 1536SOL    HW3 6175   1.328   4.292   2.522
 1536SOL    MW4 6176   1.342   4.269   2.605
 1537SOL     OW 6177   1.589   4.350   2.720
 1537SOL    HW2 6178   1.567   4.376   2.809
 1537SOL    HW3 6179   1.508   4.310   2.686
 1537SOL    MW4 6180   1.575   4.348   2.727
 1538SOL     OW 6181   1.995   4.612   2.598
 1538SOL    HW2 6182   2.063   4.660   2.646
 1538SOL    HW3 6183   2.025   4.615   2.507
 1538SOL    MW4 6184   2.008   4.619   2.592
 1539SOL     OW 6185   1.795   0.085   2.727
 1539SOL    HW2 6186   1.870   0.034   2.697
 1539SOL    HW3 6187   1.719   0.041   2.689
 1539SOL    MW4 6188   1.795   0.073   2.718
 1540SOL     OW 6189   1.789   0.341   2.646
 1540SOL    HW2 6190   1.858   0.379   2.700
 1540SOL    HW3 6191   1.797   0.247   2.659
 1540SOL    MW4 6192   1.799   0.334   2.655
 1541SOL     OW 6193   1.987   0.506   2.752
 1541SOL    HW2 6194   2.070   0.462   2.737
 1541SOL    HW3 6195   2.002   0.596   2.721
 1541SOL    MW4 6196   1.999   0.512   2.746
 1542SOL     OW 6197   2.027   0.767   2.672
 1542SOL    HW2 6198   1.937   0.791   2.694
 1542SOL    HW3 6199   2.030   0.769   2.576
 1542SOL    MW4 6200   2.016   0.770   2.662
 1543SOL     OW 6201   1.794   0.895   2.765
 1543SOL    HW2 6202   1.786   0.983   2.728
 1543SOL    HW3 6203   1.728   0.843   2.718
 1543SOL    MW4 6204   1.784   0.900   2.754
 1544SOL     OW 6205   1.808   1.156   2.618
 1544SOL    HW2 6206   1.874   1.215   2.654
 1544SOL    HW3 6207   1.817   1.165   2.523
 1544SOL    MW4 6208   1.817   1.165   2.610
 1545SOL     OW 6209   2.004   1.314   2.706
 1545SOL    HW2 6210   2.005   1.318   2.802
 1545SOL    HW3 6211   2.077   1.256   2.683
 1545SOL    MW4 6212   2.014   1.307   2.716
 1546SOL     OW 6213   2.026   1.570   2.608
 1546SOL    HW2 6214   1.945   1.613   2.636
 1546SOL    HW3 6215   2.018   1.481   2.641
 1546SOL    MW4 6216   2.014   1.564   2.616
 1547SOL     OW 6217   1.801   1.716   2.741
 1547SOL    HW2 6218   1.791   1.728   2.835
 1547SOL    HW3 6219   1.713   1.695   2.710
 1547SOL    MW4 6220   1.788   1.715   2.749
 1548SOL     OW 6221   1.802   1.958   2.624
 1548SOL    HW2 6222   1.884   1.993   2.660
 1548SOL    HW3 6223   1.798   1.868   2.655
 1548SOL    MW4 6224   1.812   1.951   2.633
 1549SOL     OW 6225   2.059   2.068   2.720
 1549SOL    HW2 6226   2.052   2.071   2.816
 1549SOL    HW3 6227   2.047   2.159   2.693
 1549SOL    MW4 6228   2.057   2.080   2.729
 1550SOL     OW 6229   1.996   2.337   2.659
 1550SOL    HW2 6230   2.059   2.406   2.679
 1550SOL    HW3 6231   1.984   2.342   2.564
 1550SOL    MW4 6232   2.003   2.347   2.649
 1551SOL     OW 6233   1.788   2.485   2.774
 1551SOL    HW2 6234   1.806   2.485   2.868
 1551SOL    HW3 6235   1.859   2.434   2.736
 1551SOL    MW4 6236   1.800   2.478   2.782
 1552SOL     OW 6237   1.753   2.739   2.674
 1552SOL    HW2 6238   1.761   2.654   2.718
 1552SOL    HW3 6239   1.761   2.717   2.581
 1552SOL    MW4 6240   1.755   2.725   2.667
 1553SOL     OW 6241   1.975   2.849   2.783
 1553SOL    HW2 6242   2.049   2.794   2.758
 1553SOL    HW3 6243   1.900   2.811   2.739
 1553SOL    MW4 6244   1.975   2.837   2.774
 1554SOL     OW 6245   2.018   3.106   2.656
 1554SOL    HW2 6246   2.008   3.018   2.692
 1554SOL    HW3 6247   2.016   3.093   2.561
 1554SOL    MW4 6248   2.017   3.092   2.648
 1555SOL     OW 6249   1.780   3.210   2.717
 1555SOL    HW2 6250   1.788   3.304   2.703
 1555SOL    HW3 6251   1.866   3.175   2.696
 1555SOL    MW4 6252   1.792   3.218   2.712
 1556SOL     OW 6253   1.795   3.495   2.656
 1556SOL    HW2 6254   1.874   3.537   2.691
 1556SOL    HW3 6255   1.793   3.522   2.564
 1556SOL    MW4 6256   1.805   3.504   2.649
 1557SOL     OW 6257   2.022   3.621   2.717
 1557SOL    HW2 6258   2.036   3.616   2.812
 1557SOL    HW3 6259   2.097   3.575   2.679
 1557SOL    MW4 6260   2.033   3.614   2.725
 1558SOL     OW 6261   2.053   3.879   2.642
 1558SOL    HW2 6262   1.969   3.906   2.678
 1558SOL    HW3 6263   2.062   3.787   2.668
 1558SOL    MW4 6264   2.043   3.871   2.650
 1559SOL     OW 6265   1.784   3.972   2.733
 1559SOL    HW2 6266   1.773   4.057   2.690
 1559SOL    HW3 6267   1.706   3.923   2.708
 1559SOL    MW4 6268   1.772   3.977   2.724
 1560SOL     OW 6269   1.795   4.213   2.623
 1560SOL    HW2 6270   1.718   4.253   2.664
 1560SOL    HW3 6271   1.797   4.250   2.535
 1560SOL    MW4 6272   1.785   4.223   2.617
 1561SOL     OW 6273   2.005   4.358   2.732
 1561SOL    HW2 6274   1.932   4.299   2.710
 1561SOL    HW3 6275   1.995   4.432   2.673
 1561SOL    MW4 6276   1.994   4.360   2.721
 1562SOL     OW 6277   2.396   4.652   2.613
 1562SOL    HW2 6278   2.466   4.702   2.655
 1562SOL    HW3 6279   2.426   4.639   2.523
 1562SOL    MW4 6280   2.409   4.657   2.607
 1563SOL     OW 6281   2.175   0.083   2.724
 1563SOL    HW2 6282   2.191   0.094   2.818
 1563SOL    HW3 6283   2.254   0.040   2.692
 1563SOL    MW4 6284   2.188   0.079   2.732
 1564SOL     OW 6285   2.184   0.347   2.651
 1564SOL    HW2 6286   2.187   0.256   2.681
 1564SOL    HW3 6287   2.206   0.343   2.558
 1564SOL    MW4 6288   2.187   0.334   2.643
 1565SOL     OW 6289   2.432   0.510   2.731
 1565SOL    HW2 6290   2.425   0.599   2.696
 1565SOL    HW3 6291   2.352   0.466   2.700
 1565SOL    MW4 6292   2.420   0.516   2.723
 1566SOL     OW 6293   2.431   0.768   2.640
 1566SOL    HW2 6294   2.358   0.824   2.664
 1566SOL    HW3 6295   2.421   0.753   2.546
 1566SOL    MW4 6296   2.420   0.773   2.631
 1567SOL     OW 6297   2.215   0.959   2.724
 1567SOL    HW2 6298   2.218   0.968   2.819
 1567SOL    HW3 6299   2.142   0.899   2.708
 1567SOL    MW4 6300   2.206   0.952   2.735
 1568SOL     OW 6301   2.243   1.219   2.607
 1568SOL    HW2 6302   2.228   1.131   2.641
 1568SOL    HW3 6303   2.249   1.208   2.513
 1568SOL    MW4 6304   2.242   1.206   2.599
 1569SOL     OW 6305   2.461   1.280   2.775
 1569SOL    HW2 6306   2.525   1.245   2.712
 1569SOL    HW3 6307   2.377   1.270   2.731
 1569SOL    MW4 6308   2.459   1.274   2.761
 1570SOL     OW 6309   2.487   1.530   2.662
 1570SOL    HW2 6310   2.394   1.552   2.670
 1570SOL    HW3 6311   2.497   1.449   2.712
 1570SOL    MW4 6312   2.476   1.522   2.670
 1571SOL     OW 6313   2.249   1.652   2.741
 1571SOL    HW2 6314   2.278   1.742   2.727
 1571SOL    HW3 6315   2.174   1.641   2.682
 1571SOL    MW4 6316   2.243   1.662   2.732
 1572SOL     OW 6317   2.275   1.913   2.649
 1572SOL    HW2 6318   2.193   1.948   2.684
 1572SOL    HW3 6319   2.258   1.900   2.556
 1572SOL    MW4 6320   2.262   1.916   2.642
 1573SOL     OW 6321   2.492   2.048   2.737
 1573SOL    HW2 6322   2.476   2.139   2.712
 1573SOL    HW3 6323   2.413   2.001   2.709
 1573SOL    MW4 6324   2.479   2.054   2.730
 1574SOL     OW 6325   2.439   2.292   2.636
 1574SOL    HW2 6326   2.524   2.324   2.667
 1574SOL    HW3 6327   2.444   2.300   2.541
 1574SOL    MW4 6328   2.451   2.297   2.627
 1575SOL     OW 6329   2.223   2.461   2.735
 1575SOL    HW2 6330   2.224   2.453   2.830
 1575SOL    HW3 6331   2.289   2.399   2.705
 1575SOL    MW4 6332   2.231   2.452   2.743
 1576SOL     OW 6333   2.227   2.739   2.678
 1576SOL    HW2 6334   2.302   2.787   2.713
 1576SOL    HW3 6335   2.245   2.648   2.700
 1576SOL    MW4 6336   2.240   2.733   2.686
 1577SOL     OW 6337   2.486   2.838   2.732
 1577SOL    HW2 6338   2.554   2.774   2.710
 1577SOL    HW3 6339   2.510   2.916   2.683
 1577SOL    MW4 6340   2.498   2.840   2.722
 1578SOL     OW 6341   2.482   3.114   2.624
 1578SOL    HW2 6342   2.400   3.146   2.661
 1578SOL    HW3 6343   2.470   3.119   2.530
 1578SOL    MW4 6344   2.470   3.119   2.617
 1579SOL     OW 6345   2.254   3.220   2.728
 1579SOL    HW2 6346   2.253   3.237   2.822
 1579SOL    HW3 6347   2.168   3.181   2.710
 1579SOL    MW4 6348   2.242   3.217   2.738
 1580SOL     OW 6349   2.231   3.475   2.615
 1580SOL    HW2 6350   2.310   3.514   2.654
 1580SOL    HW3 6351   2.220   3.393   2.661
 1580SOL    MW4 6352   2.240   3.470   2.626
 1581SOL     OW 6353   2.464   3.626   2.719
 1581SOL    HW2 6354   2.478   3.620   2.813
 1581SOL    HW3 6355   2.489   3.715   2.696
 1581SOL    MW4 6356   2.469   3.637   2.728
 1582SOL     OW 6357   2.511   3.894   2.597
 1582SOL    HW2 6358   2.588   3.938   2.634
 1582SOL    HW3 6359   2.437   3.928   2.648
 1582SOL    MW4 6360   2.511   3.904   2.608
 1583SOL     OW 6361   2.269   4.003   2.743
 1583SOL    HW2 6362   2.260   4.003   2.838
 1583SOL    HW3 6363   2.194   3.952   2.712
 1583SOL    MW4 6364   2.258   3.996   2.751
 1584SOL     OW 6365   2.255   4.267   2.679
 1584SOL    HW2 6366   2.254   4.173   2.695
 1584SOL    HW3 6367   2.164   4.294   2.695
 1584SOL    MW4 6368   2.243   4.258   2.683
 1585SOL     OW 6369   2.458   4.428   2.759
 1585SOL    HW2 6370   2.386   4.369   2.736
 1585SOL    HW3 6371   2.436   4.511   2.716
 1585SOL    MW4 6372   2.446   4.431   2.750
 1586SOL     OW 6373   2.842   0.022   2.601
 1586SOL    HW2 6374   2.929   0.048   2.632
 1586SOL    HW3 6375   2.854   0.005   2.508
 1586SOL    MW4 6376   2.855   0.023   2.593
 1587SOL     OW 6377   2.612   0.122   2.727
 1587SOL    HW2 6378   2.632   0.126   2.821
 1587SOL    HW3 6379   2.696   0.098   2.687
 1587SOL    MW4 6380   2.626   0.119   2.734
 1588SOL     OW 6381   2.665   0.377   2.654
 1588SOL    HW2 6382   2.638   0.285   2.665
 1588SOL    HW3 6383   2.599   0.427   2.703
 1588SOL    MW4 6384   2.652   0.371   2.662
 1589SOL     OW 6385   2.887   0.514   2.719
 1589SOL    HW2 6386   2.861   0.598   2.681
 1589SOL    HW3 6387   2.809   0.460   2.716
 1589SOL    MW4 6388   2.873   0.518   2.714
 1590SOL     OW 6389   2.851   0.755   2.593
 1590SOL    HW2 6390   2.927   0.796   2.635
 1590SOL    HW3 6391   2.779   0.817   2.608
 1590SOL    MW4 6392   2.852   0.769   2.601
 1591SOL     OW 6393   2.654   0.948   2.668
 1591SOL    HW2 6394   2.676   0.947   2.762
 1591SOL    HW3 6395   2.569   0.904   2.663
 1591SOL    MW4 6396   2.646   0.942   2.680
 1592SOL     OW 6397   2.645   1.219   2.603
 1592SOL    HW2 6398   2.721   1.242   2.656
 1592SOL    HW3 6399   2.640   1.124   2.609
 1592SOL    MW4 6400   2.654   1.210   2.611
 1593SOL     OW 6401   2.894   1.323   2.739
 1593SOL    HW2 6402   2.893   1.303   2.832
 1593SOL    HW3 6403   2.949   1.255   2.700
 1593SOL    MW4 6404   2.901   1.311   2.746
 1594SOL     OW 6405   2.935   1.566   2.633
 1594SOL    HW2 6406   2.873   1.625   2.676
 1594SOL    HW3 6407   2.917   1.480   2.671
 1594SOL    MW4 6408   2.925   1.562   2.644
 1595SOL     OW 6409   2.707   1.677   2.762
 1595SOL    HW2 6410   2.698   1.675   2.857
 1595SOL    HW3 6411   2.630   1.630   2.730
 1595SOL    MW4 6412   2.695   1.671   2.770
 1596SOL     OW 6413   2.725   1.937   2.657
 1596SOL    HW2 6414   2.704   1.847   2.681
 1596SOL    HW3 6415   2.647   1.987   2.680
 1596SOL    MW4 6416   2.712   1.932   2.663
 1597SOL     OW 6417   2.962   2.039   2.752
 1597SOL    HW2 6418   2.939   2.129   2.727
 1597SOL    HW3 6419   2.888   1.986   2.720
 1597SOL    MW4 6420   2.949   2.044   2.744
 1598SOL     OW 6421   2.895   2.283   2.630
 1598SOL    HW2 6422   2.960   2.339   2.673
 1598SOL    HW3 6423   2.811   2.312   2.664
 1598SOL    MW4 6424   2.893   2.294   2.640
 1599SOL     OW 6425   2.653   2.397   2.737
 1599SOL    HW2 6426   2.666   2.395   2.832
 1599SOL    HW3 6427   2.660   2.489   2.713
 1599SOL    MW4 6428   2.656   2.409   2.746
 1600SOL     OW 6429   2.681   2.658   2.663
 1600SOL    HW2 6430   2.749   2.697   2.718
 1600SOL    HW3 6431   2.705   2.682   2.573
 1600SOL    MW4 6432   2.693   2.666   2.658
 1601SOL     OW 6433   2.892   2.801   2.777
 1601SOL    HW2 6434   2.902   2.804   2.872
 1601SOL    HW3 6435   2.883   2.893   2.751
 1601SOL    MW4 6436   2.892   2.814   2.786
 1602SOL     OW 6437   2.881   3.066   2.665
 1602SOL    HW2 6438   2.825   3.136   2.698
 1602SOL    HW3 6439   2.891   3.085   2.571
 1602SOL    MW4 6440   2.875   3.078   2.657
 1603SOL     OW 6441   2.690   3.249   2.741
 1603SOL    HW2 6442   2.693   3.331   2.692
 1603SOL    HW3 6443   2.619   3.199   2.700
 1603SOL    MW4 6444   2.681   3.253   2.729
 1604SOL     OW 6445   2.682   3.485   2.620
 1604SOL    HW2 6446   2.611   3.546   2.641
 1604SOL    HW3 6447   2.663   3.457   2.531
 1604SOL    MW4 6448   2.670   3.489   2.611
 1605SOL     OW 6449   2.914   3.590   2.711
 1605SOL    HW2 6450   2.918   3.587   2.807
 1605SOL    HW3 6451   2.825   3.565   2.690
 1605SOL    MW4 6452   2.903   3.586   2.721
 1606SOL     OW 6453   2.919   3.898   2.618
 1606SOL    HW2 6454   3.003   3.932   2.646
 1606SOL    HW3 6455   2.927   3.803   2.626
 1606SOL    MW4 6456   2.931   3.890   2.623
 1607SOL     OW 6457   2.698   4.035   2.710
 1607SOL    HW2 6458   2.691   4.123   2.672
 1607SOL    HW3 6459   2.785   4.004   2.683
 1607SOL    MW4 6460   2.709   4.042   2.701
 1608SOL     OW 6461   2.673   4.307   2.626
 1608SOL    HW2 6462   2.739   4.365   2.664
 1608SOL    HW3 6463   2.591   4.334   2.667
 1608SOL    MW4 6464   2.671   4.318   2.636
 1609SOL     OW 6465   2.889   4.440   2.743
 1609SOL    HW2 6466   2.875   4.442   2.837
 1609SOL    HW3 6467   2.849   4.521   2.711
 1609SOL    MW4 6468   2.882   4.451   2.751
 1610SOL     OW 6469   3.337   0.006   2.613
 1610SOL    HW2 6470   3.349  -0.075   2.663
 1610SOL    HW3 6471   3.253   0.040   2.642
 1610SOL    MW4 6472   3.328   0.000   2.623
 1611SOL     OW 6473   3.104   0.103   2.681
 1611SOL    HW2 6474   3.107   0.103   2.777
 1611SOL    HW3 6475   3.106   0.196   2.658
 1611SOL    MW4 6476   3.105   0.115   2.691
 1612SOL     OW 6477   3.113   0.363   2.626
 1612SOL    HW2 6478   3.044   0.421   2.660
 1612SOL    HW3 6479   3.108   0.372   2.531
 1612SOL    MW4 6480   3.103   0.372   2.618
 1613SOL     OW 6481   3.356   0.512   2.720
 1613SOL    HW2 6482   3.334   0.603   2.702
 1613SOL    HW3 6483   3.281   0.462   2.689
 1613SOL    MW4 6484   3.343   0.517   2.714
 1614SOL     OW 6485   3.282   0.758   2.605
 1614SOL    HW2 6486   3.364   0.800   2.633
 1614SOL    HW3 6487   3.286   0.761   2.509
 1614SOL    MW4 6488   3.294   0.764   2.596
 1615SOL     OW 6489   3.057   0.888   2.713
 1615SOL    HW2 6490   3.055   0.881   2.808
 1615SOL    HW3 6491   3.141   0.848   2.688
 1615SOL    MW4 6492   3.068   0.882   2.722
 1616SOL     OW 6493   3.092   1.154   2.636
 1616SOL    HW2 6494   3.075   1.063   2.664
 1616SOL    HW3 6495   3.126   1.146   2.547
 1616SOL    MW4 6496   3.094   1.141   2.628
 1617SOL     OW 6497   3.359   1.259   2.718
 1617SOL    HW2 6498   3.353   1.259   2.813
 1617SOL    HW3 6499   3.273   1.226   2.689
 1617SOL    MW4 6500   3.347   1.254   2.726
 1618SOL     OW 6501   3.374   1.537   2.653
 1618SOL    HW2 6502   3.293   1.577   2.684
 1618SOL    HW3 6503   3.361   1.443   2.665
 1618SOL    MW4 6504   3.362   1.530   2.659
 1619SOL     OW 6505   3.160   1.667   2.748
 1619SOL    HW2 6506   3.176   1.758   2.722
 1619SOL    HW3 6507   3.090   1.637   2.689
 1619SOL    MW4 6508   3.153   1.675   2.737
 1620SOL     OW 6509   3.180   1.933   2.632
 1620SOL    HW2 6510   3.265   1.969   2.655
 1620SOL    HW3 6511   3.117   1.990   2.678
 1620SOL    MW4 6512   3.183   1.945   2.641
 1621SOL     OW 6513   3.417   2.054   2.702
 1621SOL    HW2 6514   3.395   2.052   2.795
 1621SOL    HW3 6515   3.397   2.144   2.675
 1621SOL    MW4 6516   3.411   2.066   2.711
 1622SOL     OW 6517   3.347   2.317   2.643
 1622SOL    HW2 6518   3.418   2.373   2.673
 1622SOL    HW3 6519   3.352   2.320   2.547
 1622SOL    MW4 6520   3.357   2.325   2.634
 1623SOL     OW 6521   3.106   2.433   2.732
 1623SOL    HW2 6522   3.124   2.526   2.720
 1623SOL    HW3 6523   3.190   2.390   2.714
 1623SOL    MW4 6524   3.120   2.439   2.728
 1624SOL     OW 6525   3.133   2.690   2.676
 1624SOL    HW2 6526   3.204   2.747   2.705
 1624SOL    HW3 6527   3.054   2.733   2.708
 1624SOL    MW4 6528   3.132   2.703   2.684
 1625SOL     OW 6529   3.373   2.835   2.720
 1625SOL    HW2 6530   3.392   2.849   2.813
 1625SOL    HW3 6531   3.454   2.795   2.686
 1625SOL    MW4 6532   3.386   2.832   2.728
 1626SOL     OW 6533   3.388   3.092   2.599
 1626SOL    HW2 6534   3.377   2.999   2.621
 1626SOL    HW3 6535   3.383   3.095   2.504
 1626SOL    MW4 6536   3.386   3.080   2.590
 1627SOL     OW 6537   3.121   3.189   2.726
 1627SOL    HW2 6538   3.177   3.136   2.669
 1627SOL    HW3 6539   3.037   3.145   2.725
 1627SOL    MW4 6540   3.118   3.176   2.718
 1628SOL     OW 6541   3.094   3.433   2.585
 1628SOL    HW2 6542   3.101   3.351   2.633
 1628SOL    HW3 6543   3.024   3.481   2.630
 1628SOL    MW4 6544   3.085   3.429   2.598
 1629SOL     OW 6545   3.309   3.582   2.687
 1629SOL    HW2 6546   3.305   3.571   2.782
 1629SOL    HW3 6547   3.236   3.530   2.655
 1629SOL    MW4 6548   3.299   3.574   2.696
 1630SOL     OW 6549   3.349   3.848   2.620
 1630SOL    HW2 6550   3.344   3.757   2.650
 1630SOL    HW3 6551   3.342   3.843   2.525
 1630SOL    MW4 6552   3.347   3.835   2.612
 1631SOL     OW 6553   3.157   4.026   2.731
 1631SOL    HW2 6554   3.179   4.115   2.704
 1631SOL    HW3 6555   3.231   3.973   2.701
 1631SOL    MW4 6556   3.170   4.031   2.724
 1632SOL     OW 6557   3.138   4.306   2.665
 1632SOL    HW2 6558   3.054   4.342   2.694
 1632SOL    HW3 6559   3.123   4.282   2.573
 1632SOL    MW4 6560   3.125   4.308   2.657
 1633SOL     OW 6561   3.371   4.436   2.724
 1633SOL    HW2 6562   3.365   4.443   2.820
 1633SOL    HW3 6563   3.292   4.389   2.698
 1633SOL    MW4 6564   3.360   4.431   2.733
 1634SOL     OW 6565   3.812   4.655   2.618
 1634SOL    HW2 6566   3.804   4.566   2.652
 1634SOL    HW3 6567   3.738   4.702   2.657
 1634SOL    MW4 6568   3.801   4.649   2.628
 1635SOL     OW 6569   3.569   0.124   2.725
 1635SOL    HW2 6570   3.577   0.216   2.700
 1635SOL    HW3 6571   3.483   0.097   2.691
 1635SOL    MW4 6572   3.559   0.133   2.717
 1636SOL     OW 6573   3.598   0.387   2.644
 1636SOL    HW2 6574   3.665   0.452   2.667
 1636SOL    HW3 6575   3.515   0.430   2.666
 1636SOL    MW4 6576   3.596   0.402   2.650
 1637SOL     OW 6577   3.817   0.523   2.750
 1637SOL    HW2 6578   3.841   0.532   2.842
 1637SOL    HW3 6579   3.878   0.457   2.716
 1637SOL    MW4 6580   3.829   0.515   2.758
 1638SOL     OW 6581   3.796   0.774   2.642
 1638SOL    HW2 6582   3.707   0.806   2.655
 1638SOL    HW3 6583   3.795   0.685   2.678
 1638SOL    MW4 6584   3.784   0.766   2.648
 1639SOL     OW 6585   3.541   0.864   2.687
 1639SOL    HW2 6586   3.532   0.866   2.782
 1639SOL    HW3 6587   3.558   0.955   2.662
 1639SOL    MW4 6588   3.542   0.876   2.696
 1640SOL     OW 6589   3.570   1.120   2.603
 1640SOL    HW2 6590   3.652   1.165   2.624
 1640SOL    HW3 6591   3.502   1.174   2.643
 1640SOL    MW4 6592   3.572   1.133   2.611
 1641SOL     OW 6593   3.796   1.267   2.675
 1641SOL    HW2 6594   3.886   1.236   2.671
 1641SOL    HW3 6595   3.800   1.357   2.643
 1641SOL    MW4 6596   3.808   1.275   2.670
 1642SOL     OW 6597   3.824   1.552   2.602
 1642SOL    HW2 6598   3.906   1.581   2.643
 1642SOL    HW3 6599   3.756   1.601   2.648
 1642SOL    MW4 6600   3.826   1.563   2.613
 1643SOL     OW 6601   3.603   1.678   2.746
 1643SOL    HW2 6602   3.591   1.755   2.691
 1643SOL    HW3 6603   3.527   1.623   2.727
 1643SOL    MW4 6604   3.592   1.681   2.736
 1644SOL     OW 6605   3.602   1.904   2.587
 1644SOL    HW2 6606   3.535   1.967   2.614
 1644SOL    HW3 6607   3.597   1.904   2.491
 1644SOL    MW4 6608   3.593   1.913   2.578
 1645SOL     OW 6609   3.802   2.041   2.755
 1645SOL    HW2 6610   3.879   2.027   2.700
 1645SOL    HW3 6611   3.735   1.984   2.716
 1645SOL    MW4 6612   3.803   2.031   2.743
 1646SOL     OW 6613   3.772   2.312   2.660
 1646SOL    HW2 6614   3.786   2.223   2.691
 1646SOL    HW3 6615   3.791   2.308   2.567
 1646SOL    MW4 6616   3.776   2.300   2.652
 1647SOL     OW 6617   3.560   2.449   2.748
 1647SOL    HW2 6618   3.570   2.426   2.840
 1647SOL    HW3 6619   3.631   2.403   2.703
 1647SOL    MW4 6620   3.570   2.440   2.754
 1648SOL     OW 6621   3.597   2.692   2.654
 1648SOL    HW2 6622   3.576   2.607   2.692
 1648SOL    HW3 6623   3.591   2.679   2.559
 1648SOL    MW4 6624   3.593   2.679   2.646
 1649SOL     OW 6625   3.839   2.830   2.655
 1649SOL    HW2 6626   3.911   2.773   2.629
 1649SOL    HW3 6627   3.762   2.773   2.656
 1649SOL    MW4 6628   3.838   2.815   2.652
 1650SOL     OW 6629   3.806   3.124   2.588
 1650SOL    HW2 6630   3.742   3.173   2.640
 1650SOL    HW3 6631   3.802   3.035   2.624
 1650SOL    MW4 6632   3.797   3.119   2.600
 1651SOL     OW 6633   3.577   3.251   2.707
 1651SOL    HW2 6634   3.576   3.333   2.658
 1651SOL    HW3 6635   3.506   3.200   2.671
 1651SOL    MW4 6636   3.568   3.255   2.696
 1652SOL     OW 6637   3.538   3.486   2.571
 1652SOL    HW2 6638   3.603   3.549   2.602
 1652SOL    HW3 6639   3.455   3.518   2.607
 1652SOL    MW4 6640   3.536   3.499   2.580
 1653SOL     OW 6641   3.743   3.629   2.687
 1653SOL    HW2 6642   3.823   3.589   2.653
 1653SOL    HW3 6643   3.747   3.720   2.659
 1653SOL    MW4 6644   3.754   3.636   2.679
 1654SOL     OW 6645   3.797   3.884   2.595
 1654SOL    HW2 6646   3.870   3.939   2.625
 1654SOL    HW3 6647   3.722   3.913   2.646
 1654SOL    MW4 6648   3.797   3.895   2.605
 1655SOL     OW 6649   3.572   3.992   2.733
 1655SOL    HW2 6650   3.559   4.079   2.695
 1655SOL    HW3 6651   3.502   3.939   2.697
 1655SOL    MW4 6652   3.561   3.996   2.723
 1656SOL     OW 6653   3.572   4.253   2.643
 1656SOL    HW2 6654   3.507   4.313   2.679
 1656SOL    HW3 6655   3.566   4.266   2.548
 1656SOL    MW4 6656   3.563   4.263   2.635
 1657SOL     OW 6657   3.795   4.381   2.737
 1657SOL    HW2 6658   3.875   4.331   2.723
 1657SOL    HW3 6659   3.725   4.325   2.702
 1657SOL    MW4 6660   3.796   4.367   2.731
 1658SOL     OW 6661   4.276   4.634   2.608
 1658SOL    HW2 6662   4.204   4.683   2.647
 1658SOL    HW3 6663   4.354   4.668   2.651
 1658SOL    MW4 6664   4.277   4.645   2.619
 1659SOL     OW 6665   4.047   0.113   2.702
 1659SOL    HW2 6666   4.041   0.118   2.797
 1659SOL    HW3 6667   3.966   0.071   2.675
 1659SOL    MW4 6668   4.036   0.108   2.711
 1660SOL     OW 6669   4.044   0.396   2.656
 1660SOL    HW2 6670   4.055   0.302   2.671
 1660SOL    HW3 6671   4.046   0.405   2.561
 1660SOL    MW4 6672   4.046   0.385   2.646
 1661SOL     OW 6673   4.275   0.520   2.733
 1661SOL    HW2 6674   4.192   0.484   2.702
 1661SOL    HW3 6675   4.341   0.459   2.701
 1661SOL    MW4 6676   4.273   0.507   2.725
 1662SOL     OW 6677   4.273   0.781   2.619
 1662SOL    HW2 6678   4.289   0.693   2.653
 1662SOL    HW3 6679   4.285   0.772   2.524
 1662SOL    MW4 6680   4.277   0.768   2.611
 1663SOL     OW 6681   4.036   0.906   2.715
 1663SOL    HW2 6682   4.102   0.843   2.687
 1663SOL    HW3 6683   3.952   0.864   2.692
 1663SOL    MW4 6684   4.033   0.892   2.708
 1664SOL     OW 6685   4.052   1.169   2.639
 1664SOL    HW2 6686   4.125   1.209   2.687
 1664SOL    HW3 6687   4.043   1.081   2.677
 1664SOL    MW4 6688   4.060   1.162   2.650
 1665SOL     OW 6689   4.275   1.276   2.756
 1665SOL    HW2 6690   4.269   1.366   2.725
 1665SOL    HW3 6691   4.351   1.240   2.711
 1665SOL    MW4 6692   4.284   1.283   2.746
 1666SOL     OW 6693   4.244   1.511   2.597
 1666SOL    HW2 6694   4.331   1.549   2.610
 1666SOL    HW3 6695   4.234   1.506   2.501
 1666SOL    MW4 6696   4.254   1.516   2.586
 1667SOL     OW 6697   4.046   1.666   2.712
 1667SOL    HW2 6698   4.051   1.662   2.807
 1667SOL    HW3 6699   4.123   1.616   2.682
 1667SOL    MW4 6700   4.057   1.659   2.720
 1668SOL     OW 6701   4.028   1.948   2.595
 1668SOL    HW2 6702   4.094   1.999   2.643
 1668SOL    HW3 6703   4.031   1.861   2.635
 1668SOL    MW4 6704   4.037   1.943   2.606
 1669SOL     OW 6705   4.223   2.082   2.711
 1669SOL    HW2 6706   4.218   2.175   2.688
 1669SOL    HW3 6707   4.314   2.058   2.696
 1669SOL    MW4 6708   4.234   2.091   2.706
 1670SOL     OW 6709   4.210   2.352   2.642
 1670SOL    HW2 6710   4.129   2.401   2.652
 1670SOL    HW3 6711   4.222   2.343   2.547
 1670SOL    MW4 6712   4.201   2.357   2.631
 1671SOL     OW 6713   3.983   2.470   2.717
 1671SOL    HW2 6714   3.993   2.478   2.812
 1671SOL    HW3 6715   3.907   2.413   2.706
 1671SOL    MW4 6716   3.974   2.464   2.728
 1672SOL     OW 6717   4.068   2.692   2.587
 1672SOL    HW2 6718   4.145   2.726   2.633
 1672SOL    HW3 6719   4.040   2.617   2.639
 1672SOL    MW4 6720   4.074   2.686   2.600
 1673SOL     OW 6721   4.281   2.813   2.710
 1673SOL    HW2 6722   4.282   2.797   2.805
 1673SOL    HW3 6723   4.249   2.902   2.701
 1673SOL    MW4 6724   4.277   2.822   2.721
 1674SOL     OW 6725   4.220   3.079   2.627
 1674SOL    HW2 6726   4.148   3.139   2.648
 1674SOL    HW3 6727   4.234   3.090   2.533
 1674SOL    MW4 6728   4.212   3.088   2.617
 1675SOL     OW 6729   4.031   3.257   2.685
 1675SOL    HW2 6730   4.017   3.348   2.660
 1675SOL    HW3 6731   3.965   3.207   2.635
 1675SOL    MW4 6732   4.020   3.262   2.675
 1676SOL     OW 6733   3.971   3.509   2.569
 1676SOL    HW2 6734   4.057   3.533   2.604
 1676SOL    HW3 6735   3.990   3.466   2.486
 1676SOL    MW4 6736   3.985   3.506   2.563
 1677SOL     OW 6737   4.224   3.568   2.707
 1677SOL    HW2 6738   4.224   3.578   2.802
 1677SOL    HW3 6739   4.309   3.529   2.687
 1677SOL    MW4 6740   4.235   3.564   2.717
 1678SOL     OW 6741   4.239   3.813   2.581
 1678SOL    HW2 6742   4.217   3.727   2.618
 1678SOL    HW3 6743   4.304   3.849   2.641
 1678SOL    MW4 6744   4.245   3.806   2.594
 1679SOL     OW 6745   4.051   4.011   2.694
 1679SOL    HW2 6746   4.043   4.009   2.790
 1679SOL    HW3 6747   4.122   3.950   2.675
 1679SOL    MW4 6748   4.059   4.003   2.704
 1680SOL     OW 6749   4.050   4.278   2.613
 1680SOL    HW2 6750   4.042   4.183   2.620
 1680SOL    HW3 6751   4.032   4.297   2.521
 1680SOL    MW4 6752   4.047   4.268   2.602
 1681SOL     OW 6753   4.276   4.388   2.732
 1681SOL    HW2 6754   4.192   4.349   2.710
 1681SOL    HW3 6755   4.279   4.469   2.681
 1681SOL    MW4 6756   4.265   4.394   2.722
 1682SOL     OW 6757   0.197   4.639   3.129
 1682SOL    HW2 6758   0.185   4.661   3.222
 1682SOL    HW3 6759   0.141   4.700   3.082
 1682SOL    MW4 6760   0.188   4.650   3.135
 1683SOL     OW 6761   0.005   0.117   3.010
 1683SOL    HW2 6762  -0.083   0.078   3.019
 1683SOL    HW3 6763  -0.005   0.205   3.046
 1683SOL    MW4 6764  -0.008   0.123   3.016
 1684SOL     OW 6765   4.474   0.371   3.115
 1684SOL    HW2 6766   4.474   0.375   3.211
 1684SOL    HW3 6767   4.400   0.426   3.088
 1684SOL    MW4 6768   4.465   0.379   3.124
 1685SOL     OW 6769   0.231   0.486   2.969
 1685SOL    HW2 6770   0.301   0.448   3.022
 1685SOL    HW3 6771   0.151   0.458   3.013
 1685SOL    MW4 6772   0.230   0.477   2.982
 1686SOL     OW 6773   0.238   0.740   3.073
 1686SOL    HW2 6774   0.235   0.737   3.168
 1686SOL    HW3 6775   0.248   0.648   3.046
 1686SOL    MW4 6776   0.239   0.727   3.082
 1687SOL     OW 6777   0.038   0.922   3.001
 1687SOL    HW2 6778   0.100   0.855   3.033
 1687SOL    HW3 6779   0.037   0.910   2.906
 1687SOL    MW4 6780   0.046   0.911   2.993
 1688SOL     OW 6781   0.022   1.178   3.089
 1688SOL    HW2 6782  -0.066   1.196   3.057
 1688SOL    HW3 6783   0.040   1.088   3.062
 1688SOL    MW4 6784   0.013   1.168   3.081
 1689SOL     OW 6785   0.225   1.337   3.007
 1689SOL    HW2 6786   0.151   1.282   3.033
 1689SOL    HW3 6787   0.219   1.342   2.912
 1689SOL    MW4 6788   0.215   1.330   2.998
 1690SOL     OW 6789   0.222   1.603   3.105
 1690SOL    HW2 6790   0.144   1.636   3.059
 1690SOL    HW3 6791   0.226   1.510   3.081
 1690SOL    MW4 6792   0.212   1.595   3.096
 1691SOL     OW 6793   4.466   1.695   2.979
 1691SOL    HW2 6794   4.406   1.628   3.013
 1691SOL    HW3 6795   4.461   1.766   3.043
 1691SOL    MW4 6796   4.457   1.695   2.992
 1692SOL     OW 6797   4.460   1.928   3.133
 1692SOL    HW2 6798   4.387   1.954   3.076
 1692SOL    HW3 6799   4.538   1.961   3.089
 1692SOL    MW4 6800   4.460   1.935   3.119
 1693SOL     OW 6801   0.183   2.036   2.993
 1693SOL    HW2 6802   0.188   2.126   3.027
 1693SOL    HW3 6803   0.187   2.046   2.898
 1693SOL    MW4 6804   0.184   2.049   2.985
 1694SOL     OW 6805   0.225   2.279   3.109
 1694SOL    HW2 6806   0.220   2.280   3.204
 1694SOL    HW3 6807   0.305   2.327   3.088
 1694SOL    MW4 6808   0.235   2.285   3.118
 1695SOL     OW 6809   4.487   2.428   2.969
 1695SOL    HW2 6810   4.486   2.510   3.017
 1695SOL    HW3 6811   4.561   2.379   3.006
 1695SOL    MW4 6812   4.497   2.432   2.980
 1696SOL     OW 6813   4.484   2.650   3.124
 1696SOL    HW2 6814   4.480   2.661   3.219
 1696SOL    HW3 6815   4.560   2.701   3.097
 1696SOL    MW4 6816   4.494   2.658   3.133
 1697SOL     OW 6817   0.204   2.812   3.010
 1697SOL    HW2 6818   0.292   2.796   3.045
 1697SOL    HW3 6819   0.215   2.808   2.915
 1697SOL    MW4 6820   0.217   2.809   3.002
 1698SOL     OW 6821   0.175   3.074   3.114
 1698SOL    HW2 6822   0.093   3.113   3.084
 1698SOL    HW3 6823   0.177   2.987   3.075
 1698SOL    MW4 6824   0.165   3.068   3.105
 1699SOL     OW 6825   4.443   3.196   3.005
 1699SOL    HW2 6826   4.355   3.159   3.019
 1699SOL    HW3 6827   4.460   3.183   2.912
 1699SOL    MW4 6828   4.433   3.190   2.994
 1700SOL     OW 6829   4.489   3.454   3.129
 1700SOL    HW2 6830   4.405   3.491   3.102
 1700SOL    HW3 6831   4.493   3.369   3.086
 1700SOL    MW4 6832   4.479   3.448   3.120
 1701SOL     OW 6833   0.237   3.578   3.023
 1701SOL    HW2 6834   0.239   3.673   3.029
 1701SOL    HW3 6835   0.152   3.553   3.059
 1701SOL    MW4 6836   0.226   3.587   3.028
 1702SOL     OW 6837   0.203   3.847   3.054
 1702SOL    HW2 6838   0.188   3.840   3.148
 1702SOL    HW3 6839   0.281   3.903   3.047
 1702SOL    MW4 6840   0.211   3.854   3.065
 1703SOL     OW 6841   4.445   3.960   2.990
 1703SOL    HW2 6842   4.531   3.924   3.012
 1703SOL    HW3 6843   4.438   3.951   2.895
 1703SOL    MW4 6844   4.455   3.954   2.981
 1704SOL     OW 6845   4.484   4.239   3.046
 1704SOL    HW2 6846   4.486   4.229   3.141
 1704SOL    HW3 6847   4.482   4.149   3.013
 1704SOL    MW4 6848   4.484   4.226   3.054
 1705SOL     OW 6849   0.191   4.400   2.974
 1705SOL    HW2 6850   0.117   4.351   3.009
 1705SOL    HW3 6851   0.194   4.479   3.028
 1705SOL    MW4 6852   0.182   4.404   2.986
 1706SOL     OW 6853   0.653   4.648   3.151
 1706SOL    HW2 6854   0.674   4.563   3.112
 1706SOL    HW3 6855   0.570   4.672   3.111
 1706SOL    MW4 6856   0.645   4.640   3.141
 1707SOL     OW 6857   0.434   0.076   2.995
 1707SOL    HW2 6858   0.432   0.166   3.026
 1707SOL    HW3 6859   0.353   0.037   3.030
 1707SOL    MW4 6860   0.423   0.083   3.004
 1708SOL     OW 6861   0.430   0.344   3.084
 1708SOL    HW2 6862   0.459   0.358   3.174
 1708SOL    HW3 6863   0.493   0.394   3.031
 1708SOL    MW4 6864   0.442   0.353   3.089
 1709SOL     OW 6865   0.633   0.522   3.001
 1709SOL    HW2 6866   0.718   0.498   3.037
 1709SOL    HW3 6867   0.621   0.614   3.024
 1709SOL    MW4 6868   0.643   0.531   3.009
 1710SOL     OW 6869   0.674   0.791   3.086
 1710SOL    HW2 6870   0.658   0.772   3.178
 1710SOL    HW3 6871   0.599   0.845   3.059
 1710SOL    MW4 6872   0.662   0.796   3.095
 1711SOL     OW 6873   0.442   0.896   2.965
 1711SOL    HW2 6874   0.376   0.864   3.028
 1711SOL    HW3 6875   0.408   0.868   2.880
 1711SOL    MW4 6876   0.429   0.888   2.962
 1712SOL     OW 6877   0.434   1.145   3.083
 1712SOL    HW2 6878   0.412   1.071   3.026
 1712SOL    HW3 6879   0.374   1.215   3.057
 1712SOL    MW4 6880   0.423   1.144   3.072
 1713SOL     OW 6881   0.664   1.294   2.990
 1713SOL    HW2 6882   0.747   1.259   3.022
 1713SOL    HW3 6883   0.598   1.234   3.024
 1713SOL    MW4 6884   0.666   1.281   2.998
 1714SOL     OW 6885   0.672   1.577   3.116
 1714SOL    HW2 6886   0.657   1.544   3.204
 1714SOL    HW3 6887   0.659   1.500   3.059
 1714SOL    MW4 6888   0.668   1.562   3.120
 1715SOL     OW 6889   0.466   1.699   2.991
 1715SOL    HW2 6890   0.543   1.674   3.041
 1715SOL    HW3 6891   0.397   1.639   3.023
 1715SOL    MW4 6892   0.467   1.687   3.002
 1716SOL     OW 6893   0.425   1.955   3.067
 1716SOL    HW2 6894   0.429   1.872   3.019
 1716SOL    HW3 6895   0.334   1.984   3.057
 1716SOL    MW4 6896   0.413   1.948   3.059
 1717SOL     OW 6897   0.683   2.057   2.955
 1717SOL    HW2 6898   0.749   2.005   3.001
 1717SOL    HW3 6899   0.599   2.026   2.989
 1717SOL    MW4 6900   0.681   2.046   2.966
 1718SOL     OW 6901   0.696   2.303   3.069
 1718SOL    HW2 6902   0.695   2.308   3.164
 1718SOL    HW3 6903   0.706   2.210   3.050
 1718SOL    MW4 6904   0.698   2.292   3.079
 1719SOL     OW 6905   0.469   2.443   3.022
 1719SOL    HW2 6906   0.549   2.398   3.048
 1719SOL    HW3 6907   0.460   2.425   2.929
 1719SOL    MW4 6908   0.478   2.435   3.013
 1720SOL     OW 6909   0.463   2.720   3.088
 1720SOL    HW2 6910   0.542   2.751   3.043
 1720SOL    HW3 6911   0.465   2.625   3.077
 1720SOL    MW4 6912   0.474   2.712   3.080
 1721SOL     OW 6913   0.710   2.846   3.023
 1721SOL    HW2 6914   0.793   2.806   3.050
 1721SOL    HW3 6915   0.722   2.939   3.040
 1721SOL    MW4 6916   0.723   2.853   3.029
 1722SOL     OW 6917   0.683   3.119   3.086
 1722SOL    HW2 6918   0.658   3.126   3.179
 1722SOL    HW3 6919   0.602   3.138   3.039
 1722SOL    MW4 6920   0.669   3.123   3.092
 1723SOL     OW 6921   0.409   3.180   3.017
 1723SOL    HW2 6922   0.428   3.263   3.062
 1723SOL    HW3 6923   0.330   3.147   3.059
 1723SOL    MW4 6924   0.401   3.186   3.029
 1724SOL     OW 6925   0.450   3.434   3.105
 1724SOL    HW2 6926   0.450   3.460   3.198
 1724SOL    HW3 6927   0.373   3.477   3.068
 1724SOL    MW4 6928   0.440   3.443   3.113
 1725SOL     OW 6929   0.695   3.575   3.022
 1725SOL    HW2 6930   0.779   3.540   3.053
 1725SOL    HW3 6931   0.629   3.518   3.062
 1725SOL    MW4 6932   0.698   3.563   3.031
 1726SOL     OW 6933   0.661   3.846   3.067
 1726SOL    HW2 6934   0.637   3.838   3.159
 1726SOL    HW3 6935   0.656   3.756   3.033
 1726SOL    MW4 6936   0.657   3.833   3.074
 1727SOL     OW 6937   0.437   4.024   3.015
 1727SOL    HW2 6938   0.508   3.968   3.046
 1727SOL    HW3 6939   0.437   4.013   2.920
 1727SOL    MW4 6940   0.446   4.015   3.006
 1728SOL     OW 6941   0.422   4.289   3.057
 1728SOL    HW2 6942   0.425   4.195   3.040
 1728SOL    HW3 6943   0.338   4.317   3.021
 1728SOL    MW4 6944   0.411   4.280   3.050
 1729SOL     OW 6945   0.687   4.392   3.002
 1729SOL    HW2 6946   0.598   4.370   3.031
 1729SOL    HW3 6947   0.681   4.392   2.906
 1729SOL    MW4 6948   0.674   4.389   2.993
 1730SOL     OW 6949   1.086   4.660   3.124
 1730SOL    HW2 6950   1.167   4.705   3.100
 1730SOL    HW3 6951   1.017   4.721   3.099
 1730SOL    MW4 6952   1.088   4.674   3.117
 1731SOL     OW 6953   0.844   0.134   3.027
 1731SOL    HW2 6954   0.839   0.228   3.039
 1731SOL    HW3 6955   0.767   0.100   3.073
 1731SOL    MW4 6956   0.833   0.142   3.034
 1732SOL     OW 6957   0.863   0.407   3.107
 1732SOL    HW2 6958   0.853   0.395   3.202
 1732SOL    HW3 6959   0.955   0.431   3.096
 1732SOL    MW4 6960   0.874   0.408   3.118
 1733SOL     OW 6961   1.108   0.513   3.035
 1733SOL    HW2 6962   1.177   0.454   3.065
 1733SOL    HW3 6963   1.116   0.513   2.940
 1733SOL    MW4 6964   1.118   0.505   3.026
 1734SOL     OW 6965   1.135   0.776   3.125
 1734SOL    HW2 6966   1.127   0.769   3.220
 1734SOL    HW3 6967   1.118   0.688   3.092
 1734SOL    MW4 6968   1.132   0.764   3.133
 1735SOL     OW 6969   0.933   0.896   2.986
 1735SOL    HW2 6970   0.999   0.866   3.048
 1735SOL    HW3 6971   0.852   0.855   3.016
 1735SOL    MW4 6972   0.931   0.887   2.998
 1736SOL     OW 6973   0.886   1.146   3.097
 1736SOL    HW2 6974   0.958   1.186   3.049
 1736SOL    HW3 6975   0.886   1.054   3.070
 1736SOL    MW4 6976   0.895   1.139   3.087
 1737SOL     OW 6977   1.103   1.284   2.976
 1737SOL    HW2 6978   1.179   1.238   3.011
 1737SOL    HW3 6979   1.117   1.285   2.881
 1737SOL    MW4 6980   1.115   1.278   2.968
 1738SOL     OW 6981   1.110   1.537   3.089
 1738SOL    HW2 6982   1.182   1.578   3.041
 1738SOL    HW3 6983   1.103   1.449   3.051
 1738SOL    MW4 6984   1.119   1.531   3.078
 1739SOL     OW 6985   0.900   1.687   2.997
 1739SOL    HW2 6986   0.973   1.645   3.043
 1739SOL    HW3 6987   0.822   1.649   3.037
 1739SOL    MW4 6988   0.899   1.676   3.008
 1740SOL     OW 6989   0.875   1.942   3.099
 1740SOL    HW2 6990   0.868   1.932   3.194
 1740SOL    HW3 6991   0.897   1.855   3.066
 1740SOL    MW4 6992   0.877   1.929   3.107
 1741SOL     OW 6993   1.097   2.078   2.991
 1741SOL    HW2 6994   1.014   2.034   3.011
 1741SOL    HW3 6995   1.099   2.081   2.895
 1741SOL    MW4 6996   1.086   2.073   2.981
 1742SOL     OW 6997   1.132   2.328   3.090
 1742SOL    HW2 6998   1.057   2.367   3.045
 1742SOL    HW3 6999   1.124   2.235   3.072
 1742SOL    MW4 7000   1.121   2.321   3.081
 1743SOL     OW 7001   0.902   2.453   2.969
 1743SOL    HW2 7002   0.833   2.390   2.991
 1743SOL    HW3 7003   0.890   2.469   2.875
 1743SOL    MW4 7004   0.891   2.446   2.960
 1744SOL     OW 7005   0.944   2.719   3.103
 1744SOL    HW2 7006   0.933   2.703   3.197
 1744SOL    HW3 7007   0.933   2.633   3.062
 1744SOL    MW4 7008   0.941   2.706   3.110
 1745SOL     OW 7009   1.140   2.872   2.976
 1745SOL    HW2 7010   1.143   2.963   3.003
 1745SOL    HW3 7011   1.091   2.827   3.045
 1745SOL    MW4 7012   1.134   2.878   2.988
 1746SOL     OW 7013   1.108   3.105   3.103
 1746SOL    HW2 7014   1.174   3.167   3.074
 1746SOL    HW3 7015   1.025   3.142   3.073
 1746SOL    MW4 7016   1.106   3.118   3.096
 1747SOL     OW 7017   0.898   3.251   3.004
 1747SOL    HW2 7018   0.825   3.198   3.037
 1747SOL    HW3 7019   0.891   3.244   2.909
 1747SOL    MW4 7020   0.887   3.243   2.996
 1748SOL     OW 7021   0.921   3.481   3.149
 1748SOL    HW2 7022   0.979   3.538   3.098
 1748SOL    HW3 7023   0.911   3.402   3.096
 1748SOL    MW4 7024   0.927   3.478   3.135
 1749SOL     OW 7025   1.098   3.648   2.996
 1749SOL    HW2 7026   1.173   3.602   3.033
 1749SOL    HW3 7027   1.098   3.733   3.040
 1749SOL    MW4 7028   1.108   3.653   3.007
 1750SOL     OW 7029   1.110   3.903   3.121
 1750SOL    HW2 7030   1.111   3.888   3.215
 1750SOL    HW3 7031   1.024   3.939   3.103
 1750SOL    MW4 7032   1.099   3.906   3.131
 1751SOL     OW 7033   0.866   4.007   3.021
 1751SOL    HW2 7034   0.790   3.951   3.039
 1751SOL    HW3 7035   0.878   3.999   2.926
 1751SOL    MW4 7036   0.858   3.998   3.011
 1752SOL     OW 7037   0.892   4.257   3.132
 1752SOL    HW2 7038   0.906   4.169   3.098
 1752SOL    HW3 7039   0.815   4.289   3.084
 1752SOL    MW4 7040   0.883   4.250   3.121
 1753SOL     OW 7041   1.111   4.398   3.025
 1753SOL    HW2 7042   1.049   4.340   3.068
 1753SOL    HW3 7043   1.101   4.482   3.070
 1753SOL    MW4 7044   1.101   4.402   3.036
 1754SOL     OW 7045   1.555   4.645   3.102
 1754SOL    HW2 7046   1.547   4.618   3.193
 1754SOL    HW3 7047   1.468   4.679   3.080
 1754SOL    MW4 7048   1.543   4.646   3.111
 1755SOL     OW 7049   1.323   0.098   3.037
 1755SOL    HW2 7050   1.311   0.193   3.046
 1755SOL    HW3 7051   1.324   0.083   2.943
 1755SOL    MW4 7052   1.321   0.109   3.026
 1756SOL     OW 7053   1.309   0.352   3.117
 1756SOL    HW2 7054   1.320   0.350   3.212
 1756SOL    HW3 7055   1.385   0.400   3.085
 1756SOL    MW4 7056   1.320   0.358   3.125
 1757SOL     OW 7057   1.510   0.517   3.000
 1757SOL    HW2 7058   1.531   0.605   3.030
 1757SOL    HW3 7059   1.504   0.524   2.905
 1757SOL    MW4 7060   1.512   0.529   2.992
 1758SOL     OW 7061   1.565   0.760   3.100
 1758SOL    HW2 7062   1.553   0.763   3.195
 1758SOL    HW3 7063   1.492   0.811   3.065
 1758SOL    MW4 7064   1.554   0.767   3.108
 1759SOL     OW 7065   1.345   0.883   2.977
 1759SOL    HW2 7066   1.349   0.971   3.014
 1759SOL    HW3 7067   1.273   0.840   3.025
 1759SOL    MW4 7068   1.336   0.889   2.989
 1760SOL     OW 7069   1.329   1.150   3.060
 1760SOL    HW2 7070   1.338   1.173   3.153
 1760SOL    HW3 7071   1.410   1.182   3.020
 1760SOL    MW4 7072   1.341   1.157   3.067
 1761SOL     OW 7073   1.561   1.255   2.953
 1761SOL    HW2 7074   1.637   1.223   3.003
 1761SOL    HW3 7075   1.546   1.344   2.986
 1761SOL    MW4 7076   1.569   1.263   2.964
 1762SOL     OW 7077   1.576   1.537   3.008
 1762SOL    HW2 7078   1.656   1.589   3.002
 1762SOL    HW3 7079   1.505   1.599   2.993
 1762SOL    MW4 7080   1.577   1.552   3.005
 1763SOL     OW 7081   1.333   1.689   2.984
 1763SOL    HW2 7082   1.328   1.779   3.016
 1763SOL    HW3 7083   1.331   1.697   2.889
 1763SOL    MW4 7084   1.332   1.702   2.975
 1764SOL     OW 7085   1.343   1.951   3.087
 1764SOL    HW2 7086   1.342   1.925   3.179
 1764SOL    HW3 7087   1.256   1.988   3.072
 1764SOL    MW4 7088   1.331   1.952   3.097
 1765SOL     OW 7089   1.577   2.098   3.020
 1765SOL    HW2 7090   1.495   2.060   3.053
 1765SOL    HW3 7091   1.575   2.081   2.926
 1765SOL    MW4 7092   1.566   2.091   3.012
 1766SOL     OW 7093   1.570   2.375   3.071
 1766SOL    HW2 7094   1.486   2.407   3.038
 1766SOL    HW3 7095   1.576   2.285   3.038
 1766SOL    MW4 7096   1.560   2.367   3.062
 1767SOL     OW 7097   1.342   2.465   2.972
 1767SOL    HW2 7098   1.267   2.418   3.008
 1767SOL    HW3 7099   1.337   2.448   2.878
 1767SOL    MW4 7100   1.331   2.457   2.964
 1768SOL     OW 7101   1.311   2.702   3.111
 1768SOL    HW2 7102   1.314   2.617   3.067
 1768SOL    HW3 7103   1.257   2.756   3.054
 1768SOL    MW4 7104   1.304   2.698   3.098
 1769SOL     OW 7105   1.543   2.838   3.030
 1769SOL    HW2 7106   1.627   2.814   3.070
 1769SOL    HW3 7107   1.478   2.788   3.079
 1769SOL    MW4 7108   1.546   2.828   3.042
 1770SOL     OW 7109   1.558   3.093   3.117
 1770SOL    HW2 7110   1.554   3.078   3.211
 1770SOL    HW3 7111   1.550   3.006   3.078
 1770SOL    MW4 7112   1.556   3.080   3.124
 1771SOL     OW 7113   1.339   3.248   3.016
 1771SOL    HW2 7114   1.408   3.189   3.045
 1771SOL    HW3 7115   1.342   3.243   2.920
 1771SOL    MW4 7116   1.348   3.239   3.007
 1772SOL     OW 7117   1.290   3.506   3.129
 1772SOL    HW2 7118   1.281   3.502   3.224
 1772SOL    HW3 7119   1.294   3.414   3.101
 1772SOL    MW4 7120   1.289   3.493   3.138
 1773SOL     OW 7121   1.532   3.598   3.041
 1773SOL    HW2 7122   1.448   3.559   3.064
 1773SOL    HW3 7123   1.527   3.613   2.947
 1773SOL    MW4 7124   1.521   3.595   3.032
 1774SOL     OW 7125   1.543   3.876   3.115
 1774SOL    HW2 7126   1.635   3.902   3.105
 1774SOL    HW3 7127   1.543   3.781   3.102
 1774SOL    MW4 7128   1.555   3.867   3.112
 1775SOL     OW 7129   1.328   4.004   2.991
 1775SOL    HW2 7130   1.399   3.961   3.038
 1775SOL    HW3 7131   1.249   3.958   3.021
 1775SOL    MW4 7132   1.327   3.993   3.001
 1776SOL     OW 7133   1.342   4.266   3.111
 1776SOL    HW2 7134   1.333   4.172   3.095
 1776SOL    HW3 7135   1.270   4.306   3.063
 1776SOL    MW4 7136   1.331   4.259   3.103
 1777SOL     OW 7137   1.568   4.393   2.993
 1777SOL    HW2 7138   1.499   4.341   3.034
 1777SOL    HW3 7139   1.560   4.480   3.032
 1777SOL    MW4 7140   1.558   4.398   3.003
 1778SOL     OW 7141   2.000   0.025   3.103
 1778SOL    HW2 7142   1.992   0.027   3.198
 1778SOL    HW3 7143   1.916   0.059   3.071
 1778SOL    MW4 7144   1.987   0.030   3.111
 1779SOL     OW 7145   1.760   0.113   2.999
 1779SOL    HW2 7146   1.689   0.067   3.043
 1779SOL    HW3 7147   1.750   0.091   2.906
 1779SOL    MW4 7148   1.749   0.104   2.992
 1780SOL     OW 7149   1.727   0.366   3.069
 1780SOL    HW2 7150   1.729   0.273   3.045
 1780SOL    HW3 7151   1.644   0.399   3.034
 1780SOL    MW4 7152   1.716   0.358   3.061
 1781SOL     OW 7153   1.958   0.502   3.030
 1781SOL    HW2 7154   1.873   0.460   3.042
 1781SOL    HW3 7155   1.976   0.493   2.937
 1781SOL    MW4 7156   1.949   0.495   3.019
 1782SOL     OW 7157   2.064   0.761   3.067
 1782SOL    HW2 7158   1.980   0.805   3.059
 1782SOL    HW3 7159   2.044   0.668   3.056
 1782SOL    MW4 7160   2.051   0.755   3.064
 1783SOL     OW 7161   1.824   0.891   3.039
 1783SOL    HW2 7162   1.744   0.847   3.067
 1783SOL    HW3 7163   1.819   0.891   2.943
 1783SOL    MW4 7164   1.812   0.885   3.030
 1784SOL     OW 7165   1.800   1.162   3.092
 1784SOL    HW2 7166   1.779   1.168   3.185
 1784SOL    HW3 7167   1.809   1.068   3.075
 1784SOL    MW4 7168   1.798   1.150   3.102
 1785SOL     OW 7169   1.984   1.330   2.986
 1785SOL    HW2 7170   2.058   1.295   3.035
 1785SOL    HW3 7171   1.909   1.277   3.015
 1785SOL    MW4 7172   1.984   1.318   2.997
 1786SOL     OW 7173   1.989   1.592   3.095
 1786SOL    HW2 7174   1.961   1.602   3.186
 1786SOL    HW3 7175   1.988   1.498   3.080
 1786SOL    MW4 7176   1.985   1.581   3.105
 1787SOL     OW 7177   1.774   1.728   3.002
 1787SOL    HW2 7178   1.783   1.816   3.038
 1787SOL    HW3 7179   1.842   1.677   3.045
 1787SOL    MW4 7180   1.784   1.733   3.012
 1788SOL     OW 7181   1.818   1.972   3.110
 1788SOL    HW2 7182   1.886   2.009   3.054
 1788SOL    HW3 7183   1.737   2.014   3.081
 1788SOL    MW4 7184   1.816   1.983   3.099
 1789SOL     OW 7185   2.049   2.065   2.995
 1789SOL    HW2 7186   2.106   2.014   3.053
 1789SOL    HW3 7187   2.052   2.154   3.032
 1789SOL    MW4 7188   2.057   2.070   3.008
 1790SOL     OW 7189   2.017   2.333   3.077
 1790SOL    HW2 7190   2.101   2.372   3.055
 1790SOL    HW3 7191   1.954   2.405   3.068
 1790SOL    MW4 7192   2.020   2.348   3.073
 1791SOL     OW 7193   1.814   2.503   3.054
 1791SOL    HW2 7194   1.806   2.594   3.082
 1791SOL    HW3 7195   1.728   2.465   3.071
 1791SOL    MW4 7196   1.802   2.510   3.060
 1792SOL     OW 7197   1.784   2.772   3.131
 1792SOL    HW2 7198   1.764   2.759   3.224
 1792SOL    HW3 7199   1.865   2.823   3.131
 1792SOL    MW4 7200   1.792   2.777   3.143
 1793SOL     OW 7201   2.038   2.877   3.044
 1793SOL    HW2 7202   2.029   2.971   3.057
 1793SOL    HW3 7203   2.018   2.863   2.951
 1793SOL    MW4 7204   2.034   2.887   3.033
 1794SOL     OW 7205   2.018   3.149   3.100
 1794SOL    HW2 7206   2.028   3.146   3.195
 1794SOL    HW3 7207   1.925   3.167   3.086
 1794SOL    MW4 7208   2.007   3.151   3.111
 1795SOL     OW 7209   1.772   3.230   3.003
 1795SOL    HW2 7210   1.700   3.185   3.047
 1795SOL    HW3 7211   1.760   3.209   2.910
 1795SOL    MW4 7212   1.761   3.222   2.997
 1796SOL     OW 7213   1.789   3.476   3.122
 1796SOL    HW2 7214   1.777   3.388   3.086
 1796SOL    HW3 7215   1.713   3.525   3.093
 1796SOL    MW4 7216   1.778   3.471   3.114
 1797SOL     OW 7217   2.020   3.599   2.994
 1797SOL    HW2 7218   2.017   3.682   3.042
 1797SOL    HW3 7219   1.957   3.543   3.040
 1797SOL    MW4 7220   2.011   3.603   3.007
 1798SOL     OW 7221   2.035   3.842   3.104
 1798SOL    HW2 7222   2.024   3.835   3.199
 1798SOL    HW3 7223   1.958   3.890   3.074
 1798SOL    MW4 7224   2.023   3.847   3.112
 1799SOL     OW 7225   1.802   3.975   3.041
 1799SOL    HW2 7226   1.803   4.068   3.063
 1799SOL    HW3 7227   1.804   3.973   2.945
 1799SOL    MW4 7228   1.802   3.987   3.031
 1800SOL     OW 7229   1.785   4.256   3.104
 1800SOL    HW2 7230   1.855   4.315   3.075
 1800SOL    HW3 7231   1.706   4.291   3.063
 1800SOL    MW4 7232   1.783   4.269   3.095
 1801SOL     OW 7233   1.957   4.445   2.988
 1801SOL    HW2 7234   1.985   4.529   3.026
 1801SOL    HW3 7235   1.982   4.451   2.896
 1801SOL    MW4 7236   1.964   4.457   2.981
 1802SOL     OW 7237   2.427   0.027   3.136
 1802SOL    HW2 7238   2.428  -0.059   3.093
 1802SOL    HW3 7239   2.342   0.065   3.113
 1802SOL    MW4 7240   2.416   0.021   3.128
 1803SOL     OW 7241   2.217   0.160   2.993
 1803SOL    HW2 7242   2.220   0.252   3.021
 1803SOL    HW3 7243   2.140   0.125   3.038
 1803SOL    MW4 7244   2.207   0.167   3.003
 1804SOL     OW 7245   2.214   0.424   3.115
 1804SOL    HW2 7246   2.216   0.413   3.210
 1804SOL    HW3 7247   2.121   0.438   3.095
 1804SOL    MW4 7248   2.202   0.425   3.125
 1805SOL     OW 7249   2.427   0.553   3.010
 1805SOL    HW2 7250   2.355   0.503   3.048
 1805SOL    HW3 7251   2.417   0.542   2.916
 1805SOL    MW4 7252   2.416   0.545   3.003
 1806SOL     OW 7253   2.496   0.820   3.080
 1806SOL    HW2 7254   2.561   0.861   3.022
 1806SOL    HW3 7255   2.477   0.736   3.038
 1806SOL    MW4 7256   2.502   0.815   3.067
 1807SOL     OW 7257   2.263   0.954   2.992
 1807SOL    HW2 7258   2.342   0.911   3.026
 1807SOL    HW3 7259   2.191   0.896   3.018
 1807SOL    MW4 7260   2.264   0.941   3.000
 1808SOL     OW 7261   2.171   1.179   3.102
 1808SOL    HW2 7262   2.151   1.171   3.195
 1808SOL    HW3 7263   2.196   1.091   3.075
 1808SOL    MW4 7264   2.172   1.167   3.111
 1809SOL     OW 7265   2.442   1.258   3.058
 1809SOL    HW2 7266   2.348   1.253   3.074
 1809SOL    HW3 7267   2.451   1.256   2.963
 1809SOL    MW4 7268   2.431   1.257   3.047
 1810SOL     OW 7269   2.458   1.529   3.118
 1810SOL    HW2 7270   2.384   1.571   3.074
 1810SOL    HW3 7271   2.454   1.437   3.092
 1810SOL    MW4 7272   2.448   1.523   3.109
 1811SOL     OW 7273   2.234   1.648   3.014
 1811SOL    HW2 7274   2.153   1.619   3.055
 1811SOL    HW3 7275   2.218   1.642   2.920
 1811SOL    MW4 7276   2.221   1.644   3.007
 1812SOL     OW 7277   2.229   1.920   3.144
 1812SOL    HW2 7278   2.309   1.945   3.099
 1812SOL    HW3 7279   2.216   1.828   3.121
 1812SOL    MW4 7280   2.238   1.911   3.135
 1813SOL     OW 7281   2.452   2.030   3.024
 1813SOL    HW2 7282   2.522   1.967   3.042
 1813SOL    HW3 7283   2.450   2.036   2.928
 1813SOL    MW4 7284   2.461   2.022   3.013
 1814SOL     OW 7285   2.452   2.305   3.137
 1814SOL    HW2 7286   2.451   2.292   3.232
 1814SOL    HW3 7287   2.463   2.217   3.101
 1814SOL    MW4 7288   2.453   2.292   3.145
 1815SOL     OW 7289   2.260   2.450   2.993
 1815SOL    HW2 7290   2.273   2.538   3.028
 1815SOL    HW3 7291   2.326   2.397   3.036
 1815SOL    MW4 7292   2.270   2.455   3.003
 1816SOL     OW 7293   2.235   2.699   3.119
 1816SOL    HW2 7294   2.307   2.757   3.093
 1816SOL    HW3 7295   2.156   2.744   3.090
 1816SOL    MW4 7296   2.234   2.713   3.112
 1817SOL     OW 7297   2.459   2.834   3.012
 1817SOL    HW2 7298   2.432   2.925   3.026
 1817SOL    HW3 7299   2.467   2.825   2.917
 1817SOL    MW4 7300   2.456   2.845   3.002
 1818SOL     OW 7301   2.434   3.086   3.102
 1818SOL    HW2 7302   2.510   3.138   3.076
 1818SOL    HW3 7303   2.366   3.151   3.119
 1818SOL    MW4 7304   2.435   3.101   3.101
 1819SOL     OW 7305   2.244   3.272   2.992
 1819SOL    HW2 7306   2.259   3.357   3.034
 1819SOL    HW3 7307   2.159   3.243   3.025
 1819SOL    MW4 7308   2.235   3.279   3.002
 1820SOL     OW 7309   2.271   3.492   3.132
 1820SOL    HW2 7310   2.335   3.543   3.083
 1820SOL    HW3 7311   2.187   3.536   3.115
 1820SOL    MW4 7312   2.268   3.504   3.123
 1821SOL     OW 7313   2.492   3.614   2.990
 1821SOL    HW2 7314   2.559   3.559   3.032
 1821SOL    HW3 7315   2.498   3.698   3.035
 1821SOL    MW4 7316   2.502   3.618   3.001
 1822SOL     OW 7317   2.463   3.874   3.099
 1822SOL    HW2 7318   2.448   3.867   3.193
 1822SOL    HW3 7319   2.548   3.919   3.092
 1822SOL    MW4 7320   2.473   3.879   3.111
 1823SOL     OW 7321   2.226   4.018   3.023
 1823SOL    HW2 7322   2.308   3.997   3.067
 1823SOL    HW3 7323   2.164   3.953   3.056
 1823SOL    MW4 7324   2.229   4.007   3.033
 1824SOL     OW 7325   2.181   4.289   3.086
 1824SOL    HW2 7326   2.180   4.196   3.061
 1824SOL    HW3 7327   2.100   4.325   3.050
 1824SOL    MW4 7328   2.170   4.281   3.078
 1825SOL     OW 7329   2.409   4.430   3.023
 1825SOL    HW2 7330   2.327   4.381   3.026
 1825SOL    HW3 7331   2.431   4.435   2.930
 1825SOL    MW4 7332   2.401   4.424   3.011
 1826SOL     OW 7333   2.877   0.013   3.119
 1826SOL    HW2 7334   2.963   0.028   3.080
 1826SOL    HW3 7335   2.861  -0.081   3.107
 1826SOL    MW4 7336   2.886   0.003   3.112
 1827SOL     OW 7337   2.645   0.152   3.002
 1827SOL    HW2 7338   2.722   0.128   3.053
 1827SOL    HW3 7339   2.571   0.118   3.052
 1827SOL    MW4 7340   2.645   0.144   3.015
 1828SOL     OW 7341   2.660   0.419   3.097
 1828SOL    HW2 7342   2.660   0.328   3.069
 1828SOL    HW3 7343   2.584   0.458   3.053
 1828SOL    MW4 7344   2.650   0.412   3.087
 1829SOL     OW 7345   2.900   0.516   2.999
 1829SOL    HW2 7346   2.814   0.482   3.026
 1829SOL    HW3 7347   2.890   0.533   2.905
 1829SOL    MW4 7348   2.887   0.514   2.990
 1830SOL     OW 7349   2.888   0.776   3.075
 1830SOL    HW2 7350   2.871   0.770   3.169
 1830SOL    HW3 7351   2.901   0.685   3.047
 1830SOL    MW4 7352   2.888   0.763   3.083
 1831SOL     OW 7353   2.730   0.949   2.935
 1831SOL    HW2 7354   2.736   1.031   2.985
 1831SOL    HW3 7355   2.775   0.884   2.989
 1831SOL    MW4 7356   2.736   0.951   2.949
 1832SOL     OW 7357   2.683   1.149   3.150
 1832SOL    HW2 7358   2.759   1.183   3.104
 1832SOL    HW3 7359   2.609   1.200   3.116
 1832SOL    MW4 7360   2.683   1.160   3.140
 1833SOL     OW 7361   2.872   1.286   3.017
 1833SOL    HW2 7362   2.950   1.233   3.030
 1833SOL    HW3 7363   2.892   1.370   3.057
 1833SOL    MW4 7364   2.885   1.290   3.024
 1834SOL     OW 7365   2.920   1.532   3.125
 1834SOL    HW2 7366   2.928   1.531   3.220
 1834SOL    HW3 7367   2.997   1.580   3.095
 1834SOL    MW4 7368   2.931   1.538   3.134
 1835SOL     OW 7369   2.697   1.664   3.031
 1835SOL    HW2 7370   2.771   1.610   3.058
 1835SOL    HW3 7371   2.620   1.619   3.065
 1835SOL    MW4 7372   2.697   1.651   3.039
 1836SOL     OW 7373   2.692   1.913   3.132
 1836SOL    HW2 7374   2.761   1.956   3.082
 1836SOL    HW3 7375   2.691   1.823   3.100
 1836SOL    MW4 7376   2.701   1.907   3.121
 1837SOL     OW 7377   2.930   2.019   3.023
 1837SOL    HW2 7378   2.907   2.108   3.050
 1837SOL    HW3 7379   2.929   2.022   2.927
 1837SOL    MW4 7380   2.927   2.031   3.014
 1838SOL     OW 7381   2.886   2.280   3.085
 1838SOL    HW2 7382   2.967   2.327   3.065
 1838SOL    HW3 7383   2.816   2.340   3.059
 1838SOL    MW4 7384   2.887   2.294   3.079
 1839SOL     OW 7385   2.667   2.436   3.028
 1839SOL    HW2 7386   2.675   2.521   3.070
 1839SOL    HW3 7387   2.599   2.391   3.079
 1839SOL    MW4 7388   2.659   2.441   3.040
 1840SOL     OW 7389   2.653   2.693   3.127
 1840SOL    HW2 7390   2.613   2.701   3.214
 1840SOL    HW3 7391   2.608   2.758   3.074
 1840SOL    MW4 7392   2.642   2.703   3.131
 1841SOL     OW 7393   2.906   2.811   3.065
 1841SOL    HW2 7394   2.979   2.750   3.075
 1841SOL    HW3 7395   2.831   2.765   3.104
 1841SOL    MW4 7396   2.905   2.797   3.072
 1842SOL     OW 7397   2.898   3.074   3.103
 1842SOL    HW2 7398   2.808   3.102   3.088
 1842SOL    HW3 7399   2.895   2.979   3.091
 1842SOL    MW4 7400   2.886   3.065   3.099
 1843SOL     OW 7401   2.669   3.198   3.027
 1843SOL    HW2 7402   2.684   3.281   3.073
 1843SOL    HW3 7403   2.672   3.221   2.934
 1843SOL    MW4 7404   2.672   3.212   3.021
 1844SOL     OW 7405   2.673   3.453   3.109
 1844SOL    HW2 7406   2.688   3.470   3.202
 1844SOL    HW3 7407   2.748   3.495   3.066
 1844SOL    MW4 7408   2.685   3.461   3.116
 1845SOL     OW 7409   2.909   3.583   2.986
 1845SOL    HW2 7410   2.985   3.545   3.030
 1845SOL    HW3 7411   2.903   3.672   3.021
 1845SOL    MW4 7412   2.918   3.590   2.997
 1846SOL     OW 7413   2.885   3.837   3.075
 1846SOL    HW2 7414   2.876   3.862   3.167
 1846SOL    HW3 7415   2.821   3.890   3.029
 1846SOL    MW4 7416   2.876   3.847   3.081
 1847SOL     OW 7417   2.698   4.013   2.982
 1847SOL    HW2 7418   2.690   4.092   3.036
 1847SOL    HW3 7419   2.678   4.043   2.893
 1847SOL    MW4 7420   2.695   4.028   2.977
 1848SOL     OW 7421   2.649   4.252   3.098
 1848SOL    HW2 7422   2.646   4.243   3.193
 1848SOL    HW3 7423   2.569   4.299   3.075
 1848SOL    MW4 7424   2.638   4.257   3.107
 1849SOL     OW 7425   2.861   4.411   3.034
 1849SOL    HW2 7426   2.945   4.379   3.065
 1849SOL    HW3 7427   2.797   4.347   3.065
 1849SOL    MW4 7428   2.863   4.399   3.042
 1850SOL     OW 7429   3.360   0.009   3.103
 1850SOL    HW2 7430   3.428   0.058   3.056
 1850SOL    HW3 7431   3.366  -0.080   3.068
 1850SOL    MW4 7432   3.370   0.004   3.092
 1851SOL     OW 7433   3.114   0.092   2.975
 1851SOL    HW2 7434   3.111   0.177   3.019
 1851SOL    HW3 7435   3.192   0.049   3.010
 1851SOL    MW4 7436   3.124   0.097   2.985
 1852SOL     OW 7437   3.113   0.363   3.070
 1852SOL    HW2 7438   3.187   0.414   3.038
 1852SOL    HW3 7439   3.035   0.408   3.036
 1852SOL    MW4 7440   3.112   0.375   3.061
 1853SOL     OW 7441   3.339   0.500   3.004
 1853SOL    HW2 7442   3.413   0.455   3.044
 1853SOL    HW3 7443   3.364   0.511   2.913
 1853SOL    MW4 7444   3.352   0.495   2.998
 1854SOL     OW 7445   3.312   0.746   3.125
 1854SOL    HW2 7446   3.317   0.752   3.221
 1854SOL    HW3 7447   3.324   0.653   3.106
 1854SOL    MW4 7448   3.314   0.734   3.135
 1855SOL     OW 7449   3.120   0.883   2.985
 1855SOL    HW2 7450   3.181   0.828   3.033
 1855SOL    HW3 7451   3.033   0.852   3.013
 1855SOL    MW4 7452   3.116   0.872   2.995
 1856SOL     OW 7453   3.115   1.149   3.059
 1856SOL    HW2 7454   3.198   1.188   3.033
 1856SOL    HW3 7455   3.121   1.058   3.029
 1856SOL    MW4 7456   3.127   1.142   3.052
 1857SOL     OW 7457   3.368   1.252   2.998
 1857SOL    HW2 7458   3.435   1.199   3.041
 1857SOL    HW3 7459   3.368   1.334   3.047
 1857SOL    MW4 7460   3.377   1.256   3.010
 1858SOL     OW 7461   3.359   1.521   3.122
 1858SOL    HW2 7462   3.361   1.527   3.217
 1858SOL    HW3 7463   3.435   1.572   3.093
 1858SOL    MW4 7464   3.369   1.529   3.131
 1859SOL     OW 7465   3.151   1.660   3.016
 1859SOL    HW2 7466   3.224   1.611   3.053
 1859SOL    HW3 7467   3.162   1.652   2.921
 1859SOL    MW4 7468   3.162   1.652   3.008
 1860SOL     OW 7469   3.154   1.900   3.134
 1860SOL    HW2 7470   3.154   1.815   3.089
 1860SOL    HW3 7471   3.074   1.944   3.103
 1860SOL    MW4 7472   3.143   1.894   3.124
 1861SOL     OW 7473   3.356   2.037   2.984
 1861SOL    HW2 7474   3.440   2.007   3.018
 1861SOL    HW3 7475   3.291   1.985   3.032
 1861SOL    MW4 7476   3.358   2.026   2.995
 1862SOL     OW 7477   3.346   2.302   3.091
 1862SOL    HW2 7478   3.327   2.309   3.185
 1862SOL    HW3 7479   3.357   2.208   3.076
 1862SOL    MW4 7480   3.345   2.290   3.102
 1863SOL     OW 7481   3.115   2.421   3.015
 1863SOL    HW2 7482   3.194   2.369   3.031
 1863SOL    HW3 7483   3.108   2.427   2.920
 1863SOL    MW4 7484   3.124   2.415   3.005
 1864SOL     OW 7485   3.149   2.689   3.083
 1864SOL    HW2 7486   3.157   2.688   3.179
 1864SOL    HW3 7487   3.147   2.596   3.059
 1864SOL    MW4 7488   3.150   2.676   3.093
 1865SOL     OW 7489   3.375   2.815   2.998
 1865SOL    HW2 7490   3.358   2.900   3.039
 1865SOL    HW3 7491   3.299   2.762   3.020
 1865SOL    MW4 7492   3.363   2.819   3.006
 1866SOL     OW 7493   3.380   3.070   3.096
 1866SOL    HW2 7494   3.382   3.085   3.191
 1866SOL    HW3 7495   3.301   3.116   3.066
 1866SOL    MW4 7496   3.370   3.078   3.105
 1867SOL     OW 7497   3.141   3.196   3.018
 1867SOL    HW2 7498   3.062   3.158   3.057
 1867SOL    HW3 7499   3.121   3.204   2.925
 1867SOL    MW4 7500   3.128   3.192   3.011
 1868SOL     OW 7501   3.121   3.469   3.105
 1868SOL    HW2 7502   3.193   3.504   3.052
 1868SOL    HW3 7503   3.133   3.375   3.104
 1868SOL    MW4 7504   3.132   3.461   3.098
 1869SOL     OW 7505   3.325   3.578   2.972
 1869SOL    HW2 7506   3.406   3.545   3.010
 1869SOL    HW3 7507   3.315   3.666   3.008
 1869SOL    MW4 7508   3.334   3.585   2.982
 1870SOL     OW 7509   3.358   3.859   3.053
 1870SOL    HW2 7510   3.354   3.825   3.143
 1870SOL    HW3 7511   3.275   3.903   3.040
 1870SOL    MW4 7512   3.347   3.860   3.063
 1871SOL     OW 7513   3.085   3.996   3.007
 1871SOL    HW2 7514   3.014   3.939   3.034
 1871SOL    HW3 7515   3.064   4.019   2.916
 1871SOL    MW4 7516   3.073   3.992   2.999
 1872SOL     OW 7517   3.092   4.275   3.086
 1872SOL    HW2 7518   3.118   4.298   3.176
 1872SOL    HW3 7519   3.105   4.180   3.082
 1872SOL    MW4 7520   3.098   4.265   3.097
 1873SOL     OW 7521   3.330   4.428   3.001
 1873SOL    HW2 7522   3.400   4.380   3.044
 1873SOL    HW3 7523   3.250   4.393   3.039
 1873SOL    MW4 7524   3.329   4.417   3.012
 1874SOL     OW 7525   3.805   4.639   3.098
 1874SOL    HW2 7526   3.794   4.555   3.052
 1874SOL    HW3 7527   3.729   4.691   3.071
 1874SOL    MW4 7528   3.793   4.634   3.088
 1875SOL     OW 7529   3.572   0.123   2.994
 1875SOL    HW2 7530   3.559   0.215   3.017
 1875SOL    HW3 7531   3.575   0.122   2.898
 1875SOL    MW4 7532   3.571   0.135   2.985
 1876SOL     OW 7533   3.569   0.381   3.078
 1876SOL    HW2 7534   3.569   0.380   3.174
 1876SOL    HW3 7535   3.657   0.412   3.054
 1876SOL    MW4 7536   3.581   0.385   3.088
 1877SOL     OW 7537   3.813   0.495   3.050
 1877SOL    HW2 7538   3.893   0.467   3.094
 1877SOL    HW3 7539   3.810   0.590   3.063
 1877SOL    MW4 7540   3.823   0.504   3.057
 1878SOL     OW 7541   3.775   0.782   3.089
 1878SOL    HW2 7542   3.766   0.814   3.179
 1878SOL    HW3 7543   3.856   0.821   3.057
 1878SOL    MW4 7544   3.784   0.791   3.097
 1879SOL     OW 7545   3.536   0.861   2.972
 1879SOL    HW2 7546   3.610   0.814   3.010
 1879SOL    HW3 7547   3.461   0.837   3.026
 1879SOL    MW4 7548   3.536   0.852   2.984
 1880SOL     OW 7549   3.560   1.104   3.121
 1880SOL    HW2 7550   3.626   1.143   3.063
 1880SOL    HW3 7551   3.549   1.015   3.088
 1880SOL    MW4 7552   3.567   1.097   3.109
 1881SOL     OW 7553   3.753   1.243   2.979
 1881SOL    HW2 7554   3.778   1.332   3.005
 1881SOL    HW3 7555   3.736   1.249   2.885
 1881SOL    MW4 7556   3.754   1.256   2.970
 1882SOL     OW 7557   3.816   1.493   3.110
 1882SOL    HW2 7558   3.820   1.500   3.205
 1882SOL    HW3 7559   3.744   1.551   3.084
 1882SOL    MW4 7560   3.807   1.502   3.119
 1883SOL     OW 7561   3.577   1.662   3.024
 1883SOL    HW2 7562   3.597   1.750   3.056
 1883SOL    HW3 7563   3.573   1.672   2.929
 1883SOL    MW4 7564   3.579   1.675   3.016
 1884SOL     OW 7565   3.585   1.930   3.111
 1884SOL    HW2 7566   3.577   1.935   3.207
 1884SOL    HW3 7567   3.668   1.972   3.092
 1884SOL    MW4 7568   3.595   1.936   3.121
 1885SOL     OW 7569   3.808   2.066   3.046
 1885SOL    HW2 7570   3.830   2.158   3.063
 1885SOL    HW3 7571   3.795   2.061   2.952
 1885SOL    MW4 7572   3.809   2.077   3.036
 1886SOL     OW 7573   3.860   2.316   3.104
 1886SOL    HW2 7574   3.834   2.293   3.193
 1886SOL    HW3 7575   3.785   2.364   3.068
 1886SOL    MW4 7576   3.847   2.319   3.111
 1887SOL     OW 7577   3.598   2.387   3.020
 1887SOL    HW2 7578   3.583   2.472   3.061
 1887SOL    HW3 7579   3.519   2.336   3.041
 1887SOL    MW4 7580   3.585   2.391   3.028
 1888SOL     OW 7581   3.581   2.677   3.095
 1888SOL    HW2 7582   3.651   2.724   3.049
 1888SOL    HW3 7583   3.501   2.725   3.073
 1888SOL    MW4 7584   3.580   2.690   3.086
 1889SOL     OW 7585   3.796   2.798   2.958
 1889SOL    HW2 7586   3.775   2.885   2.992
 1889SOL    HW3 7587   3.803   2.810   2.863
 1889SOL    MW4 7588   3.794   2.811   2.950
 1890SOL     OW 7589   3.769   3.048   3.057
 1890SOL    HW2 7590   3.847   3.097   3.030
 1890SOL    HW3 7591   3.695   3.101   3.026
 1890SOL    MW4 7592   3.769   3.062   3.049
 1891SOL     OW 7593   3.583   3.233   2.986
 1891SOL    HW2 7594   3.503   3.184   3.005
 1891SOL    HW3 7595   3.582   3.244   2.891
 1891SOL    MW4 7596   3.572   3.228   2.976
 1892SOL     OW 7597   3.555   3.481   3.103
 1892SOL    HW2 7598   3.623   3.534   3.061
 1892SOL    HW3 7599   3.564   3.394   3.065
 1892SOL    MW4 7600   3.565   3.477   3.093
 1893SOL     OW 7601   3.754   3.620   2.968
 1893SOL    HW2 7602   3.754   3.712   2.992
 1893SOL    HW3 7603   3.735   3.618   2.874
 1893SOL    MW4 7604   3.751   3.632   2.959
 1894SOL     OW 7605   3.800   3.876   3.081
 1894SOL    HW2 7606   3.801   3.865   3.176
 1894SOL    HW3 7607   3.720   3.924   3.063
 1894SOL    MW4 7608   3.790   3.881   3.091
 1895SOL     OW 7609   3.580   4.023   3.005
 1895SOL    HW2 7610   3.495   3.980   3.015
 1895SOL    HW3 7611   3.596   4.022   2.911
 1895SOL    MW4 7612   3.571   4.017   2.994
 1896SOL     OW 7613   3.540   4.273   3.108
 1896SOL    HW2 7614   3.621   4.322   3.095
 1896SOL    HW3 7615   3.557   4.188   3.067
 1896SOL    MW4 7616   3.553   4.268   3.101
 1897SOL     OW 7617   3.795   4.372   3.020
 1897SOL    HW2 7618   3.882   4.335   3.035
 1897SOL    HW3 7619   3.787   4.378   2.925
 1897SOL    MW4 7620   3.806   4.368   3.010
 1898SOL     OW 7621   4.256   4.652   3.094
 1898SOL    HW2 7622   4.267   4.645   3.189
 1898SOL    HW3 7623   4.226   4.565   3.067
 1898SOL    MW4 7624   4.254   4.639   3.103
 1899SOL     OW 7625   4.034   0.120   2.981
 1899SOL    HW2 7626   4.113   0.080   3.016
 1899SOL    HW3 7627   3.962   0.068   3.017
 1899SOL    MW4 7628   4.035   0.108   2.990
 1900SOL     OW 7629   4.046   0.371   3.114
 1900SOL    HW2 7630   4.121   0.413   3.072
 1900SOL    HW3 7631   4.052   0.279   3.087
 1900SOL    MW4 7632   4.057   0.364   3.105
 1901SOL     OW 7633   4.251   0.532   3.020
 1901SOL    HW2 7634   4.255   0.625   3.038
 1901SOL    HW3 7635   4.267   0.525   2.925
 1901SOL    MW4 7636   4.253   0.543   3.010
 1902SOL     OW 7637   4.298   0.810   3.102
 1902SOL    HW2 7638   4.220   0.845   3.060
 1902SOL    HW3 7639   4.368   0.869   3.075
 1902SOL    MW4 7640   4.297   0.822   3.093
 1903SOL     OW 7641   4.025   0.887   2.995
 1903SOL    HW2 7642   4.018   0.979   3.021
 1903SOL    HW3 7643   4.031   0.890   2.899
 1903SOL    MW4 7644   4.025   0.900   2.986
 1904SOL     OW 7645   3.997   1.149   3.064
 1904SOL    HW2 7646   3.995   1.144   3.159
 1904SOL    HW3 7647   3.907   1.170   3.039
 1904SOL    MW4 7648   3.985   1.151   3.073
 1905SOL     OW 7649   4.257   1.269   3.017
 1905SOL    HW2 7650   4.175   1.230   3.048
 1905SOL    HW3 7651   4.252   1.262   2.921
 1905SOL    MW4 7652   4.246   1.263   3.008
 1906SOL     OW 7653   4.292   1.526   3.097
 1906SOL    HW2 7654   4.210   1.561   3.062
 1906SOL    HW3 7655   4.288   1.432   3.076
 1906SOL    MW4 7656   4.280   1.518   3.089
 1907SOL     OW 7657   4.044   1.646   3.008
 1907SOL    HW2 7658   4.017   1.724   3.056
 1907SOL    HW3 7659   3.971   1.585   3.018
 1907SOL    MW4 7660   4.031   1.648   3.016
 1908SOL     OW 7661   4.009   1.903   3.134
 1908SOL    HW2 7662   4.078   1.944   3.081
 1908SOL    HW3 7663   3.934   1.961   3.124
 1908SOL    MW4 7664   4.008   1.916   3.126
 1909SOL     OW 7665   4.234   2.031   2.990
 1909SOL    HW2 7666   4.241   2.114   3.037
 1909SOL    HW3 7667   4.217   2.057   2.899
 1909SOL    MW4 7668   4.233   2.045   2.984
 1910SOL     OW 7669   4.253   2.281   3.088
 1910SOL    HW2 7670   4.184   2.325   3.038
 1910SOL    HW3 7671   4.334   2.326   3.062
 1910SOL    MW4 7672   4.255   2.293   3.078
 1911SOL     OW 7673   4.054   2.447   2.994
 1911SOL    HW2 7674   4.056   2.536   3.030
 1911SOL    HW3 7675   3.981   2.404   3.040
 1911SOL    MW4 7676   4.045   2.453   3.005
 1912SOL     OW 7677   4.034   2.696   3.103
 1912SOL    HW2 7678   4.029   2.697   3.199
 1912SOL    HW3 7679   3.952   2.737   3.074
 1912SOL    MW4 7680   4.022   2.701   3.112
 1913SOL     OW 7681   4.260   2.797   2.978
 1913SOL    HW2 7682   4.187   2.756   3.025
 1913SOL    HW3 7683   4.338   2.757   3.016
 1913SOL    MW4 7684   4.261   2.786   2.989
 1914SOL     OW 7685   4.226   3.055   3.075
 1914SOL    HW2 7686   4.147   3.101   3.045
 1914SOL    HW3 7687   4.226   2.973   3.025
 1914SOL    MW4 7688   4.216   3.050   3.064
 1915SOL     OW 7689   3.994   3.187   2.963
 1915SOL    HW2 7690   3.985   3.267   3.015
 1915SOL    HW3 7691   3.997   3.217   2.872
 1915SOL    MW4 7692   3.993   3.202   2.958
 1916SOL     OW 7693   3.991   3.432   3.090
 1916SOL    HW2 7694   4.029   3.435   3.178
 1916SOL    HW3 7695   3.910   3.482   3.097
 1916SOL    MW4 7696   3.986   3.439   3.103
 1917SOL     OW 7697   4.247   3.558   2.994
 1917SOL    HW2 7698   4.214   3.642   3.025
 1917SOL    HW3 7699   4.184   3.494   3.028
 1917SOL    MW4 7700   4.234   3.561   3.003
 1918SOL     OW 7701   4.216   3.834   3.082
 1918SOL    HW2 7702   4.148   3.890   3.045
 1918SOL    HW3 7703   4.298   3.880   3.063
 1918SOL    MW4 7704   4.218   3.847   3.074
 1919SOL     OW 7705   4.028   3.993   2.960
 1919SOL    HW2 7706   4.039   4.080   2.998
 1919SOL    HW3 7707   3.946   3.960   2.998
 1919SOL    MW4 7708   4.019   4.000   2.970
 1920SOL     OW 7709   4.032   4.242   3.090
 1920SOL    HW2 7710   4.023   4.242   3.185
 1920SOL    HW3 7711   4.103   4.303   3.072
 1920SOL    MW4 7712   4.040   4.250   3.100
 1921SOL     OW 7713   4.244   4.400   3.003
 1921SOL    HW2 7714   4.320   4.360   3.047
 1921SOL    HW3 7715   4.268   4.398   2.910
 1921SOL    MW4 7716   4.257   4.394   2.996
 1922SOL     OW 7717   0.197   0.003   3.418
 1922SOL    HW2 7718   0.278   0.041   3.450
 1922SOL    HW3 7719   0.202  -0.090   3.443
 1922SOL    MW4 7720   0.208  -0.005   3.425
 1923SOL     OW 7721   4.464   0.105   3.515
 1923SOL    HW2 7722   4.459   0.190   3.473
 1923SOL    HW3 7723   4.542   0.064   3.477
 1923SOL    MW4 7724   4.474   0.111   3.505
 1924SOL     OW 7725   4.464   0.368   3.390
 1924SOL    HW2 7726   4.389   0.410   3.433
 1924SOL    HW3 7727   4.540   0.418   3.419
 1924SOL    MW4 7728   4.464   0.380   3.399
 1925SOL     OW 7729   0.215   0.497   3.475
 1925SOL    HW2 7730   0.293   0.454   3.439
 1925SOL    HW3 7731   0.212   0.582   3.430
 1925SOL    MW4 7732   0.225   0.502   3.464
 1926SOL     OW 7733   0.205   0.778   3.350
 1926SOL    HW2 7734   0.285   0.807   3.394
 1926SOL    HW3 7735   0.134   0.814   3.403
 1926SOL    MW4 7736   0.207   0.787   3.363
 1927SOL     OW 7737   4.468   0.889   3.478
 1927SOL    HW2 7738   4.451   0.898   3.572
 1927SOL    HW3 7739   4.479   0.979   3.447
 1927SOL    MW4 7740   4.467   0.902   3.487
 1928SOL     OW 7741   4.486   1.156   3.366
 1928SOL    HW2 7742   4.575   1.188   3.381
 1928SOL    HW3 7743   4.477   1.153   3.271
 1928SOL    MW4 7744   4.497   1.159   3.356
 1929SOL     OW 7745   0.205   1.305   3.490
 1929SOL    HW2 7746   0.289   1.269   3.461
 1929SOL    HW3 7747   0.203   1.393   3.453
 1929SOL    MW4 7748   0.216   1.312   3.481
 1930SOL     OW 7749   0.265   1.560   3.388
 1930SOL    HW2 7750   0.342   1.611   3.413
 1930SOL    HW3 7751   0.266   1.560   3.292
 1930SOL    MW4 7752   0.275   1.567   3.379
 1931SOL     OW 7753   0.009   1.673   3.480
 1931SOL    HW2 7754  -0.065   1.636   3.431
 1931SOL    HW3 7755   0.086   1.624   3.448
 1931SOL    MW4 7756   0.010   1.661   3.469
 1932SOL     OW 7757   4.489   1.939   3.427
 1932SOL    HW2 7758   4.501   1.850   3.461
 1932SOL    HW3 7759   4.457   1.927   3.338
 1932SOL    MW4 7760   4.487   1.926   3.420
 1933SOL     OW 7761   0.251   2.054   3.457
 1933SOL    HW2 7762   0.245   2.057   3.553
 1933SOL    HW3 7763   0.168   2.015   3.429
 1933SOL    MW4 7764   0.239   2.050   3.466
 1934SOL     OW 7765   0.199   2.304   3.377
 1934SOL    HW2 7766   0.126   2.347   3.422
 1934SOL    HW3 7767   0.200   2.215   3.413
 1934SOL    MW4 7768   0.189   2.298   3.388
 1935SOL     OW 7769   4.462   2.441   3.472
 1935SOL    HW2 7770   4.448   2.433   3.566
 1935SOL    HW3 7771   4.389   2.395   3.432
 1935SOL    MW4 7772   4.451   2.434   3.479
 1936SOL     OW 7773   4.473   2.706   3.383
 1936SOL    HW2 7774   4.543   2.748   3.433
 1936SOL    HW3 7775   4.463   2.620   3.424
 1936SOL    MW4 7776   4.481   2.700   3.395
 1937SOL     OW 7777   0.205   2.824   3.518
 1937SOL    HW2 7778   0.285   2.781   3.488
 1937SOL    HW3 7779   0.215   2.916   3.492
 1937SOL    MW4 7780   0.217   2.831   3.511
 1938SOL     OW 7781   0.229   3.087   3.399
 1938SOL    HW2 7782   0.144   3.115   3.431
 1938SOL    HW3 7783   0.215   3.067   3.307
 1938SOL    MW4 7784   0.216   3.088   3.391
 1939SOL     OW 7785   4.481   3.160   3.486
 1939SOL    HW2 7786   4.393   3.129   3.466
 1939SOL    HW3 7787   4.481   3.252   3.461
 1939SOL    MW4 7788   4.470   3.168   3.480
 1940SOL     OW 7789   4.483   3.431   3.419
 1940SOL    HW2 7790   4.432   3.503   3.455
 1940SOL    HW3 7791   4.468   3.435   3.325
 1940SOL    MW4 7792   4.474   3.441   3.412
 1941SOL     OW 7793   0.212   3.604   3.480
 1941SOL    HW2 7794   0.207   3.616   3.575
 1941SOL    HW3 7795   0.154   3.530   3.462
 1941SOL    MW4 7796   0.204   3.596   3.490
 1942SOL     OW 7797   0.178   3.857   3.332
 1942SOL    HW2 7798   0.112   3.911   3.374
 1942SOL    HW3 7799   0.184   3.779   3.387
 1942SOL    MW4 7800   0.170   3.854   3.345
 1943SOL     OW 7801   4.474   4.009   3.452
 1943SOL    HW2 7802   4.474   4.020   3.547
 1943SOL    HW3 7803   4.453   4.097   3.418
 1943SOL    MW4 7804   4.472   4.022   3.460
 1944SOL     OW 7805   4.475   4.260   3.319
 1944SOL    HW2 7806   4.399   4.305   3.357
 1944SOL    HW3 7807   4.551   4.307   3.352
 1944SOL    MW4 7808   4.475   4.272   3.328
 1945SOL     OW 7809   0.208   4.377   3.451
 1945SOL    HW2 7810   0.209   4.345   3.541
 1945SOL    HW3 7811   0.266   4.317   3.404
 1945SOL    MW4 7812   0.216   4.365   3.457
 1946SOL     OW 7813   0.655   4.634   3.421
 1946SOL    HW2 7814   0.735   4.680   3.448
 1946SOL    HW3 7815   0.662   4.628   3.326
 1946SOL    MW4 7816   0.667   4.639   3.412
 1947SOL     OW 7817   0.451   0.127   3.479
 1947SOL    HW2 7818   0.445   0.117   3.574
 1947SOL    HW3 7819   0.532   0.081   3.455
 1947SOL    MW4 7820   0.461   0.119   3.488
 1948SOL     OW 7821   0.440   0.387   3.371
 1948SOL    HW2 7822   0.503   0.437   3.423
 1948SOL    HW3 7823   0.445   0.298   3.406
 1948SOL    MW4 7824   0.449   0.382   3.383
 1949SOL     OW 7825   0.630   0.535   3.516
 1949SOL    HW2 7826   0.641   0.524   3.610
 1949SOL    HW3 7827   0.696   0.477   3.477
 1949SOL    MW4 7828   0.640   0.526   3.523
 1950SOL     OW 7829   0.658   0.760   3.354
 1950SOL    HW2 7830   0.600   0.816   3.404
 1950SOL    HW3 7831   0.651   0.674   3.396
 1950SOL    MW4 7832   0.649   0.756   3.366
 1951SOL     OW 7833   0.429   0.886   3.478
 1951SOL    HW2 7834   0.429   0.884   3.574
 1951SOL    HW3 7835   0.457   0.974   3.455
 1951SOL    MW4 7836   0.433   0.897   3.488
 1952SOL     OW 7837   0.431   1.158   3.369
 1952SOL    HW2 7838   0.514   1.185   3.407
 1952SOL    HW3 7839   0.453   1.136   3.278
 1952SOL    MW4 7840   0.445   1.158   3.362
 1953SOL     OW 7841   0.659   1.247   3.496
 1953SOL    HW2 7842   0.737   1.210   3.456
 1953SOL    HW3 7843   0.652   1.335   3.459
 1953SOL    MW4 7844   0.668   1.254   3.486
 1954SOL     OW 7845   0.656   1.499   3.380
 1954SOL    HW2 7846   0.744   1.527   3.402
 1954SOL    HW3 7847   0.599   1.565   3.420
 1954SOL    MW4 7848   0.660   1.511   3.388
 1955SOL     OW 7849   0.494   1.692   3.480
 1955SOL    HW2 7850   0.478   1.702   3.574
 1955SOL    HW3 7851   0.486   1.781   3.445
 1955SOL    MW4 7852   0.491   1.705   3.488
 1956SOL     OW 7853   0.460   1.920   3.338
 1956SOL    HW2 7854   0.383   1.964   3.375
 1956SOL    HW3 7855   0.446   1.924   3.243
 1956SOL    MW4 7856   0.448   1.926   3.331
 1957SOL     OW 7857   0.676   2.051   3.430
 1957SOL    HW2 7858   0.664   2.049   3.525
 1957SOL    HW3 7859   0.596   2.014   3.394
 1957SOL    MW4 7860   0.664   2.046   3.438
 1958SOL     OW 7861   0.649   2.322   3.346
 1958SOL    HW2 7862   0.723   2.371   3.382
 1958SOL    HW3 7863   0.669   2.231   3.365
 1958SOL    MW4 7864   0.661   2.317   3.353
 1959SOL     OW 7865   0.428   2.447   3.451
 1959SOL    HW2 7866   0.501   2.397   3.415
 1959SOL    HW3 7867   0.351   2.391   3.438
 1959SOL    MW4 7868   0.427   2.433   3.444
 1960SOL     OW 7869   0.440   2.708   3.378
 1960SOL    HW2 7870   0.423   2.618   3.403
 1960SOL    HW3 7871   0.432   2.709   3.282
 1960SOL    MW4 7872   0.437   2.697   3.368
 1961SOL     OW 7873   0.669   2.833   3.461
 1961SOL    HW2 7874   0.743   2.779   3.433
 1961SOL    HW3 7875   0.592   2.781   3.437
 1961SOL    MW4 7876   0.668   2.819   3.454
 1962SOL     OW 7877   0.663   3.103   3.357
 1962SOL    HW2 7878   0.593   3.139   3.411
 1962SOL    HW3 7879   0.667   3.011   3.382
 1962SOL    MW4 7880   0.654   3.095   3.367
 1963SOL     OW 7881   0.440   3.245   3.495
 1963SOL    HW2 7882   0.436   3.238   3.590
 1963SOL    HW3 7883   0.364   3.196   3.464
 1963SOL    MW4 7884   0.430   3.237   3.504
 1964SOL     OW 7885   0.457   3.505   3.394
 1964SOL    HW2 7886   0.450   3.413   3.416
 1964SOL    HW3 7887   0.378   3.545   3.433
 1964SOL    MW4 7888   0.446   3.498   3.402
 1965SOL     OW 7889   0.649   3.640   3.531
 1965SOL    HW2 7890   0.730   3.600   3.500
 1965SOL    HW3 7891   0.580   3.587   3.493
 1965SOL    MW4 7892   0.651   3.628   3.522
 1966SOL     OW 7893   0.625   3.867   3.333
 1966SOL    HW2 7894   0.543   3.911   3.355
 1966SOL    HW3 7895   0.622   3.784   3.381
 1966SOL    MW4 7896   0.614   3.862   3.342
 1967SOL     OW 7897   0.393   3.978   3.441
 1967SOL    HW2 7898   0.384   4.062   3.396
 1967SOL    HW3 7899   0.323   3.924   3.404
 1967SOL    MW4 7900   0.383   3.982   3.430
 1968SOL     OW 7901   0.412   4.227   3.344
 1968SOL    HW2 7902   0.479   4.271   3.396
 1968SOL    HW3 7903   0.428   4.258   3.254
 1968SOL    MW4 7904   0.423   4.237   3.339
 1969SOL     OW 7905   0.674   4.352   3.487
 1969SOL    HW2 7906   0.761   4.315   3.475
 1969SOL    HW3 7907   0.684   4.445   3.466
 1969SOL    MW4 7908   0.686   4.360   3.482
 1970SOL     OW 7909   1.102   4.631   3.399
 1970SOL    HW2 7910   1.188   4.666   3.424
 1970SOL    HW3 7911   1.099   4.641   3.304
 1970SOL    MW4 7912   1.113   4.637   3.390
 1971SOL     OW 7913   0.869   0.127   3.473
 1971SOL    HW2 7914   0.897   0.127   3.564
 1971SOL    HW3 7915   0.946   0.099   3.424
 1971SOL    MW4 7916   0.883   0.123   3.479
 1972SOL     OW 7917   0.837   0.400   3.382
 1972SOL    HW2 7918   0.924   0.429   3.412
 1972SOL    HW3 7919   0.834   0.308   3.406
 1972SOL    MW4 7920   0.848   0.392   3.389
 1973SOL     OW 7921   1.079   0.500   3.450
 1973SOL    HW2 7922   1.068   0.513   3.545
 1973SOL    HW3 7923   1.098   0.587   3.416
 1973SOL    MW4 7924   1.080   0.513   3.458
 1974SOL     OW 7925   1.102   0.768   3.390
 1974SOL    HW2 7926   1.175   0.825   3.412
 1974SOL    HW3 7927   1.028   0.804   3.441
 1974SOL    MW4 7928   1.102   0.781   3.400
 1975SOL     OW 7929   0.865   0.877   3.512
 1975SOL    HW2 7930   0.853   0.965   3.477
 1975SOL    HW3 7931   0.801   0.823   3.466
 1975SOL    MW4 7932   0.855   0.881   3.502
 1976SOL     OW 7933   0.862   1.140   3.371
 1976SOL    HW2 7934   0.937   1.184   3.411
 1976SOL    HW3 7935   0.877   1.147   3.277
 1976SOL    MW4 7936   0.874   1.147   3.364
 1977SOL     OW 7937   1.102   1.242   3.453
 1977SOL    HW2 7938   1.098   1.248   3.548
 1977SOL    HW3 7939   1.100   1.333   3.423
 1977SOL    MW4 7940   1.101   1.255   3.462
 1978SOL     OW 7941   1.108   1.509   3.366
 1978SOL    HW2 7942   1.180   1.567   3.394
 1978SOL    HW3 7943   1.106   1.518   3.271
 1978SOL    MW4 7944   1.117   1.518   3.357
 1979SOL     OW 7945   0.885   1.628   3.488
 1979SOL    HW2 7946   0.884   1.713   3.443
 1979SOL    HW3 7947   0.962   1.583   3.453
 1979SOL    MW4 7948   0.895   1.633   3.477
 1980SOL     OW 7949   0.882   1.885   3.385
 1980SOL    HW2 7950   0.951   1.949   3.406
 1980SOL    HW3 7951   0.801   1.929   3.410
 1980SOL    MW4 7952   0.880   1.899   3.391
 1981SOL     OW 7953   1.091   2.056   3.461
 1981SOL    HW2 7954   1.172   2.016   3.428
 1981SOL    HW3 7955   1.095   2.147   3.433
 1981SOL    MW4 7956   1.102   2.062   3.453
 1982SOL     OW 7957   1.111   2.318   3.389
 1982SOL    HW2 7958   1.194   2.342   3.429
 1982SOL    HW3 7959   1.124   2.333   3.295
 1982SOL    MW4 7960   1.124   2.323   3.382
 1983SOL     OW 7961   0.876   2.430   3.457
 1983SOL    HW2 7962   0.863   2.412   3.550
 1983SOL    HW3 7963   0.967   2.404   3.440
 1983SOL    MW4 7964   0.886   2.424   3.467
 1984SOL     OW 7965   0.896   2.692   3.379
 1984SOL    HW2 7966   0.972   2.727   3.424
 1984SOL    HW3 7967   0.881   2.607   3.420
 1984SOL    MW4 7968   0.904   2.685   3.390
 1985SOL     OW 7969   1.095   2.820   3.507
 1985SOL    HW2 7970   1.114   2.829   3.601
 1985SOL    HW3 7971   1.171   2.773   3.472
 1985SOL    MW4 7972   1.108   2.815   3.515
 1986SOL     OW 7973   1.100   3.083   3.391
 1986SOL    HW2 7974   1.106   2.991   3.416
 1986SOL    HW3 7975   1.094   3.081   3.295
 1986SOL    MW4 7976   1.100   3.071   3.382
 1987SOL     OW 7977   0.879   3.238   3.454
 1987SOL    HW2 7978   0.958   3.187   3.438
 1987SOL    HW3 7979   0.809   3.190   3.409
 1987SOL    MW4 7980   0.880   3.225   3.446
 1988SOL     OW 7981   0.878   3.523   3.435
 1988SOL    HW2 7982   0.861   3.432   3.459
 1988SOL    HW3 7983   0.902   3.520   3.343
 1988SOL    MW4 7984   0.879   3.511   3.426
 1989SOL     OW 7985   1.107   3.623   3.565
 1989SOL    HW2 7986   1.114   3.618   3.661
 1989SOL    HW3 7987   1.023   3.583   3.545
 1989SOL    MW4 7988   1.097   3.617   3.575
 1990SOL     OW 7989   1.124   3.853   3.405
 1990SOL    HW2 7990   1.196   3.905   3.440
 1990SOL    HW3 7991   1.115   3.780   3.466
 1990SOL    MW4 7992   1.132   3.850   3.418
 1991SOL     OW 7993   0.858   3.971   3.479
 1991SOL    HW2 7994   0.934   3.936   3.431
 1991SOL    HW3 7995   0.782   3.938   3.431
 1991SOL    MW4 7996   0.858   3.962   3.466
 1992SOL     OW 7997   0.917   4.231   3.402
 1992SOL    HW2 7998   0.907   4.141   3.434
 1992SOL    HW3 7999   0.921   4.223   3.307
 1992SOL    MW4 8000   0.916   4.218   3.394
 1993SOL     OW 8001   1.115   4.397   3.534
 1993SOL    HW2 8002   1.050   4.337   3.499
 1993SOL    HW3 8003   1.098   4.480   3.488
 1993SOL    MW4 8004   1.104   4.400   3.523
 1994SOL     OW 8005   1.594   4.617   3.378
 1994SOL    HW2 8006   1.581   4.535   3.425
 1994SOL    HW3 8007   1.515   4.668   3.397
 1994SOL    MW4 8008   1.582   4.613   3.386
 1995SOL     OW 8009   1.334   0.086   3.457
 1995SOL    HW2 8010   1.350   0.084   3.551
 1995SOL    HW3 8011   1.323   0.178   3.436
 1995SOL    MW4 8012   1.335   0.098   3.466
 1996SOL     OW 8013   1.303   0.369   3.390
 1996SOL    HW2 8014   1.373   0.413   3.438
 1996SOL    HW3 8015   1.226   0.423   3.406
 1996SOL    MW4 8016   1.302   0.382   3.398
 1997SOL     OW 8017   1.506   0.493   3.502
 1997SOL    HW2 8018   1.517   0.523   3.592
 1997SOL    HW3 8019   1.577   0.430   3.488
 1997SOL    MW4 8020   1.516   0.489   3.512
 1998SOL     OW 8021   1.565   0.749   3.384
 1998SOL    HW2 8022   1.495   0.807   3.414
 1998SOL    HW3 8023   1.547   0.665   3.427
 1998SOL    MW4 8024   1.553   0.746   3.394
 1999SOL     OW 8025   1.330   0.913   3.430
 1999SOL    HW2 8026   1.329   0.921   3.525
 1999SOL    HW3 8027   1.336   1.003   3.398
 1999SOL    MW4 8028   1.331   0.926   3.438
 2000SOL     OW 8029   1.349   1.183   3.340
 2000SOL    HW2 8030   1.416   1.242   3.372
 2000SOL    HW3 8031   1.269   1.212   3.384
 2000SOL    MW4 8032   1.347   1.194   3.350
 2001SOL     OW 8033   1.567   1.336   3.441
 2001SOL    HW2 8034   1.561   1.340   3.536
 2001SOL    HW3 8035   1.625   1.262   3.423
 2001SOL    MW4 8036   1.574   1.327   3.451
 2002SOL     OW 8037   1.562   1.575   3.315
 2002SOL    HW2 8038   1.552   1.487   3.350
 2002SOL    HW3 8039   1.555   1.564   3.220
 2002SOL    MW4 8040   1.560   1.562   3.307
 2003SOL     OW 8041   1.332   1.660   3.455
 2003SOL    HW2 8042   1.353   1.664   3.548
 2003SOL    HW3 8043   1.417   1.652   3.412
 2003SOL    MW4 8044   1.346   1.660   3.462
 2004SOL     OW 8045   1.325   1.931   3.365
 2004SOL    HW2 8046   1.397   1.971   3.414
 2004SOL    HW3 8047   1.312   1.846   3.407
 2004SOL    MW4 8048   1.333   1.925   3.377
 2005SOL     OW 8049   1.540   2.034   3.518
 2005SOL    HW2 8050   1.624   1.988   3.528
 2005SOL    HW3 8051   1.560   2.108   3.461
 2005SOL    MW4 8052   1.554   2.038   3.512
 2006SOL     OW 8053   1.559   2.288   3.376
 2006SOL    HW2 8054   1.480   2.329   3.411
 2006SOL    HW3 8055   1.563   2.317   3.285
 2006SOL    MW4 8056   1.549   2.297   3.369
 2007SOL     OW 8057   1.348   2.407   3.496
 2007SOL    HW2 8058   1.318   2.426   3.585
 2007SOL    HW3 8059   1.336   2.489   3.449
 2007SOL    MW4 8060   1.342   2.420   3.502
 2008SOL     OW 8061   1.290   2.669   3.387
 2008SOL    HW2 8062   1.362   2.723   3.420
 2008SOL    HW3 8063   1.282   2.694   3.295
 2008SOL    MW4 8064   1.299   2.679   3.379
 2009SOL     OW 8065   1.500   2.812   3.502
 2009SOL    HW2 8066   1.585   2.774   3.478
 2009SOL    HW3 8067   1.507   2.904   3.478
 2009SOL    MW4 8068   1.512   2.819   3.496
 2010SOL     OW 8069   1.530   3.080   3.407
 2010SOL    HW2 8070   1.605   3.120   3.450
 2010SOL    HW3 8071   1.457   3.139   3.427
 2010SOL    MW4 8072   1.530   3.093   3.415
 2011SOL     OW 8073   1.315   3.231   3.496
 2011SOL    HW2 8074   1.332   3.247   3.589
 2011SOL    HW3 8075   1.237   3.176   3.495
 2011SOL    MW4 8076   1.307   3.226   3.508
 2012SOL     OW 8077   1.277   3.482   3.408
 2012SOL    HW2 8078   1.287   3.394   3.443
 2012SOL    HW3 8079   1.206   3.520   3.459
 2012SOL    MW4 8080   1.269   3.476   3.419
 2013SOL     OW 8081   1.529   3.585   3.432
 2013SOL    HW2 8082   1.539   3.608   3.525
 2013SOL    HW3 8083   1.437   3.560   3.424
 2013SOL    MW4 8084   1.518   3.585   3.443
 2014SOL     OW 8085   1.528   3.853   3.383
 2014SOL    HW2 8086   1.516   3.758   3.387
 2014SOL    HW3 8087   1.545   3.870   3.290
 2014SOL    MW4 8088   1.529   3.842   3.371
 2015SOL     OW 8089   1.322   4.003   3.501
 2015SOL    HW2 8090   1.334   4.093   3.471
 2015SOL    HW3 8091   1.404   3.959   3.479
 2015SOL    MW4 8092   1.334   4.009   3.494
 2016SOL     OW 8093   1.329   4.272   3.403
 2016SOL    HW2 8094   1.252   4.311   3.443
 2016SOL    HW3 8095   1.311   4.273   3.309
 2016SOL    MW4 8096   1.317   4.277   3.396
 2017SOL     OW 8097   1.566   4.372   3.509
 2017SOL    HW2 8098   1.629   4.316   3.463
 2017SOL    HW3 8099   1.481   4.343   3.476
 2017SOL    MW4 8100   1.563   4.361   3.499
 2018SOL     OW 8101   2.009   4.627   3.377
 2018SOL    HW2 8102   2.086   4.678   3.401
 2018SOL    HW3 8103   1.935   4.684   3.398
 2018SOL    MW4 8104   2.009   4.641   3.383
 2019SOL     OW 8105   1.795   0.111   3.466
 2019SOL    HW2 8106   1.787   0.104   3.561
 2019SOL    HW3 8107   1.728   0.053   3.431
 2019SOL    MW4 8108   1.785   0.103   3.474
 2020SOL     OW 8109   1.749   0.375   3.360
 2020SOL    HW2 8110   1.772   0.288   3.394
 2020SOL    HW3 8111   1.757   0.366   3.265
 2020SOL    MW4 8112   1.753   0.362   3.352
 2021SOL     OW 8113   1.947   0.558   3.464
 2021SOL    HW2 8114   1.968   0.640   3.419
 2021SOL    HW3 8115   1.870   0.524   3.418
 2021SOL    MW4 8116   1.940   0.564   3.452
 2022SOL     OW 8117   2.026   0.808   3.356
 2022SOL    HW2 8118   2.089   0.869   3.395
 2022SOL    HW3 8119   2.053   0.802   3.264
 2022SOL    MW4 8120   2.038   0.815   3.349
 2023SOL     OW 8121   1.777   0.903   3.450
 2023SOL    HW2 8122   1.853   0.853   3.419
 2023SOL    HW3 8123   1.701   0.849   3.427
 2023SOL    MW4 8124   1.777   0.889   3.443
 2024SOL     OW 8125   1.771   1.168   3.377
 2024SOL    HW2 8126   1.844   1.209   3.423
 2024SOL    HW3 8127   1.767   1.079   3.413
 2024SOL    MW4 8128   1.780   1.162   3.388
 2025SOL     OW 8129   1.963   1.316   3.510
 2025SOL    HW2 8130   1.955   1.322   3.605
 2025SOL    HW3 8131   1.954   1.406   3.479
 2025SOL    MW4 8132   1.961   1.329   3.518
 2026SOL     OW 8133   1.950   1.566   3.376
 2026SOL    HW2 8134   2.031   1.601   3.412
 2026SOL    HW3 8135   1.881   1.613   3.423
 2026SOL    MW4 8136   1.952   1.577   3.387
 2027SOL     OW 8137   1.749   1.721   3.479
 2027SOL    HW2 8138   1.766   1.808   3.441
 2027SOL    HW3 8139   1.687   1.681   3.419
 2027SOL    MW4 8140   1.743   1.727   3.466
 2028SOL     OW 8141   1.810   1.959   3.378
 2028SOL    HW2 8142   1.857   2.023   3.433
 2028SOL    HW3 8143   1.840   1.978   3.289
 2028SOL    MW4 8144   1.820   1.970   3.374
 2029SOL     OW 8145   1.996   2.094   3.535
 2029SOL    HW2 8146   2.057   2.033   3.494
 2029SOL    HW3 8147   2.009   2.176   3.488
 2029SOL    MW4 8148   2.006   2.097   3.523
 2030SOL     OW 8149   2.018   2.320   3.369
 2030SOL    HW2 8150   2.084   2.379   3.405
 2030SOL    HW3 8151   2.030   2.325   3.274
 2030SOL    MW4 8152   2.028   2.329   3.361
 2031SOL     OW 8153   1.786   2.435   3.475
 2031SOL    HW2 8154   1.872   2.408   3.443
 2031SOL    HW3 8155   1.724   2.381   3.425
 2031SOL    MW4 8156   1.789   2.424   3.464
 2032SOL     OW 8157   1.747   2.710   3.399
 2032SOL    HW2 8158   1.821   2.765   3.426
 2032SOL    HW3 8159   1.773   2.622   3.424
 2032SOL    MW4 8160   1.760   2.706   3.406
 2033SOL     OW 8161   1.964   2.875   3.479
 2033SOL    HW2 8162   1.987   2.860   3.570
 2033SOL    HW3 8163   1.965   2.971   3.469
 2033SOL    MW4 8164   1.967   2.886   3.489
 2034SOL     OW 8165   1.997   3.150   3.394
 2034SOL    HW2 8166   2.075   3.199   3.419
 2034SOL    HW3 8167   1.927   3.186   3.449
 2034SOL    MW4 8168   1.998   3.161   3.405
 2035SOL     OW 8169   1.750   3.210   3.501
 2035SOL    HW2 8170   1.745   3.232   3.594
 2035SOL    HW3 8171   1.756   3.295   3.457
 2035SOL    MW4 8172   1.750   3.224   3.508
 2036SOL     OW 8173   1.791   3.462   3.388
 2036SOL    HW2 8174   1.713   3.513   3.408
 2036SOL    HW3 8175   1.801   3.469   3.293
 2036SOL    MW4 8176   1.782   3.470   3.378
 2037SOL     OW 8177   2.016   3.617   3.495
 2037SOL    HW2 8178   2.095   3.574   3.463
 2037SOL    HW3 8179   1.944   3.564   3.461
 2037SOL    MW4 8180   2.017   3.604   3.486
 2038SOL     OW 8181   2.011   3.855   3.377
 2038SOL    HW2 8182   1.932   3.895   3.414
 2038SOL    HW3 8183   2.015   3.768   3.417
 2038SOL    MW4 8184   2.001   3.849   3.387
 2039SOL     OW 8185   1.776   3.954   3.466
 2039SOL    HW2 8186   1.804   3.950   3.557
 2039SOL    HW3 8187   1.701   3.894   3.461
 2039SOL    MW4 8188   1.770   3.945   3.477
 2040SOL     OW 8189   1.763   4.231   3.368
 2040SOL    HW2 8190   1.779   4.143   3.403
 2040SOL    HW3 8191   1.776   4.222   3.273
 2040SOL    MW4 8192   1.767   4.218   3.360
 2041SOL     OW 8193   2.000   4.359   3.451
 2041SOL    HW2 8194   1.912   4.335   3.421
 2041SOL    HW3 8195   2.010   4.451   3.428
 2041SOL    MW4 8196   1.989   4.368   3.444
 2042SOL     OW 8197   2.474   4.661   3.402
 2042SOL    HW2 8198   2.458   4.572   3.433
 2042SOL    HW3 8199   2.456   4.658   3.308
 2042SOL    MW4 8200   2.470   4.649   3.394
 2043SOL     OW 8201   2.212   0.110   3.464
 2043SOL    HW2 8202   2.224   0.203   3.444
 2043SOL    HW3 8203   2.297   0.070   3.442
 2043SOL    MW4 8204   2.225   0.117   3.458
 2044SOL     OW 8205   2.196   0.390   3.409
 2044SOL    HW2 8206   2.263   0.451   3.440
 2044SOL    HW3 8207   2.114   0.428   3.440
 2044SOL    MW4 8208   2.194   0.403   3.417
 2045SOL     OW 8209   2.400   0.551   3.500
 2045SOL    HW2 8210   2.479   0.514   3.459
 2045SOL    HW3 8211   2.405   0.645   3.483
 2045SOL    MW4 8212   2.411   0.558   3.493
 2046SOL     OW 8213   2.424   0.821   3.368
 2046SOL    HW2 8214   2.496   0.860   3.419
 2046SOL    HW3 8215   2.460   0.810   3.280
 2046SOL    MW4 8216   2.438   0.824   3.363
 2047SOL     OW 8217   2.223   0.955   3.528
 2047SOL    HW2 8218   2.183   1.031   3.486
 2047SOL    HW3 8219   2.284   0.922   3.462
 2047SOL    MW4 8220   2.226   0.961   3.514
 2048SOL     OW 8221   2.164   1.170   3.377
 2048SOL    HW2 8222   2.245   1.199   3.420
 2048SOL    HW3 8223   2.094   1.216   3.424
 2048SOL    MW4 8224   2.166   1.180   3.389
 2049SOL     OW 8225   2.395   1.301   3.456
 2049SOL    HW2 8226   2.404   1.301   3.551
 2049SOL    HW3 8227   2.476   1.261   3.425
 2049SOL    MW4 8228   2.407   1.296   3.465
 2050SOL     OW 8229   2.433   1.571   3.429
 2050SOL    HW2 8230   2.436   1.477   3.451
 2050SOL    HW3 8231   2.432   1.573   3.333
 2050SOL    MW4 8232   2.434   1.559   3.419
 2051SOL     OW 8233   2.202   1.694   3.517
 2051SOL    HW2 8234   2.230   1.712   3.606
 2051SOL    HW3 8235   2.278   1.651   3.476
 2051SOL    MW4 8236   2.216   1.691   3.523
 2052SOL     OW 8237   2.199   1.935   3.405
 2052SOL    HW2 8238   2.186   1.843   3.427
 2052SOL    HW3 8239   2.214   1.935   3.310
 2052SOL    MW4 8240   2.200   1.923   3.395
 2053SOL     OW 8241   2.440   2.039   3.506
 2053SOL    HW2 8242   2.438   2.052   3.600
 2053SOL    HW3 8243   2.359   1.992   3.486
 2053SOL    MW4 8244   2.429   2.035   3.516
 2054SOL     OW 8245   2.405   2.292   3.414
 2054SOL    HW2 8246   2.491   2.327   3.440
 2054SOL    HW3 8247   2.400   2.206   3.456
 2054SOL    MW4 8248   2.416   2.286   3.423
 2055SOL     OW 8249   2.209   2.470   3.489
 2055SOL    HW2 8250   2.224   2.562   3.468
 2055SOL    HW3 8251   2.289   2.426   3.460
 2055SOL    MW4 8252   2.222   2.476   3.483
 2056SOL     OW 8253   2.186   2.728   3.410
 2056SOL    HW2 8254   2.107   2.782   3.412
 2056SOL    HW3 8255   2.201   2.710   3.317
 2056SOL    MW4 8256   2.178   2.733   3.398
 2057SOL     OW 8257   2.389   2.870   3.518
 2057SOL    HW2 8258   2.405   2.952   3.470
 2057SOL    HW3 8259   2.326   2.823   3.463
 2057SOL    MW4 8260   2.383   2.875   3.504
 2058SOL     OW 8261   2.447   3.105   3.387
 2058SOL    HW2 8262   2.538   3.130   3.403
 2058SOL    HW3 8263   2.445   3.079   3.295
 2058SOL    MW4 8264   2.459   3.105   3.377
 2059SOL     OW 8265   2.239   3.279   3.500
 2059SOL    HW2 8266   2.241   3.266   3.595
 2059SOL    HW3 8267   2.321   3.243   3.469
 2059SOL    MW4 8268   2.250   3.273   3.509
 2060SOL     OW 8269   2.256   3.532   3.424
 2060SOL    HW2 8270   2.240   3.442   3.454
 2060SOL    HW3 8271   2.294   3.522   3.337
 2060SOL    MW4 8272   2.259   3.518   3.417
 2061SOL     OW 8273   2.510   3.614   3.496
 2061SOL    HW2 8274   2.523   3.709   3.502
 2061SOL    HW3 8275   2.421   3.604   3.462
 2061SOL    MW4 8276   2.500   3.625   3.493
 2062SOL     OW 8277   2.469   3.889   3.403
 2062SOL    HW2 8278   2.538   3.936   3.449
 2062SOL    HW3 8279   2.388   3.923   3.441
 2062SOL    MW4 8280   2.467   3.900   3.414
 2063SOL     OW 8281   2.235   3.979   3.487
 2063SOL    HW2 8282   2.240   4.065   3.446
 2063SOL    HW3 8283   2.152   3.943   3.457
 2063SOL    MW4 8284   2.225   3.986   3.478
 2064SOL     OW 8285   2.222   4.227   3.347
 2064SOL    HW2 8286   2.149   4.268   3.394
 2064SOL    HW3 8287   2.199   4.236   3.255
 2064SOL    MW4 8288   2.209   4.233   3.341
 2065SOL     OW 8289   2.428   4.393   3.468
 2065SOL    HW2 8290   2.434   4.381   3.563
 2065SOL    HW3 8291   2.351   4.343   3.442
 2065SOL    MW4 8292   2.419   4.385   3.477
 2066SOL     OW 8293   2.881   0.002   3.400
 2066SOL    HW2 8294   2.821   0.063   3.443
 2066SOL    HW3 8295   2.877   0.024   3.308
 2066SOL    MW4 8296   2.873   0.013   3.394
 2067SOL     OW 8297   2.686   0.173   3.490
 2067SOL    HW2 8298   2.676   0.257   3.444
 2067SOL    HW3 8299   2.622   0.116   3.448
 2067SOL    MW4 8300   2.676   0.177   3.478
 2068SOL     OW 8301   2.656   0.451   3.379
 2068SOL    HW2 8302   2.731   0.497   3.417
 2068SOL    HW3 8303   2.670   0.457   3.284
 2068SOL    MW4 8304   2.667   0.458   3.371
 2069SOL     OW 8305   2.913   0.519   3.477
 2069SOL    HW2 8306   2.920   0.529   3.572
 2069SOL    HW3 8307   2.921   0.607   3.443
 2069SOL    MW4 8308   2.915   0.532   3.485
 2070SOL     OW 8309   2.890   0.786   3.363
 2070SOL    HW2 8310   2.971   0.826   3.394
 2070SOL    HW3 8311   2.820   0.835   3.408
 2070SOL    MW4 8312   2.891   0.798   3.373
 2071SOL     OW 8313   2.676   0.901   3.472
 2071SOL    HW2 8314   2.682   0.877   3.564
 2071SOL    HW3 8315   2.671   0.997   3.473
 2071SOL    MW4 8316   2.676   0.911   3.484
 2072SOL     OW 8317   2.666   1.165   3.439
 2072SOL    HW2 8318   2.748   1.208   3.463
 2072SOL    HW3 8319   2.659   1.177   3.344
 2072SOL    MW4 8320   2.676   1.172   3.430
 2073SOL     OW 8321   2.916   1.297   3.527
 2073SOL    HW2 8322   2.921   1.278   3.621
 2073SOL    HW3 8323   2.961   1.224   3.485
 2073SOL    MW4 8324   2.923   1.285   3.534
 2074SOL     OW 8325   2.917   1.552   3.387
 2074SOL    HW2 8326   2.842   1.600   3.421
 2074SOL    HW3 8327   2.914   1.468   3.434
 2074SOL    MW4 8328   2.907   1.547   3.398
 2075SOL     OW 8329   2.683   1.656   3.511
 2075SOL    HW2 8330   2.687   1.750   3.493
 2075SOL    HW3 8331   2.593   1.632   3.492
 2075SOL    MW4 8332   2.672   1.666   3.506
 2076SOL     OW 8333   2.688   1.929   3.430
 2076SOL    HW2 8334   2.612   1.979   3.457
 2076SOL    HW3 8335   2.702   1.954   3.338
 2076SOL    MW4 8336   2.680   1.939   3.421
 2077SOL     OW 8337   2.896   2.097   3.516
 2077SOL    HW2 8338   2.909   2.097   3.610
 2077SOL    HW3 8339   2.836   2.023   3.500
 2077SOL    MW4 8340   2.890   2.087   3.526
 2078SOL     OW 8341   2.857   2.320   3.358
 2078SOL    HW2 8342   2.871   2.236   3.402
 2078SOL    HW3 8343   2.877   2.303   3.266
 2078SOL    MW4 8344   2.862   2.307   3.352
 2079SOL     OW 8345   2.638   2.442   3.481
 2079SOL    HW2 8346   2.667   2.449   3.572
 2079SOL    HW3 8347   2.710   2.398   3.436
 2079SOL    MW4 8348   2.652   2.438   3.487
 2080SOL     OW 8349   2.569   2.694   3.412
 2080SOL    HW2 8350   2.604   2.610   3.442
 2080SOL    HW3 8351   2.506   2.719   3.479
 2080SOL    MW4 8352   2.565   2.686   3.424
 2081SOL     OW 8353   2.844   2.781   3.438
 2081SOL    HW2 8354   2.839   2.795   3.533
 2081SOL    HW3 8355   2.753   2.764   3.412
 2081SOL    MW4 8356   2.831   2.781   3.447
 2082SOL     OW 8357   2.931   3.061   3.384
 2082SOL    HW2 8358   2.889   2.979   3.411
 2082SOL    HW3 8359   2.933   3.056   3.288
 2082SOL    MW4 8360   2.926   3.050   3.375
 2083SOL     OW 8361   2.707   3.205   3.422
 2083SOL    HW2 8362   2.710   3.213   3.518
 2083SOL    HW3 8363   2.791   3.166   3.399
 2083SOL    MW4 8364   2.718   3.201   3.432
 2084SOL     OW 8365   2.706   3.464   3.372
 2084SOL    HW2 8366   2.710   3.369   3.386
 2084SOL    HW3 8367   2.631   3.493   3.424
 2084SOL    MW4 8368   2.696   3.455   3.381
 2085SOL     OW 8369   2.921   3.636   3.483
 2085SOL    HW2 8370   2.915   3.723   3.444
 2085SOL    HW3 8371   2.846   3.589   3.447
 2085SOL    MW4 8372   2.910   3.641   3.473
 2086SOL     OW 8373   2.901   3.884   3.340
 2086SOL    HW2 8374   2.981   3.924   3.374
 2086SOL    HW3 8375   2.830   3.929   3.386
 2086SOL    MW4 8376   2.902   3.895   3.350
 2087SOL     OW 8377   2.715   4.020   3.493
 2087SOL    HW2 8378   2.693   4.029   3.586
 2087SOL    HW3 8379   2.696   4.105   3.455
 2087SOL    MW4 8380   2.710   4.032   3.500
 2088SOL     OW 8381   2.650   4.253   3.371
 2088SOL    HW2 8382   2.723   4.299   3.413
 2088SOL    HW3 8383   2.572   4.299   3.403
 2088SOL    MW4 8384   2.649   4.265   3.381
 2089SOL     OW 8385   2.879   4.378   3.469
 2089SOL    HW2 8386   2.897   4.381   3.563
 2089SOL    HW3 8387   2.876   4.470   3.442
 2089SOL    MW4 8388   2.881   4.391   3.478
 2090SOL     OW 8389   3.379   4.664   3.391
 2090SOL    HW2 8390   3.309   4.709   3.438
 2090SOL    HW3 8391   3.356   4.673   3.299
 2090SOL    MW4 8392   3.367   4.671   3.385
 2091SOL     OW 8393   3.125   0.112   3.481
 2091SOL    HW2 8394   3.118   0.200   3.443
 2091SOL    HW3 8395   3.041   0.071   3.463
 2091SOL    MW4 8396   3.113   0.118   3.474
 2092SOL     OW 8397   3.114   0.369   3.360
 2092SOL    HW2 8398   3.048   0.423   3.402
 2092SOL    HW3 8399   3.108   0.390   3.267
 2092SOL    MW4 8400   3.104   0.379   3.353
 2093SOL     OW 8401   3.374   0.483   3.450
 2093SOL    HW2 8402   3.383   0.475   3.545
 2093SOL    HW3 8403   3.289   0.444   3.430
 2093SOL    MW4 8404   3.364   0.477   3.460
 2094SOL     OW 8405   3.354   0.771   3.400
 2094SOL    HW2 8406   3.418   0.826   3.445
 2094SOL    HW3 8407   3.377   0.682   3.428
 2094SOL    MW4 8408   3.366   0.766   3.410
 2095SOL     OW 8409   3.110   0.901   3.464
 2095SOL    HW2 8410   3.106   0.993   3.437
 2095SOL    HW3 8411   3.195   0.870   3.430
 2095SOL    MW4 8412   3.121   0.909   3.456
 2096SOL     OW 8413   3.097   1.151   3.357
 2096SOL    HW2 8414   3.164   1.207   3.397
 2096SOL    HW3 8415   3.111   1.160   3.263
 2096SOL    MW4 8416   3.108   1.160   3.350
 2097SOL     OW 8417   3.307   1.296   3.476
 2097SOL    HW2 8418   3.388   1.252   3.450
 2097SOL    HW3 8419   3.320   1.387   3.450
 2097SOL    MW4 8420   3.320   1.302   3.469
 2098SOL     OW 8421   3.331   1.572   3.407
 2098SOL    HW2 8422   3.410   1.612   3.441
 2098SOL    HW3 8423   3.259   1.621   3.448
 2098SOL    MW4 8424   3.332   1.584   3.417
 2099SOL     OW 8425   3.118   1.701   3.514
 2099SOL    HW2 8426   3.115   1.788   3.474
 2099SOL    HW3 8427   3.050   1.652   3.468
 2099SOL    MW4 8428   3.109   1.706   3.502
 2100SOL     OW 8429   3.118   1.955   3.423
 2100SOL    HW2 8430   3.046   2.016   3.443
 2100SOL    HW3 8431   3.116   1.947   3.328
 2100SOL    MW4 8432   3.108   1.962   3.413
 2101SOL     OW 8433   3.343   2.072   3.534
 2101SOL    HW2 8434   3.330   2.159   3.496
 2101SOL    HW3 8435   3.266   2.022   3.508
 2101SOL    MW4 8436   3.331   2.077   3.526
 2102SOL     OW 8437   3.341   2.312   3.365
 2102SOL    HW2 8438   3.418   2.343   3.412
 2102SOL    HW3 8439   3.267   2.355   3.409
 2102SOL    MW4 8440   3.341   2.322   3.377
 2103SOL     OW 8441   3.100   2.427   3.453
 2103SOL    HW2 8442   3.102   2.512   3.409
 2103SOL    HW3 8443   3.016   2.388   3.426
 2103SOL    MW4 8444   3.089   2.433   3.444
 2104SOL     OW 8445   3.103   2.686   3.362
 2104SOL    HW2 8446   3.182   2.725   3.400
 2104SOL    HW3 8447   3.031   2.727   3.410
 2104SOL    MW4 8448   3.104   2.696   3.374
 2105SOL     OW 8449   3.339   2.814   3.453
 2105SOL    HW2 8450   3.412   2.758   3.428
 2105SOL    HW3 8451   3.360   2.900   3.417
 2105SOL    MW4 8452   3.351   2.818   3.445
 2106SOL     OW 8453   3.377   3.074   3.374
 2106SOL    HW2 8454   3.453   3.123   3.404
 2106SOL    HW3 8455   3.305   3.105   3.429
 2106SOL    MW4 8456   3.377   3.084   3.385
 2107SOL     OW 8457   3.153   3.188   3.506
 2107SOL    HW2 8458   3.139   3.271   3.461
 2107SOL    HW3 8459   3.072   3.139   3.492
 2107SOL    MW4 8460   3.140   3.193   3.498
 2108SOL     OW 8461   3.128   3.459   3.406
 2108SOL    HW2 8462   3.070   3.520   3.452
 2108SOL    HW3 8463   3.110   3.475   3.313
 2108SOL    MW4 8464   3.118   3.469   3.400
 2109SOL     OW 8465   3.359   3.621   3.472
 2109SOL    HW2 8466   3.358   3.707   3.429
 2109SOL    HW3 8467   3.286   3.573   3.434
 2109SOL    MW4 8468   3.349   3.626   3.461
 2110SOL     OW 8469   3.347   3.859   3.330
 2110SOL    HW2 8470   3.413   3.904   3.383
 2110SOL    HW3 8471   3.267   3.911   3.342
 2110SOL    MW4 8472   3.345   3.872   3.338
 2111SOL     OW 8473   3.129   4.013   3.418
 2111SOL    HW2 8474   3.135   4.011   3.514
 2111SOL    HW3 8475   3.140   4.106   3.396
 2111SOL    MW4 8476   3.131   4.025   3.428
 2112SOL     OW 8477   3.130   4.290   3.366
 2112SOL    HW2 8478   3.192   4.329   3.428
 2112SOL    HW3 8479   3.044   4.320   3.396
 2112SOL    MW4 8480   3.127   4.299   3.378
 2113SOL     OW 8481   3.353   4.404   3.503
 2113SOL    HW2 8482   3.352   4.424   3.597
 2113SOL    HW3 8483   3.355   4.489   3.460
 2113SOL    MW4 8484   3.353   4.418   3.510
 2114SOL     OW 8485   3.815   4.618   3.378
 2114SOL    HW2 8486   3.747   4.673   3.417
 2114SOL    HW3 8487   3.819   4.647   3.287
 2114SOL    MW4 8488   3.806   4.629   3.371
 2115SOL     OW 8489   3.607   0.110   3.489
 2115SOL    HW2 8490   3.605   0.193   3.441
 2115SOL    HW3 8491   3.541   0.056   3.446
 2115SOL    MW4 8492   3.598   0.114   3.477
 2116SOL     OW 8493   3.614   0.368   3.361
 2116SOL    HW2 8494   3.684   0.424   3.394
 2116SOL    HW3 8495   3.536   0.395   3.411
 2116SOL    MW4 8496   3.613   0.379   3.372
 2117SOL     OW 8497   3.810   0.563   3.474
 2117SOL    HW2 8498   3.826   0.575   3.567
 2117SOL    HW3 8499   3.884   0.512   3.443
 2117SOL    MW4 8500   3.822   0.558   3.482
 2118SOL     OW 8501   3.786   0.822   3.382
 2118SOL    HW2 8502   3.856   0.872   3.425
 2118SOL    HW3 8503   3.800   0.732   3.410
 2118SOL    MW4 8504   3.797   0.817   3.392
 2119SOL     OW 8505   3.562   0.916   3.494
 2119SOL    HW2 8506   3.571   0.883   3.583
 2119SOL    HW3 8507   3.637   0.880   3.447
 2119SOL    MW4 8508   3.573   0.907   3.499
 2120SOL     OW 8509   3.534   1.176   3.391
 2120SOL    HW2 8510   3.532   1.092   3.438
 2120SOL    HW3 8511   3.539   1.151   3.299
 2120SOL    MW4 8512   3.534   1.161   3.385
 2121SOL     OW 8513   3.791   1.288   3.490
 2121SOL    HW2 8514   3.782   1.283   3.585
 2121SOL    HW3 8515   3.712   1.246   3.456
 2121SOL    MW4 8516   3.779   1.282   3.498
 2122SOL     OW 8517   3.776   1.543   3.378
 2122SOL    HW2 8518   3.863   1.580   3.396
 2122SOL    HW3 8519   3.775   1.460   3.426
 2122SOL    MW4 8520   3.788   1.537   3.387
 2123SOL     OW 8521   3.566   1.688   3.522
 2123SOL    HW2 8522   3.567   1.775   3.483
 2123SOL    HW3 8523   3.644   1.645   3.488
 2123SOL    MW4 8524   3.576   1.694   3.512
 2124SOL     OW 8525   3.547   1.939   3.392
 2124SOL    HW2 8526   3.618   1.975   3.446
 2124SOL    HW3 8527   3.468   1.983   3.424
 2124SOL    MW4 8528   3.546   1.950   3.404
 2125SOL     OW 8529   3.771   2.039   3.519
 2125SOL    HW2 8530   3.770   2.025   3.613
 2125SOL    HW3 8531   3.849   1.992   3.489
 2125SOL    MW4 8532   3.781   2.031   3.527
 2126SOL     OW 8533   3.804   2.263   3.367
 2126SOL    HW2 8534   3.872   2.310   3.415
 2126SOL    HW3 8535   3.801   2.177   3.409
 2126SOL    MW4 8536   3.813   2.258   3.379
 2127SOL     OW 8537   3.582   2.383   3.489
 2127SOL    HW2 8538   3.572   2.469   3.449
 2127SOL    HW3 8539   3.658   2.345   3.445
 2127SOL    MW4 8540   3.591   2.389   3.478
 2128SOL     OW 8541   3.568   2.632   3.376
 2128SOL    HW2 8542   3.627   2.683   3.432
 2128SOL    HW3 8543   3.592   2.659   3.287
 2128SOL    MW4 8544   3.579   2.642   3.372
 2129SOL     OW 8545   3.783   2.797   3.480
 2129SOL    HW2 8546   3.794   2.823   3.571
 2129SOL    HW3 8547   3.779   2.880   3.432
 2129SOL    MW4 8548   3.784   2.812   3.486
 2130SOL     OW 8549   3.798   3.035   3.337
 2130SOL    HW2 8550   3.877   3.081   3.365
 2130SOL    HW3 8551   3.801   3.039   3.242
 2130SOL    MW4 8552   3.808   3.042   3.328
 2131SOL     OW 8553   3.625   3.204   3.474
 2131SOL    HW2 8554   3.616   3.285   3.424
 2131SOL    HW3 8555   3.687   3.152   3.424
 2131SOL    MW4 8556   3.632   3.208   3.461
 2132SOL     OW 8557   3.571   3.456   3.390
 2132SOL    HW2 8558   3.497   3.511   3.418
 2132SOL    HW3 8559   3.577   3.470   3.296
 2132SOL    MW4 8560   3.562   3.466   3.382
 2133SOL     OW 8561   3.803   3.568   3.457
 2133SOL    HW2 8562   3.794   3.578   3.551
 2133SOL    HW3 8563   3.719   3.530   3.429
 2133SOL    MW4 8564   3.791   3.564   3.466
 2134SOL     OW 8565   3.789   3.843   3.365
 2134SOL    HW2 8566   3.713   3.885   3.405
 2134SOL    HW3 8567   3.781   3.751   3.390
 2134SOL    MW4 8568   3.778   3.836   3.374
 2135SOL     OW 8569   3.563   3.971   3.470
 2135SOL    HW2 8570   3.562   3.969   3.566
 2135SOL    HW3 8571   3.551   4.063   3.447
 2135SOL    MW4 8572   3.561   3.983   3.480
 2136SOL     OW 8573   3.544   4.242   3.384
 2136SOL    HW2 8574   3.478   4.303   3.416
 2136SOL    HW3 8575   3.527   4.234   3.290
 2136SOL    MW4 8576   3.533   4.249   3.376
 2137SOL     OW 8577   3.774   4.353   3.491
 2137SOL    HW2 8578   3.697   4.309   3.455
 2137SOL    HW3 8579   3.771   4.441   3.452
 2137SOL    MW4 8580   3.764   4.359   3.481
 2138SOL     OW 8581   4.250   4.635   3.381
 2138SOL    HW2 8582   4.248   4.543   3.408
 2138SOL    HW3 8583   4.333   4.668   3.414
 2138SOL    MW4 8584   4.261   4.627   3.389
 2139SOL     OW 8585   4.013   0.117   3.477
 2139SOL    HW2 8586   4.087   0.082   3.427
 2139SOL    HW3 8587   3.941   0.055   3.460
 2139SOL    MW4 8588   4.013   0.104   3.468
 2140SOL     OW 8589   4.029   0.394   3.405
 2140SOL    HW2 8590   4.016   0.310   3.450
 2140SOL    HW3 8591   4.046   0.370   3.314
 2140SOL    MW4 8592   4.029   0.379   3.399
 2141SOL     OW 8593   4.249   0.511   3.498
 2141SOL    HW2 8594   4.246   0.589   3.444
 2141SOL    HW3 8595   4.168   0.465   3.479
 2141SOL    MW4 8596   4.238   0.515   3.488
 2142SOL     OW 8597   4.253   0.781   3.373
 2142SOL    HW2 8598   4.324   0.830   3.415
 2142SOL    HW3 8599   4.267   0.794   3.279
 2142SOL    MW4 8600   4.265   0.789   3.366
 2143SOL     OW 8601   4.043   0.919   3.489
 2143SOL    HW2 8602   4.029   0.997   3.436
 2143SOL    HW3 8603   4.112   0.871   3.442
 2143SOL    MW4 8604   4.050   0.923   3.475
 2144SOL     OW 8605   4.014   1.144   3.352
 2144SOL    HW2 8606   4.094   1.192   3.374
 2144SOL    HW3 8607   3.944   1.194   3.395
 2144SOL    MW4 8608   4.015   1.157   3.361
 2145SOL     OW 8609   4.265   1.285   3.467
 2145SOL    HW2 8610   4.271   1.378   3.446
 2145SOL    HW3 8611   4.347   1.247   3.435
 2145SOL    MW4 8612   4.276   1.292   3.460
 2146SOL     OW 8613   4.275   1.551   3.374
 2146SOL    HW2 8614   4.186   1.585   3.387
 2146SOL    HW3 8615   4.285   1.548   3.279
 2146SOL    MW4 8616   4.265   1.555   3.363
 2147SOL     OW 8617   4.019   1.636   3.457
 2147SOL    HW2 8618   4.013   1.634   3.552
 2147SOL    HW3 8619   4.018   1.730   3.436
 2147SOL    MW4 8620   4.018   1.648   3.467
 2148SOL     OW 8621   4.020   1.910   3.421
 2148SOL    HW2 8622   4.074   1.979   3.458
 2148SOL    HW3 8623   4.039   1.913   3.327
 2148SOL    MW4 8624   4.029   1.920   3.413
 2149SOL     OW 8625   4.230   2.083   3.495
 2149SOL    HW2 8626   4.225   2.164   3.446
 2149SOL    HW3 8627   4.318   2.049   3.477
 2149SOL    MW4 8628   4.241   2.089   3.486
 2150SOL     OW 8629   4.252   2.316   3.368
 2150SOL    HW2 8630   4.162   2.341   3.391
 2150SOL    HW3 8631   4.252   2.314   3.272
 2150SOL    MW4 8632   4.240   2.319   3.358
 2151SOL     OW 8633   4.010   2.406   3.479
 2151SOL    HW2 8634   4.004   2.426   3.573
 2151SOL    HW3 8635   4.010   2.492   3.437
 2151SOL    MW4 8636   4.009   2.420   3.486
 2152SOL     OW 8637   4.004   2.664   3.374
 2152SOL    HW2 8638   4.074   2.722   3.405
 2152SOL    HW3 8639   3.925   2.699   3.415
 2152SOL    MW4 8640   4.003   2.677   3.384
 2153SOL     OW 8641   4.241   2.798   3.466
 2153SOL    HW2 8642   4.260   2.802   3.560
 2153SOL    HW3 8643   4.320   2.763   3.427
 2153SOL    MW4 8644   4.254   2.794   3.473
 2154SOL     OW 8645   4.256   3.063   3.349
 2154SOL    HW2 8646   4.265   2.977   3.389
 2154SOL    HW3 8647   4.253   3.046   3.255
 2154SOL    MW4 8648   4.257   3.050   3.342
 2155SOL     OW 8649   4.016   3.169   3.453
 2155SOL    HW2 8650   4.020   3.262   3.430
 2155SOL    HW3 8651   4.101   3.134   3.425
 2155SOL    MW4 8652   4.028   3.177   3.446
 2156SOL     OW 8653   4.043   3.442   3.384
 2156SOL    HW2 8654   4.117   3.486   3.425
 2156SOL    HW3 8655   3.968   3.498   3.404
 2156SOL    MW4 8656   4.043   3.456   3.392
 2157SOL     OW 8657   4.246   3.612   3.486
 2157SOL    HW2 8658   4.242   3.631   3.580
 2157SOL    HW3 8659   4.245   3.699   3.444
 2157SOL    MW4 8660   4.246   3.626   3.493
 2158SOL     OW 8661   4.235   3.870   3.372
 2158SOL    HW2 8662   4.322   3.903   3.394
 2158SOL    HW3 8663   4.231   3.875   3.277
 2158SOL    MW4 8664   4.246   3.875   3.363
 2159SOL     OW 8665   4.012   3.983   3.474
 2159SOL    HW2 8666   4.092   3.940   3.443
 2159SOL    HW3 8667   3.941   3.933   3.434
 2159SOL    MW4 8668   4.013   3.970   3.465
 2160SOL     OW 8669   3.989   4.237   3.373
 2160SOL    HW2 8670   3.985   4.148   3.408
 2160SOL    HW3 8671   3.917   4.283   3.416
 2160SOL    MW4 8672   3.979   4.231   3.384
 2161SOL     OW 8673   4.242   4.356   3.436
 2161SOL    HW2 8674   4.256   4.362   3.530
 2161SOL    HW3 8675   4.153   4.322   3.427
 2161SOL    MW4 8676   4.232   4.352   3.447
 2162SOL     OW 8677   0.233   4.632   3.842
 2162SOL    HW2 8678   0.226   4.616   3.936
 2162SOL    HW3 8679   0.167   4.698   3.823
 2162SOL    MW4 8680   0.224   4.639   3.852
 2163SOL     OW 8681   0.037   0.136   3.781
 2163SOL    HW2 8682   0.012   0.221   3.816
 2163SOL    HW3 8683   0.019   0.142   3.687
 2163SOL    MW4 8684   0.031   0.148   3.773
 2164SOL     OW 8685   0.008   0.384   3.908
 2164SOL    HW2 8686  -0.068   0.433   3.876
 2164SOL    HW3 8687   0.084   0.426   3.866
 2164SOL    MW4 8688   0.008   0.396   3.898
 2165SOL     OW 8689   0.227   0.514   3.756
 2165SOL    HW2 8690   0.213   0.608   3.770
 2165SOL    HW3 8691   0.240   0.506   3.662
 2165SOL    MW4 8692   0.227   0.526   3.746
 2166SOL     OW 8693   0.171   0.802   3.846
 2166SOL    HW2 8694   0.167   0.793   3.941
 2166SOL    HW3 8695   0.090   0.848   3.823
 2166SOL    MW4 8696   0.160   0.807   3.855
 2167SOL     OW 8697   4.426   0.921   3.753
 2167SOL    HW2 8698   4.365   0.873   3.809
 2167SOL    HW3 8699   4.436   1.007   3.795
 2167SOL    MW4 8700   4.420   0.926   3.766
 2168SOL     OW 8701   4.446   1.156   3.895
 2168SOL    HW2 8702   4.383   1.206   3.843
 2168SOL    HW3 8703   4.532   1.183   3.860
 2168SOL    MW4 8704   4.449   1.166   3.883
 2169SOL     OW 8705   0.201   1.277   3.789
 2169SOL    HW2 8706   0.206   1.363   3.831
 2169SOL    HW3 8707   0.215   1.295   3.696
 2169SOL    MW4 8708   0.204   1.291   3.783
 2170SOL     OW 8709   0.211   1.559   3.854
 2170SOL    HW2 8710   0.216   1.575   3.948
 2170SOL    HW3 8711   0.126   1.595   3.829
 2170SOL    MW4 8712   0.201   1.566   3.863
 2171SOL     OW 8713   4.465   1.667   3.768
 2171SOL    HW2 8714   4.458   1.758   3.797
 2171SOL    HW3 8715   4.485   1.673   3.675
 2171SOL    MW4 8716   4.466   1.680   3.759
 2172SOL     OW 8717   4.463   1.932   3.860
 2172SOL    HW2 8718   4.449   1.928   3.955
 2172SOL    HW3 8719   4.376   1.951   3.824
 2172SOL    MW4 8720   4.450   1.934   3.868
 2173SOL     OW 8721   0.213   2.033   3.722
 2173SOL    HW2 8722   0.222   2.124   3.750
 2173SOL    HW3 8723   0.142   1.998   3.776
 2173SOL    MW4 8724   0.205   2.040   3.733
 2174SOL     OW 8725   0.204   2.311   3.803
 2174SOL    HW2 8726   0.211   2.310   3.898
 2174SOL    HW3 8727   0.112   2.333   3.786
 2174SOL    MW4 8728   0.193   2.314   3.813
 2175SOL     OW 8729   4.444   2.425   3.755
 2175SOL    HW2 8730   4.373   2.371   3.791
 2175SOL    HW3 8731   4.440   2.506   3.806
 2175SOL    MW4 8732   4.434   2.428   3.767
 2176SOL     OW 8733   4.437   2.662   3.898
 2176SOL    HW2 8734   4.454   2.664   3.992
 2176SOL    HW3 8735   4.514   2.705   3.860
 2176SOL    MW4 8736   4.450   2.668   3.905
 2177SOL     OW 8737   0.168   2.778   3.796
 2177SOL    HW2 8738   0.254   2.752   3.831
 2177SOL    HW3 8739   0.185   2.796   3.703
 2177SOL    MW4 8740   0.182   2.777   3.788
 2178SOL     OW 8741   0.233   3.058   3.858
 2178SOL    HW2 8742   0.223   3.070   3.952
 2178SOL    HW3 8743   0.188   2.976   3.840
 2178SOL    MW4 8744   0.226   3.049   3.868
 2179SOL     OW 8745   0.011   3.237   3.762
 2179SOL    HW2 8746   0.088   3.185   3.786
 2179SOL    HW3 8747  -0.011   3.207   3.674
 2179SOL    MW4 8748   0.018   3.226   3.754
 2180SOL     OW 8749   4.468   3.490   3.884
 2180SOL    HW2 8750   4.525   3.553   3.839
 2180SOL    HW3 8751   4.492   3.405   3.847
 2180SOL    MW4 8752   4.479   3.487   3.873
 2181SOL     OW 8753   0.174   3.626   3.753
 2181SOL    HW2 8754   0.248   3.575   3.786
 2181SOL    HW3 8755   0.181   3.711   3.798
 2181SOL    MW4 8756   0.184   3.631   3.763
 2182SOL     OW 8757   0.201   3.882   3.837
 2182SOL    HW2 8758   0.217   3.873   3.931
 2182SOL    HW3 8759   0.277   3.929   3.804
 2182SOL    MW4 8760   0.213   3.887   3.845
 2183SOL     OW 8761   4.471   4.022   3.720
 2183SOL    HW2 8762   4.389   4.004   3.765
 2183SOL    HW3 8763   4.532   3.955   3.753
 2183SOL    MW4 8764   4.469   4.011   3.730
 2184SOL     OW 8765   0.011   4.270   3.857
 2184SOL    HW2 8766   0.075   4.329   3.817
 2184SOL    HW3 8767   0.031   4.185   3.819
 2184SOL    MW4 8768   0.022   4.267   3.847
 2185SOL     OW 8769   0.226   4.380   3.732
 2185SOL    HW2 8770   0.296   4.324   3.763
 2185SOL    HW3 8771   0.253   4.469   3.757
 2185SOL    MW4 8772   0.239   4.385   3.739
 2186SOL     OW 8773   0.688   0.003   3.849
 2186SOL    HW2 8774   0.681  -0.080   3.802
 2186SOL    HW3 8775   0.616   0.056   3.815
 2186SOL    MW4 8776   0.678  -0.001   3.838
 2187SOL     OW 8777   0.456   0.120   3.763
 2187SOL    HW2 8778   0.450   0.202   3.813
 2187SOL    HW3 8779   0.384   0.067   3.796
 2187SOL    MW4 8780   0.446   0.124   3.774
 2188SOL     OW 8781   0.432   0.346   3.903
 2188SOL    HW2 8782   0.505   0.403   3.880
 2188SOL    HW3 8783   0.354   0.394   3.876
 2188SOL    MW4 8784   0.431   0.360   3.896
 2189SOL     OW 8785   0.628   0.508   3.785
 2189SOL    HW2 8786   0.708   0.463   3.810
 2189SOL    HW3 8787   0.633   0.593   3.829
 2189SOL    MW4 8788   0.639   0.513   3.794
 2190SOL     OW 8789   0.632   0.763   3.890
 2190SOL    HW2 8790   0.708   0.811   3.858
 2190SOL    HW3 8791   0.558   0.800   3.842
 2190SOL    MW4 8792   0.632   0.774   3.879
 2191SOL     OW 8793   0.418   0.862   3.755
 2191SOL    HW2 8794   0.411   0.951   3.789
 2191SOL    HW3 8795   0.329   0.827   3.763
 2191SOL    MW4 8796   0.405   0.869   3.760
 2192SOL     OW 8797   0.417   1.121   3.874
 2192SOL    HW2 8798   0.489   1.183   3.861
 2192SOL    HW3 8799   0.338   1.170   3.851
 2192SOL    MW4 8800   0.416   1.136   3.869
 2193SOL     OW 8801   0.647   1.259   3.786
 2193SOL    HW2 8802   0.727   1.212   3.810
 2193SOL    HW3 8803   0.654   1.271   3.691
 2193SOL    MW4 8804   0.659   1.254   3.776
 2194SOL     OW 8805   0.689   1.525   3.861
 2194SOL    HW2 8806   0.772   1.554   3.823
 2194SOL    HW3 8807   0.678   1.435   3.830
 2194SOL    MW4 8808   0.699   1.517   3.852
 2195SOL     OW 8809   0.446   1.666   3.758
 2195SOL    HW2 8810   0.525   1.625   3.795
 2195SOL    HW3 8811   0.374   1.609   3.784
 2195SOL    MW4 8812   0.447   1.653   3.766
 2196SOL     OW 8813   0.441   1.949   3.850
 2196SOL    HW2 8814   0.438   1.855   3.833
 2196SOL    HW3 8815   0.373   1.986   3.793
 2196SOL    MW4 8816   0.431   1.942   3.840
 2197SOL     OW 8817   0.665   2.028   3.721
 2197SOL    HW2 8818   0.664   2.113   3.764
 2197SOL    HW3 8819   0.591   1.981   3.758
 2197SOL    MW4 8820   0.655   2.033   3.731
 2198SOL     OW 8821   0.638   2.287   3.850
 2198SOL    HW2 8822   0.714   2.335   3.816
 2198SOL    HW3 8823   0.563   2.328   3.808
 2198SOL    MW4 8824   0.638   2.299   3.840
 2199SOL     OW 8825   0.445   2.427   3.724
 2199SOL    HW2 8826   0.365   2.381   3.750
 2199SOL    HW3 8827   0.439   2.431   3.628
 2199SOL    MW4 8828   0.433   2.421   3.714
 2200SOL     OW 8829   0.426   2.691   3.849
 2200SOL    HW2 8830   0.479   2.759   3.809
 2200SOL    HW3 8831   0.441   2.613   3.794
 2200SOL    MW4 8832   0.435   2.690   3.836
 2201SOL     OW 8833   0.650   2.838   3.745
 2201SOL    HW2 8834   0.726   2.791   3.779
 2201SOL    HW3 8835   0.660   2.835   3.650
 2201SOL    MW4 8836   0.662   2.832   3.737
 2202SOL     OW 8837   0.682   3.099   3.839
 2202SOL    HW2 8838   0.677   3.100   3.934
 2202SOL    HW3 8839   0.666   3.007   3.815
 2202SOL    MW4 8840   0.680   3.087   3.848
 2203SOL     OW 8841   0.443   3.222   3.780
 2203SOL    HW2 8842   0.526   3.176   3.791
 2203SOL    HW3 8843   0.376   3.156   3.800
 2203SOL    MW4 8844   0.445   3.207   3.784
 2204SOL     OW 8845   0.414   3.493   3.853
 2204SOL    HW2 8846   0.496   3.531   3.822
 2204SOL    HW3 8847   0.421   3.400   3.834
 2204SOL    MW4 8848   0.426   3.486   3.847
 2205SOL     OW 8849   0.666   3.621   3.804
 2205SOL    HW2 8850   0.662   3.712   3.835
 2205SOL    HW3 8851   0.653   3.628   3.709
 2205SOL    MW4 8852   0.664   3.634   3.796
 2206SOL     OW 8853   0.655   3.897   3.851
 2206SOL    HW2 8854   0.662   3.913   3.945
 2206SOL    HW3 8855   0.734   3.936   3.814
 2206SOL    MW4 8856   0.666   3.904   3.858
 2207SOL     OW 8857   0.420   3.998   3.733
 2207SOL    HW2 8858   0.505   3.964   3.761
 2207SOL    HW3 8859   0.417   3.981   3.639
 2207SOL    MW4 8860   0.431   3.991   3.724
 2208SOL     OW 8861   0.433   4.250   3.852
 2208SOL    HW2 8862   0.495   4.309   3.810
 2208SOL    HW3 8863   0.448   4.165   3.810
 2208SOL    MW4 8864   0.443   4.247   3.841
 2209SOL     OW 8865   0.665   4.407   3.753
 2209SOL    HW2 8866   0.736   4.352   3.787
 2209SOL    HW3 8867   0.667   4.393   3.658
 2209SOL    MW4 8868   0.674   4.398   3.745
 2210SOL     OW 8869   1.112   4.665   3.884
 2210SOL    HW2 8870   1.195   4.706   3.857
 2210SOL    HW3 8871   1.126   4.571   3.867
 2210SOL    MW4 8872   1.125   4.658   3.878
 2211SOL     OW 8873   0.911   0.131   3.749
 2211SOL    HW2 8874   0.982   0.080   3.787
 2211SOL    HW3 8875   0.831   0.093   3.785
 2211SOL    MW4 8876   0.910   0.120   3.759
 2212SOL     OW 8877   0.868   0.380   3.854
 2212SOL    HW2 8878   0.873   0.375   3.949
 2212SOL    HW3 8879   0.868   0.289   3.825
 2212SOL    MW4 8880   0.868   0.367   3.863
 2213SOL     OW 8881   1.071   0.523   3.726
 2213SOL    HW2 8882   1.134   0.452   3.742
 2213SOL    HW3 8883   0.993   0.497   3.775
 2213SOL    MW4 8884   1.069   0.510   3.735
 2214SOL     OW 8885   1.120   0.794   3.815
 2214SOL    HW2 8886   1.115   0.772   3.908
 2214SOL    HW3 8887   1.111   0.710   3.770
 2214SOL    MW4 8888   1.118   0.780   3.821
 2215SOL     OW 8889   0.874   0.886   3.789
 2215SOL    HW2 8890   0.961   0.852   3.805
 2215SOL    HW3 8891   0.862   0.879   3.695
 2215SOL    MW4 8892   0.884   0.881   3.779
 2216SOL     OW 8893   0.902   1.146   3.871
 2216SOL    HW2 8894   0.898   1.156   3.966
 2216SOL    HW3 8895   0.896   1.052   3.857
 2216SOL    MW4 8896   0.901   1.135   3.882
 2217SOL     OW 8897   1.098   1.281   3.719
 2217SOL    HW2 8898   1.102   1.365   3.765
 2217SOL    HW3 8899   1.037   1.228   3.770
 2217SOL    MW4 8900   1.091   1.285   3.731
 2218SOL     OW 8901   1.140   1.532   3.827
 2218SOL    HW2 8902   1.139   1.543   3.922
 2218SOL    HW3 8903   1.210   1.591   3.797
 2218SOL    MW4 8904   1.149   1.542   3.835
 2219SOL     OW 8905   0.908   1.659   3.762
 2219SOL    HW2 8906   0.989   1.619   3.794
 2219SOL    HW3 8907   0.911   1.648   3.667
 2219SOL    MW4 8908   0.919   1.652   3.754
 2220SOL     OW 8909   0.873   1.917   3.868
 2220SOL    HW2 8910   0.884   1.826   3.839
 2220SOL    HW3 8911   0.801   1.951   3.815
 2220SOL    MW4 8912   0.865   1.909   3.857
 2221SOL     OW 8913   1.072   2.063   3.740
 2221SOL    HW2 8914   1.003   1.999   3.755
 2221SOL    HW3 8915   1.095   2.054   3.648
 2221SOL    MW4 8916   1.066   2.053   3.730
 2222SOL     OW 8917   1.074   2.330   3.866
 2222SOL    HW2 8918   1.087   2.322   3.960
 2222SOL    HW3 8919   1.064   2.240   3.835
 2222SOL    MW4 8920   1.074   2.317   3.874
 2223SOL     OW 8921   0.866   2.422   3.729
 2223SOL    HW2 8922   0.867   2.513   3.759
 2223SOL    HW3 8923   0.939   2.381   3.775
 2223SOL    MW4 8924   0.875   2.429   3.739
 2224SOL     OW 8925   0.857   2.673   3.853
 2224SOL    HW2 8926   0.851   2.667   3.948
 2224SOL    HW3 8927   0.939   2.721   3.837
 2224SOL    MW4 8928   0.867   2.679   3.863
 2225SOL     OW 8929   1.081   2.848   3.794
 2225SOL    HW2 8930   1.162   2.811   3.828
 2225SOL    HW3 8931   1.074   2.934   3.836
 2225SOL    MW4 8932   1.091   2.854   3.804
 2226SOL     OW 8933   1.113   3.101   3.882
 2226SOL    HW2 8934   1.198   3.138   3.858
 2226SOL    HW3 8935   1.049   3.162   3.843
 2226SOL    MW4 8936   1.116   3.114   3.873
 2227SOL     OW 8937   0.895   3.236   3.741
 2227SOL    HW2 8938   0.827   3.177   3.773
 2227SOL    HW3 8939   0.901   3.217   3.647
 2227SOL    MW4 8940   0.887   3.226   3.733
 2228SOL     OW 8941   0.875   3.462   3.880
 2228SOL    HW2 8942   0.880   3.382   3.829
 2228SOL    HW3 8943   0.810   3.516   3.835
 2228SOL    MW4 8944   0.867   3.459   3.868
 2229SOL     OW 8945   1.101   3.604   3.837
 2229SOL    HW2 8946   1.088   3.695   3.864
 2229SOL    HW3 8947   1.018   3.561   3.859
 2229SOL    MW4 8948   1.088   3.610   3.843
 2230SOL     OW 8949   1.099   3.888   3.876
 2230SOL    HW2 8950   1.107   3.891   3.971
 2230SOL    HW3 8951   1.188   3.901   3.843
 2230SOL    MW4 8952   1.111   3.890   3.884
 2231SOL     OW 8953   0.881   4.009   3.763
 2231SOL    HW2 8954   0.958   3.962   3.797
 2231SOL    HW3 8955   0.877   3.984   3.671
 2231SOL    MW4 8956   0.890   3.999   3.755
 2232SOL     OW 8957   0.857   4.270   3.879
 2232SOL    HW2 8958   0.886   4.268   3.970
 2232SOL    HW3 8959   0.889   4.187   3.843
 2232SOL    MW4 8960   0.865   4.259   3.886
 2233SOL     OW 8961   1.128   4.379   3.819
 2233SOL    HW2 8962   1.039   4.366   3.851
 2233SOL    HW3 8963   1.117   4.399   3.726
 2233SOL    MW4 8964   1.115   4.380   3.811
 2234SOL     OW 8965   1.565   4.602   3.876
 2234SOL    HW2 8966   1.568   4.614   3.971
 2234SOL    HW3 8967   1.582   4.509   3.863
 2234SOL    MW4 8968   1.568   4.591   3.887
 2235SOL     OW 8969   1.352   0.064   3.741
 2235SOL    HW2 8970   1.357   0.152   3.778
 2235SOL    HW3 8971   1.421   0.015   3.785
 2235SOL    MW4 8972   1.362   0.069   3.752
 2236SOL     OW 8973   1.322   0.339   3.810
 2236SOL    HW2 8974   1.332   0.352   3.904
 2236SOL    HW3 8975   1.387   0.398   3.771
 2236SOL    MW4 8976   1.332   0.348   3.817
 2237SOL     OW 8977   1.522   0.546   3.763
 2237SOL    HW2 8978   1.575   0.485   3.814
 2237SOL    HW3 8979   1.552   0.633   3.791
 2237SOL    MW4 8980   1.533   0.550   3.773
 2238SOL     OW 8981   1.593   0.822   3.817
 2238SOL    HW2 8982   1.664   0.878   3.786
 2238SOL    HW3 8983   1.515   0.852   3.770
 2238SOL    MW4 8984   1.592   0.833   3.807
 2239SOL     OW 8985   1.350   0.906   3.693
 2239SOL    HW2 8986   1.358   0.994   3.730
 2239SOL    HW3 8987   1.278   0.866   3.742
 2239SOL    MW4 8988   1.342   0.912   3.704
 2240SOL     OW 8989   1.341   1.151   3.809
 2240SOL    HW2 8990   1.410   1.216   3.795
 2240SOL    HW3 8991   1.262   1.194   3.776
 2240SOL    MW4 8992   1.340   1.165   3.803
 2241SOL     OW 8993   1.544   1.341   3.725
 2241SOL    HW2 8994   1.625   1.301   3.756
 2241SOL    HW3 8995   1.544   1.428   3.764
 2241SOL    MW4 8996   1.555   1.347   3.734
 2242SOL     OW 8997   1.553   1.591   3.858
 2242SOL    HW2 8998   1.558   1.566   3.950
 2242SOL    HW3 8999   1.639   1.628   3.838
 2242SOL    MW4 9000   1.565   1.593   3.867
 2243SOL     OW 9001   1.340   1.706   3.739
 2243SOL    HW2 9002   1.339   1.796   3.770
 2243SOL    HW3 9003   1.413   1.664   3.786
 2243SOL    MW4 9004   1.350   1.712   3.749
 2244SOL     OW 9005   1.299   1.959   3.864
 2244SOL    HW2 9006   1.310   1.926   3.953
 2244SOL    HW3 9007   1.219   2.011   3.867
 2244SOL    MW4 9008   1.290   1.962   3.876
 2245SOL     OW 9009   1.533   2.093   3.781
 2245SOL    HW2 9010   1.453   2.049   3.809
 2245SOL    HW3 9011   1.531   2.090   3.685
 2245SOL    MW4 9012   1.522   2.087   3.772
 2246SOL     OW 9013   1.534   2.359   3.853
 2246SOL    HW2 9014   1.610   2.412   3.829
 2246SOL    HW3 9015   1.550   2.274   3.813
 2246SOL    MW4 9016   1.546   2.355   3.844
 2247SOL     OW 9017   1.285   2.486   3.751
 2247SOL    HW2 9018   1.361   2.441   3.788
 2247SOL    HW3 9019   1.210   2.444   3.794
 2247SOL    MW4 9020   1.285   2.474   3.762
 2248SOL     OW 9021   1.329   2.737   3.915
 2248SOL    HW2 9022   1.314   2.712   4.006
 2248SOL    HW3 9023   1.316   2.656   3.865
 2248SOL    MW4 9024   1.325   2.723   3.920
 2249SOL     OW 9025   1.530   2.878   3.781
 2249SOL    HW2 9026   1.460   2.824   3.818
 2249SOL    HW3 9027   1.522   2.867   3.686
 2249SOL    MW4 9028   1.520   2.870   3.773
 2250SOL     OW 9029   1.541   3.118   3.922
 2250SOL    HW2 9030   1.543   3.108   4.017
 2250SOL    HW3 9031   1.537   3.028   3.890
 2250SOL    MW4 9032   1.541   3.104   3.930
 2251SOL     OW 9033   1.339   3.239   3.764
 2251SOL    HW2 9034   1.315   3.319   3.810
 2251SOL    HW3 9035   1.414   3.205   3.813
 2251SOL    MW4 9036   1.346   3.245   3.776
 2252SOL     OW 9037   1.360   3.474   3.900
 2252SOL    HW2 9038   1.417   3.508   3.831
 2252SOL    HW3 9039   1.280   3.526   3.893
 2252SOL    MW4 9040   1.357   3.485   3.890
 2253SOL     OW 9041   1.554   3.565   3.712
 2253SOL    HW2 9042   1.627   3.512   3.744
 2253SOL    HW3 9043   1.567   3.651   3.752
 2253SOL    MW4 9044   1.565   3.569   3.722
 2254SOL     OW 9045   1.591   3.827   3.807
 2254SOL    HW2 9046   1.591   3.821   3.903
 2254SOL    HW3 9047   1.521   3.888   3.787
 2254SOL    MW4 9048   1.582   3.834   3.817
 2255SOL     OW 9049   1.346   3.956   3.776
 2255SOL    HW2 9050   1.347   4.042   3.818
 2255SOL    HW3 9051   1.326   3.975   3.684
 2255SOL    MW4 9052   1.343   3.970   3.769
 2256SOL     OW 9053   1.319   4.211   3.911
 2256SOL    HW2 9054   1.396   4.264   3.889
 2256SOL    HW3 9055   1.244   4.264   3.885
 2256SOL    MW4 9056   1.319   4.225   3.905
 2257SOL     OW 9057   1.569   4.345   3.792
 2257SOL    HW2 9058   1.656   4.314   3.813
 2257SOL    HW3 9059   1.569   4.355   3.697
 2257SOL    MW4 9060   1.580   4.343   3.782
 2258SOL     OW 9061   2.011   4.657   3.875
 2258SOL    HW2 9062   2.073   4.716   3.833
 2258SOL    HW3 9063   2.014   4.578   3.822
 2258SOL    MW4 9064   2.019   4.655   3.862
 2259SOL     OW 9065   1.751   0.100   3.764
 2259SOL    HW2 9066   1.834   0.075   3.805
 2259SOL    HW3 9067   1.687   0.037   3.799
 2259SOL    MW4 9068   1.753   0.089   3.775
 2260SOL     OW 9069   1.727   0.354   3.864
 2260SOL    HW2 9070   1.761   0.344   3.953
 2260SOL    HW3 9071   1.710   0.264   3.835
 2260SOL    MW4 9072   1.729   0.341   3.872
 2261SOL     OW 9073   1.941   0.492   3.758
 2261SOL    HW2 9074   1.864   0.454   3.801
 2261SOL    HW3 9075   1.917   0.498   3.666
 2261SOL    MW4 9076   1.928   0.488   3.752
 2262SOL     OW 9077   2.009   0.736   3.859
 2262SOL    HW2 9078   2.029   0.717   3.951
 2262SOL    HW3 9079   1.971   0.655   3.825
 2262SOL    MW4 9080   2.006   0.723   3.867
 2263SOL     OW 9081   1.834   0.942   3.728
 2263SOL    HW2 9082   1.894   0.872   3.754
 2263SOL    HW3 9083   1.812   0.922   3.637
 2263SOL    MW4 9084   1.839   0.930   3.720
 2264SOL     OW 9085   1.754   1.185   3.827
 2264SOL    HW2 9086   1.750   1.175   3.922
 2264SOL    HW3 9087   1.781   1.099   3.795
 2264SOL    MW4 9088   1.757   1.172   3.835
 2265SOL     OW 9089   2.003   1.284   3.783
 2265SOL    HW2 9090   2.063   1.228   3.832
 2265SOL    HW3 9091   1.916   1.247   3.800
 2265SOL    MW4 9092   2.000   1.272   3.792
 2266SOL     OW 9093   2.050   1.561   3.855
 2266SOL    HW2 9094   1.967   1.599   3.828
 2266SOL    HW3 9095   2.047   1.471   3.821
 2266SOL    MW4 9096   2.039   1.554   3.847
 2267SOL     OW 9097   1.813   1.679   3.777
 2267SOL    HW2 9098   1.791   1.762   3.819
 2267SOL    HW3 9099   1.799   1.695   3.684
 2267SOL    MW4 9100   1.808   1.692   3.770
 2268SOL     OW 9101   1.751   1.946   3.867
 2268SOL    HW2 9102   1.746   1.935   3.962
 2268SOL    HW3 9103   1.672   1.997   3.845
 2268SOL    MW4 9104   1.740   1.952   3.877
 2269SOL     OW 9105   1.964   2.124   3.821
 2269SOL    HW2 9106   1.889   2.075   3.855
 2269SOL    HW3 9107   1.957   2.114   3.726
 2269SOL    MW4 9108   1.953   2.116   3.813
 2270SOL     OW 9109   1.979   2.400   3.890
 2270SOL    HW2 9110   1.895   2.435   3.860
 2270SOL    HW3 9111   1.971   2.305   3.878
 2270SOL    MW4 9112   1.967   2.392   3.884
 2271SOL     OW 9113   1.751   2.476   3.741
 2271SOL    HW2 9114   1.766   2.570   3.748
 2271SOL    HW3 9115   1.746   2.460   3.646
 2271SOL    MW4 9116   1.752   2.486   3.729
 2272SOL     OW 9117   1.766   2.740   3.841
 2272SOL    HW2 9118   1.784   2.756   3.934
 2272SOL    HW3 9119   1.688   2.793   3.823
 2272SOL    MW4 9120   1.758   2.749   3.851
 2273SOL     OW 9121   1.997   2.866   3.757
 2273SOL    HW2 9122   2.065   2.813   3.799
 2273SOL    HW3 9123   1.915   2.823   3.781
 2273SOL    MW4 9124   1.995   2.853   3.766
 2274SOL     OW 9125   1.984   3.103   3.888
 2274SOL    HW2 9126   1.994   3.022   3.837
 2274SOL    HW3 9127   2.054   3.159   3.856
 2274SOL    MW4 9128   1.995   3.100   3.877
 2275SOL     OW 9129   1.761   3.183   3.774
 2275SOL    HW2 9130   1.833   3.145   3.823
 2275SOL    HW3 9131   1.682   3.147   3.815
 2275SOL    MW4 9132   1.760   3.173   3.786
 2276SOL     OW 9133   1.791   3.456   3.849
 2276SOL    HW2 9134   1.879   3.488   3.831
 2276SOL    HW3 9135   1.792   3.365   3.819
 2276SOL    MW4 9136   1.803   3.448   3.842
 2277SOL     OW 9137   2.014   3.585   3.783
 2277SOL    HW2 9138   2.104   3.560   3.804
 2277SOL    HW3 9139   2.014   3.596   3.688
 2277SOL    MW4 9140   2.026   3.583   3.773
 2278SOL     OW 9141   2.044   3.861   3.906
 2278SOL    HW2 9142   2.108   3.903   3.849
 2278SOL    HW3 9143   2.025   3.777   3.864
 2278SOL    MW4 9144   2.050   3.855   3.893
 2279SOL     OW 9145   1.830   3.976   3.758
 2279SOL    HW2 9146   1.893   3.943   3.822
 2279SOL    HW3 9147   1.750   3.928   3.775
 2279SOL    MW4 9148   1.828   3.965   3.768
 2280SOL     OW 9149   1.830   4.257   3.829
 2280SOL    HW2 9150   1.903   4.307   3.792
 2280SOL    HW3 9151   1.844   4.168   3.797
 2280SOL    MW4 9152   1.841   4.252   3.820
 2281SOL     OW 9153   2.028   4.403   3.727
 2281SOL    HW2 9154   2.104   4.352   3.757
 2281SOL    HW3 9155   2.016   4.376   3.636
 2281SOL    MW4 9156   2.037   4.393   3.719
 2282SOL     OW 9157   2.419   4.637   3.845
 2282SOL    HW2 9158   2.409   4.647   3.940
 2282SOL    HW3 9159   2.489   4.697   3.822
 2282SOL    MW4 9160   2.427   4.646   3.855
 2283SOL     OW 9161   2.214   0.143   3.745
 2283SOL    HW2 9162   2.283   0.088   3.781
 2283SOL    HW3 9163   2.222   0.133   3.650
 2283SOL    MW4 9164   2.224   0.135   3.737
 2284SOL     OW 9165   2.171   0.386   3.854
 2284SOL    HW2 9166   2.194   0.312   3.797
 2284SOL    HW3 9167   2.092   0.423   3.816
 2284SOL    MW4 9168   2.164   0.381   3.842
 2285SOL     OW 9169   2.419   0.501   3.779
 2285SOL    HW2 9170   2.337   0.466   3.813
 2285SOL    HW3 9171   2.399   0.524   3.688
 2285SOL    MW4 9172   2.406   0.500   3.771
 2286SOL     OW 9173   2.454   0.756   3.891
 2286SOL    HW2 9174   2.384   0.812   3.858
 2286SOL    HW3 9175   2.430   0.668   3.860
 2286SOL    MW4 9176   2.441   0.752   3.882
 2287SOL     OW 9177   2.237   0.889   3.797
 2287SOL    HW2 9178   2.163   0.835   3.823
 2287SOL    HW3 9179   2.228   0.900   3.703
 2287SOL    MW4 9180   2.226   0.883   3.788
 2288SOL     OW 9181   2.202   1.142   3.898
 2288SOL    HW2 9182   2.230   1.140   3.989
 2288SOL    HW3 9183   2.214   1.053   3.867
 2288SOL    MW4 9184   2.208   1.130   3.906
 2289SOL     OW 9185   2.390   1.271   3.743
 2289SOL    HW2 9186   2.407   1.347   3.799
 2289SOL    HW3 9187   2.328   1.218   3.794
 2289SOL    MW4 9188   2.384   1.274   3.757
 2290SOL     OW 9189   2.434   1.522   3.901
 2290SOL    HW2 9190   2.518   1.550   3.864
 2290SOL    HW3 9191   2.372   1.589   3.873
 2290SOL    MW4 9192   2.437   1.534   3.893
 2291SOL     OW 9193   2.264   1.729   3.775
 2291SOL    HW2 9194   2.237   1.813   3.812
 2291SOL    HW3 9195   2.194   1.668   3.799
 2291SOL    MW4 9196   2.251   1.732   3.783
 2292SOL     OW 9197   2.197   1.960   3.879
 2292SOL    HW2 9198   2.214   1.974   3.972
 2292SOL    HW3 9199   2.120   2.014   3.860
 2292SOL    MW4 9200   2.189   1.969   3.889
 2293SOL     OW 9201   2.448   2.051   3.801
 2293SOL    HW2 9202   2.424   2.143   3.817
 2293SOL    HW3 9203   2.366   2.003   3.809
 2293SOL    MW4 9204   2.434   2.057   3.804
 2294SOL     OW 9205   2.431   2.324   3.829
 2294SOL    HW2 9206   2.510   2.378   3.821
 2294SOL    HW3 9207   2.359   2.382   3.805
 2294SOL    MW4 9208   2.432   2.339   3.824
 2295SOL     OW 9209   2.200   2.484   3.765
 2295SOL    HW2 9210   2.119   2.449   3.801
 2295SOL    HW3 9211   2.182   2.495   3.672
 2295SOL    MW4 9212   2.187   2.481   3.758
 2296SOL     OW 9213   2.199   2.735   3.894
 2296SOL    HW2 9214   2.189   2.754   3.987
 2296SOL    HW3 9215   2.190   2.640   3.888
 2296SOL    MW4 9216   2.197   2.725   3.906
 2297SOL     OW 9217   2.428   2.849   3.781
 2297SOL    HW2 9218   2.356   2.795   3.813
 2297SOL    HW3 9219   2.412   2.858   3.687
 2297SOL    MW4 9220   2.417   2.843   3.773
 2298SOL     OW 9221   2.463   3.159   3.869
 2298SOL    HW2 9222   2.487   3.168   3.961
 2298SOL    HW3 9223   2.459   3.064   3.854
 2298SOL    MW4 9224   2.466   3.148   3.879
 2299SOL     OW 9225   2.206   3.232   3.781
 2299SOL    HW2 9226   2.190   3.315   3.826
 2299SOL    HW3 9227   2.287   3.199   3.820
 2299SOL    MW4 9228   2.214   3.238   3.792
 2300SOL     OW 9229   2.241   3.491   3.882
 2300SOL    HW2 9230   2.254   3.488   3.977
 2300SOL    HW3 9231   2.327   3.512   3.846
 2300SOL    MW4 9232   2.254   3.493   3.890
 2301SOL     OW 9233   2.482   3.590   3.782
 2301SOL    HW2 9234   2.555   3.536   3.812
 2301SOL    HW3 9235   2.505   3.616   3.693
 2301SOL    MW4 9236   2.494   3.586   3.775
 2302SOL     OW 9237   2.455   3.863   3.882
 2302SOL    HW2 9238   2.523   3.917   3.842
 2302SOL    HW3 9239   2.470   3.775   3.848
 2302SOL    MW4 9240   2.466   3.859   3.872
 2303SOL     OW 9241   2.244   3.979   3.776
 2303SOL    HW2 9242   2.328   3.941   3.802
 2303SOL    HW3 9243   2.242   3.970   3.681
 2303SOL    MW4 9244   2.255   3.973   3.767
 2304SOL     OW 9245   2.243   4.256   3.852
 2304SOL    HW2 9246   2.234   4.250   3.947
 2304SOL    HW3 9247   2.231   4.166   3.821
 2304SOL    MW4 9248   2.240   4.243   3.860
 2305SOL     OW 9249   2.463   4.374   3.739
 2305SOL    HW2 9250   2.405   4.311   3.783
 2305SOL    HW3 9251   2.433   4.459   3.769
 2305SOL    MW4 9252   2.451   4.377   3.749
 2306SOL     OW 9253   2.880   4.649   3.851
 2306SOL    HW2 9254   2.892   4.654   3.946
 2306SOL    HW3 9255   2.963   4.682   3.815
 2306SOL    MW4 9256   2.893   4.654   3.859
 2307SOL     OW 9257   2.661   0.127   3.771
 2307SOL    HW2 9258   2.744   0.081   3.783
 2307SOL    HW3 9259   2.658   0.146   3.677
 2307SOL    MW4 9260   2.672   0.124   3.760
 2308SOL     OW 9261   2.662   0.396   3.881
 2308SOL    HW2 9262   2.663   0.308   3.842
 2308SOL    HW3 9263   2.576   0.431   3.858
 2308SOL    MW4 9264   2.651   0.389   3.873
 2309SOL     OW 9265   2.894   0.551   3.754
 2309SOL    HW2 9266   2.972   0.506   3.787
 2309SOL    HW3 9267   2.821   0.506   3.796
 2309SOL    MW4 9268   2.895   0.539   3.764
 2310SOL     OW 9269   2.874   0.828   3.894
 2310SOL    HW2 9270   2.940   0.866   3.837
 2310SOL    HW3 9271   2.860   0.740   3.859
 2310SOL    MW4 9272   2.881   0.821   3.882
 2311SOL     OW 9273   2.648   0.885   3.747
 2311SOL    HW2 9274   2.726   0.860   3.798
 2311SOL    HW3 9275   2.577   0.835   3.786
 2311SOL    MW4 9276   2.649   0.875   3.759
 2312SOL     OW 9277   2.647   1.134   3.826
 2312SOL    HW2 9278   2.648   1.044   3.795
 2312SOL    HW3 9279   2.569   1.172   3.787
 2312SOL    MW4 9280   2.637   1.127   3.817
 2313SOL     OW 9281   2.903   1.259   3.811
 2313SOL    HW2 9282   2.883   1.347   3.842
 2313SOL    HW3 9283   2.823   1.210   3.826
 2313SOL    MW4 9284   2.890   1.264   3.817
 2314SOL     OW 9285   2.918   1.573   3.895
 2314SOL    HW2 9286   2.929   1.564   3.989
 2314SOL    HW3 9287   3.000   1.613   3.865
 2314SOL    MW4 9288   2.930   1.577   3.903
 2315SOL     OW 9289   2.671   1.625   3.799
 2315SOL    HW2 9290   2.756   1.601   3.835
 2315SOL    HW3 9291   2.683   1.621   3.704
 2315SOL    MW4 9292   2.684   1.621   3.792
 2316SOL     OW 9293   2.696   1.932   3.829
 2316SOL    HW2 9294   2.686   1.836   3.827
 2316SOL    HW3 9295   2.607   1.965   3.819
 2316SOL    MW4 9296   2.683   1.923   3.828
 2317SOL     OW 9297   2.941   2.085   3.782
 2317SOL    HW2 9298   2.927   2.171   3.820
 2317SOL    HW3 9299   2.860   2.037   3.800
 2317SOL    MW4 9300   2.928   2.090   3.789
 2318SOL     OW 9301   2.903   2.384   3.898
 2318SOL    HW2 9302   2.920   2.371   3.992
 2318SOL    HW3 9303   2.990   2.392   3.859
 2318SOL    MW4 9304   2.917   2.383   3.906
 2319SOL     OW 9305   2.688   2.490   3.754
 2319SOL    HW2 9306   2.690   2.582   3.783
 2319SOL    HW3 9307   2.746   2.445   3.815
 2319SOL    MW4 9308   2.696   2.496   3.766
 2320SOL     OW 9309   2.675   2.753   3.819
 2320SOL    HW2 9310   2.688   2.754   3.914
 2320SOL    HW3 9311   2.588   2.791   3.807
 2320SOL    MW4 9312   2.665   2.758   3.830
 2321SOL     OW 9313   2.924   2.859   3.730
 2321SOL    HW2 9314   2.928   2.944   3.773
 2321SOL    HW3 9315   2.846   2.817   3.765
 2321SOL    MW4 9316   2.914   2.864   3.740
 2322SOL     OW 9317   2.895   3.099   3.872
 2322SOL    HW2 9318   2.970   3.154   3.847
 2322SOL    HW3 9319   2.824   3.130   3.816
 2322SOL    MW4 9320   2.896   3.111   3.861
 2323SOL     OW 9321   2.689   3.211   3.702
 2323SOL    HW2 9322   2.715   3.292   3.745
 2323SOL    HW3 9323   2.605   3.188   3.743
 2323SOL    MW4 9324   2.681   3.218   3.713
 2324SOL     OW 9325   2.736   3.460   3.825
 2324SOL    HW2 9326   2.734   3.468   3.920
 2324SOL    HW3 9327   2.788   3.534   3.795
 2324SOL    MW4 9328   2.743   3.471   3.834
 2325SOL     OW 9329   2.904   3.661   3.774
 2325SOL    HW2 9330   2.967   3.618   3.832
 2325SOL    HW3 9331   2.934   3.639   3.686
 2325SOL    MW4 9332   2.917   3.652   3.770
 2326SOL     OW 9333   2.928   3.938   3.830
 2326SOL    HW2 9334   2.928   3.932   3.925
 2326SOL    HW3 9335   2.919   3.847   3.800
 2326SOL    MW4 9336   2.927   3.925   3.838
 2327SOL     OW 9337   2.672   4.015   3.768
 2327SOL    HW2 9338   2.675   4.107   3.794
 2327SOL    HW3 9339   2.751   3.976   3.806
 2327SOL    MW4 9340   2.683   4.022   3.776
 2328SOL     OW 9341   2.693   4.267   3.874
 2328SOL    HW2 9342   2.762   4.305   3.819
 2328SOL    HW3 9343   2.612   4.301   3.838
 2328SOL    MW4 9344   2.692   4.276   3.862
 2329SOL     OW 9345   2.909   4.387   3.740
 2329SOL    HW2 9346   2.980   4.336   3.781
 2329SOL    HW3 9347   2.912   4.471   3.785
 2329SOL    MW4 9348   2.919   4.391   3.752
 2330SOL     OW 9349   3.361   0.008   3.883
 2330SOL    HW2 9350   3.363   0.002   3.978
 2330SOL    HW3 9351   3.442   0.053   3.859
 2330SOL    MW4 9352   3.372   0.013   3.892
 2331SOL     OW 9353   3.120   0.099   3.762
 2331SOL    HW2 9354   3.193   0.047   3.795
 2331SOL    HW3 9355   3.138   0.107   3.668
 2331SOL    MW4 9356   3.132   0.093   3.754
 2332SOL     OW 9357   3.106   0.364   3.859
 2332SOL    HW2 9358   3.110   0.387   3.952
 2332SOL    HW3 9359   3.111   0.268   3.858
 2332SOL    MW4 9360   3.108   0.354   3.871
 2333SOL     OW 9361   3.337   0.436   3.724
 2333SOL    HW2 9362   3.400   0.377   3.765
 2333SOL    HW3 9363   3.252   0.406   3.755
 2333SOL    MW4 9364   3.334   0.425   3.734
 2334SOL     OW 9365   3.323   0.716   3.824
 2334SOL    HW2 9366   3.309   0.723   3.919
 2334SOL    HW3 9367   3.315   0.622   3.807
 2334SOL    MW4 9368   3.320   0.704   3.835
 2335SOL     OW 9369   3.117   0.890   3.741
 2335SOL    HW2 9370   3.196   0.838   3.755
 2335SOL    HW3 9371   3.108   0.896   3.646
 2335SOL    MW4 9372   3.126   0.884   3.730
 2336SOL     OW 9373   3.146   1.140   3.893
 2336SOL    HW2 9374   3.149   1.047   3.870
 2336SOL    HW3 9375   3.063   1.171   3.855
 2336SOL    MW4 9376   3.135   1.131   3.885
 2337SOL     OW 9377   3.356   1.267   3.750
 2337SOL    HW2 9378   3.290   1.215   3.795
 2337SOL    HW3 9379   3.329   1.267   3.659
 2337SOL    MW4 9380   3.344   1.260   3.744
 2338SOL     OW 9381   3.363   1.534   3.877
 2338SOL    HW2 9382   3.281   1.581   3.860
 2338SOL    HW3 9383   3.350   1.449   3.835
 2338SOL    MW4 9384   3.350   1.529   3.869
 2339SOL     OW 9385   3.157   1.684   3.803
 2339SOL    HW2 9386   3.154   1.778   3.820
 2339SOL    HW3 9387   3.131   1.674   3.712
 2339SOL    MW4 9388   3.154   1.695   3.794
 2340SOL     OW 9389   3.152   1.945   3.896
 2340SOL    HW2 9390   3.140   1.946   3.991
 2340SOL    HW3 9391   3.078   1.995   3.861
 2340SOL    MW4 9392   3.140   1.952   3.904
 2341SOL     OW 9393   3.384   2.079   3.819
 2341SOL    HW2 9394   3.313   2.019   3.840
 2341SOL    HW3 9395   3.387   2.080   3.723
 2341SOL    MW4 9396   3.375   2.071   3.809
 2342SOL     OW 9397   3.362   2.348   3.868
 2342SOL    HW2 9398   3.288   2.386   3.821
 2342SOL    HW3 9399   3.356   2.254   3.851
 2342SOL    MW4 9400   3.351   2.341   3.860
 2343SOL     OW 9401   3.142   2.449   3.745
 2343SOL    HW2 9402   3.135   2.538   3.779
 2343SOL    HW3 9403   3.120   2.456   3.652
 2343SOL    MW4 9404   3.138   2.461   3.737
 2344SOL     OW 9405   3.122   2.702   3.869
 2344SOL    HW2 9406   3.123   2.730   3.961
 2344SOL    HW3 9407   3.051   2.752   3.829
 2344SOL    MW4 9408   3.113   2.712   3.876
 2345SOL     OW 9409   3.352   2.827   3.771
 2345SOL    HW2 9410   3.276   2.789   3.815
 2345SOL    HW3 9411   3.330   2.823   3.678
 2345SOL    MW4 9412   3.339   2.821   3.764
 2346SOL     OW 9413   3.353   3.085   3.879
 2346SOL    HW2 9414   3.434   3.114   3.837
 2346SOL    HW3 9415   3.344   2.994   3.852
 2346SOL    MW4 9416   3.363   3.077   3.870
 2347SOL     OW 9417   3.123   3.234   3.793
 2347SOL    HW2 9418   3.202   3.192   3.826
 2347SOL    HW3 9419   3.133   3.232   3.698
 2347SOL    MW4 9420   3.134   3.228   3.785
 2348SOL     OW 9421   3.107   3.501   3.885
 2348SOL    HW2 9422   3.195   3.524   3.854
 2348SOL    HW3 9423   3.097   3.409   3.860
 2348SOL    MW4 9424   3.117   3.492   3.877
 2349SOL     OW 9425   3.351   3.590   3.756
 2349SOL    HW2 9426   3.369   3.682   3.775
 2349SOL    HW3 9427   3.352   3.583   3.661
 2349SOL    MW4 9428   3.354   3.601   3.746
 2350SOL     OW 9429   3.324   3.856   3.831
 2350SOL    HW2 9430   3.394   3.921   3.823
 2350SOL    HW3 9431   3.250   3.894   3.784
 2350SOL    MW4 9432   3.323   3.869   3.824
 2351SOL     OW 9433   3.132   4.033   3.695
 2351SOL    HW2 9434   3.140   4.113   3.746
 2351SOL    HW3 9435   3.047   3.997   3.720
 2351SOL    MW4 9436   3.121   4.038   3.705
 2352SOL     OW 9437   3.137   4.242   3.860
 2352SOL    HW2 9438   3.137   4.244   3.956
 2352SOL    HW3 9439   3.212   4.296   3.836
 2352SOL    MW4 9440   3.147   4.250   3.870
 2353SOL     OW 9441   3.360   4.424   3.791
 2353SOL    HW2 9442   3.443   4.383   3.816
 2353SOL    HW3 9443   3.362   4.509   3.835
 2353SOL    MW4 9444   3.371   4.430   3.800
 2354SOL     OW 9445   3.834   4.658   3.853
 2354SOL    HW2 9446   3.918   4.689   3.820
 2354SOL    HW3 9447   3.816   4.578   3.803
 2354SOL    MW4 9448   3.842   4.651   3.842
 2355SOL     OW 9449   3.598   0.105   3.765
 2355SOL    HW2 9450   3.685   0.076   3.790
 2355SOL    HW3 9451   3.595   0.096   3.670
 2355SOL    MW4 9452   3.609   0.100   3.756
 2356SOL     OW 9453   3.580   0.366   3.841
 2356SOL    HW2 9454   3.660   0.411   3.810
 2356SOL    HW3 9455   3.599   0.273   3.829
 2356SOL    MW4 9456   3.593   0.360   3.835
 2357SOL     OW 9457   3.817   0.522   3.774
 2357SOL    HW2 9458   3.894   0.478   3.810
 2357SOL    HW3 9459   3.809   0.603   3.825
 2357SOL    MW4 9460   3.826   0.527   3.786
 2358SOL     OW 9461   3.797   0.763   3.903
 2358SOL    HW2 9462   3.869   0.801   3.852
 2358SOL    HW3 9463   3.718   0.788   3.856
 2358SOL    MW4 9464   3.796   0.771   3.890
 2359SOL     OW 9465   3.576   0.840   3.748
 2359SOL    HW2 9466   3.578   0.917   3.805
 2359SOL    HW3 9467   3.499   0.790   3.778
 2359SOL    MW4 9468   3.566   0.843   3.760
 2360SOL     OW 9469   3.576   1.099   3.854
 2360SOL    HW2 9470   3.652   1.153   3.833
 2360SOL    HW3 9471   3.501   1.149   3.825
 2360SOL    MW4 9472   3.576   1.112   3.847
 2361SOL     OW 9473   3.771   1.246   3.765
 2361SOL    HW2 9474   3.852   1.203   3.792
 2361SOL    HW3 9475   3.769   1.327   3.817
 2361SOL    MW4 9476   3.782   1.251   3.775
 2362SOL     OW 9477   3.778   1.505   3.865
 2362SOL    HW2 9478   3.770   1.497   3.960
 2362SOL    HW3 9479   3.710   1.567   3.840
 2362SOL    MW4 9480   3.768   1.512   3.875
 2363SOL     OW 9481   3.576   1.683   3.799
 2363SOL    HW2 9482   3.504   1.622   3.813
 2363SOL    HW3 9483   3.580   1.694   3.704
 2363SOL    MW4 9484   3.567   1.676   3.788
 2364SOL     OW 9485   3.575   1.920   3.939
 2364SOL    HW2 9486   3.565   1.836   3.894
 2364SOL    HW3 9487   3.520   1.981   3.890
 2364SOL    MW4 9488   3.567   1.917   3.927
 2365SOL     OW 9489   3.815   2.026   3.806
 2365SOL    HW2 9490   3.901   1.993   3.832
 2365SOL    HW3 9491   3.756   1.993   3.874
 2365SOL    MW4 9492   3.819   2.017   3.818
 2366SOL     OW 9493   3.790   2.316   3.877
 2366SOL    HW2 9494   3.724   2.368   3.831
 2366SOL    HW3 9495   3.783   2.229   3.839
 2366SOL    MW4 9496   3.781   2.311   3.866
 2367SOL     OW 9497   3.595   2.467   3.750
 2367SOL    HW2 9498   3.510   2.435   3.777
 2367SOL    HW3 9499   3.603   2.440   3.658
 2367SOL    MW4 9500   3.585   2.460   3.741
 2368SOL     OW 9501   3.607   2.718   3.864
 2368SOL    HW2 9502   3.619   2.631   3.826
 2368SOL    HW3 9503   3.531   2.753   3.819
 2368SOL    MW4 9504   3.599   2.711   3.853
 2369SOL     OW 9505   3.817   2.865   3.735
 2369SOL    HW2 9506   3.898   2.816   3.749
 2369SOL    HW3 9507   3.749   2.812   3.776
 2369SOL    MW4 9508   3.819   2.852   3.742
 2370SOL     OW 9509   3.816   3.110   3.846
 2370SOL    HW2 9510   3.729   3.142   3.825
 2370SOL    HW3 9511   3.819   3.021   3.810
 2370SOL    MW4 9512   3.805   3.103   3.838
 2371SOL     OW 9513   3.571   3.200   3.756
 2371SOL    HW2 9514   3.586   3.290   3.786
 2371SOL    HW3 9515   3.589   3.203   3.662
 2371SOL    MW4 9516   3.576   3.212   3.747
 2372SOL     OW 9517   3.571   3.467   3.867
 2372SOL    HW2 9518   3.587   3.477   3.961
 2372SOL    HW3 9519   3.496   3.523   3.849
 2372SOL    MW4 9520   3.563   3.476   3.877
 2373SOL     OW 9521   3.797   3.621   3.726
 2373SOL    HW2 9522   3.796   3.708   3.766
 2373SOL    HW3 9523   3.728   3.573   3.772
 2373SOL    MW4 9524   3.788   3.626   3.737
 2374SOL     OW 9525   3.793   3.868   3.855
 2374SOL    HW2 9526   3.796   3.884   3.949
 2374SOL    HW3 9527   3.857   3.930   3.818
 2374SOL    MW4 9528   3.802   3.878   3.862
 2375SOL     OW 9529   3.557   4.029   3.755
 2375SOL    HW2 9530   3.576   4.121   3.773
 2375SOL    HW3 9531   3.630   3.981   3.794
 2375SOL    MW4 9532   3.569   4.035   3.762
 2376SOL     OW 9533   3.584   4.281   3.863
 2376SOL    HW2 9534   3.584   4.262   3.957
 2376SOL    HW3 9535   3.668   4.325   3.848
 2376SOL    MW4 9536   3.595   4.284   3.873
 2377SOL     OW 9537   3.821   4.394   3.763
 2377SOL    HW2 9538   3.908   4.362   3.788
 2377SOL    HW3 9539   3.813   4.371   3.671
 2377SOL    MW4 9540   3.832   4.387   3.754
 2378SOL     OW 9541   4.335   4.627   3.848
 2378SOL    HW2 9542   4.327   4.638   3.943
 2378SOL    HW3 9543   4.415   4.674   3.826
 2378SOL    MW4 9544   4.344   4.635   3.858
 2379SOL     OW 9545   4.080   0.083   3.759
 2379SOL    HW2 9546   4.159   0.034   3.781
 2379SOL    HW3 9547   4.085   0.096   3.664
 2379SOL    MW4 9548   4.091   0.078   3.749
 2380SOL     OW 9549   4.036   0.370   3.883
 2380SOL    HW2 9550   4.029   0.367   3.979
 2380SOL    HW3 9551   4.044   0.278   3.858
 2380SOL    MW4 9552   4.036   0.357   3.892
 2381SOL     OW 9553   4.250   0.517   3.783
 2381SOL    HW2 9554   4.166   0.481   3.809
 2381SOL    HW3 9555   4.244   0.528   3.688
 2381SOL    MW4 9556   4.238   0.514   3.774
 2382SOL     OW 9557   4.246   0.773   3.888
 2382SOL    HW2 9558   4.171   0.821   3.853
 2382SOL    HW3 9559   4.242   0.688   3.846
 2382SOL    MW4 9560   4.235   0.768   3.878
 2383SOL     OW 9561   4.015   0.869   3.764
 2383SOL    HW2 9562   4.004   0.957   3.798
 2383SOL    HW3 9563   4.032   0.881   3.670
 2383SOL    MW4 9564   4.016   0.882   3.756
 2384SOL     OW 9565   4.009   1.125   3.843
 2384SOL    HW2 9566   4.015   1.130   3.938
 2384SOL    HW3 9567   4.088   1.169   3.811
 2384SOL    MW4 9568   4.020   1.131   3.851
 2385SOL     OW 9569   4.228   1.264   3.740
 2385SOL    HW2 9570   4.212   1.351   3.776
 2385SOL    HW3 9571   4.237   1.278   3.645
 2385SOL    MW4 9572   4.227   1.277   3.732
 2386SOL     OW 9573   4.235   1.511   3.850
 2386SOL    HW2 9574   4.152   1.550   3.824
 2386SOL    HW3 9575   4.301   1.577   3.828
 2386SOL    MW4 9576   4.233   1.525   3.843
 2387SOL     OW 9577   3.991   1.617   3.728
 2387SOL    HW2 9578   4.015   1.698   3.773
 2387SOL    HW3 9579   3.916   1.584   3.777
 2387SOL    MW4 9580   3.984   1.624   3.741
 2388SOL     OW 9581   4.058   1.855   3.874
 2388SOL    HW2 9582   4.053   1.866   3.969
 2388SOL    HW3 9583   4.130   1.911   3.847
 2388SOL    MW4 9584   4.067   1.864   3.883
 2389SOL     OW 9585   4.231   2.035   3.761
 2389SOL    HW2 9586   4.237   2.123   3.799
 2389SOL    HW3 9587   4.207   2.050   3.670
 2389SOL    MW4 9588   4.228   2.049   3.754
 2390SOL     OW 9589   4.232   2.288   3.857
 2390SOL    HW2 9590   4.238   2.303   3.952
 2390SOL    HW3 9591   4.177   2.360   3.826
 2390SOL    MW4 9592   4.225   2.300   3.866
 2391SOL     OW 9593   4.014   2.424   3.758
 2391SOL    HW2 9594   4.021   2.513   3.793
 2391SOL    HW3 9595   3.939   2.386   3.803
 2391SOL    MW4 9596   4.005   2.431   3.768
 2392SOL     OW 9597   4.061   2.714   3.816
 2392SOL    HW2 9598   4.071   2.710   3.911
 2392SOL    HW3 9599   4.140   2.758   3.785
 2392SOL    MW4 9600   4.073   2.719   3.825
 2393SOL     OW 9601   4.293   2.829   3.734
 2393SOL    HW2 9602   4.292   2.912   3.782
 2393SOL    HW3 9603   4.345   2.770   3.789
 2393SOL    MW4 9604   4.300   2.832   3.747
 2394SOL     OW 9605   4.244   3.103   3.841
 2394SOL    HW2 9606   4.170   3.152   3.807
 2394SOL    HW3 9607   4.321   3.146   3.805
 2394SOL    MW4 9608   4.244   3.115   3.832
 2395SOL     OW 9609   4.016   3.242   3.731
 2395SOL    HW2 9610   3.944   3.194   3.771
 2395SOL    HW3 9611   4.003   3.230   3.636
 2395SOL    MW4 9612   4.005   3.234   3.723
 2396SOL     OW 9613   4.032   3.494   3.836
 2396SOL    HW2 9614   4.026   3.405   3.801
 2396SOL    HW3 9615   3.951   3.537   3.808
 2396SOL    MW4 9616   4.020   3.488   3.827
 2397SOL     OW 9617   4.255   3.635   3.780
 2397SOL    HW2 9618   4.180   3.585   3.811
 2397SOL    HW3 9619   4.331   3.585   3.809
 2397SOL    MW4 9620   4.255   3.622   3.788
 2398SOL     OW 9621   4.255   3.905   3.845
 2398SOL    HW2 9622   4.170   3.934   3.810
 2398SOL    HW3 9623   4.258   3.812   3.826
 2398SOL    MW4 9624   4.244   3.897   3.838
 2399SOL     OW 9625   4.016   4.021   3.741
 2399SOL    HW2 9626   4.042   4.111   3.759
 2399SOL    HW3 9627   4.016   4.014   3.645
 2399SOL    MW4 9628   4.020   4.032   3.731
 2400SOL     OW 9629   4.072   4.268   3.825
 2400SOL    HW2 9630   4.072   4.288   3.918
 2400SOL    HW3 9631   4.146   4.318   3.790
 2400SOL    MW4 9632   4.081   4.278   3.832
 2401SOL     OW 9633   4.290   4.388   3.725
 2401SOL    HW2 9634   4.302   4.473   3.767
 2401SOL    HW3 9635   4.360   4.333   3.761
 2401SOL    MW4 9636   4.301   4.392   3.736
 2402SOL     OW 9637   0.254   4.623   4.113
 2402SOL    HW2 9638   0.341   4.655   4.137
 2402SOL    HW3 9639   0.252   4.533   4.146
 2402SOL    MW4 9640   0.265   4.615   4.120
 2403SOL     OW 9641   0.070   0.102   4.238
 2403SOL    HW2 9642   0.064   0.082   4.332
 2403SOL    HW3 9643   0.137   0.042   4.205
 2403SOL    MW4 9644   0.078   0.091   4.246
 2404SOL     OW 9645   4.469   0.346   4.183
 2404SOL    HW2 9646   4.512   0.268   4.219
 2404SOL    HW3 9647   4.489   0.343   4.090
 2404SOL    MW4 9648   4.477   0.335   4.176
 2405SOL     OW 9649   0.219   0.498   4.272
 2405SOL    HW2 9650   0.290   0.440   4.245
 2405SOL    HW3 9651   0.139   0.451   4.249
 2405SOL    MW4 9652   0.218   0.484   4.266
 2406SOL     OW 9653   0.191   0.753   4.121
 2406SOL    HW2 9654   0.111   0.781   4.164
 2406SOL    HW3 9655   0.214   0.670   4.163
 2406SOL    MW4 9656   0.184   0.746   4.132
 2407SOL     OW 9657   0.008   0.901   4.290
 2407SOL    HW2 9658  -0.080   0.874   4.262
 2407SOL    HW3 9659   0.019   0.988   4.253
 2407SOL    MW4 9660  -0.002   0.909   4.281
 2408SOL     OW 9661   0.015   1.140   4.167
 2408SOL    HW2 9662   0.096   1.189   4.177
 2408SOL    HW3 9663  -0.012   1.156   4.077
 2408SOL    MW4 9664   0.022   1.149   4.157
 2409SOL     OW 9665   0.244   1.270   4.253
 2409SOL    HW2 9666   0.229   1.268   4.347
 2409SOL    HW3 9667   0.320   1.213   4.240
 2409SOL    MW4 9668   0.252   1.262   4.264
 2410SOL     OW 9669   0.434   1.841   4.698
 2410SOL    HW2 9670   0.432   1.935   4.683
 2410SOL    HW3 9671   0.406   1.803   4.615
 2410SOL    MW4 9672   0.430   1.848   4.685
 2411SOL     OW 9673   0.004   1.646   4.221
 2411SOL    HW2 9674  -0.066   1.592   4.185
 2411SOL    HW3 9675  -0.020   1.735   4.197
 2411SOL    MW4 9676  -0.009   1.651   4.213
 2412SOL     OW 9677   0.180   2.063   4.215
 2412SOL    HW2 9678   0.193   2.079   4.309
 2412SOL    HW3 9679   0.260   2.017   4.188
 2412SOL    MW4 9680   0.192   2.059   4.224
 2413SOL     OW 9681   0.430   1.441   4.620
 2413SOL    HW2 9682   0.409   1.522   4.573
 2413SOL    HW3 9683   0.393   1.453   4.707
 2413SOL    MW4 9684   0.422   1.453   4.625
 2414SOL     OW 9685   0.178   2.319   4.074
 2414SOL    HW2 9686   0.256   2.360   4.111
 2414SOL    HW3 9687   0.171   2.236   4.122
 2414SOL    MW4 9688   0.187   2.313   4.085
 2415SOL     OW 9689   0.011   2.436   4.295
 2415SOL    HW2 9690  -0.065   2.407   4.244
 2415SOL    HW3 9691   0.087   2.407   4.245
 2415SOL    MW4 9692   0.011   2.428   4.282
 2416SOL     OW 9693   0.000   2.692   4.172
 2416SOL    HW2 9694   0.084   2.733   4.193
 2416SOL    HW3 9695  -0.011   2.623   4.237
 2416SOL    MW4 9696   0.010   2.689   4.183
 2417SOL     OW 9697   0.206   2.881   4.228
 2417SOL    HW2 9698   0.284   2.835   4.195
 2417SOL    HW3 9699   0.215   2.970   4.194
 2417SOL    MW4 9700   0.218   2.886   4.219
 2418SOL     OW 9701   0.233   3.119   4.125
 2418SOL    HW2 9702   0.306   3.155   4.174
 2418SOL    HW3 9703   0.155   3.154   4.168
 2418SOL    MW4 9704   0.232   3.129   4.137
 2419SOL     OW 9705   0.005   3.227   4.243
 2419SOL    HW2 9706  -0.073   3.189   4.202
 2419SOL    HW3 9707  -0.005   3.321   4.229
 2419SOL    MW4 9708  -0.007   3.234   4.235
 2420SOL     OW 9709   0.008   3.496   4.158
 2420SOL    HW2 9710  -0.079   3.535   4.170
 2420SOL    HW3 9711   0.018   3.487   4.063
 2420SOL    MW4 9712  -0.002   3.500   4.147
 2421SOL     OW 9713   0.224   3.656   4.239
 2421SOL    HW2 9714   0.302   3.615   4.203
 2421SOL    HW3 9715   0.153   3.594   4.220
 2421SOL    MW4 9716   0.225   3.643   4.232
 2422SOL     OW 9717   0.236   3.896   4.102
 2422SOL    HW2 9718   0.170   3.944   4.151
 2422SOL    HW3 9719   0.238   3.809   4.143
 2422SOL    MW4 9720   0.228   3.891   4.114
 2423SOL     OW 9721   0.033   4.042   4.234
 2423SOL    HW2 9722   0.045   4.023   4.327
 2423SOL    HW3 9723  -0.043   3.989   4.208
 2423SOL    MW4 9724   0.024   4.032   4.243
 2424SOL     OW 9725   0.026   4.294   4.143
 2424SOL    HW2 9726   0.014   4.206   4.178
 2424SOL    HW3 9727   0.024   4.283   4.048
 2424SOL    MW4 9728   0.024   4.281   4.135
 2425SOL     OW 9729   0.283   4.376   4.244
 2425SOL    HW2 9730   0.244   4.424   4.317
 2425SOL    HW3 9731   0.209   4.333   4.201
 2425SOL    MW4 9732   0.268   4.377   4.248
 2426SOL     OW 9733   0.710   4.661   4.125
 2426SOL    HW2 9734   0.624   4.694   4.151
 2426SOL    HW3 9735   0.710   4.666   4.029
 2426SOL    MW4 9736   0.699   4.666   4.116
 2427SOL     OW 9737   0.475   0.066   4.238
 2427SOL    HW2 9738   0.463   0.052   4.332
 2427SOL    HW3 9739   0.474   0.161   4.228
 2427SOL    MW4 9740   0.473   0.076   4.249
 2428SOL     OW 9741   0.461   0.351   4.163
 2428SOL    HW2 9742   0.540   0.405   4.170
 2428SOL    HW3 9743   0.446   0.341   4.069
 2428SOL    MW4 9744   0.469   0.357   4.152
 2429SOL     OW 9745   0.673   0.505   4.253
 2429SOL    HW2 9746   0.750   0.458   4.222
 2429SOL    HW3 9747   0.694   0.597   4.240
 2429SOL    MW4 9748   0.686   0.511   4.247
 2430SOL     OW 9749   0.689   0.771   4.168
 2430SOL    HW2 9750   0.604   0.793   4.208
 2430SOL    HW3 9751   0.669   0.759   4.075
 2430SOL    MW4 9752   0.675   0.773   4.161
 2431SOL     OW 9753   0.413   0.853   4.257
 2431SOL    HW2 9754   0.438   0.943   4.235
 2431SOL    HW3 9755   0.347   0.829   4.192
 2431SOL    MW4 9756   0.408   0.862   4.246
 2432SOL     OW 9757   0.457   1.106   4.181
 2432SOL    HW2 9758   0.531   1.162   4.204
 2432SOL    HW3 9759   0.448   1.116   4.086
 2432SOL    MW4 9760   0.466   1.114   4.171
 2433SOL     OW 9761   0.646   1.286   4.267
 2433SOL    HW2 9762   0.654   1.311   4.359
 2433SOL    HW3 9763   0.663   1.366   4.218
 2433SOL    MW4 9764   0.649   1.300   4.273
 2434SOL     OW 9765   0.698   1.533   4.140
 2434SOL    HW2 9766   0.781   1.572   4.167
 2434SOL    HW3 9767   0.703   1.530   4.045
 2434SOL    MW4 9768   0.710   1.537   4.131
 2435SOL     OW 9769   0.240   1.538   4.155
 2435SOL    HW2 9770   0.251   1.454   4.200
 2435SOL    HW3 9771   0.157   1.572   4.189
 2435SOL    MW4 9772   0.230   1.532   4.165
 2436SOL     OW 9773   0.404   1.950   4.117
 2436SOL    HW2 9774   0.425   1.859   4.139
 2436SOL    HW3 9775   0.392   1.951   4.022
 2436SOL    MW4 9776   0.405   1.938   4.108
 2437SOL     OW 9777   0.642   2.077   4.220
 2437SOL    HW2 9778   0.631   2.086   4.315
 2437SOL    HW3 9779   0.568   2.023   4.192
 2437SOL    MW4 9780   0.631   2.071   4.229
 2438SOL     OW 9781   0.576   2.339   4.115
 2438SOL    HW2 9782   0.586   2.247   4.138
 2438SOL    HW3 9783   0.589   2.342   4.021
 2438SOL    MW4 9784   0.579   2.327   4.106
 2439SOL     OW 9785   0.363   2.475   4.230
 2439SOL    HW2 9786   0.364   2.557   4.180
 2439SOL    HW3 9787   0.430   2.421   4.188
 2439SOL    MW4 9788   0.372   2.479   4.218
 2440SOL     OW 9789   0.391   2.714   4.125
 2440SOL    HW2 9790   0.481   2.736   4.150
 2440SOL    HW3 9791   0.392   2.713   4.029
 2440SOL    MW4 9792   0.403   2.717   4.116
 2441SOL     OW 9793   0.658   2.811   4.191
 2441SOL    HW2 9794   0.702   2.819   4.276
 2441SOL    HW3 9795   0.650   2.902   4.160
 2441SOL    MW4 9796   0.662   2.824   4.198
 2442SOL     OW 9797   0.649   3.080   4.111
 2442SOL    HW2 9798   0.731   3.123   4.136
 2442SOL    HW3 9799   0.582   3.122   4.165
 2442SOL    MW4 9800   0.651   3.091   4.122
 2443SOL     OW 9801   0.456   3.226   4.239
 2443SOL    HW2 9802   0.468   3.234   4.334
 2443SOL    HW3 9803   0.436   3.314   4.210
 2443SOL    MW4 9804   0.455   3.238   4.248
 2444SOL     OW 9805   0.458   3.510   4.133
 2444SOL    HW2 9806   0.549   3.537   4.142
 2444SOL    HW3 9807   0.443   3.507   4.038
 2444SOL    MW4 9808   0.468   3.513   4.121
 2445SOL     OW 9809   0.688   3.641   4.196
 2445SOL    HW2 9810   0.675   3.651   4.290
 2445SOL    HW3 9811   0.772   3.594   4.189
 2445SOL    MW4 9812   0.698   3.636   4.208
 2446SOL     OW 9813   0.740   3.901   4.129
 2446SOL    HW2 9814   0.650   3.922   4.152
 2446SOL    HW3 9815   0.746   3.806   4.141
 2446SOL    MW4 9816   0.729   3.891   4.134
 2447SOL     OW 9817   0.496   3.980   4.198
 2447SOL    HW2 9818   0.492   4.073   4.176
 2447SOL    HW3 9819   0.409   3.946   4.177
 2447SOL    MW4 9820   0.484   3.988   4.192
 2448SOL     OW 9821   0.496   4.246   4.127
 2448SOL    HW2 9822   0.427   4.288   4.178
 2448SOL    HW3 9823   0.470   4.260   4.036
 2448SOL    MW4 9824   0.484   4.253   4.122
 2449SOL     OW 9825   0.696   4.396   4.226
 2449SOL    HW2 9826   0.628   4.347   4.180
 2449SOL    HW3 9827   0.714   4.471   4.169
 2449SOL    MW4 9828   0.689   4.399   4.213
 2450SOL     OW 9829   1.086   4.631   4.159
 2450SOL    HW2 9830   1.120   4.546   4.184
 2450SOL    HW3 9831   1.096   4.635   4.064
 2450SOL    MW4 9832   1.091   4.621   4.150
 2451SOL     OW 9833   0.890   0.100   4.298
 2451SOL    HW2 9834   0.955   0.048   4.251
 2451SOL    HW3 9835   0.806   0.075   4.260
 2451SOL    MW4 9836   0.888   0.090   4.287
 2452SOL     OW 9837   0.889   0.356   4.168
 2452SOL    HW2 9838   0.967   0.411   4.174
 2452SOL    HW3 9839   0.912   0.276   4.216
 2452SOL    MW4 9840   0.902   0.353   4.175
 2453SOL     OW 9841   1.120   0.495   4.218
 2453SOL    HW2 9842   1.090   0.483   4.308
 2453SOL    HW3 9843   1.179   0.421   4.201
 2453SOL    MW4 9844   1.124   0.484   4.227
 2454SOL     OW 9845   1.117   0.757   4.109
 2454SOL    HW2 9846   1.207   0.786   4.126
 2454SOL    HW3 9847   1.116   0.665   4.135
 2454SOL    MW4 9848   1.129   0.749   4.115
 2455SOL     OW 9849   0.918   0.907   4.263
 2455SOL    HW2 9850   0.982   0.856   4.214
 2455SOL    HW3 9851   0.834   0.864   4.243
 2455SOL    MW4 9852   0.915   0.894   4.254
 2456SOL     OW 9853   0.867   1.164   4.156
 2456SOL    HW2 9854   0.885   1.084   4.205
 2456SOL    HW3 9855   0.789   1.200   4.197
 2456SOL    MW4 9856   0.859   1.158   4.168
 2457SOL     OW 9857   1.123   1.271   4.193
 2457SOL    HW2 9858   1.153   1.246   4.280
 2457SOL    HW3 9859   1.031   1.245   4.191
 2457SOL    MW4 9860   1.115   1.264   4.204
 2458SOL     OW 9861   1.152   1.532   4.114
 2458SOL    HW2 9862   1.088   1.578   4.168
 2458SOL    HW3 9863   1.137   1.439   4.132
 2458SOL    MW4 9864   1.142   1.526   4.123
 2459SOL     OW 9865   0.930   1.651   4.240
 2459SOL    HW2 9866   0.908   1.650   4.333
 2459SOL    HW3 9867   0.893   1.733   4.208
 2459SOL    MW4 9868   0.922   1.662   4.248
 2460SOL     OW 9869   0.849   1.895   4.146
 2460SOL    HW2 9870   0.778   1.950   4.177
 2460SOL    HW3 9871   0.846   1.903   4.050
 2460SOL    MW4 9872   0.839   1.903   4.137
 2461SOL     OW 9873   1.109   1.986   4.203
 2461SOL    HW2 9874   1.109   1.982   4.299
 2461SOL    HW3 9875   1.021   1.960   4.178
 2461SOL    MW4 9876   1.097   1.982   4.212
 2462SOL     OW 9877   1.077   2.277   4.127
 2462SOL    HW2 9878   1.157   2.305   4.171
 2462SOL    HW3 9879   1.067   2.185   4.151
 2462SOL    MW4 9880   1.086   2.269   4.136
 2463SOL     OW 9881   0.843   2.394   4.223
 2463SOL    HW2 9882   0.906   2.345   4.170
 2463SOL    HW3 9883   0.758   2.355   4.201
 2463SOL    MW4 9884   0.840   2.383   4.213
 2464SOL     OW 9885   0.879   2.650   4.131
 2464SOL    HW2 9886   0.857   2.566   4.170
 2464SOL    HW3 9887   0.803   2.706   4.147
 2464SOL    MW4 9888   0.866   2.646   4.138
 2465SOL     OW 9889   1.083   2.836   4.258
 2465SOL    HW2 9890   1.082   2.923   4.216
 2465SOL    HW3 9891   1.019   2.785   4.207
 2465SOL    MW4 9892   1.074   2.841   4.246
 2466SOL     OW 9893   1.108   3.091   4.151
 2466SOL    HW2 9894   1.178   3.146   4.186
 2466SOL    HW3 9895   1.117   3.097   4.056
 2466SOL    MW4 9896   1.118   3.099   4.143
 2467SOL     OW 9897   0.871   3.202   4.190
 2467SOL    HW2 9898   0.848   3.198   4.282
 2467SOL    HW3 9899   0.951   3.151   4.182
 2467SOL    MW4 9900   0.878   3.195   4.201
 2468SOL     OW 9901   0.905   3.493   4.174
 2468SOL    HW2 9902   0.900   3.398   4.185
 2468SOL    HW3 9903   0.895   3.506   4.080
 2468SOL    MW4 9904   0.903   3.482   4.163
 2469SOL     OW 9905   1.141   3.629   4.261
 2469SOL    HW2 9906   1.131   3.707   4.208
 2469SOL    HW3 9907   1.061   3.579   4.246
 2469SOL    MW4 9908   1.129   3.632   4.252
 2470SOL     OW 9909   1.124   3.886   4.167
 2470SOL    HW2 9910   1.202   3.903   4.219
 2470SOL    HW3 9911   1.052   3.922   4.218
 2470SOL    MW4 9912   1.125   3.893   4.181
 2471SOL     OW 9913   0.904   4.005   4.308
 2471SOL    HW2 9914   0.907   4.091   4.266
 2471SOL    HW3 9915   0.838   3.956   4.259
 2471SOL    MW4 9916   0.896   4.010   4.296
 2472SOL     OW 9917   0.926   4.256   4.143
 2472SOL    HW2 9918   1.006   4.294   4.178
 2472SOL    HW3 9919   0.856   4.293   4.196
 2472SOL    MW4 9920   0.927   4.266   4.154
 2473SOL     OW 9921   1.149   4.376   4.272
 2473SOL    HW2 9922   1.167   4.425   4.352
 2473SOL    HW3 9923   1.231   4.330   4.253
 2473SOL    MW4 9924   1.163   4.376   4.280
 2474SOL     OW 9925   1.566   4.626   4.151
 2474SOL    HW2 9926   1.627   4.681   4.200
 2474SOL    HW3 9927   1.480   4.666   4.165
 2474SOL    MW4 9928   1.563   4.638   4.159
 2475SOL     OW 9929   1.328   0.092   4.218
 2475SOL    HW2 9930   1.311   0.110   4.310
 2475SOL    HW3 9931   1.243   0.063   4.184
 2475SOL    MW4 9932   1.314   0.090   4.226
 2476SOL     OW 9933   1.341   0.354   4.094
 2476SOL    HW2 9934   1.393   0.416   4.145
 2476SOL    HW3 9935   1.365   0.268   4.129
 2476SOL    MW4 9936   1.351   0.350   4.105
 2477SOL     OW 9937   1.518   0.502   4.230
 2477SOL    HW2 9938   1.520   0.521   4.324
 2477SOL    HW3 9939   1.525   0.587   4.188
 2477SOL    MW4 9940   1.519   0.516   4.237
 2478SOL     OW 9941   1.596   0.740   4.078
 2478SOL    HW2 9942   1.655   0.794   4.129
 2478SOL    HW3 9943   1.612   0.767   3.987
 2478SOL    MW4 9944   1.606   0.751   4.072
 2479SOL     OW 9945   1.352   0.859   4.183
 2479SOL    HW2 9946   1.330   0.942   4.141
 2479SOL    HW3 9947   1.429   0.828   4.136
 2479SOL    MW4 9948   1.359   0.866   4.172
 2480SOL     OW 9949   1.331   1.111   4.077
 2480SOL    HW2 9950   1.262   1.161   4.121
 2480SOL    HW3 9951   1.318   1.129   3.984
 2480SOL    MW4 9952   1.320   1.120   4.071
 2481SOL     OW 9953   1.549   1.236   4.214
 2481SOL    HW2 9954   1.531   1.241   4.308
 2481SOL    HW3 9955   1.472   1.193   4.178
 2481SOL    MW4 9956   1.536   1.231   4.222
 2482SOL     OW 9957   1.582   1.507   4.124
 2482SOL    HW2 9958   1.496   1.524   4.165
 2482SOL    HW3 9959   1.593   1.412   4.132
 2482SOL    MW4 9960   1.572   1.496   4.131
 2483SOL     OW 9961   1.366   1.619   4.248
 2483SOL    HW2 9962   1.363   1.712   4.225
 2483SOL    HW3 9963   1.285   1.583   4.213
 2483SOL    MW4 9964   1.355   1.627   4.240
 2484SOL     OW 9965   1.347   1.871   4.127
 2484SOL    HW2 9966   1.410   1.937   4.157
 2484SOL    HW3 9967   1.264   1.899   4.165
 2484SOL    MW4 9968   1.344   1.884   4.136
 2485SOL     OW 9969   1.531   2.057   4.254
 2485SOL    HW2 9970   1.609   2.025   4.209
 2485SOL    HW3 9971   1.529   2.151   4.235
 2485SOL    MW4 9972   1.541   2.065   4.246
 2486SOL     OW 9973   1.521   2.321   4.139
 2486SOL    HW2 9974   1.593   2.374   4.174
 2486SOL    HW3 9975   1.518   2.343   4.046
 2486SOL    MW4 9976   1.530   2.331   4.131
 2487SOL     OW 9977   1.568   2.809   4.258
 2487SOL    HW2 9978   1.601   2.784   4.345
 2487SOL    HW3 9979   1.645   2.805   4.201
 2487SOL    MW4 9980   1.583   2.805   4.262
 2488SOL     OW 9981   1.305   2.678   4.185
 2488SOL    HW2 9982   1.382   2.719   4.225
 2488SOL    HW3 9983   1.233   2.735   4.210
 2488SOL    MW4 9984   1.306   2.691   4.194
 2489SOL     OW 9985   1.557   2.317   4.668
 2489SOL    HW2 9986   1.581   2.376   4.740
 2489SOL    HW3 9987   1.641   2.288   4.633
 2489SOL    MW4 9988   1.572   2.321   4.673
 2490SOL     OW 9989   1.558   3.089   4.223
 2490SOL    HW2 9990   1.632   3.125   4.272
 2490SOL    HW3 9991   1.562   2.995   4.240
 2490SOL    MW4 9992   1.568   3.082   4.232
 2491SOL     OW 9993   1.313   3.220   4.305
 2491SOL    HW2 9994   1.391   3.173   4.274
 2491SOL    HW3 9995   1.327   3.310   4.277
 2491SOL    MW4 9996   1.325   3.226   4.297
 2492SOL     OW 9997   1.370   3.468   4.192
 2492SOL    HW2 9998   1.298   3.525   4.219
 2492SOL    HW3 9999   1.366   3.468   4.096
 2492SOL    MW410000   1.360   3.475   4.183
 2493SOL     OW10001   1.619   3.598   4.217
 2493SOL    HW210002   1.623   3.629   4.308
 2493SOL    HW310003   1.532   3.559   4.209
 2493SOL    MW410004   1.608   3.597   4.228
 2494SOL     OW10005   1.561   3.851   4.090
 2494SOL    HW210006   1.503   3.893   4.153
 2494SOL    HW310007   1.590   3.770   4.133
 2494SOL    MW410008   1.557   3.845   4.104
 2495SOL     OW10009   1.377   3.978   4.267
 2495SOL    HW210010   1.411   3.947   4.351
 2495SOL    HW310011   1.380   4.073   4.273
 2495SOL    MW410012   1.382   3.986   4.279
 2496SOL     OW10013   1.372   4.257   4.190
 2496SOL    HW210014   1.465   4.279   4.193
 2496SOL    HW310015   1.355   4.239   4.097
 2496SOL    MW410016   1.382   4.257   4.178
 2497SOL     OW10017   1.619   4.365   4.226
 2497SOL    HW210018   1.616   4.461   4.216
 2497SOL    HW310019   1.702   4.340   4.185
 2497SOL    MW410020   1.630   4.375   4.219
 2498SOL     OW10021   1.981   4.663   4.142
 2498SOL    HW210022   1.896   4.691   4.177
 2498SOL    HW310023   1.970   4.662   4.047
 2498SOL    MW410024   1.968   4.666   4.134
 2499SOL     OW10025   1.757   0.110   4.276
 2499SOL    HW210026   1.787   0.129   4.364
 2499SOL    HW310027   1.752   0.196   4.234
 2499SOL    MW410028   1.760   0.124   4.282
 2500SOL     OW10029   1.753   0.357   4.145
 2500SOL    HW210030   1.828   0.395   4.191
 2500SOL    HW310031   1.677   0.406   4.178
 2500SOL    MW410032   1.753   0.368   4.155
 2501SOL     OW10033   1.975   0.486   4.277
 2501SOL    HW210034   1.972   0.457   4.368
 2501SOL    HW310035   2.050   0.440   4.239
 2501SOL    MW410036   1.984   0.476   4.284
 2502SOL     OW10037   2.035   0.722   4.134
 2502SOL    HW210038   2.103   0.784   4.161
 2502SOL    HW310039   2.035   0.655   4.202
 2502SOL    MW410040   2.044   0.722   4.147
 2503SOL     OW10041   1.809   0.855   4.208
 2503SOL    HW210042   1.828   0.941   4.172
 2503SOL    HW310043   1.884   0.801   4.184
 2503SOL    MW410044   1.821   0.859   4.200
 2504SOL     OW10045   1.793   1.138   4.122
 2504SOL    HW210046   1.866   1.188   4.157
 2504SOL    HW310047   1.716   1.172   4.169
 2504SOL    MW410048   1.792   1.149   4.133
 2505SOL     OW10049   2.005   1.291   4.221
 2505SOL    HW210050   2.079   1.235   4.196
 2505SOL    HW310051   2.027   1.377   4.184
 2505SOL    MW410052   2.018   1.295   4.212
 2506SOL     OW10053   2.047   1.546   4.139
 2506SOL    HW210054   2.122   1.590   4.177
 2506SOL    HW310055   2.058   1.557   4.044
 2506SOL    MW410056   2.058   1.553   4.131
 2507SOL     OW10057   1.793   1.678   4.183
 2507SOL    HW210058   1.879   1.637   4.167
 2507SOL    HW310059   1.731   1.606   4.176
 2507SOL    MW410060   1.796   1.663   4.180
 2508SOL     OW10061   1.750   1.936   4.129
 2508SOL    HW210062   1.756   1.841   4.139
 2508SOL    HW310063   1.832   1.969   4.165
 2508SOL    MW410064   1.761   1.928   4.135
 2509SOL     OW10065   1.731   2.475   4.240
 2509SOL    HW210066   1.688   2.531   4.305
 2509SOL    HW310067   1.825   2.486   4.258
 2509SOL    MW410068   1.738   2.484   4.251
 2510SOL     OW10069   2.331   2.245   4.086
 2510SOL    HW210070   2.404   2.230   4.146
 2510SOL    HW310071   2.373   2.263   4.001
 2510SOL    MW410072   2.347   2.246   4.082
 2511SOL     OW10073   1.826   2.948   4.410
 2511SOL    HW210074   1.868   2.980   4.330
 2511SOL    HW310075   1.897   2.944   4.474
 2511SOL    MW410076   1.841   2.951   4.408
 2512SOL     OW10077   1.791   2.810   4.091
 2512SOL    HW210078   1.848   2.742   4.126
 2512SOL    HW310079   1.835   2.892   4.112
 2512SOL    MW410080   1.804   2.812   4.099
 2513SOL     OW10081   2.087   3.166   4.375
 2513SOL    HW210082   2.093   3.094   4.438
 2513SOL    HW310083   2.052   3.124   4.296
 2513SOL    MW410084   2.084   3.151   4.373
 2514SOL     OW10085   2.195   2.854   4.152
 2514SOL    HW210086   2.289   2.869   4.162
 2514SOL    HW310087   2.166   2.822   4.238
 2514SOL    MW410088   2.203   2.852   4.164
 2515SOL     OW10089   1.790   3.255   4.350
 2515SOL    HW210090   1.802   3.314   4.275
 2515SOL    HW310091   1.879   3.233   4.378
 2515SOL    MW410092   1.803   3.260   4.343
 2516SOL     OW10093   1.831   3.437   4.134
 2516SOL    HW210094   1.756   3.487   4.167
 2516SOL    HW310095   1.822   3.441   4.039
 2516SOL    MW410096   1.820   3.444   4.126
 2517SOL     OW10097   2.017   3.581   4.268
 2517SOL    HW210098   2.012   3.676   4.256
 2517SOL    HW310099   1.943   3.546   4.219
 2517SOL    MW410100   2.007   3.589   4.260
 2518SOL     OW10101   2.008   3.863   4.187
 2518SOL    HW210102   1.921   3.904   4.190
 2518SOL    HW310103   2.022   3.845   4.094
 2518SOL    MW410104   1.998   3.866   4.175
 2519SOL     OW10105   1.775   4.012   4.186
 2519SOL    HW210106   1.804   4.086   4.134
 2519SOL    HW310107   1.719   3.962   4.127
 2519SOL    MW410108   1.771   4.015   4.172
 2520SOL     OW10109   1.841   4.277   4.113
 2520SOL    HW210110   1.923   4.310   4.151
 2520SOL    HW310111   1.852   4.289   4.019
 2520SOL    MW410112   1.853   4.283   4.106
 2521SOL     OW10113   2.069   4.424   4.236
 2521SOL    HW210114   2.044   4.415   4.328
 2521SOL    HW310115   2.050   4.516   4.216
 2521SOL    MW410116   2.063   4.435   4.246
 2522SOL     OW10117   2.430   4.590   4.151
 2522SOL    HW210118   2.512   4.615   4.194
 2522SOL    HW310119   2.415   4.500   4.179
 2522SOL    MW410120   2.439   4.582   4.160
 2523SOL     OW10121   2.226   0.118   4.231
 2523SOL    HW210122   2.282   0.043   4.209
 2523SOL    HW310123   2.137   0.086   4.219
 2523SOL    MW410124   2.222   0.104   4.227
 2524SOL     OW10125   2.189   0.390   4.138
 2524SOL    HW210126   2.212   0.299   4.160
 2524SOL    HW310127   2.183   0.390   4.042
 2524SOL    MW410128   2.191   0.378   4.128
 2525SOL     OW10129   2.430   0.470   4.222
 2525SOL    HW210130   2.411   0.476   4.316
 2525SOL    HW310131   2.345   0.450   4.182
 2525SOL    MW410132   2.416   0.468   4.229
 2526SOL     OW10133   2.433   0.741   4.174
 2526SOL    HW210134   2.451   0.648   4.191
 2526SOL    HW310135   2.429   0.747   4.079
 2526SOL    MW410136   2.435   0.730   4.164
 2527SOL     OW10137   2.213   0.902   4.262
 2527SOL    HW210138   2.198   0.913   4.356
 2527SOL    HW310139   2.281   0.835   4.256
 2527SOL    MW410140   2.220   0.895   4.274
 2528SOL     OW10141   2.264   1.150   4.158
 2528SOL    HW210142   2.341   1.189   4.199
 2528SOL    HW310143   2.265   1.059   4.188
 2528SOL    MW410144   2.274   1.143   4.168
 2529SOL     OW10145   2.482   1.289   4.263
 2529SOL    HW210146   2.519   1.301   4.350
 2529SOL    HW310147   2.546   1.235   4.216
 2529SOL    MW410148   2.495   1.284   4.268
 2530SOL     OW10149   2.460   1.573   4.160
 2530SOL    HW210150   2.466   1.486   4.200
 2530SOL    HW310151   2.454   1.557   4.066
 2530SOL    MW410152   2.460   1.560   4.153
 2531SOL     OW10153   2.238   1.710   4.241
 2531SOL    HW210154   2.321   1.671   4.211
 2531SOL    HW310155   2.234   1.795   4.197
 2531SOL    MW410156   2.248   1.716   4.231
 2532SOL     OW10157   2.213   1.975   4.167
 2532SOL    HW210158   2.251   2.061   4.153
 2532SOL    HW310159   2.134   1.991   4.219
 2532SOL    MW410160   2.207   1.988   4.172
 2533SOL     OW10161   2.533   2.166   4.286
 2533SOL    HW210162   2.501   2.115   4.361
 2533SOL    HW310163   2.605   2.114   4.251
 2533SOL    MW410164   2.538   2.153   4.291
 2534SOL     OW10165   2.745   2.525   4.265
 2534SOL    HW210166   2.694   2.448   4.292
 2534SOL    HW310167   2.777   2.562   4.347
 2534SOL    MW410168   2.742   2.520   4.279
 2535SOL     OW10169   2.397   2.461   4.603
 2535SOL    HW210170   2.374   2.480   4.512
 2535SOL    HW310171   2.371   2.539   4.651
 2535SOL    MW410172   2.391   2.474   4.597
 2536SOL     OW10173   1.979   2.641   4.248
 2536SOL    HW210174   2.027   2.682   4.320
 2536SOL    HW310175   2.034   2.567   4.221
 2536SOL    MW410176   1.993   2.637   4.254
 2537SOL     OW10177   2.474   2.776   4.467
 2537SOL    HW210178   2.438   2.729   4.392
 2537SOL    HW310179   2.398   2.812   4.513
 2537SOL    MW410180   2.459   2.775   4.463
 2538SOL     OW10181   2.547   3.150   4.140
 2538SOL    HW210182   2.476   3.188   4.190
 2538SOL    HW310183   2.627   3.184   4.181
 2538SOL    MW410184   2.548   3.159   4.152
 2539SOL     OW10185   1.974   3.026   4.161
 2539SOL    HW210186   1.977   3.083   4.085
 2539SOL    HW310187   2.048   2.966   4.149
 2539SOL    MW410188   1.984   3.025   4.150
 2540SOL     OW10189   2.247   3.448   4.169
 2540SOL    HW210190   2.273   3.375   4.225
 2540SOL    HW310191   2.180   3.495   4.220
 2540SOL    MW410192   2.241   3.445   4.183
 2541SOL     OW10193   2.494   3.580   4.195
 2541SOL    HW210194   2.415   3.528   4.180
 2541SOL    HW310195   2.469   3.669   4.170
 2541SOL    MW410196   2.481   3.585   4.190
 2542SOL     OW10197   2.432   3.842   4.156
 2542SOL    HW210198   2.510   3.890   4.184
 2542SOL    HW310199   2.429   3.855   4.061
 2542SOL    MW410200   2.442   3.850   4.147
 2543SOL     OW10201   2.228   3.982   4.313
 2543SOL    HW210202   2.299   3.936   4.269
 2543SOL    HW310203   2.148   3.944   4.276
 2543SOL    MW410204   2.227   3.971   4.302
 2544SOL     OW10205   2.206   4.218   4.135
 2544SOL    HW210206   2.202   4.147   4.199
 2544SOL    HW310207   2.158   4.290   4.177
 2544SOL    MW410208   2.200   4.218   4.149
 2545SOL     OW10209   2.416   4.353   4.258
 2545SOL    HW210210   2.488   4.297   4.227
 2545SOL    HW310211   2.337   4.313   4.221
 2545SOL    MW410212   2.415   4.340   4.249
 2546SOL     OW10213   2.911   4.634   4.139
 2546SOL    HW210214   2.970   4.675   4.202
 2546SOL    HW310215   2.905   4.543   4.166
 2546SOL    MW410216   2.918   4.627   4.151
 2547SOL     OW10217   2.668   0.047   4.249
 2547SOL    HW210218   2.649   0.131   4.208
 2547SOL    HW310219   2.749   0.018   4.208
 2547SOL    MW410220   2.676   0.054   4.238
 2548SOL     OW10221   2.656   0.321   4.154
 2548SOL    HW210222   2.568   0.358   4.164
 2548SOL    HW310223   2.684   0.349   4.067
 2548SOL    MW410224   2.648   0.330   4.144
 2549SOL     OW10225   3.258   0.760   4.092
 2549SOL    HW210226   3.296   0.725   4.174
 2549SOL    HW310227   3.169   0.785   4.116
 2549SOL    MW410228   3.251   0.758   4.106
 2550SOL     OW10229   2.972   0.802   4.149
 2550SOL    HW210230   3.008   0.891   4.155
 2550SOL    HW310231   2.937   0.796   4.060
 2550SOL    MW410232   2.972   0.813   4.138
 2551SOL     OW10233   2.618   0.910   4.279
 2551SOL    HW210234   2.686   0.861   4.326
 2551SOL    HW310235   2.563   0.843   4.239
 2551SOL    MW410236   2.620   0.895   4.280
 2552SOL     OW10237   2.682   1.145   4.101
 2552SOL    HW210238   2.667   1.057   4.135
 2552SOL    HW310239   2.669   1.136   4.006
 2552SOL    MW410240   2.678   1.132   4.093
 2553SOL     OW10241   2.921   1.290   4.239
 2553SOL    HW210242   2.985   1.224   4.212
 2553SOL    HW310243   2.837   1.258   4.205
 2553SOL    MW410244   2.918   1.277   4.231
 2554SOL     OW10245   2.900   1.562   4.165
 2554SOL    HW210246   2.980   1.607   4.191
 2554SOL    HW310247   2.909   1.474   4.201
 2554SOL    MW410248   2.911   1.556   4.173
 2555SOL     OW10249   2.689   1.712   4.259
 2555SOL    HW210250   2.760   1.659   4.224
 2555SOL    HW310251   2.610   1.678   4.216
 2555SOL    MW410252   2.688   1.700   4.249
 2556SOL     OW10253   2.710   1.973   4.166
 2556SOL    HW210254   2.682   1.888   4.200
 2556SOL    HW310255   2.710   1.962   4.071
 2556SOL    MW410256   2.706   1.960   4.158
 2557SOL     OW10257   2.925   2.106   4.286
 2557SOL    HW210258   2.924   2.193   4.248
 2557SOL    HW310259   2.844   2.065   4.255
 2557SOL    MW410260   2.915   2.112   4.277
 2558SOL     OW10261   2.952   2.361   4.177
 2558SOL    HW210262   3.027   2.415   4.203
 2558SOL    HW310263   2.875   2.412   4.204
 2558SOL    MW410264   2.952   2.375   4.184
 2559SOL     OW10265   2.691   2.736   4.096
 2559SOL    HW210266   2.617   2.780   4.137
 2559SOL    HW310267   2.712   2.664   4.155
 2559SOL    MW410268   2.684   2.733   4.109
 2560SOL     OW10269   2.487   2.886   4.208
 2560SOL    HW210270   2.490   2.888   4.304
 2560SOL    HW310271   2.524   2.970   4.181
 2560SOL    MW410272   2.492   2.898   4.217
 2561SOL     OW10273   2.883   2.972   4.123
 2561SOL    HW210274   2.820   2.901   4.110
 2561SOL    HW310275   2.876   3.025   4.043
 2561SOL    MW410276   2.874   2.969   4.111
 2562SOL     OW10277   2.959   3.117   4.351
 2562SOL    HW210278   2.961   3.060   4.427
 2562SOL    HW310279   2.930   3.061   4.279
 2562SOL    MW410280   2.955   3.102   4.352
 2563SOL     OW10281   2.728   3.253   4.308
 2563SOL    HW210282   2.696   3.299   4.386
 2563SOL    HW310283   2.808   3.208   4.338
 2563SOL    MW410284   2.735   3.253   4.322
 2564SOL     OW10285   2.734   3.465   4.126
 2564SOL    HW210286   2.745   3.391   4.187
 2564SOL    HW310287   2.647   3.499   4.146
 2564SOL    MW410288   2.724   3.460   4.137
 2565SOL     OW10289   2.904   3.634   4.259
 2565SOL    HW210290   2.901   3.617   4.353
 2565SOL    HW310291   2.850   3.565   4.221
 2565SOL    MW410292   2.897   3.623   4.267
 2566SOL     OW10293   2.894   3.898   4.125
 2566SOL    HW210294   2.967   3.947   4.164
 2566SOL    HW310295   2.914   3.806   4.141
 2566SOL    MW410296   2.906   3.893   4.132
 2567SOL     OW10297   2.650   3.982   4.242
 2567SOL    HW210298   2.665   4.075   4.224
 2567SOL    HW310299   2.732   3.940   4.219
 2567SOL    MW410300   2.663   3.989   4.237
 2568SOL     OW10301   2.660   4.246   4.146
 2568SOL    HW210302   2.731   4.296   4.185
 2568SOL    HW310303   2.681   4.243   4.053
 2568SOL    MW410304   2.672   4.252   4.139
 2569SOL     OW10305   2.891   4.375   4.222
 2569SOL    HW210306   2.930   4.381   4.309
 2569SOL    HW310307   2.962   4.343   4.166
 2569SOL    MW410308   2.906   4.371   4.226
 2570SOL     OW10309   3.361   4.626   4.159
 2570SOL    HW210310   3.446   4.667   4.174
 2570SOL    HW310311   3.367   4.541   4.203
 2570SOL    MW410312   3.373   4.620   4.167
 2571SOL     OW10313   3.138   0.106   4.238
 2571SOL    HW210314   3.148   0.123   4.332
 2571SOL    HW310315   3.213   0.051   4.215
 2571SOL    MW410316   3.149   0.101   4.247
 2572SOL     OW10317   3.152   0.376   4.176
 2572SOL    HW210318   3.132   0.283   4.188
 2572SOL    HW310319   3.108   0.420   4.249
 2572SOL    MW410320   3.144   0.369   4.187
 2573SOL     OW10321   3.387   0.355   4.290
 2573SOL    HW210322   3.449   0.356   4.217
 2573SOL    HW310323   3.301   0.355   4.248
 2573SOL    MW410324   3.384   0.355   4.275
 2574SOL     OW10325   3.383   0.641   4.321
 2574SOL    HW210326   3.323   0.650   4.395
 2574SOL    HW310327   3.392   0.546   4.309
 2574SOL    MW410328   3.377   0.629   4.329
 2575SOL     OW10329   3.202   0.653   4.533
 2575SOL    HW210330   3.208   0.619   4.622
 2575SOL    HW310331   3.129   0.606   4.494
 2575SOL    MW410332   3.193   0.642   4.539
 2576SOL     OW10333   3.090   1.082   4.148
 2576SOL    HW210334   3.174   1.060   4.188
 2576SOL    HW310335   3.112   1.109   4.059
 2576SOL    MW410336   3.104   1.083   4.142
 2577SOL     OW10337   3.324   1.087   4.290
 2577SOL    HW210338   3.342   1.057   4.379
 2577SOL    HW310339   3.304   1.180   4.299
 2577SOL    MW410340   3.324   1.096   4.303
 2578SOL     OW10341   3.295   1.369   4.357
 2578SOL    HW210342   3.314   1.435   4.291
 2578SOL    HW310343   3.368   1.375   4.419
 2578SOL    MW410344   3.307   1.379   4.357
 2579SOL     OW10345   3.135   1.681   4.240
 2579SOL    HW210346   3.159   1.658   4.329
 2579SOL    HW310347   3.143   1.777   4.237
 2579SOL    MW410348   3.139   1.691   4.251
 2580SOL     OW10349   3.116   1.953   4.173
 2580SOL    HW210350   3.188   2.006   4.206
 2580SOL    HW310351   3.037   1.995   4.206
 2580SOL    MW410352   3.115   1.965   4.181
 2581SOL     OW10353   3.325   2.104   4.261
 2581SOL    HW210354   3.400   2.049   4.238
 2581SOL    HW310355   3.355   2.193   4.242
 2581SOL    MW410356   3.339   2.109   4.256
 2582SOL     OW10357   3.385   2.358   4.155
 2582SOL    HW210358   3.476   2.381   4.174
 2582SOL    HW310359   3.380   2.354   4.060
 2582SOL    MW410360   3.397   2.361   4.145
 2583SOL     OW10361   3.185   2.530   4.281
 2583SOL    HW210362   3.173   2.601   4.218
 2583SOL    HW310363   3.246   2.470   4.239
 2583SOL    MW410364   3.191   2.532   4.267
 2584SOL     OW10365   3.126   2.779   4.122
 2584SOL    HW210366   3.201   2.820   4.164
 2584SOL    HW310367   3.060   2.849   4.118
 2584SOL    MW410368   3.127   2.794   4.127
 2585SOL     OW10369   3.372   2.870   4.254
 2585SOL    HW210370   3.459   2.835   4.236
 2585SOL    HW310371   3.378   2.962   4.230
 2585SOL    MW410372   3.384   2.877   4.248
 2586SOL     OW10373   3.392   3.142   4.155
 2586SOL    HW210374   3.315   3.185   4.191
 2586SOL    HW310375   3.367   3.119   4.066
 2586SOL    MW410376   3.379   3.145   4.148
 2587SOL     OW10377   3.186   3.265   4.307
 2587SOL    HW210378   3.161   3.334   4.246
 2587SOL    HW310379   3.106   3.214   4.318
 2587SOL    MW410380   3.172   3.267   4.300
 2588SOL     OW10381   3.125   3.484   4.162
 2588SOL    HW210382   3.051   3.529   4.204
 2588SOL    HW310383   3.100   3.476   4.070
 2588SOL    MW410384   3.112   3.489   4.156
 2589SOL     OW10385   3.370   3.578   4.241
 2589SOL    HW210386   3.358   3.570   4.336
 2589SOL    HW310387   3.287   3.546   4.204
 2589SOL    MW410388   3.357   3.572   4.249
 2590SOL     OW10389   3.352   3.850   4.102
 2590SOL    HW210390   3.373   3.762   4.131
 2590SOL    HW310391   3.334   3.842   4.008
 2590SOL    MW410392   3.352   3.838   4.093
 2591SOL     OW10393   3.145   4.014   4.219
 2591SOL    HW210394   3.170   4.025   4.311
 2591SOL    HW310395   3.222   3.977   4.177
 2591SOL    MW410396   3.158   4.011   4.226
 2592SOL     OW10397   3.114   4.258   4.127
 2592SOL    HW210398   3.200   4.292   4.153
 2592SOL    HW310399   3.114   4.168   4.160
 2592SOL    MW410400   3.126   4.251   4.135
 2593SOL     OW10401   3.355   4.365   4.242
 2593SOL    HW210402   3.355   4.368   4.337
 2593SOL    HW310403   3.447   4.349   4.219
 2593SOL    MW410404   3.367   4.363   4.251
 2594SOL     OW10405   3.855   4.601   4.111
 2594SOL    HW210406   3.918   4.660   4.151
 2594SOL    HW310407   3.871   4.607   4.017
 2594SOL    MW410408   3.865   4.609   4.104
 2595SOL     OW10409   3.629   0.058   4.205
 2595SOL    HW210410   3.617   0.146   4.169
 2595SOL    HW310411   3.708   0.025   4.162
 2595SOL    MW410412   3.638   0.065   4.194
 2596SOL     OW10413   3.578   0.310   4.111
 2596SOL    HW210414   3.652   0.351   4.156
 2596SOL    HW310415   3.591   0.332   4.019
 2596SOL    MW410416   3.590   0.319   4.105
 2597SOL     OW10417   3.787   0.428   4.237
 2597SOL    HW210418   3.805   0.405   4.328
 2597SOL    HW310419   3.773   0.523   4.238
 2597SOL    MW410420   3.788   0.438   4.249
 2598SOL     OW10421   3.738   0.794   4.175
 2598SOL    HW210422   3.692   0.878   4.168
 2598SOL    HW310423   3.762   0.772   4.085
 2598SOL    MW410424   3.735   0.802   4.162
 2599SOL     OW10425   3.636   0.691   4.421
 2599SOL    HW210426   3.546   0.671   4.397
 2599SOL    HW310427   3.676   0.726   4.342
 2599SOL    MW410428   3.630   0.693   4.408
 2600SOL     OW10429   3.565   1.025   4.151
 2600SOL    HW210430   3.483   1.036   4.200
 2600SOL    HW310431   3.543   1.049   4.061
 2600SOL    MW410432   3.551   1.029   4.146
 2601SOL     OW10433   3.760   1.209   4.250
 2601SOL    HW210434   3.690   1.151   4.223
 2601SOL    HW310435   3.759   1.205   4.346
 2601SOL    MW410436   3.751   1.201   4.259
 2602SOL     OW10437   3.750   1.466   4.142
 2602SOL    HW210438   3.756   1.380   4.184
 2602SOL    HW310439   3.811   1.521   4.190
 2602SOL    MW410440   3.759   1.462   4.154
 2603SOL     OW10441   3.542   1.940   4.211
 2603SOL    HW210442   3.545   1.932   4.116
 2603SOL    HW310443   3.561   1.852   4.244
 2603SOL    MW410444   3.545   1.927   4.203
 2604SOL     OW10445   3.337   1.530   4.142
 2604SOL    HW210446   3.344   1.512   4.048
 2604SOL    HW310447   3.258   1.583   4.150
 2604SOL    MW410448   3.328   1.534   4.130
 2605SOL     OW10449   3.825   1.994   4.240
 2605SOL    HW210450   3.835   2.002   4.335
 2605SOL    HW310451   3.732   1.972   4.228
 2605SOL    MW410452   3.814   1.992   4.251
 2606SOL     OW10453   3.841   2.263   4.143
 2606SOL    HW210454   3.837   2.170   4.163
 2606SOL    HW310455   3.827   2.268   4.048
 2606SOL    MW410456   3.838   2.252   4.133
 2607SOL     OW10457   3.633   2.447   4.236
 2607SOL    HW210458   3.655   2.450   4.329
 2607SOL    HW310459   3.702   2.394   4.197
 2607SOL    MW410460   3.645   2.440   4.243
 2608SOL     OW10461   3.578   2.711   4.141
 2608SOL    HW210462   3.588   2.623   4.177
 2608SOL    HW310463   3.586   2.699   4.046
 2608SOL    MW410464   3.580   2.698   4.133
 2609SOL     OW10465   3.839   2.798   4.210
 2609SOL    HW210466   3.850   2.814   4.304
 2609SOL    HW310467   3.750   2.764   4.202
 2609SOL    MW410468   3.829   2.795   4.221
 2610SOL     OW10469   3.843   3.074   4.116
 2610SOL    HW210470   3.848   2.982   4.138
 2610SOL    HW310471   3.826   3.075   4.021
 2610SOL    MW410472   3.842   3.062   4.106
 2611SOL     OW10473   3.647   3.236   4.244
 2611SOL    HW210474   3.717   3.184   4.206
 2611SOL    HW310475   3.571   3.219   4.188
 2611SOL    MW410476   3.646   3.227   4.232
 2612SOL     OW10477   3.611   3.513   4.150
 2612SOL    HW210478   3.637   3.439   4.206
 2612SOL    HW310479   3.522   3.534   4.178
 2612SOL    MW410480   3.603   3.506   4.161
 2613SOL     OW10481   3.825   3.655   4.256
 2613SOL    HW210482   3.899   3.604   4.226
 2613SOL    HW310483   3.749   3.613   4.216
 2613SOL    MW410484   3.824   3.643   4.247
 2614SOL     OW10485   3.830   3.894   4.126
 2614SOL    HW210486   3.749   3.926   4.166
 2614SOL    HW310487   3.843   3.807   4.165
 2614SOL    MW410488   3.821   3.887   4.137
 2615SOL     OW10489   3.585   3.972   4.252
 2615SOL    HW210490   3.579   3.956   4.346
 2615SOL    HW310491   3.500   3.944   4.217
 2615SOL    MW410492   3.573   3.966   4.260
 2616SOL     OW10493   3.602   4.234   4.153
 2616SOL    HW210494   3.683   4.270   4.190
 2616SOL    HW310495   3.609   4.139   4.169
 2616SOL    MW410496   3.614   4.226   4.160
 2617SOL     OW10497   3.835   4.348   4.229
 2617SOL    HW210498   3.912   4.302   4.195
 2617SOL    HW310499   3.845   4.438   4.198
 2617SOL    MW410500   3.846   4.354   4.220
 2618SOL     OW10501   4.333   4.640   4.136
 2618SOL    HW210502   4.333   4.555   4.179
 2618SOL    HW310503   4.416   4.680   4.161
 2618SOL    MW410504   4.344   4.634   4.145
 2619SOL     OW10505   4.062   0.075   4.191
 2619SOL    HW210506   4.073   0.168   4.173
 2619SOL    HW310507   4.147   0.036   4.172
 2619SOL    MW410508   4.074   0.082   4.186
 2620SOL     OW10509   4.055   0.356   4.166
 2620SOL    HW210510   4.111   0.413   4.218
 2620SOL    HW310511   3.967   0.374   4.198
 2620SOL    MW410512   4.051   0.366   4.177
 2621SOL     OW10513   4.246   0.497   4.298
 2621SOL    HW210514   4.264   0.584   4.263
 2621SOL    HW310515   4.307   0.439   4.253
 2621SOL    MW410516   4.256   0.501   4.287
 2622SOL     OW10517   4.241   0.747   4.161
 2622SOL    HW210518   4.160   0.788   4.191
 2622SOL    HW310519   4.238   0.755   4.065
 2622SOL    MW410520   4.230   0.753   4.152
 2623SOL     OW10521   4.009   0.872   4.216
 2623SOL    HW210522   4.022   0.963   4.188
 2623SOL    HW310523   3.917   0.853   4.196
 2623SOL    MW410524   3.999   0.881   4.210
 2624SOL     OW10525   4.006   1.121   4.113
 2624SOL    HW210526   4.078   1.180   4.136
 2624SOL    HW310527   3.929   1.159   4.157
 2624SOL    MW410528   4.005   1.134   4.122
 2625SOL     OW10529   4.237   1.271   4.221
 2625SOL    HW210530   4.193   1.251   4.304
 2625SOL    HW310531   4.321   1.225   4.227
 2625SOL    MW410532   4.242   1.262   4.233
 2626SOL     OW10533   4.254   1.528   4.126
 2626SOL    HW210534   4.247   1.435   4.148
 2626SOL    HW310535   4.249   1.530   4.030
 2626SOL    MW410536   4.252   1.516   4.116
 2627SOL     OW10537   4.149   1.724   4.314
 2627SOL    HW210538   4.199   1.747   4.392
 2627SOL    HW310539   4.209   1.670   4.262
 2627SOL    MW410540   4.163   1.720   4.317
 2628SOL     OW10541   4.069   1.932   4.151
 2628SOL    HW210542   4.097   1.859   4.207
 2628SOL    HW310543   3.976   1.942   4.171
 2628SOL    MW410544   4.060   1.923   4.161
 2629SOL     OW10545   4.472   1.907   4.138
 2629SOL    HW210546   4.548   1.960   4.164
 2629SOL    HW310547   4.399   1.942   4.189
 2629SOL    MW410548   4.472   1.919   4.148
 2630SOL     OW10549   4.303   2.334   4.126
 2630SOL    HW210550   4.218   2.373   4.148
 2630SOL    HW310551   4.314   2.265   4.191
 2630SOL    MW410552   4.293   2.330   4.137
 2631SOL     OW10553   4.062   2.413   4.211
 2631SOL    HW210554   4.073   2.449   4.298
 2631SOL    HW310555   3.980   2.363   4.215
 2631SOL    MW410556   4.053   2.411   4.223
 2632SOL     OW10557   4.056   2.674   4.085
 2632SOL    HW210558   4.056   2.583   4.115
 2632SOL    HW310559   3.971   2.708   4.111
 2632SOL    MW410560   4.045   2.666   4.093
 2633SOL     OW10561   4.272   2.846   4.175
 2633SOL    HW210562   4.199   2.800   4.134
 2633SOL    HW310563   4.343   2.782   4.177
 2633SOL    MW410564   4.272   2.832   4.170
 2634SOL     OW10565   4.283   3.111   4.115
 2634SOL    HW210566   4.308   3.023   4.142
 2634SOL    HW310567   4.252   3.101   4.025
 2634SOL    MW410568   4.283   3.098   4.106
 2635SOL     OW10569   4.041   3.263   4.183
 2635SOL    HW210570   4.119   3.217   4.151
 2635SOL    HW310571   3.968   3.218   4.141
 2635SOL    MW410572   4.042   3.251   4.173
 2636SOL     OW10573   4.042   3.529   4.123
 2636SOL    HW210574   4.058   3.438   4.148
 2636SOL    HW310575   4.040   3.527   4.027
 2636SOL    MW410576   4.044   3.516   4.114
 2637SOL     OW10577   4.264   3.643   4.233
 2637SOL    HW210578   4.282   3.728   4.193
 2637SOL    HW310579   4.183   3.614   4.192
 2637SOL    MW410580   4.255   3.650   4.222
 2638SOL     OW10581   4.313   3.897   4.104
 2638SOL    HW210582   4.228   3.923   4.139
 2638SOL    HW310583   4.302   3.902   4.009
 2638SOL    MW410584   4.300   3.901   4.096
 2639SOL     OW10585   4.072   4.002   4.199
 2639SOL    HW210586   4.082   4.000   4.294
 2639SOL    HW310587   3.985   3.966   4.183
 2639SOL    MW410588   4.062   3.997   4.209
 2640SOL     OW10589   4.079   4.281   4.107
 2640SOL    HW210590   4.140   4.328   4.164
 2640SOL    HW310591   4.089   4.189   4.132
 2640SOL    MW410592   4.089   4.275   4.118
 2641SOL     OW10593   4.118   4.229   4.617
 2641SOL    HW210594   4.079   4.212   4.702
 2641SOL    HW310595   4.045   4.260   4.563
 2641SOL    MW410596   4.103   4.231   4.621
 2642SOL     OW10597   4.035   4.155   4.882
 2642SOL    HW210598   4.050   4.165   4.976
 2642SOL    HW310599   4.082   4.075   4.858
 2642SOL    MW410600   4.043   4.146   4.891
 2643SOL     OW10601   4.353   4.387   4.505
 2643SOL    HW210602   4.330   4.474   4.539
 2643SOL    HW310603   4.291   4.328   4.548
 2643SOL    MW410604   4.342   4.391   4.515
 2644SOL     OW10605   4.291   4.630   4.605
 2644SOL    HW210606   4.316   4.691   4.675
 2644SOL    HW310607   4.199   4.649   4.589
 2644SOL    MW410608   4.283   4.641   4.612
 2645SOL     OW10609   4.297   1.867   4.562
 2645SOL    HW210610   4.390   1.883   4.578
 2645SOL    HW310611   4.276   1.790   4.614
 2645SOL    MW410612   4.306   1.859   4.571
 2646SOL     OW10613   0.445   4.667   4.510
 2646SOL    HW210614   0.374   4.603   4.511
 2646SOL    HW310615   0.525   4.614   4.506
 2646SOL    MW410616   0.446   4.651   4.510
 2647SOL     OW10617   0.188   0.750   4.671
 2647SOL    HW210618   0.219   0.662   4.648
 2647SOL    HW310619   0.236   0.773   4.750
 2647SOL    MW410620   0.198   0.741   4.678
 2648SOL     OW10621   4.199   0.726   4.648
 2648SOL    HW210622   4.226   0.635   4.638
 2648SOL    HW310623   4.280   0.775   4.654
 2648SOL    MW410624   4.213   0.720   4.648
 2649SOL     OW10625   0.716   1.371   4.518
 2649SOL    HW210626   0.766   1.452   4.506
 2649SOL    HW310627   0.638   1.398   4.566
 2649SOL    MW410628   0.712   1.385   4.523
 2650SOL     OW10629   1.131   1.958   4.504
 2650SOL    HW210630   1.226   1.953   4.499
 2650SOL    HW310631   1.113   2.016   4.578
 2650SOL    MW410632   1.141   1.965   4.513
 2651SOL     OW10633   4.130   1.186   4.449
 2651SOL    HW210634   4.109   1.094   4.464
 2651SOL    HW310635   4.215   1.199   4.491
 2651SOL    MW410636   4.138   1.176   4.457
 2652SOL     OW10637   0.094   1.608   4.473
 2652SOL    HW210638   0.053   1.625   4.388
 2652SOL    HW310639   0.095   1.693   4.516
 2652SOL    MW410640   0.088   1.622   4.467
 2653SOL     OW10641   0.454   1.693   4.212
 2653SOL    HW210642   0.387   1.627   4.196
 2653SOL    HW310643   0.536   1.652   4.187
 2653SOL    MW410644   0.456   1.679   4.206
 2654SOL     OW10645   0.095   1.868   4.575
 2654SOL    HW210646   0.135   1.946   4.538
 2654SOL    HW310647   0.114   1.873   4.669
 2654SOL    MW410648   0.103   1.879   4.582
 2655SOL     OW10649   4.285   2.316   4.595
 2655SOL    HW210650   4.376   2.343   4.606
 2655SOL    HW310651   4.242   2.394   4.560
 2655SOL    MW410652   4.291   2.330   4.592
 2656SOL     OW10653   0.667   2.974   4.643
 2656SOL    HW210654   0.696   2.900   4.590
 2656SOL    HW310655   0.705   2.959   4.729
 2656SOL    MW410656   0.676   2.963   4.647
 2657SOL     OW10657   0.380   3.017   4.574
 2657SOL    HW210658   0.461   2.974   4.600
 2657SOL    HW310659   0.404   3.109   4.563
 2657SOL    MW410660   0.393   3.024   4.576
 2658SOL     OW10661   0.080   2.350   4.548
 2658SOL    HW210662   0.047   2.363   4.459
 2658SOL    HW310663   0.136   2.426   4.564
 2658SOL    MW410664   0.083   2.362   4.538
 2659SOL     OW10665   4.032   3.446   4.573
 2659SOL    HW210666   4.058   3.367   4.526
 2659SOL    HW310667   4.009   3.416   4.661
 2659SOL    MW410668   4.032   3.432   4.578
 2660SOL     OW10669   0.439   3.316   4.491
 2660SOL    HW210670   0.518   3.340   4.540
 2660SOL    HW310671   0.380   3.390   4.504
 2660SOL    MW410672   0.442   3.329   4.499
 2661SOL     OW10673   4.313   3.880   4.545
 2661SOL    HW210674   4.234   3.907   4.499
 2661SOL    HW310675   4.306   3.785   4.551
 2661SOL    MW410676   4.302   3.871   4.540
 2662SOL     OW10677   0.047   0.066   4.506
 2662SOL    HW210678  -0.037   0.045   4.547
 2662SOL    HW310679   0.076   0.146   4.549
 2662SOL    MW410680   0.040   0.074   4.517
 2663SOL     OW10681   3.838   0.341   4.499
 2663SOL    HW210682   3.820   0.252   4.530
 2663SOL    HW310683   3.788   0.397   4.558
 2663SOL    MW410684   3.829   0.336   4.511
 2664SOL     OW10685   3.918   3.292   4.798
 2664SOL    HW210686   3.833   3.332   4.816
 2664SOL    HW310687   3.900   3.226   4.731
 2664SOL    MW410688   3.905   3.288   4.791
 2665SOL     OW10689   3.896   3.880   4.671
 2665SOL    HW210690   3.870   3.791   4.649
 2665SOL    HW310691   3.860   3.895   4.758
 2665SOL    MW410692   3.888   3.870   4.679
 2666SOL     OW10693   0.666   4.461   4.514
 2666SOL    HW210694   0.678   4.424   4.427
 2666SOL    HW310695   0.665   4.385   4.572
 2666SOL    MW410696   0.667   4.446   4.510
 2667SOL     OW10697   3.894   0.709   4.736
 2667SOL    HW210698   3.989   0.706   4.723
 2667SOL    HW310699   3.870   0.800   4.719
 2667SOL    MW410700   3.904   0.721   4.732
 2668SOL     OW10701   1.103   0.772   4.719
 2668SOL    HW210702   1.075   0.863   4.724
 2668SOL    HW310703   1.022   0.723   4.705
 2668SOL    MW410704   1.089   0.778   4.718
 2669SOL     OW10705   0.764   0.376   4.677
 2669SOL    HW210706   0.849   0.340   4.653
 2669SOL    HW310707   0.716   0.301   4.714
 2669SOL    MW410708   0.769   0.361   4.679
 2670SOL     OW10709   0.839   0.952   4.551
 2670SOL    HW210710   0.863   0.925   4.462
 2670SOL    HW310711   0.746   0.931   4.559
 2670SOL    MW410712   0.830   0.945   4.540
 2671SOL     OW10713   0.349   0.945   4.503
 2671SOL    HW210714   0.295   0.881   4.550
 2671SOL    HW310715   0.360   0.909   4.415
 2671SOL    MW410716   0.343   0.932   4.498
 2672SOL     OW10717   2.046   1.325   4.484
 2672SOL    HW210718   2.033   1.323   4.389
 2672SOL    HW310719   2.117   1.263   4.500
 2672SOL    MW410720   2.054   1.317   4.474
 2673SOL     OW10721   0.363   1.671   4.492
 2673SOL    HW210722   0.268   1.669   4.485
 2673SOL    HW310723   0.394   1.685   4.403
 2673SOL    MW410724   0.355   1.672   4.480
 2674SOL     OW10725   1.345   1.062   4.601
 2674SOL    HW210726   1.353   0.978   4.555
 2674SOL    HW310727   1.280   1.111   4.551
 2674SOL    MW410728   1.338   1.057   4.588
 2675SOL     OW10729   0.829   1.634   4.523
 2675SOL    HW210730   0.774   1.711   4.535
 2675SOL    HW310731   0.909   1.653   4.571
 2675SOL    MW410732   0.832   1.646   4.531
 2676SOL     OW10733   0.654   2.106   4.494
 2676SOL    HW210734   0.724   2.167   4.517
 2676SOL    HW310735   0.685   2.021   4.525
 2676SOL    MW410736   0.668   2.103   4.501
 2677SOL     OW10737   1.083   1.687   4.586
 2677SOL    HW210738   1.148   1.626   4.552
 2677SOL    HW310739   1.098   1.768   4.537
 2677SOL    MW410740   1.093   1.689   4.575
 2678SOL     OW10741   0.451   2.140   4.683
 2678SOL    HW210742   0.536   2.142   4.640
 2678SOL    HW310743   0.441   2.228   4.720
 2678SOL    MW410744   0.461   2.152   4.682
 2679SOL     OW10745   0.986   2.650   4.741
 2679SOL    HW210746   1.032   2.687   4.666
 2679SOL    HW310747   0.898   2.632   4.708
 2679SOL    MW410748   0.980   2.653   4.727
 2680SOL     OW10749   0.711   2.564   4.623
 2680SOL    HW210750   0.630   2.543   4.671
 2680SOL    HW310751   0.740   2.480   4.588
 2680SOL    MW410752   0.704   2.550   4.625
 2681SOL     OW10753   0.786   3.159   4.467
 2681SOL    HW210754   0.762   3.246   4.497
 2681SOL    HW310755   0.754   3.100   4.535
 2681SOL    MW410756   0.779   3.162   4.480
 2682SOL     OW10757   0.685   3.425   4.594
 2682SOL    HW210758   0.679   3.486   4.520
 2682SOL    HW310759   0.714   3.479   4.667
 2682SOL    MW410760   0.688   3.440   4.593
 2683SOL     OW10761   1.311   0.123   4.501
 2683SOL    HW210762   1.310   0.031   4.528
 2683SOL    HW310763   1.397   0.155   4.528
 2683SOL    MW410764   1.322   0.115   4.508
 2684SOL     OW10765   0.295   2.538   4.509
 2684SOL    HW210766   0.320   2.525   4.417
 2684SOL    HW310767   0.274   2.631   4.514
 2684SOL    MW410768   0.296   2.549   4.497
 2685SOL     OW10769   4.489   3.404   4.577
 2685SOL    HW210770   4.426   3.475   4.570
 2685SOL    HW310771   4.438   3.324   4.564
 2685SOL    MW410772   4.474   3.402   4.574
 2686SOL     OW10773   1.344   3.460   4.624
 2686SOL    HW210774   1.424   3.411   4.602
 2686SOL    HW310775   1.282   3.394   4.654
 2686SOL    MW410776   1.347   3.445   4.625
 2687SOL     OW10777   0.097   4.288   4.597
 2687SOL    HW210778   0.101   4.205   4.548
 2687SOL    HW310779   0.019   4.331   4.564
 2687SOL    MW410780   0.088   4.283   4.586
 2688SOL     OW10781   0.092   4.017   4.511
 2688SOL    HW210782   0.163   3.965   4.548
 2688SOL    HW310783   0.013   3.981   4.550
 2688SOL    MW410784   0.091   4.006   4.521
 2689SOL     OW10785   0.216   4.513   4.468
 2689SOL    HW210786   0.160   4.585   4.497
 2689SOL    HW310787   0.195   4.441   4.527
 2689SOL    MW410788   0.206   4.513   4.479
 2690SOL     OW10789   0.628   0.128   4.708
 2690SOL    HW210790   0.697   0.070   4.675
 2690SOL    HW310791   0.549   0.099   4.661
 2690SOL    MW410792   0.627   0.116   4.697
 2691SOL     OW10793   1.245   4.491   4.512
 2691SOL    HW210794   1.323   4.438   4.521
 2691SOL    HW310795   1.191   4.469   4.588
 2691SOL    MW410796   1.248   4.481   4.523
 2692SOL     OW10797   0.576   0.525   4.526
 2692SOL    HW210798   0.603   0.512   4.435
 2692SOL    HW310799   0.631   0.465   4.576
 2692SOL    MW410800   0.587   0.516   4.520
 2693SOL     OW10801   1.427   0.836   4.440
 2693SOL    HW210802   1.397   0.858   4.352
 2693SOL    HW310803   1.368   0.767   4.469
 2693SOL    MW410804   1.416   0.830   4.432
 2694SOL     OW10805   1.637   0.779   4.604
 2694SOL    HW210806   1.567   0.808   4.545
 2694SOL    HW310807   1.597   0.782   4.691
 2694SOL    MW410808   1.622   0.783   4.608
 2695SOL     OW10809   0.234   1.217   4.529
 2695SOL    HW210810   0.278   1.133   4.515
 2695SOL    HW310811   0.303   1.275   4.561
 2695SOL    MW410812   0.249   1.214   4.532
 2696SOL     OW10813   0.952   1.861   4.780
 2696SOL    HW210814   1.006   1.939   4.779
 2696SOL    HW310815   1.010   1.790   4.752
 2696SOL    MW410816   0.966   1.862   4.776
 2697SOL     OW10817   0.935   1.210   4.489
 2697SOL    HW210818   0.858   1.261   4.517
 2697SOL    HW310819   0.908   1.119   4.499
 2697SOL    MW410820   0.921   1.205   4.494
 2698SOL     OW10821   1.804   1.159   4.576
 2698SOL    HW210822   1.832   1.070   4.558
 2698SOL    HW310823   1.874   1.214   4.540
 2698SOL    MW410824   1.817   1.155   4.569
 2699SOL     OW10825   1.205   1.263   4.453
 2699SOL    HW210826   1.113   1.246   4.472
 2699SOL    HW310827   1.220   1.353   4.482
 2699SOL    MW410828   1.195   1.272   4.460
 2700SOL     OW10829   1.069   2.390   4.668
 2700SOL    HW210830   1.035   2.476   4.695
 2700SOL    HW310831   1.163   2.404   4.655
 2700SOL    MW410832   1.077   2.404   4.670
 2701SOL     OW10833   1.585   2.513   4.863
 2701SOL    HW210834   1.567   2.558   4.946
 2701SOL    HW310835   1.551   2.571   4.796
 2701SOL    MW410836   1.578   2.526   4.865
 2702SOL     OW10837   1.458   2.975   4.606
 2702SOL    HW210838   1.458   2.882   4.627
 2702SOL    HW310839   1.540   3.008   4.644
 2702SOL    MW410840   1.469   2.967   4.614
 2703SOL     OW10841   1.610   3.320   4.562
 2703SOL    HW210842   1.619   3.245   4.621
 2703SOL    HW310843   1.667   3.299   4.488
 2703SOL    MW410844   1.619   3.307   4.560
 2704SOL     OW10845   0.761   2.769   4.446
 2704SOL    HW210846   0.846   2.790   4.483
 2704SOL    HW310847   0.734   2.689   4.490
 2704SOL    MW410848   0.769   2.761   4.457
 2705SOL     OW10849   0.617   4.221   4.639
 2705SOL    HW210850   0.669   4.175   4.705
 2705SOL    HW310851   0.529   4.224   4.676
 2705SOL    MW410852   0.612   4.215   4.652
 2706SOL     OW10853   1.026   2.813   4.518
 2706SOL    HW210854   1.060   2.828   4.429
 2706SOL    HW310855   1.044   2.895   4.564
 2706SOL    MW410856   1.033   2.826   4.512
 2707SOL     OW10857   0.849   2.912   4.836
 2707SOL    HW210858   0.902   2.833   4.838
 2707SOL    HW310859   0.896   2.971   4.777
 2707SOL    MW410860   0.862   2.910   4.828
 2708SOL     OW10861   1.667   3.602   4.498
 2708SOL    HW210862   1.761   3.587   4.504
 2708SOL    HW310863   1.628   3.521   4.533
 2708SOL    MW410864   1.674   3.589   4.503
 2709SOL     OW10865   0.514   3.951   4.479
 2709SOL    HW210866   0.571   4.013   4.524
 2709SOL    HW310867   0.516   3.979   4.387
 2709SOL    MW410868   0.522   3.963   4.473
 2710SOL     OW10869   0.289   3.841   4.604
 2710SOL    HW210870   0.304   3.748   4.586
 2710SOL    HW310871   0.367   3.885   4.570
 2710SOL    MW410872   0.301   3.835   4.597
 2711SOL     OW10873   0.840   4.665   4.561
 2711SOL    HW210874   0.869   4.686   4.472
 2711SOL    HW310875   0.779   4.592   4.550
 2711SOL    MW410876   0.836   4.658   4.548
 2712SOL     OW10877   0.333   4.221   4.743
 2712SOL    HW210878   0.260   4.260   4.694
 2712SOL    HW310879   0.303   4.133   4.763
 2712SOL    MW410880   0.319   4.215   4.739
 2713SOL     OW10881   2.248   4.023   4.579
 2713SOL    HW210882   2.237   4.012   4.485
 2713SOL    HW310883   2.338   3.996   4.596
 2713SOL    MW410884   2.259   4.018   4.569
 2714SOL     OW10885   1.724   4.538   4.575
 2714SOL    HW210886   1.792   4.481   4.539
 2714SOL    HW310887   1.642   4.493   4.552
 2714SOL    MW410888   1.722   4.524   4.567
 2715SOL     OW10889   1.512   4.365   4.494
 2715SOL    HW210890   1.528   4.279   4.534
 2715SOL    HW310891   1.533   4.353   4.402
 2715SOL    MW410892   1.517   4.352   4.488
 2716SOL     OW10893   0.879   0.614   4.666
 2716SOL    HW210894   0.816   0.683   4.646
 2716SOL    HW310895   0.826   0.541   4.697
 2716SOL    MW410896   0.864   0.613   4.668
 2717SOL     OW10897   1.791   0.137   4.565
 2717SOL    HW210898   1.791   0.046   4.594
 2717SOL    HW310899   1.701   0.166   4.576
 2717SOL    MW410900   1.779   0.129   4.570
 2718SOL     OW10901   1.041   0.472   4.475
 2718SOL    HW210902   0.985   0.539   4.515
 2718SOL    HW310903   1.024   0.393   4.525
 2718SOL    MW410904   1.031   0.471   4.487
 2719SOL     OW10905   1.533   1.705   4.562
 2719SOL    HW210906   1.519   1.614   4.586
 2719SOL    HW310907   1.619   1.706   4.519
 2719SOL    MW410908   1.543   1.693   4.559
 2720SOL     OW10909   0.600   0.813   4.542
 2720SOL    HW210910   0.516   0.860   4.542
 2720SOL    HW310911   0.576   0.720   4.533
 2720SOL    MW410912   0.586   0.807   4.541
 2721SOL     OW10913   1.539   0.536   4.515
 2721SOL    HW210914   1.596   0.611   4.534
 2721SOL    HW310915   1.453   0.562   4.548
 2721SOL    MW410916   1.535   0.550   4.522
 2722SOL     OW10917   1.550   1.228   4.478
 2722SOL    HW210918   1.489   1.170   4.523
 2722SOL    HW310919   1.634   1.211   4.521
 2722SOL    MW410920   1.553   1.218   4.490
 2723SOL     OW10921   1.287   1.516   4.509
 2723SOL    HW210922   1.359   1.506   4.571
 2723SOL    HW310923   1.326   1.557   4.433
 2723SOL    MW410924   1.302   1.520   4.507
 2724SOL     OW10925   1.480   2.683   4.664
 2724SOL    HW210926   1.410   2.629   4.628
 2724SOL    HW310927   1.548   2.682   4.596
 2724SOL    MW410928   1.480   2.676   4.650
 2725SOL     OW10929   2.319   2.575   4.346
 2725SOL    HW210930   2.272   2.523   4.281
 2725SOL    HW310931   2.255   2.641   4.374
 2725SOL    MW410932   2.304   2.576   4.341
 2726SOL     OW10933   0.843   2.334   4.513
 2726SOL    HW210934   0.926   2.352   4.556
 2726SOL    HW310935   0.859   2.353   4.421
 2726SOL    MW410936   0.856   2.339   4.507
 2727SOL     OW10937   1.467   3.831   4.500
 2727SOL    HW210938   1.529   3.759   4.513
 2727SOL    HW310939   1.381   3.792   4.520
 2727SOL    MW410940   1.464   3.816   4.504
 2728SOL     OW10941   1.298   2.387   4.282
 2728SOL    HW210942   1.277   2.471   4.241
 2728SOL    HW310943   1.377   2.357   4.237
 2728SOL    MW410944   1.305   2.394   4.271
 2729SOL     OW10945   1.342   2.465   4.579
 2729SOL    HW210946   1.314   2.421   4.499
 2729SOL    HW310947   1.416   2.413   4.610
 2729SOL    MW410948   1.348   2.452   4.573
 2730SOL     OW10949   1.236   3.150   4.573
 2730SOL    HW210950   1.310   3.089   4.582
 2730SOL    HW310951   1.246   3.187   4.485
 2730SOL    MW410952   1.247   3.147   4.562
 2731SOL     OW10953   0.978   3.059   4.636
 2731SOL    HW210954   1.063   3.101   4.624
 2731SOL    HW310955   0.922   3.100   4.570
 2731SOL    MW410956   0.982   3.070   4.626
 2732SOL     OW10957   0.682   3.697   4.472
 2732SOL    HW210958   0.625   3.773   4.486
 2732SOL    HW310959   0.770   3.729   4.492
 2732SOL    MW410960   0.686   3.711   4.477
 2733SOL     OW10961   2.338   3.502   4.606
 2733SOL    HW210962   2.261   3.461   4.567
 2733SOL    HW310963   2.393   3.429   4.634
 2733SOL    MW410964   2.335   3.487   4.604
 2734SOL     OW10965   2.098   3.351   4.589
 2734SOL    HW210966   2.086   3.284   4.657
 2734SOL    HW310967   2.101   3.301   4.508
 2734SOL    MW410968   2.096   3.335   4.588
 2735SOL     OW10969   2.352   3.243   4.338
 2735SOL    HW210970   2.271   3.193   4.346
 2735SOL    HW310971   2.408   3.210   4.408
 2735SOL    MW410972   2.349   3.232   4.348
 2736SOL     OW10973   0.935   3.808   4.514
 2736SOL    HW210974   0.945   3.888   4.463
 2736SOL    HW310975   1.025   3.779   4.530
 2736SOL    MW410976   0.948   3.815   4.509
 2737SOL     OW10977   1.837   4.142   4.487
 2737SOL    HW210978   1.787   4.131   4.406
 2737SOL    HW310979   1.879   4.057   4.501
 2737SOL    MW410980   1.836   4.130   4.478
 2738SOL     OW10981   2.000   0.326   4.519
 2738SOL    HW210982   1.945   0.248   4.523
 2738SOL    HW310983   2.085   0.297   4.552
 2738SOL    MW410984   2.004   0.312   4.524
 2739SOL     OW10985   1.052   0.226   4.630
 2739SOL    HW210986   1.006   0.142   4.636
 2739SOL    HW310987   1.136   0.204   4.588
 2739SOL    MW410988   1.057   0.212   4.625
 2740SOL     OW10989   1.542   0.276   4.597
 2740SOL    HW210990   1.523   0.280   4.690
 2740SOL    HW310991   1.549   0.368   4.570
 2740SOL    MW410992   1.541   0.289   4.606
 2741SOL     OW10993   2.487   4.652   4.614
 2741SOL    HW210994   2.478   4.564   4.577
 2741SOL    HW310995   2.412   4.700   4.581
 2741SOL    MW410996   2.476   4.647   4.605
 2742SOL     OW10997   1.881   0.881   4.472
 2742SOL    HW210998   1.815   0.840   4.528
 2742SOL    HW310999   1.843   0.875   4.383
 2742SOL    MW411000   1.867   0.875   4.467
 2743SOL     OW11001   1.264   0.630   4.560
 2743SOL    HW211002   1.221   0.672   4.634
 2743SOL    HW311003   1.204   0.559   4.535
 2743SOL    MW411004   1.250   0.626   4.566
 2744SOL     OW11005   1.766   1.725   4.444
 2744SOL    HW211006   1.848   1.703   4.487
 2744SOL    HW311007   1.775   1.694   4.355
 2744SOL    MW411008   1.778   1.718   4.438
 2745SOL     OW11009   0.706   1.864   4.612
 2745SOL    HW211010   0.767   1.877   4.685
 2745SOL    HW311011   0.622   1.844   4.654
 2745SOL    MW411012   0.703   1.863   4.627
 2746SOL     OW11013   1.524   1.449   4.651
 2746SOL    HW211014   1.541   1.376   4.591
 2746SOL    HW311015   1.602   1.453   4.706
 2746SOL    MW411016   1.537   1.440   4.650
 2747SOL     OW11017   1.108   2.108   4.736
 2747SOL    HW211018   1.202   2.101   4.755
 2747SOL    HW311019   1.094   2.202   4.723
 2747SOL    MW411020   1.118   2.120   4.737
 2748SOL     OW11021   1.406   1.949   4.503
 2748SOL    HW211022   1.452   1.989   4.429
 2748SOL    HW311023   1.449   1.864   4.515
 2748SOL    MW411024   1.418   1.943   4.495
 2749SOL     OW11025   2.138   2.445   4.138
 2749SOL    HW211026   2.081   2.442   4.061
 2749SOL    HW311027   2.205   2.378   4.120
 2749SOL    MW411028   2.139   2.435   4.125
 2750SOL     OW11029   1.403   2.084   4.742
 2750SOL    HW211030   1.406   2.025   4.667
 2750SOL    HW311031   1.461   2.156   4.719
 2750SOL    MW411032   1.411   2.086   4.729
 2751SOL     OW11033   2.448   3.087   4.565
 2751SOL    HW211034   2.525   3.031   4.576
 2751SOL    HW311035   2.373   3.029   4.582
 2751SOL    MW411036   2.448   3.072   4.569
 2752SOL     OW11037   1.729   3.071   4.655
 2752SOL    HW211038   1.773   3.043   4.574
 2752SOL    HW311039   1.800   3.105   4.710
 2752SOL    MW411040   1.744   3.072   4.651
 2753SOL     OW11041   1.967   3.904   4.581
 2753SOL    HW211042   2.057   3.928   4.599
 2753SOL    HW311043   1.967   3.808   4.579
 2753SOL    MW411044   1.979   3.894   4.583
 2754SOL     OW11045   2.706   2.990   4.697
 2754SOL    HW211046   2.784   2.984   4.642
 2754SOL    HW311047   2.679   2.899   4.711
 2754SOL    MW411048   2.713   2.977   4.692
 2755SOL     OW11049   2.527   3.311   4.696
 2755SOL    HW211050   2.495   3.233   4.652
 2755SOL    HW311051   2.573   3.279   4.774
 2755SOL    MW411052   2.529   3.297   4.701
 2756SOL     OW11053   2.727   4.020   4.535
 2756SOL    HW211054   2.706   3.993   4.446
 2756SOL    HW311055   2.646   4.004   4.584
 2756SOL    MW411056   2.713   4.014   4.530
 2757SOL     OW11057   2.494   3.921   4.636
 2757SOL    HW211058   2.505   3.844   4.580
 2757SOL    HW311059   2.487   3.885   4.725
 2757SOL    MW411060   2.495   3.906   4.641
 2758SOL     OW11061   2.493   3.684   4.474
 2758SOL    HW211062   2.428   3.624   4.511
 2758SOL    HW311063   2.497   3.660   4.382
 2758SOL    MW411064   2.485   3.673   4.467
 2759SOL     OW11065   1.962   3.607   4.545
 2759SOL    HW211066   2.005   3.529   4.582
 2759SOL    HW311067   1.987   3.606   4.453
 2759SOL    MW411068   1.971   3.596   4.538
 2760SOL     OW11069   1.968   4.376   4.502
 2760SOL    HW211070   1.921   4.292   4.494
 2760SOL    HW311071   2.052   4.353   4.542
 2760SOL    MW411072   1.973   4.362   4.506
 2761SOL     OW11073   1.204   3.712   4.523
 2761SOL    HW211074   1.234   3.633   4.566
 2761SOL    HW311075   1.182   3.684   4.434
 2761SOL    MW411076   1.205   3.698   4.517
 2762SOL     OW11077   2.254   0.186   4.529
 2762SOL    HW211078   2.254   0.161   4.436
 2762SOL    HW311079   2.299   0.270   4.530
 2762SOL    MW411080   2.260   0.194   4.517
 2763SOL     OW11081   2.365   0.712   4.510
 2763SOL    HW211082   2.435   0.748   4.564
 2763SOL    HW311083   2.286   0.757   4.539
 2763SOL    MW411084   2.364   0.723   4.521
 2764SOL     OW11085   2.009   1.626   4.537
 2764SOL    HW211086   2.038   1.537   4.518
 2764SOL    HW311087   2.088   1.671   4.568
 2764SOL    MW411088   2.023   1.620   4.539
 2765SOL     OW11089   2.713   0.121   4.498
 2765SOL    HW211090   2.642   0.091   4.554
 2765SOL    HW311091   2.688   0.094   4.410
 2765SOL    MW411092   2.701   0.114   4.494
 2766SOL     OW11093   2.825   0.770   4.383
 2766SOL    HW211094   2.797   0.679   4.389
 2766SOL    HW311095   2.871   0.776   4.299
 2766SOL    MW411096   2.827   0.759   4.373
 2767SOL     OW11097   3.132   0.904   4.633
 2767SOL    HW211098   3.158   0.818   4.599
 2767SOL    HW311099   3.201   0.963   4.606
 2767SOL    MW411100   3.144   0.900   4.625
 2768SOL     OW11101   2.231   1.128   4.531
 2768SOL    HW211102   2.298   1.130   4.599
 2768SOL    HW311103   2.280   1.144   4.450
 2768SOL    MW411104   2.247   1.130   4.529
 2769SOL     OW11105   2.594   1.339   4.497
 2769SOL    HW211106   2.592   1.432   4.519
 2769SOL    HW311107   2.685   1.313   4.508
 2769SOL    MW411108   2.606   1.348   4.501
 2770SOL     OW11109   2.586   1.620   4.520
 2770SOL    HW211110   2.614   1.657   4.436
 2770SOL    HW311111   2.630   1.674   4.586
 2770SOL    MW411112   2.596   1.632   4.518
 2771SOL     OW11113   2.300   1.698   4.532
 2771SOL    HW211114   2.384   1.652   4.537
 2771SOL    HW311115   2.278   1.696   4.438
 2771SOL    MW411116   2.309   1.692   4.520
 2772SOL     OW11117   2.253   2.221   4.571
 2772SOL    HW211118   2.287   2.309   4.588
 2772SOL    HW311119   2.211   2.228   4.485
 2772SOL    MW411120   2.252   2.234   4.562
 2773SOL     OW11121   2.450   2.029   4.522
 2773SOL    HW211122   2.423   1.949   4.568
 2773SOL    HW311123   2.390   2.096   4.552
 2773SOL    MW411124   2.439   2.027   4.532
 2774SOL     OW11125   2.634   2.340   4.466
 2774SOL    HW211126   2.567   2.379   4.522
 2774SOL    HW311127   2.586   2.284   4.405
 2774SOL    MW411128   2.619   2.338   4.465
 2775SOL     OW11129   1.709   2.714   4.481
 2775SOL    HW211130   1.762   2.789   4.454
 2775SOL    HW311131   1.771   2.656   4.525
 2775SOL    MW411132   1.724   2.716   4.483
 2776SOL     OW11133   2.299   2.992   4.866
 2776SOL    HW211134   2.388   3.028   4.873
 2776SOL    HW311135   2.294   2.957   4.778
 2776SOL    MW411136   2.310   2.993   4.856
 2777SOL     OW11137   2.660   3.465   4.515
 2777SOL    HW211138   2.620   3.410   4.582
 2777SOL    HW311139   2.601   3.540   4.508
 2777SOL    MW411140   2.647   3.468   4.523
 2778SOL     OW11141   2.583   3.160   4.912
 2778SOL    HW211142   2.639   3.146   4.988
 2778SOL    HW311143   2.605   3.089   4.852
 2778SOL    MW411144   2.593   3.149   4.914
 2779SOL     OW11145   1.567   4.104   4.562
 2779SOL    HW211146   1.553   4.010   4.553
 2779SOL    HW311147   1.663   4.114   4.563
 2779SOL    MW411148   1.578   4.093   4.561
 2780SOL     OW11149   2.728   4.324   4.592
 2780SOL    HW211150   2.640   4.355   4.569
 2780SOL    HW311151   2.722   4.228   4.584
 2780SOL    MW411152   2.715   4.315   4.588
 2781SOL     OW11153   2.087   3.133   4.755
 2781SOL    HW211154   2.079   3.073   4.682
 2781SOL    HW311155   2.173   3.114   4.793
 2781SOL    MW411156   2.097   3.123   4.751
 2782SOL     OW11157   3.442   3.866   4.515
 2782SOL    HW211158   3.377   3.934   4.495
 2782SOL    HW311159   3.397   3.784   4.496
 2782SOL    MW411160   3.428   3.864   4.510
 2783SOL     OW11161   3.212   4.042   4.498
 2783SOL    HW211162   3.137   3.993   4.533
 2783SOL    HW311163   3.202   4.130   4.533
 2783SOL    MW411164   3.201   4.047   4.507
 2784SOL     OW11165   2.217   4.293   4.587
 2784SOL    HW211166   2.221   4.329   4.676
 2784SOL    HW311167   2.222   4.198   4.600
 2784SOL    MW411168   2.218   4.285   4.601
 2785SOL     OW11169   2.451   4.400   4.515
 2785SOL    HW211170   2.366   4.358   4.534
 2785SOL    HW311171   2.461   4.392   4.420
 2785SOL    MW411172   2.441   4.393   4.505
 2786SOL     OW11173   2.763   0.507   4.355
 2786SOL    HW211174   2.734   0.454   4.281
 2786SOL    HW311175   2.717   0.471   4.431
 2786SOL    MW411176   2.753   0.495   4.355
 2787SOL     OW11177   2.666   0.380   4.564
 2787SOL    HW211178   2.682   0.290   4.533
 2787SOL    HW311179   2.736   0.396   4.627
 2787SOL    MW411180   2.678   0.370   4.568
 2788SOL     OW11181   2.707   0.044   4.810
 2788SOL    HW211182   2.784   0.014   4.762
 2788SOL    HW311183   2.633   0.012   4.758
 2788SOL    MW411184   2.708   0.036   4.797
 2789SOL     OW11185   2.887   0.989   4.544
 2789SOL    HW211186   2.972   0.966   4.582
 2789SOL    HW311187   2.866   0.915   4.487
 2789SOL    MW411188   2.895   0.976   4.541
 2790SOL     OW11189   3.466   0.374   4.722
 2790SOL    HW211190   3.469   0.305   4.656
 2790SOL    HW311191   3.536   0.434   4.697
 2790SOL    MW411192   3.475   0.373   4.710
 2791SOL     OW11193   2.135   0.881   4.545
 2791SOL    HW211194   2.162   0.972   4.559
 2791SOL    HW311195   2.044   0.886   4.518
 2791SOL    MW411196   2.127   0.894   4.543
 2792SOL     OW11197   2.590   0.953   4.565
 2792SOL    HW211198   2.575   0.952   4.471
 2792SOL    HW311199   2.685   0.958   4.574
 2792SOL    MW411200   2.600   0.953   4.554
 2793SOL     OW11201   3.110   1.418   4.555
 2793SOL    HW211202   3.028   1.370   4.539
 2793SOL    HW311203   3.165   1.396   4.480
 2793SOL    MW411204   3.106   1.409   4.543
 2794SOL     OW11205   3.146   1.692   4.546
 2794SOL    HW211206   3.059   1.732   4.538
 2794SOL    HW311207   3.131   1.609   4.590
 2794SOL    MW411208   3.133   1.686   4.551
 2795SOL     OW11209   2.870   1.749   4.512
 2795SOL    HW211210   2.837   1.836   4.534
 2795SOL    HW311211   2.837   1.733   4.423
 2795SOL    MW411212   2.861   1.759   4.503
 2796SOL     OW11213   2.726   1.980   4.594
 2796SOL    HW211214   2.769   2.064   4.608
 2796SOL    HW311215   2.633   2.001   4.592
 2796SOL    MW411216   2.719   1.994   4.595
 2797SOL     OW11217   2.874   2.201   4.540
 2797SOL    HW211218   2.797   2.252   4.516
 2797SOL    HW311219   2.896   2.152   4.461
 2797SOL    MW411220   2.867   2.201   4.527
 2798SOL     OW11221   3.140   2.226   4.675
 2798SOL    HW211222   3.166   2.196   4.762
 2798SOL    HW311223   3.052   2.190   4.662
 2798SOL    MW411224   3.132   2.217   4.685
 2799SOL     OW11225   2.383   2.728   4.792
 2799SOL    HW211226   2.360   2.784   4.866
 2799SOL    HW311227   2.347   2.773   4.715
 2799SOL    MW411228   2.375   2.741   4.791
 2800SOL     OW11229   3.378   3.226   4.705
 2800SOL    HW211230   3.426   3.303   4.734
 2800SOL    HW311231   3.433   3.187   4.637
 2800SOL    MW411232   3.392   3.231   4.700
 2801SOL     OW11233   2.635   2.709   4.684
 2801SOL    HW211234   2.560   2.695   4.742
 2801SOL    HW311235   2.596   2.734   4.600
 2801SOL    MW411236   2.620   2.710   4.681
 2802SOL     OW11237   2.921   3.601   4.528
 2802SOL    HW211238   2.987   3.534   4.547
 2802SOL    HW311239   2.838   3.556   4.540
 2802SOL    MW411240   2.919   3.586   4.532
 2803SOL     OW11241   2.948   2.945   4.568
 2803SOL    HW211242   3.037   2.959   4.601
 2803SOL    HW311243   2.939   2.850   4.562
 2803SOL    MW411244   2.959   2.934   4.571
 2804SOL     OW11245   3.125   0.153   4.534
 2804SOL    HW211246   3.074   0.079   4.568
 2804SOL    HW311247   3.107   0.224   4.595
 2804SOL    MW411248   3.116   0.152   4.547
 2805SOL     OW11249   3.770   4.066   4.865
 2805SOL    HW211250   3.855   4.106   4.882
 2805SOL    HW311251   3.719   4.136   4.822
 2805SOL    MW411252   3.774   4.081   4.861
 2806SOL     OW11253   3.814   3.629   4.551
 2806SOL    HW211254   3.879   3.559   4.555
 2806SOL    HW311255   3.811   3.653   4.458
 2806SOL    MW411256   3.822   3.623   4.539
 2807SOL     OW11257   2.986   3.896   4.563
 2807SOL    HW211258   2.963   3.803   4.558
 2807SOL    HW311259   2.902   3.940   4.578
 2807SOL    MW411260   2.972   3.890   4.564
 2808SOL     OW11261   2.990   4.413   4.497
 2808SOL    HW211262   2.912   4.372   4.536
 2808SOL    HW311263   3.063   4.365   4.534
 2808SOL    MW411264   2.989   4.401   4.507
 2809SOL     OW11265   3.038   0.467   4.428
 2809SOL    HW211266   3.038   0.436   4.518
 2809SOL    HW311267   2.946   0.473   4.404
 2809SOL    MW411268   3.026   0.464   4.437
 2810SOL     OW11269   3.385   0.807   4.812
 2810SOL    HW211270   3.464   0.841   4.771
 2810SOL    HW311271   3.313   0.845   4.762
 2810SOL    MW411272   3.386   0.816   4.800
 2811SOL     OW11273   2.398   0.422   4.503
 2811SOL    HW211274   2.480   0.409   4.551
 2811SOL    HW311275   2.368   0.509   4.529
 2811SOL    MW411276   2.405   0.432   4.513
 2812SOL     OW11277   2.437   1.118   4.712
 2812SOL    HW211278   2.494   1.052   4.672
 2812SOL    HW311279   2.480   1.201   4.691
 2812SOL    MW411280   2.450   1.120   4.704
 2813SOL     OW11281   2.921   4.665   4.640
 2813SOL    HW211282   2.925   4.578   4.600
 2813SOL    HW311283   2.861   4.714   4.583
 2813SOL    MW411284   2.913   4.660   4.627
 2814SOL     OW11285   3.050   0.371   4.689
 2814SOL    HW211286   3.098   0.432   4.745
 2814SOL    HW311287   2.965   0.360   4.733
 2814SOL    MW411288   3.045   0.378   4.702
 2815SOL     OW11289   3.289   1.277   4.715
 2815SOL    HW211290   3.217   1.333   4.685
 2815SOL    HW311291   3.252   1.228   4.788
 2815SOL    MW411292   3.274   1.278   4.721
 2816SOL     OW11293   2.869   1.267   4.529
 2816SOL    HW211294   2.887   1.174   4.538
 2816SOL    HW311295   2.880   1.285   4.436
 2816SOL    MW411296   2.873   1.257   4.518
 2817SOL     OW11297   4.056   0.907   4.487
 2817SOL    HW211298   4.038   0.873   4.400
 2817SOL    HW311299   4.116   0.843   4.526
 2817SOL    MW411300   4.062   0.894   4.481
 2818SOL     OW11301   3.487   1.380   4.551
 2818SOL    HW211302   3.525   1.466   4.567
 2818SOL    HW311303   3.439   1.359   4.631
 2818SOL    MW411304   3.486   1.389   4.563
 2819SOL     OW11305   3.380   1.822   4.593
 2819SOL    HW211306   3.372   1.917   4.582
 2819SOL    HW311307   3.293   1.788   4.572
 2819SOL    MW411308   3.368   1.830   4.589
 2820SOL     OW11309   3.354   2.098   4.531
 2820SOL    HW211310   3.271   2.135   4.563
 2820SOL    HW311311   3.345   2.097   4.436
 2820SOL    MW411312   3.341   2.103   4.523
 2821SOL     OW11313   3.601   1.637   4.539
 2821SOL    HW211314   3.531   1.698   4.564
 2821SOL    HW311315   3.595   1.631   4.444
 2821SOL    MW411316   3.591   1.644   4.530
 2822SOL     OW11317   2.872   2.651   4.501
 2822SOL    HW211318   2.818   2.652   4.580
 2822SOL    HW311319   2.946   2.595   4.523
 2822SOL    MW411320   2.875   2.644   4.514
 2823SOL     OW11321   3.415   2.597   4.630
 2823SOL    HW211322   3.324   2.587   4.603
 2823SOL    HW311323   3.437   2.687   4.607
 2823SOL    MW411324   3.406   2.608   4.624
 2824SOL     OW11325   3.134   2.536   4.555
 2824SOL    HW211326   3.160   2.526   4.464
 2824SOL    HW311327   3.151   2.450   4.595
 2824SOL    MW411328   3.140   2.523   4.548
 2825SOL     OW11329   3.859   3.103   4.600
 2825SOL    HW211330   3.933   3.121   4.541
 2825SOL    HW311331   3.857   3.008   4.609
 2825SOL    MW411332   3.868   3.093   4.593
 2826SOL     OW11333   3.228   2.974   4.651
 2826SOL    HW211334   3.256   3.059   4.684
 2826SOL    HW311335   3.307   2.936   4.612
 2826SOL    MW411336   3.242   2.980   4.650
 2827SOL     OW11337   3.556   3.138   4.505
 2827SOL    HW211338   3.578   3.160   4.415
 2827SOL    HW311339   3.641   3.123   4.547
 2827SOL    MW411340   3.570   3.139   4.499
 2828SOL     OW11341   3.928   2.848   4.499
 2828SOL    HW211342   4.024   2.850   4.507
 2828SOL    HW311343   3.902   2.768   4.545
 2828SOL    MW411344   3.938   2.837   4.506
 2829SOL     OW11345   3.607   3.441   4.597
 2829SOL    HW211346   3.666   3.515   4.588
 2829SOL    HW311347   3.639   3.377   4.534
 2829SOL    MW411348   3.619   3.442   4.588
 2830SOL     OW11349   3.685   4.282   4.586
 2830SOL    HW211350   3.772   4.320   4.573
 2830SOL    HW311351   3.696   4.189   4.566
 2830SOL    MW411352   3.698   4.275   4.582
 2831SOL     OW11353   3.201   4.281   4.642
 2831SOL    HW211354   3.203   4.303   4.735
 2831SOL    HW311355   3.284   4.316   4.607
 2831SOL    MW411356   3.213   4.289   4.650
 2832SOL     OW11357   3.406   0.183   4.526
 2832SOL    HW211358   3.315   0.156   4.540
 2832SOL    HW311359   3.400   0.253   4.461
 2832SOL    MW411360   3.393   0.188   4.519
 2833SOL     OW11361   3.411   4.383   4.509
 2833SOL    HW211362   3.479   4.325   4.542
 2833SOL    HW311363   3.459   4.457   4.471
 2833SOL    MW411364   3.426   4.385   4.509
 2834SOL     OW11365   3.677   3.998   4.543
 2834SOL    HW211366   3.747   3.957   4.594
 2834SOL    HW311367   3.602   3.941   4.555
 2834SOL    MW411368   3.677   3.985   4.552
 2835SOL     OW11369   3.780   0.074   4.592
 2835SOL    HW211370   3.770   0.088   4.686
 2835SOL    HW311371   3.707   0.017   4.567
 2835SOL    MW411372   3.769   0.068   4.601
 2836SOL     OW11373   3.360   1.041   4.569
 2836SOL    HW211374   3.444   1.011   4.605
 2836SOL    HW311375   3.347   1.127   4.609
 2836SOL    MW411376   3.370   1.049   4.579
 2837SOL     OW11377   2.808   0.311   4.828
 2837SOL    HW211378   2.767   0.353   4.904
 2837SOL    HW311379   2.777   0.221   4.831
 2837SOL    MW411380   2.799   0.305   4.839
 2838SOL     OW11381   4.169   1.618   4.622
 2838SOL    HW211382   4.097   1.561   4.596
 2838SOL    HW311383   4.242   1.558   4.639
 2838SOL    MW411384   4.169   1.603   4.621
 2839SOL     OW11385   3.867   0.982   4.675
 2839SOL    HW211386   3.835   1.063   4.636
 2839SOL    HW311387   3.938   0.954   4.617
 2839SOL    MW411388   3.872   0.989   4.662
 2840SOL     OW11389   4.434   0.874   4.567
 2840SOL    HW211390   4.457   0.863   4.475
 2840SOL    HW311391   4.516   0.855   4.614
 2840SOL    MW411392   4.448   0.870   4.561
 2841SOL     OW11393   4.309   0.465   4.570
 2841SOL    HW211394   4.302   0.480   4.476
 2841SOL    HW311395   4.227   0.420   4.593
 2841SOL    MW411396   4.297   0.461   4.560
 2842SOL     OW11397   3.571   1.634   4.269
 2842SOL    HW211398   3.634   1.577   4.224
 2842SOL    HW311399   3.487   1.613   4.227
 2842SOL    MW411400   3.569   1.624   4.257
 2843SOL     OW11401   3.887   1.605   4.343
 2843SOL    HW211402   3.966   1.658   4.341
 2843SOL    HW311403   3.839   1.636   4.419
 2843SOL    MW411404   3.891   1.616   4.353
 2844SOL     OW11405   3.647   2.186   4.518
 2844SOL    HW211406   3.558   2.151   4.516
 2844SOL    HW311407   3.701   2.113   4.547
 2844SOL    MW411408   3.642   2.172   4.522
 2845SOL     OW11409   3.851   1.753   4.590
 2845SOL    HW211410   3.764   1.716   4.603
 2845SOL    HW311411   3.902   1.721   4.665
 2845SOL    MW411412   3.846   1.744   4.602
 2846SOL     OW11413   0.201   1.894   4.853
 2846SOL    HW211414   0.286   1.858   4.829
 2846SOL    HW311415   0.221   1.964   4.915
 2846SOL    MW411416   0.215   1.899   4.858
 2847SOL     OW11417   3.873   2.009   4.512
 2847SOL    HW211418   3.958   2.048   4.533
 2847SOL    HW311419   3.882   1.917   4.534
 2847SOL    MW411420   3.885   2.002   4.518
 2848SOL     OW11421   3.896   2.607   4.618
 2848SOL    HW211422   3.880   2.619   4.712
 2848SOL    HW311423   3.831   2.541   4.592
 2848SOL    MW411424   3.885   2.600   4.627
 2849SOL     OW11425   4.129   2.530   4.473
 2849SOL    HW211426   4.061   2.556   4.535
 2849SOL    HW311427   4.171   2.612   4.447
 2849SOL    MW411428   4.125   2.544   4.478
 2850SOL     OW11429   4.367   3.166   4.493
 2850SOL    HW211430   4.416   3.190   4.414
 2850SOL    HW311431   4.397   3.078   4.514
 2850SOL    MW411432   4.378   3.158   4.485
 2851SOL     OW11433   3.150   3.389   4.548
 2851SOL    HW211434   3.190   3.346   4.623
 2851SOL    HW311435   3.191   3.346   4.472
 2851SOL    MW411436   3.160   3.378   4.548
 2852SOL     OW11437   4.088   3.220   4.455
 2852SOL    HW211438   4.181   3.199   4.456
 2852SOL    HW311439   4.065   3.224   4.362
 2852SOL    MW411440   4.097   3.217   4.443
 2853SOL     OW11441   3.349   3.575   4.497
 2853SOL    HW211442   3.278   3.515   4.520
 2853SOL    HW311443   3.427   3.535   4.536
 2853SOL    MW411444   3.350   3.562   4.505
 2854SOL     OW11445   4.272   3.587   4.509
 2854SOL    HW211446   4.266   3.615   4.418
 2854SOL    HW311447   4.185   3.554   4.530
 2854SOL    MW411448   4.260   3.586   4.500
 2855SOL     OW11449   0.235   2.810   4.486
 2855SOL    HW211450   0.228   2.825   4.392
 2855SOL    HW311451   0.284   2.886   4.519
 2855SOL    MW411452   0.241   2.822   4.478
 2856SOL     OW11453   4.069   4.006   4.476
 2856SOL    HW211454   4.093   4.088   4.519
 2856SOL    HW311455   3.999   3.970   4.530
 2856SOL    MW411456   4.063   4.012   4.489
 2857SOL     OW11457   3.932   4.398   4.498
 2857SOL    HW211458   3.885   4.393   4.415
 2857SOL    HW311459   3.963   4.489   4.503
 2857SOL    MW411460   3.930   4.410   4.488
 2858SOL     OW11461   3.575   4.614   4.454
 2858SOL    HW211462   3.616   4.639   4.371
 2858SOL    HW311463   3.522   4.691   4.478
 2858SOL    MW411464   3.573   4.628   4.446
 2859SOL     OW11465   3.596   0.910   4.622
 2859SOL    HW211466   3.687   0.934   4.638
 2859SOL    HW311467   3.600   0.842   4.555
 2859SOL    MW411468   3.608   0.904   4.615
 2860SOL     OW11469   3.689   0.532   4.637
 2860SOL    HW211470   3.756   0.578   4.688
 2860SOL    HW311471   3.668   0.592   4.565
 2860SOL    MW411472   3.695   0.546   4.634
 2861SOL     OW11473   0.053   0.310   4.636
 2861SOL    HW211474   0.129   0.367   4.647
 2861SOL    HW311475  -0.008   0.361   4.581
 2861SOL    MW411476   0.055   0.325   4.630
 2862SOL     OW11477   0.290   0.497   4.544
 2862SOL    HW211478   0.385   0.502   4.535
 2862SOL    HW311479   0.257   0.508   4.455
 2862SOL    MW411480   0.299   0.499   4.531
 2863SOL     OW11481   4.093   0.285   4.605
 2863SOL    HW211482   4.007   0.312   4.573
 2863SOL    HW311483   4.125   0.225   4.539
 2863SOL    MW411484   4.086   0.281   4.592
 2864SOL     OW11485   3.745   1.233   4.530
 2864SOL    HW211486   3.659   1.276   4.528
 2864SOL    HW311487   3.808   1.304   4.530
 2864SOL    MW411488   3.742   1.248   4.529
 2865SOL     OW11489   4.416   1.145   4.579
 2865SOL    HW211490   4.508   1.169   4.563
 2865SOL    HW311491   4.416   1.050   4.585
 2865SOL    MW411492   4.428   1.136   4.578
 2866SOL     OW11493   4.407   1.455   4.680
 2866SOL    HW211494   4.390   1.361   4.683
 2866SOL    HW311495   4.473   1.465   4.612
 2866SOL    MW411496   4.414   1.444   4.671
 2867SOL     OW11497   3.952   1.396   4.522
 2867SOL    HW211498   4.003   1.321   4.492
 2867SOL    HW311499   3.942   1.451   4.444
 2867SOL    MW411500   3.957   1.393   4.508
 2868SOL     OW11501   3.451   2.879   4.520
 2868SOL    HW211502   3.403   2.868   4.438
 2868SOL    HW311503   3.493   2.964   4.512
 2868SOL    MW411504   3.450   2.889   4.508
 2869SOL     OW11505   4.268   2.095   4.274
 2869SOL    HW211506   4.192   2.064   4.224
 2869SOL    HW311507   4.237   2.098   4.364
 2869SOL    MW411508   4.254   2.091   4.279
 2870SOL     OW11509   0.212   2.113   4.498
 2870SOL    HW211510   0.301   2.122   4.533
 2870SOL    HW311511   0.171   2.197   4.518
 2870SOL    MW411512   0.219   2.126   4.505
 2871SOL     OW11513   4.142   2.096   4.525
 2871SOL    HW211514   4.190   2.021   4.561
 2871SOL    HW311515   4.191   2.172   4.554
 2871SOL    MW411516   4.154   2.096   4.534
 2872SOL     OW11517   3.664   2.466   4.534
 2872SOL    HW211518   3.580   2.496   4.569
 2872SOL    HW311519   3.659   2.371   4.539
 2872SOL    MW411520   3.652   2.458   4.539
 2873SOL     OW11521   0.458   2.435   4.721
 2873SOL    HW211522   0.413   2.479   4.649
 2873SOL    HW311523   0.441   2.489   4.797
 2873SOL    MW411524   0.450   2.448   4.721
 2874SOL     OW11525   4.206   2.830   4.450
 2874SOL    HW211526   4.291   2.853   4.488
 2874SOL    HW311527   4.216   2.848   4.356
 2874SOL    MW411528   4.219   2.835   4.442
 2875SOL     OW11529   4.470   2.908   4.566
 2875SOL    HW211530   4.540   2.860   4.521
 2875SOL    HW311531   4.507   2.931   4.651
 2875SOL    MW411532   4.484   2.904   4.571
 2876SOL     OW11533   0.250   3.527   4.501
 2876SOL    HW211534   0.230   3.573   4.419
 2876SOL    HW311535   0.172   3.474   4.518
 2876SOL    MW411536   0.237   3.526   4.492
 2877SOL     OW11537   4.421   0.110   4.805
 2877SOL    HW211538   4.455   0.194   4.772
 2877SOL    HW311539   4.484   0.083   4.872
 2877SOL    MW411540   4.434   0.118   4.810
 2878SOL     OW11541   4.031   4.663   4.497
 2878SOL    HW211542   4.028   4.685   4.404
 2878SOL    HW311543   3.953   4.705   4.534
 2878SOL    MW411544   4.021   4.671   4.489
 2879SOL     OW11545   4.155   3.921   4.813
 2879SOL    HW211546   4.225   3.911   4.749
 2879SOL    HW311547   4.075   3.903   4.763
 2879SOL    MW411548   4.154   3.917   4.798
 2880SOL     OW11549   3.246   0.552   4.783
 2880SOL    HW211550   3.302   0.476   4.765
 2880SOL    HW311551   3.305   0.617   4.822
 2880SOL    MW411552   3.261   0.550   4.786
 2881SOL     OW11553   4.285   4.404   4.235
 2881SOL    HW211554   4.354   4.346   4.201
 2881SOL    HW311555   4.305   4.411   4.329
 2881SOL    MW411556   4.297   4.397   4.243
 2882NA      NA11557   2.733   4.158   0.690
 2883NA      NA11558   0.627   2.300   0.410
   4.49070   4.66690  10.00000
