Gromacs Runs On Most of All Computer Systems in water t=  60.00000 step= 60000
11558
    1RG35     P    1   2.166   2.804   4.495
    1RG35   O1P    2   2.190   2.708   4.389
    1RG35   O2P    3   2.037   2.864   4.507
    1RG35   O5'    4   2.171   2.705   4.615
    1RG35   C5'    5   2.128   2.743   4.747
    1RG35  H5'1    6   2.031   2.793   4.745
    1RG35  H5'2    7   2.209   2.801   4.792
    1RG35   C4'    8   2.112   2.622   4.841
    1RG35   H4'    9   2.086   2.650   4.943
    1RG35   O4'   10   2.005   2.542   4.798
    1RG35   C1'   11   2.037   2.406   4.809
    1RG35   H1'   12   2.020   2.379   4.913
    1RG35    N9   13   1.949   2.326   4.716
    1RG35    C8   14   1.872   2.378   4.610
    1RG35    H8   15   1.875   2.478   4.569
    1RG35    N7   16   1.812   2.278   4.545
    1RG35    C5   17   1.853   2.164   4.610
    1RG35    C6   18   1.809   2.030   4.586
    1RG35    O6   19   1.729   1.990   4.500
    1RG35    N1   20   1.876   1.939   4.659
    1RG35    H1   21   1.865   1.843   4.629
    1RG35    C2   22   1.965   1.973   4.755
    1RG35    N2   23   2.037   1.870   4.806
    1RG35   H21   24   2.023   1.773   4.783
    1RG35   H22   25   2.121   1.889   4.860
    1RG35    N3   26   2.006   2.091   4.784
    1RG35    C4   27   1.946   2.190   4.709
    1RG35   C3'   28   2.230   2.524   4.857
    1RG35   H3'   29   2.320   2.571   4.816
    1RG35   C2'   30   2.184   2.398   4.782
    1RG35  H2'1   31   2.200   2.399   4.674
    1RG35   O2'   32   2.245   2.284   4.844
    1RG35  HO'2   33   2.183   2.213   4.826
    1RG35   O3'   34   2.256   2.496   4.996
    1RG35   H3T   35   2.300   2.410   5.003
    1RG35   O3P   36   2.276   2.898   4.521
    2SOL     OW   37   0.462   0.057   0.460
    2SOL    HW2   38   0.522   0.116   0.415
    2SOL    HW3   39   0.380   0.107   0.467
    2SOL    MW4   40   0.459   0.071   0.455
    3SOL     OW   41   3.979   0.084   0.487
    3SOL    HW2   42   4.067   0.117   0.468
    3SOL    HW3   43   3.984  -0.010   0.469
    3SOL    MW4   44   3.991   0.076   0.482
    4SOL     OW   45   3.495   0.271   0.447
    4SOL    HW2   46   3.502   0.366   0.447
    4SOL    HW3   47   3.401   0.253   0.446
    4SOL    MW4   48   3.484   0.281   0.447
    5SOL     OW   49   0.062   1.615   0.505
    5SOL    HW2   50   0.045   1.631   0.598
    5SOL    HW3   51   0.051   1.520   0.496
    5SOL    MW4   52   0.058   1.604   0.516
    6SOL     OW   53   1.370   0.903   0.529
    6SOL    HW2   54   1.361   0.894   0.624
    6SOL    HW3   55   1.280   0.917   0.498
    6SOL    MW4   56   1.357   0.904   0.537
    7SOL     OW   57   0.229   0.545   0.462
    7SOL    HW2   58   0.195   0.548   0.552
    7SOL    HW3   59   0.242   0.452   0.445
    7SOL    MW4   60   0.226   0.533   0.472
    8SOL     OW   61   0.449   0.920   0.496
    8SOL    HW2   62   0.437   0.911   0.591
    8SOL    HW3   63   0.453   0.830   0.464
    8SOL    MW4   64   0.448   0.907   0.504
    9SOL     OW   65   0.857   0.869   0.452
    9SOL    HW2   66   0.860   0.874   0.548
    9SOL    HW3   67   0.791   0.933   0.427
    9SOL    MW4   68   0.849   0.878   0.462
   10SOL     OW   69   0.660   1.052   0.390
   10SOL    HW2   70   0.652   1.053   0.295
   10SOL    HW3   71   0.582   1.005   0.420
   10SOL    MW4   72   0.649   1.046   0.382
   11SOL     OW   73   0.666   1.541   0.295
   11SOL    HW2   74   0.740   1.486   0.322
   11SOL    HW3   75   0.591   1.505   0.344
   11SOL    MW4   76   0.665   1.529   0.305
   12SOL     OW   77   4.280   2.063   0.453
   12SOL    HW2   78   4.335   1.985   0.456
   12SOL    HW3   79   4.197   2.032   0.417
   12SOL    MW4   80   4.276   2.049   0.448
   13SOL     OW   81   0.063   1.827   0.144
   13SOL    HW2   82   0.042   1.920   0.131
   13SOL    HW3   83   0.096   1.798   0.059
   13SOL    MW4   84   0.065   1.836   0.131
   14SOL     OW   85   0.423   2.265   0.556
   14SOL    HW2   86   0.335   2.228   0.562
   14SOL    HW3   87   0.480   2.189   0.545
   14SOL    MW4   88   0.419   2.250   0.555
   15SOL     OW   89   0.149   2.619   0.405
   15SOL    HW2   90   0.204   2.666   0.467
   15SOL    HW3   91   0.210   2.572   0.348
   15SOL    MW4   92   0.164   2.619   0.406
   16SOL     OW   93   4.340   3.310   0.459
   16SOL    HW2   94   4.287   3.251   0.511
   16SOL    HW3   95   4.429   3.275   0.465
   16SOL    MW4   96   4.345   3.298   0.466
   17SOL     OW   97   0.014   2.953   0.389
   17SOL    HW2   98   0.070   2.897   0.335
   17SOL    HW3   99  -0.049   2.893   0.429
   17SOL    MW4  100   0.013   2.938   0.387
   18SOL     OW  101   0.438   3.477   0.369
   18SOL    HW2  102   0.498   3.421   0.418
   18SOL    HW3  103   0.485   3.560   0.359
   18SOL    MW4  104   0.453   3.480   0.374
   19SOL     OW  105   0.576   3.727   0.383
   19SOL    HW2  106   0.654   3.771   0.351
   19SOL    HW3  107   0.520   3.797   0.415
   19SOL    MW4  108   0.579   3.742   0.383
   20SOL     OW  109   3.908   3.291   0.432
   20SOL    HW2  110   3.896   3.377   0.473
   20SOL    HW3  111   3.974   3.306   0.364
   20SOL    MW4  112   3.915   3.305   0.428
   21SOL     OW  113   4.383   3.808   0.321
   21SOL    HW2  114   4.393   3.733   0.380
   21SOL    HW3  115   4.471   3.822   0.285
   21SOL    MW4  116   4.396   3.800   0.324
   22SOL     OW  117   4.451   4.496   0.431
   22SOL    HW2  118   4.446   4.493   0.336
   22SOL    HW3  119   4.386   4.433   0.461
   22SOL    MW4  120   4.442   4.488   0.423
   23SOL     OW  121   4.238   4.337   0.498
   23SOL    HW2  122   4.238   4.339   0.594
   23SOL    HW3  123   4.249   4.244   0.476
   23SOL    MW4  124   4.239   4.325   0.508
   24SOL     OW  125   4.282   4.046   0.430
   24SOL    HW2  126   4.305   3.960   0.396
   24SOL    HW3  127   4.198   4.033   0.473
   24SOL    MW4  128   4.274   4.033   0.431
   25SOL     OW  129   0.628   3.307   0.481
   25SOL    HW2  130   0.590   3.259   0.555
   25SOL    HW3  131   0.673   3.381   0.521
   25SOL    MW4  132   0.629   3.310   0.496
   26SOL     OW  133   0.461   4.453   0.505
   26SOL    HW2  134   0.372   4.426   0.526
   26SOL    HW3  135   0.459   4.549   0.510
   26SOL    MW4  136   0.449   4.462   0.509
   27SOL     OW  137   0.236   0.239   0.497
   27SOL    HW2  138   0.214   0.283   0.579
   27SOL    HW3  139   0.174   0.167   0.491
   27SOL    MW4  140   0.225   0.235   0.507
   28SOL     OW  141   4.443   0.611   0.395
   28SOL    HW2  142   4.538   0.612   0.414
   28SOL    HW3  143   4.415   0.701   0.414
   28SOL    MW4  144   4.452   0.623   0.400
   29SOL     OW  145   0.960   4.439   0.499
   29SOL    HW2  146   1.001   4.436   0.586
   29SOL    HW3  147   0.872   4.403   0.513
   29SOL    MW4  148   0.954   4.434   0.512
   30SOL     OW  149   1.116   0.973   0.429
   30SOL    HW2  150   1.030   0.935   0.445
   30SOL    HW3  151   1.132   0.959   0.336
   30SOL    MW4  152   1.107   0.966   0.419
   31SOL     OW  153   0.671   0.482   0.480
   31SOL    HW2  154   0.756   0.525   0.467
   31SOL    HW3  155   0.683   0.394   0.444
   31SOL    MW4  156   0.684   0.476   0.474
   32SOL     OW  157   0.274   1.126   0.519
   32SOL    HW2  158   0.205   1.097   0.460
   32SOL    HW3  159   0.340   1.057   0.516
   32SOL    MW4  160   0.274   1.113   0.511
   33SOL     OW  161   0.499   1.832   0.419
   33SOL    HW2  162   0.585   1.795   0.400
   33SOL    HW3  163   0.455   1.766   0.473
   33SOL    MW4  164   0.505   1.818   0.424
   34SOL     OW  165   0.292   1.943   0.267
   34SOL    HW2  166   0.361   1.887   0.300
   34SOL    HW3  167   0.226   1.883   0.233
   34SOL    MW4  168   0.292   1.928   0.267
   35SOL     OW  169   0.378   2.459   0.356
   35SOL    HW2  170   0.377   2.406   0.435
   35SOL    HW3  171   0.358   2.398   0.285
   35SOL    MW4  172   0.375   2.444   0.357
   36SOL     OW  173   0.637   2.304   0.229
   36SOL    HW2  174   0.707   2.245   0.253
   36SOL    HW3  175   0.558   2.249   0.227
   36SOL    MW4  176   0.636   2.289   0.231
   37SOL     OW  177   3.915   2.609   0.385
   37SOL    HW2  178   3.963   2.651   0.314
   37SOL    HW3  179   3.984   2.571   0.441
   37SOL    MW4  180   3.931   2.610   0.383
   38SOL     OW  181   0.647   2.687   0.227
   38SOL    HW2  182   0.732   2.717   0.196
   38SOL    HW3  183   0.596   2.767   0.240
   38SOL    MW4  184   0.651   2.701   0.225
   39SOL     OW  185   0.553   2.591   0.562
   39SOL    HW2  186   0.516   2.532   0.627
   39SOL    HW3  187   0.612   2.648   0.612
   39SOL    MW4  188   0.556   2.591   0.577
   40SOL     OW  189   0.110   3.227   0.454
   40SOL    HW2  190   0.191   3.243   0.406
   40SOL    HW3  191   0.079   3.142   0.420
   40SOL    MW4  192   0.116   3.218   0.443
   41SOL     OW  193   0.354   2.770   0.523
   41SOL    HW2  194   0.374   2.816   0.442
   41SOL    HW3  195   0.418   2.698   0.527
   41SOL    MW4  196   0.365   2.766   0.513
   42SOL     OW  197   0.928   0.413   0.177
   42SOL    HW2  198   0.950   0.446   0.090
   42SOL    HW3  199   0.924   0.491   0.232
   42SOL    MW4  200   0.930   0.428   0.173
   43SOL     OW  201   0.205   3.599   0.507
   43SOL    HW2  202   0.196   3.693   0.492
   43SOL    HW3  203   0.273   3.571   0.446
   43SOL    MW4  204   0.213   3.608   0.497
   44SOL     OW  205   0.732   3.552   0.529
   44SOL    HW2  206   0.658   3.604   0.497
   44SOL    HW3  207   0.730   3.564   0.624
   44SOL    MW4  208   0.722   3.560   0.537
   45SOL     OW  209   1.234   3.596   0.540
   45SOL    HW2  210   1.160   3.604   0.481
   45SOL    HW3  211   1.277   3.514   0.513
   45SOL    MW4  212   1.230   3.586   0.529
   46SOL     OW  213   0.209   4.331   0.550
   46SOL    HW2  214   0.142   4.388   0.513
   46SOL    HW3  215   0.171   4.243   0.548
   46SOL    MW4  216   0.195   4.327   0.545
   47SOL     OW  217   0.970   3.696   0.419
   47SOL    HW2  218   0.937   3.758   0.354
   47SOL    HW3  219   0.892   3.672   0.471
   47SOL    MW4  220   0.955   3.701   0.417
   48SOL     OW  221   0.719   4.317   0.549
   48SOL    HW2  222   0.636   4.365   0.543
   48SOL    HW3  223   0.739   4.316   0.643
   48SOL    MW4  224   0.711   4.323   0.561
   49SOL     OW  225   0.731   0.230   0.371
   49SOL    HW2  226   0.773   0.154   0.411
   49SOL    HW3  227   0.794   0.261   0.306
   49SOL    MW4  228   0.745   0.224   0.368
   50SOL     OW  229   0.927   0.616   0.373
   50SOL    HW2  230   0.920   0.710   0.390
   50SOL    HW3  231   0.991   0.585   0.437
   50SOL    MW4  232   0.934   0.624   0.384
   51SOL     OW  233   0.474   0.661   0.389
   51SOL    HW2  234   0.388   0.620   0.391
   51SOL    HW3  235   0.532   0.597   0.431
   51SOL    MW4  236   0.470   0.647   0.395
   52SOL     OW  237   1.374   0.611   0.513
   52SOL    HW2  238   1.382   0.706   0.521
   52SOL    HW3  239   1.461   0.581   0.487
   52SOL    MW4  240   1.386   0.620   0.511
   53SOL     OW  241   1.788   0.834   0.537
   53SOL    HW2  242   1.802   0.859   0.629
   53SOL    HW3  243   1.735   0.755   0.542
   53SOL    MW4  244   1.783   0.827   0.550
   54SOL     OW  245   1.607   1.049   0.507
   54SOL    HW2  246   1.528   0.994   0.501
   54SOL    HW3  247   1.679   0.989   0.488
   54SOL    MW4  248   1.606   1.034   0.504
   55SOL     OW  249   0.409   1.374   0.466
   55SOL    HW2  250   0.495   1.337   0.485
   55SOL    HW3  251   0.355   1.299   0.443
   55SOL    MW4  252   0.413   1.359   0.465
   56SOL     OW  253   0.676   1.295   0.519
   56SOL    HW2  254   0.685   1.211   0.474
   56SOL    HW3  255   0.755   1.343   0.495
   56SOL    MW4  256   0.687   1.290   0.510
   57SOL     OW  257   1.368   1.353   0.489
   57SOL    HW2  258   1.386   1.355   0.583
   57SOL    HW3  259   1.377   1.445   0.462
   57SOL    MW4  260   1.371   1.366   0.498
   58SOL     OW  261   0.897   1.427   0.427
   58SOL    HW2  262   0.974   1.373   0.443
   58SOL    HW3  263   0.926   1.516   0.448
   58SOL    MW4  264   0.911   1.432   0.432
   59SOL     OW  265   0.990   1.691   0.471
   59SOL    HW2  266   1.085   1.682   0.458
   59SOL    HW3  267   0.980   1.703   0.565
   59SOL    MW4  268   1.001   1.692   0.482
   60SOL     OW  269   0.197   2.099   0.515
   60SOL    HW2  270   0.121   2.139   0.473
   60SOL    HW3  271   0.250   2.064   0.444
   60SOL    MW4  272   0.194   2.100   0.500
   61SOL     OW  273   0.776   1.798   0.327
   61SOL    HW2  274   0.736   1.718   0.293
   61SOL    HW3  275   0.854   1.768   0.373
   61SOL    MW4  276   0.781   1.784   0.329
   62SOL     OW  277   0.829   2.450   0.479
   62SOL    HW2  278   0.912   2.407   0.460
   62SOL    HW3  279   0.819   2.444   0.574
   62SOL    MW4  280   0.838   2.444   0.489
   63SOL     OW  281   0.607   2.056   0.537
   63SOL    HW2  282   0.674   2.073   0.471
   63SOL    HW3  283   0.563   1.976   0.506
   63SOL    MW4  284   0.610   2.048   0.524
   64SOL     OW  285   0.945   2.705   0.401
   64SOL    HW2  286   0.930   2.611   0.411
   64SOL    HW3  287   0.867   2.746   0.436
   64SOL    MW4  288   0.933   2.698   0.407
   65SOL     OW  289   0.298   2.240   0.210
   65SOL    HW2  290   0.308   2.146   0.202
   65SOL    HW3  291   0.204   2.255   0.205
   65SOL    MW4  292   0.287   2.230   0.209
   66SOL     OW  293   0.505   2.947   0.333
   66SOL    HW2  294   0.481   3.040   0.331
   66SOL    HW3  295   0.571   2.941   0.402
   66SOL    MW4  296   0.511   2.959   0.342
   67SOL     OW  297   0.848   3.138   0.515
   67SOL    HW2  298   0.873   3.161   0.605
   67SOL    HW3  299   0.794   3.211   0.486
   67SOL    MW4  300   0.844   3.151   0.523
   68SOL     OW  301   1.591   3.603   0.503
   68SOL    HW2  302   1.675   3.632   0.468
   68SOL    HW3  303   1.535   3.681   0.499
   68SOL    MW4  304   1.594   3.617   0.498
   69SOL     OW  305   0.834   4.037   0.522
   69SOL    HW2  306   0.785   4.119   0.518
   69SOL    HW3  307   0.852   4.025   0.615
   69SOL    MW4  308   0.830   4.046   0.534
   70SOL     OW  309   0.453   3.991   0.473
   70SOL    HW2  310   0.473   3.975   0.565
   70SOL    HW3  311   0.444   4.086   0.466
   70SOL    MW4  312   0.455   4.001   0.484
   71SOL     OW  313   1.077   4.197   0.451
   71SOL    HW2  314   1.016   4.141   0.500
   71SOL    HW3  315   1.028   4.278   0.435
   71SOL    MW4  316   1.062   4.200   0.455
   72SOL     OW  317   1.123   0.501   0.533
   72SOL    HW2  318   1.114   0.423   0.480
   72SOL    HW3  319   1.218   0.517   0.537
   72SOL    MW4  320   1.134   0.493   0.527
   73SOL     OW  321   0.913   0.065   0.503
   73SOL    HW2  322   0.922  -0.030   0.499
   73SOL    HW3  323   0.891   0.084   0.594
   73SOL    MW4  324   0.912   0.055   0.515
   74SOL     OW  325   1.386   0.145   0.466
   74SOL    HW2  326   1.307   0.181   0.427
   74SOL    HW3  327   1.446   0.220   0.473
   74SOL    MW4  328   1.384   0.159   0.462
   75SOL     OW  329   1.641   0.555   0.525
   75SOL    HW2  330   1.650   0.468   0.486
   75SOL    HW3  331   1.620   0.538   0.617
   75SOL    MW4  332   1.639   0.541   0.532
   76SOL     OW  333   1.116   0.252   0.405
   76SOL    HW2  334   1.055   0.186   0.437
   76SOL    HW3  335   1.086   0.272   0.316
   76SOL    MW4  336   1.104   0.246   0.397
   77SOL     OW  337   2.055   0.685   0.512
   77SOL    HW2  338   2.071   0.681   0.418
   77SOL    HW3  339   1.974   0.735   0.520
   77SOL    MW4  340   2.046   0.691   0.501
   78SOL     OW  341   2.648   0.965   0.446
   78SOL    HW2  342   2.680   0.881   0.414
   78SOL    HW3  343   2.728   1.016   0.463
   78SOL    MW4  344   2.663   0.961   0.444
   79SOL     OW  345   1.735   1.364   0.470
   79SOL    HW2  346   1.688   1.432   0.518
   79SOL    HW3  347   1.668   1.319   0.419
   79SOL    MW4  348   1.720   1.367   0.469
   80SOL     OW  349   1.568   1.223   0.309
   80SOL    HW2  350   1.578   1.156   0.376
   80SOL    HW3  351   1.478   1.254   0.319
   80SOL    MW4  352   1.557   1.219   0.319
   81SOL     OW  353   1.106   1.248   0.479
   81SOL    HW2  354   1.195   1.281   0.467
   81SOL    HW3  355   1.114   1.153   0.472
   81SOL    MW4  356   1.119   1.239   0.477
   82SOL     OW  357   1.289   1.616   0.466
   82SOL    HW2  358   1.300   1.632   0.560
   82SOL    HW3  359   1.324   1.693   0.423
   82SOL    MW4  360   1.295   1.628   0.473
   83SOL     OW  361   1.119   2.392   0.417
   83SOL    HW2  362   1.215   2.398   0.417
   83SOL    HW3  363   1.101   2.299   0.430
   83SOL    MW4  364   1.129   2.381   0.419
   84SOL     OW  365   1.439   2.723   0.402
   84SOL    HW2  366   1.430   2.736   0.307
   84SOL    HW3  367   1.365   2.769   0.440
   84SOL    MW4  368   1.428   2.731   0.394
   85SOL     OW  369   1.942   2.220   0.335
   85SOL    HW2  370   1.978   2.305   0.359
   85SOL    HW3  371   1.989   2.157   0.388
   85SOL    MW4  372   1.953   2.223   0.345
   86SOL     OW  373   1.599   2.010   0.486
   86SOL    HW2  374   1.606   2.102   0.459
   86SOL    HW3  375   1.676   1.968   0.448
   86SOL    MW4  376   1.610   2.017   0.477
   87SOL     OW  377   0.810   2.094   0.338
   87SOL    HW2  378   0.895   2.095   0.382
   87SOL    HW3  379   0.796   2.003   0.314
   87SOL    MW4  380   0.819   2.082   0.341
   88SOL     OW  381   0.735   2.880   0.504
   88SOL    HW2  382   0.775   2.967   0.504
   88SOL    HW3  383   0.698   2.871   0.592
   88SOL    MW4  384   0.735   2.890   0.516
   89SOL     OW  385   2.050   2.473   0.401
   89SOL    HW2  386   2.054   2.568   0.411
   89SOL    HW3  387   2.131   2.440   0.439
   89SOL    MW4  388   2.061   2.481   0.407
   90SOL     OW  389   1.782   4.454   0.299
   90SOL    HW2  390   1.717   4.514   0.337
   90SOL    HW3  391   1.753   4.367   0.328
   90SOL    MW4  392   1.769   4.451   0.308
   91SOL     OW  393   1.412   3.829   0.473
   91SOL    HW2  394   1.338   3.768   0.484
   91SOL    HW3  395   1.373   3.916   0.483
   91SOL    MW4  396   1.397   3.832   0.476
   92SOL     OW  397   1.683   2.708   0.538
   92SOL    HW2  398   1.672   2.743   0.626
   92SOL    HW3  399   1.598   2.723   0.496
   92SOL    MW4  400   1.670   2.714   0.544
   93SOL     OW  401   1.738   3.479   0.175
   93SOL    HW2  402   1.741   3.422   0.098
   93SOL    HW3  403   1.687   3.429   0.239
   93SOL    MW4  404   1.732   3.465   0.173
   94SOL     OW  405   1.102   3.120   0.418
   94SOL    HW2  406   1.088   3.097   0.326
   94SOL    HW3  407   1.015   3.114   0.457
   94SOL    MW4  408   1.089   3.116   0.411
   95SOL     OW  409   2.127   3.718   0.425
   95SOL    HW2  410   2.116   3.633   0.467
   95SOL    HW3  411   2.192   3.703   0.356
   95SOL    MW4  412   2.134   3.705   0.421
   96SOL     OW  413   0.785   3.890   0.292
   96SOL    HW2  414   0.810   3.938   0.372
   96SOL    HW3  415   0.791   3.956   0.222
   96SOL    MW4  416   0.789   3.905   0.293
   97SOL     OW  417   2.005   4.456   0.139
   97SOL    HW2  418   1.970   4.471   0.051
   97SOL    HW3  419   1.929   4.433   0.191
   97SOL    MW4  420   1.991   4.455   0.134
   98SOL     OW  421   1.951   4.549   0.494
   98SOL    HW2  422   1.953   4.472   0.551
   98SOL    HW3  423   1.923   4.515   0.409
   98SOL    MW4  424   1.948   4.534   0.490
   99SOL     OW  425   1.938   0.305   0.534
   99SOL    HW2  426   1.970   0.363   0.603
   99SOL    HW3  427   1.907   0.227   0.580
   99SOL    MW4  428   1.938   0.302   0.549
  100SOL     OW  429   1.336   4.118   0.513
  100SOL    HW2  430   1.254   4.156   0.483
  100SOL    HW3  431   1.401   4.187   0.501
  100SOL    MW4  432   1.333   4.132   0.508
  101SOL     OW  433   2.352   0.644   0.541
  101SOL    HW2  434   2.257   0.649   0.551
  101SOL    HW3  435   2.378   0.730   0.509
  101SOL    MW4  436   2.343   0.656   0.538
  102SOL     OW  437   2.165   1.692   0.478
  102SOL    HW2  438   2.077   1.666   0.450
  102SOL    HW3  439   2.165   1.788   0.468
  102SOL    MW4  440   2.153   1.701   0.473
  103SOL     OW  441   2.381   0.960   0.553
  103SOL    HW2  442   2.346   1.035   0.505
  103SOL    HW3  443   2.476   0.970   0.548
  103SOL    MW4  444   2.389   0.971   0.546
  104SOL     OW  445   2.012   1.251   0.548
  104SOL    HW2  446   1.937   1.264   0.489
  104SOL    HW3  447   2.087   1.241   0.489
  104SOL    MW4  448   2.012   1.251   0.532
  105SOL     OW  449   2.382   1.470   0.503
  105SOL    HW2  450   2.469   1.509   0.495
  105SOL    HW3  451   2.322   1.540   0.474
  105SOL    MW4  452   2.385   1.485   0.498
  106SOL     OW  453   1.830   1.856   0.409
  106SOL    HW2  454   1.856   1.786   0.470
  106SOL    HW3  455   1.909   1.908   0.398
  106SOL    MW4  456   1.844   1.853   0.416
  107SOL     OW  457   1.324   1.940   0.460
  107SOL    HW2  458   1.417   1.956   0.447
  107SOL    HW3  459   1.316   1.918   0.553
  107SOL    MW4  460   1.335   1.939   0.471
  108SOL     OW  461   2.296   2.387   0.508
  108SOL    HW2  462   2.365   2.452   0.496
  108SOL    HW3  463   2.272   2.394   0.601
  108SOL    MW4  464   2.302   2.397   0.519
  109SOL     OW  465   1.812   3.276   0.495
  109SOL    HW2  466   1.866   3.355   0.483
  109SOL    HW3  467   1.869   3.204   0.470
  109SOL    MW4  468   1.826   3.277   0.490
  110SOL     OW  469   1.188   2.852   0.472
  110SOL    HW2  470   1.171   2.946   0.467
  110SOL    HW3  471   1.116   2.812   0.423
  110SOL    MW4  472   1.176   2.859   0.465
  111SOL     OW  473   1.574   3.356   0.379
  111SOL    HW2  474   1.655   3.313   0.406
  111SOL    HW3  475   1.581   3.445   0.415
  111SOL    MW4  476   1.586   3.362   0.387
  112SOL     OW  477   1.053   2.102   0.470
  112SOL    HW2  478   1.074   2.094   0.564
  112SOL    HW3  479   1.133   2.074   0.426
  112SOL    MW4  480   1.066   2.098   0.477
  113SOL     OW  481   4.029   1.980   0.346
  113SOL    HW2  482   3.993   1.902   0.388
  113SOL    HW3  483   3.957   2.043   0.347
  113SOL    MW4  484   4.015   1.978   0.352
  114SOL     OW  485   1.800   2.439   0.553
  114SOL    HW2  486   1.866   2.451   0.485
  114SOL    HW3  487   1.751   2.521   0.554
  114SOL    MW4  488   1.802   2.452   0.544
  115SOL     OW  489   1.388   2.448   0.444
  115SOL    HW2  490   1.462   2.398   0.408
  115SOL    HW3  491   1.412   2.540   0.428
  115SOL    MW4  492   1.401   2.454   0.437
  116SOL     OW  493   1.324   3.328   0.505
  116SOL    HW2  494   1.394   3.331   0.439
  116SOL    HW3  495   1.255   3.274   0.464
  116SOL    MW4  496   1.324   3.321   0.491
  117SOL     OW  497   2.191   3.245   0.452
  117SOL    HW2  498   2.126   3.185   0.416
  117SOL    HW3  499   2.206   3.213   0.541
  117SOL    MW4  500   2.184   3.233   0.459
  118SOL     OW  501   1.739   4.195   0.417
  118SOL    HW2  502   1.701   4.109   0.431
  118SOL    HW3  503   1.834   4.181   0.425
  118SOL    MW4  504   1.747   4.182   0.420
  119SOL     OW  505   1.676   3.923   0.500
  119SOL    HW2  506   1.589   3.886   0.511
  119SOL    HW3  507   1.726   3.854   0.455
  119SOL    MW4  508   1.671   3.909   0.496
  120SOL     OW  509   1.517   4.329   0.502
  120SOL    HW2  510   1.530   4.346   0.596
  120SOL    HW3  511   1.599   4.287   0.475
  120SOL    MW4  512   1.530   4.326   0.511
  121SOL     OW  513   1.563   4.603   0.424
  121SOL    HW2  514   1.497   4.669   0.444
  121SOL    HW3  515   1.533   4.524   0.470
  121SOL    MW4  516   1.551   4.601   0.433
  122SOL     OW  517   2.208   4.578   0.452
  122SOL    HW2  518   2.261   4.535   0.519
  122SOL    HW3  519   2.119   4.579   0.488
  122SOL    MW4  520   2.203   4.573   0.466
  123SOL     OW  521   2.196   0.204   0.478
  123SOL    HW2  522   2.197   0.116   0.441
  123SOL    HW3  523   2.103   0.227   0.484
  123SOL    MW4  524   2.184   0.196   0.474
  124SOL     OW  525   2.880   1.532   0.347
  124SOL    HW2  526   2.790   1.544   0.378
  124SOL    HW3  527   2.904   1.444   0.377
  124SOL    MW4  528   2.871   1.522   0.355
  125SOL     OW  529   2.802   0.704   0.485
  125SOL    HW2  530   2.788   0.609   0.481
  125SOL    HW3  531   2.897   0.713   0.487
  125SOL    MW4  532   2.812   0.692   0.485
  126SOL     OW  533   2.903   1.046   0.548
  126SOL    HW2  534   2.912   1.085   0.636
  126SOL    HW3  535   2.967   0.975   0.547
  126SOL    MW4  536   2.913   1.042   0.560
  127SOL     OW  537   2.995   1.292   0.449
  127SOL    HW2  538   2.960   1.205   0.430
  127SOL    HW3  539   2.981   1.303   0.543
  127SOL    MW4  540   2.989   1.282   0.459
  128SOL     OW  541   2.638   1.593   0.473
  128SOL    HW2  542   2.626   1.685   0.448
  128SOL    HW3  543   2.667   1.597   0.564
  128SOL    MW4  544   2.640   1.606   0.482
  129SOL     OW  545   3.039   1.910   0.476
  129SOL    HW2  546   2.981   1.959   0.534
  129SOL    HW3  547   2.996   1.913   0.391
  129SOL    MW4  548   3.026   1.917   0.472
  130SOL     OW  549   2.952   4.369   0.553
  130SOL    HW2  550   2.979   4.451   0.512
  130SOL    HW3  551   2.919   4.395   0.639
  130SOL    MW4  552   2.951   4.383   0.559
  131SOL     OW  553   2.105   1.957   0.497
  131SOL    HW2  554   2.063   1.979   0.580
  131SOL    HW3  555   2.190   2.002   0.501
  131SOL    MW4  556   2.111   1.966   0.509
  132SOL     OW  557   1.627   1.529   0.653
  132SOL    HW2  558   1.679   1.555   0.729
  132SOL    HW3  559   1.540   1.564   0.671
  132SOL    MW4  560   1.622   1.537   0.665
  133SOL     OW  561   2.399   2.127   0.526
  133SOL    HW2  562   2.361   2.212   0.504
  133SOL    HW3  563   2.476   2.119   0.470
  133SOL    MW4  564   2.404   2.137   0.516
  134SOL     OW  565   2.684   2.134   0.416
  134SOL    HW2  566   2.710   2.215   0.372
  134SOL    HW3  567   2.731   2.136   0.500
  134SOL    MW4  568   2.694   2.145   0.421
  135SOL     OW  569   2.627   2.825   0.490
  135SOL    HW2  570   2.618   2.912   0.451
  135SOL    HW3  571   2.574   2.828   0.570
  135SOL    MW4  572   2.619   2.837   0.495
  136SOL     OW  573   1.633   2.282   0.382
  136SOL    HW2  574   1.680   2.234   0.315
  136SOL    HW3  575   1.701   2.318   0.439
  136SOL    MW4  576   1.648   2.281   0.381
  137SOL     OW  577   1.939   2.807   0.491
  137SOL    HW2  578   1.970   2.808   0.581
  137SOL    HW3  579   1.851   2.770   0.497
  137SOL    MW4  580   1.931   2.802   0.504
  138SOL     OW  581   2.250   3.973   0.493
  138SOL    HW2  582   2.332   3.979   0.444
  138SOL    HW3  583   2.217   3.885   0.472
  138SOL    MW4  584   2.257   3.962   0.483
  139SOL     OW  585   2.473   3.946   0.300
  139SOL    HW2  586   2.554   3.913   0.338
  139SOL    HW3  587   2.431   3.868   0.263
  139SOL    MW4  588   2.478   3.931   0.300
  140SOL     OW  589   1.830   3.688   0.350
  140SOL    HW2  590   1.923   3.671   0.365
  140SOL    HW3  591   1.805   3.626   0.281
  140SOL    MW4  592   1.839   3.677   0.343
  141SOL     OW  593   2.026   3.465   0.535
  141SOL    HW2  594   2.090   3.395   0.519
  141SOL    HW3  595   2.041   3.491   0.626
  141SOL    MW4  596   2.036   3.459   0.545
  142SOL     OW  597   2.202   4.355   0.302
  142SOL    HW2  598   2.203   4.437   0.351
  142SOL    HW3  599   2.136   4.368   0.235
  142SOL    MW4  600   2.193   4.367   0.300
  143SOL     OW  601   2.021   4.173   0.441
  143SOL    HW2  602   2.074   4.093   0.445
  143SOL    HW3  603   2.070   4.232   0.384
  143SOL    MW4  604   2.035   4.170   0.434
  144SOL     OW  605   3.008   4.627   0.396
  144SOL    HW2  606   3.103   4.615   0.395
  144SOL    HW3  607   2.995   4.708   0.446
  144SOL    MW4  608   3.019   4.636   0.402
  145SOL     OW  609   2.350   3.697   0.291
  145SOL    HW2  610   2.404   3.644   0.233
  145SOL    HW3  611   2.391   3.688   0.377
  145SOL    MW4  612   2.363   3.689   0.295
  146SOL     OW  613   2.417   4.220   0.402
  146SOL    HW2  614   2.336   4.251   0.361
  146SOL    HW3  615   2.444   4.145   0.348
  146SOL    MW4  616   2.409   4.214   0.389
  147SOL     OW  617   2.436   0.378   0.413
  147SOL    HW2  618   2.410   0.463   0.448
  147SOL    HW3  619   2.355   0.340   0.380
  147SOL    MW4  620   2.422   0.384   0.413
  148SOL     OW  621   1.685   0.278   0.443
  148SOL    HW2  622   1.684   0.196   0.395
  148SOL    HW3  623   1.774   0.284   0.479
  148SOL    MW4  624   1.697   0.268   0.442
  149SOL     OW  625   3.043   0.425   0.405
  149SOL    HW2  626   3.057   0.459   0.316
  149SOL    HW3  627   3.117   0.366   0.419
  149SOL    MW4  628   3.055   0.422   0.395
  150SOL     OW  629   2.271   1.232   0.408
  150SOL    HW2  630   2.319   1.311   0.432
  150SOL    HW3  631   2.296   1.216   0.317
  150SOL    MW4  632   2.281   1.240   0.399
  151SOL     OW  633   3.073   0.839   0.482
  151SOL    HW2  634   3.128   0.910   0.448
  151SOL    HW3  635   3.109   0.820   0.568
  151SOL    MW4  636   3.085   0.846   0.489
  152SOL     OW  637   3.121   1.661   0.474
  152SOL    HW2  638   3.074   1.601   0.415
  152SOL    HW3  639   3.071   1.742   0.470
  152SOL    MW4  640   3.108   1.664   0.466
  153SOL     OW  641   2.948   1.779   0.234
  153SOL    HW2  642   2.949   1.684   0.245
  153SOL    HW3  643   3.005   1.795   0.158
  153SOL    MW4  644   2.956   1.769   0.225
  154SOL     OW  645   3.742   1.519   0.450
  154SOL    HW2  646   3.664   1.514   0.395
  154SOL    HW3  647   3.709   1.545   0.536
  154SOL    MW4  648   3.727   1.522   0.454
  155SOL     OW  649   2.690   0.154   0.733
  155SOL    HW2  650   2.670   0.228   0.790
  155SOL    HW3  651   2.679   0.188   0.644
  155SOL    MW4  652   2.686   0.168   0.729
  156SOL     OW  653   3.292   2.018   0.567
  156SOL    HW2  654   3.207   1.987   0.538
  156SOL    HW3  655   3.298   1.992   0.659
  156SOL    MW4  656   3.281   2.011   0.575
  157SOL     OW  657   2.744   2.423   0.311
  157SOL    HW2  658   2.826   2.468   0.328
  157SOL    HW3  659   2.720   2.448   0.221
  157SOL    MW4  660   2.751   2.432   0.301
  158SOL     OW  661   2.714   1.856   0.355
  158SOL    HW2  662   2.805   1.839   0.330
  158SOL    HW3  663   2.711   1.951   0.368
  158SOL    MW4  664   2.726   1.866   0.354
  159SOL     OW  665   2.569   2.538   0.495
  159SOL    HW2  666   2.580   2.633   0.496
  159SOL    HW3  667   2.633   2.508   0.430
  159SOL    MW4  668   2.579   2.547   0.487
  160SOL     OW  669   2.652   3.115   0.474
  160SOL    HW2  670   2.736   3.156   0.450
  160SOL    HW3  671   2.642   3.135   0.567
  160SOL    MW4  672   2.662   3.123   0.483
  161SOL     OW  673   2.899   3.273   0.390
  161SOL    HW2  674   2.975   3.219   0.414
  161SOL    HW3  675   2.911   3.353   0.441
  161SOL    MW4  676   2.911   3.276   0.400
  162SOL     OW  677   3.159   3.175   0.456
  162SOL    HW2  678   3.167   3.082   0.433
  162SOL    HW3  679   3.169   3.176   0.551
  162SOL    MW4  680   3.161   3.163   0.466
  163SOL     OW  681   2.463   3.323   0.389
  163SOL    HW2  682   2.522   3.252   0.412
  163SOL    HW3  683   2.375   3.288   0.405
  163SOL    MW4  684   2.459   3.309   0.394
  164SOL     OW  685   2.526   3.512   0.187
  164SOL    HW2  686   2.495   3.445   0.248
  164SOL    HW3  687   2.582   3.465   0.126
  164SOL    MW4  688   2.529   3.497   0.187
  165SOL     OW  689   3.380   3.606   0.327
  165SOL    HW2  690   3.386   3.516   0.358
  165SOL    HW3  691   3.393   3.599   0.232
  165SOL    MW4  692   3.382   3.593   0.318
  166SOL     OW  693   2.728   3.661   0.404
  166SOL    HW2  694   2.708   3.616   0.321
  166SOL    HW3  695   2.655   3.640   0.461
  166SOL    MW4  696   2.716   3.652   0.400
  167SOL     OW  697   2.502   3.574   0.533
  167SOL    HW2  698   2.482   3.558   0.626
  167SOL    HW3  699   2.500   3.487   0.493
  167SOL    MW4  700   2.499   3.560   0.540
  168SOL     OW  701   3.703   3.917   0.625
  168SOL    HW2  702   3.621   3.963   0.645
  168SOL    HW3  703   3.674   3.835   0.583
  168SOL    MW4  704   3.688   3.912   0.622
  169SOL     OW  705   3.169   4.226   0.446
  169SOL    HW2  706   3.134   4.137   0.439
  169SOL    HW3  707   3.105   4.272   0.501
  169SOL    MW4  708   3.156   4.220   0.453
  170SOL     OW  709   3.287   4.601   0.417
  170SOL    HW2  710   3.348   4.586   0.345
  170SOL    HW3  711   3.330   4.564   0.494
  170SOL    MW4  712   3.301   4.594   0.417
  171SOL     OW  713   3.410   4.362   0.546
  171SOL    HW2  714   3.335   4.331   0.495
  171SOL    HW3  715   3.469   4.401   0.481
  171SOL    MW4  716   3.408   4.363   0.531
  172SOL     OW  717   2.722   4.230   0.446
  172SOL    HW2  718   2.734   4.146   0.402
  172SOL    HW3  719   2.811   4.265   0.456
  172SOL    MW4  720   2.736   4.224   0.442
  173SOL     OW  721   2.642   0.180   0.464
  173SOL    HW2  722   2.562   0.226   0.438
  173SOL    HW3  723   2.685   0.158   0.381
  173SOL    MW4  724   2.637   0.183   0.450
  174SOL     OW  725   3.238   0.702   0.289
  174SOL    HW2  726   3.263   0.777   0.235
  174SOL    HW3  727   3.185   0.739   0.360
  174SOL    MW4  728   3.234   0.717   0.291
  175SOL     OW  729   2.785   0.433   0.509
  175SOL    HW2  730   2.723   0.365   0.483
  175SOL    HW3  731   2.864   0.414   0.460
  175SOL    MW4  732   2.787   0.422   0.499
  176SOL     OW  733   3.555   0.959   0.483
  176SOL    HW2  734   3.578   0.874   0.447
  176SOL    HW3  735   3.585   0.956   0.574
  176SOL    MW4  736   3.562   0.948   0.490
  177SOL     OW  737   2.779   0.061   0.235
  177SOL    HW2  738   2.771   0.018   0.150
  177SOL    HW3  739   2.853   0.017   0.277
  177SOL    MW4  740   2.788   0.049   0.229
  178SOL     OW  741   3.561   1.947   0.462
  178SOL    HW2  742   3.590   1.906   0.543
  178SOL    HW3  743   3.481   1.994   0.486
  178SOL    MW4  744   3.554   1.948   0.476
  179SOL     OW  745   3.387   1.713   0.505
  179SOL    HW2  746   3.410   1.804   0.487
  179SOL    HW3  747   3.297   1.704   0.473
  179SOL    MW4  748   3.378   1.724   0.499
  180SOL     OW  749   3.279   1.019   0.384
  180SOL    HW2  750   3.292   1.113   0.370
  180SOL    HW3  751   3.360   0.989   0.426
  180SOL    MW4  752   3.291   1.027   0.387
  181SOL     OW  753   3.906   1.759   0.458
  181SOL    HW2  754   3.847   1.689   0.432
  181SOL    HW3  755   3.858   1.807   0.526
  181SOL    MW4  756   3.892   1.756   0.463
  182SOL     OW  757   3.285   2.297   0.624
  182SOL    HW2  758   3.292   2.213   0.580
  182SOL    HW3  759   3.329   2.285   0.707
  182SOL    MW4  760   3.291   2.285   0.629
  183SOL     OW  761   3.573   2.727   0.619
  183SOL    HW2  762   3.626   2.692   0.691
  183SOL    HW3  763   3.520   2.652   0.590
  183SOL    MW4  764   3.573   2.712   0.625
  184SOL     OW  765   1.989   3.063   0.400
  184SOL    HW2  766   1.996   2.976   0.438
  184SOL    HW3  767   1.952   3.049   0.313
  184SOL    MW4  768   1.985   3.050   0.393
  185SOL     OW  769   3.285   2.597   0.326
  185SOL    HW2  770   3.347   2.605   0.253
  185SOL    HW3  771   3.341   2.578   0.402
  185SOL    MW4  772   3.301   2.596   0.326
  186SOL     OW  773   2.934   2.815   0.749
  186SOL    HW2  774   2.934   2.788   0.657
  186SOL    HW3  775   3.007   2.766   0.788
  186SOL    MW4  776   2.944   2.805   0.742
  187SOL     OW  777   3.225   0.208   0.488
  187SOL    HW2  778   3.205   0.224   0.580
  187SOL    HW3  779   3.243   0.114   0.483
  187SOL    MW4  780   3.225   0.198   0.499
  188SOL     OW  781   3.045   3.963   0.465
  188SOL    HW2  782   3.099   3.886   0.478
  188SOL    HW3  783   3.040   4.005   0.551
  188SOL    MW4  784   3.051   3.959   0.478
  189SOL     OW  785   3.594   3.679   0.497
  189SOL    HW2  786   3.523   3.677   0.434
  189SOL    HW3  787   3.553   3.655   0.580
  189SOL    MW4  788   3.579   3.676   0.500
  190SOL     OW  789   3.649   3.139   0.422
  190SOL    HW2  790   3.680   3.050   0.440
  190SOL    HW3  791   3.728   3.187   0.399
  190SOL    MW4  792   3.664   3.133   0.421
  191SOL     OW  793   3.403   3.337   0.379
  191SOL    HW2  794   3.318   3.299   0.399
  191SOL    HW3  795   3.463   3.262   0.373
  191SOL    MW4  796   3.400   3.322   0.381
  192SOL     OW  797   2.767   3.940   0.403
  192SOL    HW2  798   2.859   3.963   0.413
  192SOL    HW3  799   2.764   3.845   0.411
  192SOL    MW4  800   2.778   3.931   0.406
  193SOL     OW  801   2.749   3.324   0.131
  193SOL    HW2  802   2.782   3.294   0.216
  193SOL    HW3  803   2.820   3.305   0.070
  193SOL    MW4  804   2.763   3.317   0.135
  194SOL     OW  805   4.243   0.199   0.418
  194SOL    HW2  806   4.319   0.165   0.464
  194SOL    HW3  807   4.268   0.195   0.325
  194SOL    MW4  808   4.256   0.194   0.412
  195SOL     OW  809   3.674   0.054   0.518
  195SOL    HW2  810   3.625   0.128   0.482
  195SOL    HW3  811   3.761   0.061   0.478
  195SOL    MW4  812   3.679   0.065   0.508
  196SOL     OW  813   3.434   0.564   0.450
  196SOL    HW2  814   3.521   0.598   0.429
  196SOL    HW3  815   3.380   0.590   0.376
  196SOL    MW4  816   3.438   0.572   0.437
  197SOL     OW  817   3.682   0.671   0.386
  197SOL    HW2  818   3.734   0.664   0.467
  197SOL    HW3  819   3.739   0.636   0.318
  197SOL    MW4  820   3.696   0.666   0.388
  198SOL     OW  821   3.964   0.569   0.486
  198SOL    HW2  822   4.052   0.538   0.463
  198SOL    HW3  823   3.928   0.500   0.543
  198SOL    MW4  824   3.971   0.555   0.491
  199SOL     OW  825   4.362   0.848   0.511
  199SOL    HW2  826   4.268   0.844   0.491
  199SOL    HW3  827   4.396   0.917   0.454
  199SOL    MW4  828   4.354   0.857   0.501
  200SOL     OW  829   3.839   1.041   0.455
  200SOL    HW2  830   3.866   1.132   0.451
  200SOL    HW3  831   3.744   1.044   0.438
  200SOL    MW4  832   3.830   1.053   0.452
  201SOL     OW  833   4.166   1.681   0.511
  201SOL    HW2  834   4.078   1.692   0.475
  201SOL    HW3  835   4.224   1.706   0.440
  201SOL    MW4  836   4.162   1.686   0.497
  202SOL     OW  837   3.903   1.296   0.505
  202SOL    HW2  838   3.982   1.339   0.474
  202SOL    HW3  839   3.832   1.356   0.480
  202SOL    MW4  840   3.904   1.310   0.498
  203SOL     OW  841   3.306   1.302   0.441
  203SOL    HW2  842   3.331   1.275   0.529
  203SOL    HW3  843   3.211   1.308   0.443
  203SOL    MW4  844   3.297   1.299   0.453
  204SOL     OW  845   3.488   1.491   0.331
  204SOL    HW2  846   3.427   1.426   0.367
  204SOL    HW3  847   3.458   1.575   0.367
  204SOL    MW4  848   3.476   1.494   0.340
  205SOL     OW  849   3.678   2.386   0.417
  205SOL    HW2  850   3.756   2.442   0.412
  205SOL    HW3  851   3.712   2.297   0.420
  205SOL    MW4  852   3.693   2.382   0.417
  206SOL     OW  853   4.304   2.813   0.505
  206SOL    HW2  854   4.287   2.722   0.481
  206SOL    HW3  855   4.219   2.856   0.503
  206SOL    MW4  856   4.291   2.807   0.501
  207SOL     OW  857   3.012   2.544   0.366
  207SOL    HW2  858   3.035   2.508   0.452
  207SOL    HW3  859   3.096   2.555   0.322
  207SOL    MW4  860   3.026   2.541   0.372
  208SOL     OW  861   2.946   3.542   0.516
  208SOL    HW2  862   3.019   3.601   0.499
  208SOL    HW3  863   2.875   3.575   0.461
  208SOL    MW4  864   2.947   3.554   0.506
  209SOL     OW  865   3.181   2.884   0.446
  209SOL    HW2  866   3.213   2.808   0.398
  209SOL    HW3  867   3.087   2.870   0.453
  209SOL    MW4  868   3.173   2.872   0.440
  210SOL     OW  869   4.063   2.936   0.493
  210SOL    HW2  870   3.982   2.953   0.444
  210SOL    HW3  871   4.079   3.018   0.539
  210SOL    MW4  872   4.054   2.949   0.492
  211SOL     OW  873   3.783   2.852   0.462
  211SOL    HW2  874   3.836   2.777   0.435
  211SOL    HW3  875   3.705   2.814   0.503
  211SOL    MW4  876   3.780   2.837   0.464
  212SOL     OW  877   3.958   3.805   0.338
  212SOL    HW2  878   3.911   3.740   0.389
  212SOL    HW3  879   4.020   3.755   0.285
  212SOL    MW4  880   3.960   3.790   0.337
  213SOL     OW  881   3.444   2.494   0.524
  213SOL    HW2  882   3.404   2.411   0.548
  213SOL    HW3  883   3.526   2.469   0.481
  213SOL    MW4  884   3.450   2.480   0.521
  214SOL     OW  885   3.184   3.702   0.512
  214SOL    HW2  886   3.248   3.669   0.449
  214SOL    HW3  887   3.237   3.742   0.581
  214SOL    MW4  888   3.199   3.703   0.513
  215SOL     OW  889   4.421   3.582   0.489
  215SOL    HW2  890   4.384   3.495   0.478
  215SOL    HW3  891   4.515   3.567   0.501
  215SOL    MW4  892   4.428   3.569   0.489
  216SOL     OW  893   3.483   4.088   0.658
  216SOL    HW2  894   3.486   4.162   0.599
  216SOL    HW3  895   3.486   4.127   0.746
  216SOL    MW4  896   3.484   4.103   0.662
  217SOL     OW  897   3.742   4.326   0.487
  217SOL    HW2  898   3.753   4.236   0.457
  217SOL    HW3  899   3.769   4.324   0.579
  217SOL    MW4  900   3.747   4.314   0.495
  218SOL     OW  901   0.005   0.099   0.524
  218SOL    HW2  902  -0.006   0.008   0.494
  218SOL    HW3  903  -0.008   0.095   0.619
  218SOL    MW4  904   0.002   0.086   0.532
  219SOL     OW  905   4.026   0.856   0.536
  219SOL    HW2  906   3.955   0.909   0.499
  219SOL    HW3  907   3.999   0.765   0.519
  219SOL    MW4  908   4.013   0.851   0.529
  220SOL     OW  909   0.353   1.636   0.532
  220SOL    HW2  910   0.383   1.558   0.486
  220SOL    HW3  911   0.259   1.640   0.513
  220SOL    MW4  912   0.345   1.626   0.523
  221SOL     OW  913   4.225   0.469   0.494
  221SOL    HW2  914   4.243   0.376   0.481
  221SOL    HW3  915   4.300   0.514   0.456
  221SOL    MW4  916   4.237   0.462   0.488
  222SOL     OW  917   0.027   1.081   0.379
  222SOL    HW2  918  -0.001   1.171   0.399
  222SOL    HW3  919   0.033   1.078   0.284
  222SOL    MW4  920   0.024   1.093   0.369
  223SOL     OW  921   3.572   4.517   0.380
  223SOL    HW2  922   3.636   4.447   0.394
  223SOL    HW3  923   3.604   4.590   0.434
  223SOL    MW4  924   3.585   4.518   0.389
  224SOL     OW  925   4.179   1.394   0.494
  224SOL    HW2  926   4.196   1.348   0.576
  224SOL    HW3  927   4.195   1.486   0.514
  224SOL    MW4  928   4.183   1.400   0.508
  225SOL     OW  929   4.470   1.343   0.491
  225SOL    HW2  930   4.385   1.374   0.462
  225SOL    HW3  931   4.456   1.317   0.582
  225SOL    MW4  932   4.457   1.343   0.499
  226SOL     OW  933   4.200   2.046   0.128
  226SOL    HW2  934   4.137   2.001   0.184
  226SOL    HW3  935   4.164   2.134   0.117
  226SOL    MW4  936   4.187   2.052   0.134
  227SOL     OW  937   4.396   1.775   0.369
  227SOL    HW2  938   4.440   1.785   0.285
  227SOL    HW3  939   4.456   1.724   0.423
  227SOL    MW4  940   4.409   1.770   0.365
  228SOL     OW  941   4.480   2.219   0.376
  228SOL    HW2  942   4.460   2.305   0.412
  228SOL    HW3  943   4.404   2.165   0.399
  228SOL    MW4  944   4.467   2.223   0.384
  229SOL     OW  945   4.475   2.092   0.128
  229SOL    HW2  946   4.381   2.073   0.129
  229SOL    HW3  947   4.490   2.142   0.209
  229SOL    MW4  948   4.464   2.096   0.139
  230SOL     OW  949   4.424   2.459   0.488
  230SOL    HW2  950   4.494   2.511   0.448
  230SOL    HW3  951   4.450   2.452   0.580
  230SOL    MW4  952   4.437   2.465   0.495
  231SOL     OW  953   4.130   3.388   0.265
  231SOL    HW2  954   4.128   3.482   0.253
  231SOL    HW3  955   4.209   3.372   0.318
  231SOL    MW4  956   4.140   3.398   0.271
  232SOL     OW  957   4.152   2.543   0.516
  232SOL    HW2  958   4.112   2.509   0.596
  232SOL    HW3  959   4.224   2.483   0.498
  232SOL    MW4  960   4.156   2.531   0.525
  233SOL     OW  961   0.176   3.871   0.419
  233SOL    HW2  962   0.138   3.942   0.471
  233SOL    HW3  963   0.263   3.902   0.396
  233SOL    MW4  964   0.182   3.884   0.423
  234SOL     OW  965   4.145   3.654   0.200
  234SOL    HW2  966   4.219   3.712   0.221
  234SOL    HW3  967   4.150   3.643   0.105
  234SOL    MW4  968   4.156   3.660   0.190
  235SOL     OW  969   0.330   3.210   0.283
  235SOL    HW2  970   0.272   3.211   0.206
  235SOL    HW3  971   0.381   3.290   0.276
  235SOL    MW4  972   0.329   3.220   0.272
  236SOL     OW  973   3.871   3.590   0.515
  236SOL    HW2  974   3.778   3.595   0.491
  236SOL    HW3  975   3.871   3.589   0.610
  236SOL    MW4  976   3.858   3.590   0.524
  237SOL     OW  977   4.132   3.191   0.599
  237SOL    HW2  978   4.099   3.178   0.688
  237SOL    HW3  979   4.057   3.224   0.551
  237SOL    MW4  980   4.118   3.193   0.604
  238SOL     OW  981   0.050   4.091   0.557
  238SOL    HW2  982   0.024   4.068   0.646
  238SOL    HW3  983  -0.028   4.075   0.504
  238SOL    MW4  984   0.037   4.086   0.561
  239SOL     OW  985   4.025   3.983   0.549
  239SOL    HW2  986   4.020   3.908   0.489
  239SOL    HW3  987   3.955   4.042   0.520
  239SOL    MW4  988   4.015   3.981   0.537
  240SOL     OW  989   3.783   4.063   0.417
  240SOL    HW2  990   3.744   4.015   0.490
  240SOL    HW3  991   3.824   3.996   0.363
  240SOL    MW4  992   3.784   4.048   0.420
  241SOL     OW  993   3.996   4.480   0.415
  241SOL    HW2  994   4.073   4.429   0.440
  241SOL    HW3  995   3.927   4.414   0.405
  241SOL    MW4  996   3.997   4.464   0.417
  242SOL     OW  997   0.256   0.003   0.870
  242SOL    HW2  998   0.251  -0.090   0.849
  242SOL    HW3  999   0.167   0.036   0.856
  242SOL    MW4 1000   0.244  -0.005   0.866
  243SOL     OW 1001   0.012   0.125   0.812
  243SOL    HW2 1002  -0.070   0.085   0.843
  243SOL    HW3 1003   0.003   0.217   0.834
  243SOL    MW4 1004   0.000   0.132   0.819
  244SOL     OW 1005   4.455   0.401   0.856
  244SOL    HW2 1006   4.470   0.386   0.950
  244SOL    HW3 1007   4.533   0.449   0.827
  244SOL    MW4 1008   4.467   0.405   0.865
  245SOL     OW 1009   0.190   0.515   0.751
  245SOL    HW2 1010   0.276   0.490   0.786
  245SOL    HW3 1011   0.175   0.603   0.786
  245SOL    MW4 1012   0.199   0.523   0.760
  246SOL     OW 1013   0.189   0.779   0.882
  246SOL    HW2 1014   0.178   0.747   0.971
  246SOL    HW3 1015   0.104   0.817   0.859
  246SOL    MW4 1016   0.176   0.779   0.890
  247SOL     OW 1017   4.446   0.898   0.766
  247SOL    HW2 1018   4.386   0.839   0.813
  247SOL    HW3 1019   4.422   0.887   0.674
  247SOL    MW4 1020   4.435   0.889   0.760
  248SOL     OW 1021   4.483   1.159   0.840
  248SOL    HW2 1022   4.489   1.159   0.936
  248SOL    HW3 1023   4.475   1.067   0.817
  248SOL    MW4 1024   4.483   1.147   0.850
  249SOL     OW 1025   0.258   1.236   0.776
  249SOL    HW2 1026   0.182   1.187   0.807
  249SOL    HW3 1027   0.268   1.210   0.685
  249SOL    MW4 1028   0.249   1.226   0.768
  250SOL     OW 1029   0.214   1.489   0.863
  250SOL    HW2 1030   0.296   1.530   0.837
  250SOL    HW3 1031   0.219   1.400   0.828
  250SOL    MW4 1032   0.225   1.483   0.855
  251SOL     OW 1033   0.006   1.656   0.783
  251SOL    HW2 1034  -0.076   1.610   0.805
  251SOL    HW3 1035   0.075   1.594   0.807
  251SOL    MW4 1036   0.004   1.642   0.789
  252SOL     OW 1037   4.434   1.921   0.838
  252SOL    HW2 1038   4.512   1.974   0.824
  252SOL    HW3 1039   4.460   1.832   0.816
  252SOL    MW4 1040   4.447   1.916   0.834
  253SOL     OW 1041   0.206   2.018   0.791
  253SOL    HW2 1042   0.210   2.105   0.830
  253SOL    HW3 1043   0.214   2.034   0.697
  253SOL    MW4 1044   0.207   2.032   0.783
  254SOL     OW 1045   0.236   2.288   0.873
  254SOL    HW2 1046   0.222   2.294   0.968
  254SOL    HW3 1047   0.321   2.330   0.858
  254SOL    MW4 1048   0.245   2.294   0.884
  255SOL     OW 1049   0.009   2.425   0.779
  255SOL    HW2 1050  -0.068   2.388   0.822
  255SOL    HW3 1051   0.083   2.373   0.812
  255SOL    MW4 1052   0.009   2.413   0.789
  256SOL     OW 1053   0.006   2.677   0.872
  256SOL    HW2 1054  -0.008   2.670   0.966
  256SOL    HW3 1055   0.005   2.586   0.841
  256SOL    MW4 1056   0.004   2.664   0.880
  257SOL     OW 1057   0.238   2.803   0.789
  257SOL    HW2 1058   0.159   2.751   0.803
  257SOL    HW3 1059   0.255   2.799   0.695
  257SOL    MW4 1060   0.230   2.796   0.779
  258SOL     OW 1061   0.281   3.091   0.848
  258SOL    HW2 1062   0.276   3.106   0.943
  258SOL    HW3 1063   0.272   2.996   0.838
  258SOL    MW4 1064   0.279   3.081   0.859
  259SOL     OW 1065   0.054   3.192   0.729
  259SOL    HW2 1066   0.145   3.173   0.752
  259SOL    HW3 1067   0.054   3.196   0.633
  259SOL    MW4 1068   0.066   3.190   0.719
  260SOL     OW 1069   0.013   3.432   0.867
  260SOL    HW2 1070  -0.048   3.482   0.811
  260SOL    HW3 1071   0.012   3.344   0.831
  260SOL    MW4 1072   0.005   3.427   0.855
  261SOL     OW 1073   0.238   3.576   0.788
  261SOL    HW2 1074   0.158   3.525   0.799
  261SOL    HW3 1075   0.248   3.586   0.693
  261SOL    MW4 1076   0.229   3.570   0.777
  262SOL     OW 1077   0.230   3.859   0.850
  262SOL    HW2 1078   0.260   3.856   0.941
  262SOL    HW3 1079   0.224   3.767   0.824
  262SOL    MW4 1080   0.233   3.846   0.859
  263SOL     OW 1081   4.489   4.027   0.821
  263SOL    HW2 1082   4.415   3.969   0.838
  263SOL    HW3 1083   4.566   3.975   0.843
  263SOL    MW4 1084   4.489   4.013   0.826
  264SOL     OW 1085   0.019   4.297   0.927
  264SOL    HW2 1086   0.019   4.300   1.023
  264SOL    HW3 1087  -0.003   4.207   0.906
  264SOL    MW4 1088   0.016   4.286   0.937
  265SOL     OW 1089   0.244   4.393   0.816
  265SOL    HW2 1090   0.174   4.350   0.866
  265SOL    HW3 1091   0.223   4.372   0.725
  265SOL    MW4 1092   0.232   4.385   0.811
  266SOL     OW 1093   0.694   4.658   0.876
  266SOL    HW2 1094   0.687   4.665   0.971
  266SOL    HW3 1095   0.613   4.698   0.843
  266SOL    MW4 1096   0.682   4.664   0.884
  267SOL     OW 1097   0.479   0.126   0.738
  267SOL    HW2 1098   0.396   0.098   0.778
  267SOL    HW3 1099   0.474   0.095   0.648
  267SOL    MW4 1100   0.467   0.118   0.731
  268SOL     OW 1101   0.419   0.397   0.847
  268SOL    HW2 1102   0.497   0.441   0.813
  268SOL    HW3 1103   0.429   0.306   0.821
  268SOL    MW4 1104   0.431   0.391   0.839
  269SOL     OW 1105   0.656   0.512   0.763
  269SOL    HW2 1106   0.721   0.447   0.790
  269SOL    HW3 1107   0.656   0.508   0.667
  269SOL    MW4 1108   0.664   0.503   0.754
  270SOL     OW 1109   0.668   0.785   0.863
  270SOL    HW2 1110   0.589   0.836   0.846
  270SOL    HW3 1111   0.649   0.698   0.829
  270SOL    MW4 1112   0.655   0.780   0.856
  271SOL     OW 1113   0.429   0.897   0.776
  271SOL    HW2 1114   0.446   0.980   0.820
  271SOL    HW3 1115   0.357   0.857   0.826
  271SOL    MW4 1116   0.422   0.903   0.789
  272SOL     OW 1117   0.517   1.130   0.901
  272SOL    HW2 1118   0.595   1.169   0.861
  272SOL    HW3 1119   0.443   1.175   0.860
  272SOL    MW4 1120   0.517   1.141   0.890
  273SOL     OW 1121   0.723   1.260   0.771
  273SOL    HW2 1122   0.706   1.348   0.804
  273SOL    HW3 1123   0.705   1.266   0.677
  273SOL    MW4 1124   0.719   1.272   0.763
  274SOL     OW 1125   0.727   1.540   0.849
  274SOL    HW2 1126   0.715   1.529   0.943
  274SOL    HW3 1127   0.644   1.577   0.818
  274SOL    MW4 1128   0.714   1.544   0.857
  275SOL     OW 1129   0.461   1.625   0.793
  275SOL    HW2 1130   0.457   1.718   0.814
  275SOL    HW3 1131   0.446   1.621   0.698
  275SOL    MW4 1132   0.459   1.637   0.783
  276SOL     OW 1133   0.443   1.877   0.898
  276SOL    HW2 1134   0.461   1.893   0.991
  276SOL    HW3 1135   0.360   1.921   0.882
  276SOL    MW4 1136   0.435   1.885   0.908
  277SOL     OW 1137   0.672   2.013   0.809
  277SOL    HW2 1138   0.586   1.980   0.836
  277SOL    HW3 1139   0.673   2.003   0.714
  277SOL    MW4 1140   0.660   2.007   0.800
  278SOL     OW 1141   0.688   2.279   0.888
  278SOL    HW2 1142   0.688   2.272   0.984
  278SOL    HW3 1143   0.680   2.189   0.858
  278SOL    MW4 1144   0.687   2.266   0.897
  279SOL     OW 1145   0.479   2.410   0.771
  279SOL    HW2 1146   0.542   2.355   0.817
  279SOL    HW3 1147   0.452   2.359   0.694
  279SOL    MW4 1148   0.483   2.396   0.767
  280SOL     OW 1149   0.440   2.667   0.896
  280SOL    HW2 1150   0.426   2.582   0.853
  280SOL    HW3 1151   0.363   2.718   0.872
  280SOL    MW4 1152   0.428   2.662   0.887
  281SOL     OW 1153   0.648   2.799   0.751
  281SOL    HW2 1154   0.735   2.773   0.781
  281SOL    HW3 1155   0.587   2.747   0.804
  281SOL    MW4 1156   0.651   2.789   0.762
  282SOL     OW 1157   0.674   3.044   0.886
  282SOL    HW2 1158   0.608   3.102   0.849
  282SOL    HW3 1159   0.653   2.958   0.850
  282SOL    MW4 1160   0.662   3.040   0.877
  283SOL     OW 1161   0.504   3.220   0.751
  283SOL    HW2 1162   0.498   3.305   0.794
  283SOL    HW3 1163   0.427   3.172   0.782
  283SOL    MW4 1164   0.493   3.225   0.761
  284SOL     OW 1165   0.479   3.476   0.873
  284SOL    HW2 1166   0.467   3.467   0.967
  284SOL    HW3 1167   0.390   3.484   0.838
  284SOL    MW4 1168   0.466   3.476   0.880
  285SOL     OW 1169   0.700   3.613   0.801
  285SOL    HW2 1170   0.618   3.573   0.830
  285SOL    HW3 1171   0.695   3.703   0.832
  285SOL    MW4 1172   0.689   3.619   0.809
  286SOL     OW 1173   0.661   3.860   0.901
  286SOL    HW2 1174   0.741   3.903   0.872
  286SOL    HW3 1175   0.591   3.899   0.848
  286SOL    MW4 1176   0.662   3.870   0.890
  287SOL     OW 1177   0.467   3.970   0.740
  287SOL    HW2 1178   0.462   4.063   0.759
  287SOL    HW3 1179   0.384   3.934   0.772
  287SOL    MW4 1180   0.455   3.977   0.747
  288SOL     OW 1181   0.467   4.237   0.867
  288SOL    HW2 1182   0.485   4.240   0.961
  288SOL    HW3 1183   0.385   4.285   0.856
  288SOL    MW4 1184   0.458   4.244   0.878
  289SOL     OW 1185   0.717   4.389   0.834
  289SOL    HW2 1186   0.629   4.355   0.847
  289SOL    HW3 1187   0.707   4.484   0.839
  289SOL    MW4 1188   0.704   4.397   0.837
  290SOL     OW 1189   1.144   4.652   0.884
  290SOL    HW2 1190   1.219   4.696   0.844
  290SOL    HW3 1191   1.068   4.697   0.848
  290SOL    MW4 1192   1.144   4.664   0.874
  291SOL     OW 1193   0.922   0.128   0.793
  291SOL    HW2 1194   0.921   0.224   0.802
  291SOL    HW3 1195   0.837   0.100   0.827
  291SOL    MW4 1196   0.911   0.137   0.799
  292SOL     OW 1197   0.881   0.390   0.857
  292SOL    HW2 1198   0.858   0.386   0.950
  292SOL    HW3 1199   0.975   0.407   0.856
  292SOL    MW4 1200   0.890   0.392   0.869
  293SOL     OW 1201   1.152   0.474   0.819
  293SOL    HW2 1202   1.233   0.424   0.830
  293SOL    HW3 1203   1.131   0.467   0.726
  293SOL    MW4 1204   1.160   0.467   0.808
  294SOL     OW 1205   1.101   0.735   0.855
  294SOL    HW2 1206   1.089   0.724   0.949
  294SOL    HW3 1207   1.120   0.648   0.823
  294SOL    MW4 1208   1.102   0.722   0.863
  295SOL     OW 1209   0.902   0.859   0.731
  295SOL    HW2 1210   0.971   0.815   0.780
  295SOL    HW3 1211   0.820   0.830   0.772
  295SOL    MW4 1212   0.900   0.849   0.743
  296SOL     OW 1213   0.930   1.108   0.879
  296SOL    HW2 1214   0.944   1.022   0.839
  296SOL    HW3 1215   0.855   1.144   0.832
  296SOL    MW4 1216   0.922   1.102   0.868
  297SOL     OW 1217   1.110   1.290   0.752
  297SOL    HW2 1218   1.052   1.224   0.789
  297SOL    HW3 1219   1.102   1.281   0.658
  297SOL    MW4 1220   1.102   1.280   0.745
  298SOL     OW 1221   1.147   1.544   0.873
  298SOL    HW2 1222   1.076   1.604   0.851
  298SOL    HW3 1223   1.124   1.462   0.829
  298SOL    MW4 1224   1.135   1.541   0.865
  299SOL     OW 1225   0.952   1.703   0.751
  299SOL    HW2 1226   0.946   1.791   0.788
  299SOL    HW3 1227   0.881   1.654   0.794
  299SOL    MW4 1228   0.942   1.708   0.762
  300SOL     OW 1229   0.927   1.971   0.874
  300SOL    HW2 1230   0.919   1.954   0.968
  300SOL    HW3 1231   0.837   1.981   0.844
  300SOL    MW4 1232   0.914   1.970   0.883
  301SOL     OW 1233   1.136   2.110   0.750
  301SOL    HW2 1234   1.122   2.202   0.772
  301SOL    HW3 1235   1.062   2.065   0.791
  301SOL    MW4 1236   1.124   2.116   0.758
  302SOL     OW 1237   1.116   2.388   0.826
  302SOL    HW2 1238   1.130   2.360   0.916
  302SOL    HW3 1239   1.205   2.400   0.791
  302SOL    MW4 1240   1.130   2.386   0.833
  303SOL     OW 1241   0.849   2.472   0.754
  303SOL    HW2 1242   0.935   2.448   0.788
  303SOL    HW3 1243   0.787   2.427   0.812
  303SOL    MW4 1244   0.852   2.463   0.767
  304SOL     OW 1245   0.903   2.728   0.837
  304SOL    HW2 1246   0.899   2.727   0.933
  304SOL    HW3 1247   0.886   2.638   0.811
  304SOL    MW4 1248   0.900   2.716   0.846
  305SOL     OW 1249   1.154   2.808   0.744
  305SOL    HW2 1250   1.073   2.770   0.777
  305SOL    HW3 1251   1.144   2.807   0.649
  305SOL    MW4 1252   1.142   2.803   0.736
  306SOL     OW 1253   1.142   3.075   0.847
  306SOL    HW2 1254   1.053   3.096   0.820
  306SOL    HW3 1255   1.156   2.985   0.815
  306SOL    MW4 1256   1.132   3.066   0.839
  307SOL     OW 1257   0.892   3.180   0.781
  307SOL    HW2 1258   0.896   3.266   0.824
  307SOL    HW3 1259   0.813   3.139   0.817
  307SOL    MW4 1260   0.882   3.186   0.791
  308SOL     OW 1261   0.880   3.433   0.886
  308SOL    HW2 1262   0.959   3.480   0.861
  308SOL    HW3 1263   0.809   3.492   0.860
  308SOL    MW4 1264   0.881   3.447   0.879
  309SOL     OW 1265   1.125   3.564   0.813
  309SOL    HW2 1266   1.197   3.526   0.863
  309SOL    HW3 1267   1.157   3.565   0.723
  309SOL    MW4 1268   1.139   3.559   0.808
  310SOL     OW 1269   1.122   3.840   0.830
  310SOL    HW2 1270   1.121   3.843   0.925
  310SOL    HW3 1271   1.110   3.747   0.809
  310SOL    MW4 1272   1.120   3.828   0.840
  311SOL     OW 1273   0.893   3.982   0.794
  311SOL    HW2 1274   0.911   4.065   0.840
  311SOL    HW3 1275   0.973   3.931   0.803
  311SOL    MW4 1276   0.906   3.986   0.802
  312SOL     OW 1277   0.942   4.236   0.875
  312SOL    HW2 1278   1.014   4.296   0.855
  312SOL    HW3 1279   0.864   4.284   0.849
  312SOL    MW4 1280   0.942   4.251   0.869
  313SOL     OW 1281   1.121   4.409   0.756
  313SOL    HW2 1282   1.201   4.359   0.773
  313SOL    HW3 1283   1.132   4.489   0.806
  313SOL    MW4 1284   1.133   4.413   0.765
  314SOL     OW 1285   1.617   4.663   0.845
  314SOL    HW2 1286   1.624   4.657   0.940
  314SOL    HW3 1287   1.525   4.682   0.828
  314SOL    MW4 1288   1.606   4.665   0.855
  315SOL     OW 1289   1.366   0.092   0.756
  315SOL    HW2 1290   1.383   0.179   0.793
  315SOL    HW3 1291   1.369   0.105   0.662
  315SOL    MW4 1292   1.368   0.105   0.749
  316SOL     OW 1293   1.403   0.338   0.880
  316SOL    HW2 1294   1.401   0.342   0.975
  316SOL    HW3 1295   1.481   0.389   0.856
  316SOL    MW4 1296   1.413   0.346   0.889
  317SOL     OW 1297   1.607   0.494   0.803
  317SOL    HW2 1298   1.597   0.580   0.843
  317SOL    HW3 1299   1.682   0.455   0.848
  317SOL    MW4 1300   1.615   0.500   0.814
  318SOL     OW 1301   1.559   0.756   0.901
  318SOL    HW2 1302   1.631   0.805   0.862
  318SOL    HW3 1303   1.480   0.795   0.865
  318SOL    MW4 1304   1.559   0.767   0.891
  319SOL     OW 1305   1.335   0.875   0.797
  319SOL    HW2 1306   1.321   0.964   0.829
  319SOL    HW3 1307   1.251   0.831   0.812
  319SOL    MW4 1308   1.322   0.881   0.803
  320SOL     OW 1309   1.324   1.153   0.888
  320SOL    HW2 1310   1.397   1.180   0.832
  320SOL    HW3 1311   1.248   1.200   0.853
  320SOL    MW4 1312   1.323   1.163   0.876
  321SOL     OW 1313   1.552   1.230   0.746
  321SOL    HW2 1314   1.600   1.313   0.750
  321SOL    HW3 1315   1.589   1.185   0.669
  321SOL    MW4 1316   1.564   1.235   0.736
  322SOL     OW 1317   1.715   1.626   0.910
  322SOL    HW2 1318   1.661   1.603   0.986
  322SOL    HW3 1319   1.802   1.595   0.933
  322SOL    MW4 1320   1.719   1.619   0.923
  323SOL     OW 1321   1.376   1.639   0.738
  323SOL    HW2 1322   1.380   1.727   0.776
  323SOL    HW3 1323   1.306   1.595   0.785
  323SOL    MW4 1324   1.367   1.645   0.749
  324SOL     OW 1325   1.348   1.922   0.811
  324SOL    HW2 1326   1.352   1.917   0.906
  324SOL    HW3 1327   1.276   1.983   0.793
  324SOL    MW4 1328   1.339   1.930   0.821
  325SOL     OW 1329   1.599   2.012   0.775
  325SOL    HW2 1330   1.510   1.976   0.784
  325SOL    HW3 1331   1.619   2.003   0.682
  325SOL    MW4 1332   1.590   2.006   0.764
  326SOL     OW 1333   1.577   2.279   0.893
  326SOL    HW2 1334   1.510   2.305   0.830
  326SOL    HW3 1335   1.608   2.194   0.861
  326SOL    MW4 1336   1.572   2.271   0.880
  327SOL     OW 1337   1.386   2.401   0.733
  327SOL    HW2 1338   1.385   2.488   0.772
  327SOL    HW3 1339   1.376   2.417   0.639
  327SOL    MW4 1340   1.385   2.415   0.726
  328SOL     OW 1341   1.374   2.665   0.820
  328SOL    HW2 1342   1.365   2.656   0.915
  328SOL    HW3 1343   1.300   2.719   0.794
  328SOL    MW4 1344   1.363   2.671   0.829
  329SOL     OW 1345   1.605   2.824   0.787
  329SOL    HW2 1346   1.583   2.915   0.809
  329SOL    HW3 1347   1.525   2.775   0.804
  329SOL    MW4 1348   1.592   2.830   0.792
  330SOL     OW 1349   1.570   3.082   0.862
  330SOL    HW2 1350   1.568   3.065   0.956
  330SOL    HW3 1351   1.488   3.128   0.844
  330SOL    MW4 1352   1.559   3.086   0.872
  331SOL     OW 1353   1.361   3.231   0.764
  331SOL    HW2 1354   1.270   3.203   0.771
  331SOL    HW3 1355   1.373   3.252   0.671
  331SOL    MW4 1356   1.351   3.230   0.753
  332SOL     OW 1357   1.374   3.471   0.897
  332SOL    HW2 1358   1.444   3.523   0.859
  332SOL    HW3 1359   1.378   3.388   0.850
  332SOL    MW4 1360   1.384   3.467   0.886
  333SOL     OW 1361   1.635   3.610   0.795
  333SOL    HW2 1362   1.710   3.569   0.837
  333SOL    HW3 1363   1.635   3.576   0.706
  333SOL    MW4 1364   1.645   3.600   0.789
  334SOL     OW 1365   1.590   3.873   0.867
  334SOL    HW2 1366   1.515   3.913   0.823
  334SOL    HW3 1367   1.585   3.781   0.843
  334SOL    MW4 1368   1.580   3.866   0.858
  335SOL     OW 1369   1.328   4.003   0.772
  335SOL    HW2 1370   1.248   3.951   0.778
  335SOL    HW3 1371   1.324   4.042   0.684
  335SOL    MW4 1372   1.317   4.001   0.761
  336SOL     OW 1373   1.346   4.287   0.839
  336SOL    HW2 1374   1.435   4.318   0.824
  336SOL    HW3 1375   1.348   4.194   0.814
  336SOL    MW4 1376   1.358   4.279   0.834
  337SOL     OW 1377   1.600   4.399   0.781
  337SOL    HW2 1378   1.680   4.351   0.805
  337SOL    HW3 1379   1.619   4.490   0.802
  337SOL    MW4 1380   1.613   4.404   0.787
  338SOL     OW 1381   2.012   0.113   0.879
  338SOL    HW2 1382   2.103   0.121   0.849
  338SOL    HW3 1383   1.967   0.072   0.805
  338SOL    MW4 1384   2.018   0.109   0.865
  339SOL     OW 1385   1.827   0.080   0.659
  339SOL    HW2 1386   1.844   0.008   0.598
  339SOL    HW3 1387   1.750   0.051   0.708
  339SOL    MW4 1388   1.819   0.066   0.658
  340SOL     OW 1389   1.815   0.349   0.908
  340SOL    HW2 1390   1.805   0.253   0.906
  340SOL    HW3 1391   1.907   0.363   0.882
  340SOL    MW4 1392   1.826   0.338   0.904
  341SOL     OW 1393   2.011   0.498   0.725
  341SOL    HW2 1394   2.032   0.562   0.657
  341SOL    HW3 1395   2.096   0.473   0.761
  341SOL    MW4 1396   2.025   0.503   0.721
  342SOL     OW 1397   2.028   0.731   0.894
  342SOL    HW2 1398   2.110   0.766   0.858
  342SOL    HW3 1399   2.020   0.644   0.855
  342SOL    MW4 1400   2.038   0.724   0.884
  343SOL     OW 1401   1.798   0.860   0.818
  343SOL    HW2 1402   1.813   0.954   0.826
  343SOL    HW3 1403   1.872   0.819   0.863
  343SOL    MW4 1404   1.810   0.867   0.825
  344SOL     OW 1405   1.791   1.131   0.905
  344SOL    HW2 1406   1.869   1.170   0.865
  344SOL    HW3 1407   1.718   1.170   0.857
  344SOL    MW4 1408   1.792   1.142   0.893
  345SOL     OW 1409   2.006   1.285   0.817
  345SOL    HW2 1410   2.095   1.256   0.836
  345SOL    HW3 1411   2.001   1.289   0.722
  345SOL    MW4 1412   2.017   1.282   0.807
  346SOL     OW 1413   1.979   1.544   0.939
  346SOL    HW2 1414   2.037   1.607   0.896
  346SOL    HW3 1415   1.984   1.466   0.885
  346SOL    MW4 1416   1.987   1.542   0.926
  347SOL     OW 1417   1.920   1.585   0.387
  347SOL    HW2 1418   1.883   1.501   0.415
  347SOL    HW3 1419   1.854   1.622   0.329
  347SOL    MW4 1420   1.906   1.578   0.383
  348SOL     OW 1421   1.813   1.887   0.904
  348SOL    HW2 1422   1.780   1.797   0.904
  348SOL    HW3 1423   1.743   1.938   0.864
  348SOL    MW4 1424   1.799   1.882   0.899
  349SOL     OW 1425   1.987   2.038   0.735
  349SOL    HW2 1426   1.988   2.126   0.773
  349SOL    HW3 1427   1.933   1.986   0.795
  349SOL    MW4 1428   1.980   2.042   0.748
  350SOL     OW 1429   2.007   2.275   0.888
  350SOL    HW2 1430   2.006   2.254   0.982
  350SOL    HW3 1431   1.935   2.336   0.876
  350SOL    MW4 1432   1.998   2.280   0.899
  351SOL     OW 1433   1.804   2.437   0.823
  351SOL    HW2 1434   1.732   2.375   0.836
  351SOL    HW3 1435   1.813   2.443   0.728
  351SOL    MW4 1436   1.796   2.430   0.813
  352SOL     OW 1437   1.806   2.696   0.941
  352SOL    HW2 1438   1.800   2.608   0.902
  352SOL    HW3 1439   1.737   2.746   0.898
  352SOL    MW4 1440   1.796   2.691   0.930
  353SOL     OW 1441   2.005   2.834   0.778
  353SOL    HW2 1442   2.077   2.774   0.800
  353SOL    HW3 1443   1.931   2.802   0.831
  353SOL    MW4 1444   2.005   2.822   0.788
  354SOL     OW 1445   2.020   3.088   0.878
  354SOL    HW2 1446   1.938   3.130   0.852
  354SOL    HW3 1447   2.012   2.998   0.847
  354SOL    MW4 1448   2.008   3.081   0.870
  355SOL     OW 1449   1.797   3.205   0.781
  355SOL    HW2 1450   1.711   3.174   0.807
  355SOL    HW3 1451   1.791   3.214   0.686
  355SOL    MW4 1452   1.785   3.202   0.772
  356SOL     OW 1453   1.836   3.461   0.908
  356SOL    HW2 1454   1.848   3.445   1.001
  356SOL    HW3 1455   1.829   3.373   0.870
  356SOL    MW4 1456   1.837   3.447   0.915
  357SOL     OW 1457   2.048   3.581   0.787
  357SOL    HW2 1458   2.046   3.674   0.810
  357SOL    HW3 1459   1.971   3.545   0.832
  357SOL    MW4 1460   2.037   3.589   0.796
  358SOL     OW 1461   2.050   3.854   0.881
  358SOL    HW2 1462   2.035   3.875   0.973
  358SOL    HW3 1463   1.970   3.883   0.836
  358SOL    MW4 1464   2.037   3.861   0.887
  359SOL     OW 1465   1.820   3.977   0.754
  359SOL    HW2 1466   1.752   3.960   0.819
  359SOL    HW3 1467   1.787   3.938   0.673
  359SOL    MW4 1468   1.807   3.970   0.752
  360SOL     OW 1469   1.813   4.253   0.821
  360SOL    HW2 1470   1.797   4.238   0.914
  360SOL    HW3 1471   1.800   4.167   0.780
  360SOL    MW4 1472   1.809   4.239   0.828
  361SOL     OW 1473   2.029   4.342   0.667
  361SOL    HW2 1474   1.961   4.317   0.729
  361SOL    HW3 1475   2.028   4.273   0.601
  361SOL    MW4 1476   2.020   4.330   0.667
  362SOL     OW 1477   2.475   0.004   0.825
  362SOL    HW2 1478   2.486  -0.005   0.919
  362SOL    HW3 1479   2.552   0.052   0.795
  362SOL    MW4 1480   2.486   0.009   0.833
  363SOL     OW 1481   2.260   0.153   0.762
  363SOL    HW2 1482   2.338   0.103   0.785
  363SOL    HW3 1483   2.260   0.156   0.666
  363SOL    MW4 1484   2.270   0.147   0.752
  364SOL     OW 1485   2.217   0.411   0.875
  364SOL    HW2 1486   2.283   0.474   0.846
  364SOL    HW3 1487   2.246   0.328   0.838
  364SOL    MW4 1488   2.229   0.408   0.866
  365SOL     OW 1489   2.454   0.539   0.800
  365SOL    HW2 1490   2.453   0.552   0.705
  365SOL    HW3 1491   2.524   0.476   0.815
  365SOL    MW4 1492   2.463   0.533   0.789
  366SOL     OW 1493   2.477   0.799   0.913
  366SOL    HW2 1494   2.543   0.842   0.858
  366SOL    HW3 1495   2.481   0.707   0.886
  366SOL    MW4 1496   2.486   0.792   0.902
  367SOL     OW 1497   2.262   0.890   0.795
  367SOL    HW2 1498   2.336   0.850   0.840
  367SOL    HW3 1499   2.289   0.893   0.703
  367SOL    MW4 1500   2.275   0.885   0.789
  368SOL     OW 1501   2.248   1.155   0.859
  368SOL    HW2 1502   2.247   1.146   0.954
  368SOL    HW3 1503   2.243   1.066   0.826
  368SOL    MW4 1504   2.247   1.142   0.867
  369SOL     OW 1505   2.471   1.311   0.738
  369SOL    HW2 1506   2.402   1.268   0.788
  369SOL    HW3 1507   2.428   1.337   0.656
  369SOL    MW4 1508   2.456   1.308   0.733
  370SOL     OW 1509   2.446   1.545   0.868
  370SOL    HW2 1510   2.521   1.594   0.833
  370SOL    HW3 1511   2.453   1.459   0.827
  370SOL    MW4 1512   2.457   1.540   0.858
  371SOL     OW 1513   2.188   1.663   0.776
  371SOL    HW2 1514   2.275   1.623   0.784
  371SOL    HW3 1515   2.167   1.657   0.683
  371SOL    MW4 1516   2.197   1.657   0.765
  372SOL     OW 1517   2.213   1.925   0.850
  372SOL    HW2 1518   2.217   1.835   0.817
  372SOL    HW3 1519   2.139   1.964   0.804
  372SOL    MW4 1520   2.204   1.918   0.840
  373SOL     OW 1521   2.459   2.007   0.766
  373SOL    HW2 1522   2.381   1.979   0.814
  373SOL    HW3 1523   2.428   2.029   0.679
  373SOL    MW4 1524   2.445   2.006   0.761
  374SOL     OW 1525   2.479   2.260   0.882
  374SOL    HW2 1526   2.547   2.301   0.828
  374SOL    HW3 1527   2.467   2.173   0.843
  374SOL    MW4 1528   2.486   2.254   0.870
  375SOL     OW 1529   2.233   2.406   0.784
  375SOL    HW2 1530   2.302   2.364   0.834
  375SOL    HW3 1531   2.156   2.352   0.799
  375SOL    MW4 1532   2.232   2.394   0.793
  376SOL     OW 1533   2.238   2.686   0.840
  376SOL    HW2 1534   2.265   2.667   0.929
  376SOL    HW3 1535   2.223   2.600   0.801
  376SOL    MW4 1536   2.240   2.672   0.846
  377SOL     OW 1537   2.481   2.812   0.749
  377SOL    HW2 1538   2.545   2.780   0.813
  377SOL    HW3 1539   2.401   2.765   0.771
  377SOL    MW4 1540   2.479   2.802   0.761
  378SOL     OW 1541   2.451   3.075   0.842
  378SOL    HW2 1542   2.453   3.062   0.936
  378SOL    HW3 1543   2.465   2.988   0.805
  378SOL    MW4 1544   2.453   3.062   0.849
  379SOL     OW 1545   2.213   3.184   0.731
  379SOL    HW2 1546   2.142   3.147   0.784
  379SOL    HW3 1547   2.293   3.144   0.765
  379SOL    MW4 1548   2.214   3.174   0.742
  380SOL     OW 1549   2.241   3.398   0.890
  380SOL    HW2 1550   2.220   3.320   0.838
  380SOL    HW3 1551   2.179   3.464   0.859
  380SOL    MW4 1552   2.230   3.397   0.879
  381SOL     OW 1553   2.460   3.571   0.805
  381SOL    HW2 1554   2.544   3.538   0.837
  381SOL    HW3 1555   2.395   3.510   0.840
  381SOL    MW4 1556   2.462   3.558   0.814
  382SOL     OW 1557   2.518   3.856   0.826
  382SOL    HW2 1558   2.433   3.896   0.809
  382SOL    HW3 1559   2.506   3.764   0.803
  382SOL    MW4 1560   2.505   3.849   0.821
  383SOL     OW 1561   2.286   3.985   0.777
  383SOL    HW2 1562   2.206   3.944   0.810
  383SOL    HW3 1563   2.275   3.988   0.682
  383SOL    MW4 1564   2.274   3.980   0.769
  384SOL     OW 1565   2.250   4.277   0.802
  384SOL    HW2 1566   2.269   4.183   0.797
  384SOL    HW3 1567   2.175   4.288   0.743
  384SOL    MW4 1568   2.242   4.266   0.793
  385SOL     OW 1569   2.380   4.467   0.660
  385SOL    HW2 1570   2.411   4.544   0.708
  385SOL    HW3 1571   2.342   4.411   0.727
  385SOL    MW4 1572   2.379   4.470   0.675
  386SOL     OW 1573   2.906   0.036   0.865
  386SOL    HW2 1574   2.902  -0.058   0.849
  386SOL    HW3 1575   2.832   0.072   0.817
  386SOL    MW4 1576   2.896   0.029   0.856
  387SOL     OW 1577   2.666   4.549   0.492
  387SOL    HW2 1578   2.745   4.561   0.439
  387SOL    HW3 1579   2.630   4.637   0.503
  387SOL    MW4 1580   2.672   4.562   0.486
  388SOL     OW 1581   2.670   0.380   0.874
  388SOL    HW2 1582   2.697   0.367   0.966
  388SOL    HW3 1583   2.745   0.425   0.834
  388SOL    MW4 1584   2.684   0.384   0.881
  389SOL     OW 1585   2.861   0.544   0.783
  389SOL    HW2 1586   2.945   0.504   0.807
  389SOL    HW3 1587   2.840   0.506   0.698
  389SOL    MW4 1588   2.869   0.534   0.775
  390SOL     OW 1589   2.915   0.803   0.853
  390SOL    HW2 1590   2.894   0.817   0.946
  390SOL    HW3 1591   2.893   0.712   0.837
  390SOL    MW4 1592   2.909   0.793   0.863
  391SOL     OW 1593   2.676   0.886   0.737
  391SOL    HW2 1594   2.758   0.862   0.781
  391SOL    HW3 1595   2.692   0.864   0.645
  391SOL    MW4 1596   2.689   0.880   0.730
  392SOL     OW 1597   2.701   1.153   0.811
  392SOL    HW2 1598   2.696   1.063   0.781
  392SOL    HW3 1599   2.618   1.192   0.786
  392SOL    MW4 1600   2.690   1.146   0.803
  393SOL     OW 1601   2.928   1.293   0.733
  393SOL    HW2 1602   3.004   1.272   0.787
  393SOL    HW3 1603   2.854   1.256   0.780
  393SOL    MW4 1604   2.929   1.285   0.746
  394SOL     OW 1605   2.913   1.554   0.847
  394SOL    HW2 1606   2.989   1.604   0.817
  394SOL    HW3 1607   2.918   1.471   0.800
  394SOL    MW4 1608   2.924   1.550   0.837
  395SOL     OW 1609   2.674   1.660   0.761
  395SOL    HW2 1610   2.680   1.752   0.788
  395SOL    HW3 1611   2.750   1.619   0.800
  395SOL    MW4 1612   2.685   1.667   0.769
  396SOL     OW 1613   2.705   1.922   0.860
  396SOL    HW2 1614   2.693   1.927   0.955
  396SOL    HW3 1615   2.623   1.957   0.824
  396SOL    MW4 1616   2.692   1.928   0.868
  397SOL     OW 1617   2.865   2.070   0.637
  397SOL    HW2 1618   2.879   2.139   0.702
  397SOL    HW3 1619   2.832   1.996   0.687
  397SOL    MW4 1620   2.863   2.069   0.652
  398SOL     OW 1621   2.896   2.301   0.786
  398SOL    HW2 1622   2.915   2.302   0.880
  398SOL    HW3 1623   2.817   2.354   0.776
  398SOL    MW4 1624   2.888   2.308   0.797
  399SOL     OW 1625   2.651   2.435   0.763
  399SOL    HW2 1626   2.635   2.469   0.674
  399SOL    HW3 1627   2.667   2.514   0.816
  399SOL    MW4 1628   2.651   2.450   0.758
  400SOL     OW 1629   2.709   2.697   0.881
  400SOL    HW2 1630   2.730   2.695   0.975
  400SOL    HW3 1631   2.786   2.737   0.841
  400SOL    MW4 1632   2.722   2.702   0.888
  401SOL     OW 1633   2.898   2.759   0.489
  401SOL    HW2 1634   2.922   2.674   0.452
  401SOL    HW3 1635   2.803   2.760   0.489
  401SOL    MW4 1636   2.889   2.748   0.484
  402SOL     OW 1637   2.945   3.088   0.774
  402SOL    HW2 1638   2.855   3.120   0.765
  402SOL    HW3 1639   2.939   2.993   0.758
  402SOL    MW4 1640   2.932   3.079   0.771
  403SOL     OW 1641   2.690   3.199   0.741
  403SOL    HW2 1642   2.708   3.290   0.764
  403SOL    HW3 1643   2.618   3.173   0.798
  403SOL    MW4 1644   2.683   3.207   0.751
  404SOL     OW 1645   2.692   3.465   0.871
  404SOL    HW2 1646   2.696   3.460   0.967
  404SOL    HW3 1647   2.770   3.514   0.846
  404SOL    MW4 1648   2.702   3.471   0.880
  405SOL     OW 1649   2.951   3.557   0.799
  405SOL    HW2 1650   2.962   3.651   0.809
  405SOL    HW3 1651   2.931   3.544   0.707
  405SOL    MW4 1652   2.950   3.567   0.788
  406SOL     OW 1653   2.901   3.827   0.844
  406SOL    HW2 1654   2.915   3.832   0.939
  406SOL    HW3 1655   2.828   3.887   0.828
  406SOL    MW4 1656   2.893   3.836   0.854
  407SOL     OW 1657   2.722   3.998   0.720
  407SOL    HW2 1658   2.648   3.943   0.749
  407SOL    HW3 1659   2.726   3.984   0.625
  407SOL    MW4 1660   2.712   3.989   0.711
  408SOL     OW 1661   2.649   4.257   0.764
  408SOL    HW2 1662   2.649   4.273   0.858
  408SOL    HW3 1663   2.668   4.164   0.756
  408SOL    MW4 1664   2.651   4.247   0.775
  409SOL     OW 1665   2.876   4.422   0.802
  409SOL    HW2 1666   2.954   4.377   0.835
  409SOL    HW3 1667   2.806   4.357   0.812
  409SOL    MW4 1668   2.877   4.407   0.808
  410SOL     OW 1669   3.305   4.656   0.805
  410SOL    HW2 1670   3.334   4.668   0.895
  410SOL    HW3 1671   3.241   4.726   0.791
  410SOL    MW4 1672   3.301   4.667   0.815
  411SOL     OW 1673   3.121   0.171   0.751
  411SOL    HW2 1674   3.114   0.258   0.789
  411SOL    HW3 1675   3.043   0.125   0.780
  411SOL    MW4 1676   3.110   0.176   0.760
  412SOL     OW 1677   3.107   0.454   0.848
  412SOL    HW2 1678   3.130   0.431   0.938
  412SOL    HW3 1679   3.182   0.505   0.816
  412SOL    MW4 1680   3.120   0.458   0.855
  413SOL     OW 1681   3.353   0.529   0.722
  413SOL    HW2 1682   3.434   0.486   0.750
  413SOL    HW3 1683   3.367   0.549   0.629
  413SOL    MW4 1684   3.366   0.526   0.713
  414SOL     OW 1685   3.408   0.771   0.829
  414SOL    HW2 1686   3.339   0.820   0.784
  414SOL    HW3 1687   3.403   0.684   0.790
  414SOL    MW4 1688   3.398   0.766   0.818
  415SOL     OW 1689   3.164   0.865   0.735
  415SOL    HW2 1690   3.176   0.954   0.768
  415SOL    HW3 1691   3.101   0.825   0.795
  415SOL    MW4 1692   3.157   0.871   0.747
  416SOL     OW 1693   3.147   1.139   0.837
  416SOL    HW2 1694   3.162   1.148   0.931
  416SOL    HW3 1695   3.219   1.187   0.797
  416SOL    MW4 1696   3.158   1.147   0.844
  417SOL     OW 1697   3.357   1.250   0.708
  417SOL    HW2 1698   3.431   1.208   0.751
  417SOL    HW3 1699   3.359   1.340   0.739
  417SOL    MW4 1700   3.367   1.256   0.718
  418SOL     OW 1701   3.376   1.496   0.831
  418SOL    HW2 1702   3.391   1.502   0.925
  418SOL    HW3 1703   3.457   1.529   0.791
  418SOL    MW4 1704   3.389   1.501   0.838
  419SOL     OW 1705   3.150   1.645   0.748
  419SOL    HW2 1706   3.216   1.584   0.782
  419SOL    HW3 1707   3.154   1.632   0.653
  419SOL    MW4 1708   3.159   1.635   0.740
  420SOL     OW 1709   3.243   1.907   0.839
  420SOL    HW2 1710   3.205   1.902   0.927
  420SOL    HW3 1711   3.217   1.825   0.797
  420SOL    MW4 1712   3.235   1.896   0.845
  421SOL     OW 1713   3.502   2.001   0.855
  421SOL    HW2 1714   3.487   2.094   0.838
  421SOL    HW3 1715   3.415   1.961   0.844
  421SOL    MW4 1716   3.488   2.008   0.851
  422SOL     OW 1717   3.481   2.279   0.818
  422SOL    HW2 1718   3.440   2.294   0.903
  422SOL    HW3 1719   3.573   2.302   0.830
  422SOL    MW4 1720   3.488   2.284   0.831
  423SOL     OW 1721   3.065   2.460   0.616
  423SOL    HW2 1722   3.138   2.399   0.624
  423SOL    HW3 1723   2.998   2.425   0.675
  423SOL    MW4 1724   3.066   2.448   0.625
  424SOL     OW 1725   3.144   2.657   0.806
  424SOL    HW2 1726   3.116   2.602   0.732
  424SOL    HW3 1727   3.211   2.714   0.768
  424SOL    MW4 1728   3.149   2.657   0.791
  425SOL     OW 1729   3.317   2.851   0.691
  425SOL    HW2 1730   3.281   2.871   0.605
  425SOL    HW3 1731   3.405   2.817   0.673
  425SOL    MW4 1732   3.324   2.849   0.677
  426SOL     OW 1733   3.396   3.083   0.867
  426SOL    HW2 1734   3.373   3.095   0.960
  426SOL    HW3 1735   3.377   2.991   0.850
  426SOL    MW4 1736   3.390   3.072   0.877
  427SOL     OW 1737   3.188   3.198   0.727
  427SOL    HW2 1738   3.254   3.143   0.769
  427SOL    HW3 1739   3.104   3.167   0.760
  427SOL    MW4 1740   3.186   3.187   0.737
  428SOL     OW 1741   3.213   3.473   0.803
  428SOL    HW2 1742   3.224   3.379   0.785
  428SOL    HW3 1743   3.119   3.487   0.799
  428SOL    MW4 1744   3.202   3.462   0.800
  429SOL     OW 1745   3.460   3.597   0.714
  429SOL    HW2 1746   3.470   3.663   0.782
  429SOL    HW3 1747   3.376   3.554   0.734
  429SOL    MW4 1748   3.450   3.600   0.726
  430SOL     OW 1749   3.502   3.804   0.896
  430SOL    HW2 1750   3.597   3.818   0.900
  430SOL    HW3 1751   3.468   3.849   0.973
  430SOL    MW4 1752   3.510   3.812   0.907
  431SOL     OW 1753   3.076   4.032   0.743
  431SOL    HW2 1754   3.162   3.992   0.730
  431SOL    HW3 1755   3.021   3.961   0.776
  431SOL    MW4 1756   3.080   4.017   0.746
  432SOL     OW 1757   3.083   4.277   0.887
  432SOL    HW2 1758   3.170   4.300   0.854
  432SOL    HW3 1759   3.070   4.186   0.860
  432SOL    MW4 1760   3.093   4.268   0.879
  433SOL     OW 1761   3.314   4.389   0.794
  433SOL    HW2 1762   3.307   4.484   0.787
  433SOL    HW3 1763   3.343   4.361   0.707
  433SOL    MW4 1764   3.317   4.398   0.781
  434SOL     OW 1765   3.774   4.581   0.864
  434SOL    HW2 1766   3.844   4.632   0.823
  434SOL    HW3 1767   3.696   4.635   0.855
  434SOL    MW4 1768   3.773   4.594   0.858
  435SOL     OW 1769   3.557   0.089   0.778
  435SOL    HW2 1770   3.468   0.055   0.771
  435SOL    HW3 1771   3.593   0.080   0.690
  435SOL    MW4 1772   3.550   0.084   0.766
  436SOL     OW 1773   3.571   0.369   0.830
  436SOL    HW2 1774   3.593   0.374   0.923
  436SOL    HW3 1775   3.540   0.280   0.817
  436SOL    MW4 1776   3.570   0.358   0.841
  437SOL     OW 1777   3.821   0.479   0.759
  437SOL    HW2 1778   3.830   0.559   0.812
  437SOL    HW3 1779   3.732   0.449   0.776
  437SOL    MW4 1780   3.811   0.486   0.768
  438SOL     OW 1781   3.822   0.736   0.885
  438SOL    HW2 1782   3.815   0.763   0.977
  438SOL    HW3 1783   3.901   0.778   0.853
  438SOL    MW4 1784   3.831   0.745   0.893
  439SOL     OW 1785   3.629   0.906   0.747
  439SOL    HW2 1786   3.703   0.878   0.800
  439SOL    HW3 1787   3.557   0.849   0.773
  439SOL    MW4 1788   3.629   0.895   0.757
  440SOL     OW 1789   3.598   1.167   0.868
  440SOL    HW2 1790   3.585   1.152   0.962
  440SOL    HW3 1791   3.592   1.080   0.829
  440SOL    MW4 1792   3.596   1.153   0.876
  441SOL     OW 1793   3.825   1.311   0.789
  441SOL    HW2 1794   3.740   1.282   0.822
  441SOL    HW3 1795   3.827   1.283   0.698
  441SOL    MW4 1796   3.814   1.303   0.781
  442SOL     OW 1797   3.837   1.620   0.832
  442SOL    HW2 1798   3.932   1.623   0.819
  442SOL    HW3 1799   3.812   1.532   0.803
  442SOL    MW4 1800   3.846   1.609   0.827
  443SOL     OW 1801   3.578   1.600   0.675
  443SOL    HW2 1802   3.493   1.621   0.634
  443SOL    HW3 1803   3.623   1.685   0.680
  443SOL    MW4 1804   3.572   1.614   0.670
  444SOL     OW 1805   3.671   1.851   0.712
  444SOL    HW2 1806   3.748   1.823   0.763
  444SOL    HW3 1807   3.621   1.905   0.772
  444SOL    MW4 1808   3.675   1.854   0.727
  445SOL     OW 1809   3.835   2.116   0.701
  445SOL    HW2 1810   3.795   2.193   0.742
  445SOL    HW3 1811   3.876   2.069   0.773
  445SOL    MW4 1812   3.835   2.120   0.716
  446SOL     OW 1813   3.803   2.118   0.441
  446SOL    HW2 1814   3.725   2.062   0.446
  446SOL    HW3 1815   3.841   2.114   0.529
  446SOL    MW4 1816   3.798   2.110   0.453
  447SOL     OW 1817   3.766   2.349   0.831
  447SOL    HW2 1818   3.765   2.444   0.820
  447SOL    HW3 1819   3.764   2.335   0.925
  447SOL    MW4 1820   3.765   2.360   0.842
  448SOL     OW 1821   3.732   2.614   0.850
  448SOL    HW2 1822   3.709   2.641   0.938
  448SOL    HW3 1823   3.786   2.685   0.816
  448SOL    MW4 1824   3.736   2.627   0.857
  449SOL     OW 1825   3.873   2.831   0.782
  449SOL    HW2 1826   3.843   2.908   0.830
  449SOL    HW3 1827   3.885   2.862   0.692
  449SOL    MW4 1828   3.870   2.846   0.776
  450SOL     OW 1829   3.833   3.075   0.903
  450SOL    HW2 1830   3.913   3.127   0.900
  450SOL    HW3 1831   3.780   3.109   0.831
  450SOL    MW4 1832   3.837   3.087   0.893
  451SOL     OW 1833   3.635   3.173   0.746
  451SOL    HW2 1834   3.552   3.141   0.781
  451SOL    HW3 1835   3.631   3.154   0.652
  451SOL    MW4 1836   3.624   3.166   0.738
  452SOL     OW 1837   3.632   3.433   0.851
  452SOL    HW2 1838   3.637   3.347   0.809
  452SOL    HW3 1839   3.568   3.481   0.797
  452SOL    MW4 1840   3.624   3.428   0.838
  453SOL     OW 1841   3.883   3.594   0.805
  453SOL    HW2 1842   3.960   3.551   0.843
  453SOL    HW3 1843   3.809   3.537   0.829
  453SOL    MW4 1844   3.883   3.581   0.813
  454SOL     OW 1845   3.796   3.860   0.893
  454SOL    HW2 1846   3.779   3.885   0.802
  454SOL    HW3 1847   3.833   3.772   0.888
  454SOL    MW4 1848   3.799   3.852   0.880
  455SOL     OW 1849   3.294   3.871   0.708
  455SOL    HW2 1850   3.352   3.946   0.694
  455SOL    HW3 1851   3.324   3.833   0.791
  455SOL    MW4 1852   3.306   3.876   0.717
  456SOL     OW 1853   3.531   4.229   0.896
  456SOL    HW2 1854   3.612   4.261   0.856
  456SOL    HW3 1855   3.465   4.295   0.873
  456SOL    MW4 1856   3.533   4.242   0.887
  457SOL     OW 1857   3.763   4.330   0.763
  457SOL    HW2 1858   3.842   4.280   0.785
  457SOL    HW3 1859   3.777   4.416   0.804
  457SOL    MW4 1860   3.775   4.335   0.771
  458SOL     OW 1861   4.240   4.648   0.854
  458SOL    HW2 1862   4.239   4.648   0.950
  458SOL    HW3 1863   4.155   4.683   0.830
  458SOL    MW4 1864   4.229   4.653   0.864
  459SOL     OW 1865   3.972   0.064   0.765
  459SOL    HW2 1866   3.976   0.153   0.799
  459SOL    HW3 1867   3.972   0.075   0.669
  459SOL    MW4 1868   3.973   0.077   0.756
  460SOL     OW 1869   4.026   0.306   0.885
  460SOL    HW2 1870   4.099   0.359   0.851
  460SOL    HW3 1871   3.948   0.356   0.863
  460SOL    MW4 1872   4.025   0.319   0.878
  461SOL     OW 1873   4.209   0.489   0.774
  461SOL    HW2 1874   4.298   0.460   0.795
  461SOL    HW3 1875   4.202   0.480   0.679
  461SOL    MW4 1876   4.220   0.484   0.765
  462SOL     OW 1877   4.254   0.755   0.882
  462SOL    HW2 1878   4.175   0.809   0.874
  462SOL    HW3 1879   4.232   0.673   0.839
  462SOL    MW4 1880   4.240   0.752   0.875
  463SOL     OW 1881   4.018   0.889   0.803
  463SOL    HW2 1882   4.016   0.983   0.816
  463SOL    HW3 1883   4.030   0.877   0.709
  463SOL    MW4 1884   4.019   0.899   0.793
  464SOL     OW 1885   4.033   1.168   0.863
  464SOL    HW2 1886   4.027   1.161   0.959
  464SOL    HW3 1887   3.957   1.221   0.839
  464SOL    MW4 1888   4.022   1.174   0.873
  465SOL     OW 1889   4.261   1.285   0.736
  465SOL    HW2 1890   4.184   1.240   0.771
  465SOL    HW3 1891   4.335   1.233   0.767
  465SOL    MW4 1892   4.261   1.272   0.744
  466SOL     OW 1893   4.265   1.534   0.875
  466SOL    HW2 1894   4.266   1.524   0.970
  466SOL    HW3 1895   4.251   1.445   0.842
  466SOL    MW4 1896   4.263   1.521   0.883
  467SOL     OW 1897   4.098   1.711   0.783
  467SOL    HW2 1898   4.160   1.646   0.816
  467SOL    HW3 1899   4.122   1.722   0.691
  467SOL    MW4 1900   4.109   1.704   0.776
  468SOL     OW 1901   3.993   1.964   0.858
  468SOL    HW2 1902   4.014   1.871   0.852
  468SOL    HW3 1903   4.073   2.008   0.830
  468SOL    MW4 1904   4.007   1.957   0.854
  469SOL     OW 1905   4.233   2.074   0.736
  469SOL    HW2 1906   4.302   2.015   0.767
  469SOL    HW3 1907   4.251   2.087   0.643
  469SOL    MW4 1908   4.244   2.068   0.728
  470SOL     OW 1909   4.279   2.318   0.885
  470SOL    HW2 1910   4.204   2.366   0.849
  470SOL    HW3 1911   4.287   2.241   0.829
  470SOL    MW4 1912   4.270   2.314   0.872
  471SOL     OW 1913   4.050   2.443   0.761
  471SOL    HW2 1914   4.029   2.524   0.807
  471SOL    HW3 1915   3.980   2.383   0.785
  471SOL    MW4 1916   4.038   2.446   0.770
  472SOL     OW 1917   4.078   2.698   0.913
  472SOL    HW2 1918   4.151   2.753   0.884
  472SOL    HW3 1919   4.001   2.740   0.874
  472SOL    MW4 1920   4.077   2.711   0.904
  473SOL     OW 1921   4.288   2.839   0.790
  473SOL    HW2 1922   4.356   2.780   0.824
  473SOL    HW3 1923   4.296   2.832   0.695
  473SOL    MW4 1924   4.298   2.830   0.782
  474SOL     OW 1925   4.312   3.090   0.932
  474SOL    HW2 1926   4.298   3.012   0.878
  474SOL    HW3 1927   4.382   3.138   0.889
  474SOL    MW4 1928   4.319   3.086   0.919
  475SOL     OW 1929   4.070   3.195   0.864
  475SOL    HW2 1930   4.070   3.289   0.849
  475SOL    HW3 1931   4.158   3.175   0.896
  475SOL    MW4 1932   4.081   3.204   0.866
  476SOL     OW 1933   4.117   3.467   0.867
  476SOL    HW2 1934   4.130   3.474   0.962
  476SOL    HW3 1935   4.183   3.524   0.829
  476SOL    MW4 1936   4.127   3.475   0.875
  477SOL     OW 1937   4.338   3.612   0.754
  477SOL    HW2 1938   4.309   3.696   0.789
  477SOL    HW3 1939   4.365   3.630   0.664
  477SOL    MW4 1940   4.337   3.625   0.747
  478SOL     OW 1941   4.287   3.862   0.869
  478SOL    HW2 1942   4.306   3.842   0.961
  478SOL    HW3 1943   4.202   3.907   0.871
  478SOL    MW4 1944   4.278   3.865   0.882
  479SOL     OW 1945   4.044   3.978   0.826
  479SOL    HW2 1946   3.960   3.940   0.853
  479SOL    HW3 1947   4.046   3.966   0.731
  479SOL    MW4 1948   4.034   3.971   0.817
  480SOL     OW 1949   4.010   4.238   0.865
  480SOL    HW2 1950   4.090   4.280   0.832
  480SOL    HW3 1951   4.025   4.144   0.850
  480SOL    MW4 1952   4.023   4.231   0.859
  481SOL     OW 1953   4.277   4.385   0.781
  481SOL    HW2 1954   4.263   4.479   0.796
  481SOL    HW3 1955   4.352   4.362   0.835
  481SOL    MW4 1956   4.285   4.394   0.790
  482SOL     OW 1957   0.233   0.021   1.143
  482SOL    HW2 1958   0.313   0.069   1.165
  482SOL    HW3 1959   0.237   0.008   1.049
  482SOL    MW4 1960   0.244   0.025   1.134
  483SOL     OW 1961   4.474   0.103   1.233
  483SOL    HW2 1962   4.397   0.056   1.202
  483SOL    HW3 1963   4.549   0.052   1.201
  483SOL    MW4 1964   4.474   0.090   1.225
  484SOL     OW 1965   0.003   0.345   1.112
  484SOL    HW2 1966  -0.069   0.392   1.155
  484SOL    HW3 1967   0.003   0.259   1.153
  484SOL    MW4 1968  -0.007   0.340   1.123
  485SOL     OW 1969   0.223   0.452   1.257
  485SOL    HW2 1970   0.237   0.543   1.232
  485SOL    HW3 1971   0.155   0.420   1.199
  485SOL    MW4 1972   0.216   0.460   1.246
  486SOL     OW 1973   0.229   0.715   1.153
  486SOL    HW2 1974   0.311   0.760   1.172
  486SOL    HW3 1975   0.161   0.776   1.181
  486SOL    MW4 1976   0.231   0.729   1.160
  487SOL     OW 1977   0.039   0.883   1.243
  487SOL    HW2 1978   0.035   0.896   1.338
  487SOL    HW3 1979  -0.052   0.862   1.218
  487SOL    MW4 1980   0.026   0.882   1.253
  488SOL     OW 1981   0.054   1.129   1.119
  488SOL    HW2 1982  -0.015   1.184   1.157
  488SOL    HW3 1983   0.040   1.043   1.157
  488SOL    MW4 1984   0.043   1.125   1.129
  489SOL     OW 1985   0.267   1.274   1.247
  489SOL    HW2 1986   0.346   1.223   1.230
  489SOL    HW3 1987   0.198   1.228   1.199
  489SOL    MW4 1988   0.268   1.261   1.239
  490SOL     OW 1989   0.200   1.531   1.150
  490SOL    HW2 1990   0.214   1.445   1.189
  490SOL    HW3 1991   0.198   1.515   1.056
  490SOL    MW4 1992   0.202   1.518   1.143
  491SOL     OW 1993   4.476   1.684   1.213
  491SOL    HW2 1994   4.487   1.776   1.188
  491SOL    HW3 1995   4.553   1.640   1.176
  491SOL    MW4 1996   4.488   1.690   1.205
  492SOL     OW 1997   4.481   1.933   1.118
  492SOL    HW2 1998   4.400   1.973   1.149
  492SOL    HW3 1999   4.466   1.920   1.024
  492SOL    MW4 2000   4.468   1.936   1.109
  493SOL     OW 2001   0.209   2.077   1.261
  493SOL    HW2 2002   0.228   2.166   1.229
  493SOL    HW3 2003   0.135   2.048   1.208
  493SOL    MW4 2004   0.202   2.085   1.250
  494SOL     OW 2005   0.269   2.328   1.149
  494SOL    HW2 2006   0.338   2.367   1.203
  494SOL    HW3 2007   0.188   2.366   1.183
  494SOL    MW4 2008   0.267   2.339   1.161
  495SOL     OW 2009   0.021   2.412   1.236
  495SOL    HW2 2010   0.007   2.419   1.330
  495SOL    HW3 2011  -0.064   2.384   1.201
  495SOL    MW4 2012   0.008   2.409   1.244
  496SOL     OW 2013   4.477   2.665   1.157
  496SOL    HW2 2014   4.424   2.717   1.217
  496SOL    HW3 2015   4.496   2.585   1.205
  496SOL    MW4 2016   4.473   2.662   1.171
  497SOL     OW 2017   0.212   2.832   1.246
  497SOL    HW2 2018   0.205   2.830   1.342
  497SOL    HW3 2019   0.134   2.785   1.216
  497SOL    MW4 2020   0.201   2.825   1.255
  498SOL     OW 2021   0.258   3.096   1.132
  498SOL    HW2 2022   0.335   3.120   1.184
  498SOL    HW3 2023   0.222   3.019   1.177
  498SOL    MW4 2024   0.264   3.089   1.145
  499SOL     OW 2025   0.044   3.235   1.257
  499SOL    HW2 2026  -0.024   3.173   1.232
  499SOL    HW3 2027   0.125   3.199   1.222
  499SOL    MW4 2028   0.045   3.222   1.249
  500SOL     OW 2029   0.046   3.483   1.135
  500SOL    HW2 2030   0.045   3.397   1.176
  500SOL    HW3 2031   0.031   3.466   1.042
  500SOL    MW4 2032   0.044   3.470   1.128
  501SOL     OW 2033   0.266   3.609   1.244
  501SOL    HW2 2034   0.241   3.604   1.336
  501SOL    HW3 2035   0.186   3.589   1.195
  501SOL    MW4 2036   0.252   3.606   1.250
  502SOL     OW 2037   0.279   3.861   1.124
  502SOL    HW2 2038   0.217   3.915   1.173
  502SOL    HW3 2039   0.281   3.777   1.171
  502SOL    MW4 2040   0.271   3.857   1.137
  503SOL     OW 2041   0.095   4.018   1.247
  503SOL    HW2 2042   0.079   4.034   1.340
  503SOL    HW3 2043   0.017   3.971   1.218
  503SOL    MW4 2044   0.083   4.014   1.256
  504SOL     OW 2045   0.029   4.294   1.198
  504SOL    HW2 2046   0.109   4.346   1.210
  504SOL    HW3 2047   0.055   4.205   1.221
  504SOL    MW4 2048   0.043   4.289   1.202
  505SOL     OW 2049   0.263   4.416   1.260
  505SOL    HW2 2050   0.247   4.418   1.355
  505SOL    HW3 2051   0.270   4.508   1.235
  505SOL    MW4 2052   0.262   4.428   1.270
  506SOL     OW 2053   0.683   4.666   1.153
  506SOL    HW2 2054   0.769   4.686   1.188
  506SOL    HW3 2055   0.660   4.582   1.193
  506SOL    MW4 2056   0.691   4.657   1.163
  507SOL     OW 2057   0.460   0.135   1.251
  507SOL    HW2 2058   0.449   0.222   1.212
  507SOL    HW3 2059   0.548   0.108   1.227
  507SOL    MW4 2060   0.470   0.143   1.243
  508SOL     OW 2061   0.464   0.391   1.124
  508SOL    HW2 2062   0.378   0.408   1.162
  508SOL    HW3 2063   0.451   0.404   1.030
  508SOL    MW4 2064   0.451   0.395   1.116
  509SOL     OW 2065   0.675   0.505   1.257
  509SOL    HW2 2066   0.689   0.589   1.212
  509SOL    HW3 2067   0.597   0.469   1.216
  509SOL    MW4 2068   0.667   0.512   1.245
  510SOL     OW 2069   0.722   0.767   1.140
  510SOL    HW2 2070   0.643   0.809   1.173
  510SOL    HW3 2071   0.709   0.761   1.046
  510SOL    MW4 2072   0.710   0.772   1.132
  511SOL     OW 2073   0.467   0.848   1.211
  511SOL    HW2 2074   0.450   0.853   1.306
  511SOL    HW3 2075   0.470   0.939   1.183
  511SOL    MW4 2076   0.465   0.861   1.220
  512SOL     OW 2077   0.501   1.128   1.172
  512SOL    HW2 2078   0.560   1.193   1.210
  512SOL    HW3 2079   0.513   1.137   1.077
  512SOL    MW4 2080   0.511   1.138   1.164
  513SOL     OW 2081   0.684   1.322   1.272
  513SOL    HW2 2082   0.764   1.281   1.238
  513SOL    HW3 2083   0.673   1.400   1.219
  513SOL    MW4 2084   0.694   1.327   1.260
  514SOL     OW 2085   0.652   1.535   1.106
  514SOL    HW2 2086   0.726   1.582   1.143
  514SOL    HW3 2087   0.575   1.578   1.144
  514SOL    MW4 2088   0.652   1.547   1.116
  515SOL     OW 2089   0.439   1.650   1.239
  515SOL    HW2 2090   0.449   1.639   1.334
  515SOL    HW3 2091   0.351   1.616   1.220
  515SOL    MW4 2092   0.429   1.644   1.249
  516SOL     OW 2093   0.436   1.931   1.183
  516SOL    HW2 2094   0.431   1.840   1.211
  516SOL    HW3 2095   0.352   1.969   1.210
  516SOL    MW4 2096   0.424   1.924   1.190
  517SOL     OW 2097   0.687   2.010   1.261
  517SOL    HW2 2098   0.675   2.011   1.356
  517SOL    HW3 2099   0.598   1.999   1.226
  517SOL    MW4 2100   0.674   2.009   1.269
  518SOL     OW 2101   0.714   2.276   1.173
  518SOL    HW2 2102   0.652   2.330   1.222
  518SOL    HW3 2103   0.700   2.188   1.208
  518SOL    MW4 2104   0.704   2.271   1.184
  519SOL     OW 2105   0.486   2.425   1.277
  519SOL    HW2 2106   0.469   2.414   1.371
  519SOL    HW3 2107   0.471   2.518   1.261
  519SOL    MW4 2108   0.482   2.435   1.288
  520SOL     OW 2109   0.423   2.679   1.169
  520SOL    HW2 2110   0.352   2.742   1.184
  520SOL    HW3 2111   0.424   2.667   1.074
  520SOL    MW4 2112   0.414   2.686   1.158
  521SOL     OW 2113   0.666   2.794   1.293
  521SOL    HW2 2114   0.683   2.874   1.244
  521SOL    HW3 2115   0.577   2.770   1.269
  521SOL    MW4 2116   0.656   2.802   1.283
  522SOL     OW 2117   0.713   3.050   1.178
  522SOL    HW2 2118   0.786   3.102   1.211
  522SOL    HW3 2119   0.712   3.069   1.084
  522SOL    MW4 2120   0.723   3.059   1.170
  523SOL     OW 2121   0.486   3.170   1.289
  523SOL    HW2 2122   0.487   3.257   1.248
  523SOL    HW3 2123   0.570   3.131   1.263
  523SOL    MW4 2124   0.498   3.177   1.280
  524SOL     OW 2125   0.455   3.429   1.156
  524SOL    HW2 2126   0.523   3.477   1.204
  524SOL    HW3 2127   0.373   3.468   1.186
  524SOL    MW4 2128   0.453   3.440   1.167
  525SOL     OW 2129   0.705   3.566   1.258
  525SOL    HW2 2130   0.708   3.578   1.353
  525SOL    HW3 2131   0.712   3.654   1.222
  525SOL    MW4 2132   0.707   3.579   1.266
  526SOL     OW 2133   0.690   3.829   1.194
  526SOL    HW2 2134   0.631   3.886   1.243
  526SOL    HW3 2135   0.677   3.854   1.102
  526SOL    MW4 2136   0.680   3.839   1.188
  527SOL     OW 2137   0.476   4.005   1.248
  527SOL    HW2 2138   0.469   4.096   1.219
  527SOL    HW3 2139   0.420   3.956   1.187
  527SOL    MW4 2140   0.468   4.010   1.236
  528SOL     OW 2141   0.467   4.246   1.143
  528SOL    HW2 2142   0.547   4.272   1.188
  528SOL    HW3 2143   0.400   4.305   1.175
  528SOL    MW4 2144   0.469   4.257   1.153
  529SOL     OW 2145   0.651   4.413   1.281
  529SOL    HW2 2146   0.647   4.376   1.369
  529SOL    HW3 2147   0.725   4.368   1.240
  529SOL    MW4 2148   0.661   4.402   1.287
  530SOL     OW 2149   1.137   4.641   1.185
  530SOL    HW2 2150   1.128   4.549   1.209
  530SOL    HW3 2151   1.135   4.641   1.089
  530SOL    MW4 2152   1.135   4.629   1.175
  531SOL     OW 2153   0.908   0.108   1.254
  531SOL    HW2 2154   0.902   0.093   1.348
  531SOL    HW3 2155   0.990   0.065   1.228
  531SOL    MW4 2156   0.918   0.100   1.263
  532SOL     OW 2157   0.874   0.364   1.131
  532SOL    HW2 2158   0.872   0.281   1.179
  532SOL    HW3 2159   0.803   0.415   1.170
  532SOL    MW4 2160   0.864   0.359   1.142
  533SOL     OW 2161   1.087   0.492   1.255
  533SOL    HW2 2162   1.079   0.488   1.350
  533SOL    HW3 2163   1.015   0.439   1.222
  533SOL    MW4 2164   1.077   0.484   1.263
  534SOL     OW 2165   1.092   0.744   1.136
  534SOL    HW2 2166   1.028   0.799   1.182
  534SOL    HW3 2167   1.086   0.658   1.179
  534SOL    MW4 2168   1.083   0.740   1.148
  535SOL     OW 2169   0.917   0.929   1.249
  535SOL    HW2 2170   0.915   1.017   1.209
  535SOL    HW3 2171   0.863   0.876   1.190
  535SOL    MW4 2172   0.909   0.934   1.236
  536SOL     OW 2173   0.906   1.189   1.163
  536SOL    HW2 2174   0.997   1.207   1.187
  536SOL    HW3 2175   0.909   1.176   1.068
  536SOL    MW4 2176   0.919   1.190   1.154
  537SOL     OW 2177   1.164   1.245   1.244
  537SOL    HW2 2178   1.152   1.235   1.338
  537SOL    HW3 2179   1.246   1.201   1.225
  537SOL    MW4 2180   1.173   1.238   1.254
  538SOL     OW 2181   1.091   1.519   1.141
  538SOL    HW2 2182   1.104   1.425   1.152
  538SOL    HW3 2183   1.088   1.532   1.047
  538SOL    MW4 2184   1.092   1.508   1.130
  539SOL     OW 2185   0.878   1.655   1.238
  539SOL    HW2 2186   0.896   1.736   1.191
  539SOL    HW3 2187   0.944   1.593   1.205
  539SOL    MW4 2188   0.889   1.657   1.227
  540SOL     OW 2189   0.936   1.916   1.147
  540SOL    HW2 2190   1.017   1.967   1.156
  540SOL    HW3 2191   0.871   1.967   1.195
  540SOL    MW4 2192   0.938   1.929   1.155
  541SOL     OW 2193   1.153   2.062   1.217
  541SOL    HW2 2194   1.128   2.070   1.310
  541SOL    HW3 2195   1.131   2.147   1.180
  541SOL    MW4 2196   1.147   2.074   1.225
  542SOL     OW 2197   1.124   2.302   1.090
  542SOL    HW2 2198   1.208   2.338   1.120
  542SOL    HW3 2199   1.058   2.347   1.144
  542SOL    MW4 2200   1.126   2.313   1.101
  543SOL     OW 2201   0.932   2.447   1.211
  543SOL    HW2 2202   0.933   2.461   1.306
  543SOL    HW3 2203   0.856   2.391   1.196
  543SOL    MW4 2204   0.922   2.441   1.222
  544SOL     OW 2205   0.887   2.697   1.113
  544SOL    HW2 2206   0.913   2.608   1.136
  544SOL    HW3 2207   0.811   2.715   1.169
  544SOL    MW4 2208   0.881   2.688   1.124
  545SOL     OW 2209   1.103   2.818   1.229
  545SOL    HW2 2210   1.109   2.811   1.325
  545SOL    HW3 2211   1.021   2.774   1.208
  545SOL    MW4 2212   1.093   2.811   1.239
  546SOL     OW 2213   1.170   3.071   1.140
  546SOL    HW2 2214   1.155   2.978   1.157
  546SOL    HW3 2215   1.165   3.079   1.045
  546SOL    MW4 2216   1.167   3.060   1.130
  547SOL     OW 2217   0.940   3.161   1.256
  547SOL    HW2 2218   0.945   3.249   1.219
  547SOL    HW3 2219   1.018   3.117   1.223
  547SOL    MW4 2220   0.951   3.167   1.247
  548SOL     OW 2221   0.914   3.421   1.156
  548SOL    HW2 2222   0.838   3.454   1.205
  548SOL    HW3 2223   0.892   3.436   1.064
  548SOL    MW4 2224   0.901   3.428   1.150
  549SOL     OW 2225   1.121   3.599   1.276
  549SOL    HW2 2226   1.203   3.562   1.246
  549SOL    HW3 2227   1.053   3.549   1.231
  549SOL    MW4 2228   1.123   3.588   1.266
  550SOL     OW 2229   1.128   3.835   1.113
  550SOL    HW2 2230   1.064   3.893   1.155
  550SOL    HW3 2231   1.131   3.757   1.169
  550SOL    MW4 2232   1.120   3.832   1.126
  551SOL     OW 2233   0.914   3.999   1.232
  551SOL    HW2 2234   0.928   3.992   1.326
  551SOL    HW3 2235   0.838   3.943   1.216
  551SOL    MW4 2236   0.906   3.991   1.242
  552SOL     OW 2237   0.848   4.261   1.134
  552SOL    HW2 2238   0.873   4.178   1.176
  552SOL    HW3 2239   0.877   4.251   1.043
  552SOL    MW4 2240   0.855   4.248   1.127
  553SOL     OW 2241   1.114   4.374   1.223
  553SOL    HW2 2242   1.105   4.363   1.318
  553SOL    HW3 2243   1.026   4.359   1.189
  553SOL    MW4 2244   1.101   4.370   1.231
  554SOL     OW 2245   1.598   4.640   1.137
  554SOL    HW2 2246   1.662   4.677   1.197
  554SOL    HW3 2247   1.601   4.546   1.152
  554SOL    MW4 2248   1.607   4.633   1.147
  555SOL     OW 2249   1.369   0.112   1.260
  555SOL    HW2 2250   1.429   0.046   1.226
  555SOL    HW3 2251   1.282   0.081   1.235
  555SOL    MW4 2252   1.366   0.099   1.253
  556SOL     OW 2253   1.348   0.375   1.156
  556SOL    HW2 2254   1.365   0.290   1.197
  556SOL    HW3 2255   1.268   0.406   1.200
  556SOL    MW4 2256   1.340   0.368   1.167
  557SOL     OW 2257   1.569   0.503   1.285
  557SOL    HW2 2258   1.576   0.592   1.250
  557SOL    HW3 2259   1.509   0.458   1.225
  557SOL    MW4 2260   1.562   0.509   1.272
  558SOL     OW 2261   1.539   0.757   1.175
  558SOL    HW2 2262   1.622   0.802   1.193
  558SOL    HW3 2263   1.523   0.773   1.082
  558SOL    MW4 2264   1.548   0.765   1.165
  559SOL     OW 2265   1.309   0.861   1.267
  559SOL    HW2 2266   1.378   0.806   1.229
  559SOL    HW3 2267   1.228   0.824   1.231
  559SOL    MW4 2268   1.307   0.849   1.257
  560SOL     OW 2269   1.385   1.092   1.157
  560SOL    HW2 2270   1.375   1.001   1.184
  560SOL    HW3 2271   1.353   1.095   1.067
  560SOL    MW4 2272   1.380   1.081   1.149
  561SOL     OW 2273   1.591   1.277   1.262
  561SOL    HW2 2274   1.667   1.226   1.235
  561SOL    HW3 2275   1.515   1.228   1.230
  561SOL    MW4 2276   1.591   1.264   1.254
  562SOL     OW 2277   1.604   1.525   1.164
  562SOL    HW2 2278   1.674   1.561   1.218
  562SOL    HW3 2279   1.600   1.432   1.189
  562SOL    MW4 2280   1.613   1.517   1.174
  563SOL     OW 2281   1.345   1.644   1.223
  563SOL    HW2 2282   1.435   1.613   1.207
  563SOL    HW3 2283   1.290   1.577   1.183
  563SOL    MW4 2284   1.350   1.631   1.216
  564SOL     OW 2285   1.343   1.889   1.101
  564SOL    HW2 2286   1.342   1.803   1.143
  564SOL    HW3 2287   1.274   1.939   1.146
  564SOL    MW4 2288   1.334   1.885   1.112
  565SOL     OW 2289   1.538   2.005   1.243
  565SOL    HW2 2290   1.536   2.100   1.231
  565SOL    HW3 2291   1.472   1.972   1.182
  565SOL    MW4 2292   1.529   2.013   1.233
  566SOL     OW 2293   1.537   2.266   1.176
  566SOL    HW2 2294   1.458   2.315   1.198
  566SOL    HW3 2295   1.536   2.260   1.080
  566SOL    MW4 2296   1.527   2.272   1.166
  567SOL     OW 2297   1.323   2.425   1.237
  567SOL    HW2 2298   1.307   2.440   1.330
  567SOL    HW3 2299   1.329   2.513   1.199
  567SOL    MW4 2300   1.322   2.439   1.244
  568SOL     OW 2301   1.356   2.658   1.105
  568SOL    HW2 2302   1.438   2.682   1.148
  568SOL    HW3 2303   1.290   2.715   1.145
  568SOL    MW4 2304   1.358   2.669   1.116
  569SOL     OW 2305   1.563   2.757   1.231
  569SOL    HW2 2306   1.657   2.736   1.230
  569SOL    HW3 2307   1.560   2.851   1.215
  569SOL    MW4 2308   1.575   2.767   1.229
  570SOL     OW 2309   1.570   3.031   1.151
  570SOL    HW2 2310   1.659   3.058   1.174
  570SOL    HW3 2311   1.514   3.084   1.207
  570SOL    MW4 2312   1.575   3.041   1.161
  571SOL     OW 2313   1.380   3.192   1.261
  571SOL    HW2 2314   1.348   3.200   1.350
  571SOL    HW3 2315   1.309   3.151   1.213
  571SOL    MW4 2316   1.367   3.188   1.266
  572SOL     OW 2317   1.340   3.466   1.183
  572SOL    HW2 2318   1.352   3.374   1.208
  572SOL    HW3 2319   1.348   3.465   1.087
  572SOL    MW4 2320   1.343   3.454   1.173
  573SOL     OW 2321   1.596   3.562   1.235
  573SOL    HW2 2322   1.567   3.649   1.208
  573SOL    HW3 2323   1.518   3.507   1.225
  573SOL    MW4 2324   1.582   3.566   1.230
  574SOL     OW 2325   1.588   3.837   1.151
  574SOL    HW2 2326   1.498   3.862   1.168
  574SOL    HW3 2327   1.600   3.855   1.057
  574SOL    MW4 2328   1.578   3.843   1.141
  575SOL     OW 2329   1.331   3.980   1.251
  575SOL    HW2 2330   1.331   4.070   1.217
  575SOL    HW3 2331   1.254   3.939   1.211
  575SOL    MW4 2332   1.321   3.987   1.242
  576SOL     OW 2333   1.335   4.230   1.128
  576SOL    HW2 2334   1.263   4.285   1.158
  576SOL    HW3 2335   1.337   4.243   1.033
  576SOL    MW4 2336   1.326   4.239   1.120
  577SOL     OW 2337   1.553   4.375   1.198
  577SOL    HW2 2338   1.554   4.369   1.294
  577SOL    HW3 2339   1.476   4.325   1.172
  577SOL    MW4 2340   1.543   4.367   1.208
  578SOL     OW 2341   2.025   0.047   1.148
  578SOL    HW2 2342   2.021  -0.047   1.129
  578SOL    HW3 2343   2.015   0.090   1.063
  578SOL    MW4 2344   2.023   0.040   1.134
  579SOL     OW 2345   1.801   0.088   1.310
  579SOL    HW2 2346   1.783   0.182   1.303
  579SOL    HW3 2347   1.880   0.075   1.257
  579SOL    MW4 2348   1.809   0.099   1.302
  580SOL     OW 2349   1.781   0.349   1.192
  580SOL    HW2 2350   1.703   0.395   1.220
  580SOL    HW3 2351   1.773   0.343   1.097
  580SOL    MW4 2352   1.770   0.354   1.183
  581SOL     OW 2353   2.023   0.473   1.277
  581SOL    HW2 2354   1.996   0.468   1.368
  581SOL    HW3 2355   1.958   0.421   1.230
  581SOL    MW4 2356   2.010   0.466   1.283
  582SOL     OW 2357   2.043   0.726   1.176
  582SOL    HW2 2358   2.033   0.638   1.211
  582SOL    HW3 2359   2.038   0.715   1.081
  582SOL    MW4 2360   2.041   0.713   1.168
  583SOL     OW 2361   1.803   0.836   1.230
  583SOL    HW2 2362   1.806   0.839   1.325
  583SOL    HW3 2363   1.877   0.782   1.205
  583SOL    MW4 2364   1.813   0.830   1.239
  584SOL     OW 2365   1.802   1.110   1.178
  584SOL    HW2 2366   1.798   1.018   1.202
  584SOL    HW3 2367   1.797   1.110   1.082
  584SOL    MW4 2368   1.801   1.098   1.168
  585SOL     OW 2369   2.016   1.282   1.250
  585SOL    HW2 2370   2.096   1.234   1.228
  585SOL    HW3 2371   1.947   1.237   1.200
  585SOL    MW4 2372   2.017   1.269   1.240
  586SOL     OW 2373   2.051   1.548   1.199
  586SOL    HW2 2374   2.037   1.458   1.227
  586SOL    HW3 2375   2.029   1.548   1.106
  586SOL    MW4 2376   2.047   1.536   1.190
  587SOL     OW 2377   1.813   1.640   1.304
  587SOL    HW2 2378   1.793   1.727   1.270
  587SOL    HW3 2379   1.899   1.619   1.268
  587SOL    MW4 2380   1.822   1.649   1.295
  588SOL     OW 2381   1.772   1.878   1.184
  588SOL    HW2 2382   1.690   1.927   1.195
  588SOL    HW3 2383   1.791   1.883   1.090
  588SOL    MW4 2384   1.763   1.885   1.173
  589SOL     OW 2385   2.001   2.018   1.254
  589SOL    HW2 2386   2.019   2.035   1.346
  589SOL    HW3 2387   1.915   1.976   1.254
  589SOL    MW4 2388   1.992   2.015   1.266
  590SOL     OW 2389   2.014   2.279   1.176
  590SOL    HW2 2390   2.104   2.310   1.186
  590SOL    HW3 2391   2.015   2.189   1.211
  590SOL    MW4 2392   2.026   2.271   1.182
  591SOL     OW 2393   1.790   2.403   1.266
  591SOL    HW2 2394   1.863   2.355   1.227
  591SOL    HW3 2395   1.712   2.365   1.225
  591SOL    MW4 2396   1.789   2.391   1.256
  592SOL     OW 2397   1.835   2.671   1.213
  592SOL    HW2 2398   1.822   2.579   1.234
  592SOL    HW3 2399   1.839   2.673   1.117
  592SOL    MW4 2400   1.834   2.659   1.203
  593SOL     OW 2401   2.091   2.767   1.272
  593SOL    HW2 2402   2.083   2.854   1.232
  593SOL    HW3 2403   2.008   2.724   1.252
  593SOL    MW4 2404   2.079   2.773   1.264
  594SOL     OW 2405   2.047   3.001   1.151
  594SOL    HW2 2406   1.966   3.042   1.182
  594SOL    HW3 2407   2.050   3.021   1.058
  594SOL    MW4 2408   2.036   3.009   1.143
  595SOL     OW 2409   1.805   3.144   1.228
  595SOL    HW2 2410   1.796   3.164   1.321
  595SOL    HW3 2411   1.819   3.229   1.187
  595SOL    MW4 2412   1.805   3.158   1.235
  596SOL     OW 2413   1.845   3.431   1.183
  596SOL    HW2 2414   1.905   3.498   1.216
  596SOL    HW3 2415   1.759   3.460   1.212
  596SOL    MW4 2416   1.842   3.444   1.191
  597SOL     OW 2417   2.032   3.614   1.269
  597SOL    HW2 2418   2.037   3.607   1.365
  597SOL    HW3 2419   2.113   3.572   1.238
  597SOL    MW4 2420   2.043   3.607   1.278
  598SOL     OW 2421   2.020   3.884   1.169
  598SOL    HW2 2422   1.932   3.911   1.196
  598SOL    HW3 2423   2.021   3.789   1.181
  598SOL    MW4 2424   2.008   3.875   1.174
  599SOL     OW 2425   1.777   4.015   1.255
  599SOL    HW2 2426   1.787   4.005   1.349
  599SOL    HW3 2427   1.719   3.943   1.229
  599SOL    MW4 2428   1.771   4.004   1.264
  600SOL     OW 2429   1.778   4.242   1.100
  600SOL    HW2 2430   1.779   4.165   1.157
  600SOL    HW3 2431   1.706   4.296   1.132
  600SOL    MW4 2432   1.769   4.239   1.112
  601SOL     OW 2433   2.036   4.419   1.188
  601SOL    HW2 2434   2.032   4.423   1.283
  601SOL    HW3 2435   1.978   4.346   1.165
  601SOL    MW4 2436   2.028   4.410   1.197
  602SOL     OW 2437   2.500   4.658   1.102
  602SOL    HW2 2438   2.575   4.690   1.152
  602SOL    HW3 2439   2.424   4.689   1.151
  602SOL    MW4 2440   2.500   4.666   1.115
  603SOL     OW 2441   2.284   0.092   1.257
  603SOL    HW2 2442   2.304   0.177   1.217
  603SOL    HW3 2443   2.198   0.069   1.223
  603SOL    MW4 2444   2.275   0.101   1.247
  604SOL     OW 2445   2.253   0.357   1.142
  604SOL    HW2 2446   2.183   0.405   1.187
  604SOL    HW3 2447   2.239   0.375   1.049
  604SOL    MW4 2448   2.242   0.366   1.136
  605SOL     OW 2449   2.485   0.503   1.216
  605SOL    HW2 2450   2.490   0.499   1.311
  605SOL    HW3 2451   2.403   0.458   1.194
  605SOL    MW4 2452   2.475   0.496   1.225
  606SOL     OW 2453   2.482   0.791   1.189
  606SOL    HW2 2454   2.491   0.697   1.203
  606SOL    HW3 2455   2.483   0.801   1.094
  606SOL    MW4 2456   2.484   0.780   1.179
  607SOL     OW 2457   2.246   0.895   1.270
  607SOL    HW2 2458   2.330   0.853   1.248
  607SOL    HW3 2459   2.181   0.827   1.255
  607SOL    MW4 2460   2.249   0.880   1.265
  608SOL     OW 2461   2.246   1.141   1.132
  608SOL    HW2 2462   2.323   1.190   1.162
  608SOL    HW3 2463   2.253   1.056   1.175
  608SOL    MW4 2464   2.257   1.136   1.141
  609SOL     OW 2465   2.461   1.259   1.236
  609SOL    HW2 2466   2.538   1.218   1.197
  609SOL    HW3 2467   2.470   1.352   1.215
  609SOL    MW4 2468   2.472   1.266   1.228
  610SOL     OW 2469   2.498   1.512   1.135
  610SOL    HW2 2470   2.414   1.539   1.173
  610SOL    HW3 2471   2.483   1.513   1.040
  610SOL    MW4 2472   2.485   1.516   1.127
  611SOL     OW 2473   2.293   1.643   1.250
  611SOL    HW2 2474   2.306   1.723   1.198
  611SOL    HW3 2475   2.206   1.613   1.226
  611SOL    MW4 2476   2.283   1.650   1.240
  612SOL     OW 2477   2.226   1.919   1.121
  612SOL    HW2 2478   2.150   1.965   1.157
  612SOL    HW3 2479   2.211   1.919   1.027
  612SOL    MW4 2480   2.214   1.925   1.114
  613SOL     OW 2481   2.438   2.011   1.247
  613SOL    HW2 2482   2.515   1.982   1.199
  613SOL    HW3 2483   2.365   1.969   1.203
  613SOL    MW4 2484   2.439   2.002   1.235
  614SOL     OW 2485   2.496   2.278   1.176
  614SOL    HW2 2486   2.484   2.188   1.207
  614SOL    HW3 2487   2.486   2.273   1.081
  614SOL    MW4 2488   2.493   2.266   1.168
  615SOL     OW 2489   2.246   2.406   1.197
  615SOL    HW2 2490   2.227   2.436   1.286
  615SOL    HW3 2491   2.335   2.370   1.203
  615SOL    MW4 2492   2.255   2.405   1.210
  616SOL     OW 2493   2.322   2.671   1.102
  616SOL    HW2 2494   2.321   2.581   1.134
  616SOL    HW3 2495   2.245   2.711   1.141
  616SOL    MW4 2496   2.312   2.664   1.111
  617SOL     OW 2497   2.525   2.793   1.262
  617SOL    HW2 2498   2.496   2.800   1.353
  617SOL    HW3 2499   2.451   2.755   1.216
  617SOL    MW4 2500   2.511   2.789   1.268
  618SOL     OW 2501   2.469   3.040   1.128
  618SOL    HW2 2502   2.391   3.068   1.176
  618SOL    HW3 2503   2.495   2.959   1.171
  618SOL    MW4 2504   2.462   3.033   1.140
  619SOL     OW 2505   2.261   3.152   1.257
  619SOL    HW2 2506   2.269   3.242   1.227
  619SOL    HW3 2507   2.177   3.122   1.223
  619SOL    MW4 2508   2.251   3.160   1.249
  620SOL     OW 2509   2.245   3.459   1.172
  620SOL    HW2 2510   2.331   3.500   1.163
  620SOL    HW3 2511   2.224   3.428   1.083
  620SOL    MW4 2512   2.253   3.461   1.159
  621SOL     OW 2513   2.490   3.586   1.176
  621SOL    HW2 2514   2.496   3.579   1.272
  621SOL    HW3 2515   2.497   3.680   1.158
  621SOL    MW4 2516   2.491   3.598   1.186
  622SOL     OW 2517   2.480   3.869   1.126
  622SOL    HW2 2518   2.401   3.921   1.146
  622SOL    HW3 2519   2.480   3.863   1.030
  622SOL    MW4 2520   2.469   3.875   1.116
  623SOL     OW 2521   2.249   4.026   1.189
  623SOL    HW2 2522   2.243   4.108   1.140
  623SOL    HW3 2523   2.167   3.980   1.171
  623SOL    MW4 2524   2.238   4.031   1.180
  624SOL     OW 2525   2.277   4.296   1.075
  624SOL    HW2 2526   2.209   4.347   1.118
  624SOL    HW3 2527   2.260   4.308   0.981
  624SOL    MW4 2528   2.266   4.304   1.068
  625SOL     OW 2529   2.520   4.394   1.190
  625SOL    HW2 2530   2.448   4.342   1.154
  625SOL    HW3 2531   2.495   4.485   1.171
  625SOL    MW4 2532   2.507   4.399   1.182
  626SOL     OW 2533   2.957   4.659   1.146
  626SOL    HW2 2534   2.932   4.567   1.142
  626SOL    HW3 2535   2.942   4.692   1.057
  626SOL    MW4 2536   2.952   4.651   1.133
  627SOL     OW 2537   2.723   0.100   1.246
  627SOL    HW2 2538   2.733   0.077   1.338
  627SOL    HW3 2539   2.805   0.070   1.205
  627SOL    MW4 2540   2.735   0.093   1.252
  628SOL     OW 2541   2.702   0.366   1.148
  628SOL    HW2 2542   2.694   0.275   1.178
  628SOL    HW3 2543   2.617   0.405   1.167
  628SOL    MW4 2544   2.690   0.359   1.154
  629SOL     OW 2545   2.902   0.551   1.225
  629SOL    HW2 2546   2.888   0.643   1.202
  629SOL    HW3 2547   2.820   0.507   1.200
  629SOL    MW4 2548   2.889   0.557   1.218
  630SOL     OW 2549   2.849   0.809   1.126
  630SOL    HW2 2550   2.935   0.836   1.158
  630SOL    HW3 2551   2.788   0.843   1.191
  630SOL    MW4 2552   2.853   0.817   1.139
  631SOL     OW 2553   2.675   0.948   1.289
  631SOL    HW2 2554   2.684   1.023   1.230
  631SOL    HW3 2555   2.601   0.899   1.255
  631SOL    MW4 2556   2.666   0.952   1.277
  632SOL     OW 2557   2.672   1.139   1.091
  632SOL    HW2 2558   2.750   1.181   1.126
  632SOL    HW3 2559   2.694   1.120   0.999
  632SOL    MW4 2560   2.685   1.142   1.083
  633SOL     OW 2561   2.886   1.246   1.234
  633SOL    HW2 2562   2.901   1.241   1.329
  633SOL    HW3 2563   2.886   1.340   1.215
  633SOL    MW4 2564   2.888   1.258   1.244
  634SOL     OW 2565   2.906   1.503   1.124
  634SOL    HW2 2566   2.986   1.546   1.154
  634SOL    HW3 2567   2.909   1.512   1.028
  634SOL    MW4 2568   2.917   1.510   1.115
  635SOL     OW 2569   2.718   1.668   1.229
  635SOL    HW2 2570   2.794   1.616   1.203
  635SOL    HW3 2571   2.643   1.621   1.192
  635SOL    MW4 2572   2.718   1.655   1.221
  636SOL     OW 2573   2.664   1.928   1.125
  636SOL    HW2 2574   2.742   1.974   1.158
  636SOL    HW3 2575   2.673   1.839   1.160
  636SOL    MW4 2576   2.676   1.922   1.134
  637SOL     OW 2577   2.908   2.045   1.194
  637SOL    HW2 2578   2.922   2.043   1.289
  637SOL    HW3 2579   2.924   2.136   1.169
  637SOL    MW4 2580   2.912   2.057   1.203
  638SOL     OW 2581   2.937   2.348   1.069
  638SOL    HW2 2582   3.016   2.354   1.122
  638SOL    HW3 2583   2.866   2.366   1.131
  638SOL    MW4 2584   2.938   2.351   1.084
  639SOL     OW 2585   2.721   2.415   1.236
  639SOL    HW2 2586   2.720   2.424   1.332
  639SOL    HW3 2587   2.633   2.385   1.214
  639SOL    MW4 2588   2.709   2.412   1.246
  640SOL     OW 2589   2.754   2.685   1.143
  640SOL    HW2 2590   2.750   2.592   1.167
  640SOL    HW3 2591   2.693   2.728   1.201
  640SOL    MW4 2592   2.746   2.678   1.154
  641SOL     OW 2593   2.984   2.840   1.191
  641SOL    HW2 2594   2.977   2.859   1.285
  641SOL    HW3 2595   2.906   2.789   1.170
  641SOL    MW4 2596   2.973   2.836   1.201
  642SOL     OW 2597   2.920   3.070   1.061
  642SOL    HW2 2598   2.953   2.983   1.085
  642SOL    HW3 2599   2.940   3.078   0.967
  642SOL    MW4 2600   2.927   3.059   1.051
  643SOL     OW 2601   2.704   3.180   1.193
  643SOL    HW2 2602   2.776   3.135   1.148
  643SOL    HW3 2603   2.626   3.133   1.165
  643SOL    MW4 2604   2.704   3.168   1.184
  644SOL     OW 2605   2.725   3.454   1.154
  644SOL    HW2 2606   2.724   3.371   1.203
  644SOL    HW3 2607   2.637   3.490   1.166
  644SOL    MW4 2608   2.713   3.448   1.162
  645SOL     OW 2609   2.943   3.607   1.229
  645SOL    HW2 2610   3.010   3.561   1.179
  645SOL    HW3 2611   2.860   3.573   1.195
  645SOL    MW4 2612   2.941   3.597   1.218
  646SOL     OW 2613   2.920   3.862   1.109
  646SOL    HW2 2614   2.985   3.916   1.153
  646SOL    HW3 2615   2.945   3.772   1.130
  646SOL    MW4 2616   2.932   3.857   1.117
  647SOL     OW 2617   2.695   4.013   1.184
  647SOL    HW2 2618   2.764   3.961   1.142
  647SOL    HW3 2619   2.614   3.966   1.163
  647SOL    MW4 2620   2.693   4.000   1.175
  648SOL     OW 2621   2.719   4.246   1.029
  648SOL    HW2 2622   2.714   4.170   1.087
  648SOL    HW3 2623   2.654   4.307   1.064
  648SOL    MW4 2624   2.710   4.244   1.042
  649SOL     OW 2625   2.905   4.395   1.187
  649SOL    HW2 2626   2.982   4.339   1.192
  649SOL    HW3 2627   2.856   4.362   1.111
  649SOL    MW4 2628   2.908   4.383   1.178
  650SOL     OW 2629   3.374   0.019   1.100
  650SOL    HW2 2630   3.457   0.050   1.137
  650SOL    HW3 2631   3.307   0.063   1.152
  650SOL    MW4 2632   3.377   0.029   1.112
  651SOL     OW 2633   3.155   0.142   1.242
  651SOL    HW2 2634   3.128   0.156   1.333
  651SOL    HW3 2635   3.088   0.086   1.205
  651SOL    MW4 2636   3.143   0.137   1.249
  652SOL     OW 2637   3.140   0.383   1.113
  652SOL    HW2 2638   3.152   0.294   1.147
  652SOL    HW3 2639   3.068   0.419   1.164
  652SOL    MW4 2640   3.132   0.376   1.124
  653SOL     OW 2641   3.366   0.481   1.212
  653SOL    HW2 2642   3.361   0.574   1.190
  653SOL    HW3 2643   3.281   0.446   1.184
  653SOL    MW4 2644   3.354   0.488   1.205
  654SOL     OW 2645   3.351   0.750   1.140
  654SOL    HW2 2646   3.272   0.791   1.174
  654SOL    HW3 2647   3.345   0.761   1.045
  654SOL    MW4 2648   3.340   0.757   1.132
  655SOL     OW 2649   3.100   0.865   1.221
  655SOL    HW2 2650   3.081   0.877   1.314
  655SOL    HW3 2651   3.113   0.954   1.188
  655SOL    MW4 2652   3.100   0.879   1.229
  656SOL     OW 2653   3.155   1.126   1.120
  656SOL    HW2 2654   3.239   1.159   1.152
  656SOL    HW3 2655   3.091   1.191   1.150
  656SOL    MW4 2656   3.158   1.139   1.128
  657SOL     OW 2657   3.378   1.255   1.231
  657SOL    HW2 2658   3.384   1.269   1.325
  657SOL    HW3 2659   3.370   1.343   1.194
  657SOL    MW4 2660   3.378   1.269   1.238
  658SOL     OW 2661   3.352   1.500   1.107
  658SOL    HW2 2662   3.418   1.562   1.137
  658SOL    HW3 2663   3.268   1.542   1.129
  658SOL    MW4 2664   3.349   1.514   1.114
  659SOL     OW 2665   3.125   1.626   1.223
  659SOL    HW2 2666   3.121   1.633   1.319
  659SOL    HW3 2667   3.120   1.716   1.192
  659SOL    MW4 2668   3.124   1.639   1.232
  660SOL     OW 2669   3.148   1.897   1.111
  660SOL    HW2 2670   3.213   1.939   1.168
  660SOL    HW3 2671   3.068   1.946   1.126
  660SOL    MW4 2672   3.146   1.909   1.120
  661SOL     OW 2673   3.381   2.076   1.206
  661SOL    HW2 2674   3.460   2.025   1.193
  661SOL    HW3 2675   3.397   2.157   1.158
  661SOL    MW4 2676   3.393   2.080   1.198
  662SOL     OW 2677   3.388   2.324   1.082
  662SOL    HW2 2678   3.458   2.378   1.118
  662SOL    HW3 2679   3.309   2.356   1.125
  662SOL    MW4 2680   3.387   2.335   1.092
  663SOL     OW 2681   3.167   2.422   1.216
  663SOL    HW2 2682   3.155   2.426   1.311
  663SOL    HW3 2683   3.164   2.513   1.187
  663SOL    MW4 2684   3.165   2.434   1.225
  664SOL     OW 2685   3.217   2.698   1.117
  664SOL    HW2 2686   3.141   2.747   1.150
  664SOL    HW3 2687   3.192   2.673   1.028
  664SOL    MW4 2688   3.203   2.701   1.109
  665SOL     OW 2689   3.419   2.858   1.223
  665SOL    HW2 2690   3.387   2.946   1.201
  665SOL    HW3 2691   3.359   2.799   1.178
  665SOL    MW4 2692   3.407   2.862   1.214
  666SOL     OW 2693   3.327   3.130   1.140
  666SOL    HW2 2694   3.400   3.181   1.174
  666SOL    HW3 2695   3.249   3.166   1.183
  666SOL    MW4 2696   3.326   3.142   1.150
  667SOL     OW 2697   3.087   3.261   1.223
  667SOL    HW2 2698   3.101   3.351   1.195
  667SOL    HW3 2699   3.020   3.227   1.164
  667SOL    MW4 2700   3.080   3.268   1.212
  668SOL     OW 2701   3.157   3.508   1.086
  668SOL    HW2 2702   3.231   3.542   1.136
  668SOL    HW3 2703   3.189   3.504   0.995
  668SOL    MW4 2704   3.171   3.512   1.080
  669SOL     OW 2705   3.376   3.638   1.206
  669SOL    HW2 2706   3.380   3.656   1.300
  669SOL    HW3 2707   3.460   3.598   1.185
  669SOL    MW4 2708   3.387   3.635   1.216
  670SOL     OW 2709   3.360   3.888   1.114
  670SOL    HW2 2710   3.276   3.928   1.140
  670SOL    HW3 2711   3.356   3.800   1.151
  670SOL    MW4 2712   3.348   3.882   1.123
  671SOL     OW 2713   3.132   3.977   1.248
  671SOL    HW2 2714   3.135   3.982   1.343
  671SOL    HW3 2715   3.142   4.068   1.219
  671SOL    MW4 2716   3.134   3.990   1.257
  672SOL     OW 2717   3.109   4.227   1.169
  672SOL    HW2 2718   3.173   4.286   1.210
  672SOL    HW3 2719   3.115   4.247   1.076
  672SOL    MW4 2720   3.119   4.237   1.162
  673SOL     OW 2721   3.314   4.423   1.184
  673SOL    HW2 2722   3.399   4.379   1.187
  673SOL    HW3 2723   3.334   4.512   1.153
  673SOL    MW4 2724   3.328   4.429   1.180
  674SOL     OW 2725   3.846   4.660   1.120
  674SOL    HW2 2726   3.837   4.572   1.156
  674SOL    HW3 2727   3.839   4.648   1.025
  674SOL    MW4 2728   3.844   4.647   1.112
  675SOL     OW 2729   3.605   0.121   1.211
  675SOL    HW2 2730   3.589   0.207   1.173
  675SOL    HW3 2731   3.692   0.097   1.179
  675SOL    MW4 2732   3.615   0.130   1.202
  676SOL     OW 2733   3.591   0.380   1.102
  676SOL    HW2 2734   3.657   0.425   1.155
  676SOL    HW3 2735   3.508   0.416   1.132
  676SOL    MW4 2736   3.589   0.391   1.113
  677SOL     OW 2737   3.798   0.531   1.223
  677SOL    HW2 2738   3.882   0.495   1.194
  677SOL    HW3 2739   3.801   0.623   1.195
  677SOL    MW4 2740   3.810   0.539   1.215
  678SOL     OW 2741   3.808   0.803   1.162
  678SOL    HW2 2742   3.886   0.849   1.196
  678SOL    HW3 2743   3.734   0.848   1.202
  678SOL    MW4 2744   3.809   0.815   1.172
  679SOL     OW 2745   3.574   0.880   1.243
  679SOL    HW2 2746   3.579   0.968   1.206
  679SOL    HW3 2747   3.510   0.835   1.187
  679SOL    MW4 2748   3.566   0.886   1.231
  680SOL     OW 2749   3.619   1.147   1.155
  680SOL    HW2 2750   3.701   1.189   1.179
  680SOL    HW3 2751   3.551   1.205   1.191
  680SOL    MW4 2752   3.621   1.161   1.163
  681SOL     OW 2753   3.848   1.315   1.240
  681SOL    HW2 2754   3.844   1.329   1.335
  681SOL    HW3 2755   3.816   1.397   1.203
  681SOL    MW4 2756   3.843   1.328   1.248
  682SOL     OW 2757   3.820   1.545   1.100
  682SOL    HW2 2758   3.897   1.590   1.134
  682SOL    HW3 2759   3.826   1.557   1.005
  682SOL    MW4 2760   3.831   1.552   1.092
  683SOL     OW 2761   3.578   1.660   1.213
  683SOL    HW2 2762   3.590   1.749   1.180
  683SOL    HW3 2763   3.656   1.613   1.182
  683SOL    MW4 2764   3.590   1.666   1.204
  684SOL     OW 2765   3.611   1.913   1.132
  684SOL    HW2 2766   3.690   1.962   1.153
  684SOL    HW3 2767   3.592   1.936   1.040
  684SOL    MW4 2768   3.619   1.923   1.122
  685SOL     OW 2769   3.799   2.080   1.239
  685SOL    HW2 2770   3.793   2.073   1.335
  685SOL    HW3 2771   3.886   2.045   1.219
  685SOL    MW4 2772   3.810   2.074   1.249
  686SOL     OW 2773   3.836   2.324   1.102
  686SOL    HW2 2774   3.899   2.370   1.157
  686SOL    HW3 2775   3.829   2.236   1.141
  686SOL    MW4 2776   3.844   2.318   1.114
  687SOL     OW 2777   3.602   2.459   1.196
  687SOL    HW2 2778   3.584   2.458   1.290
  687SOL    HW3 2779   3.672   2.393   1.185
  687SOL    MW4 2780   3.609   2.450   1.207
  688SOL     OW 2781   3.651   2.708   1.094
  688SOL    HW2 2782   3.627   2.619   1.119
  688SOL    HW3 2783   3.577   2.761   1.122
  688SOL    MW4 2784   3.638   2.703   1.101
  689SOL     OW 2785   3.860   2.855   1.238
  689SOL    HW2 2786   3.839   2.851   1.331
  689SOL    HW3 2787   3.784   2.816   1.195
  689SOL    MW4 2788   3.847   2.849   1.244
  690SOL     OW 2789   3.831   3.138   1.178
  690SOL    HW2 2790   3.825   3.047   1.206
  690SOL    HW3 2791   3.810   3.136   1.084
  690SOL    MW4 2792   3.827   3.126   1.169
  691SOL     OW 2793   3.580   3.254   1.254
  691SOL    HW2 2794   3.585   3.349   1.244
  691SOL    HW3 2795   3.664   3.222   1.223
  691SOL    MW4 2796   3.591   3.263   1.249
  692SOL     OW 2797   3.603   3.506   1.129
  692SOL    HW2 2798   3.689   3.548   1.137
  692SOL    HW3 2799   3.608   3.456   1.048
  692SOL    MW4 2800   3.615   3.505   1.119
  693SOL     OW 2801   3.864   3.609   1.210
  693SOL    HW2 2802   3.871   3.589   1.304
  693SOL    HW3 2803   3.847   3.703   1.207
  693SOL    MW4 2804   3.863   3.619   1.222
  694SOL     OW 2805   3.826   3.867   1.177
  694SOL    HW2 2806   3.758   3.911   1.228
  694SOL    HW3 2807   3.818   3.905   1.090
  694SOL    MW4 2808   3.816   3.878   1.172
  695SOL     OW 2809   3.611   4.038   1.261
  695SOL    HW2 2810   3.609   4.042   1.356
  695SOL    HW3 2811   3.523   4.009   1.236
  695SOL    MW4 2812   3.599   4.035   1.270
  696SOL     OW 2813   3.564   4.302   1.170
  696SOL    HW2 2814   3.577   4.220   1.217
  696SOL    HW3 2815   3.568   4.277   1.077
  696SOL    MW4 2816   3.566   4.288   1.164
  697SOL     OW 2817   3.820   4.402   1.218
  697SOL    HW2 2818   3.816   4.397   1.313
  697SOL    HW3 2819   3.732   4.377   1.189
  697SOL    MW4 2820   3.808   4.398   1.227
  698SOL     OW 2821   4.236   4.654   1.116
  698SOL    HW2 2822   4.229   4.570   1.162
  698SOL    HW3 2823   4.177   4.712   1.164
  698SOL    MW4 2824   4.227   4.650   1.128
  699SOL     OW 2825   4.051   0.139   1.255
  699SOL    HW2 2826   4.036   0.125   1.348
  699SOL    HW3 2827   3.986   0.083   1.212
  699SOL    MW4 2828   4.040   0.130   1.262
  700SOL     OW 2829   4.041   0.391   1.150
  700SOL    HW2 2830   4.046   0.314   1.207
  700SOL    HW3 2831   4.031   0.355   1.061
  700SOL    MW4 2832   4.040   0.376   1.145
  701SOL     OW 2833   4.282   0.505   1.209
  701SOL    HW2 2834   4.275   0.504   1.304
  701SOL    HW3 2835   4.197   0.476   1.178
  701SOL    MW4 2836   4.270   0.501   1.217
  702SOL     OW 2837   4.263   0.791   1.152
  702SOL    HW2 2838   4.267   0.704   1.191
  702SOL    HW3 2839   4.252   0.775   1.059
  702SOL    MW4 2840   4.262   0.777   1.145
  703SOL     OW 2841   4.049   0.915   1.260
  703SOL    HW2 2842   4.059   0.928   1.354
  703SOL    HW3 2843   4.128   0.868   1.234
  703SOL    MW4 2844   4.060   0.911   1.269
  704SOL     OW 2845   4.066   1.172   1.137
  704SOL    HW2 2846   4.069   1.092   1.189
  704SOL    HW3 2847   3.989   1.219   1.170
  704SOL    MW4 2848   4.056   1.168   1.148
  705SOL     OW 2849   4.308   1.270   1.222
  705SOL    HW2 2850   4.306   1.280   1.318
  705SOL    HW3 2851   4.222   1.236   1.200
  705SOL    MW4 2852   4.297   1.267   1.232
  706SOL     OW 2853   4.255   1.540   1.155
  706SOL    HW2 2854   4.284   1.452   1.179
  706SOL    HW3 2855   4.333   1.595   1.168
  706SOL    MW4 2856   4.269   1.536   1.160
  707SOL     OW 2857   4.034   1.692   1.204
  707SOL    HW2 2858   4.030   1.691   1.300
  707SOL    HW3 2859   4.111   1.639   1.183
  707SOL    MW4 2860   4.044   1.685   1.214
  708SOL     OW 2861   4.022   1.950   1.127
  708SOL    HW2 2862   4.023   1.857   1.148
  708SOL    HW3 2863   4.014   1.953   1.032
  708SOL    MW4 2864   4.021   1.939   1.117
  709SOL     OW 2865   4.259   2.048   1.255
  709SOL    HW2 2866   4.250   2.143   1.242
  709SOL    HW3 2867   4.175   2.012   1.230
  709SOL    MW4 2868   4.247   2.056   1.250
  710SOL     OW 2869   4.249   2.340   1.170
  710SOL    HW2 2870   4.176   2.388   1.211
  710SOL    HW3 2871   4.229   2.340   1.077
  710SOL    MW4 2872   4.237   2.347   1.163
  711SOL     OW 2873   4.012   2.453   1.278
  711SOL    HW2 2874   4.008   2.454   1.373
  711SOL    HW3 2875   4.035   2.543   1.255
  711SOL    MW4 2876   4.014   2.465   1.287
  712SOL     OW 2877   4.082   2.705   1.179
  712SOL    HW2 2878   4.005   2.758   1.200
  712SOL    HW3 2879   4.075   2.688   1.085
  712SOL    MW4 2880   4.071   2.710   1.169
  713SOL     OW 2881   4.301   2.819   1.292
  713SOL    HW2 2882   4.315   2.906   1.253
  713SOL    HW3 2883   4.219   2.789   1.254
  713SOL    MW4 2884   4.292   2.827   1.282
  714SOL     OW 2885   4.310   3.090   1.197
  714SOL    HW2 2886   4.240   3.153   1.216
  714SOL    HW3 2887   4.311   3.084   1.101
  714SOL    MW4 2888   4.301   3.098   1.187
  715SOL     OW 2889   4.092   3.251   1.267
  715SOL    HW2 2890   4.077   3.244   1.361
  715SOL    HW3 2891   4.013   3.215   1.227
  715SOL    MW4 2892   4.080   3.245   1.274
  716SOL     OW 2893   4.100   3.485   1.148
  716SOL    HW2 2894   4.104   3.407   1.202
  716SOL    HW3 2895   4.019   3.529   1.175
  716SOL    MW4 2896   4.090   3.481   1.158
  717SOL     OW 2897   4.327   3.604   1.264
  717SOL    HW2 2898   4.246   3.569   1.226
  717SOL    HW3 2899   4.397   3.554   1.223
  717SOL    MW4 2900   4.326   3.593   1.254
  718SOL     OW 2901   4.357   3.877   1.203
  718SOL    HW2 2902   4.271   3.906   1.233
  718SOL    HW3 2903   4.359   3.784   1.226
  718SOL    MW4 2904   4.346   3.868   1.210
  719SOL     OW 2905   4.061   3.982   1.242
  719SOL    HW2 2906   4.053   4.074   1.217
  719SOL    HW3 2907   3.976   3.943   1.221
  719SOL    MW4 2908   4.049   3.989   1.236
  720SOL     OW 2909   4.050   4.241   1.141
  720SOL    HW2 2910   3.976   4.295   1.167
  720SOL    HW3 2911   4.048   4.243   1.045
  720SOL    MW4 2912   4.040   4.248   1.132
  721SOL     OW 2913   4.250   4.415   1.247
  721SOL    HW2 2914   4.190   4.346   1.220
  721SOL    HW3 2915   4.337   4.381   1.228
  721SOL    MW4 2916   4.253   4.402   1.241
  722SOL     OW 2917   0.226   4.654   1.608
  722SOL    HW2 2918   0.302   4.695   1.566
  722SOL    HW3 2919   0.152   4.710   1.585
  722SOL    MW4 2920   0.226   4.667   1.600
  723SOL     OW 2921   4.483   0.116   1.500
  723SOL    HW2 2922   4.400   0.083   1.535
  723SOL    HW3 2923   4.473   0.112   1.405
  723SOL    MW4 2924   4.471   0.111   1.492
  724SOL     OW 2925   4.474   0.364   1.613
  724SOL    HW2 2926   4.495   0.356   1.706
  724SOL    HW3 2927   4.476   0.274   1.580
  724SOL    MW4 2928   4.477   0.351   1.621
  725SOL     OW 2929   0.230   0.457   1.544
  725SOL    HW2 2930   0.150   0.409   1.566
  725SOL    HW3 2931   0.226   0.468   1.449
  725SOL    MW4 2932   0.219   0.452   1.535
  726SOL     OW 2933   0.230   0.740   1.622
  726SOL    HW2 2934   0.293   0.781   1.563
  726SOL    HW3 2935   0.229   0.648   1.596
  726SOL    MW4 2936   0.238   0.734   1.611
  727SOL     OW 2937   0.026   0.869   1.513
  727SOL    HW2 2938   0.037   0.960   1.542
  727SOL    HW3 2939   0.100   0.822   1.552
  727SOL    MW4 2940   0.037   0.875   1.522
  728SOL     OW 2941   0.034   1.138   1.577
  728SOL    HW2 2942   0.016   1.137   1.671
  728SOL    HW3 2943   0.108   1.198   1.568
  728SOL    MW4 2944   0.041   1.146   1.588
  729SOL     OW 2945   0.267   1.281   1.520
  729SOL    HW2 2946   0.244   1.368   1.551
  729SOL    HW3 2947   0.266   1.287   1.425
  729SOL    MW4 2948   0.264   1.293   1.511
  730SOL     OW 2949   0.180   1.536   1.598
  730SOL    HW2 2950   0.174   1.537   1.693
  730SOL    HW3 2951   0.103   1.586   1.569
  730SOL    MW4 2952   0.169   1.543   1.606
  731SOL     OW 2953   4.485   1.711   1.517
  731SOL    HW2 2954   4.481   1.804   1.539
  731SOL    HW3 2955   4.474   1.708   1.422
  731SOL    MW4 2956   4.483   1.723   1.507
  732SOL     OW 2957   4.462   1.958   1.608
  732SOL    HW2 2958   4.460   1.956   1.704
  732SOL    HW3 2959   4.389   2.015   1.584
  732SOL    MW4 2960   4.452   1.965   1.617
  733SOL     OW 2961   0.232   2.043   1.541
  733SOL    HW2 2962   0.154   2.003   1.581
  733SOL    HW3 2963   0.214   2.040   1.447
  733SOL    MW4 2964   0.219   2.037   1.534
  734SOL     OW 2965   0.219   2.314   1.674
  734SOL    HW2 2966   0.202   2.322   1.768
  734SOL    HW3 2967   0.235   2.220   1.660
  734SOL    MW4 2968   0.219   2.302   1.684
  735SOL     OW 2969   0.019   2.444   1.516
  735SOL    HW2 2970  -0.068   2.415   1.546
  735SOL    HW3 2971   0.081   2.388   1.563
  735SOL    MW4 2972   0.015   2.433   1.526
  736SOL     OW 2973   4.471   2.699   1.623
  736SOL    HW2 2974   4.389   2.739   1.592
  736SOL    HW3 2975   4.475   2.615   1.576
  736SOL    MW4 2976   4.460   2.693   1.612
  737SOL     OW 2977   0.214   2.802   1.529
  737SOL    HW2 2978   0.274   2.736   1.565
  737SOL    HW3 2979   0.127   2.774   1.558
  737SOL    MW4 2980   0.210   2.790   1.538
  738SOL     OW 2981   0.238   3.058   1.630
  738SOL    HW2 2982   0.169   3.097   1.577
  738SOL    HW3 2983   0.234   2.965   1.609
  738SOL    MW4 2984   0.228   3.051   1.620
  739SOL     OW 2985   0.010   3.210   1.550
  739SOL    HW2 2986  -0.001   3.300   1.582
  739SOL    HW3 2987   0.033   3.221   1.457
  739SOL    MW4 2988   0.011   3.224   1.542
  740SOL     OW 2989   0.020   3.462   1.657
  740SOL    HW2 2990   0.008   3.456   1.752
  740SOL    HW3 2991  -0.052   3.518   1.627
  740SOL    MW4 2992   0.009   3.468   1.666
  741SOL     OW 2993   0.235   3.610   1.543
  741SOL    HW2 2994   0.209   3.695   1.577
  741SOL    HW3 2995   0.181   3.547   1.592
  741SOL    MW4 2996   0.224   3.613   1.554
  742SOL     OW 2997   0.190   3.867   1.652
  742SOL    HW2 2998   0.195   3.876   1.747
  742SOL    HW3 2999   0.278   3.890   1.622
  742SOL    MW4 3000   0.202   3.871   1.661
  743SOL     OW 3001   0.018   4.026   1.508
  743SOL    HW2 3002   0.028   4.118   1.533
  743SOL    HW3 3003   0.088   3.980   1.555
  743SOL    MW4 3004   0.028   4.032   1.518
  744SOL     OW 3005   0.003   4.277   1.632
  744SOL    HW2 3006   0.001   4.261   1.726
  744SOL    HW3 3007  -0.084   4.311   1.612
  744SOL    MW4 3008  -0.009   4.279   1.642
  745SOL     OW 3009   0.219   4.384   1.530
  745SOL    HW2 3010   0.136   4.351   1.564
  745SOL    HW3 3011   0.228   4.471   1.568
  745SOL    MW4 3012   0.209   4.391   1.539
  746SOL     OW 3013   0.675   4.598   1.670
  746SOL    HW2 3014   0.748   4.635   1.621
  746SOL    HW3 3015   0.597   4.632   1.627
  746SOL    MW4 3016   0.674   4.607   1.658
  747SOL     OW 3017   0.465   0.075   1.524
  747SOL    HW2 3018   0.471   0.157   1.572
  747SOL    HW3 3019   0.465   0.100   1.431
  747SOL    MW4 3020   0.466   0.089   1.518
  748SOL     OW 3021   0.462   0.330   1.655
  748SOL    HW2 3022   0.536   0.383   1.623
  748SOL    HW3 3023   0.384   0.378   1.626
  748SOL    MW4 3024   0.462   0.343   1.647
  749SOL     OW 3025   0.647   0.508   1.538
  749SOL    HW2 3026   0.644   0.592   1.584
  749SOL    HW3 3027   0.663   0.531   1.447
  749SOL    MW4 3028   0.649   0.522   1.532
  750SOL     OW 3029   0.639   0.750   1.657
  750SOL    HW2 3030   0.650   0.740   1.751
  750SOL    HW3 3031   0.702   0.819   1.633
  750SOL    MW4 3032   0.649   0.758   1.666
  751SOL     OW 3033   0.442   0.852   1.482
  751SOL    HW2 3034   0.435   0.942   1.512
  751SOL    HW3 3035   0.505   0.811   1.541
  751SOL    MW4 3036   0.449   0.858   1.494
  752SOL     OW 3037   0.458   1.092   1.578
  752SOL    HW2 3038   0.542   1.131   1.554
  752SOL    HW3 3039   0.392   1.154   1.547
  752SOL    MW4 3040   0.460   1.106   1.571
  753SOL     OW 3041   0.680   1.255   1.545
  753SOL    HW2 3042   0.666   1.337   1.592
  753SOL    HW3 3043   0.682   1.281   1.452
  753SOL    MW4 3044   0.679   1.270   1.539
  754SOL     OW 3045   0.651   1.526   1.637
  754SOL    HW2 3046   0.715   1.588   1.602
  754SOL    HW3 3047   0.567   1.559   1.605
  754SOL    MW4 3048   0.649   1.539   1.628
  755SOL     OW 3049   0.423   1.668   1.533
  755SOL    HW2 3050   0.421   1.753   1.577
  755SOL    HW3 3051   0.339   1.627   1.554
  755SOL    MW4 3052   0.411   1.674   1.541
  756SOL     OW 3053   0.448   1.906   1.650
  756SOL    HW2 3054   0.428   1.904   1.744
  756SOL    HW3 3055   0.375   1.953   1.611
  756SOL    MW4 3056   0.436   1.912   1.657
  757SOL     OW 3057   0.654   2.069   1.548
  757SOL    HW2 3058   0.742   2.036   1.566
  757SOL    HW3 3059   0.596   2.011   1.597
  757SOL    MW4 3060   0.658   2.057   1.557
  758SOL     OW 3061   0.691   2.327   1.633
  758SOL    HW2 3062   0.604   2.362   1.615
  758SOL    HW3 3063   0.685   2.234   1.609
  758SOL    MW4 3064   0.679   2.319   1.628
  759SOL     OW 3065   0.438   2.426   1.550
  759SOL    HW2 3066   0.426   2.518   1.574
  759SOL    HW3 3067   0.365   2.380   1.592
  759SOL    MW4 3068   0.427   2.432   1.558
  760SOL     OW 3069   0.451   2.685   1.643
  760SOL    HW2 3070   0.454   2.672   1.738
  760SOL    HW3 3071   0.535   2.725   1.621
  760SOL    MW4 3072   0.463   2.689   1.653
  761SOL     OW 3073   0.693   2.804   1.584
  761SOL    HW2 3074   0.685   2.896   1.611
  761SOL    HW3 3075   0.685   2.806   1.488
  761SOL    MW4 3076   0.691   2.816   1.575
  762SOL     OW 3077   0.686   3.065   1.654
  762SOL    HW2 3078   0.762   3.112   1.620
  762SOL    HW3 3079   0.611   3.115   1.622
  762SOL    MW4 3080   0.686   3.078   1.645
  763SOL     OW 3081   0.458   3.194   1.564
  763SOL    HW2 3082   0.386   3.135   1.586
  763SOL    HW3 3083   0.460   3.194   1.468
  763SOL    MW4 3084   0.449   3.186   1.554
  764SOL     OW 3085   0.460   3.471   1.655
  764SOL    HW2 3086   0.445   3.386   1.614
  764SOL    HW3 3087   0.379   3.519   1.642
  764SOL    MW4 3088   0.448   3.466   1.648
  765SOL     OW 3089   0.700   3.573   1.555
  765SOL    HW2 3090   0.764   3.527   1.609
  765SOL    HW3 3091   0.616   3.534   1.579
  765SOL    MW4 3092   0.698   3.562   1.565
  766SOL     OW 3093   0.673   3.852   1.614
  766SOL    HW2 3094   0.751   3.902   1.591
  766SOL    HW3 3095   0.696   3.761   1.593
  766SOL    MW4 3096   0.686   3.847   1.608
  767SOL     OW 3097   0.423   3.972   1.531
  767SOL    HW2 3098   0.508   3.936   1.558
  767SOL    HW3 3099   0.427   3.976   1.436
  767SOL    MW4 3100   0.435   3.967   1.522
  768SOL     OW 3101   0.441   4.234   1.620
  768SOL    HW2 3102   0.441   4.144   1.588
  768SOL    HW3 3103   0.365   4.275   1.578
  768SOL    MW4 3104   0.431   4.228   1.610
  769SOL     OW 3105   0.673   4.348   1.546
  769SOL    HW2 3106   0.588   4.309   1.567
  769SOL    HW3 3107   0.675   4.429   1.596
  769SOL    MW4 3108   0.662   4.353   1.555
  770SOL     OW 3109   1.113   4.648   1.590
  770SOL    HW2 3110   1.125   4.639   1.684
  770SOL    HW3 3111   1.168   4.722   1.566
  770SOL    MW4 3112   1.122   4.657   1.599
  771SOL     OW 3113   0.862   0.083   1.530
  771SOL    HW2 3114   0.850   0.173   1.559
  771SOL    HW3 3115   0.945   0.056   1.569
  771SOL    MW4 3116   0.871   0.091   1.539
  772SOL     OW 3117   0.847   0.345   1.629
  772SOL    HW2 3118   0.842   0.342   1.725
  772SOL    HW3 3119   0.773   0.400   1.603
  772SOL    MW4 3120   0.837   0.352   1.638
  773SOL     OW 3121   1.073   0.504   1.538
  773SOL    HW2 3122   1.058   0.588   1.583
  773SOL    HW3 3123   1.012   0.444   1.580
  773SOL    MW4 3124   1.063   0.507   1.550
  774SOL     OW 3125   1.085   0.742   1.653
  774SOL    HW2 3126   1.107   0.752   1.745
  774SOL    HW3 3127   1.160   0.777   1.606
  774SOL    MW4 3128   1.098   0.748   1.659
  775SOL     OW 3129   0.862   0.869   1.522
  775SOL    HW2 3130   0.930   0.814   1.563
  775SOL    HW3 3131   0.891   0.878   1.431
  775SOL    MW4 3132   0.875   0.863   1.516
  776SOL     OW 3133   0.906   1.115   1.653
  776SOL    HW2 3134   0.887   1.033   1.609
  776SOL    HW3 3135   0.824   1.164   1.650
  776SOL    MW4 3136   0.893   1.111   1.647
  777SOL     OW 3137   1.136   1.271   1.528
  777SOL    HW2 3138   1.197   1.241   1.595
  777SOL    HW3 3139   1.055   1.223   1.546
  777SOL    MW4 3140   1.133   1.260   1.539
  778SOL     OW 3141   1.073   1.516   1.605
  778SOL    HW2 3142   1.159   1.553   1.582
  778SOL    HW3 3143   1.079   1.425   1.576
  778SOL    MW4 3144   1.085   1.509   1.598
  779SOL     OW 3145   0.859   1.669   1.497
  779SOL    HW2 3146   0.938   1.619   1.520
  779SOL    HW3 3147   0.861   1.673   1.402
  779SOL    MW4 3148   0.870   1.663   1.488
  780SOL     OW 3149   0.880   1.927   1.609
  780SOL    HW2 3150   0.963   1.961   1.576
  780SOL    HW3 3151   0.879   1.835   1.583
  780SOL    MW4 3152   0.891   1.919   1.601
  781SOL     OW 3153   1.101   2.060   1.503
  781SOL    HW2 3154   1.183   2.018   1.529
  781SOL    HW3 3155   1.100   2.143   1.551
  781SOL    MW4 3156   1.112   2.065   1.512
  782SOL     OW 3157   1.067   2.303   1.636
  782SOL    HW2 3158   1.155   2.336   1.617
  782SOL    HW3 3159   1.008   2.368   1.596
  782SOL    MW4 3160   1.071   2.316   1.628
  783SOL     OW 3161   0.907   2.454   1.483
  783SOL    HW2 3162   0.909   2.541   1.525
  783SOL    HW3 3163   0.837   2.407   1.529
  783SOL    MW4 3164   0.898   2.460   1.495
  784SOL     OW 3165   0.926   2.691   1.646
  784SOL    HW2 3166   0.940   2.667   1.738
  784SOL    HW3 3167   0.841   2.735   1.646
  784SOL    MW4 3168   0.917   2.694   1.658
  785SOL     OW 3169   1.097   2.824   1.497
  785SOL    HW2 3170   1.107   2.915   1.526
  785SOL    HW3 3171   1.036   2.785   1.560
  785SOL    MW4 3172   1.090   2.831   1.509
  786SOL     OW 3173   1.109   3.073   1.608
  786SOL    HW2 3174   1.109   3.077   1.704
  786SOL    HW3 3175   1.179   3.133   1.582
  786SOL    MW4 3176   1.118   3.082   1.617
  787SOL     OW 3177   0.894   3.205   1.529
  787SOL    HW2 3178   0.969   3.153   1.557
  787SOL    HW3 3179   0.874   3.173   1.441
  787SOL    MW4 3180   0.901   3.194   1.521
  788SOL     OW 3181   0.923   3.431   1.680
  788SOL    HW2 3182   0.989   3.481   1.633
  788SOL    HW3 3183   0.916   3.348   1.633
  788SOL    MW4 3184   0.931   3.427   1.668
  789SOL     OW 3185   1.133   3.588   1.542
  789SOL    HW2 3186   1.218   3.553   1.568
  789SOL    HW3 3187   1.135   3.587   1.446
  789SOL    MW4 3188   1.144   3.583   1.533
  790SOL     OW 3189   1.122   3.854   1.633
  790SOL    HW2 3190   1.205   3.893   1.605
  790SOL    HW3 3191   1.135   3.760   1.619
  790SOL    MW4 3192   1.135   3.846   1.627
  791SOL     OW 3193   0.897   3.976   1.511
  791SOL    HW2 3194   0.915   4.066   1.536
  791SOL    HW3 3195   0.967   3.925   1.553
  791SOL    MW4 3196   0.908   3.981   1.520
  792SOL     OW 3197   0.922   4.248   1.609
  792SOL    HW2 3198   0.924   4.222   1.701
  792SOL    HW3 3199   0.830   4.268   1.592
  792SOL    MW4 3200   0.910   4.247   1.619
  793SOL     OW 3201   1.151   4.374   1.487
  793SOL    HW2 3202   1.071   4.349   1.533
  793SOL    HW3 3203   1.172   4.461   1.522
  793SOL    MW4 3204   1.143   4.382   1.498
  794SOL     OW 3205   1.558   4.604   1.628
  794SOL    HW2 3206   1.571   4.611   1.722
  794SOL    HW3 3207   1.487   4.665   1.608
  794SOL    MW4 3208   1.551   4.613   1.638
  795SOL     OW 3209   1.365   0.113   1.539
  795SOL    HW2 3210   1.357   0.202   1.575
  795SOL    HW3 3211   1.382   0.127   1.446
  795SOL    MW4 3212   1.366   0.127   1.531
  796SOL     OW 3213   1.351   0.399   1.632
  796SOL    HW2 3214   1.427   0.448   1.599
  796SOL    HW3 3215   1.275   0.446   1.597
  796SOL    MW4 3216   1.351   0.412   1.623
  797SOL     OW 3217   1.592   0.485   1.567
  797SOL    HW2 3218   1.667   0.434   1.594
  797SOL    HW3 3219   1.594   0.482   1.471
  797SOL    MW4 3220   1.602   0.478   1.558
  798SOL     OW 3221   1.533   0.758   1.639
  798SOL    HW2 3222   1.539   0.749   1.734
  798SOL    HW3 3223   1.534   0.667   1.607
  798SOL    MW4 3224   1.534   0.745   1.647
  799SOL     OW 3225   1.307   0.909   1.558
  799SOL    HW2 3226   1.383   0.857   1.584
  799SOL    HW3 3227   1.302   0.899   1.463
  799SOL    MW4 3228   1.317   0.901   1.549
  800SOL     OW 3229   1.354   1.159   1.651
  800SOL    HW2 3230   1.361   1.153   1.747
  800SOL    HW3 3231   1.341   1.069   1.623
  800SOL    MW4 3232   1.353   1.146   1.660
  801SOL     OW 3233   1.586   1.240   1.525
  801SOL    HW2 3234   1.496   1.215   1.549
  801SOL    HW3 3235   1.582   1.260   1.432
  801SOL    MW4 3236   1.573   1.239   1.516
  802SOL     OW 3237   1.561   1.500   1.588
  802SOL    HW2 3238   1.559   1.495   1.683
  802SOL    HW3 3239   1.569   1.409   1.559
  802SOL    MW4 3240   1.562   1.488   1.597
  803SOL     OW 3241   1.326   1.621   1.509
  803SOL    HW2 3242   1.411   1.587   1.537
  803SOL    HW3 3243   1.322   1.604   1.415
  803SOL    MW4 3244   1.336   1.614   1.501
  804SOL     OW 3245   1.326   1.897   1.583
  804SOL    HW2 3246   1.338   1.900   1.678
  804SOL    HW3 3247   1.334   1.804   1.561
  804SOL    MW4 3248   1.329   1.885   1.593
  805SOL     OW 3249   1.584   1.977   1.500
  805SOL    HW2 3250   1.501   1.940   1.530
  805SOL    HW3 3251   1.574   1.982   1.404
  805SOL    MW4 3252   1.571   1.973   1.491
  806SOL     OW 3253   1.528   2.229   1.608
  806SOL    HW2 3254   1.604   2.283   1.585
  806SOL    HW3 3255   1.550   2.142   1.577
  806SOL    MW4 3256   1.541   2.225   1.601
  807SOL     OW 3257   1.309   2.396   1.542
  807SOL    HW2 3258   1.320   2.482   1.582
  807SOL    HW3 3259   1.385   2.346   1.570
  807SOL    MW4 3260   1.320   2.401   1.551
  808SOL     OW 3261   1.320   2.675   1.607
  808SOL    HW2 3262   1.384   2.735   1.567
  808SOL    HW3 3263   1.236   2.702   1.569
  808SOL    MW4 3264   1.318   2.687   1.597
  809SOL     OW 3265   1.552   2.810   1.504
  809SOL    HW2 3266   1.616   2.744   1.531
  809SOL    HW3 3267   1.535   2.791   1.412
  809SOL    MW4 3268   1.558   2.799   1.496
  810SOL     OW 3269   1.569   3.075   1.606
  810SOL    HW2 3270   1.649   3.122   1.582
  810SOL    HW3 3271   1.577   2.990   1.563
  810SOL    MW4 3272   1.581   3.070   1.597
  811SOL     OW 3273   1.330   3.214   1.525
  811SOL    HW2 3274   1.337   3.304   1.557
  811SOL    HW3 3275   1.413   3.173   1.549
  811SOL    MW4 3276   1.342   3.221   1.532
  812SOL     OW 3277   1.386   3.480   1.617
  812SOL    HW2 3278   1.399   3.477   1.711
  812SOL    HW3 3279   1.468   3.514   1.582
  812SOL    MW4 3280   1.398   3.484   1.624
  813SOL     OW 3281   1.618   3.592   1.514
  813SOL    HW2 3282   1.604   3.685   1.528
  813SOL    HW3 3283   1.609   3.581   1.419
  813SOL    MW4 3284   1.615   3.603   1.503
  814SOL     OW 3285   1.578   3.850   1.618
  814SOL    HW2 3286   1.572   3.855   1.713
  814SOL    HW3 3287   1.500   3.898   1.587
  814SOL    MW4 3288   1.567   3.857   1.626
  815SOL     OW 3289   1.344   3.966   1.525
  815SOL    HW2 3290   1.337   4.055   1.560
  815SOL    HW3 3291   1.342   3.978   1.430
  815SOL    MW4 3292   1.343   3.979   1.517
  816SOL     OW 3293   1.362   4.233   1.579
  816SOL    HW2 3294   1.434   4.288   1.548
  816SOL    HW3 3295   1.283   4.282   1.555
  816SOL    MW4 3296   1.361   4.247   1.571
  817SOL     OW 3297   1.592   4.372   1.477
  817SOL    HW2 3298   1.669   4.329   1.514
  817SOL    HW3 3299   1.573   4.444   1.537
  817SOL    MW4 3300   1.600   4.376   1.490
  818SOL     OW 3301   2.051   4.623   1.616
  818SOL    HW2 3302   2.065   4.616   1.711
  818SOL    HW3 3303   1.959   4.649   1.607
  818SOL    MW4 3304   2.041   4.625   1.627
  819SOL     OW 3305   1.791   0.081   1.594
  819SOL    HW2 3306   1.709   0.035   1.616
  819SOL    HW3 3307   1.783   0.099   1.501
  819SOL    MW4 3308   1.779   0.077   1.585
  820SOL     OW 3309   1.811   0.356   1.670
  820SOL    HW2 3310   1.886   0.404   1.632
  820SOL    HW3 3311   1.834   0.264   1.657
  820SOL    MW4 3312   1.824   0.350   1.663
  821SOL     OW 3313   2.016   0.519   1.548
  821SOL    HW2 3314   2.101   0.495   1.585
  821SOL    HW3 3315   1.999   0.607   1.581
  821SOL    MW4 3316   2.025   0.528   1.557
  822SOL     OW 3317   1.961   0.792   1.649
  822SOL    HW2 3318   2.040   0.841   1.625
  822SOL    HW3 3319   1.892   0.832   1.597
  822SOL    MW4 3320   1.963   0.804   1.639
  823SOL     OW 3321   1.738   0.876   1.504
  823SOL    HW2 3322   1.747   0.959   1.550
  823SOL    HW3 3323   1.666   0.831   1.547
  823SOL    MW4 3324   1.730   0.881   1.515
  824SOL     OW 3325   1.798   1.114   1.636
  824SOL    HW2 3326   1.867   1.158   1.586
  824SOL    HW3 3327   1.717   1.153   1.605
  824SOL    MW4 3328   1.796   1.125   1.625
  825SOL     OW 3329   2.012   1.237   1.522
  825SOL    HW2 3330   1.996   1.323   1.559
  825SOL    HW3 3331   2.011   1.250   1.428
  825SOL    MW4 3332   2.010   1.250   1.515
  826SOL     OW 3333   2.014   1.486   1.636
  826SOL    HW2 3334   2.089   1.526   1.592
  826SOL    HW3 3335   1.940   1.541   1.611
  826SOL    MW4 3336   2.014   1.499   1.627
  827SOL     OW 3337   1.792   1.653   1.578
  827SOL    HW2 3338   1.716   1.597   1.593
  827SOL    HW3 3339   1.798   1.661   1.483
  827SOL    MW4 3340   1.783   1.647   1.568
  828SOL     OW 3341   1.809   1.939   1.634
  828SOL    HW2 3342   1.811   1.844   1.630
  828SOL    HW3 3343   1.737   1.965   1.576
  828SOL    MW4 3344   1.800   1.930   1.626
  829SOL     OW 3345   2.076   2.069   1.507
  829SOL    HW2 3346   2.149   2.009   1.524
  829SOL    HW3 3347   2.001   2.030   1.553
  829SOL    MW4 3348   2.076   2.056   1.515
  830SOL     OW 3349   2.014   2.334   1.613
  830SOL    HW2 3350   2.032   2.308   1.703
  830SOL    HW3 3351   2.029   2.256   1.561
  830SOL    MW4 3352   2.018   2.321   1.618
  831SOL     OW 3353   1.749   2.372   1.529
  831SOL    HW2 3354   1.835   2.355   1.567
  831SOL    HW3 3355   1.766   2.390   1.437
  831SOL    MW4 3356   1.763   2.372   1.522
  832SOL     OW 3357   1.740   2.633   1.589
  832SOL    HW2 3358   1.822   2.675   1.561
  832SOL    HW3 3359   1.751   2.541   1.565
  832SOL    MW4 3360   1.752   2.626   1.582
  833SOL     OW 3361   1.973   2.774   1.517
  833SOL    HW2 3362   1.987   2.863   1.549
  833SOL    HW3 3363   2.021   2.770   1.435
  833SOL    MW4 3364   1.981   2.785   1.511
  834SOL     OW 3365   1.991   3.039   1.602
  834SOL    HW2 3366   1.997   3.050   1.696
  834SOL    HW3 3367   2.059   3.096   1.566
  834SOL    MW4 3368   2.001   3.048   1.609
  835SOL     OW 3369   1.795   3.193   1.497
  835SOL    HW2 3370   1.807   3.276   1.543
  835SOL    HW3 3371   1.856   3.133   1.541
  835SOL    MW4 3372   1.804   3.196   1.509
  836SOL     OW 3373   1.821   3.443   1.599
  836SOL    HW2 3374   1.810   3.446   1.694
  836SOL    HW3 3375   1.750   3.497   1.564
  836SOL    MW4 3376   1.810   3.451   1.607
  837SOL     OW 3377   2.064   3.580   1.543
  837SOL    HW2 3378   2.132   3.513   1.544
  837SOL    HW3 3379   1.983   3.532   1.563
  837SOL    MW4 3380   2.062   3.564   1.546
  838SOL     OW 3381   2.064   3.859   1.625
  838SOL    HW2 3382   2.122   3.910   1.568
  838SOL    HW3 3383   2.087   3.768   1.608
  838SOL    MW4 3384   2.075   3.854   1.615
  839SOL     OW 3385   1.837   3.968   1.538
  839SOL    HW2 3386   1.917   3.931   1.576
  839SOL    HW3 3387   1.766   3.918   1.577
  839SOL    MW4 3388   1.838   3.956   1.548
  840SOL     OW 3389   1.812   4.244   1.594
  840SOL    HW2 3390   1.885   4.292   1.555
  840SOL    HW3 3391   1.833   4.152   1.580
  840SOL    MW4 3392   1.824   4.238   1.587
  841SOL     OW 3393   2.032   4.383   1.460
  841SOL    HW2 3394   2.093   4.323   1.503
  841SOL    HW3 3395   2.042   4.465   1.508
  841SOL    MW4 3396   2.041   4.386   1.472
  842SOL     OW 3397   2.459   4.653   1.603
  842SOL    HW2 3398   2.455   4.642   1.698
  842SOL    HW3 3399   2.391   4.718   1.584
  842SOL    MW4 3400   2.450   4.660   1.613
  843SOL     OW 3401   2.262   0.156   1.540
  843SOL    HW2 3402   2.191   0.095   1.558
  843SOL    HW3 3403   2.263   0.165   1.445
  843SOL    MW4 3404   2.253   0.149   1.530
  844SOL     OW 3405   2.265   0.418   1.660
  844SOL    HW2 3406   2.261   0.394   1.753
  844SOL    HW3 3407   2.255   0.335   1.613
  844SOL    MW4 3408   2.263   0.404   1.666
  845SOL     OW 3409   2.486   0.503   1.521
  845SOL    HW2 3410   2.560   0.442   1.523
  845SOL    HW3 3411   2.418   0.460   1.572
  845SOL    MW4 3412   2.487   0.489   1.528
  846SOL     OW 3413   2.447   0.755   1.659
  846SOL    HW2 3414   2.362   0.782   1.625
  846SOL    HW3 3415   2.460   0.667   1.625
  846SOL    MW4 3416   2.438   0.747   1.650
  847SOL     OW 3417   2.210   0.872   1.557
  847SOL    HW2 3418   2.226   0.962   1.585
  847SOL    HW3 3419   2.230   0.873   1.463
  847SOL    MW4 3420   2.215   0.884   1.548
  848SOL     OW 3421   2.246   1.126   1.648
  848SOL    HW2 3422   2.231   1.136   1.742
  848SOL    HW3 3423   2.169   1.165   1.607
  848SOL    MW4 3424   2.234   1.132   1.655
  849SOL     OW 3425   2.464   1.264   1.520
  849SOL    HW2 3426   2.399   1.206   1.560
  849SOL    HW3 3427   2.453   1.251   1.426
  849SOL    MW4 3428   2.454   1.255   1.513
  850SOL     OW 3429   2.473   1.524   1.629
  850SOL    HW2 3430   2.551   1.570   1.597
  850SOL    HW3 3431   2.474   1.440   1.584
  850SOL    MW4 3432   2.483   1.519   1.619
  851SOL     OW 3433   2.237   1.615   1.528
  851SOL    HW2 3434   2.320   1.579   1.559
  851SOL    HW3 3435   2.246   1.619   1.433
  851SOL    MW4 3436   2.249   1.611   1.520
  852SOL     OW 3437   2.273   1.902   1.604
  852SOL    HW2 3438   2.244   1.895   1.695
  852SOL    HW3 3439   2.276   1.812   1.573
  852SOL    MW4 3440   2.270   1.889   1.611
  853SOL     OW 3441   2.477   2.068   1.511
  853SOL    HW2 3442   2.406   2.019   1.554
  853SOL    HW3 3443   2.467   2.046   1.418
  853SOL    MW4 3444   2.466   2.058   1.504
  854SOL     OW 3445   2.436   2.329   1.566
  854SOL    HW2 3446   2.441   2.330   1.662
  854SOL    HW3 3447   2.437   2.236   1.543
  854SOL    MW4 3448   2.437   2.317   1.576
  855SOL     OW 3449   2.216   2.464   1.465
  855SOL    HW2 3450   2.296   2.424   1.498
  855SOL    HW3 3451   2.146   2.417   1.511
  855SOL    MW4 3452   2.217   2.452   1.475
  856SOL     OW 3453   2.220   2.684   1.616
  856SOL    HW2 3454   2.238   2.602   1.570
  856SOL    HW3 3455   2.138   2.715   1.579
  856SOL    MW4 3456   2.211   2.677   1.605
  857SOL     OW 3457   2.441   2.845   1.529
  857SOL    HW2 3458   2.445   2.929   1.575
  857SOL    HW3 3459   2.356   2.808   1.553
  857SOL    MW4 3460   2.431   2.851   1.538
  858SOL     OW 3461   2.499   3.091   1.637
  858SOL    HW2 3462   2.559   3.108   1.565
  858SOL    HW3 3463   2.421   3.142   1.616
  858SOL    MW4 3464   2.497   3.100   1.625
  859SOL     OW 3465   2.261   3.176   1.539
  859SOL    HW2 3466   2.258   3.268   1.562
  859SOL    HW3 3467   2.247   3.175   1.444
  859SOL    MW4 3468   2.259   3.188   1.529
  860SOL     OW 3469   2.276   3.421   1.596
  860SOL    HW2 3470   2.286   3.435   1.690
  860SOL    HW3 3471   2.347   3.472   1.557
  860SOL    MW4 3472   2.287   3.429   1.603
  861SOL     OW 3473   2.452   3.593   1.461
  861SOL    HW2 3474   2.541   3.571   1.489
  861SOL    HW3 3475   2.442   3.685   1.485
  861SOL    MW4 3476   2.462   3.602   1.468
  862SOL     OW 3477   2.465   3.865   1.575
  862SOL    HW2 3478   2.477   3.865   1.670
  862SOL    HW3 3479   2.547   3.899   1.539
  862SOL    MW4 3480   2.477   3.870   1.583
  863SOL     OW 3481   2.250   3.997   1.491
  863SOL    HW2 3482   2.323   3.943   1.522
  863SOL    HW3 3483   2.254   3.989   1.396
  863SOL    MW4 3484   2.260   3.989   1.482
  864SOL     OW 3485   2.239   4.251   1.592
  864SOL    HW2 3486   2.313   4.297   1.553
  864SOL    HW3 3487   2.248   4.161   1.561
  864SOL    MW4 3488   2.250   4.245   1.583
  865SOL     OW 3489   2.451   4.399   1.481
  865SOL    HW2 3490   2.440   4.489   1.511
  865SOL    HW3 3491   2.476   4.407   1.389
  865SOL    MW4 3492   2.453   4.412   1.473
  866SOL     OW 3493   2.930   4.616   1.576
  866SOL    HW2 3494   2.945   4.593   1.667
  866SOL    HW3 3495   2.844   4.658   1.575
  866SOL    MW4 3496   2.921   4.619   1.588
  867SOL     OW 3497   2.698   0.056   1.516
  867SOL    HW2 3498   2.700   0.150   1.532
  867SOL    HW3 3499   2.616   0.027   1.555
  867SOL    MW4 3500   2.687   0.065   1.523
  868SOL     OW 3501   2.703   0.344   1.572
  868SOL    HW2 3502   2.713   0.354   1.666
  868SOL    HW3 3503   2.773   0.397   1.534
  868SOL    MW4 3504   2.713   0.352   1.579
  869SOL     OW 3505   2.899   0.507   1.493
  869SOL    HW2 3506   2.908   0.588   1.544
  869SOL    HW3 3507   2.899   0.535   1.402
  869SOL    MW4 3508   2.900   0.521   1.488
  870SOL     OW 3509   2.911   0.740   1.622
  870SOL    HW2 3510   2.915   0.756   1.717
  870SOL    HW3 3511   2.831   0.784   1.594
  870SOL    MW4 3512   2.901   0.748   1.631
  871SOL     OW 3513   2.676   0.883   1.573
  871SOL    HW2 3514   2.593   0.849   1.606
  871SOL    HW3 3515   2.664   0.888   1.478
  871SOL    MW4 3516   2.664   0.879   1.565
  872SOL     OW 3517   2.699   1.159   1.626
  872SOL    HW2 3518   2.705   1.066   1.606
  872SOL    HW3 3519   2.620   1.189   1.581
  872SOL    MW4 3520   2.690   1.151   1.617
  873SOL     OW 3521   2.918   1.321   1.509
  873SOL    HW2 3522   3.004   1.289   1.536
  873SOL    HW3 3523   2.856   1.269   1.560
  873SOL    MW4 3524   2.921   1.310   1.519
  874SOL     OW 3525   2.912   1.584   1.604
  874SOL    HW2 3526   2.836   1.626   1.565
  874SOL    HW3 3527   2.912   1.495   1.569
  874SOL    MW4 3528   2.902   1.578   1.594
  875SOL     OW 3529   2.681   1.684   1.510
  875SOL    HW2 3530   2.694   1.773   1.542
  875SOL    HW3 3531   2.674   1.693   1.415
  875SOL    MW4 3532   2.682   1.697   1.502
  876SOL     OW 3533   2.724   1.950   1.594
  876SOL    HW2 3534   2.712   1.936   1.688
  876SOL    HW3 3535   2.648   2.001   1.568
  876SOL    MW4 3536   2.713   1.955   1.603
  877SOL     OW 3537   2.941   2.041   1.454
  877SOL    HW2 3538   2.929   2.130   1.486
  877SOL    HW3 3539   2.872   1.990   1.496
  877SOL    MW4 3540   2.931   2.046   1.463
  878SOL     OW 3541   2.907   2.295   1.581
  878SOL    HW2 3542   2.924   2.292   1.675
  878SOL    HW3 3543   2.820   2.333   1.574
  878SOL    MW4 3544   2.898   2.300   1.592
  879SOL     OW 3545   2.680   2.436   1.521
  879SOL    HW2 3546   2.664   2.531   1.522
  879SOL    HW3 3547   2.594   2.397   1.536
  879SOL    MW4 3548   2.667   2.444   1.523
  880SOL     OW 3549   2.683   2.701   1.588
  880SOL    HW2 3550   2.749   2.729   1.524
  880SOL    HW3 3551   2.612   2.764   1.578
  880SOL    MW4 3552   2.682   2.713   1.578
  881SOL     OW 3553   2.924   2.818   1.464
  881SOL    HW2 3554   2.999   2.778   1.507
  881SOL    HW3 3555   2.910   2.900   1.512
  881SOL    MW4 3556   2.932   2.824   1.476
  882SOL     OW 3557   2.913   3.061   1.589
  882SOL    HW2 3558   2.901   3.082   1.682
  882SOL    HW3 3559   2.980   3.122   1.560
  882SOL    MW4 3560   2.921   3.072   1.598
  883SOL     OW 3561   2.697   3.178   1.473
  883SOL    HW2 3562   2.777   3.136   1.506
  883SOL    HW3 3563   2.707   3.175   1.378
  883SOL    MW4 3564   2.709   3.172   1.465
  884SOL     OW 3565   2.703   3.459   1.541
  884SOL    HW2 3566   2.689   3.458   1.635
  884SOL    HW3 3567   2.684   3.370   1.512
  884SOL    MW4 3568   2.699   3.447   1.549
  885SOL     OW 3569   2.950   3.611   1.493
  885SOL    HW2 3570   2.876   3.555   1.514
  885SOL    HW3 3571   2.957   3.608   1.398
  885SOL    MW4 3572   2.941   3.603   1.483
  886SOL     OW 3573   2.905   3.860   1.595
  886SOL    HW2 3574   2.826   3.892   1.552
  886SOL    HW3 3575   2.928   3.781   1.547
  886SOL    MW4 3576   2.898   3.854   1.583
  887SOL     OW 3577   2.675   4.003   1.472
  887SOL    HW2 3578   2.666   4.093   1.504
  887SOL    HW3 3579   2.692   4.012   1.379
  887SOL    MW4 3580   2.676   4.016   1.464
  888SOL     OW 3581   2.651   4.255   1.597
  888SOL    HW2 3582   2.731   4.304   1.580
  888SOL    HW3 3583   2.583   4.301   1.549
  888SOL    MW4 3584   2.653   4.267   1.589
  889SOL     OW 3585   2.896   4.362   1.460
  889SOL    HW2 3586   2.918   4.449   1.493
  889SOL    HW3 3587   2.882   4.375   1.366
  889SOL    MW4 3588   2.897   4.375   1.452
  890SOL     OW 3589   3.354   0.021   1.562
  890SOL    HW2 3590   3.427   0.076   1.533
  890SOL    HW3 3591   3.371  -0.065   1.523
  890SOL    MW4 3592   3.366   0.017   1.553
  891SOL     OW 3593   3.117   0.153   1.528
  891SOL    HW2 3594   3.190   0.094   1.544
  891SOL    HW3 3595   3.040   0.105   1.559
  891SOL    MW4 3596   3.116   0.139   1.534
  892SOL     OW 3597   3.142   0.412   1.617
  892SOL    HW2 3598   3.129   0.322   1.588
  892SOL    HW3 3599   3.072   0.462   1.573
  892SOL    MW4 3600   3.131   0.407   1.607
  893SOL     OW 3601   3.369   0.515   1.491
  893SOL    HW2 3602   3.290   0.482   1.534
  893SOL    HW3 3603   3.349   0.510   1.398
  893SOL    MW4 3604   3.356   0.510   1.485
  894SOL     OW 3605   3.362   0.794   1.567
  894SOL    HW2 3606   3.368   0.784   1.662
  894SOL    HW3 3607   3.357   0.704   1.534
  894SOL    MW4 3608   3.362   0.781   1.575
  895SOL     OW 3609   3.090   0.903   1.502
  895SOL    HW2 3610   3.170   0.865   1.537
  895SOL    HW3 3611   3.019   0.852   1.541
  895SOL    MW4 3612   3.091   0.891   1.512
  896SOL     OW 3613   3.141   1.188   1.613
  896SOL    HW2 3614   3.121   1.167   1.704
  896SOL    HW3 3615   3.134   1.105   1.567
  896SOL    MW4 3616   3.137   1.175   1.619
  897SOL     OW 3617   3.373   1.281   1.503
  897SOL    HW2 3618   3.443   1.236   1.549
  897SOL    HW3 3619   3.293   1.256   1.549
  897SOL    MW4 3620   3.371   1.272   1.515
  898SOL     OW 3621   3.367   1.526   1.613
  898SOL    HW2 3622   3.384   1.525   1.708
  898SOL    HW3 3623   3.364   1.433   1.589
  898SOL    MW4 3624   3.369   1.514   1.623
  899SOL     OW 3625   3.149   1.683   1.493
  899SOL    HW2 3626   3.218   1.631   1.533
  899SOL    HW3 3627   3.068   1.652   1.533
  899SOL    MW4 3628   3.147   1.672   1.503
  900SOL     OW 3629   3.156   1.945   1.581
  900SOL    HW2 3630   3.144   1.853   1.558
  900SOL    HW3 3631   3.084   1.990   1.537
  900SOL    MW4 3632   3.145   1.939   1.572
  901SOL     OW 3633   3.384   2.082   1.488
  901SOL    HW2 3634   3.315   2.023   1.517
  901SOL    HW3 3635   3.372   2.089   1.393
  901SOL    MW4 3636   3.374   2.075   1.479
  902SOL     OW 3637   3.341   2.339   1.585
  902SOL    HW2 3638   3.419   2.380   1.547
  902SOL    HW3 3639   3.352   2.245   1.569
  902SOL    MW4 3640   3.353   2.332   1.578
  903SOL     OW 3641   3.116   2.438   1.470
  903SOL    HW2 3642   3.184   2.401   1.528
  903SOL    HW3 3643   3.034   2.403   1.505
  903SOL    MW4 3644   3.114   2.429   1.482
  904SOL     OW 3645   3.147   2.690   1.584
  904SOL    HW2 3646   3.229   2.725   1.548
  904SOL    HW3 3647   3.135   2.607   1.539
  904SOL    MW4 3648   3.156   2.684   1.573
  905SOL     OW 3649   3.373   2.853   1.517
  905SOL    HW2 3650   3.341   2.942   1.528
  905SOL    HW3 3651   3.402   2.849   1.425
  905SOL    MW4 3652   3.373   2.864   1.506
  906SOL     OW 3653   3.348   3.114   1.576
  906SOL    HW2 3654   3.361   3.110   1.671
  906SOL    HW3 3655   3.424   3.162   1.543
  906SOL    MW4 3656   3.359   3.120   1.585
  907SOL     OW 3657   3.119   3.233   1.496
  907SOL    HW2 3658   3.196   3.187   1.529
  907SOL    HW3 3659   3.137   3.245   1.402
  907SOL    MW4 3660   3.132   3.229   1.488
  908SOL     OW 3661   3.201   3.487   1.595
  908SOL    HW2 3662   3.184   3.395   1.575
  908SOL    HW3 3663   3.116   3.530   1.584
  908SOL    MW4 3664   3.188   3.481   1.591
  909SOL     OW 3665   3.394   3.656   1.484
  909SOL    HW2 3666   3.474   3.625   1.527
  909SOL    HW3 3667   3.323   3.608   1.525
  909SOL    MW4 3668   3.395   3.646   1.495
  910SOL     OW 3669   3.393   3.900   1.607
  910SOL    HW2 3670   3.309   3.939   1.581
  910SOL    HW3 3671   3.397   3.818   1.559
  910SOL    MW4 3672   3.382   3.895   1.597
  911SOL     OW 3673   3.137   3.995   1.524
  911SOL    HW2 3674   3.122   4.088   1.542
  911SOL    HW3 3675   3.057   3.951   1.551
  911SOL    MW4 3676   3.125   4.001   1.530
  912SOL     OW 3677   3.143   4.265   1.550
  912SOL    HW2 3678   3.122   4.271   1.644
  912SOL    HW3 3679   3.063   4.296   1.507
  912SOL    MW4 3680   3.129   4.270   1.557
  913SOL     OW 3681   3.338   4.448   1.455
  913SOL    HW2 3682   3.279   4.377   1.480
  913SOL    HW3 3683   3.329   4.453   1.359
  913SOL    MW4 3684   3.329   4.439   1.445
  914SOL     OW 3685   3.768   4.634   1.595
  914SOL    HW2 3686   3.770   4.635   1.691
  914SOL    HW3 3687   3.847   4.682   1.569
  914SOL    MW4 3688   3.779   4.641   1.605
  915SOL     OW 3689   3.585   0.135   1.479
  915SOL    HW2 3690   3.653   0.074   1.505
  915SOL    HW3 3691   3.603   0.153   1.386
  915SOL    MW4 3692   3.596   0.129   1.470
  916SOL     OW 3693   3.577   0.373   1.617
  916SOL    HW2 3694   3.586   0.289   1.571
  916SOL    HW3 3695   3.503   0.415   1.574
  916SOL    MW4 3696   3.568   0.367   1.605
  917SOL     OW 3697   3.785   0.530   1.508
  917SOL    HW2 3698   3.710   0.479   1.540
  917SOL    HW3 3699   3.781   0.521   1.413
  917SOL    MW4 3700   3.774   0.522   1.500
  918SOL     OW 3701   3.852   0.779   1.588
  918SOL    HW2 3702   3.778   0.836   1.565
  918SOL    HW3 3703   3.828   0.694   1.550
  918SOL    MW4 3704   3.839   0.776   1.580
  919SOL     OW 3705   3.605   0.918   1.525
  919SOL    HW2 3706   3.524   0.878   1.557
  919SOL    HW3 3707   3.605   0.900   1.431
  919SOL    MW4 3708   3.594   0.910   1.517
  920SOL     OW 3709   3.598   1.171   1.621
  920SOL    HW2 3710   3.673   1.220   1.586
  920SOL    HW3 3711   3.603   1.086   1.577
  920SOL    MW4 3712   3.608   1.166   1.610
  921SOL     OW 3713   3.855   1.303   1.510
  921SOL    HW2 3714   3.937   1.268   1.544
  921SOL    HW3 3715   3.846   1.389   1.551
  921SOL    MW4 3716   3.864   1.310   1.520
  922SOL     OW 3717   3.794   1.567   1.593
  922SOL    HW2 3718   3.791   1.579   1.688
  922SOL    HW3 3719   3.711   1.604   1.562
  922SOL    MW4 3720   3.783   1.573   1.602
  923SOL     OW 3721   3.554   1.699   1.497
  923SOL    HW2 3722   3.480   1.647   1.528
  923SOL    HW3 3723   3.561   1.678   1.404
  923SOL    MW4 3724   3.545   1.689   1.489
  924SOL     OW 3725   3.614   1.943   1.581
  924SOL    HW2 3726   3.591   1.853   1.557
  924SOL    HW3 3727   3.546   1.997   1.543
  924SOL    MW4 3728   3.602   1.938   1.573
  925SOL     OW 3729   3.834   2.082   1.511
  925SOL    HW2 3730   3.810   2.166   1.551
  925SOL    HW3 3731   3.771   2.019   1.546
  925SOL    MW4 3732   3.823   2.085   1.521
  926SOL     OW 3733   3.770   2.336   1.639
  926SOL    HW2 3734   3.769   2.342   1.735
  926SOL    HW3 3735   3.849   2.385   1.614
  926SOL    MW4 3736   3.780   2.343   1.649
  927SOL     OW 3737   3.560   2.458   1.476
  927SOL    HW2 3738   3.565   2.541   1.522
  927SOL    HW3 3739   3.622   2.401   1.522
  927SOL    MW4 3740   3.568   2.461   1.488
  928SOL     OW 3741   3.594   2.695   1.607
  928SOL    HW2 3742   3.598   2.695   1.702
  928SOL    HW3 3743   3.514   2.743   1.586
  928SOL    MW4 3744   3.584   2.701   1.616
  929SOL     OW 3745   3.796   2.856   1.515
  929SOL    HW2 3746   3.858   2.805   1.567
  929SOL    HW3 3747   3.710   2.821   1.538
  929SOL    MW4 3748   3.793   2.845   1.525
  930SOL     OW 3749   3.814   3.094   1.627
  930SOL    HW2 3750   3.895   3.129   1.591
  930SOL    HW3 3751   3.807   3.006   1.590
  930SOL    MW4 3752   3.824   3.087   1.618
  931SOL     OW 3753   3.578   3.250   1.516
  931SOL    HW2 3754   3.659   3.212   1.551
  931SOL    HW3 3755   3.577   3.225   1.424
  931SOL    MW4 3756   3.588   3.242   1.509
  932SOL     OW 3757   3.602   3.517   1.591
  932SOL    HW2 3758   3.687   3.542   1.555
  932SOL    HW3 3759   3.590   3.426   1.564
  932SOL    MW4 3760   3.611   3.508   1.583
  933SOL     OW 3761   3.865   3.597   1.483
  933SOL    HW2 3762   3.928   3.561   1.545
  933SOL    HW3 3763   3.842   3.683   1.519
  933SOL    MW4 3764   3.870   3.604   1.496
  934SOL     OW 3765   3.804   3.836   1.611
  934SOL    HW2 3766   3.884   3.879   1.583
  934SOL    HW3 3767   3.734   3.894   1.581
  934SOL    MW4 3768   3.805   3.849   1.603
  935SOL     OW 3769   3.614   4.027   1.533
  935SOL    HW2 3770   3.602   4.121   1.546
  935SOL    HW3 3771   3.530   3.988   1.557
  935SOL    MW4 3772   3.602   4.034   1.538
  936SOL     OW 3773   3.559   4.293   1.566
  936SOL    HW2 3774   3.544   4.309   1.659
  936SOL    HW3 3775   3.490   4.343   1.522
  936SOL    MW4 3776   3.548   4.302   1.573
  937SOL     OW 3777   3.816   4.389   1.495
  937SOL    HW2 3778   3.738   4.346   1.532
  937SOL    HW3 3779   3.809   4.480   1.524
  937SOL    MW4 3780   3.805   4.395   1.504
  938SOL     OW 3781   4.255   4.652   1.624
  938SOL    HW2 3782   4.252   4.652   1.720
  938SOL    HW3 3783   4.230   4.563   1.599
  938SOL    MW4 3784   4.251   4.640   1.633
  939SOL     OW 3785   4.007   0.095   1.526
  939SOL    HW2 3786   4.000   0.188   1.548
  939SOL    HW3 3787   4.083   0.064   1.575
  939SOL    MW4 3788   4.016   0.103   1.535
  940SOL     OW 3789   4.006   0.376   1.608
  940SOL    HW2 3790   4.009   0.360   1.703
  940SOL    HW3 3791   3.925   0.426   1.595
  940SOL    MW4 3792   3.996   0.381   1.619
  941SOL     OW 3793   4.247   0.488   1.479
  941SOL    HW2 3794   4.169   0.456   1.524
  941SOL    HW3 3795   4.320   0.455   1.532
  941SOL    MW4 3796   4.246   0.480   1.492
  942SOL     OW 3797   4.274   0.737   1.598
  942SOL    HW2 3798   4.274   0.648   1.563
  942SOL    HW3 3799   4.361   0.770   1.579
  942SOL    MW4 3800   4.285   0.729   1.591
  943SOL     OW 3801   4.075   0.932   1.544
  943SOL    HW2 3802   4.149   0.873   1.553
  943SOL    HW3 3803   3.998   0.876   1.559
  943SOL    MW4 3804   4.074   0.917   1.547
  944SOL     OW 3805   4.109   1.200   1.626
  944SOL    HW2 3806   4.105   1.194   1.721
  944SOL    HW3 3807   4.098   1.110   1.596
  944SOL    MW4 3808   4.107   1.187   1.635
  945SOL     OW 3809   4.320   1.317   1.512
  945SOL    HW2 3810   4.258   1.270   1.570
  945SOL    HW3 3811   4.406   1.282   1.536
  945SOL    MW4 3812   4.323   1.306   1.523
  946SOL     OW 3813   4.256   1.587   1.583
  946SOL    HW2 3814   4.282   1.499   1.558
  946SOL    HW3 3815   4.336   1.639   1.576
  946SOL    MW4 3816   4.270   1.582   1.579
  947SOL     OW 3817   4.022   1.708   1.499
  947SOL    HW2 3818   4.101   1.655   1.509
  947SOL    HW3 3819   3.954   1.657   1.542
  947SOL    MW4 3820   4.024   1.694   1.506
  948SOL     OW 3821   4.057   1.964   1.608
  948SOL    HW2 3822   4.055   1.887   1.551
  948SOL    HW3 3823   3.976   2.010   1.589
  948SOL    MW4 3824   4.046   1.960   1.598
  949SOL     OW 3825   4.254   2.116   1.527
  949SOL    HW2 3826   4.185   2.059   1.561
  949SOL    HW3 3827   4.265   2.088   1.436
  949SOL    MW4 3828   4.247   2.104   1.519
  950SOL     OW 3829   4.251   2.381   1.605
  950SOL    HW2 3830   4.239   2.373   1.699
  950SOL    HW3 3831   4.248   2.290   1.573
  950SOL    MW4 3832   4.249   2.368   1.613
  951SOL     OW 3833   3.995   2.480   1.555
  951SOL    HW2 3834   3.989   2.566   1.597
  951SOL    HW3 3835   4.085   2.451   1.572
  951SOL    MW4 3836   4.006   2.487   1.563
  952SOL     OW 3837   3.985   2.725   1.665
  952SOL    HW2 3838   3.999   2.709   1.759
  952SOL    HW3 3839   4.066   2.767   1.636
  952SOL    MW4 3840   3.997   2.729   1.674
  953SOL     OW 3841   4.230   2.819   1.557
  953SOL    HW2 3842   4.241   2.911   1.581
  953SOL    HW3 3843   4.244   2.817   1.462
  953SOL    MW4 3844   4.233   2.831   1.548
  954SOL     OW 3845   4.284   3.078   1.636
  954SOL    HW2 3846   4.280   3.086   1.732
  954SOL    HW3 3847   4.360   3.130   1.611
  954SOL    MW4 3848   4.293   3.086   1.646
  955SOL     OW 3849   4.054   3.208   1.535
  955SOL    HW2 3850   4.045   3.282   1.595
  955SOL    HW3 3851   4.112   3.147   1.582
  955SOL    MW4 3852   4.060   3.210   1.549
  956SOL     OW 3853   4.060   3.462   1.632
  956SOL    HW2 3854   4.077   3.475   1.725
  956SOL    HW3 3855   4.140   3.492   1.588
  956SOL    MW4 3856   4.073   3.468   1.638
  957SOL     OW 3857   4.292   3.588   1.548
  957SOL    HW2 3858   4.282   3.678   1.580
  957SOL    HW3 3859   4.295   3.598   1.452
  957SOL    MW4 3860   4.291   3.601   1.539
  958SOL     OW 3861   4.282   3.897   1.633
  958SOL    HW2 3862   4.206   3.921   1.580
  958SOL    HW3 3863   4.351   3.955   1.604
  958SOL    MW4 3864   4.281   3.908   1.622
  959SOL     OW 3865   4.039   3.959   1.525
  959SOL    HW2 3866   4.041   4.051   1.550
  959SOL    HW3 3867   4.065   3.959   1.432
  959SOL    MW4 3868   4.043   3.971   1.516
  960SOL     OW 3869   4.043   4.243   1.600
  960SOL    HW2 3870   4.049   4.241   1.695
  960SOL    HW3 3871   3.963   4.294   1.582
  960SOL    MW4 3872   4.033   4.250   1.610
  961SOL     OW 3873   4.258   4.378   1.526
  961SOL    HW2 3874   4.170   4.343   1.541
  961SOL    HW3 3875   4.258   4.403   1.433
  961SOL    MW4 3876   4.247   4.377   1.515
  962SOL     OW 3877   0.228   4.616   1.906
  962SOL    HW2 3878   0.307   4.643   1.953
  962SOL    HW3 3879   0.249   4.627   1.814
  962SOL    MW4 3880   0.241   4.621   1.900
  963SOL     OW 3881   0.009   0.078   2.014
  963SOL    HW2 3882   0.000   0.164   1.972
  963SOL    HW3 3883   0.083   0.038   1.969
  963SOL    MW4 3884   0.018   0.084   2.002
  964SOL     OW 3885   0.005   0.332   1.895
  964SOL    HW2 3886  -0.070   0.386   1.918
  964SOL    HW3 3887   0.078   0.371   1.943
  964SOL    MW4 3888   0.005   0.344   1.904
  965SOL     OW 3889   0.218   0.449   2.016
  965SOL    HW2 3890   0.297   0.411   1.977
  965SOL    HW3 3891   0.214   0.538   1.981
  965SOL    MW4 3892   0.228   0.455   2.006
  966SOL     OW 3893   0.202   0.708   1.913
  966SOL    HW2 3894   0.278   0.759   1.941
  966SOL    HW3 3895   0.200   0.719   1.818
  966SOL    MW4 3896   0.212   0.717   1.904
  967SOL     OW 3897   4.483   0.870   2.013
  967SOL    HW2 3898   4.405   0.833   1.970
  967SOL    HW3 3899   4.551   0.803   2.000
  967SOL    MW4 3900   4.482   0.856   2.006
  968SOL     OW 3901   4.484   1.104   1.863
  968SOL    HW2 3902   4.432   1.160   1.921
  968SOL    HW3 3903   4.488   1.020   1.908
  968SOL    MW4 3904   4.477   1.100   1.877
  969SOL     OW 3905   0.216   1.238   1.972
  969SOL    HW2 3906   0.195   1.324   1.934
  969SOL    HW3 3907   0.146   1.181   1.941
  969SOL    MW4 3908   0.204   1.242   1.963
  970SOL     OW 3909   0.184   1.497   1.868
  970SOL    HW2 3910   0.263   1.544   1.895
  970SOL    HW3 3911   0.114   1.540   1.918
  970SOL    MW4 3912   0.185   1.509   1.878
  971SOL     OW 3913   4.445   1.655   1.998
  971SOL    HW2 3914   4.457   1.677   2.091
  971SOL    HW3 3915   4.355   1.625   1.992
  971SOL    MW4 3916   4.435   1.654   2.010
  972SOL     OW 3917   4.440   1.931   1.883
  972SOL    HW2 3918   4.378   1.973   1.942
  972SOL    HW3 3919   4.445   1.840   1.915
  972SOL    MW4 3920   4.433   1.924   1.895
  973SOL     OW 3921   0.167   2.002   2.054
  973SOL    HW2 3922   0.185   2.093   2.028
  973SOL    HW3 3923   0.097   1.974   1.995
  973SOL    MW4 3924   0.160   2.010   2.042
  974SOL     OW 3925   0.190   2.293   1.966
  974SOL    HW2 3926   0.264   2.340   2.003
  974SOL    HW3 3927   0.114   2.345   1.990
  974SOL    MW4 3928   0.189   2.306   1.974
  975SOL     OW 3929   4.466   2.455   2.014
  975SOL    HW2 3930   4.475   2.466   2.108
  975SOL    HW3 3931   4.489   2.541   1.978
  975SOL    MW4 3932   4.470   2.468   2.022
  976SOL     OW 3933   4.486   2.701   1.915
  976SOL    HW2 3934   4.416   2.759   1.947
  976SOL    HW3 3935   4.480   2.708   1.820
  976SOL    MW4 3936   4.476   2.710   1.906
  977SOL     OW 3937   0.242   2.806   1.987
  977SOL    HW2 3938   0.232   2.899   1.963
  977SOL    HW3 3939   0.157   2.767   1.967
  977SOL    MW4 3940   0.230   2.813   1.981
  978SOL     OW 3941   0.200   3.063   1.915
  978SOL    HW2 3942   0.271   3.118   1.947
  978SOL    HW3 3943   0.196   3.081   1.821
  978SOL    MW4 3944   0.209   3.073   1.906
  979SOL     OW 3945   4.478   3.193   2.045
  979SOL    HW2 3946   4.398   3.162   2.004
  979SOL    HW3 3947   4.548   3.144   2.001
  979SOL    MW4 3948   4.477   3.182   2.034
  980SOL     OW 3949   4.464   3.455   1.925
  980SOL    HW2 3950   4.541   3.503   1.957
  980SOL    HW3 3951   4.470   3.369   1.968
  980SOL    MW4 3952   4.475   3.450   1.935
  981SOL     OW 3953   0.217   3.558   2.008
  981SOL    HW2 3954   0.213   3.577   2.102
  981SOL    HW3 3955   0.304   3.521   1.994
  981SOL    MW4 3956   0.228   3.556   2.019
  982SOL     OW 3957   0.202   3.826   1.940
  982SOL    HW2 3958   0.286   3.850   1.980
  982SOL    HW3 3959   0.195   3.731   1.953
  982SOL    MW4 3960   0.212   3.817   1.947
  983SOL     OW 3961   4.459   3.991   2.032
  983SOL    HW2 3962   4.489   4.072   1.990
  983SOL    HW3 3963   4.535   3.932   2.025
  983SOL    MW4 3964   4.473   3.994   2.026
  984SOL     OW 3965   0.011   4.233   1.903
  984SOL    HW2 3966  -0.062   4.281   1.943
  984SOL    HW3 3967   0.089   4.284   1.927
  984SOL    MW4 3968   0.012   4.246   1.912
  985SOL     OW 3969   0.251   4.361   1.997
  985SOL    HW2 3970   0.241   4.387   2.089
  985SOL    HW3 3971   0.269   4.442   1.950
  985SOL    MW4 3972   0.252   4.375   2.003
  986SOL     OW 3973   0.653   4.614   1.941
  986SOL    HW2 3974   0.664   4.527   1.979
  986SOL    HW3 3975   0.669   4.601   1.848
  986SOL    MW4 3976   0.657   4.601   1.934
  987SOL     OW 3977   0.439   0.057   2.060
  987SOL    HW2 3978   0.430   0.141   2.015
  987SOL    HW3 3979   0.524   0.024   2.031
  987SOL    MW4 3980   0.449   0.064   2.050
  988SOL     OW 3981   0.445   0.312   1.936
  988SOL    HW2 3982   0.517   0.346   1.989
  988SOL    HW3 3983   0.465   0.343   1.847
  988SOL    MW4 3984   0.457   0.320   1.931
  989SOL     OW 3985   0.661   0.470   2.059
  989SOL    HW2 3986   0.681   0.474   2.153
  989SOL    HW3 3987   0.741   0.437   2.019
  989SOL    MW4 3988   0.674   0.466   2.066
  990SOL     OW 3989   0.651   0.723   1.923
  990SOL    HW2 3990   0.725   0.767   1.965
  990SOL    HW3 3991   0.637   0.644   1.975
  990SOL    MW4 3992   0.659   0.719   1.935
  991SOL     OW 3993   0.417   0.876   1.962
  991SOL    HW2 3994   0.443   0.962   1.926
  991SOL    HW3 3995   0.496   0.823   1.954
  991SOL    MW4 3996   0.431   0.881   1.956
  992SOL     OW 3997   0.446   1.132   1.866
  992SOL    HW2 3998   0.371   1.189   1.883
  992SOL    HW3 3999   0.441   1.112   1.772
  992SOL    MW4 4000   0.436   1.137   1.856
  993SOL     OW 4001   0.670   1.252   1.972
  993SOL    HW2 4002   0.648   1.257   2.065
  993SOL    HW3 4003   0.612   1.184   1.937
  993SOL    MW4 4004   0.659   1.244   1.980
  994SOL     OW 4005   0.639   1.518   1.912
  994SOL    HW2 4006   0.653   1.426   1.937
  994SOL    HW3 4007   0.664   1.521   1.820
  994SOL    MW4 4008   0.644   1.506   1.903
  995SOL     OW 4009   0.395   1.643   1.957
  995SOL    HW2 4010   0.393   1.648   2.053
  995SOL    HW3 4011   0.473   1.590   1.939
  995SOL    MW4 4012   0.405   1.636   1.967
  996SOL     OW 4013   0.377   1.908   1.922
  996SOL    HW2 4014   0.381   1.812   1.931
  996SOL    HW3 4015   0.290   1.931   1.955
  996SOL    MW4 4016   0.366   1.898   1.928
  997SOL     OW 4017   0.618   2.020   1.959
  997SOL    HW2 4018   0.617   2.053   2.049
  997SOL    HW3 4019   0.530   1.986   1.946
  997SOL    MW4 4020   0.606   2.020   1.969
  998SOL     OW 4021   0.680   2.274   1.897
  998SOL    HW2 4022   0.686   2.179   1.907
  998SOL    HW3 4023   0.683   2.289   1.803
  998SOL    MW4 4024   0.681   2.264   1.886
  999SOL     OW 4025   0.457   2.372   2.033
  999SOL    HW2 4026   0.474   2.393   2.124
  999SOL    HW3 4027   0.533   2.321   2.005
  999SOL    MW4 4028   0.469   2.369   2.041
 1000SOL     OW 4029   0.456   2.656   1.929
 1000SOL    HW2 4030   0.449   2.568   1.967
 1000SOL    HW3 4031   0.376   2.700   1.958
 1000SOL    MW4 4032   0.444   2.650   1.938
 1001SOL     OW 4033   0.688   2.796   1.992
 1001SOL    HW2 4034   0.675   2.814   2.085
 1001SOL    HW3 4035   0.611   2.747   1.965
 1001SOL    MW4 4036   0.676   2.792   2.000
 1002SOL     OW 4037   0.657   3.060   1.947
 1002SOL    HW2 4038   0.683   2.972   1.976
 1002SOL    HW3 4039   0.658   3.055   1.851
 1002SOL    MW4 4040   0.661   3.048   1.938
 1003SOL     OW 4041   0.426   3.176   2.022
 1003SOL    HW2 4042   0.442   3.265   1.989
 1003SOL    HW3 4043   0.510   3.132   2.013
 1003SOL    MW4 4044   0.439   3.182   2.017
 1004SOL     OW 4045   0.486   3.441   1.955
 1004SOL    HW2 4046   0.570   3.470   1.991
 1004SOL    HW3 4047   0.494   3.456   1.861
 1004SOL    MW4 4048   0.498   3.447   1.948
 1005SOL     OW 4049   0.709   3.581   2.061
 1005SOL    HW2 4050   0.789   3.545   2.023
 1005SOL    HW3 4051   0.690   3.659   2.009
 1005SOL    MW4 4052   0.717   3.586   2.049
 1006SOL     OW 4053   0.688   3.810   1.903
 1006SOL    HW2 4054   0.766   3.864   1.917
 1006SOL    HW3 4055   0.676   3.809   1.808
 1006SOL    MW4 4056   0.697   3.817   1.892
 1007SOL     OW 4057   0.462   3.938   2.019
 1007SOL    HW2 4058   0.469   4.026   1.982
 1007SOL    HW3 4059   0.534   3.889   1.978
 1007SOL    MW4 4060   0.473   3.943   2.009
 1008SOL     OW 4061   0.474   4.216   1.907
 1008SOL    HW2 4062   0.405   4.270   1.945
 1008SOL    HW3 4063   0.455   4.215   1.813
 1008SOL    MW4 4064   0.463   4.223   1.899
 1009SOL     OW 4065   0.698   4.354   2.004
 1009SOL    HW2 4066   0.779   4.327   1.960
 1009SOL    HW3 4067   0.631   4.297   1.966
 1009SOL    MW4 4068   0.700   4.343   1.993
 1010SOL     OW 4069   1.130   4.599   1.868
 1010SOL    HW2 4070   1.189   4.657   1.915
 1010SOL    HW3 4071   1.158   4.511   1.892
 1010SOL    MW4 4072   1.141   4.595   1.877
 1011SOL     OW 4073   0.897   0.071   1.977
 1011SOL    HW2 4074   0.968   0.021   1.938
 1011SOL    HW3 4075   0.817   0.024   1.951
 1011SOL    MW4 4076   0.896   0.058   1.968
 1012SOL     OW 4077   0.876   0.344   1.909
 1012SOL    HW2 4078   0.946   0.391   1.955
 1012SOL    HW3 4079   0.875   0.257   1.948
 1012SOL    MW4 4080   0.885   0.339   1.920
 1013SOL     OW 4081   1.067   0.476   2.064
 1013SOL    HW2 4082   1.150   0.446   2.027
 1013SOL    HW3 4083   1.062   0.568   2.040
 1013SOL    MW4 4084   1.077   0.484   2.056
 1014SOL     OW 4085   1.085   0.734   1.959
 1014SOL    HW2 4086   1.156   0.788   1.992
 1014SOL    HW3 4087   1.005   0.782   1.984
 1014SOL    MW4 4088   1.084   0.748   1.967
 1015SOL     OW 4089   0.846   0.874   2.022
 1015SOL    HW2 4090   0.849   0.877   2.118
 1015SOL    HW3 4091   0.880   0.959   1.994
 1015SOL    MW4 4092   0.851   0.885   2.031
 1016SOL     OW 4093   0.926   1.127   1.940
 1016SOL    HW2 4094   0.839   1.163   1.958
 1016SOL    HW3 4095   0.934   1.131   1.845
 1016SOL    MW4 4096   0.915   1.133   1.930
 1017SOL     OW 4097   1.142   1.295   2.057
 1017SOL    HW2 4098   1.137   1.369   1.998
 1017SOL    HW3 4099   1.065   1.242   2.036
 1017SOL    MW4 4100   1.131   1.298   2.047
 1018SOL     OW 4101   1.123   1.499   1.877
 1018SOL    HW2 4102   1.062   1.548   1.932
 1018SOL    HW3 4103   1.089   1.509   1.789
 1018SOL    MW4 4104   1.111   1.507   1.873
 1019SOL     OW 4105   0.890   1.604   2.015
 1019SOL    HW2 4106   0.870   1.691   1.979
 1019SOL    HW3 4107   0.816   1.550   1.986
 1019SOL    MW4 4108   0.878   1.609   2.006
 1020SOL     OW 4109   0.841   1.870   1.903
 1020SOL    HW2 4110   0.752   1.904   1.915
 1020SOL    HW3 4111   0.859   1.882   1.810
 1020SOL    MW4 4112   0.832   1.876   1.892
 1021SOL     OW 4113   1.092   1.979   1.986
 1021SOL    HW2 4114   1.081   2.070   1.959
 1021SOL    HW3 4115   1.007   1.938   1.969
 1021SOL    MW4 4116   1.079   1.985   1.980
 1022SOL     OW 4117   1.104   2.253   1.916
 1022SOL    HW2 4118   1.178   2.312   1.937
 1022SOL    HW3 4119   1.087   2.270   1.823
 1022SOL    MW4 4120   1.112   2.263   1.906
 1023SOL     OW 4121   0.888   2.409   2.019
 1023SOL    HW2 4122   0.957   2.356   1.980
 1023SOL    HW3 4123   0.807   2.375   1.982
 1023SOL    MW4 4124   0.887   2.398   2.009
 1024SOL     OW 4125   0.946   2.681   1.937
 1024SOL    HW2 4126   0.948   2.587   1.956
 1024SOL    HW3 4127   0.856   2.707   1.952
 1024SOL    MW4 4128   0.935   2.672   1.941
 1025SOL     OW 4129   1.164   2.849   1.999
 1025SOL    HW2 4130   1.182   2.818   2.088
 1025SOL    HW3 4131   1.087   2.800   1.971
 1025SOL    MW4 4132   1.156   2.839   2.007
 1026SOL     OW 4133   1.097   3.099   1.899
 1026SOL    HW2 4134   1.027   3.122   1.961
 1026SOL    HW3 4135   1.122   3.010   1.923
 1026SOL    MW4 4136   1.091   3.090   1.910
 1027SOL     OW 4137   0.879   3.189   2.050
 1027SOL    HW2 4138   0.857   3.205   2.142
 1027SOL    HW3 4139   0.800   3.151   2.013
 1027SOL    MW4 4140   0.866   3.186   2.057
 1028SOL     OW 4141   0.915   3.451   1.963
 1028SOL    HW2 4142   0.904   3.360   1.990
 1028SOL    HW3 4143   0.916   3.448   1.868
 1028SOL    MW4 4144   0.914   3.439   1.954
 1029SOL     OW 4145   1.151   3.596   2.016
 1029SOL    HW2 4146   1.156   3.614   2.109
 1029SOL    HW3 4147   1.071   3.544   2.005
 1029SOL    MW4 4148   1.141   3.591   2.027
 1030SOL     OW 4149   1.143   3.852   1.895
 1030SOL    HW2 4150   1.160   3.764   1.927
 1030SOL    HW3 4151   1.118   3.841   1.803
 1030SOL    MW4 4152   1.142   3.839   1.887
 1031SOL     OW 4153   0.908   3.994   1.950
 1031SOL    HW2 4154   0.900   3.997   2.045
 1031SOL    HW3 4155   0.994   3.957   1.934
 1031SOL    MW4 4156   0.918   3.990   1.960
 1032SOL     OW 4157   0.930   4.260   1.881
 1032SOL    HW2 4158   1.013   4.297   1.911
 1032SOL    HW3 4159   0.930   4.170   1.915
 1032SOL    MW4 4160   0.941   4.253   1.889
 1033SOL     OW 4161   1.175   4.350   1.964
 1033SOL    HW2 4162   1.187   4.349   2.059
 1033SOL    HW3 4163   1.255   4.310   1.930
 1033SOL    MW4 4164   1.187   4.344   1.972
 1034SOL     OW 4165   1.566   4.641   1.907
 1034SOL    HW2 4166   1.631   4.702   1.943
 1034SOL    HW3 4167   1.593   4.555   1.939
 1034SOL    MW4 4168   1.578   4.637   1.916
 1035SOL     OW 4169   1.327   0.102   1.980
 1035SOL    HW2 4170   1.348   0.106   2.073
 1035SOL    HW3 4171   1.400   0.052   1.942
 1035SOL    MW4 4172   1.340   0.096   1.987
 1036SOL     OW 4173   1.301   0.374   1.937
 1036SOL    HW2 4174   1.322   0.284   1.962
 1036SOL    HW3 4175   1.323   0.378   1.844
 1036SOL    MW4 4176   1.307   0.362   1.928
 1037SOL     OW 4177   1.541   0.489   2.056
 1037SOL    HW2 4178   1.621   0.450   2.023
 1037SOL    HW3 4179   1.470   0.444   2.010
 1037SOL    MW4 4180   1.542   0.478   2.046
 1038SOL     OW 4181   1.540   0.734   1.927
 1038SOL    HW2 4182   1.622   0.778   1.952
 1038SOL    HW3 4183   1.550   0.644   1.957
 1038SOL    MW4 4184   1.552   0.728   1.934
 1039SOL     OW 4185   1.329   0.872   2.024
 1039SOL    HW2 4186   1.327   0.878   2.120
 1039SOL    HW3 4187   1.413   0.829   2.005
 1039SOL    MW4 4188   1.340   0.867   2.034
 1040SOL     OW 4189   1.329   1.138   1.919
 1040SOL    HW2 4190   1.332   1.049   1.952
 1040SOL    HW3 4191   1.260   1.180   1.970
 1040SOL    MW4 4192   1.320   1.132   1.930
 1041SOL     OW 4193   1.558   1.287   1.997
 1041SOL    HW2 4194   1.561   1.375   1.960
 1041SOL    HW3 4195   1.470   1.256   1.979
 1041SOL    MW4 4196   1.547   1.295   1.990
 1042SOL     OW 4197   1.580   1.522   1.857
 1042SOL    HW2 4198   1.650   1.557   1.912
 1042SOL    HW3 4199   1.503   1.573   1.881
 1042SOL    MW4 4200   1.579   1.533   1.867
 1043SOL     OW 4201   1.346   1.631   1.959
 1043SOL    HW2 4202   1.346   1.634   2.055
 1043SOL    HW3 4203   1.277   1.569   1.937
 1043SOL    MW4 4204   1.337   1.623   1.969
 1044SOL     OW 4205   1.338   1.888   1.873
 1044SOL    HW2 4206   1.338   1.797   1.904
 1044SOL    HW3 4207   1.257   1.925   1.906
 1044SOL    MW4 4208   1.328   1.881   1.882
 1045SOL     OW 4209   1.567   2.009   2.020
 1045SOL    HW2 4210   1.572   2.093   1.974
 1045SOL    HW3 4211   1.494   1.963   1.980
 1045SOL    MW4 4212   1.558   2.014   2.009
 1046SOL     OW 4213   1.527   2.249   1.888
 1046SOL    HW2 4214   1.611   2.284   1.916
 1046SOL    HW3 4215   1.535   2.239   1.793
 1046SOL    MW4 4216   1.539   2.252   1.879
 1047SOL     OW 4217   1.323   2.411   1.989
 1047SOL    HW2 4218   1.360   2.492   1.953
 1047SOL    HW3 4219   1.391   2.345   1.974
 1047SOL    MW4 4220   1.337   2.413   1.983
 1048SOL     OW 4221   1.364   2.699   1.885
 1048SOL    HW2 4222   1.281   2.742   1.905
 1048SOL    HW3 4223   1.364   2.691   1.789
 1048SOL    MW4 4224   1.353   2.704   1.875
 1049SOL     OW 4225   1.600   2.811   1.969
 1049SOL    HW2 4226   1.666   2.750   1.937
 1049SOL    HW3 4227   1.517   2.772   1.943
 1049SOL    MW4 4228   1.598   2.798   1.961
 1050SOL     OW 4229   1.540   3.084   1.869
 1050SOL    HW2 4230   1.551   2.990   1.886
 1050SOL    HW3 4231   1.538   3.091   1.774
 1050SOL    MW4 4232   1.541   3.072   1.859
 1051SOL     OW 4233   1.326   3.214   1.984
 1051SOL    HW2 4234   1.396   3.160   1.948
 1051SOL    HW3 4235   1.245   3.175   1.952
 1051SOL    MW4 4236   1.325   3.202   1.975
 1052SOL     OW 4237   1.370   3.466   1.890
 1052SOL    HW2 4238   1.362   3.380   1.932
 1052SOL    HW3 4239   1.291   3.514   1.918
 1052SOL    MW4 4240   1.358   3.461   1.899
 1053SOL     OW 4241   1.593   3.600   1.974
 1053SOL    HW2 4242   1.581   3.613   2.068
 1053SOL    HW3 4243   1.523   3.539   1.949
 1053SOL    MW4 4244   1.582   3.594   1.983
 1054SOL     OW 4245   1.569   3.858   1.900
 1054SOL    HW2 4246   1.658   3.886   1.921
 1054SOL    HW3 4247   1.567   3.765   1.923
 1054SOL    MW4 4248   1.580   3.849   1.906
 1055SOL     OW 4249   1.369   4.013   1.988
 1055SOL    HW2 4250   1.446   3.961   1.965
 1055SOL    HW3 4251   1.295   3.962   1.955
 1055SOL    MW4 4252   1.370   4.000   1.981
 1056SOL     OW 4253   1.400   4.254   1.854
 1056SOL    HW2 4254   1.406   4.165   1.887
 1056SOL    HW3 4255   1.379   4.244   1.761
 1056SOL    MW4 4256   1.398   4.241   1.846
 1057SOL     OW 4257   1.603   4.390   2.007
 1057SOL    HW2 4258   1.592   4.392   2.102
 1057SOL    HW3 4259   1.520   4.356   1.973
 1057SOL    MW4 4260   1.591   4.386   2.015
 1058SOL     OW 4261   2.006   4.631   1.900
 1058SOL    HW2 4262   2.080   4.677   1.940
 1058SOL    HW3 4263   2.003   4.546   1.945
 1058SOL    MW4 4264   2.015   4.625   1.911
 1059SOL     OW 4265   1.795   0.113   1.985
 1059SOL    HW2 4266   1.812   0.110   2.079
 1059SOL    HW3 4267   1.866   0.062   1.945
 1059SOL    MW4 4268   1.806   0.106   1.992
 1060SOL     OW 4269   1.766   0.399   1.948
 1060SOL    HW2 4270   1.777   0.313   1.990
 1060SOL    HW3 4271   1.773   0.381   1.854
 1060SOL    MW4 4272   1.768   0.385   1.941
 1061SOL     OW 4273   2.005   0.474   2.059
 1061SOL    HW2 4274   2.020   0.564   2.028
 1061SOL    HW3 4275   1.924   0.447   2.016
 1061SOL    MW4 4276   1.996   0.483   2.049
 1062SOL     OW 4277   1.987   0.722   1.904
 1062SOL    HW2 4278   2.065   0.771   1.931
 1062SOL    HW3 4279   1.972   0.748   1.814
 1062SOL    MW4 4280   1.995   0.732   1.896
 1063SOL     OW 4281   1.756   0.891   2.014
 1063SOL    HW2 4282   1.771   0.984   1.993
 1063SOL    HW3 4283   1.833   0.846   1.979
 1063SOL    MW4 4284   1.768   0.898   2.007
 1064SOL     OW 4285   1.795   1.146   1.912
 1064SOL    HW2 4286   1.709   1.188   1.916
 1064SOL    HW3 4287   1.816   1.141   1.819
 1064SOL    MW4 4288   1.786   1.151   1.900
 1065SOL     OW 4289   2.020   1.265   2.016
 1065SOL    HW2 4290   2.096   1.229   1.969
 1065SOL    HW3 4291   1.944   1.232   1.967
 1065SOL    MW4 4292   2.020   1.256   2.003
 1066SOL     OW 4293   2.038   1.526   1.930
 1066SOL    HW2 4294   2.036   1.439   1.968
 1066SOL    HW3 4295   2.039   1.511   1.836
 1066SOL    MW4 4296   2.038   1.513   1.923
 1067SOL     OW 4297   1.790   1.655   1.968
 1067SOL    HW2 4298   1.800   1.746   1.940
 1067SOL    HW3 4299   1.875   1.616   1.952
 1067SOL    MW4 4300   1.802   1.662   1.962
 1068SOL     OW 4301   1.815   1.927   1.905
 1068SOL    HW2 4302   1.729   1.954   1.939
 1068SOL    HW3 4303   1.805   1.930   1.810
 1068SOL    MW4 4304   1.802   1.931   1.897
 1069SOL     OW 4305   2.045   2.035   2.013
 1069SOL    HW2 4306   2.114   1.986   1.968
 1069SOL    HW3 4307   1.964   2.001   1.975
 1069SOL    MW4 4308   2.043   2.024   2.002
 1070SOL     OW 4309   2.008   2.288   1.875
 1070SOL    HW2 4310   2.065   2.346   1.925
 1070SOL    HW3 4311   2.014   2.204   1.919
 1070SOL    MW4 4312   2.016   2.285   1.887
 1071SOL     OW 4313   1.761   2.377   1.968
 1071SOL    HW2 4314   1.773   2.377   2.063
 1071SOL    HW3 4315   1.842   2.338   1.934
 1071SOL    MW4 4316   1.774   2.372   1.976
 1072SOL     OW 4317   1.774   2.641   1.859
 1072SOL    HW2 4318   1.778   2.554   1.900
 1072SOL    HW3 4319   1.770   2.623   1.765
 1072SOL    MW4 4320   1.774   2.627   1.852
 1073SOL     OW 4321   1.988   2.789   1.962
 1073SOL    HW2 4322   1.990   2.786   2.058
 1073SOL    HW3 4323   1.906   2.745   1.939
 1073SOL    MW4 4324   1.977   2.783   1.972
 1074SOL     OW 4325   1.991   3.078   1.888
 1074SOL    HW2 4326   1.912   3.123   1.918
 1074SOL    HW3 4327   1.981   2.988   1.920
 1074SOL    MW4 4328   1.980   3.072   1.896
 1075SOL     OW 4329   1.761   3.215   1.962
 1075SOL    HW2 4330   1.759   3.223   2.057
 1075SOL    HW3 4331   1.676   3.179   1.939
 1075SOL    MW4 4332   1.750   3.211   1.972
 1076SOL     OW 4333   1.816   3.467   1.875
 1076SOL    HW2 4334   1.804   3.374   1.897
 1076SOL    HW3 4335   1.748   3.512   1.925
 1076SOL    MW4 4336   1.805   3.460   1.885
 1077SOL     OW 4337   2.032   3.626   1.967
 1077SOL    HW2 4338   2.030   3.717   1.938
 1077SOL    HW3 4339   1.966   3.582   1.913
 1077SOL    MW4 4340   2.023   3.632   1.956
 1078SOL     OW 4341   2.032   3.904   1.893
 1078SOL    HW2 4342   2.114   3.939   1.929
 1078SOL    HW3 4343   2.046   3.905   1.798
 1078SOL    MW4 4344   2.045   3.909   1.885
 1079SOL     OW 4345   1.792   3.988   1.995
 1079SOL    HW2 4346   1.798   4.080   1.970
 1079SOL    HW3 4347   1.867   3.947   1.953
 1079SOL    MW4 4348   1.803   3.995   1.986
 1080SOL     OW 4349   1.804   4.239   1.875
 1080SOL    HW2 4350   1.730   4.291   1.906
 1080SOL    HW3 4351   1.793   4.237   1.780
 1080SOL    MW4 4352   1.793   4.246   1.866
 1081SOL     OW 4353   1.999   4.377   2.022
 1081SOL    HW2 4354   2.071   4.342   1.971
 1081SOL    HW3 4355   1.921   4.332   1.989
 1081SOL    MW4 4356   1.998   4.367   2.011
 1082SOL     OW 4357   2.454   4.646   1.871
 1082SOL    HW2 4358   2.538   4.689   1.887
 1082SOL    HW3 4359   2.471   4.554   1.888
 1082SOL    MW4 4360   2.467   4.640   1.875
 1083SOL     OW 4361   2.243   0.118   2.009
 1083SOL    HW2 4362   2.238   0.111   2.104
 1083SOL    HW3 4363   2.319   0.065   1.985
 1083SOL    MW4 4364   2.252   0.110   2.018
 1084SOL     OW 4365   2.240   0.372   1.928
 1084SOL    HW2 4366   2.245   0.278   1.944
 1084SOL    HW3 4367   2.155   0.398   1.964
 1084SOL    MW4 4368   2.229   0.363   1.935
 1085SOL     OW 4369   2.480   0.500   1.975
 1085SOL    HW2 4370   2.540   0.450   1.919
 1085SOL    HW3 4371   2.395   0.458   1.960
 1085SOL    MW4 4372   2.476   0.488   1.965
 1086SOL     OW 4373   2.499   0.780   1.953
 1086SOL    HW2 4374   2.508   0.685   1.957
 1086SOL    HW3 4375   2.464   0.797   1.865
 1086SOL    MW4 4376   2.495   0.770   1.942
 1087SOL     OW 4377   2.223   0.832   2.009
 1087SOL    HW2 4378   2.224   0.849   2.103
 1087SOL    HW3 4379   2.314   0.811   1.987
 1087SOL    MW4 4380   2.235   0.832   2.018
 1088SOL     OW 4381   2.240   1.100   1.918
 1088SOL    HW2 4382   2.320   1.145   1.947
 1088SOL    HW3 4383   2.236   1.021   1.971
 1088SOL    MW4 4384   2.250   1.095   1.929
 1089SOL     OW 4385   2.457   1.233   1.988
 1089SOL    HW2 4386   2.461   1.244   2.083
 1089SOL    HW3 4387   2.456   1.322   1.954
 1089SOL    MW4 4388   2.457   1.246   1.996
 1090SOL     OW 4389   2.467   1.504   1.910
 1090SOL    HW2 4390   2.397   1.565   1.933
 1090SOL    HW3 4391   2.478   1.517   1.815
 1090SOL    MW4 4392   2.459   1.514   1.900
 1091SOL     OW 4393   2.271   1.656   2.005
 1091SOL    HW2 4394   2.268   1.659   2.101
 1091SOL    HW3 4395   2.188   1.615   1.980
 1091SOL    MW4 4396   2.259   1.651   2.015
 1092SOL     OW 4397   2.241   1.891   1.896
 1092SOL    HW2 4398   2.317   1.940   1.927
 1092SOL    HW3 4399   2.252   1.804   1.934
 1092SOL    MW4 4400   2.253   1.886   1.905
 1093SOL     OW 4401   2.452   2.076   1.966
 1093SOL    HW2 4402   2.523   2.021   1.933
 1093SOL    HW3 4403   2.456   2.155   1.911
 1093SOL    MW4 4404   2.462   2.079   1.954
 1094SOL     OW 4405   2.445   2.325   1.835
 1094SOL    HW2 4406   2.527   2.363   1.868
 1094SOL    HW3 4407   2.376   2.367   1.887
 1094SOL    MW4 4408   2.447   2.335   1.847
 1095SOL     OW 4409   2.226   2.448   1.975
 1095SOL    HW2 4410   2.231   2.470   2.068
 1095SOL    HW3 4411   2.223   2.532   1.930
 1095SOL    MW4 4412   2.226   2.462   1.981
 1096SOL     OW 4413   2.248   2.716   1.903
 1096SOL    HW2 4414   2.157   2.742   1.918
 1096SOL    HW3 4415   2.252   2.695   1.810
 1096SOL    MW4 4416   2.237   2.716   1.893
 1097SOL     OW 4417   2.488   2.818   1.954
 1097SOL    HW2 4418   2.477   2.912   1.936
 1097SOL    HW3 4419   2.402   2.780   1.936
 1097SOL    MW4 4420   2.475   2.826   1.949
 1098SOL     OW 4421   2.456   3.098   1.916
 1098SOL    HW2 4422   2.367   3.132   1.918
 1098SOL    HW3 4423   2.476   3.087   1.823
 1098SOL    MW4 4424   2.447   3.101   1.904
 1099SOL     OW 4425   2.188   3.237   1.993
 1099SOL    HW2 4426   2.190   3.229   2.089
 1099SOL    HW3 4427   2.118   3.178   1.965
 1099SOL    MW4 4428   2.179   3.228   2.002
 1100SOL     OW 4429   2.259   3.488   1.899
 1100SOL    HW2 4430   2.245   3.398   1.931
 1100SOL    HW3 4431   2.183   3.536   1.930
 1100SOL    MW4 4432   2.247   3.482   1.907
 1101SOL     OW 4433   2.473   3.630   1.965
 1101SOL    HW2 4434   2.474   3.648   2.059
 1101SOL    HW3 4435   2.397   3.574   1.952
 1101SOL    MW4 4436   2.463   3.625   1.976
 1102SOL     OW 4437   2.497   3.869   1.858
 1102SOL    HW2 4438   2.425   3.920   1.894
 1102SOL    HW3 4439   2.486   3.781   1.895
 1102SOL    MW4 4440   2.486   3.864   1.868
 1103SOL     OW 4441   2.259   4.026   1.969
 1103SOL    HW2 4442   2.242   4.041   2.063
 1103SOL    HW3 4443   2.234   4.109   1.928
 1103SOL    MW4 4444   2.253   4.039   1.976
 1104SOL     OW 4445   2.207   4.295   1.881
 1104SOL    HW2 4446   2.283   4.337   1.921
 1104SOL    HW3 4447   2.229   4.290   1.788
 1104SOL    MW4 4448   2.220   4.300   1.874
 1105SOL     OW 4449   2.462   4.371   1.964
 1105SOL    HW2 4450   2.470   4.366   2.059
 1105SOL    HW3 4451   2.537   4.323   1.931
 1105SOL    MW4 4452   2.473   4.364   1.972
 1106SOL     OW 4453   2.911   4.613   1.850
 1106SOL    HW2 4454   2.983   4.672   1.870
 1106SOL    HW3 4455   2.926   4.537   1.906
 1106SOL    MW4 4456   2.923   4.610   1.860
 1107SOL     OW 4457   2.690   0.106   1.935
 1107SOL    HW2 4458   2.689   0.102   2.031
 1107SOL    HW3 4459   2.759   0.046   1.909
 1107SOL    MW4 4460   2.699   0.098   1.944
 1108SOL     OW 4461   2.707   0.362   1.843
 1108SOL    HW2 4462   2.764   0.409   1.903
 1108SOL    HW3 4463   2.708   0.272   1.874
 1108SOL    MW4 4464   2.715   0.356   1.855
 1109SOL     OW 4465   2.914   0.522   1.977
 1109SOL    HW2 4466   2.989   0.484   1.933
 1109SOL    HW3 4467   2.910   0.612   1.945
 1109SOL    MW4 4468   2.923   0.529   1.967
 1110SOL     OW 4469   2.921   0.780   1.883
 1110SOL    HW2 4470   3.003   0.820   1.912
 1110SOL    HW3 4471   2.853   0.823   1.935
 1110SOL    MW4 4472   2.923   0.791   1.894
 1111SOL     OW 4473   2.728   0.914   2.021
 1111SOL    HW2 4474   2.727   0.991   1.965
 1111SOL    HW3 4475   2.653   0.862   1.993
 1111SOL    MW4 4476   2.718   0.917   2.010
 1112SOL     OW 4477   2.710   1.164   1.902
 1112SOL    HW2 4478   2.621   1.187   1.927
 1112SOL    HW3 4479   2.711   1.172   1.806
 1112SOL    MW4 4480   2.699   1.168   1.893
 1113SOL     OW 4481   2.912   1.281   2.049
 1113SOL    HW2 4482   2.909   1.367   2.007
 1113SOL    HW3 4483   2.841   1.231   2.008
 1113SOL    MW4 4484   2.902   1.286   2.038
 1114SOL     OW 4485   2.897   1.514   1.885
 1114SOL    HW2 4486   2.981   1.549   1.915
 1114SOL    HW3 4487   2.897   1.529   1.790
 1114SOL    MW4 4488   2.908   1.521   1.876
 1115SOL     OW 4489   2.684   1.655   1.995
 1115SOL    HW2 4490   2.766   1.617   1.964
 1115SOL    HW3 4491   2.616   1.593   1.968
 1115SOL    MW4 4492   2.685   1.642   1.987
 1116SOL     OW 4493   2.659   1.906   1.863
 1116SOL    HW2 4494   2.733   1.954   1.901
 1116SOL    HW3 4495   2.666   1.818   1.901
 1116SOL    MW4 4496   2.670   1.901   1.873
 1117SOL     OW 4497   2.882   2.039   1.952
 1117SOL    HW2 4498   2.884   2.039   2.048
 1117SOL    HW3 4499   2.958   1.987   1.927
 1117SOL    MW4 4500   2.892   2.032   1.961
 1118SOL     OW 4501   2.915   2.297   1.847
 1118SOL    HW2 4502   2.996   2.334   1.882
 1118SOL    HW3 4503   2.907   2.211   1.891
 1118SOL    MW4 4504   2.925   2.290   1.858
 1119SOL     OW 4505   2.687   2.436   1.891
 1119SOL    HW2 4506   2.708   2.529   1.881
 1119SOL    HW3 4507   2.767   2.390   1.866
 1119SOL    MW4 4508   2.700   2.442   1.887
 1120SOL     OW 4509   2.731   2.710   1.865
 1120SOL    HW2 4510   2.653   2.756   1.896
 1120SOL    HW3 4511   2.719   2.704   1.770
 1120SOL    MW4 4512   2.719   2.715   1.857
 1121SOL     OW 4513   2.933   2.868   1.961
 1121SOL    HW2 4514   2.914   2.959   1.938
 1121SOL    HW3 4515   2.858   2.819   1.928
 1121SOL    MW4 4516   2.921   2.874   1.953
 1122SOL     OW 4517   2.893   3.119   1.850
 1122SOL    HW2 4518   2.968   3.163   1.888
 1122SOL    HW3 4519   2.818   3.150   1.901
 1122SOL    MW4 4520   2.893   3.129   1.862
 1123SOL     OW 4521   2.681   3.226   1.989
 1123SOL    HW2 4522   2.673   3.311   1.946
 1123SOL    HW3 4523   2.598   3.181   1.969
 1123SOL    MW4 4524   2.669   3.231   1.981
 1124SOL     OW 4525   2.685   3.461   1.845
 1124SOL    HW2 4526   2.757   3.493   1.900
 1124SOL    HW3 4527   2.609   3.514   1.872
 1124SOL    MW4 4528   2.685   3.472   1.856
 1125SOL     OW 4529   2.890   3.574   1.975
 1125SOL    HW2 4530   2.905   3.586   2.069
 1125SOL    HW3 4531   2.971   3.534   1.943
 1125SOL    MW4 4532   2.903   3.570   1.983
 1126SOL     OW 4533   2.912   3.845   1.887
 1126SOL    HW2 4534   2.914   3.752   1.908
 1126SOL    HW3 4535   2.903   3.848   1.792
 1126SOL    MW4 4536   2.911   3.833   1.877
 1127SOL     OW 4537   2.723   4.001   1.999
 1127SOL    HW2 4538   2.790   3.947   1.959
 1127SOL    HW3 4539   2.640   3.962   1.971
 1127SOL    MW4 4540   2.721   3.989   1.990
 1128SOL     OW 4541   2.688   4.245   1.877
 1128SOL    HW2 4542   2.679   4.152   1.896
 1128SOL    HW3 4543   2.676   4.251   1.782
 1128SOL    MW4 4544   2.685   4.234   1.867
 1129SOL     OW 4545   2.914   4.360   1.974
 1129SOL    HW2 4546   2.914   4.358   2.070
 1129SOL    HW3 4547   2.839   4.306   1.949
 1129SOL    MW4 4548   2.904   4.353   1.983
 1130SOL     OW 4549   3.388   4.666   1.851
 1130SOL    HW2 4550   3.371   4.576   1.878
 1130SOL    HW3 4551   3.373   4.667   1.757
 1130SOL    MW4 4552   3.384   4.654   1.842
 1131SOL     OW 4553   3.133   0.106   1.939
 1131SOL    HW2 4554   3.144   0.097   2.034
 1131SOL    HW3 4555   3.220   0.093   1.903
 1131SOL    MW4 4556   3.146   0.103   1.947
 1132SOL     OW 4557   3.146   0.401   1.889
 1132SOL    HW2 4558   3.134   0.311   1.916
 1132SOL    HW3 4559   3.145   0.398   1.793
 1132SOL    MW4 4560   3.144   0.389   1.880
 1133SOL     OW 4561   3.367   0.551   1.980
 1133SOL    HW2 4562   3.443   0.496   1.962
 1133SOL    HW3 4563   3.293   0.503   1.941
 1133SOL    MW4 4564   3.367   0.537   1.972
 1134SOL     OW 4565   3.365   0.794   1.842
 1134SOL    HW2 4566   3.287   0.838   1.874
 1134SOL    HW3 4567   3.369   0.713   1.892
 1134SOL    MW4 4568   3.356   0.789   1.853
 1135SOL     OW 4569   3.139   0.909   1.974
 1135SOL    HW2 4570   3.126   0.895   2.068
 1135SOL    HW3 4571   3.131   1.004   1.962
 1135SOL    MW4 4572   3.136   0.920   1.985
 1136SOL     OW 4573   3.110   1.170   1.897
 1136SOL    HW2 4574   3.185   1.212   1.940
 1136SOL    HW3 4575   3.034   1.206   1.943
 1136SOL    MW4 4576   3.110   1.181   1.909
 1137SOL     OW 4577   3.353   1.251   2.004
 1137SOL    HW2 4578   3.364   1.259   2.099
 1137SOL    HW3 4579   3.345   1.341   1.974
 1137SOL    MW4 4580   3.353   1.264   2.013
 1138SOL     OW 4581   3.338   1.509   1.916
 1138SOL    HW2 4582   3.414   1.560   1.943
 1138SOL    HW3 4583   3.263   1.564   1.937
 1138SOL    MW4 4584   3.338   1.523   1.923
 1139SOL     OW 4585   3.109   1.658   1.962
 1139SOL    HW2 4586   3.113   1.667   2.057
 1139SOL    HW3 4587   3.101   1.747   1.930
 1139SOL    MW4 4588   3.109   1.671   1.970
 1140SOL     OW 4589   3.119   1.919   1.854
 1140SOL    HW2 4590   3.198   1.964   1.884
 1140SOL    HW3 4591   3.125   1.925   1.758
 1140SOL    MW4 4592   3.131   1.926   1.845
 1141SOL     OW 4593   3.345   2.032   1.976
 1141SOL    HW2 4594   3.420   1.986   1.938
 1141SOL    HW3 4595   3.362   2.124   1.959
 1141SOL    MW4 4596   3.357   2.038   1.969
 1142SOL     OW 4597   3.380   2.292   1.885
 1142SOL    HW2 4598   3.302   2.329   1.927
 1142SOL    HW3 4599   3.365   2.306   1.792
 1142SOL    MW4 4600   3.368   2.299   1.878
 1143SOL     OW 4601   3.147   2.444   1.957
 1143SOL    HW2 4602   3.120   2.450   2.048
 1143SOL    HW3 4603   3.125   2.529   1.919
 1143SOL    MW4 4604   3.140   2.456   1.964
 1144SOL     OW 4605   3.130   2.705   1.856
 1144SOL    HW2 4606   3.061   2.770   1.867
 1144SOL    HW3 4607   3.136   2.693   1.761
 1144SOL    MW4 4608   3.122   2.712   1.845
 1145SOL     OW 4609   3.359   2.840   1.970
 1145SOL    HW2 4610   3.359   2.849   2.066
 1145SOL    HW3 4611   3.274   2.801   1.950
 1145SOL    MW4 4612   3.348   2.836   1.980
 1146SOL     OW 4613   3.362   3.112   1.858
 1146SOL    HW2 4614   3.437   3.156   1.899
 1146SOL    HW3 4615   3.361   3.025   1.898
 1146SOL    MW4 4616   3.372   3.106   1.869
 1147SOL     OW 4617   3.109   3.240   1.959
 1147SOL    HW2 4618   3.127   3.330   1.934
 1147SOL    HW3 4619   3.192   3.194   1.946
 1147SOL    MW4 4620   3.122   3.246   1.954
 1148SOL     OW 4621   3.153   3.490   1.873
 1148SOL    HW2 4622   3.220   3.525   1.932
 1148SOL    HW3 4623   3.189   3.502   1.786
 1148SOL    MW4 4624   3.166   3.496   1.870
 1149SOL     OW 4625   3.360   3.605   2.048
 1149SOL    HW2 4626   3.436   3.571   2.002
 1149SOL    HW3 4627   3.348   3.694   2.013
 1149SOL    MW4 4628   3.368   3.612   2.038
 1150SOL     OW 4629   3.386   3.850   1.890
 1150SOL    HW2 4630   3.312   3.910   1.896
 1150SOL    HW3 4631   3.405   3.844   1.796
 1150SOL    MW4 4632   3.378   3.857   1.879
 1151SOL     OW 4633   3.154   4.025   1.922
 1151SOL    HW2 4634   3.156   4.022   2.017
 1151SOL    HW3 4635   3.066   3.996   1.898
 1151SOL    MW4 4636   3.143   4.021   1.931
 1152SOL     OW 4637   3.133   4.281   1.822
 1152SOL    HW2 4638   3.154   4.192   1.849
 1152SOL    HW3 4639   3.067   4.311   1.884
 1152SOL    MW4 4640   3.127   4.274   1.834
 1153SOL     OW 4641   3.336   4.425   1.960
 1153SOL    HW2 4642   3.416   4.381   1.930
 1153SOL    HW3 4643   3.267   4.389   1.905
 1153SOL    MW4 4644   3.338   4.415   1.949
 1154SOL     OW 4645   3.791   4.641   1.882
 1154SOL    HW2 4646   3.770   4.557   1.923
 1154SOL    HW3 4647   3.732   4.704   1.924
 1154SOL    MW4 4648   3.781   4.639   1.893
 1155SOL     OW 4649   3.592   0.116   1.979
 1155SOL    HW2 4650   3.588   0.109   2.075
 1155SOL    HW3 4651   3.511   0.074   1.949
 1155SOL    MW4 4652   3.581   0.110   1.988
 1156SOL     OW 4653   3.578   0.395   1.905
 1156SOL    HW2 4654   3.573   0.305   1.936
 1156SOL    HW3 4655   3.588   0.388   1.810
 1156SOL    MW4 4656   3.579   0.382   1.896
 1157SOL     OW 4657   3.831   0.474   1.966
 1157SOL    HW2 4658   3.835   0.567   1.947
 1157SOL    HW3 4659   3.739   0.451   1.953
 1157SOL    MW4 4660   3.819   0.483   1.962
 1158SOL     OW 4661   3.824   0.734   1.883
 1158SOL    HW2 4662   3.739   0.776   1.895
 1158SOL    HW3 4663   3.831   0.723   1.788
 1158SOL    MW4 4664   3.813   0.738   1.872
 1159SOL     OW 4665   3.597   0.885   1.961
 1159SOL    HW2 4666   3.595   0.977   1.931
 1159SOL    HW3 4667   3.513   0.849   1.933
 1159SOL    MW4 4668   3.586   0.893   1.953
 1160SOL     OW 4669   3.599   1.166   1.904
 1160SOL    HW2 4670   3.518   1.201   1.942
 1160SOL    HW3 4671   3.584   1.167   1.810
 1160SOL    MW4 4672   3.586   1.171   1.897
 1161SOL     OW 4673   3.837   1.291   1.930
 1161SOL    HW2 4674   3.848   1.310   2.023
 1161SOL    HW3 4675   3.753   1.244   1.925
 1161SOL    MW4 4676   3.828   1.287   1.942
 1162SOL     OW 4677   3.795   1.550   1.869
 1162SOL    HW2 4678   3.857   1.606   1.915
 1162SOL    HW3 4679   3.816   1.461   1.899
 1162SOL    MW4 4680   3.806   1.545   1.879
 1163SOL     OW 4681   3.549   1.654   1.969
 1163SOL    HW2 4682   3.557   1.741   1.930
 1163SOL    HW3 4683   3.628   1.608   1.942
 1163SOL    MW4 4684   3.561   1.659   1.960
 1164SOL     OW 4685   3.566   1.896   1.850
 1164SOL    HW2 4686   3.639   1.954   1.870
 1164SOL    HW3 4687   3.562   1.894   1.754
 1164SOL    MW4 4688   3.575   1.903   1.840
 1165SOL     OW 4689   3.801   2.048   1.951
 1165SOL    HW2 4690   3.884   2.019   1.914
 1165SOL    HW3 4691   3.804   2.144   1.944
 1165SOL    MW4 4692   3.812   2.057   1.945
 1166SOL     OW 4693   3.803   2.314   1.909
 1166SOL    HW2 4694   3.887   2.339   1.947
 1166SOL    HW3 4695   3.741   2.379   1.942
 1166SOL    MW4 4696   3.806   2.326   1.918
 1167SOL     OW 4697   3.580   2.442   2.015
 1167SOL    HW2 4698   3.576   2.529   1.975
 1167SOL    HW3 4699   3.528   2.386   1.956
 1167SOL    MW4 4700   3.572   2.446   2.002
 1168SOL     OW 4701   3.596   2.696   1.888
 1168SOL    HW2 4702   3.665   2.749   1.930
 1168SOL    HW3 4703   3.516   2.746   1.903
 1168SOL    MW4 4704   3.595   2.710   1.896
 1169SOL     OW 4705   3.828   2.835   2.009
 1169SOL    HW2 4706   3.825   2.829   2.104
 1169SOL    HW3 4707   3.834   2.929   1.991
 1169SOL    MW4 4708   3.828   2.847   2.019
 1170SOL     OW 4709   3.823   3.107   1.911
 1170SOL    HW2 4710   3.740   3.146   1.936
 1170SOL    HW3 4711   3.819   3.102   1.815
 1170SOL    MW4 4712   3.812   3.112   1.901
 1171SOL     OW 4713   3.574   3.245   1.968
 1171SOL    HW2 4714   3.566   3.238   2.063
 1171SOL    HW3 4715   3.596   3.337   1.952
 1171SOL    MW4 4716   3.576   3.256   1.978
 1172SOL     OW 4717   3.603   3.507   1.885
 1172SOL    HW2 4718   3.692   3.526   1.916
 1172SOL    HW3 4719   3.613   3.494   1.791
 1172SOL    MW4 4720   3.616   3.508   1.877
 1173SOL     OW 4721   3.826   3.619   2.001
 1173SOL    HW2 4722   3.901   3.578   1.958
 1173SOL    HW3 4723   3.827   3.710   1.970
 1173SOL    MW4 4724   3.836   3.626   1.991
 1174SOL     OW 4725   3.823   3.880   1.914
 1174SOL    HW2 4726   3.736   3.917   1.925
 1174SOL    HW3 4727   3.832   3.866   1.820
 1174SOL    MW4 4728   3.813   3.883   1.903
 1175SOL     OW 4729   3.594   4.018   1.953
 1175SOL    HW2 4730   3.594   4.022   2.048
 1175SOL    HW3 4731   3.533   3.947   1.932
 1175SOL    MW4 4732   3.586   4.009   1.963
 1176SOL     OW 4733   3.545   4.280   1.840
 1176SOL    HW2 4734   3.628   4.316   1.872
 1176SOL    HW3 4735   3.544   4.191   1.874
 1176SOL    MW4 4736   3.556   4.273   1.849
 1177SOL     OW 4737   3.768   4.386   1.974
 1177SOL    HW2 4738   3.758   4.354   2.063
 1177SOL    HW3 4739   3.855   4.357   1.947
 1177SOL    MW4 4740   3.778   4.378   1.982
 1178SOL     OW 4741   4.271   4.613   1.931
 1178SOL    HW2 4742   4.205   4.678   1.957
 1178SOL    HW3 4743   4.353   4.645   1.969
 1178SOL    MW4 4744   4.273   4.626   1.939
 1179SOL     OW 4745   4.025   0.091   1.981
 1179SOL    HW2 4746   4.019   0.094   2.076
 1179SOL    HW3 4747   3.950   0.039   1.953
 1179SOL    MW4 4748   4.014   0.085   1.990
 1180SOL     OW 4749   4.054   0.342   1.875
 1180SOL    HW2 4750   4.044   0.255   1.913
 1180SOL    HW3 4751   3.972   0.387   1.894
 1180SOL    MW4 4752   4.042   0.336   1.882
 1181SOL     OW 4753   4.264   0.484   1.972
 1181SOL    HW2 4754   4.249   0.484   2.066
 1181SOL    HW3 4755   4.192   0.431   1.936
 1181SOL    MW4 4756   4.252   0.477   1.980
 1182SOL     OW 4757   4.265   0.752   1.891
 1182SOL    HW2 4758   4.250   0.664   1.926
 1182SOL    HW3 4759   4.254   0.743   1.797
 1182SOL    MW4 4760   4.262   0.739   1.883
 1183SOL     OW 4761   4.050   0.900   1.970
 1183SOL    HW2 4762   4.130   0.847   1.961
 1183SOL    HW3 4763   3.979   0.839   1.952
 1183SOL    MW4 4764   4.051   0.885   1.967
 1184SOL     OW 4765   4.081   1.166   1.900
 1184SOL    HW2 4766   4.056   1.077   1.924
 1184SOL    HW3 4767   4.006   1.220   1.926
 1184SOL    MW4 4768   4.068   1.162   1.907
 1185SOL     OW 4769   4.308   1.314   1.979
 1185SOL    HW2 4770   4.300   1.309   2.074
 1185SOL    HW3 4771   4.226   1.277   1.946
 1185SOL    MW4 4772   4.296   1.308   1.987
 1186SOL     OW 4773   4.213   1.557   1.883
 1186SOL    HW2 4774   4.242   1.468   1.899
 1186SOL    HW3 4775   4.215   1.566   1.787
 1186SOL    MW4 4776   4.217   1.547   1.872
 1187SOL     OW 4777   3.997   1.692   1.983
 1187SOL    HW2 4778   3.995   1.693   2.079
 1187SOL    HW3 4779   4.076   1.643   1.961
 1187SOL    MW4 4780   4.007   1.686   1.993
 1188SOL     OW 4781   4.056   1.946   1.871
 1188SOL    HW2 4782   4.021   1.864   1.906
 1188SOL    HW3 4783   4.058   1.932   1.776
 1188SOL    MW4 4784   4.052   1.933   1.863
 1189SOL     OW 4785   4.257   2.072   2.005
 1189SOL    HW2 4786   4.239   2.079   2.098
 1189SOL    HW3 4787   4.180   2.027   1.969
 1189SOL    MW4 4788   4.245   2.067   2.012
 1190SOL     OW 4789   4.254   2.319   1.893
 1190SOL    HW2 4790   4.264   2.227   1.920
 1190SOL    HW3 4791   4.327   2.364   1.936
 1190SOL    MW4 4792   4.265   2.313   1.902
 1191SOL     OW 4793   4.021   2.435   2.011
 1191SOL    HW2 4794   4.029   2.438   2.107
 1191SOL    HW3 4795   4.098   2.386   1.982
 1191SOL    MW4 4796   4.032   2.429   2.020
 1192SOL     OW 4797   4.055   2.706   1.936
 1192SOL    HW2 4798   4.055   2.615   1.965
 1192SOL    HW3 4799   3.966   2.737   1.954
 1192SOL    MW4 4800   4.043   2.698   1.942
 1193SOL     OW 4801   4.283   2.846   2.028
 1193SOL    HW2 4802   4.270   2.857   2.122
 1193SOL    HW3 4803   4.208   2.793   2.000
 1193SOL    MW4 4804   4.271   2.841   2.037
 1194SOL     OW 4805   4.239   3.096   1.905
 1194SOL    HW2 4806   4.161   3.140   1.939
 1194SOL    HW3 4807   4.234   3.007   1.941
 1194SOL    MW4 4808   4.228   3.090   1.914
 1195SOL     OW 4809   4.032   3.259   2.005
 1195SOL    HW2 4810   4.048   3.262   2.099
 1195SOL    HW3 4811   3.957   3.200   1.995
 1195SOL    MW4 4812   4.024   3.251   2.016
 1196SOL     OW 4813   4.061   3.508   1.905
 1196SOL    HW2 4814   4.130   3.551   1.957
 1196SOL    HW3 4815   4.063   3.417   1.933
 1196SOL    MW4 4816   4.070   3.502   1.916
 1197SOL     OW 4817   4.263   3.613   2.043
 1197SOL    HW2 4818   4.275   3.693   1.991
 1197SOL    HW3 4819   4.323   3.550   2.003
 1197SOL    MW4 4820   4.273   3.615   2.031
 1198SOL     OW 4821   4.267   3.855   1.909
 1198SOL    HW2 4822   4.339   3.914   1.931
 1198SOL    HW3 4823   4.256   3.866   1.814
 1198SOL    MW4 4824   4.275   3.865   1.899
 1199SOL     OW 4825   4.045   3.997   2.002
 1199SOL    HW2 4826   4.108   3.926   1.995
 1199SOL    HW3 4827   3.962   3.958   1.974
 1199SOL    MW4 4828   4.042   3.982   1.998
 1200SOL     OW 4829   4.034   4.258   1.880
 1200SOL    HW2 4830   4.090   4.312   1.935
 1200SOL    HW3 4831   4.041   4.170   1.918
 1200SOL    MW4 4832   4.042   4.254   1.892
 1201SOL     OW 4833   4.269   4.348   2.020
 1201SOL    HW2 4834   4.271   4.359   2.115
 1201SOL    HW3 4835   4.263   4.437   1.985
 1201SOL    MW4 4836   4.269   4.361   2.028
 1202SOL     OW 4837   0.241   4.631   2.403
 1202SOL    HW2 4838   0.228   4.646   2.497
 1202SOL    HW3 4839   0.323   4.676   2.382
 1202SOL    MW4 4840   0.250   4.639   2.413
 1203SOL     OW 4841   0.002   0.103   2.290
 1203SOL    HW2 4842   0.077   0.048   2.312
 1203SOL    HW3 4843   0.000   0.104   2.194
 1203SOL    MW4 4844   0.012   0.096   2.280
 1204SOL     OW 4845   4.487   0.375   2.354
 1204SOL    HW2 4846   4.571   0.411   2.325
 1204SOL    HW3 4847   4.499   0.280   2.352
 1204SOL    MW4 4848   4.500   0.367   2.350
 1205SOL     OW 4849   0.249   0.511   2.278
 1205SOL    HW2 4850   0.331   0.473   2.308
 1205SOL    HW3 4851   0.238   0.477   2.189
 1205SOL    MW4 4852   0.258   0.502   2.270
 1206SOL     OW 4853   0.208   0.786   2.350
 1206SOL    HW2 4854   0.211   0.790   2.445
 1206SOL    HW3 4855   0.225   0.694   2.329
 1206SOL    MW4 4856   0.210   0.774   2.360
 1207SOL     OW 4857   4.472   0.949   2.285
 1207SOL    HW2 4858   4.556   0.910   2.311
 1207SOL    HW3 4859   4.467   0.932   2.191
 1207SOL    MW4 4860   4.483   0.942   2.276
 1208SOL     OW 4861   4.468   1.201   2.387
 1208SOL    HW2 4862   4.475   1.198   2.483
 1208SOL    HW3 4863   4.476   1.109   2.360
 1208SOL    MW4 4864   4.470   1.188   2.396
 1209SOL     OW 4865   0.194   1.287   2.243
 1209SOL    HW2 4866   0.110   1.269   2.286
 1209SOL    HW3 4867   0.177   1.272   2.150
 1209SOL    MW4 4868   0.181   1.283   2.236
 1210SOL     OW 4869   0.181   1.536   2.362
 1210SOL    HW2 4870   0.172   1.539   2.458
 1210SOL    HW3 4871   0.200   1.444   2.343
 1210SOL    MW4 4872   0.182   1.524   2.372
 1211SOL     OW 4873   4.466   1.689   2.284
 1211SOL    HW2 4874   4.471   1.768   2.337
 1211SOL    HW3 4875   4.543   1.638   2.311
 1211SOL    MW4 4876   4.477   1.692   2.295
 1212SOL     OW 4877   4.398   1.928   2.412
 1212SOL    HW2 4878   4.326   1.968   2.363
 1212SOL    HW3 4879   4.477   1.968   2.376
 1212SOL    MW4 4880   4.399   1.939   2.401
 1213SOL     OW 4881   0.172   2.018   2.329
 1213SOL    HW2 4882   0.259   1.984   2.349
 1213SOL    HW3 4883   0.160   2.000   2.236
 1213SOL    MW4 4884   0.182   2.011   2.319
 1214SOL     OW 4885   0.197   2.298   2.377
 1214SOL    HW2 4886   0.196   2.286   2.472
 1214SOL    HW3 4887   0.173   2.212   2.342
 1214SOL    MW4 4888   0.194   2.285   2.385
 1215SOL     OW 4889   4.463   2.431   2.295
 1215SOL    HW2 4890   4.477   2.519   2.328
 1215SOL    HW3 4891   4.534   2.379   2.333
 1215SOL    MW4 4892   4.474   2.435   2.304
 1216SOL     OW 4893   0.017   2.693   2.403
 1216SOL    HW2 4894   0.018   2.720   2.495
 1216SOL    HW3 4895   0.096   2.732   2.366
 1216SOL    MW4 4896   0.027   2.702   2.410
 1217SOL     OW 4897   0.224   2.816   2.274
 1217SOL    HW2 4898   0.312   2.788   2.300
 1217SOL    HW3 4899   0.226   2.818   2.179
 1217SOL    MW4 4900   0.236   2.813   2.265
 1218SOL     OW 4901   0.260   3.113   2.371
 1218SOL    HW2 4902   0.171   3.141   2.352
 1218SOL    HW3 4903   0.261   3.020   2.349
 1218SOL    MW4 4904   0.248   3.104   2.366
 1219SOL     OW 4905   4.482   3.211   2.326
 1219SOL    HW2 4906   4.485   3.302   2.356
 1219SOL    HW3 4907   4.490   3.217   2.231
 1219SOL    MW4 4908   4.483   3.224   2.318
 1220SOL     OW 4909   4.481   3.474   2.413
 1220SOL    HW2 4910   4.490   3.479   2.508
 1220SOL    HW3 4911   4.396   3.514   2.395
 1220SOL    MW4 4912   4.471   3.480   2.423
 1221SOL     OW 4913   0.200   3.608   2.295
 1221SOL    HW2 4914   0.264   3.546   2.329
 1221SOL    HW3 4915   0.115   3.574   2.325
 1221SOL    MW4 4916   0.197   3.595   2.303
 1222SOL     OW 4917   0.218   3.863   2.377
 1222SOL    HW2 4918   0.142   3.909   2.342
 1222SOL    HW3 4919   0.212   3.775   2.339
 1222SOL    MW4 4920   0.208   3.858   2.367
 1223SOL     OW 4921   4.488   3.989   2.300
 1223SOL    HW2 4922   4.496   4.079   2.332
 1223SOL    HW3 4923   4.480   3.999   2.205
 1223SOL    MW4 4924   4.488   4.002   2.292
 1224SOL     OW 4925   4.488   4.252   2.368
 1224SOL    HW2 4926   4.490   4.254   2.464
 1224SOL    HW3 4927   4.570   4.295   2.342
 1224SOL    MW4 4928   4.499   4.258   2.377
 1225SOL     OW 4929   0.237   4.371   2.305
 1225SOL    HW2 4930   0.327   4.345   2.324
 1225SOL    HW3 4931   0.228   4.457   2.346
 1225SOL    MW4 4932   0.247   4.379   2.312
 1226SOL     OW 4933   0.674   4.633   2.367
 1226SOL    HW2 4934   0.679   4.639   2.463
 1226SOL    HW3 4935   0.755   4.673   2.337
 1226SOL    MW4 4936   0.685   4.639   2.376
 1227SOL     OW 4937   0.468   0.141   2.342
 1227SOL    HW2 4938   0.534   0.075   2.363
 1227SOL    HW3 4939   0.457   0.134   2.247
 1227SOL    MW4 4940   0.475   0.131   2.332
 1228SOL     OW 4941   0.453   0.398   2.407
 1228SOL    HW2 4942   0.435   0.410   2.500
 1228SOL    HW3 4943   0.456   0.303   2.395
 1228SOL    MW4 4944   0.451   0.387   2.418
 1229SOL     OW 4945   0.694   0.495   2.357
 1229SOL    HW2 4946   0.675   0.586   2.380
 1229SOL    HW3 4947   0.613   0.448   2.377
 1229SOL    MW4 4948   0.681   0.501   2.363
 1230SOL     OW 4949   0.623   0.768   2.376
 1230SOL    HW2 4950   0.616   0.792   2.469
 1230SOL    HW3 4951   0.559   0.824   2.332
 1230SOL    MW4 4952   0.613   0.779   2.383
 1231SOL     OW 4953   0.423   0.898   2.235
 1231SOL    HW2 4954   0.349   0.856   2.279
 1231SOL    HW3 4955   0.404   0.890   2.142
 1231SOL    MW4 4956   0.411   0.892   2.229
 1232SOL     OW 4957   0.446   1.145   2.357
 1232SOL    HW2 4958   0.450   1.057   2.318
 1232SOL    HW3 4959   0.370   1.186   2.317
 1232SOL    MW4 4960   0.436   1.138   2.347
 1233SOL     OW 4961   0.653   1.298   2.248
 1233SOL    HW2 4962   0.652   1.389   2.278
 1233SOL    HW3 4963   0.581   1.257   2.295
 1233SOL    MW4 4964   0.644   1.305   2.258
 1234SOL     OW 4965   0.638   1.561   2.345
 1234SOL    HW2 4966   0.625   1.560   2.440
 1234SOL    HW3 4967   0.725   1.600   2.333
 1234SOL    MW4 4968   0.648   1.566   2.356
 1235SOL     OW 4969   0.407   1.666   2.253
 1235SOL    HW2 4970   0.486   1.619   2.277
 1235SOL    HW3 4971   0.337   1.622   2.302
 1235SOL    MW4 4972   0.408   1.654   2.263
 1236SOL     OW 4973   0.421   1.936   2.359
 1236SOL    HW2 4974   0.491   1.987   2.318
 1236SOL    HW3 4975   0.432   1.848   2.325
 1236SOL    MW4 4976   0.431   1.931   2.349
 1237SOL     OW 4977   0.638   2.070   2.240
 1237SOL    HW2 4978   0.709   2.017   2.277
 1237SOL    HW3 4979   0.642   2.152   2.289
 1237SOL    MW4 4980   0.648   2.074   2.251
 1238SOL     OW 4981   0.661   2.294   2.398
 1238SOL    HW2 4982   0.665   2.301   2.494
 1238SOL    HW3 4983   0.732   2.351   2.367
 1238SOL    MW4 4984   0.671   2.303   2.407
 1239SOL     OW 4985   0.429   2.452   2.310
 1239SOL    HW2 4986   0.490   2.391   2.352
 1239SOL    HW3 4987   0.342   2.415   2.329
 1239SOL    MW4 4988   0.425   2.439   2.318
 1240SOL     OW 4989   0.465   2.702   2.382
 1240SOL    HW2 4990   0.449   2.701   2.476
 1240SOL    HW3 4991   0.442   2.613   2.353
 1240SOL    MW4 4992   0.460   2.690   2.390
 1241SOL     OW 4993   0.670   2.836   2.281
 1241SOL    HW2 4994   0.756   2.793   2.289
 1241SOL    HW3 4995   0.610   2.778   2.329
 1241SOL    MW4 4996   0.674   2.823   2.288
 1242SOL     OW 4997   0.677   3.063   2.427
 1242SOL    HW2 4998   0.609   3.112   2.383
 1242SOL    HW3 4999   0.677   2.978   2.385
 1242SOL    MW4 5000   0.668   3.058   2.416
 1243SOL     OW 5001   0.491   3.232   2.296
 1243SOL    HW2 5002   0.418   3.185   2.336
 1243SOL    HW3 5003   0.479   3.220   2.202
 1243SOL    MW4 5004   0.479   3.225   2.289
 1244SOL     OW 5005   0.419   3.478   2.419
 1244SOL    HW2 5006   0.493   3.529   2.384
 1244SOL    HW3 5007   0.434   3.389   2.386
 1244SOL    MW4 5008   0.431   3.473   2.410
 1245SOL     OW 5009   0.638   3.605   2.316
 1245SOL    HW2 5010   0.659   3.698   2.324
 1245SOL    HW3 5011   0.656   3.585   2.224
 1245SOL    MW4 5012   0.644   3.615   2.305
 1246SOL     OW 5013   0.682   3.876   2.377
 1246SOL    HW2 5014   0.692   3.879   2.472
 1246SOL    HW3 5015   0.595   3.912   2.360
 1246SOL    MW4 5016   0.672   3.882   2.387
 1247SOL     OW 5017   0.439   3.989   2.296
 1247SOL    HW2 5018   0.365   3.946   2.338
 1247SOL    HW3 5019   0.431   3.965   2.204
 1247SOL    MW4 5020   0.428   3.980   2.290
 1248SOL     OW 5021   0.470   4.262   2.413
 1248SOL    HW2 5022   0.533   4.311   2.359
 1248SOL    HW3 5023   0.469   4.174   2.374
 1248SOL    MW4 5024   0.478   4.257   2.400
 1249SOL     OW 5025   0.685   4.375   2.287
 1249SOL    HW2 5026   0.682   4.471   2.294
 1249SOL    HW3 5027   0.685   4.358   2.193
 1249SOL    MW4 5028   0.684   4.386   2.276
 1250SOL     OW 5029   1.137   4.619   2.340
 1250SOL    HW2 5030   1.150   4.616   2.435
 1250SOL    HW3 5031   1.050   4.656   2.329
 1250SOL    MW4 5032   1.128   4.623   2.351
 1251SOL     OW 5033   0.901   0.056   2.257
 1251SOL    HW2 5034   0.903   0.150   2.273
 1251SOL    HW3 5035   0.889   0.048   2.162
 1251SOL    MW4 5036   0.900   0.067   2.246
 1252SOL     OW 5037   0.882   0.300   2.372
 1252SOL    HW2 5038   0.968   0.342   2.376
 1252SOL    HW3 5039   0.820   0.373   2.359
 1252SOL    MW4 5040   0.885   0.315   2.370
 1253SOL     OW 5041   1.115   0.452   2.323
 1253SOL    HW2 5042   1.209   0.435   2.335
 1253SOL    HW3 5043   1.106   0.467   2.229
 1253SOL    MW4 5044   1.126   0.452   2.312
 1254SOL     OW 5045   1.087   0.722   2.412
 1254SOL    HW2 5046   1.006   0.757   2.375
 1254SOL    HW3 5047   1.082   0.628   2.395
 1254SOL    MW4 5048   1.075   0.714   2.405
 1255SOL     OW 5049   0.865   0.868   2.299
 1255SOL    HW2 5050   0.858   0.959   2.328
 1255SOL    HW3 5051   0.786   0.826   2.330
 1255SOL    MW4 5052   0.854   0.875   2.307
 1256SOL     OW 5053   0.853   1.157   2.379
 1256SOL    HW2 5054   0.927   1.195   2.331
 1256SOL    HW3 5055   0.778   1.211   2.354
 1256SOL    MW4 5056   0.853   1.169   2.369
 1257SOL     OW 5057   1.066   1.312   2.326
 1257SOL    HW2 5058   1.122   1.250   2.372
 1257SOL    HW3 5059   1.100   1.313   2.236
 1257SOL    MW4 5060   1.078   1.304   2.320
 1258SOL     OW 5061   1.107   1.570   2.399
 1258SOL    HW2 5062   1.032   1.612   2.357
 1258SOL    HW3 5063   1.092   1.477   2.388
 1258SOL    MW4 5064   1.095   1.564   2.392
 1259SOL     OW 5065   0.877   1.675   2.297
 1259SOL    HW2 5066   0.866   1.768   2.318
 1259SOL    HW3 5067   0.881   1.671   2.202
 1259SOL    MW4 5068   0.876   1.686   2.287
 1260SOL     OW 5069   0.841   1.941   2.355
 1260SOL    HW2 5070   0.836   1.919   2.448
 1260SOL    HW3 5071   0.920   1.995   2.347
 1260SOL    MW4 5072   0.851   1.945   2.367
 1261SOL     OW 5073   1.098   2.043   2.277
 1261SOL    HW2 5074   1.154   1.971   2.305
 1261SOL    HW3 5075   1.087   2.030   2.183
 1261SOL    MW4 5076   1.104   2.032   2.269
 1262SOL     OW 5077   1.091   2.331   2.378
 1262SOL    HW2 5078   1.155   2.381   2.328
 1262SOL    HW3 5079   1.086   2.247   2.334
 1262SOL    MW4 5080   1.099   2.327   2.366
 1263SOL     OW 5081   0.873   2.444   2.294
 1263SOL    HW2 5082   0.958   2.410   2.322
 1263SOL    HW3 5083   0.871   2.432   2.200
 1263SOL    MW4 5084   0.884   2.438   2.286
 1264SOL     OW 5085   0.892   2.702   2.385
 1264SOL    HW2 5086   0.885   2.703   2.480
 1264SOL    HW3 5087   0.883   2.610   2.361
 1264SOL    MW4 5088   0.890   2.690   2.394
 1265SOL     OW 5089   1.130   2.827   2.296
 1265SOL    HW2 5090   1.207   2.790   2.338
 1265SOL    HW3 5091   1.056   2.777   2.332
 1265SOL    MW4 5092   1.130   2.815   2.307
 1266SOL     OW 5093   1.119   3.094   2.398
 1266SOL    HW2 5094   1.035   3.133   2.373
 1266SOL    HW3 5095   1.114   3.004   2.365
 1266SOL    MW4 5096   1.107   3.087   2.390
 1267SOL     OW 5097   0.882   3.218   2.315
 1267SOL    HW2 5098   0.878   3.312   2.333
 1267SOL    HW3 5099   0.797   3.185   2.345
 1267SOL    MW4 5100   0.870   3.226   2.322
 1268SOL     OW 5101   0.874   3.478   2.389
 1268SOL    HW2 5102   0.873   3.470   2.484
 1268SOL    HW3 5103   0.790   3.519   2.367
 1268SOL    MW4 5104   0.863   3.483   2.399
 1269SOL     OW 5105   1.120   3.604   2.292
 1269SOL    HW2 5106   1.189   3.550   2.331
 1269SOL    HW3 5107   1.039   3.570   2.330
 1269SOL    MW4 5108   1.119   3.592   2.302
 1270SOL     OW 5109   1.127   3.881   2.369
 1270SOL    HW2 5110   1.199   3.920   2.319
 1270SOL    HW3 5111   1.139   3.786   2.357
 1270SOL    MW4 5112   1.138   3.873   2.360
 1271SOL     OW 5113   0.915   4.006   2.231
 1271SOL    HW2 5114   0.982   3.955   2.278
 1271SOL    HW3 5115   0.833   3.981   2.272
 1271SOL    MW4 5116   0.913   3.996   2.242
 1272SOL     OW 5117   0.915   4.241   2.372
 1272SOL    HW2 5118   0.924   4.163   2.317
 1272SOL    HW3 5119   0.834   4.282   2.342
 1272SOL    MW4 5120   0.905   4.236   2.361
 1273SOL     OW 5121   1.130   4.363   2.244
 1273SOL    HW2 5122   1.050   4.327   2.281
 1273SOL    HW3 5123   1.135   4.452   2.279
 1273SOL    MW4 5124   1.120   4.370   2.253
 1274SOL     OW 5125   1.552   0.002   2.385
 1274SOL    HW2 5126   1.627   0.055   2.357
 1274SOL    HW3 5127   1.481   0.028   2.325
 1274SOL    MW4 5128   1.552   0.012   2.373
 1275SOL     OW 5129   1.343   0.122   2.250
 1275SOL    HW2 5130   1.349   0.195   2.312
 1275SOL    HW3 5131   1.266   0.073   2.278
 1275SOL    MW4 5132   1.334   0.125   2.262
 1276SOL     OW 5133   1.352   0.365   2.426
 1276SOL    HW2 5134   1.356   0.344   2.520
 1276SOL    HW3 5135   1.420   0.430   2.413
 1276SOL    MW4 5136   1.362   0.370   2.437
 1277SOL     OW 5137   1.595   0.498   2.350
 1277SOL    HW2 5138   1.665   0.435   2.365
 1277SOL    HW3 5139   1.586   0.500   2.254
 1277SOL    MW4 5140   1.603   0.490   2.339
 1278SOL     OW 5141   1.540   0.753   2.409
 1278SOL    HW2 5142   1.618   0.801   2.384
 1278SOL    HW3 5143   1.563   0.661   2.398
 1278SOL    MW4 5144   1.553   0.747   2.405
 1279SOL     OW 5145   1.306   0.866   2.300
 1279SOL    HW2 5146   1.388   0.827   2.330
 1279SOL    HW3 5147   1.238   0.807   2.333
 1279SOL    MW4 5148   1.308   0.853   2.308
 1280SOL     OW 5149   1.291   1.138   2.389
 1280SOL    HW2 5150   1.281   1.133   2.484
 1280SOL    HW3 5151   1.307   1.048   2.362
 1280SOL    MW4 5152   1.292   1.126   2.398
 1281SOL     OW 5153   1.520   1.332   2.290
 1281SOL    HW2 5154   1.450   1.273   2.317
 1281SOL    HW3 5155   1.522   1.323   2.195
 1281SOL    MW4 5156   1.511   1.323   2.281
 1282SOL     OW 5157   1.553   1.594   2.381
 1282SOL    HW2 5158   1.638   1.631   2.356
 1282SOL    HW3 5159   1.558   1.503   2.353
 1282SOL    MW4 5160   1.565   1.587   2.374
 1283SOL     OW 5161   1.328   1.655   2.240
 1283SOL    HW2 5162   1.405   1.623   2.287
 1283SOL    HW3 5163   1.254   1.614   2.285
 1283SOL    MW4 5164   1.328   1.645   2.252
 1284SOL     OW 5165   1.302   1.894   2.392
 1284SOL    HW2 5166   1.362   1.958   2.354
 1284SOL    HW3 5167   1.322   1.813   2.347
 1284SOL    MW4 5168   1.313   1.892   2.381
 1285SOL     OW 5169   1.521   2.039   2.286
 1285SOL    HW2 5170   1.594   1.987   2.321
 1285SOL    HW3 5171   1.526   2.026   2.191
 1285SOL    MW4 5172   1.531   2.030   2.278
 1286SOL     OW 5173   1.544   2.314   2.349
 1286SOL    HW2 5174   1.524   2.323   2.442
 1286SOL    HW3 5175   1.535   2.220   2.332
 1286SOL    MW4 5176   1.540   2.303   2.359
 1287SOL     OW 5177   1.320   2.458   2.257
 1287SOL    HW2 5178   1.404   2.419   2.283
 1287SOL    HW3 5179   1.319   2.451   2.161
 1287SOL    MW4 5180   1.331   2.452   2.248
 1288SOL     OW 5181   1.367   2.707   2.386
 1288SOL    HW2 5182   1.446   2.742   2.346
 1288SOL    HW3 5183   1.346   2.630   2.333
 1288SOL    MW4 5184   1.374   2.701   2.374
 1289SOL     OW 5185   1.570   2.814   2.259
 1289SOL    HW2 5186   1.586   2.903   2.290
 1289SOL    HW3 5187   1.584   2.819   2.165
 1289SOL    MW4 5188   1.574   2.827   2.251
 1290SOL     OW 5189   1.565   3.064   2.369
 1290SOL    HW2 5190   1.565   3.072   2.464
 1290SOL    HW3 5191   1.495   3.122   2.340
 1290SOL    MW4 5192   1.555   3.072   2.378
 1291SOL     OW 5193   1.333   3.203   2.267
 1291SOL    HW2 5194   1.258   3.155   2.302
 1291SOL    HW3 5195   1.321   3.202   2.172
 1291SOL    MW4 5196   1.321   3.197   2.259
 1292SOL     OW 5197   1.355   3.465   2.364
 1292SOL    HW2 5198   1.329   3.487   2.454
 1292SOL    HW3 5199   1.325   3.375   2.352
 1292SOL    MW4 5200   1.348   3.456   2.374
 1293SOL     OW 5201   1.582   3.619   2.247
 1293SOL    HW2 5202   1.574   3.704   2.291
 1293SOL    HW3 5203   1.510   3.567   2.282
 1293SOL    MW4 5204   1.572   3.624   2.258
 1294SOL     OW 5205   1.558   3.871   2.374
 1294SOL    HW2 5206   1.576   3.862   2.467
 1294SOL    HW3 5207   1.627   3.927   2.341
 1294SOL    MW4 5208   1.569   3.877   2.382
 1295SOL     OW 5209   1.341   3.989   2.248
 1295SOL    HW2 5210   1.414   3.942   2.288
 1295SOL    HW3 5211   1.371   4.008   2.159
 1295SOL    MW4 5212   1.355   3.985   2.242
 1296SOL     OW 5213   1.353   4.247   2.353
 1296SOL    HW2 5214   1.352   4.157   2.320
 1296SOL    HW3 5215   1.269   4.284   2.325
 1296SOL    MW4 5216   1.342   4.240   2.345
 1297SOL     OW 5217   1.572   4.407   2.278
 1297SOL    HW2 5218   1.503   4.348   2.308
 1297SOL    HW3 5219   1.552   4.491   2.319
 1297SOL    MW4 5220   1.560   4.410   2.287
 1298SOL     OW 5221   2.017   4.647   2.397
 1298SOL    HW2 5222   2.087   4.706   2.369
 1298SOL    HW3 5223   2.031   4.567   2.345
 1298SOL    MW4 5224   2.028   4.644   2.386
 1299SOL     OW 5225   1.815   0.123   2.278
 1299SOL    HW2 5226   1.824   0.207   2.324
 1299SOL    HW3 5227   1.871   0.063   2.328
 1299SOL    MW4 5228   1.824   0.126   2.291
 1300SOL     OW 5229   1.827   0.357   2.396
 1300SOL    HW2 5230   1.828   0.344   2.491
 1300SOL    HW3 5231   1.902   0.414   2.379
 1300SOL    MW4 5232   1.837   0.363   2.406
 1301SOL     OW 5233   2.070   0.476   2.333
 1301SOL    HW2 5234   2.054   0.568   2.352
 1301SOL    HW3 5235   2.068   0.470   2.237
 1301SOL    MW4 5236   2.068   0.487   2.323
 1302SOL     OW 5237   1.981   0.730   2.403
 1302SOL    HW2 5238   2.054   0.775   2.362
 1302SOL    HW3 5239   1.904   0.782   2.380
 1302SOL    MW4 5240   1.980   0.743   2.395
 1303SOL     OW 5241   1.759   0.878   2.313
 1303SOL    HW2 5242   1.758   0.972   2.331
 1303SOL    HW3 5243   1.767   0.872   2.218
 1303SOL    MW4 5244   1.760   0.890   2.303
 1304SOL     OW 5245   1.722   1.149   2.383
 1304SOL    HW2 5246   1.806   1.189   2.360
 1304SOL    HW3 5247   1.656   1.208   2.346
 1304SOL    MW4 5248   1.724   1.162   2.375
 1305SOL     OW 5249   1.971   1.263   2.295
 1305SOL    HW2 5250   1.972   1.354   2.323
 1305SOL    HW3 5251   1.968   1.267   2.199
 1305SOL    MW4 5252   1.970   1.276   2.286
 1306SOL     OW 5253   1.979   1.540   2.393
 1306SOL    HW2 5254   1.982   1.574   2.482
 1306SOL    HW3 5255   1.899   1.577   2.355
 1306SOL    MW4 5256   1.969   1.549   2.400
 1307SOL     OW 5257   1.773   1.668   2.254
 1307SOL    HW2 5258   1.788   1.757   2.287
 1307SOL    HW3 5259   1.788   1.674   2.160
 1307SOL    MW4 5260   1.777   1.680   2.246
 1308SOL     OW 5261   1.795   1.955   2.359
 1308SOL    HW2 5262   1.795   1.941   2.454
 1308SOL    HW3 5263   1.872   2.010   2.343
 1308SOL    MW4 5264   1.805   1.960   2.370
 1309SOL     OW 5265   2.021   2.094   2.267
 1309SOL    HW2 5266   2.081   2.023   2.289
 1309SOL    HW3 5267   2.024   2.099   2.172
 1309SOL    MW4 5268   2.029   2.085   2.258
 1310SOL     OW 5269   1.995   2.355   2.372
 1310SOL    HW2 5270   2.068   2.402   2.333
 1310SOL    HW3 5271   2.011   2.263   2.352
 1310SOL    MW4 5272   2.007   2.349   2.364
 1311SOL     OW 5273   1.768   2.434   2.246
 1311SOL    HW2 5274   1.839   2.406   2.303
 1311SOL    HW3 5275   1.690   2.393   2.282
 1311SOL    MW4 5276   1.767   2.424   2.258
 1312SOL     OW 5277   1.778   2.679   2.363
 1312SOL    HW2 5278   1.778   2.586   2.340
 1312SOL    HW3 5279   1.702   2.714   2.317
 1312SOL    MW4 5280   1.768   2.671   2.354
 1313SOL     OW 5281   1.972   2.814   2.237
 1313SOL    HW2 5282   2.051   2.777   2.276
 1313SOL    HW3 5283   1.900   2.770   2.282
 1313SOL    MW4 5284   1.973   2.803   2.248
 1314SOL     OW 5285   1.976   3.072   2.343
 1314SOL    HW2 5286   2.060   3.106   2.312
 1314SOL    HW3 5287   1.980   2.978   2.323
 1314SOL    MW4 5288   1.988   3.064   2.336
 1315SOL     OW 5289   1.761   3.214   2.248
 1315SOL    HW2 5290   1.830   3.156   2.280
 1315SOL    HW3 5291   1.680   3.176   2.282
 1315SOL    MW4 5292   1.759   3.202   2.257
 1316SOL     OW 5293   1.810   3.481   2.343
 1316SOL    HW2 5294   1.805   3.389   2.316
 1316SOL    HW3 5295   1.729   3.520   2.313
 1316SOL    MW4 5296   1.799   3.474   2.336
 1317SOL     OW 5297   2.022   3.627   2.249
 1317SOL    HW2 5298   1.963   3.557   2.274
 1317SOL    HW3 5299   2.020   3.628   2.153
 1317SOL    MW4 5300   2.014   3.618   2.240
 1318SOL     OW 5301   2.003   3.883   2.352
 1318SOL    HW2 5302   2.012   3.877   2.447
 1318SOL    HW3 5303   2.028   3.796   2.320
 1318SOL    MW4 5304   2.008   3.871   2.360
 1319SOL     OW 5305   1.773   4.010   2.270
 1319SOL    HW2 5306   1.852   3.974   2.309
 1319SOL    HW3 5307   1.788   4.004   2.176
 1319SOL    MW4 5308   1.785   4.005   2.263
 1320SOL     OW 5309   1.811   4.278   2.364
 1320SOL    HW2 5310   1.801   4.196   2.315
 1320SOL    HW3 5311   1.733   4.329   2.342
 1320SOL    MW4 5312   1.799   4.274   2.354
 1321SOL     OW 5313   2.062   4.401   2.285
 1321SOL    HW2 5314   1.976   4.387   2.325
 1321SOL    HW3 5315   2.045   4.392   2.191
 1321SOL    MW4 5316   2.048   4.398   2.278
 1322SOL     OW 5317   2.468   4.618   2.372
 1322SOL    HW2 5318   2.538   4.674   2.338
 1322SOL    HW3 5319   2.481   4.534   2.328
 1322SOL    MW4 5320   2.479   4.614   2.362
 1323SOL     OW 5321   2.255   0.102   2.285
 1323SOL    HW2 5322   2.274   0.186   2.326
 1323SOL    HW3 5323   2.322   0.043   2.318
 1323SOL    MW4 5324   2.266   0.105   2.295
 1324SOL     OW 5325   2.309   0.340   2.414
 1324SOL    HW2 5326   2.367   0.390   2.357
 1324SOL    HW3 5327   2.223   0.379   2.401
 1324SOL    MW4 5328   2.305   0.352   2.405
 1325SOL     OW 5329   2.468   0.487   2.254
 1325SOL    HW2 5330   2.553   0.455   2.284
 1325SOL    HW3 5331   2.476   0.488   2.158
 1325SOL    MW4 5332   2.481   0.483   2.245
 1326SOL     OW 5333   2.424   0.731   2.371
 1326SOL    HW2 5334   2.501   0.785   2.353
 1326SOL    HW3 5335   2.445   0.647   2.329
 1326SOL    MW4 5336   2.437   0.727   2.363
 1327SOL     OW 5337   2.194   0.871   2.295
 1327SOL    HW2 5338   2.199   0.955   2.340
 1327SOL    HW3 5339   2.267   0.819   2.331
 1327SOL    MW4 5340   2.205   0.875   2.306
 1328SOL     OW 5341   2.206   1.129   2.375
 1328SOL    HW2 5342   2.269   1.181   2.326
 1328SOL    HW3 5343   2.121   1.168   2.352
 1328SOL    MW4 5344   2.203   1.141   2.365
 1329SOL     OW 5345   2.451   1.258   2.268
 1329SOL    HW2 5346   2.526   1.203   2.291
 1329SOL    HW3 5347   2.469   1.342   2.310
 1329SOL    MW4 5348   2.463   1.261   2.277
 1330SOL     OW 5349   2.460   1.505   2.390
 1330SOL    HW2 5350   2.466   1.507   2.486
 1330SOL    HW3 5351   2.517   1.575   2.361
 1330SOL    MW4 5352   2.468   1.514   2.399
 1331SOL     OW 5353   2.226   1.640   2.270
 1331SOL    HW2 5354   2.295   1.593   2.316
 1331SOL    HW3 5355   2.145   1.610   2.310
 1331SOL    MW4 5356   2.225   1.630   2.281
 1332SOL     OW 5357   2.233   1.923   2.352
 1332SOL    HW2 5358   2.306   1.983   2.340
 1332SOL    HW3 5359   2.260   1.842   2.309
 1332SOL    MW4 5360   2.246   1.920   2.344
 1333SOL     OW 5361   2.454   2.073   2.257
 1333SOL    HW2 5362   2.534   2.027   2.283
 1333SOL    HW3 5363   2.465   2.088   2.163
 1333SOL    MW4 5364   2.466   2.069   2.248
 1334SOL     OW 5365   2.455   2.345   2.324
 1334SOL    HW2 5366   2.524   2.384   2.271
 1334SOL    HW3 5367   2.440   2.260   2.284
 1334SOL    MW4 5368   2.462   2.339   2.312
 1335SOL     OW 5369   2.218   2.472   2.247
 1335SOL    HW2 5370   2.209   2.549   2.303
 1335SOL    HW3 5371   2.294   2.425   2.281
 1335SOL    MW4 5372   2.227   2.476   2.259
 1336SOL     OW 5373   2.208   2.726   2.363
 1336SOL    HW2 5374   2.232   2.735   2.455
 1336SOL    HW3 5375   2.286   2.754   2.315
 1336SOL    MW4 5376   2.221   2.731   2.369
 1337SOL     OW 5377   2.440   2.795   2.241
 1337SOL    HW2 5378   2.530   2.789   2.273
 1337SOL    HW3 5379   2.446   2.779   2.147
 1337SOL    MW4 5380   2.452   2.792   2.233
 1338SOL     OW 5381   2.430   3.067   2.360
 1338SOL    HW2 5382   2.509   3.108   2.326
 1338SOL    HW3 5383   2.430   2.979   2.321
 1338SOL    MW4 5384   2.440   3.061   2.350
 1339SOL     OW 5385   2.216   3.210   2.254
 1339SOL    HW2 5386   2.225   3.294   2.299
 1339SOL    HW3 5387   2.295   3.162   2.278
 1339SOL    MW4 5388   2.228   3.215   2.263
 1340SOL     OW 5389   2.267   3.502   2.325
 1340SOL    HW2 5390   2.263   3.499   2.421
 1340SOL    HW3 5391   2.192   3.555   2.299
 1340SOL    MW4 5392   2.257   3.508   2.334
 1341SOL     OW 5393   2.519   3.614   2.255
 1341SOL    HW2 5394   2.494   3.702   2.281
 1341SOL    HW3 5395   2.441   3.561   2.272
 1341SOL    MW4 5396   2.505   3.618   2.261
 1342SOL     OW 5397   2.475   3.873   2.334
 1342SOL    HW2 5398   2.478   3.888   2.429
 1342SOL    HW3 5399   2.399   3.922   2.304
 1342SOL    MW4 5400   2.465   3.881   2.343
 1343SOL     OW 5401   2.227   4.005   2.261
 1343SOL    HW2 5402   2.225   4.091   2.304
 1343SOL    HW3 5403   2.142   3.966   2.282
 1343SOL    MW4 5404   2.215   4.011   2.270
 1344SOL     OW 5405   2.264   4.254   2.370
 1344SOL    HW2 5406   2.270   4.264   2.465
 1344SOL    HW3 5407   2.188   4.306   2.345
 1344SOL    MW4 5408   2.254   4.262   2.379
 1345SOL     OW 5409   2.467   4.372   2.239
 1345SOL    HW2 5410   2.541   4.342   2.292
 1345SOL    HW3 5411   2.391   4.335   2.282
 1345SOL    MW4 5412   2.467   4.363   2.252
 1346SOL     OW 5413   2.914   4.653   2.356
 1346SOL    HW2 5414   2.983   4.706   2.316
 1346SOL    HW3 5415   2.926   4.565   2.319
 1346SOL    MW4 5416   2.924   4.648   2.346
 1347SOL     OW 5417   2.688   0.108   2.246
 1347SOL    HW2 5418   2.698   0.197   2.279
 1347SOL    HW3 5419   2.758   0.059   2.289
 1347SOL    MW4 5420   2.698   0.113   2.256
 1348SOL     OW 5421   2.705   0.370   2.336
 1348SOL    HW2 5422   2.683   0.380   2.429
 1348SOL    HW3 5423   2.788   0.417   2.326
 1348SOL    MW4 5424   2.713   0.378   2.347
 1349SOL     OW 5425   2.936   0.479   2.253
 1349SOL    HW2 5426   2.939   0.567   2.291
 1349SOL    HW3 5427   2.922   0.494   2.160
 1349SOL    MW4 5428   2.934   0.493   2.246
 1350SOL     OW 5429   2.885   0.740   2.380
 1350SOL    HW2 5430   2.856   0.748   2.471
 1350SOL    HW3 5431   2.811   0.771   2.328
 1350SOL    MW4 5432   2.872   0.745   2.385
 1351SOL     OW 5433   2.648   0.871   2.301
 1351SOL    HW2 5434   2.657   0.954   2.347
 1351SOL    HW3 5435   2.655   0.893   2.209
 1351SOL    MW4 5436   2.650   0.885   2.295
 1352SOL     OW 5437   2.654   1.130   2.383
 1352SOL    HW2 5438   2.629   1.142   2.475
 1352SOL    HW3 5439   2.740   1.172   2.376
 1352SOL    MW4 5440   2.662   1.137   2.394
 1353SOL     OW 5441   2.892   1.243   2.331
 1353SOL    HW2 5442   2.976   1.210   2.364
 1353SOL    HW3 5443   2.909   1.262   2.238
 1353SOL    MW4 5444   2.906   1.241   2.323
 1354SOL     OW 5445   2.899   1.519   2.368
 1354SOL    HW2 5446   2.888   1.528   2.463
 1354SOL    HW3 5447   2.896   1.425   2.352
 1354SOL    MW4 5448   2.897   1.508   2.378
 1355SOL     OW 5449   2.660   1.647   2.279
 1355SOL    HW2 5450   2.735   1.591   2.301
 1355SOL    HW3 5451   2.662   1.653   2.183
 1355SOL    MW4 5452   2.670   1.640   2.269
 1356SOL     OW 5453   2.675   1.912   2.355
 1356SOL    HW2 5454   2.665   1.928   2.449
 1356SOL    HW3 5455   2.676   1.817   2.348
 1356SOL    MW4 5456   2.674   1.902   2.367
 1357SOL     OW 5457   2.889   2.059   2.250
 1357SOL    HW2 5458   2.968   2.012   2.278
 1357SOL    HW3 5459   2.818   2.013   2.293
 1357SOL    MW4 5460   2.890   2.047   2.259
 1358SOL     OW 5461   2.892   2.323   2.324
 1358SOL    HW2 5462   2.885   2.333   2.419
 1358SOL    HW3 5463   2.883   2.229   2.309
 1358SOL    MW4 5464   2.890   2.312   2.334
 1359SOL     OW 5465   2.680   2.483   2.214
 1359SOL    HW2 5466   2.756   2.429   2.238
 1359SOL    HW3 5467   2.686   2.491   2.119
 1359SOL    MW4 5468   2.691   2.477   2.205
 1360SOL     OW 5469   2.691   2.755   2.333
 1360SOL    HW2 5470   2.774   2.782   2.295
 1360SOL    HW3 5471   2.682   2.663   2.306
 1360SOL    MW4 5472   2.701   2.746   2.325
 1361SOL     OW 5473   2.932   2.863   2.239
 1361SOL    HW2 5474   2.905   2.943   2.284
 1361SOL    HW3 5475   2.932   2.887   2.146
 1361SOL    MW4 5476   2.929   2.877   2.233
 1362SOL     OW 5477   2.901   3.102   2.367
 1362SOL    HW2 5478   2.972   3.155   2.331
 1362SOL    HW3 5479   2.821   3.145   2.336
 1362SOL    MW4 5480   2.900   3.115   2.359
 1363SOL     OW 5481   2.670   3.216   2.264
 1363SOL    HW2 5482   2.676   3.303   2.304
 1363SOL    HW3 5483   2.695   3.229   2.173
 1363SOL    MW4 5484   2.674   3.229   2.257
 1364SOL     OW 5485   2.726   3.475   2.350
 1364SOL    HW2 5486   2.804   3.529   2.337
 1364SOL    HW3 5487   2.654   3.530   2.321
 1364SOL    MW4 5488   2.727   3.489   2.344
 1365SOL     OW 5489   2.930   3.634   2.245
 1365SOL    HW2 5490   2.995   3.595   2.304
 1365SOL    HW3 5491   2.932   3.727   2.266
 1365SOL    MW4 5492   2.939   3.641   2.255
 1366SOL     OW 5493   2.922   3.888   2.368
 1366SOL    HW2 5494   2.900   3.859   2.456
 1366SOL    HW3 5495   2.847   3.939   2.340
 1366SOL    MW4 5496   2.909   3.891   2.376
 1367SOL     OW 5497   2.696   4.012   2.261
 1367SOL    HW2 5498   2.611   3.969   2.275
 1367SOL    HW3 5499   2.713   4.002   2.167
 1367SOL    MW4 5500   2.687   4.005   2.250
 1368SOL     OW 5501   2.678   4.298   2.395
 1368SOL    HW2 5502   2.691   4.289   2.489
 1368SOL    HW3 5503   2.695   4.210   2.360
 1368SOL    MW4 5504   2.682   4.285   2.403
 1369SOL     OW 5505   2.923   4.376   2.257
 1369SOL    HW2 5506   3.001   4.333   2.292
 1369SOL    HW3 5507   2.850   4.336   2.305
 1369SOL    MW4 5508   2.924   4.365   2.268
 1370SOL     OW 5509   3.339   4.599   2.374
 1370SOL    HW2 5510   3.366   4.596   2.466
 1370SOL    HW3 5511   3.406   4.652   2.331
 1370SOL    MW4 5512   3.351   4.606   2.380
 1371SOL     OW 5513   3.139   0.075   2.225
 1371SOL    HW2 5514   3.146   0.162   2.264
 1371SOL    HW3 5515   3.206   0.024   2.271
 1371SOL    MW4 5516   3.149   0.080   2.236
 1372SOL     OW 5517   3.135   0.313   2.349
 1372SOL    HW2 5518   3.201   0.371   2.311
 1372SOL    HW3 5519   3.052   0.348   2.318
 1372SOL    MW4 5520   3.133   0.325   2.340
 1373SOL     OW 5521   3.353   0.474   2.262
 1373SOL    HW2 5522   3.416   0.412   2.298
 1373SOL    HW3 5523   3.378   0.484   2.170
 1373SOL    MW4 5524   3.364   0.467   2.255
 1374SOL     OW 5525   3.340   0.741   2.358
 1374SOL    HW2 5526   3.408   0.784   2.305
 1374SOL    HW3 5527   3.345   0.649   2.333
 1374SOL    MW4 5528   3.350   0.735   2.347
 1375SOL     OW 5529   3.117   0.874   2.258
 1375SOL    HW2 5530   3.189   0.823   2.294
 1375SOL    HW3 5531   3.038   0.833   2.293
 1375SOL    MW4 5532   3.116   0.862   2.267
 1376SOL     OW 5533   3.148   1.127   2.398
 1376SOL    HW2 5534   3.236   1.150   2.366
 1376SOL    HW3 5535   3.122   1.052   2.345
 1376SOL    MW4 5536   3.156   1.120   2.387
 1377SOL     OW 5537   3.373   1.245   2.292
 1377SOL    HW2 5538   3.464   1.223   2.308
 1377SOL    HW3 5539   3.363   1.335   2.321
 1377SOL    MW4 5540   3.383   1.254   2.298
 1378SOL     OW 5541   3.363   1.519   2.359
 1378SOL    HW2 5542   3.360   1.526   2.455
 1378SOL    HW3 5543   3.283   1.562   2.329
 1378SOL    MW4 5544   3.352   1.525   2.368
 1379SOL     OW 5545   3.104   1.656   2.239
 1379SOL    HW2 5546   3.117   1.741   2.280
 1379SOL    HW3 5547   3.027   1.620   2.283
 1379SOL    MW4 5548   3.096   1.662   2.250
 1380SOL     OW 5549   3.125   1.910   2.332
 1380SOL    HW2 5550   3.128   1.924   2.427
 1380SOL    HW3 5551   3.203   1.956   2.299
 1380SOL    MW4 5552   3.136   1.918   2.340
 1381SOL     OW 5553   3.324   2.065   2.244
 1381SOL    HW2 5554   3.400   2.023   2.285
 1381SOL    HW3 5555   3.325   2.033   2.154
 1381SOL    MW4 5556   3.334   2.055   2.238
 1382SOL     OW 5557   3.323   2.326   2.364
 1382SOL    HW2 5558   3.251   2.368   2.318
 1382SOL    HW3 5559   3.311   2.233   2.346
 1382SOL    MW4 5560   3.312   2.319   2.356
 1383SOL     OW 5561   3.115   2.464   2.233
 1383SOL    HW2 5562   3.122   2.551   2.273
 1383SOL    HW3 5563   3.031   2.430   2.265
 1383SOL    MW4 5564   3.105   2.471   2.242
 1384SOL     OW 5565   3.148   2.726   2.339
 1384SOL    HW2 5566   3.153   2.703   2.432
 1384SOL    HW3 5567   3.068   2.777   2.331
 1384SOL    MW4 5568   3.138   2.729   2.350
 1385SOL     OW 5569   3.386   2.868   2.251
 1385SOL    HW2 5570   3.384   2.959   2.277
 1385SOL    HW3 5571   3.309   2.829   2.292
 1385SOL    MW4 5572   3.376   2.875   2.260
 1386SOL     OW 5573   3.358   3.126   2.345
 1386SOL    HW2 5574   3.432   3.168   2.302
 1386SOL    HW3 5575   3.282   3.174   2.314
 1386SOL    MW4 5576   3.358   3.138   2.335
 1387SOL     OW 5577   3.122   3.230   2.263
 1387SOL    HW2 5578   3.132   3.321   2.290
 1387SOL    HW3 5579   3.111   3.233   2.168
 1387SOL    MW4 5580   3.122   3.242   2.254
 1388SOL     OW 5581   3.156   3.481   2.358
 1388SOL    HW2 5582   3.125   3.500   2.446
 1388SOL    HW3 5583   3.238   3.528   2.350
 1388SOL    MW4 5584   3.163   3.489   2.369
 1389SOL     OW 5585   3.394   3.620   2.333
 1389SOL    HW2 5586   3.466   3.569   2.369
 1389SOL    HW3 5587   3.401   3.607   2.238
 1389SOL    MW4 5588   3.404   3.611   2.325
 1390SOL     OW 5589   3.366   3.896   2.337
 1390SOL    HW2 5590   3.439   3.928   2.284
 1390SOL    HW3 5591   3.376   3.801   2.336
 1390SOL    MW4 5592   3.377   3.888   2.330
 1391SOL     OW 5593   3.151   4.003   2.200
 1391SOL    HW2 5594   3.229   3.964   2.240
 1391SOL    HW3 5595   3.077   3.964   2.246
 1391SOL    MW4 5596   3.152   3.992   2.211
 1392SOL     OW 5597   3.139   4.227   2.361
 1392SOL    HW2 5598   3.217   4.268   2.323
 1392SOL    HW3 5599   3.132   4.143   2.316
 1392SOL    MW4 5600   3.148   4.221   2.350
 1393SOL     OW 5601   3.354   4.363   2.232
 1393SOL    HW2 5602   3.358   4.445   2.280
 1393SOL    HW3 5603   3.328   4.388   2.143
 1393SOL    MW4 5604   3.351   4.377   2.226
 1394SOL     OW 5605   3.808   4.625   2.356
 1394SOL    HW2 5606   3.813   4.648   2.449
 1394SOL    HW3 5607   3.872   4.682   2.314
 1394SOL    MW4 5608   3.817   4.636   2.363
 1395SOL     OW 5609   3.568   0.071   2.262
 1395SOL    HW2 5610   3.559   0.158   2.302
 1395SOL    HW3 5611   3.649   0.036   2.300
 1395SOL    MW4 5612   3.578   0.078   2.272
 1396SOL     OW 5613   3.567   0.330   2.359
 1396SOL    HW2 5614   3.568   0.353   2.452
 1396SOL    HW3 5615   3.649   0.366   2.325
 1396SOL    MW4 5616   3.578   0.337   2.367
 1397SOL     OW 5617   3.776   0.487   2.231
 1397SOL    HW2 5618   3.772   0.578   2.259
 1397SOL    HW3 5619   3.790   0.491   2.136
 1397SOL    MW4 5620   3.777   0.499   2.222
 1398SOL     OW 5621   3.786   0.761   2.330
 1398SOL    HW2 5622   3.786   0.752   2.426
 1398SOL    HW3 5623   3.869   0.803   2.310
 1398SOL    MW4 5624   3.797   0.765   2.340
 1399SOL     OW 5625   3.558   0.891   2.246
 1399SOL    HW2 5626   3.639   0.848   2.275
 1399SOL    HW3 5627   3.572   0.907   2.153
 1399SOL    MW4 5628   3.571   0.887   2.237
 1400SOL     OW 5629   3.644   1.146   2.352
 1400SOL    HW2 5630   3.614   1.139   2.443
 1400SOL    HW3 5631   3.631   1.059   2.316
 1400SOL    MW4 5632   3.638   1.134   2.359
 1401SOL     OW 5633   3.826   1.319   2.221
 1401SOL    HW2 5634   3.817   1.404   2.264
 1401SOL    HW3 5635   3.757   1.265   2.260
 1401SOL    MW4 5636   3.816   1.323   2.232
 1402SOL     OW 5637   3.781   1.551   2.363
 1402SOL    HW2 5638   3.782   1.542   2.458
 1402SOL    HW3 5639   3.709   1.612   2.346
 1402SOL    MW4 5640   3.772   1.558   2.373
 1403SOL     OW 5641   3.544   1.707   2.273
 1403SOL    HW2 5642   3.478   1.652   2.315
 1403SOL    HW3 5643   3.556   1.669   2.187
 1403SOL    MW4 5644   3.536   1.695   2.267
 1404SOL     OW 5645   3.540   1.955   2.377
 1404SOL    HW2 5646   3.621   2.001   2.357
 1404SOL    HW3 5647   3.545   1.874   2.327
 1404SOL    MW4 5648   3.551   1.951   2.368
 1405SOL     OW 5649   3.796   2.050   2.258
 1405SOL    HW2 5650   3.868   1.992   2.283
 1405SOL    HW3 5651   3.798   2.049   2.162
 1405SOL    MW4 5652   3.806   2.042   2.248
 1406SOL     OW 5653   3.798   2.303   2.393
 1406SOL    HW2 5654   3.716   2.350   2.383
 1406SOL    HW3 5655   3.790   2.228   2.335
 1406SOL    MW4 5656   3.786   2.299   2.384
 1407SOL     OW 5657   3.570   2.435   2.334
 1407SOL    HW2 5658   3.477   2.415   2.348
 1407SOL    HW3 5659   3.579   2.436   2.238
 1407SOL    MW4 5660   3.559   2.432   2.323
 1408SOL     OW 5661   3.591   2.712   2.385
 1408SOL    HW2 5662   3.567   2.620   2.374
 1408SOL    HW3 5663   3.545   2.757   2.315
 1408SOL    MW4 5664   3.582   2.706   2.374
 1409SOL     OW 5665   3.840   2.845   2.296
 1409SOL    HW2 5666   3.813   2.937   2.303
 1409SOL    HW3 5667   3.761   2.796   2.320
 1409SOL    MW4 5668   3.826   2.851   2.300
 1410SOL     OW 5669   3.770   3.099   2.353
 1410SOL    HW2 5670   3.776   3.101   2.448
 1410SOL    HW3 5671   3.849   3.143   2.322
 1410SOL    MW4 5672   3.781   3.105   2.361
 1411SOL     OW 5673   3.574   3.232   2.235
 1411SOL    HW2 5674   3.593   3.319   2.270
 1411SOL    HW3 5675   3.637   3.174   2.278
 1411SOL    MW4 5676   3.585   3.236   2.245
 1412SOL     OW 5677   3.622   3.455   2.375
 1412SOL    HW2 5678   3.615   3.484   2.466
 1412SOL    HW3 5679   3.698   3.501   2.341
 1412SOL    MW4 5680   3.631   3.465   2.383
 1413SOL     OW 5681   3.842   3.613   2.281
 1413SOL    HW2 5682   3.815   3.699   2.313
 1413SOL    HW3 5683   3.827   3.618   2.186
 1413SOL    MW4 5684   3.837   3.625   2.272
 1414SOL     OW 5685   3.789   3.873   2.362
 1414SOL    HW2 5686   3.788   3.868   2.458
 1414SOL    HW3 5687   3.871   3.917   2.341
 1414SOL    MW4 5688   3.800   3.878   2.372
 1415SOL     OW 5689   3.599   4.008   2.227
 1415SOL    HW2 5690   3.590   4.092   2.271
 1415SOL    HW3 5691   3.668   3.963   2.277
 1415SOL    MW4 5692   3.607   4.013   2.240
 1416SOL     OW 5693   3.592   4.259   2.343
 1416SOL    HW2 5694   3.665   4.313   2.314
 1416SOL    HW3 5695   3.515   4.299   2.303
 1416SOL    MW4 5696   3.591   4.271   2.334
 1417SOL     OW 5697   3.799   4.391   2.245
 1417SOL    HW2 5698   3.865   4.338   2.289
 1417SOL    HW3 5699   3.805   4.477   2.287
 1417SOL    MW4 5700   3.808   4.396   2.256
 1418SOL     OW 5701   4.250   4.665   2.331
 1418SOL    HW2 5702   4.225   4.677   2.423
 1418SOL    HW3 5703   4.332   4.713   2.322
 1418SOL    MW4 5704   4.257   4.673   2.342
 1419SOL     OW 5705   4.012   0.118   2.260
 1419SOL    HW2 5706   4.004   0.201   2.307
 1419SOL    HW3 5707   4.090   0.076   2.298
 1419SOL    MW4 5708   4.022   0.123   2.271
 1420SOL     OW 5709   4.008   0.368   2.354
 1420SOL    HW2 5710   4.093   0.399   2.322
 1420SOL    HW3 5711   3.944   0.421   2.307
 1420SOL    MW4 5712   4.011   0.379   2.343
 1421SOL     OW 5713   4.248   0.502   2.275
 1421SOL    HW2 5714   4.259   0.592   2.305
 1421SOL    HW3 5715   4.330   0.459   2.296
 1421SOL    MW4 5716   4.260   0.508   2.282
 1422SOL     OW 5717   4.249   0.773   2.322
 1422SOL    HW2 5718   4.172   0.814   2.283
 1422SOL    HW3 5719   4.315   0.842   2.322
 1422SOL    MW4 5720   4.247   0.788   2.317
 1423SOL     OW 5721   4.016   0.889   2.247
 1423SOL    HW2 5722   4.021   0.981   2.272
 1423SOL    HW3 5723   4.027   0.888   2.152
 1423SOL    MW4 5724   4.018   0.901   2.238
 1424SOL     OW 5725   4.029   1.159   2.340
 1424SOL    HW2 5726   4.020   1.175   2.434
 1424SOL    HW3 5727   3.964   1.216   2.299
 1424SOL    MW4 5728   4.019   1.168   2.347
 1425SOL     OW 5729   4.261   1.284   2.244
 1425SOL    HW2 5730   4.187   1.228   2.269
 1425SOL    HW3 5731   4.332   1.256   2.302
 1425SOL    MW4 5732   4.260   1.273   2.255
 1426SOL     OW 5733   4.248   1.532   2.367
 1426SOL    HW2 5734   4.262   1.446   2.327
 1426SOL    HW3 5735   4.320   1.586   2.335
 1426SOL    MW4 5736   4.259   1.528   2.358
 1427SOL     OW 5737   4.017   1.627   2.251
 1427SOL    HW2 5738   4.086   1.574   2.291
 1427SOL    HW3 5739   3.938   1.605   2.301
 1427SOL    MW4 5740   4.016   1.617   2.263
 1428SOL     OW 5741   4.018   1.902   2.354
 1428SOL    HW2 5742   4.006   1.889   2.448
 1428SOL    HW3 5743   4.031   1.814   2.320
 1428SOL    MW4 5744   4.018   1.889   2.362
 1429SOL     OW 5745   4.216   2.054   2.269
 1429SOL    HW2 5746   4.223   2.142   2.307
 1429SOL    HW3 5747   4.139   2.017   2.313
 1429SOL    MW4 5748   4.206   2.061   2.280
 1430SOL     OW 5749   4.219   2.302   2.382
 1430SOL    HW2 5750   4.147   2.359   2.357
 1430SOL    HW3 5751   4.298   2.354   2.366
 1430SOL    MW4 5752   4.220   2.316   2.377
 1431SOL     OW 5753   4.013   2.460   2.289
 1431SOL    HW2 5754   4.028   2.547   2.325
 1431SOL    HW3 5755   3.938   2.426   2.337
 1431SOL    MW4 5756   4.005   2.467   2.300
 1432SOL     OW 5757   4.044   2.704   2.414
 1432SOL    HW2 5758   4.016   2.716   2.505
 1432SOL    HW3 5759   3.979   2.750   2.362
 1432SOL    MW4 5760   4.032   2.712   2.419
 1433SOL     OW 5761   4.271   2.832   2.306
 1433SOL    HW2 5762   4.206   2.780   2.353
 1433SOL    HW3 5763   4.355   2.790   2.328
 1433SOL    MW4 5764   4.273   2.819   2.315
 1434SOL     OW 5765   4.253   3.086   2.431
 1434SOL    HW2 5766   4.270   2.995   2.408
 1434SOL    HW3 5767   4.333   3.132   2.407
 1434SOL    MW4 5768   4.266   3.080   2.425
 1435SOL     OW 5769   4.018   3.246   2.302
 1435SOL    HW2 5770   4.021   3.331   2.346
 1435SOL    HW3 5771   4.092   3.198   2.339
 1435SOL    MW4 5772   4.028   3.251   2.313
 1436SOL     OW 5773   4.058   3.493   2.422
 1436SOL    HW2 5774   4.136   3.537   2.387
 1436SOL    HW3 5775   3.984   3.545   2.393
 1436SOL    MW4 5776   4.059   3.505   2.414
 1437SOL     OW 5777   4.277   3.620   2.313
 1437SOL    HW2 5778   4.257   3.708   2.347
 1437SOL    HW3 5779   4.272   3.630   2.218
 1437SOL    MW4 5780   4.274   3.633   2.305
 1438SOL     OW 5781   4.234   3.890   2.388
 1438SOL    HW2 5782   4.235   3.879   2.483
 1438SOL    HW3 5783   4.317   3.933   2.368
 1438SOL    MW4 5784   4.245   3.894   2.398
 1439SOL     OW 5785   4.007   4.011   2.281
 1439SOL    HW2 5786   4.086   3.969   2.314
 1439SOL    HW3 5787   4.018   4.010   2.186
 1439SOL    MW4 5788   4.019   4.005   2.273
 1440SOL     OW 5789   4.002   4.262   2.378
 1440SOL    HW2 5790   4.091   4.295   2.364
 1440SOL    HW3 5791   4.003   4.174   2.341
 1440SOL    MW4 5792   4.014   4.255   2.371
 1441SOL     OW 5793   4.250   4.376   2.314
 1441SOL    HW2 5794   4.252   4.472   2.323
 1441SOL    HW3 5795   4.340   4.349   2.334
 1441SOL    MW4 5796   4.262   4.385   2.318
 1442SOL     OW 5797   0.220   4.662   2.670
 1442SOL    HW2 5798   0.203   4.577   2.710
 1442SOL    HW3 5799   0.146   4.717   2.697
 1442SOL    MW4 5800   0.208   4.658   2.679
 1443SOL     OW 5801   4.479   0.112   2.747
 1443SOL    HW2 5802   4.473   0.100   2.842
 1443SOL    HW3 5803   4.477   0.207   2.735
 1443SOL    MW4 5804   4.478   0.123   2.758
 1444SOL     OW 5805   4.473   0.367   2.638
 1444SOL    HW2 5806   4.553   0.414   2.664
 1444SOL    HW3 5807   4.480   0.357   2.543
 1444SOL    MW4 5808   4.485   0.372   2.629
 1445SOL     OW 5809   0.207   0.511   2.761
 1445SOL    HW2 5810   0.194   0.513   2.856
 1445SOL    HW3 5811   0.293   0.471   2.749
 1445SOL    MW4 5812   0.216   0.506   2.772
 1446SOL     OW 5813   0.190   0.770   2.649
 1446SOL    HW2 5814   0.263   0.821   2.684
 1446SOL    HW3 5815   0.204   0.682   2.683
 1446SOL    MW4 5816   0.202   0.766   2.658
 1447SOL     OW 5817   4.460   0.889   2.765
 1447SOL    HW2 5818   4.385   0.849   2.722
 1447SOL    HW3 5819   4.536   0.840   2.731
 1447SOL    MW4 5820   4.460   0.877   2.754
 1448SOL     OW 5821   4.485   1.135   2.651
 1448SOL    HW2 5822   4.552   1.185   2.698
 1448SOL    HW3 5823   4.483   1.050   2.695
 1448SOL    MW4 5824   4.494   1.131   2.663
 1449SOL     OW 5825   0.189   1.300   2.767
 1449SOL    HW2 5826   0.252   1.241   2.725
 1449SOL    HW3 5827   0.188   1.378   2.712
 1449SOL    MW4 5828   0.197   1.302   2.754
 1450SOL     OW 5829   0.163   1.556   2.630
 1450SOL    HW2 5830   0.240   1.611   2.648
 1450SOL    HW3 5831   0.091   1.602   2.673
 1450SOL    MW4 5832   0.164   1.570   2.638
 1451SOL     OW 5833   4.440   1.664   2.762
 1451SOL    HW2 5834   4.431   1.671   2.857
 1451SOL    HW3 5835   4.456   1.753   2.732
 1451SOL    MW4 5836   4.441   1.677   2.770
 1452SOL     OW 5837   4.420   1.947   2.682
 1452SOL    HW2 5838   4.490   2.007   2.706
 1452SOL    HW3 5839   4.425   1.941   2.587
 1452SOL    MW4 5840   4.430   1.954   2.673
 1453SOL     OW 5841   0.165   2.080   2.768
 1453SOL    HW2 5842   0.233   2.031   2.722
 1453SOL    HW3 5843   0.170   2.169   2.731
 1453SOL    MW4 5844   0.175   2.085   2.757
 1454SOL     OW 5845   0.175   2.322   2.657
 1454SOL    HW2 5846   0.248   2.353   2.711
 1454SOL    HW3 5847   0.100   2.375   2.684
 1454SOL    MW4 5848   0.175   2.333   2.668
 1455SOL     OW 5849   4.437   2.442   2.739
 1455SOL    HW2 5850   4.438   2.432   2.834
 1455SOL    HW3 5851   4.357   2.397   2.711
 1455SOL    MW4 5852   4.427   2.435   2.748
 1456SOL     OW 5853   4.456   2.728   2.687
 1456SOL    HW2 5854   4.377   2.781   2.698
 1456SOL    HW3 5855   4.430   2.640   2.714
 1456SOL    MW4 5856   4.442   2.724   2.692
 1457SOL     OW 5857   0.202   2.825   2.782
 1457SOL    HW2 5858   0.217   2.907   2.735
 1457SOL    HW3 5859   0.118   2.795   2.749
 1457SOL    MW4 5860   0.193   2.832   2.771
 1458SOL     OW 5861   0.232   3.086   2.675
 1458SOL    HW2 5862   0.314   3.115   2.715
 1458SOL    HW3 5863   0.250   3.086   2.581
 1458SOL    MW4 5864   0.245   3.089   2.668
 1459SOL     OW 5865   0.004   3.210   2.784
 1459SOL    HW2 5866  -0.073   3.166   2.748
 1459SOL    HW3 5867   0.078   3.155   2.756
 1459SOL    MW4 5868   0.004   3.197   2.776
 1460SOL     OW 5869   0.003   3.478   2.682
 1460SOL    HW2 5870   0.075   3.534   2.713
 1460SOL    HW3 5871   0.024   3.391   2.717
 1460SOL    MW4 5872   0.015   3.474   2.691
 1461SOL     OW 5873   0.211   3.639   2.764
 1461SOL    HW2 5874   0.214   3.643   2.860
 1461SOL    HW3 5875   0.286   3.584   2.740
 1461SOL    MW4 5876   0.221   3.632   2.774
 1462SOL     OW 5877   0.192   3.892   2.653
 1462SOL    HW2 5878   0.200   3.805   2.692
 1462SOL    HW3 5879   0.198   3.877   2.559
 1462SOL    MW4 5880   0.194   3.879   2.646
 1463SOL     OW 5881   4.481   4.019   2.777
 1463SOL    HW2 5882   4.487   4.102   2.730
 1463SOL    HW3 5883   4.558   3.969   2.749
 1463SOL    MW4 5884   4.492   4.023   2.767
 1464SOL     OW 5885   4.478   4.278   2.636
 1464SOL    HW2 5886   4.398   4.328   2.656
 1464SOL    HW3 5887   4.544   4.314   2.696
 1464SOL    MW4 5888   4.476   4.289   2.646
 1465SOL     OW 5889   0.196   4.394   2.777
 1465SOL    HW2 5890   0.217   4.391   2.870
 1465SOL    HW3 5891   0.263   4.341   2.735
 1465SOL    MW4 5892   0.207   4.387   2.784
 1466SOL     OW 5893   0.679   0.019   2.637
 1466SOL    HW2 5894   0.764   0.031   2.680
 1466SOL    HW3 5895   0.616   0.058   2.697
 1466SOL    MW4 5896   0.682   0.026   2.650
 1467SOL     OW 5897   0.456   0.121   2.814
 1467SOL    HW2 5898   0.452   0.102   2.908
 1467SOL    HW3 5899   0.373   0.088   2.779
 1467SOL    MW4 5900   0.444   0.114   2.822
 1468SOL     OW 5901   0.438   0.378   2.710
 1468SOL    HW2 5902   0.524   0.420   2.712
 1468SOL    HW3 5903   0.453   0.290   2.744
 1468SOL    MW4 5904   0.451   0.372   2.714
 1469SOL     OW 5905   0.681   0.519   2.710
 1469SOL    HW2 5906   0.683   0.504   2.805
 1469SOL    HW3 5907   0.730   0.446   2.673
 1469SOL    MW4 5908   0.687   0.507   2.718
 1470SOL     OW 5909   0.638   0.781   2.646
 1470SOL    HW2 5910   0.709   0.828   2.690
 1470SOL    HW3 5911   0.658   0.689   2.662
 1470SOL    MW4 5912   0.650   0.775   2.654
 1471SOL     OW 5913   0.406   0.917   2.742
 1471SOL    HW2 5914   0.404   1.000   2.694
 1471SOL    HW3 5915   0.496   0.885   2.731
 1471SOL    MW4 5916   0.418   0.924   2.734
 1472SOL     OW 5917   0.415   1.160   2.640
 1472SOL    HW2 5918   0.491   1.212   2.665
 1472SOL    HW3 5919   0.421   1.152   2.545
 1472SOL    MW4 5920   0.426   1.166   2.631
 1473SOL     OW 5921   0.656   1.286   2.734
 1473SOL    HW2 5922   0.646   1.261   2.826
 1473SOL    HW3 5923   0.736   1.242   2.706
 1473SOL    MW4 5924   0.665   1.277   2.743
 1474SOL     OW 5925   0.603   1.533   2.618
 1474SOL    HW2 5926   0.526   1.574   2.657
 1474SOL    HW3 5927   0.618   1.454   2.670
 1474SOL    MW4 5928   0.595   1.528   2.630
 1475SOL     OW 5929   0.391   1.679   2.730
 1475SOL    HW2 5930   0.400   1.666   2.824
 1475SOL    HW3 5931   0.383   1.774   2.720
 1475SOL    MW4 5932   0.391   1.690   2.741
 1476SOL     OW 5933   0.379   1.940   2.631
 1476SOL    HW2 5934   0.461   1.980   2.661
 1476SOL    HW3 5935   0.387   1.937   2.536
 1476SOL    MW4 5936   0.391   1.945   2.623
 1477SOL     OW 5937   0.639   2.042   2.720
 1477SOL    HW2 5938   0.666   2.069   2.808
 1477SOL    HW3 5939   0.703   1.975   2.695
 1477SOL    MW4 5940   0.651   2.037   2.729
 1478SOL     OW 5941   0.627   2.304   2.676
 1478SOL    HW2 5942   0.703   2.337   2.723
 1478SOL    HW3 5943   0.624   2.211   2.697
 1478SOL    MW4 5944   0.636   2.296   2.685
 1479SOL     OW 5945   0.416   2.454   2.761
 1479SOL    HW2 5946   0.414   2.537   2.712
 1479SOL    HW3 5947   0.498   2.413   2.736
 1479SOL    MW4 5948   0.426   2.460   2.752
 1480SOL     OW 5949   0.421   2.713   2.643
 1480SOL    HW2 5950   0.499   2.749   2.686
 1480SOL    HW3 5951   0.348   2.744   2.697
 1480SOL    MW4 5952   0.421   2.722   2.656
 1481SOL     OW 5953   0.649   2.784   2.782
 1481SOL    HW2 5954   0.657   2.773   2.877
 1481SOL    HW3 5955   0.671   2.876   2.767
 1481SOL    MW4 5956   0.653   2.795   2.792
 1482SOL     OW 5957   0.684   3.050   2.721
 1482SOL    HW2 5958   0.761   3.102   2.744
 1482SOL    HW3 5959   0.684   3.047   2.626
 1482SOL    MW4 5960   0.694   3.057   2.712
 1483SOL     OW 5961   0.467   3.207   2.782
 1483SOL    HW2 5962   0.445   3.197   2.875
 1483SOL    HW3 5963   0.542   3.149   2.769
 1483SOL    MW4 5964   0.474   3.198   2.793
 1484SOL     OW 5965   0.428   3.476   2.698
 1484SOL    HW2 5966   0.429   3.386   2.731
 1484SOL    HW3 5967   0.452   3.468   2.605
 1484SOL    MW4 5968   0.431   3.463   2.690
 1485SOL     OW 5969   0.664   3.614   2.739
 1485SOL    HW2 5970   0.680   3.620   2.833
 1485SOL    HW3 5971   0.581   3.567   2.731
 1485SOL    MW4 5972   0.656   3.609   2.750
 1486SOL     OW 5973   0.662   3.877   2.659
 1486SOL    HW2 5974   0.580   3.916   2.689
 1486SOL    HW3 5975   0.658   3.786   2.689
 1486SOL    MW4 5976   0.651   3.870   2.667
 1487SOL     OW 5977   0.427   4.001   2.748
 1487SOL    HW2 5978   0.430   4.091   2.714
 1487SOL    HW3 5979   0.344   3.966   2.714
 1487SOL    MW4 5980   0.417   4.008   2.739
 1488SOL     OW 5981   0.429   4.272   2.684
 1488SOL    HW2 5982   0.499   4.334   2.704
 1488SOL    HW3 5983   0.428   4.266   2.589
 1488SOL    MW4 5984   0.438   4.280   2.674
 1489SOL     OW 5985   0.669   4.415   2.746
 1489SOL    HW2 5986   0.738   4.366   2.701
 1489SOL    HW3 5987   0.681   4.506   2.717
 1489SOL    MW4 5988   0.679   4.421   2.736
 1490SOL     OW 5989   1.150   4.605   2.610
 1490SOL    HW2 5990   1.212   4.657   2.661
 1490SOL    HW3 5991   1.145   4.522   2.656
 1490SOL    MW4 5992   1.157   4.601   2.623
 1491SOL     OW 5993   0.922   0.041   2.752
 1491SOL    HW2 5994   0.929   0.035   2.847
 1491SOL    HW3 5995   1.004   0.004   2.720
 1491SOL    MW4 5996   0.934   0.035   2.760
 1492SOL     OW 5997   0.861   0.306   2.647
 1492SOL    HW2 5998   0.883   0.219   2.680
 1492SOL    HW3 5999   0.860   0.296   2.552
 1492SOL    MW4 6000   0.863   0.293   2.639
 1493SOL     OW 6001   1.114   0.469   2.786
 1493SOL    HW2 6002   1.117   0.558   2.750
 1493SOL    HW3 6003   1.035   0.430   2.747
 1493SOL    MW4 6004   1.104   0.476   2.776
 1494SOL     OW 6005   1.115   0.725   2.696
 1494SOL    HW2 6006   1.188   0.782   2.720
 1494SOL    HW3 6007   1.106   0.736   2.601
 1494SOL    MW4 6008   1.124   0.734   2.687
 1495SOL     OW 6009   0.858   0.879   2.764
 1495SOL    HW2 6010   0.848   0.887   2.859
 1495SOL    HW3 6011   0.932   0.819   2.752
 1495SOL    MW4 6012   0.866   0.872   2.775
 1496SOL     OW 6013   0.888   1.144   2.664
 1496SOL    HW2 6014   0.875   1.059   2.706
 1496SOL    HW3 6015   0.879   1.127   2.570
 1496SOL    MW4 6016   0.885   1.131   2.657
 1497SOL     OW 6017   1.103   1.274   2.793
 1497SOL    HW2 6018   1.097   1.361   2.754
 1497SOL    HW3 6019   1.035   1.223   2.749
 1497SOL    MW4 6020   1.093   1.279   2.782
 1498SOL     OW 6021   1.091   1.540   2.681
 1498SOL    HW2 6022   1.009   1.580   2.712
 1498SOL    HW3 6023   1.097   1.567   2.590
 1498SOL    MW4 6024   1.081   1.549   2.673
 1499SOL     OW 6025   0.832   1.628   2.723
 1499SOL    HW2 6026   0.817   1.651   2.815
 1499SOL    HW3 6027   0.748   1.592   2.693
 1499SOL    MW4 6028   0.819   1.626   2.731
 1500SOL     OW 6029   0.850   1.875   2.629
 1500SOL    HW2 6030   0.930   1.912   2.665
 1500SOL    HW3 6031   0.848   1.785   2.661
 1500SOL    MW4 6032   0.860   1.868   2.638
 1501SOL     OW 6033   1.063   2.005   2.740
 1501SOL    HW2 6034   1.149   1.979   2.709
 1501SOL    HW3 6035   1.056   2.098   2.716
 1501SOL    MW4 6036   1.073   2.014   2.733
 1502SOL     OW 6037   1.063   2.285   2.659
 1502SOL    HW2 6038   1.138   2.331   2.695
 1502SOL    HW3 6039   1.076   2.289   2.564
 1502SOL    MW4 6040   1.074   2.291   2.651
 1503SOL     OW 6041   0.852   2.412   2.773
 1503SOL    HW2 6042   0.864   2.502   2.743
 1503SOL    HW3 6043   0.930   2.366   2.743
 1503SOL    MW4 6044   0.864   2.418   2.765
 1504SOL     OW 6045   0.887   2.668   2.663
 1504SOL    HW2 6046   0.955   2.729   2.691
 1504SOL    HW3 6047   0.808   2.698   2.709
 1504SOL    MW4 6048   0.885   2.680   2.673
 1505SOL     OW 6049   1.083   2.832   2.720
 1505SOL    HW2 6050   1.106   2.825   2.813
 1505SOL    HW3 6051   1.159   2.795   2.674
 1505SOL    MW4 6052   1.096   2.826   2.726
 1506SOL     OW 6053   1.148   3.096   2.676
 1506SOL    HW2 6054   1.122   3.007   2.699
 1506SOL    HW3 6055   1.136   3.101   2.581
 1506SOL    MW4 6056   1.143   3.085   2.666
 1507SOL     OW 6057   0.919   3.208   2.785
 1507SOL    HW2 6058   0.903   3.286   2.732
 1507SOL    HW3 6059   1.006   3.179   2.757
 1507SOL    MW4 6060   0.928   3.215   2.774
 1508SOL     OW 6061   0.887   3.462   2.660
 1508SOL    HW2 6062   0.961   3.508   2.701
 1508SOL    HW3 6063   0.810   3.512   2.688
 1508SOL    MW4 6064   0.887   3.475   2.669
 1509SOL     OW 6065   1.102   3.599   2.757
 1509SOL    HW2 6066   1.101   3.626   2.849
 1509SOL    HW3 6067   1.100   3.681   2.708
 1509SOL    MW4 6068   1.102   3.613   2.762
 1510SOL     OW 6069   1.098   3.851   2.640
 1510SOL    HW2 6070   1.178   3.889   2.677
 1510SOL    HW3 6071   1.110   3.859   2.545
 1510SOL    MW4 6072   1.110   3.857   2.632
 1511SOL     OW 6073   0.893   4.008   2.763
 1511SOL    HW2 6074   0.958   3.963   2.708
 1511SOL    HW3 6075   0.809   3.970   2.736
 1511SOL    MW4 6076   0.890   3.997   2.752
 1512SOL     OW 6077   0.888   4.266   2.649
 1512SOL    HW2 6078   0.892   4.174   2.674
 1512SOL    HW3 6079   0.884   4.265   2.553
 1512SOL    MW4 6080   0.888   4.254   2.640
 1513SOL     OW 6081   1.144   4.351   2.749
 1513SOL    HW2 6082   1.137   4.378   2.841
 1513SOL    HW3 6083   1.055   4.327   2.724
 1513SOL    MW4 6084   1.131   4.351   2.758
 1514SOL     OW 6085   1.571   4.641   2.671
 1514SOL    HW2 6086   1.578   4.547   2.688
 1514SOL    HW3 6087   1.578   4.649   2.576
 1514SOL    MW4 6088   1.573   4.629   2.661
 1515SOL     OW 6089   1.335   0.081   2.767
 1515SOL    HW2 6090   1.350   0.173   2.746
 1515SOL    HW3 6091   1.418   0.038   2.747
 1515SOL    MW4 6092   1.348   0.088   2.762
 1516SOL     OW 6093   1.358   0.360   2.712
 1516SOL    HW2 6094   1.427   0.411   2.754
 1516SOL    HW3 6095   1.277   0.399   2.743
 1516SOL    MW4 6096   1.357   0.372   2.722
 1517SOL     OW 6097   1.565   0.513   2.800
 1517SOL    HW2 6098   1.636   0.473   2.749
 1517SOL    HW3 6099   1.557   0.601   2.765
 1517SOL    MW4 6100   1.574   0.519   2.789
 1518SOL     OW 6101   1.580   0.769   2.677
 1518SOL    HW2 6102   1.504   0.820   2.703
 1518SOL    HW3 6103   1.570   0.757   2.582
 1518SOL    MW4 6104   1.569   0.774   2.668
 1519SOL     OW 6105   1.341   0.884   2.771
 1519SOL    HW2 6106   1.339   0.888   2.867
 1519SOL    HW3 6107   1.308   0.970   2.743
 1519SOL    MW4 6108   1.336   0.896   2.780
 1520SOL     OW 6109   1.284   1.138   2.657
 1520SOL    HW2 6110   1.360   1.196   2.658
 1520SOL    HW3 6111   1.219   1.183   2.712
 1520SOL    MW4 6112   1.285   1.152   2.664
 1521SOL     OW 6113   1.493   1.302   2.709
 1521SOL    HW2 6114   1.501   1.288   2.803
 1521SOL    HW3 6115   1.573   1.263   2.672
 1521SOL    MW4 6116   1.505   1.295   2.716
 1522SOL     OW 6117   1.567   1.564   2.645
 1522SOL    HW2 6118   1.528   1.477   2.657
 1522SOL    HW3 6119   1.561   1.579   2.550
 1522SOL    MW4 6120   1.561   1.554   2.634
 1523SOL     OW 6121   1.323   1.658   2.765
 1523SOL    HW2 6122   1.407   1.639   2.722
 1523SOL    HW3 6123   1.261   1.600   2.722
 1523SOL    MW4 6124   1.326   1.648   2.754
 1524SOL     OW 6125   1.297   1.908   2.677
 1524SOL    HW2 6126   1.301   1.817   2.707
 1524SOL    HW3 6127   1.294   1.902   2.582
 1524SOL    MW4 6128   1.297   1.895   2.668
 1525SOL     OW 6129   1.523   2.055   2.758
 1525SOL    HW2 6130   1.598   2.012   2.717
 1525SOL    HW3 6131   1.450   1.995   2.744
 1525SOL    MW4 6132   1.523   2.041   2.751
 1526SOL     OW 6133   1.496   2.304   2.620
 1526SOL    HW2 6134   1.575   2.342   2.658
 1526SOL    HW3 6135   1.489   2.217   2.661
 1526SOL    MW4 6136   1.505   2.298   2.631
 1527SOL     OW 6137   1.276   2.417   2.753
 1527SOL    HW2 6138   1.274   2.509   2.729
 1527SOL    HW3 6139   1.358   2.384   2.715
 1527SOL    MW4 6140   1.287   2.425   2.745
 1528SOL     OW 6141   1.323   2.708   2.659
 1528SOL    HW2 6142   1.401   2.736   2.707
 1528SOL    HW3 6143   1.347   2.719   2.567
 1528SOL    MW4 6144   1.337   2.713   2.653
 1529SOL     OW 6145   1.557   2.832   2.765
 1529SOL    HW2 6146   1.575   2.853   2.856
 1529SOL    HW3 6147   1.639   2.794   2.732
 1529SOL    MW4 6148   1.570   2.830   2.773
 1530SOL     OW 6149   1.553   3.075   2.641
 1530SOL    HW2 6150   1.628   3.119   2.681
 1530SOL    HW3 6151   1.549   2.990   2.684
 1530SOL    MW4 6152   1.562   3.069   2.652
 1531SOL     OW 6153   1.364   3.233   2.757
 1531SOL    HW2 6154   1.443   3.194   2.717
 1531SOL    HW3 6155   1.293   3.174   2.731
 1531SOL    MW4 6156   1.365   3.220   2.748
 1532SOL     OW 6157   1.333   3.501   2.640
 1532SOL    HW2 6158   1.343   3.414   2.679
 1532SOL    HW3 6159   1.254   3.536   2.680
 1532SOL    MW4 6160   1.324   3.494   2.650
 1533SOL     OW 6161   1.584   3.597   2.758
 1533SOL    HW2 6162   1.650   3.534   2.728
 1533SOL    HW3 6163   1.502   3.565   2.720
 1533SOL    MW4 6164   1.582   3.584   2.749
 1534SOL     OW 6165   1.623   3.855   2.662
 1534SOL    HW2 6166   1.535   3.887   2.680
 1534SOL    HW3 6167   1.620   3.762   2.684
 1534SOL    MW4 6168   1.611   3.847   2.667
 1535SOL     OW 6169   1.374   3.965   2.725
 1535SOL    HW2 6170   1.388   3.975   2.819
 1535SOL    HW3 6171   1.377   4.055   2.691
 1535SOL    MW4 6172   1.377   3.978   2.733
 1536SOL     OW 6173   1.359   4.218   2.631
 1536SOL    HW2 6174   1.276   4.250   2.666
 1536SOL    HW3 6175   1.349   4.227   2.536
 1536SOL    MW4 6176   1.346   4.224   2.623
 1537SOL     OW 6177   1.596   4.361   2.728
 1537SOL    HW2 6178   1.587   4.362   2.823
 1537SOL    HW3 6179   1.515   4.321   2.697
 1537SOL    MW4 6180   1.584   4.356   2.737
 1538SOL     OW 6181   1.990   4.653   2.674
 1538SOL    HW2 6182   2.074   4.691   2.699
 1538SOL    HW3 6183   2.002   4.625   2.583
 1538SOL    MW4 6184   2.002   4.654   2.665
 1539SOL     OW 6185   1.776   0.129   2.786
 1539SOL    HW2 6186   1.854   0.083   2.754
 1539SOL    HW3 6187   1.704   0.069   2.766
 1539SOL    MW4 6188   1.777   0.115   2.779
 1540SOL     OW 6189   1.789   0.385   2.672
 1540SOL    HW2 6190   1.859   0.436   2.713
 1540SOL    HW3 6191   1.790   0.301   2.717
 1540SOL    MW4 6192   1.798   0.381   2.683
 1541SOL     OW 6193   1.997   0.542   2.804
 1541SOL    HW2 6194   2.073   0.510   2.755
 1541SOL    HW3 6195   1.987   0.633   2.777
 1541SOL    MW4 6196   2.006   0.550   2.794
 1542SOL     OW 6197   2.002   0.797   2.689
 1542SOL    HW2 6198   1.924   0.845   2.717
 1542SOL    HW3 6199   1.978   0.758   2.606
 1542SOL    MW4 6200   1.989   0.798   2.682
 1543SOL     OW 6201   1.758   0.930   2.799
 1543SOL    HW2 6202   1.742   1.007   2.743
 1543SOL    HW3 6203   1.702   0.862   2.762
 1543SOL    MW4 6204   1.748   0.931   2.786
 1544SOL     OW 6205   1.750   1.178   2.662
 1544SOL    HW2 6206   1.834   1.221   2.678
 1544SOL    HW3 6207   1.742   1.176   2.566
 1544SOL    MW4 6208   1.760   1.184   2.651
 1545SOL     OW 6209   1.999   1.318   2.733
 1545SOL    HW2 6210   1.994   1.293   2.825
 1545SOL    HW3 6211   2.074   1.270   2.699
 1545SOL    MW4 6212   2.008   1.309   2.741
 1546SOL     OW 6213   1.984   1.582   2.672
 1546SOL    HW2 6214   1.911   1.632   2.709
 1546SOL    HW3 6215   1.981   1.498   2.717
 1546SOL    MW4 6216   1.974   1.578   2.683
 1547SOL     OW 6217   1.747   1.711   2.780
 1547SOL    HW2 6218   1.744   1.706   2.875
 1547SOL    HW3 6219   1.680   1.649   2.751
 1547SOL    MW4 6220   1.738   1.702   2.788
 1548SOL     OW 6221   1.756   1.946   2.635
 1548SOL    HW2 6222   1.837   1.994   2.651
 1548SOL    HW3 6223   1.762   1.870   2.693
 1548SOL    MW4 6224   1.768   1.942   2.645
 1549SOL     OW 6225   1.977   2.088   2.702
 1549SOL    HW2 6226   1.967   2.079   2.796
 1549SOL    HW3 6227   1.977   2.183   2.687
 1549SOL    MW4 6228   1.976   2.100   2.712
 1550SOL     OW 6229   1.957   2.371   2.652
 1550SOL    HW2 6230   2.023   2.435   2.678
 1550SOL    HW3 6231   1.954   2.375   2.557
 1550SOL    MW4 6232   1.965   2.380   2.643
 1551SOL     OW 6233   1.710   2.463   2.703
 1551SOL    HW2 6234   1.711   2.475   2.799
 1551SOL    HW3 6235   1.795   2.425   2.683
 1551SOL    MW4 6236   1.721   2.460   2.713
 1552SOL     OW 6237   1.784   2.714   2.647
 1552SOL    HW2 6238   1.746   2.631   2.677
 1552SOL    HW3 6239   1.778   2.710   2.552
 1552SOL    MW4 6240   1.778   2.703   2.638
 1553SOL     OW 6241   2.017   2.848   2.759
 1553SOL    HW2 6242   2.087   2.796   2.718
 1553SOL    HW3 6243   1.937   2.811   2.721
 1553SOL    MW4 6244   2.016   2.836   2.748
 1554SOL     OW 6245   2.003   3.091   2.617
 1554SOL    HW2 6246   2.020   3.004   2.653
 1554SOL    HW3 6247   1.984   3.075   2.525
 1554SOL    MW4 6248   2.003   3.077   2.610
 1555SOL     OW 6249   1.769   3.215   2.735
 1555SOL    HW2 6250   1.784   3.301   2.695
 1555SOL    HW3 6251   1.838   3.159   2.698
 1555SOL    MW4 6252   1.780   3.219   2.725
 1556SOL     OW 6253   1.798   3.472   2.620
 1556SOL    HW2 6254   1.880   3.513   2.649
 1556SOL    HW3 6255   1.806   3.470   2.524
 1556SOL    MW4 6256   1.810   3.477   2.611
 1557SOL     OW 6257   2.023   3.585   2.729
 1557SOL    HW2 6258   2.021   3.571   2.824
 1557SOL    HW3 6259   2.099   3.534   2.700
 1557SOL    MW4 6260   2.033   3.576   2.738
 1558SOL     OW 6261   2.060   3.839   2.622
 1558SOL    HW2 6262   1.986   3.876   2.670
 1558SOL    HW3 6263   2.061   3.746   2.647
 1558SOL    MW4 6264   2.050   3.831   2.631
 1559SOL     OW 6265   1.848   3.978   2.765
 1559SOL    HW2 6266   1.855   4.067   2.732
 1559SOL    HW3 6267   1.767   3.944   2.726
 1559SOL    MW4 6268   1.838   3.985   2.756
 1560SOL     OW 6269   1.836   4.239   2.646
 1560SOL    HW2 6270   1.753   4.277   2.675
 1560SOL    HW3 6271   1.831   4.243   2.550
 1560SOL    MW4 6272   1.824   4.245   2.637
 1561SOL     OW 6273   2.023   4.389   2.777
 1561SOL    HW2 6274   1.949   4.336   2.746
 1561SOL    HW3 6275   2.008   4.475   2.740
 1561SOL    MW4 6276   2.011   4.393   2.768
 1562SOL     OW 6277   2.443   4.644   2.651
 1562SOL    HW2 6278   2.527   4.686   2.668
 1562SOL    HW3 6279   2.441   4.631   2.556
 1562SOL    MW4 6280   2.454   4.648   2.640
 1563SOL     OW 6281   2.212   0.111   2.765
 1563SOL    HW2 6282   2.227   0.108   2.859
 1563SOL    HW3 6283   2.288   0.066   2.727
 1563SOL    MW4 6284   2.224   0.105   2.772
 1564SOL     OW 6285   2.198   0.380   2.681
 1564SOL    HW2 6286   2.182   0.294   2.719
 1564SOL    HW3 6287   2.225   0.362   2.591
 1564SOL    MW4 6288   2.199   0.366   2.674
 1565SOL     OW 6289   2.457   0.485   2.765
 1565SOL    HW2 6290   2.454   0.575   2.731
 1565SOL    HW3 6291   2.394   0.437   2.712
 1565SOL    MW4 6292   2.448   0.491   2.753
 1566SOL     OW 6293   2.420   0.729   2.653
 1566SOL    HW2 6294   2.351   0.790   2.679
 1566SOL    HW3 6295   2.410   0.722   2.558
 1566SOL    MW4 6296   2.409   0.736   2.644
 1567SOL     OW 6297   2.241   0.919   2.750
 1567SOL    HW2 6298   2.254   0.919   2.845
 1567SOL    HW3 6299   2.162   0.865   2.737
 1567SOL    MW4 6300   2.232   0.912   2.761
 1568SOL     OW 6301   2.211   1.169   2.644
 1568SOL    HW2 6302   2.232   1.081   2.674
 1568SOL    HW3 6303   2.215   1.163   2.548
 1568SOL    MW4 6304   2.214   1.157   2.635
 1569SOL     OW 6305   2.416   1.288   2.796
 1569SOL    HW2 6306   2.479   1.236   2.746
 1569SOL    HW3 6307   2.330   1.261   2.762
 1569SOL    MW4 6308   2.413   1.277   2.785
 1570SOL     OW 6309   2.445   1.531   2.662
 1570SOL    HW2 6310   2.383   1.599   2.689
 1570SOL    HW3 6311   2.433   1.460   2.725
 1570SOL    MW4 6312   2.435   1.531   2.674
 1571SOL     OW 6313   2.228   1.695   2.734
 1571SOL    HW2 6314   2.225   1.785   2.701
 1571SOL    HW3 6315   2.147   1.655   2.701
 1571SOL    MW4 6316   2.217   1.701   2.725
 1572SOL     OW 6317   2.200   1.945   2.627
 1572SOL    HW2 6318   2.124   2.003   2.627
 1572SOL    HW3 6319   2.211   1.921   2.535
 1572SOL    MW4 6320   2.191   1.949   2.615
 1573SOL     OW 6321   2.436   2.091   2.725
 1573SOL    HW2 6322   2.420   2.180   2.695
 1573SOL    HW3 6323   2.357   2.043   2.698
 1573SOL    MW4 6324   2.423   2.096   2.718
 1574SOL     OW 6325   2.435   2.350   2.621
 1574SOL    HW2 6326   2.504   2.403   2.662
 1574SOL    HW3 6327   2.452   2.357   2.527
 1574SOL    MW4 6328   2.446   2.358   2.614
 1575SOL     OW 6329   2.201   2.492   2.736
 1575SOL    HW2 6330   2.207   2.475   2.830
 1575SOL    HW3 6331   2.279   2.451   2.699
 1575SOL    MW4 6332   2.212   2.484   2.743
 1576SOL     OW 6333   2.246   2.737   2.633
 1576SOL    HW2 6334   2.324   2.767   2.678
 1576SOL    HW3 6335   2.233   2.647   2.665
 1576SOL    MW4 6336   2.254   2.729   2.643
 1577SOL     OW 6337   2.469   2.829   2.774
 1577SOL    HW2 6338   2.548   2.808   2.725
 1577SOL    HW3 6339   2.438   2.912   2.736
 1577SOL    MW4 6340   2.475   2.837   2.762
 1578SOL     OW 6341   2.400   3.072   2.629
 1578SOL    HW2 6342   2.321   3.122   2.648
 1578SOL    HW3 6343   2.405   3.072   2.533
 1578SOL    MW4 6344   2.390   3.079   2.619
 1579SOL     OW 6345   2.212   3.244   2.720
 1579SOL    HW2 6346   2.235   3.252   2.812
 1579SOL    HW3 6347   2.129   3.196   2.720
 1579SOL    MW4 6348   2.204   3.238   2.732
 1580SOL     OW 6349   2.246   3.479   2.594
 1580SOL    HW2 6350   2.318   3.517   2.645
 1580SOL    HW3 6351   2.244   3.387   2.622
 1580SOL    MW4 6352   2.256   3.472   2.605
 1581SOL     OW 6353   2.454   3.606   2.716
 1581SOL    HW2 6354   2.477   3.612   2.809
 1581SOL    HW3 6355   2.431   3.696   2.692
 1581SOL    MW4 6356   2.454   3.619   2.725
 1582SOL     OW 6357   2.484   3.870   2.611
 1582SOL    HW2 6358   2.560   3.901   2.659
 1582SOL    HW3 6359   2.410   3.915   2.651
 1582SOL    MW4 6360   2.484   3.880   2.622
 1583SOL     OW 6361   2.255   4.005   2.726
 1583SOL    HW2 6362   2.247   4.002   2.821
 1583SOL    HW3 6363   2.180   3.955   2.693
 1583SOL    MW4 6364   2.244   3.998   2.734
 1584SOL     OW 6365   2.248   4.285   2.659
 1584SOL    HW2 6366   2.238   4.199   2.701
 1584SOL    HW3 6367   2.172   4.335   2.686
 1584SOL    MW4 6368   2.237   4.280   2.668
 1585SOL     OW 6369   2.473   4.404   2.783
 1585SOL    HW2 6370   2.395   4.355   2.758
 1585SOL    HW3 6371   2.463   4.489   2.741
 1585SOL    MW4 6372   2.462   4.409   2.774
 1586SOL     OW 6373   2.910   4.629   2.625
 1586SOL    HW2 6374   2.992   4.658   2.665
 1586SOL    HW3 6375   2.924   4.638   2.531
 1586SOL    MW4 6376   2.922   4.634   2.618
 1587SOL     OW 6377   2.670   0.108   2.713
 1587SOL    HW2 6378   2.680   0.107   2.808
 1587SOL    HW3 6379   2.756   0.080   2.680
 1587SOL    MW4 6380   2.683   0.104   2.721
 1588SOL     OW 6381   2.688   0.389   2.619
 1588SOL    HW2 6382   2.677   0.300   2.652
 1588SOL    HW3 6383   2.619   0.439   2.661
 1588SOL    MW4 6384   2.678   0.384   2.628
 1589SOL     OW 6385   2.955   0.476   2.715
 1589SOL    HW2 6386   2.945   0.571   2.711
 1589SOL    HW3 6387   2.867   0.442   2.700
 1589SOL    MW4 6388   2.942   0.484   2.712
 1590SOL     OW 6389   2.882   0.736   2.660
 1590SOL    HW2 6390   2.956   0.797   2.653
 1590SOL    HW3 6391   2.810   0.791   2.691
 1590SOL    MW4 6392   2.882   0.751   2.664
 1591SOL     OW 6393   2.664   0.878   2.748
 1591SOL    HW2 6394   2.658   0.875   2.844
 1591SOL    HW3 6395   2.587   0.830   2.717
 1591SOL    MW4 6396   2.653   0.871   2.757
 1592SOL     OW 6397   2.620   1.136   2.660
 1592SOL    HW2 6398   2.693   1.176   2.708
 1592SOL    HW3 6399   2.625   1.043   2.680
 1592SOL    MW4 6400   2.630   1.129   2.669
 1593SOL     OW 6401   2.850   1.269   2.764
 1593SOL    HW2 6402   2.861   1.263   2.859
 1593SOL    HW3 6403   2.933   1.236   2.729
 1593SOL    MW4 6404   2.862   1.264   2.772
 1594SOL     OW 6405   2.881   1.546   2.638
 1594SOL    HW2 6406   2.822   1.615   2.666
 1594SOL    HW3 6407   2.852   1.468   2.686
 1594SOL    MW4 6408   2.870   1.545   2.648
 1595SOL     OW 6409   2.665   1.692   2.748
 1595SOL    HW2 6410   2.669   1.682   2.843
 1595SOL    HW3 6411   2.595   1.632   2.721
 1595SOL    MW4 6412   2.656   1.683   2.757
 1596SOL     OW 6413   2.666   1.967   2.628
 1596SOL    HW2 6414   2.675   1.894   2.689
 1596SOL    HW3 6415   2.589   2.015   2.660
 1596SOL    MW4 6416   2.657   1.963   2.640
 1597SOL     OW 6417   2.883   2.108   2.704
 1597SOL    HW2 6418   2.893   2.200   2.682
 1597SOL    HW3 6419   2.800   2.082   2.663
 1597SOL    MW4 6420   2.873   2.117   2.696
 1598SOL     OW 6421   2.872   2.366   2.600
 1598SOL    HW2 6422   2.948   2.410   2.639
 1598SOL    HW3 6423   2.797   2.398   2.650
 1598SOL    MW4 6424   2.872   2.376   2.612
 1599SOL     OW 6425   2.637   2.489   2.728
 1599SOL    HW2 6426   2.647   2.494   2.823
 1599SOL    HW3 6427   2.633   2.581   2.700
 1599SOL    MW4 6428   2.637   2.502   2.737
 1600SOL     OW 6429   2.698   2.747   2.642
 1600SOL    HW2 6430   2.780   2.763   2.689
 1600SOL    HW3 6431   2.715   2.780   2.554
 1600SOL    MW4 6432   2.711   2.753   2.637
 1601SOL     OW 6433   2.923   2.854   2.752
 1601SOL    HW2 6434   2.931   2.860   2.848
 1601SOL    HW3 6435   2.934   2.944   2.722
 1601SOL    MW4 6436   2.926   2.867   2.761
 1602SOL     OW 6437   2.904   3.108   2.651
 1602SOL    HW2 6438   2.817   3.129   2.685
 1602SOL    HW3 6439   2.895   3.115   2.556
 1602SOL    MW4 6440   2.892   3.112   2.643
 1603SOL     OW 6441   2.626   3.201   2.746
 1603SOL    HW2 6442   2.632   3.281   2.693
 1603SOL    HW3 6443   2.560   3.148   2.703
 1603SOL    MW4 6444   2.618   3.205   2.734
 1604SOL     OW 6445   2.654   3.438   2.609
 1604SOL    HW2 6446   2.581   3.497   2.631
 1604SOL    HW3 6447   2.681   3.467   2.522
 1604SOL    MW4 6448   2.648   3.450   2.600
 1605SOL     OW 6449   2.872   3.585   2.755
 1605SOL    HW2 6450   2.896   3.566   2.845
 1605SOL    HW3 6451   2.791   3.536   2.740
 1605SOL    MW4 6452   2.865   3.576   2.765
 1606SOL     OW 6453   2.892   3.837   2.637
 1606SOL    HW2 6454   2.980   3.851   2.672
 1606SOL    HW3 6455   2.866   3.751   2.671
 1606SOL    MW4 6456   2.900   3.827   2.646
 1607SOL     OW 6457   2.688   3.970   2.770
 1607SOL    HW2 6458   2.681   4.057   2.732
 1607SOL    HW3 6459   2.765   3.931   2.727
 1607SOL    MW4 6460   2.697   3.976   2.759
 1608SOL     OW 6461   2.673   4.252   2.684
 1608SOL    HW2 6462   2.752   4.286   2.725
 1608SOL    HW3 6463   2.603   4.310   2.714
 1608SOL    MW4 6464   2.674   4.264   2.693
 1609SOL     OW 6465   2.925   4.367   2.715
 1609SOL    HW2 6466   2.941   4.371   2.810
 1609SOL    HW3 6467   2.947   4.455   2.684
 1609SOL    MW4 6468   2.930   4.379   2.724
 1610SOL     OW 6469   3.371   4.619   2.638
 1610SOL    HW2 6470   3.369   4.536   2.685
 1610SOL    HW3 6471   3.299   4.670   2.675
 1610SOL    MW4 6472   3.361   4.615   2.649
 1611SOL     OW 6473   3.160   0.092   2.733
 1611SOL    HW2 6474   3.146   0.098   2.827
 1611SOL    HW3 6475   3.169   0.183   2.704
 1611SOL    MW4 6476   3.159   0.105   2.741
 1612SOL     OW 6477   3.166   0.331   2.618
 1612SOL    HW2 6478   3.092   0.378   2.656
 1612SOL    HW3 6479   3.145   0.324   2.525
 1612SOL    MW4 6480   3.154   0.336   2.611
 1613SOL     OW 6481   3.366   0.510   2.729
 1613SOL    HW2 6482   3.356   0.595   2.686
 1613SOL    HW3 6483   3.298   0.455   2.690
 1613SOL    MW4 6484   3.356   0.514   2.718
 1614SOL     OW 6485   3.314   0.754   2.627
 1614SOL    HW2 6486   3.391   0.806   2.652
 1614SOL    HW3 6487   3.317   0.751   2.532
 1614SOL    MW4 6488   3.325   0.760   2.618
 1615SOL     OW 6489   3.103   0.884   2.705
 1615SOL    HW2 6490   3.126   0.886   2.798
 1615SOL    HW3 6491   3.172   0.833   2.663
 1615SOL    MW4 6492   3.115   0.878   2.711
 1616SOL     OW 6493   3.090   1.167   2.673
 1616SOL    HW2 6494   3.091   1.077   2.705
 1616SOL    HW3 6495   3.121   1.162   2.583
 1616SOL    MW4 6496   3.094   1.155   2.666
 1617SOL     OW 6497   3.329   1.289   2.742
 1617SOL    HW2 6498   3.323   1.290   2.837
 1617SOL    HW3 6499   3.244   1.255   2.712
 1617SOL    MW4 6500   3.317   1.285   2.751
 1618SOL     OW 6501   3.347   1.539   2.644
 1618SOL    HW2 6502   3.272   1.587   2.677
 1618SOL    HW3 6503   3.333   1.448   2.672
 1618SOL    MW4 6504   3.335   1.533   2.652
 1619SOL     OW 6505   3.125   1.689   2.741
 1619SOL    HW2 6506   3.124   1.768   2.688
 1619SOL    HW3 6507   3.060   1.632   2.700
 1619SOL    MW4 6508   3.116   1.692   2.728
 1620SOL     OW 6509   3.100   1.946   2.603
 1620SOL    HW2 6510   3.179   1.987   2.639
 1620SOL    HW3 6511   3.028   1.997   2.638
 1620SOL    MW4 6512   3.101   1.958   2.612
 1621SOL     OW 6513   3.320   2.069   2.725
 1621SOL    HW2 6514   3.337   2.074   2.819
 1621SOL    HW3 6515   3.312   2.160   2.697
 1621SOL    MW4 6516   3.321   2.081   2.734
 1622SOL     OW 6517   3.317   2.333   2.648
 1622SOL    HW2 6518   3.407   2.355   2.671
 1622SOL    HW3 6519   3.318   2.324   2.553
 1622SOL    MW4 6520   3.329   2.334   2.639
 1623SOL     OW 6521   3.099   2.462   2.715
 1623SOL    HW2 6522   3.116   2.554   2.695
 1623SOL    HW3 6523   3.181   2.417   2.694
 1623SOL    MW4 6524   3.112   2.468   2.710
 1624SOL     OW 6525   3.147   2.730   2.630
 1624SOL    HW2 6526   3.225   2.772   2.667
 1624SOL    HW3 6527   3.073   2.779   2.665
 1624SOL    MW4 6528   3.148   2.742   2.639
 1625SOL     OW 6529   3.360   2.872   2.738
 1625SOL    HW2 6530   3.341   2.865   2.832
 1625SOL    HW3 6531   3.439   2.819   2.725
 1625SOL    MW4 6532   3.368   2.864   2.749
 1626SOL     OW 6533   3.363   3.125   2.620
 1626SOL    HW2 6534   3.363   3.033   2.647
 1626SOL    HW3 6535   3.359   3.121   2.525
 1626SOL    MW4 6536   3.362   3.112   2.611
 1627SOL     OW 6537   3.132   3.258   2.735
 1627SOL    HW2 6538   3.200   3.199   2.704
 1627SOL    HW3 6539   3.052   3.228   2.692
 1627SOL    MW4 6540   3.130   3.246   2.726
 1628SOL     OW 6541   3.109   3.522   2.636
 1628SOL    HW2 6542   3.135   3.441   2.681
 1628SOL    HW3 6543   3.030   3.550   2.682
 1628SOL    MW4 6544   3.102   3.515   2.648
 1629SOL     OW 6545   3.359   3.651   2.728
 1629SOL    HW2 6546   3.356   3.658   2.823
 1629SOL    HW3 6547   3.271   3.623   2.703
 1629SOL    MW4 6548   3.347   3.648   2.737
 1630SOL     OW 6549   3.384   3.902   2.619
 1630SOL    HW2 6550   3.394   3.811   2.649
 1630SOL    HW3 6551   3.362   3.894   2.526
 1630SOL    MW4 6552   3.382   3.889   2.611
 1631SOL     OW 6553   3.143   3.967   2.748
 1631SOL    HW2 6554   3.130   4.048   2.699
 1631SOL    HW3 6555   3.228   3.934   2.718
 1631SOL    MW4 6556   3.153   3.973   2.738
 1632SOL     OW 6557   3.154   4.229   2.634
 1632SOL    HW2 6558   3.070   4.268   2.659
 1632SOL    HW3 6559   3.156   4.235   2.539
 1632SOL    MW4 6560   3.143   4.235   2.625
 1633SOL     OW 6561   3.362   4.367   2.744
 1633SOL    HW2 6562   3.365   4.349   2.838
 1633SOL    HW3 6563   3.284   4.322   2.713
 1633SOL    MW4 6564   3.352   4.358   2.752
 1634SOL     OW 6565   3.833   0.024   2.630
 1634SOL    HW2 6566   3.829  -0.060   2.676
 1634SOL    HW3 6567   3.746   0.062   2.643
 1634SOL    MW4 6568   3.821   0.018   2.638
 1635SOL     OW 6569   3.582   0.106   2.734
 1635SOL    HW2 6570   3.567   0.198   2.712
 1635SOL    HW3 6571   3.500   0.062   2.710
 1635SOL    MW4 6572   3.569   0.112   2.728
 1636SOL     OW 6573   3.571   0.355   2.625
 1636SOL    HW2 6574   3.642   0.409   2.658
 1636SOL    HW3 6575   3.492   0.405   2.645
 1636SOL    MW4 6576   3.570   0.369   2.632
 1637SOL     OW 6577   3.776   0.507   2.719
 1637SOL    HW2 6578   3.778   0.472   2.808
 1637SOL    HW3 6579   3.863   0.486   2.684
 1637SOL    MW4 6580   3.788   0.500   2.726
 1638SOL     OW 6581   3.798   0.805   2.613
 1638SOL    HW2 6582   3.715   0.840   2.645
 1638SOL    HW3 6583   3.809   0.722   2.659
 1638SOL    MW4 6584   3.789   0.799   2.623
 1639SOL     OW 6585   3.551   0.874   2.716
 1639SOL    HW2 6586   3.556   0.865   2.811
 1639SOL    HW3 6587   3.552   0.968   2.700
 1639SOL    MW4 6588   3.552   0.885   2.726
 1640SOL     OW 6589   3.555   1.137   2.624
 1640SOL    HW2 6590   3.640   1.169   2.655
 1640SOL    HW3 6591   3.493   1.204   2.654
 1640SOL    MW4 6592   3.558   1.150   2.632
 1641SOL     OW 6593   3.785   1.270   2.708
 1641SOL    HW2 6594   3.878   1.257   2.688
 1641SOL    HW3 6595   3.772   1.364   2.703
 1641SOL    MW4 6596   3.796   1.281   2.705
 1642SOL     OW 6597   3.781   1.555   2.648
 1642SOL    HW2 6598   3.861   1.576   2.695
 1642SOL    HW3 6599   3.712   1.602   2.695
 1642SOL    MW4 6600   3.783   1.564   2.660
 1643SOL     OW 6601   3.551   1.639   2.789
 1643SOL    HW2 6602   3.557   1.723   2.744
 1643SOL    HW3 6603   3.491   1.587   2.736
 1643SOL    MW4 6604   3.544   1.644   2.776
 1644SOL     OW 6605   3.539   1.893   2.653
 1644SOL    HW2 6606   3.468   1.948   2.685
 1644SOL    HW3 6607   3.532   1.896   2.557
 1644SOL    MW4 6608   3.529   1.901   2.644
 1645SOL     OW 6609   3.777   2.021   2.736
 1645SOL    HW2 6610   3.840   1.962   2.694
 1645SOL    HW3 6611   3.693   2.000   2.696
 1645SOL    MW4 6612   3.775   2.011   2.725
 1646SOL     OW 6613   3.802   2.313   2.668
 1646SOL    HW2 6614   3.801   2.224   2.703
 1646SOL    HW3 6615   3.824   2.302   2.576
 1646SOL    MW4 6616   3.805   2.300   2.660
 1647SOL     OW 6617   3.550   2.422   2.728
 1647SOL    HW2 6618   3.556   2.404   2.821
 1647SOL    HW3 6619   3.634   2.393   2.693
 1647SOL    MW4 6620   3.562   2.416   2.735
 1648SOL     OW 6621   3.563   2.702   2.654
 1648SOL    HW2 6622   3.575   2.610   2.675
 1648SOL    HW3 6623   3.555   2.705   2.559
 1648SOL    MW4 6624   3.563   2.690   2.644
 1649SOL     OW 6625   3.760   2.878   2.766
 1649SOL    HW2 6626   3.843   2.836   2.742
 1649SOL    HW3 6627   3.693   2.829   2.719
 1649SOL    MW4 6628   3.762   2.866   2.757
 1650SOL     OW 6629   3.774   3.121   2.645
 1650SOL    HW2 6630   3.707   3.170   2.694
 1650SOL    HW3 6631   3.768   3.032   2.679
 1650SOL    MW4 6632   3.764   3.116   2.656
 1651SOL     OW 6633   3.566   3.291   2.751
 1651SOL    HW2 6634   3.591   3.362   2.693
 1651SOL    HW3 6635   3.503   3.240   2.700
 1651SOL    MW4 6636   3.561   3.293   2.736
 1652SOL     OW 6637   3.598   3.560   2.626
 1652SOL    HW2 6638   3.664   3.596   2.685
 1652SOL    HW3 6639   3.515   3.582   2.666
 1652SOL    MW4 6640   3.596   3.567   2.639
 1653SOL     OW 6641   3.802   3.626   2.791
 1653SOL    HW2 6642   3.881   3.578   2.767
 1653SOL    HW3 6643   3.816   3.714   2.756
 1653SOL    MW4 6644   3.814   3.631   2.783
 1654SOL     OW 6645   3.818   3.857   2.640
 1654SOL    HW2 6646   3.896   3.908   2.660
 1654SOL    HW3 6647   3.746   3.918   2.654
 1654SOL    MW4 6648   3.819   3.872   2.644
 1655SOL     OW 6649   3.616   4.032   2.700
 1655SOL    HW2 6650   3.632   4.125   2.684
 1655SOL    HW3 6651   3.527   4.017   2.669
 1655SOL    MW4 6652   3.607   4.042   2.694
 1656SOL     OW 6653   3.610   4.305   2.633
 1656SOL    HW2 6654   3.530   4.320   2.683
 1656SOL    HW3 6655   3.581   4.292   2.543
 1656SOL    MW4 6656   3.596   4.305   2.628
 1657SOL     OW 6657   3.822   4.427   2.744
 1657SOL    HW2 6658   3.893   4.375   2.706
 1657SOL    HW3 6659   3.742   4.388   2.708
 1657SOL    MW4 6660   3.821   4.415   2.734
 1658SOL     OW 6661   4.251   4.665   2.625
 1658SOL    HW2 6662   4.191   4.713   2.682
 1658SOL    HW3 6663   4.338   4.697   2.649
 1658SOL    MW4 6664   4.255   4.676   2.636
 1659SOL     OW 6665   4.038   0.179   2.738
 1659SOL    HW2 6666   4.026   0.138   2.823
 1659SOL    HW3 6667   3.990   0.122   2.677
 1659SOL    MW4 6668   4.030   0.166   2.741
 1660SOL     OW 6669   4.042   0.434   2.618
 1660SOL    HW2 6670   4.034   0.353   2.667
 1660SOL    HW3 6671   4.019   0.410   2.528
 1660SOL    MW4 6672   4.038   0.420   2.612
 1661SOL     OW 6673   4.266   0.537   2.720
 1661SOL    HW2 6674   4.189   0.491   2.686
 1661SOL    HW3 6675   4.340   0.485   2.688
 1661SOL    MW4 6676   4.265   0.524   2.711
 1662SOL     OW 6677   4.238   0.798   2.621
 1662SOL    HW2 6678   4.236   0.704   2.640
 1662SOL    HW3 6679   4.244   0.803   2.526
 1662SOL    MW4 6680   4.239   0.786   2.611
 1663SOL     OW 6681   4.037   0.921   2.739
 1663SOL    HW2 6682   4.097   0.868   2.687
 1663SOL    HW3 6683   3.951   0.902   2.703
 1663SOL    MW4 6684   4.034   0.911   2.728
 1664SOL     OW 6685   4.055   1.170   2.622
 1664SOL    HW2 6686   4.129   1.211   2.666
 1664SOL    HW3 6687   4.051   1.082   2.659
 1664SOL    MW4 6688   4.064   1.164   2.633
 1665SOL     OW 6689   4.258   1.259   2.750
 1665SOL    HW2 6690   4.282   1.339   2.704
 1665SOL    HW3 6691   4.330   1.198   2.732
 1665SOL    MW4 6692   4.271   1.262   2.742
 1666SOL     OW 6693   4.239   1.525   2.648
 1666SOL    HW2 6694   4.317   1.572   2.678
 1666SOL    HW3 6695   4.249   1.521   2.553
 1666SOL    MW4 6696   4.251   1.531   2.640
 1667SOL     OW 6697   4.027   1.654   2.780
 1667SOL    HW2 6698   4.040   1.646   2.874
 1667SOL    HW3 6699   4.103   1.610   2.741
 1667SOL    MW4 6700   4.039   1.647   2.787
 1668SOL     OW 6701   3.983   1.885   2.637
 1668SOL    HW2 6702   4.041   1.948   2.680
 1668SOL    HW3 6703   3.994   1.805   2.688
 1668SOL    MW4 6704   3.992   1.883   2.650
 1669SOL     OW 6705   4.167   2.052   2.757
 1669SOL    HW2 6706   4.184   2.141   2.723
 1669SOL    HW3 6707   4.245   2.003   2.732
 1669SOL    MW4 6708   4.180   2.057   2.749
 1670SOL     OW 6709   4.194   2.320   2.664
 1670SOL    HW2 6710   4.130   2.385   2.691
 1670SOL    HW3 6711   4.208   2.336   2.571
 1670SOL    MW4 6712   4.187   2.331   2.655
 1671SOL     OW 6713   3.995   2.496   2.749
 1671SOL    HW2 6714   4.011   2.468   2.840
 1671SOL    HW3 6715   3.922   2.441   2.720
 1671SOL    MW4 6716   3.987   2.485   2.757
 1672SOL     OW 6717   3.982   2.752   2.678
 1672SOL    HW2 6718   4.070   2.787   2.692
 1672SOL    HW3 6719   3.985   2.663   2.713
 1672SOL    MW4 6720   3.994   2.745   2.684
 1673SOL     OW 6721   4.230   2.858   2.767
 1673SOL    HW2 6722   4.237   2.853   2.862
 1673SOL    HW3 6723   4.240   2.951   2.747
 1673SOL    MW4 6724   4.232   2.870   2.777
 1674SOL     OW 6725   4.248   3.117   2.709
 1674SOL    HW2 6726   4.164   3.157   2.735
 1674SOL    HW3 6727   4.247   3.118   2.614
 1674SOL    MW4 6728   4.237   3.123   2.700
 1675SOL     OW 6729   4.002   3.219   2.765
 1675SOL    HW2 6730   4.010   3.312   2.745
 1675SOL    HW3 6731   3.934   3.188   2.705
 1675SOL    MW4 6732   3.994   3.227   2.754
 1676SOL     OW 6733   4.027   3.477   2.703
 1676SOL    HW2 6734   4.092   3.540   2.735
 1676SOL    HW3 6735   4.030   3.486   2.608
 1676SOL    MW4 6736   4.036   3.487   2.695
 1677SOL     OW 6737   4.256   3.601   2.784
 1677SOL    HW2 6738   4.276   3.598   2.878
 1677SOL    HW3 6739   4.319   3.542   2.744
 1677SOL    MW4 6740   4.267   3.593   2.791
 1678SOL     OW 6741   4.278   3.859   2.670
 1678SOL    HW2 6742   4.268   3.777   2.718
 1678SOL    HW3 6743   4.350   3.905   2.713
 1678SOL    MW4 6744   4.286   3.854   2.682
 1679SOL     OW 6745   4.046   3.987   2.736
 1679SOL    HW2 6746   4.042   3.973   2.831
 1679SOL    HW3 6747   4.122   3.936   2.708
 1679SOL    MW4 6748   4.056   3.978   2.745
 1680SOL     OW 6749   4.035   4.241   2.654
 1680SOL    HW2 6750   4.029   4.151   2.684
 1680SOL    HW3 6751   4.020   4.236   2.559
 1680SOL    MW4 6752   4.033   4.229   2.645
 1681SOL     OW 6753   4.234   4.417   2.715
 1681SOL    HW2 6754   4.159   4.366   2.684
 1681SOL    HW3 6755   4.220   4.505   2.681
 1681SOL    MW4 6756   4.222   4.422   2.706
 1682SOL     OW 6757   0.178   4.636   3.144
 1682SOL    HW2 6758   0.173   4.643   3.239
 1682SOL    HW3 6759   0.111   4.695   3.111
 1682SOL    MW4 6760   0.169   4.645   3.152
 1683SOL     OW 6761   4.455   0.112   3.040
 1683SOL    HW2 6762   4.374   0.072   3.071
 1683SOL    HW3 6763   4.458   0.197   3.084
 1683SOL    MW4 6764   4.444   0.118   3.050
 1684SOL     OW 6765   4.483   0.366   3.145
 1684SOL    HW2 6766   4.483   0.372   3.240
 1684SOL    HW3 6767   4.411   0.423   3.118
 1684SOL    MW4 6768   4.473   0.374   3.154
 1685SOL     OW 6769   0.200   0.510   3.047
 1685SOL    HW2 6770   0.279   0.464   3.078
 1685SOL    HW3 6771   0.127   0.460   3.083
 1685SOL    MW4 6772   0.201   0.497   3.056
 1686SOL     OW 6773   0.208   0.769   3.117
 1686SOL    HW2 6774   0.220   0.752   3.210
 1686SOL    HW3 6775   0.224   0.685   3.075
 1686SOL    MW4 6776   0.212   0.756   3.124
 1687SOL     OW 6777   4.453   0.889   3.075
 1687SOL    HW2 6778   4.531   0.850   3.116
 1687SOL    HW3 6779   4.469   0.883   2.981
 1687SOL    MW4 6780   4.465   0.883   3.068
 1688SOL     OW 6781   4.474   1.174   3.124
 1688SOL    HW2 6782   4.401   1.219   3.080
 1688SOL    HW3 6783   4.464   1.082   3.099
 1688SOL    MW4 6784   4.463   1.168   3.115
 1689SOL     OW 6785   0.213   1.296   3.050
 1689SOL    HW2 6786   0.142   1.238   3.079
 1689SOL    HW3 6787   0.204   1.300   2.955
 1689SOL    MW4 6788   0.202   1.289   3.041
 1690SOL     OW 6789   0.156   1.548   3.165
 1690SOL    HW2 6790   0.077   1.578   3.119
 1690SOL    HW3 6791   0.176   1.464   3.124
 1690SOL    MW4 6792   0.148   1.541   3.154
 1691SOL     OW 6793   4.426   1.703   3.038
 1691SOL    HW2 6794   4.360   1.657   3.090
 1691SOL    HW3 6795   4.451   1.778   3.091
 1691SOL    MW4 6796   4.421   1.707   3.052
 1692SOL     OW 6797   4.482   1.939   3.180
 1692SOL    HW2 6798   4.397   1.953   3.139
 1692SOL    HW3 6799   4.542   1.998   3.134
 1692SOL    MW4 6800   4.479   1.949   3.169
 1693SOL     OW 6801   0.205   2.091   3.033
 1693SOL    HW2 6802   0.209   2.185   3.049
 1693SOL    HW3 6803   0.187   2.083   2.940
 1693SOL    MW4 6804   0.203   2.102   3.023
 1694SOL     OW 6805   0.207   2.339   3.121
 1694SOL    HW2 6806   0.219   2.290   3.202
 1694SOL    HW3 6807   0.288   2.388   3.110
 1694SOL    MW4 6808   0.219   2.339   3.131
 1695SOL     OW 6809   4.457   2.418   2.999
 1695SOL    HW2 6810   4.445   2.507   3.032
 1695SOL    HW3 6811   4.535   2.385   3.045
 1695SOL    MW4 6812   4.466   2.425   3.010
 1696SOL     OW 6813   4.450   2.669   3.130
 1696SOL    HW2 6814   4.447   2.647   3.223
 1696SOL    HW3 6815   4.524   2.730   3.122
 1696SOL    MW4 6816   4.460   2.674   3.141
 1697SOL     OW 6817   0.184   2.853   3.073
 1697SOL    HW2 6818   0.256   2.818   3.125
 1697SOL    HW3 6819   0.211   2.837   2.982
 1697SOL    MW4 6820   0.197   2.846   3.068
 1698SOL     OW 6821   0.186   3.099   3.162
 1698SOL    HW2 6822   0.114   3.143   3.117
 1698SOL    HW3 6823   0.179   3.008   3.134
 1698SOL    MW4 6824   0.176   3.093   3.152
 1699SOL     OW 6825   4.458   3.206   3.060
 1699SOL    HW2 6826   4.375   3.169   3.090
 1699SOL    HW3 6827   4.461   3.187   2.967
 1699SOL    MW4 6828   4.447   3.199   3.052
 1700SOL     OW 6829   0.002   3.475   3.179
 1700SOL    HW2 6830  -0.075   3.526   3.154
 1700SOL    HW3 6831  -0.006   3.393   3.130
 1700SOL    MW4 6832  -0.009   3.471   3.170
 1701SOL     OW 6833   0.229   3.595   3.037
 1701SOL    HW2 6834   0.221   3.688   3.060
 1701SOL    HW3 6835   0.160   3.552   3.088
 1701SOL    MW4 6836   0.219   3.602   3.047
 1702SOL     OW 6837   0.215   3.865   3.111
 1702SOL    HW2 6838   0.233   3.861   3.205
 1702SOL    HW3 6839   0.294   3.904   3.073
 1702SOL    MW4 6840   0.228   3.869   3.118
 1703SOL     OW 6841   4.483   4.002   3.055
 1703SOL    HW2 6842   4.562   3.950   3.072
 1703SOL    HW3 6843   4.476   4.006   2.960
 1703SOL    MW4 6844   4.493   3.996   3.045
 1704SOL     OW 6845   4.486   4.282   3.082
 1704SOL    HW2 6846   4.495   4.288   3.177
 1704SOL    HW3 6847   4.488   4.188   3.064
 1704SOL    MW4 6848   4.487   4.270   3.092
 1705SOL     OW 6849   0.249   4.400   3.066
 1705SOL    HW2 6850   0.168   4.355   3.091
 1705SOL    HW3 6851   0.234   4.492   3.090
 1705SOL    MW4 6852   0.237   4.406   3.073
 1706SOL     OW 6853   0.685   4.621   3.158
 1706SOL    HW2 6854   0.671   4.543   3.104
 1706SOL    HW3 6855   0.603   4.670   3.150
 1706SOL    MW4 6856   0.672   4.617   3.150
 1707SOL     OW 6857   0.439   0.079   3.093
 1707SOL    HW2 6858   0.409   0.170   3.099
 1707SOL    HW3 6859   0.367   0.027   3.127
 1707SOL    MW4 6860   0.426   0.084   3.098
 1708SOL     OW 6861   0.425   0.360   3.142
 1708SOL    HW2 6862   0.437   0.381   3.234
 1708SOL    HW3 6863   0.503   0.397   3.099
 1708SOL    MW4 6864   0.437   0.368   3.148
 1709SOL     OW 6865   0.642   0.468   2.980
 1709SOL    HW2 6866   0.724   0.433   3.013
 1709SOL    HW3 6867   0.633   0.553   3.021
 1709SOL    MW4 6868   0.651   0.474   2.990
 1710SOL     OW 6869   0.630   0.720   3.139
 1710SOL    HW2 6870   0.649   0.731   3.232
 1710SOL    HW3 6871   0.547   0.765   3.126
 1710SOL    MW4 6872   0.621   0.727   3.149
 1711SOL     OW 6873   0.434   0.887   3.028
 1711SOL    HW2 6874   0.350   0.853   3.060
 1711SOL    HW3 6875   0.418   0.908   2.936
 1711SOL    MW4 6876   0.421   0.885   3.020
 1712SOL     OW 6877   0.418   1.141   3.148
 1712SOL    HW2 6878   0.408   1.054   3.110
 1712SOL    HW3 6879   0.345   1.192   3.111
 1712SOL    MW4 6880   0.407   1.136   3.138
 1713SOL     OW 6881   0.649   1.240   3.008
 1713SOL    HW2 6882   0.716   1.204   3.066
 1713SOL    HW3 6883   0.566   1.211   3.046
 1713SOL    MW4 6884   0.647   1.232   3.020
 1714SOL     OW 6885   0.630   1.517   3.102
 1714SOL    HW2 6886   0.648   1.508   3.196
 1714SOL    HW3 6887   0.639   1.428   3.068
 1714SOL    MW4 6888   0.633   1.504   3.110
 1715SOL     OW 6889   0.402   1.653   3.034
 1715SOL    HW2 6890   0.472   1.600   3.071
 1715SOL    HW3 6891   0.323   1.623   3.080
 1715SOL    MW4 6892   0.400   1.642   3.045
 1716SOL     OW 6893   0.444   1.921   3.120
 1716SOL    HW2 6894   0.436   1.837   3.075
 1716SOL    HW3 6895   0.357   1.960   3.114
 1716SOL    MW4 6896   0.432   1.916   3.113
 1717SOL     OW 6897   0.663   2.078   2.994
 1717SOL    HW2 6898   0.743   2.040   3.031
 1717SOL    HW3 6899   0.592   2.022   3.026
 1717SOL    MW4 6900   0.664   2.066   3.003
 1718SOL     OW 6901   0.654   2.344   3.138
 1718SOL    HW2 6902   0.666   2.341   3.233
 1718SOL    HW3 6903   0.641   2.253   3.112
 1718SOL    MW4 6904   0.654   2.332   3.147
 1719SOL     OW 6905   0.417   2.494   3.038
 1719SOL    HW2 6906   0.496   2.446   3.061
 1719SOL    HW3 6907   0.415   2.492   2.942
 1719SOL    MW4 6908   0.427   2.487   3.028
 1720SOL     OW 6909   0.400   2.720   3.176
 1720SOL    HW2 6910   0.482   2.762   3.150
 1720SOL    HW3 6911   0.401   2.635   3.131
 1720SOL    MW4 6912   0.411   2.714   3.167
 1721SOL     OW 6913   0.663   2.824   3.069
 1721SOL    HW2 6914   0.748   2.801   3.107
 1721SOL    HW3 6915   0.656   2.919   3.081
 1721SOL    MW4 6916   0.673   2.834   3.075
 1722SOL     OW 6917   0.665   3.112   3.115
 1722SOL    HW2 6918   0.655   3.099   3.209
 1722SOL    HW3 6919   0.580   3.144   3.086
 1722SOL    MW4 6920   0.653   3.115   3.123
 1723SOL     OW 6921   0.411   3.206   3.049
 1723SOL    HW2 6922   0.430   3.291   3.090
 1723SOL    HW3 6923   0.332   3.175   3.095
 1723SOL    MW4 6924   0.403   3.213   3.061
 1724SOL     OW 6925   0.464   3.476   3.110
 1724SOL    HW2 6926   0.454   3.471   3.205
 1724SOL    HW3 6927   0.385   3.520   3.080
 1724SOL    MW4 6928   0.452   3.482   3.119
 1725SOL     OW 6929   0.693   3.595   3.010
 1725SOL    HW2 6930   0.774   3.565   3.054
 1725SOL    HW3 6931   0.625   3.537   3.044
 1725SOL    MW4 6932   0.695   3.583   3.021
 1726SOL     OW 6933   0.673   3.851   3.124
 1726SOL    HW2 6934   0.666   3.834   3.218
 1726SOL    HW3 6935   0.658   3.765   3.084
 1726SOL    MW4 6936   0.670   3.837   3.131
 1727SOL     OW 6937   0.448   3.983   3.022
 1727SOL    HW2 6938   0.529   3.938   3.046
 1727SOL    HW3 6939   0.448   3.981   2.926
 1727SOL    MW4 6940   0.459   3.977   3.013
 1728SOL     OW 6941   0.461   4.235   3.139
 1728SOL    HW2 6942   0.458   4.147   3.102
 1728SOL    HW3 6943   0.383   4.278   3.104
 1728SOL    MW4 6944   0.450   4.229   3.130
 1729SOL     OW 6945   0.666   4.384   3.039
 1729SOL    HW2 6946   0.583   4.343   3.063
 1729SOL    HW3 6947   0.664   4.390   2.944
 1729SOL    MW4 6948   0.655   4.380   3.030
 1730SOL     OW 6949   1.135   0.003   3.164
 1730SOL    HW2 6950   1.212   0.046   3.128
 1730SOL    HW3 6951   1.062   0.031   3.107
 1730SOL    MW4 6952   1.135   0.012   3.152
 1731SOL     OW 6953   0.904   0.088   3.036
 1731SOL    HW2 6954   0.890   0.176   3.072
 1731SOL    HW3 6955   0.835   0.035   3.076
 1731SOL    MW4 6956   0.893   0.093   3.046
 1732SOL     OW 6957   0.884   0.366   3.116
 1732SOL    HW2 6958   0.880   0.371   3.212
 1732SOL    HW3 6959   0.967   0.407   3.094
 1732SOL    MW4 6960   0.894   0.372   3.126
 1733SOL     OW 6961   1.127   0.500   3.061
 1733SOL    HW2 6962   1.203   0.448   3.088
 1733SOL    HW3 6963   1.134   0.506   2.966
 1733SOL    MW4 6964   1.138   0.494   3.052
 1734SOL     OW 6965   1.069   0.780   3.155
 1734SOL    HW2 6966   1.066   0.769   3.250
 1734SOL    HW3 6967   1.075   0.691   3.120
 1734SOL    MW4 6968   1.069   0.767   3.163
 1735SOL     OW 6969   0.837   0.878   3.044
 1735SOL    HW2 6970   0.920   0.858   3.087
 1735SOL    HW3 6971   0.774   0.818   3.083
 1735SOL    MW4 6972   0.840   0.868   3.055
 1736SOL     OW 6973   0.833   1.132   3.189
 1736SOL    HW2 6974   0.910   1.173   3.149
 1736SOL    HW3 6975   0.830   1.044   3.151
 1736SOL    MW4 6976   0.843   1.126   3.179
 1737SOL     OW 6977   1.048   1.264   3.064
 1737SOL    HW2 6978   1.133   1.226   3.087
 1737SOL    HW3 6979   1.042   1.254   2.969
 1737SOL    MW4 6980   1.058   1.257   3.055
 1738SOL     OW 6981   1.028   1.549   3.134
 1738SOL    HW2 6982   1.115   1.582   3.109
 1738SOL    HW3 6983   1.030   1.456   3.112
 1738SOL    MW4 6984   1.040   1.541   3.128
 1739SOL     OW 6985   0.832   1.680   2.991
 1739SOL    HW2 6986   0.914   1.641   3.022
 1739SOL    HW3 6987   0.764   1.634   3.040
 1739SOL    MW4 6988   0.834   1.668   3.001
 1740SOL     OW 6989   0.881   1.937   3.085
 1740SOL    HW2 6990   0.902   1.919   3.177
 1740SOL    HW3 6991   0.856   1.852   3.049
 1740SOL    MW4 6992   0.880   1.923   3.093
 1741SOL     OW 6993   1.098   2.073   2.992
 1741SOL    HW2 6994   1.024   2.028   3.032
 1741SOL    HW3 6995   1.095   2.046   2.900
 1741SOL    MW4 6996   1.088   2.063   2.985
 1742SOL     OW 6997   1.115   2.339   3.112
 1742SOL    HW2 6998   1.026   2.371   3.098
 1742SOL    HW3 6999   1.116   2.252   3.074
 1742SOL    MW4 7000   1.103   2.332   3.105
 1743SOL     OW 7001   0.871   2.463   3.038
 1743SOL    HW2 7002   0.792   2.424   3.074
 1743SOL    HW3 7003   0.872   2.434   2.946
 1743SOL    MW4 7004   0.861   2.454   3.030
 1744SOL     OW 7005   0.911   2.709   3.140
 1744SOL    HW2 7006   0.911   2.689   3.233
 1744SOL    HW3 7007   0.884   2.627   3.098
 1744SOL    MW4 7008   0.907   2.696   3.147
 1745SOL     OW 7009   1.103   2.817   2.990
 1745SOL    HW2 7010   1.106   2.905   3.028
 1745SOL    HW3 7011   1.048   2.767   3.050
 1745SOL    MW4 7012   1.096   2.822   3.003
 1746SOL     OW 7013   1.132   3.073   3.151
 1746SOL    HW2 7014   1.208   3.123   3.121
 1746SOL    HW3 7015   1.056   3.121   3.117
 1746SOL    MW4 7016   1.132   3.086   3.143
 1747SOL     OW 7017   0.895   3.220   3.053
 1747SOL    HW2 7018   0.810   3.182   3.077
 1747SOL    HW3 7019   0.897   3.216   2.957
 1747SOL    MW4 7020   0.884   3.215   3.044
 1748SOL     OW 7021   0.896   3.467   3.154
 1748SOL    HW2 7022   0.966   3.523   3.118
 1748SOL    HW3 7023   0.906   3.384   3.108
 1748SOL    MW4 7024   0.907   3.464   3.143
 1749SOL     OW 7025   1.083   3.623   3.028
 1749SOL    HW2 7026   1.147   3.563   3.065
 1749SOL    HW3 7027   1.105   3.709   3.065
 1749SOL    MW4 7028   1.094   3.627   3.038
 1750SOL     OW 7029   1.148   3.870   3.141
 1750SOL    HW2 7030   1.152   3.870   3.236
 1750SOL    HW3 7031   1.056   3.887   3.121
 1750SOL    MW4 7032   1.136   3.872   3.151
 1751SOL     OW 7033   0.909   3.960   3.041
 1751SOL    HW2 7034   0.827   3.921   3.071
 1751SOL    HW3 7035   0.903   3.961   2.946
 1751SOL    MW4 7036   0.897   3.955   3.033
 1752SOL     OW 7037   0.919   4.251   3.080
 1752SOL    HW2 7038   0.909   4.164   3.041
 1752SOL    HW3 7039   0.834   4.293   3.066
 1752SOL    MW4 7040   0.907   4.245   3.073
 1753SOL     OW 7041   1.127   4.406   3.026
 1753SOL    HW2 7042   1.051   4.355   3.052
 1753SOL    HW3 7043   1.126   4.481   3.085
 1753SOL    MW4 7044   1.117   4.409   3.037
 1754SOL     OW 7045   1.581   4.632   3.111
 1754SOL    HW2 7046   1.572   4.632   3.206
 1754SOL    HW3 7047   1.510   4.690   3.081
 1754SOL    MW4 7048   1.570   4.640   3.119
 1755SOL     OW 7049   1.373   0.122   3.031
 1755SOL    HW2 7050   1.366   0.215   3.053
 1755SOL    HW3 7051   1.352   0.118   2.938
 1755SOL    MW4 7052   1.369   0.134   3.022
 1756SOL     OW 7053   1.361   0.355   3.165
 1756SOL    HW2 7054   1.361   0.360   3.261
 1756SOL    HW3 7055   1.442   0.399   3.139
 1756SOL    MW4 7056   1.372   0.362   3.175
 1757SOL     OW 7057   1.591   0.482   3.061
 1757SOL    HW2 7058   1.588   0.572   3.092
 1757SOL    HW3 7059   1.581   0.490   2.966
 1757SOL    MW4 7060   1.590   0.495   3.052
 1758SOL     OW 7061   1.560   0.759   3.132
 1758SOL    HW2 7062   1.529   0.748   3.222
 1758SOL    HW3 7063   1.494   0.814   3.090
 1758SOL    MW4 7064   1.547   0.765   3.138
 1759SOL     OW 7065   1.320   0.889   3.052
 1759SOL    HW2 7066   1.311   0.980   3.080
 1759SOL    HW3 7067   1.251   0.843   3.099
 1759SOL    MW4 7068   1.310   0.895   3.062
 1760SOL     OW 7069   1.297   1.147   3.147
 1760SOL    HW2 7070   1.314   1.148   3.241
 1760SOL    HW3 7071   1.367   1.201   3.109
 1760SOL    MW4 7072   1.309   1.154   3.154
 1761SOL     OW 7073   1.542   1.281   3.019
 1761SOL    HW2 7074   1.615   1.247   3.071
 1761SOL    HW3 7075   1.529   1.370   3.052
 1761SOL    MW4 7076   1.550   1.288   3.030
 1762SOL     OW 7077   1.513   1.530   3.095
 1762SOL    HW2 7078   1.582   1.595   3.083
 1762SOL    HW3 7079   1.433   1.573   3.066
 1762SOL    MW4 7080   1.512   1.544   3.090
 1763SOL     OW 7081   1.264   1.651   3.040
 1763SOL    HW2 7082   1.278   1.743   3.064
 1763SOL    HW3 7083   1.280   1.648   2.945
 1763SOL    MW4 7084   1.268   1.663   3.030
 1764SOL     OW 7085   1.313   1.921   3.110
 1764SOL    HW2 7086   1.323   1.918   3.205
 1764SOL    HW3 7087   1.244   1.985   3.095
 1764SOL    MW4 7088   1.305   1.929   3.121
 1765SOL     OW 7089   1.519   2.074   3.034
 1765SOL    HW2 7090   1.444   2.024   3.065
 1765SOL    HW3 7091   1.523   2.055   2.940
 1765SOL    MW4 7092   1.509   2.065   3.026
 1766SOL     OW 7093   1.564   2.339   3.135
 1766SOL    HW2 7094   1.488   2.377   3.092
 1766SOL    HW3 7095   1.557   2.245   3.120
 1766SOL    MW4 7096   1.553   2.332   3.127
 1767SOL     OW 7097   1.361   2.452   3.005
 1767SOL    HW2 7098   1.282   2.428   3.053
 1767SOL    HW3 7099   1.337   2.445   2.913
 1767SOL    MW4 7100   1.348   2.448   3.000
 1768SOL     OW 7101   1.325   2.695   3.147
 1768SOL    HW2 7102   1.344   2.614   3.100
 1768SOL    HW3 7103   1.259   2.739   3.093
 1768SOL    MW4 7104   1.318   2.690   3.134
 1769SOL     OW 7105   1.552   2.876   3.054
 1769SOL    HW2 7106   1.621   2.817   3.084
 1769SOL    HW3 7107   1.471   2.838   3.089
 1769SOL    MW4 7108   1.550   2.863   3.063
 1770SOL     OW 7109   1.592   3.135   3.136
 1770SOL    HW2 7110   1.593   3.142   3.232
 1770SOL    HW3 7111   1.586   3.041   3.119
 1770SOL    MW4 7112   1.591   3.123   3.147
 1771SOL     OW 7113   1.361   3.238   3.044
 1771SOL    HW2 7114   1.440   3.204   3.087
 1771SOL    HW3 7115   1.380   3.230   2.950
 1771SOL    MW4 7116   1.374   3.232   3.037
 1772SOL     OW 7117   1.319   3.496   3.137
 1772SOL    HW2 7118   1.332   3.477   3.230
 1772SOL    HW3 7119   1.338   3.413   3.093
 1772SOL    MW4 7120   1.323   3.482   3.144
 1773SOL     OW 7121   1.540   3.644   3.052
 1773SOL    HW2 7122   1.460   3.599   3.079
 1773SOL    HW3 7123   1.547   3.625   2.958
 1773SOL    MW4 7124   1.531   3.636   3.043
 1774SOL     OW 7125   1.555   3.900   3.162
 1774SOL    HW2 7126   1.638   3.934   3.128
 1774SOL    HW3 7127   1.550   3.811   3.127
 1774SOL    MW4 7128   1.566   3.893   3.153
 1775SOL     OW 7129   1.341   3.993   3.000
 1775SOL    HW2 7130   1.419   3.967   3.049
 1775SOL    HW3 7131   1.270   3.942   3.038
 1775SOL    MW4 7132   1.342   3.983   3.011
 1776SOL     OW 7133   1.333   4.246   3.134
 1776SOL    HW2 7134   1.321   4.168   3.080
 1776SOL    HW3 7135   1.256   4.300   3.116
 1776SOL    MW4 7136   1.321   4.243   3.125
 1777SOL     OW 7137   1.578   4.360   3.016
 1777SOL    HW2 7138   1.514   4.316   3.072
 1777SOL    HW3 7139   1.584   4.449   3.052
 1777SOL    MW4 7140   1.570   4.366   3.028
 1778SOL     OW 7141   2.064   4.645   3.155
 1778SOL    HW2 7142   2.056   4.650   3.250
 1778SOL    HW3 7143   1.994   4.702   3.122
 1778SOL    MW4 7144   2.053   4.653   3.163
 1779SOL     OW 7145   1.827   0.101   3.052
 1779SOL    HW2 7146   1.755   0.048   3.086
 1779SOL    HW3 7147   1.813   0.104   2.958
 1779SOL    MW4 7148   1.816   0.094   3.044
 1780SOL     OW 7149   1.818   0.362   3.185
 1780SOL    HW2 7150   1.826   0.271   3.155
 1780SOL    HW3 7151   1.744   0.397   3.135
 1780SOL    MW4 7152   1.809   0.355   3.174
 1781SOL     OW 7153   2.010   0.534   3.074
 1781SOL    HW2 7154   1.945   0.471   3.104
 1781SOL    HW3 7155   2.009   0.527   2.978
 1781SOL    MW4 7156   2.001   0.525   3.065
 1782SOL     OW 7157   2.023   0.798   3.174
 1782SOL    HW2 7158   1.934   0.831   3.159
 1782SOL    HW3 7159   2.018   0.705   3.156
 1782SOL    MW4 7160   2.011   0.790   3.170
 1783SOL     OW 7161   1.780   0.911   3.071
 1783SOL    HW2 7162   1.703   0.856   3.090
 1783SOL    HW3 7163   1.776   0.926   2.977
 1783SOL    MW4 7164   1.769   0.906   3.061
 1784SOL     OW 7165   1.764   1.175   3.155
 1784SOL    HW2 7166   1.770   1.174   3.250
 1784SOL    HW3 7167   1.771   1.084   3.129
 1784SOL    MW4 7168   1.765   1.163   3.164
 1785SOL     OW 7169   1.990   1.291   3.003
 1785SOL    HW2 7170   2.062   1.274   3.064
 1785SOL    HW3 7171   1.913   1.255   3.047
 1785SOL    MW4 7172   1.989   1.284   3.017
 1786SOL     OW 7173   1.992   1.558   3.141
 1786SOL    HW2 7174   1.999   1.557   3.237
 1786SOL    HW3 7175   1.966   1.470   3.118
 1786SOL    MW4 7176   1.990   1.546   3.151
 1787SOL     OW 7177   1.750   1.682   3.069
 1787SOL    HW2 7178   1.749   1.774   3.095
 1787SOL    HW3 7179   1.834   1.649   3.102
 1787SOL    MW4 7180   1.761   1.690   3.077
 1788SOL     OW 7181   1.765   1.948   3.100
 1788SOL    HW2 7182   1.842   1.990   3.062
 1788SOL    HW3 7183   1.693   2.007   3.077
 1788SOL    MW4 7184   1.766   1.961   3.092
 1789SOL     OW 7185   1.988   2.093   2.997
 1789SOL    HW2 7186   2.058   2.047   3.043
 1789SOL    HW3 7187   1.990   2.182   3.033
 1789SOL    MW4 7188   1.997   2.099   3.008
 1790SOL     OW 7189   1.958   2.343   3.114
 1790SOL    HW2 7190   2.040   2.381   3.082
 1790SOL    HW3 7191   1.891   2.405   3.087
 1790SOL    MW4 7192   1.960   2.356   3.106
 1791SOL     OW 7193   1.723   2.501   2.992
 1791SOL    HW2 7194   1.727   2.583   3.041
 1791SOL    HW3 7195   1.674   2.442   3.049
 1791SOL    MW4 7196   1.717   2.504   3.006
 1792SOL     OW 7197   1.784   2.727   3.135
 1792SOL    HW2 7198   1.783   2.736   3.230
 1792SOL    HW3 7199   1.872   2.755   3.109
 1792SOL    MW4 7200   1.795   2.732   3.144
 1793SOL     OW 7201   2.001   2.846   3.026
 1793SOL    HW2 7202   2.014   2.937   3.052
 1793SOL    HW3 7203   1.993   2.849   2.931
 1793SOL    MW4 7204   2.002   2.858   3.017
 1794SOL     OW 7205   2.034   3.105   3.124
 1794SOL    HW2 7206   2.018   3.094   3.218
 1794SOL    HW3 7207   1.953   3.143   3.090
 1794SOL    MW4 7208   2.021   3.108   3.132
 1795SOL     OW 7209   1.808   3.256   2.995
 1795SOL    HW2 7210   1.729   3.214   3.029
 1795SOL    HW3 7211   1.798   3.252   2.900
 1795SOL    MW4 7212   1.796   3.250   2.987
 1796SOL     OW 7213   1.792   3.515   3.112
 1796SOL    HW2 7214   1.802   3.430   3.069
 1796SOL    HW3 7215   1.708   3.548   3.081
 1796SOL    MW4 7216   1.782   3.508   3.103
 1797SOL     OW 7217   2.037   3.602   3.009
 1797SOL    HW2 7218   2.032   3.697   3.026
 1797SOL    HW3 7219   1.952   3.568   3.038
 1797SOL    MW4 7220   2.025   3.610   3.015
 1798SOL     OW 7221   2.008   3.877   3.113
 1798SOL    HW2 7222   1.997   3.876   3.208
 1798SOL    HW3 7223   1.926   3.912   3.079
 1798SOL    MW4 7224   1.996   3.882   3.121
 1799SOL     OW 7225   1.779   3.997   3.020
 1799SOL    HW2 7226   1.796   4.089   3.039
 1799SOL    HW3 7227   1.800   3.987   2.927
 1799SOL    MW4 7228   1.784   4.008   3.010
 1800SOL     OW 7229   1.815   4.253   3.132
 1800SOL    HW2 7230   1.890   4.303   3.099
 1800SOL    HW3 7231   1.740   4.291   3.086
 1800SOL    MW4 7232   1.815   4.265   3.122
 1801SOL     OW 7233   2.039   4.386   3.048
 1801SOL    HW2 7234   2.036   4.480   3.065
 1801SOL    HW3 7235   2.040   4.378   2.953
 1801SOL    MW4 7236   2.039   4.397   3.038
 1802SOL     OW 7237   2.503   0.010   3.146
 1802SOL    HW2 7238   2.503  -0.078   3.109
 1802SOL    HW3 7239   2.429   0.054   3.104
 1802SOL    MW4 7240   2.493   0.004   3.135
 1803SOL     OW 7241   2.283   0.116   3.031
 1803SOL    HW2 7242   2.273   0.201   3.074
 1803SOL    HW3 7243   2.215   0.061   3.070
 1803SOL    MW4 7244   2.272   0.120   3.042
 1804SOL     OW 7245   2.223   0.382   3.138
 1804SOL    HW2 7246   2.226   0.383   3.234
 1804SOL    HW3 7247   2.150   0.440   3.116
 1804SOL    MW4 7248   2.214   0.390   3.148
 1805SOL     OW 7249   2.484   0.490   3.040
 1805SOL    HW2 7250   2.403   0.458   3.080
 1805SOL    HW3 7251   2.469   0.482   2.946
 1805SOL    MW4 7252   2.471   0.485   3.033
 1806SOL     OW 7253   2.495   0.735   3.133
 1806SOL    HW2 7254   2.575   0.783   3.112
 1806SOL    HW3 7255   2.507   0.648   3.096
 1806SOL    MW4 7256   2.507   0.730   3.126
 1807SOL     OW 7257   2.250   0.875   3.025
 1807SOL    HW2 7258   2.328   0.835   3.063
 1807SOL    HW3 7259   2.179   0.852   3.084
 1807SOL    MW4 7260   2.251   0.867   3.038
 1808SOL     OW 7261   2.187   1.169   3.172
 1808SOL    HW2 7262   2.184   1.161   3.267
 1808SOL    HW3 7263   2.200   1.080   3.141
 1808SOL    MW4 7264   2.189   1.156   3.181
 1809SOL     OW 7265   2.422   1.306   3.076
 1809SOL    HW2 7266   2.350   1.258   3.118
 1809SOL    HW3 7267   2.406   1.294   2.982
 1809SOL    MW4 7268   2.410   1.298   3.069
 1810SOL     OW 7269   2.420   1.568   3.164
 1810SOL    HW2 7270   2.347   1.611   3.120
 1810SOL    HW3 7271   2.418   1.478   3.132
 1810SOL    MW4 7272   2.410   1.562   3.154
 1811SOL     OW 7273   2.203   1.699   3.040
 1811SOL    HW2 7274   2.118   1.658   3.057
 1811SOL    HW3 7275   2.209   1.703   2.945
 1811SOL    MW4 7276   2.193   1.694   3.030
 1812SOL     OW 7277   2.180   1.955   3.118
 1812SOL    HW2 7278   2.257   2.007   3.095
 1812SOL    HW3 7279   2.203   1.866   3.090
 1812SOL    MW4 7280   2.193   1.950   3.111
 1813SOL     OW 7281   2.439   2.064   3.002
 1813SOL    HW2 7282   2.505   1.998   3.022
 1813SOL    HW3 7283   2.443   2.076   2.907
 1813SOL    MW4 7284   2.448   2.057   2.992
 1814SOL     OW 7285   2.430   2.333   3.125
 1814SOL    HW2 7286   2.423   2.344   3.220
 1814SOL    HW3 7287   2.438   2.239   3.112
 1814SOL    MW4 7288   2.430   2.322   3.136
 1815SOL     OW 7289   2.203   2.447   3.021
 1815SOL    HW2 7290   2.216   2.535   3.056
 1815SOL    HW3 7291   2.280   2.397   3.051
 1815SOL    MW4 7292   2.215   2.452   3.030
 1816SOL     OW 7293   2.212   2.697   3.114
 1816SOL    HW2 7294   2.290   2.747   3.092
 1816SOL    HW3 7295   2.139   2.755   3.091
 1816SOL    MW4 7296   2.213   2.711   3.108
 1817SOL     OW 7297   2.449   2.826   3.053
 1817SOL    HW2 7298   2.446   2.919   3.078
 1817SOL    HW3 7299   2.455   2.827   2.957
 1817SOL    MW4 7300   2.449   2.839   3.043
 1818SOL     OW 7301   2.442   3.091   3.114
 1818SOL    HW2 7302   2.523   3.135   3.087
 1818SOL    HW3 7303   2.373   3.135   3.064
 1818SOL    MW4 7304   2.444   3.103   3.104
 1819SOL     OW 7305   2.245   3.224   2.993
 1819SOL    HW2 7306   2.262   3.313   3.024
 1819SOL    HW3 7307   2.173   3.192   3.048
 1819SOL    MW4 7308   2.238   3.232   3.004
 1820SOL     OW 7309   2.251   3.480   3.118
 1820SOL    HW2 7310   2.318   3.534   3.075
 1820SOL    HW3 7311   2.168   3.519   3.092
 1820SOL    MW4 7312   2.249   3.492   3.109
 1821SOL     OW 7313   2.461   3.630   3.000
 1821SOL    HW2 7314   2.522   3.584   3.058
 1821SOL    HW3 7315   2.446   3.714   3.043
 1821SOL    MW4 7316   2.467   3.635   3.013
 1822SOL     OW 7317   2.413   3.871   3.116
 1822SOL    HW2 7318   2.399   3.873   3.211
 1822SOL    HW3 7319   2.491   3.924   3.102
 1822SOL    MW4 7320   2.421   3.878   3.127
 1823SOL     OW 7321   2.215   4.012   3.005
 1823SOL    HW2 7322   2.285   3.964   3.049
 1823SOL    HW3 7323   2.134   3.971   3.037
 1823SOL    MW4 7324   2.214   4.000   3.015
 1824SOL     OW 7325   2.274   4.269   3.093
 1824SOL    HW2 7326   2.256   4.175   3.083
 1824SOL    HW3 7327   2.187   4.310   3.091
 1824SOL    MW4 7328   2.260   4.262   3.092
 1825SOL     OW 7329   2.483   4.424   3.053
 1825SOL    HW2 7330   2.408   4.370   3.080
 1825SOL    HW3 7331   2.482   4.420   2.957
 1825SOL    MW4 7332   2.473   4.417   3.044
 1826SOL     OW 7333   2.922   4.627   3.129
 1826SOL    HW2 7334   3.000   4.678   3.108
 1826SOL    HW3 7335   2.931   4.547   3.076
 1826SOL    MW4 7336   2.933   4.623   3.119
 1827SOL     OW 7337   2.729   0.109   2.999
 1827SOL    HW2 7338   2.808   0.059   3.018
 1827SOL    HW3 7339   2.661   0.067   3.050
 1827SOL    MW4 7340   2.730   0.097   3.008
 1828SOL     OW 7341   2.704   0.353   3.134
 1828SOL    HW2 7342   2.726   0.272   3.088
 1828SOL    HW3 7343   2.622   0.382   3.095
 1828SOL    MW4 7344   2.696   0.346   3.123
 1829SOL     OW 7345   2.908   0.499   3.015
 1829SOL    HW2 7346   2.831   0.454   3.048
 1829SOL    HW3 7347   2.904   0.488   2.920
 1829SOL    MW4 7348   2.897   0.492   3.007
 1830SOL     OW 7349   2.930   0.768   3.079
 1830SOL    HW2 7350   2.950   0.769   3.172
 1830SOL    HW3 7351   2.931   0.675   3.055
 1830SOL    MW4 7352   2.933   0.755   3.088
 1831SOL     OW 7353   2.694   0.886   3.020
 1831SOL    HW2 7354   2.708   0.971   3.060
 1831SOL    HW3 7355   2.776   0.838   3.034
 1831SOL    MW4 7356   2.706   0.891   3.027
 1832SOL     OW 7357   2.653   1.135   3.132
 1832SOL    HW2 7358   2.728   1.184   3.097
 1832SOL    HW3 7359   2.577   1.189   3.110
 1832SOL    MW4 7360   2.653   1.149   3.125
 1833SOL     OW 7361   2.880   1.265   3.032
 1833SOL    HW2 7362   2.967   1.235   3.060
 1833SOL    HW3 7363   2.881   1.359   3.050
 1833SOL    MW4 7364   2.892   1.274   3.038
 1834SOL     OW 7365   2.873   1.527   3.114
 1834SOL    HW2 7366   2.877   1.527   3.210
 1834SOL    HW3 7367   2.938   1.592   3.088
 1834SOL    MW4 7368   2.882   1.535   3.123
 1835SOL     OW 7369   2.638   1.622   3.012
 1835SOL    HW2 7370   2.710   1.591   3.067
 1835SOL    HW3 7371   2.559   1.604   3.063
 1835SOL    MW4 7372   2.637   1.616   3.026
 1836SOL     OW 7373   2.645   1.907   3.091
 1836SOL    HW2 7374   2.723   1.949   3.056
 1836SOL    HW3 7375   2.640   1.823   3.046
 1836SOL    MW4 7376   2.655   1.901   3.081
 1837SOL     OW 7377   2.874   2.047   3.003
 1837SOL    HW2 7378   2.873   2.138   3.032
 1837SOL    HW3 7379   2.884   2.052   2.908
 1837SOL    MW4 7380   2.875   2.060   2.994
 1838SOL     OW 7381   2.880   2.302   3.095
 1838SOL    HW2 7382   2.950   2.359   3.065
 1838SOL    HW3 7383   2.799   2.347   3.069
 1838SOL    MW4 7384   2.878   2.315   3.087
 1839SOL     OW 7385   2.649   2.447   3.008
 1839SOL    HW2 7386   2.640   2.520   3.070
 1839SOL    HW3 7387   2.577   2.388   3.030
 1839SOL    MW4 7388   2.638   2.449   3.019
 1840SOL     OW 7389   2.688   2.715   3.098
 1840SOL    HW2 7390   2.682   2.735   3.192
 1840SOL    HW3 7391   2.604   2.743   3.062
 1840SOL    MW4 7392   2.676   2.721   3.106
 1841SOL     OW 7393   2.918   2.844   3.037
 1841SOL    HW2 7394   2.990   2.789   3.069
 1841SOL    HW3 7395   2.841   2.809   3.081
 1841SOL    MW4 7396   2.918   2.832   3.047
 1842SOL     OW 7397   2.907   3.122   3.100
 1842SOL    HW2 7398   2.820   3.135   3.061
 1842SOL    HW3 7399   2.925   3.029   3.089
 1842SOL    MW4 7400   2.898   3.112   3.093
 1843SOL     OW 7401   2.659   3.208   3.016
 1843SOL    HW2 7402   2.654   3.300   3.043
 1843SOL    HW3 7403   2.658   3.212   2.920
 1843SOL    MW4 7404   2.658   3.221   3.007
 1844SOL     OW 7405   2.682   3.477   3.107
 1844SOL    HW2 7406   2.695   3.481   3.202
 1844SOL    HW3 7407   2.764   3.510   3.070
 1844SOL    MW4 7408   2.695   3.482   3.114
 1845SOL     OW 7409   2.917   3.590   3.031
 1845SOL    HW2 7410   2.990   3.572   3.090
 1845SOL    HW3 7411   2.896   3.682   3.047
 1845SOL    MW4 7412   2.924   3.600   3.041
 1846SOL     OW 7413   2.867   3.842   3.116
 1846SOL    HW2 7414   2.865   3.846   3.212
 1846SOL    HW3 7415   2.796   3.900   3.088
 1846SOL    MW4 7416   2.858   3.850   3.125
 1847SOL     OW 7417   2.651   3.998   3.053
 1847SOL    HW2 7418   2.670   4.088   3.081
 1847SOL    HW3 7419   2.649   4.003   2.957
 1847SOL    MW4 7420   2.653   4.011   3.044
 1848SOL     OW 7421   2.716   4.261   3.113
 1848SOL    HW2 7422   2.722   4.264   3.208
 1848SOL    HW3 7423   2.652   4.328   3.090
 1848SOL    MW4 7424   2.708   4.270   3.122
 1849SOL     OW 7425   2.950   4.386   2.997
 1849SOL    HW2 7426   3.029   4.345   3.033
 1849SOL    HW3 7427   2.878   4.333   3.030
 1849SOL    MW4 7428   2.951   4.374   3.006
 1850SOL     OW 7429   3.315   4.657   3.135
 1850SOL    HW2 7430   3.402   4.681   3.103
 1850SOL    HW3 7431   3.304   4.566   3.109
 1850SOL    MW4 7432   3.325   4.648   3.127
 1851SOL     OW 7433   3.109   0.124   3.010
 1851SOL    HW2 7434   3.123   0.210   3.049
 1851SOL    HW3 7435   3.179   0.070   3.044
 1851SOL    MW4 7436   3.120   0.128   3.020
 1852SOL     OW 7437   3.137   0.375   3.113
 1852SOL    HW2 7438   3.209   0.428   3.079
 1852SOL    HW3 7439   3.058   0.413   3.074
 1852SOL    MW4 7440   3.136   0.387   3.103
 1853SOL     OW 7441   3.353   0.511   3.006
 1853SOL    HW2 7442   3.427   0.454   3.024
 1853SOL    HW3 7443   3.359   0.529   2.912
 1853SOL    MW4 7444   3.363   0.506   2.996
 1854SOL     OW 7445   3.336   0.756   3.131
 1854SOL    HW2 7446   3.353   0.748   3.225
 1854SOL    HW3 7447   3.353   0.669   3.096
 1854SOL    MW4 7448   3.341   0.744   3.139
 1855SOL     OW 7449   3.153   0.897   2.991
 1855SOL    HW2 7450   3.223   0.850   3.035
 1855SOL    HW3 7451   3.072   0.859   3.026
 1855SOL    MW4 7452   3.151   0.886   3.001
 1856SOL     OW 7453   3.107   1.134   3.131
 1856SOL    HW2 7454   3.172   1.189   3.089
 1856SOL    HW3 7455   3.113   1.050   3.086
 1856SOL    MW4 7456   3.116   1.130   3.120
 1857SOL     OW 7457   3.306   1.278   3.015
 1857SOL    HW2 7458   3.387   1.228   3.027
 1857SOL    HW3 7459   3.321   1.359   3.064
 1857SOL    MW4 7460   3.319   1.282   3.023
 1858SOL     OW 7461   3.281   1.535   3.131
 1858SOL    HW2 7462   3.277   1.549   3.226
 1858SOL    HW3 7463   3.364   1.575   3.104
 1858SOL    MW4 7464   3.291   1.542   3.140
 1859SOL     OW 7465   3.073   1.689   3.023
 1859SOL    HW2 7466   3.150   1.645   3.059
 1859SOL    HW3 7467   3.093   1.699   2.930
 1859SOL    MW4 7468   3.086   1.685   3.015
 1860SOL     OW 7469   3.101   1.949   3.114
 1860SOL    HW2 7470   3.093   1.857   3.089
 1860SOL    HW3 7471   3.022   1.990   3.079
 1860SOL    MW4 7472   3.090   1.942   3.106
 1861SOL     OW 7473   3.368   2.064   3.001
 1861SOL    HW2 7474   3.440   2.011   3.035
 1861SOL    HW3 7475   3.289   2.021   3.035
 1861SOL    MW4 7476   3.367   2.051   3.010
 1862SOL     OW 7477   3.345   2.311   3.137
 1862SOL    HW2 7478   3.348   2.299   3.232
 1862SOL    HW3 7479   3.358   2.223   3.101
 1862SOL    MW4 7480   3.347   2.298   3.145
 1863SOL     OW 7481   3.117   2.422   3.016
 1863SOL    HW2 7482   3.204   2.390   3.039
 1863SOL    HW3 7483   3.119   2.434   2.922
 1863SOL    MW4 7484   3.129   2.420   3.007
 1864SOL     OW 7485   3.125   2.675   3.131
 1864SOL    HW2 7486   3.140   2.660   3.224
 1864SOL    HW3 7487   3.110   2.587   3.095
 1864SOL    MW4 7488   3.125   2.661   3.138
 1865SOL     OW 7489   3.329   2.800   3.015
 1865SOL    HW2 7490   3.359   2.876   3.066
 1865SOL    HW3 7491   3.257   2.764   3.067
 1865SOL    MW4 7492   3.323   2.806   3.028
 1866SOL     OW 7493   3.367   3.059   3.112
 1866SOL    HW2 7494   3.368   3.058   3.207
 1866SOL    HW3 7495   3.288   3.107   3.089
 1866SOL    MW4 7496   3.357   3.065   3.121
 1867SOL     OW 7497   3.149   3.227   3.032
 1867SOL    HW2 7498   3.067   3.184   3.056
 1867SOL    HW3 7499   3.149   3.229   2.937
 1867SOL    MW4 7500   3.138   3.222   3.023
 1868SOL     OW 7501   3.170   3.484   3.143
 1868SOL    HW2 7502   3.236   3.539   3.101
 1868SOL    HW3 7503   3.174   3.400   3.096
 1868SOL    MW4 7504   3.179   3.480   3.131
 1869SOL     OW 7505   3.359   3.635   2.996
 1869SOL    HW2 7506   3.427   3.588   3.044
 1869SOL    HW3 7507   3.365   3.725   3.026
 1869SOL    MW4 7508   3.369   3.641   3.006
 1870SOL     OW 7509   3.342   3.892   3.076
 1870SOL    HW2 7510   3.359   3.900   3.170
 1870SOL    HW3 7511   3.250   3.916   3.065
 1870SOL    MW4 7512   3.332   3.896   3.087
 1871SOL     OW 7513   3.074   3.998   3.018
 1871SOL    HW2 7514   2.996   3.946   3.035
 1871SOL    HW3 7515   3.087   3.992   2.923
 1871SOL    MW4 7516   3.066   3.991   3.008
 1872SOL     OW 7517   3.162   4.255   3.107
 1872SOL    HW2 7518   3.171   4.251   3.203
 1872SOL    HW3 7519   3.130   4.169   3.083
 1872SOL    MW4 7520   3.159   4.243   3.117
 1873SOL     OW 7521   3.370   4.394   3.028
 1873SOL    HW2 7522   3.448   4.369   3.076
 1873SOL    HW3 7523   3.303   4.330   3.055
 1873SOL    MW4 7524   3.371   4.382   3.038
 1874SOL     OW 7525   3.796   0.001   3.127
 1874SOL    HW2 7526   3.811  -0.082   3.082
 1874SOL    HW3 7527   3.710   0.030   3.096
 1874SOL    MW4 7528   3.787  -0.007   3.117
 1875SOL     OW 7529   3.553   0.094   3.019
 1875SOL    HW2 7530   3.552   0.189   3.032
 1875SOL    HW3 7531   3.596   0.082   2.935
 1875SOL    MW4 7532   3.558   0.105   3.010
 1876SOL     OW 7533   3.581   0.362   3.085
 1876SOL    HW2 7534   3.575   0.375   3.180
 1876SOL    HW3 7535   3.659   0.413   3.060
 1876SOL    MW4 7536   3.591   0.371   3.094
 1877SOL     OW 7537   3.802   0.500   3.008
 1877SOL    HW2 7538   3.886   0.458   3.029
 1877SOL    HW3 7539   3.810   0.588   3.046
 1877SOL    MW4 7540   3.814   0.506   3.016
 1878SOL     OW 7541   3.785   0.757   3.099
 1878SOL    HW2 7542   3.797   0.761   3.194
 1878SOL    HW3 7543   3.868   0.786   3.062
 1878SOL    MW4 7544   3.797   0.761   3.106
 1879SOL     OW 7545   3.547   0.873   2.998
 1879SOL    HW2 7546   3.627   0.834   3.033
 1879SOL    HW3 7547   3.476   0.834   3.049
 1879SOL    MW4 7548   3.548   0.863   3.009
 1880SOL     OW 7549   3.522   1.129   3.085
 1880SOL    HW2 7550   3.597   1.182   3.060
 1880SOL    HW3 7551   3.544   1.041   3.054
 1880SOL    MW4 7552   3.535   1.124   3.078
 1881SOL     OW 7553   3.762   1.268   3.003
 1881SOL    HW2 7554   3.776   1.359   3.031
 1881SOL    HW3 7555   3.774   1.270   2.908
 1881SOL    MW4 7556   3.765   1.281   2.994
 1882SOL     OW 7557   3.771   1.534   3.117
 1882SOL    HW2 7558   3.774   1.521   3.212
 1882SOL    HW3 7559   3.687   1.577   3.102
 1882SOL    MW4 7560   3.760   1.538   3.128
 1883SOL     OW 7561   3.523   1.650   3.054
 1883SOL    HW2 7562   3.540   1.741   3.080
 1883SOL    HW3 7563   3.546   1.647   2.961
 1883SOL    MW4 7564   3.528   1.662   3.045
 1884SOL     OW 7565   3.597   1.911   3.105
 1884SOL    HW2 7566   3.581   1.915   3.199
 1884SOL    HW3 7567   3.690   1.930   3.095
 1884SOL    MW4 7568   3.607   1.914   3.116
 1885SOL     OW 7569   3.843   2.037   3.007
 1885SOL    HW2 7570   3.838   2.132   3.017
 1885SOL    HW3 7571   3.837   2.022   2.913
 1885SOL    MW4 7572   3.842   2.047   2.996
 1886SOL     OW 7573   3.810   2.300   3.095
 1886SOL    HW2 7574   3.806   2.305   3.190
 1886SOL    HW3 7575   3.731   2.343   3.064
 1886SOL    MW4 7576   3.799   2.307   3.103
 1887SOL     OW 7577   3.578   2.428   3.011
 1887SOL    HW2 7578   3.593   2.511   3.056
 1887SOL    HW3 7579   3.515   2.382   3.067
 1887SOL    MW4 7580   3.571   2.433   3.025
 1888SOL     OW 7581   3.592   2.680   3.130
 1888SOL    HW2 7582   3.645   2.755   3.105
 1888SOL    HW3 7583   3.506   2.697   3.093
 1888SOL    MW4 7584   3.588   2.692   3.122
 1889SOL     OW 7585   3.758   2.867   3.044
 1889SOL    HW2 7586   3.758   2.957   3.075
 1889SOL    HW3 7587   3.761   2.875   2.948
 1889SOL    MW4 7588   3.759   2.880   3.035
 1890SOL     OW 7589   3.764   3.119   3.146
 1890SOL    HW2 7590   3.844   3.147   3.100
 1890SOL    HW3 7591   3.694   3.168   3.104
 1890SOL    MW4 7592   3.766   3.129   3.134
 1891SOL     OW 7593   3.547   3.253   3.027
 1891SOL    HW2 7594   3.477   3.188   3.035
 1891SOL    HW3 7595   3.567   3.256   2.934
 1891SOL    MW4 7596   3.540   3.245   3.016
 1892SOL     OW 7597   3.550   3.506   3.146
 1892SOL    HW2 7598   3.632   3.552   3.126
 1892SOL    HW3 7599   3.562   3.418   3.110
 1892SOL    MW4 7600   3.562   3.500   3.139
 1893SOL     OW 7601   3.790   3.584   3.060
 1893SOL    HW2 7602   3.804   3.676   3.083
 1893SOL    HW3 7603   3.781   3.585   2.964
 1893SOL    MW4 7604   3.791   3.596   3.050
 1894SOL     OW 7605   3.821   3.875   3.135
 1894SOL    HW2 7606   3.804   3.887   3.229
 1894SOL    HW3 7607   3.757   3.930   3.091
 1894SOL    MW4 7608   3.811   3.884   3.142
 1895SOL     OW 7609   3.603   3.998   2.998
 1895SOL    HW2 7610   3.517   3.961   3.022
 1895SOL    HW3 7611   3.601   4.004   2.903
 1895SOL    MW4 7612   3.591   3.994   2.989
 1896SOL     OW 7613   3.603   4.281   3.128
 1896SOL    HW2 7614   3.673   4.330   3.085
 1896SOL    HW3 7615   3.599   4.198   3.080
 1896SOL    MW4 7616   3.611   4.276   3.116
 1897SOL     OW 7617   3.830   4.417   3.021
 1897SOL    HW2 7618   3.890   4.344   3.038
 1897SOL    HW3 7619   3.823   4.420   2.926
 1897SOL    MW4 7620   3.837   4.407   3.011
 1898SOL     OW 7621   4.238   4.650   3.165
 1898SOL    HW2 7622   4.233   4.639   3.260
 1898SOL    HW3 7623   4.228   4.561   3.130
 1898SOL    MW4 7624   4.236   4.637   3.173
 1899SOL     OW 7625   4.030   0.094   3.014
 1899SOL    HW2 7626   4.106   0.059   3.060
 1899SOL    HW3 7627   3.955   0.059   3.060
 1899SOL    MW4 7628   4.031   0.085   3.026
 1900SOL     OW 7629   4.028   0.353   3.090
 1900SOL    HW2 7630   4.114   0.386   3.064
 1900SOL    HW3 7631   4.029   0.261   3.062
 1900SOL    MW4 7632   4.040   0.345   3.083
 1901SOL     OW 7633   4.273   0.473   3.031
 1901SOL    HW2 7634   4.268   0.547   3.090
 1901SOL    HW3 7635   4.273   0.511   2.943
 1901SOL    MW4 7636   4.273   0.488   3.027
 1902SOL     OW 7637   4.241   0.731   3.159
 1902SOL    HW2 7638   4.163   0.762   3.113
 1902SOL    HW3 7639   4.309   0.794   3.135
 1902SOL    MW4 7640   4.239   0.743   3.150
 1903SOL     OW 7641   4.029   0.852   3.022
 1903SOL    HW2 7642   4.023   0.945   3.045
 1903SOL    HW3 7643   4.032   0.851   2.926
 1903SOL    MW4 7644   4.029   0.864   3.012
 1904SOL     OW 7645   4.035   1.117   3.082
 1904SOL    HW2 7646   4.043   1.133   3.176
 1904SOL    HW3 7647   3.947   1.147   3.059
 1904SOL    MW4 7648   4.025   1.123   3.091
 1905SOL     OW 7649   4.245   1.294   3.013
 1905SOL    HW2 7650   4.165   1.246   3.038
 1905SOL    HW3 7651   4.251   1.283   2.918
 1905SOL    MW4 7652   4.235   1.286   3.004
 1906SOL     OW 7653   4.240   1.532   3.174
 1906SOL    HW2 7654   4.174   1.580   3.125
 1906SOL    HW3 7655   4.248   1.448   3.128
 1906SOL    MW4 7656   4.232   1.527   3.162
 1907SOL     OW 7657   4.016   1.661   3.081
 1907SOL    HW2 7658   4.009   1.754   3.102
 1907SOL    HW3 7659   3.929   1.626   3.102
 1907SOL    MW4 7660   4.003   1.669   3.087
 1908SOL     OW 7661   4.038   1.936   3.148
 1908SOL    HW2 7662   4.110   1.944   3.085
 1908SOL    HW3 7663   3.962   1.972   3.102
 1908SOL    MW4 7664   4.037   1.942   3.134
 1909SOL     OW 7665   4.275   2.017   3.030
 1909SOL    HW2 7666   4.252   2.102   3.069
 1909SOL    HW3 7667   4.242   2.022   2.940
 1909SOL    MW4 7668   4.267   2.029   3.024
 1910SOL     OW 7669   4.237   2.278   3.118
 1910SOL    HW2 7670   4.165   2.340   3.109
 1910SOL    HW3 7671   4.310   2.319   3.071
 1910SOL    MW4 7672   4.237   2.292   3.111
 1911SOL     OW 7673   4.025   2.447   3.032
 1911SOL    HW2 7674   4.008   2.541   3.042
 1911SOL    HW3 7675   3.943   2.405   3.057
 1911SOL    MW4 7676   4.012   2.454   3.037
 1912SOL     OW 7677   3.986   2.714   3.099
 1912SOL    HW2 7678   3.979   2.718   3.195
 1912SOL    HW3 7679   3.907   2.758   3.068
 1912SOL    MW4 7680   3.975   2.721   3.108
 1913SOL     OW 7681   4.232   2.833   3.027
 1913SOL    HW2 7682   4.153   2.796   3.067
 1913SOL    HW3 7683   4.304   2.780   3.062
 1913SOL    MW4 7684   4.231   2.821   3.037
 1914SOL     OW 7685   4.228   3.072   3.145
 1914SOL    HW2 7686   4.140   3.094   3.113
 1914SOL    HW3 7687   4.248   2.988   3.104
 1914SOL    MW4 7688   4.219   3.064   3.136
 1915SOL     OW 7689   4.009   3.195   3.032
 1915SOL    HW2 7690   4.017   3.279   3.078
 1915SOL    HW3 7691   4.013   3.218   2.940
 1915SOL    MW4 7692   4.011   3.209   3.026
 1916SOL     OW 7693   4.014   3.454   3.134
 1916SOL    HW2 7694   4.013   3.464   3.229
 1916SOL    HW3 7695   3.937   3.503   3.104
 1916SOL    MW4 7696   4.004   3.462   3.142
 1917SOL     OW 7697   4.273   3.572   3.056
 1917SOL    HW2 7698   4.267   3.667   3.071
 1917SOL    HW3 7699   4.184   3.540   3.071
 1917SOL    MW4 7700   4.260   3.580   3.060
 1918SOL     OW 7701   4.275   3.845   3.123
 1918SOL    HW2 7702   4.200   3.893   3.088
 1918SOL    HW3 7703   4.350   3.902   3.108
 1918SOL    MW4 7704   4.275   3.859   3.117
 1919SOL     OW 7705   4.036   3.969   3.007
 1919SOL    HW2 7706   4.050   4.058   3.040
 1919SOL    HW3 7707   3.953   3.942   3.047
 1919SOL    MW4 7708   4.027   3.977   3.017
 1920SOL     OW 7709   4.030   4.221   3.105
 1920SOL    HW2 7710   4.039   4.219   3.200
 1920SOL    HW3 7711   4.103   4.276   3.076
 1920SOL    MW4 7712   4.041   4.228   3.114
 1921SOL     OW 7713   4.240   4.425   3.017
 1921SOL    HW2 7714   4.324   4.388   3.044
 1921SOL    HW3 7715   4.242   4.421   2.922
 1921SOL    MW4 7716   4.252   4.420   3.008
 1922SOL     OW 7717   0.207   4.627   3.413
 1922SOL    HW2 7718   0.274   4.682   3.454
 1922SOL    HW3 7719   0.206   4.547   3.466
 1922SOL    MW4 7720   0.215   4.624   3.425
 1923SOL     OW 7721   4.487   0.096   3.527
 1923SOL    HW2 7722   4.470   0.183   3.490
 1923SOL    HW3 7723   4.566   0.066   3.483
 1923SOL    MW4 7724   4.495   0.104   3.516
 1924SOL     OW 7725   4.475   0.340   3.411
 1924SOL    HW2 7726   4.397   0.387   3.439
 1924SOL    HW3 7727   4.548   0.390   3.447
 1924SOL    MW4 7728   4.475   0.352   3.419
 1925SOL     OW 7729   0.212   0.458   3.508
 1925SOL    HW2 7730   0.300   0.433   3.477
 1925SOL    HW3 7731   0.195   0.543   3.468
 1925SOL    MW4 7732   0.222   0.466   3.499
 1926SOL     OW 7733   0.238   0.744   3.405
 1926SOL    HW2 7734   0.306   0.793   3.451
 1926SOL    HW3 7735   0.158   0.795   3.418
 1926SOL    MW4 7736   0.236   0.758   3.413
 1927SOL     OW 7737   4.481   0.913   3.502
 1927SOL    HW2 7738   4.494   0.918   3.597
 1927SOL    HW3 7739   4.476   1.004   3.473
 1927SOL    MW4 7740   4.482   0.926   3.511
 1928SOL     OW 7741   4.448   1.171   3.398
 1928SOL    HW2 7742   4.518   1.221   3.442
 1928SOL    HW3 7743   4.473   1.171   3.306
 1928SOL    MW4 7744   4.461   1.178   3.392
 1929SOL     OW 7745   0.209   1.254   3.535
 1929SOL    HW2 7746   0.285   1.210   3.497
 1929SOL    HW3 7747   0.219   1.346   3.510
 1929SOL    MW4 7748   0.220   1.260   3.526
 1930SOL     OW 7749   0.189   1.501   3.425
 1930SOL    HW2 7750   0.269   1.551   3.437
 1930SOL    HW3 7751   0.174   1.500   3.330
 1930SOL    MW4 7752   0.197   1.507   3.414
 1931SOL     OW 7753   4.474   1.646   3.560
 1931SOL    HW2 7754   4.393   1.624   3.514
 1931SOL    HW3 7755   4.543   1.601   3.512
 1931SOL    MW4 7756   4.472   1.637   3.548
 1932SOL     OW 7757   0.040   1.899   3.450
 1932SOL    HW2 7758   0.014   1.819   3.495
 1932SOL    HW3 7759   0.021   1.883   3.358
 1932SOL    MW4 7760   0.034   1.887   3.444
 1933SOL     OW 7761   0.264   2.025   3.542
 1933SOL    HW2 7762   0.257   2.044   3.636
 1933SOL    HW3 7763   0.186   1.973   3.523
 1933SOL    MW4 7764   0.253   2.021   3.552
 1934SOL     OW 7765   0.231   2.243   3.388
 1934SOL    HW2 7766   0.149   2.272   3.429
 1934SOL    HW3 7767   0.258   2.167   3.438
 1934SOL    MW4 7768   0.223   2.237   3.400
 1935SOL     OW 7769   0.017   2.375   3.530
 1935SOL    HW2 7770   0.010   2.377   3.626
 1935SOL    HW3 7771  -0.055   2.317   3.502
 1935SOL    MW4 7772   0.006   2.368   3.539
 1936SOL     OW 7773   0.000   2.627   3.396
 1936SOL    HW2 7774   0.076   2.670   3.436
 1936SOL    HW3 7775  -0.015   2.549   3.450
 1936SOL    MW4 7776   0.008   2.622   3.408
 1937SOL     OW 7777   0.189   2.788   3.536
 1937SOL    HW2 7778   0.278   2.752   3.529
 1937SOL    HW3 7779   0.196   2.878   3.505
 1937SOL    MW4 7780   0.202   2.795   3.531
 1938SOL     OW 7781   0.221   3.045   3.441
 1938SOL    HW2 7782   0.147   3.097   3.472
 1938SOL    HW3 7783   0.230   3.068   3.349
 1938SOL    MW4 7784   0.213   3.055   3.433
 1939SOL     OW 7785   4.481   3.196   3.526
 1939SOL    HW2 7786   4.408   3.162   3.475
 1939SOL    HW3 7787   4.488   3.288   3.501
 1939SOL    MW4 7788   4.472   3.203   3.516
 1940SOL     OW 7789   4.476   3.451   3.459
 1940SOL    HW2 7790   4.388   3.482   3.479
 1940SOL    HW3 7791   4.480   3.450   3.364
 1940SOL    MW4 7792   4.465   3.455   3.449
 1941SOL     OW 7793   0.206   3.608   3.492
 1941SOL    HW2 7794   0.238   3.612   3.582
 1941SOL    HW3 7795   0.125   3.557   3.497
 1941SOL    MW4 7796   0.199   3.602   3.504
 1942SOL     OW 7797   0.230   3.860   3.390
 1942SOL    HW2 7798   0.149   3.906   3.414
 1942SOL    HW3 7799   0.215   3.770   3.420
 1942SOL    MW4 7800   0.217   3.854   3.397
 1943SOL     OW 7801   4.463   3.997   3.439
 1943SOL    HW2 7802   4.475   4.011   3.533
 1943SOL    HW3 7803   4.478   4.083   3.400
 1943SOL    MW4 7804   4.467   4.010   3.446
 1944SOL     OW 7805   0.016   4.280   3.359
 1944SOL    HW2 7806  -0.066   4.318   3.390
 1944SOL    HW3 7807   0.078   4.294   3.430
 1944SOL    MW4 7808   0.013   4.286   3.372
 1945SOL     OW 7809   0.215   4.369   3.534
 1945SOL    HW2 7810   0.209   4.356   3.629
 1945SOL    HW3 7811   0.299   4.332   3.510
 1945SOL    MW4 7812   0.225   4.363   3.543
 1946SOL     OW 7813   0.661   0.014   3.438
 1946SOL    HW2 7814   0.746   0.054   3.456
 1946SOL    HW3 7815   0.669  -0.018   3.347
 1946SOL    MW4 7816   0.674   0.015   3.428
 1947SOL     OW 7817   0.422   0.122   3.514
 1947SOL    HW2 7818   0.437   0.116   3.609
 1947SOL    HW3 7819   0.501   0.085   3.475
 1947SOL    MW4 7820   0.435   0.116   3.522
 1948SOL     OW 7821   0.458   0.386   3.421
 1948SOL    HW2 7822   0.539   0.425   3.454
 1948SOL    HW3 7823   0.466   0.293   3.442
 1948SOL    MW4 7824   0.470   0.379   3.428
 1949SOL     OW 7825   0.685   0.507   3.526
 1949SOL    HW2 7826   0.686   0.503   3.622
 1949SOL    HW3 7827   0.766   0.464   3.500
 1949SOL    MW4 7828   0.696   0.501   3.535
 1950SOL     OW 7829   0.663   0.746   3.400
 1950SOL    HW2 7830   0.588   0.788   3.443
 1950SOL    HW3 7831   0.665   0.658   3.436
 1950SOL    MW4 7832   0.653   0.740   3.411
 1951SOL     OW 7833   0.447   0.883   3.526
 1951SOL    HW2 7834   0.453   0.867   3.620
 1951SOL    HW3 7835   0.432   0.977   3.518
 1951SOL    MW4 7836   0.446   0.893   3.537
 1952SOL     OW 7837   0.440   1.137   3.456
 1952SOL    HW2 7838   0.518   1.190   3.474
 1952SOL    HW3 7839   0.432   1.137   3.361
 1952SOL    MW4 7840   0.449   1.144   3.446
 1953SOL     OW 7841   0.665   1.293   3.532
 1953SOL    HW2 7842   0.743   1.242   3.511
 1953SOL    HW3 7843   0.669   1.369   3.473
 1953SOL    MW4 7844   0.676   1.296   3.521
 1954SOL     OW 7845   0.657   1.538   3.363
 1954SOL    HW2 7846   0.719   1.606   3.386
 1954SOL    HW3 7847   0.577   1.560   3.412
 1954SOL    MW4 7848   0.655   1.550   3.372
 1955SOL     OW 7849   0.431   1.631   3.509
 1955SOL    HW2 7850   0.433   1.643   3.604
 1955SOL    HW3 7851   0.446   1.719   3.474
 1955SOL    MW4 7852   0.434   1.644   3.517
 1956SOL     OW 7853   0.470   1.885   3.390
 1956SOL    HW2 7854   0.399   1.940   3.424
 1956SOL    HW3 7855   0.460   1.891   3.294
 1956SOL    MW4 7856   0.459   1.893   3.382
 1957SOL     OW 7857   0.691   2.049   3.463
 1957SOL    HW2 7858   0.705   2.047   3.558
 1957SOL    HW3 7859   0.624   1.983   3.447
 1957SOL    MW4 7860   0.684   2.040   3.474
 1958SOL     OW 7861   0.645   2.334   3.415
 1958SOL    HW2 7862   0.706   2.375   3.475
 1958SOL    HW3 7863   0.664   2.240   3.421
 1958SOL    MW4 7864   0.655   2.327   3.424
 1959SOL     OW 7865   0.393   2.449   3.510
 1959SOL    HW2 7866   0.472   2.409   3.473
 1959SOL    HW3 7867   0.322   2.391   3.484
 1959SOL    MW4 7868   0.394   2.436   3.501
 1960SOL     OW 7869   0.444   2.711   3.449
 1960SOL    HW2 7870   0.435   2.617   3.465
 1960SOL    HW3 7871   0.419   2.722   3.357
 1960SOL    MW4 7872   0.439   2.700   3.439
 1961SOL     OW 7873   0.682   2.840   3.505
 1961SOL    HW2 7874   0.752   2.778   3.486
 1961SOL    HW3 7875   0.602   2.793   3.482
 1961SOL    MW4 7876   0.680   2.826   3.499
 1962SOL     OW 7877   0.651   3.092   3.375
 1962SOL    HW2 7878   0.595   3.145   3.432
 1962SOL    HW3 7879   0.657   3.007   3.420
 1962SOL    MW4 7880   0.644   3.088   3.389
 1963SOL     OW 7881   0.433   3.212   3.529
 1963SOL    HW2 7882   0.438   3.210   3.625
 1963SOL    HW3 7883   0.361   3.153   3.507
 1963SOL    MW4 7884   0.424   3.204   3.539
 1964SOL     OW 7885   0.424   3.465   3.389
 1964SOL    HW2 7886   0.410   3.386   3.442
 1964SOL    HW3 7887   0.355   3.525   3.418
 1964SOL    MW4 7888   0.413   3.462   3.400
 1965SOL     OW 7889   0.636   3.571   3.511
 1965SOL    HW2 7890   0.717   3.531   3.480
 1965SOL    HW3 7891   0.566   3.523   3.467
 1965SOL    MW4 7892   0.638   3.559   3.501
 1966SOL     OW 7893   0.651   3.830   3.393
 1966SOL    HW2 7894   0.589   3.886   3.440
 1966SOL    HW3 7895   0.657   3.751   3.447
 1966SOL    MW4 7896   0.643   3.827   3.406
 1967SOL     OW 7897   0.445   3.994   3.529
 1967SOL    HW2 7898   0.441   4.081   3.488
 1967SOL    HW3 7899   0.368   3.948   3.495
 1967SOL    MW4 7900   0.434   4.000   3.519
 1968SOL     OW 7901   0.447   4.250   3.422
 1968SOL    HW2 7902   0.519   4.304   3.456
 1968SOL    HW3 7903   0.464   4.243   3.328
 1968SOL    MW4 7904   0.459   4.256   3.414
 1969SOL     OW 7905   0.660   4.406   3.518
 1969SOL    HW2 7906   0.734   4.360   3.477
 1969SOL    HW3 7907   0.661   4.493   3.479
 1969SOL    MW4 7908   0.670   4.411   3.508
 1970SOL     OW 7909   1.112   4.663   3.430
 1970SOL    HW2 7910   1.198   4.688   3.465
 1970SOL    HW3 7911   1.122   4.673   3.335
 1970SOL    MW4 7912   1.125   4.668   3.422
 1971SOL     OW 7913   0.899   0.137   3.510
 1971SOL    HW2 7914   0.895   0.126   3.605
 1971SOL    HW3 7915   0.967   0.077   3.481
 1971SOL    MW4 7916   0.907   0.128   3.519
 1972SOL     OW 7917   0.895   0.384   3.393
 1972SOL    HW2 7918   0.971   0.435   3.421
 1972SOL    HW3 7919   0.902   0.302   3.442
 1972SOL    MW4 7920   0.906   0.380   3.403
 1973SOL     OW 7921   1.134   0.503   3.497
 1973SOL    HW2 7922   1.107   0.500   3.588
 1973SOL    HW3 7923   1.130   0.595   3.472
 1973SOL    MW4 7924   1.130   0.514   3.505
 1974SOL     OW 7925   1.097   0.766   3.432
 1974SOL    HW2 7926   1.176   0.810   3.463
 1974SOL    HW3 7927   1.030   0.791   3.495
 1974SOL    MW4 7928   1.099   0.775   3.445
 1975SOL     OW 7929   0.847   0.861   3.577
 1975SOL    HW2 7930   0.859   0.951   3.547
 1975SOL    HW3 7931   0.772   0.829   3.527
 1975SOL    MW4 7932   0.839   0.869   3.566
 1976SOL     OW 7933   0.873   1.114   3.464
 1976SOL    HW2 7934   0.949   1.172   3.466
 1976SOL    HW3 7935   0.847   1.112   3.371
 1976SOL    MW4 7936   0.880   1.121   3.452
 1977SOL     OW 7937   1.088   1.275   3.497
 1977SOL    HW2 7938   1.113   1.271   3.590
 1977SOL    HW3 7939   1.066   1.367   3.482
 1977SOL    MW4 7940   1.089   1.287   3.507
 1978SOL     OW 7941   1.061   1.531   3.400
 1978SOL    HW2 7942   1.147   1.570   3.416
 1978SOL    HW3 7943   1.052   1.530   3.305
 1978SOL    MW4 7944   1.071   1.536   3.389
 1979SOL     OW 7945   0.837   1.704   3.464
 1979SOL    HW2 7946   0.855   1.793   3.435
 1979SOL    HW3 7947   0.915   1.654   3.439
 1979SOL    MW4 7948   0.850   1.709   3.457
 1980SOL     OW 7949   0.936   1.955   3.366
 1980SOL    HW2 7950   0.995   1.987   3.435
 1980SOL    HW3 7951   0.855   2.003   3.380
 1980SOL    MW4 7952   0.933   1.966   3.377
 1981SOL     OW 7953   1.124   2.055   3.555
 1981SOL    HW2 7954   1.183   2.002   3.501
 1981SOL    HW3 7955   1.106   2.132   3.501
 1981SOL    MW4 7956   1.130   2.058   3.541
 1982SOL     OW 7957   1.093   2.297   3.404
 1982SOL    HW2 7958   1.172   2.343   3.433
 1982SOL    HW3 7959   1.093   2.305   3.309
 1982SOL    MW4 7960   1.103   2.304   3.396
 1983SOL     OW 7961   0.868   2.408   3.550
 1983SOL    HW2 7962   0.888   2.394   3.642
 1983SOL    HW3 7963   0.940   2.365   3.503
 1983SOL    MW4 7964   0.880   2.400   3.556
 1984SOL     OW 7965   0.879   2.647   3.394
 1984SOL    HW2 7966   0.960   2.697   3.411
 1984SOL    HW3 7967   0.880   2.578   3.460
 1984SOL    MW4 7968   0.890   2.645   3.405
 1985SOL     OW 7969   1.102   2.787   3.476
 1985SOL    HW2 7970   1.100   2.799   3.570
 1985SOL    HW3 7971   1.186   2.743   3.458
 1985SOL    MW4 7972   1.113   2.783   3.486
 1986SOL     OW 7973   1.112   3.059   3.424
 1986SOL    HW2 7974   1.128   2.968   3.448
 1986SOL    HW3 7975   1.119   3.061   3.328
 1986SOL    MW4 7976   1.115   3.048   3.414
 1987SOL     OW 7977   0.892   3.188   3.503
 1987SOL    HW2 7978   0.970   3.143   3.469
 1987SOL    HW3 7979   0.821   3.155   3.449
 1987SOL    MW4 7980   0.893   3.178   3.491
 1988SOL     OW 7981   0.897   3.467   3.434
 1988SOL    HW2 7982   0.917   3.381   3.472
 1988SOL    HW3 7983   0.895   3.452   3.340
 1988SOL    MW4 7984   0.899   3.454   3.427
 1989SOL     OW 7985   1.122   3.601   3.509
 1989SOL    HW2 7986   1.126   3.608   3.605
 1989SOL    HW3 7987   1.037   3.560   3.492
 1989SOL    MW4 7988   1.111   3.597   3.520
 1990SOL     OW 7989   1.110   3.870   3.432
 1990SOL    HW2 7990   1.179   3.910   3.484
 1990SOL    HW3 7991   1.120   3.776   3.448
 1990SOL    MW4 7992   1.120   3.862   3.441
 1991SOL     OW 7993   0.871   3.998   3.451
 1991SOL    HW2 7994   0.954   3.951   3.463
 1991SOL    HW3 7995   0.807   3.930   3.434
 1991SOL    MW4 7996   0.874   3.983   3.451
 1992SOL     OW 7997   0.853   4.260   3.364
 1992SOL    HW2 7998   0.863   4.165   3.378
 1992SOL    HW3 7999   0.878   4.273   3.272
 1992SOL    MW4 8000   0.857   4.249   3.353
 1993SOL     OW 8001   1.109   4.371   3.482
 1993SOL    HW2 8002   1.024   4.342   3.450
 1993SOL    HW3 8003   1.112   4.464   3.462
 1993SOL    MW4 8004   1.098   4.379   3.475
 1994SOL     OW 8005   1.603   4.636   3.404
 1994SOL    HW2 8006   1.592   4.546   3.435
 1994SOL    HW3 8007   1.529   4.683   3.443
 1994SOL    MW4 8008   1.592   4.630   3.413
 1995SOL     OW 8009   1.379   0.087   3.521
 1995SOL    HW2 8010   1.392   0.087   3.616
 1995SOL    HW3 8011   1.386   0.180   3.497
 1995SOL    MW4 8012   1.381   0.100   3.530
 1996SOL     OW 8013   1.375   0.358   3.440
 1996SOL    HW2 8014   1.443   0.406   3.488
 1996SOL    HW3 8015   1.294   0.402   3.462
 1996SOL    MW4 8016   1.373   0.370   3.449
 1997SOL     OW 8017   1.579   0.538   3.540
 1997SOL    HW2 8018   1.589   0.538   3.635
 1997SOL    HW3 8019   1.654   0.488   3.508
 1997SOL    MW4 8020   1.590   0.531   3.548
 1998SOL     OW 8021   1.525   0.774   3.421
 1998SOL    HW2 8022   1.446   0.813   3.459
 1998SOL    HW3 8023   1.536   0.691   3.468
 1998SOL    MW4 8024   1.516   0.768   3.432
 1999SOL     OW 8025   1.315   0.904   3.540
 1999SOL    HW2 8026   1.317   0.908   3.635
 1999SOL    HW3 8027   1.329   0.994   3.512
 1999SOL    MW4 8028   1.317   0.916   3.549
 2000SOL     OW 8029   1.335   1.152   3.428
 2000SOL    HW2 8030   1.400   1.203   3.477
 2000SOL    HW3 8031   1.255   1.204   3.434
 2000SOL    MW4 8032   1.333   1.166   3.435
 2001SOL     OW 8033   1.540   1.297   3.533
 2001SOL    HW2 8034   1.575   1.301   3.622
 2001SOL    HW3 8035   1.610   1.256   3.481
 2001SOL    MW4 8036   1.554   1.292   3.538
 2002SOL     OW 8037   1.551   1.537   3.387
 2002SOL    HW2 8038   1.537   1.450   3.424
 2002SOL    HW3 8039   1.552   1.523   3.293
 2002SOL    MW4 8040   1.550   1.524   3.380
 2003SOL     OW 8041   1.320   1.646   3.463
 2003SOL    HW2 8042   1.333   1.634   3.557
 2003SOL    HW3 8043   1.401   1.615   3.423
 2003SOL    MW4 8044   1.333   1.640   3.470
 2004SOL     OW 8045   1.316   1.924   3.386
 2004SOL    HW2 8046   1.392   1.952   3.437
 2004SOL    HW3 8047   1.293   1.839   3.423
 2004SOL    MW4 8048   1.323   1.916   3.398
 2005SOL     OW 8049   1.564   2.019   3.504
 2005SOL    HW2 8050   1.647   1.984   3.473
 2005SOL    HW3 8051   1.569   2.113   3.485
 2005SOL    MW4 8052   1.576   2.027   3.498
 2006SOL     OW 8053   1.588   2.307   3.422
 2006SOL    HW2 8054   1.506   2.341   3.459
 2006SOL    HW3 8055   1.580   2.321   3.328
 2006SOL    MW4 8056   1.576   2.313   3.415
 2007SOL     OW 8057   1.338   2.403   3.515
 2007SOL    HW2 8058   1.333   2.416   3.610
 2007SOL    HW3 8059   1.356   2.490   3.480
 2007SOL    MW4 8060   1.340   2.416   3.523
 2008SOL     OW 8061   1.342   2.661   3.435
 2008SOL    HW2 8062   1.408   2.725   3.464
 2008SOL    HW3 8063   1.345   2.666   3.339
 2008SOL    MW4 8064   1.351   2.670   3.426
 2009SOL     OW 8065   1.556   2.845   3.494
 2009SOL    HW2 8066   1.633   2.803   3.456
 2009SOL    HW3 8067   1.553   2.932   3.453
 2009SOL    MW4 8068   1.566   2.851   3.483
 2010SOL     OW 8069   1.581   3.112   3.406
 2010SOL    HW2 8070   1.641   3.160   3.463
 2010SOL    HW3 8071   1.495   3.145   3.428
 2010SOL    MW4 8072   1.578   3.122   3.416
 2011SOL     OW 8073   1.332   3.217   3.482
 2011SOL    HW2 8074   1.331   3.214   3.578
 2011SOL    HW3 8075   1.253   3.169   3.456
 2011SOL    MW4 8076   1.321   3.210   3.491
 2012SOL     OW 8077   1.367   3.483   3.401
 2012SOL    HW2 8078   1.347   3.391   3.422
 2012SOL    HW3 8079   1.293   3.532   3.438
 2012SOL    MW4 8080   1.354   3.477   3.409
 2013SOL     OW 8081   1.571   3.650   3.493
 2013SOL    HW2 8082   1.558   3.652   3.588
 2013SOL    HW3 8083   1.510   3.582   3.463
 2013SOL    MW4 8084   1.561   3.641   3.502
 2014SOL     OW 8085   1.561   3.920   3.440
 2014SOL    HW2 8086   1.576   3.826   3.449
 2014SOL    HW3 8087   1.546   3.933   3.347
 2014SOL    MW4 8088   1.561   3.909   3.429
 2015SOL     OW 8089   1.332   4.001   3.570
 2015SOL    HW2 8090   1.323   4.086   3.527
 2015SOL    HW3 8091   1.411   3.963   3.532
 2015SOL    MW4 8092   1.341   4.007   3.559
 2016SOL     OW 8093   1.335   4.220   3.402
 2016SOL    HW2 8094   1.248   4.258   3.413
 2016SOL    HW3 8095   1.345   4.212   3.307
 2016SOL    MW4 8096   1.325   4.224   3.391
 2017SOL     OW 8097   1.568   4.364   3.491
 2017SOL    HW2 8098   1.641   4.320   3.446
 2017SOL    HW3 8099   1.490   4.317   3.461
 2017SOL    MW4 8100   1.568   4.352   3.481
 2018SOL     OW 8101   2.038   4.642   3.432
 2018SOL    HW2 8102   2.115   4.696   3.453
 2018SOL    HW3 8103   1.964   4.690   3.469
 2018SOL    MW4 8104   2.039   4.656   3.440
 2019SOL     OW 8105   1.831   0.119   3.516
 2019SOL    HW2 8106   1.817   0.119   3.611
 2019SOL    HW3 8107   1.764   0.059   3.482
 2019SOL    MW4 8108   1.820   0.111   3.524
 2020SOL     OW 8109   1.796   0.375   3.458
 2020SOL    HW2 8110   1.810   0.283   3.480
 2020SOL    HW3 8111   1.804   0.379   3.363
 2020SOL    MW4 8112   1.799   0.363   3.448
 2021SOL     OW 8113   2.012   0.518   3.541
 2021SOL    HW2 8114   2.003   0.611   3.521
 2021SOL    HW3 8115   1.933   0.478   3.506
 2021SOL    MW4 8116   2.001   0.525   3.534
 2022SOL     OW 8117   1.996   0.773   3.463
 2022SOL    HW2 8118   2.073   0.811   3.506
 2022SOL    HW3 8119   2.014   0.781   3.369
 2022SOL    MW4 8120   2.008   0.779   3.456
 2023SOL     OW 8121   1.758   0.876   3.533
 2023SOL    HW2 8122   1.835   0.831   3.500
 2023SOL    HW3 8123   1.687   0.849   3.475
 2023SOL    MW4 8124   1.759   0.867   3.521
 2024SOL     OW 8125   1.751   1.156   3.439
 2024SOL    HW2 8126   1.826   1.195   3.483
 2024SOL    HW3 8127   1.750   1.065   3.469
 2024SOL    MW4 8128   1.761   1.149   3.449
 2025SOL     OW 8129   1.981   1.284   3.513
 2025SOL    HW2 8130   2.005   1.293   3.605
 2025SOL    HW3 8131   1.974   1.375   3.482
 2025SOL    MW4 8132   1.983   1.297   3.521
 2026SOL     OW 8133   1.977   1.540   3.417
 2026SOL    HW2 8134   2.044   1.580   3.472
 2026SOL    HW3 8135   1.896   1.584   3.444
 2026SOL    MW4 8136   1.975   1.551   3.428
 2027SOL     OW 8137   1.743   1.664   3.526
 2027SOL    HW2 8138   1.749   1.749   3.482
 2027SOL    HW3 8139   1.673   1.618   3.481
 2027SOL    MW4 8140   1.735   1.669   3.514
 2028SOL     OW 8141   1.791   1.925   3.384
 2028SOL    HW2 8142   1.859   1.979   3.424
 2028SOL    HW3 8143   1.813   1.925   3.291
 2028SOL    MW4 8144   1.803   1.932   3.377
 2029SOL     OW 8145   1.983   2.077   3.503
 2029SOL    HW2 8146   2.063   2.031   3.476
 2029SOL    HW3 8147   1.996   2.167   3.473
 2029SOL    MW4 8148   1.995   2.083   3.496
 2030SOL     OW 8149   2.005   2.333   3.395
 2030SOL    HW2 8150   2.086   2.382   3.407
 2030SOL    HW3 8151   1.985   2.341   3.302
 2030SOL    MW4 8152   2.013   2.341   3.384
 2031SOL     OW 8153   1.793   2.468   3.508
 2031SOL    HW2 8154   1.872   2.432   3.468
 2031SOL    HW3 8155   1.722   2.412   3.475
 2031SOL    MW4 8156   1.794   2.456   3.498
 2032SOL     OW 8157   1.784   2.724   3.406
 2032SOL    HW2 8158   1.859   2.772   3.439
 2032SOL    HW3 8159   1.787   2.639   3.451
 2032SOL    MW4 8160   1.794   2.719   3.416
 2033SOL     OW 8161   2.018   2.825   3.500
 2033SOL    HW2 8162   2.040   2.826   3.593
 2033SOL    HW3 8163   2.018   2.917   3.474
 2033SOL    MW4 8164   2.021   2.837   3.509
 2034SOL     OW 8165   2.003   3.077   3.398
 2034SOL    HW2 8166   2.075   3.138   3.416
 2034SOL    HW3 8167   1.925   3.121   3.433
 2034SOL    MW4 8168   2.002   3.091   3.405
 2035SOL     OW 8169   1.818   3.240   3.504
 2035SOL    HW2 8170   1.835   3.260   3.596
 2035SOL    HW3 8171   1.811   3.325   3.462
 2035SOL    MW4 8172   1.819   3.254   3.510
 2036SOL     OW 8173   1.799   3.497   3.417
 2036SOL    HW2 8174   1.733   3.561   3.446
 2036SOL    HW3 8175   1.804   3.510   3.322
 2036SOL    MW4 8176   1.791   3.507   3.408
 2037SOL     OW 8177   2.021   3.627   3.504
 2037SOL    HW2 8178   2.095   3.571   3.480
 2037SOL    HW3 8179   1.945   3.585   3.463
 2037SOL    MW4 8180   2.021   3.614   3.495
 2038SOL     OW 8181   2.010   3.882   3.397
 2038SOL    HW2 8182   1.941   3.924   3.448
 2038SOL    HW3 8183   2.017   3.794   3.434
 2038SOL    MW4 8184   2.002   3.876   3.408
 2039SOL     OW 8185   1.793   4.028   3.542
 2039SOL    HW2 8186   1.787   4.034   3.637
 2039SOL    HW3 8187   1.706   3.997   3.514
 2039SOL    MW4 8188   1.781   4.024   3.551
 2040SOL     OW 8189   1.809   4.269   3.409
 2040SOL    HW2 8190   1.802   4.186   3.458
 2040SOL    HW3 8191   1.800   4.244   3.317
 2040SOL    MW4 8192   1.807   4.254   3.404
 2041SOL     OW 8193   2.061   4.369   3.461
 2041SOL    HW2 8194   1.979   4.337   3.423
 2041SOL    HW3 8195   2.060   4.463   3.448
 2041SOL    MW4 8196   2.050   4.377   3.455
 2042SOL     OW 8197   2.493   4.656   3.442
 2042SOL    HW2 8198   2.495   4.563   3.468
 2042SOL    HW3 8199   2.505   4.655   3.347
 2042SOL    MW4 8200   2.495   4.643   3.433
 2043SOL     OW 8201   2.253   0.121   3.526
 2043SOL    HW2 8202   2.246   0.210   3.492
 2043SOL    HW3 8203   2.337   0.089   3.494
 2043SOL    MW4 8204   2.263   0.128   3.517
 2044SOL     OW 8205   2.227   0.385   3.421
 2044SOL    HW2 8206   2.306   0.426   3.455
 2044SOL    HW3 8207   2.156   0.429   3.467
 2044SOL    MW4 8208   2.228   0.396   3.431
 2045SOL     OW 8209   2.466   0.508   3.511
 2045SOL    HW2 8210   2.538   0.465   3.466
 2045SOL    HW3 8211   2.476   0.601   3.489
 2045SOL    MW4 8212   2.477   0.515   3.502
 2046SOL     OW 8213   2.484   0.774   3.441
 2046SOL    HW2 8214   2.569   0.805   3.476
 2046SOL    HW3 8215   2.490   0.789   3.347
 2046SOL    MW4 8216   2.496   0.780   3.433
 2047SOL     OW 8217   2.248   0.884   3.539
 2047SOL    HW2 8218   2.235   0.976   3.518
 2047SOL    HW3 8219   2.335   0.863   3.504
 2047SOL    MW4 8220   2.258   0.893   3.532
 2048SOL     OW 8221   2.221   1.133   3.430
 2048SOL    HW2 8222   2.288   1.194   3.460
 2048SOL    HW3 8223   2.139   1.171   3.460
 2048SOL    MW4 8224   2.219   1.146   3.438
 2049SOL     OW 8225   2.470   1.273   3.491
 2049SOL    HW2 8226   2.469   1.262   3.586
 2049SOL    HW3 8227   2.545   1.220   3.462
 2049SOL    MW4 8228   2.480   1.265   3.499
 2050SOL     OW 8229   2.434   1.548   3.455
 2050SOL    HW2 8230   2.455   1.457   3.475
 2050SOL    HW3 8231   2.428   1.552   3.360
 2050SOL    MW4 8232   2.436   1.537   3.445
 2051SOL     OW 8233   2.212   1.695   3.516
 2051SOL    HW2 8234   2.223   1.710   3.610
 2051SOL    HW3 8235   2.284   1.637   3.492
 2051SOL    MW4 8236   2.223   1.689   3.525
 2052SOL     OW 8237   2.200   1.945   3.401
 2052SOL    HW2 8238   2.189   1.852   3.422
 2052SOL    HW3 8239   2.195   1.949   3.306
 2052SOL    MW4 8240   2.198   1.933   3.391
 2053SOL     OW 8241   2.412   2.086   3.498
 2053SOL    HW2 8242   2.408   2.081   3.593
 2053SOL    HW3 8243   2.335   2.039   3.467
 2053SOL    MW4 8244   2.401   2.079   3.506
 2054SOL     OW 8245   2.444   2.345   3.396
 2054SOL    HW2 8246   2.530   2.383   3.411
 2054SOL    HW3 8247   2.452   2.255   3.428
 2054SOL    MW4 8248   2.456   2.338   3.402
 2055SOL     OW 8249   2.223   2.483   3.503
 2055SOL    HW2 8250   2.229   2.575   3.476
 2055SOL    HW3 8251   2.306   2.445   3.475
 2055SOL    MW4 8252   2.235   2.490   3.496
 2056SOL     OW 8253   2.266   2.750   3.396
 2056SOL    HW2 8254   2.180   2.779   3.425
 2056SOL    HW3 8255   2.258   2.740   3.301
 2056SOL    MW4 8256   2.254   2.753   3.387
 2057SOL     OW 8257   2.498   2.863   3.486
 2057SOL    HW2 8258   2.496   2.951   3.447
 2057SOL    HW3 8259   2.418   2.821   3.455
 2057SOL    MW4 8260   2.487   2.869   3.477
 2058SOL     OW 8261   2.466   3.128   3.385
 2058SOL    HW2 8262   2.553   3.164   3.400
 2058SOL    HW3 8263   2.465   3.106   3.292
 2058SOL    MW4 8264   2.477   3.130   3.375
 2059SOL     OW 8265   2.236   3.234   3.494
 2059SOL    HW2 8266   2.260   3.238   3.587
 2059SOL    HW3 8267   2.313   3.196   3.452
 2059SOL    MW4 8268   2.250   3.230   3.501
 2060SOL     OW 8269   2.254   3.487   3.433
 2060SOL    HW2 8270   2.248   3.394   3.452
 2060SOL    HW3 8271   2.271   3.492   3.339
 2060SOL    MW4 8272   2.255   3.476   3.423
 2061SOL     OW 8273   2.507   3.623   3.479
 2061SOL    HW2 8274   2.482   3.712   3.454
 2061SOL    HW3 8275   2.424   3.577   3.490
 2061SOL    MW4 8276   2.493   3.629   3.477
 2062SOL     OW 8277   2.449   3.882   3.388
 2062SOL    HW2 8278   2.524   3.939   3.403
 2062SOL    HW3 8279   2.379   3.919   3.442
 2062SOL    MW4 8280   2.450   3.895   3.397
 2063SOL     OW 8281   2.241   4.023   3.511
 2063SOL    HW2 8282   2.256   4.091   3.444
 2063SOL    HW3 8283   2.166   3.974   3.478
 2063SOL    MW4 8284   2.233   4.026   3.498
 2064SOL     OW 8285   2.303   4.245   3.364
 2064SOL    HW2 8286   2.221   4.284   3.395
 2064SOL    HW3 8287   2.291   4.235   3.270
 2064SOL    MW4 8288   2.291   4.249   3.356
 2065SOL     OW 8289   2.522   4.404   3.529
 2065SOL    HW2 8290   2.523   4.418   3.624
 2065SOL    HW3 8291   2.443   4.352   3.513
 2065SOL    MW4 8292   2.512   4.399   3.540
 2066SOL     OW 8293   2.922   4.656   3.411
 2066SOL    HW2 8294   2.850   4.705   3.451
 2066SOL    HW3 8295   2.900   4.653   3.318
 2066SOL    MW4 8296   2.910   4.662   3.404
 2067SOL     OW 8297   2.709   0.130   3.526
 2067SOL    HW2 8298   2.691   0.218   3.491
 2067SOL    HW3 8299   2.630   0.080   3.506
 2067SOL    MW4 8300   2.696   0.135   3.519
 2068SOL     OW 8301   2.679   0.384   3.428
 2068SOL    HW2 8302   2.750   0.439   3.461
 2068SOL    HW3 8303   2.708   0.359   3.340
 2068SOL    MW4 8304   2.692   0.388   3.421
 2069SOL     OW 8305   2.910   0.531   3.473
 2069SOL    HW2 8306   2.928   0.556   3.564
 2069SOL    HW3 8307   2.944   0.604   3.421
 2069SOL    MW4 8308   2.917   0.544   3.478
 2070SOL     OW 8309   2.954   0.762   3.345
 2070SOL    HW2 8310   3.027   0.796   3.398
 2070SOL    HW3 8311   2.875   0.794   3.390
 2070SOL    MW4 8312   2.953   0.771   3.358
 2071SOL     OW 8313   2.736   0.872   3.502
 2071SOL    HW2 8314   2.766   0.868   3.593
 2071SOL    HW3 8315   2.705   0.961   3.490
 2071SOL    MW4 8316   2.736   0.883   3.512
 2072SOL     OW 8317   2.705   1.131   3.405
 2072SOL    HW2 8318   2.776   1.191   3.428
 2072SOL    HW3 8319   2.683   1.153   3.314
 2072SOL    MW4 8320   2.712   1.141   3.396
 2073SOL     OW 8321   2.925   1.297   3.495
 2073SOL    HW2 8322   2.929   1.282   3.590
 2073SOL    HW3 8323   3.003   1.253   3.461
 2073SOL    MW4 8324   2.936   1.289   3.503
 2074SOL     OW 8325   2.875   1.566   3.401
 2074SOL    HW2 8326   2.798   1.604   3.441
 2074SOL    HW3 8327   2.893   1.487   3.452
 2074SOL    MW4 8328   2.867   1.560   3.413
 2075SOL     OW 8329   2.663   1.700   3.510
 2075SOL    HW2 8330   2.650   1.790   3.480
 2075SOL    HW3 8331   2.578   1.657   3.495
 2075SOL    MW4 8332   2.650   1.706   3.504
 2076SOL     OW 8333   2.655   1.964   3.400
 2076SOL    HW2 8334   2.571   1.988   3.440
 2076SOL    HW3 8335   2.630   1.922   3.317
 2076SOL    MW4 8336   2.640   1.962   3.394
 2077SOL     OW 8337   2.869   2.127   3.483
 2077SOL    HW2 8338   2.877   2.097   3.574
 2077SOL    HW3 8339   2.793   2.078   3.449
 2077SOL    MW4 8340   2.860   2.116   3.490
 2078SOL     OW 8341   2.915   2.359   3.369
 2078SOL    HW2 8342   2.905   2.271   3.406
 2078SOL    HW3 8343   2.916   2.345   3.275
 2078SOL    MW4 8344   2.914   2.346   3.362
 2079SOL     OW 8345   2.673   2.465   3.450
 2079SOL    HW2 8346   2.675   2.483   3.544
 2079SOL    HW3 8347   2.751   2.411   3.434
 2079SOL    MW4 8348   2.684   2.460   3.460
 2080SOL     OW 8349   2.705   2.727   3.364
 2080SOL    HW2 8350   2.702   2.635   3.390
 2080SOL    HW3 8351   2.635   2.768   3.415
 2080SOL    MW4 8352   2.695   2.720   3.374
 2081SOL     OW 8353   2.967   2.854   3.453
 2081SOL    HW2 8354   2.979   2.857   3.548
 2081SOL    HW3 8355   2.880   2.815   3.441
 2081SOL    MW4 8356   2.957   2.849   3.464
 2082SOL     OW 8357   2.980   3.121   3.376
 2082SOL    HW2 8358   2.961   3.041   3.426
 2082SOL    HW3 8359   2.955   3.099   3.287
 2082SOL    MW4 8360   2.975   3.107   3.371
 2083SOL     OW 8361   2.727   3.207   3.473
 2083SOL    HW2 8362   2.739   3.208   3.568
 2083SOL    HW3 8363   2.813   3.187   3.438
 2083SOL    MW4 8364   2.740   3.204   3.481
 2084SOL     OW 8365   2.734   3.472   3.381
 2084SOL    HW2 8366   2.707   3.385   3.407
 2084SOL    HW3 8367   2.671   3.531   3.422
 2084SOL    MW4 8368   2.722   3.468   3.390
 2085SOL     OW 8369   2.971   3.593   3.471
 2085SOL    HW2 8370   2.956   3.684   3.447
 2085SOL    HW3 8371   2.893   3.546   3.441
 2085SOL    MW4 8372   2.959   3.598   3.464
 2086SOL     OW 8373   2.883   3.861   3.386
 2086SOL    HW2 8374   2.958   3.911   3.418
 2086SOL    HW3 8375   2.807   3.902   3.427
 2086SOL    MW4 8376   2.883   3.873   3.396
 2087SOL     OW 8377   2.673   4.017   3.484
 2087SOL    HW2 8378   2.675   4.020   3.580
 2087SOL    HW3 8379   2.682   4.108   3.457
 2087SOL    MW4 8380   2.675   4.029   3.493
 2088SOL     OW 8381   2.710   4.266   3.382
 2088SOL    HW2 8382   2.794   4.293   3.419
 2088SOL    HW3 8383   2.645   4.312   3.435
 2088SOL    MW4 8384   2.712   4.275   3.394
 2089SOL     OW 8385   2.958   4.394   3.493
 2089SOL    HW2 8386   2.954   4.389   3.588
 2089SOL    HW3 8387   2.932   4.484   3.472
 2089SOL    MW4 8388   2.954   4.405   3.503
 2090SOL     OW 8389   3.390   4.610   3.401
 2090SOL    HW2 8390   3.320   4.657   3.447
 2090SOL    HW3 8391   3.371   4.622   3.308
 2090SOL    MW4 8392   3.378   4.618   3.395
 2091SOL     OW 8393   3.170   0.094   3.502
 2091SOL    HW2 8394   3.166   0.184   3.469
 2091SOL    HW3 8395   3.093   0.051   3.466
 2091SOL    MW4 8396   3.160   0.100   3.493
 2092SOL     OW 8397   3.127   0.331   3.389
 2092SOL    HW2 8398   3.058   0.388   3.421
 2092SOL    HW3 8399   3.118   0.334   3.293
 2092SOL    MW4 8400   3.117   0.339   3.380
 2093SOL     OW 8401   3.376   0.468   3.461
 2093SOL    HW2 8402   3.372   0.458   3.556
 2093SOL    HW3 8403   3.299   0.420   3.429
 2093SOL    MW4 8404   3.365   0.460   3.470
 2094SOL     OW 8405   3.351   0.740   3.413
 2094SOL    HW2 8406   3.437   0.781   3.415
 2094SOL    HW3 8407   3.366   0.649   3.438
 2094SOL    MW4 8408   3.364   0.733   3.416
 2095SOL     OW 8409   3.133   0.862   3.530
 2095SOL    HW2 8410   3.134   0.946   3.484
 2095SOL    HW3 8411   3.216   0.821   3.507
 2095SOL    MW4 8412   3.144   0.868   3.521
 2096SOL     OW 8413   3.137   1.107   3.406
 2096SOL    HW2 8414   3.212   1.155   3.440
 2096SOL    HW3 8415   3.135   1.130   3.313
 2096SOL    MW4 8416   3.147   1.117   3.398
 2097SOL     OW 8417   3.325   1.291   3.514
 2097SOL    HW2 8418   3.402   1.254   3.470
 2097SOL    HW3 8419   3.315   1.377   3.475
 2097SOL    MW4 8420   3.334   1.297   3.503
 2098SOL     OW 8421   3.281   1.558   3.399
 2098SOL    HW2 8422   3.361   1.597   3.435
 2098SOL    HW3 8423   3.210   1.603   3.444
 2098SOL    MW4 8424   3.283   1.569   3.410
 2099SOL     OW 8425   3.073   1.719   3.531
 2099SOL    HW2 8426   3.060   1.804   3.490
 2099SOL    HW3 8427   3.004   1.663   3.495
 2099SOL    MW4 8428   3.062   1.722   3.521
 2100SOL     OW 8429   3.103   1.988   3.406
 2100SOL    HW2 8430   3.036   2.054   3.426
 2100SOL    HW3 8431   3.106   1.985   3.310
 2100SOL    MW4 8432   3.094   1.996   3.396
 2101SOL     OW 8433   3.355   2.070   3.519
 2101SOL    HW2 8434   3.352   2.160   3.486
 2101SOL    HW3 8435   3.284   2.025   3.473
 2101SOL    MW4 8436   3.346   2.076   3.509
 2102SOL     OW 8437   3.384   2.324   3.400
 2102SOL    HW2 8438   3.464   2.356   3.442
 2102SOL    HW3 8439   3.314   2.375   3.440
 2102SOL    MW4 8440   3.385   2.335   3.411
 2103SOL     OW 8441   3.150   2.434   3.502
 2103SOL    HW2 8442   3.140   2.522   3.467
 2103SOL    HW3 8443   3.076   2.385   3.465
 2103SOL    MW4 8444   3.139   2.439   3.492
 2104SOL     OW 8445   3.151   2.674   3.384
 2104SOL    HW2 8446   3.235   2.711   3.410
 2104SOL    HW3 8447   3.087   2.741   3.411
 2104SOL    MW4 8448   3.153   2.688   3.391
 2105SOL     OW 8449   3.378   2.801   3.473
 2105SOL    HW2 8450   3.468   2.770   3.467
 2105SOL    HW3 8451   3.385   2.896   3.474
 2105SOL    MW4 8452   3.391   2.809   3.472
 2106SOL     OW 8453   3.362   3.083   3.438
 2106SOL    HW2 8454   3.443   3.117   3.474
 2106SOL    HW3 8455   3.294   3.142   3.471
 2106SOL    MW4 8456   3.363   3.095   3.447
 2107SOL     OW 8457   3.149   3.242   3.545
 2107SOL    HW2 8458   3.163   3.327   3.504
 2107SOL    HW3 8459   3.099   3.192   3.481
 2107SOL    MW4 8460   3.144   3.247   3.531
 2108SOL     OW 8461   3.202   3.483   3.416
 2108SOL    HW2 8462   3.118   3.526   3.433
 2108SOL    HW3 8463   3.203   3.470   3.321
 2108SOL    MW4 8464   3.191   3.487   3.406
 2109SOL     OW 8465   3.396   3.672   3.508
 2109SOL    HW2 8466   3.377   3.744   3.448
 2109SOL    HW3 8467   3.328   3.607   3.490
 2109SOL    MW4 8468   3.385   3.673   3.498
 2110SOL     OW 8469   3.349   3.907   3.345
 2110SOL    HW2 8470   3.417   3.943   3.402
 2110SOL    HW3 8471   3.267   3.927   3.390
 2110SOL    MW4 8472   3.347   3.914   3.359
 2111SOL     OW 8473   3.090   4.006   3.473
 2111SOL    HW2 8474   3.099   4.021   3.567
 2111SOL    HW3 8475   3.102   4.093   3.434
 2111SOL    MW4 8476   3.093   4.020   3.480
 2112SOL     OW 8477   3.155   4.258   3.382
 2112SOL    HW2 8478   3.227   4.292   3.435
 2112SOL    HW3 8479   3.078   4.306   3.413
 2112SOL    MW4 8480   3.154   4.269   3.393
 2113SOL     OW 8481   3.388   4.364   3.510
 2113SOL    HW2 8482   3.385   4.367   3.606
 2113SOL    HW3 8483   3.387   4.456   3.484
 2113SOL    MW4 8484   3.387   4.377   3.519
 2114SOL     OW 8485   3.811   4.666   3.406
 2114SOL    HW2 8486   3.728   4.709   3.429
 2114SOL    HW3 8487   3.810   4.660   3.311
 2114SOL    MW4 8488   3.800   4.671   3.397
 2115SOL     OW 8489   3.599   0.132   3.510
 2115SOL    HW2 8490   3.595   0.209   3.453
 2115SOL    HW3 8491   3.541   0.068   3.468
 2115SOL    MW4 8492   3.591   0.133   3.497
 2116SOL     OW 8493   3.610   0.365   3.367
 2116SOL    HW2 8494   3.686   0.412   3.403
 2116SOL    HW3 8495   3.534   0.413   3.401
 2116SOL    MW4 8496   3.610   0.378   3.377
 2117SOL     OW 8497   3.804   0.534   3.478
 2117SOL    HW2 8498   3.801   0.507   3.570
 2117SOL    HW3 8499   3.885   0.495   3.444
 2117SOL    MW4 8500   3.815   0.525   3.486
 2118SOL     OW 8501   3.786   0.795   3.367
 2118SOL    HW2 8502   3.850   0.853   3.409
 2118SOL    HW3 8503   3.794   0.712   3.415
 2118SOL    MW4 8504   3.796   0.791   3.379
 2119SOL     OW 8505   3.577   0.919   3.469
 2119SOL    HW2 8506   3.587   0.921   3.564
 2119SOL    HW3 8507   3.653   0.871   3.437
 2119SOL    MW4 8508   3.589   0.913   3.477
 2120SOL     OW 8509   3.530   1.169   3.366
 2120SOL    HW2 8510   3.538   1.078   3.394
 2120SOL    HW3 8511   3.516   1.164   3.272
 2120SOL    MW4 8512   3.529   1.156   3.358
 2121SOL     OW 8513   3.780   1.251   3.474
 2121SOL    HW2 8514   3.773   1.254   3.570
 2121SOL    HW3 8515   3.693   1.223   3.445
 2121SOL    MW4 8516   3.768   1.247   3.483
 2122SOL     OW 8517   3.731   1.519   3.402
 2122SOL    HW2 8518   3.816   1.559   3.421
 2122SOL    HW3 8519   3.740   1.428   3.431
 2122SOL    MW4 8520   3.744   1.512   3.409
 2123SOL     OW 8521   3.517   1.667   3.504
 2123SOL    HW2 8522   3.539   1.754   3.471
 2123SOL    HW3 8523   3.589   1.611   3.475
 2123SOL    MW4 8524   3.529   1.671   3.496
 2124SOL     OW 8525   3.575   1.915   3.404
 2124SOL    HW2 8526   3.659   1.945   3.438
 2124SOL    HW3 8527   3.511   1.974   3.444
 2124SOL    MW4 8528   3.578   1.927   3.414
 2125SOL     OW 8529   3.796   2.074   3.512
 2125SOL    HW2 8530   3.775   2.070   3.606
 2125SOL    HW3 8531   3.882   2.033   3.506
 2125SOL    MW4 8532   3.805   2.068   3.524
 2126SOL     OW 8533   3.812   2.312   3.380
 2126SOL    HW2 8534   3.906   2.332   3.383
 2126SOL    HW3 8535   3.803   2.234   3.434
 2126SOL    MW4 8536   3.823   2.305   3.388
 2127SOL     OW 8537   3.611   2.425   3.531
 2127SOL    HW2 8538   3.602   2.516   3.502
 2127SOL    HW3 8539   3.688   2.393   3.485
 2127SOL    MW4 8540   3.620   2.433   3.521
 2128SOL     OW 8541   3.617   2.679   3.419
 2128SOL    HW2 8542   3.688   2.740   3.440
 2128SOL    HW3 8543   3.613   2.679   3.323
 2128SOL    MW4 8544   3.626   2.687   3.409
 2129SOL     OW 8545   3.827   2.835   3.479
 2129SOL    HW2 8546   3.814   2.837   3.574
 2129SOL    HW3 8547   3.824   2.927   3.453
 2129SOL    MW4 8548   3.825   2.847   3.488
 2130SOL     OW 8549   3.821   3.096   3.414
 2130SOL    HW2 8550   3.899   3.143   3.443
 2130SOL    HW3 8551   3.809   3.125   3.323
 2130SOL    MW4 8552   3.830   3.106   3.406
 2131SOL     OW 8553   3.600   3.218   3.521
 2131SOL    HW2 8554   3.601   3.311   3.497
 2131SOL    HW3 8555   3.686   3.185   3.493
 2131SOL    MW4 8556   3.612   3.226   3.514
 2132SOL     OW 8557   3.584   3.466   3.416
 2132SOL    HW2 8558   3.514   3.528   3.435
 2132SOL    HW3 8559   3.594   3.471   3.321
 2132SOL    MW4 8560   3.576   3.475   3.406
 2133SOL     OW 8561   3.801   3.589   3.519
 2133SOL    HW2 8562   3.782   3.585   3.613
 2133SOL    HW3 8563   3.726   3.545   3.478
 2133SOL    MW4 8564   3.788   3.583   3.526
 2134SOL     OW 8565   3.797   3.858   3.428
 2134SOL    HW2 8566   3.713   3.892   3.458
 2134SOL    HW3 8567   3.807   3.774   3.472
 2134SOL    MW4 8568   3.787   3.852   3.437
 2135SOL     OW 8569   3.553   3.988   3.508
 2135SOL    HW2 8570   3.540   3.985   3.603
 2135SOL    HW3 8571   3.586   4.076   3.491
 2135SOL    MW4 8572   3.555   3.999   3.519
 2136SOL     OW 8573   3.640   4.240   3.430
 2136SOL    HW2 8574   3.564   4.290   3.462
 2136SOL    HW3 8575   3.629   4.240   3.335
 2136SOL    MW4 8576   3.628   4.247   3.422
 2137SOL     OW 8577   3.879   4.402   3.464
 2137SOL    HW2 8578   3.794   4.360   3.459
 2137SOL    HW3 8579   3.862   4.495   3.446
 2137SOL    MW4 8580   3.866   4.409   3.461
 2138SOL     OW 8581   4.241   4.651   3.450
 2138SOL    HW2 8582   4.264   4.558   3.456
 2138SOL    HW3 8583   4.323   4.697   3.469
 2138SOL    MW4 8584   4.255   4.645   3.454
 2139SOL     OW 8585   4.020   0.144   3.487
 2139SOL    HW2 8586   4.091   0.080   3.483
 2139SOL    HW3 8587   3.940   0.093   3.470
 2139SOL    MW4 8588   4.018   0.129   3.485
 2140SOL     OW 8589   4.004   0.389   3.370
 2140SOL    HW2 8590   4.001   0.306   3.417
 2140SOL    HW3 8591   4.001   0.365   3.277
 2140SOL    MW4 8592   4.004   0.375   3.364
 2141SOL     OW 8593   4.239   0.498   3.456
 2141SOL    HW2 8594   4.228   0.591   3.438
 2141SOL    HW3 8595   4.157   0.458   3.427
 2141SOL    MW4 8596   4.227   0.505   3.450
 2142SOL     OW 8597   4.223   0.785   3.428
 2142SOL    HW2 8598   4.303   0.833   3.451
 2142SOL    HW3 8599   4.228   0.773   3.334
 2142SOL    MW4 8600   4.234   0.790   3.419
 2143SOL     OW 8601   3.995   0.942   3.490
 2143SOL    HW2 8602   4.010   1.025   3.444
 2143SOL    HW3 8603   4.074   0.891   3.472
 2143SOL    MW4 8604   4.007   0.946   3.482
 2144SOL     OW 8605   4.017   1.183   3.369
 2144SOL    HW2 8606   4.083   1.238   3.411
 2144SOL    HW3 8607   3.934   1.221   3.396
 2144SOL    MW4 8608   4.015   1.196   3.378
 2145SOL     OW 8609   4.226   1.305   3.507
 2145SOL    HW2 8610   4.238   1.396   3.480
 2145SOL    HW3 8611   4.301   1.258   3.470
 2145SOL    MW4 8612   4.237   1.311   3.498
 2146SOL     OW 8613   4.239   1.593   3.446
 2146SOL    HW2 8614   4.154   1.622   3.477
 2146SOL    HW3 8615   4.229   1.585   3.351
 2146SOL    MW4 8616   4.227   1.596   3.438
 2147SOL     OW 8617   3.973   1.671   3.492
 2147SOL    HW2 8618   3.993   1.657   3.585
 2147SOL    HW3 8619   3.972   1.767   3.483
 2147SOL    MW4 8620   3.976   1.682   3.503
 2148SOL     OW 8621   4.028   1.938   3.427
 2148SOL    HW2 8622   4.120   1.947   3.455
 2148SOL    HW3 8623   4.031   1.950   3.332
 2148SOL    MW4 8624   4.041   1.941   3.418
 2149SOL     OW 8625   4.288   1.993   3.502
 2149SOL    HW2 8626   4.290   2.082   3.466
 2149SOL    HW3 8627   4.372   1.956   3.479
 2149SOL    MW4 8628   4.299   2.000   3.495
 2150SOL     OW 8629   4.287   2.254   3.402
 2150SOL    HW2 8630   4.213   2.306   3.433
 2150SOL    HW3 8631   4.271   2.243   3.308
 2150SOL    MW4 8632   4.275   2.259   3.394
 2151SOL     OW 8633   4.085   2.412   3.493
 2151SOL    HW2 8634   4.067   2.419   3.587
 2151SOL    HW3 8635   4.089   2.503   3.463
 2151SOL    MW4 8636   4.083   2.425   3.501
 2152SOL     OW 8637   4.060   2.686   3.412
 2152SOL    HW2 8638   4.142   2.728   3.438
 2152SOL    HW3 8639   3.992   2.736   3.458
 2152SOL    MW4 8640   4.062   2.698   3.421
 2153SOL     OW 8641   4.299   2.825   3.477
 2153SOL    HW2 8642   4.302   2.812   3.572
 2153SOL    HW3 8643   4.361   2.761   3.442
 2153SOL    MW4 8644   4.308   2.815   3.485
 2154SOL     OW 8645   4.248   3.081   3.416
 2154SOL    HW2 8646   4.261   2.989   3.437
 2154SOL    HW3 8647   4.227   3.082   3.323
 2154SOL    MW4 8648   4.247   3.069   3.407
 2155SOL     OW 8649   4.039   3.233   3.544
 2155SOL    HW2 8650   4.026   3.316   3.500
 2155SOL    HW3 8651   4.124   3.201   3.513
 2155SOL    MW4 8652   4.049   3.240   3.534
 2156SOL     OW 8653   4.021   3.476   3.411
 2156SOL    HW2 8654   4.102   3.514   3.446
 2156SOL    HW3 8655   3.952   3.531   3.446
 2156SOL    MW4 8656   4.023   3.488   3.420
 2157SOL     OW 8657   4.241   3.596   3.515
 2157SOL    HW2 8658   4.267   3.611   3.605
 2157SOL    HW3 8659   4.245   3.682   3.474
 2157SOL    MW4 8660   4.245   3.609   3.521
 2158SOL     OW 8661   4.236   3.848   3.390
 2158SOL    HW2 8662   4.296   3.907   3.434
 2158SOL    HW3 8663   4.264   3.850   3.298
 2158SOL    MW4 8664   4.248   3.856   3.383
 2159SOL     OW 8665   4.019   3.986   3.491
 2159SOL    HW2 8666   4.083   3.931   3.446
 2159SOL    HW3 8667   3.935   3.942   3.475
 2159SOL    MW4 8668   4.016   3.973   3.483
 2160SOL     OW 8669   4.075   4.228   3.368
 2160SOL    HW2 8670   4.057   4.149   3.418
 2160SOL    HW3 8671   4.007   4.289   3.395
 2160SOL    MW4 8672   4.064   4.226   3.378
 2161SOL     OW 8673   4.295   4.385   3.478
 2161SOL    HW2 8674   4.297   4.376   3.573
 2161SOL    HW3 8675   4.233   4.317   3.449
 2161SOL    MW4 8676   4.287   4.374   3.486
 2162SOL     OW 8677   0.183   4.657   3.867
 2162SOL    HW2 8678   0.212   4.659   3.958
 2162SOL    HW3 8679   0.099   4.702   3.867
 2162SOL    MW4 8680   0.176   4.663   3.879
 2163SOL     OW 8681   4.442   0.150   3.839
 2163SOL    HW2 8682   4.437   0.245   3.850
 2163SOL    HW3 8683   4.459   0.137   3.746
 2163SOL    MW4 8684   4.444   0.161   3.828
 2164SOL     OW 8685   4.456   0.422   3.846
 2164SOL    HW2 8686   4.395   0.477   3.796
 2164SOL    HW3 8687   4.542   0.443   3.810
 2164SOL    MW4 8688   4.459   0.432   3.835
 2165SOL     OW 8689   0.222   0.481   3.784
 2165SOL    HW2 8690   0.223   0.576   3.798
 2165SOL    HW3 8691   0.229   0.471   3.689
 2165SOL    MW4 8692   0.223   0.492   3.773
 2166SOL     OW 8693   0.201   0.740   3.882
 2166SOL    HW2 8694   0.196   0.734   3.978
 2166SOL    HW3 8695   0.120   0.786   3.857
 2166SOL    MW4 8696   0.189   0.745   3.892
 2167SOL     OW 8697   0.021   0.943   3.773
 2167SOL    HW2 8698  -0.069   0.914   3.788
 2167SOL    HW3 8699   0.030   1.023   3.825
 2167SOL    MW4 8700   0.010   0.950   3.782
 2168SOL     OW 8701   4.487   1.172   3.926
 2168SOL    HW2 8702   4.413   1.224   3.895
 2168SOL    HW3 8703   4.565   1.216   3.890
 2168SOL    MW4 8704   4.488   1.185   3.917
 2169SOL     OW 8705   0.221   1.282   3.828
 2169SOL    HW2 8706   0.230   1.376   3.841
 2169SOL    HW3 8707   0.215   1.270   3.733
 2169SOL    MW4 8708   0.222   1.293   3.817
 2170SOL     OW 8709   0.222   1.559   3.885
 2170SOL    HW2 8710   0.226   1.551   3.980
 2170SOL    HW3 8711   0.141   1.607   3.868
 2170SOL    MW4 8712   0.212   1.564   3.895
 2171SOL     OW 8713   4.468   1.697   3.838
 2171SOL    HW2 8714   4.475   1.792   3.847
 2171SOL    HW3 8715   4.468   1.682   3.744
 2171SOL    MW4 8716   4.469   1.707   3.827
 2172SOL     OW 8717   4.480   1.962   3.849
 2172SOL    HW2 8718   4.480   1.970   3.945
 2172SOL    HW3 8719   4.390   1.984   3.824
 2172SOL    MW4 8720   4.468   1.966   3.859
 2173SOL     OW 8721   0.243   2.072   3.804
 2173SOL    HW2 8722   0.254   2.156   3.849
 2173SOL    HW3 8723   0.149   2.054   3.810
 2173SOL    MW4 8724   0.232   2.081   3.811
 2174SOL     OW 8725   0.222   2.316   3.911
 2174SOL    HW2 8726   0.214   2.325   4.006
 2174SOL    HW3 8727   0.137   2.345   3.877
 2174SOL    MW4 8728   0.209   2.321   3.919
 2175SOL     OW 8729   4.462   2.379   3.803
 2175SOL    HW2 8730   4.383   2.335   3.836
 2175SOL    HW3 8731   4.452   2.470   3.832
 2175SOL    MW4 8732   4.450   2.385   3.811
 2176SOL     OW 8733   4.456   2.637   3.900
 2176SOL    HW2 8734   4.452   2.665   3.992
 2176SOL    HW3 8735   4.537   2.675   3.867
 2176SOL    MW4 8736   4.466   2.646   3.908
 2177SOL     OW 8737   0.188   2.761   3.803
 2177SOL    HW2 8738   0.277   2.742   3.833
 2177SOL    HW3 8739   0.199   2.781   3.710
 2177SOL    MW4 8740   0.201   2.761   3.795
 2178SOL     OW 8741   0.234   3.028   3.882
 2178SOL    HW2 8742   0.215   3.038   3.975
 2178SOL    HW3 8743   0.203   2.940   3.861
 2178SOL    MW4 8744   0.227   3.017   3.892
 2179SOL     OW 8745   0.062   3.221   3.791
 2179SOL    HW2 8746   0.125   3.155   3.820
 2179SOL    HW3 8747   0.045   3.199   3.699
 2179SOL    MW4 8748   0.068   3.210   3.782
 2180SOL     OW 8749   0.046   3.479   3.863
 2180SOL    HW2 8750   0.118   3.524   3.820
 2180SOL    HW3 8751   0.062   3.386   3.845
 2180SOL    MW4 8752   0.058   3.473   3.855
 2181SOL     OW 8753   0.262   3.614   3.754
 2181SOL    HW2 8754   0.331   3.556   3.786
 2181SOL    HW3 8755   0.285   3.700   3.791
 2181SOL    MW4 8756   0.274   3.618   3.763
 2182SOL     OW 8757   0.261   3.896   3.829
 2182SOL    HW2 8758   0.233   3.901   3.920
 2182SOL    HW3 8759   0.337   3.954   3.824
 2182SOL    MW4 8760   0.267   3.904   3.840
 2183SOL     OW 8761   0.025   4.024   3.719
 2183SOL    HW2 8762  -0.049   3.975   3.755
 2183SOL    HW3 8763   0.102   3.988   3.763
 2183SOL    MW4 8764   0.025   4.013   3.730
 2184SOL     OW 8765   4.469   4.224   3.880
 2184SOL    HW2 8766   4.536   4.291   3.863
 2184SOL    HW3 8767   4.492   4.152   3.821
 2184SOL    MW4 8768   4.481   4.223   3.870
 2185SOL     OW 8769   0.184   4.382   3.818
 2185SOL    HW2 8770   0.267   4.344   3.847
 2185SOL    HW3 8771   0.197   4.477   3.826
 2185SOL    MW4 8772   0.197   4.390   3.823
 2186SOL     OW 8773   0.684   4.657   3.891
 2186SOL    HW2 8774   0.660   4.574   3.850
 2186SOL    HW3 8775   0.615   4.718   3.864
 2186SOL    MW4 8776   0.672   4.654   3.882
 2187SOL     OW 8777   0.458   0.102   3.794
 2187SOL    HW2 8778   0.469   0.184   3.843
 2187SOL    HW3 8779   0.377   0.065   3.828
 2187SOL    MW4 8780   0.449   0.108   3.805
 2188SOL     OW 8781   0.449   0.363   3.907
 2188SOL    HW2 8782   0.506   0.430   3.869
 2188SOL    HW3 8783   0.360   0.398   3.895
 2188SOL    MW4 8784   0.445   0.377   3.901
 2189SOL     OW 8785   0.649   0.513   3.799
 2189SOL    HW2 8786   0.720   0.458   3.834
 2189SOL    HW3 8787   0.647   0.589   3.858
 2189SOL    MW4 8788   0.658   0.516   3.811
 2190SOL     OW 8789   0.653   0.743   3.930
 2190SOL    HW2 8790   0.731   0.790   3.901
 2190SOL    HW3 8791   0.581   0.786   3.885
 2190SOL    MW4 8792   0.654   0.755   3.921
 2191SOL     OW 8793   0.430   0.853   3.809
 2191SOL    HW2 8794   0.421   0.941   3.846
 2191SOL    HW3 8795   0.349   0.809   3.833
 2191SOL    MW4 8796   0.418   0.859   3.817
 2192SOL     OW 8797   0.441   1.121   3.905
 2192SOL    HW2 8798   0.520   1.169   3.880
 2192SOL    HW3 8799   0.369   1.180   3.883
 2192SOL    MW4 8800   0.442   1.135   3.899
 2193SOL     OW 8801   0.672   1.269   3.803
 2193SOL    HW2 8802   0.759   1.232   3.814
 2193SOL    HW3 8803   0.662   1.279   3.709
 2193SOL    MW4 8804   0.682   1.265   3.792
 2194SOL     OW 8805   0.667   1.533   3.905
 2194SOL    HW2 8806   0.748   1.577   3.878
 2194SOL    HW3 8807   0.667   1.450   3.856
 2194SOL    MW4 8808   0.678   1.528   3.895
 2195SOL     OW 8809   0.447   1.666   3.791
 2195SOL    HW2 8810   0.517   1.615   3.832
 2195SOL    HW3 8811   0.367   1.638   3.835
 2195SOL    MW4 8812   0.446   1.656   3.802
 2196SOL     OW 8813   0.464   1.937   3.886
 2196SOL    HW2 8814   0.461   1.846   3.857
 2196SOL    HW3 8815   0.380   1.974   3.857
 2196SOL    MW4 8816   0.452   1.930   3.878
 2197SOL     OW 8817   0.708   2.041   3.761
 2197SOL    HW2 8818   0.701   2.130   3.795
 2197SOL    HW3 8819   0.623   2.002   3.780
 2197SOL    MW4 8820   0.696   2.048   3.768
 2198SOL     OW 8821   0.642   2.297   3.853
 2198SOL    HW2 8822   0.711   2.363   3.843
 2198SOL    HW3 8823   0.563   2.339   3.819
 2198SOL    MW4 8824   0.641   2.311   3.847
 2199SOL     OW 8825   0.419   2.458   3.779
 2199SOL    HW2 8826   0.353   2.402   3.820
 2199SOL    HW3 8827   0.403   2.447   3.685
 2199SOL    MW4 8828   0.408   2.449   3.772
 2200SOL     OW 8829   0.435   2.715   3.920
 2200SOL    HW2 8830   0.513   2.757   3.883
 2200SOL    HW3 8831   0.436   2.626   3.884
 2200SOL    MW4 8832   0.445   2.709   3.910
 2201SOL     OW 8833   0.648   2.835   3.800
 2201SOL    HW2 8834   0.733   2.796   3.820
 2201SOL    HW3 8835   0.645   2.840   3.704
 2201SOL    MW4 8836   0.659   2.831   3.790
 2202SOL     OW 8837   0.681   3.085   3.882
 2202SOL    HW2 8838   0.692   3.082   3.977
 2202SOL    HW3 8839   0.641   3.001   3.861
 2202SOL    MW4 8840   0.677   3.074   3.892
 2203SOL     OW 8841   0.435   3.203   3.807
 2203SOL    HW2 8842   0.519   3.165   3.833
 2203SOL    HW3 8843   0.369   3.144   3.842
 2203SOL    MW4 8844   0.437   3.190   3.815
 2204SOL     OW 8845   0.483   3.456   3.912
 2204SOL    HW2 8846   0.565   3.488   3.874
 2204SOL    HW3 8847   0.480   3.364   3.887
 2204SOL    MW4 8848   0.493   3.448   3.903
 2205SOL     OW 8849   0.702   3.579   3.797
 2205SOL    HW2 8850   0.696   3.672   3.815
 2205SOL    HW3 8851   0.678   3.571   3.704
 2205SOL    MW4 8852   0.698   3.590   3.787
 2206SOL     OW 8853   0.685   3.858   3.846
 2206SOL    HW2 8854   0.686   3.846   3.941
 2206SOL    HW3 8855   0.760   3.915   3.828
 2206SOL    MW4 8856   0.695   3.864   3.856
 2207SOL     OW 8857   0.473   4.047   3.803
 2207SOL    HW2 8858   0.547   3.996   3.835
 2207SOL    HW3 8859   0.468   4.026   3.709
 2207SOL    MW4 8860   0.482   4.038   3.795
 2208SOL     OW 8861   0.425   4.300   3.908
 2208SOL    HW2 8862   0.485   4.354   3.856
 2208SOL    HW3 8863   0.443   4.211   3.881
 2208SOL    MW4 8864   0.435   4.296   3.898
 2209SOL     OW 8865   0.667   4.407   3.797
 2209SOL    HW2 8866   0.749   4.365   3.822
 2209SOL    HW3 8867   0.667   4.407   3.701
 2209SOL    MW4 8868   0.678   4.402   3.788
 2210SOL     OW 8869   1.116   4.646   3.873
 2210SOL    HW2 8870   1.187   4.702   3.844
 2210SOL    HW3 8871   1.125   4.566   3.821
 2210SOL    MW4 8872   1.126   4.642   3.862
 2211SOL     OW 8873   0.897   0.112   3.771
 2211SOL    HW2 8874   0.972   0.076   3.818
 2211SOL    HW3 8875   0.822   0.066   3.809
 2211SOL    MW4 8876   0.897   0.101   3.782
 2212SOL     OW 8877   0.864   0.364   3.908
 2212SOL    HW2 8878   0.866   0.359   4.004
 2212SOL    HW3 8879   0.882   0.274   3.879
 2212SOL    MW4 8880   0.867   0.351   3.917
 2213SOL     OW 8881   1.076   0.513   3.788
 2213SOL    HW2 8882   1.156   0.464   3.806
 2213SOL    HW3 8883   1.008   0.467   3.837
 2213SOL    MW4 8884   1.078   0.500   3.797
 2214SOL     OW 8885   1.101   0.766   3.928
 2214SOL    HW2 8886   1.116   0.748   4.021
 2214SOL    HW3 8887   1.097   0.680   3.887
 2214SOL    MW4 8888   1.102   0.752   3.935
 2215SOL     OW 8889   0.874   0.882   3.837
 2215SOL    HW2 8890   0.958   0.843   3.861
 2215SOL    HW3 8891   0.864   0.864   3.744
 2215SOL    MW4 8892   0.884   0.875   3.828
 2216SOL     OW 8893   0.904   1.164   3.881
 2216SOL    HW2 8894   0.918   1.182   3.974
 2216SOL    HW3 8895   0.884   1.070   3.877
 2216SOL    MW4 8896   0.903   1.154   3.892
 2217SOL     OW 8897   1.133   1.255   3.771
 2217SOL    HW2 8898   1.127   1.346   3.799
 2217SOL    HW3 8899   1.049   1.216   3.798
 2217SOL    MW4 8900   1.121   1.261   3.778
 2218SOL     OW 8901   1.121   1.521   3.839
 2218SOL    HW2 8902   1.134   1.524   3.934
 2218SOL    HW3 8903   1.203   1.556   3.803
 2218SOL    MW4 8904   1.134   1.526   3.847
 2219SOL     OW 8905   0.882   1.666   3.751
 2219SOL    HW2 8906   0.949   1.598   3.755
 2219SOL    HW3 8907   0.870   1.682   3.657
 2219SOL    MW4 8908   0.889   1.659   3.739
 2220SOL     OW 8909   0.913   1.910   3.862
 2220SOL    HW2 8910   0.913   1.829   3.812
 2220SOL    HW3 8911   0.831   1.953   3.836
 2220SOL    MW4 8912   0.902   1.905   3.852
 2221SOL     OW 8913   1.152   2.042   3.836
 2221SOL    HW2 8914   1.074   1.993   3.860
 2221SOL    HW3 8915   1.146   2.051   3.741
 2221SOL    MW4 8916   1.141   2.037   3.827
 2222SOL     OW 8917   1.124   2.315   3.892
 2222SOL    HW2 8918   1.141   2.341   3.982
 2222SOL    HW3 8919   1.142   2.221   3.890
 2222SOL    MW4 8920   1.128   2.306   3.903
 2223SOL     OW 8921   0.876   2.423   3.834
 2223SOL    HW2 8922   0.891   2.516   3.852
 2223SOL    HW3 8923   0.963   2.383   3.841
 2223SOL    MW4 8924   0.890   2.430   3.838
 2224SOL     OW 8925   0.879   2.696   3.862
 2224SOL    HW2 8926   0.896   2.727   3.951
 2224SOL    HW3 8927   0.945   2.739   3.808
 2224SOL    MW4 8928   0.890   2.705   3.867
 2225SOL     OW 8929   1.092   2.821   3.741
 2225SOL    HW2 8930   1.167   2.776   3.782
 2225SOL    HW3 8931   1.107   2.913   3.759
 2225SOL    MW4 8932   1.104   2.827   3.749
 2226SOL     OW 8933   1.118   3.077   3.844
 2226SOL    HW2 8934   1.191   3.127   3.807
 2226SOL    HW3 8935   1.040   3.130   3.823
 2226SOL    MW4 8936   1.117   3.091   3.836
 2227SOL     OW 8937   0.893   3.230   3.789
 2227SOL    HW2 8938   0.814   3.187   3.823
 2227SOL    HW3 8939   0.883   3.227   3.694
 2227SOL    MW4 8940   0.882   3.224   3.781
 2228SOL     OW 8941   0.946   3.483   3.903
 2228SOL    HW2 8942   0.941   3.401   3.855
 2228SOL    HW3 8943   0.878   3.538   3.864
 2228SOL    MW4 8944   0.937   3.480   3.892
 2229SOL     OW 8945   1.148   3.643   3.795
 2229SOL    HW2 8946   1.114   3.731   3.813
 2229SOL    HW3 8947   1.093   3.585   3.848
 2229SOL    MW4 8948   1.136   3.647   3.805
 2230SOL     OW 8949   1.063   3.897   3.847
 2230SOL    HW2 8950   1.065   3.895   3.942
 2230SOL    HW3 8951   1.148   3.934   3.822
 2230SOL    MW4 8952   1.075   3.902   3.856
 2231SOL     OW 8953   0.870   4.037   3.722
 2231SOL    HW2 8954   0.954   3.998   3.746
 2231SOL    HW3 8955   0.867   4.031   3.626
 2231SOL    MW4 8956   0.880   4.031   3.712
 2232SOL     OW 8957   0.907   4.273   3.837
 2232SOL    HW2 8958   0.912   4.258   3.931
 2232SOL    HW3 8959   0.890   4.187   3.799
 2232SOL    MW4 8960   0.906   4.260   3.844
 2233SOL     OW 8961   1.129   4.395   3.758
 2233SOL    HW2 8962   1.044   4.353   3.767
 2233SOL    HW3 8963   1.146   4.395   3.664
 2233SOL    MW4 8964   1.120   4.389   3.747
 2234SOL     OW 8965   1.576   4.665   3.918
 2234SOL    HW2 8966   1.594   4.651   4.011
 2234SOL    HW3 8967   1.581   4.577   3.880
 2234SOL    MW4 8968   1.579   4.651   3.926
 2235SOL     OW 8969   1.353   0.110   3.789
 2235SOL    HW2 8970   1.344   0.203   3.813
 2235SOL    HW3 8971   1.419   0.076   3.849
 2235SOL    MW4 8972   1.360   0.118   3.800
 2236SOL     OW 8973   1.322   0.372   3.878
 2236SOL    HW2 8974   1.323   0.369   3.974
 2236SOL    HW3 8975   1.406   0.410   3.854
 2236SOL    MW4 8976   1.333   0.376   3.888
 2237SOL     OW 8977   1.539   0.512   3.815
 2237SOL    HW2 8978   1.621   0.469   3.837
 2237SOL    HW3 8979   1.544   0.597   3.859
 2237SOL    MW4 8980   1.551   0.518   3.824
 2238SOL     OW 8981   1.570   0.785   3.945
 2238SOL    HW2 8982   1.644   0.818   3.894
 2238SOL    HW3 8983   1.493   0.825   3.904
 2238SOL    MW4 8984   1.569   0.795   3.932
 2239SOL     OW 8985   1.330   0.882   3.829
 2239SOL    HW2 8986   1.329   0.974   3.855
 2239SOL    HW3 8987   1.249   0.846   3.863
 2239SOL    MW4 8988   1.320   0.890   3.837
 2240SOL     OW 8989   1.359   1.144   3.892
 2240SOL    HW2 8990   1.443   1.190   3.884
 2240SOL    HW3 8991   1.295   1.203   3.854
 2240SOL    MW4 8992   1.362   1.158   3.886
 2241SOL     OW 8993   1.575   1.275   3.803
 2241SOL    HW2 8994   1.653   1.226   3.830
 2241SOL    HW3 8995   1.580   1.357   3.851
 2241SOL    MW4 8996   1.586   1.279   3.813
 2242SOL     OW 8997   1.587   1.529   3.920
 2242SOL    HW2 8998   1.566   1.533   4.013
 2242SOL    HW3 8999   1.659   1.591   3.909
 2242SOL    MW4 9000   1.594   1.537   3.931
 2243SOL     OW 9001   1.368   1.635   3.740
 2243SOL    HW2 9002   1.355   1.719   3.785
 2243SOL    HW3 9003   1.440   1.593   3.788
 2243SOL    MW4 9004   1.376   1.640   3.752
 2244SOL     OW 9005   1.350   1.871   3.884
 2244SOL    HW2 9006   1.366   1.871   3.978
 2244SOL    HW3 9007   1.277   1.932   3.871
 2244SOL    MW4 9008   1.343   1.879   3.894
 2245SOL     OW 9009   1.579   2.040   3.794
 2245SOL    HW2 9010   1.508   1.992   3.836
 2245SOL    HW3 9011   1.573   2.017   3.701
 2245SOL    MW4 9012   1.569   2.031   3.787
 2246SOL     OW 9013   1.571   2.316   3.889
 2246SOL    HW2 9014   1.652   2.354   3.855
 2246SOL    HW3 9015   1.570   2.228   3.851
 2246SOL    MW4 9016   1.582   2.309   3.879
 2247SOL     OW 9017   1.337   2.445   3.780
 2247SOL    HW2 9018   1.408   2.406   3.830
 2247SOL    HW3 9019   1.257   2.407   3.817
 2247SOL    MW4 9020   1.336   2.435   3.791
 2248SOL     OW 9021   1.315   2.700   3.873
 2248SOL    HW2 9022   1.321   2.698   3.969
 2248SOL    HW3 9023   1.306   2.608   3.848
 2248SOL    MW4 9024   1.314   2.687   3.882
 2249SOL     OW 9025   1.545   2.852   3.785
 2249SOL    HW2 9026   1.465   2.803   3.807
 2249SOL    HW3 9027   1.540   2.863   3.690
 2249SOL    MW4 9028   1.533   2.847   3.775
 2250SOL     OW 9029   1.571   3.120   3.876
 2250SOL    HW2 9030   1.574   3.124   3.972
 2250SOL    HW3 9031   1.579   3.027   3.855
 2250SOL    MW4 9032   1.572   3.108   3.886
 2251SOL     OW 9033   1.356   3.221   3.751
 2251SOL    HW2 9034   1.367   3.313   3.776
 2251SOL    HW3 9035   1.427   3.175   3.796
 2251SOL    MW4 9036   1.367   3.227   3.760
 2252SOL     OW 9037   1.364   3.485   3.840
 2252SOL    HW2 9038   1.428   3.549   3.809
 2252SOL    HW3 9039   1.279   3.525   3.821
 2252SOL    MW4 9040   1.361   3.499   3.834
 2253SOL     OW 9041   1.577   3.648   3.758
 2253SOL    HW2 9042   1.646   3.598   3.800
 2253SOL    HW3 9043   1.587   3.737   3.792
 2253SOL    MW4 9044   1.587   3.653   3.768
 2254SOL     OW 9045   1.567   3.901   3.887
 2254SOL    HW2 9046   1.565   3.883   3.981
 2254SOL    HW3 9047   1.492   3.959   3.872
 2254SOL    MW4 9048   1.557   3.907   3.898
 2255SOL     OW 9049   1.328   4.025   3.836
 2255SOL    HW2 9050   1.345   4.116   3.859
 2255SOL    HW3 9051   1.346   4.020   3.742
 2255SOL    MW4 9052   1.332   4.036   3.826
 2256SOL     OW 9053   1.353   4.299   3.907
 2256SOL    HW2 9054   1.418   4.334   3.846
 2256SOL    HW3 9055   1.270   4.334   3.876
 2256SOL    MW4 9056   1.351   4.308   3.895
 2257SOL     OW 9057   1.589   4.416   3.772
 2257SOL    HW2 9058   1.670   4.381   3.810
 2257SOL    HW3 9059   1.599   4.401   3.678
 2257SOL    MW4 9060   1.601   4.409   3.764
 2258SOL     OW 9061   2.015   4.659   3.889
 2258SOL    HW2 9062   2.098   4.702   3.872
 2258SOL    HW3 9063   2.024   4.572   3.849
 2258SOL    MW4 9064   2.027   4.653   3.881
 2259SOL     OW 9065   1.792   0.125   3.791
 2259SOL    HW2 9066   1.874   0.080   3.812
 2259SOL    HW3 9067   1.724   0.074   3.837
 2259SOL    MW4 9068   1.794   0.112   3.800
 2260SOL     OW 9069   1.776   0.394   3.887
 2260SOL    HW2 9070   1.784   0.386   3.982
 2260SOL    HW3 9071   1.787   0.304   3.855
 2260SOL    MW4 9072   1.779   0.381   3.895
 2261SOL     OW 9073   2.032   0.505   3.819
 2261SOL    HW2 9074   1.946   0.469   3.841
 2261SOL    HW3 9075   2.024   0.533   3.728
 2261SOL    MW4 9076   2.020   0.504   3.810
 2262SOL     OW 9077   2.031   0.788   3.900
 2262SOL    HW2 9078   2.021   0.791   3.995
 2262SOL    HW3 9079   2.030   0.695   3.878
 2262SOL    MW4 9080   2.030   0.776   3.909
 2263SOL     OW 9081   1.785   0.896   3.823
 2263SOL    HW2 9082   1.875   0.864   3.835
 2263SOL    HW3 9083   1.771   0.892   3.729
 2263SOL    MW4 9084   1.795   0.891   3.812
 2264SOL     OW 9085   1.840   1.151   3.911
 2264SOL    HW2 9086   1.843   1.153   4.007
 2264SOL    HW3 9087   1.828   1.059   3.890
 2264SOL    MW4 9088   1.839   1.139   3.921
 2265SOL     OW 9089   2.044   1.275   3.790
 2265SOL    HW2 9090   2.121   1.232   3.827
 2265SOL    HW3 9091   1.970   1.233   3.834
 2265SOL    MW4 9092   2.045   1.264   3.801
 2266SOL     OW 9093   2.071   1.534   3.897
 2266SOL    HW2 9094   1.992   1.584   3.879
 2266SOL    HW3 9095   2.059   1.452   3.848
 2266SOL    MW4 9096   2.059   1.530   3.888
 2267SOL     OW 9097   1.834   1.655   3.827
 2267SOL    HW2 9098   1.831   1.748   3.852
 2267SOL    HW3 9099   1.807   1.653   3.735
 2267SOL    MW4 9100   1.830   1.667   3.818
 2268SOL     OW 9101   1.809   1.924   3.878
 2268SOL    HW2 9102   1.821   1.932   3.972
 2268SOL    HW3 9103   1.722   1.959   3.861
 2268SOL    MW4 9104   1.799   1.930   3.888
 2269SOL     OW 9105   2.005   2.080   3.789
 2269SOL    HW2 9106   1.925   2.031   3.809
 2269SOL    HW3 9107   2.012   2.078   3.694
 2269SOL    MW4 9108   1.995   2.073   3.779
 2270SOL     OW 9109   1.985   2.334   3.925
 2270SOL    HW2 9110   1.915   2.390   3.891
 2270SOL    HW3 9111   1.973   2.251   3.879
 2270SOL    MW4 9112   1.974   2.330   3.914
 2271SOL     OW 9113   1.775   2.484   3.793
 2271SOL    HW2 9114   1.764   2.578   3.808
 2271SOL    HW3 9115   1.790   2.476   3.699
 2271SOL    MW4 9116   1.775   2.495   3.783
 2272SOL     OW 9117   1.821   2.763   3.851
 2272SOL    HW2 9118   1.818   2.744   3.944
 2272SOL    HW3 9119   1.732   2.789   3.828
 2272SOL    MW4 9120   1.809   2.764   3.860
 2273SOL     OW 9121   2.059   2.893   3.761
 2273SOL    HW2 9122   2.140   2.864   3.803
 2273SOL    HW3 9123   1.992   2.836   3.798
 2273SOL    MW4 9124   2.061   2.881   3.772
 2274SOL     OW 9125   2.016   3.129   3.885
 2274SOL    HW2 9126   2.015   3.046   3.838
 2274SOL    HW3 9127   2.089   3.178   3.848
 2274SOL    MW4 9128   2.025   3.125   3.874
 2275SOL     OW 9129   1.789   3.252   3.785
 2275SOL    HW2 9130   1.866   3.211   3.824
 2275SOL    HW3 9131   1.715   3.199   3.815
 2275SOL    MW4 9132   1.789   3.239   3.794
 2276SOL     OW 9133   1.778   3.508   3.884
 2276SOL    HW2 9134   1.860   3.552   3.860
 2276SOL    HW3 9135   1.787   3.420   3.847
 2276SOL    MW4 9136   1.790   3.502   3.876
 2277SOL     OW 9137   2.025   3.637   3.789
 2277SOL    HW2 9138   2.102   3.584   3.808
 2277SOL    HW3 9139   2.020   3.640   3.693
 2277SOL    MW4 9140   2.035   3.631   3.779
 2278SOL     OW 9141   2.026   3.879   3.907
 2278SOL    HW2 9142   2.096   3.933   3.869
 2278SOL    HW3 9143   2.030   3.798   3.856
 2278SOL    MW4 9144   2.036   3.876   3.895
 2279SOL     OW 9145   1.807   4.017   3.810
 2279SOL    HW2 9146   1.884   3.979   3.852
 2279SOL    HW3 9147   1.733   3.970   3.848
 2279SOL    MW4 9148   1.807   4.006   3.821
 2280SOL     OW 9149   1.819   4.296   3.876
 2280SOL    HW2 9150   1.903   4.331   3.844
 2280SOL    HW3 9151   1.826   4.202   3.862
 2280SOL    MW4 9152   1.831   4.289   3.870
 2281SOL     OW 9153   2.051   4.405   3.761
 2281SOL    HW2 9154   2.124   4.357   3.800
 2281SOL    HW3 9155   2.050   4.376   3.670
 2281SOL    MW4 9156   2.061   4.395   3.754
 2282SOL     OW 9157   2.494   4.661   3.927
 2282SOL    HW2 9158   2.494   4.647   4.022
 2282SOL    HW3 9159   2.577   4.706   3.910
 2282SOL    MW4 9160   2.505   4.665   3.938
 2283SOL     OW 9161   2.253   0.117   3.828
 2283SOL    HW2 9162   2.341   0.083   3.842
 2283SOL    HW3 9163   2.233   0.096   3.737
 2283SOL    MW4 9164   2.262   0.110   3.818
 2284SOL     OW 9165   2.293   0.379   3.884
 2284SOL    HW2 9166   2.271   0.287   3.873
 2284SOL    HW3 9167   2.209   0.425   3.878
 2284SOL    MW4 9168   2.279   0.373   3.882
 2285SOL     OW 9169   2.514   0.505   3.791
 2285SOL    HW2 9170   2.447   0.450   3.832
 2285SOL    HW3 9171   2.498   0.495   3.697
 2285SOL    MW4 9172   2.503   0.496   3.784
 2286SOL     OW 9173   2.501   0.762   3.896
 2286SOL    HW2 9174   2.419   0.805   3.872
 2286SOL    HW3 9175   2.489   0.671   3.868
 2286SOL    MW4 9176   2.488   0.756   3.889
 2287SOL     OW 9177   2.273   0.889   3.815
 2287SOL    HW2 9178   2.190   0.849   3.842
 2287SOL    HW3 9179   2.270   0.887   3.719
 2287SOL    MW4 9180   2.262   0.883   3.806
 2288SOL     OW 9181   2.255   1.149   3.885
 2288SOL    HW2 9182   2.263   1.155   3.980
 2288SOL    HW3 9183   2.251   1.055   3.868
 2288SOL    MW4 9184   2.255   1.137   3.895
 2289SOL     OW 9185   2.481   1.289   3.783
 2289SOL    HW2 9186   2.464   1.383   3.797
 2289SOL    HW3 9187   2.407   1.246   3.825
 2289SOL    MW4 9188   2.469   1.296   3.791
 2290SOL     OW 9189   2.473   1.584   3.829
 2290SOL    HW2 9190   2.549   1.643   3.822
 2290SOL    HW3 9191   2.398   1.639   3.807
 2290SOL    MW4 9192   2.473   1.599   3.825
 2291SOL     OW 9193   2.226   1.744   3.790
 2291SOL    HW2 9194   2.213   1.829   3.832
 2291SOL    HW3 9195   2.185   1.681   3.849
 2291SOL    MW4 9196   2.219   1.747   3.803
 2292SOL     OW 9197   2.229   1.979   3.916
 2292SOL    HW2 9198   2.226   1.961   4.010
 2292SOL    HW3 9199   2.146   2.023   3.897
 2292SOL    MW4 9200   2.218   1.982   3.926
 2293SOL     OW 9201   2.433   2.074   3.778
 2293SOL    HW2 9202   2.434   2.159   3.822
 2293SOL    HW3 9203   2.357   2.029   3.814
 2293SOL    MW4 9204   2.423   2.079   3.788
 2294SOL     OW 9205   2.453   2.327   3.858
 2294SOL    HW2 9206   2.511   2.360   3.789
 2294SOL    HW3 9207   2.371   2.376   3.846
 2294SOL    MW4 9208   2.450   2.338   3.847
 2295SOL     OW 9209   2.204   2.432   3.798
 2295SOL    HW2 9210   2.118   2.407   3.830
 2295SOL    HW3 9211   2.191   2.453   3.706
 2295SOL    MW4 9212   2.191   2.432   3.790
 2296SOL     OW 9213   2.246   2.710   3.871
 2296SOL    HW2 9214   2.255   2.710   3.967
 2296SOL    HW3 9215   2.220   2.621   3.850
 2296SOL    MW4 9216   2.244   2.698   3.881
 2297SOL     OW 9217   2.454   2.877   3.761
 2297SOL    HW2 9218   2.387   2.813   3.786
 2297SOL    HW3 9219   2.451   2.880   3.666
 2297SOL    MW4 9220   2.445   2.869   3.752
 2298SOL     OW 9221   2.515   3.110   3.910
 2298SOL    HW2 9222   2.512   3.083   4.002
 2298SOL    HW3 9223   2.494   3.031   3.861
 2298SOL    MW4 9224   2.512   3.096   3.916
 2299SOL     OW 9225   2.294   3.246   3.759
 2299SOL    HW2 9226   2.272   3.333   3.792
 2299SOL    HW3 9227   2.364   3.216   3.817
 2299SOL    MW4 9228   2.300   3.253   3.771
 2300SOL     OW 9229   2.263   3.499   3.832
 2300SOL    HW2 9230   2.264   3.498   3.927
 2300SOL    HW3 9231   2.345   3.540   3.806
 2300SOL    MW4 9232   2.274   3.504   3.841
 2301SOL     OW 9233   2.487   3.627   3.766
 2301SOL    HW2 9234   2.550   3.563   3.799
 2301SOL    HW3 9235   2.518   3.648   3.678
 2301SOL    MW4 9236   2.500   3.621   3.759
 2302SOL     OW 9237   2.486   3.867   3.909
 2302SOL    HW2 9238   2.547   3.919   3.857
 2302SOL    HW3 9239   2.493   3.778   3.873
 2302SOL    MW4 9240   2.495   3.862   3.897
 2303SOL     OW 9241   2.253   4.014   3.788
 2303SOL    HW2 9242   2.328   3.960   3.811
 2303SOL    HW3 9243   2.262   4.029   3.694
 2303SOL    MW4 9244   2.264   4.009   3.779
 2304SOL     OW 9245   2.273   4.279   3.873
 2304SOL    HW2 9246   2.272   4.276   3.968
 2304SOL    HW3 9247   2.270   4.187   3.845
 2304SOL    MW4 9248   2.272   4.267   3.882
 2305SOL     OW 9249   2.504   4.402   3.819
 2305SOL    HW2 9250   2.423   4.356   3.841
 2305SOL    HW3 9251   2.495   4.488   3.861
 2305SOL    MW4 9252   2.492   4.408   3.827
 2306SOL     OW 9253   2.950   0.007   3.868
 2306SOL    HW2 9254   2.954  -0.015   3.961
 2306SOL    HW3 9255   3.036   0.044   3.848
 2306SOL    MW4 9256   2.961   0.009   3.878
 2307SOL     OW 9257   2.699   0.142   3.796
 2307SOL    HW2 9258   2.782   0.102   3.820
 2307SOL    HW3 9259   2.701   0.144   3.700
 2307SOL    MW4 9260   2.710   0.137   3.786
 2308SOL     OW 9261   2.737   0.392   3.900
 2308SOL    HW2 9262   2.733   0.301   3.871
 2308SOL    HW3 9263   2.654   0.430   3.872
 2308SOL    MW4 9264   2.725   0.385   3.892
 2309SOL     OW 9265   2.935   0.528   3.757
 2309SOL    HW2 9266   3.022   0.495   3.779
 2309SOL    HW3 9267   2.875   0.473   3.808
 2309SOL    MW4 9268   2.938   0.516   3.767
 2310SOL     OW 9269   2.938   0.766   3.918
 2310SOL    HW2 9270   3.016   0.813   3.887
 2310SOL    HW3 9271   2.941   0.682   3.872
 2310SOL    MW4 9272   2.949   0.761   3.908
 2311SOL     OW 9273   2.727   0.893   3.789
 2311SOL    HW2 9274   2.794   0.844   3.836
 2311SOL    HW3 9275   2.646   0.876   3.838
 2311SOL    MW4 9276   2.725   0.884   3.801
 2312SOL     OW 9277   2.721   1.166   3.887
 2312SOL    HW2 9278   2.733   1.073   3.869
 2312SOL    HW3 9279   2.634   1.186   3.852
 2312SOL    MW4 9280   2.711   1.156   3.880
 2313SOL     OW 9281   2.935   1.289   3.784
 2313SOL    HW2 9282   2.933   1.377   3.821
 2313SOL    HW3 9283   2.856   1.246   3.816
 2313SOL    MW4 9284   2.925   1.295   3.793
 2314SOL     OW 9285   2.931   1.553   3.883
 2314SOL    HW2 9286   2.925   1.538   3.978
 2314SOL    HW3 9287   3.012   1.602   3.872
 2314SOL    MW4 9288   2.941   1.557   3.894
 2315SOL     OW 9289   2.717   1.714   3.792
 2315SOL    HW2 9290   2.789   1.656   3.818
 2315SOL    HW3 9291   2.714   1.707   3.696
 2315SOL    MW4 9292   2.726   1.705   3.783
 2316SOL     OW 9293   2.676   1.970   3.901
 2316SOL    HW2 9294   2.691   1.878   3.878
 2316SOL    HW3 9295   2.596   1.994   3.853
 2316SOL    MW4 9296   2.667   1.961   3.891
 2317SOL     OW 9297   2.894   2.088   3.759
 2317SOL    HW2 9298   2.889   2.180   3.783
 2317SOL    HW3 9299   2.818   2.048   3.803
 2317SOL    MW4 9300   2.883   2.095   3.768
 2318SOL     OW 9301   2.904   2.373   3.847
 2318SOL    HW2 9302   2.898   2.363   3.942
 2318SOL    HW3 9303   2.997   2.388   3.831
 2318SOL    MW4 9304   2.916   2.373   3.858
 2319SOL     OW 9305   2.669   2.445   3.716
 2319SOL    HW2 9306   2.674   2.534   3.751
 2319SOL    HW3 9307   2.750   2.404   3.745
 2319SOL    MW4 9308   2.681   2.452   3.724
 2320SOL     OW 9309   2.683   2.733   3.794
 2320SOL    HW2 9310   2.700   2.745   3.888
 2320SOL    HW3 9311   2.602   2.782   3.778
 2320SOL    MW4 9312   2.674   2.741   3.805
 2321SOL     OW 9313   2.930   2.844   3.722
 2321SOL    HW2 9314   2.941   2.910   3.791
 2321SOL    HW3 9315   2.842   2.808   3.737
 2321SOL    MW4 9316   2.920   2.848   3.733
 2322SOL     OW 9317   2.939   3.062   3.901
 2322SOL    HW2 9318   3.015   3.119   3.891
 2322SOL    HW3 9319   2.868   3.107   3.856
 2322SOL    MW4 9320   2.939   3.075   3.894
 2323SOL     OW 9321   2.735   3.188   3.774
 2323SOL    HW2 9322   2.725   3.279   3.800
 2323SOL    HW3 9323   2.658   3.144   3.812
 2323SOL    MW4 9324   2.723   3.194   3.782
 2324SOL     OW 9325   2.729   3.478   3.824
 2324SOL    HW2 9326   2.734   3.482   3.919
 2324SOL    HW3 9327   2.800   3.535   3.794
 2324SOL    MW4 9328   2.739   3.486   3.832
 2325SOL     OW 9329   2.958   3.615   3.744
 2325SOL    HW2 9330   3.028   3.561   3.780
 2325SOL    HW3 9331   2.969   3.609   3.649
 2325SOL    MW4 9332   2.969   3.607   3.737
 2326SOL     OW 9333   2.904   3.869   3.875
 2326SOL    HW2 9334   2.923   3.858   3.968
 2326SOL    HW3 9335   2.935   3.787   3.835
 2326SOL    MW4 9336   2.911   3.857   3.882
 2327SOL     OW 9337   2.688   4.006   3.758
 2327SOL    HW2 9338   2.699   4.094   3.795
 2327SOL    HW3 9339   2.761   3.956   3.793
 2327SOL    MW4 9340   2.699   4.011   3.768
 2328SOL     OW 9341   2.722   4.251   3.898
 2328SOL    HW2 9342   2.786   4.306   3.853
 2328SOL    HW3 9343   2.638   4.295   3.883
 2328SOL    MW4 9344   2.720   4.264   3.890
 2329SOL     OW 9345   2.940   4.409   3.781
 2329SOL    HW2 9346   3.011   4.368   3.831
 2329SOL    HW3 9347   2.940   4.500   3.810
 2329SOL    MW4 9348   2.949   4.416   3.791
 2330SOL     OW 9349   3.378   4.648   3.879
 2330SOL    HW2 9350   3.382   4.631   3.973
 2330SOL    HW3 9351   3.457   4.699   3.860
 2330SOL    MW4 9352   3.389   4.652   3.889
 2331SOL     OW 9353   3.174   0.146   3.784
 2331SOL    HW2 9354   3.243   0.093   3.822
 2331SOL    HW3 9355   3.182   0.134   3.689
 2331SOL    MW4 9356   3.184   0.138   3.776
 2332SOL     OW 9357   3.158   0.413   3.880
 2332SOL    HW2 9358   3.183   0.411   3.972
 2332SOL    HW3 9359   3.159   0.321   3.853
 2332SOL    MW4 9360   3.161   0.400   3.889
 2333SOL     OW 9361   3.403   0.509   3.738
 2333SOL    HW2 9362   3.477   0.467   3.783
 2333SOL    HW3 9363   3.326   0.469   3.777
 2333SOL    MW4 9364   3.403   0.498   3.749
 2334SOL     OW 9365   3.388   0.766   3.864
 2334SOL    HW2 9366   3.390   0.760   3.960
 2334SOL    HW3 9367   3.404   0.676   3.834
 2334SOL    MW4 9368   3.390   0.753   3.873
 2335SOL     OW 9369   3.179   0.913   3.796
 2335SOL    HW2 9370   3.255   0.858   3.816
 2335SOL    HW3 9371   3.159   0.893   3.705
 2335SOL    MW4 9372   3.187   0.903   3.787
 2336SOL     OW 9373   3.182   1.158   3.917
 2336SOL    HW2 9374   3.183   1.067   3.885
 2336SOL    HW3 9375   3.104   1.197   3.876
 2336SOL    MW4 9376   3.172   1.151   3.907
 2337SOL     OW 9377   3.361   1.291   3.783
 2337SOL    HW2 9378   3.280   1.252   3.816
 2337SOL    HW3 9379   3.353   1.285   3.687
 2337SOL    MW4 9380   3.349   1.285   3.774
 2338SOL     OW 9381   3.392   1.550   3.882
 2338SOL    HW2 9382   3.318   1.605   3.857
 2338SOL    HW3 9383   3.372   1.465   3.843
 2338SOL    MW4 9384   3.379   1.546   3.874
 2339SOL     OW 9385   3.196   1.721   3.802
 2339SOL    HW2 9386   3.190   1.809   3.838
 2339SOL    HW3 9387   3.172   1.731   3.710
 2339SOL    MW4 9388   3.192   1.734   3.794
 2340SOL     OW 9389   3.137   1.999   3.901
 2340SOL    HW2 9390   3.113   1.991   3.993
 2340SOL    HW3 9391   3.056   2.025   3.856
 2340SOL    MW4 9392   3.123   2.001   3.907
 2341SOL     OW 9393   3.387   2.056   3.797
 2341SOL    HW2 9394   3.302   2.028   3.832
 2341SOL    HW3 9395   3.374   2.061   3.703
 2341SOL    MW4 9396   3.374   2.053   3.789
 2342SOL     OW 9397   3.386   2.306   3.892
 2342SOL    HW2 9398   3.318   2.352   3.843
 2342SOL    HW3 9399   3.385   2.217   3.857
 2342SOL    MW4 9400   3.377   2.301   3.881
 2343SOL     OW 9401   3.161   2.438   3.771
 2343SOL    HW2 9402   3.145   2.528   3.796
 2343SOL    HW3 9403   3.166   2.440   3.675
 2343SOL    MW4 9404   3.160   2.450   3.762
 2344SOL     OW 9405   3.132   2.695   3.847
 2344SOL    HW2 9406   3.110   2.682   3.939
 2344SOL    HW3 9407   3.058   2.744   3.811
 2344SOL    MW4 9408   3.120   2.700   3.854
 2345SOL     OW 9409   3.394   2.793   3.757
 2345SOL    HW2 9410   3.306   2.759   3.777
 2345SOL    HW3 9411   3.392   2.810   3.663
 2345SOL    MW4 9412   3.382   2.791   3.747
 2346SOL     OW 9413   3.373   3.055   3.861
 2346SOL    HW2 9414   3.447   3.100   3.819
 2346SOL    HW3 9415   3.373   2.967   3.822
 2346SOL    MW4 9416   3.383   3.049   3.851
 2347SOL     OW 9417   3.162   3.234   3.821
 2347SOL    HW2 9418   3.234   3.172   3.836
 2347SOL    HW3 9419   3.154   3.238   3.726
 2347SOL    MW4 9420   3.171   3.226   3.810
 2348SOL     OW 9421   3.164   3.497   3.881
 2348SOL    HW2 9422   3.251   3.533   3.862
 2348SOL    HW3 9423   3.174   3.402   3.867
 2348SOL    MW4 9424   3.177   3.489   3.877
 2349SOL     OW 9425   3.381   3.619   3.775
 2349SOL    HW2 9426   3.350   3.708   3.795
 2349SOL    HW3 9427   3.389   3.617   3.680
 2349SOL    MW4 9428   3.378   3.631   3.765
 2350SOL     OW 9429   3.315   3.865   3.892
 2350SOL    HW2 9430   3.388   3.921   3.865
 2350SOL    HW3 9431   3.239   3.902   3.848
 2350SOL    MW4 9432   3.315   3.877   3.882
 2351SOL     OW 9433   3.113   4.015   3.767
 2351SOL    HW2 9434   3.127   4.096   3.816
 2351SOL    HW3 9435   3.030   3.981   3.801
 2351SOL    MW4 9436   3.104   4.021   3.778
 2352SOL     OW 9437   3.161   4.277   3.913
 2352SOL    HW2 9438   3.178   4.253   4.004
 2352SOL    HW3 9439   3.238   4.327   3.887
 2352SOL    MW4 9440   3.174   4.280   3.921
 2353SOL     OW 9441   3.404   4.376   3.784
 2353SOL    HW2 9442   3.487   4.339   3.814
 2353SOL    HW3 9443   3.405   4.466   3.815
 2353SOL    MW4 9444   3.415   4.383   3.792
 2354SOL     OW 9445   3.826   0.027   3.856
 2354SOL    HW2 9446   3.899   0.078   3.822
 2354SOL    HW3 9447   3.852  -0.064   3.844
 2354SOL    MW4 9448   3.839   0.022   3.850
 2355SOL     OW 9449   3.582   0.129   3.782
 2355SOL    HW2 9450   3.673   0.107   3.805
 2355SOL    HW3 9451   3.585   0.145   3.687
 2355SOL    MW4 9452   3.595   0.128   3.772
 2356SOL     OW 9453   3.607   0.386   3.868
 2356SOL    HW2 9454   3.695   0.410   3.841
 2356SOL    HW3 9455   3.595   0.296   3.836
 2356SOL    MW4 9456   3.617   0.377   3.860
 2357SOL     OW 9457   3.839   0.504   3.758
 2357SOL    HW2 9458   3.920   0.459   3.784
 2357SOL    HW3 9459   3.839   0.586   3.807
 2357SOL    MW4 9460   3.850   0.509   3.768
 2358SOL     OW 9461   3.807   0.767   3.873
 2358SOL    HW2 9462   3.883   0.808   3.833
 2358SOL    HW3 9463   3.732   0.811   3.833
 2358SOL    MW4 9464   3.807   0.778   3.862
 2359SOL     OW 9465   3.615   0.913   3.745
 2359SOL    HW2 9466   3.604   0.998   3.787
 2359SOL    HW3 9467   3.549   0.857   3.785
 2359SOL    MW4 9468   3.605   0.916   3.756
 2360SOL     OW 9469   3.565   1.143   3.883
 2360SOL    HW2 9470   3.638   1.194   3.848
 2360SOL    HW3 9471   3.487   1.185   3.846
 2360SOL    MW4 9472   3.564   1.155   3.874
 2361SOL     OW 9473   3.797   1.244   3.765
 2361SOL    HW2 9474   3.876   1.212   3.808
 2361SOL    HW3 9475   3.791   1.336   3.790
 2361SOL    MW4 9476   3.807   1.252   3.774
 2362SOL     OW 9477   3.780   1.520   3.827
 2362SOL    HW2 9478   3.793   1.523   3.922
 2362SOL    HW3 9479   3.719   1.591   3.809
 2362SOL    MW4 9480   3.774   1.530   3.837
 2363SOL     OW 9481   3.585   1.729   3.776
 2363SOL    HW2 9482   3.519   1.677   3.821
 2363SOL    HW3 9483   3.580   1.701   3.685
 2363SOL    MW4 9484   3.576   1.719   3.770
 2364SOL     OW 9485   3.563   1.913   3.968
 2364SOL    HW2 9486   3.581   1.845   3.903
 2364SOL    HW3 9487   3.495   1.967   3.927
 2364SOL    MW4 9488   3.556   1.911   3.954
 2365SOL     OW 9489   3.782   2.029   3.785
 2365SOL    HW2 9490   3.851   1.964   3.801
 2365SOL    HW3 9491   3.707   1.996   3.834
 2365SOL    MW4 9492   3.781   2.016   3.793
 2366SOL     OW 9493   3.827   2.261   3.910
 2366SOL    HW2 9494   3.753   2.312   3.877
 2366SOL    HW3 9495   3.816   2.174   3.873
 2366SOL    MW4 9496   3.816   2.256   3.901
 2367SOL     OW 9497   3.631   2.399   3.800
 2367SOL    HW2 9498   3.550   2.361   3.834
 2367SOL    HW3 9499   3.622   2.396   3.705
 2367SOL    MW4 9500   3.620   2.394   3.792
 2368SOL     OW 9501   3.622   2.663   3.893
 2368SOL    HW2 9502   3.619   2.575   3.857
 2368SOL    HW3 9503   3.553   2.710   3.846
 2368SOL    MW4 9504   3.612   2.658   3.882
 2369SOL     OW 9505   3.812   2.833   3.777
 2369SOL    HW2 9506   3.885   2.773   3.791
 2369SOL    HW3 9507   3.735   2.786   3.808
 2369SOL    MW4 9508   3.812   2.819   3.783
 2370SOL     OW 9509   3.850   3.088   3.892
 2370SOL    HW2 9510   3.772   3.134   3.860
 2370SOL    HW3 9511   3.849   3.004   3.846
 2370SOL    MW4 9512   3.839   3.083   3.882
 2371SOL     OW 9513   3.616   3.191   3.791
 2371SOL    HW2 9514   3.604   3.274   3.836
 2371SOL    HW3 9515   3.615   3.214   3.698
 2371SOL    MW4 9516   3.614   3.205   3.784
 2372SOL     OW 9517   3.552   3.440   3.917
 2372SOL    HW2 9518   3.576   3.481   4.000
 2372SOL    HW3 9519   3.503   3.508   3.870
 2372SOL    MW4 9520   3.548   3.455   3.922
 2373SOL     OW 9521   3.790   3.584   3.796
 2373SOL    HW2 9522   3.796   3.668   3.841
 2373SOL    HW3 9523   3.718   3.538   3.840
 2373SOL    MW4 9524   3.781   3.589   3.808
 2374SOL     OW 9525   3.806   3.844   3.873
 2374SOL    HW2 9526   3.809   3.847   3.969
 2374SOL    HW3 9527   3.884   3.893   3.845
 2374SOL    MW4 9528   3.817   3.851   3.882
 2375SOL     OW 9529   3.556   3.998   3.798
 2375SOL    HW2 9530   3.587   4.089   3.805
 2375SOL    HW3 9531   3.630   3.946   3.829
 2375SOL    MW4 9532   3.570   4.003   3.803
 2376SOL     OW 9533   3.659   4.264   3.854
 2376SOL    HW2 9534   3.652   4.260   3.950
 2376SOL    HW3 9535   3.733   4.322   3.838
 2376SOL    MW4 9536   3.668   4.271   3.865
 2377SOL     OW 9537   3.880   4.424   3.777
 2377SOL    HW2 9538   3.941   4.357   3.809
 2377SOL    HW3 9539   3.879   4.412   3.682
 2377SOL    MW4 9540   3.888   4.414   3.769
 2378SOL     OW 9541   4.244   4.642   3.874
 2378SOL    HW2 9542   4.237   4.632   3.969
 2378SOL    HW3 9543   4.304   4.715   3.862
 2378SOL    MW4 9544   4.251   4.651   3.885
 2379SOL     OW 9545   4.040   0.138   3.759
 2379SOL    HW2 9546   4.111   0.077   3.780
 2379SOL    HW3 9547   4.030   0.130   3.664
 2379SOL    MW4 9548   4.048   0.129   3.749
 2380SOL     OW 9549   4.088   0.395   3.857
 2380SOL    HW2 9550   4.076   0.384   3.952
 2380SOL    HW3 9551   4.085   0.306   3.822
 2380SOL    MW4 9552   4.086   0.382   3.865
 2381SOL     OW 9553   4.249   0.560   3.729
 2381SOL    HW2 9554   4.195   0.501   3.782
 2381SOL    HW3 9555   4.229   0.536   3.639
 2381SOL    MW4 9556   4.239   0.549   3.724
 2382SOL     OW 9557   4.253   0.831   3.798
 2382SOL    HW2 9558   4.170   0.877   3.786
 2382SOL    HW3 9559   4.239   0.745   3.759
 2382SOL    MW4 9560   4.240   0.826   3.791
 2383SOL     OW 9561   4.001   0.924   3.765
 2383SOL    HW2 9562   4.006   1.008   3.810
 2383SOL    HW3 9563   3.983   0.947   3.673
 2383SOL    MW4 9564   3.999   0.938   3.759
 2384SOL     OW 9565   4.029   1.174   3.907
 2384SOL    HW2 9566   4.030   1.177   4.003
 2384SOL    HW3 9567   4.103   1.229   3.881
 2384SOL    MW4 9568   4.039   1.182   3.916
 2385SOL     OW 9569   4.264   1.294   3.798
 2385SOL    HW2 9570   4.261   1.387   3.820
 2385SOL    HW3 9571   4.256   1.291   3.703
 2385SOL    MW4 9572   4.263   1.306   3.788
 2386SOL     OW 9573   4.252   1.546   3.913
 2386SOL    HW2 9574   4.178   1.588   3.870
 2386SOL    HW3 9575   4.324   1.608   3.903
 2386SOL    MW4 9576   4.252   1.559   3.906
 2387SOL     OW 9577   4.033   1.645   3.754
 2387SOL    HW2 9578   4.027   1.736   3.785
 2387SOL    HW3 9579   3.957   1.602   3.793
 2387SOL    MW4 9580   4.022   1.651   3.763
 2388SOL     OW 9581   4.013   1.898   3.845
 2388SOL    HW2 9582   4.013   1.905   3.941
 2388SOL    HW3 9583   4.098   1.932   3.818
 2388SOL    MW4 9584   4.024   1.903   3.854
 2389SOL     OW 9585   4.235   2.028   3.771
 2389SOL    HW2 9586   4.229   2.119   3.797
 2389SOL    HW3 9587   4.264   2.030   3.679
 2389SOL    MW4 9588   4.238   2.040   3.762
 2390SOL     OW 9589   4.240   2.261   3.912
 2390SOL    HW2 9590   4.241   2.282   4.005
 2390SOL    HW3 9591   4.161   2.303   3.878
 2390SOL    MW4 9592   4.229   2.269   3.919
 2391SOL     OW 9593   4.036   2.401   3.772
 2391SOL    HW2 9594   4.037   2.491   3.805
 2391SOL    HW3 9595   3.959   2.361   3.813
 2391SOL    MW4 9596   4.026   2.408   3.781
 2392SOL     OW 9597   4.042   2.686   3.842
 2392SOL    HW2 9598   4.058   2.698   3.936
 2392SOL    HW3 9599   4.125   2.708   3.801
 2392SOL    MW4 9600   4.055   2.690   3.849
 2393SOL     OW 9601   4.273   2.789   3.750
 2393SOL    HW2 9602   4.255   2.871   3.795
 2393SOL    HW3 9603   4.332   2.742   3.809
 2393SOL    MW4 9604   4.278   2.793   3.764
 2394SOL     OW 9605   4.307   3.067   3.882
 2394SOL    HW2 9606   4.240   3.131   3.857
 2394SOL    HW3 9607   4.390   3.109   3.857
 2394SOL    MW4 9608   4.309   3.081   3.875
 2395SOL     OW 9609   4.097   3.218   3.815
 2395SOL    HW2 9610   4.019   3.175   3.852
 2395SOL    HW3 9611   4.085   3.211   3.720
 2395SOL    MW4 9612   4.085   3.212   3.807
 2396SOL     OW 9613   4.060   3.505   3.856
 2396SOL    HW2 9614   4.067   3.411   3.838
 2396SOL    HW3 9615   3.976   3.530   3.818
 2396SOL    MW4 9616   4.050   3.496   3.849
 2397SOL     OW 9617   4.299   3.636   3.770
 2397SOL    HW2 9618   4.228   3.589   3.812
 2397SOL    HW3 9619   4.379   3.595   3.805
 2397SOL    MW4 9620   4.300   3.624   3.780
 2398SOL     OW 9621   4.296   3.904   3.838
 2398SOL    HW2 9622   4.201   3.915   3.833
 2398SOL    HW3 9623   4.310   3.809   3.837
 2398SOL    MW4 9624   4.286   3.893   3.837
 2399SOL     OW 9625   4.029   3.956   3.769
 2399SOL    HW2 9626   4.029   4.051   3.776
 2399SOL    HW3 9627   4.040   3.939   3.675
 2399SOL    MW4 9628   4.031   3.966   3.757
 2400SOL     OW 9629   4.060   4.222   3.824
 2400SOL    HW2 9630   4.067   4.230   3.920
 2400SOL    HW3 9631   4.133   4.274   3.790
 2400SOL    MW4 9632   4.070   4.230   3.832
 2401SOL     OW 9633   4.278   4.373   3.763
 2401SOL    HW2 9634   4.280   4.446   3.824
 2401SOL    HW3 9635   4.351   4.317   3.789
 2401SOL    MW4 9636   4.287   4.375   3.774
 2402SOL     OW 9637   0.257   4.605   4.138
 2402SOL    HW2 9638   0.329   4.642   4.190
 2402SOL    HW3 9639   0.226   4.530   4.189
 2402SOL    MW4 9640   0.263   4.600   4.151
 2403SOL     OW 9641   0.009   0.062   4.225
 2403SOL    HW2 9642  -0.004   0.083   4.317
 2403SOL    HW3 9643   0.100   0.035   4.218
 2403SOL    MW4 9644   0.019   0.062   4.236
 2404SOL     OW 9645   4.451   0.341   4.130
 2404SOL    HW2 9646   4.459   0.246   4.140
 2404SOL    HW3 9647   4.484   0.358   4.041
 2404SOL    MW4 9648   4.456   0.330   4.119
 2405SOL     OW 9649   0.181   0.455   4.236
 2405SOL    HW2 9650   0.250   0.396   4.206
 2405SOL    HW3 9651   0.100   0.411   4.210
 2405SOL    MW4 9652   0.179   0.441   4.228
 2406SOL     OW 9653   0.216   0.721   4.168
 2406SOL    HW2 9654   0.133   0.744   4.210
 2406SOL    HW3 9655   0.228   0.628   4.190
 2406SOL    MW4 9656   0.206   0.712   4.176
 2407SOL     OW 9657   4.465   0.845   4.270
 2407SOL    HW2 9658   4.397   0.826   4.205
 2407SOL    HW3 9659   4.492   0.935   4.252
 2407SOL    MW4 9660   4.460   0.855   4.259
 2408SOL     OW 9661   0.023   1.101   4.200
 2408SOL    HW2 9662   0.107   1.145   4.214
 2408SOL    HW3 9663   0.008   1.107   4.106
 2408SOL    MW4 9664   0.032   1.108   4.190
 2409SOL     OW 9665   0.252   1.260   4.245
 2409SOL    HW2 9666   0.278   1.292   4.332
 2409SOL    HW3 9667   0.315   1.191   4.225
 2409SOL    MW4 9668   0.264   1.255   4.254
 2410SOL     OW 9669   0.007   1.720   4.528
 2410SOL    HW2 9670  -0.014   1.709   4.435
 2410SOL    HW3 9671  -0.055   1.788   4.558
 2410SOL    MW4 9672  -0.004   1.728   4.520
 2411SOL     OW 9673   4.471   1.670   4.239
 2411SOL    HW2 9674   4.381   1.640   4.229
 2411SOL    HW3 9675   4.470   1.760   4.207
 2411SOL    MW4 9676   4.459   1.678   4.234
 2412SOL     OW 9677   0.206   2.082   4.259
 2412SOL    HW2 9678   0.190   2.063   4.351
 2412SOL    HW3 9679   0.284   2.031   4.237
 2412SOL    MW4 9680   0.214   2.072   4.268
 2413SOL     OW 9681   0.693   1.514   4.611
 2413SOL    HW2 9682   0.605   1.543   4.586
 2413SOL    HW3 9683   0.721   1.577   4.677
 2413SOL    MW4 9684   0.685   1.526   4.616
 2414SOL     OW 9685   0.231   2.336   4.189
 2414SOL    HW2 9686   0.304   2.367   4.242
 2414SOL    HW3 9687   0.222   2.243   4.213
 2414SOL    MW4 9688   0.239   2.328   4.199
 2415SOL     OW 9689   0.011   2.424   4.320
 2415SOL    HW2 9690  -0.077   2.399   4.291
 2415SOL    HW3 9691   0.070   2.371   4.266
 2415SOL    MW4 9692   0.008   2.413   4.309
 2416SOL     OW 9693   4.488   2.679   4.194
 2416SOL    HW2 9694   4.562   2.729   4.228
 2416SOL    HW3 9695   4.502   2.590   4.228
 2416SOL    MW4 9696   4.500   2.674   4.203
 2417SOL     OW 9697   0.211   2.854   4.298
 2417SOL    HW2 9698   0.289   2.819   4.254
 2417SOL    HW3 9699   0.197   2.939   4.256
 2417SOL    MW4 9700   0.220   2.861   4.287
 2418SOL     OW 9701   0.168   3.078   4.153
 2418SOL    HW2 9702   0.241   3.133   4.181
 2418SOL    HW3 9703   0.092   3.114   4.199
 2418SOL    MW4 9704   0.167   3.090   4.163
 2419SOL     OW 9705   4.474   3.253   4.276
 2419SOL    HW2 9706   4.396   3.209   4.242
 2419SOL    HW3 9707   4.495   3.319   4.209
 2419SOL    MW4 9708   4.466   3.256   4.262
 2420SOL     OW 9709   0.030   3.478   4.130
 2420SOL    HW2 9710  -0.051   3.521   4.157
 2420SOL    HW3 9711   0.040   3.501   4.037
 2420SOL    MW4 9712   0.021   3.487   4.121
 2421SOL     OW 9713   0.244   3.651   4.213
 2421SOL    HW2 9714   0.325   3.600   4.209
 2421SOL    HW3 9715   0.176   3.592   4.182
 2421SOL    MW4 9716   0.246   3.637   4.209
 2422SOL     OW 9717   0.232   3.913   4.109
 2422SOL    HW2 9718   0.176   3.970   4.162
 2422SOL    HW3 9719   0.227   3.828   4.153
 2422SOL    MW4 9720   0.224   3.909   4.122
 2423SOL     OW 9721   0.003   3.981   4.282
 2423SOL    HW2 9722  -0.005   3.961   4.376
 2423SOL    HW3 9723  -0.062   3.923   4.240
 2423SOL    MW4 9724  -0.007   3.971   4.289
 2424SOL     OW 9725   4.432   4.239   4.171
 2424SOL    HW2 9726   4.449   4.151   4.207
 2424SOL    HW3 9727   4.424   4.225   4.077
 2424SOL    MW4 9728   4.434   4.225   4.164
 2425SOL     OW 9729   0.198   4.365   4.273
 2425SOL    HW2 9730   0.161   4.387   4.358
 2425SOL    HW3 9731   0.132   4.310   4.232
 2425SOL    MW4 9732   0.185   4.361   4.279
 2426SOL     OW 9733   0.727   4.622   4.158
 2426SOL    HW2 9734   0.656   4.664   4.207
 2426SOL    HW3 9735   0.699   4.626   4.067
 2426SOL    MW4 9736   0.714   4.628   4.153
 2427SOL     OW 9737   0.467   0.051   4.277
 2427SOL    HW2 9738   0.451   0.047   4.372
 2427SOL    HW3 9739   0.433   0.137   4.251
 2427SOL    MW4 9740   0.461   0.062   4.286
 2428SOL     OW 9741   0.390   0.305   4.187
 2428SOL    HW2 9742   0.452   0.350   4.245
 2428SOL    HW3 9743   0.419   0.327   4.099
 2428SOL    MW4 9744   0.402   0.314   4.183
 2429SOL     OW 9745   0.742   0.506   4.349
 2429SOL    HW2 9746   0.793   0.447   4.293
 2429SOL    HW3 9747   0.724   0.583   4.294
 2429SOL    MW4 9748   0.747   0.509   4.335
 2430SOL     OW 9749   0.707   0.726   4.207
 2430SOL    HW2 9750   0.630   0.768   4.246
 2430SOL    HW3 9751   0.692   0.733   4.113
 2430SOL    MW4 9752   0.695   0.733   4.200
 2431SOL     OW 9753   0.446   0.827   4.270
 2431SOL    HW2 9754   0.460   0.917   4.239
 2431SOL    HW3 9755   0.365   0.799   4.228
 2431SOL    MW4 9756   0.437   0.835   4.260
 2432SOL     OW 9757   0.450   1.077   4.179
 2432SOL    HW2 9758   0.527   1.128   4.203
 2432SOL    HW3 9759   0.450   1.076   4.083
 2432SOL    MW4 9760   0.460   1.083   4.169
 2433SOL     OW 9761   0.672   1.228   4.281
 2433SOL    HW2 9762   0.674   1.233   4.376
 2433SOL    HW3 9763   0.650   1.316   4.252
 2433SOL    MW4 9764   0.669   1.240   4.289
 2434SOL     OW 9765   0.669   1.506   4.183
 2434SOL    HW2 9766   0.755   1.543   4.203
 2434SOL    HW3 9767   0.671   1.490   4.089
 2434SOL    MW4 9768   0.680   1.509   4.173
 2435SOL     OW 9769   0.233   1.544   4.165
 2435SOL    HW2 9770   0.219   1.457   4.202
 2435SOL    HW3 9771   0.151   1.591   4.183
 2435SOL    MW4 9772   0.220   1.539   4.173
 2436SOL     OW 9773   0.427   1.947   4.177
 2436SOL    HW2 9774   0.446   1.859   4.209
 2436SOL    HW3 9775   0.428   1.939   4.082
 2436SOL    MW4 9776   0.430   1.934   4.169
 2437SOL     OW 9777   0.668   2.090   4.217
 2437SOL    HW2 9778   0.672   2.096   4.312
 2437SOL    HW3 9779   0.591   2.035   4.199
 2437SOL    MW4 9780   0.658   2.083   4.227
 2438SOL     OW 9781   0.658   2.348   4.127
 2438SOL    HW2 9782   0.671   2.256   4.148
 2438SOL    HW3 9783   0.654   2.351   4.032
 2438SOL    MW4 9784   0.659   2.336   4.117
 2439SOL     OW 9785   0.464   2.432   4.314
 2439SOL    HW2 9786   0.463   2.527   4.299
 2439SOL    HW3 9787   0.525   2.399   4.248
 2439SOL    MW4 9788   0.472   2.440   4.303
 2440SOL     OW 9789   0.432   2.712   4.195
 2440SOL    HW2 9790   0.512   2.753   4.228
 2440SOL    HW3 9791   0.443   2.710   4.100
 2440SOL    MW4 9792   0.444   2.717   4.187
 2441SOL     OW 9793   0.684   2.867   4.244
 2441SOL    HW2 9794   0.719   2.860   4.332
 2441SOL    HW3 9795   0.690   2.960   4.223
 2441SOL    MW4 9796   0.689   2.879   4.253
 2442SOL     OW 9797   0.691   3.120   4.169
 2442SOL    HW2 9798   0.768   3.169   4.199
 2442SOL    HW3 9799   0.616   3.166   4.206
 2442SOL    MW4 9800   0.692   3.132   4.178
 2443SOL     OW 9801   0.413   3.194   4.228
 2443SOL    HW2 9802   0.407   3.182   4.323
 2443SOL    HW3 9803   0.419   3.289   4.216
 2443SOL    MW4 9804   0.413   3.205   4.239
 2444SOL     OW 9805   0.446   3.463   4.187
 2444SOL    HW2 9806   0.521   3.505   4.229
 2444SOL    HW3 9807   0.455   3.485   4.094
 2444SOL    MW4 9808   0.457   3.472   4.180
 2445SOL     OW 9809   0.657   3.631   4.275
 2445SOL    HW2 9810   0.662   3.670   4.362
 2445SOL    HW3 9811   0.738   3.581   4.265
 2445SOL    MW4 9812   0.668   3.629   4.285
 2446SOL     OW 9813   0.683   3.858   4.123
 2446SOL    HW2 9814   0.616   3.920   4.151
 2446SOL    HW3 9815   0.663   3.778   4.172
 2446SOL    MW4 9816   0.671   3.855   4.133
 2447SOL     OW 9817   0.473   4.017   4.202
 2447SOL    HW2 9818   0.448   4.109   4.194
 2447SOL    HW3 9819   0.389   3.969   4.203
 2447SOL    MW4 9820   0.458   4.022   4.201
 2448SOL     OW 9821   0.449   4.298   4.190
 2448SOL    HW2 9822   0.363   4.322   4.224
 2448SOL    HW3 9823   0.439   4.304   4.095
 2448SOL    MW4 9824   0.436   4.302   4.182
 2449SOL     OW 9825   0.710   4.350   4.248
 2449SOL    HW2 9826   0.624   4.320   4.216
 2449SOL    HW3 9827   0.710   4.444   4.229
 2449SOL    MW4 9828   0.698   4.359   4.241
 2450SOL     OW 9829   1.131   4.660   4.155
 2450SOL    HW2 9830   1.108   4.573   4.186
 2450SOL    HW3 9831   1.132   4.651   4.059
 2450SOL    MW4 9832   1.128   4.647   4.146
 2451SOL     OW 9833   0.915   0.107   4.282
 2451SOL    HW2 9834   0.996   0.079   4.240
 2451SOL    HW3 9835   0.847   0.057   4.238
 2451SOL    MW4 9836   0.917   0.097   4.271
 2452SOL     OW 9837   0.912   0.357   4.185
 2452SOL    HW2 9838   0.999   0.388   4.209
 2452SOL    HW3 9839   0.907   0.268   4.219
 2452SOL    MW4 9840   0.923   0.350   4.193
 2453SOL     OW 9841   1.158   0.441   4.271
 2453SOL    HW2 9842   1.161   0.464   4.364
 2453SOL    HW3 9843   1.249   0.419   4.249
 2453SOL    MW4 9844   1.171   0.441   4.281
 2454SOL     OW 9845   1.142   0.717   4.192
 2454SOL    HW2 9846   1.219   0.756   4.233
 2454SOL    HW3 9847   1.145   0.625   4.218
 2454SOL    MW4 9848   1.153   0.710   4.201
 2455SOL     OW 9849   0.930   0.898   4.220
 2455SOL    HW2 9850   1.011   0.847   4.214
 2455SOL    HW3 9851   0.861   0.835   4.197
 2455SOL    MW4 9852   0.931   0.883   4.216
 2456SOL     OW 9853   0.915   1.160   4.169
 2456SOL    HW2 9854   0.897   1.067   4.182
 2456SOL    HW3 9855   0.835   1.204   4.200
 2456SOL    MW4 9856   0.902   1.153   4.175
 2457SOL     OW 9857   1.159   1.293   4.240
 2457SOL    HW2 9858   1.170   1.310   4.333
 2457SOL    HW3 9859   1.075   1.248   4.233
 2457SOL    MW4 9860   1.150   1.289   4.251
 2458SOL     OW 9861   1.144   1.529   4.113
 2458SOL    HW2 9862   1.054   1.548   4.138
 2458SOL    HW3 9863   1.160   1.439   4.142
 2458SOL    MW4 9864   1.134   1.520   4.120
 2459SOL     OW 9865   0.908   1.645   4.221
 2459SOL    HW2 9866   0.923   1.627   4.314
 2459SOL    HW3 9867   0.911   1.740   4.214
 2459SOL    MW4 9868   0.910   1.655   4.233
 2460SOL     OW 9869   0.918   1.925   4.163
 2460SOL    HW2 9870   0.840   1.974   4.187
 2460SOL    HW3 9871   0.920   1.929   4.067
 2460SOL    MW4 9872   0.908   1.932   4.153
 2461SOL     OW 9873   1.137   2.060   4.250
 2461SOL    HW2 9874   1.159   2.040   4.342
 2461SOL    HW3 9875   1.064   2.003   4.230
 2461SOL    MW4 9876   1.130   2.050   4.260
 2462SOL     OW 9877   1.110   2.330   4.186
 2462SOL    HW2 9878   1.185   2.370   4.231
 2462SOL    HW3 9879   1.117   2.237   4.207
 2462SOL    MW4 9880   1.121   2.323   4.195
 2463SOL     OW 9881   0.867   2.495   4.218
 2463SOL    HW2 9882   0.944   2.437   4.212
 2463SOL    HW3 9883   0.795   2.442   4.184
 2463SOL    MW4 9884   0.868   2.480   4.212
 2464SOL     OW 9885   0.919   2.763   4.132
 2464SOL    HW2 9886   0.905   2.674   4.163
 2464SOL    HW3 9887   0.842   2.811   4.163
 2464SOL    MW4 9888   0.907   2.758   4.140
 2465SOL     OW 9889   1.161   2.861   4.221
 2465SOL    HW2 9890   1.170   2.948   4.183
 2465SOL    HW3 9891   1.085   2.822   4.176
 2465SOL    MW4 9892   1.152   2.867   4.210
 2466SOL     OW 9893   1.149   3.115   4.128
 2466SOL    HW2 9894   1.216   3.172   4.167
 2466SOL    HW3 9895   1.159   3.127   4.034
 2466SOL    MW4 9896   1.159   3.124   4.121
 2467SOL     OW 9897   0.940   3.219   4.258
 2467SOL    HW2 9898   0.942   3.181   4.346
 2467SOL    HW3 9899   1.021   3.188   4.217
 2467SOL    MW4 9900   0.951   3.210   4.264
 2468SOL     OW 9901   0.890   3.484   4.166
 2468SOL    HW2 9902   0.917   3.398   4.199
 2468SOL    HW3 9903   0.898   3.477   4.071
 2468SOL    MW4 9904   0.894   3.472   4.158
 2469SOL     OW 9905   1.127   3.620   4.217
 2469SOL    HW2 9906   1.126   3.703   4.170
 2469SOL    HW3 9907   1.039   3.585   4.206
 2469SOL    MW4 9908   1.115   3.627   4.210
 2470SOL     OW 9909   1.108   3.872   4.111
 2470SOL    HW2 9910   1.182   3.930   4.128
 2470SOL    HW3 9911   1.036   3.909   4.163
 2470SOL    MW4 9912   1.108   3.884   4.120
 2471SOL     OW 9913   0.907   4.002   4.257
 2471SOL    HW2 9914   0.926   4.091   4.228
 2471SOL    HW3 9915   0.833   3.974   4.202
 2471SOL    MW4 9916   0.900   4.010   4.246
 2472SOL     OW 9917   0.911   4.232   4.106
 2472SOL    HW2 9918   0.978   4.292   4.139
 2472SOL    HW3 9919   0.829   4.269   4.138
 2472SOL    MW4 9920   0.909   4.245   4.114
 2473SOL     OW 9921   1.099   4.396   4.212
 2473SOL    HW2 9922   1.081   4.386   4.306
 2473SOL    HW3 9923   1.188   4.362   4.201
 2473SOL    MW4 9924   1.108   4.390   4.223
 2474SOL     OW 9925   1.613   4.657   4.189
 2474SOL    HW2 9926   1.687   4.710   4.215
 2474SOL    HW3 9927   1.538   4.696   4.234
 2474SOL    MW4 9928   1.613   4.669   4.198
 2475SOL     OW 9929   1.357   0.105   4.275
 2475SOL    HW2 9930   1.326   0.116   4.365
 2475SOL    HW3 9931   1.287   0.058   4.231
 2475SOL    MW4 9932   1.344   0.100   4.281
 2476SOL     OW 9933   1.386   0.349   4.145
 2476SOL    HW2 9934   1.457   0.392   4.192
 2476SOL    HW3 9935   1.379   0.262   4.186
 2476SOL    MW4 9936   1.394   0.343   4.157
 2477SOL     OW 9937   1.578   0.479   4.278
 2477SOL    HW2 9938   1.592   0.466   4.372
 2477SOL    HW3 9939   1.589   0.573   4.264
 2477SOL    MW4 9940   1.581   0.489   4.288
 2478SOL     OW 9941   1.594   0.744   4.234
 2478SOL    HW2 9942   1.672   0.793   4.260
 2478SOL    HW3 9943   1.579   0.770   4.143
 2478SOL    MW4 9944   1.602   0.754   4.225
 2479SOL     OW 9945   1.364   0.882   4.303
 2479SOL    HW2 9946   1.382   0.961   4.251
 2479SOL    HW3 9947   1.444   0.830   4.297
 2479SOL    MW4 9948   1.377   0.886   4.296
 2480SOL     OW 9949   1.389   1.148   4.174
 2480SOL    HW2 9950   1.310   1.194   4.202
 2480SOL    HW3 9951   1.376   1.132   4.081
 2480SOL    MW4 9952   1.377   1.152   4.166
 2481SOL     OW 9953   1.592   1.287   4.267
 2481SOL    HW2 9954   1.591   1.266   4.360
 2481SOL    HW3 9955   1.518   1.238   4.231
 2481SOL    MW4 9956   1.582   1.277   4.274
 2482SOL     OW 9957   1.564   1.551   4.200
 2482SOL    HW2 9958   1.481   1.576   4.241
 2482SOL    HW3 9959   1.577   1.460   4.227
 2482SOL    MW4 9960   1.555   1.542   4.209
 2483SOL     OW 9961   1.318   1.649   4.293
 2483SOL    HW2 9962   1.344   1.731   4.251
 2483SOL    HW3 9963   1.257   1.609   4.232
 2483SOL    MW4 9964   1.314   1.655   4.280
 2484SOL     OW 9965   1.367   1.915   4.165
 2484SOL    HW2 9966   1.436   1.965   4.209
 2484SOL    HW3 9967   1.288   1.965   4.180
 2484SOL    MW4 9968   1.366   1.928   4.173
 2485SOL     OW 9969   1.574   2.069   4.256
 2485SOL    HW2 9970   1.590   2.094   4.347
 2485SOL    HW3 9971   1.553   2.151   4.211
 2485SOL    MW4 9972   1.573   2.083   4.262
 2486SOL     OW 9973   1.543   2.316   4.157
 2486SOL    HW2 9974   1.632   2.333   4.190
 2486SOL    HW3 9975   1.556   2.302   4.063
 2486SOL    MW4 9976   1.557   2.316   4.149
 2487SOL     OW 9977   1.593   2.730   4.283
 2487SOL    HW2 9978   1.610   2.814   4.326
 2487SOL    HW3 9979   1.661   2.723   4.217
 2487SOL    MW4 9980   1.604   2.740   4.280
 2488SOL     OW 9981   1.354   2.668   4.139
 2488SOL    HW2 9982   1.435   2.677   4.190
 2488SOL    HW3 9983   1.293   2.729   4.180
 2488SOL    MW4 9984   1.357   2.677   4.151
 2489SOL     OW 9985   1.573   2.653   4.573
 2489SOL    HW2 9986   1.666   2.670   4.592
 2489SOL    HW3 9987   1.561   2.686   4.484
 2489SOL    MW4 9988   1.584   2.660   4.564
 2490SOL     OW 9989   1.577   3.138   4.160
 2490SOL    HW2 9990   1.655   3.188   4.182
 2490SOL    HW3 9991   1.580   3.063   4.220
 2490SOL    MW4 9992   1.587   3.134   4.171
 2491SOL     OW 9993   1.341   3.302   4.216
 2491SOL    HW2 9994   1.420   3.250   4.204
 2491SOL    HW3 9995   1.359   3.384   4.171
 2491SOL    MW4 9996   1.354   3.306   4.209
 2492SOL     OW 9997   1.372   3.555   4.108
 2492SOL    HW2 9998   1.282   3.565   4.139
 2492SOL    HW3 9999   1.364   3.545   4.013
 2492SOL    MW410000   1.359   3.555   4.100
 2493SOL     OW10001   1.591   3.631   4.277
 2493SOL    HW210002   1.572   3.632   4.371
 2493SOL    HW310003   1.510   3.601   4.236
 2493SOL    MW410004   1.578   3.627   4.284
 2494SOL     OW10005   1.577   3.885   4.155
 2494SOL    HW210006   1.494   3.923   4.186
 2494SOL    HW310007   1.577   3.796   4.190
 2494SOL    MW410008   1.566   3.878   4.164
 2495SOL     OW10009   1.332   4.020   4.219
 2495SOL    HW210010   1.332   4.012   4.314
 2495SOL    HW310011   1.337   4.114   4.203
 2495SOL    MW410012   1.333   4.031   4.229
 2496SOL     OW10013   1.347   4.293   4.180
 2496SOL    HW210014   1.419   4.343   4.219
 2496SOL    HW310015   1.359   4.303   4.086
 2496SOL    MW410016   1.358   4.301   4.173
 2497SOL     OW10017   1.591   4.403   4.277
 2497SOL    HW210018   1.591   4.498   4.262
 2497SOL    HW310019   1.674   4.373   4.241
 2497SOL    MW410020   1.602   4.412   4.270
 2498SOL     OW10021   2.063   0.025   4.167
 2498SOL    HW210022   1.987   0.064   4.211
 2498SOL    HW310023   2.036   0.017   4.076
 2498SOL    MW410024   2.049   0.029   4.161
 2499SOL     OW10025   1.821   0.186   4.275
 2499SOL    HW210026   1.816   0.196   4.370
 2499SOL    HW310027   1.820   0.276   4.242
 2499SOL    MW410028   1.820   0.200   4.283
 2500SOL     OW10029   1.837   0.444   4.148
 2500SOL    HW210030   1.899   0.470   4.217
 2500SOL    HW310031   1.751   0.458   4.187
 2500SOL    MW410032   1.834   0.449   4.163
 2501SOL     OW10033   2.062   0.478   4.293
 2501SOL    HW210034   2.064   0.473   4.388
 2501SOL    HW310035   2.142   0.434   4.265
 2501SOL    MW410036   2.073   0.472   4.302
 2502SOL     OW10037   2.059   0.761   4.177
 2502SOL    HW210038   2.132   0.808   4.218
 2502SOL    HW310039   2.062   0.674   4.216
 2502SOL    MW410040   2.069   0.756   4.188
 2503SOL     OW10041   1.831   0.885   4.284
 2503SOL    HW210042   1.836   0.967   4.235
 2503SOL    HW310043   1.913   0.839   4.262
 2503SOL    MW410044   1.842   0.890   4.274
 2504SOL     OW10045   1.829   1.137   4.193
 2504SOL    HW210046   1.900   1.187   4.233
 2504SOL    HW310047   1.749   1.176   4.228
 2504SOL    MW410048   1.828   1.149   4.203
 2505SOL     OW10049   2.052   1.265   4.291
 2505SOL    HW210050   2.125   1.234   4.238
 2505SOL    HW310051   2.042   1.358   4.267
 2505SOL    MW410052   2.060   1.273   4.281
 2506SOL     OW10053   2.041   1.520   4.173
 2506SOL    HW210054   2.104   1.589   4.191
 2506SOL    HW310055   2.044   1.510   4.077
 2506SOL    MW410056   2.050   1.527   4.163
 2507SOL     OW10057   1.822   1.656   4.294
 2507SOL    HW210058   1.894   1.622   4.241
 2507SOL    HW310059   1.746   1.605   4.267
 2507SOL    MW410060   1.821   1.645   4.283
 2508SOL     OW10061   1.820   1.936   4.164
 2508SOL    HW210062   1.820   1.860   4.222
 2508SOL    HW310063   1.743   1.987   4.191
 2508SOL    MW410064   1.810   1.933   4.175
 2509SOL     OW10065   1.804   2.335   4.259
 2509SOL    HW210066   1.875   2.398   4.252
 2509SOL    HW310067   1.806   2.306   4.350
 2509SOL    MW410068   1.813   2.339   4.270
 2510SOL     OW10069   2.131   2.391   4.163
 2510SOL    HW210070   2.095   2.364   4.078
 2510SOL    HW310071   2.226   2.387   4.151
 2510SOL    MW410072   2.139   2.387   4.150
 2511SOL     OW10073   1.971   2.568   4.301
 2511SOL    HW210074   2.024   2.623   4.358
 2511SOL    HW310075   2.034   2.510   4.258
 2511SOL    MW410076   1.986   2.568   4.303
 2512SOL     OW10077   1.881   2.751   4.124
 2512SOL    HW210078   1.887   2.680   4.187
 2512SOL    HW310079   1.865   2.830   4.176
 2512SOL    MW410080   1.880   2.752   4.139
 2513SOL     OW10081   1.896   2.951   4.310
 2513SOL    HW210082   1.956   2.930   4.382
 2513SOL    HW310083   1.938   3.025   4.266
 2513SOL    MW410084   1.909   2.958   4.314
 2514SOL     OW10085   2.239   3.007   4.268
 2514SOL    HW210086   2.253   2.963   4.352
 2514SOL    HW310087   2.207   2.938   4.210
 2514SOL    MW410088   2.237   2.992   4.271
 2515SOL     OW10089   1.811   3.290   4.265
 2515SOL    HW210090   1.808   3.370   4.213
 2515SOL    HW310091   1.878   3.237   4.223
 2515SOL    MW410092   1.820   3.294   4.253
 2516SOL     OW10093   1.815   3.525   4.159
 2516SOL    HW210094   1.742   3.559   4.210
 2516SOL    HW310095   1.784   3.525   4.068
 2516SOL    MW410096   1.802   3.530   4.154
 2517SOL     OW10097   2.042   3.620   4.293
 2517SOL    HW210098   2.031   3.714   4.284
 2517SOL    HW310099   1.959   3.583   4.261
 2517SOL    MW410100   2.030   3.627   4.288
 2518SOL     OW10101   2.050   3.885   4.184
 2518SOL    HW210102   1.967   3.933   4.191
 2518SOL    HW310103   2.063   3.874   4.090
 2518SOL    MW410104   2.041   3.890   4.173
 2519SOL     OW10105   1.802   4.034   4.246
 2519SOL    HW210106   1.802   4.120   4.204
 2519SOL    HW310107   1.725   3.990   4.211
 2519SOL    MW410108   1.792   4.040   4.236
 2520SOL     OW10109   1.827   4.308   4.183
 2520SOL    HW210110   1.911   4.346   4.209
 2520SOL    HW310111   1.825   4.316   4.088
 2520SOL    MW410112   1.838   4.314   4.174
 2521SOL     OW10113   2.063   4.436   4.257
 2521SOL    HW210114   2.034   4.440   4.348
 2521SOL    HW310115   2.081   4.527   4.233
 2521SOL    MW410116   2.062   4.449   4.266
 2522SOL     OW10117   2.491   4.599   4.205
 2522SOL    HW210118   2.566   4.638   4.250
 2522SOL    HW310119   2.478   4.515   4.248
 2522SOL    MW410120   2.500   4.593   4.216
 2523SOL     OW10121   2.295   0.114   4.297
 2523SOL    HW210122   2.359   0.059   4.252
 2523SOL    HW310123   2.212   0.095   4.254
 2523SOL    MW410124   2.293   0.105   4.285
 2524SOL     OW10125   2.310   0.374   4.180
 2524SOL    HW210126   2.315   0.292   4.228
 2524SOL    HW310127   2.340   0.352   4.091
 2524SOL    MW410128   2.315   0.361   4.174
 2525SOL     OW10129   2.524   0.521   4.276
 2525SOL    HW210130   2.518   0.529   4.371
 2525SOL    HW310131   2.441   0.482   4.249
 2525SOL    MW410132   2.512   0.517   4.285
 2526SOL     OW10133   2.478   0.778   4.175
 2526SOL    HW210134   2.480   0.684   4.193
 2526SOL    HW310135   2.473   0.784   4.080
 2526SOL    MW410136   2.477   0.767   4.165
 2527SOL     OW10137   2.250   0.917   4.294
 2527SOL    HW210138   2.233   0.909   4.387
 2527SOL    HW310139   2.325   0.859   4.278
 2527SOL    MW410140   2.258   0.908   4.304
 2528SOL     OW10141   2.268   1.168   4.151
 2528SOL    HW210142   2.339   1.228   4.175
 2528SOL    HW310143   2.278   1.094   4.210
 2528SOL    MW410144   2.278   1.166   4.162
 2529SOL     OW10145   2.509   1.322   4.224
 2529SOL    HW210146   2.475   1.285   4.306
 2529SOL    HW310147   2.580   1.263   4.199
 2529SOL    MW410148   2.514   1.309   4.232
 2530SOL     OW10149   2.457   1.575   4.104
 2530SOL    HW210150   2.484   1.489   4.136
 2530SOL    HW310151   2.461   1.567   4.008
 2530SOL    MW410152   2.461   1.562   4.095
 2531SOL     OW10153   2.251   1.671   4.278
 2531SOL    HW210154   2.318   1.637   4.219
 2531SOL    HW310155   2.249   1.765   4.260
 2531SOL    MW410156   2.260   1.679   4.268
 2532SOL     OW10157   2.241   1.947   4.191
 2532SOL    HW210158   2.316   2.000   4.218
 2532SOL    HW310159   2.165   1.993   4.226
 2532SOL    MW410160   2.241   1.960   4.199
 2533SOL     OW10161   2.430   2.140   4.286
 2533SOL    HW210162   2.418   2.122   4.380
 2533SOL    HW310163   2.497   2.078   4.258
 2533SOL    MW410164   2.437   2.130   4.295
 2534SOL     OW10165   2.403   2.385   4.141
 2534SOL    HW210166   2.418   2.314   4.203
 2534SOL    HW310167   2.417   2.345   4.055
 2534SOL    MW410168   2.407   2.370   4.138
 2535SOL     OW10169   2.489   2.551   4.561
 2535SOL    HW210170   2.402   2.513   4.549
 2535SOL    HW310171   2.473   2.630   4.612
 2535SOL    MW410172   2.475   2.557   4.566
 2536SOL     OW10173   2.162   2.794   4.136
 2536SOL    HW210174   2.166   2.751   4.221
 2536SOL    HW310175   2.069   2.791   4.112
 2536SOL    MW410176   2.150   2.788   4.144
 2537SOL     OW10177   2.451   2.719   4.318
 2537SOL    HW210178   2.460   2.658   4.391
 2537SOL    HW310179   2.357   2.737   4.313
 2537SOL    MW410180   2.440   2.713   4.327
 2538SOL     OW10181   2.548   2.937   4.185
 2538SOL    HW210182   2.565   3.010   4.245
 2538SOL    HW310183   2.504   2.872   4.239
 2538SOL    MW410184   2.545   2.938   4.200
 2539SOL     OW10185   2.020   3.144   4.152
 2539SOL    HW210186   2.017   3.122   4.059
 2539SOL    HW310187   2.104   3.110   4.182
 2539SOL    MW410188   2.031   3.137   4.144
 2540SOL     OW10189   2.239   3.508   4.123
 2540SOL    HW210190   2.275   3.425   4.155
 2540SOL    HW310191   2.168   3.528   4.184
 2540SOL    MW410192   2.234   3.500   4.135
 2541SOL     OW10193   2.486   3.602   4.213
 2541SOL    HW210194   2.398   3.576   4.186
 2541SOL    HW310195   2.488   3.697   4.201
 2541SOL    MW410196   2.474   3.611   4.208
 2542SOL     OW10197   2.502   3.886   4.181
 2542SOL    HW210198   2.588   3.925   4.196
 2542SOL    HW310199   2.495   3.878   4.086
 2542SOL    MW410200   2.512   3.890   4.171
 2543SOL     OW10201   2.273   4.019   4.274
 2543SOL    HW210202   2.356   3.976   4.252
 2543SOL    HW310203   2.206   3.956   4.247
 2543SOL    MW410204   2.275   4.005   4.268
 2544SOL     OW10205   2.255   4.254   4.151
 2544SOL    HW210206   2.254   4.162   4.179
 2544SOL    HW310207   2.191   4.297   4.208
 2544SOL    MW410208   2.246   4.247   4.162
 2545SOL     OW10209   2.471   4.347   4.308
 2545SOL    HW210210   2.543   4.329   4.247
 2545SOL    HW310211   2.392   4.319   4.262
 2545SOL    MW410212   2.470   4.341   4.293
 2546SOL     OW10213   2.955   4.635   4.150
 2546SOL    HW210214   3.038   4.681   4.163
 2546SOL    HW310215   2.960   4.559   4.207
 2546SOL    MW410216   2.967   4.631   4.159
 2547SOL     OW10217   2.719   0.067   4.293
 2547SOL    HW210218   2.708   0.159   4.269
 2547SOL    HW310219   2.793   0.038   4.240
 2547SOL    MW410220   2.728   0.076   4.283
 2548SOL     OW10221   2.695   0.315   4.185
 2548SOL    HW210222   2.630   0.378   4.217
 2548SOL    HW310223   2.707   0.338   4.093
 2548SOL    MW410224   2.688   0.327   4.177
 2549SOL     OW10225   2.945   0.474   4.274
 2549SOL    HW210226   2.919   0.558   4.236
 2549SOL    HW310227   2.873   0.415   4.254
 2549SOL    MW410228   2.932   0.478   4.266
 2550SOL     OW10229   2.928   0.751   4.186
 2550SOL    HW210230   3.008   0.789   4.222
 2550SOL    HW310231   2.935   0.766   4.091
 2550SOL    MW410232   2.939   0.758   4.178
 2551SOL     OW10233   2.711   0.932   4.264
 2551SOL    HW210234   2.773   0.859   4.256
 2551SOL    HW310235   2.626   0.894   4.238
 2551SOL    MW410236   2.708   0.917   4.259
 2552SOL     OW10237   2.729   1.192   4.153
 2552SOL    HW210238   2.732   1.105   4.194
 2552SOL    HW310239   2.733   1.173   4.059
 2552SOL    MW410240   2.730   1.178   4.146
 2553SOL     OW10241   2.955   1.289   4.285
 2553SOL    HW210242   3.022   1.225   4.261
 2553SOL    HW310243   2.881   1.269   4.228
 2553SOL    MW410244   2.954   1.278   4.274
 2554SOL     OW10245   2.936   1.554   4.165
 2554SOL    HW210246   3.002   1.613   4.203
 2554SOL    HW310247   2.945   1.473   4.216
 2554SOL    MW410248   2.946   1.551   4.177
 2555SOL     OW10249   2.705   1.717   4.192
 2555SOL    HW210250   2.780   1.662   4.170
 2555SOL    HW310251   2.629   1.662   4.173
 2555SOL    MW410252   2.705   1.703   4.186
 2556SOL     OW10253   2.629   1.981   4.169
 2556SOL    HW210254   2.635   1.887   4.186
 2556SOL    HW310255   2.642   1.988   4.074
 2556SOL    MW410256   2.631   1.969   4.158
 2557SOL     OW10257   2.851   2.117   4.249
 2557SOL    HW210258   2.867   2.194   4.195
 2557SOL    HW310259   2.767   2.082   4.218
 2557SOL    MW410260   2.842   2.123   4.238
 2558SOL     OW10261   2.882   2.352   4.106
 2558SOL    HW210262   2.954   2.391   4.155
 2558SOL    HW310263   2.804   2.399   4.135
 2558SOL    MW410264   2.881   2.363   4.116
 2559SOL     OW10265   2.662   2.505   4.174
 2559SOL    HW210266   2.697   2.498   4.263
 2559SOL    HW310267   2.569   2.487   4.184
 2559SOL    MW410268   2.654   2.502   4.187
 2560SOL     OW10269   2.708   2.767   4.071
 2560SOL    HW210270   2.691   2.681   4.111
 2560SOL    HW310271   2.646   2.826   4.115
 2560SOL    MW410272   2.698   2.763   4.082
 2561SOL     OW10273   2.948   2.896   4.127
 2561SOL    HW210274   2.862   2.857   4.113
 2561SOL    HW310275   2.955   2.963   4.059
 2561SOL    MW410276   2.938   2.900   4.116
 2562SOL     OW10277   2.916   3.093   4.309
 2562SOL    HW210278   2.921   3.059   4.398
 2562SOL    HW310279   2.921   3.016   4.253
 2562SOL    MW410280   2.918   3.079   4.314
 2563SOL     OW10281   2.678   3.258   4.279
 2563SOL    HW210282   2.683   3.303   4.363
 2563SOL    HW310283   2.746   3.191   4.284
 2563SOL    MW410284   2.688   3.255   4.291
 2564SOL     OW10285   2.712   3.481   4.120
 2564SOL    HW210286   2.710   3.395   4.163
 2564SOL    HW310287   2.635   3.526   4.153
 2564SOL    MW410288   2.702   3.475   4.130
 2565SOL     OW10289   2.940   3.579   4.252
 2565SOL    HW210290   2.944   3.546   4.342
 2565SOL    HW310291   2.858   3.545   4.217
 2565SOL    MW410292   2.930   3.570   4.259
 2566SOL     OW10293   2.985   3.842   4.141
 2566SOL    HW210294   3.030   3.891   4.209
 2566SOL    HW310295   2.969   3.755   4.179
 2566SOL    MW410296   2.988   3.837   4.155
 2567SOL     OW10297   2.741   4.007   4.205
 2567SOL    HW210298   2.742   4.103   4.197
 2567SOL    HW310299   2.820   3.978   4.161
 2567SOL    MW410300   2.752   4.016   4.198
 2568SOL     OW10301   2.724   4.282   4.175
 2568SOL    HW210302   2.808   4.316   4.206
 2568SOL    HW310303   2.727   4.291   4.080
 2568SOL    MW410304   2.735   4.287   4.167
 2569SOL     OW10305   2.953   4.401   4.280
 2569SOL    HW210306   2.932   4.409   4.373
 2569SOL    HW310307   3.043   4.368   4.279
 2569SOL    MW410308   2.963   4.397   4.292
 2570SOL     OW10309   3.400   4.604   4.170
 2570SOL    HW210310   3.475   4.654   4.201
 2570SOL    HW310311   3.412   4.517   4.207
 2570SOL    MW410312   3.411   4.599   4.179
 2571SOL     OW10313   3.194   0.117   4.197
 2571SOL    HW210314   3.172   0.131   4.289
 2571SOL    HW310315   3.263   0.050   4.200
 2571SOL    MW410316   3.200   0.110   4.210
 2572SOL     OW10317   3.202   0.393   4.151
 2572SOL    HW210318   3.196   0.299   4.169
 2572SOL    HW310319   3.121   0.430   4.186
 2572SOL    MW410320   3.190   0.385   4.158
 2573SOL     OW10321   3.422   0.522   4.240
 2573SOL    HW210322   3.493   0.462   4.215
 2573SOL    HW310323   3.345   0.488   4.194
 2573SOL    MW410324   3.421   0.509   4.230
 2574SOL     OW10325   3.391   0.779   4.144
 2574SOL    HW210326   3.304   0.807   4.174
 2574SOL    HW310327   3.397   0.687   4.170
 2574SOL    MW410328   3.380   0.771   4.152
 2575SOL     OW10329   3.157   0.866   4.252
 2575SOL    HW210330   3.159   0.865   4.347
 2575SOL    HW310331   3.155   0.959   4.228
 2575SOL    MW410332   3.157   0.878   4.261
 2576SOL     OW10333   3.160   1.135   4.180
 2576SOL    HW210334   3.238   1.172   4.222
 2576SOL    HW310335   3.168   1.158   4.088
 2576SOL    MW410336   3.171   1.143   4.174
 2577SOL     OW10337   3.392   1.272   4.267
 2577SOL    HW210338   3.371   1.276   4.360
 2577SOL    HW310339   3.376   1.361   4.236
 2577SOL    MW410340   3.387   1.285   4.275
 2578SOL     OW10341   3.405   1.532   4.168
 2578SOL    HW210342   3.332   1.588   4.195
 2578SOL    HW310343   3.397   1.528   4.072
 2578SOL    MW410344   3.394   1.539   4.159
 2579SOL     OW10345   3.181   1.682   4.245
 2579SOL    HW210346   3.191   1.676   4.340
 2579SOL    HW310347   3.157   1.774   4.229
 2579SOL    MW410348   3.179   1.694   4.255
 2580SOL     OW10349   3.116   1.961   4.177
 2580SOL    HW210350   3.196   2.004   4.207
 2580SOL    HW310351   3.045   2.015   4.213
 2580SOL    MW410352   3.117   1.974   4.185
 2581SOL     OW10353   3.342   2.100   4.288
 2581SOL    HW210354   3.432   2.068   4.278
 2581SOL    HW310355   3.342   2.186   4.244
 2581SOL    MW410356   3.354   2.107   4.281
 2582SOL     OW10357   3.320   2.353   4.156
 2582SOL    HW210358   3.399   2.390   4.195
 2582SOL    HW310359   3.342   2.339   4.064
 2582SOL    MW410360   3.333   2.356   4.149
 2583SOL     OW10361   3.084   2.446   4.262
 2583SOL    HW210362   3.074   2.539   4.238
 2583SOL    HW310363   3.164   2.419   4.219
 2583SOL    MW410364   3.093   2.455   4.253
 2584SOL     OW10365   3.122   2.685   4.126
 2584SOL    HW210366   3.202   2.708   4.173
 2584SOL    HW310367   3.069   2.765   4.129
 2584SOL    MW410368   3.125   2.699   4.133
 2585SOL     OW10369   3.350   2.789   4.262
 2585SOL    HW210370   3.425   2.748   4.220
 2585SOL    HW310371   3.348   2.878   4.227
 2585SOL    MW410372   3.359   2.795   4.252
 2586SOL     OW10373   3.351   3.052   4.157
 2586SOL    HW210374   3.283   3.101   4.204
 2586SOL    HW310375   3.329   3.063   4.064
 2586SOL    MW410376   3.339   3.060   4.151
 2587SOL     OW10377   3.163   3.210   4.251
 2587SOL    HW210378   3.176   3.300   4.219
 2587SOL    HW310379   3.069   3.198   4.251
 2587SOL    MW410380   3.153   3.220   4.247
 2588SOL     OW10381   3.177   3.470   4.154
 2588SOL    HW210382   3.105   3.525   4.185
 2588SOL    HW310383   3.171   3.475   4.058
 2588SOL    MW410384   3.166   3.478   4.145
 2589SOL     OW10385   3.414   3.626   4.266
 2589SOL    HW210386   3.402   3.602   4.358
 2589SOL    HW310387   3.358   3.566   4.218
 2589SOL    MW410388   3.405   3.615   4.272
 2590SOL     OW10389   3.323   3.874   4.193
 2590SOL    HW210390   3.346   3.787   4.224
 2590SOL    HW310391   3.316   3.865   4.098
 2590SOL    MW410392   3.325   3.862   4.184
 2591SOL     OW10393   3.102   3.985   4.327
 2591SOL    HW210394   3.105   3.975   4.422
 2591SOL    HW310395   3.176   3.933   4.295
 2591SOL    MW410396   3.112   3.977   4.335
 2592SOL     OW10397   3.161   4.227   4.200
 2592SOL    HW210398   3.251   4.230   4.234
 2592SOL    HW310399   3.129   4.140   4.225
 2592SOL    MW410400   3.169   4.216   4.207
 2593SOL     OW10401   3.417   4.319   4.254
 2593SOL    HW210402   3.437   4.303   4.346
 2593SOL    HW310403   3.492   4.284   4.207
 2593SOL    MW410404   3.429   4.313   4.260
 2594SOL     OW10405   3.808   4.643   4.127
 2594SOL    HW210406   3.879   4.692   4.169
 2594SOL    HW310407   3.812   4.669   4.035
 2594SOL    MW410408   3.818   4.653   4.120
 2595SOL     OW10409   3.598   0.117   4.255
 2595SOL    HW210410   3.590   0.208   4.227
 2595SOL    HW310411   3.670   0.081   4.204
 2595SOL    MW410412   3.606   0.124   4.245
 2596SOL     OW10413   3.620   0.362   4.148
 2596SOL    HW210414   3.699   0.409   4.174
 2596SOL    HW310415   3.628   0.353   4.053
 2596SOL    MW410416   3.632   0.367   4.139
 2597SOL     OW10417   3.822   0.532   4.251
 2597SOL    HW210418   3.800   0.520   4.343
 2597SOL    HW310419   3.816   0.627   4.237
 2597SOL    MW410420   3.818   0.543   4.261
 2598SOL     OW10421   3.822   0.804   4.141
 2598SOL    HW210422   3.737   0.838   4.169
 2598SOL    HW310423   3.812   0.791   4.047
 2598SOL    MW410424   3.809   0.807   4.132
 2599SOL     OW10425   3.602   0.901   4.253
 2599SOL    HW210426   3.611   0.989   4.217
 2599SOL    HW310427   3.529   0.862   4.205
 2599SOL    MW410428   3.593   0.907   4.242
 2600SOL     OW10429   3.598   1.150   4.155
 2600SOL    HW210430   3.527   1.193   4.203
 2600SOL    HW310431   3.564   1.141   4.066
 2600SOL    MW410432   3.584   1.154   4.150
 2601SOL     OW10433   3.806   1.314   4.264
 2601SOL    HW210434   3.738   1.253   4.236
 2601SOL    HW310435   3.790   1.394   4.214
 2601SOL    MW410436   3.795   1.317   4.254
 2602SOL     OW10437   3.764   1.551   4.118
 2602SOL    HW210438   3.834   1.604   4.155
 2602SOL    HW310439   3.684   1.584   4.158
 2602SOL    MW410440   3.763   1.562   4.128
 2603SOL     OW10441   3.590   1.995   4.327
 2603SOL    HW210442   3.579   1.906   4.294
 2603SOL    HW310443   3.580   1.987   4.421
 2603SOL    MW410444   3.587   1.982   4.335
 2604SOL     OW10445   3.554   1.756   4.207
 2604SOL    HW210446   3.499   1.679   4.192
 2604SOL    HW310447   3.541   1.809   4.128
 2604SOL    MW410448   3.545   1.753   4.194
 2605SOL     OW10449   3.876   2.076   4.290
 2605SOL    HW210450   3.881   2.089   4.384
 2605SOL    HW310451   3.785   2.052   4.273
 2605SOL    MW410452   3.865   2.075   4.300
 2606SOL     OW10453   3.851   2.333   4.182
 2606SOL    HW210454   3.855   2.250   4.230
 2606SOL    HW310455   3.836   2.306   4.091
 2606SOL    MW410456   3.850   2.318   4.176
 2607SOL     OW10457   3.567   2.422   4.285
 2607SOL    HW210458   3.568   2.417   4.380
 2607SOL    HW310459   3.647   2.377   4.257
 2607SOL    MW410460   3.578   2.415   4.294
 2608SOL     OW10461   3.597   2.687   4.201
 2608SOL    HW210462   3.576   2.597   4.226
 2608SOL    HW310463   3.632   2.679   4.112
 2608SOL    MW410464   3.599   2.674   4.192
 2609SOL     OW10465   3.839   2.813   4.291
 2609SOL    HW210466   3.823   2.846   4.380
 2609SOL    HW310467   3.762   2.760   4.272
 2609SOL    MW410468   3.827   2.811   4.301
 2610SOL     OW10469   3.839   3.076   4.166
 2610SOL    HW210470   3.844   2.982   4.186
 2610SOL    HW310471   3.830   3.079   4.071
 2610SOL    MW410472   3.838   3.064   4.156
 2611SOL     OW10473   3.580   3.229   4.251
 2611SOL    HW210474   3.664   3.183   4.257
 2611SOL    HW310475   3.522   3.167   4.206
 2611SOL    MW410476   3.583   3.215   4.246
 2612SOL     OW10477   3.628   3.500   4.174
 2612SOL    HW210478   3.625   3.411   4.208
 2612SOL    HW310479   3.558   3.547   4.220
 2612SOL    MW410480   3.619   3.495   4.184
 2613SOL     OW10481   3.863   3.594   4.264
 2613SOL    HW210482   3.923   3.561   4.197
 2613SOL    HW310483   3.776   3.569   4.232
 2613SOL    MW410484   3.859   3.586   4.251
 2614SOL     OW10485   3.808   3.840   4.161
 2614SOL    HW210486   3.733   3.885   4.198
 2614SOL    HW310487   3.817   3.760   4.213
 2614SOL    MW410488   3.799   3.835   4.173
 2615SOL     OW10489   3.581   3.993   4.250
 2615SOL    HW210490   3.576   3.993   4.346
 2615SOL    HW310491   3.495   3.961   4.222
 2615SOL    MW410492   3.569   3.989   4.259
 2616SOL     OW10493   3.642   4.235   4.123
 2616SOL    HW210494   3.709   4.277   4.176
 2616SOL    HW310495   3.648   4.142   4.146
 2616SOL    MW410496   3.651   4.228   4.133
 2617SOL     OW10497   3.829   4.391   4.242
 2617SOL    HW210498   3.909   4.347   4.214
 2617SOL    HW310499   3.820   4.464   4.181
 2617SOL    MW410500   3.838   4.395   4.230
 2618SOL     OW10501   4.230   4.637   4.153
 2618SOL    HW210502   4.228   4.551   4.195
 2618SOL    HW310503   4.321   4.666   4.165
 2618SOL    MW410504   4.242   4.630   4.160
 2619SOL     OW10505   4.005   0.127   4.231
 2619SOL    HW210506   4.018   0.214   4.192
 2619SOL    HW310507   4.087   0.080   4.212
 2619SOL    MW410508   4.018   0.132   4.223
 2620SOL     OW10509   4.026   0.392   4.121
 2620SOL    HW210510   4.095   0.439   4.167
 2620SOL    HW310511   3.945   0.435   4.148
 2620SOL    MW410512   4.025   0.404   4.131
 2621SOL     OW10513   4.239   0.541   4.206
 2621SOL    HW210514   4.251   0.630   4.173
 2621SOL    HW310515   4.303   0.488   4.159
 2621SOL    MW410516   4.249   0.546   4.196
 2622SOL     OW10517   4.280   0.789   4.082
 2622SOL    HW210518   4.205   0.831   4.125
 2622SOL    HW310519   4.276   0.819   3.991
 2622SOL    MW410520   4.270   0.799   4.076
 2623SOL     OW10521   4.059   0.911   4.214
 2623SOL    HW210522   4.048   1.004   4.236
 2623SOL    HW310523   3.973   0.884   4.182
 2623SOL    MW410524   4.046   0.920   4.213
 2624SOL     OW10525   4.030   1.185   4.205
 2624SOL    HW210526   4.103   1.219   4.258
 2624SOL    HW310527   3.954   1.236   4.232
 2624SOL    MW410528   4.030   1.196   4.216
 2625SOL     OW10529   4.279   1.279   4.326
 2625SOL    HW210530   4.311   1.307   4.412
 2625SOL    HW310531   4.349   1.224   4.291
 2625SOL    MW410532   4.293   1.276   4.333
 2626SOL     OW10533   4.219   1.534   4.215
 2626SOL    HW210534   4.236   1.445   4.247
 2626SOL    HW310535   4.247   1.532   4.124
 2626SOL    MW410536   4.225   1.522   4.207
 2627SOL     OW10537   3.983   1.670   4.242
 2627SOL    HW210538   3.961   1.672   4.335
 2627SOL    HW310539   4.060   1.614   4.237
 2627SOL    MW410540   3.990   1.663   4.254
 2628SOL     OW10541   4.034   1.916   4.138
 2628SOL    HW210542   4.009   1.834   4.181
 2628SOL    HW310543   3.979   1.983   4.179
 2628SOL    MW410544   4.024   1.914   4.149
 2629SOL     OW10545   4.487   1.932   4.145
 2629SOL    HW210546   4.564   1.974   4.186
 2629SOL    HW310547   4.413   1.984   4.177
 2629SOL    MW410548   4.487   1.945   4.155
 2630SOL     OW10549   4.272   2.313   4.186
 2630SOL    HW210550   4.207   2.377   4.214
 2630SOL    HW310551   4.254   2.235   4.239
 2630SOL    MW410552   4.261   2.311   4.196
 2631SOL     OW10553   4.074   2.477   4.273
 2631SOL    HW210554   4.077   2.478   4.369
 2631SOL    HW310555   3.994   2.430   4.252
 2631SOL    MW410556   4.064   2.471   4.283
 2632SOL     OW10557   4.074   2.712   4.139
 2632SOL    HW210558   4.077   2.626   4.181
 2632SOL    HW310559   3.998   2.755   4.178
 2632SOL    MW410560   4.064   2.706   4.150
 2633SOL     OW10561   4.268   2.835   4.282
 2633SOL    HW210562   4.204   2.786   4.231
 2633SOL    HW310563   4.351   2.790   4.266
 2633SOL    MW410564   4.271   2.822   4.274
 2634SOL     OW10565   4.261   3.097   4.155
 2634SOL    HW210566   4.279   3.013   4.196
 2634SOL    HW310567   4.271   3.081   4.061
 2634SOL    MW410568   4.264   3.084   4.148
 2635SOL     OW10569   4.034   3.259   4.251
 2635SOL    HW210570   4.113   3.210   4.226
 2635SOL    HW310571   3.962   3.200   4.230
 2635SOL    MW410572   4.035   3.245   4.245
 2636SOL     OW10573   4.090   3.498   4.138
 2636SOL    HW210574   4.062   3.412   4.168
 2636SOL    HW310575   4.085   3.494   4.043
 2636SOL    MW410576   4.086   3.486   4.129
 2637SOL     OW10577   4.308   3.627   4.228
 2637SOL    HW210578   4.286   3.715   4.196
 2637SOL    HW310579   4.231   3.574   4.207
 2637SOL    MW410580   4.295   3.632   4.221
 2638SOL     OW10581   4.268   3.880   4.127
 2638SOL    HW210582   4.192   3.925   4.165
 2638SOL    HW310583   4.261   3.898   4.033
 2638SOL    MW410584   4.257   3.888   4.120
 2639SOL     OW10585   4.037   3.978   4.219
 2639SOL    HW210586   4.036   3.975   4.315
 2639SOL    HW310587   3.958   3.930   4.193
 2639SOL    MW410588   4.026   3.971   4.228
 2640SOL     OW10589   4.018   4.242   4.123
 2640SOL    HW210590   4.081   4.298   4.167
 2640SOL    HW310591   4.031   4.155   4.162
 2640SOL    MW410592   4.028   4.238   4.134
 2641SOL     OW10593   3.968   4.360   4.645
 2641SOL    HW210594   3.881   4.380   4.609
 2641SOL    HW310595   4.003   4.445   4.671
 2641SOL    MW410596   3.961   4.374   4.644
 2642SOL     OW10597   4.201   0.180   4.807
 2642SOL    HW210598   4.258   0.205   4.735
 2642SOL    HW310599   4.129   0.243   4.804
 2642SOL    MW410600   4.199   0.191   4.797
 2643SOL     OW10601   4.330   4.540   4.524
 2643SOL    HW210602   4.370   4.625   4.545
 2643SOL    HW310603   4.250   4.539   4.575
 2643SOL    MW410604   4.325   4.551   4.533
 2644SOL     OW10605   3.960   0.072   4.519
 2644SOL    HW210606   3.975   0.088   4.425
 2644SOL    HW310607   3.865   0.071   4.528
 2644SOL    MW410608   3.949   0.074   4.508
 2645SOL     OW10609   4.280   1.614   4.722
 2645SOL    HW210610   4.214   1.549   4.700
 2645SOL    HW310611   4.339   1.615   4.646
 2645SOL    MW410612   4.279   1.606   4.709
 2646SOL     OW10613   0.447   0.022   4.560
 2646SOL    HW210614   0.369   0.006   4.613
 2646SOL    HW310615   0.513  -0.036   4.597
 2646SOL    MW410616   0.445   0.012   4.572
 2647SOL     OW10617   0.159   0.718   4.578
 2647SOL    HW210618   0.156   0.625   4.557
 2647SOL    HW310619   0.069   0.742   4.598
 2647SOL    MW410620   0.147   0.709   4.578
 2648SOL     OW10621   4.362   0.777   4.519
 2648SOL    HW210622   4.322   0.690   4.511
 2648SOL    HW310623   4.400   0.793   4.432
 2648SOL    MW410624   4.362   0.767   4.506
 2649SOL     OW10625   0.685   1.218   4.587
 2649SOL    HW210626   0.677   1.312   4.604
 2649SOL    HW310627   0.598   1.183   4.606
 2649SOL    MW410628   0.672   1.226   4.592
 2650SOL     OW10629   1.188   2.000   4.516
 2650SOL    HW210630   1.281   1.995   4.537
 2650SOL    HW310631   1.156   2.073   4.570
 2650SOL    MW410632   1.196   2.009   4.526
 2651SOL     OW10633   4.355   1.309   4.586
 2651SOL    HW210634   4.386   1.219   4.586
 2651SOL    HW310635   4.432   1.361   4.609
 2651SOL    MW410636   4.369   1.304   4.589
 2652SOL     OW10637   0.264   1.810   4.542
 2652SOL    HW210638   0.175   1.776   4.532
 2652SOL    HW310639   0.253   1.904   4.555
 2652SOL    MW410640   0.251   1.818   4.542
 2653SOL     OW10641   0.464   1.679   4.241
 2653SOL    HW210642   0.389   1.634   4.202
 2653SOL    HW310643   0.540   1.626   4.214
 2653SOL    MW410644   0.464   1.666   4.232
 2654SOL     OW10645   0.186   2.071   4.541
 2654SOL    HW210646   0.259   2.119   4.579
 2654SOL    HW310647   0.108   2.109   4.582
 2654SOL    MW410648   0.185   2.082   4.551
 2655SOL     OW10649   4.044   2.317   4.723
 2655SOL    HW210650   4.109   2.257   4.759
 2655SOL    HW310651   4.094   2.381   4.674
 2655SOL    MW410652   4.059   2.317   4.721
 2656SOL     OW10653   0.229   2.874   4.576
 2656SOL    HW210654   0.230   2.789   4.621
 2656SOL    HW310655   0.251   2.853   4.486
 2656SOL    MW410656   0.232   2.860   4.570
 2657SOL     OW10657   0.385   3.144   4.494
 2657SOL    HW210658   0.347   3.069   4.539
 2657SOL    HW310659   0.324   3.216   4.510
 2657SOL    MW410660   0.372   3.143   4.502
 2658SOL     OW10661   4.464   2.471   4.593
 2658SOL    HW210662   4.479   2.468   4.498
 2658SOL    HW310663   4.540   2.517   4.628
 2658SOL    MW410664   4.476   2.477   4.585
 2659SOL     OW10665   4.289   3.425   4.641
 2659SOL    HW210666   4.369   3.372   4.638
 2659SOL    HW310667   4.224   3.373   4.593
 2659SOL    MW410668   4.291   3.411   4.634
 2660SOL     OW10669   0.210   3.344   4.591
 2660SOL    HW210670   0.209   3.427   4.543
 2660SOL    HW310671   0.267   3.360   4.666
 2660SOL    MW410672   0.217   3.357   4.595
 2661SOL     OW10673   4.401   3.935   4.534
 2661SOL    HW210674   4.306   3.943   4.544
 2661SOL    HW310675   4.418   3.841   4.536
 2661SOL    MW410676   4.391   3.924   4.535
 2662SOL     OW10677   0.015   0.080   4.502
 2662SOL    HW210678  -0.015   0.161   4.543
 2662SOL    HW310679   0.083   0.047   4.560
 2662SOL    MW410680   0.020   0.086   4.515
 2663SOL     OW10681   3.799   0.486   4.536
 2663SOL    HW210682   3.718   0.453   4.575
 2663SOL    HW310683   3.815   0.569   4.581
 2663SOL    MW410684   3.791   0.493   4.547
 2664SOL     OW10685   4.151   3.677   4.645
 2664SOL    HW210686   4.186   3.740   4.708
 2664SOL    HW310687   4.204   3.599   4.657
 2664SOL    MW410688   4.162   3.675   4.655
 2665SOL     OW10689   4.007   4.093   4.698
 2665SOL    HW210690   4.006   4.188   4.685
 2665SOL    HW310691   3.914   4.070   4.706
 2665SOL    MW410692   3.994   4.103   4.698
 2666SOL     OW10693   0.681   4.510   4.600
 2666SOL    HW210694   0.757   4.559   4.571
 2666SOL    HW310695   0.709   4.467   4.681
 2666SOL    MW410696   0.694   4.511   4.607
 2667SOL     OW10697   0.182   1.198   4.778
 2667SOL    HW210698   0.140   1.281   4.754
 2667SOL    HW310699   0.133   1.132   4.728
 2667SOL    MW410700   0.170   1.200   4.768
 2668SOL     OW10701   1.199   1.046   4.731
 2668SOL    HW210702   1.115   1.078   4.698
 2668SOL    HW310703   1.237   0.997   4.658
 2668SOL    MW410704   1.193   1.044   4.717
 2669SOL     OW10705   0.516   0.377   4.447
 2669SOL    HW210706   0.531   0.308   4.511
 2669SOL    HW310707   0.602   0.418   4.434
 2669SOL    MW410708   0.529   0.373   4.454
 2670SOL     OW10709   1.230   0.802   4.538
 2670SOL    HW210710   1.266   0.852   4.464
 2670SOL    HW310711   1.136   0.821   4.536
 2670SOL    MW410712   1.222   0.811   4.528
 2671SOL     OW10713   0.281   0.959   4.475
 2671SOL    HW210714   0.243   0.876   4.504
 2671SOL    HW310715   0.335   0.935   4.400
 2671SOL    MW410716   0.283   0.945   4.469
 2672SOL     OW10717   1.982   1.141   4.553
 2672SOL    HW210718   1.990   1.164   4.460
 2672SOL    HW310719   2.020   1.216   4.599
 2672SOL    MW410720   1.988   1.154   4.547
 2673SOL     OW10721   0.461   1.610   4.522
 2673SOL    HW210722   0.396   1.674   4.552
 2673SOL    HW310723   0.476   1.633   4.431
 2673SOL    MW410724   0.454   1.622   4.514
 2674SOL     OW10725   1.320   1.307   4.713
 2674SOL    HW210726   1.281   1.231   4.756
 2674SOL    HW310727   1.248   1.345   4.662
 2674SOL    MW410728   1.305   1.302   4.712
 2675SOL     OW10729   0.931   1.555   4.476
 2675SOL    HW210730   0.846   1.544   4.519
 2675SOL    HW310731   0.980   1.613   4.534
 2675SOL    MW410732   0.926   1.561   4.489
 2676SOL     OW10733   0.693   2.137   4.497
 2676SOL    HW210734   0.740   2.220   4.498
 2676SOL    HW310735   0.745   2.078   4.551
 2676SOL    MW410736   0.706   2.140   4.504
 2677SOL     OW10737   1.077   1.740   4.627
 2677SOL    HW210738   1.167   1.708   4.625
 2677SOL    HW310739   1.083   1.831   4.599
 2677SOL    MW410740   1.089   1.748   4.623
 2678SOL     OW10741   0.433   2.204   4.616
 2678SOL    HW210742   0.502   2.167   4.562
 2678SOL    HW310743   0.463   2.292   4.637
 2678SOL    MW410744   0.446   2.211   4.611
 2679SOL     OW10745   1.195   2.676   4.697
 2679SOL    HW210746   1.185   2.757   4.648
 2679SOL    HW310747   1.267   2.694   4.758
 2679SOL    MW410748   1.203   2.689   4.698
 2680SOL     OW10749   0.739   2.616   4.617
 2680SOL    HW210750   0.775   2.610   4.706
 2680SOL    HW310751   0.782   2.546   4.569
 2680SOL    MW410752   0.749   2.606   4.623
 2681SOL     OW10753   1.165   3.146   4.560
 2681SOL    HW210754   1.070   3.153   4.553
 2681SOL    HW310755   1.197   3.233   4.537
 2681SOL    MW410756   1.157   3.159   4.556
 2682SOL     OW10757   0.631   3.282   4.505
 2682SOL    HW210758   0.601   3.373   4.505
 2682SOL    HW310759   0.551   3.231   4.519
 2682SOL    MW410760   0.616   3.288   4.507
 2683SOL     OW10761   1.443   4.606   4.733
 2683SOL    HW210762   1.419   4.514   4.747
 2683SOL    HW310763   1.505   4.626   4.803
 2683SOL    MW410764   1.448   4.596   4.744
 2684SOL     OW10765   0.251   2.605   4.675
 2684SOL    HW210766   0.329   2.560   4.640
 2684SOL    HW310767   0.248   2.579   4.767
 2684SOL    MW410768   0.261   2.595   4.683
 2685SOL     OW10769   4.416   3.640   4.498
 2685SOL    HW210770   4.378   3.571   4.553
 2685SOL    HW310771   4.372   3.630   4.414
 2685SOL    MW410772   4.405   3.629   4.495
 2686SOL     OW10773   1.223   4.172   4.590
 2686SOL    HW210774   1.267   4.093   4.559
 2686SOL    HW310775   1.131   4.146   4.599
 2686SOL    MW410776   1.217   4.158   4.587
 2687SOL     OW10777   0.082   4.398   4.521
 2687SOL    HW210778   0.080   4.306   4.545
 2687SOL    HW310779  -0.011   4.423   4.514
 2687SOL    MW410780   0.070   4.389   4.523
 2688SOL     OW10781   0.112   4.126   4.635
 2688SOL    HW210782   0.178   4.088   4.578
 2688SOL    HW310783   0.039   4.064   4.632
 2688SOL    MW410784   0.111   4.113   4.627
 2689SOL     OW10785   0.199   4.612   4.704
 2689SOL    HW210786   0.241   4.593   4.789
 2689SOL    HW310787   0.184   4.525   4.666
 2689SOL    MW410788   0.202   4.598   4.710
 2690SOL     OW10789   0.924   4.620   4.518
 2690SOL    HW210790   0.986   4.550   4.497
 2690SOL    HW310791   0.926   4.678   4.442
 2690SOL    MW410792   0.933   4.618   4.506
 2691SOL     OW10793   1.061   4.377   4.484
 2691SOL    HW210794   1.149   4.353   4.512
 2691SOL    HW310795   1.011   4.295   4.490
 2691SOL    MW410796   1.066   4.363   4.488
 2692SOL     OW10797   0.868   0.602   4.578
 2692SOL    HW210798   0.837   0.584   4.667
 2692SOL    HW310799   0.802   0.562   4.521
 2692SOL    MW410800   0.855   0.594   4.582
 2693SOL     OW10801   1.482   0.728   4.618
 2693SOL    HW210802   1.401   0.757   4.576
 2693SOL    HW310803   1.463   0.732   4.712
 2693SOL    MW410804   1.469   0.732   4.625
 2694SOL     OW10805   1.756   0.776   4.550
 2694SOL    HW210806   1.661   0.785   4.552
 2694SOL    HW310807   1.781   0.812   4.465
 2694SOL    MW410808   1.747   0.782   4.539
 2695SOL     OW10809   0.417   1.172   4.630
 2695SOL    HW210810   0.391   1.083   4.604
 2695SOL    HW310811   0.357   1.195   4.701
 2695SOL    MW410812   0.406   1.163   4.636
 2696SOL     OW10813   0.867   1.983   4.638
 2696SOL    HW210814   0.917   2.043   4.693
 2696SOL    HW310815   0.870   1.899   4.683
 2696SOL    MW410816   0.874   1.980   4.651
 2697SOL     OW10817   0.934   1.119   4.599
 2697SOL    HW210818   0.841   1.142   4.602
 2697SOL    HW310819   0.937   1.039   4.547
 2697SOL    MW410820   0.922   1.111   4.593
 2698SOL     OW10821   1.723   1.042   4.605
 2698SOL    HW210822   1.741   0.949   4.621
 2698SOL    HW310823   1.809   1.081   4.592
 2698SOL    MW410824   1.736   1.035   4.605
 2699SOL     OW10825   1.093   1.325   4.507
 2699SOL    HW210826   1.030   1.260   4.539
 2699SOL    HW310827   1.041   1.404   4.493
 2699SOL    MW410828   1.078   1.327   4.509
 2700SOL     OW10829   1.096   2.456   4.564
 2700SOL    HW210830   1.128   2.538   4.600
 2700SOL    HW310831   1.166   2.425   4.507
 2700SOL    MW410832   1.109   2.463   4.561
 2701SOL     OW10833   1.479   2.844   4.775
 2701SOL    HW210834   1.507   2.768   4.722
 2701SOL    HW310835   1.560   2.877   4.813
 2701SOL    MW410836   1.493   2.838   4.773
 2702SOL     OW10837   1.603   2.985   4.391
 2702SOL    HW210838   1.696   3.002   4.409
 2702SOL    HW310839   1.557   3.022   4.466
 2702SOL    MW410840   1.610   2.992   4.403
 2703SOL     OW10841   1.299   3.377   4.503
 2703SOL    HW210842   1.384   3.357   4.543
 2703SOL    HW310843   1.309   3.350   4.412
 2703SOL    MW410844   1.312   3.371   4.496
 2704SOL     OW10845   0.827   2.842   4.493
 2704SOL    HW210846   0.922   2.837   4.505
 2704SOL    HW310847   0.794   2.759   4.529
 2704SOL    MW410848   0.835   2.830   4.500
 2705SOL     OW10849   0.570   3.986   4.457
 2705SOL    HW210850   0.596   4.074   4.484
 2705SOL    HW310851   0.536   3.997   4.368
 2705SOL    MW410852   0.569   3.999   4.449
 2706SOL     OW10853   1.103   2.845   4.492
 2706SOL    HW210854   1.121   2.845   4.399
 2706SOL    HW310855   1.123   2.934   4.521
 2706SOL    MW410856   1.108   2.857   4.484
 2707SOL     OW10857   0.886   3.142   4.516
 2707SOL    HW210858   0.807   3.195   4.508
 2707SOL    HW310859   0.856   3.052   4.503
 2707SOL    MW410860   0.872   3.137   4.513
 2708SOL     OW10861   1.597   3.639   4.565
 2708SOL    HW210862   1.691   3.647   4.550
 2708SOL    HW310863   1.588   3.554   4.609
 2708SOL    MW410864   1.608   3.629   4.569
 2709SOL     OW10865   0.498   3.537   4.559
 2709SOL    HW210866   0.552   3.616   4.559
 2709SOL    HW310867   0.415   3.564   4.521
 2709SOL    MW410868   0.494   3.551   4.554
 2710SOL     OW10869   0.304   3.938   4.506
 2710SOL    HW210870   0.396   3.965   4.501
 2710SOL    HW310871   0.303   3.874   4.577
 2710SOL    MW410872   0.316   3.933   4.515
 2711SOL     OW10873   0.934   4.157   4.601
 2711SOL    HW210874   0.842   4.185   4.597
 2711SOL    HW310875   0.932   4.063   4.583
 2711SOL    MW410876   0.922   4.148   4.598
 2712SOL     OW10877   0.678   4.238   4.504
 2712SOL    HW210878   0.649   4.320   4.545
 2712SOL    HW310879   0.698   4.263   4.414
 2712SOL    MW410880   0.677   4.252   4.498
 2713SOL     OW10881   2.231   3.813   4.609
 2713SOL    HW210882   2.192   3.756   4.543
 2713SOL    HW310883   2.253   3.754   4.681
 2713SOL    MW410884   2.229   3.798   4.610
 2714SOL     OW10885   1.656   4.439   4.553
 2714SOL    HW210886   1.572   4.404   4.584
 2714SOL    HW310887   1.649   4.437   4.458
 2714SOL    MW410888   1.644   4.434   4.545
 2715SOL     OW10889   1.420   4.331   4.752
 2715SOL    HW210890   1.469   4.270   4.807
 2715SOL    HW310891   1.367   4.275   4.695
 2715SOL    MW410892   1.419   4.316   4.752
 2716SOL     OW10893   1.142   0.530   4.553
 2716SOL    HW210894   1.192   0.611   4.551
 2716SOL    HW310895   1.050   0.557   4.547
 2716SOL    MW410896   1.136   0.544   4.552
 2717SOL     OW10897   1.810   4.658   4.583
 2717SOL    HW210898   1.745   4.589   4.572
 2717SOL    HW310899   1.894   4.616   4.563
 2717SOL    MW410900   1.813   4.643   4.579
 2718SOL     OW10901   1.343   0.347   4.662
 2718SOL    HW210902   1.266   0.402   4.651
 2718SOL    HW310903   1.318   0.262   4.625
 2718SOL    MW410904   1.330   0.343   4.655
 2719SOL     OW10905   1.846   1.654   4.597
 2719SOL    HW210906   1.767   1.608   4.624
 2719SOL    HW310907   1.849   1.642   4.502
 2719SOL    MW410908   1.836   1.646   4.588
 2720SOL     OW10909   0.958   0.856   4.497
 2720SOL    HW210910   0.930   0.867   4.406
 2720SOL    HW310911   0.907   0.781   4.528
 2720SOL    MW410912   0.947   0.847   4.489
 2721SOL     OW10913   2.046   0.450   4.564
 2721SOL    HW210914   2.129   0.415   4.595
 2721SOL    HW310915   1.985   0.377   4.570
 2721SOL    MW410916   2.049   0.436   4.569
 2722SOL     OW10917   1.543   1.238   4.532
 2722SOL    HW210918   1.480   1.248   4.603
 2722SOL    HW310919   1.588   1.156   4.551
 2722SOL    MW410920   1.541   1.229   4.544
 2723SOL     OW10921   1.368   1.681   4.576
 2723SOL    HW210922   1.444   1.630   4.602
 2723SOL    HW310923   1.371   1.681   4.480
 2723SOL    MW410924   1.378   1.674   4.566
 2724SOL     OW10925   1.444   3.082   4.637
 2724SOL    HW210926   1.353   3.089   4.607
 2724SOL    HW310927   1.446   2.999   4.686
 2724SOL    MW410928   1.432   3.072   4.640
 2725SOL     OW10929   2.260   2.465   4.436
 2725SOL    HW210930   2.306   2.444   4.355
 2725SOL    HW310931   2.250   2.560   4.434
 2725SOL    MW410932   2.265   2.475   4.425
 2726SOL     OW10933   0.832   2.386   4.481
 2726SOL    HW210934   0.926   2.392   4.500
 2726SOL    HW310935   0.822   2.432   4.398
 2726SOL    MW410936   0.843   2.393   4.473
 2727SOL     OW10937   1.357   3.962   4.493
 2727SOL    HW210938   1.312   3.878   4.480
 2727SOL    HW310939   1.438   3.940   4.539
 2727SOL    MW410940   1.362   3.948   4.497
 2728SOL     OW10941   1.303   2.449   4.329
 2728SOL    HW210942   1.307   2.521   4.267
 2728SOL    HW310943   1.388   2.406   4.321
 2728SOL    MW410944   1.315   2.453   4.319
 2729SOL     OW10945   1.520   2.381   4.548
 2729SOL    HW210946   1.614   2.361   4.552
 2729SOL    HW310947   1.515   2.475   4.563
 2729SOL    MW410948   1.532   2.390   4.550
 2730SOL     OW10949   1.578   3.364   4.656
 2730SOL    HW210950   1.548   3.298   4.717
 2730SOL    HW310951   1.662   3.331   4.624
 2730SOL    MW410952   1.585   3.351   4.660
 2731SOL     OW10953   1.179   3.714   4.469
 2731SOL    HW210954   1.198   3.628   4.507
 2731SOL    HW310955   1.161   3.695   4.377
 2731SOL    MW410956   1.179   3.700   4.462
 2732SOL     OW10957   0.680   3.734   4.534
 2732SOL    HW210958   0.651   3.823   4.515
 2732SOL    HW310959   0.772   3.742   4.557
 2732SOL    MW410960   0.688   3.746   4.534
 2733SOL     OW10961   2.088   3.477   4.526
 2733SOL    HW210962   2.068   3.515   4.440
 2733SOL    HW310963   2.145   3.403   4.506
 2733SOL    MW410964   2.093   3.472   4.512
 2734SOL     OW10965   1.853   3.281   4.555
 2734SOL    HW210966   1.929   3.339   4.561
 2734SOL    HW310967   1.843   3.264   4.461
 2734SOL    MW410968   1.861   3.286   4.543
 2735SOL     OW10969   2.369   3.243   4.185
 2735SOL    HW210970   2.344   3.152   4.198
 2735SOL    HW310971   2.461   3.246   4.212
 2735SOL    MW410972   2.378   3.231   4.190
 2736SOL     OW10973   0.976   3.890   4.507
 2736SOL    HW210974   0.953   3.922   4.419
 2736SOL    HW310975   1.048   3.829   4.492
 2736SOL    MW410976   0.982   3.886   4.493
 2737SOL     OW10977   1.807   4.230   4.669
 2737SOL    HW210978   1.768   4.309   4.633
 2737SOL    HW310979   1.898   4.254   4.685
 2737SOL    MW410980   1.814   4.244   4.666
 2738SOL     OW10981   2.324   0.369   4.670
 2738SOL    HW210982   2.391   0.395   4.607
 2738SOL    HW310983   2.347   0.416   4.750
 2738SOL    MW410984   2.336   0.379   4.672
 2739SOL     OW10985   1.277   0.087   4.555
 2739SOL    HW210986   1.191   0.048   4.570
 2739SOL    HW310987   1.337   0.034   4.609
 2739SOL    MW410988   1.274   0.075   4.564
 2740SOL     OW10989   1.818   0.268   4.555
 2740SOL    HW210990   1.808   0.190   4.609
 2740SOL    HW310991   1.741   0.322   4.574
 2740SOL    MW410992   1.807   0.265   4.565
 2741SOL     OW10993   2.412   0.117   4.570
 2741SOL    HW210994   2.370   0.125   4.484
 2741SOL    HW310995   2.376   0.190   4.621
 2741SOL    MW410996   2.401   0.127   4.565
 2742SOL     OW10997   2.037   0.720   4.636
 2742SOL    HW210998   2.035   0.626   4.621
 2742SOL    HW310999   1.952   0.752   4.605
 2742SOL    MW411000   2.025   0.712   4.630
 2743SOL     OW11001   1.582   0.451   4.572
 2743SOL    HW211002   1.568   0.544   4.590
 2743SOL    HW311003   1.502   0.409   4.602
 2743SOL    MW411004   1.569   0.458   4.578
 2744SOL     OW11005   2.116   1.623   4.675
 2744SOL    HW211006   2.147   1.534   4.689
 2744SOL    HW311007   2.025   1.612   4.645
 2744SOL    MW411008   2.108   1.610   4.673
 2745SOL     OW11009   0.847   1.702   4.782
 2745SOL    HW211010   0.940   1.698   4.759
 2745SOL    HW311011   0.842   1.662   4.868
 2745SOL    MW411012   0.859   1.696   4.790
 2746SOL     OW11013   1.604   1.509   4.609
 2746SOL    HW211014   1.598   1.431   4.554
 2746SOL    HW311015   1.583   1.478   4.697
 2746SOL    MW411016   1.600   1.495   4.613
 2747SOL     OW11017   1.070   2.211   4.698
 2747SOL    HW211018   1.158   2.205   4.736
 2747SOL    HW311019   1.067   2.298   4.657
 2747SOL    MW411020   1.081   2.222   4.698
 2748SOL     OW11021   1.458   1.950   4.573
 2748SOL    HW211022   1.548   1.945   4.541
 2748SOL    HW311023   1.430   1.859   4.579
 2748SOL    MW411024   1.466   1.938   4.570
 2749SOL     OW11025   2.030   2.112   4.245
 2749SOL    HW211026   1.946   2.066   4.241
 2749SOL    HW311027   2.012   2.198   4.206
 2749SOL    MW411028   2.016   2.117   4.240
 2750SOL     OW11029   1.388   2.197   4.703
 2750SOL    HW211030   1.424   2.111   4.682
 2750SOL    HW311031   1.424   2.255   4.637
 2750SOL    MW411032   1.398   2.193   4.692
 2751SOL     OW11033   2.498   3.047   4.438
 2751SOL    HW211034   2.532   3.103   4.508
 2751SOL    HW311035   2.422   3.005   4.476
 2751SOL    MW411036   2.493   3.049   4.452
 2752SOL     OW11037   1.745   2.931   4.804
 2752SOL    HW211038   1.769   2.861   4.743
 2752SOL    HW311039   1.816   2.995   4.797
 2752SOL    MW411040   1.757   2.930   4.795
 2753SOL     OW11041   1.858   3.998   4.523
 2753SOL    HW211042   1.862   4.008   4.428
 2753SOL    HW311043   1.857   4.087   4.556
 2753SOL    MW411044   1.859   4.011   4.515
 2754SOL     OW11045   2.591   3.152   4.702
 2754SOL    HW211046   2.639   3.070   4.694
 2754SOL    HW311047   2.523   3.135   4.768
 2754SOL    MW411048   2.588   3.139   4.709
 2755SOL     OW11049   2.289   3.300   4.458
 2755SOL    HW211050   2.306   3.273   4.368
 2755SOL    HW311051   2.276   3.219   4.506
 2755SOL    MW411052   2.290   3.286   4.453
 2756SOL     OW11053   2.745   3.949   4.495
 2756SOL    HW211054   2.663   3.905   4.519
 2756SOL    HW311055   2.740   3.959   4.400
 2756SOL    MW411056   2.734   3.944   4.485
 2757SOL     OW11057   2.499   3.817   4.525
 2757SOL    HW211058   2.493   3.722   4.523
 2757SOL    HW311059   2.410   3.846   4.544
 2757SOL    MW411060   2.486   3.809   4.527
 2758SOL     OW11061   2.445   3.532   4.473
 2758SOL    HW211062   2.384   3.458   4.467
 2758SOL    HW311063   2.464   3.555   4.382
 2758SOL    MW411064   2.439   3.525   4.460
 2759SOL     OW11065   1.871   3.707   4.558
 2759SOL    HW211066   1.956   3.668   4.580
 2759SOL    HW311067   1.883   3.801   4.575
 2759SOL    MW411068   1.884   3.714   4.563
 2760SOL     OW11069   2.097   4.302   4.697
 2760SOL    HW211070   2.143   4.227   4.658
 2760SOL    HW311071   2.166   4.367   4.713
 2760SOL    MW411072   2.112   4.301   4.694
 2761SOL     OW11073   1.606   4.126   4.834
 2761SOL    HW211074   1.683   4.164   4.792
 2761SOL    HW311075   1.587   4.047   4.783
 2761SOL    MW411076   1.614   4.120   4.822
 2762SOL     OW11077   2.037   4.502   4.511
 2762SOL    HW211078   2.047   4.424   4.565
 2762SOL    HW311079   2.117   4.552   4.527
 2762SOL    MW411080   2.049   4.498   4.520
 2763SOL     OW11081   2.311   4.502   4.596
 2763SOL    HW211082   2.388   4.445   4.594
 2763SOL    HW311083   2.346   4.590   4.611
 2763SOL    MW411084   2.326   4.506   4.598
 2764SOL     OW11085   1.510   1.482   4.855
 2764SOL    HW211086   1.480   1.572   4.841
 2764SOL    HW311087   1.435   1.428   4.830
 2764SOL    MW411088   1.496   1.487   4.850
 2765SOL     OW11089   2.689   0.037   4.579
 2765SOL    HW211090   2.595   0.054   4.586
 2765SOL    HW311091   2.705   0.032   4.485
 2765SOL    MW411092   2.679   0.038   4.568
 2766SOL     OW11093   2.474   0.782   4.539
 2766SOL    HW211094   2.411   0.836   4.587
 2766SOL    HW311095   2.559   0.814   4.569
 2766SOL    MW411096   2.477   0.794   4.549
 2767SOL     OW11097   2.890   0.803   4.659
 2767SOL    HW211098   2.974   0.828   4.620
 2767SOL    HW311099   2.904   0.714   4.691
 2767SOL    MW411100   2.903   0.795   4.658
 2768SOL     OW11101   2.159   1.339   4.669
 2768SOL    HW211102   2.179   1.285   4.745
 2768SOL    HW311103   2.229   1.319   4.606
 2768SOL    MW411104   2.171   1.329   4.670
 2769SOL     OW11105   2.372   1.288   4.495
 2769SOL    HW211106   2.406   1.228   4.561
 2769SOL    HW311107   2.428   1.365   4.502
 2769SOL    MW411108   2.384   1.290   4.504
 2770SOL     OW11109   2.527   1.526   4.547
 2770SOL    HW211110   2.597   1.583   4.517
 2770SOL    HW311111   2.452   1.584   4.559
 2770SOL    MW411112   2.526   1.541   4.544
 2771SOL     OW11113   2.330   1.730   4.558
 2771SOL    HW211114   2.306   1.727   4.466
 2771SOL    HW311115   2.255   1.691   4.604
 2771SOL    MW411116   2.317   1.724   4.552
 2772SOL     OW11117   2.213   2.183   4.514
 2772SOL    HW211118   2.234   2.276   4.510
 2772SOL    HW311119   2.158   2.167   4.437
 2772SOL    MW411120   2.209   2.193   4.504
 2773SOL     OW11121   2.416   2.005   4.561
 2773SOL    HW211122   2.374   1.919   4.561
 2773SOL    HW311123   2.344   2.067   4.569
 2773SOL    MW411124   2.401   2.002   4.562
 2774SOL     OW11125   2.712   2.472   4.437
 2774SOL    HW211126   2.638   2.506   4.488
 2774SOL    HW311127   2.781   2.537   4.449
 2774SOL    MW411128   2.711   2.485   4.445
 2775SOL     OW11129   1.832   2.712   4.619
 2775SOL    HW211130   1.891   2.761   4.560
 2775SOL    HW311131   1.891   2.658   4.671
 2775SOL    MW411132   1.848   2.712   4.618
 2776SOL     OW11133   2.240   3.114   4.664
 2776SOL    HW211134   2.150   3.115   4.695
 2776SOL    HW311135   2.248   3.031   4.617
 2776SOL    MW411136   2.230   3.103   4.662
 2777SOL     OW11137   2.676   3.377   4.527
 2777SOL    HW211138   2.657   3.306   4.589
 2777SOL    HW311139   2.592   3.420   4.513
 2777SOL    MW411140   2.663   3.373   4.534
 2778SOL     OW11141   2.372   3.050   4.895
 2778SOL    HW211142   2.317   3.087   4.964
 2778SOL    HW311143   2.322   3.064   4.814
 2778SOL    MW411144   2.358   3.057   4.893
 2779SOL     OW11145   1.587   3.900   4.635
 2779SOL    HW211146   1.673   3.925   4.600
 2779SOL    HW311147   1.586   3.805   4.629
 2779SOL    MW411148   1.598   3.891   4.630
 2780SOL     OW11149   2.757   4.205   4.603
 2780SOL    HW211150   2.665   4.224   4.621
 2780SOL    HW311151   2.759   4.113   4.577
 2780SOL    MW411152   2.745   4.195   4.602
 2781SOL     OW11153   1.970   3.069   4.680
 2781SOL    HW211154   1.994   2.999   4.619
 2781SOL    HW311155   1.923   3.133   4.625
 2781SOL    MW411156   1.967   3.069   4.665
 2782SOL     OW11157   3.528   3.850   4.857
 2782SOL    HW211158   3.474   3.929   4.856
 2782SOL    HW311159   3.514   3.812   4.943
 2782SOL    MW411160   3.519   3.855   4.868
 2783SOL     OW11161   3.164   3.933   4.591
 2783SOL    HW211162   3.095   3.868   4.603
 2783SOL    HW311163   3.245   3.884   4.595
 2783SOL    MW411164   3.165   3.918   4.594
 2784SOL     OW11165   2.243   4.094   4.552
 2784SOL    HW211166   2.227   4.016   4.606
 2784SOL    HW311167   2.250   4.061   4.463
 2784SOL    MW411168   2.242   4.079   4.547
 2785SOL     OW11169   2.470   4.279   4.585
 2785SOL    HW211170   2.396   4.219   4.597
 2785SOL    HW311171   2.487   4.276   4.491
 2785SOL    MW411172   2.462   4.271   4.574
 2786SOL     OW11173   3.042   0.442   4.526
 2786SOL    HW211174   3.029   0.474   4.436
 2786SOL    HW311175   3.121   0.487   4.556
 2786SOL    MW411176   3.051   0.452   4.518
 2787SOL     OW11177   2.893   0.233   4.679
 2787SOL    HW211178   2.817   0.194   4.638
 2787SOL    HW311179   2.934   0.285   4.610
 2787SOL    MW411180   2.888   0.235   4.664
 2788SOL     OW11181   3.200   0.190   4.483
 2788SOL    HW211182   3.156   0.135   4.548
 2788SOL    HW311183   3.187   0.280   4.515
 2788SOL    MW411184   3.192   0.195   4.496
 2789SOL     OW11185   2.699   0.979   4.580
 2789SOL    HW211186   2.763   0.923   4.624
 2789SOL    HW311187   2.722   0.973   4.487
 2789SOL    MW411188   2.711   0.971   4.573
 2790SOL     OW11189   3.558   0.646   4.763
 2790SOL    HW211190   3.546   0.554   4.739
 2790SOL    HW311191   3.643   0.670   4.726
 2790SOL    MW411192   3.568   0.637   4.755
 2791SOL     OW11193   2.206   0.934   4.586
 2791SOL    HW211194   2.143   1.001   4.560
 2791SOL    HW311195   2.152   0.860   4.614
 2791SOL    MW411196   2.190   0.933   4.586
 2792SOL     OW11197   2.523   1.161   4.673
 2792SOL    HW211198   2.583   1.230   4.702
 2792SOL    HW311199   2.580   1.095   4.635
 2792SOL    MW411200   2.539   1.161   4.672
 2793SOL     OW11201   2.936   1.332   4.568
 2793SOL    HW211202   2.856   1.307   4.615
 2793SOL    HW311203   2.919   1.308   4.477
 2793SOL    MW411204   2.923   1.326   4.562
 2794SOL     OW11205   2.964   1.617   4.655
 2794SOL    HW211206   2.894   1.644   4.595
 2794SOL    HW311207   2.967   1.521   4.647
 2794SOL    MW411208   2.955   1.608   4.646
 2795SOL     OW11209   2.739   1.712   4.488
 2795SOL    HW211210   2.729   1.799   4.527
 2795SOL    HW311211   2.708   1.723   4.398
 2795SOL    MW411212   2.734   1.725   4.481
 2796SOL     OW11213   2.688   1.962   4.597
 2796SOL    HW211214   2.720   2.050   4.575
 2796SOL    HW311215   2.593   1.970   4.594
 2796SOL    MW411216   2.680   1.975   4.594
 2797SOL     OW11217   2.821   2.230   4.513
 2797SOL    HW211218   2.777   2.313   4.496
 2797SOL    HW311219   2.844   2.197   4.426
 2797SOL    MW411220   2.818   2.237   4.499
 2798SOL     OW11221   3.062   2.181   4.625
 2798SOL    HW211222   3.044   2.192   4.718
 2798SOL    HW311223   2.977   2.192   4.582
 2798SOL    MW411224   3.049   2.184   4.631
 2799SOL     OW11225   2.455   2.802   4.701
 2799SOL    HW211226   2.424   2.850   4.778
 2799SOL    HW311227   2.386   2.814   4.635
 2799SOL    MW411228   2.442   2.810   4.702
 2800SOL     OW11229   3.601   3.088   4.623
 2800SOL    HW211230   3.512   3.081   4.657
 2800SOL    HW311231   3.613   3.181   4.606
 2800SOL    MW411232   3.591   3.099   4.625
 2801SOL     OW11233   2.688   2.864   4.567
 2801SOL    HW211234   2.618   2.834   4.625
 2801SOL    HW311235   2.643   2.894   4.488
 2801SOL    MW411236   2.673   2.864   4.564
 2802SOL     OW11237   2.963   3.484   4.498
 2802SOL    HW211238   3.024   3.422   4.536
 2802SOL    HW311239   2.877   3.453   4.526
 2802SOL    MW411240   2.960   3.472   4.507
 2803SOL     OW11241   2.948   2.961   4.557
 2803SOL    HW211242   2.998   2.880   4.555
 2803SOL    HW311243   2.858   2.934   4.576
 2803SOL    MW411244   2.943   2.947   4.559
 2804SOL     OW11245   2.868   4.468   4.569
 2804SOL    HW211246   2.824   4.384   4.583
 2804SOL    HW311247   2.802   4.533   4.591
 2804SOL    MW411248   2.853   4.465   4.574
 2805SOL     OW11249   3.397   3.790   4.615
 2805SOL    HW211250   3.405   3.701   4.581
 2805SOL    HW311251   3.446   3.790   4.697
 2805SOL    MW411252   3.404   3.778   4.621
 2806SOL     OW11253   3.872   3.706   4.667
 2806SOL    HW211254   3.967   3.694   4.673
 2806SOL    HW311255   3.841   3.629   4.619
 2806SOL    MW411256   3.881   3.694   4.662
 2807SOL     OW11257   2.957   3.752   4.588
 2807SOL    HW211258   2.877   3.794   4.556
 2807SOL    HW311259   2.956   3.665   4.549
 2807SOL    MW411260   2.946   3.746   4.579
 2808SOL     OW11261   3.086   4.226   4.679
 2808SOL    HW211262   2.993   4.248   4.675
 2808SOL    HW311263   3.093   4.141   4.637
 2808SOL    MW411264   3.075   4.218   4.673
 2809SOL     OW11265   3.066   4.663   4.658
 2809SOL    HW211266   3.014   4.584   4.640
 2809SOL    HW311267   3.003   4.726   4.692
 2809SOL    MW411268   3.051   4.661   4.660
 2810SOL     OW11269   3.298   0.561   4.498
 2810SOL    HW211270   3.357   0.556   4.423
 2810SOL    HW311271   3.315   0.647   4.536
 2810SOL    MW411272   3.308   0.571   4.493
 2811SOL     OW11273   2.526   0.518   4.560
 2811SOL    HW211274   2.620   0.528   4.574
 2811SOL    HW311275   2.491   0.606   4.569
 2811SOL    MW411276   2.534   0.531   4.563
 2812SOL     OW11277   2.277   1.119   4.815
 2812SOL    HW211278   2.368   1.120   4.783
 2812SOL    HW311279   2.232   1.058   4.757
 2812SOL    MW411280   2.283   1.111   4.803
 2813SOL     OW11281   2.793   0.527   4.628
 2813SOL    HW211282   2.864   0.533   4.565
 2813SOL    HW311283   2.816   0.453   4.684
 2813SOL    MW411284   2.805   0.518   4.627
 2814SOL     OW11285   3.372   0.807   4.647
 2814SOL    HW211286   3.425   0.870   4.598
 2814SOL    HW311287   3.433   0.767   4.708
 2814SOL    MW411288   3.387   0.810   4.648
 2815SOL     OW11289   3.378   1.219   4.566
 2815SOL    HW211290   3.293   1.195   4.602
 2815SOL    HW311291   3.424   1.136   4.555
 2815SOL    MW411292   3.373   1.205   4.569
 2816SOL     OW11293   2.690   1.364   4.704
 2816SOL    HW211294   2.686   1.402   4.792
 2816SOL    HW311295   2.632   1.419   4.652
 2816SOL    MW411296   2.682   1.377   4.709
 2817SOL     OW11297   4.117   0.906   4.520
 2817SOL    HW211298   4.103   0.879   4.429
 2817SOL    HW311299   4.205   0.873   4.542
 2817SOL    MW411300   4.127   0.898   4.511
 2818SOL     OW11301   3.416   1.497   4.575
 2818SOL    HW211302   3.333   1.544   4.571
 2818SOL    HW311303   3.393   1.409   4.605
 2818SOL    MW411304   3.402   1.491   4.579
 2819SOL     OW11305   3.210   1.706   4.538
 2819SOL    HW211306   3.242   1.796   4.541
 2819SOL    HW311307   3.131   1.707   4.592
 2819SOL    MW411308   3.204   1.718   4.545
 2820SOL     OW11309   3.278   1.986   4.538
 2820SOL    HW211310   3.216   2.051   4.571
 2820SOL    HW311311   3.305   2.020   4.452
 2820SOL    MW411312   3.273   1.999   4.531
 2821SOL     OW11313   3.636   1.757   4.783
 2821SOL    HW211314   3.613   1.752   4.876
 2821SOL    HW311315   3.658   1.667   4.759
 2821SOL    MW411316   3.636   1.744   4.792
 2822SOL     OW11317   2.883   2.676   4.468
 2822SOL    HW211318   2.830   2.747   4.505
 2822SOL    HW311319   2.966   2.680   4.515
 2822SOL    MW411320   2.887   2.686   4.479
 2823SOL     OW11321   3.490   2.437   4.540
 2823SOL    HW211322   3.395   2.432   4.535
 2823SOL    HW311323   3.508   2.520   4.585
 2823SOL    MW411324   3.480   2.448   4.545
 2824SOL     OW11325   3.205   2.414   4.515
 2824SOL    HW211326   3.168   2.427   4.428
 2824SOL    HW311327   3.157   2.339   4.550
 2824SOL    MW411328   3.194   2.406   4.508
 2825SOL     OW11329   3.628   2.678   4.596
 2825SOL    HW211330   3.680   2.756   4.576
 2825SOL    HW311331   3.691   2.614   4.627
 2825SOL    MW411332   3.643   2.680   4.597
 2826SOL     OW11333   3.292   3.022   4.688
 2826SOL    HW211334   3.224   2.994   4.749
 2826SOL    HW311335   3.309   2.946   4.634
 2826SOL    MW411336   3.285   3.009   4.689
 2827SOL     OW11337   3.394   2.808   4.536
 2827SOL    HW211338   3.393   2.798   4.441
 2827SOL    HW311339   3.474   2.764   4.564
 2827SOL    MW411340   3.404   2.801   4.528
 2828SOL     OW11341   4.179   2.509   4.558
 2828SOL    HW211342   4.274   2.515   4.574
 2828SOL    HW311343   4.151   2.600   4.551
 2828SOL    MW411344   4.188   2.522   4.559
 2829SOL     OW11345   3.618   3.352   4.517
 2829SOL    HW211346   3.705   3.391   4.510
 2829SOL    HW311347   3.606   3.307   4.434
 2829SOL    MW411348   3.628   3.351   4.505
 2830SOL     OW11349   3.566   3.990   4.536
 2830SOL    HW211350   3.627   3.976   4.608
 2830SOL    HW311351   3.492   3.933   4.555
 2830SOL    MW411352   3.565   3.981   4.548
 2831SOL     OW11353   3.355   4.059   4.802
 2831SOL    HW211354   3.358   4.155   4.802
 2831SOL    HW311355   3.276   4.037   4.753
 2831SOL    MW411356   3.345   4.069   4.795
 2832SOL     OW11357   3.322   4.328   4.748
 2832SOL    HW211358   3.384   4.301   4.681
 2832SOL    HW311359   3.238   4.292   4.719
 2832SOL    MW411360   3.319   4.320   4.735
 2833SOL     OW11361   3.496   4.281   4.517
 2833SOL    HW211362   3.532   4.193   4.521
 2833SOL    HW311363   3.572   4.338   4.529
 2833SOL    MW411364   3.511   4.277   4.519
 2834SOL     OW11365   3.756   3.953   4.725
 2834SOL    HW211366   3.795   3.868   4.703
 2834SOL    HW311367   3.686   3.931   4.787
 2834SOL    MW411368   3.752   3.939   4.730
 2835SOL     OW11369   3.423   0.159   4.629
 2835SOL    HW211370   3.393   0.094   4.693
 2835SOL    HW311371   3.353   0.159   4.562
 2835SOL    MW411372   3.410   0.150   4.628
 2836SOL     OW11373   3.129   0.896   4.536
 2836SOL    HW211374   3.127   0.984   4.573
 2836SOL    HW311375   3.194   0.849   4.589
 2836SOL    MW411376   3.138   0.902   4.548
 2837SOL     OW11377   3.124   1.153   4.655
 2837SOL    HW211378   3.132   1.191   4.743
 2837SOL    HW311379   3.051   1.200   4.615
 2837SOL    MW411380   3.116   1.164   4.662
 2838SOL     OW11381   4.078   1.421   4.610
 2838SOL    HW211382   4.156   1.366   4.613
 2838SOL    HW311383   4.007   1.360   4.589
 2838SOL    MW411384   4.079   1.405   4.608
 2839SOL     OW11385   3.824   0.986   4.548
 2839SOL    HW211386   3.819   1.076   4.579
 2839SOL    HW311387   3.914   0.976   4.517
 2839SOL    MW411388   3.835   0.996   4.548
 2840SOL     OW11389   0.000   1.054   4.550
 2840SOL    HW211390  -0.062   0.982   4.541
 2840SOL    HW311391   0.081   1.023   4.508
 2840SOL    MW411392   0.003   1.040   4.544
 2841SOL     OW11393   4.247   0.522   4.497
 2841SOL    HW211394   4.267   0.515   4.404
 2841SOL    HW311395   4.161   0.482   4.506
 2841SOL    MW411396   4.239   0.516   4.486
 2842SOL     OW11397   3.711   1.527   4.683
 2842SOL    HW211398   3.751   1.557   4.601
 2842SOL    HW311399   3.618   1.521   4.664
 2842SOL    MW411400   3.704   1.530   4.670
 2843SOL     OW11401   3.901   1.851   4.674
 2843SOL    HW211402   3.810   1.838   4.700
 2843SOL    HW311403   3.901   1.934   4.627
 2843SOL    MW411404   3.889   1.860   4.671
 2844SOL     OW11405   3.535   1.949   4.588
 2844SOL    HW211406   3.566   1.876   4.642
 2844SOL    HW311407   3.441   1.935   4.581
 2844SOL    MW411408   3.527   1.937   4.594
 2845SOL     OW11409   4.219   2.141   4.841
 2845SOL    HW211410   4.198   2.048   4.826
 2845SOL    HW311411   4.176   2.162   4.924
 2845SOL    MW411412   4.210   2.131   4.850
 2846SOL     OW11413   4.164   1.876   4.768
 2846SOL    HW211414   4.076   1.867   4.732
 2846SOL    HW311415   4.197   1.786   4.773
 2846SOL    MW411416   4.157   1.863   4.764
 2847SOL     OW11417   3.890   2.122   4.557
 2847SOL    HW211418   3.947   2.191   4.590
 2847SOL    HW311419   3.802   2.149   4.584
 2847SOL    MW411420   3.886   2.135   4.565
 2848SOL     OW11421   3.795   2.449   4.661
 2848SOL    HW211422   3.869   2.403   4.700
 2848SOL    HW311423   3.719   2.394   4.681
 2848SOL    MW411424   3.795   2.436   4.669
 2849SOL     OW11425   3.810   2.924   4.557
 2849SOL    HW211426   3.892   2.963   4.589
 2849SOL    HW311427   3.742   2.981   4.591
 2849SOL    MW411428   3.812   2.937   4.566
 2850SOL     OW11429   4.098   3.029   4.634
 2850SOL    HW211430   4.137   3.052   4.719
 2850SOL    HW311431   4.148   2.953   4.605
 2850SOL    MW411432   4.110   3.022   4.641
 2851SOL     OW11433   3.204   3.283   4.534
 2851SOL    HW211434   3.217   3.197   4.573
 2851SOL    HW311435   3.200   3.267   4.440
 2851SOL    MW411436   3.205   3.269   4.527
 2852SOL     OW11437   4.083   3.290   4.518
 2852SOL    HW211438   4.078   3.203   4.558
 2852SOL    HW311439   4.081   3.273   4.424
 2852SOL    MW411440   4.082   3.276   4.511
 2853SOL     OW11441   3.390   3.512   4.525
 2853SOL    HW211442   3.324   3.449   4.553
 2853SOL    HW311443   3.472   3.463   4.524
 2853SOL    MW411444   3.392   3.498   4.528
 2854SOL     OW11445   3.865   3.477   4.519
 2854SOL    HW211446   3.877   3.496   4.426
 2854SOL    HW311447   3.944   3.428   4.544
 2854SOL    MW411448   3.877   3.473   4.510
 2855SOL     OW11449   4.430   2.926   4.627
 2855SOL    HW211450   4.429   3.021   4.611
 2855SOL    HW311451   4.517   2.898   4.598
 2855SOL    MW411452   4.441   2.935   4.621
 2856SOL     OW11453   4.120   3.924   4.499
 2856SOL    HW211454   4.065   3.984   4.550
 2856SOL    HW311455   4.112   3.840   4.544
 2856SOL    MW411456   4.112   3.921   4.512
 2857SOL     OW11457   3.730   4.450   4.507
 2857SOL    HW211458   3.758   4.430   4.417
 2857SOL    HW311459   3.703   4.542   4.504
 2857SOL    MW411460   3.730   4.460   4.495
 2858SOL     OW11461   3.311   4.624   4.783
 2858SOL    HW211462   3.330   4.530   4.783
 2858SOL    HW311463   3.230   4.631   4.733
 2858SOL    MW411464   3.303   4.612   4.776
 2859SOL     OW11465   3.533   0.986   4.503
 2859SOL    HW211466   3.622   0.996   4.537
 2859SOL    HW311467   3.545   0.946   4.417
 2859SOL    MW411468   3.547   0.982   4.496
 2860SOL     OW11469   3.822   0.720   4.685
 2860SOL    HW211470   3.842   0.731   4.778
 2860SOL    HW311471   3.815   0.810   4.652
 2860SOL    MW411472   3.824   0.734   4.693
 2861SOL     OW11473   4.424   0.334   4.596
 2861SOL    HW211474   4.508   0.377   4.579
 2861SOL    HW311475   4.359   0.402   4.580
 2861SOL    MW411476   4.426   0.348   4.592
 2862SOL     OW11477   0.182   0.428   4.520
 2862SOL    HW211478   0.276   0.426   4.536
 2862SOL    HW311479   0.173   0.412   4.426
 2862SOL    MW411480   0.193   0.425   4.510
 2863SOL     OW11481   4.024   0.336   4.567
 2863SOL    HW211482   3.942   0.383   4.550
 2863SOL    HW311483   4.001   0.243   4.555
 2863SOL    MW411484   4.010   0.330   4.563
 2864SOL     OW11485   3.823   1.284   4.567
 2864SOL    HW211486   3.825   1.304   4.473
 2864SOL    HW311487   3.757   1.344   4.602
 2864SOL    MW411488   3.815   1.295   4.559
 2865SOL     OW11489   0.113   1.445   4.644
 2865SOL    HW211490   0.181   1.414   4.585
 2865SOL    HW311491   0.094   1.534   4.614
 2865SOL    MW411492   0.119   1.453   4.633
 2866SOL     OW11493   0.330   1.381   4.484
 2866SOL    HW211494   0.365   1.319   4.548
 2866SOL    HW311495   0.390   1.456   4.488
 2866SOL    MW411496   0.343   1.383   4.493
 2867SOL     OW11497   3.933   1.634   4.518
 2867SOL    HW211498   3.986   1.565   4.557
 2867SOL    HW311499   3.938   1.706   4.580
 2867SOL    MW411500   3.941   1.634   4.532
 2868SOL     OW11501   3.146   2.670   4.595
 2868SOL    HW211502   3.228   2.718   4.586
 2868SOL    HW311503   3.171   2.578   4.584
 2868SOL    MW411504   3.160   2.664   4.593
 2869SOL     OW11505   4.253   2.039   4.257
 2869SOL    HW211506   4.192   1.990   4.202
 2869SOL    HW311507   4.253   1.992   4.341
 2869SOL    MW411508   4.245   2.026   4.261
 2870SOL     OW11509   4.435   2.184   4.654
 2870SOL    HW211510   4.384   2.186   4.736
 2870SOL    HW311511   4.432   2.274   4.622
 2870SOL    MW411512   4.428   2.196   4.661
 2871SOL     OW11513   4.312   1.929   4.531
 2871SOL    HW211514   4.246   1.892   4.591
 2871SOL    HW311515   4.340   2.010   4.573
 2871SOL    MW411516   4.307   1.935   4.544
 2872SOL     OW11517   3.612   2.216   4.628
 2872SOL    HW211518   3.557   2.288   4.598
 2872SOL    HW311519   3.564   2.137   4.601
 2872SOL    MW411520   3.599   2.215   4.620
 2873SOL     OW11521   0.485   2.471   4.599
 2873SOL    HW211522   0.476   2.446   4.507
 2873SOL    HW311523   0.568   2.518   4.604
 2873SOL    MW411524   0.495   2.474   4.588
 2874SOL     OW11525   4.213   2.782   4.532
 2874SOL    HW211526   4.290   2.822   4.573
 2874SOL    HW311527   4.218   2.810   4.440
 2874SOL    MW411528   4.224   2.791   4.525
 2875SOL     OW11529   4.467   3.208   4.547
 2875SOL    HW211530   4.466   3.227   4.453
 2875SOL    HW311531   4.547   3.250   4.579
 2875SOL    MW411532   4.477   3.216   4.539
 2876SOL     OW11533   0.220   3.608   4.481
 2876SOL    HW211534   0.232   3.636   4.390
 2876SOL    HW311535   0.127   3.623   4.499
 2876SOL    MW411536   0.209   3.613   4.471
 2877SOL     OW11537   4.091   4.596   4.698
 2877SOL    HW211538   4.046   4.641   4.627
 2877SOL    HW311539   4.115   4.667   4.759
 2877SOL    MW411540   4.089   4.611   4.697
 2878SOL     OW11541   3.681   0.060   4.511
 2878SOL    HW211542   3.617   0.072   4.581
 2878SOL    HW311543   3.640   0.098   4.434
 2878SOL    MW411544   3.667   0.066   4.510
 2879SOL     OW11545   4.233   3.909   4.768
 2879SOL    HW211546   4.153   3.959   4.785
 2879SOL    HW311547   4.301   3.976   4.761
 2879SOL    MW411548   4.232   3.925   4.770
 2880SOL     OW11549   3.535   0.419   4.605
 2880SOL    HW211550   3.460   0.458   4.560
 2880SOL    HW311551   3.510   0.328   4.619
 2880SOL    MW411552   3.522   0.412   4.601
 2881SOL     OW11553   4.202   4.383   4.269
 2881SOL    HW211554   4.270   4.321   4.243
 2881SOL    HW311555   4.223   4.405   4.360
 2881SOL    MW411556   4.214   4.378   4.277
 2882NA      NA11557   2.557   4.342   0.544
 2883NA      NA11558   0.624   2.502   0.351
   4.49070   4.66690  10.00000
