Gromacs Runs On Most of All Computer Systems in water t=   0.00000 step= 0
11558
    1RG35     P    1   2.129   2.744   4.469
    1RG35   O1P    2   2.214   2.697   4.361
    1RG35   O2P    3   1.991   2.696   4.466
    1RG35   O5'    4   2.186   2.667   4.596
    1RG35   C5'    5   2.159   2.707   4.731
    1RG35  H5'1    6   2.058   2.747   4.732
    1RG35  H5'2    7   2.234   2.775   4.772
    1RG35   C4'    8   2.159   2.587   4.829
    1RG35   H4'    9   2.136   2.628   4.927
    1RG35   O4'   10   2.051   2.495   4.802
    1RG35   C1'   11   2.093   2.367   4.803
    1RG35   H1'   12   2.070   2.324   4.900
    1RG35    N9   13   2.018   2.300   4.698
    1RG35    C8   14   1.955   2.354   4.586
    1RG35    H8   15   1.956   2.460   4.564
    1RG35    N7   16   1.882   2.269   4.516
    1RG35    C5   17   1.901   2.145   4.588
    1RG35    C6   18   1.874   2.010   4.549
    1RG35    O6   19   1.813   1.962   4.453
    1RG35    N1   20   1.920   1.917   4.644
    1RG35    H1   21   1.894   1.821   4.625
    1RG35    C2   22   1.990   1.948   4.754
    1RG35    N2   23   2.042   1.847   4.817
    1RG35   H21   24   2.016   1.753   4.792
    1RG35   H22   25   2.116   1.860   4.884
    1RG35    N3   26   2.031   2.074   4.785
    1RG35    C4   27   1.983   2.165   4.698
    1RG35   C3'   28   2.291   2.507   4.836
    1RG35   H3'   29   2.369   2.547   4.771
    1RG35   C2'   30   2.245   2.371   4.785
    1RG35  H2'1   31   2.271   2.363   4.679
    1RG35   O2'   32   2.325   2.271   4.841
    1RG35  HO'2   33   2.322   2.199   4.778
    1RG35   O3'   34   2.339   2.483   4.970
    1RG35   H3T   35   2.361   2.390   4.975
    1RG35   O3P   36   2.132   2.881   4.505
    2SOL     OW   37   0.479   0.091   0.499
    2SOL    HW2   38   0.542   0.144   0.450
    2SOL    HW3   39   0.394   0.130   0.478
    2SOL    MW4   40   0.476   0.103   0.490
    3SOL     OW   41   3.991   0.086   0.458
    3SOL    HW2   42   4.036   0.012   0.417
    3SOL    HW3   43   4.045   0.162   0.437
    3SOL    MW4   44   4.004   0.086   0.450
    4SOL     OW   45   3.749   0.374   0.248
    4SOL    HW2   46   3.682   0.382   0.316
    4SOL    HW3   47   3.700   0.382   0.166
    4SOL    MW4   48   3.734   0.376   0.246
    5SOL     OW   49   0.122   1.619   0.529
    5SOL    HW2   50   0.077   1.612   0.613
    5SOL    HW3   51   0.075   1.558   0.472
    5SOL    MW4   52   0.110   1.610   0.533
    6SOL     OW   53   1.389   0.938   0.477
    6SOL    HW2   54   1.404   0.935   0.572
    6SOL    HW3   55   1.310   0.991   0.467
    6SOL    MW4   56   1.381   0.945   0.488
    7SOL     OW   57   0.186   0.484   0.488
    7SOL    HW2   58   0.199   0.498   0.582
    7SOL    HW3   59   0.225   0.398   0.471
    7SOL    MW4   60   0.193   0.475   0.498
    8SOL     OW   61   0.428   0.911   0.482
    8SOL    HW2   62   0.412   0.894   0.575
    8SOL    HW3   63   0.427   0.824   0.442
    8SOL    MW4   64   0.426   0.897   0.489
    9SOL     OW   65   0.910   0.872   0.467
    9SOL    HW2   66   0.929   0.874   0.561
    9SOL    HW3   67   0.841   0.937   0.456
    9SOL    MW4   68   0.903   0.881   0.478
   10SOL     OW   69   0.683   1.024   0.418
   10SOL    HW2   70   0.654   1.020   0.327
   10SOL    HW3   71   0.616   0.976   0.467
   10SOL    MW4   72   0.670   1.017   0.412
   11SOL     OW   73   0.653   1.505   0.234
   11SOL    HW2   74   0.578   1.454   0.265
   11SOL    HW3   75   0.728   1.446   0.242
   11SOL    MW4   76   0.653   1.490   0.239
   12SOL     OW   77   4.080   1.664   0.474
   12SOL    HW2   78   4.169   1.697   0.466
   12SOL    HW3   79   4.027   1.724   0.422
   12SOL    MW4   80   4.085   1.676   0.466
   13SOL     OW   81   0.036   1.874   0.396
   13SOL    HW2   82  -0.054   1.882   0.428
   13SOL    HW3   83   0.064   1.787   0.425
   13SOL    MW4   84   0.028   1.864   0.404
   14SOL     OW   85   0.398   2.306   0.525
   14SOL    HW2   86   0.317   2.258   0.541
   14SOL    HW3   87   0.465   2.238   0.521
   14SOL    MW4   88   0.396   2.291   0.527
   15SOL     OW   89   0.147   2.487   0.358
   15SOL    HW2   90   0.215   2.555   0.361
   15SOL    HW3   91   0.187   2.416   0.308
   15SOL    MW4   92   0.161   2.487   0.352
   16SOL     OW   93   4.258   3.282   0.438
   16SOL    HW2   94   4.187   3.223   0.461
   16SOL    HW3   95   4.333   3.225   0.424
   16SOL    MW4   96   4.259   3.267   0.439
   17SOL     OW   97   0.142   2.901   0.456
   17SOL    HW2   98   0.193   2.825   0.427
   17SOL    HW3   99   0.055   2.866   0.476
   17SOL    MW4  100   0.137   2.886   0.455
   18SOL     OW  101   0.408   3.422   0.405
   18SOL    HW2  102   0.470   3.428   0.478
   18SOL    HW3  103   0.462   3.434   0.327
   18SOL    MW4  104   0.423   3.424   0.404
   19SOL     OW  105   0.725   3.688   0.417
   19SOL    HW2  106   0.665   3.761   0.432
   19SOL    HW3  107   0.812   3.727   0.421
   19SOL    MW4  108   0.729   3.703   0.419
   20SOL     OW  109   3.877   3.339   0.419
   20SOL    HW2  110   3.879   3.426   0.460
   20SOL    HW3  111   3.920   3.351   0.335
   20SOL    MW4  112   3.883   3.352   0.413
   21SOL     OW  113   4.475   3.806   0.342
   21SOL    HW2  114   4.450   3.738   0.405
   21SOL    HW3  115   4.564   3.830   0.367
   21SOL    MW4  116   4.483   3.800   0.354
   22SOL     OW  117   0.125   4.448   0.487
   22SOL    HW2  118   0.194   4.419   0.427
   22SOL    HW3  119   0.048   4.399   0.459
   22SOL    MW4  120   0.124   4.438   0.476
   23SOL     OW  121   4.349   4.346   0.428
   23SOL    HW2  122   4.336   4.352   0.523
   23SOL    HW3  123   4.358   4.252   0.411
   23SOL    MW4  124   4.348   4.334   0.438
   24SOL     OW  125   4.378   4.067   0.423
   24SOL    HW2  126   4.396   3.978   0.393
   24SOL    HW3  127   4.288   4.063   0.455
   24SOL    MW4  128   4.369   4.055   0.423
   25SOL     OW  129   0.472   3.151   0.470
   25SOL    HW2  130   0.467   3.168   0.564
   25SOL    HW3  131   0.453   3.236   0.429
   25SOL    MW4  132   0.469   3.164   0.477
   26SOL     OW  133   0.524   4.536   0.326
   26SOL    HW2  134   0.477   4.612   0.361
   26SOL    HW3  135   0.468   4.461   0.346
   26SOL    MW4  136   0.510   4.536   0.333
   27SOL     OW  137   0.246   0.221   0.416
   27SOL    HW2  138   0.171   0.163   0.427
   27SOL    HW3  139   0.234   0.259   0.329
   27SOL    MW4  140   0.235   0.218   0.406
   28SOL     OW  141   4.404   0.526   0.452
   28SOL    HW2  142   4.500   0.523   0.451
   28SOL    HW3  143   4.382   0.611   0.415
   28SOL    MW4  144   4.414   0.537   0.447
   29SOL     OW  145   1.027   4.501   0.471
   29SOL    HW2  146   1.052   4.487   0.562
   29SOL    HW3  147   0.946   4.451   0.461
   29SOL    MW4  148   1.020   4.493   0.482
   30SOL     OW  149   1.139   0.981   0.354
   30SOL    HW2  150   1.055   0.953   0.390
   30SOL    HW3  151   1.170   0.906   0.303
   30SOL    MW4  152   1.132   0.967   0.352
   31SOL     OW  153   0.650   0.457   0.439
   31SOL    HW2  154   0.735   0.500   0.450
   31SOL    HW3  155   0.671   0.368   0.410
   31SOL    MW4  156   0.664   0.451   0.437
   32SOL     OW  157   0.254   1.134   0.481
   32SOL    HW2  158   0.167   1.099   0.461
   32SOL    HW3  159   0.313   1.059   0.471
   32SOL    MW4  160   0.250   1.120   0.477
   33SOL     OW  161   0.503   1.849   0.373
   33SOL    HW2  162   0.594   1.853   0.344
   33SOL    HW3  163   0.492   1.759   0.403
   33SOL    MW4  164   0.513   1.838   0.373
   34SOL     OW  165   0.279   2.014   0.315
   34SOL    HW2  166   0.343   1.943   0.321
   34SOL    HW3  167   0.194   1.969   0.313
   34SOL    MW4  168   0.276   1.999   0.316
   35SOL     OW  169   0.532   2.432   0.301
   35SOL    HW2  170   0.483   2.389   0.371
   35SOL    HW3  171   0.498   2.393   0.221
   35SOL    MW4  172   0.521   2.421   0.300
   36SOL     OW  173   0.860   2.372   0.244
   36SOL    HW2  174   0.840   2.280   0.263
   36SOL    HW3  175   0.955   2.378   0.254
   36SOL    MW4  176   0.870   2.361   0.248
   37SOL     OW  177   3.889   2.616   0.462
   37SOL    HW2  178   3.963   2.555   0.468
   37SOL    HW3  179   3.822   2.567   0.414
   37SOL    MW4  180   3.890   2.602   0.456
   38SOL     OW  181   0.795   2.707   0.293
   38SOL    HW2  182   0.750   2.789   0.315
   38SOL    HW3  183   0.788   2.701   0.198
   38SOL    MW4  184   0.788   2.717   0.283
   39SOL     OW  185   0.618   2.567   0.578
   39SOL    HW2  186   0.636   2.643   0.633
   39SOL    HW3  187   0.554   2.516   0.628
   39SOL    MW4  188   0.612   2.570   0.592
   40SOL     OW  189   0.034   3.155   0.492
   40SOL    HW2  190   0.058   3.229   0.437
   40SOL    HW3  191   0.080   3.080   0.453
   40SOL    MW4  192   0.043   3.155   0.480
   41SOL     OW  193   0.353   2.678   0.394
   41SOL    HW2  194   0.411   2.751   0.417
   41SOL    HW3  195   0.410   2.614   0.351
   41SOL    MW4  196   0.368   2.679   0.391
   42SOL     OW  197   1.378   0.055   0.267
   42SOL    HW2  198   1.410   0.020   0.184
   42SOL    HW3  199   1.356  -0.023   0.318
   42SOL    MW4  200   1.379   0.040   0.263
   43SOL     OW  201   0.214   3.605   0.483
   43SOL    HW2  202   0.233   3.696   0.461
   43SOL    HW3  203   0.286   3.555   0.443
   43SOL    MW4  204   0.226   3.610   0.475
   44SOL     OW  205   0.674   3.442   0.534
   44SOL    HW2  206   0.703   3.508   0.471
   44SOL    HW3  207   0.673   3.488   0.618
   44SOL    MW4  208   0.678   3.457   0.537
   45SOL     OW  209   1.216   3.627   0.447
   45SOL    HW2  210   1.147   3.690   0.424
   45SOL    HW3  211   1.169   3.545   0.462
   45SOL    MW4  212   1.201   3.624   0.446
   46SOL     OW  213   0.356   4.271   0.360
   46SOL    HW2  214   0.431   4.214   0.342
   46SOL    HW3  215   0.307   4.225   0.428
   46SOL    MW4  216   0.359   4.258   0.367
   47SOL     OW  217   0.998   3.800   0.380
   47SOL    HW2  218   0.990   3.887   0.419
   47SOL    HW3  219   0.975   3.812   0.288
   47SOL    MW4  220   0.994   3.813   0.373
   48SOL     OW  221   0.743   4.414   0.471
   48SOL    HW2  222   0.677   4.465   0.425
   48SOL    HW3  223   0.728   4.432   0.564
   48SOL    MW4  224   0.732   4.423   0.477
   49SOL     OW  225   0.719   0.187   0.370
   49SOL    HW2  226   0.721   0.142   0.285
   49SOL    HW3  227   0.789   0.145   0.420
   49SOL    MW4  228   0.728   0.176   0.365
   50SOL     OW  229   0.887   0.588   0.500
   50SOL    HW2  230   0.891   0.675   0.460
   50SOL    HW3  231   0.977   0.555   0.496
   50SOL    MW4  232   0.899   0.595   0.494
   51SOL     OW  233   0.410   0.655   0.394
   51SOL    HW2  234   0.330   0.609   0.418
   51SOL    HW3  235   0.475   0.586   0.381
   51SOL    MW4  236   0.408   0.640   0.395
   52SOL     OW  237   1.370   0.652   0.403
   52SOL    HW2  238   1.363   0.742   0.435
   52SOL    HW3  239   1.464   0.635   0.402
   52SOL    MW4  240   1.381   0.662   0.407
   53SOL     OW  241   1.829   0.828   0.460
   53SOL    HW2  242   1.814   0.852   0.551
   53SOL    HW3  243   1.777   0.749   0.447
   53SOL    MW4  244   1.820   0.821   0.470
   54SOL     OW  245   1.624   1.024   0.359
   54SOL    HW2  246   1.544   0.979   0.386
   54SOL    HW3  247   1.692   0.957   0.367
   54SOL    MW4  248   1.622   1.009   0.364
   55SOL     OW  249   0.444   1.334   0.382
   55SOL    HW2  250   0.527   1.324   0.428
   55SOL    HW3  251   0.387   1.267   0.421
   55SOL    MW4  252   0.447   1.324   0.393
   56SOL     OW  253   0.698   1.294   0.507
   56SOL    HW2  254   0.675   1.204   0.482
   56SOL    HW3  255   0.778   1.313   0.458
   56SOL    MW4  256   0.705   1.285   0.497
   57SOL     OW  257   1.326   1.409   0.349
   57SOL    HW2  258   1.329   1.403   0.254
   57SOL    HW3  259   1.298   1.499   0.367
   57SOL    MW4  260   1.323   1.420   0.339
   58SOL     OW  261   0.901   1.360   0.353
   58SOL    HW2  262   0.977   1.311   0.385
   58SOL    HW3  263   0.918   1.450   0.379
   58SOL    MW4  264   0.913   1.365   0.361
   59SOL     OW  265   0.971   1.636   0.456
   59SOL    HW2  266   1.061   1.624   0.425
   59SOL    HW3  267   0.980   1.670   0.545
   59SOL    MW4  268   0.984   1.639   0.464
   60SOL     OW  269   0.151   2.159   0.539
   60SOL    HW2  270   0.061   2.168   0.508
   60SOL    HW3  271   0.187   2.087   0.487
   60SOL    MW4  272   0.144   2.151   0.528
   61SOL     OW  273   0.776   1.786   0.283
   61SOL    HW2  274   0.723   1.721   0.237
   61SOL    HW3  275   0.848   1.736   0.322
   61SOL    MW4  276   0.778   1.771   0.282
   62SOL     OW  277   0.928   2.531   0.532
   62SOL    HW2  278   1.008   2.481   0.514
   62SOL    HW3  279   0.901   2.503   0.620
   62SOL    MW4  280   0.935   2.521   0.541
   63SOL     OW  281   0.585   2.103   0.461
   63SOL    HW2  282   0.666   2.108   0.410
   63SOL    HW3  283   0.543   2.022   0.432
   63SOL    MW4  284   0.590   2.093   0.450
   64SOL     OW  285   1.014   2.828   0.497
   64SOL    HW2  286   0.984   2.737   0.499
   64SOL    HW3  287   0.945   2.876   0.452
   64SOL    MW4  288   1.001   2.822   0.491
   65SOL     OW  289   0.281   2.282   0.180
   65SOL    HW2  290   0.295   2.202   0.230
   65SOL    HW3  291   0.208   2.261   0.122
   65SOL    MW4  292   0.273   2.269   0.179
   66SOL     OW  293   0.548   2.889   0.475
   66SOL    HW2  294   0.508   2.975   0.463
   66SOL    HW3  295   0.558   2.881   0.570
   66SOL    MW4  296   0.544   2.899   0.486
   67SOL     OW  297   0.860   3.229   0.499
   67SOL    HW2  298   0.875   3.204   0.590
   67SOL    HW3  299   0.798   3.301   0.504
   67SOL    MW4  300   0.854   3.235   0.512
   68SOL     OW  301   1.481   3.550   0.429
   68SOL    HW2  302   1.528   3.631   0.408
   68SOL    HW3  303   1.389   3.576   0.434
   68SOL    MW4  304   1.475   3.564   0.427
   69SOL     OW  305   0.934   4.038   0.491
   69SOL    HW2  306   1.007   4.100   0.485
   69SOL    HW3  307   0.932   4.013   0.583
   69SOL    MW4  308   0.943   4.043   0.502
   70SOL     OW  309   0.523   3.927   0.464
   70SOL    HW2  310   0.501   3.951   0.554
   70SOL    HW3  311   0.575   4.001   0.432
   70SOL    MW4  312   0.527   3.940   0.472
   71SOL     OW  313   1.310   4.519   0.449
   71SOL    HW2  314   1.355   4.435   0.448
   71SOL    HW3  315   1.218   4.497   0.437
   71SOL    MW4  316   1.304   4.505   0.447
   72SOL     OW  317   1.163   0.496   0.495
   72SOL    HW2  318   1.169   0.414   0.446
   72SOL    HW3  319   1.240   0.546   0.468
   72SOL    MW4  320   1.174   0.492   0.485
   73SOL     OW  321   0.946   0.100   0.510
   73SOL    HW2  322   0.987   0.015   0.494
   73SOL    HW3  323   0.953   0.112   0.605
   73SOL    MW4  324   0.952   0.090   0.520
   74SOL     OW  325   1.485   0.312   0.547
   74SOL    HW2  326   1.404   0.331   0.500
   74SOL    HW3  327   1.505   0.394   0.593
   74SOL    MW4  328   1.477   0.325   0.547
   75SOL     OW  329   1.654   0.623   0.448
   75SOL    HW2  330   1.662   0.537   0.407
   75SOL    HW3  331   1.638   0.604   0.540
   75SOL    MW4  332   1.653   0.609   0.455
   76SOL     OW  333   1.196   0.228   0.405
   76SOL    HW2  334   1.107   0.196   0.420
   76SOL    HW3  335   1.232   0.170   0.338
   76SOL    MW4  336   1.189   0.216   0.398
   77SOL     OW  337   2.073   0.707   0.533
   77SOL    HW2  338   2.135   0.780   0.533
   77SOL    HW3  339   1.990   0.747   0.507
   77SOL    MW4  340   2.070   0.722   0.530
   78SOL     OW  341   2.461   0.824   0.342
   78SOL    HW2  342   2.492   0.862   0.260
   78SOL    HW3  343   2.538   0.822   0.398
   78SOL    MW4  344   2.475   0.829   0.339
   79SOL     OW  345   1.758   1.508   0.450
   79SOL    HW2  346   1.700   1.532   0.522
   79SOL    HW3  347   1.714   1.435   0.406
   79SOL    MW4  348   1.744   1.502   0.454
   80SOL     OW  349   1.586   1.293   0.403
   80SOL    HW2  350   1.588   1.198   0.395
   80SOL    HW3  351   1.495   1.317   0.383
   80SOL    MW4  352   1.574   1.284   0.399
   81SOL     OW  353   1.138   1.245   0.456
   81SOL    HW2  354   1.212   1.299   0.428
   81SOL    HW3  355   1.156   1.159   0.418
   81SOL    MW4  356   1.150   1.241   0.447
   82SOL     OW  357   1.254   1.667   0.413
   82SOL    HW2  358   1.288   1.665   0.502
   82SOL    HW3  359   1.276   1.754   0.380
   82SOL    MW4  360   1.261   1.678   0.420
   83SOL     OW  361   1.138   2.378   0.387
   83SOL    HW2  362   1.222   2.420   0.404
   83SOL    HW3  363   1.155   2.285   0.400
   83SOL    MW4  364   1.151   2.371   0.391
   84SOL     OW  365   1.437   2.745   0.389
   84SOL    HW2  366   1.481   2.777   0.310
   84SOL    HW3  367   1.360   2.801   0.397
   84SOL    MW4  368   1.433   2.757   0.380
   85SOL     OW  369   1.715   2.186   0.160
   85SOL    HW2  370   1.782   2.199   0.092
   85SOL    HW3  371   1.755   2.126   0.222
   85SOL    MW4  372   1.729   2.180   0.159
   86SOL     OW  373   1.573   2.077   0.441
   86SOL    HW2  374   1.551   2.170   0.437
   86SOL    HW3  375   1.662   2.072   0.407
   86SOL    MW4  376   1.582   2.089   0.436
   87SOL     OW  377   0.830   2.094   0.342
   87SOL    HW2  378   0.921   2.123   0.349
   87SOL    HW3  379   0.836   1.999   0.331
   87SOL    MW4  380   0.843   2.085   0.341
   88SOL     OW  381   0.805   2.980   0.393
   88SOL    HW2  382   0.722   2.970   0.440
   88SOL    HW3  383   0.827   3.073   0.404
   88SOL    MW4  384   0.797   2.991   0.401
   89SOL     OW  385   2.035   2.425   0.408
   89SOL    HW2  386   2.030   2.336   0.444
   89SOL    HW3  387   2.119   2.459   0.439
   89SOL    MW4  388   2.045   2.418   0.417
   90SOL     OW  389   1.743   4.504   0.461
   90SOL    HW2  390   1.706   4.590   0.440
   90SOL    HW3  391   1.673   4.458   0.508
   90SOL    MW4  392   1.729   4.509   0.464
   91SOL     OW  393   1.406   3.802   0.562
   91SOL    HW2  394   1.455   3.732   0.605
   91SOL    HW3  395   1.331   3.758   0.522
   91SOL    MW4  396   1.403   3.787   0.562
   92SOL     OW  397   1.676   2.759   0.519
   92SOL    HW2  398   1.650   2.782   0.608
   92SOL    HW3  399   1.595   2.763   0.469
   92SOL    MW4  400   1.662   2.763   0.524
   93SOL     OW  401   1.927   3.797   0.216
   93SOL    HW2  402   2.004   3.799   0.272
   93SOL    HW3  403   1.950   3.736   0.146
   93SOL    MW4  404   1.940   3.789   0.214
   94SOL     OW  405   1.112   3.380   0.506
   94SOL    HW2  406   1.031   3.331   0.519
   94SOL    HW3  407   1.180   3.313   0.500
   94SOL    MW4  408   1.110   3.365   0.507
   95SOL     OW  409   2.157   3.710   0.341
   95SOL    HW2  410   2.111   3.630   0.366
   95SOL    HW3  411   2.249   3.684   0.333
   95SOL    MW4  412   2.163   3.696   0.343
   96SOL     OW  413   0.686   4.140   0.407
   96SOL    HW2  414   0.769   4.097   0.427
   96SOL    HW3  415   0.710   4.232   0.392
   96SOL    MW4  416   0.700   4.146   0.408
   97SOL     OW  417   1.903   4.348   0.260
   97SOL    HW2  418   1.854   4.269   0.238
   97SOL    HW3  419   1.846   4.396   0.321
   97SOL    MW4  420   1.889   4.344   0.265
   98SOL     OW  421   1.976   4.506   0.635
   98SOL    HW2  422   1.995   4.420   0.673
   98SOL    HW3  423   1.895   4.493   0.585
   98SOL    MW4  424   1.968   4.493   0.633
   99SOL     OW  425   1.958   0.265   0.544
   99SOL    HW2  426   1.980   0.343   0.595
   99SOL    HW3  427   1.916   0.206   0.606
   99SOL    MW4  428   1.955   0.267   0.559
  100SOL     OW  429   1.167   4.197   0.531
  100SOL    HW2  430   1.155   4.268   0.594
  100SOL    HW3  431   1.260   4.198   0.510
  100SOL    MW4  432   1.178   4.207   0.537
  101SOL     OW  433   2.328   0.589   0.433
  101SOL    HW2  434   2.239   0.623   0.424
  101SOL    HW3  435   2.383   0.655   0.390
  101SOL    MW4  436   2.324   0.602   0.426
  102SOL     OW  437   2.111   1.596   0.567
  102SOL    HW2  438   2.074   1.510   0.549
  102SOL    HW3  439   2.053   1.657   0.522
  102SOL    MW4  440   2.098   1.593   0.559
  103SOL     OW  441   2.267   0.930   0.528
  103SOL    HW2  442   2.239   1.015   0.494
  103SOL    HW3  443   2.337   0.903   0.468
  103SOL    MW4  444   2.273   0.938   0.516
  104SOL     OW  445   2.009   1.349   0.514
  104SOL    HW2  446   1.922   1.370   0.480
  104SOL    HW3  447   2.042   1.282   0.455
  104SOL    MW4  448   2.002   1.343   0.502
  105SOL     OW  449   2.372   1.449   0.524
  105SOL    HW2  450   2.436   1.508   0.484
  105SOL    HW3  451   2.296   1.505   0.542
  105SOL    MW4  452   2.370   1.464   0.521
  106SOL     OW  453   1.841   2.037   0.362
  106SOL    HW2  454   1.869   1.946   0.359
  106SOL    HW3  455   1.916   2.084   0.397
  106SOL    MW4  456   1.855   2.031   0.366
  107SOL     OW  457   1.347   1.937   0.355
  107SOL    HW2  458   1.355   1.964   0.264
  107SOL    HW3  459   1.421   1.978   0.399
  107SOL    MW4  460   1.358   1.946   0.349
  108SOL     OW  461   2.345   2.441   0.517
  108SOL    HW2  462   2.435   2.472   0.506
  108SOL    HW3  463   2.333   2.438   0.612
  108SOL    MW4  464   2.355   2.445   0.528
  109SOL     OW  465   1.817   3.299   0.459
  109SOL    HW2  466   1.880   3.233   0.430
  109SOL    HW3  467   1.863   3.382   0.451
  109SOL    MW4  468   1.831   3.301   0.454
  110SOL     OW  469   1.223   2.913   0.350
  110SOL    HW2  470   1.190   2.933   0.263
  110SOL    HW3  471   1.145   2.890   0.401
  110SOL    MW4  472   1.208   2.913   0.345
  111SOL     OW  473   1.545   3.291   0.390
  111SOL    HW2  474   1.639   3.277   0.403
  111SOL    HW3  475   1.534   3.386   0.395
  111SOL    MW4  476   1.556   3.302   0.392
  112SOL     OW  477   1.130   2.107   0.448
  112SOL    HW2  478   1.098   2.086   0.536
  112SOL    HW3  479   1.197   2.041   0.431
  112SOL    MW4  480   1.135   2.096   0.457
  113SOL     OW  481   3.871   2.288   0.175
  113SOL    HW2  482   3.838   2.253   0.092
  113SOL    HW3  483   3.851   2.220   0.239
  113SOL    MW4  484   3.864   2.274   0.173
  114SOL     OW  485   1.778   2.494   0.483
  114SOL    HW2  486   1.867   2.492   0.447
  114SOL    HW3  487   1.756   2.587   0.487
  114SOL    MW4  488   1.787   2.506   0.479
  115SOL     OW  489   1.373   2.477   0.457
  115SOL    HW2  490   1.445   2.435   0.410
  115SOL    HW3  491   1.387   2.571   0.444
  115SOL    MW4  492   1.384   2.484   0.449
  116SOL     OW  493   1.302   3.164   0.487
  116SOL    HW2  494   1.289   3.079   0.444
  116SOL    HW3  495   1.384   3.197   0.449
  116SOL    MW4  496   1.311   3.157   0.476
  117SOL     OW  497   2.232   3.305   0.512
  117SOL    HW2  498   2.178   3.237   0.472
  117SOL    HW3  499   2.224   3.290   0.606
  117SOL    MW4  500   2.224   3.294   0.519
  118SOL     OW  501   1.835   4.078   0.275
  118SOL    HW2  502   1.868   3.995   0.240
  118SOL    HW3  503   1.909   4.115   0.323
  118SOL    MW4  504   1.849   4.072   0.277
  119SOL     OW  505   1.675   4.024   0.496
  119SOL    HW2  506   1.629   3.947   0.461
  119SOL    HW3  507   1.727   4.056   0.423
  119SOL    MW4  508   1.676   4.018   0.482
  120SOL     OW  509   1.465   4.231   0.485
  120SOL    HW2  510   1.498   4.276   0.563
  120SOL    HW3  511   1.516   4.150   0.480
  120SOL    MW4  512   1.476   4.226   0.495
  121SOL     OW  513   1.608   0.086   0.404
  121SOL    HW2  514   1.590   0.153   0.470
  121SOL    HW3  515   1.525   0.075   0.357
  121SOL    MW4  516   1.595   0.093   0.407
  122SOL     OW  517   2.230   4.537   0.480
  122SOL    HW2  518   2.276   4.477   0.539
  122SOL    HW3  519   2.148   4.556   0.525
  122SOL    MW4  520   2.225   4.532   0.494
  123SOL     OW  521   2.235   0.156   0.537
  123SOL    HW2  522   2.239   0.063   0.514
  123SOL    HW3  523   2.145   0.182   0.516
  123SOL    MW4  524   2.224   0.147   0.531
  124SOL     OW  525   2.845   1.613   0.367
  124SOL    HW2  526   2.756   1.602   0.399
  124SOL    HW3  527   2.880   1.524   0.364
  124SOL    MW4  528   2.838   1.600   0.371
  125SOL     OW  529   2.693   0.816   0.532
  125SOL    HW2  530   2.733   0.731   0.515
  125SOL    HW3  531   2.763   0.879   0.515
  125SOL    MW4  532   2.708   0.813   0.528
  126SOL     OW  533   2.917   0.985   0.530
  126SOL    HW2  534   2.920   1.018   0.620
  126SOL    HW3  535   2.990   0.923   0.525
  126SOL    MW4  536   2.927   0.981   0.541
  127SOL     OW  537   3.022   1.359   0.428
  127SOL    HW2  538   2.991   1.278   0.387
  127SOL    HW3  539   3.011   1.344   0.522
  127SOL    MW4  540   3.016   1.346   0.435
  128SOL     OW  541   2.585   1.621   0.467
  128SOL    HW2  542   2.576   1.713   0.442
  128SOL    HW3  543   2.611   1.623   0.559
  128SOL    MW4  544   2.587   1.633   0.476
  129SOL     OW  545   2.981   1.991   0.466
  129SOL    HW2  546   2.909   2.008   0.526
  129SOL    HW3  547   2.939   1.956   0.387
  129SOL    MW4  548   2.966   1.989   0.464
  130SOL     OW  549   2.992   4.390   0.476
  130SOL    HW2  550   3.007   4.479   0.444
  130SOL    HW3  551   2.964   4.402   0.567
  130SOL    MW4  552   2.990   4.403   0.484
  131SOL     OW  553   2.053   2.174   0.491
  131SOL    HW2  554   2.032   2.142   0.579
  131SOL    HW3  555   2.149   2.171   0.487
  131SOL    MW4  556   2.063   2.169   0.502
  132SOL     OW  557   1.610   1.588   0.668
  132SOL    HW2  558   1.635   1.610   0.758
  132SOL    HW3  559   1.525   1.629   0.656
  132SOL    MW4  560   1.602   1.596   0.678
  133SOL     OW  561   2.347   2.174   0.488
  133SOL    HW2  562   2.350   2.270   0.483
  133SOL    HW3  563   2.422   2.145   0.436
  133SOL    MW4  564   2.357   2.183   0.480
  134SOL     OW  565   2.630   2.174   0.447
  134SOL    HW2  566   2.685   2.239   0.402
  134SOL    HW3  567   2.675   2.157   0.529
  134SOL    MW4  568   2.643   2.180   0.452
  135SOL     OW  569   2.636   2.815   0.518
  135SOL    HW2  570   2.626   2.899   0.474
  135SOL    HW3  571   2.582   2.823   0.597
  135SOL    MW4  572   2.628   2.827   0.523
  136SOL     OW  573   1.576   2.344   0.340
  136SOL    HW2  574   1.619   2.306   0.264
  136SOL    HW3  575   1.645   2.391   0.386
  136SOL    MW4  576   1.591   2.345   0.336
  137SOL     OW  577   1.912   2.930   0.515
  137SOL    HW2  578   1.953   2.911   0.600
  137SOL    HW3  579   1.847   2.861   0.505
  137SOL    MW4  580   1.909   2.918   0.525
  138SOL     OW  581   2.253   3.927   0.493
  138SOL    HW2  582   2.335   3.935   0.445
  138SOL    HW3  583   2.206   3.857   0.449
  138SOL    MW4  584   2.258   3.919   0.481
  139SOL     OW  585   2.518   3.992   0.382
  139SOL    HW2  586   2.499   3.900   0.365
  139SOL    HW3  587   2.614   3.997   0.381
  139SOL    MW4  588   2.528   3.981   0.380
  140SOL     OW  589   1.653   3.748   0.309
  140SOL    HW2  590   1.613   3.757   0.222
  140SOL    HW3  591   1.744   3.773   0.296
  140SOL    MW4  592   1.660   3.752   0.296
  141SOL     OW  593   2.024   3.495   0.468
  141SOL    HW2  594   2.098   3.444   0.499
  141SOL    HW3  595   2.013   3.564   0.533
  141SOL    MW4  596   2.032   3.497   0.481
  142SOL     OW  597   2.168   4.342   0.311
  142SOL    HW2  598   2.201   4.417   0.360
  142SOL    HW3  599   2.085   4.372   0.273
  142SOL    MW4  600   2.161   4.356   0.312
  143SOL     OW  601   2.065   4.148   0.471
  143SOL    HW2  602   2.140   4.090   0.486
  143SOL    HW3  603   2.098   4.216   0.413
  143SOL    MW4  604   2.079   4.149   0.465
  144SOL     OW  605   3.064   4.654   0.403
  144SOL    HW2  606   3.137   4.619   0.352
  144SOL    HW3  607   3.100   4.731   0.447
  144SOL    MW4  608   3.078   4.660   0.402
  145SOL     OW  609   2.434   3.703   0.344
  145SOL    HW2  610   2.484   3.653   0.280
  145SOL    HW3  611   2.454   3.661   0.428
  145SOL    MW4  612   2.443   3.691   0.347
  146SOL     OW  613   2.397   4.254   0.469
  146SOL    HW2  614   2.335   4.287   0.404
  146SOL    HW3  615   2.439   4.179   0.427
  146SOL    MW4  616   2.394   4.248   0.455
  147SOL     OW  617   2.434   0.327   0.368
  147SOL    HW2  618   2.400   0.412   0.396
  147SOL    HW3  619   2.370   0.264   0.401
  147SOL    MW4  620   2.421   0.330   0.376
  148SOL     OW  621   1.745   0.355   0.381
  148SOL    HW2  622   1.710   0.277   0.338
  148SOL    HW3  623   1.825   0.325   0.424
  148SOL    MW4  624   1.751   0.341   0.381
  149SOL     OW  625   3.070   0.472   0.485
  149SOL    HW2  626   3.147   0.525   0.463
  149SOL    HW3  627   3.106   0.387   0.511
  149SOL    MW4  628   3.085   0.468   0.486
  150SOL     OW  629   2.240   1.209   0.423
  150SOL    HW2  630   2.229   1.246   0.336
  150SOL    HW3  631   2.276   1.281   0.475
  150SOL    MW4  632   2.243   1.223   0.418
  151SOL     OW  633   3.161   0.843   0.504
  151SOL    HW2  634   3.207   0.922   0.476
  151SOL    HW3  635   3.147   0.855   0.598
  151SOL    MW4  636   3.165   0.855   0.513
  152SOL     OW  637   3.076   1.734   0.505
  152SOL    HW2  638   3.016   1.678   0.456
  152SOL    HW3  639   3.038   1.822   0.499
  152SOL    MW4  640   3.063   1.738   0.498
  153SOL     OW  641   2.848   1.875   0.241
  153SOL    HW2  642   2.871   1.783   0.252
  153SOL    HW3  643   2.859   1.892   0.147
  153SOL    MW4  644   2.852   1.865   0.230
  154SOL     OW  645   3.750   1.531   0.479
  154SOL    HW2  646   3.676   1.496   0.429
  154SOL    HW3  647   3.710   1.585   0.547
  154SOL    MW4  648   3.735   1.534   0.481
  155SOL     OW  649   2.659   0.128   0.708
  155SOL    HW2  650   2.646   0.216   0.743
  155SOL    HW3  651   2.667   0.141   0.614
  155SOL    MW4  652   2.658   0.141   0.700
  156SOL     OW  653   3.261   2.069   0.562
  156SOL    HW2  654   3.173   2.058   0.526
  156SOL    HW3  655   3.255   2.036   0.652
  156SOL    MW4  656   3.249   2.063   0.569
  157SOL     OW  657   2.806   2.405   0.331
  157SOL    HW2  658   2.865   2.373   0.263
  157SOL    HW3  659   2.863   2.448   0.394
  157SOL    MW4  660   2.821   2.406   0.330
  158SOL     OW  661   2.602   1.908   0.374
  158SOL    HW2  662   2.671   1.895   0.309
  158SOL    HW3  663   2.609   2.000   0.398
  158SOL    MW4  664   2.612   1.919   0.369
  159SOL     OW  665   2.600   2.525   0.502
  159SOL    HW2  666   2.612   2.618   0.483
  159SOL    HW3  667   2.656   2.480   0.439
  159SOL    MW4  668   2.609   2.531   0.491
  160SOL     OW  669   2.693   3.129   0.466
  160SOL    HW2  670   2.769   3.159   0.417
  160SOL    HW3  671   2.713   3.149   0.557
  160SOL    MW4  672   2.706   3.136   0.472
  161SOL     OW  673   2.948   3.265   0.396
  161SOL    HW2  674   3.033   3.231   0.424
  161SOL    HW3  675   2.949   3.357   0.421
  161SOL    MW4  676   2.959   3.273   0.403
  162SOL     OW  677   3.207   3.169   0.513
  162SOL    HW2  678   3.195   3.074   0.509
  162SOL    HW3  679   3.199   3.190   0.606
  162SOL    MW4  680   3.204   3.159   0.525
  163SOL     OW  681   2.502   3.350   0.442
  163SOL    HW2  682   2.544   3.264   0.441
  163SOL    HW3  683   2.411   3.331   0.464
  163SOL    MW4  684   2.495   3.336   0.445
  164SOL     OW  685   2.607   3.533   0.215
  164SOL    HW2  686   2.584   3.462   0.274
  164SOL    HW3  687   2.693   3.508   0.180
  164SOL    MW4  688   2.615   3.520   0.218
  165SOL     OW  689   3.408   3.633   0.315
  165SOL    HW2  690   3.418   3.540   0.337
  165SOL    HW3  691   3.409   3.636   0.219
  165SOL    MW4  692   3.409   3.621   0.305
  166SOL     OW  693   2.736   3.704   0.406
  166SOL    HW2  694   2.704   3.670   0.322
  166SOL    HW3  695   2.679   3.663   0.471
  166SOL    MW4  696   2.724   3.694   0.404
  167SOL     OW  697   2.536   3.598   0.563
  167SOL    HW2  698   2.520   3.605   0.657
  167SOL    HW3  699   2.516   3.507   0.542
  167SOL    MW4  700   2.531   3.587   0.573
  168SOL     OW  701   3.702   3.945   0.574
  168SOL    HW2  702   3.644   4.020   0.562
  168SOL    HW3  703   3.647   3.869   0.556
  168SOL    MW4  704   3.687   3.945   0.570
  169SOL     OW  705   3.224   4.221   0.461
  169SOL    HW2  706   3.190   4.132   0.460
  169SOL    HW3  707   3.146   4.277   0.457
  169SOL    MW4  708   3.209   4.217   0.460
  170SOL     OW  709   3.487   0.189   0.475
  170SOL    HW2  710   3.558   0.136   0.440
  170SOL    HW3  711   3.518   0.279   0.468
  170SOL    MW4  712   3.501   0.194   0.469
  171SOL     OW  713   3.432   4.415   0.497
  171SOL    HW2  714   3.366   4.352   0.468
  171SOL    HW3  715   3.482   4.436   0.418
  171SOL    MW4  716   3.430   4.409   0.483
  172SOL     OW  717   2.770   4.233   0.486
  172SOL    HW2  718   2.852   4.275   0.459
  172SOL    HW3  719   2.795   4.143   0.508
  172SOL    MW4  720   2.784   4.227   0.485
  173SOL     OW  721   2.671   0.274   0.474
  173SOL    HW2  722   2.586   0.306   0.442
  173SOL    HW3  723   2.701   0.214   0.406
  173SOL    MW4  724   2.664   0.270   0.461
  174SOL     OW  725   3.388   0.682   0.480
  174SOL    HW2  726   3.455   0.749   0.470
  174SOL    HW3  727   3.305   0.729   0.473
  174SOL    MW4  728   3.386   0.697   0.478
  175SOL     OW  729   2.790   0.542   0.492
  175SOL    HW2  730   2.754   0.457   0.469
  175SOL    HW3  731   2.878   0.541   0.455
  175SOL    MW4  732   2.797   0.531   0.484
  176SOL     OW  733   3.613   0.847   0.465
  176SOL    HW2  734   3.662   0.766   0.478
  176SOL    HW3  735   3.595   0.879   0.554
  176SOL    MW4  736   3.617   0.841   0.478
  177SOL     OW  737   2.795   0.075   0.326
  177SOL    HW2  738   2.814   0.065   0.233
  177SOL    HW3  739   2.877   0.052   0.370
  177SOL    MW4  740   2.808   0.071   0.320
  178SOL     OW  741   3.588   1.945   0.419
  178SOL    HW2  742   3.503   1.910   0.394
  178SOL    HW3  743   3.585   1.951   0.514
  178SOL    MW4  744   3.576   1.941   0.428
  179SOL     OW  745   3.320   1.835   0.410
  179SOL    HW2  746   3.301   1.918   0.453
  179SOL    HW3  747   3.241   1.783   0.422
  179SOL    MW4  748   3.307   1.839   0.417
  180SOL     OW  749   3.350   1.037   0.466
  180SOL    HW2  750   3.337   1.131   0.475
  180SOL    HW3  751   3.425   1.029   0.406
  180SOL    MW4  752   3.358   1.048   0.459
  181SOL     OW  753   3.828   1.782   0.373
  181SOL    HW2  754   3.806   1.694   0.403
  181SOL    HW3  755   3.750   1.834   0.393
  181SOL    MW4  756   3.815   1.777   0.380
  182SOL     OW  757   3.383   2.306   0.599
  182SOL    HW2  758   3.346   2.221   0.576
  182SOL    HW3  759   3.426   2.291   0.683
  182SOL    MW4  760   3.384   2.293   0.607
  183SOL     OW  761   3.534   2.698   0.618
  183SOL    HW2  762   3.559   2.647   0.695
  183SOL    HW3  763   3.487   2.635   0.563
  183SOL    MW4  764   3.531   2.683   0.621
  184SOL     OW  765   2.033   3.128   0.375
  184SOL    HW2  766   2.004   3.051   0.425
  184SOL    HW3  767   1.992   3.118   0.289
  184SOL    MW4  768   2.024   3.117   0.370
  185SOL     OW  769   3.214   2.671   0.297
  185SOL    HW2  770   3.248   2.703   0.213
  185SOL    HW3  771   3.291   2.635   0.342
  185SOL    MW4  772   3.229   2.670   0.292
  186SOL     OW  773   2.946   2.825   0.829
  186SOL    HW2  774   2.925   2.804   0.738
  186SOL    HW3  775   3.028   2.778   0.846
  186SOL    MW4  776   2.954   2.816   0.819
  187SOL     OW  777   3.200   0.209   0.551
  187SOL    HW2  778   3.180   0.168   0.635
  187SOL    HW3  779   3.294   0.195   0.539
  187SOL    MW4  780   3.210   0.202   0.561
  188SOL     OW  781   3.110   3.969   0.502
  188SOL    HW2  782   3.154   3.884   0.509
  188SOL    HW3  783   3.118   4.007   0.589
  188SOL    MW4  784   3.117   3.963   0.514
  189SOL     OW  785   3.558   3.712   0.529
  189SOL    HW2  786   3.498   3.703   0.455
  189SOL    HW3  787   3.509   3.678   0.604
  189SOL    MW4  788   3.543   3.706   0.529
  190SOL     OW  789   3.663   3.190   0.524
  190SOL    HW2  790   3.727   3.239   0.473
  190SOL    HW3  791   3.691   3.099   0.517
  190SOL    MW4  792   3.675   3.185   0.516
  191SOL     OW  793   3.426   3.363   0.441
  191SOL    HW2  794   3.345   3.313   0.447
  191SOL    HW3  795   3.494   3.302   0.470
  191SOL    MW4  796   3.424   3.348   0.446
  192SOL     OW  797   2.804   3.947   0.505
  192SOL    HW2  798   2.899   3.947   0.494
  192SOL    HW3  799   2.775   3.872   0.453
  192SOL    MW4  800   2.813   3.937   0.497
  193SOL     OW  801   2.824   3.353   0.160
  193SOL    HW2  802   2.843   3.281   0.100
  193SOL    HW3  803   2.860   3.325   0.244
  193SOL    MW4  804   2.831   3.340   0.163
  194SOL     OW  805   4.281   0.084   0.302
  194SOL    HW2  806   4.369   0.073   0.337
  194SOL    HW3  807   4.247  -0.005   0.294
  194SOL    MW4  808   4.288   0.071   0.306
  195SOL     OW  809   3.735   0.115   0.348
  195SOL    HW2  810   3.741   0.198   0.301
  195SOL    HW3  811   3.822   0.102   0.386
  195SOL    MW4  812   3.747   0.124   0.347
  196SOL     OW  813   3.537   0.460   0.421
  196SOL    HW2  814   3.615   0.506   0.451
  196SOL    HW3  815   3.466   0.523   0.432
  196SOL    MW4  816   3.538   0.474   0.426
  197SOL     OW  817   3.764   0.598   0.523
  197SOL    HW2  818   3.794   0.572   0.610
  197SOL    HW3  819   3.835   0.572   0.464
  197SOL    MW4  820   3.777   0.591   0.527
  198SOL     OW  821   3.951   0.526   0.353
  198SOL    HW2  822   4.016   0.460   0.379
  198SOL    HW3  823   3.889   0.478   0.299
  198SOL    MW4  824   3.951   0.511   0.349
  199SOL     OW  825   4.338   0.777   0.326
  199SOL    HW2  826   4.251   0.785   0.365
  199SOL    HW3  827   4.324   0.796   0.233
  199SOL    MW4  828   4.325   0.781   0.319
  200SOL     OW  829   3.865   0.960   0.402
  200SOL    HW2  830   3.878   1.055   0.397
  200SOL    HW3  831   3.772   0.950   0.421
  200SOL    MW4  832   3.854   0.971   0.404
  201SOL     OW  833   4.080   1.387   0.501
  201SOL    HW2  834   4.121   1.374   0.587
  201SOL    HW3  835   4.077   1.482   0.490
  201SOL    MW4  836   4.085   1.398   0.511
  202SOL     OW  837   3.841   1.256   0.462
  202SOL    HW2  838   3.932   1.282   0.474
  202SOL    HW3  839   3.797   1.336   0.433
  202SOL    MW4  840   3.847   1.270   0.460
  203SOL     OW  841   3.320   1.306   0.459
  203SOL    HW2  842   3.341   1.318   0.552
  203SOL    HW3  843   3.225   1.316   0.454
  203SOL    MW4  844   3.310   1.309   0.471
  204SOL     OW  845   3.479   1.518   0.404
  204SOL    HW2  846   3.410   1.453   0.420
  204SOL    HW3  847   3.435   1.587   0.354
  204SOL    MW4  848   3.464   1.519   0.400
  205SOL     OW  849   3.682   2.432   0.370
  205SOL    HW2  850   3.724   2.427   0.284
  205SOL    HW3  851   3.700   2.347   0.410
  205SOL    MW4  852   3.690   2.420   0.364
  206SOL     OW  853   4.374   2.766   0.532
  206SOL    HW2  854   4.363   2.676   0.502
  206SOL    HW3  855   4.293   2.810   0.506
  206SOL    MW4  856   4.362   2.760   0.525
  207SOL     OW  857   3.022   2.533   0.478
  207SOL    HW2  858   3.075   2.484   0.541
  207SOL    HW3  859   3.085   2.568   0.416
  207SOL    MW4  860   3.037   2.531   0.478
  208SOL     OW  861   2.969   3.556   0.501
  208SOL    HW2  862   3.041   3.618   0.513
  208SOL    HW3  863   2.901   3.606   0.457
  208SOL    MW4  864   2.969   3.571   0.497
  209SOL     OW  865   3.172   2.887   0.499
  209SOL    HW2  866   3.189   2.825   0.428
  209SOL    HW3  867   3.080   2.873   0.521
  209SOL    MW4  868   3.162   2.877   0.493
  210SOL     OW  869   4.108   2.820   0.486
  210SOL    HW2  870   4.031   2.772   0.456
  210SOL    HW3  871   4.079   2.911   0.492
  210SOL    MW4  872   4.094   2.826   0.483
  211SOL     OW  873   3.739   2.856   0.515
  211SOL    HW2  874   3.658   2.807   0.528
  211SOL    HW3  875   3.795   2.796   0.466
  211SOL    MW4  876   3.736   2.842   0.510
  212SOL     OW  877   4.006   3.756   0.371
  212SOL    HW2  878   3.941   3.720   0.431
  212SOL    HW3  879   4.068   3.684   0.357
  212SOL    MW4  880   4.006   3.742   0.377
  213SOL     OW  881   3.421   2.519   0.431
  213SOL    HW2  882   3.398   2.442   0.482
  213SOL    HW3  883   3.508   2.499   0.395
  213SOL    MW4  884   3.429   2.506   0.433
  214SOL     OW  885   3.216   3.694   0.532
  214SOL    HW2  886   3.276   3.675   0.460
  214SOL    HW3  887   3.272   3.699   0.610
  214SOL    MW4  888   3.231   3.692   0.533
  215SOL     OW  889   4.369   3.622   0.510
  215SOL    HW2  890   4.278   3.606   0.486
  215SOL    HW3  891   4.415   3.543   0.483
  215SOL    MW4  892   4.363   3.609   0.503
  216SOL     OW  893   3.533   4.133   0.470
  216SOL    HW2  894   3.446   4.105   0.499
  216SOL    HW3  895   3.525   4.228   0.458
  216SOL    MW4  896   3.520   4.142   0.472
  217SOL     OW  897   3.868   4.413   0.436
  217SOL    HW2  898   3.887   4.320   0.427
  217SOL    HW3  899   3.834   4.422   0.525
  217SOL    MW4  900   3.866   4.402   0.447
  218SOL     OW  901   0.043   0.054   0.443
  218SOL    HW2  902   0.079  -0.032   0.467
  218SOL    HW3  903   0.016   0.092   0.526
  218SOL    MW4  904   0.044   0.048   0.457
  219SOL     OW  905   4.074   0.781   0.438
  219SOL    HW2  906   4.008   0.848   0.422
  219SOL    HW3  907   4.033   0.699   0.410
  219SOL    MW4  908   4.060   0.779   0.432
  220SOL     OW  909   0.401   1.618   0.526
  220SOL    HW2  910   0.411   1.528   0.495
  220SOL    HW3  911   0.306   1.632   0.530
  220SOL    MW4  912   0.390   1.608   0.522
  221SOL     OW  913   4.157   0.324   0.366
  221SOL    HW2  914   4.197   0.240   0.341
  221SOL    HW3  915   4.228   0.373   0.407
  221SOL    MW4  916   4.172   0.319   0.368
  222SOL     OW  917   0.002   1.028   0.431
  222SOL    HW2  918  -0.052   1.107   0.421
  222SOL    HW3  919  -0.052   0.957   0.396
  222SOL    MW4  920  -0.013   1.029   0.425
  223SOL     OW  921   3.618   4.456   0.278
  223SOL    HW2  922   3.701   4.443   0.324
  223SOL    HW3  923   3.620   4.548   0.250
  223SOL    MW4  924   3.629   4.466   0.280
  224SOL     OW  925   4.333   1.273   0.442
  224SOL    HW2  926   4.336   1.290   0.536
  224SOL    HW3  927   4.241   1.286   0.418
  224SOL    MW4  928   4.321   1.277   0.451
  225SOL     OW  929   0.014   1.456   0.330
  225SOL    HW2  930   0.096   1.415   0.304
  225SOL    HW3  931  -0.045   1.383   0.347
  225SOL    MW4  932   0.017   1.441   0.329
  226SOL     OW  933   4.100   2.227   0.339
  226SOL    HW2  934   4.048   2.254   0.263
  226SOL    HW3  935   4.095   2.301   0.400
  226SOL    MW4  936   4.093   2.240   0.337
  227SOL     OW  937   4.285   1.886   0.486
  227SOL    HW2  938   4.205   1.912   0.440
  227SOL    HW3  939   4.285   1.938   0.566
  227SOL    MW4  940   4.274   1.896   0.491
  228SOL     OW  941   4.349   2.227   0.478
  228SOL    HW2  942   4.368   2.321   0.471
  228SOL    HW3  943   4.290   2.208   0.405
  228SOL    MW4  944   4.344   2.237   0.467
  229SOL     OW  945   4.043   1.965   0.381
  229SOL    HW2  946   3.951   1.940   0.371
  229SOL    HW3  947   4.043   2.060   0.372
  229SOL    MW4  948   4.031   1.974   0.378
  230SOL     OW  949   4.396   2.494   0.501
  230SOL    HW2  950   4.484   2.484   0.464
  230SOL    HW3  951   4.408   2.480   0.595
  230SOL    MW4  952   4.409   2.491   0.508
  231SOL     OW  953   4.149   3.523   0.349
  231SOL    HW2  954   4.184   3.544   0.262
  231SOL    HW3  955   4.197   3.445   0.376
  231SOL    MW4  956   4.160   3.515   0.341
  232SOL     OW  957   4.125   2.454   0.506
  232SOL    HW2  958   4.104   2.444   0.599
  232SOL    HW3  959   4.214   2.490   0.505
  232SOL    MW4  960   4.134   2.457   0.518
  233SOL     OW  961   0.240   3.893   0.430
  233SOL    HW2  962   0.214   3.976   0.470
  233SOL    HW3  963   0.335   3.900   0.421
  233SOL    MW4  964   0.249   3.905   0.434
  234SOL     OW  965   4.361   3.594   0.156
  234SOL    HW2  966   4.383   3.681   0.190
  234SOL    HW3  967   4.336   3.609   0.065
  234SOL    MW4  968   4.361   3.607   0.148
  235SOL     OW  969   0.030   3.415   0.382
  235SOL    HW2  970   0.007   3.460   0.301
  235SOL    HW3  971   0.102   3.467   0.418
  235SOL    MW4  972   0.036   3.428   0.376
  236SOL     OW  973   3.820   3.600   0.525
  236SOL    HW2  974   3.729   3.621   0.502
  236SOL    HW3  975   3.822   3.604   0.621
  236SOL    MW4  976   3.808   3.603   0.535
  237SOL     OW  977   4.041   3.119   0.521
  237SOL    HW2  978   4.032   3.125   0.616
  237SOL    HW3  979   3.979   3.183   0.486
  237SOL    MW4  980   4.032   3.128   0.529
  238SOL     OW  981   0.145   4.137   0.528
  238SOL    HW2  982   0.110   4.136   0.617
  238SOL    HW3  983   0.070   4.113   0.473
  238SOL    MW4  984   0.131   4.134   0.533
  239SOL     OW  985   4.103   3.979   0.479
  239SOL    HW2  986   4.076   3.897   0.437
  239SOL    HW3  987   4.042   4.044   0.444
  239SOL    MW4  988   4.091   3.977   0.469
  240SOL     OW  989   3.890   4.139   0.400
  240SOL    HW2  990   3.833   4.071   0.436
  240SOL    HW3  991   3.875   4.134   0.305
  240SOL    MW4  992   3.881   4.129   0.392
  241SOL     OW  993   4.136   4.515   0.371
  241SOL    HW2  994   4.205   4.449   0.367
  241SOL    HW3  995   4.064   4.471   0.417
  241SOL    MW4  996   4.136   4.501   0.377
  242SOL     OW  997   0.225   0.017   0.859
  242SOL    HW2  998   0.221  -0.077   0.840
  242SOL    HW3  999   0.153   0.055   0.809
  242SOL    MW4 1000   0.215   0.010   0.850
  243SOL     OW 1001   0.005   0.126   0.708
  243SOL    HW2 1002  -0.064   0.074   0.749
  243SOL    HW3 1003  -0.005   0.213   0.746
  243SOL    MW4 1004  -0.006   0.131   0.718
  244SOL     OW 1005   4.471   0.372   0.844
  244SOL    HW2 1006   4.491   0.359   0.937
  244SOL    HW3 1007   4.553   0.406   0.807
  244SOL    MW4 1008   4.484   0.375   0.851
  245SOL     OW 1009   0.200   0.521   0.760
  245SOL    HW2 1010   0.288   0.488   0.779
  245SOL    HW3 1011   0.203   0.614   0.784
  245SOL    MW4 1012   0.212   0.529   0.766
  246SOL     OW 1013   0.204   0.787   0.858
  246SOL    HW2 1014   0.186   0.787   0.952
  246SOL    HW3 1015   0.122   0.817   0.818
  246SOL    MW4 1016   0.191   0.791   0.865
  247SOL     OW 1017   0.003   0.901   0.706
  247SOL    HW2 1018  -0.080   0.858   0.727
  247SOL    HW3 1019  -0.008   0.932   0.616
  247SOL    MW4 1020  -0.010   0.899   0.697
  248SOL     OW 1021   0.034   1.164   0.823
  248SOL    HW2 1022   0.026   1.155   0.918
  248SOL    HW3 1023   0.030   1.074   0.790
  248SOL    MW4 1024   0.032   1.151   0.831
  249SOL     OW 1025   0.262   1.281   0.720
  249SOL    HW2 1026   0.190   1.239   0.767
  249SOL    HW3 1027   0.266   1.235   0.636
  249SOL    MW4 1028   0.253   1.269   0.715
  250SOL     OW 1029   0.249   1.549   0.858
  250SOL    HW2 1030   0.329   1.597   0.837
  250SOL    HW3 1031   0.258   1.466   0.811
  250SOL    MW4 1032   0.261   1.544   0.849
  251SOL     OW 1033   0.010   1.687   0.780
  251SOL    HW2 1034  -0.060   1.650   0.834
  251SOL    HW3 1035   0.088   1.637   0.805
  251SOL    MW4 1036   0.011   1.676   0.790
  252SOL     OW 1037   0.033   1.968   0.832
  252SOL    HW2 1038   0.121   2.003   0.820
  252SOL    HW3 1039   0.040   1.876   0.808
  252SOL    MW4 1040   0.046   1.960   0.827
  253SOL     OW 1041   0.266   2.117   0.789
  253SOL    HW2 1042   0.257   2.196   0.843
  253SOL    HW3 1043   0.216   2.137   0.710
  253SOL    MW4 1044   0.258   2.130   0.786
  254SOL     OW 1045   0.179   2.393   0.865
  254SOL    HW2 1046   0.190   2.378   0.959
  254SOL    HW3 1047   0.260   2.436   0.838
  254SOL    MW4 1048   0.191   2.397   0.874
  255SOL     OW 1049   4.408   2.459   0.778
  255SOL    HW2 1050   4.342   2.395   0.804
  255SOL    HW3 1051   4.490   2.426   0.816
  255SOL    MW4 1052   4.410   2.446   0.786
  256SOL     OW 1053   0.026   2.693   0.870
  256SOL    HW2 1054   0.036   2.670   0.962
  256SOL    HW3 1055   0.006   2.610   0.826
  256SOL    MW4 1056   0.025   2.679   0.876
  257SOL     OW 1057   0.215   2.852   0.749
  257SOL    HW2 1058   0.137   2.813   0.788
  257SOL    HW3 1059   0.187   2.881   0.662
  257SOL    MW4 1060   0.201   2.851   0.743
  258SOL     OW 1061   0.217   3.113   0.855
  258SOL    HW2 1062   0.236   3.105   0.949
  258SOL    HW3 1063   0.225   3.024   0.822
  258SOL    MW4 1064   0.221   3.100   0.863
  259SOL     OW 1065   4.469   3.210   0.774
  259SOL    HW2 1066   4.553   3.186   0.814
  259SOL    HW3 1067   4.486   3.208   0.680
  259SOL    MW4 1068   4.482   3.207   0.767
  260SOL     OW 1069   0.003   3.475   0.883
  260SOL    HW2 1070  -0.075   3.519   0.849
  260SOL    HW3 1071  -0.005   3.385   0.850
  260SOL    MW4 1072  -0.009   3.469   0.874
  261SOL     OW 1073   0.235   3.597   0.773
  261SOL    HW2 1074   0.152   3.558   0.801
  261SOL    HW3 1075   0.231   3.596   0.677
  261SOL    MW4 1076   0.224   3.592   0.764
  262SOL     OW 1077   0.255   3.864   0.866
  262SOL    HW2 1078   0.249   3.866   0.962
  262SOL    HW3 1079   0.238   3.773   0.843
  262SOL    MW4 1080   0.252   3.852   0.876
  263SOL     OW 1081   0.042   4.032   0.779
  263SOL    HW2 1082  -0.035   3.975   0.783
  263SOL    HW3 1083   0.112   3.981   0.820
  263SOL    MW4 1084   0.041   4.018   0.785
  264SOL     OW 1085   4.458   4.274   0.883
  264SOL    HW2 1086   4.485   4.283   0.974
  264SOL    HW3 1087   4.491   4.188   0.857
  264SOL    MW4 1088   4.466   4.264   0.892
  265SOL     OW 1089   0.180   4.416   0.765
  265SOL    HW2 1090   0.094   4.390   0.798
  265SOL    HW3 1091   0.167   4.428   0.671
  265SOL    MW4 1092   0.167   4.414   0.757
  266SOL     OW 1093   0.718   0.007   0.872
  266SOL    HW2 1094   0.699   0.020   0.965
  266SOL    HW3 1095   0.638   0.034   0.827
  266SOL    MW4 1096   0.705   0.012   0.878
  267SOL     OW 1097   0.470   0.104   0.788
  267SOL    HW2 1098   0.385   0.061   0.795
  267SOL    HW3 1099   0.483   0.116   0.694
  267SOL    MW4 1100   0.460   0.100   0.777
  268SOL     OW 1101   0.435   0.383   0.824
  268SOL    HW2 1102   0.523   0.411   0.800
  268SOL    HW3 1103   0.440   0.287   0.824
  268SOL    MW4 1104   0.447   0.374   0.821
  269SOL     OW 1105   0.666   0.536   0.731
  269SOL    HW2 1106   0.758   0.512   0.745
  269SOL    HW3 1107   0.655   0.535   0.636
  269SOL    MW4 1108   0.677   0.533   0.720
  270SOL     OW 1109   0.672   0.767   0.896
  270SOL    HW2 1110   0.596   0.810   0.858
  270SOL    HW3 1111   0.673   0.680   0.856
  270SOL    MW4 1112   0.662   0.761   0.886
  271SOL     OW 1113   0.449   0.885   0.765
  271SOL    HW2 1114   0.446   0.977   0.790
  271SOL    HW3 1115   0.370   0.847   0.803
  271SOL    MW4 1116   0.438   0.892   0.773
  272SOL     OW 1117   0.465   1.152   0.851
  272SOL    HW2 1118   0.543   1.198   0.820
  272SOL    HW3 1119   0.392   1.196   0.808
  272SOL    MW4 1120   0.466   1.164   0.841
  273SOL     OW 1121   0.700   1.266   0.769
  273SOL    HW2 1122   0.711   1.354   0.805
  273SOL    HW3 1123   0.714   1.276   0.675
  273SOL    MW4 1124   0.703   1.279   0.761
  274SOL     OW 1125   0.720   1.532   0.857
  274SOL    HW2 1126   0.716   1.541   0.952
  274SOL    HW3 1127   0.640   1.573   0.825
  274SOL    MW4 1128   0.709   1.539   0.865
  275SOL     OW 1129   0.509   1.657   0.765
  275SOL    HW2 1130   0.482   1.745   0.790
  275SOL    HW3 1131   0.476   1.646   0.676
  275SOL    MW4 1132   0.501   1.667   0.757
  276SOL     OW 1133   0.458   1.912   0.863
  276SOL    HW2 1134   0.464   1.924   0.958
  276SOL    HW3 1135   0.388   1.972   0.835
  276SOL    MW4 1136   0.450   1.921   0.872
  277SOL     OW 1137   0.669   2.050   0.770
  277SOL    HW2 1138   0.600   1.991   0.802
  277SOL    HW3 1139   0.669   2.037   0.675
  277SOL    MW4 1140   0.660   2.041   0.762
  278SOL     OW 1141   0.654   2.314   0.844
  278SOL    HW2 1142   0.660   2.316   0.940
  278SOL    HW3 1143   0.672   2.223   0.821
  278SOL    MW4 1144   0.657   2.302   0.854
  279SOL     OW 1145   0.428   2.453   0.755
  279SOL    HW2 1146   0.493   2.397   0.797
  279SOL    HW3 1147   0.403   2.406   0.675
  279SOL    MW4 1148   0.433   2.439   0.750
  280SOL     OW 1149   0.420   2.710   0.872
  280SOL    HW2 1150   0.427   2.624   0.830
  280SOL    HW3 1151   0.355   2.757   0.820
  280SOL    MW4 1152   0.412   2.705   0.860
  281SOL     OW 1153   0.645   2.813   0.742
  281SOL    HW2 1154   0.724   2.792   0.792
  281SOL    HW3 1155   0.573   2.777   0.794
  281SOL    MW4 1156   0.646   2.805   0.755
  282SOL     OW 1157   0.665   3.057   0.864
  282SOL    HW2 1158   0.586   3.103   0.837
  282SOL    HW3 1159   0.665   2.977   0.812
  282SOL    MW4 1160   0.655   3.053   0.854
  283SOL     OW 1161   0.451   3.193   0.753
  283SOL    HW2 1162   0.437   3.280   0.790
  283SOL    HW3 1163   0.375   3.142   0.782
  283SOL    MW4 1164   0.439   3.198   0.762
  284SOL     OW 1165   0.448   3.447   0.873
  284SOL    HW2 1166   0.443   3.442   0.968
  284SOL    HW3 1167   0.369   3.494   0.847
  284SOL    MW4 1168   0.437   3.453   0.882
  285SOL     OW 1169   0.669   3.585   0.776
  285SOL    HW2 1170   0.585   3.560   0.815
  285SOL    HW3 1171   0.682   3.676   0.803
  285SOL    MW4 1172   0.660   3.594   0.785
  286SOL     OW 1173   0.668   3.855   0.848
  286SOL    HW2 1174   0.749   3.882   0.805
  286SOL    HW3 1175   0.599   3.899   0.799
  286SOL    MW4 1176   0.670   3.864   0.836
  287SOL     OW 1177   0.448   4.007   0.721
  287SOL    HW2 1178   0.468   4.097   0.747
  287SOL    HW3 1179   0.380   3.979   0.783
  287SOL    MW4 1180   0.442   4.015   0.733
  288SOL     OW 1181   0.453   4.287   0.810
  288SOL    HW2 1182   0.451   4.265   0.903
  288SOL    HW3 1183   0.371   4.335   0.795
  288SOL    MW4 1184   0.442   4.290   0.820
  289SOL     OW 1185   0.682   4.416   0.758
  289SOL    HW2 1186   0.599   4.375   0.782
  289SOL    HW3 1187   0.674   4.507   0.788
  289SOL    MW4 1188   0.670   4.423   0.765
  290SOL     OW 1189   1.126   4.646   0.848
  290SOL    HW2 1190   1.191   4.704   0.808
  290SOL    HW3 1191   1.045   4.697   0.847
  290SOL    MW4 1192   1.124   4.660   0.843
  291SOL     OW 1193   0.934   0.167   0.792
  291SOL    HW2 1194   0.915   0.261   0.794
  291SOL    HW3 1195   0.853   0.125   0.821
  291SOL    MW4 1196   0.921   0.174   0.796
  292SOL     OW 1197   0.913   0.457   0.846
  292SOL    HW2 1198   0.907   0.438   0.940
  292SOL    HW3 1199   1.000   0.494   0.835
  292SOL    MW4 1200   0.924   0.459   0.857
  293SOL     OW 1201   1.156   0.541   0.794
  293SOL    HW2 1202   1.221   0.477   0.823
  293SOL    HW3 1203   1.158   0.535   0.698
  293SOL    MW4 1204   1.165   0.532   0.785
  294SOL     OW 1205   1.151   0.812   0.856
  294SOL    HW2 1206   1.127   0.807   0.949
  294SOL    HW3 1207   1.167   0.721   0.831
  294SOL    MW4 1208   1.150   0.799   0.865
  295SOL     OW 1209   0.891   0.869   0.752
  295SOL    HW2 1210   0.971   0.847   0.799
  295SOL    HW3 1211   0.821   0.839   0.810
  295SOL    MW4 1212   0.892   0.862   0.766
  296SOL     OW 1213   0.938   1.131   0.820
  296SOL    HW2 1214   0.922   1.045   0.782
  296SOL    HW3 1215   0.856   1.178   0.808
  296SOL    MW4 1216   0.925   1.126   0.813
  297SOL     OW 1217   1.170   1.270   0.719
  297SOL    HW2 1218   1.095   1.232   0.764
  297SOL    HW3 1219   1.149   1.262   0.626
  297SOL    MW4 1220   1.157   1.264   0.713
  298SOL     OW 1221   1.175   1.531   0.851
  298SOL    HW2 1222   1.101   1.579   0.814
  298SOL    HW3 1223   1.168   1.444   0.812
  298SOL    MW4 1224   1.164   1.526   0.841
  299SOL     OW 1225   0.961   1.690   0.739
  299SOL    HW2 1226   0.969   1.778   0.777
  299SOL    HW3 1227   0.873   1.662   0.763
  299SOL    MW4 1228   0.950   1.698   0.747
  300SOL     OW 1229   0.909   1.926   0.877
  300SOL    HW2 1230   0.912   1.924   0.973
  300SOL    HW3 1231   0.821   1.959   0.857
  300SOL    MW4 1232   0.898   1.930   0.887
  301SOL     OW 1233   1.099   2.048   0.719
  301SOL    HW2 1234   1.094   2.141   0.741
  301SOL    HW3 1235   1.031   2.007   0.772
  301SOL    MW4 1236   1.089   2.055   0.729
  302SOL     OW 1237   1.120   2.303   0.812
  302SOL    HW2 1238   1.104   2.300   0.906
  302SOL    HW3 1239   1.206   2.345   0.803
  302SOL    MW4 1240   1.129   2.308   0.823
  303SOL     OW 1241   0.885   2.454   0.781
  303SOL    HW2 1242   0.968   2.411   0.802
  303SOL    HW3 1243   0.819   2.385   0.792
  303SOL    MW4 1244   0.887   2.439   0.785
  304SOL     OW 1245   0.874   2.702   0.906
  304SOL    HW2 1246   0.883   2.696   1.001
  304SOL    HW3 1247   0.854   2.613   0.878
  304SOL    MW4 1248   0.873   2.689   0.915
  305SOL     OW 1249   1.094   2.828   0.775
  305SOL    HW2 1250   1.023   2.777   0.813
  305SOL    HW3 1251   1.074   2.832   0.682
  305SOL    MW4 1252   1.082   2.822   0.768
  306SOL     OW 1253   1.107   3.090   0.902
  306SOL    HW2 1254   1.024   3.116   0.862
  306SOL    HW3 1255   1.120   2.999   0.874
  306SOL    MW4 1256   1.098   3.081   0.893
  307SOL     OW 1257   0.884   3.195   0.784
  307SOL    HW2 1258   0.893   3.281   0.824
  307SOL    HW3 1259   0.805   3.158   0.823
  307SOL    MW4 1260   0.875   3.202   0.794
  308SOL     OW 1261   0.878   3.454   0.876
  308SOL    HW2 1262   0.959   3.499   0.853
  308SOL    HW3 1263   0.809   3.504   0.831
  308SOL    MW4 1264   0.880   3.467   0.867
  309SOL     OW 1265   1.092   3.603   0.790
  309SOL    HW2 1266   1.178   3.567   0.813
  309SOL    HW3 1267   1.082   3.583   0.697
  309SOL    MW4 1268   1.102   3.596   0.781
  310SOL     OW 1269   1.123   3.889   0.870
  310SOL    HW2 1270   1.110   3.879   0.964
  310SOL    HW3 1271   1.116   3.800   0.835
  310SOL    MW4 1272   1.120   3.876   0.878
  311SOL     OW 1273   0.893   3.991   0.771
  311SOL    HW2 1274   0.878   4.084   0.787
  311SOL    HW3 1275   0.980   3.974   0.807
  311SOL    MW4 1276   0.903   4.001   0.778
  312SOL     OW 1277   0.888   4.251   0.845
  312SOL    HW2 1278   0.964   4.290   0.802
  312SOL    HW3 1279   0.814   4.305   0.816
  312SOL    MW4 1280   0.888   4.263   0.836
  313SOL     OW 1281   1.109   4.410   0.715
  313SOL    HW2 1282   1.190   4.375   0.753
  313SOL    HW3 1283   1.098   4.495   0.758
  313SOL    MW4 1284   1.118   4.417   0.726
  314SOL     OW 1285   1.532   4.661   0.796
  314SOL    HW2 1286   1.532   4.650   0.891
  314SOL    HW3 1287   1.454   4.713   0.778
  314SOL    MW4 1288   1.522   4.666   0.806
  315SOL     OW 1289   1.296   0.144   0.724
  315SOL    HW2 1290   1.314   0.230   0.761
  315SOL    HW3 1291   1.302   0.157   0.629
  315SOL    MW4 1292   1.299   0.157   0.716
  316SOL     OW 1293   1.368   0.379   0.861
  316SOL    HW2 1294   1.372   0.381   0.957
  316SOL    HW3 1295   1.445   0.428   0.833
  316SOL    MW4 1296   1.379   0.386   0.870
  317SOL     OW 1297   1.575   0.534   0.711
  317SOL    HW2 1298   1.578   0.613   0.765
  317SOL    HW3 1299   1.654   0.486   0.734
  317SOL    MW4 1300   1.586   0.538   0.721
  318SOL     OW 1301   1.557   0.790   0.857
  318SOL    HW2 1302   1.627   0.824   0.801
  318SOL    HW3 1303   1.480   0.841   0.832
  318SOL    MW4 1304   1.556   0.801   0.846
  319SOL     OW 1305   1.365   0.950   0.745
  319SOL    HW2 1306   1.371   1.037   0.784
  319SOL    HW3 1307   1.287   0.911   0.784
  319SOL    MW4 1308   1.356   0.956   0.755
  320SOL     OW 1309   1.374   1.194   0.874
  320SOL    HW2 1310   1.451   1.232   0.831
  320SOL    HW3 1311   1.300   1.226   0.822
  320SOL    MW4 1312   1.374   1.203   0.862
  321SOL     OW 1313   1.577   1.291   0.719
  321SOL    HW2 1314   1.597   1.385   0.716
  321SOL    HW3 1315   1.572   1.264   0.627
  321SOL    MW4 1316   1.579   1.300   0.706
  322SOL     OW 1317   1.717   1.675   0.907
  322SOL    HW2 1318   1.654   1.655   0.976
  322SOL    HW3 1319   1.796   1.627   0.931
  322SOL    MW4 1320   1.719   1.666   0.919
  323SOL     OW 1321   1.344   1.682   0.680
  323SOL    HW2 1322   1.334   1.774   0.704
  323SOL    HW3 1323   1.288   1.635   0.741
  323SOL    MW4 1324   1.335   1.688   0.691
  324SOL     OW 1325   1.331   1.936   0.783
  324SOL    HW2 1326   1.349   1.944   0.877
  324SOL    HW3 1327   1.243   1.971   0.772
  324SOL    MW4 1328   1.322   1.942   0.794
  325SOL     OW 1329   1.541   2.117   0.730
  325SOL    HW2 1330   1.458   2.069   0.734
  325SOL    HW3 1331   1.571   2.106   0.640
  325SOL    MW4 1332   1.534   2.109   0.719
  326SOL     OW 1333   1.577   2.350   0.854
  326SOL    HW2 1334   1.512   2.405   0.811
  326SOL    HW3 1335   1.565   2.263   0.816
  326SOL    MW4 1336   1.567   2.346   0.843
  327SOL     OW 1337   1.367   2.472   0.736
  327SOL    HW2 1338   1.354   2.557   0.778
  327SOL    HW3 1339   1.358   2.489   0.642
  327SOL    MW4 1340   1.364   2.486   0.729
  328SOL     OW 1341   1.349   2.727   0.832
  328SOL    HW2 1342   1.349   2.734   0.927
  328SOL    HW3 1343   1.264   2.762   0.805
  328SOL    MW4 1344   1.338   2.733   0.841
  329SOL     OW 1345   1.613   2.838   0.776
  329SOL    HW2 1346   1.611   2.932   0.796
  329SOL    HW3 1347   1.525   2.807   0.797
  329SOL    MW4 1348   1.601   2.846   0.781
  330SOL     OW 1349   1.564   3.099   0.865
  330SOL    HW2 1350   1.570   3.125   0.957
  330SOL    HW3 1351   1.479   3.133   0.837
  330SOL    MW4 1352   1.554   3.107   0.873
  331SOL     OW 1353   1.330   3.209   0.774
  331SOL    HW2 1354   1.253   3.166   0.811
  331SOL    HW3 1355   1.319   3.201   0.679
  331SOL    MW4 1356   1.318   3.202   0.767
  332SOL     OW 1357   1.335   3.492   0.852
  332SOL    HW2 1358   1.417   3.523   0.814
  332SOL    HW3 1359   1.334   3.398   0.832
  332SOL    MW4 1360   1.346   3.484   0.844
  333SOL     OW 1361   1.551   3.599   0.702
  333SOL    HW2 1362   1.620   3.573   0.762
  333SOL    HW3 1363   1.580   3.566   0.617
  333SOL    MW4 1364   1.564   3.591   0.699
  334SOL     OW 1365   1.542   3.883   0.873
  334SOL    HW2 1366   1.467   3.940   0.854
  334SOL    HW3 1367   1.529   3.808   0.815
  334SOL    MW4 1368   1.530   3.881   0.863
  335SOL     OW 1369   1.328   4.014   0.735
  335SOL    HW2 1370   1.239   3.987   0.759
  335SOL    HW3 1371   1.357   3.949   0.671
  335SOL    MW4 1372   1.320   4.002   0.730
  336SOL     OW 1373   1.343   4.283   0.826
  336SOL    HW2 1374   1.426   4.314   0.789
  336SOL    HW3 1375   1.337   4.191   0.800
  336SOL    MW4 1376   1.353   4.275   0.818
  337SOL     OW 1377   1.574   4.389   0.698
  337SOL    HW2 1378   1.637   4.342   0.752
  337SOL    HW3 1379   1.567   4.475   0.739
  337SOL    MW4 1380   1.581   4.394   0.711
  338SOL     OW 1381   1.983   4.648   0.886
  338SOL    HW2 1382   2.066   4.695   0.876
  338SOL    HW3 1383   1.984   4.584   0.815
  338SOL    MW4 1384   1.994   4.646   0.875
  339SOL     OW 1385   1.804   0.147   0.767
  339SOL    HW2 1386   1.861   0.094   0.822
  339SOL    HW3 1387   1.722   0.098   0.763
  339SOL    MW4 1388   1.801   0.134   0.774
  340SOL     OW 1389   1.786   0.408   0.819
  340SOL    HW2 1390   1.785   0.316   0.793
  340SOL    HW3 1391   1.861   0.446   0.772
  340SOL    MW4 1392   1.796   0.401   0.809
  341SOL     OW 1393   2.015   0.495   0.698
  341SOL    HW2 1394   2.101   0.481   0.737
  341SOL    HW3 1395   2.029   0.561   0.630
  341SOL    MW4 1396   2.028   0.502   0.694
  342SOL     OW 1397   1.964   0.745   0.830
  342SOL    HW2 1398   2.040   0.802   0.816
  342SOL    HW3 1399   1.987   0.664   0.785
  342SOL    MW4 1400   1.977   0.742   0.822
  343SOL     OW 1401   1.786   0.925   0.716
  343SOL    HW2 1402   1.785   1.007   0.766
  343SOL    HW3 1403   1.848   0.869   0.763
  343SOL    MW4 1404   1.794   0.928   0.729
  344SOL     OW 1405   1.775   1.148   0.881
  344SOL    HW2 1406   1.861   1.181   0.856
  344SOL    HW3 1407   1.714   1.216   0.851
  344SOL    MW4 1408   1.778   1.161   0.874
  345SOL     OW 1409   1.995   1.296   0.789
  345SOL    HW2 1410   2.084   1.277   0.818
  345SOL    HW3 1411   2.002   1.300   0.694
  345SOL    MW4 1412   2.008   1.294   0.780
  346SOL     OW 1413   1.960   1.547   0.935
  346SOL    HW2 1414   2.026   1.602   0.892
  346SOL    HW3 1415   1.966   1.463   0.889
  346SOL    MW4 1416   1.969   1.543   0.923
  347SOL     OW 1417   1.885   1.766   0.424
  347SOL    HW2 1418   1.836   1.816   0.490
  347SOL    HW3 1419   1.837   1.683   0.417
  347SOL    MW4 1420   1.872   1.762   0.432
  348SOL     OW 1421   1.749   1.952   0.841
  348SOL    HW2 1422   1.724   1.860   0.847
  348SOL    HW3 1423   1.669   1.997   0.816
  348SOL    MW4 1424   1.735   1.946   0.838
  349SOL     OW 1425   1.984   2.070   0.745
  349SOL    HW2 1426   2.001   2.155   0.785
  349SOL    HW3 1427   1.907   2.037   0.792
  349SOL    MW4 1428   1.976   2.077   0.756
  350SOL     OW 1429   2.041   2.325   0.845
  350SOL    HW2 1430   2.027   2.333   0.939
  350SOL    HW3 1431   1.958   2.352   0.806
  350SOL    MW4 1432   2.028   2.330   0.852
  351SOL     OW 1433   1.826   2.474   0.763
  351SOL    HW2 1434   1.745   2.430   0.789
  351SOL    HW3 1435   1.808   2.507   0.675
  351SOL    MW4 1436   1.813   2.473   0.755
  352SOL     OW 1437   1.817   2.709   0.922
  352SOL    HW2 1438   1.823   2.623   0.880
  352SOL    HW3 1439   1.740   2.750   0.882
  352SOL    MW4 1440   1.808   2.703   0.911
  353SOL     OW 1441   2.005   2.846   0.785
  353SOL    HW2 1442   2.086   2.803   0.811
  353SOL    HW3 1443   1.937   2.803   0.837
  353SOL    MW4 1444   2.007   2.835   0.795
  354SOL     OW 1445   1.998   3.107   0.884
  354SOL    HW2 1446   1.921   3.150   0.847
  354SOL    HW3 1447   1.994   3.018   0.849
  354SOL    MW4 1448   1.987   3.101   0.875
  355SOL     OW 1449   1.784   3.272   0.754
  355SOL    HW2 1450   1.708   3.217   0.772
  355SOL    HW3 1451   1.794   3.270   0.659
  355SOL    MW4 1452   1.775   3.264   0.744
  356SOL     OW 1453   1.787   3.527   0.861
  356SOL    HW2 1454   1.798   3.526   0.956
  356SOL    HW3 1455   1.807   3.437   0.834
  356SOL    MW4 1456   1.791   3.515   0.870
  357SOL     OW 1457   2.032   3.651   0.753
  357SOL    HW2 1458   2.024   3.746   0.758
  357SOL    HW3 1459   1.953   3.619   0.796
  357SOL    MW4 1460   2.021   3.659   0.759
  358SOL     OW 1461   2.033   3.923   0.841
  358SOL    HW2 1462   2.031   3.928   0.937
  358SOL    HW3 1463   1.945   3.950   0.814
  358SOL    MW4 1464   2.021   3.927   0.850
  359SOL     OW 1465   1.778   3.991   0.745
  359SOL    HW2 1466   1.707   3.938   0.782
  359SOL    HW3 1467   1.760   3.991   0.651
  359SOL    MW4 1468   1.766   3.984   0.738
  360SOL     OW 1469   1.763   4.250   0.839
  360SOL    HW2 1470   1.785   4.242   0.932
  360SOL    HW3 1471   1.761   4.160   0.806
  360SOL    MW4 1472   1.766   4.237   0.847
  361SOL     OW 1473   2.011   4.255   0.732
  361SOL    HW2 1474   1.920   4.260   0.761
  361SOL    HW3 1475   2.007   4.212   0.647
  361SOL    MW4 1476   1.998   4.250   0.725
  362SOL     OW 1477   2.478   4.653   0.861
  362SOL    HW2 1478   2.501   4.665   0.953
  362SOL    HW3 1479   2.539   4.710   0.814
  362SOL    MW4 1480   2.489   4.662   0.867
  363SOL     OW 1481   2.242   0.132   0.826
  363SOL    HW2 1482   2.321   0.080   0.840
  363SOL    HW3 1483   2.225   0.125   0.732
  363SOL    MW4 1484   2.250   0.124   0.815
  364SOL     OW 1485   2.247   0.418   0.835
  364SOL    HW2 1486   2.327   0.451   0.794
  364SOL    HW3 1487   2.258   0.323   0.837
  364SOL    MW4 1488   2.259   0.410   0.830
  365SOL     OW 1489   2.440   0.549   0.709
  365SOL    HW2 1490   2.439   0.552   0.613
  365SOL    HW3 1491   2.516   0.495   0.731
  365SOL    MW4 1492   2.450   0.542   0.699
  366SOL     OW 1493   2.418   0.768   0.870
  366SOL    HW2 1494   2.504   0.809   0.860
  366SOL    HW3 1495   2.422   0.689   0.817
  366SOL    MW4 1496   2.430   0.763   0.862
  367SOL     OW 1497   2.204   0.914   0.800
  367SOL    HW2 1498   2.275   0.865   0.842
  367SOL    HW3 1499   2.222   0.905   0.706
  367SOL    MW4 1500   2.216   0.906   0.793
  368SOL     OW 1501   2.250   1.215   0.850
  368SOL    HW2 1502   2.236   1.210   0.945
  368SOL    HW3 1503   2.230   1.127   0.818
  368SOL    MW4 1504   2.246   1.203   0.858
  369SOL     OW 1505   2.488   1.284   0.756
  369SOL    HW2 1506   2.408   1.238   0.782
  369SOL    HW3 1507   2.463   1.332   0.677
  369SOL    MW4 1508   2.474   1.284   0.749
  370SOL     OW 1509   2.436   1.529   0.862
  370SOL    HW2 1510   2.502   1.586   0.822
  370SOL    HW3 1511   2.462   1.441   0.836
  370SOL    MW4 1512   2.448   1.525   0.853
  371SOL     OW 1513   2.185   1.651   0.814
  371SOL    HW2 1514   2.269   1.611   0.835
  371SOL    HW3 1515   2.166   1.620   0.726
  371SOL    MW4 1516   2.194   1.642   0.805
  372SOL     OW 1517   2.194   1.934   0.858
  372SOL    HW2 1518   2.191   1.845   0.823
  372SOL    HW3 1519   2.123   1.980   0.814
  372SOL    MW4 1520   2.184   1.928   0.848
  373SOL     OW 1521   2.424   2.071   0.758
  373SOL    HW2 1522   2.358   2.011   0.792
  373SOL    HW3 1523   2.391   2.098   0.673
  373SOL    MW4 1524   2.411   2.067   0.751
  374SOL     OW 1525   2.493   2.301   0.891
  374SOL    HW2 1526   2.567   2.345   0.849
  374SOL    HW3 1527   2.477   2.224   0.837
  374SOL    MW4 1528   2.501   2.297   0.878
  375SOL     OW 1529   2.279   2.449   0.782
  375SOL    HW2 1530   2.351   2.403   0.824
  375SOL    HW3 1531   2.201   2.401   0.809
  375SOL    MW4 1532   2.278   2.437   0.791
  376SOL     OW 1533   2.231   2.722   0.859
  376SOL    HW2 1534   2.254   2.739   0.950
  376SOL    HW3 1535   2.251   2.629   0.845
  376SOL    MW4 1536   2.237   2.712   0.869
  377SOL     OW 1537   2.485   2.828   0.757
  377SOL    HW2 1538   2.546   2.776   0.810
  377SOL    HW3 1539   2.399   2.789   0.774
  377SOL    MW4 1540   2.482   2.816   0.766
  378SOL     OW 1541   2.458   3.105   0.860
  378SOL    HW2 1542   2.439   3.100   0.954
  378SOL    HW3 1543   2.471   3.014   0.834
  378SOL    MW4 1544   2.457   3.092   0.869
  379SOL     OW 1545   2.213   3.248   0.780
  379SOL    HW2 1546   2.141   3.190   0.806
  379SOL    HW3 1547   2.292   3.194   0.791
  379SOL    MW4 1548   2.214   3.233   0.785
  380SOL     OW 1549   2.242   3.514   0.874
  380SOL    HW2 1550   2.235   3.420   0.855
  380SOL    HW3 1551   2.174   3.554   0.821
  380SOL    MW4 1552   2.232   3.507   0.864
  381SOL     OW 1553   2.497   3.641   0.838
  381SOL    HW2 1554   2.565   3.575   0.851
  381SOL    HW3 1555   2.415   3.596   0.858
  381SOL    MW4 1556   2.495   3.626   0.842
  382SOL     OW 1557   2.522   3.918   0.887
  382SOL    HW2 1558   2.445   3.954   0.844
  382SOL    HW3 1559   2.517   3.824   0.871
  382SOL    MW4 1560   2.511   3.910   0.879
  383SOL     OW 1561   2.296   3.977   0.757
  383SOL    HW2 1562   2.210   3.954   0.791
  383SOL    HW3 1563   2.287   3.967   0.662
  383SOL    MW4 1564   2.283   3.973   0.749
  384SOL     OW 1565   2.276   4.260   0.869
  384SOL    HW2 1566   2.295   4.176   0.827
  384SOL    HW3 1567   2.184   4.277   0.849
  384SOL    MW4 1568   2.266   4.251   0.861
  385SOL     OW 1569   2.389   4.461   0.704
  385SOL    HW2 1570   2.420   4.531   0.761
  385SOL    HW3 1571   2.353   4.395   0.763
  385SOL    MW4 1572   2.388   4.462   0.719
  386SOL     OW 1573   2.907   0.015   0.831
  386SOL    HW2 1574   2.912  -0.072   0.791
  386SOL    HW3 1575   2.826   0.053   0.798
  386SOL    MW4 1576   2.897   0.009   0.821
  387SOL     OW 1577   2.607   4.545   0.459
  387SOL    HW2 1578   2.537   4.610   0.458
  387SOL    HW3 1579   2.664   4.571   0.387
  387SOL    MW4 1580   2.605   4.557   0.449
  388SOL     OW 1581   2.642   0.371   0.816
  388SOL    HW2 1582   2.651   0.368   0.911
  388SOL    HW3 1583   2.728   0.397   0.784
  388SOL    MW4 1584   2.655   0.374   0.824
  389SOL     OW 1585   2.911   0.512   0.755
  389SOL    HW2 1586   2.995   0.476   0.783
  389SOL    HW3 1587   2.919   0.522   0.660
  389SOL    MW4 1588   2.923   0.509   0.746
  390SOL     OW 1589   2.894   0.743   0.912
  390SOL    HW2 1590   2.886   0.712   1.002
  390SOL    HW3 1591   2.900   0.663   0.859
  390SOL    MW4 1592   2.894   0.728   0.917
  391SOL     OW 1593   2.668   0.868   0.819
  391SOL    HW2 1594   2.742   0.823   0.860
  391SOL    HW3 1595   2.676   0.846   0.726
  391SOL    MW4 1596   2.679   0.859   0.812
  392SOL     OW 1597   2.746   1.130   0.814
  392SOL    HW2 1598   2.724   1.037   0.816
  392SOL    HW3 1599   2.663   1.174   0.795
  392SOL    MW4 1600   2.732   1.123   0.812
  393SOL     OW 1601   2.937   1.304   0.689
  393SOL    HW2 1602   3.018   1.276   0.732
  393SOL    HW3 1603   2.868   1.255   0.734
  393SOL    MW4 1604   2.939   1.294   0.701
  394SOL     OW 1605   2.894   1.563   0.822
  394SOL    HW2 1606   2.979   1.606   0.810
  394SOL    HW3 1607   2.901   1.482   0.772
  394SOL    MW4 1608   2.906   1.558   0.814
  395SOL     OW 1609   2.646   1.679   0.737
  395SOL    HW2 1610   2.642   1.768   0.772
  395SOL    HW3 1611   2.730   1.645   0.767
  395SOL    MW4 1612   2.657   1.686   0.746
  396SOL     OW 1613   2.679   1.921   0.843
  396SOL    HW2 1614   2.673   1.904   0.937
  396SOL    HW3 1615   2.600   1.971   0.822
  396SOL    MW4 1616   2.668   1.925   0.853
  397SOL     OW 1617   2.802   2.080   0.643
  397SOL    HW2 1618   2.862   2.133   0.696
  397SOL    HW3 1619   2.773   2.010   0.702
  397SOL    MW4 1620   2.806   2.078   0.658
  398SOL     OW 1621   2.927   2.278   0.815
  398SOL    HW2 1622   2.937   2.282   0.910
  398SOL    HW3 1623   2.848   2.328   0.796
  398SOL    MW4 1624   2.918   2.285   0.825
  399SOL     OW 1625   2.695   2.428   0.745
  399SOL    HW2 1626   2.677   2.441   0.652
  399SOL    HW3 1627   2.687   2.515   0.784
  399SOL    MW4 1628   2.692   2.441   0.738
  400SOL     OW 1629   2.713   2.686   0.861
  400SOL    HW2 1630   2.709   2.686   0.957
  400SOL    HW3 1631   2.798   2.724   0.841
  400SOL    MW4 1632   2.724   2.691   0.871
  401SOL     OW 1633   2.920   2.774   0.562
  401SOL    HW2 1634   2.948   2.687   0.533
  401SOL    HW3 1635   2.841   2.792   0.511
  401SOL    MW4 1636   2.913   2.765   0.551
  402SOL     OW 1637   2.943   3.100   0.844
  402SOL    HW2 1638   2.862   3.131   0.804
  402SOL    HW3 1639   2.936   3.005   0.841
  402SOL    MW4 1640   2.931   3.092   0.838
  403SOL     OW 1641   2.701   3.217   0.731
  403SOL    HW2 1642   2.700   3.302   0.775
  403SOL    HW3 1643   2.617   3.177   0.754
  403SOL    MW4 1644   2.690   3.223   0.740
  404SOL     OW 1645   2.707   3.473   0.859
  404SOL    HW2 1646   2.717   3.466   0.954
  404SOL    HW3 1647   2.788   3.514   0.829
  404SOL    MW4 1648   2.719   3.477   0.868
  405SOL     OW 1649   2.975   3.592   0.793
  405SOL    HW2 1650   2.959   3.682   0.822
  405SOL    HW3 1651   2.982   3.598   0.698
  405SOL    MW4 1652   2.974   3.605   0.784
  406SOL     OW 1653   2.964   3.859   0.878
  406SOL    HW2 1654   2.935   3.858   0.969
  406SOL    HW3 1655   2.904   3.919   0.834
  406SOL    MW4 1656   2.952   3.867   0.884
  407SOL     OW 1657   2.766   4.002   0.763
  407SOL    HW2 1658   2.692   3.962   0.809
  407SOL    HW3 1659   2.762   3.964   0.675
  407SOL    MW4 1660   2.756   3.992   0.757
  408SOL     OW 1661   2.650   4.275   0.783
  408SOL    HW2 1662   2.616   4.292   0.871
  408SOL    HW3 1663   2.699   4.193   0.791
  408SOL    MW4 1664   2.652   4.266   0.796
  409SOL     OW 1665   2.886   4.426   0.729
  409SOL    HW2 1666   2.952   4.377   0.779
  409SOL    HW3 1667   2.802   4.390   0.759
  409SOL    MW4 1668   2.884   4.415   0.740
  410SOL     OW 1669   3.407   4.634   0.873
  410SOL    HW2 1670   3.414   4.638   0.968
  410SOL    HW3 1671   3.316   4.656   0.855
  410SOL    MW4 1672   3.396   4.637   0.883
  411SOL     OW 1673   3.164   0.079   0.792
  411SOL    HW2 1674   3.169   0.170   0.821
  411SOL    HW3 1675   3.077   0.051   0.819
  411SOL    MW4 1676   3.153   0.087   0.799
  412SOL     OW 1677   3.151   0.357   0.832
  412SOL    HW2 1678   3.152   0.363   0.928
  412SOL    HW3 1679   3.223   0.414   0.804
  412SOL    MW4 1680   3.161   0.365   0.841
  413SOL     OW 1681   3.363   0.530   0.752
  413SOL    HW2 1682   3.436   0.470   0.767
  413SOL    HW3 1683   3.380   0.567   0.665
  413SOL    MW4 1684   3.375   0.527   0.743
  414SOL     OW 1685   3.349   0.792   0.856
  414SOL    HW2 1686   3.261   0.816   0.826
  414SOL    HW3 1687   3.365   0.706   0.817
  414SOL    MW4 1688   3.340   0.784   0.847
  415SOL     OW 1689   3.105   0.897   0.781
  415SOL    HW2 1690   3.103   0.988   0.811
  415SOL    HW3 1691   3.023   0.859   0.812
  415SOL    MW4 1692   3.094   0.904   0.789
  416SOL     OW 1693   3.160   1.189   0.815
  416SOL    HW2 1694   3.154   1.183   0.910
  416SOL    HW3 1695   3.239   1.241   0.799
  416SOL    MW4 1696   3.170   1.195   0.825
  417SOL     OW 1697   3.387   1.339   0.724
  417SOL    HW2 1698   3.467   1.297   0.755
  417SOL    HW3 1699   3.395   1.430   0.754
  417SOL    MW4 1700   3.399   1.345   0.732
  418SOL     OW 1701   3.389   1.601   0.807
  418SOL    HW2 1702   3.384   1.579   0.900
  418SOL    HW3 1703   3.483   1.608   0.789
  418SOL    MW4 1704   3.401   1.599   0.817
  419SOL     OW 1705   3.139   1.675   0.765
  419SOL    HW2 1706   3.230   1.653   0.785
  419SOL    HW3 1707   3.140   1.701   0.673
  419SOL    MW4 1708   3.151   1.676   0.755
  420SOL     OW 1709   3.235   1.928   0.807
  420SOL    HW2 1710   3.205   1.930   0.898
  420SOL    HW3 1711   3.204   1.844   0.774
  420SOL    MW4 1712   3.227   1.917   0.815
  421SOL     OW 1713   3.495   1.956   0.913
  421SOL    HW2 1714   3.501   2.049   0.890
  421SOL    HW3 1715   3.405   1.932   0.893
  421SOL    MW4 1716   3.484   1.965   0.907
  422SOL     OW 1717   3.520   2.227   0.826
  422SOL    HW2 1718   3.469   2.272   0.894
  422SOL    HW3 1719   3.610   2.256   0.841
  422SOL    MW4 1720   3.525   2.237   0.837
  423SOL     OW 1721   3.147   2.407   0.698
  423SOL    HW2 1722   3.218   2.348   0.673
  423SOL    HW3 1723   3.081   2.350   0.738
  423SOL    MW4 1724   3.148   2.392   0.700
  424SOL     OW 1725   3.163   2.657   0.856
  424SOL    HW2 1726   3.167   2.577   0.804
  424SOL    HW3 1727   3.229   2.714   0.816
  424SOL    MW4 1728   3.172   2.654   0.844
  425SOL     OW 1729   3.319   2.858   0.737
  425SOL    HW2 1730   3.279   2.875   0.652
  425SOL    HW3 1731   3.397   2.806   0.717
  425SOL    MW4 1732   3.324   2.853   0.723
  426SOL     OW 1733   3.392   3.066   0.918
  426SOL    HW2 1734   3.365   3.051   1.008
  426SOL    HW3 1735   3.366   2.987   0.871
  426SOL    MW4 1736   3.385   3.054   0.924
  427SOL     OW 1737   3.204   3.202   0.783
  427SOL    HW2 1738   3.270   3.153   0.832
  427SOL    HW3 1739   3.121   3.162   0.808
  427SOL    MW4 1740   3.202   3.190   0.793
  428SOL     OW 1741   3.215   3.463   0.855
  428SOL    HW2 1742   3.221   3.375   0.817
  428SOL    HW3 1743   3.129   3.495   0.826
  428SOL    MW4 1744   3.205   3.456   0.846
  429SOL     OW 1745   3.392   3.639   0.737
  429SOL    HW2 1746   3.440   3.683   0.808
  429SOL    HW3 1747   3.327   3.585   0.782
  429SOL    MW4 1748   3.390   3.638   0.752
  430SOL     OW 1749   3.549   3.787   0.910
  430SOL    HW2 1750   3.632   3.832   0.894
  430SOL    HW3 1751   3.524   3.813   0.999
  430SOL    MW4 1752   3.557   3.796   0.920
  431SOL     OW 1753   3.128   4.043   0.764
  431SOL    HW2 1754   3.223   4.039   0.775
  431SOL    HW3 1755   3.095   3.979   0.827
  431SOL    MW4 1756   3.136   4.034   0.774
  432SOL     OW 1757   3.144   4.301   0.878
  432SOL    HW2 1758   3.227   4.329   0.840
  432SOL    HW3 1759   3.125   4.218   0.835
  432SOL    MW4 1760   3.152   4.294   0.867
  433SOL     OW 1761   3.406   4.370   0.764
  433SOL    HW2 1762   3.411   4.450   0.816
  433SOL    HW3 1763   3.410   4.400   0.673
  433SOL    MW4 1764   3.407   4.384   0.759
  434SOL     OW 1765   3.807   4.662   0.844
  434SOL    HW2 1766   3.886   4.695   0.800
  434SOL    HW3 1767   3.735   4.706   0.800
  434SOL    MW4 1768   3.808   4.672   0.832
  435SOL     OW 1769   3.584   0.117   0.740
  435SOL    HW2 1770   3.524   0.059   0.787
  435SOL    HW3 1771   3.544   0.128   0.654
  435SOL    MW4 1772   3.571   0.111   0.735
  436SOL     OW 1773   3.576   0.385   0.823
  436SOL    HW2 1774   3.582   0.387   0.918
  436SOL    HW3 1775   3.574   0.292   0.800
  436SOL    MW4 1776   3.577   0.373   0.833
  437SOL     OW 1777   3.818   0.510   0.769
  437SOL    HW2 1778   3.808   0.600   0.799
  437SOL    HW3 1779   3.735   0.468   0.790
  437SOL    MW4 1780   3.806   0.516   0.776
  438SOL     OW 1781   3.798   0.770   0.810
  438SOL    HW2 1782   3.817   0.776   0.904
  438SOL    HW3 1783   3.878   0.801   0.767
  438SOL    MW4 1784   3.811   0.775   0.817
  439SOL     OW 1785   3.596   0.923   0.734
  439SOL    HW2 1786   3.665   0.869   0.773
  439SOL    HW3 1787   3.515   0.890   0.772
  439SOL    MW4 1788   3.594   0.912   0.744
  440SOL     OW 1789   3.617   1.213   0.810
  440SOL    HW2 1790   3.588   1.207   0.901
  440SOL    HW3 1791   3.613   1.123   0.778
  440SOL    MW4 1792   3.613   1.200   0.818
  441SOL     OW 1793   3.859   1.308   0.750
  441SOL    HW2 1794   3.771   1.280   0.774
  441SOL    HW3 1795   3.858   1.309   0.654
  441SOL    MW4 1796   3.847   1.304   0.741
  442SOL     OW 1797   3.853   1.553   0.862
  442SOL    HW2 1798   3.934   1.600   0.842
  442SOL    HW3 1799   3.864   1.468   0.819
  442SOL    MW4 1800   3.865   1.548   0.854
  443SOL     OW 1801   3.655   1.655   0.704
  443SOL    HW2 1802   3.680   1.747   0.696
  443SOL    HW3 1803   3.725   1.616   0.757
  443SOL    MW4 1804   3.667   1.662   0.710
  444SOL     OW 1805   3.634   1.934   0.689
  444SOL    HW2 1806   3.695   2.007   0.702
  444SOL    HW3 1807   3.595   1.920   0.775
  444SOL    MW4 1808   3.637   1.942   0.702
  445SOL     OW 1809   3.848   2.127   0.702
  445SOL    HW2 1810   3.859   2.203   0.759
  445SOL    HW3 1811   3.914   2.064   0.732
  445SOL    MW4 1812   3.858   2.129   0.713
  446SOL     OW 1813   3.801   2.162   0.415
  446SOL    HW2 1814   3.731   2.096   0.416
  446SOL    HW3 1815   3.831   2.166   0.506
  446SOL    MW4 1816   3.796   2.154   0.427
  447SOL     OW 1817   3.792   2.367   0.847
  447SOL    HW2 1818   3.746   2.451   0.843
  447SOL    HW3 1819   3.816   2.358   0.939
  447SOL    MW4 1820   3.789   2.377   0.859
  448SOL     OW 1821   3.669   2.597   0.842
  448SOL    HW2 1822   3.637   2.627   0.927
  448SOL    HW3 1823   3.730   2.666   0.814
  448SOL    MW4 1824   3.673   2.610   0.850
  449SOL     OW 1825   3.820   2.824   0.770
  449SOL    HW2 1826   3.797   2.907   0.812
  449SOL    HW3 1827   3.796   2.837   0.678
  449SOL    MW4 1828   3.814   2.837   0.763
  450SOL     OW 1829   3.812   3.053   0.937
  450SOL    HW2 1830   3.892   3.078   0.890
  450SOL    HW3 1831   3.750   3.124   0.919
  450SOL    MW4 1832   3.814   3.066   0.928
  451SOL     OW 1833   3.623   3.205   0.808
  451SOL    HW2 1834   3.544   3.159   0.838
  451SOL    HW3 1835   3.628   3.186   0.714
  451SOL    MW4 1836   3.613   3.196   0.800
  452SOL     OW 1837   3.627   3.471   0.855
  452SOL    HW2 1838   3.623   3.378   0.834
  452SOL    HW3 1839   3.567   3.512   0.793
  452SOL    MW4 1840   3.619   3.464   0.844
  453SOL     OW 1841   3.868   3.609   0.802
  453SOL    HW2 1842   3.939   3.549   0.823
  453SOL    HW3 1843   3.789   3.565   0.832
  453SOL    MW4 1844   3.867   3.595   0.809
  454SOL     OW 1845   3.805   3.877   0.830
  454SOL    HW2 1846   3.757   3.905   0.752
  454SOL    HW3 1847   3.834   3.788   0.810
  454SOL    MW4 1848   3.802   3.869   0.817
  455SOL     OW 1849   3.417   4.027   0.778
  455SOL    HW2 1850   3.498   4.077   0.788
  455SOL    HW3 1851   3.433   3.945   0.826
  455SOL    MW4 1852   3.430   4.023   0.786
  456SOL     OW 1853   3.640   4.216   0.809
  456SOL    HW2 1854   3.713   4.275   0.790
  456SOL    HW3 1855   3.562   4.268   0.789
  456SOL    MW4 1856   3.639   4.231   0.804
  457SOL     OW 1857   3.802   4.429   0.702
  457SOL    HW2 1858   3.879   4.373   0.714
  457SOL    HW3 1859   3.817   4.502   0.762
  457SOL    MW4 1860   3.814   4.431   0.711
  458SOL     OW 1861   4.266   4.648   0.814
  458SOL    HW2 1862   4.271   4.644   0.910
  458SOL    HW3 1863   4.181   4.689   0.797
  458SOL    MW4 1864   4.255   4.653   0.824
  459SOL     OW 1865   4.034   0.098   0.732
  459SOL    HW2 1866   4.041   0.192   0.747
  459SOL    HW3 1867   4.017   0.090   0.638
  459SOL    MW4 1868   4.033   0.109   0.722
  460SOL     OW 1869   4.058   0.352   0.801
  460SOL    HW2 1870   4.131   0.400   0.761
  460SOL    HW3 1871   3.980   0.400   0.774
  460SOL    MW4 1872   4.057   0.365   0.792
  461SOL     OW 1873   4.281   0.494   0.695
  461SOL    HW2 1874   4.350   0.454   0.748
  461SOL    HW3 1875   4.317   0.496   0.606
  461SOL    MW4 1876   4.295   0.489   0.690
  462SOL     OW 1877   4.254   0.756   0.795
  462SOL    HW2 1878   4.165   0.782   0.770
  462SOL    HW3 1879   4.264   0.667   0.760
  462SOL    MW4 1880   4.244   0.748   0.787
  463SOL     OW 1881   4.018   0.849   0.705
  463SOL    HW2 1882   4.032   0.944   0.708
  463SOL    HW3 1883   4.036   0.825   0.614
  463SOL    MW4 1884   4.022   0.858   0.693
  464SOL     OW 1885   4.039   1.132   0.833
  464SOL    HW2 1886   4.046   1.130   0.928
  464SOL    HW3 1887   3.975   1.200   0.815
  464SOL    MW4 1888   4.031   1.141   0.843
  465SOL     OW 1889   4.288   1.292   0.730
  465SOL    HW2 1890   4.229   1.230   0.773
  465SOL    HW3 1891   4.376   1.258   0.749
  465SOL    MW4 1892   4.292   1.279   0.738
  466SOL     OW 1893   4.291   1.536   0.852
  466SOL    HW2 1894   4.265   1.536   0.944
  466SOL    HW3 1895   4.305   1.444   0.830
  466SOL    MW4 1896   4.289   1.524   0.861
  467SOL     OW 1897   4.080   1.688   0.764
  467SOL    HW2 1898   4.161   1.642   0.788
  467SOL    HW3 1899   4.074   1.679   0.669
  467SOL    MW4 1900   4.090   1.681   0.755
  468SOL     OW 1901   4.057   1.958   0.833
  468SOL    HW2 1902   4.066   1.863   0.821
  468SOL    HW3 1903   4.127   1.995   0.780
  468SOL    MW4 1904   4.067   1.950   0.824
  469SOL     OW 1905   4.287   2.062   0.707
  469SOL    HW2 1906   4.372   2.028   0.736
  469SOL    HW3 1907   4.306   2.110   0.626
  469SOL    MW4 1908   4.301   2.064   0.700
  470SOL     OW 1909   4.228   2.281   0.885
  470SOL    HW2 1910   4.145   2.324   0.864
  470SOL    HW3 1911   4.239   2.215   0.816
  470SOL    MW4 1912   4.219   2.278   0.873
  471SOL     OW 1913   4.033   2.445   0.759
  471SOL    HW2 1914   4.049   2.526   0.807
  471SOL    HW3 1915   3.943   2.420   0.781
  471SOL    MW4 1916   4.023   2.452   0.768
  472SOL     OW 1917   4.040   2.711   0.906
  472SOL    HW2 1918   4.120   2.740   0.862
  472SOL    HW3 1919   3.969   2.756   0.859
  472SOL    MW4 1920   4.041   2.721   0.894
  473SOL     OW 1921   4.257   2.804   0.786
  473SOL    HW2 1922   4.329   2.768   0.838
  473SOL    HW3 1923   4.279   2.782   0.696
  473SOL    MW4 1924   4.269   2.796   0.781
  474SOL     OW 1925   4.264   3.052   0.910
  474SOL    HW2 1926   4.252   2.970   0.863
  474SOL    HW3 1927   4.338   3.094   0.866
  474SOL    MW4 1928   4.272   3.047   0.898
  475SOL     OW 1929   4.034   3.162   0.804
  475SOL    HW2 1930   4.037   3.258   0.806
  475SOL    HW3 1931   4.119   3.135   0.838
  475SOL    MW4 1932   4.046   3.171   0.809
  476SOL     OW 1933   4.078   3.440   0.826
  476SOL    HW2 1934   4.087   3.422   0.920
  476SOL    HW3 1935   4.153   3.496   0.805
  476SOL    MW4 1936   4.089   3.445   0.836
  477SOL     OW 1937   4.277   3.618   0.771
  477SOL    HW2 1938   4.271   3.707   0.807
  477SOL    HW3 1939   4.304   3.631   0.680
  477SOL    MW4 1940   4.280   3.631   0.764
  478SOL     OW 1941   4.302   3.889   0.855
  478SOL    HW2 1942   4.293   3.878   0.950
  478SOL    HW3 1943   4.220   3.930   0.828
  478SOL    MW4 1944   4.290   3.893   0.864
  479SOL     OW 1945   4.069   3.994   0.746
  479SOL    HW2 1946   3.987   3.946   0.754
  479SOL    HW3 1947   4.092   3.988   0.653
  479SOL    MW4 1948   4.061   3.987   0.735
  480SOL     OW 1949   4.024   4.276   0.789
  480SOL    HW2 1950   4.114   4.302   0.769
  480SOL    HW3 1951   4.027   4.180   0.790
  480SOL    MW4 1952   4.036   4.267   0.787
  481SOL     OW 1953   4.278   4.390   0.700
  481SOL    HW2 1954   4.270   4.481   0.728
  481SOL    HW3 1955   4.338   4.350   0.764
  481SOL    MW4 1956   4.285   4.397   0.712
  482SOL     OW 1957   0.233   4.653   1.124
  482SOL    HW2 1958   0.304   4.709   1.154
  482SOL    HW3 1959   0.241   4.653   1.029
  482SOL    MW4 1960   0.243   4.660   1.115
  483SOL     OW 1961   0.001   0.077   1.231
  483SOL    HW2 1962  -0.073   0.047   1.178
  483SOL    HW3 1963   0.078   0.046   1.183
  483SOL    MW4 1964   0.001   0.069   1.218
  484SOL     OW 1965   0.044   0.322   1.129
  484SOL    HW2 1966  -0.035   0.369   1.158
  484SOL    HW3 1967   0.036   0.235   1.168
  484SOL    MW4 1968   0.033   0.317   1.138
  485SOL     OW 1969   0.241   0.507   1.206
  485SOL    HW2 1970   0.204   0.591   1.177
  485SOL    HW3 1971   0.171   0.444   1.192
  485SOL    MW4 1972   0.227   0.510   1.200
  486SOL     OW 1973   0.165   0.757   1.130
  486SOL    HW2 1974   0.233   0.817   1.163
  486SOL    HW3 1975   0.083   0.797   1.157
  486SOL    MW4 1976   0.163   0.770   1.138
  487SOL     OW 1977   4.433   0.915   1.217
  487SOL    HW2 1978   4.465   0.885   1.302
  487SOL    HW3 1979   4.362   0.855   1.195
  487SOL    MW4 1980   4.428   0.903   1.225
  488SOL     OW 1981   0.011   1.151   1.103
  488SOL    HW2 1982  -0.067   1.204   1.120
  488SOL    HW3 1983  -0.006   1.069   1.149
  488SOL    MW4 1984  -0.002   1.147   1.111
  489SOL     OW 1985   0.229   1.286   1.214
  489SOL    HW2 1986   0.305   1.231   1.195
  489SOL    HW3 1987   0.155   1.240   1.174
  489SOL    MW4 1988   0.229   1.273   1.206
  490SOL     OW 1989   0.234   1.559   1.141
  490SOL    HW2 1990   0.231   1.470   1.176
  490SOL    HW3 1991   0.238   1.547   1.046
  490SOL    MW4 1992   0.234   1.546   1.133
  491SOL     OW 1993   4.456   1.688   1.224
  491SOL    HW2 1994   4.470   1.781   1.206
  491SOL    HW3 1995   4.542   1.647   1.210
  491SOL    MW4 1996   4.469   1.695   1.220
  492SOL     OW 1997   0.009   1.948   1.126
  492SOL    HW2 1998  -0.046   2.021   1.155
  492SOL    HW3 1999   0.002   1.948   1.031
  492SOL    MW4 2000   0.001   1.958   1.117
  493SOL     OW 2001   0.239   2.044   1.218
  493SOL    HW2 2002   0.250   2.125   1.168
  493SOL    HW3 2003   0.157   2.006   1.186
  493SOL    MW4 2004   0.230   2.050   1.207
  494SOL     OW 2005   0.244   2.289   1.116
  494SOL    HW2 2006   0.318   2.343   1.144
  494SOL    HW3 2007   0.169   2.321   1.166
  494SOL    MW4 2008   0.244   2.300   1.126
  495SOL     OW 2009   0.028   2.414   1.225
  495SOL    HW2 2010   0.014   2.433   1.318
  495SOL    HW3 2011  -0.058   2.387   1.192
  495SOL    MW4 2012   0.015   2.413   1.233
  496SOL     OW 2013   4.488   2.690   1.141
  496SOL    HW2 2014   4.422   2.731   1.197
  496SOL    HW3 2015   4.506   2.606   1.183
  496SOL    MW4 2016   4.482   2.684   1.154
  497SOL     OW 2017   0.223   2.870   1.238
  497SOL    HW2 2018   0.231   2.868   1.333
  497SOL    HW3 2019   0.149   2.812   1.219
  497SOL    MW4 2020   0.214   2.862   1.248
  498SOL     OW 2021   0.228   3.111   1.133
  498SOL    HW2 2022   0.300   3.161   1.172
  498SOL    HW3 2023   0.240   3.022   1.166
  498SOL    MW4 2024   0.239   3.106   1.142
  499SOL     OW 2025   0.004   3.235   1.234
  499SOL    HW2 2026  -0.062   3.166   1.224
  499SOL    HW3 2027   0.084   3.198   1.197
  499SOL    MW4 2028   0.006   3.221   1.228
  500SOL     OW 2029   4.481   3.505   1.150
  500SOL    HW2 2030   4.491   3.419   1.191
  500SOL    HW3 2031   4.488   3.487   1.056
  500SOL    MW4 2032   4.483   3.491   1.143
  501SOL     OW 2033   0.239   3.622   1.209
  501SOL    HW2 2034   0.215   3.641   1.300
  501SOL    HW3 2035   0.162   3.580   1.172
  501SOL    MW4 2036   0.226   3.619   1.216
  502SOL     OW 2037   0.231   3.889   1.137
  502SOL    HW2 2038   0.148   3.925   1.169
  502SOL    HW3 2039   0.230   3.798   1.168
  502SOL    MW4 2040   0.220   3.882   1.145
  503SOL     OW 2041   4.485   4.021   1.209
  503SOL    HW2 2042   4.476   4.020   1.304
  503SOL    HW3 2043   4.406   3.978   1.177
  503SOL    MW4 2044   4.473   4.015   1.217
  504SOL     OW 2045   4.471   4.281   1.145
  504SOL    HW2 2046   4.544   4.326   1.188
  504SOL    HW3 2047   4.485   4.188   1.164
  504SOL    MW4 2048   4.482   4.275   1.153
  505SOL     OW 2049   0.233   4.393   1.236
  505SOL    HW2 2050   0.261   4.385   1.327
  505SOL    HW3 2051   0.252   4.484   1.213
  505SOL    MW4 2052   0.239   4.404   1.245
  506SOL     OW 2053   0.663   0.022   1.142
  506SOL    HW2 2054   0.743   0.057   1.182
  506SOL    HW3 2055   0.667  -0.072   1.160
  506SOL    MW4 2056   0.674   0.014   1.150
  507SOL     OW 2057   0.441   0.158   1.204
  507SOL    HW2 2058   0.450   0.243   1.162
  507SOL    HW3 2059   0.524   0.114   1.186
  507SOL    MW4 2060   0.453   0.163   1.196
  508SOL     OW 2061   0.467   0.420   1.098
  508SOL    HW2 2062   0.387   0.443   1.146
  508SOL    HW3 2063   0.440   0.421   1.006
  508SOL    MW4 2064   0.453   0.423   1.092
  509SOL     OW 2065   0.691   0.532   1.221
  509SOL    HW2 2066   0.680   0.627   1.214
  509SOL    HW3 2067   0.619   0.496   1.169
  509SOL    MW4 2068   0.680   0.540   1.213
  510SOL     OW 2069   0.647   0.789   1.191
  510SOL    HW2 2070   0.554   0.808   1.203
  510SOL    HW3 2071   0.658   0.782   1.096
  510SOL    MW4 2072   0.636   0.791   1.180
  511SOL     OW 2073   0.384   0.896   1.221
  511SOL    HW2 2074   0.387   0.896   1.317
  511SOL    HW3 2075   0.418   0.982   1.196
  511SOL    MW4 2076   0.389   0.907   1.230
  512SOL     OW 2077   0.464   1.135   1.126
  512SOL    HW2 2078   0.532   1.192   1.162
  512SOL    HW3 2079   0.464   1.154   1.032
  512SOL    MW4 2080   0.473   1.145   1.118
  513SOL     OW 2081   0.691   1.273   1.213
  513SOL    HW2 2082   0.747   1.207   1.173
  513SOL    HW3 2083   0.726   1.356   1.181
  513SOL    MW4 2084   0.703   1.275   1.204
  514SOL     OW 2085   0.690   1.550   1.135
  514SOL    HW2 2086   0.754   1.601   1.184
  514SOL    HW3 2087   0.607   1.594   1.152
  514SOL    MW4 2088   0.688   1.562   1.144
  515SOL     OW 2089   0.455   1.679   1.223
  515SOL    HW2 2090   0.468   1.653   1.314
  515SOL    HW3 2091   0.383   1.624   1.192
  515SOL    MW4 2092   0.447   1.668   1.231
  516SOL     OW 2093   0.490   1.945   1.131
  516SOL    HW2 2094   0.493   1.861   1.176
  516SOL    HW3 2095   0.409   1.986   1.162
  516SOL    MW4 2096   0.480   1.939   1.141
  517SOL     OW 2097   0.715   2.081   1.230
  517SOL    HW2 2098   0.689   2.064   1.320
  517SOL    HW3 2099   0.655   2.029   1.177
  517SOL    MW4 2100   0.704   2.072   1.235
  518SOL     OW 2101   0.674   2.349   1.118
  518SOL    HW2 2102   0.591   2.391   1.141
  518SOL    HW3 2103   0.674   2.267   1.168
  518SOL    MW4 2104   0.663   2.344   1.128
  519SOL     OW 2105   0.437   2.440   1.225
  519SOL    HW2 2106   0.428   2.444   1.320
  519SOL    HW3 2107   0.440   2.532   1.198
  519SOL    MW4 2108   0.436   2.453   1.234
  520SOL     OW 2109   0.458   2.707   1.157
  520SOL    HW2 2110   0.384   2.750   1.200
  520SOL    HW3 2111   0.449   2.729   1.064
  520SOL    MW4 2112   0.447   2.716   1.150
  521SOL     OW 2113   0.660   2.844   1.275
  521SOL    HW2 2114   0.651   2.926   1.227
  521SOL    HW3 2115   0.597   2.785   1.234
  521SOL    MW4 2116   0.650   2.847   1.263
  522SOL     OW 2117   0.674   3.084   1.151
  522SOL    HW2 2118   0.752   3.124   1.190
  522SOL    HW3 2119   0.685   3.096   1.057
  522SOL    MW4 2120   0.686   3.091   1.144
  523SOL     OW 2121   0.440   3.204   1.272
  523SOL    HW2 2122   0.445   3.293   1.236
  523SOL    HW3 2123   0.516   3.159   1.235
  523SOL    MW4 2124   0.451   3.210   1.262
  524SOL     OW 2125   0.459   3.449   1.168
  524SOL    HW2 2126   0.537   3.491   1.205
  524SOL    HW3 2127   0.387   3.506   1.193
  524SOL    MW4 2128   0.460   3.462   1.176
  525SOL     OW 2129   0.677   3.608   1.246
  525SOL    HW2 2130   0.677   3.611   1.342
  525SOL    HW3 2131   0.671   3.700   1.219
  525SOL    MW4 2132   0.676   3.621   1.255
  526SOL     OW 2133   0.673   3.867   1.132
  526SOL    HW2 2134   0.598   3.908   1.175
  526SOL    HW3 2135   0.652   3.870   1.039
  526SOL    MW4 2136   0.660   3.873   1.125
  527SOL     OW 2137   0.472   4.011   1.249
  527SOL    HW2 2138   0.460   4.100   1.216
  527SOL    HW3 2139   0.395   3.964   1.217
  527SOL    MW4 2140   0.460   4.017   1.240
  528SOL     OW 2141   0.441   4.266   1.102
  528SOL    HW2 2142   0.518   4.314   1.132
  528SOL    HW3 2143   0.367   4.310   1.144
  528SOL    MW4 2144   0.441   4.278   1.112
  529SOL     OW 2145   0.665   4.418   1.185
  529SOL    HW2 2146   0.690   4.423   1.277
  529SOL    HW3 2147   0.741   4.381   1.141
  529SOL    MW4 2148   0.678   4.414   1.191
  530SOL     OW 2149   1.140   0.038   1.126
  530SOL    HW2 2150   1.130  -0.055   1.144
  530SOL    HW3 2151   1.153   0.042   1.031
  530SOL    MW4 2152   1.140   0.026   1.116
  531SOL     OW 2153   0.912   0.141   1.228
  531SOL    HW2 2154   0.912   0.126   1.323
  531SOL    HW3 2155   0.989   0.093   1.196
  531SOL    MW4 2156   0.922   0.133   1.236
  532SOL     OW 2157   0.915   0.403   1.109
  532SOL    HW2 2158   0.915   0.318   1.153
  532SOL    HW3 2159   0.831   0.442   1.133
  532SOL    MW4 2160   0.904   0.397   1.118
  533SOL     OW 2161   1.133   0.533   1.195
  533SOL    HW2 2162   1.129   0.529   1.291
  533SOL    HW3 2163   1.055   0.487   1.166
  533SOL    MW4 2164   1.122   0.526   1.204
  534SOL     OW 2165   1.093   0.811   1.108
  534SOL    HW2 2166   1.013   0.836   1.154
  534SOL    HW3 2167   1.117   0.727   1.147
  534SOL    MW4 2168   1.086   0.803   1.119
  535SOL     OW 2169   0.879   0.914   1.257
  535SOL    HW2 2170   0.886   0.981   1.189
  535SOL    HW3 2171   0.799   0.865   1.235
  535SOL    MW4 2172   0.869   0.916   1.245
  536SOL     OW 2173   0.894   1.118   1.082
  536SOL    HW2 2174   0.969   1.166   1.118
  536SOL    HW3 2175   0.912   1.112   0.988
  536SOL    MW4 2176   0.906   1.124   1.074
  537SOL     OW 2177   1.111   1.287   1.208
  537SOL    HW2 2178   1.116   1.281   1.303
  537SOL    HW3 2179   1.192   1.247   1.177
  537SOL    MW4 2180   1.122   1.281   1.217
  538SOL     OW 2181   1.121   1.552   1.111
  538SOL    HW2 2182   1.112   1.462   1.143
  538SOL    HW3 2183   1.156   1.542   1.022
  538SOL    MW4 2184   1.124   1.539   1.104
  539SOL     OW 2185   0.925   1.673   1.261
  539SOL    HW2 2186   0.927   1.764   1.232
  539SOL    HW3 2187   1.000   1.632   1.218
  539SOL    MW4 2188   0.935   1.680   1.251
  540SOL     OW 2189   0.940   1.938   1.165
  540SOL    HW2 2190   1.027   1.972   1.186
  540SOL    HW3 2191   0.880   2.005   1.199
  540SOL    MW4 2192   0.944   1.951   1.172
  541SOL     OW 2193   1.167   2.083   1.219
  541SOL    HW2 2194   1.168   2.084   1.315
  541SOL    HW3 2195   1.145   2.173   1.194
  541SOL    MW4 2196   1.164   2.095   1.228
  542SOL     OW 2197   1.086   2.332   1.094
  542SOL    HW2 2198   1.161   2.389   1.108
  542SOL    HW3 2199   1.017   2.369   1.149
  542SOL    MW4 2200   1.087   2.344   1.103
  543SOL     OW 2201   0.904   2.408   1.282
  543SOL    HW2 2202   0.892   2.399   1.377
  543SOL    HW3 2203   0.818   2.390   1.245
  543SOL    MW4 2204   0.891   2.404   1.290
  544SOL     OW 2205   0.894   2.694   1.182
  544SOL    HW2 2206   0.902   2.611   1.228
  544SOL    HW3 2207   0.823   2.740   1.227
  544SOL    MW4 2208   0.886   2.689   1.194
  545SOL     OW 2209   1.106   2.848   1.243
  545SOL    HW2 2210   1.101   2.869   1.336
  545SOL    HW3 2211   1.034   2.787   1.228
  545SOL    MW4 2212   1.096   2.843   1.253
  546SOL     OW 2213   1.145   3.118   1.171
  546SOL    HW2 2214   1.147   3.025   1.192
  546SOL    HW3 2215   1.124   3.121   1.078
  546SOL    MW4 2216   1.142   3.106   1.161
  547SOL     OW 2217   0.898   3.203   1.277
  547SOL    HW2 2218   0.907   3.291   1.240
  547SOL    HW3 2219   0.972   3.154   1.240
  547SOL    MW4 2220   0.909   3.208   1.267
  548SOL     OW 2221   0.885   3.457   1.161
  548SOL    HW2 2222   0.801   3.492   1.190
  548SOL    HW3 2223   0.879   3.454   1.066
  548SOL    MW4 2224   0.873   3.461   1.152
  549SOL     OW 2225   1.100   3.618   1.235
  549SOL    HW2 2226   1.179   3.568   1.215
  549SOL    HW3 2227   1.028   3.563   1.202
  549SOL    MW4 2228   1.101   3.604   1.228
  550SOL     OW 2229   1.106   3.884   1.147
  550SOL    HW2 2230   1.033   3.926   1.193
  550SOL    HW3 2231   1.102   3.793   1.175
  550SOL    MW4 2232   1.096   3.878   1.157
  551SOL     OW 2233   0.891   4.011   1.241
  551SOL    HW2 2234   0.884   4.022   1.336
  551SOL    HW3 2235   0.808   3.972   1.215
  551SOL    MW4 2236   0.879   4.007   1.250
  552SOL     OW 2237   0.904   4.278   1.113
  552SOL    HW2 2238   0.915   4.187   1.141
  552SOL    HW3 2239   0.889   4.272   1.019
  552SOL    MW4 2240   0.903   4.265   1.104
  553SOL     OW 2241   1.137   4.429   1.179
  553SOL    HW2 2242   1.147   4.423   1.274
  553SOL    HW3 2243   1.060   4.376   1.160
  553SOL    MW4 2244   1.128   4.421   1.189
  554SOL     OW 2245   1.558   4.646   1.073
  554SOL    HW2 2246   1.631   4.686   1.119
  554SOL    HW3 2247   1.537   4.568   1.125
  554SOL    MW4 2248   1.565   4.641   1.086
  555SOL     OW 2249   1.377   0.129   1.238
  555SOL    HW2 2250   1.438   0.085   1.180
  555SOL    HW3 2251   1.291   0.109   1.202
  555SOL    MW4 2252   1.374   0.121   1.226
  556SOL     OW 2253   1.370   0.398   1.134
  556SOL    HW2 2254   1.366   0.312   1.176
  556SOL    HW3 2255   1.285   0.437   1.153
  556SOL    MW4 2256   1.358   0.392   1.142
  557SOL     OW 2257   1.605   0.512   1.230
  557SOL    HW2 2258   1.581   0.591   1.182
  557SOL    HW3 2259   1.531   0.453   1.218
  557SOL    MW4 2260   1.592   0.515   1.222
  558SOL     OW 2261   1.532   0.764   1.133
  558SOL    HW2 2262   1.607   0.806   1.176
  558SOL    HW3 2263   1.550   0.771   1.039
  558SOL    MW4 2264   1.544   0.770   1.126
  559SOL     OW 2265   1.304   0.926   1.259
  559SOL    HW2 2266   1.372   0.868   1.226
  559SOL    HW3 2267   1.223   0.893   1.219
  559SOL    MW4 2268   1.302   0.914   1.249
  560SOL     OW 2269   1.355   1.170   1.156
  560SOL    HW2 2270   1.359   1.087   1.204
  560SOL    HW3 2271   1.351   1.145   1.064
  560SOL    MW4 2272   1.355   1.156   1.150
  561SOL     OW 2273   1.582   1.315   1.218
  561SOL    HW2 2274   1.658   1.257   1.207
  561SOL    HW3 2275   1.507   1.260   1.196
  561SOL    MW4 2276   1.582   1.300   1.214
  562SOL     OW 2277   1.553   1.579   1.118
  562SOL    HW2 2278   1.617   1.618   1.178
  562SOL    HW3 2279   1.554   1.486   1.139
  562SOL    MW4 2280   1.562   1.572   1.129
  563SOL     OW 2281   1.333   1.728   1.186
  563SOL    HW2 2282   1.402   1.668   1.159
  563SOL    HW3 2283   1.252   1.679   1.173
  563SOL    MW4 2284   1.331   1.714   1.181
  564SOL     OW 2285   1.364   1.991   1.060
  564SOL    HW2 2286   1.365   1.902   1.095
  564SOL    HW3 2287   1.295   2.035   1.109
  564SOL    MW4 2288   1.355   1.985   1.071
  565SOL     OW 2289   1.542   2.111   1.233
  565SOL    HW2 2290   1.557   2.196   1.192
  565SOL    HW3 2291   1.472   2.072   1.181
  565SOL    MW4 2292   1.535   2.117   1.221
  566SOL     OW 2293   1.566   2.375   1.132
  566SOL    HW2 2294   1.477   2.404   1.152
  566SOL    HW3 2295   1.568   2.366   1.037
  566SOL    MW4 2296   1.554   2.378   1.122
  567SOL     OW 2297   1.295   2.473   1.207
  567SOL    HW2 2298   1.312   2.469   1.301
  567SOL    HW3 2299   1.304   2.565   1.184
  567SOL    MW4 2300   1.298   2.485   1.216
  568SOL     OW 2301   1.332   2.754   1.120
  568SOL    HW2 2302   1.414   2.794   1.149
  568SOL    HW3 2303   1.265   2.797   1.174
  568SOL    MW4 2304   1.334   2.765   1.131
  569SOL     OW 2305   1.568   2.850   1.236
  569SOL    HW2 2306   1.647   2.803   1.208
  569SOL    HW3 2307   1.582   2.940   1.207
  569SOL    MW4 2308   1.580   2.856   1.228
  570SOL     OW 2309   1.602   3.114   1.146
  570SOL    HW2 2310   1.674   3.160   1.189
  570SOL    HW3 2311   1.523   3.159   1.176
  570SOL    MW4 2312   1.601   3.126   1.156
  571SOL     OW 2313   1.387   3.247   1.233
  571SOL    HW2 2314   1.368   3.273   1.323
  571SOL    HW3 2315   1.307   3.205   1.202
  571SOL    MW4 2316   1.374   3.245   1.241
  572SOL     OW 2317   1.329   3.497   1.140
  572SOL    HW2 2318   1.338   3.408   1.174
  572SOL    HW3 2319   1.341   3.488   1.046
  572SOL    MW4 2320   1.332   3.484   1.132
  573SOL     OW 2321   1.564   3.605   1.237
  573SOL    HW2 2322   1.575   3.699   1.221
  573SOL    HW3 2323   1.475   3.586   1.207
  573SOL    MW4 2324   1.554   3.615   1.231
  574SOL     OW 2325   1.550   3.864   1.144
  574SOL    HW2 2326   1.471   3.915   1.162
  574SOL    HW3 2327   1.555   3.860   1.048
  574SOL    MW4 2328   1.540   3.870   1.134
  575SOL     OW 2329   1.333   4.024   1.209
  575SOL    HW2 2330   1.340   4.103   1.155
  575SOL    HW3 2331   1.254   3.980   1.177
  575SOL    MW4 2332   1.324   4.029   1.198
  576SOL     OW 2333   1.354   4.281   1.097
  576SOL    HW2 2334   1.277   4.329   1.129
  576SOL    HW3 2335   1.352   4.293   1.002
  576SOL    MW4 2336   1.344   4.289   1.089
  577SOL     OW 2337   1.571   4.414   1.212
  577SOL    HW2 2338   1.561   4.422   1.307
  577SOL    HW3 2339   1.488   4.376   1.183
  577SOL    MW4 2340   1.559   4.410   1.221
  578SOL     OW 2341   1.998   4.661   1.165
  578SOL    HW2 2342   2.025   4.574   1.194
  578SOL    HW3 2343   1.992   4.654   1.070
  578SOL    MW4 2344   2.001   4.649   1.156
  579SOL     OW 2345   1.756   0.122   1.212
  579SOL    HW2 2346   1.764   0.204   1.164
  579SOL    HW3 2347   1.839   0.077   1.196
  579SOL    MW4 2348   1.768   0.127   1.204
  580SOL     OW 2349   1.816   0.380   1.105
  580SOL    HW2 2350   1.751   0.449   1.120
  580SOL    HW3 2351   1.825   0.375   1.010
  580SOL    MW4 2352   1.809   0.388   1.094
  581SOL     OW 2353   2.038   0.521   1.206
  581SOL    HW2 2354   2.034   0.530   1.301
  581SOL    HW3 2355   1.966   0.462   1.184
  581SOL    MW4 2356   2.028   0.514   1.216
  582SOL     OW 2357   1.997   0.770   1.107
  582SOL    HW2 2358   2.001   0.678   1.134
  582SOL    HW3 2359   1.985   0.766   1.012
  582SOL    MW4 2360   1.996   0.757   1.098
  583SOL     OW 2361   1.774   0.885   1.228
  583SOL    HW2 2362   1.785   0.895   1.323
  583SOL    HW3 2363   1.850   0.833   1.201
  583SOL    MW4 2364   1.785   0.879   1.237
  584SOL     OW 2365   1.800   1.141   1.166
  584SOL    HW2 2366   1.806   1.048   1.188
  584SOL    HW3 2367   1.793   1.143   1.071
  584SOL    MW4 2368   1.800   1.129   1.156
  585SOL     OW 2369   2.011   1.292   1.253
  585SOL    HW2 2370   2.092   1.254   1.218
  585SOL    HW3 2371   1.941   1.241   1.213
  585SOL    MW4 2372   2.012   1.280   1.243
  586SOL     OW 2373   1.970   1.564   1.212
  586SOL    HW2 2374   1.991   1.477   1.247
  586SOL    HW3 2375   1.962   1.550   1.118
  586SOL    MW4 2376   1.972   1.551   1.204
  587SOL     OW 2377   1.747   1.699   1.265
  587SOL    HW2 2378   1.761   1.783   1.222
  587SOL    HW3 2379   1.828   1.650   1.248
  587SOL    MW4 2380   1.759   1.704   1.257
  588SOL     OW 2381   1.763   1.956   1.144
  588SOL    HW2 2382   1.685   2.011   1.152
  588SOL    HW3 2383   1.771   1.940   1.050
  588SOL    MW4 2384   1.754   1.961   1.133
  589SOL     OW 2385   1.999   2.099   1.213
  589SOL    HW2 2386   2.017   2.068   1.302
  589SOL    HW3 2387   1.917   2.056   1.189
  589SOL    MW4 2388   1.991   2.089   1.222
  590SOL     OW 2389   2.013   2.358   1.125
  590SOL    HW2 2390   2.097   2.394   1.153
  590SOL    HW3 2391   2.014   2.268   1.159
  590SOL    MW4 2392   2.024   2.351   1.133
  591SOL     OW 2393   1.782   2.475   1.257
  591SOL    HW2 2394   1.856   2.436   1.210
  591SOL    HW3 2395   1.705   2.443   1.210
  591SOL    MW4 2396   1.782   2.466   1.245
  592SOL     OW 2397   1.822   2.727   1.193
  592SOL    HW2 2398   1.809   2.638   1.226
  592SOL    HW3 2399   1.823   2.718   1.098
  592SOL    MW4 2400   1.820   2.714   1.185
  593SOL     OW 2401   2.042   2.858   1.291
  593SOL    HW2 2402   2.049   2.946   1.255
  593SOL    HW3 2403   1.965   2.821   1.249
  593SOL    MW4 2404   2.033   2.865   1.281
  594SOL     OW 2405   2.038   3.142   1.167
  594SOL    HW2 2406   1.968   3.186   1.215
  594SOL    HW3 2407   2.007   3.140   1.077
  594SOL    MW4 2408   2.025   3.148   1.161
  595SOL     OW 2409   1.810   3.249   1.261
  595SOL    HW2 2410   1.812   3.253   1.357
  595SOL    HW3 2411   1.804   3.341   1.234
  595SOL    MW4 2412   1.809   3.262   1.270
  596SOL     OW 2413   1.827   3.514   1.140
  596SOL    HW2 2414   1.892   3.560   1.193
  596SOL    HW3 2415   1.743   3.548   1.171
  596SOL    MW4 2416   1.825   3.525   1.151
  597SOL     OW 2417   2.034   3.651   1.250
  597SOL    HW2 2418   2.025   3.639   1.344
  597SOL    HW3 2419   2.118   3.610   1.228
  597SOL    MW4 2420   2.044   3.644   1.260
  598SOL     OW 2421   2.038   3.913   1.139
  598SOL    HW2 2422   1.947   3.931   1.163
  598SOL    HW3 2423   2.058   3.829   1.180
  598SOL    MW4 2424   2.029   3.904   1.148
  599SOL     OW 2425   1.781   3.988   1.198
  599SOL    HW2 2426   1.770   4.009   1.291
  599SOL    HW3 2427   1.697   3.950   1.172
  599SOL    MW4 2428   1.768   3.986   1.207
  600SOL     OW 2429   1.780   4.276   1.120
  600SOL    HW2 2430   1.780   4.191   1.164
  600SOL    HW3 2431   1.708   4.325   1.160
  600SOL    MW4 2432   1.770   4.271   1.131
  601SOL     OW 2433   2.027   4.378   1.216
  601SOL    HW2 2434   2.018   4.366   1.311
  601SOL    HW3 2435   1.952   4.331   1.179
  601SOL    MW4 2436   2.016   4.370   1.224
  602SOL     OW 2437   2.486   0.030   1.132
  602SOL    HW2 2438   2.562   0.071   1.174
  602SOL    HW3 2439   2.411   0.075   1.170
  602SOL    MW4 2440   2.486   0.041   1.143
  603SOL     OW 2441   2.228   0.133   1.218
  603SOL    HW2 2442   2.228   0.222   1.183
  603SOL    HW3 2443   2.141   0.099   1.197
  603SOL    MW4 2444   2.217   0.140   1.211
  604SOL     OW 2445   2.269   0.401   1.115
  604SOL    HW2 2446   2.193   0.451   1.145
  604SOL    HW3 2447   2.272   0.416   1.020
  604SOL    MW4 2448   2.259   0.410   1.106
  605SOL     OW 2449   2.497   0.531   1.218
  605SOL    HW2 2450   2.491   0.523   1.313
  605SOL    HW3 2451   2.419   0.486   1.185
  605SOL    MW4 2452   2.486   0.524   1.226
  606SOL     OW 2453   2.439   0.805   1.154
  606SOL    HW2 2454   2.449   0.712   1.175
  606SOL    HW3 2455   2.433   0.807   1.058
  606SOL    MW4 2456   2.440   0.793   1.144
  607SOL     OW 2457   2.202   0.911   1.260
  607SOL    HW2 2458   2.285   0.866   1.242
  607SOL    HW3 2459   2.138   0.865   1.205
  607SOL    MW4 2460   2.204   0.899   1.250
  608SOL     OW 2461   2.239   1.173   1.142
  608SOL    HW2 2462   2.322   1.205   1.177
  608SOL    HW3 2463   2.230   1.085   1.177
  608SOL    MW4 2464   2.249   1.166   1.151
  609SOL     OW 2465   2.460   1.265   1.239
  609SOL    HW2 2466   2.536   1.221   1.202
  609SOL    HW3 2467   2.472   1.357   1.216
  609SOL    MW4 2468   2.472   1.271   1.231
  610SOL     OW 2469   2.445   1.529   1.138
  610SOL    HW2 2470   2.371   1.563   1.188
  610SOL    HW3 2471   2.419   1.539   1.046
  610SOL    MW4 2472   2.432   1.535   1.132
  611SOL     OW 2473   2.226   1.678   1.220
  611SOL    HW2 2474   2.216   1.766   1.184
  611SOL    HW3 2475   2.139   1.638   1.210
  611SOL    MW4 2476   2.213   1.684   1.214
  612SOL     OW 2477   2.204   1.937   1.137
  612SOL    HW2 2478   2.146   2.012   1.150
  612SOL    HW3 2479   2.212   1.929   1.042
  612SOL    MW4 2480   2.197   1.946   1.126
  613SOL     OW 2481   2.457   2.030   1.229
  613SOL    HW2 2482   2.518   1.967   1.190
  613SOL    HW3 2483   2.371   2.004   1.195
  613SOL    MW4 2484   2.454   2.018   1.219
  614SOL     OW 2485   2.432   2.287   1.159
  614SOL    HW2 2486   2.441   2.195   1.184
  614SOL    HW3 2487   2.458   2.289   1.067
  614SOL    MW4 2488   2.437   2.275   1.150
  615SOL     OW 2489   2.270   2.484   1.236
  615SOL    HW2 2490   2.259   2.476   1.331
  615SOL    HW3 2491   2.337   2.419   1.215
  615SOL    MW4 2492   2.277   2.474   1.246
  616SOL     OW 2493   2.248   2.745   1.135
  616SOL    HW2 2494   2.274   2.662   1.176
  616SOL    HW3 2495   2.179   2.780   1.192
  616SOL    MW4 2496   2.242   2.739   1.148
  617SOL     OW 2497   2.482   2.855   1.277
  617SOL    HW2 2498   2.473   2.855   1.372
  617SOL    HW3 2499   2.410   2.800   1.246
  617SOL    MW4 2500   2.471   2.848   1.285
  618SOL     OW 2501   2.441   3.096   1.142
  618SOL    HW2 2502   2.371   3.148   1.183
  618SOL    HW3 2503   2.441   3.014   1.191
  618SOL    MW4 2504   2.432   3.092   1.154
  619SOL     OW 2505   2.262   3.273   1.243
  619SOL    HW2 2506   2.263   3.366   1.222
  619SOL    HW3 2507   2.175   3.244   1.216
  619SOL    MW4 2508   2.251   3.282   1.237
  620SOL     OW 2509   2.275   3.564   1.154
  620SOL    HW2 2510   2.368   3.585   1.155
  620SOL    HW3 2511   2.256   3.543   1.062
  620SOL    MW4 2512   2.285   3.564   1.142
  621SOL     OW 2513   2.535   3.640   1.224
  621SOL    HW2 2514   2.533   3.637   1.320
  621SOL    HW3 2515   2.534   3.733   1.203
  621SOL    MW4 2516   2.535   3.652   1.234
  622SOL     OW 2517   2.478   3.908   1.160
  622SOL    HW2 2518   2.397   3.954   1.181
  622SOL    HW3 2519   2.484   3.913   1.065
  622SOL    MW4 2520   2.468   3.915   1.150
  623SOL     OW 2521   2.257   4.043   1.259
  623SOL    HW2 2522   2.277   4.128   1.221
  623SOL    HW3 2523   2.177   4.015   1.214
  623SOL    MW4 2524   2.249   4.051   1.248
  624SOL     OW 2525   2.290   4.286   1.139
  624SOL    HW2 2526   2.205   4.327   1.154
  624SOL    HW3 2527   2.292   4.268   1.045
  624SOL    MW4 2528   2.279   4.289   1.129
  625SOL     OW 2529   2.495   4.431   1.235
  625SOL    HW2 2530   2.418   4.380   1.210
  625SOL    HW3 2531   2.481   4.517   1.196
  625SOL    MW4 2532   2.483   4.436   1.227
  626SOL     OW 2533   2.955   0.004   1.112
  626SOL    HW2 2534   2.935  -0.088   1.128
  626SOL    HW3 2535   2.913   0.024   1.028
  626SOL    MW4 2536   2.947  -0.006   1.103
  627SOL     OW 2537   2.732   0.149   1.222
  627SOL    HW2 2538   2.713   0.140   1.315
  627SOL    HW3 2539   2.815   0.104   1.210
  627SOL    MW4 2540   2.740   0.142   1.233
  628SOL     OW 2541   2.702   0.383   1.092
  628SOL    HW2 2542   2.691   0.301   1.140
  628SOL    HW3 2543   2.635   0.441   1.128
  628SOL    MW4 2544   2.692   0.380   1.103
  629SOL     OW 2545   2.923   0.452   1.253
  629SOL    HW2 2546   2.908   0.545   1.239
  629SOL    HW3 2547   2.848   0.409   1.212
  629SOL    MW4 2548   2.911   0.459   1.246
  630SOL     OW 2549   2.879   0.709   1.193
  630SOL    HW2 2550   2.958   0.761   1.208
  630SOL    HW3 2551   2.807   0.767   1.217
  630SOL    MW4 2552   2.880   0.724   1.198
  631SOL     OW 2553   2.682   0.893   1.258
  631SOL    HW2 2554   2.692   0.986   1.237
  631SOL    HW3 2555   2.609   0.863   1.203
  631SOL    MW4 2556   2.674   0.901   1.248
  632SOL     OW 2557   2.686   1.161   1.114
  632SOL    HW2 2558   2.774   1.187   1.141
  632SOL    HW3 2559   2.689   1.164   1.018
  632SOL    MW4 2560   2.698   1.165   1.105
  633SOL     OW 2561   2.932   1.267   1.186
  633SOL    HW2 2562   2.915   1.271   1.280
  633SOL    HW3 2563   2.938   1.359   1.159
  633SOL    MW4 2564   2.931   1.280   1.195
  634SOL     OW 2565   2.937   1.528   1.088
  634SOL    HW2 2566   2.993   1.597   1.123
  634SOL    HW3 2567   2.922   1.552   0.997
  634SOL    MW4 2568   2.942   1.540   1.080
  635SOL     OW 2569   2.708   1.604   1.245
  635SOL    HW2 2570   2.773   1.561   1.189
  635SOL    HW3 2571   2.624   1.578   1.207
  635SOL    MW4 2572   2.705   1.595   1.233
  636SOL     OW 2573   2.674   1.854   1.129
  636SOL    HW2 2574   2.756   1.901   1.146
  636SOL    HW3 2575   2.690   1.766   1.163
  636SOL    MW4 2576   2.687   1.849   1.136
  637SOL     OW 2577   2.924   1.991   1.189
  637SOL    HW2 2578   2.960   1.998   1.278
  637SOL    HW3 2579   2.930   2.080   1.153
  637SOL    MW4 2580   2.929   2.004   1.196
  638SOL     OW 2581   2.914   2.289   1.119
  638SOL    HW2 2582   2.979   2.328   1.177
  638SOL    HW3 2583   2.831   2.328   1.147
  638SOL    MW4 2584   2.912   2.299   1.130
  639SOL     OW 2585   2.664   2.440   1.232
  639SOL    HW2 2586   2.676   2.432   1.327
  639SOL    HW3 2587   2.581   2.397   1.214
  639SOL    MW4 2588   2.655   2.433   1.242
  640SOL     OW 2589   2.688   2.689   1.137
  640SOL    HW2 2590   2.673   2.605   1.181
  640SOL    HW3 2591   2.635   2.751   1.187
  640SOL    MW4 2592   2.679   2.686   1.149
  641SOL     OW 2593   2.911   2.844   1.202
  641SOL    HW2 2594   2.927   2.844   1.296
  641SOL    HW3 2595   2.833   2.790   1.191
  641SOL    MW4 2596   2.903   2.837   1.213
  642SOL     OW 2597   2.925   3.103   1.127
  642SOL    HW2 2598   2.923   3.012   1.156
  642SOL    HW3 2599   2.945   3.098   1.033
  642SOL    MW4 2600   2.927   3.090   1.118
  643SOL     OW 2601   2.693   3.213   1.248
  643SOL    HW2 2602   2.772   3.164   1.224
  643SOL    HW3 2603   2.623   3.173   1.195
  643SOL    MW4 2604   2.694   3.201   1.238
  644SOL     OW 2605   2.720   3.469   1.145
  644SOL    HW2 2606   2.700   3.385   1.187
  644SOL    HW3 2607   2.658   3.530   1.185
  644SOL    MW4 2608   2.709   3.466   1.156
  645SOL     OW 2609   2.948   3.562   1.267
  645SOL    HW2 2610   3.029   3.522   1.237
  645SOL    HW3 2611   2.879   3.514   1.222
  645SOL    MW4 2612   2.950   3.550   1.257
  646SOL     OW 2613   2.904   3.825   1.165
  646SOL    HW2 2614   2.983   3.872   1.190
  646SOL    HW3 2615   2.919   3.735   1.194
  646SOL    MW4 2616   2.916   3.819   1.172
  647SOL     OW 2617   2.716   4.048   1.211
  647SOL    HW2 2618   2.779   3.987   1.173
  647SOL    HW3 2619   2.634   3.999   1.214
  647SOL    MW4 2620   2.713   4.034   1.206
  648SOL     OW 2621   2.685   4.308   1.086
  648SOL    HW2 2622   2.694   4.218   1.117
  648SOL    HW3 2623   2.620   4.348   1.144
  648SOL    MW4 2624   2.678   4.301   1.098
  649SOL     OW 2625   2.923   4.417   1.203
  649SOL    HW2 2626   2.987   4.346   1.193
  649SOL    HW3 2627   2.839   4.376   1.181
  649SOL    MW4 2628   2.920   4.402   1.199
  650SOL     OW 2629   3.439   4.650   1.141
  650SOL    HW2 2630   3.517   4.692   1.176
  650SOL    HW3 2631   3.366   4.703   1.174
  650SOL    MW4 2632   3.440   4.663   1.150
  651SOL     OW 2633   3.211   0.117   1.217
  651SOL    HW2 2634   3.192   0.122   1.311
  651SOL    HW3 2635   3.138   0.067   1.180
  651SOL    MW4 2636   3.199   0.111   1.225
  652SOL     OW 2637   3.138   0.362   1.122
  652SOL    HW2 2638   3.147   0.269   1.142
  652SOL    HW3 2639   3.068   0.392   1.180
  652SOL    MW4 2640   3.130   0.354   1.132
  653SOL     OW 2641   3.404   0.499   1.229
  653SOL    HW2 2642   3.390   0.588   1.196
  653SOL    HW3 2643   3.328   0.450   1.197
  653SOL    MW4 2644   3.392   0.504   1.220
  654SOL     OW 2645   3.334   0.758   1.138
  654SOL    HW2 2646   3.249   0.794   1.165
  654SOL    HW3 2647   3.337   0.773   1.043
  654SOL    MW4 2648   3.323   0.765   1.129
  655SOL     OW 2649   3.099   0.865   1.211
  655SOL    HW2 2650   3.121   0.892   1.300
  655SOL    HW3 2651   3.111   0.944   1.159
  655SOL    MW4 2652   3.103   0.879   1.216
  656SOL     OW 2653   3.139   1.127   1.088
  656SOL    HW2 2654   3.221   1.163   1.122
  656SOL    HW3 2655   3.070   1.175   1.134
  656SOL    MW4 2656   3.141   1.138   1.099
  657SOL     OW 2657   3.336   1.290   1.209
  657SOL    HW2 2658   3.342   1.303   1.304
  657SOL    HW3 2659   3.333   1.379   1.173
  657SOL    MW4 2660   3.336   1.303   1.217
  658SOL     OW 2661   3.366   1.536   1.078
  658SOL    HW2 2662   3.448   1.570   1.114
  658SOL    HW3 2663   3.298   1.586   1.124
  658SOL    MW4 2664   3.368   1.547   1.089
  659SOL     OW 2665   3.144   1.667   1.178
  659SOL    HW2 2666   3.138   1.671   1.273
  659SOL    HW3 2667   3.155   1.758   1.151
  659SOL    MW4 2668   3.145   1.680   1.187
  660SOL     OW 2669   3.163   1.912   1.090
  660SOL    HW2 2670   3.225   1.961   1.144
  660SOL    HW3 2671   3.077   1.939   1.122
  660SOL    MW4 2672   3.160   1.922   1.101
  661SOL     OW 2673   3.338   2.034   1.248
  661SOL    HW2 2674   3.413   1.976   1.235
  661SOL    HW3 2675   3.364   2.116   1.205
  661SOL    MW4 2676   3.351   2.037   1.241
  662SOL     OW 2677   3.356   2.267   1.080
  662SOL    HW2 2678   3.422   2.311   1.133
  662SOL    HW3 2679   3.273   2.309   1.105
  662SOL    MW4 2680   3.354   2.278   1.090
  663SOL     OW 2681   3.130   2.381   1.240
  663SOL    HW2 2682   3.133   2.388   1.335
  663SOL    HW3 2683   3.145   2.470   1.209
  663SOL    MW4 2684   3.132   2.394   1.248
  664SOL     OW 2685   3.107   2.660   1.132
  664SOL    HW2 2686   3.031   2.718   1.139
  664SOL    HW3 2687   3.118   2.647   1.038
  664SOL    MW4 2688   3.098   2.666   1.120
  665SOL     OW 2689   3.367   2.750   1.236
  665SOL    HW2 2690   3.376   2.841   1.207
  665SOL    HW3 2691   3.283   2.722   1.201
  665SOL    MW4 2692   3.357   2.758   1.228
  666SOL     OW 2693   3.362   3.038   1.189
  666SOL    HW2 2694   3.444   3.085   1.204
  666SOL    HW3 2695   3.294   3.098   1.220
  666SOL    MW4 2696   3.364   3.052   1.195
  667SOL     OW 2697   3.153   3.215   1.238
  667SOL    HW2 2698   3.155   3.307   1.210
  667SOL    HW3 2699   3.071   3.181   1.203
  667SOL    MW4 2700   3.142   3.223   1.230
  668SOL     OW 2701   3.181   3.466   1.149
  668SOL    HW2 2702   3.245   3.533   1.173
  668SOL    HW3 2703   3.190   3.458   1.054
  668SOL    MW4 2704   3.191   3.474   1.140
  669SOL     OW 2705   3.380   3.636   1.228
  669SOL    HW2 2706   3.386   3.629   1.323
  669SOL    HW3 2707   3.449   3.579   1.195
  669SOL    MW4 2708   3.390   3.628   1.236
  670SOL     OW 2709   3.368   3.890   1.136
  670SOL    HW2 2710   3.279   3.924   1.140
  670SOL    HW3 2711   3.362   3.803   1.177
  670SOL    MW4 2712   3.355   3.883   1.142
  671SOL     OW 2713   3.127   3.965   1.232
  671SOL    HW2 2714   3.131   3.958   1.327
  671SOL    HW3 2715   3.107   4.057   1.215
  671SOL    MW4 2716   3.125   3.976   1.242
  672SOL     OW 2717   3.117   4.225   1.134
  672SOL    HW2 2718   3.198   4.272   1.156
  672SOL    HW3 2719   3.109   4.234   1.039
  672SOL    MW4 2720   3.127   4.232   1.124
  673SOL     OW 2721   3.355   4.367   1.183
  673SOL    HW2 2722   3.431   4.332   1.137
  673SOL    HW3 2723   3.355   4.460   1.162
  673SOL    MW4 2724   3.365   4.375   1.174
  674SOL     OW 2725   3.858   4.659   1.150
  674SOL    HW2 2726   3.852   4.565   1.167
  674SOL    HW3 2727   3.824   4.670   1.061
  674SOL    MW4 2728   3.853   4.648   1.140
  675SOL     OW 2729   3.639   0.125   1.252
  675SOL    HW2 2730   3.630   0.205   1.201
  675SOL    HW3 2731   3.725   0.091   1.228
  675SOL    MW4 2732   3.649   0.131   1.242
  676SOL     OW 2733   3.590   0.351   1.085
  676SOL    HW2 2734   3.676   0.389   1.105
  676SOL    HW3 2735   3.527   0.409   1.129
  676SOL    MW4 2736   3.593   0.364   1.093
  677SOL     OW 2737   3.812   0.479   1.203
  677SOL    HW2 2738   3.892   0.444   1.163
  677SOL    HW3 2739   3.815   0.573   1.185
  677SOL    MW4 2740   3.823   0.487   1.195
  678SOL     OW 2741   3.792   0.758   1.093
  678SOL    HW2 2742   3.864   0.788   1.148
  678SOL    HW3 2743   3.714   0.798   1.131
  678SOL    MW4 2744   3.791   0.767   1.105
  679SOL     OW 2745   3.576   0.898   1.208
  679SOL    HW2 2746   3.573   0.983   1.165
  679SOL    HW3 2747   3.488   0.863   1.198
  679SOL    MW4 2748   3.564   0.905   1.201
  680SOL     OW 2749   3.575   1.157   1.091
  680SOL    HW2 2750   3.654   1.205   1.116
  680SOL    HW3 2751   3.505   1.198   1.142
  680SOL    MW4 2752   3.576   1.169   1.101
  681SOL     OW 2753   3.797   1.288   1.179
  681SOL    HW2 2754   3.796   1.290   1.275
  681SOL    HW3 2755   3.796   1.380   1.153
  681SOL    MW4 2756   3.797   1.300   1.188
  682SOL     OW 2757   3.819   1.547   1.133
  682SOL    HW2 2758   3.888   1.599   1.173
  682SOL    HW3 2759   3.823   1.570   1.040
  682SOL    MW4 2760   3.829   1.557   1.126
  683SOL     OW 2761   3.577   1.661   1.205
  683SOL    HW2 2762   3.590   1.754   1.186
  683SOL    HW3 2763   3.660   1.620   1.180
  683SOL    MW4 2764   3.590   1.668   1.199
  684SOL     OW 2765   3.592   1.923   1.175
  684SOL    HW2 2766   3.672   1.974   1.192
  684SOL    HW3 2767   3.571   1.943   1.084
  684SOL    MW4 2768   3.600   1.932   1.165
  685SOL     OW 2769   3.819   2.065   1.247
  685SOL    HW2 2770   3.819   2.044   1.340
  685SOL    HW3 2771   3.906   2.038   1.216
  685SOL    MW4 2772   3.830   2.059   1.255
  686SOL     OW 2773   3.791   2.324   1.132
  686SOL    HW2 2774   3.869   2.363   1.171
  686SOL    HW3 2775   3.793   2.233   1.161
  686SOL    MW4 2776   3.802   2.317   1.141
  687SOL     OW 2777   3.538   2.403   1.227
  687SOL    HW2 2778   3.545   2.442   1.314
  687SOL    HW3 2779   3.626   2.372   1.208
  687SOL    MW4 2780   3.550   2.404   1.236
  688SOL     OW 2781   3.593   2.650   1.112
  688SOL    HW2 2782   3.587   2.565   1.156
  688SOL    HW3 2783   3.513   2.696   1.138
  688SOL    MW4 2784   3.582   2.645   1.121
  689SOL     OW 2785   3.785   2.835   1.247
  689SOL    HW2 2786   3.774   2.837   1.342
  689SOL    HW3 2787   3.711   2.782   1.216
  689SOL    MW4 2788   3.774   2.828   1.255
  690SOL     OW 2789   3.832   3.098   1.204
  690SOL    HW2 2790   3.815   3.007   1.227
  690SOL    HW3 2791   3.831   3.100   1.108
  690SOL    MW4 2792   3.830   3.086   1.194
  691SOL     OW 2793   3.574   3.223   1.274
  691SOL    HW2 2794   3.573   3.307   1.228
  691SOL    HW3 2795   3.659   3.185   1.253
  691SOL    MW4 2796   3.585   3.229   1.265
  692SOL     OW 2797   3.574   3.479   1.140
  692SOL    HW2 2798   3.650   3.529   1.169
  692SOL    HW3 2799   3.583   3.474   1.045
  692SOL    MW4 2800   3.585   3.485   1.131
  693SOL     OW 2801   3.819   3.608   1.231
  693SOL    HW2 2802   3.798   3.609   1.324
  693SOL    HW3 2803   3.831   3.700   1.208
  693SOL    MW4 2804   3.818   3.620   1.240
  694SOL     OW 2805   3.843   3.885   1.098
  694SOL    HW2 2806   3.755   3.909   1.128
  694SOL    HW3 2807   3.839   3.896   1.003
  694SOL    MW4 2808   3.831   3.890   1.089
  695SOL     OW 2809   3.615   3.999   1.212
  695SOL    HW2 2810   3.624   4.000   1.307
  695SOL    HW3 2811   3.528   3.962   1.197
  695SOL    MW4 2812   3.605   3.994   1.223
  696SOL     OW 2813   3.600   4.260   1.080
  696SOL    HW2 2814   3.602   4.178   1.129
  696SOL    HW3 2815   3.609   4.233   0.989
  696SOL    MW4 2816   3.601   4.246   1.074
  697SOL     OW 2817   3.822   4.372   1.225
  697SOL    HW2 2818   3.797   4.378   1.317
  697SOL    HW3 2819   3.746   4.333   1.182
  697SOL    MW4 2820   3.809   4.368   1.231
  698SOL     OW 2821   4.281   4.636   1.085
  698SOL    HW2 2822   4.265   4.551   1.127
  698SOL    HW3 2823   4.216   4.694   1.125
  698SOL    MW4 2824   4.270   4.632   1.096
  699SOL     OW 2825   4.089   0.134   1.217
  699SOL    HW2 2826   4.087   0.137   1.313
  699SOL    HW3 2827   4.024   0.068   1.194
  699SOL    MW4 2828   4.080   0.126   1.227
  700SOL     OW 2829   4.047   0.386   1.099
  700SOL    HW2 2830   4.052   0.301   1.142
  700SOL    HW3 2831   4.077   0.370   1.010
  700SOL    MW4 2832   4.052   0.373   1.093
  701SOL     OW 2833   4.288   0.473   1.189
  701SOL    HW2 2834   4.287   0.483   1.284
  701SOL    HW3 2835   4.205   0.430   1.168
  701SOL    MW4 2836   4.277   0.469   1.199
  702SOL     OW 2837   4.252   0.736   1.108
  702SOL    HW2 2838   4.265   0.642   1.121
  702SOL    HW3 2839   4.268   0.749   1.014
  702SOL    MW4 2840   4.256   0.725   1.097
  703SOL     OW 2841   4.023   0.856   1.203
  703SOL    HW2 2842   4.043   0.878   1.294
  703SOL    HW3 2843   4.107   0.827   1.167
  703SOL    MW4 2844   4.037   0.855   1.210
  704SOL     OW 2845   4.010   1.134   1.120
  704SOL    HW2 2846   3.980   1.048   1.150
  704SOL    HW3 2847   3.934   1.191   1.132
  704SOL    MW4 2848   3.996   1.130   1.126
  705SOL     OW 2849   4.259   1.266   1.167
  705SOL    HW2 2850   4.263   1.273   1.262
  705SOL    HW3 2851   4.177   1.221   1.149
  705SOL    MW4 2852   4.249   1.261   1.177
  706SOL     OW 2853   4.234   1.538   1.116
  706SOL    HW2 2854   4.235   1.445   1.137
  706SOL    HW3 2855   4.302   1.576   1.171
  706SOL    MW4 2856   4.243   1.531   1.126
  707SOL     OW 2857   4.039   1.693   1.225
  707SOL    HW2 2858   4.054   1.670   1.317
  707SOL    HW3 2859   4.112   1.652   1.178
  707SOL    MW4 2860   4.051   1.685   1.231
  708SOL     OW 2861   4.059   1.957   1.118
  708SOL    HW2 2862   4.057   1.864   1.141
  708SOL    HW3 2863   4.046   1.959   1.023
  708SOL    MW4 2864   4.057   1.945   1.109
  709SOL     OW 2865   4.281   2.087   1.247
  709SOL    HW2 2866   4.270   2.179   1.222
  709SOL    HW3 2867   4.198   2.046   1.223
  709SOL    MW4 2868   4.269   2.094   1.241
  710SOL     OW 2869   4.270   2.342   1.148
  710SOL    HW2 2870   4.182   2.376   1.165
  710SOL    HW3 2871   4.267   2.314   1.056
  710SOL    MW4 2872   4.258   2.343   1.138
  711SOL     OW 2873   4.020   2.479   1.221
  711SOL    HW2 2874   4.021   2.469   1.316
  711SOL    HW3 2875   4.011   2.573   1.207
  711SOL    MW4 2876   4.019   2.490   1.232
  712SOL     OW 2877   4.028   2.749   1.184
  712SOL    HW2 2878   3.938   2.771   1.206
  712SOL    HW3 2879   4.031   2.753   1.088
  712SOL    MW4 2880   4.016   2.752   1.174
  713SOL     OW 2881   4.278   2.816   1.288
  713SOL    HW2 2882   4.287   2.908   1.265
  713SOL    HW3 2883   4.193   2.790   1.252
  713SOL    MW4 2884   4.268   2.825   1.280
  714SOL     OW 2885   4.284   3.065   1.184
  714SOL    HW2 2886   4.221   3.129   1.216
  714SOL    HW3 2887   4.278   3.071   1.089
  714SOL    MW4 2888   4.275   3.074   1.176
  715SOL     OW 2889   4.079   3.223   1.267
  715SOL    HW2 2890   4.098   3.233   1.360
  715SOL    HW3 2891   4.003   3.165   1.263
  715SOL    MW4 2892   4.072   3.217   1.279
  716SOL     OW 2893   4.033   3.456   1.122
  716SOL    HW2 2894   4.024   3.372   1.166
  716SOL    HW3 2895   3.960   3.509   1.155
  716SOL    MW4 2896   4.022   3.452   1.132
  717SOL     OW 2897   4.229   3.619   1.255
  717SOL    HW2 2898   4.154   3.576   1.214
  717SOL    HW3 2899   4.305   3.570   1.223
  717SOL    MW4 2900   4.229   3.607   1.245
  718SOL     OW 2901   4.267   3.876   1.139
  718SOL    HW2 2902   4.193   3.931   1.165
  718SOL    HW3 2903   4.247   3.790   1.175
  718SOL    MW4 2904   4.255   3.872   1.147
  719SOL     OW 2905   4.032   4.040   1.216
  719SOL    HW2 2906   4.048   4.124   1.172
  719SOL    HW3 2907   3.954   4.005   1.173
  719SOL    MW4 2908   4.024   4.046   1.205
  720SOL     OW 2909   4.038   4.290   1.073
  720SOL    HW2 2910   3.959   4.321   1.118
  720SOL    HW3 2911   4.015   4.292   0.980
  720SOL    MW4 2912   4.025   4.294   1.067
  721SOL     OW 2913   4.235   4.399   1.231
  721SOL    HW2 2914   4.161   4.360   1.183
  721SOL    HW3 2915   4.312   4.352   1.198
  721SOL    MW4 2916   4.235   4.388   1.220
  722SOL     OW 2917   0.248   0.002   1.630
  722SOL    HW2 2918   0.320   0.045   1.585
  722SOL    HW3 2919   0.171   0.020   1.575
  722SOL    MW4 2920   0.247   0.010   1.617
  723SOL     OW 2921   0.005   0.054   1.502
  723SOL    HW2 2922  -0.085   0.038   1.531
  723SOL    HW3 2923  -0.002   0.061   1.407
  723SOL    MW4 2924  -0.008   0.053   1.493
  724SOL     OW 2925   0.017   0.326   1.534
  724SOL    HW2 2926  -0.008   0.327   1.626
  724SOL    HW3 2927   0.011   0.234   1.508
  724SOL    MW4 2928   0.013   0.314   1.543
  725SOL     OW 2929   0.231   0.516   1.501
  725SOL    HW2 2930   0.161   0.452   1.513
  725SOL    HW3 2931   0.239   0.525   1.406
  725SOL    MW4 2932   0.223   0.509   1.490
  726SOL     OW 2933   0.224   0.757   1.619
  726SOL    HW2 2934   0.299   0.813   1.600
  726SOL    HW3 2935   0.228   0.688   1.553
  726SOL    MW4 2936   0.234   0.755   1.608
  727SOL     OW 2937   0.007   0.883   1.495
  727SOL    HW2 2938   0.013   0.970   1.534
  727SOL    HW3 2939   0.073   0.832   1.541
  727SOL    MW4 2940   0.017   0.888   1.506
  728SOL     OW 2941   0.013   1.155   1.587
  728SOL    HW2 2942   0.020   1.149   1.682
  728SOL    HW3 2943   0.097   1.192   1.559
  728SOL    MW4 2944   0.025   1.159   1.596
  729SOL     OW 2945   0.241   1.283   1.494
  729SOL    HW2 2946   0.245   1.374   1.524
  729SOL    HW3 2947   0.229   1.289   1.399
  729SOL    MW4 2948   0.240   1.296   1.485
  730SOL     OW 2949   0.233   1.553   1.599
  730SOL    HW2 2950   0.218   1.539   1.692
  730SOL    HW3 2951   0.153   1.594   1.568
  730SOL    MW4 2952   0.220   1.557   1.607
  731SOL     OW 2953   4.483   1.672   1.508
  731SOL    HW2 2954   4.480   1.761   1.542
  731SOL    HW3 2955   4.482   1.683   1.413
  731SOL    MW4 2956   4.482   1.685   1.500
  732SOL     OW 2957   0.046   1.923   1.608
  732SOL    HW2 2958   0.042   1.902   1.701
  732SOL    HW3 2959  -0.025   1.987   1.595
  732SOL    MW4 2960   0.036   1.929   1.619
  733SOL     OW 2961   0.277   2.062   1.498
  733SOL    HW2 2962   0.205   2.015   1.540
  733SOL    HW3 2963   0.267   2.042   1.405
  733SOL    MW4 2964   0.266   2.053   1.491
  734SOL     OW 2965   0.196   2.305   1.605
  734SOL    HW2 2966   0.207   2.299   1.700
  734SOL    HW3 2967   0.225   2.220   1.572
  734SOL    MW4 2968   0.201   2.293   1.613
  735SOL     OW 2969   4.484   2.442   1.493
  735SOL    HW2 2970   4.397   2.411   1.518
  735SOL    HW3 2971   4.545   2.382   1.537
  735SOL    MW4 2972   4.480   2.430   1.502
  736SOL     OW 2973   0.061   2.682   1.615
  736SOL    HW2 2974  -0.011   2.739   1.587
  736SOL    HW3 2975   0.038   2.596   1.580
  736SOL    MW4 2976   0.049   2.678   1.607
  737SOL     OW 2977   0.257   2.835   1.516
  737SOL    HW2 2978   0.333   2.797   1.560
  737SOL    HW3 2979   0.184   2.778   1.542
  737SOL    MW4 2980   0.257   2.823   1.525
  738SOL     OW 2981   0.262   3.088   1.627
  738SOL    HW2 2982   0.189   3.135   1.586
  738SOL    HW3 2983   0.257   2.999   1.591
  738SOL    MW4 2984   0.252   3.082   1.617
  739SOL     OW 2985   0.051   3.224   1.512
  739SOL    HW2 2986   0.039   3.318   1.527
  739SOL    HW3 2987   0.036   3.213   1.418
  739SOL    MW4 2988   0.047   3.235   1.502
  740SOL     OW 2989   4.480   3.484   1.606
  740SOL    HW2 2990   4.491   3.502   1.699
  740SOL    HW3 2991   4.395   3.522   1.584
  740SOL    MW4 2992   4.470   3.491   1.615
  741SOL     OW 2993   0.209   3.612   1.482
  741SOL    HW2 2994   0.198   3.701   1.515
  741SOL    HW3 2995   0.138   3.563   1.522
  741SOL    MW4 2996   0.198   3.617   1.492
  742SOL     OW 2997   0.162   3.881   1.606
  742SOL    HW2 2998   0.194   3.877   1.696
  742SOL    HW3 2999   0.237   3.913   1.556
  742SOL    MW4 3000   0.176   3.885   1.611
  743SOL     OW 3001   4.443   4.025   1.494
  743SOL    HW2 3002   4.457   4.107   1.541
  743SOL    HW3 3003   4.509   3.965   1.530
  743SOL    MW4 3004   4.454   4.028   1.505
  744SOL     OW 3005   4.483   4.283   1.588
  744SOL    HW2 3006   4.481   4.264   1.682
  744SOL    HW3 3007   4.401   4.329   1.572
  744SOL    MW4 3008   4.472   4.287   1.598
  745SOL     OW 3009   0.239   4.425   1.525
  745SOL    HW2 3010   0.152   4.391   1.543
  745SOL    HW3 3011   0.239   4.513   1.564
  745SOL    MW4 3012   0.227   4.432   1.533
  746SOL     OW 3013   0.676   4.654   1.558
  746SOL    HW2 3014   0.747   4.717   1.546
  746SOL    HW3 3015   0.597   4.703   1.536
  746SOL    MW4 3016   0.675   4.669   1.553
  747SOL     OW 3017   0.441   0.136   1.495
  747SOL    HW2 3018   0.465   0.224   1.525
  747SOL    HW3 3019   0.427   0.145   1.401
  747SOL    MW4 3020   0.442   0.149   1.487
  748SOL     OW 3021   0.473   0.389   1.585
  748SOL    HW2 3022   0.554   0.438   1.569
  748SOL    HW3 3023   0.403   0.448   1.555
  748SOL    MW4 3024   0.474   0.403   1.579
  749SOL     OW 3025   0.735   0.506   1.497
  749SOL    HW2 3026   0.710   0.596   1.518
  749SOL    HW3 3027   0.749   0.506   1.402
  749SOL    MW4 3028   0.734   0.518   1.487
  750SOL     OW 3029   0.641   0.750   1.557
  750SOL    HW2 3030   0.633   0.761   1.652
  750SOL    HW3 3031   0.725   0.789   1.535
  750SOL    MW4 3032   0.651   0.757   1.567
  751SOL     OW 3033   0.417   0.906   1.496
  751SOL    HW2 3034   0.429   0.989   1.542
  751SOL    HW3 3035   0.501   0.861   1.506
  751SOL    MW4 3036   0.430   0.911   1.503
  752SOL     OW 3037   0.441   1.145   1.633
  752SOL    HW2 3038   0.529   1.158   1.598
  752SOL    HW3 3039   0.384   1.195   1.575
  752SOL    MW4 3040   0.445   1.153   1.621
  753SOL     OW 3041   0.670   1.252   1.509
  753SOL    HW2 3042   0.665   1.341   1.543
  753SOL    HW3 3043   0.664   1.262   1.414
  753SOL    MW4 3044   0.669   1.265   1.501
  754SOL     OW 3045   0.653   1.503   1.625
  754SOL    HW2 3046   0.733   1.550   1.601
  754SOL    HW3 3047   0.584   1.549   1.578
  754SOL    MW4 3048   0.654   1.515   1.616
  755SOL     OW 3049   0.458   1.654   1.508
  755SOL    HW2 3050   0.462   1.742   1.545
  755SOL    HW3 3051   0.380   1.615   1.547
  755SOL    MW4 3052   0.448   1.660   1.518
  756SOL     OW 3053   0.472   1.895   1.624
  756SOL    HW2 3054   0.478   1.910   1.718
  756SOL    HW3 3055   0.415   1.965   1.592
  756SOL    MW4 3056   0.465   1.906   1.632
  757SOL     OW 3057   0.667   2.041   1.508
  757SOL    HW2 3058   0.753   2.016   1.543
  757SOL    HW3 3059   0.607   1.974   1.542
  757SOL    MW4 3060   0.670   2.029   1.517
  758SOL     OW 3061   0.646   2.279   1.661
  758SOL    HW2 3062   0.578   2.323   1.610
  758SOL    HW3 3063   0.637   2.187   1.637
  758SOL    MW4 3064   0.636   2.273   1.651
  759SOL     OW 3065   0.434   2.438   1.510
  759SOL    HW2 3066   0.438   2.519   1.561
  759SOL    HW3 3067   0.365   2.386   1.552
  759SOL    MW4 3068   0.425   2.442   1.522
  760SOL     OW 3069   0.481   2.700   1.644
  760SOL    HW2 3070   0.475   2.702   1.740
  760SOL    HW3 3071   0.562   2.746   1.624
  760SOL    MW4 3072   0.491   2.706   1.654
  761SOL     OW 3073   0.700   2.842   1.568
  761SOL    HW2 3074   0.701   2.931   1.603
  761SOL    HW3 3075   0.679   2.852   1.475
  761SOL    MW4 3076   0.697   2.855   1.560
  762SOL     OW 3077   0.669   3.108   1.682
  762SOL    HW2 3078   0.738   3.152   1.632
  762SOL    HW3 3079   0.588   3.152   1.654
  762SOL    MW4 3080   0.668   3.120   1.672
  763SOL     OW 3081   0.455   3.273   1.560
  763SOL    HW2 3082   0.383   3.216   1.586
  763SOL    HW3 3083   0.459   3.265   1.465
  763SOL    MW4 3084   0.446   3.264   1.551
  764SOL     OW 3085   0.425   3.529   1.645
  764SOL    HW2 3086   0.436   3.438   1.618
  764SOL    HW3 3087   0.344   3.557   1.602
  764SOL    MW4 3088   0.416   3.521   1.636
  765SOL     OW 3089   0.660   3.603   1.526
  765SOL    HW2 3090   0.726   3.543   1.561
  765SOL    HW3 3091   0.578   3.575   1.567
  765SOL    MW4 3092   0.658   3.591   1.536
  766SOL     OW 3093   0.656   3.877   1.602
  766SOL    HW2 3094   0.734   3.913   1.559
  766SOL    HW3 3095   0.663   3.782   1.590
  766SOL    MW4 3096   0.667   3.869   1.595
  767SOL     OW 3097   0.404   4.008   1.512
  767SOL    HW2 3098   0.476   3.953   1.544
  767SOL    HW3 3099   0.424   4.020   1.419
  767SOL    MW4 3100   0.416   4.002   1.504
  768SOL     OW 3101   0.457   4.271   1.603
  768SOL    HW2 3102   0.450   4.179   1.578
  768SOL    HW3 3103   0.369   4.306   1.590
  768SOL    MW4 3104   0.444   4.263   1.598
  769SOL     OW 3105   0.688   4.396   1.475
  769SOL    HW2 3106   0.600   4.372   1.505
  769SOL    HW3 3107   0.704   4.483   1.512
  769SOL    MW4 3108   0.678   4.404   1.484
  770SOL     OW 3109   1.087   4.648   1.614
  770SOL    HW2 3110   1.095   4.661   1.709
  770SOL    HW3 3111   1.161   4.697   1.577
  770SOL    MW4 3112   1.098   4.656   1.622
  771SOL     OW 3113   0.895   0.121   1.496
  771SOL    HW2 3114   0.906   0.210   1.529
  771SOL    HW3 3115   0.965   0.071   1.539
  771SOL    MW4 3116   0.906   0.126   1.506
  772SOL     OW 3117   0.941   0.372   1.610
  772SOL    HW2 3118   0.933   0.366   1.705
  772SOL    HW3 3119   0.867   0.426   1.582
  772SOL    MW4 3120   0.930   0.378   1.619
  773SOL     OW 3121   1.152   0.513   1.465
  773SOL    HW2 3122   1.147   0.597   1.510
  773SOL    HW3 3123   1.074   0.465   1.494
  773SOL    MW4 3124   1.141   0.518   1.475
  774SOL     OW 3125   1.146   0.760   1.608
  774SOL    HW2 3126   1.143   0.740   1.702
  774SOL    HW3 3127   1.217   0.824   1.600
  774SOL    MW4 3128   1.155   0.766   1.619
  775SOL     OW 3129   0.907   0.876   1.532
  775SOL    HW2 3130   0.993   0.848   1.563
  775SOL    HW3 3131   0.916   0.880   1.437
  775SOL    MW4 3132   0.920   0.873   1.524
  776SOL     OW 3133   0.916   1.149   1.582
  776SOL    HW2 3134   0.928   1.054   1.582
  776SOL    HW3 3135   0.834   1.163   1.535
  776SOL    MW4 3136   0.907   1.138   1.576
  777SOL     OW 3137   1.124   1.287   1.480
  777SOL    HW2 3138   1.197   1.245   1.525
  777SOL    HW3 3139   1.046   1.244   1.514
  777SOL    MW4 3140   1.123   1.276   1.490
  778SOL     OW 3141   1.111   1.543   1.581
  778SOL    HW2 3142   1.181   1.579   1.527
  778SOL    HW3 3143   1.087   1.461   1.537
  778SOL    MW4 3144   1.117   1.537   1.568
  779SOL     OW 3145   0.865   1.655   1.539
  779SOL    HW2 3146   0.946   1.611   1.563
  779SOL    HW3 3147   0.867   1.660   1.443
  779SOL    MW4 3148   0.876   1.650   1.530
  780SOL     OW 3149   0.905   1.957   1.584
  780SOL    HW2 3150   0.975   1.999   1.534
  780SOL    HW3 3151   0.910   1.865   1.559
  780SOL    MW4 3152   0.915   1.950   1.574
  781SOL     OW 3153   1.138   2.087   1.482
  781SOL    HW2 3154   1.191   2.016   1.518
  781SOL    HW3 3155   1.160   2.163   1.535
  781SOL    MW4 3156   1.148   2.088   1.494
  782SOL     OW 3157   1.141   2.320   1.612
  782SOL    HW2 3158   1.200   2.387   1.577
  782SOL    HW3 3159   1.053   2.357   1.599
  782SOL    MW4 3160   1.137   2.334   1.606
  783SOL     OW 3161   0.890   2.430   1.564
  783SOL    HW2 3162   0.884   2.520   1.596
  783SOL    HW3 3163   0.809   2.389   1.595
  783SOL    MW4 3164   0.879   2.436   1.572
  784SOL     OW 3165   0.913   2.700   1.644
  784SOL    HW2 3166   0.906   2.720   1.737
  784SOL    HW3 3167   0.837   2.742   1.605
  784SOL    MW4 3168   0.902   2.708   1.651
  785SOL     OW 3169   1.110   2.872   1.518
  785SOL    HW2 3170   1.103   2.966   1.537
  785SOL    HW3 3171   1.053   2.831   1.583
  785SOL    MW4 3172   1.102   2.879   1.529
  786SOL     OW 3173   1.112   3.132   1.607
  786SOL    HW2 3174   1.125   3.133   1.702
  786SOL    HW3 3175   1.177   3.194   1.573
  786SOL    MW4 3176   1.122   3.140   1.615
  787SOL     OW 3177   0.867   3.223   1.540
  787SOL    HW2 3178   0.951   3.184   1.565
  787SOL    HW3 3179   0.865   3.215   1.445
  787SOL    MW4 3180   0.878   3.217   1.531
  788SOL     OW 3181   0.912   3.485   1.631
  788SOL    HW2 3182   0.984   3.533   1.590
  788SOL    HW3 3183   0.919   3.396   1.596
  788SOL    MW4 3184   0.922   3.480   1.621
  789SOL     OW 3185   1.092   3.649   1.511
  789SOL    HW2 3186   1.185   3.630   1.524
  789SOL    HW3 3187   1.078   3.639   1.417
  789SOL    MW4 3188   1.102   3.645   1.500
  790SOL     OW 3189   1.124   3.912   1.635
  790SOL    HW2 3190   1.209   3.938   1.601
  790SOL    HW3 3191   1.107   3.826   1.596
  790SOL    MW4 3192   1.133   3.904   1.625
  791SOL     OW 3193   0.882   3.997   1.517
  791SOL    HW2 3194   0.884   4.092   1.532
  791SOL    HW3 3195   0.969   3.967   1.545
  791SOL    MW4 3196   0.894   4.006   1.523
  792SOL     OW 3197   0.914   4.279   1.571
  792SOL    HW2 3198   0.914   4.301   1.664
  792SOL    HW3 3199   0.831   4.313   1.538
  792SOL    MW4 3200   0.903   4.286   1.579
  793SOL     OW 3201   1.144   4.429   1.463
  793SOL    HW2 3202   1.065   4.378   1.481
  793SOL    HW3 3203   1.126   4.515   1.500
  793SOL    MW4 3204   1.131   4.434   1.470
  794SOL     OW 3205   1.587   4.658   1.611
  794SOL    HW2 3206   1.581   4.662   1.706
  794SOL    HW3 3207   1.509   4.704   1.580
  794SOL    MW4 3208   1.576   4.665   1.620
  795SOL     OW 3209   1.307   0.109   1.511
  795SOL    HW2 3210   1.303   0.198   1.546
  795SOL    HW3 3211   1.318   0.121   1.417
  795SOL    MW4 3212   1.308   0.122   1.503
  796SOL     OW 3213   1.332   0.359   1.615
  796SOL    HW2 3214   1.418   0.389   1.587
  796SOL    HW3 3215   1.272   0.430   1.591
  796SOL    MW4 3216   1.335   0.372   1.608
  797SOL     OW 3217   1.591   0.473   1.501
  797SOL    HW2 3218   1.678   0.447   1.531
  797SOL    HW3 3219   1.604   0.496   1.409
  797SOL    MW4 3220   1.604   0.473   1.493
  798SOL     OW 3221   1.602   0.738   1.567
  798SOL    HW2 3222   1.592   0.740   1.662
  798SOL    HW3 3223   1.587   0.647   1.543
  798SOL    MW4 3224   1.599   0.726   1.576
  799SOL     OW 3225   1.367   0.903   1.532
  799SOL    HW2 3226   1.447   0.853   1.549
  799SOL    HW3 3227   1.363   0.911   1.437
  799SOL    MW4 3228   1.377   0.897   1.522
  800SOL     OW 3229   1.336   1.166   1.589
  800SOL    HW2 3230   1.340   1.152   1.684
  800SOL    HW3 3231   1.348   1.079   1.551
  800SOL    MW4 3232   1.338   1.153   1.597
  801SOL     OW 3233   1.574   1.291   1.516
  801SOL    HW2 3234   1.488   1.253   1.535
  801SOL    HW3 3235   1.579   1.291   1.420
  801SOL    MW4 3236   1.563   1.286   1.506
  802SOL     OW 3237   1.547   1.547   1.617
  802SOL    HW2 3238   1.542   1.529   1.711
  802SOL    HW3 3239   1.565   1.462   1.578
  802SOL    MW4 3240   1.549   1.533   1.624
  803SOL     OW 3241   1.356   1.681   1.461
  803SOL    HW2 3242   1.426   1.628   1.499
  803SOL    HW3 3243   1.382   1.693   1.370
  803SOL    MW4 3244   1.369   1.676   1.454
  804SOL     OW 3245   1.328   1.908   1.603
  804SOL    HW2 3246   1.325   1.883   1.695
  804SOL    HW3 3247   1.330   1.825   1.556
  804SOL    MW4 3248   1.328   1.894   1.609
  805SOL     OW 3249   1.548   2.063   1.515
  805SOL    HW2 3250   1.471   2.010   1.537
  805SOL    HW3 3251   1.541   2.076   1.420
  805SOL    MW4 3252   1.537   2.058   1.505
  806SOL     OW 3253   1.527   2.330   1.602
  806SOL    HW2 3254   1.608   2.366   1.567
  806SOL    HW3 3255   1.529   2.238   1.577
  806SOL    MW4 3256   1.538   2.323   1.594
  807SOL     OW 3257   1.333   2.490   1.500
  807SOL    HW2 3258   1.342   2.569   1.554
  807SOL    HW3 3259   1.410   2.437   1.522
  807SOL    MW4 3260   1.344   2.493   1.510
  808SOL     OW 3261   1.347   2.760   1.632
  808SOL    HW2 3262   1.422   2.801   1.590
  808SOL    HW3 3263   1.271   2.794   1.585
  808SOL    MW4 3264   1.347   2.770   1.620
  809SOL     OW 3265   1.570   2.893   1.525
  809SOL    HW2 3266   1.639   2.839   1.562
  809SOL    HW3 3267   1.573   2.875   1.431
  809SOL    MW4 3268   1.580   2.883   1.517
  810SOL     OW 3269   1.566   3.161   1.617
  810SOL    HW2 3270   1.640   3.209   1.579
  810SOL    HW3 3271   1.575   3.072   1.583
  810SOL    MW4 3272   1.577   3.156   1.608
  811SOL     OW 3273   1.324   3.282   1.511
  811SOL    HW2 3274   1.326   3.374   1.539
  811SOL    HW3 3275   1.409   3.247   1.537
  811SOL    MW4 3276   1.336   3.289   1.518
  812SOL     OW 3277   1.350   3.545   1.599
  812SOL    HW2 3278   1.337   3.537   1.694
  812SOL    HW3 3279   1.444   3.561   1.589
  812SOL    MW4 3280   1.361   3.546   1.610
  813SOL     OW 3281   1.593   3.608   1.518
  813SOL    HW2 3282   1.600   3.703   1.527
  813SOL    HW3 3283   1.571   3.594   1.426
  813SOL    MW4 3284   1.591   3.619   1.507
  814SOL     OW 3285   1.602   3.892   1.560
  814SOL    HW2 3286   1.595   3.870   1.653
  814SOL    HW3 3287   1.535   3.960   1.547
  814SOL    MW4 3288   1.592   3.898   1.570
  815SOL     OW 3289   1.339   4.010   1.502
  815SOL    HW2 3290   1.333   4.105   1.513
  815SOL    HW3 3291   1.325   3.996   1.408
  815SOL    MW4 3292   1.336   4.021   1.491
  816SOL     OW 3293   1.340   4.281   1.571
  816SOL    HW2 3294   1.419   4.332   1.550
  816SOL    HW3 3295   1.269   4.329   1.529
  816SOL    MW4 3296   1.341   4.294   1.563
  817SOL     OW 3297   1.576   4.403   1.485
  817SOL    HW2 3298   1.645   4.354   1.529
  817SOL    HW3 3299   1.584   4.492   1.519
  817SOL    MW4 3300   1.586   4.408   1.495
  818SOL     OW 3301   1.989   4.656   1.603
  818SOL    HW2 3302   1.994   4.667   1.698
  818SOL    HW3 3303   1.926   4.722   1.574
  818SOL    MW4 3304   1.981   4.666   1.612
  819SOL     OW 3305   1.795   0.149   1.510
  819SOL    HW2 3306   1.711   0.104   1.517
  819SOL    HW3 3307   1.807   0.164   1.416
  819SOL    MW4 3308   1.785   0.145   1.498
  820SOL     OW 3309   1.819   0.407   1.614
  820SOL    HW2 3310   1.890   0.446   1.563
  820SOL    HW3 3311   1.821   0.314   1.591
  820SOL    MW4 3312   1.829   0.400   1.604
  821SOL     OW 3313   2.038   0.514   1.486
  821SOL    HW2 3314   2.096   0.455   1.534
  821SOL    HW3 3315   2.051   0.599   1.527
  821SOL    MW4 3316   2.047   0.517   1.498
  822SOL     OW 3317   2.065   0.758   1.603
  822SOL    HW2 3318   2.140   0.796   1.556
  822SOL    HW3 3319   1.989   0.806   1.569
  822SOL    MW4 3320   2.065   0.769   1.592
  823SOL     OW 3321   1.815   0.901   1.502
  823SOL    HW2 3322   1.794   0.979   1.553
  823SOL    HW3 3323   1.742   0.841   1.518
  823SOL    MW4 3324   1.803   0.903   1.511
  824SOL     OW 3325   1.798   1.135   1.634
  824SOL    HW2 3326   1.875   1.182   1.604
  824SOL    HW3 3327   1.724   1.183   1.596
  824SOL    MW4 3328   1.798   1.148   1.625
  825SOL     OW 3329   2.025   1.258   1.541
  825SOL    HW2 3330   2.021   1.352   1.560
  825SOL    HW3 3331   2.023   1.252   1.446
  825SOL    MW4 3332   2.024   1.270   1.531
  826SOL     OW 3333   2.002   1.531   1.603
  826SOL    HW2 3334   2.070   1.585   1.563
  826SOL    HW3 3335   1.925   1.588   1.606
  826SOL    MW4 3336   2.001   1.546   1.598
  827SOL     OW 3337   1.778   1.688   1.558
  827SOL    HW2 3338   1.698   1.647   1.591
  827SOL    HW3 3339   1.780   1.664   1.465
  827SOL    MW4 3340   1.768   1.679   1.550
  828SOL     OW 3341   1.797   1.949   1.593
  828SOL    HW2 3342   1.781   1.859   1.565
  828SOL    HW3 3343   1.719   1.997   1.564
  828SOL    MW4 3344   1.785   1.943   1.585
  829SOL     OW 3345   2.050   2.037   1.484
  829SOL    HW2 3346   2.127   1.987   1.512
  829SOL    HW3 3347   1.977   1.996   1.531
  829SOL    MW4 3348   2.051   2.025   1.494
  830SOL     OW 3349   2.041   2.306   1.609
  830SOL    HW2 3350   2.048   2.301   1.704
  830SOL    HW3 3351   2.046   2.215   1.579
  830SOL    MW4 3352   2.043   2.293   1.618
  831SOL     OW 3353   1.797   2.440   1.543
  831SOL    HW2 3354   1.868   2.385   1.576
  831SOL    HW3 3355   1.811   2.443   1.448
  831SOL    MW4 3356   1.808   2.433   1.535
  832SOL     OW 3357   1.777   2.706   1.608
  832SOL    HW2 3358   1.858   2.747   1.578
  832SOL    HW3 3359   1.785   2.614   1.583
  832SOL    MW4 3360   1.789   2.699   1.601
  833SOL     OW 3361   2.006   2.832   1.553
  833SOL    HW2 3362   1.993   2.922   1.583
  833SOL    HW3 3363   2.007   2.838   1.458
  833SOL    MW4 3364   2.004   2.845   1.544
  834SOL     OW 3365   2.031   3.098   1.647
  834SOL    HW2 3366   2.046   3.101   1.742
  834SOL    HW3 3367   2.114   3.126   1.609
  834SOL    MW4 3368   2.044   3.102   1.654
  835SOL     OW 3369   1.815   3.248   1.541
  835SOL    HW2 3370   1.826   3.333   1.583
  835SOL    HW3 3371   1.887   3.195   1.575
  835SOL    MW4 3372   1.826   3.252   1.551
  836SOL     OW 3373   1.817   3.511   1.652
  836SOL    HW2 3374   1.808   3.520   1.747
  836SOL    HW3 3375   1.733   3.541   1.617
  836SOL    MW4 3376   1.805   3.516   1.660
  837SOL     OW 3377   2.021   3.641   1.535
  837SOL    HW2 3378   2.100   3.597   1.567
  837SOL    HW3 3379   1.949   3.598   1.582
  837SOL    MW4 3380   2.022   3.630   1.545
  838SOL     OW 3381   2.050   3.897   1.625
  838SOL    HW2 3382   2.126   3.939   1.584
  838SOL    HW3 3383   2.042   3.813   1.580
  838SOL    MW4 3384   2.059   3.891   1.614
  839SOL     OW 3385   1.833   4.001   1.477
  839SOL    HW2 3386   1.908   3.973   1.529
  839SOL    HW3 3387   1.759   3.954   1.515
  839SOL    MW4 3388   1.833   3.991   1.489
  840SOL     OW 3389   1.800   4.255   1.586
  840SOL    HW2 3390   1.873   4.305   1.550
  840SOL    HW3 3391   1.807   4.169   1.544
  840SOL    MW4 3392   1.811   4.250   1.576
  841SOL     OW 3393   2.004   4.404   1.494
  841SOL    HW2 3394   2.083   4.359   1.524
  841SOL    HW3 3395   2.000   4.484   1.547
  841SOL    MW4 3396   2.014   4.409   1.505
  842SOL     OW 3397   2.479   4.638   1.632
  842SOL    HW2 3398   2.487   4.649   1.727
  842SOL    HW3 3399   2.391   4.668   1.611
  842SOL    MW4 3400   2.468   4.643   1.642
  843SOL     OW 3401   2.242   0.072   1.537
  843SOL    HW2 3402   2.151   0.049   1.557
  843SOL    HW3 3403   2.251   0.053   1.444
  843SOL    MW4 3404   2.231   0.066   1.527
  844SOL     OW 3405   2.227   0.345   1.581
  844SOL    HW2 3406   2.232   0.347   1.677
  844SOL    HW3 3407   2.242   0.253   1.558
  844SOL    MW4 3408   2.230   0.333   1.591
  845SOL     OW 3409   2.483   0.481   1.496
  845SOL    HW2 3410   2.542   0.414   1.531
  845SOL    HW3 3411   2.396   0.457   1.529
  845SOL    MW4 3412   2.479   0.469   1.505
  846SOL     OW 3413   2.504   0.738   1.637
  846SOL    HW2 3414   2.432   0.793   1.605
  846SOL    HW3 3415   2.493   0.656   1.589
  846SOL    MW4 3416   2.493   0.734   1.627
  847SOL     OW 3417   2.287   0.895   1.538
  847SOL    HW2 3418   2.284   0.979   1.584
  847SOL    HW3 3419   2.268   0.916   1.447
  847SOL    MW4 3420   2.284   0.909   1.532
  848SOL     OW 3421   2.259   1.141   1.625
  848SOL    HW2 3422   2.261   1.137   1.721
  848SOL    HW3 3423   2.175   1.181   1.605
  848SOL    MW4 3424   2.248   1.146   1.635
  849SOL     OW 3425   2.475   1.279   1.514
  849SOL    HW2 3426   2.394   1.239   1.545
  849SOL    HW3 3427   2.462   1.289   1.420
  849SOL    MW4 3428   2.463   1.275   1.506
  850SOL     OW 3429   2.461   1.536   1.636
  850SOL    HW2 3430   2.547   1.576   1.623
  850SOL    HW3 3431   2.475   1.443   1.619
  850SOL    MW4 3432   2.474   1.529   1.632
  851SOL     OW 3433   2.234   1.648   1.508
  851SOL    HW2 3434   2.313   1.610   1.546
  851SOL    HW3 3435   2.253   1.653   1.414
  851SOL    MW4 3436   2.247   1.644   1.501
  852SOL     OW 3437   2.271   1.908   1.584
  852SOL    HW2 3438   2.253   1.909   1.678
  852SOL    HW3 3439   2.255   1.817   1.558
  852SOL    MW4 3440   2.267   1.896   1.593
  853SOL     OW 3441   2.488   2.036   1.508
  853SOL    HW2 3442   2.409   1.993   1.542
  853SOL    HW3 3443   2.473   2.042   1.414
  853SOL    MW4 3444   2.476   2.031   1.500
  854SOL     OW 3445   2.490   2.321   1.598
  854SOL    HW2 3446   2.465   2.306   1.689
  854SOL    HW3 3447   2.495   2.233   1.560
  854SOL    MW4 3448   2.487   2.307   1.605
  855SOL     OW 3449   2.252   2.451   1.511
  855SOL    HW2 3450   2.329   2.398   1.529
  855SOL    HW3 3451   2.179   2.401   1.547
  855SOL    MW4 3452   2.253   2.437   1.518
  856SOL     OW 3453   2.252   2.735   1.629
  856SOL    HW2 3454   2.268   2.641   1.619
  856SOL    HW3 3455   2.161   2.747   1.603
  856SOL    MW4 3456   2.242   2.724   1.624
  857SOL     OW 3457   2.482   2.873   1.564
  857SOL    HW2 3458   2.460   2.958   1.602
  857SOL    HW3 3459   2.414   2.814   1.596
  857SOL    MW4 3460   2.470   2.876   1.573
  858SOL     OW 3461   2.453   3.143   1.667
  858SOL    HW2 3462   2.528   3.188   1.628
  858SOL    HW3 3463   2.377   3.189   1.632
  858SOL    MW4 3464   2.453   3.155   1.657
  859SOL     OW 3465   2.235   3.237   1.533
  859SOL    HW2 3466   2.229   3.328   1.561
  859SOL    HW3 3467   2.242   3.242   1.438
  859SOL    MW4 3468   2.235   3.250   1.524
  860SOL     OW 3469   2.262   3.505   1.593
  860SOL    HW2 3470   2.287   3.494   1.685
  860SOL    HW3 3471   2.334   3.555   1.554
  860SOL    MW4 3472   2.275   3.510   1.600
  861SOL     OW 3473   2.485   3.634   1.495
  861SOL    HW2 3474   2.569   3.603   1.529
  861SOL    HW3 3475   2.486   3.728   1.511
  861SOL    MW4 3476   2.496   3.642   1.502
  862SOL     OW 3477   2.474   3.897   1.611
  862SOL    HW2 3478   2.452   3.904   1.704
  862SOL    HW3 3479   2.563   3.932   1.604
  862SOL    MW4 3480   2.483   3.903   1.622
  863SOL     OW 3481   2.253   4.034   1.519
  863SOL    HW2 3482   2.332   3.988   1.546
  863SOL    HW3 3483   2.260   4.040   1.424
  863SOL    MW4 3484   2.264   4.029   1.510
  864SOL     OW 3485   2.245   4.286   1.637
  864SOL    HW2 3486   2.330   4.324   1.613
  864SOL    HW3 3487   2.245   4.199   1.597
  864SOL    MW4 3488   2.256   4.280   1.629
  865SOL     OW 3489   2.481   4.392   1.514
  865SOL    HW2 3490   2.492   4.477   1.557
  865SOL    HW3 3491   2.497   4.410   1.421
  865SOL    MW4 3492   2.485   4.406   1.507
  866SOL     OW 3493   2.944   4.646   1.584
  866SOL    HW2 3494   2.953   4.645   1.679
  866SOL    HW3 3495   2.860   4.688   1.569
  866SOL    MW4 3496   2.934   4.651   1.594
  867SOL     OW 3497   2.692   0.089   1.506
  867SOL    HW2 3498   2.684   0.166   1.563
  867SOL    HW3 3499   2.615   0.036   1.527
  867SOL    MW4 3500   2.681   0.092   1.516
  868SOL     OW 3501   2.668   0.341   1.639
  868SOL    HW2 3502   2.664   0.351   1.734
  868SOL    HW3 3503   2.748   0.387   1.614
  868SOL    MW4 3504   2.678   0.348   1.648
  869SOL     OW 3505   2.899   0.470   1.537
  869SOL    HW2 3506   2.915   0.559   1.568
  869SOL    HW3 3507   2.917   0.473   1.443
  869SOL    MW4 3508   2.903   0.482   1.529
  870SOL     OW 3509   2.942   0.747   1.593
  870SOL    HW2 3510   2.934   0.745   1.688
  870SOL    HW3 3511   2.861   0.789   1.563
  870SOL    MW4 3512   2.930   0.752   1.602
  871SOL     OW 3513   2.695   0.902   1.521
  871SOL    HW2 3514   2.625   0.854   1.565
  871SOL    HW3 3515   2.680   0.887   1.428
  871SOL    MW4 3516   2.684   0.894   1.515
  872SOL     OW 3517   2.695   1.149   1.611
  872SOL    HW2 3518   2.706   1.060   1.579
  872SOL    HW3 3519   2.620   1.183   1.562
  872SOL    MW4 3520   2.687   1.142   1.600
  873SOL     OW 3521   2.901   1.260   1.469
  873SOL    HW2 3522   2.980   1.233   1.516
  873SOL    HW3 3523   2.829   1.217   1.516
  873SOL    MW4 3524   2.902   1.251   1.481
  874SOL     OW 3525   2.923   1.507   1.585
  874SOL    HW2 3526   2.838   1.550   1.574
  874SOL    HW3 3527   2.918   1.429   1.530
  874SOL    MW4 3528   2.911   1.502   1.576
  875SOL     OW 3529   2.690   1.647   1.524
  875SOL    HW2 3530   2.697   1.738   1.554
  875SOL    HW3 3531   2.674   1.654   1.430
  875SOL    MW4 3532   2.689   1.660   1.516
  876SOL     OW 3533   2.733   1.917   1.616
  876SOL    HW2 3534   2.727   1.909   1.711
  876SOL    HW3 3535   2.654   1.966   1.591
  876SOL    MW4 3536   2.722   1.922   1.625
  877SOL     OW 3537   2.929   2.055   1.467
  877SOL    HW2 3538   2.934   2.139   1.512
  877SOL    HW3 3539   2.863   2.006   1.516
  877SOL    MW4 3540   2.921   2.060   1.479
  878SOL     OW 3541   2.941   2.298   1.583
  878SOL    HW2 3542   2.938   2.307   1.678
  878SOL    HW3 3543   2.854   2.326   1.554
  878SOL    MW4 3544   2.929   2.303   1.592
  879SOL     OW 3545   2.729   2.456   1.503
  879SOL    HW2 3546   2.741   2.545   1.535
  879SOL    HW3 3547   2.651   2.425   1.549
  879SOL    MW4 3548   2.720   2.464   1.513
  880SOL     OW 3549   2.736   2.721   1.599
  880SOL    HW2 3550   2.814   2.765   1.564
  880SOL    HW3 3551   2.663   2.777   1.572
  880SOL    MW4 3552   2.737   2.734   1.591
  881SOL     OW 3553   2.949   2.863   1.479
  881SOL    HW2 3554   3.019   2.816   1.523
  881SOL    HW3 3555   2.941   2.945   1.528
  881SOL    MW4 3556   2.957   2.868   1.491
  882SOL     OW 3557   2.927   3.099   1.604
  882SOL    HW2 3558   2.925   3.086   1.699
  882SOL    HW3 3559   2.995   3.165   1.590
  882SOL    MW4 3560   2.936   3.106   1.615
  883SOL     OW 3561   2.694   3.228   1.526
  883SOL    HW2 3562   2.771   3.176   1.548
  883SOL    HW3 3563   2.681   3.214   1.432
  883SOL    MW4 3564   2.702   3.219   1.517
  884SOL     OW 3565   2.708   3.491   1.597
  884SOL    HW2 3566   2.676   3.482   1.687
  884SOL    HW3 3567   2.713   3.401   1.564
  884SOL    MW4 3568   2.704   3.478   1.604
  885SOL     OW 3569   2.949   3.628   1.555
  885SOL    HW2 3570   2.865   3.588   1.577
  885SOL    HW3 3571   2.955   3.622   1.460
  885SOL    MW4 3572   2.939   3.622   1.545
  886SOL     OW 3573   2.905   3.890   1.653
  886SOL    HW2 3574   2.836   3.931   1.601
  886SOL    HW3 3575   2.913   3.801   1.618
  886SOL    MW4 3576   2.897   3.884   1.641
  887SOL     OW 3577   2.715   3.990   1.507
  887SOL    HW2 3578   2.710   4.078   1.544
  887SOL    HW3 3579   2.706   4.003   1.413
  887SOL    MW4 3580   2.713   4.003   1.499
  888SOL     OW 3581   2.700   4.244   1.600
  888SOL    HW2 3582   2.774   4.303   1.585
  888SOL    HW3 3583   2.623   4.294   1.571
  888SOL    MW4 3584   2.700   4.258   1.594
  889SOL     OW 3585   2.905   4.377   1.490
  889SOL    HW2 3586   2.927   4.468   1.510
  889SOL    HW3 3587   2.892   4.375   1.395
  889SOL    MW4 3588   2.906   4.389   1.480
  890SOL     OW 3589   3.386   4.630   1.616
  890SOL    HW2 3590   3.450   4.677   1.563
  890SOL    HW3 3591   3.375   4.546   1.571
  890SOL    MW4 3592   3.393   4.625   1.603
  891SOL     OW 3593   3.174   0.128   1.503
  891SOL    HW2 3594   3.245   0.071   1.532
  891SOL    HW3 3595   3.094   0.084   1.533
  891SOL    MW4 3596   3.173   0.115   1.511
  892SOL     OW 3597   3.152   0.371   1.622
  892SOL    HW2 3598   3.173   0.292   1.572
  892SOL    HW3 3599   3.064   0.395   1.594
  892SOL    MW4 3600   3.143   0.364   1.612
  893SOL     OW 3601   3.383   0.486   1.525
  893SOL    HW2 3602   3.295   0.458   1.548
  893SOL    HW3 3603   3.383   0.489   1.429
  893SOL    MW4 3604   3.371   0.483   1.515
  894SOL     OW 3605   3.373   0.765   1.570
  894SOL    HW2 3606   3.374   0.777   1.665
  894SOL    HW3 3607   3.379   0.670   1.557
  894SOL    MW4 3608   3.374   0.754   1.581
  895SOL     OW 3609   3.153   0.896   1.478
  895SOL    HW2 3610   3.233   0.848   1.496
  895SOL    HW3 3611   3.084   0.845   1.521
  895SOL    MW4 3612   3.155   0.883   1.486
  896SOL     OW 3613   3.130   1.157   1.579
  896SOL    HW2 3614   3.115   1.138   1.672
  896SOL    HW3 3615   3.135   1.071   1.538
  896SOL    MW4 3616   3.129   1.143   1.586
  897SOL     OW 3617   3.338   1.307   1.491
  897SOL    HW2 3618   3.412   1.262   1.531
  897SOL    HW3 3619   3.261   1.262   1.525
  897SOL    MW4 3620   3.338   1.295   1.501
  898SOL     OW 3621   3.353   1.561   1.583
  898SOL    HW2 3622   3.375   1.540   1.674
  898SOL    HW3 3623   3.359   1.477   1.537
  898SOL    MW4 3624   3.357   1.547   1.589
  899SOL     OW 3625   3.128   1.643   1.449
  899SOL    HW2 3626   3.205   1.602   1.489
  899SOL    HW3 3627   3.054   1.593   1.484
  899SOL    MW4 3628   3.128   1.631   1.459
  900SOL     OW 3629   3.123   1.898   1.605
  900SOL    HW2 3630   3.131   1.811   1.566
  900SOL    HW3 3631   3.052   1.940   1.556
  900SOL    MW4 3632   3.115   1.892   1.593
  901SOL     OW 3633   3.338   2.055   1.519
  901SOL    HW2 3634   3.275   1.992   1.556
  901SOL    HW3 3635   3.332   2.042   1.424
  901SOL    MW4 3636   3.329   2.045   1.511
  902SOL     OW 3637   3.366   2.323   1.614
  902SOL    HW2 3638   3.446   2.355   1.572
  902SOL    HW3 3639   3.355   2.234   1.581
  902SOL    MW4 3640   3.375   2.315   1.604
  903SOL     OW 3641   3.153   2.452   1.501
  903SOL    HW2 3642   3.224   2.406   1.545
  903SOL    HW3 3643   3.074   2.404   1.526
  903SOL    MW4 3644   3.152   2.440   1.510
  904SOL     OW 3645   3.137   2.726   1.619
  904SOL    HW2 3646   3.219   2.760   1.583
  904SOL    HW3 3647   3.128   2.639   1.581
  904SOL    MW4 3648   3.147   2.719   1.609
  905SOL     OW 3649   3.373   2.813   1.525
  905SOL    HW2 3650   3.379   2.908   1.532
  905SOL    HW3 3651   3.362   2.796   1.431
  905SOL    MW4 3652   3.372   2.823   1.513
  906SOL     OW 3653   3.379   3.091   1.620
  906SOL    HW2 3654   3.357   3.083   1.713
  906SOL    HW3 3655   3.458   3.145   1.619
  906SOL    MW4 3656   3.387   3.097   1.632
  907SOL     OW 3657   3.158   3.262   1.528
  907SOL    HW2 3658   3.227   3.203   1.557
  907SOL    HW3 3659   3.164   3.261   1.432
  907SOL    MW4 3660   3.168   3.254   1.519
  908SOL     OW 3661   3.183   3.506   1.657
  908SOL    HW2 3662   3.177   3.427   1.604
  908SOL    HW3 3663   3.104   3.556   1.635
  908SOL    MW4 3664   3.172   3.502   1.647
  909SOL     OW 3665   3.382   3.618   1.503
  909SOL    HW2 3666   3.457   3.580   1.548
  909SOL    HW3 3667   3.306   3.584   1.550
  909SOL    MW4 3668   3.382   3.608   1.515
  910SOL     OW 3669   3.387   3.869   1.627
  910SOL    HW2 3670   3.309   3.916   1.599
  910SOL    HW3 3671   3.373   3.779   1.598
  910SOL    MW4 3672   3.375   3.863   1.619
  911SOL     OW 3673   3.139   3.964   1.509
  911SOL    HW2 3674   3.145   4.052   1.545
  911SOL    HW3 3675   3.064   3.925   1.554
  911SOL    MW4 3676   3.130   3.970   1.520
  912SOL     OW 3677   3.122   4.240   1.607
  912SOL    HW2 3678   3.115   4.235   1.702
  912SOL    HW3 3679   3.035   4.266   1.578
  912SOL    MW4 3680   3.109   4.243   1.616
  913SOL     OW 3681   3.328   4.382   1.473
  913SOL    HW2 3682   3.250   4.349   1.517
  913SOL    HW3 3683   3.313   4.365   1.380
  913SOL    MW4 3684   3.316   4.375   1.467
  914SOL     OW 3685   3.806   4.631   1.643
  914SOL    HW2 3686   3.820   4.627   1.738
  914SOL    HW3 3687   3.871   4.694   1.612
  914SOL    MW4 3688   3.816   4.639   1.651
  915SOL     OW 3689   3.594   0.111   1.533
  915SOL    HW2 3690   3.660   0.055   1.573
  915SOL    HW3 3691   3.617   0.113   1.440
  915SOL    MW4 3692   3.606   0.104   1.526
  916SOL     OW 3693   3.630   0.381   1.612
  916SOL    HW2 3694   3.616   0.290   1.586
  916SOL    HW3 3695   3.545   0.423   1.598
  916SOL    MW4 3696   3.617   0.375   1.607
  917SOL     OW 3697   3.829   0.513   1.477
  917SOL    HW2 3698   3.759   0.459   1.515
  917SOL    HW3 3699   3.826   0.494   1.383
  917SOL    MW4 3700   3.819   0.503   1.470
  918SOL     OW 3701   3.826   0.797   1.587
  918SOL    HW2 3702   3.744   0.842   1.567
  918SOL    HW3 3703   3.810   0.706   1.563
  918SOL    MW4 3704   3.813   0.791   1.581
  919SOL     OW 3705   3.590   0.908   1.487
  919SOL    HW2 3706   3.522   0.847   1.514
  919SOL    HW3 3707   3.592   0.903   1.392
  919SOL    MW4 3708   3.581   0.899   1.478
  920SOL     OW 3709   3.577   1.177   1.558
  920SOL    HW2 3710   3.663   1.214   1.539
  920SOL    HW3 3711   3.585   1.085   1.533
  920SOL    MW4 3712   3.589   1.170   1.552
  921SOL     OW 3713   3.827   1.281   1.461
  921SOL    HW2 3714   3.890   1.228   1.511
  921SOL    HW3 3715   3.841   1.371   1.491
  921SOL    MW4 3716   3.837   1.286   1.472
  922SOL     OW 3717   3.818   1.548   1.574
  922SOL    HW2 3718   3.805   1.533   1.668
  922SOL    HW3 3719   3.752   1.613   1.550
  922SOL    MW4 3720   3.808   1.555   1.583
  923SOL     OW 3721   3.582   1.681   1.481
  923SOL    HW2 3722   3.502   1.645   1.519
  923SOL    HW3 3723   3.570   1.669   1.387
  923SOL    MW4 3724   3.570   1.675   1.474
  924SOL     OW 3725   3.595   1.937   1.584
  924SOL    HW2 3726   3.594   1.854   1.537
  924SOL    HW3 3727   3.513   1.980   1.559
  924SOL    MW4 3728   3.584   1.932   1.574
  925SOL     OW 3729   3.839   2.049   1.527
  925SOL    HW2 3730   3.835   2.142   1.549
  925SOL    HW3 3731   3.755   2.013   1.555
  925SOL    MW4 3732   3.827   2.056   1.534
  926SOL     OW 3733   3.827   2.312   1.613
  926SOL    HW2 3734   3.850   2.289   1.703
  926SOL    HW3 3735   3.889   2.380   1.588
  926SOL    MW4 3736   3.838   2.318   1.622
  927SOL     OW 3737   3.597   2.434   1.517
  927SOL    HW2 3738   3.598   2.528   1.536
  927SOL    HW3 3739   3.663   2.397   1.576
  927SOL    MW4 3740   3.606   2.442   1.527
  928SOL     OW 3741   3.600   2.701   1.602
  928SOL    HW2 3742   3.606   2.701   1.698
  928SOL    HW3 3743   3.510   2.728   1.583
  928SOL    MW4 3744   3.589   2.705   1.612
  929SOL     OW 3745   3.821   2.835   1.523
  929SOL    HW2 3746   3.906   2.794   1.540
  929SOL    HW3 3747   3.758   2.778   1.567
  929SOL    MW4 3748   3.824   2.822   1.531
  930SOL     OW 3749   3.824   3.096   1.631
  930SOL    HW2 3750   3.905   3.135   1.599
  930SOL    HW3 3751   3.824   3.008   1.593
  930SOL    MW4 3752   3.835   3.090   1.622
  931SOL     OW 3753   3.599   3.264   1.555
  931SOL    HW2 3754   3.666   3.202   1.582
  931SOL    HW3 3755   3.602   3.264   1.459
  931SOL    MW4 3756   3.608   3.256   1.546
  932SOL     OW 3757   3.590   3.523   1.652
  932SOL    HW2 3758   3.672   3.548   1.609
  932SOL    HW3 3759   3.572   3.435   1.619
  932SOL    MW4 3760   3.598   3.515   1.642
  933SOL     OW 3761   3.813   3.608   1.509
  933SOL    HW2 3762   3.887   3.551   1.532
  933SOL    HW3 3763   3.830   3.690   1.555
  933SOL    MW4 3764   3.825   3.611   1.518
  934SOL     OW 3765   3.819   3.867   1.587
  934SOL    HW2 3766   3.886   3.925   1.551
  934SOL    HW3 3767   3.736   3.907   1.562
  934SOL    MW4 3768   3.817   3.880   1.579
  935SOL     OW 3769   3.593   3.984   1.486
  935SOL    HW2 3770   3.587   4.073   1.520
  935SOL    HW3 3771   3.515   3.940   1.520
  935SOL    MW4 3772   3.582   3.990   1.495
  936SOL     OW 3773   3.580   4.245   1.580
  936SOL    HW2 3774   3.578   4.253   1.675
  936SOL    HW3 3775   3.496   4.281   1.552
  936SOL    MW4 3776   3.569   4.251   1.589
  937SOL     OW 3777   3.790   4.389   1.495
  937SOL    HW2 3778   3.723   4.334   1.535
  937SOL    HW3 3779   3.787   4.471   1.544
  937SOL    MW4 3780   3.781   4.393   1.507
  938SOL     OW 3781   4.232   0.006   1.602
  938SOL    HW2 3782   4.246  -0.005   1.696
  938SOL    HW3 3783   4.243  -0.082   1.566
  938SOL    MW4 3784   4.235  -0.007   1.610
  939SOL     OW 3785   4.002   0.143   1.501
  939SOL    HW2 3786   4.022   0.236   1.510
  939SOL    HW3 3787   4.080   0.098   1.534
  939SOL    MW4 3788   4.015   0.149   1.507
  940SOL     OW 3789   4.074   0.410   1.567
  940SOL    HW2 3790   4.059   0.398   1.661
  940SOL    HW3 3791   3.988   0.435   1.532
  940SOL    MW4 3792   4.061   0.412   1.575
  941SOL     OW 3793   4.308   0.508   1.476
  941SOL    HW2 3794   4.223   0.487   1.514
  941SOL    HW3 3795   4.366   0.439   1.508
  941SOL    MW4 3796   4.304   0.496   1.485
  942SOL     OW 3797   4.277   0.762   1.599
  942SOL    HW2 3798   4.284   0.670   1.573
  942SOL    HW3 3799   4.357   0.803   1.566
  942SOL    MW4 3800   4.288   0.755   1.591
  943SOL     OW 3801   4.055   0.893   1.480
  943SOL    HW2 3802   4.126   0.840   1.515
  943SOL    HW3 3803   3.975   0.847   1.505
  943SOL    MW4 3804   4.054   0.880   1.488
  944SOL     OW 3805   4.049   1.160   1.571
  944SOL    HW2 3806   4.069   1.156   1.664
  944SOL    HW3 3807   4.057   1.069   1.541
  944SOL    MW4 3808   4.053   1.148   1.579
  945SOL     OW 3809   4.296   1.241   1.435
  945SOL    HW2 3810   4.224   1.192   1.474
  945SOL    HW3 3811   4.374   1.206   1.478
  945SOL    MW4 3812   4.297   1.230   1.446
  946SOL     OW 3813   4.267   1.486   1.568
  946SOL    HW2 3814   4.276   1.401   1.526
  946SOL    HW3 3815   4.349   1.531   1.548
  946SOL    MW4 3816   4.279   1.481   1.560
  947SOL     OW 3817   4.056   1.668   1.507
  947SOL    HW2 3818   4.120   1.603   1.535
  947SOL    HW3 3819   3.971   1.626   1.522
  947SOL    MW4 3820   4.053   1.654   1.513
  948SOL     OW 3821   4.092   1.932   1.607
  948SOL    HW2 3822   4.085   1.847   1.564
  948SOL    HW3 3823   4.010   1.976   1.586
  948SOL    MW4 3824   4.080   1.927   1.599
  949SOL     OW 3825   4.325   2.085   1.545
  949SOL    HW2 3826   4.256   2.024   1.573
  949SOL    HW3 3827   4.327   2.077   1.450
  949SOL    MW4 3828   4.316   2.076   1.536
  950SOL     OW 3829   4.243   2.348   1.613
  950SOL    HW2 3830   4.250   2.350   1.708
  950SOL    HW3 3831   4.253   2.256   1.590
  950SOL    MW4 3832   4.245   2.336   1.623
  951SOL     OW 3833   4.025   2.461   1.494
  951SOL    HW2 3834   4.035   2.545   1.540
  951SOL    HW3 3835   4.092   2.405   1.533
  951SOL    MW4 3836   4.035   2.465   1.505
  952SOL     OW 3837   4.057   2.694   1.609
  952SOL    HW2 3838   4.038   2.668   1.699
  952SOL    HW3 3839   4.147   2.725   1.612
  952SOL    MW4 3840   4.066   2.695   1.621
  953SOL     OW 3841   4.309   2.820   1.558
  953SOL    HW2 3842   4.307   2.911   1.586
  953SOL    HW3 3843   4.281   2.822   1.467
  953SOL    MW4 3844   4.305   2.832   1.550
  954SOL     OW 3845   4.308   3.088   1.599
  954SOL    HW2 3846   4.312   3.094   1.694
  954SOL    HW3 3847   4.389   3.129   1.569
  954SOL    MW4 3848   4.319   3.094   1.608
  955SOL     OW 3849   4.063   3.195   1.530
  955SOL    HW2 3850   4.058   3.284   1.564
  955SOL    HW3 3851   4.148   3.163   1.561
  955SOL    MW4 3852   4.074   3.203   1.539
  956SOL     OW 3853   4.041   3.449   1.614
  956SOL    HW2 3854   4.043   3.438   1.709
  956SOL    HW3 3855   4.107   3.516   1.596
  956SOL    MW4 3856   4.050   3.456   1.624
  957SOL     OW 3857   4.259   3.625   1.537
  957SOL    HW2 3858   4.249   3.714   1.570
  957SOL    HW3 3859   4.237   3.631   1.444
  957SOL    MW4 3860   4.255   3.637   1.529
  958SOL     OW 3861   4.243   3.891   1.621
  958SOL    HW2 3862   4.158   3.924   1.591
  958SOL    HW3 3863   4.307   3.936   1.566
  958SOL    MW4 3864   4.240   3.901   1.610
  959SOL     OW 3865   4.024   4.021   1.494
  959SOL    HW2 3866   4.022   4.112   1.525
  959SOL    HW3 3867   4.044   4.028   1.401
  959SOL    MW4 3868   4.026   4.034   1.486
  960SOL     OW 3869   4.028   4.293   1.605
  960SOL    HW2 3870   4.021   4.272   1.698
  960SOL    HW3 3871   3.945   4.335   1.583
  960SOL    MW4 3872   4.016   4.296   1.614
  961SOL     OW 3873   4.260   4.421   1.510
  961SOL    HW2 3874   4.176   4.400   1.551
  961SOL    HW3 3875   4.252   4.387   1.421
  961SOL    MW4 3876   4.248   4.414   1.504
  962SOL     OW 3877   0.257   0.008   1.918
  962SOL    HW2 3878   0.341   0.047   1.944
  962SOL    HW3 3879   0.260   0.006   1.822
  962SOL    MW4 3880   0.268   0.013   1.909
  963SOL     OW 3881   0.028   0.157   1.998
  963SOL    HW2 3882   0.022   0.226   1.932
  963SOL    HW3 3883   0.111   0.113   1.979
  963SOL    MW4 3884   0.038   0.160   1.987
  964SOL     OW 3885   4.464   0.349   1.811
  964SOL    HW2 3886   4.391   0.378   1.866
  964SOL    HW3 3887   4.542   0.386   1.853
  964SOL    MW4 3888   4.465   0.358   1.824
  965SOL     OW 3889   0.187   0.417   1.976
  965SOL    HW2 3890   0.271   0.391   1.938
  965SOL    HW3 3891   0.191   0.512   1.981
  965SOL    MW4 3892   0.199   0.426   1.972
  966SOL     OW 3893   0.208   0.684   1.887
  966SOL    HW2 3894   0.279   0.737   1.925
  966SOL    HW3 3895   0.217   0.695   1.792
  966SOL    MW4 3896   0.219   0.692   1.880
  967SOL     OW 3897   0.007   0.869   1.982
  967SOL    HW2 3898  -0.073   0.824   1.955
  967SOL    HW3 3899   0.078   0.811   1.955
  967SOL    MW4 3900   0.006   0.855   1.975
  968SOL     OW 3901   0.015   1.110   1.865
  968SOL    HW2 3902  -0.073   1.136   1.892
  968SOL    HW3 3903   0.031   1.028   1.912
  968SOL    MW4 3904   0.006   1.103   1.875
  969SOL     OW 3905   0.205   1.267   1.998
  969SOL    HW2 3906   0.199   1.339   1.936
  969SOL    HW3 3907   0.133   1.209   1.974
  969SOL    MW4 3908   0.195   1.269   1.987
  970SOL     OW 3909   0.199   1.505   1.865
  970SOL    HW2 3910   0.273   1.540   1.915
  970SOL    HW3 3911   0.122   1.549   1.902
  970SOL    MW4 3912   0.199   1.515   1.876
  971SOL     OW 3913   4.459   1.645   1.970
  971SOL    HW2 3914   4.472   1.628   2.063
  971SOL    HW3 3915   4.388   1.586   1.944
  971SOL    MW4 3916   4.451   1.635   1.979
  972SOL     OW 3917   0.008   1.913   1.884
  972SOL    HW2 3918  -0.070   1.951   1.925
  972SOL    HW3 3919   0.011   1.823   1.916
  972SOL    MW4 3920  -0.002   1.906   1.894
  973SOL     OW 3921   0.230   2.044   1.988
  973SOL    HW2 3922   0.220   2.130   1.947
  973SOL    HW3 3923   0.147   1.999   1.970
  973SOL    MW4 3924   0.218   2.049   1.980
  974SOL     OW 3925   0.251   2.300   1.882
  974SOL    HW2 3926   0.322   2.352   1.920
  974SOL    HW3 3927   0.171   2.335   1.921
  974SOL    MW4 3928   0.250   2.312   1.892
  975SOL     OW 3929   0.049   2.431   2.009
  975SOL    HW2 3930   0.051   2.421   2.104
  975SOL    HW3 3931   0.051   2.526   1.995
  975SOL    MW4 3932   0.050   2.442   2.020
  976SOL     OW 3933   0.029   2.685   1.883
  976SOL    HW2 3934  -0.042   2.750   1.882
  976SOL    HW3 3935   0.052   2.674   1.791
  976SOL    MW4 3936   0.023   2.692   1.871
  977SOL     OW 3937   0.228   2.845   1.997
  977SOL    HW2 3938   0.221   2.933   1.959
  977SOL    HW3 3939   0.164   2.793   1.948
  977SOL    MW4 3940   0.219   2.850   1.986
  978SOL     OW 3941   0.202   3.100   1.908
  978SOL    HW2 3942   0.281   3.138   1.946
  978SOL    HW3 3943   0.220   3.096   1.814
  978SOL    MW4 3944   0.215   3.104   1.901
  979SOL     OW 3945   4.483   3.268   1.978
  979SOL    HW2 3946   4.405   3.220   1.950
  979SOL    HW3 3947   4.557   3.216   1.946
  979SOL    MW4 3948   4.482   3.255   1.970
  980SOL     OW 3949   0.001   3.532   1.886
  980SOL    HW2 3950   0.068   3.577   1.938
  980SOL    HW3 3951  -0.007   3.446   1.927
  980SOL    MW4 3952   0.009   3.527   1.898
  981SOL     OW 3953   0.226   3.633   2.007
  981SOL    HW2 3954   0.226   3.618   2.102
  981SOL    HW3 3955   0.300   3.581   1.975
  981SOL    MW4 3956   0.236   3.624   2.015
  982SOL     OW 3957   0.249   3.898   1.881
  982SOL    HW2 3958   0.313   3.953   1.926
  982SOL    HW3 3959   0.262   3.811   1.919
  982SOL    MW4 3960   0.259   3.894   1.892
  983SOL     OW 3961   0.026   4.008   1.961
  983SOL    HW2 3962   0.026   4.095   1.920
  983SOL    HW3 3963   0.105   3.966   1.927
  983SOL    MW4 3964   0.036   4.014   1.951
  984SOL     OW 3965   0.030   4.272   1.866
  984SOL    HW2 3966  -0.047   4.313   1.905
  984SOL    HW3 3967   0.104   4.322   1.900
  984SOL    MW4 3968   0.030   4.284   1.876
  985SOL     OW 3969   0.241   4.402   2.001
  985SOL    HW2 3970   0.232   4.392   2.096
  985SOL    HW3 3971   0.237   4.497   1.987
  985SOL    MW4 3972   0.239   4.413   2.012
  986SOL     OW 3973   0.701   0.021   1.857
  986SOL    HW2 3974   0.714  -0.072   1.877
  986SOL    HW3 3975   0.700   0.026   1.761
  986SOL    MW4 3976   0.703   0.009   1.847
  987SOL     OW 3977   0.496   0.127   2.020
  987SOL    HW2 3978   0.482   0.208   1.972
  987SOL    HW3 3979   0.573   0.088   1.979
  987SOL    MW4 3980   0.504   0.133   2.008
  988SOL     OW 3981   0.445   0.349   1.855
  988SOL    HW2 3982   0.514   0.407   1.889
  988SOL    HW3 3983   0.449   0.360   1.760
  988SOL    MW4 3984   0.455   0.358   1.847
  989SOL     OW 3985   0.659   0.530   1.939
  989SOL    HW2 3986   0.643   0.539   2.033
  989SOL    HW3 3987   0.740   0.480   1.933
  989SOL    MW4 3988   0.668   0.525   1.951
  990SOL     OW 3989   0.625   0.771   1.849
  990SOL    HW2 3990   0.710   0.811   1.869
  990SOL    HW3 3991   0.636   0.679   1.872
  990SOL    MW4 3992   0.638   0.764   1.855
  991SOL     OW 3993   0.421   0.868   1.993
  991SOL    HW2 3994   0.411   0.956   1.958
  991SOL    HW3 3995   0.484   0.826   1.934
  991SOL    MW4 3996   0.428   0.874   1.981
  992SOL     OW 3997   0.435   1.129   1.909
  992SOL    HW2 3998   0.356   1.181   1.926
  992SOL    HW3 3999   0.457   1.147   1.818
  992SOL    MW4 4000   0.427   1.138   1.899
  993SOL     OW 4001   0.661   1.296   1.996
  993SOL    HW2 4002   0.676   1.287   2.090
  993SOL    HW3 4003   0.590   1.235   1.977
  993SOL    MW4 4004   0.654   1.287   2.006
  994SOL     OW 4005   0.669   1.562   1.900
  994SOL    HW2 4006   0.681   1.474   1.935
  994SOL    HW3 4007   0.668   1.550   1.805
  994SOL    MW4 4008   0.670   1.549   1.892
  995SOL     OW 4009   0.420   1.626   1.993
  995SOL    HW2 4010   0.431   1.634   2.088
  995SOL    HW3 4011   0.504   1.592   1.961
  995SOL    MW4 4012   0.433   1.623   2.001
  996SOL     OW 4013   0.447   1.894   1.894
  996SOL    HW2 4014   0.431   1.805   1.925
  996SOL    HW3 4015   0.366   1.941   1.912
  996SOL    MW4 4016   0.434   1.888   1.900
  997SOL     OW 4017   0.672   2.021   1.989
  997SOL    HW2 4018   0.662   2.035   2.083
  997SOL    HW3 4019   0.592   1.976   1.963
  997SOL    MW4 4020   0.660   2.017   1.998
  998SOL     OW 4021   0.703   2.309   1.930
  998SOL    HW2 4022   0.681   2.219   1.952
  998SOL    HW3 4023   0.690   2.315   1.835
  998SOL    MW4 4024   0.698   2.298   1.920
  999SOL     OW 4025   0.469   2.440   1.983
  999SOL    HW2 4026   0.464   2.434   2.078
  999SOL    HW3 4027   0.557   2.411   1.961
  999SOL    MW4 4028   0.480   2.435   1.993
 1000SOL     OW 4029   0.471   2.722   1.921
 1000SOL    HW2 4030   0.469   2.637   1.966
 1000SOL    HW3 4031   0.391   2.766   1.951
 1000SOL    MW4 4032   0.460   2.717   1.931
 1001SOL     OW 4033   0.697   2.841   2.030
 1001SOL    HW2 4034   0.679   2.858   2.123
 1001SOL    HW3 4035   0.617   2.799   1.998
 1001SOL    MW4 4036   0.684   2.838   2.038
 1002SOL     OW 4037   0.656   3.102   1.956
 1002SOL    HW2 4038   0.677   3.010   1.973
 1002SOL    HW3 4039   0.662   3.110   1.861
 1002SOL    MW4 4040   0.660   3.091   1.946
 1003SOL     OW 4041   0.418   3.221   2.002
 1003SOL    HW2 4042   0.432   3.315   1.991
 1003SOL    HW3 4043   0.502   3.182   1.978
 1003SOL    MW4 4044   0.431   3.228   1.997
 1004SOL     OW 4045   0.454   3.494   1.927
 1004SOL    HW2 4046   0.524   3.550   1.960
 1004SOL    HW3 4047   0.442   3.522   1.836
 1004SOL    MW4 4048   0.462   3.505   1.919
 1005SOL     OW 4049   0.689   3.651   1.983
 1005SOL    HW2 4050   0.775   3.625   1.949
 1005SOL    HW3 4051   0.689   3.747   1.978
 1005SOL    MW4 4052   0.700   3.660   1.978
 1006SOL     OW 4053   0.673   3.914   1.884
 1006SOL    HW2 4054   0.756   3.953   1.912
 1006SOL    HW3 4055   0.684   3.898   1.790
 1006SOL    MW4 4056   0.685   3.917   1.875
 1007SOL     OW 4057   0.440   4.046   1.997
 1007SOL    HW2 4058   0.441   4.133   1.958
 1007SOL    HW3 4059   0.510   3.998   1.953
 1007SOL    MW4 4060   0.449   4.051   1.986
 1008SOL     OW 4061   0.474   4.313   1.873
 1008SOL    HW2 4062   0.388   4.351   1.893
 1008SOL    HW3 4063   0.471   4.294   1.779
 1008SOL    MW4 4064   0.462   4.315   1.863
 1009SOL     OW 4065   0.724   4.437   1.957
 1009SOL    HW2 4066   0.796   4.395   1.910
 1009SOL    HW3 4067   0.647   4.387   1.932
 1009SOL    MW4 4068   0.723   4.425   1.947
 1010SOL     OW 4069   1.123   0.002   1.876
 1010SOL    HW2 4070   1.200   0.049   1.907
 1010SOL    HW3 4071   1.137  -0.089   1.903
 1010SOL    MW4 4072   1.135  -0.004   1.884
 1011SOL     OW 4073   0.899   0.100   2.012
 1011SOL    HW2 4074   0.976   0.063   1.970
 1011SOL    HW3 4075   0.825   0.067   1.961
 1011SOL    MW4 4076   0.899   0.091   2.000
 1012SOL     OW 4077   0.899   0.368   1.903
 1012SOL    HW2 4078   0.969   0.423   1.938
 1012SOL    HW3 4079   0.907   0.286   1.951
 1012SOL    MW4 4080   0.909   0.364   1.914
 1013SOL     OW 4081   1.114   0.501   2.021
 1013SOL    HW2 4082   1.194   0.463   1.986
 1013SOL    HW3 4083   1.110   0.588   1.982
 1013SOL    MW4 4084   1.124   0.508   2.011
 1014SOL     OW 4085   1.121   0.749   1.884
 1014SOL    HW2 4086   1.198   0.797   1.915
 1014SOL    HW3 4087   1.049   0.812   1.891
 1014SOL    MW4 4088   1.122   0.764   1.889
 1015SOL     OW 4089   0.865   0.898   1.910
 1015SOL    HW2 4090   0.871   0.896   2.005
 1015SOL    HW3 4091   0.866   0.991   1.887
 1015SOL    MW4 4092   0.866   0.910   1.920
 1016SOL     OW 4093   0.866   1.158   1.848
 1016SOL    HW2 4094   0.797   1.217   1.877
 1016SOL    HW3 4095   0.869   1.169   1.753
 1016SOL    MW4 4096   0.857   1.167   1.839
 1017SOL     OW 4097   1.097   1.271   1.965
 1017SOL    HW2 4098   1.095   1.364   1.942
 1017SOL    HW3 4099   1.021   1.234   1.920
 1017SOL    MW4 4100   1.087   1.278   1.956
 1018SOL     OW 4101   1.098   1.547   1.874
 1018SOL    HW2 4102   1.040   1.616   1.905
 1018SOL    HW3 4103   1.097   1.555   1.779
 1018SOL    MW4 4104   1.090   1.557   1.865
 1019SOL     OW 4105   0.900   1.736   1.974
 1019SOL    HW2 4106   0.909   1.819   1.928
 1019SOL    HW3 4107   0.807   1.715   1.966
 1019SOL    MW4 4108   0.889   1.744   1.967
 1020SOL     OW 4109   0.916   2.006   1.852
 1020SOL    HW2 4110   0.830   2.013   1.893
 1020SOL    HW3 4111   0.897   2.004   1.758
 1020SOL    MW4 4112   0.902   2.007   1.845
 1021SOL     OW 4113   1.128   2.059   2.008
 1021SOL    HW2 4114   1.151   2.149   1.984
 1021SOL    HW3 4115   1.050   2.040   1.955
 1021SOL    MW4 4116   1.121   2.068   1.998
 1022SOL     OW 4117   1.154   2.324   1.908
 1022SOL    HW2 4118   1.231   2.374   1.936
 1022SOL    HW3 4119   1.166   2.311   1.814
 1022SOL    MW4 4120   1.166   2.329   1.899
 1023SOL     OW 4121   0.920   2.458   1.983
 1023SOL    HW2 4122   1.002   2.410   1.968
 1023SOL    HW3 4123   0.851   2.395   1.962
 1023SOL    MW4 4124   0.922   2.443   1.978
 1024SOL     OW 4125   0.958   2.743   1.922
 1024SOL    HW2 4126   0.954   2.650   1.944
 1024SOL    HW3 4127   0.873   2.778   1.948
 1024SOL    MW4 4128   0.946   2.735   1.928
 1025SOL     OW 4129   1.179   2.903   2.011
 1025SOL    HW2 4130   1.174   2.895   2.106
 1025SOL    HW3 4131   1.105   2.851   1.979
 1025SOL    MW4 4132   1.169   2.895   2.019
 1026SOL     OW 4133   1.106   3.135   1.887
 1026SOL    HW2 4134   1.021   3.160   1.924
 1026SOL    HW3 4135   1.120   3.045   1.916
 1026SOL    MW4 4136   1.097   3.126   1.896
 1027SOL     OW 4137   0.887   3.247   2.016
 1027SOL    HW2 4138   0.882   3.232   2.111
 1027SOL    HW3 4139   0.806   3.209   1.982
 1027SOL    MW4 4140   0.876   3.240   2.024
 1028SOL     OW 4141   0.915   3.512   1.908
 1028SOL    HW2 4142   0.903   3.426   1.947
 1028SOL    HW3 4143   0.919   3.495   1.814
 1028SOL    MW4 4144   0.914   3.498   1.901
 1029SOL     OW 4145   1.134   3.666   1.999
 1029SOL    HW2 4146   1.142   3.656   2.094
 1029SOL    HW3 4147   1.055   3.617   1.976
 1029SOL    MW4 4148   1.125   3.658   2.008
 1030SOL     OW 4149   1.152   3.930   1.921
 1030SOL    HW2 4150   1.148   3.837   1.942
 1030SOL    HW3 4151   1.169   3.933   1.827
 1030SOL    MW4 4152   1.154   3.918   1.911
 1031SOL     OW 4153   0.909   4.048   1.977
 1031SOL    HW2 4154   0.895   4.036   2.071
 1031SOL    HW3 4155   0.991   4.002   1.959
 1031SOL    MW4 4156   0.918   4.040   1.987
 1032SOL     OW 4157   0.925   4.303   1.847
 1032SOL    HW2 4158   0.989   4.346   1.904
 1032SOL    HW3 4159   0.911   4.217   1.888
 1032SOL    MW4 4160   0.932   4.298   1.860
 1033SOL     OW 4161   1.109   4.419   1.995
 1033SOL    HW2 4162   1.119   4.419   2.090
 1033SOL    HW3 4163   1.188   4.375   1.963
 1033SOL    MW4 4164   1.121   4.413   2.003
 1034SOL     OW 4165   1.582   4.654   1.879
 1034SOL    HW2 4166   1.665   4.689   1.913
 1034SOL    HW3 4167   1.571   4.570   1.924
 1034SOL    MW4 4168   1.591   4.648   1.889
 1035SOL     OW 4169   1.343   0.104   1.994
 1035SOL    HW2 4170   1.352   0.107   2.089
 1035SOL    HW3 4171   1.419   0.054   1.964
 1035SOL    MW4 4172   1.354   0.098   2.003
 1036SOL     OW 4173   1.325   0.374   1.897
 1036SOL    HW2 4174   1.323   0.286   1.935
 1036SOL    HW3 4175   1.322   0.359   1.802
 1036SOL    MW4 4176   1.324   0.360   1.890
 1037SOL     OW 4177   1.551   0.536   1.978
 1037SOL    HW2 4178   1.631   0.494   1.947
 1037SOL    HW3 4179   1.480   0.487   1.937
 1037SOL    MW4 4180   1.552   0.524   1.968
 1038SOL     OW 4181   1.574   0.774   1.849
 1038SOL    HW2 4182   1.649   0.814   1.892
 1038SOL    HW3 4183   1.559   0.693   1.897
 1038SOL    MW4 4184   1.582   0.769   1.861
 1039SOL     OW 4185   1.345   0.886   1.988
 1039SOL    HW2 4186   1.341   0.879   2.083
 1039SOL    HW3 4187   1.429   0.846   1.965
 1039SOL    MW4 4188   1.355   0.880   1.997
 1040SOL     OW 4189   1.333   1.157   1.888
 1040SOL    HW2 4190   1.329   1.065   1.913
 1040SOL    HW3 4191   1.245   1.190   1.904
 1040SOL    MW4 4192   1.321   1.149   1.893
 1041SOL     OW 4193   1.565   1.277   2.011
 1041SOL    HW2 4194   1.570   1.358   1.960
 1041SOL    HW3 4195   1.487   1.232   1.978
 1041SOL    MW4 4196   1.555   1.282   2.000
 1042SOL     OW 4197   1.581   1.522   1.883
 1042SOL    HW2 4198   1.640   1.586   1.923
 1042SOL    HW3 4199   1.493   1.554   1.904
 1042SOL    MW4 4200   1.577   1.535   1.891
 1043SOL     OW 4201   1.336   1.648   1.985
 1043SOL    HW2 4202   1.341   1.656   2.080
 1043SOL    HW3 4203   1.250   1.609   1.969
 1043SOL    MW4 4204   1.325   1.644   1.995
 1044SOL     OW 4205   1.321   1.899   1.874
 1044SOL    HW2 4206   1.325   1.824   1.934
 1044SOL    HW3 4207   1.248   1.951   1.906
 1044SOL    MW4 4208   1.312   1.896   1.886
 1045SOL     OW 4209   1.540   2.060   1.960
 1045SOL    HW2 4210   1.544   2.148   1.921
 1045SOL    HW3 4211   1.454   2.026   1.935
 1045SOL    MW4 4212   1.529   2.067   1.952
 1046SOL     OW 4213   1.577   2.321   1.877
 1046SOL    HW2 4214   1.663   2.351   1.907
 1046SOL    HW3 4215   1.577   2.338   1.783
 1046SOL    MW4 4216   1.588   2.327   1.869
 1047SOL     OW 4217   1.367   2.471   1.999
 1047SOL    HW2 4218   1.361   2.559   1.962
 1047SOL    HW3 4219   1.426   2.424   1.940
 1047SOL    MW4 4220   1.374   2.476   1.986
 1048SOL     OW 4221   1.351   2.726   1.900
 1048SOL    HW2 4222   1.295   2.794   1.938
 1048SOL    HW3 4223   1.345   2.740   1.805
 1048SOL    MW4 4224   1.343   2.737   1.892
 1049SOL     OW 4225   1.590   2.853   1.996
 1049SOL    HW2 4226   1.663   2.800   1.964
 1049SOL    HW3 4227   1.512   2.805   1.969
 1049SOL    MW4 4228   1.589   2.840   1.988
 1050SOL     OW 4229   1.562   3.110   1.908
 1050SOL    HW2 4230   1.574   3.018   1.930
 1050SOL    HW3 4231   1.574   3.113   1.813
 1050SOL    MW4 4232   1.565   3.098   1.898
 1051SOL     OW 4233   1.336   3.270   1.999
 1051SOL    HW2 4234   1.408   3.217   1.964
 1051SOL    HW3 4235   1.257   3.220   1.978
 1051SOL    MW4 4236   1.335   3.256   1.992
 1052SOL     OW 4237   1.334   3.519   1.866
 1052SOL    HW2 4238   1.350   3.433   1.905
 1052SOL    HW3 4239   1.266   3.558   1.920
 1052SOL    MW4 4240   1.327   3.513   1.878
 1053SOL     OW 4241   1.547   3.651   1.986
 1053SOL    HW2 4242   1.530   3.653   2.080
 1053SOL    HW3 4243   1.481   3.590   1.952
 1053SOL    MW4 4244   1.536   3.643   1.994
 1054SOL     OW 4245   1.565   3.903   1.832
 1054SOL    HW2 4246   1.639   3.936   1.884
 1054SOL    HW3 4247   1.546   3.817   1.870
 1054SOL    MW4 4248   1.572   3.896   1.844
 1055SOL     OW 4249   1.403   4.068   1.972
 1055SOL    HW2 4250   1.464   4.011   1.926
 1055SOL    HW3 4251   1.317   4.029   1.958
 1055SOL    MW4 4252   1.400   4.055   1.964
 1056SOL     OW 4253   1.332   4.308   1.861
 1056SOL    HW2 4254   1.349   4.223   1.902
 1056SOL    HW3 4255   1.316   4.287   1.769
 1056SOL    MW4 4256   1.332   4.294   1.854
 1057SOL     OW 4257   1.563   4.410   1.983
 1057SOL    HW2 4258   1.570   4.399   2.078
 1057SOL    HW3 4259   1.480   4.368   1.960
 1057SOL    MW4 4260   1.553   4.403   1.992
 1058SOL     OW 4261   1.982   0.006   1.886
 1058SOL    HW2 4262   2.072   0.035   1.900
 1058SOL    HW3 4263   1.979  -0.082   1.924
 1058SOL    MW4 4264   1.993  -0.002   1.893
 1059SOL     OW 4265   1.781   0.164   1.994
 1059SOL    HW2 4266   1.789   0.148   2.088
 1059SOL    HW3 4267   1.853   0.113   1.956
 1059SOL    MW4 4268   1.791   0.155   2.001
 1060SOL     OW 4269   1.781   0.415   1.878
 1060SOL    HW2 4270   1.788   0.330   1.922
 1060SOL    HW3 4271   1.805   0.397   1.787
 1060SOL    MW4 4272   1.785   0.401   1.872
 1061SOL     OW 4273   2.011   0.495   1.991
 1061SOL    HW2 4274   2.019   0.573   1.936
 1061SOL    HW3 4275   1.929   0.455   1.964
 1061SOL    MW4 4276   2.001   0.500   1.980
 1062SOL     OW 4277   2.015   0.767   1.893
 1062SOL    HW2 4278   2.093   0.810   1.929
 1062SOL    HW3 4279   2.025   0.776   1.798
 1062SOL    MW4 4280   2.027   0.774   1.885
 1063SOL     OW 4281   1.774   0.867   2.002
 1063SOL    HW2 4282   1.778   0.960   1.979
 1063SOL    HW3 4283   1.852   0.829   1.962
 1063SOL    MW4 4284   1.785   0.874   1.994
 1064SOL     OW 4285   1.793   1.116   1.931
 1064SOL    HW2 4286   1.714   1.162   1.958
 1064SOL    HW3 4287   1.783   1.106   1.836
 1064SOL    MW4 4288   1.781   1.121   1.922
 1065SOL     OW 4289   2.007   1.290   1.969
 1065SOL    HW2 4290   2.072   1.233   1.928
 1065SOL    HW3 4291   1.924   1.245   1.955
 1065SOL    MW4 4292   2.005   1.277   1.962
 1066SOL     OW 4293   1.988   1.545   1.893
 1066SOL    HW2 4294   1.987   1.462   1.940
 1066SOL    HW3 4295   2.003   1.521   1.802
 1066SOL    MW4 4296   1.990   1.531   1.887
 1067SOL     OW 4297   1.773   1.691   1.999
 1067SOL    HW2 4298   1.756   1.761   1.936
 1067SOL    HW3 4299   1.849   1.645   1.963
 1067SOL    MW4 4300   1.781   1.694   1.986
 1068SOL     OW 4301   1.776   1.928   1.865
 1068SOL    HW2 4302   1.697   1.969   1.900
 1068SOL    HW3 4303   1.768   1.937   1.770
 1068SOL    MW4 4304   1.764   1.935   1.857
 1069SOL     OW 4305   2.002   2.036   1.977
 1069SOL    HW2 4306   2.069   1.981   1.937
 1069SOL    HW3 4307   1.919   2.006   1.940
 1069SOL    MW4 4308   2.000   2.025   1.967
 1070SOL     OW 4309   2.053   2.295   1.882
 1070SOL    HW2 4310   2.126   2.339   1.925
 1070SOL    HW3 4311   2.057   2.205   1.915
 1070SOL    MW4 4312   2.063   2.289   1.892
 1071SOL     OW 4313   1.817   2.431   1.972
 1071SOL    HW2 4314   1.801   2.413   2.065
 1071SOL    HW3 4315   1.893   2.377   1.950
 1071SOL    MW4 4316   1.825   2.422   1.981
 1072SOL     OW 4317   1.802   2.700   1.892
 1072SOL    HW2 4318   1.803   2.608   1.917
 1072SOL    HW3 4319   1.812   2.700   1.797
 1072SOL    MW4 4320   1.803   2.688   1.883
 1073SOL     OW 4321   2.008   2.850   1.988
 1073SOL    HW2 4322   2.006   2.859   2.083
 1073SOL    HW3 4323   1.940   2.786   1.969
 1073SOL    MW4 4324   1.999   2.843   1.998
 1074SOL     OW 4325   2.055   3.117   1.931
 1074SOL    HW2 4326   1.974   3.149   1.970
 1074SOL    HW3 4327   2.051   3.022   1.941
 1074SOL    MW4 4328   2.044   3.109   1.937
 1075SOL     OW 4329   1.793   3.234   1.996
 1075SOL    HW2 4330   1.782   3.225   2.091
 1075SOL    HW3 4331   1.714   3.194   1.959
 1075SOL    MW4 4332   1.781   3.228   2.004
 1076SOL     OW 4333   1.782   3.523   1.927
 1076SOL    HW2 4334   1.785   3.427   1.932
 1076SOL    HW3 4335   1.693   3.546   1.955
 1076SOL    MW4 4336   1.771   3.513   1.931
 1077SOL     OW 4337   2.042   3.651   1.988
 1077SOL    HW2 4338   2.037   3.736   1.944
 1077SOL    HW3 4339   1.959   3.609   1.968
 1077SOL    MW4 4340   2.030   3.657   1.980
 1078SOL     OW 4341   2.027   3.930   1.902
 1078SOL    HW2 4342   2.110   3.954   1.944
 1078SOL    HW3 4343   2.049   3.921   1.809
 1078SOL    MW4 4344   2.041   3.932   1.895
 1079SOL     OW 4345   1.778   3.986   1.987
 1079SOL    HW2 4346   1.778   4.074   1.950
 1079SOL    HW3 4347   1.854   3.943   1.948
 1079SOL    MW4 4348   1.788   3.992   1.977
 1080SOL     OW 4349   1.786   4.244   1.878
 1080SOL    HW2 4350   1.711   4.301   1.894
 1080SOL    HW3 4351   1.794   4.241   1.783
 1080SOL    MW4 4352   1.777   4.251   1.867
 1081SOL     OW 4353   1.966   4.402   2.006
 1081SOL    HW2 4354   2.050   4.361   1.988
 1081SOL    HW3 4355   1.902   4.346   1.962
 1081SOL    MW4 4356   1.969   4.389   1.998
 1082SOL     OW 4357   2.486   4.647   1.903
 1082SOL    HW2 4358   2.565   4.694   1.928
 1082SOL    HW3 4359   2.484   4.570   1.960
 1082SOL    MW4 4360   2.496   4.643   1.914
 1083SOL     OW 4361   2.238   0.106   1.970
 1083SOL    HW2 4362   2.254   0.104   2.064
 1083SOL    HW3 4363   2.316   0.065   1.932
 1083SOL    MW4 4364   2.250   0.100   1.977
 1084SOL     OW 4365   2.223   0.371   1.864
 1084SOL    HW2 4366   2.221   0.279   1.891
 1084SOL    HW3 4367   2.149   0.412   1.909
 1084SOL    MW4 4368   2.213   0.364   1.874
 1085SOL     OW 4369   2.419   0.494   2.026
 1085SOL    HW2 4370   2.495   0.439   2.008
 1085SOL    HW3 4371   2.352   0.464   1.965
 1085SOL    MW4 4372   2.420   0.483   2.016
 1086SOL     OW 4373   2.427   0.751   1.917
 1086SOL    HW2 4374   2.413   0.671   1.968
 1086SOL    HW3 4375   2.450   0.720   1.829
 1086SOL    MW4 4376   2.428   0.736   1.912
 1087SOL     OW 4377   2.233   0.880   2.045
 1087SOL    HW2 4378   2.250   0.886   2.139
 1087SOL    HW3 4379   2.308   0.832   2.010
 1087SOL    MW4 4380   2.245   0.874   2.053
 1088SOL     OW 4381   2.235   1.121   1.897
 1088SOL    HW2 4382   2.305   1.166   1.944
 1088SOL    HW3 4383   2.224   1.038   1.944
 1088SOL    MW4 4384   2.243   1.116   1.909
 1089SOL     OW 4385   2.455   1.260   1.982
 1089SOL    HW2 4386   2.446   1.274   2.076
 1089SOL    HW3 4387   2.443   1.347   1.943
 1089SOL    MW4 4388   2.452   1.273   1.989
 1090SOL     OW 4389   2.453   1.525   1.921
 1090SOL    HW2 4390   2.384   1.578   1.960
 1090SOL    HW3 4391   2.438   1.531   1.827
 1090SOL    MW4 4392   2.442   1.533   1.914
 1091SOL     OW 4393   2.221   1.671   1.972
 1091SOL    HW2 4394   2.216   1.668   2.067
 1091SOL    HW3 4395   2.135   1.640   1.942
 1091SOL    MW4 4396   2.209   1.667   1.981
 1092SOL     OW 4397   2.239   1.927   1.860
 1092SOL    HW2 4398   2.314   1.969   1.902
 1092SOL    HW3 4399   2.238   1.839   1.897
 1092SOL    MW4 4400   2.249   1.921   1.870
 1093SOL     OW 4401   2.471   2.047   1.968
 1093SOL    HW2 4402   2.561   2.020   1.948
 1093SOL    HW3 4403   2.464   2.136   1.934
 1093SOL    MW4 4404   2.482   2.055   1.961
 1094SOL     OW 4405   2.482   2.311   1.880
 1094SOL    HW2 4406   2.563   2.340   1.922
 1094SOL    HW3 4407   2.412   2.353   1.930
 1094SOL    MW4 4408   2.483   2.320   1.892
 1095SOL     OW 4409   2.248   2.423   2.010
 1095SOL    HW2 4410   2.239   2.423   2.105
 1095SOL    HW3 4411   2.220   2.511   1.984
 1095SOL    MW4 4412   2.243   2.435   2.019
 1096SOL     OW 4413   2.216   2.685   1.902
 1096SOL    HW2 4414   2.161   2.749   1.947
 1096SOL    HW3 4415   2.221   2.716   1.812
 1096SOL    MW4 4416   2.209   2.698   1.896
 1097SOL     OW 4417   2.469   2.784   1.997
 1097SOL    HW2 4418   2.477   2.878   1.981
 1097SOL    HW3 4419   2.382   2.762   1.965
 1097SOL    MW4 4420   2.459   2.793   1.991
 1098SOL     OW 4421   2.452   3.051   1.935
 1098SOL    HW2 4422   2.390   3.110   1.978
 1098SOL    HW3 4423   2.462   3.087   1.847
 1098SOL    MW4 4424   2.445   3.064   1.929
 1099SOL     OW 4425   2.294   3.266   2.002
 1099SOL    HW2 4426   2.283   3.244   2.095
 1099SOL    HW3 4427   2.216   3.231   1.960
 1099SOL    MW4 4428   2.282   3.258   2.009
 1100SOL     OW 4429   2.262   3.517   1.884
 1100SOL    HW2 4430   2.279   3.432   1.925
 1100SOL    HW3 4431   2.179   3.545   1.922
 1100SOL    MW4 4432   2.253   3.510   1.894
 1101SOL     OW 4433   2.478   3.663   1.972
 1101SOL    HW2 4434   2.482   3.635   2.064
 1101SOL    HW3 4435   2.396   3.626   1.940
 1101SOL    MW4 4436   2.468   3.654   1.980
 1102SOL     OW 4437   2.469   3.925   1.892
 1102SOL    HW2 4438   2.391   3.967   1.929
 1102SOL    HW3 4439   2.467   3.836   1.928
 1102SOL    MW4 4440   2.458   3.919   1.902
 1103SOL     OW 4441   2.252   4.050   2.008
 1103SOL    HW2 4442   2.282   4.061   2.098
 1103SOL    HW3 4443   2.233   4.139   1.978
 1103SOL    MW4 4444   2.253   4.063   2.016
 1104SOL     OW 4445   2.207   4.308   1.918
 1104SOL    HW2 4446   2.292   4.337   1.951
 1104SOL    HW3 4447   2.222   4.291   1.825
 1104SOL    MW4 4448   2.220   4.310   1.910
 1105SOL     OW 4449   2.455   4.401   2.022
 1105SOL    HW2 4450   2.456   4.378   2.115
 1105SOL    HW3 4451   2.529   4.353   1.985
 1105SOL    MW4 4452   2.465   4.392   2.029
 1106SOL     OW 4453   2.938   4.619   1.844
 1106SOL    HW2 4454   2.994   4.673   1.899
 1106SOL    HW3 4455   2.947   4.531   1.880
 1106SOL    MW4 4456   2.947   4.614   1.856
 1107SOL     OW 4457   2.720   0.104   1.968
 1107SOL    HW2 4458   2.716   0.090   2.063
 1107SOL    HW3 4459   2.798   0.057   1.939
 1107SOL    MW4 4460   2.730   0.096   1.977
 1108SOL     OW 4461   2.643   0.357   1.924
 1108SOL    HW2 4462   2.724   0.398   1.954
 1108SOL    HW3 4463   2.660   0.263   1.930
 1108SOL    MW4 4464   2.656   0.350   1.929
 1109SOL     OW 4465   2.893   0.481   1.958
 1109SOL    HW2 4466   2.980   0.453   1.931
 1109SOL    HW3 4467   2.881   0.567   1.918
 1109SOL    MW4 4468   2.903   0.489   1.949
 1110SOL     OW 4469   2.877   0.733   1.850
 1110SOL    HW2 4470   2.956   0.769   1.891
 1110SOL    HW3 4471   2.805   0.784   1.887
 1110SOL    MW4 4472   2.878   0.744   1.860
 1111SOL     OW 4473   2.673   0.883   1.995
 1111SOL    HW2 4474   2.677   0.970   1.955
 1111SOL    HW3 4475   2.591   0.845   1.962
 1111SOL    MW4 4476   2.663   0.889   1.985
 1112SOL     OW 4477   2.678   1.143   1.893
 1112SOL    HW2 4478   2.598   1.190   1.918
 1112SOL    HW3 4479   2.686   1.158   1.799
 1112SOL    MW4 4480   2.669   1.151   1.884
 1113SOL     OW 4481   2.911   1.251   2.004
 1113SOL    HW2 4482   2.907   1.346   1.990
 1113SOL    HW3 4483   2.827   1.218   1.973
 1113SOL    MW4 4484   2.899   1.259   1.998
 1114SOL     OW 4485   2.913   1.506   1.868
 1114SOL    HW2 4486   3.000   1.530   1.901
 1114SOL    HW3 4487   2.926   1.489   1.775
 1114SOL    MW4 4488   2.926   1.507   1.860
 1115SOL     OW 4489   2.694   1.665   1.978
 1115SOL    HW2 4490   2.762   1.611   1.938
 1115SOL    HW3 4491   2.614   1.613   1.971
 1115SOL    MW4 4492   2.692   1.651   1.972
 1116SOL     OW 4493   2.710   1.922   1.890
 1116SOL    HW2 4494   2.771   1.968   1.947
 1116SOL    HW3 4495   2.712   1.831   1.921
 1116SOL    MW4 4496   2.718   1.916   1.902
 1117SOL     OW 4497   2.929   2.041   2.015
 1117SOL    HW2 4498   2.929   2.042   2.111
 1117SOL    HW3 4499   3.001   1.982   1.991
 1117SOL    MW4 4500   2.938   2.033   2.024
 1118SOL     OW 4501   2.964   2.280   1.869
 1118SOL    HW2 4502   3.037   2.324   1.913
 1118SOL    HW3 4503   2.945   2.204   1.923
 1118SOL    MW4 4504   2.971   2.276   1.882
 1119SOL     OW 4505   2.747   2.414   1.972
 1119SOL    HW2 4506   2.739   2.506   1.946
 1119SOL    HW3 4507   2.832   2.386   1.938
 1119SOL    MW4 4508   2.757   2.422   1.964
 1120SOL     OW 4509   2.717   2.700   1.882
 1120SOL    HW2 4510   2.631   2.729   1.913
 1120SOL    HW3 4511   2.707   2.691   1.787
 1120SOL    MW4 4512   2.704   2.703   1.874
 1121SOL     OW 4513   2.940   2.818   1.962
 1121SOL    HW2 4514   2.942   2.911   1.940
 1121SOL    HW3 4515   2.854   2.788   1.933
 1121SOL    MW4 4516   2.929   2.826   1.955
 1122SOL     OW 4517   2.921   3.094   1.891
 1122SOL    HW2 4518   2.996   3.143   1.924
 1122SOL    HW3 4519   2.845   3.136   1.931
 1122SOL    MW4 4520   2.921   3.106   1.901
 1123SOL     OW 4521   2.677   3.228   2.008
 1123SOL    HW2 4522   2.654   3.318   1.986
 1123SOL    HW3 4523   2.605   3.176   1.973
 1123SOL    MW4 4524   2.664   3.233   2.000
 1124SOL     OW 4525   2.658   3.464   1.865
 1124SOL    HW2 4526   2.745   3.482   1.901
 1124SOL    HW3 4527   2.600   3.524   1.911
 1124SOL    MW4 4528   2.662   3.474   1.876
 1125SOL     OW 4529   2.878   3.565   2.011
 1125SOL    HW2 4530   2.867   3.557   2.106
 1125SOL    HW3 4531   2.959   3.518   1.992
 1125SOL    MW4 4532   2.887   3.558   2.021
 1126SOL     OW 4533   2.929   3.867   1.927
 1126SOL    HW2 4534   2.918   3.776   1.953
 1126SOL    HW3 4535   2.911   3.867   1.833
 1126SOL    MW4 4536   2.925   3.855   1.918
 1127SOL     OW 4537   2.725   4.030   1.999
 1127SOL    HW2 4538   2.787   3.961   1.975
 1127SOL    HW3 4539   2.640   3.998   1.969
 1127SOL    MW4 4540   2.722   4.017   1.992
 1128SOL     OW 4541   2.662   4.264   1.886
 1128SOL    HW2 4542   2.693   4.187   1.934
 1128SOL    HW3 4543   2.668   4.238   1.794
 1128SOL    MW4 4544   2.667   4.250   1.880
 1129SOL     OW 4545   2.925   4.389   2.000
 1129SOL    HW2 4546   2.920   4.392   2.096
 1129SOL    HW3 4547   2.838   4.361   1.973
 1129SOL    MW4 4548   2.913   4.386   2.009
 1130SOL     OW 4549   3.344   4.643   1.894
 1130SOL    HW2 4550   3.355   4.553   1.926
 1130SOL    HW3 4551   3.357   4.637   1.799
 1130SOL    MW4 4552   3.347   4.630   1.886
 1131SOL     OW 4553   3.119   0.124   1.970
 1131SOL    HW2 4554   3.111   0.123   2.065
 1131SOL    HW3 4555   3.200   0.077   1.952
 1131SOL    MW4 4556   3.129   0.118   1.980
 1132SOL     OW 4557   3.145   0.384   1.892
 1132SOL    HW2 4558   3.135   0.293   1.921
 1132SOL    HW3 4559   3.167   0.378   1.799
 1132SOL    MW4 4560   3.147   0.371   1.884
 1133SOL     OW 4561   3.376   0.524   1.963
 1133SOL    HW2 4562   3.454   0.479   1.929
 1133SOL    HW3 4563   3.303   0.472   1.931
 1133SOL    MW4 4564   3.377   0.511   1.954
 1134SOL     OW 4565   3.374   0.770   1.850
 1134SOL    HW2 4566   3.291   0.808   1.880
 1134SOL    HW3 4567   3.381   0.688   1.899
 1134SOL    MW4 4568   3.364   0.764   1.860
 1135SOL     OW 4569   3.125   0.869   1.918
 1135SOL    HW2 4570   3.118   0.867   2.013
 1135SOL    HW3 4571   3.107   0.960   1.894
 1135SOL    MW4 4572   3.122   0.881   1.927
 1136SOL     OW 4573   3.104   1.131   1.867
 1136SOL    HW2 4574   3.187   1.174   1.888
 1136SOL    HW3 4575   3.038   1.179   1.918
 1136SOL    MW4 4576   3.106   1.143   1.876
 1137SOL     OW 4577   3.338   1.252   1.948
 1137SOL    HW2 4578   3.326   1.264   2.042
 1137SOL    HW3 4579   3.352   1.340   1.914
 1137SOL    MW4 4580   3.338   1.265   1.956
 1138SOL     OW 4581   3.389   1.520   1.846
 1138SOL    HW2 4582   3.465   1.561   1.888
 1138SOL    HW3 4583   3.314   1.553   1.896
 1138SOL    MW4 4584   3.389   1.530   1.858
 1139SOL     OW 4585   3.146   1.594   1.968
 1139SOL    HW2 4586   3.121   1.599   2.060
 1139SOL    HW3 4587   3.157   1.685   1.941
 1139SOL    MW4 4588   3.144   1.607   1.977
 1140SOL     OW 4589   3.145   1.864   1.900
 1140SOL    HW2 4590   3.214   1.931   1.898
 1140SOL    HW3 4591   3.111   1.863   1.811
 1140SOL    MW4 4592   3.150   1.873   1.888
 1141SOL     OW 4593   3.376   2.049   1.985
 1141SOL    HW2 4594   3.456   2.010   1.950
 1141SOL    HW3 4595   3.374   2.137   1.947
 1141SOL    MW4 4596   3.386   2.055   1.975
 1142SOL     OW 4597   3.391   2.300   1.887
 1142SOL    HW2 4598   3.309   2.337   1.921
 1142SOL    HW3 4599   3.382   2.307   1.792
 1142SOL    MW4 4600   3.379   2.306   1.879
 1143SOL     OW 4601   3.152   2.432   1.992
 1143SOL    HW2 4602   3.168   2.431   2.086
 1143SOL    HW3 4603   3.140   2.525   1.971
 1143SOL    MW4 4604   3.153   2.444   2.002
 1144SOL     OW 4605   3.162   2.686   1.906
 1144SOL    HW2 4606   3.082   2.729   1.936
 1144SOL    HW3 4607   3.154   2.683   1.811
 1144SOL    MW4 4608   3.150   2.691   1.897
 1145SOL     OW 4609   3.386   2.839   1.984
 1145SOL    HW2 4610   3.386   2.836   2.080
 1145SOL    HW3 4611   3.317   2.779   1.958
 1145SOL    MW4 4612   3.377   2.831   1.993
 1146SOL     OW 4613   3.338   3.092   1.895
 1146SOL    HW2 4614   3.416   3.140   1.924
 1146SOL    HW3 4615   3.355   3.002   1.922
 1146SOL    MW4 4616   3.350   3.086   1.902
 1147SOL     OW 4617   3.120   3.213   2.038
 1147SOL    HW2 4618   3.146   3.296   1.998
 1147SOL    HW3 4619   3.188   3.151   2.013
 1147SOL    MW4 4620   3.132   3.216   2.029
 1148SOL     OW 4621   3.127   3.479   1.923
 1148SOL    HW2 4622   3.204   3.497   1.977
 1148SOL    HW3 4623   3.160   3.477   1.833
 1148SOL    MW4 4624   3.142   3.481   1.918
 1149SOL     OW 4625   3.365   3.563   2.037
 1149SOL    HW2 4626   3.442   3.532   1.990
 1149SOL    HW3 4627   3.353   3.653   2.008
 1149SOL    MW4 4628   3.374   3.571   2.027
 1150SOL     OW 4629   3.350   3.825   1.921
 1150SOL    HW2 4630   3.287   3.895   1.939
 1150SOL    HW3 4631   3.361   3.827   1.826
 1150SOL    MW4 4632   3.343   3.834   1.911
 1151SOL     OW 4633   3.151   4.002   2.017
 1151SOL    HW2 4634   3.164   3.980   2.109
 1151SOL    HW3 4635   3.074   3.951   1.990
 1151SOL    MW4 4636   3.143   3.992   2.026
 1152SOL     OW 4637   3.113   4.248   1.886
 1152SOL    HW2 4638   3.133   4.170   1.938
 1152SOL    HW3 4639   3.043   4.292   1.934
 1152SOL    MW4 4640   3.106   4.244   1.899
 1153SOL     OW 4641   3.364   4.388   2.005
 1153SOL    HW2 4642   3.427   4.324   1.972
 1153SOL    HW3 4643   3.283   4.366   1.959
 1153SOL    MW4 4644   3.362   4.377   1.995
 1154SOL     OW 4645   3.821   4.664   1.923
 1154SOL    HW2 4646   3.817   4.576   1.960
 1154SOL    HW3 4647   3.740   4.706   1.952
 1154SOL    MW4 4648   3.810   4.658   1.932
 1155SOL     OW 4649   3.558   0.123   1.984
 1155SOL    HW2 4650   3.554   0.115   2.079
 1155SOL    HW3 4651   3.481   0.075   1.953
 1155SOL    MW4 4652   3.547   0.116   1.992
 1156SOL     OW 4653   3.616   0.383   1.890
 1156SOL    HW2 4654   3.599   0.292   1.914
 1156SOL    HW3 4655   3.617   0.382   1.794
 1156SOL    MW4 4656   3.614   0.371   1.881
 1157SOL     OW 4657   3.833   0.512   1.983
 1157SOL    HW2 4658   3.827   0.602   1.951
 1157SOL    HW3 4659   3.760   0.467   1.940
 1157SOL    MW4 4660   3.823   0.518   1.973
 1158SOL     OW 4661   3.848   0.764   1.884
 1158SOL    HW2 4662   3.763   0.804   1.903
 1158SOL    HW3 4663   3.850   0.758   1.789
 1158SOL    MW4 4664   3.837   0.768   1.874
 1159SOL     OW 4665   3.602   0.893   1.963
 1159SOL    HW2 4666   3.608   0.982   1.929
 1159SOL    HW3 4667   3.516   0.862   1.934
 1159SOL    MW4 4668   3.591   0.901   1.955
 1160SOL     OW 4669   3.589   1.167   1.891
 1160SOL    HW2 4670   3.506   1.196   1.928
 1160SOL    HW3 4671   3.577   1.177   1.796
 1160SOL    MW4 4672   3.576   1.172   1.883
 1161SOL     OW 4673   3.824   1.255   1.978
 1161SOL    HW2 4674   3.826   1.248   2.073
 1161SOL    HW3 4675   3.748   1.204   1.951
 1161SOL    MW4 4676   3.814   1.247   1.987
 1162SOL     OW 4677   3.795   1.510   1.846
 1162SOL    HW2 4678   3.880   1.544   1.875
 1162SOL    HW3 4679   3.793   1.420   1.879
 1162SOL    MW4 4680   3.806   1.503   1.854
 1163SOL     OW 4681   3.588   1.657   1.980
 1163SOL    HW2 4682   3.579   1.748   1.951
 1163SOL    HW3 4683   3.664   1.624   1.932
 1163SOL    MW4 4684   3.597   1.665   1.970
 1164SOL     OW 4685   3.590   1.925   1.871
 1164SOL    HW2 4686   3.679   1.945   1.901
 1164SOL    HW3 4687   3.599   1.914   1.776
 1164SOL    MW4 4688   3.603   1.926   1.862
 1165SOL     OW 4689   3.850   2.000   1.945
 1165SOL    HW2 4690   3.938   1.967   1.926
 1165SOL    HW3 4691   3.856   2.094   1.929
 1165SOL    MW4 4692   3.862   2.008   1.940
 1166SOL     OW 4693   3.868   2.287   1.904
 1166SOL    HW2 4694   3.935   2.339   1.948
 1166SOL    HW3 4695   3.785   2.326   1.932
 1166SOL    MW4 4696   3.866   2.299   1.914
 1167SOL     OW 4697   3.627   2.406   1.985
 1167SOL    HW2 4698   3.620   2.492   1.944
 1167SOL    HW3 4699   3.545   2.362   1.962
 1167SOL    MW4 4700   3.615   2.412   1.977
 1168SOL     OW 4701   3.598   2.677   1.892
 1168SOL    HW2 4702   3.672   2.732   1.919
 1168SOL    HW3 4703   3.522   2.716   1.936
 1168SOL    MW4 4704   3.598   2.689   1.901
 1169SOL     OW 4705   3.814   2.835   1.966
 1169SOL    HW2 4706   3.817   2.832   2.062
 1169SOL    HW3 4707   3.781   2.922   1.945
 1169SOL    MW4 4708   3.810   2.846   1.976
 1170SOL     OW 4709   3.778   3.104   1.906
 1170SOL    HW2 4710   3.693   3.139   1.933
 1170SOL    HW3 4711   3.782   3.121   1.812
 1170SOL    MW4 4712   3.767   3.111   1.897
 1171SOL     OW 4713   3.573   3.242   1.996
 1171SOL    HW2 4714   3.587   3.242   2.091
 1171SOL    HW3 4715   3.588   3.333   1.970
 1171SOL    MW4 4716   3.577   3.254   2.005
 1172SOL     OW 4717   3.617   3.501   1.933
 1172SOL    HW2 4718   3.683   3.563   1.963
 1172SOL    HW3 4719   3.619   3.509   1.838
 1172SOL    MW4 4720   3.626   3.510   1.924
 1173SOL     OW 4721   3.811   3.670   2.008
 1173SOL    HW2 4722   3.875   3.624   1.954
 1173SOL    HW3 4723   3.796   3.753   1.963
 1173SOL    MW4 4724   3.817   3.675   1.995
 1174SOL     OW 4725   3.815   3.903   1.863
 1174SOL    HW2 4726   3.728   3.934   1.889
 1174SOL    HW3 4727   3.810   3.893   1.768
 1174SOL    MW4 4728   3.803   3.906   1.854
 1175SOL     OW 4729   3.574   3.989   1.969
 1175SOL    HW2 4730   3.602   3.995   2.060
 1175SOL    HW3 4731   3.508   3.919   1.969
 1175SOL    MW4 4732   3.569   3.981   1.981
 1176SOL     OW 4733   3.573   4.250   1.857
 1176SOL    HW2 4734   3.656   4.289   1.884
 1176SOL    HW3 4735   3.582   4.157   1.876
 1176SOL    MW4 4736   3.585   4.243   1.863
 1177SOL     OW 4737   3.814   4.388   1.988
 1177SOL    HW2 4738   3.792   4.382   2.081
 1177SOL    HW3 4739   3.897   4.341   1.980
 1177SOL    MW4 4740   3.822   4.381   1.999
 1178SOL     OW 4741   4.290   4.659   1.885
 1178SOL    HW2 4742   4.211   4.704   1.914
 1178SOL    HW3 4743   4.362   4.710   1.922
 1178SOL    MW4 4744   4.289   4.672   1.894
 1179SOL     OW 4745   4.058   0.127   1.990
 1179SOL    HW2 4746   4.065   0.109   2.084
 1179SOL    HW3 4747   3.974   0.089   1.964
 1179SOL    MW4 4748   4.048   0.120   1.999
 1180SOL     OW 4749   4.014   0.374   1.852
 1180SOL    HW2 4750   4.025   0.292   1.900
 1180SOL    HW3 4751   3.947   0.421   1.901
 1180SOL    MW4 4752   4.007   0.369   1.865
 1181SOL     OW 4753   4.263   0.459   1.973
 1181SOL    HW2 4754   4.276   0.444   2.067
 1181SOL    HW3 4755   4.175   0.426   1.956
 1181SOL    MW4 4756   4.253   0.453   1.983
 1182SOL     OW 4757   4.251   0.746   1.868
 1182SOL    HW2 4758   4.245   0.662   1.913
 1182SOL    HW3 4759   4.251   0.723   1.775
 1182SOL    MW4 4760   4.250   0.732   1.862
 1183SOL     OW 4761   4.057   0.901   1.996
 1183SOL    HW2 4762   4.136   0.857   1.964
 1183SOL    HW3 4763   3.985   0.858   1.950
 1183SOL    MW4 4764   4.058   0.890   1.986
 1184SOL     OW 4765   4.046   1.143   1.853
 1184SOL    HW2 4766   4.050   1.062   1.904
 1184SOL    HW3 4767   3.973   1.192   1.891
 1184SOL    MW4 4768   4.037   1.139   1.865
 1185SOL     OW 4769   4.285   1.222   1.976
 1185SOL    HW2 4770   4.269   1.233   2.070
 1185SOL    HW3 4771   4.201   1.192   1.941
 1185SOL    MW4 4772   4.272   1.219   1.984
 1186SOL     OW 4773   4.251   1.492   1.859
 1186SOL    HW2 4774   4.278   1.406   1.891
 1186SOL    HW3 4775   4.270   1.491   1.765
 1186SOL    MW4 4776   4.257   1.480   1.851
 1187SOL     OW 4777   4.022   1.648   1.928
 1187SOL    HW2 4778   4.017   1.664   2.022
 1187SOL    HW3 4779   4.093   1.584   1.918
 1187SOL    MW4 4780   4.031   1.642   1.939
 1188SOL     OW 4781   4.096   1.904   1.888
 1188SOL    HW2 4782   4.076   1.811   1.901
 1188SOL    HW3 4783   4.107   1.913   1.793
 1188SOL    MW4 4784   4.095   1.893   1.877
 1189SOL     OW 4785   4.292   2.066   1.987
 1189SOL    HW2 4786   4.274   2.070   2.081
 1189SOL    HW3 4787   4.227   2.004   1.953
 1189SOL    MW4 4788   4.281   2.058   1.995
 1190SOL     OW 4789   4.299   2.319   1.884
 1190SOL    HW2 4790   4.304   2.232   1.923
 1190SOL    HW3 4791   4.377   2.364   1.917
 1190SOL    MW4 4792   4.310   2.313   1.893
 1191SOL     OW 4793   4.070   2.423   2.017
 1191SOL    HW2 4794   4.082   2.425   2.112
 1191SOL    HW3 4795   4.141   2.368   1.985
 1191SOL    MW4 4796   4.081   2.416   2.025
 1192SOL     OW 4797   4.043   2.671   1.891
 1192SOL    HW2 4798   4.050   2.591   1.944
 1192SOL    HW3 4799   3.970   2.719   1.929
 1192SOL    MW4 4800   4.034   2.667   1.903
 1193SOL     OW 4801   4.260   2.849   1.914
 1193SOL    HW2 4802   4.257   2.845   2.010
 1193SOL    HW3 4803   4.184   2.798   1.886
 1193SOL    MW4 4804   4.250   2.842   1.923
 1194SOL     OW 4805   4.272   3.134   1.864
 1194SOL    HW2 4806   4.187   3.175   1.882
 1194SOL    HW3 4807   4.263   3.045   1.897
 1194SOL    MW4 4808   4.260   3.128   1.871
 1195SOL     OW 4809   4.023   3.241   1.945
 1195SOL    HW2 4810   4.016   3.260   2.039
 1195SOL    HW3 4811   3.938   3.203   1.922
 1195SOL    MW4 4812   4.011   3.238   1.954
 1196SOL     OW 4813   4.005   3.515   1.882
 1196SOL    HW2 4814   4.090   3.555   1.900
 1196SOL    HW3 4815   4.015   3.424   1.910
 1196SOL    MW4 4816   4.018   3.508   1.888
 1197SOL     OW 4817   4.255   3.620   1.990
 1197SOL    HW2 4818   4.260   3.716   1.991
 1197SOL    HW3 4819   4.333   3.593   1.942
 1197SOL    MW4 4820   4.266   3.629   1.984
 1198SOL     OW 4821   4.247   3.884   1.906
 1198SOL    HW2 4822   4.332   3.925   1.923
 1198SOL    HW3 4823   4.242   3.879   1.810
 1198SOL    MW4 4824   4.257   3.889   1.896
 1199SOL     OW 4825   4.035   4.019   2.011
 1199SOL    HW2 4826   4.111   3.977   1.970
 1199SOL    HW3 4827   3.960   3.974   1.972
 1199SOL    MW4 4828   4.035   4.008   2.000
 1200SOL     OW 4829   4.054   4.278   1.882
 1200SOL    HW2 4830   4.140   4.316   1.900
 1200SOL    HW3 4831   4.048   4.203   1.942
 1200SOL    MW4 4832   4.065   4.273   1.892
 1201SOL     OW 4833   4.298   4.367   1.981
 1201SOL    HW2 4834   4.287   4.382   2.075
 1201SOL    HW3 4835   4.301   4.455   1.943
 1201SOL    MW4 4836   4.297   4.381   1.988
 1202SOL     OW 4837   0.214   4.652   2.396
 1202SOL    HW2 4838   0.203   4.676   2.488
 1202SOL    HW3 4839   0.290   4.702   2.367
 1202SOL    MW4 4840   0.223   4.662   2.404
 1203SOL     OW 4841   4.483   0.092   2.271
 1203SOL    HW2 4842   4.569   0.068   2.305
 1203SOL    HW3 4843   4.498   0.106   2.177
 1203SOL    MW4 4844   4.497   0.091   2.263
 1204SOL     OW 4845   4.477   0.332   2.389
 1204SOL    HW2 4846   4.548   0.375   2.341
 1204SOL    HW3 4847   4.475   0.243   2.355
 1204SOL    MW4 4848   4.486   0.326   2.378
 1205SOL     OW 4849   0.202   0.444   2.255
 1205SOL    HW2 4850   0.290   0.429   2.289
 1205SOL    HW3 4851   0.208   0.419   2.163
 1205SOL    MW4 4852   0.214   0.439   2.247
 1206SOL     OW 4853   0.209   0.730   2.316
 1206SOL    HW2 4854   0.196   0.747   2.409
 1206SOL    HW3 4855   0.198   0.635   2.308
 1206SOL    MW4 4856   0.206   0.720   2.327
 1207SOL     OW 4857   0.013   0.916   2.244
 1207SOL    HW2 4858   0.091   0.869   2.274
 1207SOL    HW3 4859   0.005   0.892   2.152
 1207SOL    MW4 4860   0.022   0.907   2.236
 1208SOL     OW 4861   4.483   1.170   2.343
 1208SOL    HW2 4862   4.473   1.156   2.437
 1208SOL    HW3 4863   4.484   1.082   2.306
 1208SOL    MW4 4864   4.482   1.157   2.351
 1209SOL     OW 4865   0.239   1.271   2.267
 1209SOL    HW2 4866   0.162   1.223   2.298
 1209SOL    HW3 4867   0.229   1.275   2.172
 1209SOL    MW4 4868   0.227   1.265   2.259
 1210SOL     OW 4869   0.246   1.539   2.354
 1210SOL    HW2 4870   0.258   1.526   2.448
 1210SOL    HW3 4871   0.243   1.450   2.318
 1210SOL    MW4 4872   0.247   1.526   2.362
 1211SOL     OW 4873   0.002   1.629   2.245
 1211SOL    HW2 4874   0.009   1.724   2.256
 1211SOL    HW3 4875   0.079   1.594   2.290
 1211SOL    MW4 4876   0.013   1.637   2.252
 1212SOL     OW 4877   4.468   1.884   2.339
 1212SOL    HW2 4878   4.400   1.939   2.299
 1212SOL    HW3 4879   4.549   1.935   2.331
 1212SOL    MW4 4880   4.470   1.898   2.333
 1213SOL     OW 4881   0.196   2.042   2.256
 1213SOL    HW2 4882   0.275   2.004   2.293
 1213SOL    HW3 4883   0.216   2.054   2.163
 1213SOL    MW4 4884   0.209   2.039   2.249
 1214SOL     OW 4885   0.233   2.287   2.388
 1214SOL    HW2 4886   0.218   2.287   2.483
 1214SOL    HW3 4887   0.228   2.195   2.363
 1214SOL    MW4 4888   0.230   2.275   2.397
 1215SOL     OW 4889   0.019   2.437   2.283
 1215SOL    HW2 4890   0.016   2.530   2.305
 1215SOL    HW3 4891   0.100   2.406   2.322
 1215SOL    MW4 4892   0.029   2.445   2.291
 1216SOL     OW 4893   4.479   2.705   2.326
 1216SOL    HW2 4894   4.459   2.696   2.419
 1216SOL    HW3 4895   4.568   2.740   2.323
 1216SOL    MW4 4896   4.488   2.708   2.338
 1217SOL     OW 4897   0.238   2.824   2.287
 1217SOL    HW2 4898   0.324   2.791   2.312
 1217SOL    HW3 4899   0.233   2.809   2.193
 1217SOL    MW4 4900   0.249   2.818   2.278
 1218SOL     OW 4901   0.197   3.094   2.359
 1218SOL    HW2 4902   0.129   3.138   2.309
 1218SOL    HW3 4903   0.190   3.002   2.334
 1218SOL    MW4 4904   0.187   3.088   2.349
 1219SOL     OW 4905   4.477   3.224   2.242
 1219SOL    HW2 4906   4.493   3.309   2.283
 1219SOL    HW3 4907   4.472   3.243   2.148
 1219SOL    MW4 4908   4.478   3.238   2.235
 1220SOL     OW 4909   0.032   3.465   2.375
 1220SOL    HW2 4910   0.027   3.476   2.470
 1220SOL    HW3 4911  -0.041   3.518   2.341
 1220SOL    MW4 4912   0.022   3.473   2.383
 1221SOL     OW 4913   0.269   3.609   2.300
 1221SOL    HW2 4914   0.338   3.546   2.321
 1221SOL    HW3 4915   0.188   3.565   2.326
 1221SOL    MW4 4916   0.267   3.595   2.306
 1222SOL     OW 4917   0.245   3.871   2.411
 1222SOL    HW2 4918   0.180   3.915   2.357
 1222SOL    HW3 4919   0.251   3.783   2.375
 1222SOL    MW4 4920   0.237   3.865   2.399
 1223SOL     OW 4921   0.063   4.003   2.255
 1223SOL    HW2 4922   0.039   4.089   2.290
 1223SOL    HW3 4923   0.047   4.009   2.161
 1223SOL    MW4 4924   0.058   4.015   2.247
 1224SOL     OW 4925   0.010   4.259   2.335
 1224SOL    HW2 4926  -0.007   4.276   2.428
 1224SOL    HW3 4927   0.090   4.309   2.316
 1224SOL    MW4 4928   0.018   4.268   2.345
 1225SOL     OW 4929   0.245   4.399   2.296
 1225SOL    HW2 4930   0.322   4.347   2.319
 1225SOL    HW3 4931   0.261   4.485   2.335
 1225SOL    MW4 4932   0.257   4.403   2.304
 1226SOL     OW 4933   0.662   4.621   2.367
 1226SOL    HW2 4934   0.658   4.616   2.462
 1226SOL    HW3 4935   0.746   4.662   2.348
 1226SOL    MW4 4936   0.673   4.626   2.377
 1227SOL     OW 4937   0.449   0.118   2.287
 1227SOL    HW2 4938   0.507   0.048   2.317
 1227SOL    HW3 4939   0.471   0.128   2.194
 1227SOL    MW4 4940   0.460   0.110   2.279
 1228SOL     OW 4941   0.469   0.388   2.357
 1228SOL    HW2 4942   0.460   0.390   2.452
 1228SOL    HW3 4943   0.479   0.295   2.336
 1228SOL    MW4 4944   0.469   0.376   2.367
 1229SOL     OW 4945   0.658   0.522   2.210
 1229SOL    HW2 4946   0.674   0.612   2.239
 1229SOL    HW3 4947   0.590   0.490   2.269
 1229SOL    MW4 4948   0.651   0.530   2.222
 1230SOL     OW 4949   0.690   0.765   2.335
 1230SOL    HW2 4950   0.694   0.749   2.429
 1230SOL    HW3 4951   0.603   0.802   2.321
 1230SOL    MW4 4952   0.679   0.768   2.346
 1231SOL     OW 4953   0.457   0.853   2.267
 1231SOL    HW2 4954   0.382   0.796   2.285
 1231SOL    HW3 4955   0.447   0.878   2.175
 1231SOL    MW4 4956   0.446   0.849   2.257
 1232SOL     OW 4957   0.471   1.126   2.372
 1232SOL    HW2 4958   0.463   1.037   2.338
 1232SOL    HW3 4959   0.388   1.168   2.348
 1232SOL    MW4 4960   0.459   1.120   2.364
 1233SOL     OW 4961   0.687   1.271   2.270
 1233SOL    HW2 4962   0.679   1.360   2.303
 1233SOL    HW3 4963   0.614   1.223   2.310
 1233SOL    MW4 4964   0.676   1.276   2.280
 1234SOL     OW 4965   0.694   1.524   2.366
 1234SOL    HW2 4966   0.702   1.527   2.461
 1234SOL    HW3 4967   0.772   1.570   2.334
 1234SOL    MW4 4968   0.705   1.530   2.374
 1235SOL     OW 4969   0.463   1.653   2.260
 1235SOL    HW2 4970   0.538   1.607   2.297
 1235SOL    HW3 4971   0.387   1.601   2.286
 1235SOL    MW4 4972   0.463   1.640   2.268
 1236SOL     OW 4973   0.421   1.910   2.353
 1236SOL    HW2 4974   0.505   1.954   2.337
 1236SOL    HW3 4975   0.435   1.820   2.323
 1236SOL    MW4 4976   0.434   1.904   2.347
 1237SOL     OW 4977   0.641   2.040   2.267
 1237SOL    HW2 4978   0.732   2.013   2.282
 1237SOL    HW3 4979   0.640   2.133   2.290
 1237SOL    MW4 4980   0.653   2.049   2.272
 1238SOL     OW 4981   0.687   2.284   2.342
 1238SOL    HW2 4982   0.680   2.308   2.434
 1238SOL    HW3 4983   0.765   2.329   2.311
 1238SOL    MW4 4984   0.696   2.293   2.350
 1239SOL     OW 4985   0.452   2.442   2.257
 1239SOL    HW2 4986   0.533   2.398   2.282
 1239SOL    HW3 4987   0.383   2.390   2.298
 1239SOL    MW4 4988   0.454   2.429   2.266
 1240SOL     OW 4989   0.460   2.710   2.365
 1240SOL    HW2 4990   0.456   2.699   2.460
 1240SOL    HW3 4991   0.454   2.621   2.331
 1240SOL    MW4 4992   0.459   2.697   2.373
 1241SOL     OW 4993   0.687   2.862   2.313
 1241SOL    HW2 4994   0.759   2.806   2.343
 1241SOL    HW3 4995   0.609   2.807   2.320
 1241SOL    MW4 4996   0.686   2.847   2.318
 1242SOL     OW 4997   0.650   3.111   2.408
 1242SOL    HW2 4998   0.574   3.145   2.361
 1242SOL    HW3 4999   0.658   3.020   2.380
 1242SOL    MW4 5000   0.641   3.103   2.398
 1243SOL     OW 5001   0.427   3.214   2.281
 1243SOL    HW2 5002   0.348   3.162   2.293
 1243SOL    HW3 5003   0.440   3.217   2.186
 1243SOL    MW4 5004   0.418   3.208   2.270
 1244SOL     OW 5005   0.508   3.445   2.374
 1244SOL    HW2 5006   0.569   3.472   2.306
 1244SOL    HW3 5007   0.475   3.360   2.344
 1244SOL    MW4 5008   0.512   3.437   2.361
 1245SOL     OW 5009   0.695   3.609   2.254
 1245SOL    HW2 5010   0.685   3.696   2.292
 1245SOL    HW3 5011   0.685   3.623   2.160
 1245SOL    MW4 5012   0.692   3.622   2.247
 1246SOL     OW 5013   0.701   3.856   2.382
 1246SOL    HW2 5014   0.706   3.864   2.477
 1246SOL    HW3 5015   0.622   3.905   2.359
 1246SOL    MW4 5016   0.691   3.863   2.392
 1247SOL     OW 5017   0.484   3.994   2.282
 1247SOL    HW2 5018   0.400   3.960   2.314
 1247SOL    HW3 5019   0.477   3.990   2.187
 1247SOL    MW4 5020   0.472   3.989   2.274
 1248SOL     OW 5021   0.487   4.265   2.336
 1248SOL    HW2 5022   0.563   4.305   2.295
 1248SOL    HW3 5023   0.491   4.173   2.309
 1248SOL    MW4 5024   0.498   4.258   2.327
 1249SOL     OW 5025   0.716   4.387   2.234
 1249SOL    HW2 5026   0.694   4.471   2.273
 1249SOL    HW3 5027   0.723   4.405   2.140
 1249SOL    MW4 5028   0.714   4.401   2.227
 1250SOL     OW 5029   1.127   0.002   2.365
 1250SOL    HW2 5030   1.120  -0.011   2.460
 1250SOL    HW3 5031   1.045   0.045   2.341
 1250SOL    MW4 5032   1.115   0.006   2.374
 1251SOL     OW 5033   0.870   0.100   2.286
 1251SOL    HW2 5034   0.865   0.194   2.302
 1251SOL    HW3 5035   0.873   0.093   2.191
 1251SOL    MW4 5036   0.870   0.112   2.276
 1252SOL     OW 5037   0.854   0.364   2.360
 1252SOL    HW2 5038   0.946   0.391   2.352
 1252SOL    HW3 5039   0.809   0.416   2.293
 1252SOL    MW4 5040   0.860   0.374   2.350
 1253SOL     OW 5041   1.108   0.494   2.311
 1253SOL    HW2 5042   1.180   0.445   2.351
 1253SOL    HW3 5043   1.131   0.498   2.218
 1253SOL    MW4 5044   1.121   0.488   2.304
 1254SOL     OW 5045   1.090   0.756   2.370
 1254SOL    HW2 5046   1.023   0.786   2.308
 1254SOL    HW3 5047   1.098   0.662   2.352
 1254SOL    MW4 5048   1.082   0.748   2.359
 1255SOL     OW 5049   0.898   0.883   2.185
 1255SOL    HW2 5050   0.902   0.973   2.217
 1255SOL    HW3 5051   0.834   0.840   2.241
 1255SOL    MW4 5052   0.890   0.889   2.197
 1256SOL     OW 5053   0.912   1.120   2.343
 1256SOL    HW2 5054   0.985   1.174   2.313
 1256SOL    HW3 5055   0.834   1.166   2.311
 1256SOL    MW4 5056   0.911   1.133   2.335
 1257SOL     OW 5057   1.131   1.270   2.263
 1257SOL    HW2 5058   1.217   1.238   2.289
 1257SOL    HW3 5059   1.128   1.255   2.169
 1257SOL    MW4 5060   1.142   1.264   2.254
 1258SOL     OW 5061   1.134   1.538   2.340
 1258SOL    HW2 5062   1.050   1.561   2.299
 1258SOL    HW3 5063   1.139   1.443   2.334
 1258SOL    MW4 5064   1.124   1.528   2.334
 1259SOL     OW 5065   0.905   1.681   2.250
 1259SOL    HW2 5066   0.907   1.766   2.293
 1259SOL    HW3 5067   0.904   1.702   2.156
 1259SOL    MW4 5068   0.905   1.695   2.243
 1260SOL     OW 5069   0.880   1.939   2.370
 1260SOL    HW2 5070   0.879   1.933   2.466
 1260SOL    HW3 5071   0.960   1.988   2.350
 1260SOL    MW4 5072   0.890   1.945   2.380
 1261SOL     OW 5073   1.103   2.053   2.287
 1261SOL    HW2 5074   1.186   2.018   2.319
 1261SOL    HW3 5075   1.114   2.056   2.192
 1261SOL    MW4 5076   1.115   2.049   2.279
 1262SOL     OW 5077   1.120   2.333   2.342
 1262SOL    HW2 5078   1.204   2.369   2.314
 1262SOL    HW3 5079   1.126   2.240   2.322
 1262SOL    MW4 5080   1.132   2.325   2.336
 1263SOL     OW 5081   0.886   2.457   2.251
 1263SOL    HW2 5082   0.963   2.413   2.287
 1263SOL    HW3 5083   0.899   2.455   2.156
 1263SOL    MW4 5084   0.898   2.451   2.243
 1264SOL     OW 5085   0.916   2.709   2.375
 1264SOL    HW2 5086   0.890   2.691   2.465
 1264SOL    HW3 5087   0.915   2.624   2.332
 1264SOL    MW4 5088   0.912   2.695   2.381
 1265SOL     OW 5089   1.131   2.848   2.285
 1265SOL    HW2 5090   1.208   2.795   2.307
 1265SOL    HW3 5091   1.059   2.805   2.331
 1265SOL    MW4 5092   1.132   2.835   2.294
 1266SOL     OW 5093   1.125   3.108   2.385
 1266SOL    HW2 5094   1.043   3.142   2.349
 1266SOL    HW3 5095   1.126   3.016   2.360
 1266SOL    MW4 5096   1.114   3.100   2.377
 1267SOL     OW 5097   0.878   3.215   2.298
 1267SOL    HW2 5098   0.885   3.310   2.311
 1267SOL    HW3 5099   0.794   3.191   2.338
 1267SOL    MW4 5100   0.868   3.224   2.305
 1268SOL     OW 5101   0.922   3.475   2.343
 1268SOL    HW2 5102   0.919   3.465   2.438
 1268SOL    HW3 5103   0.855   3.540   2.323
 1268SOL    MW4 5104   0.913   3.482   2.353
 1269SOL     OW 5105   1.150   3.631   2.268
 1269SOL    HW2 5106   1.226   3.585   2.303
 1269SOL    HW3 5107   1.075   3.578   2.295
 1269SOL    MW4 5108   1.150   3.618   2.276
 1270SOL     OW 5109   1.152   3.877   2.377
 1270SOL    HW2 5110   1.231   3.911   2.335
 1270SOL    HW3 5111   1.147   3.785   2.350
 1270SOL    MW4 5112   1.162   3.869   2.368
 1271SOL     OW 5113   0.903   3.994   2.263
 1271SOL    HW2 5114   0.984   3.946   2.280
 1271SOL    HW3 5115   0.834   3.937   2.298
 1271SOL    MW4 5116   0.905   3.980   2.270
 1272SOL     OW 5117   0.902   4.244   2.373
 1272SOL    HW2 5118   0.904   4.155   2.338
 1272SOL    HW3 5119   0.832   4.287   2.325
 1272SOL    MW4 5120   0.893   4.238   2.362
 1273SOL     OW 5121   1.099   4.396   2.266
 1273SOL    HW2 5122   1.015   4.361   2.295
 1273SOL    HW3 5123   1.094   4.490   2.285
 1273SOL    MW4 5124   1.087   4.404   2.272
 1274SOL     OW 5125   1.586   4.618   2.344
 1274SOL    HW2 5126   1.657   4.661   2.296
 1274SOL    HW3 5127   1.510   4.674   2.329
 1274SOL    MW4 5128   1.585   4.631   2.336
 1275SOL     OW 5129   1.359   0.118   2.265
 1275SOL    HW2 5130   1.359   0.199   2.316
 1275SOL    HW3 5131   1.289   0.065   2.303
 1275SOL    MW4 5132   1.350   0.122   2.277
 1276SOL     OW 5133   1.335   0.349   2.406
 1276SOL    HW2 5134   1.349   0.344   2.501
 1276SOL    HW3 5135   1.409   0.400   2.374
 1276SOL    MW4 5136   1.347   0.355   2.414
 1277SOL     OW 5137   1.540   0.493   2.302
 1277SOL    HW2 5138   1.626   0.452   2.312
 1277SOL    HW3 5139   1.542   0.532   2.214
 1277SOL    MW4 5140   1.552   0.493   2.292
 1278SOL     OW 5141   1.554   0.738   2.420
 1278SOL    HW2 5142   1.633   0.786   2.397
 1278SOL    HW3 5143   1.561   0.655   2.373
 1278SOL    MW4 5144   1.565   0.733   2.411
 1279SOL     OW 5145   1.345   0.858   2.264
 1279SOL    HW2 5146   1.419   0.829   2.317
 1279SOL    HW3 5147   1.271   0.806   2.295
 1279SOL    MW4 5148   1.345   0.847   2.275
 1280SOL     OW 5149   1.372   1.138   2.367
 1280SOL    HW2 5150   1.371   1.139   2.463
 1280SOL    HW3 5151   1.351   1.048   2.344
 1280SOL    MW4 5152   1.369   1.126   2.377
 1281SOL     OW 5153   1.596   1.258   2.271
 1281SOL    HW2 5154   1.519   1.206   2.294
 1281SOL    HW3 5155   1.582   1.283   2.180
 1281SOL    MW4 5156   1.584   1.254   2.262
 1282SOL     OW 5157   1.556   1.547   2.382
 1282SOL    HW2 5158   1.629   1.599   2.347
 1282SOL    HW3 5159   1.569   1.459   2.346
 1282SOL    MW4 5160   1.567   1.542   2.373
 1283SOL     OW 5161   1.357   1.674   2.245
 1283SOL    HW2 5162   1.428   1.638   2.298
 1283SOL    HW3 5163   1.277   1.647   2.290
 1283SOL    MW4 5164   1.356   1.666   2.258
 1284SOL     OW 5165   1.351   1.931   2.369
 1284SOL    HW2 5166   1.425   1.973   2.326
 1284SOL    HW3 5167   1.353   1.841   2.338
 1284SOL    MW4 5168   1.361   1.925   2.359
 1285SOL     OW 5169   1.551   2.068   2.241
 1285SOL    HW2 5170   1.633   2.026   2.268
 1285SOL    HW3 5171   1.548   2.058   2.146
 1285SOL    MW4 5172   1.561   2.061   2.232
 1286SOL     OW 5173   1.588   2.315   2.371
 1286SOL    HW2 5174   1.590   2.293   2.464
 1286SOL    HW3 5175   1.556   2.236   2.328
 1286SOL    MW4 5176   1.584   2.302   2.378
 1287SOL     OW 5177   1.379   2.454   2.279
 1287SOL    HW2 5178   1.462   2.419   2.310
 1287SOL    HW3 5179   1.393   2.469   2.185
 1287SOL    MW4 5180   1.392   2.451   2.271
 1288SOL     OW 5181   1.363   2.705   2.390
 1288SOL    HW2 5182   1.446   2.742   2.360
 1288SOL    HW3 5183   1.366   2.614   2.361
 1288SOL    MW4 5184   1.374   2.698   2.382
 1289SOL     OW 5185   1.582   2.839   2.286
 1289SOL    HW2 5186   1.587   2.930   2.315
 1289SOL    HW3 5187   1.574   2.845   2.191
 1289SOL    MW4 5188   1.582   2.852   2.277
 1290SOL     OW 5189   1.564   3.102   2.363
 1290SOL    HW2 5190   1.563   3.106   2.459
 1290SOL    HW3 5191   1.494   3.162   2.336
 1290SOL    MW4 5192   1.555   3.110   2.372
 1291SOL     OW 5193   1.344   3.241   2.283
 1291SOL    HW2 5194   1.267   3.191   2.312
 1291SOL    HW3 5195   1.332   3.250   2.188
 1291SOL    MW4 5196   1.332   3.236   2.274
 1292SOL     OW 5197   1.358   3.500   2.412
 1292SOL    HW2 5198   1.362   3.501   2.508
 1292SOL    HW3 5199   1.353   3.407   2.390
 1292SOL    MW4 5200   1.358   3.488   2.422
 1293SOL     OW 5201   1.540   3.649   2.270
 1293SOL    HW2 5202   1.575   3.729   2.309
 1293SOL    HW3 5203   1.471   3.621   2.330
 1293SOL    MW4 5204   1.535   3.656   2.283
 1294SOL     OW 5205   1.614   3.908   2.371
 1294SOL    HW2 5206   1.619   3.921   2.466
 1294SOL    HW3 5207   1.700   3.935   2.339
 1294SOL    MW4 5208   1.626   3.913   2.379
 1295SOL     OW 5209   1.382   3.980   2.246
 1295SOL    HW2 5210   1.467   3.970   2.288
 1295SOL    HW3 5211   1.399   3.968   2.153
 1295SOL    MW4 5212   1.396   3.977   2.239
 1296SOL     OW 5213   1.322   4.226   2.338
 1296SOL    HW2 5214   1.322   4.140   2.297
 1296SOL    HW3 5215   1.232   4.256   2.329
 1296SOL    MW4 5216   1.310   4.219   2.331
 1297SOL     OW 5217   1.565   4.362   2.256
 1297SOL    HW2 5218   1.481   4.328   2.287
 1297SOL    HW3 5219   1.569   4.451   2.292
 1297SOL    MW4 5220   1.554   4.369   2.265
 1298SOL     OW 5221   2.057   0.008   2.363
 1298SOL    HW2 5222   2.135   0.044   2.321
 1298SOL    HW3 5223   2.060  -0.086   2.343
 1298SOL    MW4 5224   2.068   0.000   2.355
 1299SOL     OW 5225   1.827   0.092   2.255
 1299SOL    HW2 5226   1.807   0.172   2.304
 1299SOL    HW3 5227   1.913   0.065   2.287
 1299SOL    MW4 5228   1.836   0.099   2.266
 1300SOL     OW 5229   1.792   0.356   2.354
 1300SOL    HW2 5230   1.792   0.349   2.449
 1300SOL    HW3 5231   1.877   0.395   2.333
 1300SOL    MW4 5232   1.803   0.360   2.364
 1301SOL     OW 5233   2.026   0.473   2.269
 1301SOL    HW2 5234   2.023   0.560   2.308
 1301SOL    HW3 5235   2.017   0.488   2.175
 1301SOL    MW4 5236   2.024   0.487   2.262
 1302SOL     OW 5237   2.026   0.735   2.388
 1302SOL    HW2 5238   2.081   0.799   2.343
 1302SOL    HW3 5239   1.936   0.763   2.369
 1302SOL    MW4 5240   2.021   0.747   2.380
 1303SOL     OW 5241   1.797   0.865   2.296
 1303SOL    HW2 5242   1.792   0.958   2.317
 1303SOL    HW3 5243   1.808   0.863   2.201
 1303SOL    MW4 5244   1.798   0.877   2.286
 1304SOL     OW 5245   1.818   1.132   2.369
 1304SOL    HW2 5246   1.884   1.188   2.328
 1304SOL    HW3 5247   1.735   1.163   2.332
 1304SOL    MW4 5248   1.816   1.143   2.359
 1305SOL     OW 5249   2.024   1.276   2.270
 1305SOL    HW2 5250   2.022   1.364   2.307
 1305SOL    HW3 5251   1.990   1.286   2.181
 1305SOL    MW4 5252   2.019   1.289   2.263
 1306SOL     OW 5253   1.980   1.526   2.358
 1306SOL    HW2 5254   1.976   1.529   2.454
 1306SOL    HW3 5255   1.915   1.590   2.329
 1306SOL    MW4 5256   1.971   1.535   2.367
 1307SOL     OW 5257   1.774   1.681   2.272
 1307SOL    HW2 5258   1.773   1.772   2.302
 1307SOL    HW3 5259   1.760   1.687   2.178
 1307SOL    MW4 5260   1.772   1.694   2.264
 1308SOL     OW 5261   1.787   1.939   2.360
 1308SOL    HW2 5262   1.769   1.945   2.454
 1308SOL    HW3 5263   1.875   1.976   2.350
 1308SOL    MW4 5264   1.796   1.945   2.371
 1309SOL     OW 5265   2.031   2.072   2.287
 1309SOL    HW2 5266   2.098   2.008   2.311
 1309SOL    HW3 5267   2.033   2.075   2.191
 1309SOL    MW4 5268   2.040   2.064   2.278
 1310SOL     OW 5269   1.994   2.331   2.392
 1310SOL    HW2 5270   2.084   2.361   2.377
 1310SOL    HW3 5271   1.996   2.238   2.367
 1310SOL    MW4 5272   2.006   2.323   2.387
 1311SOL     OW 5273   1.785   2.415   2.247
 1311SOL    HW2 5274   1.863   2.385   2.294
 1311SOL    HW3 5275   1.712   2.388   2.302
 1311SOL    MW4 5276   1.786   2.407   2.260
 1312SOL     OW 5277   1.813   2.705   2.361
 1312SOL    HW2 5278   1.803   2.622   2.314
 1312SOL    HW3 5279   1.734   2.755   2.339
 1312SOL    MW4 5280   1.801   2.701   2.352
 1313SOL     OW 5281   2.036   2.869   2.265
 1313SOL    HW2 5282   2.112   2.817   2.292
 1313SOL    HW3 5283   1.960   2.819   2.295
 1313SOL    MW4 5284   2.036   2.856   2.273
 1314SOL     OW 5285   2.024   3.120   2.368
 1314SOL    HW2 5286   2.100   3.169   2.336
 1314SOL    HW3 5287   2.035   3.032   2.331
 1314SOL    MW4 5288   2.035   3.115   2.359
 1315SOL     OW 5289   1.793   3.238   2.288
 1315SOL    HW2 5290   1.872   3.193   2.318
 1315SOL    HW3 5291   1.721   3.181   2.315
 1315SOL    MW4 5292   1.794   3.225   2.296
 1316SOL     OW 5293   1.791   3.512   2.323
 1316SOL    HW2 5294   1.770   3.422   2.296
 1316SOL    HW3 5295   1.710   3.561   2.307
 1316SOL    MW4 5296   1.778   3.507   2.317
 1317SOL     OW 5297   2.056   3.617   2.267
 1317SOL    HW2 5298   1.970   3.577   2.279
 1317SOL    HW3 5299   2.053   3.654   2.179
 1317SOL    MW4 5300   2.044   3.617   2.257
 1318SOL     OW 5301   2.095   3.887   2.322
 1318SOL    HW2 5302   2.083   3.882   2.417
 1318SOL    HW3 5303   2.096   3.796   2.293
 1318SOL    MW4 5304   2.094   3.874   2.331
 1319SOL     OW 5305   1.843   3.999   2.263
 1319SOL    HW2 5306   1.921   3.946   2.275
 1319SOL    HW3 5307   1.819   3.987   2.171
 1319SOL    MW4 5308   1.850   3.990   2.252
 1320SOL     OW 5309   1.810   4.248   2.363
 1320SOL    HW2 5310   1.842   4.167   2.323
 1320SOL    HW3 5311   1.728   4.267   2.317
 1320SOL    MW4 5312   1.803   4.240   2.352
 1321SOL     OW 5313   2.025   4.425   2.268
 1321SOL    HW2 5314   1.951   4.383   2.312
 1321SOL    HW3 5315   2.001   4.425   2.175
 1321SOL    MW4 5316   2.012   4.419   2.262
 1322SOL     OW 5317   2.519   4.635   2.375
 1322SOL    HW2 5318   2.590   4.677   2.326
 1322SOL    HW3 5319   2.531   4.541   2.359
 1322SOL    MW4 5320   2.530   4.628   2.366
 1323SOL     OW 5321   2.304   0.084   2.246
 1323SOL    HW2 5322   2.304   0.166   2.296
 1323SOL    HW3 5323   2.377   0.034   2.281
 1323SOL    MW4 5324   2.314   0.088   2.257
 1324SOL     OW 5325   2.241   0.316   2.395
 1324SOL    HW2 5326   2.296   0.394   2.392
 1324SOL    HW3 5327   2.157   0.344   2.360
 1324SOL    MW4 5328   2.237   0.330   2.390
 1325SOL     OW 5329   2.423   0.502   2.313
 1325SOL    HW2 5330   2.500   0.447   2.330
 1325SOL    HW3 5331   2.411   0.499   2.218
 1325SOL    MW4 5332   2.432   0.494   2.303
 1326SOL     OW 5333   2.450   0.740   2.439
 1326SOL    HW2 5334   2.530   0.773   2.399
 1326SOL    HW3 5335   2.431   0.659   2.392
 1326SOL    MW4 5336   2.458   0.734   2.427
 1327SOL     OW 5337   2.250   0.878   2.330
 1327SOL    HW2 5338   2.260   0.968   2.360
 1327SOL    HW3 5339   2.310   0.828   2.385
 1327SOL    MW4 5340   2.259   0.883   2.341
 1328SOL     OW 5341   2.259   1.145   2.372
 1328SOL    HW2 5342   2.338   1.175   2.327
 1328SOL    HW3 5343   2.188   1.196   2.333
 1328SOL    MW4 5344   2.260   1.156   2.361
 1329SOL     OW 5345   2.478   1.272   2.260
 1329SOL    HW2 5346   2.550   1.228   2.305
 1329SOL    HW3 5347   2.460   1.349   2.313
 1329SOL    MW4 5348   2.485   1.276   2.273
 1330SOL     OW 5349   2.453   1.544   2.352
 1330SOL    HW2 5350   2.454   1.555   2.447
 1330SOL    HW3 5351   2.524   1.600   2.321
 1330SOL    MW4 5352   2.462   1.553   2.360
 1331SOL     OW 5353   2.208   1.653   2.248
 1331SOL    HW2 5354   2.287   1.608   2.277
 1331SOL    HW3 5355   2.136   1.608   2.293
 1331SOL    MW4 5356   2.209   1.641   2.258
 1332SOL     OW 5357   2.242   1.913   2.373
 1332SOL    HW2 5358   2.314   1.963   2.333
 1332SOL    HW3 5359   2.244   1.829   2.328
 1332SOL    MW4 5360   2.252   1.908   2.362
 1333SOL     OW 5361   2.459   2.059   2.249
 1333SOL    HW2 5362   2.533   2.001   2.266
 1333SOL    HW3 5363   2.463   2.075   2.155
 1333SOL    MW4 5364   2.469   2.054   2.239
 1334SOL     OW 5365   2.494   2.297   2.361
 1334SOL    HW2 5366   2.580   2.322   2.328
 1334SOL    HW3 5367   2.482   2.207   2.330
 1334SOL    MW4 5368   2.504   2.289   2.353
 1335SOL     OW 5369   2.228   2.421   2.293
 1335SOL    HW2 5370   2.244   2.515   2.303
 1335SOL    HW3 5371   2.310   2.379   2.320
 1335SOL    MW4 5372   2.241   2.428   2.298
 1336SOL     OW 5373   2.250   2.704   2.348
 1336SOL    HW2 5374   2.239   2.717   2.442
 1336SOL    HW3 5375   2.341   2.729   2.330
 1336SOL    MW4 5376   2.261   2.709   2.358
 1337SOL     OW 5377   2.498   2.812   2.288
 1337SOL    HW2 5378   2.569   2.750   2.308
 1337SOL    HW3 5379   2.491   2.809   2.193
 1337SOL    MW4 5380   2.506   2.803   2.278
 1338SOL     OW 5381   2.460   3.077   2.389
 1338SOL    HW2 5382   2.540   3.118   2.357
 1338SOL    HW3 5383   2.472   2.984   2.373
 1338SOL    MW4 5384   2.472   3.070   2.383
 1339SOL     OW 5385   2.260   3.223   2.266
 1339SOL    HW2 5386   2.261   3.310   2.306
 1339SOL    HW3 5387   2.326   3.174   2.315
 1339SOL    MW4 5388   2.269   3.228   2.278
 1340SOL     OW 5389   2.270   3.475   2.367
 1340SOL    HW2 5390   2.257   3.468   2.462
 1340SOL    HW3 5391   2.194   3.524   2.336
 1340SOL    MW4 5392   2.258   3.481   2.375
 1341SOL     OW 5393   2.495   3.610   2.254
 1341SOL    HW2 5394   2.498   3.698   2.291
 1341SOL    HW3 5395   2.417   3.570   2.293
 1341SOL    MW4 5396   2.485   3.616   2.264
 1342SOL     OW 5397   2.524   3.876   2.381
 1342SOL    HW2 5398   2.518   3.881   2.476
 1342SOL    HW3 5399   2.449   3.927   2.350
 1342SOL    MW4 5400   2.513   3.883   2.390
 1343SOL     OW 5401   2.317   4.023   2.294
 1343SOL    HW2 5402   2.294   4.101   2.345
 1343SOL    HW3 5403   2.237   3.971   2.292
 1343SOL    MW4 5404   2.303   4.026   2.300
 1344SOL     OW 5405   2.269   4.292   2.349
 1344SOL    HW2 5406   2.246   4.284   2.442
 1344SOL    HW3 5407   2.202   4.349   2.312
 1344SOL    MW4 5408   2.257   4.298   2.356
 1345SOL     OW 5409   2.522   4.369   2.292
 1345SOL    HW2 5410   2.585   4.309   2.332
 1345SOL    HW3 5411   2.437   4.336   2.321
 1345SOL    MW4 5412   2.519   4.357   2.301
 1346SOL     OW 5413   2.911   4.655   2.355
 1346SOL    HW2 5414   2.988   4.697   2.317
 1346SOL    HW3 5415   2.913   4.565   2.322
 1346SOL    MW4 5416   2.921   4.649   2.346
 1347SOL     OW 5417   2.691   0.089   2.226
 1347SOL    HW2 5418   2.665   0.176   2.256
 1347SOL    HW3 5419   2.768   0.068   2.278
 1347SOL    MW4 5420   2.698   0.098   2.237
 1348SOL     OW 5421   2.650   0.349   2.352
 1348SOL    HW2 5422   2.660   0.345   2.447
 1348SOL    HW3 5423   2.736   0.377   2.320
 1348SOL    MW4 5424   2.663   0.352   2.360
 1349SOL     OW 5425   2.882   0.475   2.241
 1349SOL    HW2 5426   2.888   0.564   2.275
 1349SOL    HW3 5427   2.887   0.485   2.146
 1349SOL    MW4 5428   2.883   0.488   2.233
 1350SOL     OW 5429   2.896   0.732   2.358
 1350SOL    HW2 5430   2.898   0.733   2.454
 1350SOL    HW3 5431   2.810   0.766   2.335
 1350SOL    MW4 5432   2.885   0.737   2.368
 1351SOL     OW 5433   2.665   0.855   2.271
 1351SOL    HW2 5434   2.662   0.944   2.307
 1351SOL    HW3 5435   2.682   0.867   2.178
 1351SOL    MW4 5436   2.667   0.868   2.263
 1352SOL     OW 5437   2.665   1.118   2.386
 1352SOL    HW2 5438   2.655   1.128   2.481
 1352SOL    HW3 5439   2.747   1.163   2.365
 1352SOL    MW4 5440   2.675   1.125   2.396
 1353SOL     OW 5441   2.904   1.215   2.301
 1353SOL    HW2 5442   2.987   1.172   2.323
 1353SOL    HW3 5443   2.905   1.220   2.205
 1353SOL    MW4 5444   2.915   1.210   2.291
 1354SOL     OW 5445   2.856   1.513   2.372
 1354SOL    HW2 5446   2.857   1.524   2.467
 1354SOL    HW3 5447   2.867   1.419   2.359
 1354SOL    MW4 5448   2.858   1.502   2.383
 1355SOL     OW 5449   2.670   1.688   2.253
 1355SOL    HW2 5450   2.734   1.622   2.279
 1355SOL    HW3 5451   2.685   1.701   2.159
 1355SOL    MW4 5452   2.680   1.681   2.244
 1356SOL     OW 5453   2.661   1.928   2.373
 1356SOL    HW2 5454   2.668   1.909   2.467
 1356SOL    HW3 5455   2.676   1.844   2.331
 1356SOL    MW4 5456   2.664   1.914   2.380
 1357SOL     OW 5457   2.915   2.046   2.285
 1357SOL    HW2 5458   2.977   1.994   2.337
 1357SOL    HW3 5459   2.829   2.021   2.318
 1357SOL    MW4 5460   2.912   2.036   2.296
 1358SOL     OW 5461   2.964   2.296   2.384
 1358SOL    HW2 5462   2.955   2.298   2.479
 1358SOL    HW3 5463   2.949   2.204   2.361
 1358SOL    MW4 5464   2.961   2.284   2.394
 1359SOL     OW 5465   2.729   2.389   2.245
 1359SOL    HW2 5466   2.815   2.359   2.273
 1359SOL    HW3 5467   2.737   2.401   2.150
 1359SOL    MW4 5468   2.741   2.387   2.236
 1360SOL     OW 5469   2.724   2.667   2.369
 1360SOL    HW2 5470   2.793   2.719   2.327
 1360SOL    HW3 5471   2.735   2.579   2.334
 1360SOL    MW4 5472   2.735   2.662   2.359
 1361SOL     OW 5473   2.915   2.810   2.243
 1361SOL    HW2 5474   2.931   2.896   2.283
 1361SOL    HW3 5475   2.904   2.828   2.150
 1361SOL    MW4 5476   2.916   2.824   2.236
 1362SOL     OW 5477   2.916   3.061   2.383
 1362SOL    HW2 5478   2.993   3.112   2.359
 1362SOL    HW3 5479   2.842   3.115   2.357
 1362SOL    MW4 5480   2.916   3.075   2.376
 1363SOL     OW 5481   2.687   3.187   2.296
 1363SOL    HW2 5482   2.677   3.270   2.342
 1363SOL    HW3 5483   2.688   3.210   2.203
 1363SOL    MW4 5484   2.686   3.201   2.290
 1364SOL     OW 5485   2.675   3.449   2.384
 1364SOL    HW2 5486   2.767   3.471   2.369
 1364SOL    HW3 5487   2.626   3.516   2.337
 1364SOL    MW4 5488   2.681   3.461   2.376
 1365SOL     OW 5489   2.902   3.559   2.300
 1365SOL    HW2 5490   2.982   3.517   2.331
 1365SOL    HW3 5491   2.915   3.652   2.320
 1365SOL    MW4 5492   2.914   3.566   2.307
 1366SOL     OW 5493   2.946   3.822   2.380
 1366SOL    HW2 5494   2.937   3.829   2.475
 1366SOL    HW3 5495   2.867   3.865   2.346
 1366SOL    MW4 5496   2.934   3.829   2.388
 1367SOL     OW 5497   2.756   3.964   2.263
 1367SOL    HW2 5498   2.666   3.943   2.290
 1367SOL    HW3 5499   2.748   3.990   2.171
 1367SOL    MW4 5500   2.743   3.965   2.254
 1368SOL     OW 5501   2.728   4.218   2.393
 1368SOL    HW2 5502   2.726   4.187   2.483
 1368SOL    HW3 5503   2.759   4.143   2.342
 1368SOL    MW4 5504   2.732   4.204   2.398
 1369SOL     OW 5505   2.920   4.388   2.285
 1369SOL    HW2 5506   2.997   4.340   2.315
 1369SOL    HW3 5507   2.847   4.347   2.331
 1369SOL    MW4 5508   2.920   4.376   2.295
 1370SOL     OW 5509   3.348   4.630   2.401
 1370SOL    HW2 5510   3.352   4.651   2.494
 1370SOL    HW3 5511   3.420   4.680   2.362
 1370SOL    MW4 5512   3.358   4.639   2.408
 1371SOL     OW 5513   3.142   0.089   2.239
 1371SOL    HW2 5514   3.142   0.175   2.281
 1371SOL    HW3 5515   3.199   0.036   2.294
 1371SOL    MW4 5516   3.150   0.093   2.252
 1372SOL     OW 5517   3.099   0.330   2.361
 1372SOL    HW2 5518   3.177   0.374   2.326
 1372SOL    HW3 5519   3.025   0.381   2.327
 1372SOL    MW4 5520   3.100   0.343   2.352
 1373SOL     OW 5521   3.327   0.444   2.250
 1373SOL    HW2 5522   3.407   0.399   2.277
 1373SOL    HW3 5523   3.331   0.446   2.154
 1373SOL    MW4 5524   3.338   0.438   2.241
 1374SOL     OW 5525   3.336   0.717   2.327
 1374SOL    HW2 5526   3.416   0.756   2.291
 1374SOL    HW3 5527   3.335   0.628   2.291
 1374SOL    MW4 5528   3.346   0.710   2.318
 1375SOL     OW 5529   3.108   0.845   2.218
 1375SOL    HW2 5530   3.181   0.798   2.258
 1375SOL    HW3 5531   3.029   0.802   2.252
 1375SOL    MW4 5532   3.107   0.833   2.228
 1376SOL     OW 5533   3.135   1.087   2.359
 1376SOL    HW2 5534   3.203   1.147   2.328
 1376SOL    HW3 5535   3.141   1.012   2.300
 1376SOL    MW4 5536   3.145   1.085   2.347
 1377SOL     OW 5537   3.335   1.255   2.243
 1377SOL    HW2 5538   3.415   1.209   2.268
 1377SOL    HW3 5539   3.345   1.342   2.282
 1377SOL    MW4 5540   3.347   1.260   2.251
 1378SOL     OW 5541   3.352   1.521   2.333
 1378SOL    HW2 5542   3.371   1.515   2.427
 1378SOL    HW3 5543   3.257   1.527   2.329
 1378SOL    MW4 5544   3.342   1.521   2.345
 1379SOL     OW 5545   3.093   1.597   2.251
 1379SOL    HW2 5546   3.098   1.692   2.264
 1379SOL    HW3 5547   3.019   1.569   2.304
 1379SOL    MW4 5548   3.084   1.606   2.260
 1380SOL     OW 5549   3.109   1.879   2.382
 1380SOL    HW2 5550   3.124   1.869   2.476
 1380SOL    HW3 5551   3.186   1.927   2.351
 1380SOL    MW4 5552   3.121   1.884   2.390
 1381SOL     OW 5553   3.340   2.021   2.279
 1381SOL    HW2 5554   3.429   1.991   2.297
 1381SOL    HW3 5555   3.336   2.029   2.184
 1381SOL    MW4 5556   3.351   2.018   2.269
 1382SOL     OW 5557   3.413   2.283   2.362
 1382SOL    HW2 5558   3.334   2.336   2.354
 1382SOL    HW3 5559   3.388   2.197   2.328
 1382SOL    MW4 5560   3.399   2.279   2.356
 1383SOL     OW 5561   3.188   2.414   2.285
 1383SOL    HW2 5562   3.171   2.506   2.304
 1383SOL    HW3 5563   3.111   2.368   2.319
 1383SOL    MW4 5564   3.176   2.420   2.292
 1384SOL     OW 5565   3.145   2.670   2.346
 1384SOL    HW2 5566   3.131   2.667   2.441
 1384SOL    HW3 5567   3.066   2.711   2.311
 1384SOL    MW4 5568   3.133   2.675   2.354
 1385SOL     OW 5569   3.403   2.813   2.250
 1385SOL    HW2 5570   3.395   2.884   2.313
 1385SOL    HW3 5571   3.342   2.746   2.281
 1385SOL    MW4 5572   3.394   2.814   2.262
 1386SOL     OW 5573   3.388   3.067   2.367
 1386SOL    HW2 5574   3.458   3.126   2.339
 1386SOL    HW3 5575   3.307   3.114   2.346
 1386SOL    MW4 5576   3.387   3.081   2.361
 1387SOL     OW 5577   3.147   3.181   2.318
 1387SOL    HW2 5578   3.164   3.269   2.351
 1387SOL    HW3 5579   3.134   3.193   2.224
 1387SOL    MW4 5580   3.148   3.194   2.310
 1388SOL     OW 5581   3.136   3.432   2.387
 1388SOL    HW2 5582   3.117   3.441   2.480
 1388SOL    HW3 5583   3.213   3.487   2.373
 1388SOL    MW4 5584   3.144   3.440   2.397
 1389SOL     OW 5585   3.368   3.611   2.326
 1389SOL    HW2 5586   3.450   3.570   2.354
 1389SOL    HW3 5587   3.364   3.594   2.232
 1389SOL    MW4 5588   3.378   3.603   2.317
 1390SOL     OW 5589   3.400   3.869   2.408
 1390SOL    HW2 5590   3.466   3.895   2.343
 1390SOL    HW3 5591   3.384   3.776   2.390
 1390SOL    MW4 5592   3.407   3.860   2.397
 1391SOL     OW 5593   3.163   3.958   2.281
 1391SOL    HW2 5594   3.232   3.918   2.334
 1391SOL    HW3 5595   3.082   3.916   2.311
 1391SOL    MW4 5596   3.161   3.947   2.292
 1392SOL     OW 5597   3.144   4.211   2.387
 1392SOL    HW2 5598   3.212   4.269   2.353
 1392SOL    HW3 5599   3.160   4.127   2.344
 1392SOL    MW4 5600   3.155   4.208   2.377
 1393SOL     OW 5601   3.342   4.366   2.296
 1393SOL    HW2 5602   3.355   4.454   2.330
 1393SOL    HW3 5603   3.351   4.376   2.201
 1393SOL    MW4 5604   3.345   4.379   2.288
 1394SOL     OW 5605   3.792   4.624   2.315
 1394SOL    HW2 5606   3.789   4.643   2.409
 1394SOL    HW3 5607   3.878   4.655   2.287
 1394SOL    MW4 5608   3.803   4.631   2.324
 1395SOL     OW 5609   3.553   0.086   2.264
 1395SOL    HW2 5610   3.583   0.176   2.272
 1395SOL    HW3 5611   3.632   0.033   2.275
 1395SOL    MW4 5612   3.567   0.091   2.267
 1396SOL     OW 5613   3.579   0.346   2.316
 1396SOL    HW2 5614   3.589   0.347   2.411
 1396SOL    HW3 5615   3.657   0.391   2.283
 1396SOL    MW4 5616   3.591   0.352   2.324
 1397SOL     OW 5617   3.800   0.498   2.260
 1397SOL    HW2 5618   3.811   0.589   2.287
 1397SOL    HW3 5619   3.795   0.501   2.165
 1397SOL    MW4 5620   3.801   0.510   2.251
 1398SOL     OW 5621   3.813   0.751   2.351
 1398SOL    HW2 5622   3.808   0.741   2.446
 1398SOL    HW3 5623   3.888   0.809   2.337
 1398SOL    MW4 5624   3.822   0.757   2.362
 1399SOL     OW 5625   3.567   0.873   2.249
 1399SOL    HW2 5626   3.645   0.826   2.278
 1399SOL    HW3 5627   3.579   0.883   2.155
 1399SOL    MW4 5628   3.579   0.868   2.240
 1400SOL     OW 5629   3.579   1.146   2.343
 1400SOL    HW2 5630   3.567   1.146   2.438
 1400SOL    HW3 5631   3.587   1.053   2.320
 1400SOL    MW4 5632   3.578   1.134   2.353
 1401SOL     OW 5633   3.804   1.277   2.268
 1401SOL    HW2 5634   3.797   1.371   2.286
 1401SOL    HW3 5635   3.719   1.241   2.293
 1401SOL    MW4 5636   3.792   1.285   2.274
 1402SOL     OW 5637   3.818   1.540   2.335
 1402SOL    HW2 5638   3.813   1.549   2.430
 1402SOL    HW3 5639   3.742   1.588   2.303
 1402SOL    MW4 5640   3.807   1.548   2.343
 1403SOL     OW 5641   3.580   1.665   2.254
 1403SOL    HW2 5642   3.499   1.616   2.264
 1403SOL    HW3 5643   3.591   1.674   2.159
 1403SOL    MW4 5644   3.571   1.660   2.243
 1404SOL     OW 5645   3.585   1.941   2.348
 1404SOL    HW2 5646   3.666   1.977   2.312
 1404SOL    HW3 5647   3.585   1.849   2.321
 1404SOL    MW4 5648   3.596   1.934   2.340
 1405SOL     OW 5649   3.823   2.018   2.230
 1405SOL    HW2 5650   3.896   1.983   2.281
 1405SOL    HW3 5651   3.854   2.016   2.139
 1405SOL    MW4 5652   3.837   2.013   2.225
 1406SOL     OW 5653   3.839   2.267   2.348
 1406SOL    HW2 5654   3.768   2.316   2.307
 1406SOL    HW3 5655   3.833   2.179   2.311
 1406SOL    MW4 5656   3.829   2.262   2.338
 1407SOL     OW 5657   3.639   2.422   2.257
 1407SOL    HW2 5658   3.562   2.371   2.280
 1407SOL    HW3 5659   3.631   2.436   2.163
 1407SOL    MW4 5660   3.628   2.417   2.248
 1408SOL     OW 5661   3.618   2.681   2.376
 1408SOL    HW2 5662   3.610   2.590   2.347
 1408SOL    HW3 5663   3.539   2.724   2.343
 1408SOL    MW4 5664   3.607   2.675   2.368
 1409SOL     OW 5665   3.809   2.836   2.259
 1409SOL    HW2 5666   3.806   2.926   2.291
 1409SOL    HW3 5667   3.743   2.790   2.311
 1409SOL    MW4 5668   3.800   2.842   2.270
 1410SOL     OW 5669   3.824   3.095   2.345
 1410SOL    HW2 5670   3.844   3.086   2.438
 1410SOL    HW3 5671   3.900   3.141   2.309
 1410SOL    MW4 5672   3.837   3.100   2.353
 1411SOL     OW 5673   3.584   3.221   2.282
 1411SOL    HW2 5674   3.603   3.305   2.323
 1411SOL    HW3 5675   3.658   3.166   2.305
 1411SOL    MW4 5676   3.596   3.225   2.290
 1412SOL     OW 5677   3.640   3.475   2.357
 1412SOL    HW2 5678   3.647   3.470   2.452
 1412SOL    HW3 5679   3.722   3.517   2.330
 1412SOL    MW4 5680   3.652   3.480   2.366
 1413SOL     OW 5681   3.880   3.588   2.269
 1413SOL    HW2 5682   3.883   3.670   2.318
 1413SOL    HW3 5683   3.865   3.615   2.178
 1413SOL    MW4 5684   3.878   3.602   2.264
 1414SOL     OW 5685   3.835   3.845   2.362
 1414SOL    HW2 5686   3.824   3.837   2.457
 1414SOL    HW3 5687   3.921   3.886   2.351
 1414SOL    MW4 5688   3.845   3.849   2.373
 1415SOL     OW 5689   3.614   3.974   2.236
 1415SOL    HW2 5690   3.598   4.050   2.292
 1415SOL    HW3 5691   3.693   3.934   2.272
 1415SOL    MW4 5692   3.622   3.979   2.248
 1416SOL     OW 5693   3.556   4.210   2.381
 1416SOL    HW2 5694   3.623   4.257   2.331
 1416SOL    HW3 5695   3.473   4.251   2.355
 1416SOL    MW4 5696   3.554   4.222   2.371
 1417SOL     OW 5697   3.769   4.349   2.270
 1417SOL    HW2 5698   3.855   4.326   2.305
 1417SOL    HW3 5699   3.756   4.440   2.297
 1417SOL    MW4 5700   3.779   4.358   2.278
 1418SOL     OW 5701   4.256   4.641   2.366
 1418SOL    HW2 5702   4.269   4.635   2.461
 1418SOL    HW3 5703   4.341   4.670   2.332
 1418SOL    MW4 5704   4.269   4.644   2.374
 1419SOL     OW 5705   4.032   0.091   2.255
 1419SOL    HW2 5706   4.040   0.183   2.281
 1419SOL    HW3 5707   4.106   0.047   2.297
 1419SOL    MW4 5708   4.043   0.097   2.264
 1420SOL     OW 5709   4.048   0.357   2.356
 1420SOL    HW2 5710   4.127   0.403   2.328
 1420SOL    HW3 5711   3.977   0.416   2.332
 1420SOL    MW4 5712   4.049   0.371   2.349
 1421SOL     OW 5713   4.267   0.472   2.255
 1421SOL    HW2 5714   4.280   0.565   2.272
 1421SOL    HW3 5715   4.333   0.429   2.310
 1421SOL    MW4 5716   4.277   0.479   2.264
 1422SOL     OW 5717   4.291   0.751   2.299
 1422SOL    HW2 5718   4.224   0.819   2.292
 1422SOL    HW3 5719   4.374   0.799   2.293
 1422SOL    MW4 5720   4.293   0.766   2.297
 1423SOL     OW 5721   4.052   0.898   2.268
 1423SOL    HW2 5722   4.042   0.990   2.291
 1423SOL    HW3 5723   4.052   0.896   2.172
 1423SOL    MW4 5724   4.051   0.910   2.258
 1424SOL     OW 5725   4.026   1.155   2.359
 1424SOL    HW2 5726   3.997   1.144   2.450
 1424SOL    HW3 5727   3.950   1.193   2.314
 1424SOL    MW4 5728   4.012   1.159   2.365
 1425SOL     OW 5729   4.242   1.287   2.247
 1425SOL    HW2 5730   4.167   1.244   2.288
 1425SOL    HW3 5731   4.319   1.245   2.286
 1425SOL    MW4 5732   4.242   1.276   2.258
 1426SOL     OW 5733   4.239   1.550   2.341
 1426SOL    HW2 5734   4.239   1.462   2.304
 1426SOL    HW3 5735   4.323   1.587   2.314
 1426SOL    MW4 5736   4.250   1.543   2.333
 1427SOL     OW 5737   4.031   1.697   2.206
 1427SOL    HW2 5738   4.109   1.655   2.243
 1427SOL    HW3 5739   3.960   1.672   2.265
 1427SOL    MW4 5740   4.032   1.688   2.219
 1428SOL     OW 5741   4.030   1.915   2.360
 1428SOL    HW2 5742   4.017   1.878   2.448
 1428SOL    HW3 5743   4.035   1.839   2.303
 1428SOL    MW4 5744   4.029   1.900   2.364
 1429SOL     OW 5745   4.252   2.058   2.260
 1429SOL    HW2 5746   4.268   2.140   2.307
 1429SOL    HW3 5747   4.186   2.013   2.312
 1429SOL    MW4 5748   4.245   2.063   2.273
 1430SOL     OW 5749   4.301   2.299   2.399
 1430SOL    HW2 5750   4.223   2.331   2.353
 1430SOL    HW3 5751   4.372   2.355   2.366
 1430SOL    MW4 5752   4.300   2.311   2.389
 1431SOL     OW 5753   4.061   2.415   2.286
 1431SOL    HW2 5754   4.046   2.507   2.309
 1431SOL    HW3 5755   3.981   2.370   2.313
 1431SOL    MW4 5756   4.048   2.421   2.293
 1432SOL     OW 5757   4.034   2.688   2.333
 1432SOL    HW2 5758   4.040   2.714   2.425
 1432SOL    HW3 5759   3.954   2.730   2.301
 1432SOL    MW4 5760   4.024   2.697   2.341
 1433SOL     OW 5761   4.259   2.816   2.218
 1433SOL    HW2 5762   4.185   2.770   2.257
 1433SOL    HW3 5763   4.336   2.771   2.251
 1433SOL    MW4 5764   4.260   2.804   2.228
 1434SOL     OW 5765   4.236   3.077   2.325
 1434SOL    HW2 5766   4.251   2.984   2.309
 1434SOL    HW3 5767   4.311   3.120   2.285
 1434SOL    MW4 5768   4.248   3.070   2.318
 1435SOL     OW 5769   4.043   3.250   2.229
 1435SOL    HW2 5770   4.069   3.329   2.277
 1435SOL    HW3 5771   4.111   3.186   2.250
 1435SOL    MW4 5772   4.055   3.252   2.238
 1436SOL     OW 5773   4.113   3.488   2.352
 1436SOL    HW2 5774   4.184   3.536   2.309
 1436SOL    HW3 5775   4.034   3.519   2.308
 1436SOL    MW4 5776   4.112   3.498   2.341
 1437SOL     OW 5777   4.329   3.619   2.247
 1437SOL    HW2 5778   4.328   3.709   2.281
 1437SOL    HW3 5779   4.287   3.625   2.161
 1437SOL    MW4 5780   4.323   3.632   2.240
 1438SOL     OW 5781   4.319   3.864   2.340
 1438SOL    HW2 5782   4.331   3.860   2.435
 1438SOL    HW3 5783   4.384   3.928   2.310
 1438SOL    MW4 5784   4.329   3.872   2.349
 1439SOL     OW 5785   4.075   3.955   2.289
 1439SOL    HW2 5786   4.165   3.924   2.302
 1439SOL    HW3 5787   4.064   3.960   2.194
 1439SOL    MW4 5788   4.085   3.952   2.278
 1440SOL     OW 5789   4.018   4.240   2.363
 1440SOL    HW2 5790   4.088   4.294   2.327
 1440SOL    HW3 5791   4.047   4.150   2.346
 1440SOL    MW4 5792   4.031   4.235   2.356
 1441SOL     OW 5793   4.247   4.373   2.259
 1441SOL    HW2 5794   4.261   4.459   2.299
 1441SOL    HW3 5795   4.331   4.328   2.270
 1441SOL    MW4 5796   4.260   4.378   2.266
 1442SOL     OW 5797   0.214   4.648   2.673
 1442SOL    HW2 5798   0.187   4.556   2.678
 1442SOL    HW3 5799   0.148   4.695   2.724
 1442SOL    MW4 5800   0.202   4.642   2.680
 1443SOL     OW 5801   4.478   0.104   2.775
 1443SOL    HW2 5802   4.494   0.115   2.869
 1443SOL    HW3 5803   4.482   0.193   2.740
 1443SOL    MW4 5804   4.481   0.117   2.783
 1444SOL     OW 5805   0.002   0.358   2.655
 1444SOL    HW2 5806   0.084   0.405   2.672
 1444SOL    HW3 5807   0.009   0.329   2.564
 1444SOL    MW4 5808   0.014   0.360   2.645
 1445SOL     OW 5809   0.223   0.500   2.717
 1445SOL    HW2 5810   0.237   0.531   2.806
 1445SOL    HW3 5811   0.300   0.447   2.697
 1445SOL    MW4 5812   0.235   0.497   2.726
 1446SOL     OW 5813   0.205   0.747   2.592
 1446SOL    HW2 5814   0.275   0.800   2.631
 1446SOL    HW3 5815   0.214   0.661   2.634
 1446SOL    MW4 5816   0.215   0.743   2.603
 1447SOL     OW 5817   4.466   0.851   2.703
 1447SOL    HW2 5818   4.395   0.800   2.664
 1447SOL    HW3 5819   4.546   0.813   2.667
 1447SOL    MW4 5820   4.467   0.839   2.693
 1448SOL     OW 5821   4.437   1.115   2.604
 1448SOL    HW2 5822   4.506   1.154   2.658
 1448SOL    HW3 5823   4.424   1.028   2.641
 1448SOL    MW4 5824   4.444   1.109   2.616
 1449SOL     OW 5825   0.180   1.235   2.702
 1449SOL    HW2 5826   0.261   1.184   2.693
 1449SOL    HW3 5827   0.201   1.320   2.663
 1449SOL    MW4 5828   0.193   1.239   2.696
 1450SOL     OW 5829   0.259   1.507   2.628
 1450SOL    HW2 5830   0.333   1.559   2.659
 1450SOL    HW3 5831   0.182   1.556   2.657
 1450SOL    MW4 5832   0.259   1.520   2.636
 1451SOL     OW 5833   0.024   1.631   2.684
 1451SOL    HW2 5834   0.023   1.631   2.780
 1451SOL    HW3 5835  -0.001   1.720   2.660
 1451SOL    MW4 5836   0.021   1.643   2.693
 1452SOL     OW 5837   4.440   1.903   2.628
 1452SOL    HW2 5838   4.518   1.949   2.660
 1452SOL    HW3 5839   4.449   1.905   2.533
 1452SOL    MW4 5840   4.451   1.909   2.620
 1453SOL     OW 5841   0.174   2.026   2.739
 1453SOL    HW2 5842   0.248   1.978   2.702
 1453SOL    HW3 5843   0.181   2.114   2.702
 1453SOL    MW4 5844   0.185   2.031   2.729
 1454SOL     OW 5845   0.201   2.288   2.656
 1454SOL    HW2 5846   0.282   2.334   2.679
 1454SOL    HW3 5847   0.131   2.346   2.686
 1454SOL    MW4 5848   0.202   2.302   2.663
 1455SOL     OW 5849   4.465   2.444   2.724
 1455SOL    HW2 5850   4.464   2.459   2.818
 1455SOL    HW3 5851   4.393   2.383   2.708
 1455SOL    MW4 5852   4.455   2.438   2.734
 1456SOL     OW 5853   4.443   2.693   2.591
 1456SOL    HW2 5854   4.381   2.748   2.639
 1456SOL    HW3 5855   4.449   2.612   2.642
 1456SOL    MW4 5856   4.436   2.690   2.604
 1457SOL     OW 5857   0.193   2.778   2.732
 1457SOL    HW2 5858   0.209   2.862   2.688
 1457SOL    HW3 5859   0.114   2.743   2.690
 1457SOL    MW4 5860   0.185   2.784   2.721
 1458SOL     OW 5861   0.198   3.045   2.646
 1458SOL    HW2 5862   0.273   3.094   2.680
 1458SOL    HW3 5863   0.201   3.058   2.551
 1458SOL    MW4 5864   0.208   3.053   2.638
 1459SOL     OW 5865   4.478   3.197   2.725
 1459SOL    HW2 5866   4.405   3.157   2.678
 1459SOL    HW3 5867   4.550   3.134   2.715
 1459SOL    MW4 5868   4.478   3.183   2.717
 1460SOL     OW 5869   0.004   3.459   2.643
 1460SOL    HW2 5870   0.076   3.509   2.681
 1460SOL    HW3 5871   0.013   3.372   2.681
 1460SOL    MW4 5872   0.015   3.454   2.653
 1461SOL     OW 5873   0.214   3.593   2.745
 1461SOL    HW2 5874   0.209   3.585   2.840
 1461SOL    HW3 5875   0.293   3.546   2.720
 1461SOL    MW4 5876   0.224   3.586   2.754
 1462SOL     OW 5877   0.262   3.854   2.692
 1462SOL    HW2 5878   0.251   3.760   2.707
 1462SOL    HW3 5879   0.272   3.863   2.597
 1462SOL    MW4 5880   0.262   3.843   2.681
 1463SOL     OW 5881   0.036   4.004   2.746
 1463SOL    HW2 5882   0.041   4.088   2.700
 1463SOL    HW3 5883   0.122   3.964   2.732
 1463SOL    MW4 5884   0.048   4.010   2.738
 1464SOL     OW 5885   4.469   4.274   2.613
 1464SOL    HW2 5886   4.406   4.287   2.684
 1464SOL    HW3 5887   4.553   4.304   2.649
 1464SOL    MW4 5888   4.472   4.280   2.627
 1465SOL     OW 5889   0.202   4.370   2.710
 1465SOL    HW2 5890   0.213   4.380   2.805
 1465SOL    HW3 5891   0.286   4.335   2.680
 1465SOL    MW4 5892   0.215   4.367   2.719
 1466SOL     OW 5893   0.677   4.612   2.632
 1466SOL    HW2 5894   0.764   4.643   2.658
 1466SOL    HW3 5895   0.617   4.668   2.681
 1466SOL    MW4 5896   0.681   4.623   2.642
 1467SOL     OW 5897   0.463   0.108   2.768
 1467SOL    HW2 5898   0.462   0.124   2.862
 1467SOL    HW3 5899   0.375   0.076   2.748
 1467SOL    MW4 5900   0.451   0.106   2.778
 1468SOL     OW 5901   0.468   0.387   2.646
 1468SOL    HW2 5902   0.536   0.432   2.697
 1468SOL    HW3 5903   0.466   0.298   2.682
 1468SOL    MW4 5904   0.477   0.381   2.657
 1469SOL     OW 5905   0.683   0.527   2.763
 1469SOL    HW2 5906   0.681   0.518   2.858
 1469SOL    HW3 5907   0.753   0.469   2.735
 1469SOL    MW4 5908   0.692   0.518   2.772
 1470SOL     OW 5909   0.642   0.758   2.619
 1470SOL    HW2 5910   0.705   0.820   2.656
 1470SOL    HW3 5911   0.644   0.683   2.678
 1470SOL    MW4 5912   0.651   0.756   2.632
 1471SOL     OW 5913   0.409   0.869   2.707
 1471SOL    HW2 5914   0.422   0.963   2.693
 1471SOL    HW3 5915   0.487   0.828   2.670
 1471SOL    MW4 5916   0.421   0.876   2.700
 1472SOL     OW 5917   0.444   1.141   2.648
 1472SOL    HW2 5918   0.516   1.194   2.682
 1472SOL    HW3 5919   0.456   1.142   2.553
 1472SOL    MW4 5920   0.455   1.148   2.640
 1473SOL     OW 5921   0.673   1.275   2.743
 1473SOL    HW2 5922   0.696   1.275   2.836
 1473SOL    HW3 5923   0.755   1.254   2.698
 1473SOL    MW4 5924   0.687   1.272   2.749
 1474SOL     OW 5925   0.690   1.536   2.632
 1474SOL    HW2 5926   0.611   1.581   2.662
 1474SOL    HW3 5927   0.693   1.456   2.685
 1474SOL    MW4 5928   0.680   1.531   2.643
 1475SOL     OW 5929   0.469   1.683   2.726
 1475SOL    HW2 5930   0.432   1.660   2.811
 1475SOL    HW3 5931   0.443   1.774   2.712
 1475SOL    MW4 5932   0.461   1.692   2.735
 1476SOL     OW 5933   0.399   1.932   2.644
 1476SOL    HW2 5934   0.465   2.002   2.649
 1476SOL    HW3 5935   0.400   1.906   2.552
 1476SOL    MW4 5936   0.408   1.938   2.633
 1477SOL     OW 5937   0.625   2.081   2.715
 1477SOL    HW2 5938   0.614   2.065   2.809
 1477SOL    HW3 5939   0.688   2.014   2.687
 1477SOL    MW4 5940   0.632   2.070   2.724
 1478SOL     OW 5941   0.687   2.337   2.620
 1478SOL    HW2 5942   0.763   2.374   2.666
 1478SOL    HW3 5943   0.673   2.252   2.662
 1478SOL    MW4 5944   0.695   2.331   2.632
 1479SOL     OW 5945   0.459   2.417   2.733
 1479SOL    HW2 5946   0.449   2.506   2.700
 1479SOL    HW3 5947   0.541   2.387   2.694
 1479SOL    MW4 5948   0.468   2.425   2.724
 1480SOL     OW 5949   0.431   2.691   2.641
 1480SOL    HW2 5950   0.504   2.737   2.682
 1480SOL    HW3 5951   0.353   2.729   2.681
 1480SOL    MW4 5952   0.430   2.702   2.652
 1481SOL     OW 5953   0.635   2.832   2.765
 1481SOL    HW2 5954   0.637   2.825   2.860
 1481SOL    HW3 5955   0.637   2.926   2.748
 1481SOL    MW4 5956   0.636   2.844   2.775
 1482SOL     OW 5957   0.656   3.109   2.692
 1482SOL    HW2 5958   0.739   3.148   2.721
 1482SOL    HW3 5959   0.659   3.115   2.596
 1482SOL    MW4 5960   0.667   3.115   2.683
 1483SOL     OW 5961   0.392   3.186   2.753
 1483SOL    HW2 5962   0.384   3.207   2.846
 1483SOL    HW3 5963   0.484   3.162   2.741
 1483SOL    MW4 5964   0.403   3.186   2.764
 1484SOL     OW 5965   0.437   3.468   2.640
 1484SOL    HW2 5966   0.426   3.376   2.666
 1484SOL    HW3 5967   0.458   3.464   2.547
 1484SOL    MW4 5968   0.438   3.455   2.631
 1485SOL     OW 5969   0.671   3.613   2.714
 1485SOL    HW2 5970   0.677   3.606   2.809
 1485SOL    HW3 5971   0.585   3.577   2.692
 1485SOL    MW4 5972   0.660   3.607   2.724
 1486SOL     OW 5973   0.677   3.885   2.652
 1486SOL    HW2 5974   0.594   3.930   2.666
 1486SOL    HW3 5975   0.670   3.805   2.704
 1486SOL    MW4 5976   0.665   3.880   2.661
 1487SOL     OW 5977   0.465   4.034   2.738
 1487SOL    HW2 5978   0.442   4.121   2.704
 1487SOL    HW3 5979   0.384   3.984   2.732
 1487SOL    MW4 5980   0.451   4.039   2.733
 1488SOL     OW 5981   0.440   4.290   2.607
 1488SOL    HW2 5982   0.514   4.326   2.656
 1488SOL    HW3 5983   0.475   4.275   2.519
 1488SOL    MW4 5984   0.454   4.293   2.602
 1489SOL     OW 5985   0.647   4.385   2.760
 1489SOL    HW2 5986   0.729   4.340   2.739
 1489SOL    HW3 5987   0.660   4.475   2.730
 1489SOL    MW4 5988   0.659   4.391   2.753
 1490SOL     OW 5989   1.123   4.626   2.645
 1490SOL    HW2 5990   1.198   4.675   2.680
 1490SOL    HW3 5991   1.135   4.537   2.678
 1490SOL    MW4 5992   1.134   4.621   2.654
 1491SOL     OW 5993   0.889   0.087   2.724
 1491SOL    HW2 5994   0.916   0.110   2.813
 1491SOL    HW3 5995   0.967   0.048   2.684
 1491SOL    MW4 5996   0.903   0.085   2.730
 1492SOL     OW 5997   0.876   0.360   2.639
 1492SOL    HW2 5998   0.881   0.272   2.676
 1492SOL    HW3 5999   0.853   0.346   2.547
 1492SOL    MW4 6000   0.874   0.347   2.632
 1493SOL     OW 6001   1.109   0.497   2.706
 1493SOL    HW2 6002   1.076   0.587   2.699
 1493SOL    HW3 6003   1.033   0.442   2.687
 1493SOL    MW4 6004   1.095   0.502   2.703
 1494SOL     OW 6005   1.042   0.768   2.647
 1494SOL    HW2 6006   1.118   0.811   2.687
 1494SOL    HW3 6007   1.060   0.769   2.553
 1494SOL    MW4 6008   1.054   0.774   2.640
 1495SOL     OW 6009   0.841   0.937   2.701
 1495SOL    HW2 6010   0.842   0.920   2.795
 1495SOL    HW3 6011   0.916   0.888   2.667
 1495SOL    MW4 6012   0.851   0.928   2.709
 1496SOL     OW 6013   0.895   1.187   2.612
 1496SOL    HW2 6014   0.883   1.105   2.660
 1496SOL    HW3 6015   0.893   1.162   2.520
 1496SOL    MW4 6016   0.893   1.173   2.606
 1497SOL     OW 6017   1.119   1.296   2.706
 1497SOL    HW2 6018   1.131   1.388   2.684
 1497SOL    HW3 6019   1.040   1.270   2.659
 1497SOL    MW4 6020   1.110   1.305   2.697
 1498SOL     OW 6021   1.150   1.573   2.622
 1498SOL    HW2 6022   1.067   1.612   2.650
 1498SOL    HW3 6023   1.144   1.570   2.526
 1498SOL    MW4 6024   1.138   1.578   2.613
 1499SOL     OW 6025   0.918   1.669   2.721
 1499SOL    HW2 6026   0.927   1.657   2.816
 1499SOL    HW3 6027   0.826   1.649   2.703
 1499SOL    MW4 6028   0.907   1.665   2.731
 1500SOL     OW 6029   0.872   1.935   2.644
 1500SOL    HW2 6030   0.945   1.988   2.676
 1500SOL    HW3 6031   0.888   1.848   2.681
 1500SOL    MW4 6032   0.884   1.931   2.653
 1501SOL     OW 6033   1.084   2.077   2.749
 1501SOL    HW2 6034   1.170   2.049   2.717
 1501SOL    HW3 6035   1.083   2.172   2.737
 1501SOL    MW4 6036   1.095   2.086   2.743
 1502SOL     OW 6037   1.090   2.331   2.654
 1502SOL    HW2 6038   1.173   2.369   2.682
 1502SOL    HW3 6039   1.089   2.343   2.559
 1502SOL    MW4 6040   1.101   2.338   2.645
 1503SOL     OW 6041   0.875   2.466   2.767
 1503SOL    HW2 6042   0.877   2.556   2.736
 1503SOL    HW3 6043   0.961   2.431   2.744
 1503SOL    MW4 6044   0.887   2.473   2.760
 1504SOL     OW 6045   0.857   2.702   2.651
 1504SOL    HW2 6046   0.936   2.740   2.688
 1504SOL    HW3 6047   0.785   2.753   2.689
 1504SOL    MW4 6048   0.858   2.714   2.661
 1505SOL     OW 6049   1.083   2.832   2.748
 1505SOL    HW2 6050   1.106   2.825   2.841
 1505SOL    HW3 6051   1.159   2.795   2.702
 1505SOL    MW4 6052   1.096   2.826   2.754
 1506SOL     OW 6053   1.148   3.096   2.677
 1506SOL    HW2 6054   1.122   3.007   2.700
 1506SOL    HW3 6055   1.136   3.101   2.582
 1506SOL    MW4 6056   1.143   3.085   2.668
 1507SOL     OW 6057   0.919   3.208   2.759
 1507SOL    HW2 6058   0.903   3.286   2.706
 1507SOL    HW3 6059   1.006   3.179   2.732
 1507SOL    MW4 6060   0.928   3.215   2.749
 1508SOL     OW 6061   0.887   3.462   2.627
 1508SOL    HW2 6062   0.961   3.508   2.667
 1508SOL    HW3 6063   0.810   3.512   2.655
 1508SOL    MW4 6064   0.887   3.475   2.636
 1509SOL     OW 6065   1.102   3.599   2.730
 1509SOL    HW2 6066   1.101   3.626   2.822
 1509SOL    HW3 6067   1.100   3.681   2.681
 1509SOL    MW4 6068   1.102   3.613   2.736
 1510SOL     OW 6069   1.098   3.851   2.644
 1510SOL    HW2 6070   1.178   3.889   2.682
 1510SOL    HW3 6071   1.110   3.859   2.549
 1510SOL    MW4 6072   1.110   3.857   2.637
 1511SOL     OW 6073   0.893   4.008   2.772
 1511SOL    HW2 6074   0.958   3.963   2.717
 1511SOL    HW3 6075   0.809   3.970   2.746
 1511SOL    MW4 6076   0.890   3.997   2.761
 1512SOL     OW 6077   0.888   4.266   2.661
 1512SOL    HW2 6078   0.892   4.174   2.686
 1512SOL    HW3 6079   0.884   4.265   2.565
 1512SOL    MW4 6080   0.888   4.254   2.652
 1513SOL     OW 6081   1.144   4.351   2.744
 1513SOL    HW2 6082   1.137   4.378   2.835
 1513SOL    HW3 6083   1.055   4.327   2.719
 1513SOL    MW4 6084   1.131   4.351   2.753
 1514SOL     OW 6085   1.588   4.655   2.636
 1514SOL    HW2 6086   1.578   4.563   2.661
 1514SOL    HW3 6087   1.601   4.653   2.541
 1514SOL    MW4 6088   1.588   4.643   2.627
 1515SOL     OW 6089   1.351   0.103   2.744
 1515SOL    HW2 6090   1.361   0.195   2.720
 1515SOL    HW3 6091   1.429   0.060   2.708
 1515SOL    MW4 6092   1.363   0.109   2.736
 1516SOL     OW 6093   1.375   0.358   2.673
 1516SOL    HW2 6094   1.442   0.406   2.721
 1516SOL    HW3 6095   1.296   0.411   2.682
 1516SOL    MW4 6096   1.373   0.371   2.681
 1517SOL     OW 6097   1.587   0.480   2.791
 1517SOL    HW2 6098   1.647   0.446   2.724
 1517SOL    HW3 6099   1.560   0.566   2.757
 1517SOL    MW4 6100   1.591   0.487   2.778
 1518SOL     OW 6101   1.508   0.739   2.685
 1518SOL    HW2 6102   1.432   0.794   2.705
 1518SOL    HW3 6103   1.520   0.748   2.590
 1518SOL    MW4 6104   1.500   0.747   2.675
 1519SOL     OW 6105   1.281   0.870   2.735
 1519SOL    HW2 6106   1.294   0.882   2.829
 1519SOL    HW3 6107   1.292   0.957   2.698
 1519SOL    MW4 6108   1.284   0.883   2.742
 1520SOL     OW 6109   1.349   1.136   2.648
 1520SOL    HW2 6110   1.415   1.182   2.701
 1520SOL    HW3 6111   1.267   1.182   2.667
 1520SOL    MW4 6112   1.347   1.148   2.657
 1521SOL     OW 6113   1.575   1.261   2.735
 1521SOL    HW2 6114   1.577   1.259   2.831
 1521SOL    HW3 6115   1.652   1.210   2.709
 1521SOL    MW4 6116   1.585   1.254   2.744
 1522SOL     OW 6117   1.552   1.538   2.663
 1522SOL    HW2 6118   1.550   1.449   2.697
 1522SOL    HW3 6119   1.535   1.528   2.569
 1522SOL    MW4 6120   1.549   1.525   2.655
 1523SOL     OW 6121   1.356   1.722   2.742
 1523SOL    HW2 6122   1.422   1.680   2.687
 1523SOL    HW3 6123   1.273   1.687   2.711
 1523SOL    MW4 6124   1.354   1.712   2.731
 1524SOL     OW 6125   1.336   1.975   2.643
 1524SOL    HW2 6126   1.357   1.891   2.683
 1524SOL    HW3 6127   1.334   1.957   2.549
 1524SOL    MW4 6128   1.338   1.961   2.636
 1525SOL     OW 6129   1.589   2.066   2.791
 1525SOL    HW2 6130   1.658   2.017   2.747
 1525SOL    HW3 6131   1.509   2.040   2.746
 1525SOL    MW4 6132   1.587   2.056   2.779
 1526SOL     OW 6133   1.600   2.302   2.656
 1526SOL    HW2 6134   1.679   2.352   2.678
 1526SOL    HW3 6135   1.602   2.226   2.714
 1526SOL    MW4 6136   1.611   2.299   2.667
 1527SOL     OW 6137   1.348   2.431   2.747
 1527SOL    HW2 6138   1.343   2.522   2.718
 1527SOL    HW3 6139   1.430   2.398   2.709
 1527SOL    MW4 6140   1.358   2.439   2.738
 1528SOL     OW 6141   1.310   2.685   2.659
 1528SOL    HW2 6142   1.380   2.736   2.701
 1528SOL    HW3 6143   1.332   2.687   2.566
 1528SOL    MW4 6144   1.322   2.692   2.652
 1529SOL     OW 6145   1.550   2.828   2.762
 1529SOL    HW2 6146   1.572   2.826   2.855
 1529SOL    HW3 6147   1.618   2.775   2.720
 1529SOL    MW4 6148   1.562   2.821   2.769
 1530SOL     OW 6149   1.579   3.097   2.650
 1530SOL    HW2 6150   1.650   3.145   2.692
 1530SOL    HW3 6151   1.574   3.015   2.699
 1530SOL    MW4 6152   1.588   3.093   2.662
 1531SOL     OW 6153   1.367   3.256   2.741
 1531SOL    HW2 6154   1.433   3.206   2.693
 1531SOL    HW3 6155   1.285   3.210   2.724
 1531SOL    MW4 6156   1.365   3.243   2.732
 1532SOL     OW 6157   1.366   3.527   2.687
 1532SOL    HW2 6158   1.376   3.433   2.704
 1532SOL    HW3 6159   1.276   3.546   2.712
 1532SOL    MW4 6160   1.355   3.517   2.693
 1533SOL     OW 6161   1.589   3.636   2.773
 1533SOL    HW2 6162   1.649   3.575   2.730
 1533SOL    HW3 6163   1.502   3.604   2.749
 1533SOL    MW4 6164   1.585   3.624   2.764
 1534SOL     OW 6165   1.585   3.865   2.649
 1534SOL    HW2 6166   1.504   3.898   2.688
 1534SOL    HW3 6167   1.592   3.775   2.680
 1534SOL    MW4 6168   1.575   3.857   2.658
 1535SOL     OW 6169   1.350   3.975   2.741
 1535SOL    HW2 6170   1.364   3.995   2.834
 1535SOL    HW3 6171   1.369   4.057   2.696
 1535SOL    MW4 6172   1.354   3.988   2.747
 1536SOL     OW 6173   1.375   4.241   2.611
 1536SOL    HW2 6174   1.300   4.282   2.655
 1536SOL    HW3 6175   1.357   4.254   2.518
 1536SOL    MW4 6176   1.363   4.248   2.605
 1537SOL     OW 6177   1.582   4.382   2.729
 1537SOL    HW2 6178   1.572   4.373   2.824
 1537SOL    HW3 6179   1.506   4.337   2.692
 1537SOL    MW4 6180   1.571   4.375   2.737
 1538SOL     OW 6181   2.025   4.639   2.632
 1538SOL    HW2 6182   2.105   4.677   2.668
 1538SOL    HW3 6183   2.029   4.660   2.539
 1538SOL    MW4 6184   2.036   4.647   2.624
 1539SOL     OW 6185   1.811   0.093   2.772
 1539SOL    HW2 6186   1.881   0.051   2.722
 1539SOL    HW3 6187   1.732   0.048   2.743
 1539SOL    MW4 6188   1.810   0.082   2.762
 1540SOL     OW 6189   1.784   0.344   2.638
 1540SOL    HW2 6190   1.866   0.382   2.671
 1540SOL    HW3 6191   1.767   0.269   2.696
 1540SOL    MW4 6192   1.793   0.339   2.650
 1541SOL     OW 6193   2.005   0.443   2.769
 1541SOL    HW2 6194   2.090   0.403   2.751
 1541SOL    HW3 6195   2.012   0.531   2.731
 1541SOL    MW4 6196   2.017   0.449   2.762
 1542SOL     OW 6197   2.000   0.699   2.665
 1542SOL    HW2 6198   1.911   0.731   2.678
 1542SOL    HW3 6199   2.019   0.719   2.573
 1542SOL    MW4 6200   1.991   0.706   2.655
 1543SOL     OW 6201   1.772   0.838   2.720
 1543SOL    HW2 6202   1.786   0.928   2.690
 1543SOL    HW3 6203   1.677   0.826   2.715
 1543SOL    MW4 6204   1.761   0.848   2.715
 1544SOL     OW 6205   1.792   1.108   2.639
 1544SOL    HW2 6206   1.860   1.154   2.689
 1544SOL    HW3 6207   1.812   1.128   2.548
 1544SOL    MW4 6208   1.804   1.117   2.634
 1545SOL     OW 6209   2.006   1.270   2.759
 1545SOL    HW2 6210   2.027   1.266   2.852
 1545SOL    HW3 6211   2.080   1.228   2.716
 1545SOL    MW4 6212   2.019   1.264   2.766
 1546SOL     OW 6213   1.982   1.533   2.639
 1546SOL    HW2 6214   1.908   1.566   2.690
 1546SOL    HW3 6215   1.996   1.444   2.673
 1546SOL    MW4 6216   1.974   1.526   2.650
 1547SOL     OW 6217   1.770   1.669   2.784
 1547SOL    HW2 6218   1.779   1.645   2.876
 1547SOL    HW3 6219   1.697   1.616   2.753
 1547SOL    MW4 6220   1.762   1.659   2.792
 1548SOL     OW 6221   1.764   1.918   2.650
 1548SOL    HW2 6222   1.847   1.962   2.667
 1548SOL    HW3 6223   1.769   1.837   2.700
 1548SOL    MW4 6224   1.776   1.913   2.659
 1549SOL     OW 6225   1.987   2.048   2.736
 1549SOL    HW2 6226   1.995   2.051   2.831
 1549SOL    HW3 6227   2.001   2.139   2.708
 1549SOL    MW4 6228   1.990   2.060   2.745
 1550SOL     OW 6229   2.020   2.316   2.659
 1550SOL    HW2 6230   2.111   2.341   2.675
 1550SOL    HW3 6231   2.010   2.322   2.564
 1550SOL    MW4 6232   2.031   2.320   2.649
 1551SOL     OW 6233   1.808   2.458   2.743
 1551SOL    HW2 6234   1.814   2.444   2.838
 1551SOL    HW3 6235   1.894   2.431   2.710
 1551SOL    MW4 6236   1.820   2.453   2.751
 1552SOL     OW 6237   1.770   2.706   2.633
 1552SOL    HW2 6238   1.793   2.616   2.654
 1552SOL    HW3 6239   1.789   2.715   2.540
 1552SOL    MW4 6240   1.776   2.695   2.623
 1553SOL     OW 6241   1.980   2.859   2.733
 1553SOL    HW2 6242   2.056   2.802   2.729
 1553SOL    HW3 6243   1.908   2.806   2.699
 1553SOL    MW4 6244   1.981   2.844   2.728
 1554SOL     OW 6245   2.011   3.121   2.666
 1554SOL    HW2 6246   2.016   3.030   2.694
 1554SOL    HW3 6247   2.017   3.118   2.571
 1554SOL    MW4 6248   2.012   3.109   2.657
 1555SOL     OW 6249   1.777   3.261   2.750
 1555SOL    HW2 6250   1.785   3.344   2.703
 1555SOL    HW3 6251   1.858   3.214   2.729
 1555SOL    MW4 6252   1.789   3.266   2.741
 1556SOL     OW 6253   1.773   3.489   2.610
 1556SOL    HW2 6254   1.857   3.525   2.638
 1556SOL    HW3 6255   1.773   3.498   2.515
 1556SOL    MW4 6256   1.784   3.495   2.601
 1557SOL     OW 6257   1.993   3.605   2.721
 1557SOL    HW2 6258   1.981   3.602   2.816
 1557SOL    HW3 6259   2.067   3.547   2.704
 1557SOL    MW4 6260   2.001   3.597   2.731
 1558SOL     OW 6261   2.014   3.864   2.598
 1558SOL    HW2 6262   1.935   3.904   2.634
 1558SOL    HW3 6263   2.018   3.778   2.640
 1558SOL    MW4 6264   2.004   3.858   2.608
 1559SOL     OW 6265   1.801   3.992   2.757
 1559SOL    HW2 6266   1.823   4.073   2.711
 1559SOL    HW3 6267   1.722   3.961   2.713
 1559SOL    MW4 6268   1.793   3.999   2.745
 1560SOL     OW 6269   1.795   4.254   2.639
 1560SOL    HW2 6270   1.713   4.289   2.673
 1560SOL    HW3 6271   1.787   4.262   2.544
 1560SOL    MW4 6272   1.783   4.260   2.631
 1561SOL     OW 6273   2.026   4.375   2.718
 1561SOL    HW2 6274   1.944   4.335   2.689
 1561SOL    HW3 6275   2.023   4.464   2.682
 1561SOL    MW4 6276   2.015   4.381   2.709
 1562SOL     OW 6277   2.483   4.659   2.651
 1562SOL    HW2 6278   2.573   4.680   2.676
 1562SOL    HW3 6279   2.487   4.642   2.557
 1562SOL    MW4 6280   2.495   4.660   2.642
 1563SOL     OW 6281   2.245   0.073   2.786
 1563SOL    HW2 6282   2.251   0.071   2.881
 1563SOL    HW3 6283   2.330   0.040   2.756
 1563SOL    MW4 6284   2.257   0.068   2.795
 1564SOL     OW 6285   2.247   0.334   2.686
 1564SOL    HW2 6286   2.257   0.248   2.727
 1564SOL    HW3 6287   2.229   0.315   2.594
 1564SOL    MW4 6288   2.246   0.320   2.679
 1565SOL     OW 6289   2.491   0.440   2.744
 1565SOL    HW2 6290   2.486   0.535   2.733
 1565SOL    HW3 6291   2.404   0.409   2.719
 1565SOL    MW4 6292   2.479   0.448   2.739
 1566SOL     OW 6293   2.453   0.723   2.714
 1566SOL    HW2 6294   2.369   0.758   2.743
 1566SOL    HW3 6295   2.459   0.748   2.622
 1566SOL    MW4 6296   2.443   0.731   2.706
 1567SOL     OW 6297   2.212   0.874   2.753
 1567SOL    HW2 6298   2.210   0.898   2.846
 1567SOL    HW3 6299   2.137   0.815   2.741
 1567SOL    MW4 6300   2.202   0.869   2.764
 1568SOL     OW 6301   2.222   1.136   2.651
 1568SOL    HW2 6302   2.220   1.044   2.677
 1568SOL    HW3 6303   2.252   1.134   2.560
 1568SOL    MW4 6304   2.226   1.124   2.643
 1569SOL     OW 6305   2.429   1.311   2.744
 1569SOL    HW2 6306   2.508   1.274   2.705
 1569SOL    HW3 6307   2.358   1.260   2.705
 1569SOL    MW4 6308   2.430   1.299   2.734
 1570SOL     OW 6309   2.456   1.558   2.637
 1570SOL    HW2 6310   2.370   1.595   2.657
 1570SOL    HW3 6311   2.456   1.473   2.682
 1570SOL    MW4 6312   2.445   1.552   2.646
 1571SOL     OW 6313   2.222   1.670   2.723
 1571SOL    HW2 6314   2.228   1.755   2.680
 1571SOL    HW3 6315   2.134   1.638   2.701
 1571SOL    MW4 6316   2.211   1.677   2.714
 1572SOL     OW 6317   2.216   1.936   2.646
 1572SOL    HW2 6318   2.129   1.964   2.674
 1572SOL    HW3 6319   2.213   1.938   2.550
 1572SOL    MW4 6320   2.204   1.940   2.637
 1573SOL     OW 6321   2.458   2.047   2.732
 1573SOL    HW2 6322   2.450   2.138   2.704
 1573SOL    HW3 6323   2.375   2.006   2.707
 1573SOL    MW4 6324   2.446   2.054   2.725
 1574SOL     OW 6325   2.509   2.307   2.627
 1574SOL    HW2 6326   2.578   2.371   2.644
 1574SOL    HW3 6327   2.494   2.312   2.533
 1574SOL    MW4 6328   2.516   2.316   2.617
 1575SOL     OW 6329   2.271   2.425   2.748
 1575SOL    HW2 6330   2.274   2.422   2.844
 1575SOL    HW3 6331   2.358   2.396   2.721
 1575SOL    MW4 6332   2.283   2.421   2.757
 1576SOL     OW 6333   2.235   2.692   2.672
 1576SOL    HW2 6334   2.302   2.746   2.714
 1576SOL    HW3 6335   2.256   2.603   2.700
 1576SOL    MW4 6336   2.247   2.687   2.681
 1577SOL     OW 6337   2.471   2.834   2.763
 1577SOL    HW2 6338   2.544   2.784   2.726
 1577SOL    HW3 6339   2.494   2.926   2.749
 1577SOL    MW4 6340   2.484   2.839   2.756
 1578SOL     OW 6341   2.493   3.117   2.675
 1578SOL    HW2 6342   2.414   3.166   2.699
 1578SOL    HW3 6343   2.489   3.110   2.580
 1578SOL    MW4 6344   2.482   3.123   2.666
 1579SOL     OW 6345   2.245   3.204   2.782
 1579SOL    HW2 6346   2.221   3.202   2.875
 1579SOL    HW3 6347   2.166   3.175   2.736
 1579SOL    MW4 6348   2.231   3.200   2.788
 1580SOL     OW 6349   2.227   3.453   2.653
 1580SOL    HW2 6350   2.283   3.522   2.689
 1580SOL    HW3 6351   2.247   3.376   2.706
 1580SOL    MW4 6352   2.237   3.452   2.665
 1581SOL     OW 6353   2.436   3.583   2.753
 1581SOL    HW2 6354   2.419   3.589   2.847
 1581SOL    HW3 6355   2.458   3.672   2.726
 1581SOL    MW4 6356   2.437   3.596   2.762
 1582SOL     OW 6357   2.507   3.831   2.670
 1582SOL    HW2 6358   2.580   3.864   2.721
 1582SOL    HW3 6359   2.434   3.890   2.691
 1582SOL    MW4 6360   2.507   3.843   2.680
 1583SOL     OW 6361   2.255   4.007   2.734
 1583SOL    HW2 6362   2.260   3.988   2.828
 1583SOL    HW3 6363   2.181   3.955   2.703
 1583SOL    MW4 6364   2.246   3.998   2.742
 1584SOL     OW 6365   2.256   4.256   2.634
 1584SOL    HW2 6366   2.259   4.168   2.671
 1584SOL    HW3 6367   2.170   4.289   2.659
 1584SOL    MW4 6368   2.245   4.249   2.642
 1585SOL     OW 6369   2.462   4.388   2.756
 1585SOL    HW2 6370   2.379   4.352   2.723
 1585SOL    HW3 6371   2.471   4.471   2.710
 1585SOL    MW4 6372   2.452   4.394   2.746
 1586SOL     OW 6373   2.963   4.579   2.631
 1586SOL    HW2 6374   3.027   4.642   2.665
 1586SOL    HW3 6375   2.942   4.611   2.543
 1586SOL    MW4 6376   2.969   4.592   2.624
 1587SOL     OW 6377   2.729   0.049   2.754
 1587SOL    HW2 6378   2.713   0.056   2.848
 1587SOL    HW3 6379   2.812   0.002   2.747
 1587SOL    MW4 6380   2.738   0.044   2.765
 1588SOL     OW 6381   2.709   0.334   2.628
 1588SOL    HW2 6382   2.724   0.247   2.665
 1588SOL    HW3 6383   2.627   0.363   2.669
 1588SOL    MW4 6384   2.700   0.326   2.638
 1589SOL     OW 6385   2.910   0.498   2.728
 1589SOL    HW2 6386   2.889   0.591   2.724
 1589SOL    HW3 6387   2.836   0.455   2.684
 1589SOL    MW4 6388   2.898   0.505   2.722
 1590SOL     OW 6389   2.870   0.751   2.639
 1590SOL    HW2 6390   2.947   0.794   2.676
 1590SOL    HW3 6391   2.796   0.805   2.667
 1590SOL    MW4 6392   2.870   0.764   2.648
 1591SOL     OW 6393   2.677   0.894   2.753
 1591SOL    HW2 6394   2.692   0.903   2.847
 1591SOL    HW3 6395   2.600   0.838   2.746
 1591SOL    MW4 6396   2.669   0.888   2.764
 1592SOL     OW 6397   2.657   1.158   2.651
 1592SOL    HW2 6398   2.744   1.197   2.656
 1592SOL    HW3 6399   2.665   1.075   2.698
 1592SOL    MW4 6400   2.670   1.152   2.658
 1593SOL     OW 6401   2.903   1.266   2.739
 1593SOL    HW2 6402   2.908   1.265   2.835
 1593SOL    HW3 6403   2.982   1.220   2.710
 1593SOL    MW4 6404   2.914   1.260   2.748
 1594SOL     OW 6405   2.930   1.516   2.655
 1594SOL    HW2 6406   2.854   1.565   2.685
 1594SOL    HW3 6407   2.918   1.428   2.691
 1594SOL    MW4 6408   2.918   1.511   2.664
 1595SOL     OW 6409   2.699   1.646   2.753
 1595SOL    HW2 6410   2.689   1.650   2.848
 1595SOL    HW3 6411   2.614   1.615   2.721
 1595SOL    MW4 6412   2.687   1.642   2.761
 1596SOL     OW 6413   2.688   1.897   2.639
 1596SOL    HW2 6414   2.687   1.816   2.691
 1596SOL    HW3 6415   2.614   1.948   2.672
 1596SOL    MW4 6416   2.678   1.893   2.650
 1597SOL     OW 6417   2.923   2.010   2.785
 1597SOL    HW2 6418   2.915   2.103   2.763
 1597SOL    HW3 6419   2.845   1.969   2.747
 1597SOL    MW4 6420   2.912   2.017   2.777
 1598SOL     OW 6421   2.932   2.269   2.672
 1598SOL    HW2 6422   3.002   2.328   2.701
 1598SOL    HW3 6423   2.851   2.317   2.691
 1598SOL    MW4 6424   2.931   2.283   2.678
 1599SOL     OW 6425   2.716   2.460   2.706
 1599SOL    HW2 6426   2.699   2.449   2.800
 1599SOL    HW3 6427   2.719   2.555   2.693
 1599SOL    MW4 6428   2.714   2.471   2.717
 1600SOL     OW 6429   2.677   2.729   2.642
 1600SOL    HW2 6430   2.759   2.756   2.683
 1600SOL    HW3 6431   2.698   2.725   2.549
 1600SOL    MW4 6432   2.691   2.732   2.635
 1601SOL     OW 6433   2.923   2.789   2.744
 1601SOL    HW2 6434   2.928   2.810   2.837
 1601SOL    HW3 6435   2.946   2.870   2.699
 1601SOL    MW4 6436   2.927   2.803   2.750
 1602SOL     OW 6437   2.987   3.049   2.649
 1602SOL    HW2 6438   2.922   3.089   2.707
 1602SOL    HW3 6439   2.952   3.061   2.561
 1602SOL    MW4 6440   2.974   3.056   2.645
 1603SOL     OW 6441   2.758   3.197   2.789
 1603SOL    HW2 6442   2.755   3.282   2.746
 1603SOL    HW3 6443   2.678   3.152   2.760
 1603SOL    MW4 6444   2.747   3.202   2.779
 1604SOL     OW 6445   2.680   3.456   2.684
 1604SOL    HW2 6446   2.605   3.506   2.717
 1604SOL    HW3 6447   2.666   3.451   2.589
 1604SOL    MW4 6448   2.668   3.462   2.676
 1605SOL     OW 6449   2.937   3.577   2.752
 1605SOL    HW2 6450   2.924   3.575   2.847
 1605SOL    HW3 6451   2.859   3.534   2.717
 1605SOL    MW4 6452   2.925   3.571   2.760
 1606SOL     OW 6453   2.944   3.838   2.643
 1606SOL    HW2 6454   3.016   3.879   2.690
 1606SOL    HW3 6455   2.941   3.748   2.676
 1606SOL    MW4 6456   2.953   3.832   2.654
 1607SOL     OW 6457   2.711   3.973   2.759
 1607SOL    HW2 6458   2.692   4.065   2.740
 1607SOL    HW3 6459   2.797   3.957   2.719
 1607SOL    MW4 6460   2.720   3.983   2.751
 1608SOL     OW 6461   2.681   4.240   2.672
 1608SOL    HW2 6462   2.756   4.282   2.714
 1608SOL    HW3 6463   2.605   4.288   2.705
 1608SOL    MW4 6464   2.681   4.252   2.682
 1609SOL     OW 6465   2.930   4.339   2.782
 1609SOL    HW2 6466   2.932   4.351   2.877
 1609SOL    HW3 6467   2.938   4.427   2.746
 1609SOL    MW4 6468   2.931   4.352   2.790
 1610SOL     OW 6469   3.396   0.009   2.665
 1610SOL    HW2 6470   3.381  -0.082   2.692
 1610SOL    HW3 6471   3.322   0.058   2.701
 1610SOL    MW4 6472   3.384   0.004   2.673
 1611SOL     OW 6473   3.156   0.098   2.749
 1611SOL    HW2 6474   3.150   0.105   2.844
 1611SOL    HW3 6475   3.134   0.186   2.717
 1611SOL    MW4 6476   3.152   0.110   2.757
 1612SOL     OW 6477   3.126   0.346   2.637
 1612SOL    HW2 6478   3.063   0.417   2.648
 1612SOL    HW3 6479   3.125   0.327   2.543
 1612SOL    MW4 6480   3.118   0.353   2.626
 1613SOL     OW 6481   3.360   0.478   2.711
 1613SOL    HW2 6482   3.351   0.569   2.683
 1613SOL    HW3 6483   3.284   0.434   2.674
 1613SOL    MW4 6484   3.349   0.484   2.702
 1614SOL     OW 6485   3.329   0.749   2.621
 1614SOL    HW2 6486   3.411   0.788   2.652
 1614SOL    HW3 6487   3.341   0.739   2.527
 1614SOL    MW4 6488   3.341   0.753   2.613
 1615SOL     OW 6489   3.096   0.876   2.728
 1615SOL    HW2 6490   3.096   0.870   2.824
 1615SOL    HW3 6491   3.173   0.826   2.701
 1615SOL    MW4 6492   3.106   0.869   2.737
 1616SOL     OW 6493   3.104   1.119   2.632
 1616SOL    HW2 6494   3.108   1.029   2.663
 1616SOL    HW3 6495   3.102   1.111   2.537
 1616SOL    MW4 6496   3.104   1.106   2.624
 1617SOL     OW 6497   3.351   1.265   2.710
 1617SOL    HW2 6498   3.347   1.255   2.805
 1617SOL    HW3 6499   3.270   1.225   2.679
 1617SOL    MW4 6500   3.340   1.258   2.718
 1618SOL     OW 6501   3.352   1.520   2.621
 1618SOL    HW2 6502   3.277   1.555   2.670
 1618SOL    HW3 6503   3.357   1.428   2.647
 1618SOL    MW4 6504   3.343   1.512   2.631
 1619SOL     OW 6505   3.142   1.641   2.749
 1619SOL    HW2 6506   3.133   1.734   2.728
 1619SOL    HW3 6507   3.068   1.600   2.704
 1619SOL    MW4 6508   3.131   1.648   2.740
 1620SOL     OW 6509   3.163   1.894   2.672
 1620SOL    HW2 6510   3.243   1.946   2.677
 1620SOL    HW3 6511   3.099   1.943   2.724
 1620SOL    MW4 6512   3.165   1.907   2.679
 1621SOL     OW 6513   3.375   2.055   2.745
 1621SOL    HW2 6514   3.373   2.064   2.840
 1621SOL    HW3 6515   3.368   2.145   2.712
 1621SOL    MW4 6516   3.374   2.068   2.753
 1622SOL     OW 6517   3.374   2.304   2.638
 1622SOL    HW2 6518   3.461   2.338   2.658
 1622SOL    HW3 6519   3.376   2.285   2.544
 1622SOL    MW4 6520   3.386   2.306   2.628
 1623SOL     OW 6521   3.161   2.404   2.746
 1623SOL    HW2 6522   3.152   2.480   2.689
 1623SOL    HW3 6523   3.237   2.357   2.712
 1623SOL    MW4 6524   3.170   2.408   2.734
 1624SOL     OW 6525   3.157   2.643   2.623
 1624SOL    HW2 6526   3.222   2.689   2.676
 1624SOL    HW3 6527   3.073   2.677   2.653
 1624SOL    MW4 6528   3.154   2.654   2.634
 1625SOL     OW 6529   3.373   2.775   2.725
 1625SOL    HW2 6530   3.381   2.782   2.820
 1625SOL    HW3 6531   3.457   2.739   2.697
 1625SOL    MW4 6532   3.385   2.771   2.734
 1626SOL     OW 6533   3.386   3.030   2.671
 1626SOL    HW2 6534   3.357   2.941   2.692
 1626SOL    HW3 6535   3.378   3.036   2.576
 1626SOL    MW4 6536   3.381   3.019   2.661
 1627SOL     OW 6537   3.185   3.195   2.770
 1627SOL    HW2 6538   3.268   3.165   2.733
 1627SOL    HW3 6539   3.120   3.132   2.740
 1627SOL    MW4 6540   3.187   3.183   2.761
 1628SOL     OW 6541   3.155   3.442   2.654
 1628SOL    HW2 6542   3.162   3.360   2.704
 1628SOL    HW3 6543   3.082   3.489   2.694
 1628SOL    MW4 6544   3.146   3.437   2.666
 1629SOL     OW 6545   3.393   3.580   2.746
 1629SOL    HW2 6546   3.376   3.603   2.837
 1629SOL    HW3 6547   3.315   3.532   2.719
 1629SOL    MW4 6548   3.380   3.577   2.755
 1630SOL     OW 6549   3.376   3.851   2.689
 1630SOL    HW2 6550   3.394   3.758   2.702
 1630SOL    HW3 6551   3.394   3.867   2.596
 1630SOL    MW4 6552   3.381   3.841   2.678
 1631SOL     OW 6553   3.150   3.981   2.768
 1631SOL    HW2 6554   3.169   4.072   2.745
 1631SOL    HW3 6555   3.227   3.933   2.739
 1631SOL    MW4 6556   3.163   3.987   2.761
 1632SOL     OW 6557   3.171   4.256   2.667
 1632SOL    HW2 6558   3.086   4.273   2.709
 1632SOL    HW3 6559   3.150   4.240   2.575
 1632SOL    MW4 6560   3.157   4.256   2.660
 1633SOL     OW 6561   3.379   4.411   2.735
 1633SOL    HW2 6562   3.386   4.404   2.830
 1633SOL    HW3 6563   3.299   4.363   2.714
 1633SOL    MW4 6564   3.369   4.404   2.745
 1634SOL     OW 6565   3.825   0.003   2.580
 1634SOL    HW2 6566   3.822  -0.086   2.616
 1634SOL    HW3 6567   3.754   0.049   2.624
 1634SOL    MW4 6568   3.815  -0.003   2.591
 1635SOL     OW 6569   3.647   0.156   2.742
 1635SOL    HW2 6570   3.641   0.238   2.692
 1635SOL    HW3 6571   3.583   0.098   2.702
 1635SOL    MW4 6572   3.638   0.159   2.730
 1636SOL     OW 6573   3.585   0.389   2.586
 1636SOL    HW2 6574   3.652   0.438   2.634
 1636SOL    HW3 6575   3.505   0.402   2.637
 1636SOL    MW4 6576   3.583   0.397   2.599
 1637SOL     OW 6577   3.801   0.511   2.736
 1637SOL    HW2 6578   3.826   0.517   2.828
 1637SOL    HW3 6579   3.866   0.452   2.697
 1637SOL    MW4 6580   3.813   0.504   2.743
 1638SOL     OW 6581   3.792   0.757   2.613
 1638SOL    HW2 6582   3.727   0.816   2.650
 1638SOL    HW3 6583   3.778   0.674   2.658
 1638SOL    MW4 6584   3.782   0.754   2.624
 1639SOL     OW 6585   3.571   0.876   2.712
 1639SOL    HW2 6586   3.552   0.879   2.806
 1639SOL    HW3 6587   3.579   0.968   2.687
 1639SOL    MW4 6588   3.570   0.888   2.721
 1640SOL     OW 6589   3.577   1.134   2.623
 1640SOL    HW2 6590   3.653   1.167   2.672
 1640SOL    HW3 6591   3.503   1.182   2.659
 1640SOL    MW4 6592   3.577   1.145   2.634
 1641SOL     OW 6593   3.780   1.284   2.731
 1641SOL    HW2 6594   3.854   1.236   2.694
 1641SOL    HW3 6595   3.785   1.370   2.690
 1641SOL    MW4 6596   3.790   1.289   2.721
 1642SOL     OW 6597   3.792   1.546   2.607
 1642SOL    HW2 6598   3.870   1.572   2.656
 1642SOL    HW3 6599   3.720   1.593   2.649
 1642SOL    MW4 6600   3.793   1.556   2.619
 1643SOL     OW 6601   3.579   1.651   2.729
 1643SOL    HW2 6602   3.587   1.741   2.698
 1643SOL    HW3 6603   3.497   1.619   2.690
 1643SOL    MW4 6604   3.569   1.659   2.720
 1644SOL     OW 6605   3.582   1.904   2.629
 1644SOL    HW2 6606   3.509   1.959   2.658
 1644SOL    HW3 6607   3.593   1.926   2.536
 1644SOL    MW4 6608   3.574   1.914   2.621
 1645SOL     OW 6609   3.812   2.009   2.747
 1645SOL    HW2 6610   3.879   1.962   2.698
 1645SOL    HW3 6611   3.730   1.968   2.721
 1645SOL    MW4 6612   3.810   1.997   2.737
 1646SOL     OW 6613   3.834   2.276   2.661
 1646SOL    HW2 6614   3.844   2.187   2.695
 1646SOL    HW3 6615   3.851   2.267   2.567
 1646SOL    MW4 6616   3.838   2.263   2.653
 1647SOL     OW 6617   3.607   2.419   2.756
 1647SOL    HW2 6618   3.594   2.397   2.848
 1647SOL    HW3 6619   3.683   2.367   2.729
 1647SOL    MW4 6620   3.615   2.409   2.765
 1648SOL     OW 6621   3.637   2.681   2.660
 1648SOL    HW2 6622   3.625   2.592   2.693
 1648SOL    HW3 6623   3.646   2.670   2.565
 1648SOL    MW4 6624   3.637   2.668   2.652
 1649SOL     OW 6625   3.820   2.848   2.782
 1649SOL    HW2 6626   3.901   2.802   2.759
 1649SOL    HW3 6627   3.751   2.800   2.736
 1649SOL    MW4 6628   3.822   2.836   2.773
 1650SOL     OW 6629   3.839   3.070   2.630
 1650SOL    HW2 6630   3.772   3.125   2.670
 1650SOL    HW3 6631   3.837   2.989   2.681
 1650SOL    MW4 6632   3.830   3.067   2.642
 1651SOL     OW 6633   3.610   3.174   2.763
 1651SOL    HW2 6634   3.581   3.254   2.720
 1651SOL    HW3 6635   3.546   3.108   2.737
 1651SOL    MW4 6636   3.598   3.176   2.754
 1652SOL     OW 6637   3.600   3.426   2.637
 1652SOL    HW2 6638   3.669   3.480   2.677
 1652SOL    HW3 6639   3.518   3.465   2.668
 1652SOL    MW4 6640   3.598   3.438   2.646
 1653SOL     OW 6641   3.808   3.589   2.737
 1653SOL    HW2 6642   3.896   3.567   2.706
 1653SOL    HW3 6643   3.797   3.681   2.712
 1653SOL    MW4 6644   3.818   3.598   2.730
 1654SOL     OW 6645   3.787   3.852   2.632
 1654SOL    HW2 6646   3.874   3.887   2.653
 1654SOL    HW3 6647   3.726   3.914   2.672
 1654SOL    MW4 6648   3.790   3.865   2.640
 1655SOL     OW 6649   3.592   4.000   2.792
 1655SOL    HW2 6650   3.573   4.083   2.747
 1655SOL    HW3 6651   3.519   3.943   2.768
 1655SOL    MW4 6652   3.580   4.003   2.783
 1656SOL     OW 6653   3.588   4.247   2.655
 1656SOL    HW2 6654   3.516   4.302   2.686
 1656SOL    HW3 6655   3.576   4.243   2.560
 1656SOL    MW4 6656   3.577   4.254   2.647
 1657SOL     OW 6657   3.807   4.414   2.683
 1657SOL    HW2 6658   3.868   4.341   2.678
 1657SOL    HW3 6659   3.724   4.378   2.652
 1657SOL    MW4 6660   3.804   4.400   2.678
 1658SOL     OW 6661   4.284   4.606   2.659
 1658SOL    HW2 6662   4.211   4.665   2.677
 1658SOL    HW3 6663   4.361   4.653   2.691
 1658SOL    MW4 6664   4.284   4.620   2.666
 1659SOL     OW 6665   4.059   0.094   2.703
 1659SOL    HW2 6666   4.039   0.101   2.796
 1659SOL    HW3 6667   3.975   0.075   2.661
 1659SOL    MW4 6668   4.045   0.092   2.710
 1660SOL     OW 6669   3.999   0.359   2.620
 1660SOL    HW2 6670   4.022   0.270   2.646
 1660SOL    HW3 6671   4.009   0.359   2.525
 1660SOL    MW4 6672   4.003   0.347   2.611
 1661SOL     OW 6673   4.230   0.486   2.724
 1661SOL    HW2 6674   4.155   0.442   2.683
 1661SOL    HW3 6675   4.306   0.437   2.693
 1661SOL    MW4 6676   4.230   0.474   2.715
 1662SOL     OW 6677   4.233   0.734   2.596
 1662SOL    HW2 6678   4.216   0.651   2.640
 1662SOL    HW3 6679   4.243   0.711   2.504
 1662SOL    MW4 6680   4.232   0.720   2.590
 1663SOL     OW 6681   4.011   0.859   2.730
 1663SOL    HW2 6682   4.089   0.827   2.685
 1663SOL    HW3 6683   3.938   0.816   2.685
 1663SOL    MW4 6684   4.012   0.849   2.718
 1664SOL     OW 6685   3.991   1.140   2.639
 1664SOL    HW2 6686   4.071   1.182   2.672
 1664SOL    HW3 6687   3.997   1.050   2.670
 1664SOL    MW4 6688   4.002   1.134   2.647
 1665SOL     OW 6689   4.229   1.261   2.714
 1665SOL    HW2 6690   4.229   1.351   2.681
 1665SOL    HW3 6691   4.300   1.218   2.666
 1665SOL    MW4 6692   4.238   1.267   2.703
 1666SOL     OW 6693   4.274   1.505   2.613
 1666SOL    HW2 6694   4.355   1.550   2.635
 1666SOL    HW3 6695   4.268   1.511   2.518
 1666SOL    MW4 6696   4.284   1.512   2.603
 1667SOL     OW 6697   4.027   1.606   2.723
 1667SOL    HW2 6698   4.034   1.607   2.818
 1667SOL    HW3 6699   4.116   1.587   2.692
 1667SOL    MW4 6700   4.040   1.604   2.732
 1668SOL     OW 6701   4.015   1.864   2.635
 1668SOL    HW2 6702   4.088   1.908   2.679
 1668SOL    HW3 6703   4.006   1.780   2.680
 1668SOL    MW4 6704   4.023   1.859   2.647
 1669SOL     OW 6705   4.225   1.997   2.771
 1669SOL    HW2 6706   4.228   2.085   2.735
 1669SOL    HW3 6707   4.297   1.951   2.729
 1669SOL    MW4 6708   4.235   2.003   2.761
 1670SOL     OW 6709   4.248   2.258   2.657
 1670SOL    HW2 6710   4.179   2.325   2.662
 1670SOL    HW3 6711   4.282   2.265   2.568
 1670SOL    MW4 6712   4.243   2.268   2.646
 1671SOL     OW 6713   4.048   2.438   2.721
 1671SOL    HW2 6714   4.026   2.444   2.814
 1671SOL    HW3 6715   3.977   2.386   2.682
 1671SOL    MW4 6716   4.036   2.432   2.728
 1672SOL     OW 6717   4.010   2.718   2.613
 1672SOL    HW2 6718   4.099   2.732   2.644
 1672SOL    HW3 6719   3.983   2.636   2.655
 1672SOL    MW4 6720   4.018   2.709   2.623
 1673SOL     OW 6721   4.229   2.826   2.725
 1673SOL    HW2 6722   4.227   2.839   2.820
 1673SOL    HW3 6723   4.231   2.915   2.689
 1673SOL    MW4 6724   4.229   2.839   2.733
 1674SOL     OW 6725   4.244   3.096   2.601
 1674SOL    HW2 6726   4.181   3.159   2.637
 1674SOL    HW3 6727   4.235   3.104   2.506
 1674SOL    MW4 6728   4.235   3.105   2.593
 1675SOL     OW 6729   4.042   3.254   2.735
 1675SOL    HW2 6730   4.047   3.345   2.707
 1675SOL    HW3 6731   3.971   3.217   2.682
 1675SOL    MW4 6732   4.033   3.261   2.724
 1676SOL     OW 6733   4.058   3.516   2.625
 1676SOL    HW2 6734   4.132   3.561   2.665
 1676SOL    HW3 6735   4.083   3.507   2.533
 1676SOL    MW4 6736   4.071   3.521   2.618
 1677SOL     OW 6737   4.279   3.625   2.754
 1677SOL    HW2 6738   4.265   3.618   2.848
 1677SOL    HW3 6739   4.342   3.556   2.734
 1677SOL    MW4 6740   4.285   3.615   2.764
 1678SOL     OW 6741   4.315   3.862   2.622
 1678SOL    HW2 6742   4.301   3.787   2.680
 1678SOL    HW3 6743   4.391   3.907   2.659
 1678SOL    MW4 6744   4.323   3.858   2.635
 1679SOL     OW 6745   4.050   3.978   2.700
 1679SOL    HW2 6746   4.046   3.965   2.795
 1679SOL    HW3 6747   4.137   3.946   2.675
 1679SOL    MW4 6748   4.061   3.972   2.709
 1680SOL     OW 6749   4.018   4.240   2.639
 1680SOL    HW2 6750   4.012   4.146   2.657
 1680SOL    HW3 6751   4.010   4.246   2.544
 1680SOL    MW4 6752   4.016   4.228   2.629
 1681SOL     OW 6753   4.239   4.343   2.767
 1681SOL    HW2 6754   4.167   4.305   2.717
 1681SOL    HW3 6755   4.249   4.431   2.732
 1681SOL    MW4 6756   4.231   4.350   2.756
 1682SOL     OW 6757   0.253   4.614   3.135
 1682SOL    HW2 6758   0.257   4.618   3.231
 1682SOL    HW3 6759   0.178   4.669   3.112
 1682SOL    MW4 6760   0.244   4.622   3.145
 1683SOL     OW 6761   0.007   0.095   3.054
 1683SOL    HW2 6762  -0.085   0.069   3.063
 1683SOL    HW3 6763   0.009   0.188   3.078
 1683SOL    MW4 6764  -0.005   0.104   3.058
 1684SOL     OW 6765   0.008   0.369   3.085
 1684SOL    HW2 6766   0.010   0.394   3.177
 1684SOL    HW3 6767  -0.074   0.406   3.051
 1684SOL    MW4 6768  -0.003   0.377   3.093
 1685SOL     OW 6769   0.237   0.496   2.997
 1685SOL    HW2 6770   0.302   0.453   3.052
 1685SOL    HW3 6771   0.153   0.472   3.035
 1685SOL    MW4 6772   0.234   0.487   3.009
 1686SOL     OW 6773   0.240   0.757   3.071
 1686SOL    HW2 6774   0.205   0.765   3.160
 1686SOL    HW3 6775   0.236   0.663   3.051
 1686SOL    MW4 6776   0.235   0.746   3.080
 1687SOL     OW 6777   4.477   0.875   2.991
 1687SOL    HW2 6778   4.566   0.845   3.011
 1687SOL    HW3 6779   4.472   0.872   2.895
 1687SOL    MW4 6780   4.488   0.871   2.981
 1688SOL     OW 6781   4.471   1.121   3.105
 1688SOL    HW2 6782   4.389   1.163   3.078
 1688SOL    HW3 6783   4.468   1.034   3.066
 1688SOL    MW4 6784   4.460   1.115   3.096
 1689SOL     OW 6785   0.223   1.263   2.986
 1689SOL    HW2 6786   0.172   1.203   3.040
 1689SOL    HW3 6787   0.182   1.257   2.899
 1689SOL    MW4 6788   0.211   1.254   2.982
 1690SOL     OW 6789   0.181   1.543   3.069
 1690SOL    HW2 6790   0.099   1.583   3.039
 1690SOL    HW3 6791   0.171   1.450   3.049
 1690SOL    MW4 6792   0.169   1.536   3.062
 1691SOL     OW 6793   4.455   1.679   2.978
 1691SOL    HW2 6794   4.391   1.633   3.032
 1691SOL    HW3 6795   4.472   1.760   3.025
 1691SOL    MW4 6796   4.449   1.684   2.991
 1692SOL     OW 6797   4.474   1.903   3.132
 1692SOL    HW2 6798   4.393   1.952   3.121
 1692SOL    HW3 6799   4.542   1.960   3.095
 1692SOL    MW4 6800   4.472   1.917   3.126
 1693SOL     OW 6801   0.205   2.018   3.013
 1693SOL    HW2 6802   0.200   2.107   3.048
 1693SOL    HW3 6803   0.193   2.028   2.919
 1693SOL    MW4 6804   0.203   2.031   3.005
 1694SOL     OW 6805   0.188   2.287   3.108
 1694SOL    HW2 6806   0.206   2.296   3.202
 1694SOL    HW3 6807   0.270   2.312   3.065
 1694SOL    MW4 6808   0.201   2.291   3.115
 1695SOL     OW 6809   4.482   2.454   3.000
 1695SOL    HW2 6810   4.478   2.539   3.044
 1695SOL    HW3 6811   4.550   2.405   3.047
 1695SOL    MW4 6812   4.490   2.459   3.012
 1696SOL     OW 6813   4.454   2.707   3.125
 1696SOL    HW2 6814   4.447   2.729   3.218
 1696SOL    HW3 6815   4.532   2.754   3.094
 1696SOL    MW4 6816   4.463   2.716   3.133
 1697SOL     OW 6817   0.165   2.826   3.020
 1697SOL    HW2 6818   0.238   2.768   3.041
 1697SOL    HW3 6819   0.154   2.816   2.925
 1697SOL    MW4 6820   0.173   2.817   3.010
 1698SOL     OW 6821   0.208   3.111   3.136
 1698SOL    HW2 6822   0.129   3.148   3.096
 1698SOL    HW3 6823   0.196   3.016   3.130
 1698SOL    MW4 6824   0.196   3.103   3.130
 1699SOL     OW 6825   4.455   3.214   3.007
 1699SOL    HW2 6826   4.372   3.182   3.043
 1699SOL    HW3 6827   4.451   3.192   2.914
 1699SOL    MW4 6828   4.444   3.207   2.999
 1700SOL     OW 6829   4.490   3.485   3.130
 1700SOL    HW2 6830   4.421   3.543   3.097
 1700SOL    HW3 6831   4.479   3.404   3.080
 1700SOL    MW4 6832   4.479   3.482   3.119
 1701SOL     OW 6833   0.219   3.577   3.015
 1701SOL    HW2 6834   0.225   3.664   3.053
 1701SOL    HW3 6835   0.145   3.536   3.059
 1701SOL    MW4 6836   0.210   3.583   3.026
 1702SOL     OW 6837   0.240   3.826   3.129
 1702SOL    HW2 6838   0.243   3.853   3.221
 1702SOL    HW3 6839   0.300   3.886   3.084
 1702SOL    MW4 6840   0.248   3.838   3.135
 1703SOL     OW 6841   0.012   3.980   3.036
 1703SOL    HW2 6842   0.091   3.936   3.067
 1703SOL    HW3 6843   0.028   3.996   2.943
 1703SOL    MW4 6844   0.025   3.976   3.028
 1704SOL     OW 6845   0.007   4.240   3.148
 1704SOL    HW2 6846   0.007   4.241   3.244
 1704SOL    HW3 6847   0.004   4.147   3.125
 1704SOL    MW4 6848   0.007   4.228   3.158
 1705SOL     OW 6849   0.183   4.375   2.982
 1705SOL    HW2 6850   0.124   4.337   3.048
 1705SOL    HW3 6851   0.208   4.460   3.018
 1705SOL    MW4 6852   0.179   4.381   2.995
 1706SOL     OW 6853   0.710   0.022   3.100
 1706SOL    HW2 6854   0.696  -0.065   3.062
 1706SOL    HW3 6855   0.631   0.071   3.077
 1706SOL    MW4 6856   0.698   0.017   3.092
 1707SOL     OW 6857   0.459   0.130   3.036
 1707SOL    HW2 6858   0.441   0.211   3.084
 1707SOL    HW3 6859   0.399   0.066   3.074
 1707SOL    MW4 6860   0.449   0.132   3.047
 1708SOL     OW 6861   0.423   0.383   3.162
 1708SOL    HW2 6862   0.420   0.364   3.256
 1708SOL    HW3 6863   0.510   0.419   3.147
 1708SOL    MW4 6864   0.434   0.385   3.172
 1709SOL     OW 6865   0.660   0.503   3.036
 1709SOL    HW2 6866   0.745   0.463   3.055
 1709SOL    HW3 6867   0.664   0.589   3.078
 1709SOL    MW4 6868   0.672   0.509   3.044
 1710SOL     OW 6869   0.676   0.770   3.119
 1710SOL    HW2 6870   0.664   0.779   3.214
 1710SOL    HW3 6871   0.604   0.821   3.081
 1710SOL    MW4 6872   0.665   0.778   3.126
 1711SOL     OW 6873   0.452   0.899   2.996
 1711SOL    HW2 6874   0.378   0.850   3.032
 1711SOL    HW3 6875   0.455   0.874   2.904
 1711SOL    MW4 6876   0.443   0.889   2.989
 1712SOL     OW 6877   0.471   1.175   3.068
 1712SOL    HW2 6878   0.466   1.086   3.033
 1712SOL    HW3 6879   0.399   1.222   3.026
 1712SOL    MW4 6880   0.461   1.170   3.058
 1713SOL     OW 6881   0.724   1.269   3.011
 1713SOL    HW2 6882   0.795   1.239   3.067
 1713SOL    HW3 6883   0.646   1.225   3.044
 1713SOL    MW4 6884   0.723   1.259   3.023
 1714SOL     OW 6885   0.646   1.531   3.082
 1714SOL    HW2 6886   0.631   1.526   3.176
 1714SOL    HW3 6887   0.661   1.440   3.056
 1714SOL    MW4 6888   0.646   1.518   3.091
 1715SOL     OW 6889   0.410   1.683   3.001
 1715SOL    HW2 6890   0.487   1.639   3.038
 1715SOL    HW3 6891   0.335   1.633   3.034
 1715SOL    MW4 6892   0.410   1.671   3.010
 1716SOL     OW 6893   0.421   1.917   3.135
 1716SOL    HW2 6894   0.426   1.832   3.091
 1716SOL    HW3 6895   0.353   1.964   3.087
 1716SOL    MW4 6896   0.413   1.912   3.123
 1717SOL     OW 6897   0.632   2.033   2.987
 1717SOL    HW2 6898   0.709   1.977   2.999
 1717SOL    HW3 6899   0.569   2.002   3.053
 1717SOL    MW4 6900   0.634   2.022   2.997
 1718SOL     OW 6901   0.677   2.299   3.084
 1718SOL    HW2 6902   0.690   2.293   3.179
 1718SOL    HW3 6903   0.664   2.208   3.056
 1718SOL    MW4 6904   0.677   2.286   3.093
 1719SOL     OW 6905   0.420   2.401   3.004
 1719SOL    HW2 6906   0.507   2.376   3.035
 1719SOL    HW3 6907   0.430   2.412   2.910
 1719SOL    MW4 6908   0.433   2.399   2.996
 1720SOL     OW 6909   0.370   2.648   3.093
 1720SOL    HW2 6910   0.451   2.692   3.067
 1720SOL    HW3 6911   0.383   2.557   3.067
 1720SOL    MW4 6912   0.382   2.642   3.086
 1721SOL     OW 6913   0.619   2.818   3.042
 1721SOL    HW2 6914   0.708   2.786   3.054
 1721SOL    HW3 6915   0.627   2.913   3.050
 1721SOL    MW4 6916   0.632   2.826   3.045
 1722SOL     OW 6917   0.663   3.089   3.087
 1722SOL    HW2 6918   0.663   3.086   3.183
 1722SOL    HW3 6919   0.583   3.137   3.065
 1722SOL    MW4 6920   0.652   3.095   3.097
 1723SOL     OW 6921   0.429   3.205   3.016
 1723SOL    HW2 6922   0.443   3.292   3.052
 1723SOL    HW3 6923   0.352   3.172   3.062
 1723SOL    MW4 6924   0.421   3.212   3.027
 1724SOL     OW 6925   0.470   3.468   3.107
 1724SOL    HW2 6926   0.475   3.483   3.201
 1724SOL    HW3 6927   0.385   3.503   3.081
 1724SOL    MW4 6928   0.459   3.475   3.116
 1725SOL     OW 6929   0.687   3.639   2.980
 1725SOL    HW2 6930   0.761   3.585   3.007
 1725SOL    HW3 6931   0.611   3.598   3.022
 1725SOL    MW4 6932   0.687   3.626   2.989
 1726SOL     OW 6933   0.684   3.876   3.121
 1726SOL    HW2 6934   0.701   3.869   3.215
 1726SOL    HW3 6935   0.703   3.789   3.086
 1726SOL    MW4 6936   0.689   3.864   3.129
 1727SOL     OW 6937   0.435   3.998   3.021
 1727SOL    HW2 6938   0.510   3.952   3.058
 1727SOL    HW3 6939   0.457   4.011   2.929
 1727SOL    MW4 6940   0.448   3.994   3.014
 1728SOL     OW 6941   0.435   4.241   3.147
 1728SOL    HW2 6942   0.453   4.156   3.107
 1728SOL    HW3 6943   0.350   4.268   3.111
 1728SOL    MW4 6944   0.426   4.233   3.137
 1729SOL     OW 6945   0.655   4.415   3.054
 1729SOL    HW2 6946   0.584   4.372   3.101
 1729SOL    HW3 6947   0.647   4.384   2.964
 1729SOL    MW4 6948   0.645   4.405   3.048
 1730SOL     OW 6949   1.158   0.020   3.138
 1730SOL    HW2 6950   1.240   0.053   3.102
 1730SOL    HW3 6951   1.090   0.069   3.093
 1730SOL    MW4 6952   1.160   0.031   3.127
 1731SOL     OW 6953   0.940   0.143   3.003
 1731SOL    HW2 6954   0.946   0.225   3.051
 1731SOL    HW3 6955   0.862   0.101   3.038
 1731SOL    MW4 6956   0.930   0.148   3.014
 1732SOL     OW 6957   0.910   0.406   3.101
 1732SOL    HW2 6958   0.929   0.407   3.195
 1732SOL    HW3 6959   0.993   0.429   3.059
 1732SOL    MW4 6960   0.923   0.409   3.108
 1733SOL     OW 6961   1.138   0.475   2.981
 1733SOL    HW2 6962   1.221   0.450   3.022
 1733SOL    HW3 6963   1.157   0.476   2.887
 1733SOL    MW4 6964   1.151   0.472   2.974
 1734SOL     OW 6965   1.101   0.745   3.070
 1734SOL    HW2 6966   1.065   0.748   3.159
 1734SOL    HW3 6967   1.098   0.652   3.046
 1734SOL    MW4 6968   1.096   0.733   3.079
 1735SOL     OW 6969   0.883   0.893   2.985
 1735SOL    HW2 6970   0.966   0.848   3.000
 1735SOL    HW3 6971   0.819   0.841   3.033
 1735SOL    MW4 6972   0.885   0.880   2.993
 1736SOL     OW 6973   0.913   1.123   3.147
 1736SOL    HW2 6974   0.980   1.171   3.098
 1736SOL    HW3 6975   0.902   1.042   3.097
 1736SOL    MW4 6976   0.920   1.119   3.134
 1737SOL     OW 6977   1.091   1.278   2.992
 1737SOL    HW2 6978   1.181   1.248   3.006
 1737SOL    HW3 6979   1.077   1.271   2.898
 1737SOL    MW4 6980   1.101   1.273   2.981
 1738SOL     OW 6981   1.087   1.526   3.115
 1738SOL    HW2 6982   1.161   1.564   3.068
 1738SOL    HW3 6983   1.077   1.439   3.077
 1738SOL    MW4 6984   1.095   1.520   3.104
 1739SOL     OW 6985   0.881   1.634   3.000
 1739SOL    HW2 6986   0.949   1.601   3.059
 1739SOL    HW3 6987   0.807   1.575   3.014
 1739SOL    MW4 6988   0.880   1.622   3.010
 1740SOL     OW 6989   0.873   1.889   3.097
 1740SOL    HW2 6990   0.855   1.878   3.190
 1740SOL    HW3 6991   0.863   1.801   3.060
 1740SOL    MW4 6992   0.869   1.876   3.104
 1741SOL     OW 6993   1.096   2.022   3.024
 1741SOL    HW2 6994   1.016   1.974   3.045
 1741SOL    HW3 6995   1.104   2.015   2.929
 1741SOL    MW4 6996   1.086   2.015   3.014
 1742SOL     OW 6997   1.124   2.281   3.121
 1742SOL    HW2 6998   1.041   2.325   3.102
 1742SOL    HW3 6999   1.114   2.194   3.083
 1742SOL    MW4 7000   1.112   2.275   3.113
 1743SOL     OW 7001   0.911   2.445   3.035
 1743SOL    HW2 7002   0.825   2.404   3.048
 1743SOL    HW3 7003   0.919   2.455   2.940
 1743SOL    MW4 7004   0.901   2.441   3.024
 1744SOL     OW 7005   0.875   2.710   3.103
 1744SOL    HW2 7006   0.889   2.710   3.198
 1744SOL    HW3 7007   0.887   2.619   3.076
 1744SOL    MW4 7008   0.878   2.698   3.112
 1745SOL     OW 7009   1.137   2.799   3.030
 1745SOL    HW2 7010   1.123   2.884   3.072
 1745SOL    HW3 7011   1.056   2.751   3.045
 1745SOL    MW4 7012   1.124   2.804   3.038
 1746SOL     OW 7013   1.138   3.079   3.115
 1746SOL    HW2 7014   1.206   3.136   3.078
 1746SOL    HW3 7015   1.056   3.121   3.090
 1746SOL    MW4 7016   1.136   3.092   3.107
 1747SOL     OW 7017   0.932   3.226   3.034
 1747SOL    HW2 7018   0.843   3.198   3.056
 1747SOL    HW3 7019   0.932   3.235   2.939
 1747SOL    MW4 7020   0.920   3.223   3.024
 1748SOL     OW 7021   0.909   3.506   3.125
 1748SOL    HW2 7022   0.978   3.570   3.108
 1748SOL    HW3 7023   0.938   3.427   3.079
 1748SOL    MW4 7024   0.922   3.504   3.117
 1749SOL     OW 7025   1.131   3.649   3.010
 1749SOL    HW2 7026   1.196   3.600   3.061
 1749SOL    HW3 7027   1.115   3.728   3.062
 1749SOL    MW4 7028   1.137   3.653   3.024
 1750SOL     OW 7029   1.107   3.912   3.127
 1750SOL    HW2 7030   1.091   3.897   3.220
 1750SOL    HW3 7031   1.033   3.965   3.098
 1750SOL    MW4 7032   1.095   3.917   3.135
 1751SOL     OW 7033   0.894   4.054   3.047
 1751SOL    HW2 7034   0.819   4.005   3.079
 1751SOL    HW3 7035   0.896   4.036   2.953
 1751SOL    MW4 7036   0.884   4.045   3.039
 1752SOL     OW 7037   0.893   4.317   3.156
 1752SOL    HW2 7038   0.908   4.231   3.117
 1752SOL    HW3 7039   0.803   4.339   3.132
 1752SOL    MW4 7040   0.883   4.309   3.148
 1753SOL     OW 7041   1.108   4.446   3.006
 1753SOL    HW2 7042   1.026   4.418   3.046
 1753SOL    HW3 7043   1.124   4.533   3.043
 1753SOL    MW4 7044   1.099   4.454   3.016
 1754SOL     OW 7045   1.627   4.606   3.110
 1754SOL    HW2 7046   1.626   4.615   3.205
 1754SOL    HW3 7047   1.553   4.658   3.080
 1754SOL    MW4 7048   1.617   4.614   3.119
 1755SOL     OW 7049   1.415   0.110   3.014
 1755SOL    HW2 7050   1.414   0.194   3.060
 1755SOL    HW3 7051   1.389   0.131   2.924
 1755SOL    MW4 7052   1.411   0.124   3.008
 1756SOL     OW 7053   1.366   0.374   3.140
 1756SOL    HW2 7054   1.361   0.366   3.235
 1756SOL    HW3 7055   1.455   0.406   3.123
 1756SOL    MW4 7056   1.377   0.377   3.150
 1757SOL     OW 7057   1.617   0.472   3.069
 1757SOL    HW2 7058   1.613   0.566   3.085
 1757SOL    HW3 7059   1.623   0.464   2.974
 1757SOL    MW4 7060   1.617   0.483   3.059
 1758SOL     OW 7061   1.577   0.745   3.111
 1758SOL    HW2 7062   1.572   0.767   3.204
 1758SOL    HW3 7063   1.493   0.773   3.075
 1758SOL    MW4 7064   1.565   0.752   3.119
 1759SOL     OW 7065   1.339   0.887   2.999
 1759SOL    HW2 7066   1.344   0.977   3.031
 1759SOL    HW3 7067   1.250   0.859   3.022
 1759SOL    MW4 7068   1.328   0.895   3.006
 1760SOL     OW 7069   1.322   1.162   3.058
 1760SOL    HW2 7070   1.312   1.175   3.152
 1760SOL    HW3 7071   1.404   1.206   3.036
 1760SOL    MW4 7072   1.332   1.170   3.068
 1761SOL     OW 7073   1.563   1.259   3.003
 1761SOL    HW2 7074   1.640   1.213   3.036
 1761SOL    HW3 7075   1.563   1.342   3.050
 1761SOL    MW4 7076   1.573   1.264   3.014
 1762SOL     OW 7077   1.564   1.507   3.128
 1762SOL    HW2 7078   1.645   1.549   3.100
 1762SOL    HW3 7079   1.495   1.567   3.099
 1762SOL    MW4 7080   1.566   1.521   3.121
 1763SOL     OW 7081   1.319   1.631   3.017
 1763SOL    HW2 7082   1.326   1.719   3.054
 1763SOL    HW3 7083   1.342   1.641   2.925
 1763SOL    MW4 7084   1.323   1.644   3.010
 1764SOL     OW 7085   1.330   1.902   3.111
 1764SOL    HW2 7086   1.333   1.903   3.207
 1764SOL    HW3 7087   1.238   1.920   3.089
 1764SOL    MW4 7088   1.318   1.905   3.121
 1765SOL     OW 7089   1.576   2.020   3.063
 1765SOL    HW2 7090   1.487   1.989   3.081
 1765SOL    HW3 7091   1.581   2.023   2.967
 1765SOL    MW4 7092   1.565   2.016   3.053
 1766SOL     OW 7093   1.617   2.291   3.129
 1766SOL    HW2 7094   1.535   2.331   3.100
 1766SOL    HW3 7095   1.607   2.198   3.108
 1766SOL    MW4 7096   1.605   2.284   3.122
 1767SOL     OW 7097   1.370   2.389   3.034
 1767SOL    HW2 7098   1.292   2.345   3.067
 1767SOL    HW3 7099   1.359   2.388   2.939
 1767SOL    MW4 7100   1.358   2.383   3.026
 1768SOL     OW 7101   1.373   2.654   3.141
 1768SOL    HW2 7102   1.375   2.570   3.094
 1768SOL    HW3 7103   1.293   2.696   3.111
 1768SOL    MW4 7104   1.363   2.649   3.131
 1769SOL     OW 7105   1.597   2.796   3.055
 1769SOL    HW2 7106   1.672   2.744   3.083
 1769SOL    HW3 7107   1.521   2.745   3.084
 1769SOL    MW4 7108   1.597   2.782   3.063
 1770SOL     OW 7109   1.588   3.077   3.131
 1770SOL    HW2 7110   1.589   3.068   3.226
 1770SOL    HW3 7111   1.592   2.987   3.099
 1770SOL    MW4 7112   1.589   3.064   3.139
 1771SOL     OW 7113   1.371   3.232   3.018
 1771SOL    HW2 7114   1.452   3.188   3.045
 1771SOL    HW3 7115   1.369   3.220   2.923
 1771SOL    MW4 7116   1.381   3.225   3.009
 1772SOL     OW 7117   1.341   3.484   3.118
 1772SOL    HW2 7118   1.355   3.478   3.212
 1772SOL    HW3 7119   1.343   3.393   3.088
 1772SOL    MW4 7120   1.343   3.471   3.126
 1773SOL     OW 7121   1.572   3.634   3.042
 1773SOL    HW2 7122   1.485   3.595   3.047
 1773SOL    HW3 7123   1.594   3.629   2.949
 1773SOL    MW4 7124   1.563   3.628   3.030
 1774SOL     OW 7125   1.547   3.891   3.146
 1774SOL    HW2 7126   1.628   3.929   3.112
 1774SOL    HW3 7127   1.540   3.806   3.103
 1774SOL    MW4 7128   1.557   3.885   3.136
 1775SOL     OW 7129   1.358   4.025   3.016
 1775SOL    HW2 7130   1.426   3.971   3.056
 1775SOL    HW3 7131   1.276   3.985   3.043
 1775SOL    MW4 7132   1.356   4.013   3.025
 1776SOL     OW 7133   1.319   4.272   3.142
 1776SOL    HW2 7134   1.331   4.184   3.107
 1776SOL    HW3 7135   1.248   4.309   3.090
 1776SOL    MW4 7136   1.311   4.265   3.131
 1777SOL     OW 7137   1.535   4.376   3.006
 1777SOL    HW2 7138   1.465   4.351   3.067
 1777SOL    HW3 7139   1.567   4.460   3.039
 1777SOL    MW4 7140   1.530   4.384   3.018
 1778SOL     OW 7141   2.020   4.586   3.146
 1778SOL    HW2 7142   2.025   4.606   3.240
 1778SOL    HW3 7143   1.955   4.647   3.112
 1778SOL    MW4 7144   2.012   4.597   3.154
 1779SOL     OW 7145   1.851   0.092   3.042
 1779SOL    HW2 7146   1.777   0.034   3.061
 1779SOL    HW3 7147   1.849   0.102   2.947
 1779SOL    MW4 7148   1.841   0.086   3.032
 1780SOL     OW 7149   1.861   0.341   3.154
 1780SOL    HW2 7150   1.869   0.251   3.122
 1780SOL    HW3 7151   1.779   0.373   3.116
 1780SOL    MW4 7152   1.851   0.333   3.145
 1781SOL     OW 7153   2.043   0.503   3.031
 1781SOL    HW2 7154   1.972   0.461   3.080
 1781SOL    HW3 7155   2.020   0.490   2.939
 1781SOL    MW4 7156   2.031   0.496   3.025
 1782SOL     OW 7157   2.046   0.775   3.121
 1782SOL    HW2 7158   1.970   0.813   3.078
 1782SOL    HW3 7159   2.044   0.683   3.096
 1782SOL    MW4 7160   2.036   0.768   3.112
 1783SOL     OW 7161   1.800   0.889   3.010
 1783SOL    HW2 7162   1.722   0.862   3.058
 1783SOL    HW3 7163   1.789   0.852   2.922
 1783SOL    MW4 7164   1.788   0.881   3.005
 1784SOL     OW 7165   1.796   1.156   3.101
 1784SOL    HW2 7166   1.800   1.147   3.196
 1784SOL    HW3 7167   1.805   1.067   3.068
 1784SOL    MW4 7168   1.798   1.143   3.109
 1785SOL     OW 7169   2.025   1.289   3.041
 1785SOL    HW2 7170   2.095   1.228   3.064
 1785SOL    HW3 7171   1.944   1.238   3.050
 1785SOL    MW4 7172   2.023   1.274   3.045
 1786SOL     OW 7173   2.052   1.550   3.141
 1786SOL    HW2 7174   2.040   1.544   3.236
 1786SOL    HW3 7175   2.033   1.462   3.108
 1786SOL    MW4 7176   2.048   1.538   3.149
 1787SOL     OW 7177   1.802   1.646   3.059
 1787SOL    HW2 7178   1.795   1.735   3.094
 1787SOL    HW3 7179   1.886   1.614   3.092
 1787SOL    MW4 7180   1.812   1.653   3.068
 1788SOL     OW 7181   1.796   1.896   3.167
 1788SOL    HW2 7182   1.864   1.942   3.118
 1788SOL    HW3 7183   1.714   1.936   3.137
 1788SOL    MW4 7184   1.794   1.907   3.157
 1789SOL     OW 7185   2.004   2.036   3.021
 1789SOL    HW2 7186   2.073   1.980   3.058
 1789SOL    HW3 7187   2.035   2.125   3.036
 1789SOL    MW4 7188   2.017   2.040   3.028
 1790SOL     OW 7189   2.040   2.288   3.121
 1790SOL    HW2 7190   2.114   2.341   3.091
 1790SOL    HW3 7191   1.963   2.337   3.092
 1790SOL    MW4 7192   2.040   2.301   3.113
 1791SOL     OW 7193   1.821   2.418   3.016
 1791SOL    HW2 7194   1.826   2.501   3.064
 1791SOL    HW3 7195   1.745   2.373   3.054
 1791SOL    MW4 7196   1.812   2.423   3.027
 1792SOL     OW 7197   1.841   2.672   3.127
 1792SOL    HW2 7198   1.844   2.687   3.221
 1792SOL    HW3 7199   1.909   2.729   3.091
 1792SOL    MW4 7200   1.850   2.682   3.135
 1793SOL     OW 7201   2.018   2.847   3.020
 1793SOL    HW2 7202   1.999   2.938   3.043
 1793SOL    HW3 7203   2.015   2.845   2.924
 1793SOL    MW4 7204   2.015   2.859   3.010
 1794SOL     OW 7205   1.970   3.110   3.125
 1794SOL    HW2 7206   1.954   3.119   3.219
 1794SOL    HW3 7207   1.906   3.169   3.085
 1794SOL    MW4 7208   1.959   3.119   3.132
 1795SOL     OW 7209   1.753   3.269   3.031
 1795SOL    HW2 7210   1.697   3.198   3.063
 1795SOL    HW3 7211   1.741   3.268   2.936
 1795SOL    MW4 7212   1.744   3.260   3.023
 1796SOL     OW 7213   1.792   3.517   3.157
 1796SOL    HW2 7214   1.772   3.432   3.117
 1796SOL    HW3 7215   1.717   3.572   3.134
 1796SOL    MW4 7216   1.780   3.513   3.149
 1797SOL     OW 7217   1.996   3.603   3.002
 1797SOL    HW2 7218   2.021   3.688   3.038
 1797SOL    HW3 7219   1.918   3.577   3.052
 1797SOL    MW4 7220   1.989   3.611   3.013
 1798SOL     OW 7221   2.011   3.879   3.114
 1798SOL    HW2 7222   2.016   3.893   3.208
 1798SOL    HW3 7223   1.925   3.913   3.089
 1798SOL    MW4 7224   2.000   3.885   3.123
 1799SOL     OW 7225   1.781   3.974   3.032
 1799SOL    HW2 7226   1.799   4.062   3.065
 1799SOL    HW3 7227   1.779   3.985   2.937
 1799SOL    MW4 7228   1.783   3.987   3.024
 1800SOL     OW 7229   1.783   4.254   3.100
 1800SOL    HW2 7230   1.855   4.292   3.050
 1800SOL    HW3 7231   1.704   4.294   3.063
 1800SOL    MW4 7232   1.782   4.264   3.089
 1801SOL     OW 7233   2.018   4.349   3.004
 1801SOL    HW2 7234   2.022   4.431   3.054
 1801SOL    HW3 7235   2.024   4.376   2.912
 1801SOL    MW4 7236   2.019   4.363   2.999
 1802SOL     OW 7237   2.458   4.626   3.188
 1802SOL    HW2 7238   2.484   4.546   3.142
 1802SOL    HW3 7239   2.384   4.660   3.138
 1802SOL    MW4 7240   2.452   4.620   3.175
 1803SOL     OW 7241   2.244   0.053   3.053
 1803SOL    HW2 7242   2.234   0.143   3.085
 1803SOL    HW3 7243   2.166   0.008   3.084
 1803SOL    MW4 7244   2.232   0.059   3.061
 1804SOL     OW 7245   2.254   0.349   3.120
 1804SOL    HW2 7246   2.236   0.348   3.214
 1804SOL    HW3 7247   2.183   0.401   3.083
 1804SOL    MW4 7248   2.242   0.356   3.128
 1805SOL     OW 7249   2.479   0.490   3.022
 1805SOL    HW2 7250   2.405   0.443   3.061
 1805SOL    HW3 7251   2.480   0.461   2.931
 1805SOL    MW4 7252   2.469   0.480   3.015
 1806SOL     OW 7253   2.498   0.755   3.152
 1806SOL    HW2 7254   2.575   0.801   3.118
 1806SOL    HW3 7255   2.494   0.674   3.102
 1806SOL    MW4 7256   2.508   0.750   3.141
 1807SOL     OW 7257   2.271   0.887   3.031
 1807SOL    HW2 7258   2.344   0.833   3.061
 1807SOL    HW3 7259   2.193   0.838   3.056
 1807SOL    MW4 7260   2.270   0.873   3.038
 1808SOL     OW 7261   2.224   1.134   3.137
 1808SOL    HW2 7262   2.212   1.122   3.231
 1808SOL    HW3 7263   2.246   1.047   3.104
 1808SOL    MW4 7264   2.225   1.121   3.145
 1809SOL     OW 7265   2.433   1.287   3.043
 1809SOL    HW2 7266   2.361   1.229   3.069
 1809SOL    HW3 7267   2.419   1.303   2.950
 1809SOL    MW4 7268   2.422   1.281   3.034
 1810SOL     OW 7269   2.481   1.536   3.151
 1810SOL    HW2 7270   2.407   1.583   3.114
 1810SOL    HW3 7271   2.463   1.444   3.131
 1810SOL    MW4 7272   2.469   1.530   3.143
 1811SOL     OW 7273   2.266   1.655   3.001
 1811SOL    HW2 7274   2.187   1.612   3.034
 1811SOL    HW3 7275   2.254   1.658   2.906
 1811SOL    MW4 7276   2.254   1.650   2.993
 1812SOL     OW 7277   2.225   1.903   3.121
 1812SOL    HW2 7278   2.300   1.958   3.097
 1812SOL    HW3 7279   2.242   1.819   3.078
 1812SOL    MW4 7280   2.237   1.899   3.112
 1813SOL     OW 7281   2.446   2.041   3.023
 1813SOL    HW2 7282   2.517   1.987   3.057
 1813SOL    HW3 7283   2.455   2.036   2.928
 1813SOL    MW4 7284   2.457   2.033   3.015
 1814SOL     OW 7285   2.503   2.295   3.123
 1814SOL    HW2 7286   2.482   2.291   3.216
 1814SOL    HW3 7287   2.480   2.208   3.090
 1814SOL    MW4 7288   2.497   2.283   3.131
 1815SOL     OW 7289   2.267   2.430   3.030
 1815SOL    HW2 7290   2.236   2.508   3.076
 1815SOL    HW3 7291   2.352   2.412   3.069
 1815SOL    MW4 7292   2.274   2.438   3.041
 1816SOL     OW 7293   2.202   2.676   3.158
 1816SOL    HW2 7294   2.283   2.715   3.127
 1816SOL    HW3 7295   2.133   2.721   3.110
 1816SOL    MW4 7296   2.204   2.687   3.148
 1817SOL     OW 7297   2.435   2.802   3.052
 1817SOL    HW2 7298   2.434   2.894   3.077
 1817SOL    HW3 7299   2.427   2.803   2.957
 1817SOL    MW4 7300   2.434   2.814   3.043
 1818SOL     OW 7301   2.448   3.058   3.136
 1818SOL    HW2 7302   2.532   3.104   3.125
 1818SOL    HW3 7303   2.384   3.116   3.095
 1818SOL    MW4 7304   2.451   3.072   3.129
 1819SOL     OW 7305   2.218   3.202   3.059
 1819SOL    HW2 7306   2.214   3.296   3.075
 1819SOL    HW3 7307   2.140   3.167   3.102
 1819SOL    MW4 7308   2.207   3.210   3.067
 1820SOL     OW 7309   2.204   3.482   3.127
 1820SOL    HW2 7310   2.284   3.521   3.091
 1820SOL    HW3 7311   2.133   3.529   3.084
 1820SOL    MW4 7312   2.205   3.493   3.117
 1821SOL     OW 7313   2.422   3.600   3.029
 1821SOL    HW2 7314   2.496   3.549   3.062
 1821SOL    HW3 7315   2.435   3.688   3.064
 1821SOL    MW4 7316   2.434   3.605   3.038
 1822SOL     OW 7317   2.460   3.848   3.134
 1822SOL    HW2 7318   2.460   3.829   3.228
 1822SOL    HW3 7319   2.543   3.892   3.119
 1822SOL    MW4 7320   2.471   3.851   3.144
 1823SOL     OW 7321   2.254   3.956   3.003
 1823SOL    HW2 7322   2.316   3.914   3.063
 1823SOL    HW3 7323   2.168   3.936   3.040
 1823SOL    MW4 7324   2.251   3.948   3.016
 1824SOL     OW 7325   2.261   4.220   3.112
 1824SOL    HW2 7326   2.249   4.136   3.068
 1824SOL    HW3 7327   2.181   4.269   3.092
 1824SOL    MW4 7328   2.249   4.215   3.104
 1825SOL     OW 7329   2.489   4.404   3.041
 1825SOL    HW2 7330   2.407   4.360   3.063
 1825SOL    HW3 7331   2.483   4.421   2.947
 1825SOL    MW4 7332   2.477   4.400   3.031
 1826SOL     OW 7333   2.938   4.621   3.122
 1826SOL    HW2 7334   3.015   4.665   3.087
 1826SOL    HW3 7335   2.948   4.529   3.097
 1826SOL    MW4 7336   2.950   4.615   3.114
 1827SOL     OW 7337   2.692   0.089   3.051
 1827SOL    HW2 7338   2.763   0.039   3.090
 1827SOL    HW3 7339   2.612   0.048   3.085
 1827SOL    MW4 7340   2.691   0.077   3.061
 1828SOL     OW 7341   2.693   0.365   3.135
 1828SOL    HW2 7342   2.692   0.272   3.112
 1828SOL    HW3 7343   2.616   0.401   3.090
 1828SOL    MW4 7344   2.683   0.357   3.126
 1829SOL     OW 7345   2.923   0.483   3.020
 1829SOL    HW2 7346   2.857   0.427   3.060
 1829SOL    HW3 7347   2.911   0.471   2.926
 1829SOL    MW4 7348   2.913   0.474   3.013
 1830SOL     OW 7349   2.891   0.728   3.150
 1830SOL    HW2 7350   2.907   0.707   3.242
 1830SOL    HW3 7351   2.898   0.644   3.105
 1830SOL    MW4 7352   2.894   0.714   3.156
 1831SOL     OW 7353   2.707   0.915   3.035
 1831SOL    HW2 7354   2.705   1.006   3.063
 1831SOL    HW3 7355   2.768   0.873   3.096
 1831SOL    MW4 7356   2.715   0.922   3.047
 1832SOL     OW 7357   2.684   1.168   3.157
 1832SOL    HW2 7358   2.751   1.216   3.109
 1832SOL    HW3 7359   2.602   1.208   3.129
 1832SOL    MW4 7360   2.682   1.180   3.147
 1833SOL     OW 7361   2.898   1.261   3.019
 1833SOL    HW2 7362   2.978   1.217   3.048
 1833SOL    HW3 7363   2.902   1.347   3.061
 1833SOL    MW4 7364   2.909   1.267   3.028
 1834SOL     OW 7365   2.902   1.523   3.133
 1834SOL    HW2 7366   2.905   1.502   3.226
 1834SOL    HW3 7367   2.987   1.564   3.115
 1834SOL    MW4 7368   2.914   1.526   3.143
 1835SOL     OW 7369   2.691   1.650   3.014
 1835SOL    HW2 7370   2.770   1.613   3.053
 1835SOL    HW3 7371   2.619   1.599   3.052
 1835SOL    MW4 7372   2.692   1.638   3.024
 1836SOL     OW 7373   2.674   1.903   3.124
 1836SOL    HW2 7374   2.748   1.958   3.099
 1836SOL    HW3 7375   2.690   1.819   3.080
 1836SOL    MW4 7376   2.686   1.899   3.115
 1837SOL     OW 7377   2.873   2.056   3.044
 1837SOL    HW2 7378   2.875   2.151   3.054
 1837SOL    HW3 7379   2.893   2.041   2.952
 1837SOL    MW4 7380   2.876   2.067   3.033
 1838SOL     OW 7381   2.900   2.345   3.096
 1838SOL    HW2 7382   2.985   2.386   3.078
 1838SOL    HW3 7383   2.838   2.398   3.046
 1838SOL    MW4 7384   2.903   2.357   3.087
 1839SOL     OW 7385   2.691   2.453   2.983
 1839SOL    HW2 7386   2.701   2.527   3.043
 1839SOL    HW3 7387   2.623   2.399   3.023
 1839SOL    MW4 7388   2.683   2.456   2.996
 1840SOL     OW 7389   2.692   2.708   3.107
 1840SOL    HW2 7390   2.703   2.725   3.200
 1840SOL    HW3 7391   2.604   2.741   3.087
 1840SOL    MW4 7392   2.682   2.715   3.117
 1841SOL     OW 7393   2.926   2.854   3.001
 1841SOL    HW2 7394   2.999   2.799   3.029
 1841SOL    HW3 7395   2.848   2.802   3.018
 1841SOL    MW4 7396   2.925   2.840   3.007
 1842SOL     OW 7397   2.932   3.109   3.150
 1842SOL    HW2 7398   2.851   3.157   3.132
 1842SOL    HW3 7399   2.920   3.024   3.107
 1842SOL    MW4 7400   2.920   3.104   3.142
 1843SOL     OW 7401   2.681   3.201   3.059
 1843SOL    HW2 7402   2.660   3.290   3.088
 1843SOL    HW3 7403   2.697   3.210   2.965
 1843SOL    MW4 7404   2.680   3.214   3.050
 1844SOL     OW 7405   2.653   3.482   3.119
 1844SOL    HW2 7406   2.670   3.461   3.211
 1844SOL    HW3 7407   2.735   3.521   3.088
 1844SOL    MW4 7408   2.666   3.484   3.127
 1845SOL     OW 7409   2.903   3.582   3.027
 1845SOL    HW2 7410   2.977   3.529   3.058
 1845SOL    HW3 7411   2.915   3.666   3.071
 1845SOL    MW4 7412   2.914   3.586   3.037
 1846SOL     OW 7413   2.933   3.842   3.136
 1846SOL    HW2 7414   2.942   3.830   3.230
 1846SOL    HW3 7415   2.843   3.872   3.124
 1846SOL    MW4 7416   2.922   3.844   3.147
 1847SOL     OW 7417   2.694   3.960   3.045
 1847SOL    HW2 7418   2.711   4.051   3.068
 1847SOL    HW3 7419   2.705   3.957   2.950
 1847SOL    MW4 7420   2.698   3.972   3.036
 1848SOL     OW 7421   2.700   4.225   3.128
 1848SOL    HW2 7422   2.678   4.236   3.220
 1848SOL    HW3 7423   2.633   4.274   3.081
 1848SOL    MW4 7424   2.688   4.233   3.134
 1849SOL     OW 7425   2.917   4.360   3.046
 1849SOL    HW2 7426   2.989   4.304   3.076
 1849SOL    HW3 7427   2.839   4.322   3.085
 1849SOL    MW4 7428   2.916   4.348   3.055
 1850SOL     OW 7429   3.390   4.653   3.116
 1850SOL    HW2 7430   3.467   4.694   3.076
 1850SOL    HW3 7431   3.381   4.569   3.070
 1850SOL    MW4 7432   3.399   4.647   3.105
 1851SOL     OW 7433   3.159   0.098   3.033
 1851SOL    HW2 7434   3.149   0.181   3.080
 1851SOL    HW3 7435   3.243   0.064   3.062
 1851SOL    MW4 7436   3.169   0.104   3.043
 1852SOL     OW 7437   3.144   0.366   3.140
 1852SOL    HW2 7438   3.226   0.396   3.101
 1852SOL    HW3 7439   3.081   0.435   3.121
 1852SOL    MW4 7440   3.147   0.379   3.132
 1853SOL     OW 7441   3.361   0.439   2.995
 1853SOL    HW2 7442   3.446   0.444   3.038
 1853SOL    HW3 7443   3.381   0.442   2.901
 1853SOL    MW4 7444   3.375   0.440   2.988
 1854SOL     OW 7445   3.342   0.715   3.115
 1854SOL    HW2 7446   3.358   0.720   3.209
 1854SOL    HW3 7447   3.321   0.623   3.099
 1854SOL    MW4 7448   3.341   0.704   3.125
 1855SOL     OW 7449   3.112   0.866   3.029
 1855SOL    HW2 7450   3.190   0.816   3.055
 1855SOL    HW3 7451   3.040   0.823   3.074
 1855SOL    MW4 7452   3.113   0.854   3.038
 1856SOL     OW 7453   3.126   1.130   3.124
 1856SOL    HW2 7454   3.202   1.168   3.081
 1856SOL    HW3 7455   3.119   1.042   3.088
 1856SOL    MW4 7456   3.135   1.123   3.114
 1857SOL     OW 7457   3.342   1.255   2.999
 1857SOL    HW2 7458   3.419   1.208   3.030
 1857SOL    HW3 7459   3.345   1.339   3.044
 1857SOL    MW4 7460   3.353   1.260   3.009
 1858SOL     OW 7461   3.364   1.502   3.123
 1858SOL    HW2 7462   3.362   1.505   3.219
 1858SOL    HW3 7463   3.431   1.566   3.099
 1858SOL    MW4 7464   3.373   1.511   3.132
 1859SOL     OW 7465   3.130   1.650   3.042
 1859SOL    HW2 7466   3.198   1.589   3.070
 1859SOL    HW3 7467   3.137   1.653   2.947
 1859SOL    MW4 7468   3.140   1.642   3.033
 1860SOL     OW 7469   3.115   1.917   3.147
 1860SOL    HW2 7470   3.115   1.827   3.115
 1860SOL    HW3 7471   3.030   1.952   3.120
 1860SOL    MW4 7472   3.104   1.910   3.139
 1861SOL     OW 7473   3.331   2.031   3.038
 1861SOL    HW2 7474   3.411   1.992   3.074
 1861SOL    HW3 7475   3.260   1.982   3.080
 1861SOL    MW4 7476   3.332   2.019   3.048
 1862SOL     OW 7477   3.298   2.301   3.174
 1862SOL    HW2 7478   3.322   2.313   3.266
 1862SOL    HW3 7479   3.296   2.206   3.162
 1862SOL    MW4 7480   3.301   2.290   3.185
 1863SOL     OW 7481   3.146   2.454   3.025
 1863SOL    HW2 7482   3.199   2.397   3.080
 1863SOL    HW3 7483   3.162   2.423   2.936
 1863SOL    MW4 7484   3.155   2.442   3.020
 1864SOL     OW 7485   3.142   2.715   3.114
 1864SOL    HW2 7486   3.140   2.699   3.208
 1864SOL    HW3 7487   3.156   2.628   3.076
 1864SOL    MW4 7488   3.144   2.701   3.121
 1865SOL     OW 7489   3.394   2.833   3.054
 1865SOL    HW2 7490   3.408   2.919   3.094
 1865SOL    HW3 7491   3.309   2.805   3.088
 1865SOL    MW4 7492   3.385   2.841   3.064
 1866SOL     OW 7493   3.365   3.101   3.150
 1866SOL    HW2 7494   3.358   3.096   3.245
 1866SOL    HW3 7495   3.287   3.150   3.123
 1866SOL    MW4 7496   3.354   3.107   3.159
 1867SOL     OW 7497   3.162   3.236   3.033
 1867SOL    HW2 7498   3.086   3.182   3.056
 1867SOL    HW3 7499   3.178   3.216   2.941
 1867SOL    MW4 7500   3.154   3.226   3.024
 1868SOL     OW 7501   3.185   3.515   3.146
 1868SOL    HW2 7502   3.247   3.576   3.106
 1868SOL    HW3 7503   3.216   3.428   3.119
 1868SOL    MW4 7504   3.197   3.512   3.137
 1869SOL     OW 7505   3.406   3.634   3.017
 1869SOL    HW2 7506   3.464   3.589   3.078
 1869SOL    HW3 7507   3.408   3.725   3.046
 1869SOL    MW4 7508   3.414   3.640   3.029
 1870SOL     OW 7509   3.399   3.883   3.132
 1870SOL    HW2 7510   3.386   3.876   3.227
 1870SOL    HW3 7511   3.314   3.909   3.098
 1870SOL    MW4 7512   3.386   3.886   3.140
 1871SOL     OW 7513   3.143   3.972   3.040
 1871SOL    HW2 7514   3.063   3.932   3.074
 1871SOL    HW3 7515   3.138   3.959   2.945
 1871SOL    MW4 7516   3.132   3.965   3.032
 1872SOL     OW 7517   3.139   4.244   3.124
 1872SOL    HW2 7518   3.163   4.228   3.215
 1872SOL    HW3 7519   3.154   4.160   3.080
 1872SOL    MW4 7520   3.144   4.231   3.130
 1873SOL     OW 7521   3.365   4.376   3.004
 1873SOL    HW2 7522   3.437   4.360   3.065
 1873SOL    HW3 7523   3.288   4.338   3.047
 1873SOL    MW4 7524   3.364   4.369   3.018
 1874SOL     OW 7525   3.826   4.639   3.075
 1874SOL    HW2 7526   3.817   4.550   3.040
 1874SOL    HW3 7527   3.746   4.684   3.047
 1874SOL    MW4 7528   3.814   4.633   3.067
 1875SOL     OW 7529   3.589   0.123   3.003
 1875SOL    HW2 7530   3.578   0.209   3.042
 1875SOL    HW3 7531   3.604   0.141   2.910
 1875SOL    MW4 7532   3.590   0.137   2.996
 1876SOL     OW 7533   3.607   0.380   3.109
 1876SOL    HW2 7534   3.616   0.375   3.204
 1876SOL    HW3 7535   3.680   0.435   3.081
 1876SOL    MW4 7536   3.618   0.387   3.118
 1877SOL     OW 7537   3.841   0.503   3.025
 1877SOL    HW2 7538   3.913   0.452   3.062
 1877SOL    HW3 7539   3.845   0.587   3.071
 1877SOL    MW4 7540   3.851   0.507   3.036
 1878SOL     OW 7541   3.769   0.779   3.135
 1878SOL    HW2 7542   3.780   0.797   3.228
 1878SOL    HW3 7543   3.850   0.809   3.095
 1878SOL    MW4 7544   3.781   0.785   3.142
 1879SOL     OW 7545   3.545   0.857   2.990
 1879SOL    HW2 7546   3.621   0.820   3.035
 1879SOL    HW3 7547   3.471   0.805   3.021
 1879SOL    MW4 7548   3.545   0.845   3.000
 1880SOL     OW 7549   3.542   1.102   3.085
 1880SOL    HW2 7550   3.623   1.140   3.050
 1880SOL    HW3 7551   3.547   1.010   3.060
 1880SOL    MW4 7552   3.553   1.095   3.077
 1881SOL     OW 7553   3.759   1.249   3.004
 1881SOL    HW2 7554   3.769   1.339   3.034
 1881SOL    HW3 7555   3.779   1.253   2.910
 1881SOL    MW4 7556   3.763   1.261   2.996
 1882SOL     OW 7557   3.785   1.520   3.088
 1882SOL    HW2 7558   3.772   1.513   3.182
 1882SOL    HW3 7559   3.702   1.554   3.054
 1882SOL    MW4 7560   3.772   1.524   3.096
 1883SOL     OW 7561   3.553   1.645   3.001
 1883SOL    HW2 7562   3.557   1.733   3.040
 1883SOL    HW3 7563   3.555   1.660   2.907
 1883SOL    MW4 7564   3.554   1.659   2.994
 1884SOL     OW 7565   3.589   1.892   3.115
 1884SOL    HW2 7566   3.590   1.897   3.211
 1884SOL    HW3 7567   3.674   1.927   3.088
 1884SOL    MW4 7568   3.600   1.897   3.124
 1885SOL     OW 7569   3.838   1.994   3.044
 1885SOL    HW2 7570   3.820   2.086   3.062
 1885SOL    HW3 7571   3.847   1.990   2.949
 1885SOL    MW4 7572   3.837   2.006   3.034
 1886SOL     OW 7573   3.813   2.300   3.069
 1886SOL    HW2 7574   3.804   2.283   3.163
 1886SOL    HW3 7575   3.726   2.329   3.041
 1886SOL    MW4 7576   3.800   2.302   3.078
 1887SOL     OW 7577   3.544   2.375   3.024
 1887SOL    HW2 7578   3.565   2.463   3.055
 1887SOL    HW3 7579   3.458   2.356   3.062
 1887SOL    MW4 7580   3.535   2.384   3.033
 1888SOL     OW 7581   3.604   2.649   3.112
 1888SOL    HW2 7582   3.665   2.720   3.093
 1888SOL    HW3 7583   3.518   2.690   3.109
 1888SOL    MW4 7584   3.601   2.664   3.109
 1889SOL     OW 7585   3.786   2.848   3.057
 1889SOL    HW2 7586   3.809   2.933   3.096
 1889SOL    HW3 7587   3.806   2.858   2.964
 1889SOL    MW4 7588   3.792   2.860   3.050
 1890SOL     OW 7589   3.820   3.114   3.148
 1890SOL    HW2 7590   3.888   3.157   3.097
 1890SOL    HW3 7591   3.740   3.164   3.130
 1890SOL    MW4 7592   3.818   3.126   3.139
 1891SOL     OW 7593   3.578   3.220   3.037
 1891SOL    HW2 7594   3.495   3.184   3.069
 1891SOL    HW3 7595   3.585   3.187   2.947
 1891SOL    MW4 7596   3.568   3.211   3.029
 1892SOL     OW 7597   3.589   3.481   3.155
 1892SOL    HW2 7598   3.664   3.512   3.104
 1892SOL    HW3 7599   3.584   3.388   3.135
 1892SOL    MW4 7600   3.598   3.473   3.146
 1893SOL     OW 7601   3.787   3.597   3.011
 1893SOL    HW2 7602   3.794   3.688   3.040
 1893SOL    HW3 7603   3.785   3.602   2.915
 1893SOL    MW4 7604   3.788   3.610   3.002
 1894SOL     OW 7605   3.822   3.846   3.120
 1894SOL    HW2 7606   3.836   3.851   3.215
 1894SOL    HW3 7607   3.751   3.909   3.103
 1894SOL    MW4 7608   3.815   3.855   3.130
 1895SOL     OW 7609   3.619   4.031   3.073
 1895SOL    HW2 7610   3.541   3.984   3.104
 1895SOL    HW3 7611   3.610   4.031   2.978
 1895SOL    MW4 7612   3.608   4.025   3.065
 1896SOL     OW 7613   3.606   4.300   3.135
 1896SOL    HW2 7614   3.682   4.325   3.083
 1896SOL    HW3 7615   3.602   4.205   3.128
 1896SOL    MW4 7616   3.616   4.291   3.127
 1897SOL     OW 7617   3.838   4.378   2.990
 1897SOL    HW2 7618   3.914   4.323   3.006
 1897SOL    HW3 7619   3.834   4.388   2.895
 1897SOL    MW4 7620   3.848   4.372   2.980
 1898SOL     OW 7621   4.243   4.651   3.120
 1898SOL    HW2 7622   4.232   4.654   3.215
 1898SOL    HW3 7623   4.255   4.558   3.100
 1898SOL    MW4 7624   4.243   4.639   3.130
 1899SOL     OW 7625   4.046   0.109   2.980
 1899SOL    HW2 7626   4.123   0.076   3.027
 1899SOL    HW3 7627   3.973   0.057   3.014
 1899SOL    MW4 7628   4.046   0.098   2.991
 1900SOL     OW 7629   4.050   0.335   3.130
 1900SOL    HW2 7630   4.132   0.374   3.100
 1900SOL    HW3 7631   4.036   0.259   3.073
 1900SOL    MW4 7632   4.059   0.330   3.118
 1901SOL     OW 7633   4.250   0.459   2.999
 1901SOL    HW2 7634   4.248   0.548   3.033
 1901SOL    HW3 7635   4.237   0.469   2.905
 1901SOL    MW4 7636   4.248   0.472   2.991
 1902SOL     OW 7637   4.245   0.735   3.087
 1902SOL    HW2 7638   4.159   0.762   3.056
 1902SOL    HW3 7639   4.305   0.802   3.053
 1902SOL    MW4 7640   4.242   0.747   3.078
 1903SOL     OW 7641   4.005   0.854   3.014
 1903SOL    HW2 7642   3.994   0.946   3.037
 1903SOL    HW3 7643   4.005   0.853   2.918
 1903SOL    MW4 7644   4.004   0.866   3.004
 1904SOL     OW 7645   4.002   1.123   3.099
 1904SOL    HW2 7646   4.013   1.142   3.192
 1904SOL    HW3 7647   3.915   1.157   3.078
 1904SOL    MW4 7648   3.992   1.130   3.108
 1905SOL     OW 7649   4.231   1.235   3.001
 1905SOL    HW2 7650   4.149   1.191   3.026
 1905SOL    HW3 7651   4.226   1.243   2.906
 1905SOL    MW4 7652   4.220   1.230   2.992
 1906SOL     OW 7653   4.243   1.515   3.087
 1906SOL    HW2 7654   4.164   1.551   3.047
 1906SOL    HW3 7655   4.242   1.422   3.063
 1906SOL    MW4 7656   4.232   1.508   3.079
 1907SOL     OW 7657   4.026   1.650   2.990
 1907SOL    HW2 7658   4.053   1.720   3.049
 1907SOL    HW3 7659   3.947   1.614   3.030
 1907SOL    MW4 7660   4.019   1.655   3.003
 1908SOL     OW 7661   4.070   1.863   3.168
 1908SOL    HW2 7662   4.137   1.922   3.135
 1908SOL    HW3 7663   3.988   1.897   3.133
 1908SOL    MW4 7664   4.068   1.875   3.159
 1909SOL     OW 7665   4.246   2.044   3.054
 1909SOL    HW2 7666   4.255   2.139   3.057
 1909SOL    HW3 7667   4.248   2.022   2.961
 1909SOL    MW4 7668   4.247   2.054   3.042
 1910SOL     OW 7669   4.263   2.306   3.081
 1910SOL    HW2 7670   4.186   2.345   3.040
 1910SOL    HW3 7671   4.336   2.359   3.048
 1910SOL    MW4 7672   4.262   2.318   3.071
 1911SOL     OW 7673   4.033   2.439   3.006
 1911SOL    HW2 7674   4.013   2.523   3.047
 1911SOL    HW3 7675   3.959   2.383   3.030
 1911SOL    MW4 7676   4.021   2.443   3.015
 1912SOL     OW 7677   4.017   2.692   3.106
 1912SOL    HW2 7678   4.019   2.688   3.202
 1912SOL    HW3 7679   3.934   2.735   3.085
 1912SOL    MW4 7680   4.006   2.697   3.116
 1913SOL     OW 7681   4.212   2.854   2.998
 1913SOL    HW2 7682   4.149   2.796   3.040
 1913SOL    HW3 7683   4.297   2.814   3.014
 1913SOL    MW4 7684   4.215   2.841   3.006
 1914SOL     OW 7685   4.207   3.102   3.131
 1914SOL    HW2 7686   4.142   3.159   3.090
 1914SOL    HW3 7687   4.189   3.015   3.096
 1914SOL    MW4 7688   4.196   3.098   3.121
 1915SOL     OW 7689   4.019   3.251   3.012
 1915SOL    HW2 7690   4.019   3.345   3.032
 1915SOL    HW3 7691   4.034   3.247   2.917
 1915SOL    MW4 7692   4.021   3.263   3.002
 1916SOL     OW 7693   4.024   3.503   3.109
 1916SOL    HW2 7694   4.026   3.503   3.205
 1916SOL    HW3 7695   3.944   3.551   3.087
 1916SOL    MW4 7696   4.014   3.509   3.119
 1917SOL     OW 7697   4.262   3.612   3.028
 1917SOL    HW2 7698   4.247   3.699   3.064
 1917SOL    HW3 7699   4.186   3.561   3.055
 1917SOL    MW4 7700   4.250   3.617   3.036
 1918SOL     OW 7701   4.249   3.867   3.133
 1918SOL    HW2 7702   4.186   3.894   3.067
 1918SOL    HW3 7703   4.333   3.901   3.101
 1918SOL    MW4 7704   4.252   3.875   3.120
 1919SOL     OW 7705   4.037   3.970   2.969
 1919SOL    HW2 7706   4.045   4.062   2.995
 1919SOL    HW3 7707   3.965   3.936   3.023
 1919SOL    MW4 7708   4.029   3.978   2.980
 1920SOL     OW 7709   4.046   4.215   3.075
 1920SOL    HW2 7710   4.031   4.207   3.169
 1920SOL    HW3 7711   4.126   4.268   3.068
 1920SOL    MW4 7712   4.055   4.221   3.086
 1921SOL     OW 7713   4.272   4.381   3.050
 1921SOL    HW2 7714   4.349   4.334   3.080
 1921SOL    HW3 7715   4.269   4.364   2.956
 1921SOL    MW4 7716   4.282   4.373   3.042
 1922SOL     OW 7717   0.255   4.640   3.417
 1922SOL    HW2 7718   0.329   4.691   3.449
 1922SOL    HW3 7719   0.248   4.567   3.478
 1922SOL    MW4 7720   0.264   4.637   3.429
 1923SOL     OW 7721   0.047   0.107   3.520
 1923SOL    HW2 7722   0.050   0.197   3.488
 1923SOL    HW3 7723   0.105   0.059   3.461
 1923SOL    MW4 7724   0.055   0.113   3.508
 1924SOL     OW 7725   4.467   0.394   3.369
 1924SOL    HW2 7726   4.394   0.422   3.425
 1924SOL    HW3 7727   4.544   0.435   3.408
 1924SOL    MW4 7728   4.468   0.403   3.382
 1925SOL     OW 7729   0.204   0.498   3.485
 1925SOL    HW2 7730   0.290   0.463   3.463
 1925SOL    HW3 7731   0.201   0.584   3.442
 1925SOL    MW4 7732   0.215   0.505   3.476
 1926SOL     OW 7733   0.171   0.748   3.355
 1926SOL    HW2 7734   0.254   0.778   3.392
 1926SOL    HW3 7735   0.106   0.809   3.391
 1926SOL    MW4 7736   0.173   0.760   3.365
 1927SOL     OW 7737   4.447   0.883   3.481
 1927SOL    HW2 7738   4.438   0.883   3.576
 1927SOL    HW3 7739   4.454   0.976   3.457
 1927SOL    MW4 7740   4.447   0.895   3.490
 1928SOL     OW 7741   4.448   1.151   3.368
 1928SOL    HW2 7742   4.530   1.197   3.387
 1928SOL    HW3 7743   4.453   1.133   3.274
 1928SOL    MW4 7744   4.459   1.155   3.358
 1929SOL     OW 7745   0.206   1.254   3.480
 1929SOL    HW2 7746   0.287   1.207   3.458
 1929SOL    HW3 7747   0.213   1.337   3.433
 1929SOL    MW4 7748   0.218   1.259   3.471
 1930SOL     OW 7749   0.224   1.498   3.347
 1930SOL    HW2 7750   0.288   1.557   3.386
 1930SOL    HW3 7751   0.224   1.520   3.254
 1930SOL    MW4 7752   0.232   1.509   3.340
 1931SOL     OW 7753   0.039   1.661   3.444
 1931SOL    HW2 7754  -0.044   1.621   3.419
 1931SOL    HW3 7755   0.106   1.602   3.409
 1931SOL    MW4 7756   0.037   1.648   3.436
 1932SOL     OW 7757   0.014   1.928   3.411
 1932SOL    HW2 7758   0.030   1.841   3.449
 1932SOL    HW3 7759   0.035   1.918   3.318
 1932SOL    MW4 7760   0.019   1.915   3.404
 1933SOL     OW 7761   0.238   2.050   3.507
 1933SOL    HW2 7762   0.207   2.043   3.597
 1933SOL    HW3 7763   0.163   2.025   3.453
 1933SOL    MW4 7764   0.224   2.046   3.512
 1934SOL     OW 7765   0.234   2.308   3.380
 1934SOL    HW2 7766   0.151   2.348   3.406
 1934SOL    HW3 7767   0.240   2.229   3.433
 1934SOL    MW4 7768   0.224   2.303   3.390
 1935SOL     OW 7769   0.009   2.458   3.442
 1935SOL    HW2 7770   0.022   2.446   3.536
 1935SOL    HW3 7771  -0.074   2.413   3.423
 1935SOL    MW4 7772  -0.001   2.451   3.452
 1936SOL     OW 7773   4.468   2.721   3.415
 1936SOL    HW2 7774   4.549   2.749   3.458
 1936SOL    HW3 7775   4.466   2.626   3.426
 1936SOL    MW4 7776   4.479   2.712   3.422
 1937SOL     OW 7777   0.218   2.847   3.508
 1937SOL    HW2 7778   0.284   2.800   3.458
 1937SOL    HW3 7779   0.219   2.935   3.471
 1937SOL    MW4 7780   0.227   2.852   3.497
 1938SOL     OW 7781   0.198   3.108   3.414
 1938SOL    HW2 7782   0.123   3.148   3.459
 1938SOL    HW3 7783   0.179   3.121   3.321
 1938SOL    MW4 7784   0.186   3.115   3.408
 1939SOL     OW 7785   4.467   3.211   3.519
 1939SOL    HW2 7786   4.379   3.181   3.496
 1939SOL    HW3 7787   4.479   3.291   3.469
 1939SOL    MW4 7788   4.457   3.218   3.509
 1940SOL     OW 7789   4.489   3.484   3.400
 1940SOL    HW2 7790   4.414   3.532   3.435
 1940SOL    HW3 7791   4.471   3.476   3.306
 1940SOL    MW4 7792   4.477   3.489   3.392
 1941SOL     OW 7793   0.228   3.635   3.499
 1941SOL    HW2 7794   0.219   3.627   3.594
 1941SOL    HW3 7795   0.158   3.580   3.463
 1941SOL    MW4 7796   0.218   3.627   3.507
 1942SOL     OW 7797   0.220   3.905   3.402
 1942SOL    HW2 7798   0.136   3.942   3.430
 1942SOL    HW3 7799   0.219   3.815   3.435
 1942SOL    MW4 7800   0.209   3.898   3.410
 1943SOL     OW 7801   4.472   3.980   3.522
 1943SOL    HW2 7802   4.464   3.984   3.617
 1943SOL    HW3 7803   4.482   4.071   3.494
 1943SOL    MW4 7804   4.472   3.993   3.531
 1944SOL     OW 7805   4.489   4.247   3.436
 1944SOL    HW2 7806   4.410   4.296   3.458
 1944SOL    HW3 7807   4.560   4.295   3.479
 1944SOL    MW4 7808   4.488   4.260   3.445
 1945SOL     OW 7809   0.219   4.397   3.539
 1945SOL    HW2 7810   0.223   4.376   3.632
 1945SOL    HW3 7811   0.294   4.350   3.501
 1945SOL    MW4 7812   0.229   4.388   3.546
 1946SOL     OW 7813   0.713   4.658   3.374
 1946SOL    HW2 7814   0.800   4.683   3.406
 1946SOL    HW3 7815   0.722   4.660   3.279
 1946SOL    MW4 7816   0.726   4.662   3.366
 1947SOL     OW 7817   0.482   0.111   3.523
 1947SOL    HW2 7818   0.465   0.084   3.613
 1947SOL    HW3 7819   0.573   0.086   3.507
 1947SOL    MW4 7820   0.492   0.104   3.533
 1948SOL     OW 7821   0.438   0.368   3.430
 1948SOL    HW2 7822   0.522   0.400   3.463
 1948SOL    HW3 7823   0.440   0.274   3.448
 1948SOL    MW4 7824   0.449   0.360   3.437
 1949SOL     OW 7825   0.671   0.494   3.500
 1949SOL    HW2 7826   0.676   0.494   3.596
 1949SOL    HW3 7827   0.749   0.446   3.472
 1949SOL    MW4 7828   0.682   0.488   3.509
 1950SOL     OW 7829   0.660   0.771   3.394
 1950SOL    HW2 7830   0.572   0.786   3.429
 1950SOL    HW3 7831   0.676   0.678   3.408
 1950SOL    MW4 7832   0.651   0.761   3.400
 1951SOL     OW 7833   0.404   0.851   3.493
 1951SOL    HW2 7834   0.403   0.849   3.589
 1951SOL    HW3 7835   0.402   0.944   3.470
 1951SOL    MW4 7836   0.404   0.863   3.503
 1952SOL     OW 7837   0.442   1.130   3.360
 1952SOL    HW2 7838   0.511   1.179   3.405
 1952SOL    HW3 7839   0.456   1.147   3.267
 1952SOL    MW4 7840   0.453   1.139   3.354
 1953SOL     OW 7841   0.643   1.288   3.472
 1953SOL    HW2 7842   0.721   1.236   3.455
 1953SOL    HW3 7843   0.660   1.371   3.428
 1953SOL    MW4 7844   0.656   1.292   3.464
 1954SOL     OW 7845   0.624   1.537   3.357
 1954SOL    HW2 7846   0.697   1.580   3.402
 1954SOL    HW3 7847   0.546   1.570   3.401
 1954SOL    MW4 7848   0.623   1.547   3.369
 1955SOL     OW 7849   0.404   1.675   3.473
 1955SOL    HW2 7850   0.386   1.687   3.566
 1955SOL    HW3 7851   0.447   1.756   3.447
 1955SOL    MW4 7852   0.407   1.687   3.482
 1956SOL     OW 7853   0.478   1.933   3.404
 1956SOL    HW2 7854   0.397   1.978   3.430
 1956SOL    HW3 7855   0.472   1.927   3.309
 1956SOL    MW4 7856   0.467   1.938   3.395
 1957SOL     OW 7857   0.685   2.076   3.516
 1957SOL    HW2 7858   0.667   2.071   3.610
 1957SOL    HW3 7859   0.622   2.015   3.477
 1957SOL    MW4 7860   0.674   2.067   3.523
 1958SOL     OW 7861   0.685   2.310   3.388
 1958SOL    HW2 7862   0.768   2.353   3.409
 1958SOL    HW3 7863   0.685   2.230   3.441
 1958SOL    MW4 7864   0.696   2.305   3.398
 1959SOL     OW 7865   0.465   2.446   3.486
 1959SOL    HW2 7866   0.543   2.401   3.454
 1959SOL    HW3 7867   0.392   2.395   3.452
 1959SOL    MW4 7868   0.466   2.433   3.477
 1960SOL     OW 7869   0.428   2.684   3.367
 1960SOL    HW2 7870   0.428   2.595   3.402
 1960SOL    HW3 7871   0.408   2.673   3.274
 1960SOL    MW4 7872   0.425   2.671   3.359
 1961SOL     OW 7873   0.677   2.817   3.486
 1961SOL    HW2 7874   0.753   2.768   3.455
 1961SOL    HW3 7875   0.602   2.766   3.455
 1961SOL    MW4 7876   0.677   2.804   3.478
 1962SOL     OW 7877   0.678   3.080   3.382
 1962SOL    HW2 7878   0.596   3.118   3.413
 1962SOL    HW3 7879   0.670   2.986   3.400
 1962SOL    MW4 7880   0.666   3.073   3.388
 1963SOL     OW 7881   0.455   3.215   3.474
 1963SOL    HW2 7882   0.483   3.213   3.566
 1963SOL    HW3 7883   0.362   3.192   3.477
 1963SOL    MW4 7884   0.446   3.212   3.486
 1964SOL     OW 7885   0.455   3.491   3.389
 1964SOL    HW2 7886   0.467   3.407   3.434
 1964SOL    HW3 7887   0.388   3.536   3.441
 1964SOL    MW4 7888   0.448   3.486   3.402
 1965SOL     OW 7889   0.698   3.614   3.483
 1965SOL    HW2 7890   0.768   3.554   3.458
 1965SOL    HW3 7891   0.619   3.575   3.446
 1965SOL    MW4 7892   0.697   3.601   3.475
 1966SOL     OW 7893   0.669   3.877   3.407
 1966SOL    HW2 7894   0.593   3.910   3.456
 1966SOL    HW3 7895   0.683   3.789   3.442
 1966SOL    MW4 7896   0.661   3.870   3.418
 1967SOL     OW 7897   0.452   4.006   3.509
 1967SOL    HW2 7898   0.459   4.100   3.493
 1967SOL    HW3 7899   0.381   3.978   3.452
 1967SOL    MW4 7900   0.444   4.015   3.499
 1968SOL     OW 7901   0.445   4.275   3.432
 1968SOL    HW2 7902   0.527   4.322   3.447
 1968SOL    HW3 7903   0.442   4.261   3.337
 1968SOL    MW4 7904   0.455   4.279   3.421
 1969SOL     OW 7905   0.679   4.407   3.516
 1969SOL    HW2 7906   0.770   4.376   3.513
 1969SOL    HW3 7907   0.678   4.485   3.460
 1969SOL    MW4 7908   0.691   4.413   3.508
 1970SOL     OW 7909   1.176   0.007   3.436
 1970SOL    HW2 7910   1.266   0.034   3.454
 1970SOL    HW3 7911   1.176  -0.019   3.344
 1970SOL    MW4 7912   1.188   0.007   3.426
 1971SOL     OW 7913   0.924   0.132   3.504
 1971SOL    HW2 7914   0.911   0.118   3.598
 1971SOL    HW3 7915   1.013   0.101   3.488
 1971SOL    MW4 7916   0.934   0.126   3.514
 1972SOL     OW 7917   0.896   0.387   3.392
 1972SOL    HW2 7918   0.980   0.424   3.420
 1972SOL    HW3 7919   0.897   0.297   3.425
 1972SOL    MW4 7920   0.907   0.380   3.400
 1973SOL     OW 7921   1.138   0.489   3.489
 1973SOL    HW2 7922   1.134   0.482   3.584
 1973SOL    HW3 7923   1.113   0.579   3.470
 1973SOL    MW4 7924   1.134   0.500   3.499
 1974SOL     OW 7925   1.057   0.771   3.352
 1974SOL    HW2 7926   1.135   0.802   3.398
 1974SOL    HW3 7927   0.984   0.793   3.410
 1974SOL    MW4 7928   1.058   0.778   3.366
 1975SOL     OW 7929   0.894   0.866   3.536
 1975SOL    HW2 7930   0.906   0.954   3.500
 1975SOL    HW3 7931   0.811   0.836   3.498
 1975SOL    MW4 7932   0.885   0.874   3.526
 1976SOL     OW 7933   0.852   1.134   3.418
 1976SOL    HW2 7934   0.940   1.170   3.432
 1976SOL    HW3 7935   0.848   1.115   3.324
 1976SOL    MW4 7936   0.863   1.136   3.407
 1977SOL     OW 7937   1.113   1.232   3.490
 1977SOL    HW2 7938   1.136   1.250   3.581
 1977SOL    HW3 7939   1.110   1.318   3.448
 1977SOL    MW4 7940   1.116   1.246   3.496
 1978SOL     OW 7941   1.069   1.504   3.401
 1978SOL    HW2 7942   1.145   1.552   3.434
 1978SOL    HW3 7943   1.072   1.518   3.306
 1978SOL    MW4 7944   1.079   1.512   3.393
 1979SOL     OW 7945   0.840   1.646   3.495
 1979SOL    HW2 7946   0.832   1.737   3.466
 1979SOL    HW3 7947   0.915   1.612   3.445
 1979SOL    MW4 7948   0.849   1.654   3.485
 1980SOL     OW 7949   0.859   1.895   3.384
 1980SOL    HW2 7950   0.942   1.930   3.416
 1980SOL    HW3 7951   0.792   1.947   3.428
 1980SOL    MW4 7952   0.861   1.907   3.394
 1981SOL     OW 7953   1.093   2.023   3.490
 1981SOL    HW2 7954   1.182   1.989   3.479
 1981SOL    HW3 7955   1.096   2.112   3.456
 1981SOL    MW4 7956   1.105   2.030   3.484
 1982SOL     OW 7957   1.158   2.297   3.398
 1982SOL    HW2 7958   1.247   2.320   3.425
 1982SOL    HW3 7959   1.163   2.287   3.303
 1982SOL    MW4 7960   1.170   2.299   3.389
 1983SOL     OW 7961   0.924   2.427   3.484
 1983SOL    HW2 7962   0.912   2.407   3.577
 1983SOL    HW3 7963   1.007   2.384   3.461
 1983SOL    MW4 7964   0.933   2.419   3.493
 1984SOL     OW 7965   0.911   2.699   3.381
 1984SOL    HW2 7966   0.996   2.740   3.398
 1984SOL    HW3 7967   0.920   2.611   3.417
 1984SOL    MW4 7968   0.923   2.693   3.388
 1985SOL     OW 7969   1.157   2.830   3.457
 1985SOL    HW2 7970   1.153   2.828   3.553
 1985SOL    HW3 7971   1.228   2.770   3.434
 1985SOL    MW4 7972   1.166   2.822   3.467
 1986SOL     OW 7973   1.160   3.116   3.382
 1986SOL    HW2 7974   1.186   3.028   3.410
 1986SOL    HW3 7975   1.156   3.110   3.286
 1986SOL    MW4 7976   1.163   3.104   3.373
 1987SOL     OW 7977   0.907   3.193   3.476
 1987SOL    HW2 7978   0.986   3.150   3.442
 1987SOL    HW3 7979   0.835   3.147   3.433
 1987SOL    MW4 7980   0.908   3.181   3.466
 1988SOL     OW 7981   0.915   3.456   3.399
 1988SOL    HW2 7982   0.906   3.362   3.416
 1988SOL    HW3 7983   0.908   3.464   3.304
 1988SOL    MW4 7984   0.913   3.445   3.389
 1989SOL     OW 7985   1.135   3.602   3.472
 1989SOL    HW2 7986   1.132   3.600   3.568
 1989SOL    HW3 7987   1.064   3.545   3.444
 1989SOL    MW4 7988   1.125   3.594   3.481
 1990SOL     OW 7989   1.090   3.883   3.402
 1990SOL    HW2 7990   1.163   3.938   3.431
 1990SOL    HW3 7991   1.116   3.794   3.424
 1990SOL    MW4 7992   1.103   3.878   3.409
 1991SOL     OW 7993   0.862   4.033   3.496
 1991SOL    HW2 7994   0.938   3.981   3.470
 1991SOL    HW3 7995   0.787   3.986   3.460
 1991SOL    MW4 7996   0.862   4.020   3.488
 1992SOL     OW 7997   0.952   4.306   3.438
 1992SOL    HW2 7998   0.916   4.225   3.473
 1992SOL    HW3 7999   0.929   4.304   3.345
 1992SOL    MW4 8000   0.944   4.295   3.430
 1993SOL     OW 8001   1.144   4.436   3.556
 1993SOL    HW2 8002   1.077   4.399   3.498
 1993SOL    HW3 8003   1.166   4.520   3.516
 1993SOL    MW4 8004   1.138   4.442   3.543
 1994SOL     OW 8005   1.620   4.627   3.386
 1994SOL    HW2 8006   1.611   4.547   3.438
 1994SOL    HW3 8007   1.548   4.683   3.415
 1994SOL    MW4 8008   1.609   4.624   3.397
 1995SOL     OW 8009   1.417   0.103   3.502
 1995SOL    HW2 8010   1.395   0.125   3.592
 1995SOL    HW3 8011   1.421   0.187   3.457
 1995SOL    MW4 8012   1.415   0.117   3.508
 1996SOL     OW 8013   1.358   0.348   3.404
 1996SOL    HW2 8014   1.420   0.413   3.437
 1996SOL    HW3 8015   1.272   0.384   3.424
 1996SOL    MW4 8016   1.355   0.361   3.411
 1997SOL     OW 8017   1.559   0.518   3.493
 1997SOL    HW2 8018   1.571   0.526   3.588
 1997SOL    HW3 8019   1.640   0.478   3.462
 1997SOL    MW4 8020   1.571   0.514   3.501
 1998SOL     OW 8021   1.550   0.763   3.385
 1998SOL    HW2 8022   1.473   0.808   3.420
 1998SOL    HW3 8023   1.546   0.675   3.422
 1998SOL    MW4 8024   1.539   0.757   3.395
 1999SOL     OW 8025   1.308   0.898   3.437
 1999SOL    HW2 8026   1.304   0.899   3.533
 1999SOL    HW3 8027   1.331   0.988   3.413
 1999SOL    MW4 8028   1.311   0.910   3.446
 2000SOL     OW 8029   1.336   1.145   3.338
 2000SOL    HW2 8030   1.400   1.200   3.383
 2000SOL    HW3 8031   1.254   1.160   3.385
 2000SOL    MW4 8032   1.334   1.154   3.350
 2001SOL     OW 8033   1.575   1.239   3.461
 2001SOL    HW2 8034   1.576   1.246   3.557
 2001SOL    HW3 8035   1.663   1.209   3.439
 2001SOL    MW4 8036   1.587   1.236   3.471
 2002SOL     OW 8037   1.552   1.515   3.402
 2002SOL    HW2 8038   1.553   1.426   3.438
 2002SOL    HW3 8039   1.559   1.503   3.307
 2002SOL    MW4 8040   1.553   1.502   3.394
 2003SOL     OW 8041   1.322   1.654   3.478
 2003SOL    HW2 8042   1.310   1.654   3.573
 2003SOL    HW3 8043   1.401   1.601   3.464
 2003SOL    MW4 8044   1.331   1.647   3.489
 2004SOL     OW 8045   1.322   1.908   3.390
 2004SOL    HW2 8046   1.405   1.947   3.418
 2004SOL    HW3 8047   1.318   1.825   3.437
 2004SOL    MW4 8048   1.332   1.902   3.400
 2005SOL     OW 8049   1.538   2.032   3.512
 2005SOL    HW2 8050   1.613   1.977   3.489
 2005SOL    HW3 8051   1.559   2.117   3.473
 2005SOL    MW4 8052   1.551   2.036   3.504
 2006SOL     OW 8053   1.626   2.293   3.420
 2006SOL    HW2 8054   1.541   2.325   3.450
 2006SOL    HW3 8055   1.621   2.299   3.325
 2006SOL    MW4 8056   1.614   2.298   3.411
 2007SOL     OW 8057   1.384   2.388   3.512
 2007SOL    HW2 8058   1.353   2.392   3.603
 2007SOL    HW3 8059   1.384   2.479   3.483
 2007SOL    MW4 8060   1.380   2.401   3.520
 2008SOL     OW 8061   1.376   2.647   3.419
 2008SOL    HW2 8062   1.463   2.686   3.428
 2008SOL    HW3 8063   1.364   2.636   3.325
 2008SOL    MW4 8064   1.386   2.651   3.408
 2009SOL     OW 8065   1.607   2.784   3.475
 2009SOL    HW2 8066   1.696   2.776   3.441
 2009SOL    HW3 8067   1.582   2.874   3.453
 2009SOL    MW4 8068   1.615   2.795   3.468
 2010SOL     OW 8069   1.551   3.062   3.414
 2010SOL    HW2 8070   1.619   3.119   3.449
 2010SOL    HW3 8071   1.469   3.100   3.445
 2010SOL    MW4 8072   1.549   3.075   3.423
 2011SOL     OW 8073   1.345   3.247   3.553
 2011SOL    HW2 8074   1.341   3.237   3.648
 2011SOL    HW3 8075   1.257   3.223   3.523
 2011SOL    MW4 8076   1.333   3.243   3.562
 2012SOL     OW 8077   1.367   3.470   3.388
 2012SOL    HW2 8078   1.370   3.395   3.448
 2012SOL    HW3 8079   1.281   3.510   3.404
 2012SOL    MW4 8080   1.356   3.465   3.398
 2013SOL     OW 8081   1.595   3.620   3.505
 2013SOL    HW2 8082   1.583   3.634   3.599
 2013SOL    HW3 8083   1.518   3.570   3.478
 2013SOL    MW4 8084   1.583   3.615   3.514
 2014SOL     OW 8085   1.557   3.874   3.420
 2014SOL    HW2 8086   1.570   3.782   3.445
 2014SOL    HW3 8087   1.569   3.875   3.325
 2014SOL    MW4 8088   1.560   3.862   3.411
 2015SOL     OW 8089   1.321   4.021   3.476
 2015SOL    HW2 8090   1.329   4.114   3.453
 2015SOL    HW3 8091   1.403   3.982   3.445
 2015SOL    MW4 8092   1.333   4.028   3.469
 2016SOL     OW 8093   1.332   4.279   3.419
 2016SOL    HW2 8094   1.269   4.344   3.452
 2016SOL    HW3 8095   1.317   4.276   3.325
 2016SOL    MW4 8096   1.322   4.287   3.411
 2017SOL     OW 8097   1.565   4.393   3.538
 2017SOL    HW2 8098   1.635   4.364   3.480
 2017SOL    HW3 8099   1.485   4.360   3.498
 2017SOL    MW4 8100   1.564   4.385   3.525
 2018SOL     OW 8101   2.019   4.636   3.443
 2018SOL    HW2 8102   2.100   4.681   3.469
 2018SOL    HW3 8103   1.949   4.691   3.477
 2018SOL    MW4 8104   2.020   4.649   3.451
 2019SOL     OW 8105   1.798   0.115   3.521
 2019SOL    HW2 8106   1.777   0.098   3.613
 2019SOL    HW3 8107   1.740   0.057   3.472
 2019SOL    MW4 8108   1.788   0.105   3.527
 2020SOL     OW 8109   1.791   0.371   3.419
 2020SOL    HW2 8110   1.797   0.283   3.456
 2020SOL    HW3 8111   1.824   0.362   3.330
 2020SOL    MW4 8112   1.796   0.358   3.412
 2021SOL     OW 8113   2.007   0.513   3.516
 2021SOL    HW2 8114   1.998   0.604   3.487
 2021SOL    HW3 8115   1.926   0.470   3.488
 2021SOL    MW4 8116   1.995   0.519   3.508
 2022SOL     OW 8117   1.985   0.776   3.400
 2022SOL    HW2 8118   2.070   0.796   3.440
 2022SOL    HW3 8119   2.005   0.753   3.309
 2022SOL    MW4 8120   1.999   0.776   3.393
 2023SOL     OW 8121   1.755   0.880   3.516
 2023SOL    HW2 8122   1.829   0.851   3.463
 2023SOL    HW3 8123   1.679   0.835   3.479
 2023SOL    MW4 8124   1.755   0.870   3.504
 2024SOL     OW 8125   1.810   1.124   3.378
 2024SOL    HW2 8126   1.865   1.176   3.437
 2024SOL    HW3 8127   1.786   1.047   3.430
 2024SOL    MW4 8128   1.814   1.121   3.393
 2025SOL     OW 8129   1.994   1.285   3.503
 2025SOL    HW2 8130   2.017   1.276   3.596
 2025SOL    HW3 8131   2.025   1.372   3.479
 2025SOL    MW4 8132   2.001   1.295   3.512
 2026SOL     OW 8133   2.049   1.546   3.425
 2026SOL    HW2 8134   2.120   1.607   3.446
 2026SOL    HW3 8135   1.969   1.596   3.441
 2026SOL    MW4 8136   2.048   1.561   3.430
 2027SOL     OW 8137   1.799   1.629   3.485
 2027SOL    HW2 8138   1.790   1.724   3.473
 2027SOL    HW3 8139   1.711   1.594   3.470
 2027SOL    MW4 8140   1.786   1.637   3.481
 2028SOL     OW 8141   1.766   1.913   3.434
 2028SOL    HW2 8142   1.842   1.965   3.460
 2028SOL    HW3 8143   1.777   1.901   3.340
 2028SOL    MW4 8144   1.777   1.918   3.425
 2029SOL     OW 8145   2.015   2.049   3.499
 2029SOL    HW2 8146   2.100   2.015   3.470
 2029SOL    HW3 8147   2.012   2.138   3.463
 2029SOL    MW4 8148   2.026   2.056   3.490
 2030SOL     OW 8149   2.024   2.287   3.386
 2030SOL    HW2 8150   2.111   2.304   3.421
 2030SOL    HW3 8151   2.037   2.281   3.291
 2030SOL    MW4 8152   2.037   2.288   3.378
 2031SOL     OW 8153   1.836   2.441   3.518
 2031SOL    HW2 8154   1.905   2.391   3.474
 2031SOL    HW3 8155   1.755   2.399   3.490
 2031SOL    MW4 8156   1.834   2.429   3.509
 2032SOL     OW 8157   1.850   2.699   3.397
 2032SOL    HW2 8158   1.896   2.754   3.460
 2032SOL    HW3 8159   1.849   2.612   3.437
 2032SOL    MW4 8160   1.856   2.695   3.411
 2033SOL     OW 8161   2.021   2.873   3.517
 2033SOL    HW2 8162   1.995   2.890   3.607
 2033SOL    HW3 8163   2.033   2.960   3.478
 2033SOL    MW4 8164   2.019   2.887   3.524
 2034SOL     OW 8165   1.998   3.132   3.393
 2034SOL    HW2 8166   2.076   3.173   3.431
 2034SOL    HW3 8167   1.925   3.170   3.442
 2034SOL    MW4 8168   1.999   3.142   3.404
 2035SOL     OW 8169   1.763   3.229   3.507
 2035SOL    HW2 8170   1.754   3.251   3.600
 2035SOL    HW3 8171   1.778   3.313   3.464
 2035SOL    MW4 8172   1.764   3.243   3.514
 2036SOL     OW 8173   1.826   3.486   3.427
 2036SOL    HW2 8174   1.748   3.528   3.463
 2036SOL    HW3 8175   1.814   3.491   3.332
 2036SOL    MW4 8176   1.814   3.492   3.419
 2037SOL     OW 8177   2.054   3.627   3.489
 2037SOL    HW2 8178   2.132   3.572   3.482
 2037SOL    HW3 8179   1.985   3.575   3.449
 2037SOL    MW4 8180   2.055   3.613   3.483
 2038SOL     OW 8181   2.030   3.891   3.393
 2038SOL    HW2 8182   1.946   3.932   3.415
 2038SOL    HW3 8183   2.031   3.810   3.443
 2038SOL    MW4 8184   2.019   3.886   3.403
 2039SOL     OW 8185   1.771   4.034   3.465
 2039SOL    HW2 8186   1.775   4.040   3.560
 2039SOL    HW3 8187   1.697   3.976   3.447
 2039SOL    MW4 8188   1.762   4.027   3.475
 2040SOL     OW 8189   1.771   4.297   3.389
 2040SOL    HW2 8190   1.772   4.202   3.401
 2040SOL    HW3 8191   1.774   4.309   3.294
 2040SOL    MW4 8192   1.772   4.286   3.378
 2041SOL     OW 8193   2.009   4.361   3.506
 2041SOL    HW2 8194   1.928   4.326   3.469
 2041SOL    HW3 8195   2.014   4.450   3.473
 2041SOL    MW4 8196   1.999   4.368   3.497
 2042SOL     OW 8197   2.433   4.627   3.460
 2042SOL    HW2 8198   2.437   4.538   3.496
 2042SOL    HW3 8199   2.435   4.615   3.365
 2042SOL    MW4 8200   2.434   4.614   3.452
 2043SOL     OW 8201   2.238   0.142   3.567
 2043SOL    HW2 8202   2.235   0.222   3.515
 2043SOL    HW3 8203   2.311   0.092   3.531
 2043SOL    MW4 8204   2.247   0.146   3.555
 2044SOL     OW 8205   2.218   0.381   3.394
 2044SOL    HW2 8206   2.293   0.420   3.439
 2044SOL    HW3 8207   2.142   0.426   3.432
 2044SOL    MW4 8208   2.218   0.392   3.405
 2045SOL     OW 8209   2.449   0.474   3.515
 2045SOL    HW2 8210   2.530   0.429   3.490
 2045SOL    HW3 8211   2.464   0.566   3.493
 2045SOL    MW4 8212   2.462   0.480   3.509
 2046SOL     OW 8213   2.478   0.742   3.451
 2046SOL    HW2 8214   2.563   0.777   3.478
 2046SOL    HW3 8215   2.486   0.732   3.356
 2046SOL    MW4 8216   2.490   0.745   3.442
 2047SOL     OW 8217   2.231   0.865   3.537
 2047SOL    HW2 8218   2.222   0.944   3.484
 2047SOL    HW3 8219   2.313   0.825   3.508
 2047SOL    MW4 8220   2.241   0.870   3.526
 2048SOL     OW 8221   2.202   1.114   3.408
 2048SOL    HW2 8222   2.288   1.146   3.434
 2048SOL    HW3 8223   2.140   1.174   3.450
 2048SOL    MW4 8224   2.205   1.126   3.417
 2049SOL     OW 8225   2.446   1.213   3.492
 2049SOL    HW2 8226   2.453   1.224   3.587
 2049SOL    HW3 8227   2.524   1.163   3.468
 2049SOL    MW4 8228   2.457   1.208   3.501
 2050SOL     OW 8229   2.463   1.512   3.440
 2050SOL    HW2 8230   2.457   1.417   3.446
 2050SOL    HW3 8231   2.480   1.530   3.348
 2050SOL    MW4 8232   2.464   1.502   3.429
 2051SOL     OW 8233   2.269   1.706   3.511
 2051SOL    HW2 8234   2.261   1.707   3.606
 2051SOL    HW3 8235   2.340   1.645   3.493
 2051SOL    MW4 8236   2.277   1.698   3.521
 2052SOL     OW 8237   2.266   1.963   3.404
 2052SOL    HW2 8238   2.263   1.880   3.452
 2052SOL    HW3 8239   2.262   1.938   3.312
 2052SOL    MW4 8240   2.265   1.949   3.398
 2053SOL     OW 8241   2.513   2.036   3.504
 2053SOL    HW2 8242   2.503   2.039   3.599
 2053SOL    HW3 8243   2.424   2.026   3.471
 2053SOL    MW4 8244   2.500   2.035   3.512
 2054SOL     OW 8245   2.495   2.304   3.404
 2054SOL    HW2 8246   2.567   2.361   3.432
 2054SOL    HW3 8247   2.517   2.218   3.440
 2054SOL    MW4 8248   2.507   2.300   3.412
 2055SOL     OW 8249   2.256   2.380   3.502
 2055SOL    HW2 8250   2.256   2.472   3.476
 2055SOL    HW3 8251   2.342   2.347   3.476
 2055SOL    MW4 8252   2.267   2.388   3.495
 2056SOL     OW 8253   2.224   2.653   3.428
 2056SOL    HW2 8254   2.163   2.716   3.467
 2056SOL    HW3 8255   2.210   2.661   3.334
 2056SOL    MW4 8256   2.214   2.662   3.421
 2057SOL     OW 8257   2.460   2.784   3.513
 2057SOL    HW2 8258   2.450   2.878   3.502
 2057SOL    HW3 8259   2.380   2.746   3.477
 2057SOL    MW4 8260   2.448   2.791   3.507
 2058SOL     OW 8261   2.473   3.040   3.414
 2058SOL    HW2 8262   2.554   3.084   3.438
 2058SOL    HW3 8263   2.466   3.051   3.319
 2058SOL    MW4 8264   2.483   3.047   3.405
 2059SOL     OW 8265   2.244   3.207   3.501
 2059SOL    HW2 8266   2.241   3.224   3.595
 2059SOL    HW3 8267   2.324   3.157   3.488
 2059SOL    MW4 8268   2.254   3.203   3.512
 2060SOL     OW 8269   2.252   3.465   3.389
 2060SOL    HW2 8270   2.243   3.375   3.421
 2060SOL    HW3 8271   2.227   3.460   3.297
 2060SOL    MW4 8272   2.248   3.452   3.381
 2061SOL     OW 8273   2.464   3.570   3.543
 2061SOL    HW2 8274   2.457   3.660   3.512
 2061SOL    HW3 8275   2.382   3.529   3.515
 2061SOL    MW4 8276   2.452   3.577   3.535
 2062SOL     OW 8277   2.458   3.835   3.415
 2062SOL    HW2 8278   2.542   3.879   3.426
 2062SOL    HW3 8279   2.393   3.902   3.437
 2062SOL    MW4 8280   2.461   3.850   3.419
 2063SOL     OW 8281   2.262   4.019   3.488
 2063SOL    HW2 8282   2.261   4.110   3.457
 2063SOL    HW3 8283   2.188   3.978   3.443
 2063SOL    MW4 8284   2.252   4.026   3.478
 2064SOL     OW 8285   2.253   4.286   3.386
 2064SOL    HW2 8286   2.161   4.296   3.411
 2064SOL    HW3 8287   2.250   4.260   3.294
 2064SOL    MW4 8288   2.240   4.284   3.377
 2065SOL     OW 8289   2.478   4.355   3.543
 2065SOL    HW2 8290   2.461   4.349   3.637
 2065SOL    HW3 8291   2.394   4.334   3.502
 2065SOL    MW4 8292   2.465   4.351   3.550
 2066SOL     OW 8293   2.919   4.661   3.417
 2066SOL    HW2 8294   2.836   4.698   3.447
 2066SOL    HW3 8295   2.912   4.660   3.322
 2066SOL    MW4 8296   2.907   4.666   3.408
 2067SOL     OW 8297   2.691   0.085   3.525
 2067SOL    HW2 8298   2.672   0.176   3.504
 2067SOL    HW3 8299   2.613   0.037   3.497
 2067SOL    MW4 8300   2.678   0.091   3.519
 2068SOL     OW 8301   2.691   0.356   3.429
 2068SOL    HW2 8302   2.773   0.384   3.469
 2068SOL    HW3 8303   2.701   0.378   3.336
 2068SOL    MW4 8304   2.703   0.363   3.422
 2069SOL     OW 8305   2.917   0.449   3.523
 2069SOL    HW2 8306   2.919   0.448   3.619
 2069SOL    HW3 8307   2.931   0.541   3.499
 2069SOL    MW4 8308   2.919   0.461   3.532
 2070SOL     OW 8309   2.942   0.712   3.418
 2070SOL    HW2 8310   3.013   0.762   3.458
 2070SOL    HW3 8311   2.862   0.749   3.456
 2070SOL    MW4 8312   2.941   0.723   3.428
 2071SOL     OW 8313   2.725   0.847   3.522
 2071SOL    HW2 8314   2.727   0.853   3.618
 2071SOL    HW3 8315   2.710   0.937   3.493
 2071SOL    MW4 8316   2.723   0.860   3.531
 2072SOL     OW 8317   2.681   1.103   3.412
 2072SOL    HW2 8318   2.752   1.152   3.454
 2072SOL    HW3 8319   2.693   1.121   3.319
 2072SOL    MW4 8320   2.692   1.112   3.405
 2073SOL     OW 8321   2.906   1.226   3.504
 2073SOL    HW2 8322   2.922   1.237   3.598
 2073SOL    HW3 8323   2.992   1.206   3.467
 2073SOL    MW4 8324   2.920   1.225   3.511
 2074SOL     OW 8325   2.913   1.515   3.417
 2074SOL    HW2 8326   2.830   1.540   3.458
 2074SOL    HW3 8327   2.925   1.423   3.440
 2074SOL    MW4 8328   2.904   1.506   3.425
 2075SOL     OW 8329   2.692   1.625   3.529
 2075SOL    HW2 8330   2.702   1.708   3.483
 2075SOL    HW3 8331   2.604   1.595   3.506
 2075SOL    MW4 8332   2.682   1.632   3.520
 2076SOL     OW 8333   2.712   1.864   3.392
 2076SOL    HW2 8334   2.634   1.906   3.428
 2076SOL    HW3 8335   2.698   1.863   3.297
 2076SOL    MW4 8336   2.700   1.869   3.384
 2077SOL     OW 8337   2.889   2.071   3.489
 2077SOL    HW2 8338   2.883   2.057   3.584
 2077SOL    HW3 8339   2.851   1.992   3.451
 2077SOL    MW4 8340   2.883   2.059   3.496
 2078SOL     OW 8341   2.911   2.320   3.389
 2078SOL    HW2 8342   2.901   2.230   3.420
 2078SOL    HW3 8343   2.913   2.312   3.294
 2078SOL    MW4 8344   2.910   2.307   3.381
 2079SOL     OW 8345   2.694   2.465   3.496
 2079SOL    HW2 8346   2.706   2.462   3.591
 2079SOL    HW3 8347   2.767   2.414   3.461
 2079SOL    MW4 8348   2.705   2.458   3.504
 2080SOL     OW 8349   2.691   2.716   3.381
 2080SOL    HW2 8350   2.717   2.635   3.425
 2080SOL    HW3 8351   2.621   2.751   3.435
 2080SOL    MW4 8352   2.685   2.710   3.394
 2081SOL     OW 8353   2.930   2.839   3.488
 2081SOL    HW2 8354   2.942   2.838   3.583
 2081SOL    HW3 8355   2.844   2.799   3.475
 2081SOL    MW4 8356   2.920   2.834   3.499
 2082SOL     OW 8357   2.931   3.107   3.425
 2082SOL    HW2 8358   2.950   3.017   3.453
 2082SOL    HW3 8359   2.932   3.103   3.329
 2082SOL    MW4 8360   2.934   3.095   3.416
 2083SOL     OW 8361   2.689   3.200   3.520
 2083SOL    HW2 8362   2.684   3.206   3.615
 2083SOL    HW3 8363   2.778   3.170   3.502
 2083SOL    MW4 8364   2.700   3.197   3.530
 2084SOL     OW 8365   2.685   3.442   3.395
 2084SOL    HW2 8366   2.679   3.361   3.446
 2084SOL    HW3 8367   2.613   3.496   3.427
 2084SOL    MW4 8368   2.675   3.438   3.406
 2085SOL     OW 8369   2.903   3.543   3.516
 2085SOL    HW2 8370   2.905   3.628   3.473
 2085SOL    HW3 8371   2.826   3.499   3.479
 2085SOL    MW4 8372   2.893   3.548   3.505
 2086SOL     OW 8373   2.919   3.805   3.415
 2086SOL    HW2 8374   2.983   3.872   3.438
 2086SOL    HW3 8375   2.834   3.849   3.424
 2086SOL    MW4 8376   2.916   3.820   3.419
 2087SOL     OW 8377   2.683   3.970   3.455
 2087SOL    HW2 8378   2.700   3.977   3.549
 2087SOL    HW3 8379   2.665   4.060   3.427
 2087SOL    MW4 8380   2.683   3.983   3.464
 2088SOL     OW 8381   2.675   4.247   3.387
 2088SOL    HW2 8382   2.758   4.280   3.422
 2088SOL    HW3 8383   2.609   4.278   3.449
 2088SOL    MW4 8384   2.677   4.255   3.400
 2089SOL     OW 8385   2.923   4.381   3.463
 2089SOL    HW2 8386   2.921   4.385   3.559
 2089SOL    HW3 8387   2.924   4.473   3.435
 2089SOL    MW4 8388   2.923   4.394   3.472
 2090SOL     OW 8389   3.391   4.650   3.376
 2090SOL    HW2 8390   3.321   4.703   3.414
 2090SOL    HW3 8391   3.379   4.659   3.281
 2090SOL    MW4 8392   3.380   4.658   3.369
 2091SOL     OW 8393   3.167   0.109   3.506
 2091SOL    HW2 8394   3.151   0.202   3.488
 2091SOL    HW3 8395   3.083   0.067   3.489
 2091SOL    MW4 8396   3.154   0.116   3.501
 2092SOL     OW 8397   3.150   0.355   3.408
 2092SOL    HW2 8398   3.064   0.380   3.443
 2092SOL    HW3 8399   3.141   0.365   3.313
 2092SOL    MW4 8400   3.138   0.360   3.400
 2093SOL     OW 8401   3.388   0.477   3.540
 2093SOL    HW2 8402   3.385   0.483   3.635
 2093SOL    HW3 8403   3.318   0.416   3.517
 2093SOL    MW4 8404   3.378   0.470   3.550
 2094SOL     OW 8405   3.370   0.712   3.413
 2094SOL    HW2 8406   3.454   0.758   3.412
 2094SOL    HW3 8407   3.387   0.633   3.464
 2094SOL    MW4 8408   3.383   0.708   3.420
 2095SOL     OW 8409   3.149   0.861   3.524
 2095SOL    HW2 8410   3.163   0.948   3.487
 2095SOL    HW3 8411   3.233   0.816   3.514
 2095SOL    MW4 8412   3.162   0.867   3.518
 2096SOL     OW 8413   3.146   1.144   3.416
 2096SOL    HW2 8414   3.223   1.196   3.439
 2096SOL    HW3 8415   3.144   1.145   3.320
 2096SOL    MW4 8416   3.156   1.151   3.406
 2097SOL     OW 8417   3.348   1.287   3.482
 2097SOL    HW2 8418   3.429   1.253   3.443
 2097SOL    HW3 8419   3.340   1.375   3.446
 2097SOL    MW4 8420   3.358   1.294   3.472
 2098SOL     OW 8421   3.330   1.545   3.407
 2098SOL    HW2 8422   3.412   1.591   3.428
 2098SOL    HW3 8423   3.266   1.581   3.469
 2098SOL    MW4 8424   3.332   1.556   3.418
 2099SOL     OW 8425   3.127   1.662   3.553
 2099SOL    HW2 8426   3.120   1.749   3.514
 2099SOL    HW3 8427   3.066   1.608   3.502
 2099SOL    MW4 8428   3.118   1.666   3.541
 2100SOL     OW 8429   3.109   1.911   3.430
 2100SOL    HW2 8430   3.037   1.973   3.442
 2100SOL    HW3 8431   3.125   1.912   3.336
 2100SOL    MW4 8432   3.102   1.919   3.419
 2101SOL     OW 8433   3.341   2.044   3.516
 2101SOL    HW2 8434   3.350   2.138   3.499
 2101SOL    HW3 8435   3.254   2.022   3.484
 2101SOL    MW4 8436   3.331   2.053   3.510
 2102SOL     OW 8437   3.374   2.307   3.440
 2102SOL    HW2 8438   3.445   2.369   3.455
 2102SOL    HW3 8439   3.295   2.356   3.463
 2102SOL    MW4 8440   3.373   2.322   3.445
 2103SOL     OW 8441   3.146   2.443   3.491
 2103SOL    HW2 8442   3.134   2.537   3.476
 2103SOL    HW3 8443   3.065   2.403   3.459
 2103SOL    MW4 8444   3.134   2.450   3.485
 2104SOL     OW 8445   3.143   2.697   3.390
 2104SOL    HW2 8446   3.227   2.724   3.427
 2104SOL    HW3 8447   3.080   2.762   3.423
 2104SOL    MW4 8448   3.146   2.709   3.399
 2105SOL     OW 8449   3.367   2.771   3.503
 2105SOL    HW2 8450   3.445   2.723   3.475
 2105SOL    HW3 8451   3.376   2.858   3.464
 2105SOL    MW4 8452   3.378   2.776   3.494
 2106SOL     OW 8453   3.386   3.046   3.412
 2106SOL    HW2 8454   3.455   3.110   3.428
 2106SOL    HW3 8455   3.306   3.088   3.443
 2106SOL    MW4 8456   3.385   3.060   3.418
 2107SOL     OW 8457   3.173   3.200   3.466
 2107SOL    HW2 8458   3.173   3.296   3.469
 2107SOL    HW3 8459   3.080   3.176   3.461
 2107SOL    MW4 8460   3.161   3.209   3.466
 2108SOL     OW 8461   3.151   3.486   3.436
 2108SOL    HW2 8462   3.060   3.505   3.459
 2108SOL    HW3 8463   3.155   3.498   3.341
 2108SOL    MW4 8464   3.140   3.490   3.427
 2109SOL     OW 8465   3.374   3.625   3.525
 2109SOL    HW2 8466   3.376   3.716   3.494
 2109SOL    HW3 8467   3.287   3.594   3.501
 2109SOL    MW4 8468   3.363   3.633   3.518
 2110SOL     OW 8469   3.362   3.875   3.406
 2110SOL    HW2 8470   3.436   3.932   3.425
 2110SOL    HW3 8471   3.286   3.923   3.439
 2110SOL    MW4 8472   3.362   3.889   3.413
 2111SOL     OW 8473   3.105   3.982   3.491
 2111SOL    HW2 8474   3.120   3.980   3.586
 2111SOL    HW3 8475   3.114   4.074   3.468
 2111SOL    MW4 8476   3.108   3.994   3.500
 2112SOL     OW 8477   3.156   4.235   3.397
 2112SOL    HW2 8478   3.237   4.286   3.406
 2112SOL    HW3 8479   3.086   4.296   3.420
 2112SOL    MW4 8480   3.157   4.250   3.401
 2113SOL     OW 8481   3.387   4.388   3.460
 2113SOL    HW2 8482   3.382   4.397   3.555
 2113SOL    HW3 8483   3.397   4.478   3.428
 2113SOL    MW4 8484   3.388   4.401   3.468
 2114SOL     OW 8485   3.882   4.628   3.375
 2114SOL    HW2 8486   3.806   4.678   3.404
 2114SOL    HW3 8487   3.877   4.628   3.279
 2114SOL    MW4 8488   3.871   4.635   3.366
 2115SOL     OW 8489   3.651   0.082   3.462
 2115SOL    HW2 8490   3.640   0.177   3.467
 2115SOL    HW3 8491   3.568   0.050   3.427
 2115SOL    MW4 8492   3.639   0.090   3.458
 2116SOL     OW 8493   3.610   0.370   3.388
 2116SOL    HW2 8494   3.684   0.428   3.408
 2116SOL    HW3 8495   3.538   0.403   3.442
 2116SOL    MW4 8496   3.610   0.382   3.398
 2117SOL     OW 8497   3.809   0.534   3.482
 2117SOL    HW2 8498   3.805   0.512   3.575
 2117SOL    HW3 8499   3.882   0.483   3.448
 2117SOL    MW4 8500   3.818   0.524   3.490
 2118SOL     OW 8501   3.806   0.798   3.386
 2118SOL    HW2 8502   3.893   0.828   3.413
 2118SOL    HW3 8503   3.802   0.708   3.417
 2118SOL    MW4 8504   3.817   0.790   3.394
 2119SOL     OW 8505   3.567   0.921   3.472
 2119SOL    HW2 8506   3.563   0.904   3.566
 2119SOL    HW3 8507   3.648   0.879   3.443
 2119SOL    MW4 8508   3.577   0.913   3.481
 2120SOL     OW 8509   3.578   1.177   3.369
 2120SOL    HW2 8510   3.577   1.088   3.405
 2120SOL    HW3 8511   3.568   1.164   3.275
 2120SOL    MW4 8512   3.577   1.164   3.361
 2121SOL     OW 8513   3.802   1.288   3.491
 2121SOL    HW2 8514   3.804   1.287   3.587
 2121SOL    HW3 8515   3.728   1.232   3.468
 2121SOL    MW4 8516   3.792   1.280   3.501
 2122SOL     OW 8517   3.774   1.543   3.359
 2122SOL    HW2 8518   3.848   1.598   3.386
 2122SOL    HW3 8519   3.780   1.466   3.415
 2122SOL    MW4 8520   3.785   1.540   3.370
 2123SOL     OW 8521   3.558   1.668   3.477
 2123SOL    HW2 8522   3.578   1.759   3.455
 2123SOL    HW3 8523   3.634   1.619   3.445
 2123SOL    MW4 8524   3.571   1.674   3.470
 2124SOL     OW 8525   3.586   1.944   3.401
 2124SOL    HW2 8526   3.653   1.997   3.444
 2124SOL    HW3 8527   3.503   1.975   3.438
 2124SOL    MW4 8528   3.584   1.955   3.412
 2125SOL     OW 8529   3.779   2.083   3.529
 2125SOL    HW2 8530   3.778   2.066   3.623
 2125SOL    HW3 8531   3.856   2.036   3.496
 2125SOL    MW4 8532   3.789   2.075   3.537
 2126SOL     OW 8533   3.818   2.297   3.355
 2126SOL    HW2 8534   3.889   2.343   3.400
 2126SOL    HW3 8535   3.788   2.232   3.418
 2126SOL    MW4 8536   3.823   2.294   3.369
 2127SOL     OW 8537   3.608   2.427   3.504
 2127SOL    HW2 8538   3.607   2.511   3.457
 2127SOL    HW3 8539   3.669   2.373   3.455
 2127SOL    MW4 8540   3.616   2.431   3.491
 2128SOL     OW 8541   3.603   2.683   3.395
 2128SOL    HW2 8542   3.655   2.756   3.429
 2128SOL    HW3 8543   3.611   2.690   3.300
 2128SOL    MW4 8544   3.611   2.694   3.387
 2129SOL     OW 8545   3.820   2.849   3.502
 2129SOL    HW2 8546   3.817   2.849   3.598
 2129SOL    HW3 8547   3.842   2.939   3.479
 2129SOL    MW4 8548   3.823   2.861   3.512
 2130SOL     OW 8549   3.846   3.116   3.417
 2130SOL    HW2 8550   3.894   3.194   3.446
 2130SOL    HW3 8551   3.842   3.125   3.322
 2130SOL    MW4 8552   3.852   3.127   3.408
 2131SOL     OW 8553   3.580   3.221   3.530
 2131SOL    HW2 8554   3.596   3.311   3.503
 2131SOL    HW3 8555   3.664   3.177   3.518
 2131SOL    MW4 8556   3.593   3.227   3.525
 2132SOL     OW 8557   3.591   3.480   3.428
 2132SOL    HW2 8558   3.514   3.522   3.467
 2132SOL    HW3 8559   3.575   3.483   3.334
 2132SOL    MW4 8560   3.579   3.486   3.421
 2133SOL     OW 8561   3.822   3.630   3.528
 2133SOL    HW2 8562   3.820   3.635   3.624
 2133SOL    HW3 8563   3.740   3.587   3.504
 2133SOL    MW4 8564   3.811   3.625   3.537
 2134SOL     OW 8565   3.793   3.873   3.401
 2134SOL    HW2 8566   3.715   3.910   3.443
 2134SOL    HW3 8567   3.798   3.783   3.434
 2134SOL    MW4 8568   3.783   3.866   3.411
 2135SOL     OW 8569   3.599   3.990   3.532
 2135SOL    HW2 8570   3.584   3.997   3.626
 2135SOL    HW3 8571   3.604   4.080   3.501
 2135SOL    MW4 8572   3.598   4.003   3.540
 2136SOL     OW 8573   3.612   4.235   3.404
 2136SOL    HW2 8574   3.533   4.282   3.431
 2136SOL    HW3 8575   3.622   4.255   3.311
 2136SOL    MW4 8576   3.603   4.244   3.395
 2137SOL     OW 8577   3.830   4.373   3.478
 2137SOL    HW2 8578   3.745   4.345   3.443
 2137SOL    HW3 8579   3.839   4.464   3.448
 2137SOL    MW4 8580   3.820   4.381   3.469
 2138SOL     OW 8581   4.290   4.654   3.426
 2138SOL    HW2 8582   4.296   4.563   3.453
 2138SOL    HW3 8583   4.373   4.693   3.452
 2138SOL    MW4 8584   4.302   4.647   3.433
 2139SOL     OW 8585   4.060   0.124   3.522
 2139SOL    HW2 8586   4.147   0.099   3.491
 2139SOL    HW3 8587   4.000   0.073   3.468
 2139SOL    MW4 8588   4.064   0.114   3.511
 2140SOL     OW 8589   4.011   0.377   3.397
 2140SOL    HW2 8590   4.011   0.297   3.449
 2140SOL    HW3 8591   4.007   0.346   3.306
 2140SOL    MW4 8592   4.010   0.362   3.392
 2141SOL     OW 8593   4.255   0.466   3.533
 2141SOL    HW2 8594   4.241   0.553   3.495
 2141SOL    HW3 8595   4.177   0.416   3.508
 2141SOL    MW4 8596   4.243   0.471   3.525
 2142SOL     OW 8597   4.254   0.726   3.392
 2142SOL    HW2 8598   4.336   0.772   3.409
 2142SOL    HW3 8599   4.244   0.729   3.297
 2142SOL    MW4 8600   4.264   0.732   3.382
 2143SOL     OW 8601   4.045   0.895   3.488
 2143SOL    HW2 8602   4.069   0.976   3.443
 2143SOL    HW3 8603   4.123   0.840   3.482
 2143SOL    MW4 8604   4.058   0.898   3.481
 2144SOL     OW 8605   4.020   1.162   3.374
 2144SOL    HW2 8606   4.095   1.218   3.392
 2144SOL    HW3 8607   3.946   1.208   3.413
 2144SOL    MW4 8608   4.020   1.175   3.382
 2145SOL     OW 8609   4.236   1.311   3.476
 2145SOL    HW2 8610   4.252   1.400   3.445
 2145SOL    HW3 8611   4.304   1.259   3.433
 2145SOL    MW4 8612   4.247   1.316   3.466
 2146SOL     OW 8613   4.269   1.563   3.368
 2146SOL    HW2 8614   4.189   1.606   3.398
 2146SOL    HW3 8615   4.253   1.544   3.276
 2146SOL    MW4 8616   4.256   1.566   3.360
 2147SOL     OW 8617   4.014   1.649   3.457
 2147SOL    HW2 8618   4.027   1.656   3.552
 2147SOL    HW3 8619   4.014   1.740   3.426
 2147SOL    MW4 8620   4.016   1.662   3.465
 2148SOL     OW 8621   3.991   1.922   3.428
 2148SOL    HW2 8622   4.067   1.966   3.466
 2148SOL    HW3 8623   4.012   1.915   3.335
 2148SOL    MW4 8624   4.004   1.927   3.421
 2149SOL     OW 8625   4.243   2.062   3.477
 2149SOL    HW2 8626   4.236   2.142   3.425
 2149SOL    HW3 8627   4.325   2.022   3.449
 2149SOL    MW4 8628   4.253   2.067   3.466
 2150SOL     OW 8629   4.259   2.306   3.361
 2150SOL    HW2 8630   4.188   2.355   3.402
 2150SOL    HW3 8631   4.243   2.315   3.267
 2150SOL    MW4 8632   4.248   2.314   3.354
 2151SOL     OW 8633   4.032   2.417   3.500
 2151SOL    HW2 8634   4.014   2.411   3.594
 2151SOL    HW3 8635   4.023   2.510   3.480
 2151SOL    MW4 8636   4.028   2.428   3.510
 2152SOL     OW 8637   4.017   2.686   3.385
 2152SOL    HW2 8638   4.090   2.728   3.431
 2152SOL    HW3 8639   3.939   2.727   3.423
 2152SOL    MW4 8640   4.016   2.697   3.396
 2153SOL     OW 8641   4.214   2.831   3.520
 2153SOL    HW2 8642   4.227   2.860   3.610
 2153SOL    HW3 8643   4.298   2.792   3.495
 2153SOL    MW4 8644   4.227   2.830   3.529
 2154SOL     OW 8645   4.240   3.110   3.411
 2154SOL    HW2 8646   4.227   3.021   3.443
 2154SOL    HW3 8647   4.228   3.103   3.316
 2154SOL    MW4 8648   4.237   3.097   3.403
 2155SOL     OW 8649   4.035   3.274   3.530
 2155SOL    HW2 8650   4.049   3.364   3.502
 2155SOL    HW3 8651   4.099   3.223   3.480
 2155SOL    MW4 8652   4.045   3.279   3.520
 2156SOL     OW 8653   4.035   3.508   3.389
 2156SOL    HW2 8654   4.112   3.548   3.430
 2156SOL    HW3 8655   3.961   3.562   3.418
 2156SOL    MW4 8656   4.035   3.520   3.398
 2157SOL     OW 8657   4.276   3.610   3.509
 2157SOL    HW2 8658   4.267   3.606   3.604
 2157SOL    HW3 8659   4.249   3.699   3.486
 2157SOL    MW4 8660   4.271   3.621   3.519
 2158SOL     OW 8661   4.244   3.871   3.414
 2158SOL    HW2 8662   4.326   3.911   3.443
 2158SOL    HW3 8663   4.254   3.860   3.319
 2158SOL    MW4 8664   4.256   3.875   3.405
 2159SOL     OW 8665   4.014   3.993   3.528
 2159SOL    HW2 8666   4.088   3.946   3.490
 2159SOL    HW3 8667   3.938   3.958   3.482
 2159SOL    MW4 8668   4.014   3.982   3.517
 2160SOL     OW 8669   4.034   4.230   3.372
 2160SOL    HW2 8670   4.044   4.156   3.432
 2160SOL    HW3 8671   3.963   4.282   3.410
 2160SOL    MW4 8672   4.026   4.227   3.385
 2161SOL     OW 8673   4.256   4.387   3.484
 2161SOL    HW2 8674   4.259   4.388   3.580
 2161SOL    HW3 8675   4.180   4.333   3.463
 2161SOL    MW4 8676   4.246   4.380   3.494
 2162SOL     OW 8677   0.194   4.626   3.874
 2162SOL    HW2 8678   0.176   4.639   3.967
 2162SOL    HW3 8679   0.119   4.665   3.829
 2162SOL    MW4 8680   0.182   4.633   3.880
 2163SOL     OW 8681   4.456   0.066   3.770
 2163SOL    HW2 8682   4.460   0.156   3.803
 2163SOL    HW3 8683   4.484   0.072   3.679
 2163SOL    MW4 8684   4.460   0.079   3.762
 2164SOL     OW 8685   0.033   0.332   3.890
 2164SOL    HW2 8686  -0.050   0.372   3.863
 2164SOL    HW3 8687   0.101   0.388   3.852
 2164SOL    MW4 8688   0.031   0.345   3.881
 2165SOL     OW 8689   0.231   0.479   3.750
 2165SOL    HW2 8690   0.232   0.568   3.785
 2165SOL    HW3 8691   0.209   0.490   3.658
 2165SOL    MW4 8692   0.228   0.492   3.742
 2166SOL     OW 8693   0.179   0.750   3.818
 2166SOL    HW2 8694   0.171   0.737   3.912
 2166SOL    HW3 8695   0.103   0.803   3.794
 2166SOL    MW4 8696   0.168   0.755   3.827
 2167SOL     OW 8697   4.448   0.891   3.752
 2167SOL    HW2 8698   4.385   0.840   3.803
 2167SOL    HW3 8699   4.432   0.982   3.778
 2167SOL    MW4 8700   4.437   0.896   3.762
 2168SOL     OW 8701   4.393   1.146   3.857
 2168SOL    HW2 8702   4.318   1.198   3.829
 2168SOL    HW3 8703   4.468   1.185   3.811
 2168SOL    MW4 8704   4.393   1.158   3.847
 2169SOL     OW 8705   0.146   1.232   3.740
 2169SOL    HW2 8706   0.167   1.319   3.775
 2169SOL    HW3 8707   0.159   1.240   3.646
 2169SOL    MW4 8708   0.151   1.244   3.732
 2170SOL     OW 8709   0.210   1.477   3.818
 2170SOL    HW2 8710   0.217   1.498   3.911
 2170SOL    HW3 8711   0.144   1.537   3.784
 2170SOL    MW4 8712   0.202   1.488   3.826
 2171SOL     OW 8713   0.035   1.677   3.720
 2171SOL    HW2 8714   0.008   1.756   3.767
 2171SOL    HW3 8715   0.016   1.696   3.628
 2171SOL    MW4 8716   0.029   1.690   3.714
 2172SOL     OW 8717   4.435   1.909   3.859
 2172SOL    HW2 8718   4.417   1.913   3.953
 2172SOL    HW3 8719   4.366   1.963   3.819
 2172SOL    MW4 8720   4.424   1.917   3.866
 2173SOL     OW 8721   0.193   2.033   3.812
 2173SOL    HW2 8722   0.178   2.128   3.812
 2173SOL    HW3 8723   0.113   1.996   3.849
 2173SOL    MW4 8724   0.180   2.041   3.817
 2174SOL     OW 8725   0.208   2.323   3.860
 2174SOL    HW2 8726   0.199   2.322   3.955
 2174SOL    HW3 8727   0.131   2.371   3.830
 2174SOL    MW4 8728   0.197   2.329   3.869
 2175SOL     OW 8729   4.478   2.458   3.717
 2175SOL    HW2 8730   4.415   2.419   3.777
 2175SOL    HW3 8731   4.476   2.551   3.738
 2175SOL    MW4 8732   4.469   2.465   3.728
 2176SOL     OW 8733   4.466   2.715   3.837
 2176SOL    HW2 8734   4.472   2.689   3.929
 2176SOL    HW3 8735   4.537   2.778   3.825
 2176SOL    MW4 8736   4.476   2.720   3.848
 2177SOL     OW 8737   0.208   2.874   3.778
 2177SOL    HW2 8738   0.274   2.819   3.819
 2177SOL    HW3 8739   0.213   2.853   3.685
 2177SOL    MW4 8740   0.217   2.864   3.771
 2178SOL     OW 8741   0.221   3.124   3.901
 2178SOL    HW2 8742   0.214   3.123   3.996
 2178SOL    HW3 8743   0.213   3.032   3.875
 2178SOL    MW4 8744   0.219   3.112   3.910
 2179SOL     OW 8745   4.456   3.215   3.823
 2179SOL    HW2 8746   4.545   3.187   3.844
 2179SOL    HW3 8747   4.459   3.235   3.729
 2179SOL    MW4 8748   4.468   3.214   3.813
 2180SOL     OW 8749   4.463   3.495   3.896
 2180SOL    HW2 8750   4.546   3.527   3.861
 2180SOL    HW3 8751   4.470   3.400   3.892
 2180SOL    MW4 8752   4.475   3.487   3.891
 2181SOL     OW 8753   0.203   3.610   3.776
 2181SOL    HW2 8754   0.289   3.576   3.801
 2181SOL    HW3 8755   0.202   3.700   3.810
 2181SOL    MW4 8756   0.214   3.617   3.784
 2182SOL     OW 8757   0.195   3.868   3.883
 2182SOL    HW2 8758   0.198   3.857   3.978
 2182SOL    HW3 8759   0.280   3.907   3.861
 2182SOL    MW4 8760   0.207   3.872   3.893
 2183SOL     OW 8761   4.458   4.026   3.805
 2183SOL    HW2 8762   4.387   3.970   3.837
 2183SOL    HW3 8763   4.538   3.977   3.825
 2183SOL    MW4 8764   4.459   4.012   3.812
 2184SOL     OW 8765   4.449   4.278   3.925
 2184SOL    HW2 8766   4.537   4.305   3.897
 2184SOL    HW3 8767   4.450   4.182   3.920
 2184SOL    MW4 8768   4.461   4.269   3.921
 2185SOL     OW 8769   0.207   4.352   3.820
 2185SOL    HW2 8770   0.287   4.317   3.859
 2185SOL    HW3 8771   0.213   4.447   3.834
 2185SOL    MW4 8772   0.218   4.360   3.827
 2186SOL     OW 8773   0.649   4.644   3.856
 2186SOL    HW2 8774   0.634   4.552   3.834
 2186SOL    HW3 8775   0.565   4.687   3.839
 2186SOL    MW4 8776   0.636   4.637   3.851
 2187SOL     OW 8777   0.401   0.099   3.778
 2187SOL    HW2 8778   0.409   0.186   3.816
 2187SOL    HW3 8779   0.324   0.061   3.821
 2187SOL    MW4 8780   0.392   0.106   3.789
 2188SOL     OW 8781   0.440   0.353   3.880
 2188SOL    HW2 8782   0.523   0.399   3.867
 2188SOL    HW3 8783   0.378   0.399   3.824
 2188SOL    MW4 8784   0.443   0.365   3.871
 2189SOL     OW 8785   0.670   0.496   3.791
 2189SOL    HW2 8786   0.741   0.446   3.831
 2189SOL    HW3 8787   0.666   0.577   3.843
 2189SOL    MW4 8788   0.679   0.500   3.803
 2190SOL     OW 8789   0.627   0.733   3.926
 2190SOL    HW2 8790   0.711   0.773   3.905
 2190SOL    HW3 8791   0.563   0.786   3.878
 2190SOL    MW4 8792   0.630   0.745   3.917
 2191SOL     OW 8793   0.410   0.868   3.766
 2191SOL    HW2 8794   0.404   0.957   3.800
 2191SOL    HW3 8795   0.326   0.828   3.787
 2191SOL    MW4 8796   0.398   0.874   3.773
 2192SOL     OW 8797   0.408   1.166   3.832
 2192SOL    HW2 8798   0.487   1.215   3.809
 2192SOL    HW3 8799   0.336   1.221   3.801
 2192SOL    MW4 8800   0.409   1.180   3.825
 2193SOL     OW 8801   0.661   1.290   3.757
 2193SOL    HW2 8802   0.743   1.244   3.773
 2193SOL    HW3 8803   0.654   1.296   3.662
 2193SOL    MW4 8804   0.671   1.285   3.747
 2194SOL     OW 8805   0.653   1.530   3.874
 2194SOL    HW2 8806   0.729   1.578   3.841
 2194SOL    HW3 8807   0.655   1.446   3.828
 2194SOL    MW4 8808   0.663   1.525   3.864
 2195SOL     OW 8809   0.415   1.658   3.743
 2195SOL    HW2 8810   0.494   1.620   3.780
 2195SOL    HW3 8811   0.344   1.600   3.773
 2195SOL    MW4 8812   0.416   1.645   3.752
 2196SOL     OW 8813   0.412   1.895   3.914
 2196SOL    HW2 8814   0.401   1.810   3.872
 2196SOL    HW3 8815   0.331   1.942   3.894
 2196SOL    MW4 8816   0.400   1.890   3.906
 2197SOL     OW 8817   0.639   2.038   3.790
 2197SOL    HW2 8818   0.637   2.131   3.813
 2197SOL    HW3 8819   0.560   2.002   3.830
 2197SOL    MW4 8820   0.628   2.046   3.798
 2198SOL     OW 8821   0.648   2.313   3.840
 2198SOL    HW2 8822   0.734   2.352   3.824
 2198SOL    HW3 8823   0.586   2.381   3.816
 2198SOL    MW4 8824   0.651   2.327   3.835
 2199SOL     OW 8825   0.432   2.488   3.757
 2199SOL    HW2 8826   0.353   2.443   3.788
 2199SOL    HW3 8827   0.443   2.458   3.667
 2199SOL    MW4 8828   0.423   2.478   3.749
 2200SOL     OW 8829   0.418   2.728   3.869
 2200SOL    HW2 8830   0.497   2.771   3.835
 2200SOL    HW3 8831   0.424   2.638   3.838
 2200SOL    MW4 8832   0.429   2.722   3.860
 2201SOL     OW 8833   0.653   2.828   3.762
 2201SOL    HW2 8834   0.736   2.787   3.785
 2201SOL    HW3 8835   0.658   2.840   3.667
 2201SOL    MW4 8836   0.665   2.824   3.753
 2202SOL     OW 8837   0.655   3.095   3.881
 2202SOL    HW2 8838   0.656   3.092   3.977
 2202SOL    HW3 8839   0.662   3.003   3.854
 2202SOL    MW4 8840   0.656   3.083   3.890
 2203SOL     OW 8841   0.437   3.220   3.749
 2203SOL    HW2 8842   0.503   3.174   3.801
 2203SOL    HW3 8843   0.354   3.196   3.789
 2203SOL    MW4 8844   0.435   3.211   3.761
 2204SOL     OW 8845   0.439   3.490   3.845
 2204SOL    HW2 8846   0.519   3.529   3.811
 2204SOL    HW3 8847   0.442   3.399   3.817
 2204SOL    MW4 8848   0.450   3.483   3.837
 2205SOL     OW 8849   0.672   3.586   3.749
 2205SOL    HW2 8850   0.672   3.672   3.790
 2205SOL    HW3 8851   0.683   3.604   3.656
 2205SOL    MW4 8852   0.673   3.600   3.742
 2206SOL     OW 8853   0.620   3.822   3.871
 2206SOL    HW2 8854   0.626   3.826   3.966
 2206SOL    HW3 8855   0.690   3.879   3.840
 2206SOL    MW4 8856   0.630   3.830   3.879
 2207SOL     OW 8857   0.432   4.005   3.796
 2207SOL    HW2 8858   0.498   3.945   3.831
 2207SOL    HW3 8859   0.446   4.004   3.701
 2207SOL    MW4 8860   0.443   3.997   3.788
 2208SOL     OW 8861   0.434   4.247   3.930
 2208SOL    HW2 8862   0.492   4.285   3.864
 2208SOL    HW3 8863   0.420   4.157   3.900
 2208SOL    MW4 8864   0.440   4.240   3.917
 2209SOL     OW 8865   0.637   4.362   3.793
 2209SOL    HW2 8866   0.705   4.301   3.820
 2209SOL    HW3 8867   0.653   4.377   3.700
 2209SOL    MW4 8868   0.648   4.356   3.784
 2210SOL     OW 8869   1.137   4.661   3.897
 2210SOL    HW2 8870   1.211   4.689   3.842
 2210SOL    HW3 8871   1.129   4.567   3.880
 2210SOL    MW4 8872   1.146   4.652   3.888
 2211SOL     OW 8873   0.910   0.110   3.783
 2211SOL    HW2 8874   0.979   0.059   3.826
 2211SOL    HW3 8875   0.834   0.052   3.783
 2211SOL    MW4 8876   0.909   0.096   3.789
 2212SOL     OW 8877   0.876   0.367   3.911
 2212SOL    HW2 8878   0.850   0.360   4.003
 2212SOL    HW3 8879   0.881   0.276   3.881
 2212SOL    MW4 8880   0.873   0.354   3.919
 2213SOL     OW 8881   1.114   0.480   3.774
 2213SOL    HW2 8882   1.190   0.429   3.803
 2213SOL    HW3 8883   1.039   0.432   3.809
 2213SOL    MW4 8884   1.114   0.467   3.782
 2214SOL     OW 8885   1.114   0.762   3.883
 2214SOL    HW2 8886   1.112   0.774   3.978
 2214SOL    HW3 8887   1.123   0.668   3.870
 2214SOL    MW4 8888   1.115   0.751   3.894
 2215SOL     OW 8889   0.869   0.867   3.807
 2215SOL    HW2 8890   0.945   0.816   3.835
 2215SOL    HW3 8891   0.875   0.867   3.711
 2215SOL    MW4 8892   0.880   0.860   3.798
 2216SOL     OW 8893   0.880   1.133   3.845
 2216SOL    HW2 8894   0.864   1.141   3.939
 2216SOL    HW3 8895   0.870   1.040   3.826
 2216SOL    MW4 8896   0.877   1.122   3.855
 2217SOL     OW 8897   1.142   1.262   3.755
 2217SOL    HW2 8898   1.126   1.356   3.752
 2217SOL    HW3 8899   1.058   1.225   3.782
 2217SOL    MW4 8900   1.129   1.270   3.758
 2218SOL     OW 8901   1.097   1.526   3.837
 2218SOL    HW2 8902   1.105   1.525   3.932
 2218SOL    HW3 8903   1.171   1.579   3.807
 2218SOL    MW4 8904   1.108   1.533   3.846
 2219SOL     OW 8905   0.871   1.653   3.779
 2219SOL    HW2 8906   0.944   1.601   3.812
 2219SOL    HW3 8907   0.873   1.640   3.684
 2219SOL    MW4 8908   0.881   1.644   3.771
 2220SOL     OW 8909   0.870   1.913   3.875
 2220SOL    HW2 8910   0.863   1.824   3.840
 2220SOL    HW3 8911   0.800   1.961   3.831
 2220SOL    MW4 8912   0.860   1.908   3.865
 2221SOL     OW 8913   1.079   2.046   3.768
 2221SOL    HW2 8914   1.003   1.999   3.801
 2221SOL    HW3 8915   1.073   2.039   3.673
 2221SOL    MW4 8916   1.068   2.039   3.760
 2222SOL     OW 8917   1.130   2.291   3.905
 2222SOL    HW2 8918   1.104   2.276   3.996
 2222SOL    HW3 8919   1.129   2.204   3.866
 2222SOL    MW4 8920   1.126   2.278   3.912
 2223SOL     OW 8921   0.890   2.402   3.765
 2223SOL    HW2 8922   0.918   2.493   3.777
 2223SOL    HW3 8923   0.954   2.351   3.815
 2223SOL    MW4 8924   0.902   2.407   3.773
 2224SOL     OW 8925   0.897   2.692   3.811
 2224SOL    HW2 8926   0.920   2.684   3.903
 2224SOL    HW3 8927   0.970   2.741   3.772
 2224SOL    MW4 8928   0.910   2.697   3.818
 2225SOL     OW 8929   1.123   2.826   3.729
 2225SOL    HW2 8930   1.201   2.782   3.763
 2225SOL    HW3 8931   1.113   2.903   3.784
 2225SOL    MW4 8932   1.132   2.830   3.741
 2226SOL     OW 8933   1.109   3.070   3.862
 2226SOL    HW2 8934   1.179   3.131   3.840
 2226SOL    HW3 8935   1.030   3.111   3.828
 2226SOL    MW4 8936   1.108   3.083   3.855
 2227SOL     OW 8937   0.876   3.209   3.762
 2227SOL    HW2 8938   0.794   3.162   3.777
 2227SOL    HW3 8939   0.890   3.205   3.667
 2227SOL    MW4 8940   0.867   3.202   3.751
 2228SOL     OW 8941   0.900   3.475   3.877
 2228SOL    HW2 8942   0.904   3.384   3.846
 2228SOL    HW3 8943   0.821   3.510   3.835
 2228SOL    MW4 8944   0.890   3.468   3.867
 2229SOL     OW 8945   1.122   3.611   3.767
 2229SOL    HW2 8946   1.102   3.704   3.781
 2229SOL    HW3 8947   1.052   3.565   3.813
 2229SOL    MW4 8948   1.110   3.617   3.775
 2230SOL     OW 8949   1.073   3.875   3.825
 2230SOL    HW2 8950   1.057   3.876   3.919
 2230SOL    HW3 8951   1.157   3.920   3.814
 2230SOL    MW4 8952   1.082   3.881   3.836
 2231SOL     OW 8953   0.816   3.997   3.780
 2231SOL    HW2 8954   0.892   3.947   3.810
 2231SOL    HW3 8955   0.835   4.017   3.688
 2231SOL    MW4 8956   0.828   3.993   3.772
 2232SOL     OW 8957   0.874   4.251   3.893
 2232SOL    HW2 8958   0.851   4.247   3.986
 2232SOL    HW3 8959   0.866   4.161   3.862
 2232SOL    MW4 8960   0.870   4.239   3.901
 2233SOL     OW 8961   1.098   4.407   3.825
 2233SOL    HW2 8962   1.017   4.360   3.845
 2233SOL    HW3 8963   1.110   4.396   3.731
 2233SOL    MW4 8964   1.089   4.399   3.815
 2234SOL     OW 8965   1.559   4.650   3.907
 2234SOL    HW2 8966   1.555   4.656   4.002
 2234SOL    HW3 8967   1.569   4.556   3.890
 2234SOL    MW4 8968   1.560   4.639   3.917
 2235SOL     OW 8969   1.359   0.114   3.773
 2235SOL    HW2 8970   1.368   0.199   3.816
 2235SOL    HW3 8971   1.426   0.059   3.813
 2235SOL    MW4 8972   1.369   0.118   3.784
 2236SOL     OW 8973   1.357   0.369   3.871
 2236SOL    HW2 8974   1.351   0.376   3.966
 2236SOL    HW3 8975   1.442   0.406   3.849
 2236SOL    MW4 8976   1.367   0.375   3.881
 2237SOL     OW 8977   1.573   0.499   3.767
 2237SOL    HW2 8978   1.657   0.497   3.813
 2237SOL    HW3 8979   1.543   0.590   3.774
 2237SOL    MW4 8980   1.580   0.511   3.774
 2238SOL     OW 8981   1.539   0.763   3.813
 2238SOL    HW2 8982   1.609   0.828   3.822
 2238SOL    HW3 8983   1.469   0.809   3.768
 2238SOL    MW4 8984   1.539   0.778   3.808
 2239SOL     OW 8985   1.322   0.902   3.712
 2239SOL    HW2 8986   1.342   0.982   3.760
 2239SOL    HW3 8987   1.253   0.859   3.763
 2239SOL    MW4 8988   1.316   0.907   3.725
 2240SOL     OW 8989   1.356   1.131   3.861
 2240SOL    HW2 8990   1.423   1.179   3.813
 2240SOL    HW3 8991   1.273   1.158   3.821
 2240SOL    MW4 8992   1.354   1.141   3.849
 2241SOL     OW 8993   1.577   1.265   3.733
 2241SOL    HW2 8994   1.646   1.237   3.793
 2241SOL    HW3 8995   1.554   1.353   3.763
 2241SOL    MW4 8996   1.583   1.273   3.745
 2242SOL     OW 8997   1.518   1.509   3.839
 2242SOL    HW2 8998   1.508   1.505   3.934
 2242SOL    HW3 8999   1.610   1.534   3.826
 2242SOL    MW4 9000   1.529   1.512   3.850
 2243SOL     OW 9001   1.322   1.686   3.742
 2243SOL    HW2 9002   1.324   1.773   3.783
 2243SOL    HW3 9003   1.395   1.639   3.781
 2243SOL    MW4 9004   1.332   1.691   3.753
 2244SOL     OW 9005   1.313   1.952   3.891
 2244SOL    HW2 9006   1.292   1.929   3.981
 2244SOL    HW3 9007   1.230   1.983   3.854
 2244SOL    MW4 9008   1.299   1.953   3.898
 2245SOL     OW 9009   1.557   2.020   3.788
 2245SOL    HW2 9010   1.470   2.001   3.823
 2245SOL    HW3 9011   1.546   2.019   3.693
 2245SOL    MW4 9012   1.544   2.017   3.780
 2246SOL     OW 9013   1.554   2.298   3.876
 2246SOL    HW2 9014   1.631   2.346   3.847
 2246SOL    HW3 9015   1.566   2.209   3.842
 2246SOL    MW4 9016   1.566   2.293   3.868
 2247SOL     OW 9017   1.325   2.444   3.776
 2247SOL    HW2 9018   1.399   2.390   3.804
 2247SOL    HW3 9019   1.250   2.406   3.822
 2247SOL    MW4 9020   1.325   2.432   3.786
 2248SOL     OW 9021   1.366   2.711   3.846
 2248SOL    HW2 9022   1.375   2.727   3.940
 2248SOL    HW3 9023   1.354   2.616   3.839
 2248SOL    MW4 9024   1.366   2.701   3.857
 2249SOL     OW 9025   1.590   2.854   3.746
 2249SOL    HW2 9026   1.516   2.813   3.792
 2249SOL    HW3 9027   1.590   2.814   3.659
 2249SOL    MW4 9028   1.580   2.843   3.741
 2250SOL     OW 9029   1.560   3.102   3.863
 2250SOL    HW2 9030   1.589   3.075   3.950
 2250SOL    HW3 9031   1.582   3.027   3.807
 2250SOL    MW4 9032   1.567   3.089   3.867
 2251SOL     OW 9033   1.315   3.229   3.823
 2251SOL    HW2 9034   1.321   3.320   3.854
 2251SOL    HW3 9035   1.383   3.183   3.873
 2251SOL    MW4 9036   1.325   3.235   3.834
 2252SOL     OW 9037   1.346   3.526   3.899
 2252SOL    HW2 9038   1.428   3.564   3.867
 2252SOL    HW3 9039   1.279   3.563   3.842
 2252SOL    MW4 9040   1.348   3.536   3.887
 2253SOL     OW 9041   1.585   3.647   3.790
 2253SOL    HW2 9042   1.641   3.596   3.848
 2253SOL    HW3 9043   1.572   3.730   3.837
 2253SOL    MW4 9044   1.591   3.651   3.804
 2254SOL     OW 9045   1.546   3.889   3.906
 2254SOL    HW2 9046   1.515   3.850   3.987
 2254SOL    HW3 9047   1.467   3.920   3.862
 2254SOL    MW4 9048   1.531   3.888   3.911
 2255SOL     OW 9049   1.315   3.996   3.765
 2255SOL    HW2 9050   1.325   4.088   3.789
 2255SOL    HW3 9051   1.329   3.995   3.670
 2255SOL    MW4 9052   1.318   4.008   3.756
 2256SOL     OW 9053   1.319   4.238   3.866
 2256SOL    HW2 9054   1.397   4.291   3.851
 2256SOL    HW3 9055   1.246   4.299   3.852
 2256SOL    MW4 9056   1.320   4.253   3.862
 2257SOL     OW 9057   1.545   4.379   3.819
 2257SOL    HW2 9058   1.610   4.311   3.837
 2257SOL    HW3 9059   1.558   4.400   3.726
 2257SOL    MW4 9060   1.555   4.373   3.809
 2258SOL     OW 9061   2.010   4.644   3.901
 2258SOL    HW2 9062   2.099   4.676   3.888
 2258SOL    HW3 9063   2.008   4.559   3.857
 2258SOL    MW4 9064   2.022   4.637   3.893
 2259SOL     OW 9065   1.771   0.111   3.790
 2259SOL    HW2 9066   1.852   0.068   3.817
 2259SOL    HW3 9067   1.702   0.062   3.835
 2259SOL    MW4 9068   1.773   0.099   3.799
 2260SOL     OW 9069   1.817   0.388   3.846
 2260SOL    HW2 9070   1.822   0.380   3.941
 2260SOL    HW3 9071   1.801   0.299   3.816
 2260SOL    MW4 9072   1.816   0.375   3.855
 2261SOL     OW 9073   2.030   0.541   3.790
 2261SOL    HW2 9074   1.949   0.498   3.817
 2261SOL    HW3 9075   2.028   0.539   3.694
 2261SOL    MW4 9076   2.019   0.535   3.781
 2262SOL     OW 9077   2.022   0.836   3.892
 2262SOL    HW2 9078   2.014   0.806   3.982
 2262SOL    HW3 9079   2.027   0.756   3.840
 2262SOL    MW4 9080   2.022   0.821   3.897
 2263SOL     OW 9081   1.769   0.906   3.815
 2263SOL    HW2 9082   1.854   0.879   3.850
 2263SOL    HW3 9083   1.776   0.890   3.721
 2263SOL    MW4 9084   1.781   0.900   3.807
 2264SOL     OW 9085   1.793   1.160   3.856
 2264SOL    HW2 9086   1.799   1.159   3.952
 2264SOL    HW3 9087   1.783   1.068   3.831
 2264SOL    MW4 9088   1.792   1.148   3.865
 2265SOL     OW 9089   2.037   1.294   3.780
 2265SOL    HW2 9090   2.105   1.230   3.803
 2265SOL    HW3 9091   1.955   1.248   3.797
 2265SOL    MW4 9092   2.035   1.280   3.785
 2266SOL     OW 9093   2.044   1.549   3.903
 2266SOL    HW2 9094   1.955   1.575   3.881
 2266SOL    HW3 9095   2.057   1.466   3.857
 2266SOL    MW4 9096   2.034   1.541   3.894
 2267SOL     OW 9097   1.773   1.585   3.799
 2267SOL    HW2 9098   1.771   1.676   3.828
 2267SOL    HW3 9099   1.804   1.589   3.709
 2267SOL    MW4 9100   1.777   1.598   3.791
 2268SOL     OW 9101   1.770   1.854   3.861
 2268SOL    HW2 9102   1.782   1.865   3.955
 2268SOL    HW3 9103   1.688   1.899   3.842
 2268SOL    MW4 9104   1.761   1.861   3.871
 2269SOL     OW 9105   1.977   2.026   3.794
 2269SOL    HW2 9106   1.906   1.962   3.793
 2269SOL    HW3 9107   2.008   2.028   3.704
 2269SOL    MW4 9108   1.972   2.018   3.782
 2270SOL     OW 9109   2.018   2.288   3.896
 2270SOL    HW2 9110   1.941   2.335   3.864
 2270SOL    HW3 9111   2.011   2.201   3.856
 2270SOL    MW4 9112   2.007   2.283   3.887
 2271SOL     OW 9113   1.799   2.426   3.802
 2271SOL    HW2 9114   1.791   2.518   3.826
 2271SOL    HW3 9115   1.810   2.427   3.707
 2271SOL    MW4 9116   1.799   2.438   3.793
 2272SOL     OW 9117   1.802   2.719   3.872
 2272SOL    HW2 9118   1.807   2.752   3.962
 2272SOL    HW3 9119   1.734   2.772   3.831
 2272SOL    MW4 9120   1.794   2.730   3.878
 2273SOL     OW 9121   2.033   2.873   3.797
 2273SOL    HW2 9122   2.114   2.833   3.827
 2273SOL    HW3 9123   1.964   2.820   3.837
 2273SOL    MW4 9124   2.035   2.861   3.806
 2274SOL     OW 9125   2.008   3.152   3.882
 2274SOL    HW2 9126   2.025   3.064   3.849
 2274SOL    HW3 9127   2.088   3.201   3.863
 2274SOL    MW4 9128   2.021   3.147   3.875
 2275SOL     OW 9129   1.763   3.246   3.786
 2275SOL    HW2 9130   1.839   3.193   3.809
 2275SOL    HW3 9131   1.688   3.194   3.815
 2275SOL    MW4 9132   1.763   3.232   3.793
 2276SOL     OW 9133   1.760   3.487   3.937
 2276SOL    HW2 9134   1.833   3.532   3.894
 2276SOL    HW3 9135   1.755   3.401   3.894
 2276SOL    MW4 9136   1.769   3.482   3.926
 2277SOL     OW 9137   1.968   3.590   3.755
 2277SOL    HW2 9138   2.045   3.547   3.792
 2277SOL    HW3 9139   1.989   3.599   3.662
 2277SOL    MW4 9140   1.981   3.586   3.748
 2278SOL     OW 9141   1.993   3.861   3.835
 2278SOL    HW2 9142   2.078   3.900   3.817
 2278SOL    HW3 9143   2.003   3.769   3.811
 2278SOL    MW4 9144   2.006   3.854   3.829
 2279SOL     OW 9145   1.754   3.991   3.748
 2279SOL    HW2 9146   1.830   3.936   3.768
 2279SOL    HW3 9147   1.688   3.965   3.812
 2279SOL    MW4 9148   1.755   3.980   3.759
 2280SOL     OW 9149   1.768   4.219   3.895
 2280SOL    HW2 9150   1.836   4.277   3.861
 2280SOL    HW3 9151   1.771   4.142   3.838
 2280SOL    MW4 9152   1.777   4.217   3.883
 2281SOL     OW 9153   1.960   4.382   3.794
 2281SOL    HW2 9154   2.042   4.357   3.836
 2281SOL    HW3 9155   1.977   4.373   3.700
 2281SOL    MW4 9156   1.973   4.377   3.787
 2282SOL     OW 9157   2.526   4.618   3.867
 2282SOL    HW2 9158   2.512   4.618   3.962
 2282SOL    HW3 9159   2.601   4.676   3.854
 2282SOL    MW4 9160   2.534   4.626   3.878
 2283SOL     OW 9161   2.266   0.069   3.838
 2283SOL    HW2 9162   2.358   0.041   3.838
 2283SOL    HW3 9163   2.245   0.082   3.746
 2283SOL    MW4 9164   2.275   0.067   3.826
 2284SOL     OW 9165   2.250   0.375   3.891
 2284SOL    HW2 9166   2.242   0.282   3.869
 2284SOL    HW3 9167   2.183   0.418   3.839
 2284SOL    MW4 9168   2.240   0.368   3.881
 2285SOL     OW 9169   2.486   0.494   3.786
 2285SOL    HW2 9170   2.410   0.451   3.825
 2285SOL    HW3 9171   2.471   0.488   3.692
 2285SOL    MW4 9172   2.474   0.488   3.779
 2286SOL     OW 9173   2.497   0.760   3.902
 2286SOL    HW2 9174   2.411   0.795   3.879
 2286SOL    HW3 9175   2.497   0.672   3.865
 2286SOL    MW4 9176   2.486   0.753   3.894
 2287SOL     OW 9177   2.273   0.884   3.813
 2287SOL    HW2 9178   2.190   0.868   3.858
 2287SOL    HW3 9179   2.250   0.888   3.720
 2287SOL    MW4 9180   2.259   0.882   3.807
 2288SOL     OW 9181   2.264   1.146   3.887
 2288SOL    HW2 9182   2.263   1.148   3.983
 2288SOL    HW3 9183   2.272   1.053   3.865
 2288SOL    MW4 9184   2.265   1.134   3.897
 2289SOL     OW 9185   2.489   1.270   3.783
 2289SOL    HW2 9186   2.482   1.362   3.807
 2289SOL    HW3 9187   2.407   1.231   3.814
 2289SOL    MW4 9188   2.477   1.277   3.790
 2290SOL     OW 9189   2.453   1.528   3.875
 2290SOL    HW2 9190   2.528   1.580   3.847
 2290SOL    HW3 9191   2.377   1.574   3.840
 2290SOL    MW4 9192   2.453   1.541   3.867
 2291SOL     OW 9193   2.240   1.677   3.787
 2291SOL    HW2 9194   2.239   1.765   3.823
 2291SOL    HW3 9195   2.167   1.632   3.830
 2291SOL    MW4 9196   2.230   1.683   3.797
 2292SOL     OW 9197   2.258   1.933   3.879
 2292SOL    HW2 9198   2.281   1.913   3.970
 2292SOL    HW3 9199   2.179   1.986   3.886
 2292SOL    MW4 9200   2.251   1.937   3.892
 2293SOL     OW 9201   2.487   2.057   3.780
 2293SOL    HW2 9202   2.485   2.146   3.814
 2293SOL    HW3 9203   2.412   2.014   3.821
 2293SOL    MW4 9204   2.477   2.063   3.790
 2294SOL     OW 9205   2.484   2.306   3.888
 2294SOL    HW2 9206   2.565   2.349   3.859
 2294SOL    HW3 9207   2.414   2.358   3.849
 2294SOL    MW4 9208   2.485   2.319   3.879
 2295SOL     OW 9209   2.255   2.430   3.803
 2295SOL    HW2 9210   2.168   2.401   3.830
 2295SOL    HW3 9211   2.255   2.419   3.708
 2295SOL    MW4 9212   2.244   2.425   3.794
 2296SOL     OW 9213   2.256   2.711   3.894
 2296SOL    HW2 9214   2.225   2.717   3.984
 2296SOL    HW3 9215   2.262   2.617   3.877
 2296SOL    MW4 9216   2.253   2.699   3.904
 2297SOL     OW 9217   2.504   2.836   3.790
 2297SOL    HW2 9218   2.440   2.784   3.839
 2297SOL    HW3 9219   2.480   2.823   3.698
 2297SOL    MW4 9220   2.492   2.827   3.784
 2298SOL     OW 9221   2.451   3.092   3.870
 2298SOL    HW2 9222   2.438   3.080   3.964
 2298SOL    HW3 9223   2.458   3.003   3.836
 2298SOL    MW4 9224   2.450   3.079   3.878
 2299SOL     OW 9225   2.237   3.242   3.778
 2299SOL    HW2 9226   2.238   3.323   3.829
 2299SOL    HW3 9227   2.303   3.187   3.820
 2299SOL    MW4 9228   2.246   3.245   3.790
 2300SOL     OW 9229   2.229   3.490   3.897
 2300SOL    HW2 9230   2.217   3.492   3.992
 2300SOL    HW3 9231   2.304   3.546   3.880
 2300SOL    MW4 9232   2.237   3.498   3.907
 2301SOL     OW 9233   2.463   3.626   3.818
 2301SOL    HW2 9234   2.523   3.568   3.865
 2301SOL    HW3 9235   2.474   3.601   3.726
 2301SOL    MW4 9236   2.472   3.615   3.812
 2302SOL     OW 9237   2.466   3.896   3.879
 2302SOL    HW2 9238   2.541   3.927   3.828
 2302SOL    HW3 9239   2.475   3.801   3.879
 2302SOL    MW4 9240   2.477   3.888   3.872
 2303SOL     OW 9241   2.236   3.991   3.779
 2303SOL    HW2 9242   2.326   3.971   3.805
 2303SOL    HW3 9243   2.238   3.991   3.683
 2303SOL    MW4 9244   2.248   3.988   3.770
 2304SOL     OW 9245   2.186   4.271   3.893
 2304SOL    HW2 9246   2.168   4.269   3.987
 2304SOL    HW3 9247   2.203   4.180   3.870
 2304SOL    MW4 9248   2.186   4.259   3.902
 2305SOL     OW 9249   2.458   4.354   3.798
 2305SOL    HW2 9250   2.376   4.327   3.839
 2305SOL    HW3 9251   2.476   4.441   3.835
 2305SOL    MW4 9252   2.450   4.362   3.808
 2306SOL     OW 9253   2.918   4.622   3.875
 2306SOL    HW2 9254   2.914   4.610   3.970
 2306SOL    HW3 9255   3.003   4.663   3.860
 2306SOL    MW4 9256   2.929   4.626   3.886
 2307SOL     OW 9257   2.720   0.137   3.809
 2307SOL    HW2 9258   2.799   0.088   3.832
 2307SOL    HW3 9259   2.708   0.120   3.715
 2307SOL    MW4 9260   2.729   0.128   3.800
 2308SOL     OW 9261   2.697   0.388   3.936
 2308SOL    HW2 9262   2.694   0.298   3.905
 2308SOL    HW3 9263   2.616   0.428   3.904
 2308SOL    MW4 9264   2.686   0.381   3.928
 2309SOL     OW 9265   2.916   0.506   3.801
 2309SOL    HW2 9266   2.992   0.470   3.846
 2309SOL    HW3 9267   2.841   0.472   3.849
 2309SOL    MW4 9268   2.916   0.497   3.813
 2310SOL     OW 9269   2.922   0.753   3.921
 2310SOL    HW2 9270   3.002   0.796   3.890
 2310SOL    HW3 9271   2.923   0.668   3.878
 2310SOL    MW4 9272   2.933   0.747   3.911
 2311SOL     OW 9273   2.721   0.876   3.796
 2311SOL    HW2 9274   2.795   0.832   3.838
 2311SOL    HW3 9275   2.643   0.836   3.835
 2311SOL    MW4 9276   2.720   0.865   3.807
 2312SOL     OW 9277   2.694   1.136   3.892
 2312SOL    HW2 9278   2.703   1.047   3.857
 2312SOL    HW3 9279   2.614   1.170   3.852
 2312SOL    MW4 9280   2.685   1.129   3.882
 2313SOL     OW 9281   2.897   1.288   3.772
 2313SOL    HW2 9282   2.891   1.373   3.815
 2313SOL    HW3 9283   2.820   1.240   3.803
 2313SOL    MW4 9284   2.886   1.293   3.782
 2314SOL     OW 9285   2.893   1.520   3.906
 2314SOL    HW2 9286   2.884   1.506   4.000
 2314SOL    HW3 9287   2.977   1.566   3.897
 2314SOL    MW4 9288   2.903   1.524   3.917
 2315SOL     OW 9289   2.680   1.664   3.804
 2315SOL    HW2 9290   2.737   1.597   3.842
 2315SOL    HW3 9291   2.678   1.645   3.710
 2315SOL    MW4 9292   2.687   1.653   3.797
 2316SOL     OW 9293   2.721   1.929   3.891
 2316SOL    HW2 9294   2.716   1.838   3.862
 2316SOL    HW3 9295   2.655   1.974   3.839
 2316SOL    MW4 9296   2.712   1.923   3.880
 2317SOL     OW 9297   2.939   2.036   3.747
 2317SOL    HW2 9298   2.940   2.126   3.780
 2317SOL    HW3 9299   2.878   1.990   3.804
 2317SOL    MW4 9300   2.931   2.042   3.759
 2318SOL     OW 9301   2.956   2.276   3.866
 2318SOL    HW2 9302   2.954   2.297   3.959
 2318SOL    HW3 9303   3.030   2.326   3.832
 2318SOL    MW4 9304   2.966   2.285   3.874
 2319SOL     OW 9305   2.729   2.418   3.792
 2319SOL    HW2 9306   2.735   2.507   3.828
 2319SOL    HW3 9307   2.804   2.372   3.829
 2319SOL    MW4 9308   2.740   2.424   3.802
 2320SOL     OW 9309   2.731   2.681   3.869
 2320SOL    HW2 9310   2.729   2.684   3.965
 2320SOL    HW3 9311   2.648   2.722   3.843
 2320SOL    MW4 9312   2.720   2.687   3.878
 2321SOL     OW 9313   2.938   2.855   3.773
 2321SOL    HW2 9314   2.921   2.939   3.815
 2321SOL    HW3 9315   2.874   2.795   3.811
 2321SOL    MW4 9316   2.927   2.858   3.784
 2322SOL     OW 9317   2.902   3.090   3.937
 2322SOL    HW2 9318   2.975   3.136   3.896
 2322SOL    HW3 9319   2.824   3.133   3.901
 2322SOL    MW4 9320   2.901   3.102   3.927
 2323SOL     OW 9321   2.685   3.215   3.796
 2323SOL    HW2 9322   2.679   3.301   3.837
 2323SOL    HW3 9323   2.609   3.168   3.829
 2323SOL    MW4 9324   2.674   3.220   3.806
 2324SOL     OW 9325   2.650   3.470   3.922
 2324SOL    HW2 9326   2.672   3.485   4.014
 2324SOL    HW3 9327   2.721   3.511   3.873
 2324SOL    MW4 9328   2.662   3.477   3.928
 2325SOL     OW 9329   2.878   3.583   3.788
 2325SOL    HW2 9330   2.955   3.543   3.829
 2325SOL    HW3 9331   2.892   3.572   3.694
 2325SOL    MW4 9332   2.890   3.576   3.781
 2326SOL     OW 9333   2.907   3.853   3.888
 2326SOL    HW2 9334   2.920   3.845   3.983
 2326SOL    HW3 9335   2.878   3.766   3.861
 2326SOL    MW4 9336   2.905   3.840   3.897
 2327SOL     OW 9337   2.702   3.994   3.762
 2327SOL    HW2 9338   2.694   4.082   3.799
 2327SOL    HW3 9339   2.769   3.951   3.815
 2327SOL    MW4 9340   2.710   4.000   3.774
 2328SOL     OW 9341   2.704   4.268   3.892
 2328SOL    HW2 9342   2.770   4.325   3.854
 2328SOL    HW3 9343   2.623   4.291   3.846
 2328SOL    MW4 9344   2.702   4.279   3.881
 2329SOL     OW 9345   2.897   4.390   3.730
 2329SOL    HW2 9346   2.974   4.346   3.765
 2329SOL    HW3 9347   2.894   4.474   3.776
 2329SOL    MW4 9348   2.907   4.395   3.741
 2330SOL     OW 9349   3.367   4.646   3.872
 2330SOL    HW2 9350   3.375   4.641   3.967
 2330SOL    HW3 9351   3.451   4.683   3.843
 2330SOL    MW4 9352   3.379   4.650   3.881
 2331SOL     OW 9353   3.145   0.102   3.784
 2331SOL    HW2 9354   3.224   0.055   3.809
 2331SOL    HW3 9355   3.146   0.102   3.688
 2331SOL    MW4 9356   3.156   0.096   3.775
 2332SOL     OW 9357   3.146   0.351   3.876
 2332SOL    HW2 9358   3.140   0.341   3.971
 2332SOL    HW3 9359   3.141   0.262   3.842
 2332SOL    MW4 9360   3.145   0.338   3.884
 2333SOL     OW 9361   3.389   0.482   3.819
 2333SOL    HW2 9362   3.463   0.438   3.861
 2333SOL    HW3 9363   3.313   0.430   3.844
 2333SOL    MW4 9364   3.389   0.469   3.828
 2334SOL     OW 9365   3.366   0.754   3.863
 2334SOL    HW2 9366   3.367   0.756   3.959
 2334SOL    HW3 9367   3.391   0.664   3.840
 2334SOL    MW4 9368   3.369   0.742   3.873
 2335SOL     OW 9369   3.125   0.904   3.805
 2335SOL    HW2 9370   3.204   0.861   3.838
 2335SOL    HW3 9371   3.132   0.897   3.710
 2335SOL    MW4 9372   3.136   0.897   3.797
 2336SOL     OW 9373   3.135   1.175   3.884
 2336SOL    HW2 9374   3.125   1.080   3.874
 2336SOL    HW3 9375   3.047   1.210   3.872
 2336SOL    MW4 9376   3.122   1.167   3.881
 2337SOL     OW 9377   3.332   1.313   3.767
 2337SOL    HW2 9378   3.253   1.271   3.802
 2337SOL    HW3 9379   3.317   1.318   3.673
 2337SOL    MW4 9380   3.320   1.308   3.759
 2338SOL     OW 9381   3.345   1.564   3.852
 2338SOL    HW2 9382   3.257   1.596   3.831
 2338SOL    HW3 9383   3.343   1.471   3.828
 2338SOL    MW4 9384   3.333   1.556   3.846
 2339SOL     OW 9385   3.102   1.669   3.825
 2339SOL    HW2 9386   3.116   1.758   3.859
 2339SOL    HW3 9387   3.087   1.681   3.731
 2339SOL    MW4 9388   3.102   1.682   3.817
 2340SOL     OW 9389   3.138   1.928   3.914
 2340SOL    HW2 9390   3.123   1.941   4.008
 2340SOL    HW3 9391   3.069   1.979   3.871
 2340SOL    MW4 9392   3.127   1.936   3.921
 2341SOL     OW 9393   3.367   2.048   3.832
 2341SOL    HW2 9394   3.286   2.018   3.874
 2341SOL    HW3 9395   3.358   2.021   3.741
 2341SOL    MW4 9396   3.355   2.040   3.825
 2342SOL     OW 9397   3.393   2.318   3.863
 2342SOL    HW2 9398   3.311   2.359   3.835
 2342SOL    HW3 9399   3.385   2.227   3.836
 2342SOL    MW4 9400   3.381   2.311   3.856
 2343SOL     OW 9401   3.156   2.443   3.785
 2343SOL    HW2 9402   3.157   2.532   3.821
 2343SOL    HW3 9403   3.168   2.455   3.691
 2343SOL    MW4 9404   3.158   2.456   3.777
 2344SOL     OW 9405   3.155   2.691   3.877
 2344SOL    HW2 9406   3.174   2.702   3.970
 2344SOL    HW3 9407   3.086   2.754   3.859
 2344SOL    MW4 9408   3.148   2.701   3.887
 2345SOL     OW 9409   3.386   2.817   3.778
 2345SOL    HW2 9410   3.308   2.780   3.819
 2345SOL    HW3 9411   3.370   2.808   3.684
 2345SOL    MW4 9412   3.374   2.811   3.771
 2346SOL     OW 9413   3.374   3.062   3.904
 2346SOL    HW2 9414   3.451   3.114   3.879
 2346SOL    HW3 9415   3.387   2.978   3.861
 2346SOL    MW4 9416   3.386   3.058   3.895
 2347SOL     OW 9417   3.112   3.202   3.783
 2347SOL    HW2 9418   3.182   3.149   3.822
 2347SOL    HW3 9419   3.130   3.201   3.689
 2347SOL    MW4 9420   3.124   3.195   3.776
 2348SOL     OW 9421   3.108   3.464   3.894
 2348SOL    HW2 9422   3.175   3.505   3.840
 2348SOL    HW3 9423   3.109   3.372   3.868
 2348SOL    MW4 9424   3.117   3.457   3.883
 2349SOL     OW 9425   3.331   3.626   3.811
 2349SOL    HW2 9426   3.329   3.710   3.857
 2349SOL    HW3 9427   3.348   3.650   3.720
 2349SOL    MW4 9428   3.333   3.640   3.805
 2350SOL     OW 9429   3.343   3.886   3.903
 2350SOL    HW2 9430   3.420   3.932   3.869
 2350SOL    HW3 9431   3.269   3.934   3.866
 2350SOL    MW4 9432   3.343   3.898   3.894
 2351SOL     OW 9433   3.126   3.985   3.770
 2351SOL    HW2 9434   3.113   4.079   3.785
 2351SOL    HW3 9435   3.045   3.944   3.801
 2351SOL    MW4 9436   3.114   3.992   3.776
 2352SOL     OW 9437   3.125   4.248   3.839
 2352SOL    HW2 9438   3.139   4.243   3.934
 2352SOL    HW3 9439   3.198   4.301   3.806
 2352SOL    MW4 9440   3.136   4.254   3.847
 2353SOL     OW 9441   3.341   4.396   3.743
 2353SOL    HW2 9442   3.412   4.345   3.783
 2353SOL    HW3 9443   3.338   4.477   3.793
 2353SOL    MW4 9444   3.350   4.400   3.755
 2354SOL     OW 9445   3.771   0.004   3.881
 2354SOL    HW2 9446   3.861   0.032   3.863
 2354SOL    HW3 9447   3.766  -0.085   3.845
 2354SOL    MW4 9448   3.782  -0.004   3.874
 2355SOL     OW 9449   3.589   0.154   3.758
 2355SOL    HW2 9450   3.666   0.111   3.797
 2355SOL    HW3 9451   3.588   0.124   3.667
 2355SOL    MW4 9452   3.599   0.144   3.751
 2356SOL     OW 9453   3.604   0.360   3.943
 2356SOL    HW2 9454   3.676   0.418   3.918
 2356SOL    HW3 9455   3.606   0.290   3.878
 2356SOL    MW4 9456   3.614   0.358   3.931
 2357SOL     OW 9457   3.799   0.498   3.764
 2357SOL    HW2 9458   3.877   0.464   3.808
 2357SOL    HW3 9459   3.788   0.586   3.801
 2357SOL    MW4 9460   3.808   0.505   3.775
 2358SOL     OW 9461   3.789   0.741   3.899
 2358SOL    HW2 9462   3.867   0.774   3.854
 2358SOL    HW3 9463   3.716   0.782   3.853
 2358SOL    MW4 9464   3.790   0.751   3.887
 2359SOL     OW 9465   3.586   0.895   3.753
 2359SOL    HW2 9466   3.574   0.984   3.786
 2359SOL    HW3 9467   3.506   0.849   3.779
 2359SOL    MW4 9468   3.574   0.901   3.761
 2360SOL     OW 9469   3.545   1.153   3.847
 2360SOL    HW2 9470   3.624   1.185   3.803
 2360SOL    HW3 9471   3.473   1.198   3.803
 2360SOL    MW4 9472   3.546   1.163   3.835
 2361SOL     OW 9473   3.779   1.263   3.766
 2361SOL    HW2 9474   3.845   1.199   3.792
 2361SOL    HW3 9475   3.803   1.343   3.812
 2361SOL    MW4 9476   3.791   1.265   3.776
 2362SOL     OW 9477   3.832   1.537   3.847
 2362SOL    HW2 9478   3.827   1.540   3.943
 2362SOL    HW3 9479   3.745   1.566   3.818
 2362SOL    MW4 9480   3.820   1.541   3.856
 2363SOL     OW 9481   3.586   1.662   3.759
 2363SOL    HW2 9482   3.507   1.619   3.792
 2363SOL    HW3 9483   3.582   1.650   3.664
 2363SOL    MW4 9484   3.575   1.655   3.751
 2364SOL     OW 9485   3.592   1.894   3.926
 2364SOL    HW2 9486   3.589   1.820   3.865
 2364SOL    HW3 9487   3.513   1.944   3.907
 2364SOL    MW4 9488   3.581   1.891   3.915
 2365SOL     OW 9489   3.773   2.072   3.806
 2365SOL    HW2 9490   3.851   2.020   3.825
 2365SOL    HW3 9491   3.702   2.027   3.852
 2365SOL    MW4 9492   3.774   2.059   3.815
 2366SOL     OW 9493   3.808   2.326   3.913
 2366SOL    HW2 9494   3.753   2.383   3.860
 2366SOL    HW3 9495   3.794   2.239   3.877
 2366SOL    MW4 9496   3.799   2.322   3.901
 2367SOL     OW 9497   3.619   2.461   3.771
 2367SOL    HW2 9498   3.549   2.397   3.785
 2367SOL    HW3 9499   3.631   2.462   3.676
 2367SOL    MW4 9500   3.611   2.453   3.760
 2368SOL     OW 9501   3.595   2.696   3.906
 2368SOL    HW2 9502   3.585   2.607   3.872
 2368SOL    HW3 9503   3.524   2.745   3.865
 2368SOL    MW4 9504   3.584   2.691   3.896
 2369SOL     OW 9505   3.818   2.806   3.773
 2369SOL    HW2 9506   3.892   2.752   3.799
 2369SOL    HW3 9507   3.744   2.772   3.823
 2369SOL    MW4 9508   3.818   2.794   3.783
 2370SOL     OW 9509   3.830   3.070   3.892
 2370SOL    HW2 9510   3.748   3.114   3.869
 2370SOL    HW3 9511   3.828   2.989   3.842
 2370SOL    MW4 9512   3.819   3.065   3.882
 2371SOL     OW 9513   3.588   3.213   3.808
 2371SOL    HW2 9514   3.594   3.300   3.848
 2371SOL    HW3 9515   3.600   3.229   3.714
 2371SOL    MW4 9516   3.590   3.227   3.801
 2372SOL     OW 9517   3.576   3.500   3.867
 2372SOL    HW2 9518   3.565   3.490   3.962
 2372SOL    HW3 9519   3.489   3.525   3.835
 2372SOL    MW4 9520   3.563   3.502   3.875
 2373SOL     OW 9521   3.811   3.620   3.785
 2373SOL    HW2 9522   3.818   3.706   3.825
 2373SOL    HW3 9523   3.729   3.584   3.819
 2373SOL    MW4 9524   3.801   3.627   3.795
 2374SOL     OW 9525   3.806   3.876   3.904
 2374SOL    HW2 9526   3.803   3.886   3.999
 2374SOL    HW3 9527   3.876   3.935   3.876
 2374SOL    MW4 9528   3.815   3.885   3.913
 2375SOL     OW 9529   3.578   4.003   3.809
 2375SOL    HW2 9530   3.585   4.094   3.838
 2375SOL    HW3 9531   3.661   3.963   3.836
 2375SOL    MW4 9532   3.590   4.010   3.816
 2376SOL     OW 9533   3.574   4.288   3.865
 2376SOL    HW2 9534   3.579   4.291   3.960
 2376SOL    HW3 9535   3.647   4.342   3.835
 2376SOL    MW4 9536   3.584   4.296   3.874
 2377SOL     OW 9537   3.808   4.429   3.774
 2377SOL    HW2 9538   3.862   4.360   3.813
 2377SOL    HW3 9539   3.820   4.418   3.680
 2377SOL    MW4 9540   3.817   4.418   3.767
 2378SOL     OW 9541   4.248   4.600   3.887
 2378SOL    HW2 9542   4.265   4.579   3.979
 2378SOL    HW3 9543   4.317   4.662   3.863
 2378SOL    MW4 9544   4.259   4.605   3.896
 2379SOL     OW 9545   4.058   0.108   3.805
 2379SOL    HW2 9546   4.117   0.042   3.840
 2379SOL    HW3 9547   4.072   0.106   3.710
 2379SOL    MW4 9548   4.068   0.099   3.797
 2380SOL     OW 9549   4.031   0.385   3.887
 2380SOL    HW2 9550   4.033   0.388   3.983
 2380SOL    HW3 9551   4.030   0.292   3.866
 2380SOL    MW4 9552   4.031   0.373   3.897
 2381SOL     OW 9553   4.294   0.455   3.810
 2381SOL    HW2 9554   4.210   0.428   3.847
 2381SOL    HW3 9555   4.284   0.442   3.716
 2381SOL    MW4 9556   4.282   0.450   3.802
 2382SOL     OW 9557   4.232   0.739   3.869
 2382SOL    HW2 9558   4.153   0.748   3.815
 2382SOL    HW3 9559   4.261   0.649   3.855
 2382SOL    MW4 9560   4.225   0.728   3.860
 2383SOL     OW 9561   3.995   0.867   3.769
 2383SOL    HW2 9562   3.989   0.954   3.809
 2383SOL    HW3 9563   4.016   0.885   3.677
 2383SOL    MW4 9564   3.997   0.881   3.762
 2384SOL     OW 9565   4.003   1.136   3.844
 2384SOL    HW2 9566   4.006   1.145   3.939
 2384SOL    HW3 9567   4.077   1.189   3.813
 2384SOL    MW4 9568   4.013   1.144   3.852
 2385SOL     OW 9569   4.188   1.314   3.742
 2385SOL    HW2 9570   4.212   1.400   3.777
 2385SOL    HW3 9571   4.194   1.324   3.647
 2385SOL    MW4 9572   4.192   1.327   3.734
 2386SOL     OW 9573   4.260   1.563   3.854
 2386SOL    HW2 9574   4.181   1.608   3.825
 2386SOL    HW3 9575   4.330   1.602   3.802
 2386SOL    MW4 9576   4.259   1.574   3.843
 2387SOL     OW 9577   4.019   1.701   3.740
 2387SOL    HW2 9578   4.007   1.783   3.788
 2387SOL    HW3 9579   3.942   1.649   3.763
 2387SOL    MW4 9580   4.007   1.705   3.749
 2388SOL     OW 9581   3.997   1.939   3.867
 2388SOL    HW2 9582   4.008   1.944   3.962
 2388SOL    HW3 9583   4.080   1.971   3.831
 2388SOL    MW4 9584   4.009   1.944   3.875
 2389SOL     OW 9585   4.230   2.061   3.750
 2389SOL    HW2 9586   4.235   2.152   3.780
 2389SOL    HW3 9587   4.223   2.068   3.655
 2389SOL    MW4 9588   4.230   2.074   3.741
 2390SOL     OW 9589   4.271   2.334   3.841
 2390SOL    HW2 9590   4.261   2.316   3.934
 2390SOL    HW3 9591   4.182   2.350   3.810
 2390SOL    MW4 9592   4.258   2.334   3.849
 2391SOL     OW 9593   4.031   2.436   3.772
 2391SOL    HW2 9594   4.051   2.526   3.796
 2391SOL    HW3 9595   3.957   2.412   3.828
 2391SOL    MW4 9596   4.024   2.445   3.783
 2392SOL     OW 9597   4.058   2.690   3.883
 2392SOL    HW2 9598   4.049   2.710   3.976
 2392SOL    HW3 9599   4.121   2.755   3.851
 2392SOL    MW4 9600   4.065   2.701   3.891
 2393SOL     OW 9601   4.248   2.886   3.784
 2393SOL    HW2 9602   4.247   2.961   3.843
 2393SOL    HW3 9603   4.336   2.850   3.791
 2393SOL    MW4 9604   4.260   2.891   3.793
 2394SOL     OW 9605   4.234   3.106   3.955
 2394SOL    HW2 9606   4.162   3.158   3.921
 2394SOL    HW3 9607   4.311   3.138   3.909
 2394SOL    MW4 9608   4.235   3.117   3.944
 2395SOL     OW 9609   4.031   3.232   3.816
 2395SOL    HW2 9610   3.957   3.177   3.843
 2395SOL    HW3 9611   4.020   3.242   3.721
 2395SOL    MW4 9612   4.020   3.226   3.807
 2396SOL     OW 9613   4.041   3.493   3.910
 2396SOL    HW2 9614   4.039   3.401   3.884
 2396SOL    HW3 9615   3.967   3.532   3.864
 2396SOL    MW4 9616   4.031   3.486   3.901
 2397SOL     OW 9617   4.258   3.610   3.778
 2397SOL    HW2 9618   4.179   3.580   3.824
 2397SOL    HW3 9619   4.330   3.568   3.824
 2397SOL    MW4 9620   4.257   3.600   3.790
 2398SOL     OW 9621   4.246   3.864   3.898
 2398SOL    HW2 9622   4.159   3.891   3.867
 2398SOL    HW3 9623   4.252   3.771   3.876
 2398SOL    MW4 9624   4.235   3.855   3.891
 2399SOL     OW 9625   4.028   4.006   3.805
 2399SOL    HW2 9626   4.020   4.094   3.841
 2399SOL    HW3 9627   4.030   4.019   3.710
 2399SOL    MW4 9628   4.027   4.019   3.797
 2400SOL     OW 9629   4.021   4.273   3.900
 2400SOL    HW2 9630   4.028   4.302   3.991
 2400SOL    HW3 9631   4.101   4.305   3.858
 2400SOL    MW4 9632   4.032   4.281   3.906
 2401SOL     OW 9633   4.244   4.368   3.746
 2401SOL    HW2 9634   4.239   4.455   3.786
 2401SOL    HW3 9635   4.319   4.326   3.787
 2401SOL    MW4 9636   4.253   4.374   3.757
 2402SOL     OW 9637   0.201   0.015   4.146
 2402SOL    HW2 9638   0.279   0.055   4.183
 2402SOL    HW3 9639   0.195  -0.070   4.190
 2402SOL    MW4 9640   0.211   0.009   4.157
 2403SOL     OW 9641   4.480   0.131   4.253
 2403SOL    HW2 9642   4.496   0.108   4.345
 2403SOL    HW3 9643   4.551   0.087   4.205
 2403SOL    MW4 9644   4.492   0.122   4.259
 2404SOL     OW 9645   0.023   0.386   4.176
 2404SOL    HW2 9646   0.001   0.300   4.212
 2404SOL    HW3 9647   0.023   0.372   4.081
 2404SOL    MW4 9648   0.020   0.373   4.168
 2405SOL     OW 9649   0.235   0.530   4.271
 2405SOL    HW2 9650   0.309   0.485   4.231
 2405SOL    HW3 9651   0.158   0.483   4.240
 2405SOL    MW4 9652   0.235   0.518   4.262
 2406SOL     OW 9653   0.138   0.719   4.091
 2406SOL    HW2 9654   0.075   0.768   4.143
 2406SOL    HW3 9655   0.175   0.655   4.152
 2406SOL    MW4 9656   0.135   0.717   4.106
 2407SOL     OW 9657   4.439   0.861   4.260
 2407SOL    HW2 9658   4.351   0.832   4.236
 2407SOL    HW3 9659   4.444   0.951   4.228
 2407SOL    MW4 9660   4.428   0.869   4.253
 2408SOL     OW 9661   4.433   1.107   4.124
 2408SOL    HW2 9662   4.508   1.160   4.152
 2408SOL    HW3 9663   4.436   1.109   4.028
 2408SOL    MW4 9664   4.443   1.114   4.115
 2409SOL     OW 9665   0.161   1.273   4.195
 2409SOL    HW2 9666   0.160   1.274   4.291
 2409SOL    HW3 9667   0.231   1.211   4.172
 2409SOL    MW4 9668   0.170   1.265   4.205
 2410SOL     OW 9669   4.463   1.724   4.491
 2410SOL    HW2 9670   4.483   1.724   4.397
 2410SOL    HW3 9671   4.422   1.809   4.507
 2410SOL    MW4 9672   4.460   1.735   4.481
 2411SOL     OW 9673   0.005   1.708   4.196
 2411SOL    HW2 9674  -0.077   1.666   4.167
 2411SOL    HW3 9675  -0.002   1.798   4.164
 2411SOL    MW4 9676  -0.007   1.714   4.188
 2412SOL     OW 9677   0.216   2.070   4.242
 2412SOL    HW2 9678   0.195   2.084   4.334
 2412SOL    HW3 9679   0.273   1.993   4.241
 2412SOL    MW4 9680   0.221   2.062   4.254
 2413SOL     OW 9681   0.495   1.789   4.682
 2413SOL    HW2 9682   0.410   1.804   4.641
 2413SOL    HW3 9683   0.499   1.854   4.753
 2413SOL    MW4 9684   0.484   1.800   4.686
 2414SOL     OW 9685   0.231   2.319   4.131
 2414SOL    HW2 9686   0.312   2.357   4.166
 2414SOL    HW3 9687   0.224   2.234   4.175
 2414SOL    MW4 9688   0.241   2.313   4.141
 2415SOL     OW 9689   4.466   2.407   4.229
 2415SOL    HW2 9690   4.400   2.367   4.173
 2415SOL    HW3 9691   4.550   2.384   4.188
 2415SOL    MW4 9692   4.468   2.399   4.216
 2416SOL     OW 9693   4.482   2.653   4.102
 2416SOL    HW2 9694   4.533   2.717   4.153
 2416SOL    HW3 9695   4.471   2.579   4.161
 2416SOL    MW4 9696   4.487   2.652   4.116
 2417SOL     OW 9697   0.187   2.804   4.227
 2417SOL    HW2 9698   0.273   2.781   4.193
 2417SOL    HW3 9699   0.176   2.897   4.206
 2417SOL    MW4 9700   0.197   2.813   4.220
 2418SOL     OW 9701   0.159   3.084   4.167
 2418SOL    HW2 9702   0.234   3.116   4.218
 2418SOL    HW3 9703   0.083   3.124   4.210
 2418SOL    MW4 9704   0.159   3.093   4.179
 2419SOL     OW 9705   4.459   3.229   4.297
 2419SOL    HW2 9706   4.367   3.210   4.277
 2419SOL    HW3 9707   4.471   3.320   4.270
 2419SOL    MW4 9708   4.449   3.238   4.291
 2420SOL     OW 9709   4.479   3.481   4.171
 2420SOL    HW2 9710   4.405   3.531   4.204
 2420SOL    HW3 9711   4.470   3.484   4.076
 2420SOL    MW4 9712   4.468   3.488   4.163
 2421SOL     OW 9713   0.227   3.626   4.277
 2421SOL    HW2 9714   0.279   3.549   4.252
 2421SOL    HW3 9715   0.138   3.604   4.251
 2421SOL    MW4 9716   0.222   3.613   4.270
 2422SOL     OW 9717   0.227   3.881   4.160
 2422SOL    HW2 9718   0.149   3.927   4.191
 2422SOL    HW3 9719   0.221   3.794   4.200
 2422SOL    MW4 9720   0.216   3.876   4.169
 2423SOL     OW 9721   0.021   4.018   4.263
 2423SOL    HW2 9722   0.035   4.022   4.358
 2423SOL    HW3 9723  -0.049   3.954   4.252
 2423SOL    MW4 9724   0.014   4.010   4.274
 2424SOL     OW 9725   4.449   4.296   4.188
 2424SOL    HW2 9726   4.481   4.210   4.215
 2424SOL    HW3 9727   4.457   4.295   4.093
 2424SOL    MW4 9728   4.454   4.285   4.179
 2425SOL     OW 9729   0.180   4.432   4.271
 2425SOL    HW2 9730   0.175   4.390   4.357
 2425SOL    HW3 9731   0.097   4.410   4.229
 2425SOL    MW4 9732   0.168   4.424   4.277
 2426SOL     OW 9733   0.690   0.015   4.152
 2426SOL    HW2 9734   0.611   0.052   4.192
 2426SOL    HW3 9735   0.673   0.018   4.058
 2426SOL    MW4 9736   0.677   0.020   4.145
 2427SOL     OW 9737   0.448   0.114   4.239
 2427SOL    HW2 9738   0.433   0.124   4.333
 2427SOL    HW3 9739   0.446   0.203   4.204
 2427SOL    MW4 9740   0.446   0.127   4.247
 2428SOL     OW 9741   0.439   0.384   4.150
 2428SOL    HW2 9742   0.495   0.461   4.159
 2428SOL    HW3 9743   0.423   0.376   4.056
 2428SOL    MW4 9744   0.444   0.393   4.139
 2429SOL     OW 9745   0.673   0.515   4.379
 2429SOL    HW2 9746   0.735   0.463   4.328
 2429SOL    HW3 9747   0.634   0.575   4.316
 2429SOL    MW4 9748   0.676   0.516   4.364
 2430SOL     OW 9749   0.547   0.639   4.171
 2430SOL    HW2 9750   0.484   0.706   4.199
 2430SOL    HW3 9751   0.585   0.674   4.090
 2430SOL    MW4 9752   0.544   0.652   4.164
 2431SOL     OW 9753   0.361   0.839   4.219
 2431SOL    HW2 9754   0.364   0.917   4.164
 2431SOL    HW3 9755   0.295   0.783   4.179
 2431SOL    MW4 9756   0.353   0.842   4.206
 2432SOL     OW 9757   0.358   1.094   4.109
 2432SOL    HW2 9758   0.429   1.130   4.162
 2432SOL    HW3 9759   0.388   1.104   4.019
 2432SOL    MW4 9760   0.371   1.100   4.104
 2433SOL     OW 9761   0.585   1.217   4.244
 2433SOL    HW2 9762   0.565   1.216   4.338
 2433SOL    HW3 9763   0.612   1.307   4.226
 2433SOL    MW4 9764   0.586   1.229   4.254
 2434SOL     OW 9765   0.647   1.487   4.157
 2434SOL    HW2 9766   0.716   1.546   4.186
 2434SOL    HW3 9767   0.654   1.487   4.061
 2434SOL    MW4 9768   0.657   1.495   4.148
 2435SOL     OW 9769   0.220   1.530   4.088
 2435SOL    HW2 9770   0.198   1.447   4.130
 2435SOL    HW3 9771   0.151   1.590   4.117
 2435SOL    MW4 9772   0.208   1.527   4.097
 2436SOL     OW 9773   0.440   1.896   4.206
 2436SOL    HW2 9774   0.452   1.806   4.235
 2436SOL    HW3 9775   0.445   1.892   4.111
 2436SOL    MW4 9776   0.442   1.884   4.197
 2437SOL     OW 9777   0.658   2.064   4.254
 2437SOL    HW2 9778   0.651   2.119   4.332
 2437SOL    HW3 9779   0.575   2.017   4.250
 2437SOL    MW4 9780   0.646   2.065   4.264
 2438SOL     OW 9781   0.648   2.312   4.120
 2438SOL    HW2 9782   0.655   2.219   4.141
 2438SOL    HW3 9783   0.652   2.315   4.024
 2438SOL    MW4 9784   0.649   2.300   4.110
 2439SOL     OW 9785   0.448   2.443   4.267
 2439SOL    HW2 9786   0.446   2.530   4.227
 2439SOL    HW3 9787   0.527   2.403   4.232
 2439SOL    MW4 9788   0.458   2.449   4.257
 2440SOL     OW 9789   0.452   2.699   4.158
 2440SOL    HW2 9790   0.530   2.751   4.178
 2440SOL    HW3 9791   0.449   2.695   4.062
 2440SOL    MW4 9792   0.462   2.705   4.148
 2441SOL     OW 9793   0.712   2.793   4.186
 2441SOL    HW2 9794   0.719   2.798   4.281
 2441SOL    HW3 9795   0.702   2.884   4.157
 2441SOL    MW4 9796   0.712   2.806   4.195
 2442SOL     OW 9797   0.650   3.051   4.153
 2442SOL    HW2 9798   0.724   3.108   4.174
 2442SOL    HW3 9799   0.573   3.104   4.173
 2442SOL    MW4 9800   0.650   3.065   4.158
 2443SOL     OW 9801   0.414   3.186   4.239
 2443SOL    HW2 9802   0.427   3.177   4.333
 2443SOL    HW3 9803   0.402   3.280   4.225
 2443SOL    MW4 9804   0.414   3.197   4.250
 2444SOL     OW 9805   0.409   3.446   4.152
 2444SOL    HW2 9806   0.490   3.475   4.194
 2444SOL    HW3 9807   0.420   3.470   4.060
 2444SOL    MW4 9808   0.421   3.453   4.145
 2445SOL     OW 9809   0.637   3.565   4.261
 2445SOL    HW2 9810   0.648   3.584   4.354
 2445SOL    HW3 9811   0.726   3.546   4.230
 2445SOL    MW4 9812   0.650   3.565   4.269
 2446SOL     OW 9813   0.656   3.824   4.143
 2446SOL    HW2 9814   0.579   3.869   4.178
 2446SOL    HW3 9815   0.645   3.733   4.172
 2446SOL    MW4 9816   0.644   3.818   4.151
 2447SOL     OW 9817   0.459   4.028   4.232
 2447SOL    HW2 9818   0.441   4.117   4.200
 2447SOL    HW3 9819   0.377   3.981   4.218
 2447SOL    MW4 9820   0.446   4.033   4.226
 2448SOL     OW 9821   0.425   4.325   4.204
 2448SOL    HW2 9822   0.336   4.339   4.236
 2448SOL    HW3 9823   0.416   4.324   4.109
 2448SOL    MW4 9824   0.412   4.327   4.196
 2449SOL     OW 9825   0.682   4.444   4.272
 2449SOL    HW2 9826   0.594   4.423   4.241
 2449SOL    HW3 9827   0.707   4.523   4.223
 2449SOL    MW4 9828   0.674   4.452   4.261
 2450SOL     OW 9829   1.157   4.646   4.170
 2450SOL    HW2 9830   1.128   4.557   4.189
 2450SOL    HW3 9831   1.166   4.648   4.075
 2450SOL    MW4 9832   1.154   4.635   4.160
 2451SOL     OW 9833   0.928   0.125   4.286
 2451SOL    HW2 9834   0.994   0.082   4.232
 2451SOL    HW3 9835   0.848   0.076   4.269
 2451SOL    MW4 9836   0.926   0.113   4.277
 2452SOL     OW 9837   0.867   0.385   4.211
 2452SOL    HW2 9838   0.954   0.423   4.224
 2452SOL    HW3 9839   0.877   0.293   4.235
 2452SOL    MW4 9840   0.880   0.378   4.216
 2453SOL     OW 9841   1.108   0.503   4.268
 2453SOL    HW2 9842   1.128   0.487   4.360
 2453SOL    HW3 9843   1.186   0.474   4.221
 2453SOL    MW4 9844   1.121   0.497   4.274
 2454SOL     OW 9845   1.071   0.765   4.152
 2454SOL    HW2 9846   1.138   0.816   4.197
 2454SOL    HW3 9847   1.076   0.678   4.192
 2454SOL    MW4 9848   1.081   0.760   4.163
 2455SOL     OW 9849   0.826   0.818   4.275
 2455SOL    HW2 9850   0.912   0.791   4.244
 2455SOL    HW3 9851   0.766   0.754   4.238
 2455SOL    MW4 9852   0.829   0.806   4.266
 2456SOL     OW 9853   0.809   1.082   4.126
 2456SOL    HW2 9854   0.797   0.996   4.167
 2456SOL    HW3 9855   0.726   1.127   4.142
 2456SOL    MW4 9856   0.797   1.077   4.133
 2457SOL     OW 9857   1.055   1.219   4.216
 2457SOL    HW2 9858   1.025   1.266   4.294
 2457SOL    HW3 9859   0.981   1.163   4.192
 2457SOL    MW4 9860   1.041   1.218   4.223
 2458SOL     OW 9861   1.103   1.495   4.105
 2458SOL    HW2 9862   1.027   1.533   4.150
 2458SOL    HW3 9863   1.104   1.403   4.133
 2458SOL    MW4 9864   1.093   1.488   4.115
 2459SOL     OW 9865   0.895   1.601   4.227
 2459SOL    HW2 9866   0.910   1.599   4.322
 2459SOL    HW3 9867   0.877   1.693   4.207
 2459SOL    MW4 9868   0.895   1.613   4.237
 2460SOL     OW 9869   0.793   1.842   4.145
 2460SOL    HW2 9870   0.736   1.910   4.180
 2460SOL    HW3 9871   0.807   1.866   4.054
 2460SOL    MW4 9872   0.787   1.854   4.138
 2461SOL     OW 9873   1.003   1.979   4.254
 2461SOL    HW2 9874   0.967   2.008   4.338
 2461SOL    HW3 9875   0.934   1.925   4.216
 2461SOL    MW4 9876   0.989   1.976   4.260
 2462SOL     OW 9877   1.058   2.241   4.162
 2462SOL    HW2 9878   1.118   2.262   4.233
 2462SOL    HW3 9879   1.040   2.148   4.173
 2462SOL    MW4 9880   1.064   2.231   4.173
 2463SOL     OW 9881   0.871   2.430   4.239
 2463SOL    HW2 9882   0.940   2.366   4.222
 2463SOL    HW3 9883   0.794   2.396   4.194
 2463SOL    MW4 9884   0.870   2.417   4.231
 2464SOL     OW 9885   0.947   2.682   4.084
 2464SOL    HW2 9886   0.952   2.598   4.130
 2464SOL    HW3 9887   0.860   2.715   4.104
 2464SOL    MW4 9888   0.936   2.675   4.093
 2465SOL     OW 9889   1.121   2.836   4.248
 2465SOL    HW2 9890   1.090   2.921   4.217
 2465SOL    HW3 9891   1.071   2.773   4.197
 2465SOL    MW4 9892   1.110   2.839   4.237
 2466SOL     OW 9893   1.065   3.098   4.156
 2466SOL    HW2 9894   1.126   3.151   4.207
 2466SOL    HW3 9895   1.100   3.099   4.067
 2466SOL    MW4 9896   1.078   3.105   4.151
 2467SOL     OW 9897   0.848   3.244   4.219
 2467SOL    HW2 9898   0.827   3.218   4.309
 2467SOL    HW3 9899   0.924   3.191   4.195
 2467SOL    MW4 9900   0.855   3.234   4.228
 2468SOL     OW 9901   0.901   3.504   4.172
 2468SOL    HW2 9902   0.891   3.420   4.216
 2468SOL    HW3 9903   0.916   3.482   4.080
 2468SOL    MW4 9904   0.902   3.490   4.166
 2469SOL     OW 9905   1.104   3.672   4.253
 2469SOL    HW2 9906   1.066   3.749   4.210
 2469SOL    HW3 9907   1.059   3.598   4.214
 2469SOL    MW4 9908   1.093   3.672   4.242
 2470SOL     OW 9909   1.035   3.934   4.109
 2470SOL    HW2 9910   1.115   3.948   4.160
 2470SOL    HW3 9911   0.964   3.966   4.165
 2470SOL    MW4 9912   1.036   3.940   4.123
 2471SOL     OW 9913   0.826   3.993   4.281
 2471SOL    HW2 9914   0.827   4.079   4.239
 2471SOL    HW3 9915   0.756   3.945   4.237
 2471SOL    MW4 9916   0.817   3.998   4.270
 2472SOL     OW 9917   0.836   4.244   4.159
 2472SOL    HW2 9918   0.926   4.278   4.159
 2472SOL    HW3 9919   0.784   4.315   4.197
 2472SOL    MW4 9920   0.841   4.258   4.164
 2473SOL     OW 9921   1.100   4.387   4.239
 2473SOL    HW2 9922   1.102   4.360   4.331
 2473SOL    HW3 9923   1.162   4.329   4.196
 2473SOL    MW4 9924   1.109   4.376   4.245
 2474SOL     OW 9925   1.557   4.641   4.183
 2474SOL    HW2 9926   1.636   4.690   4.208
 2474SOL    HW3 9927   1.485   4.699   4.206
 2474SOL    MW4 9928   1.558   4.655   4.189
 2475SOL     OW 9929   1.358   0.136   4.254
 2475SOL    HW2 9930   1.353   0.133   4.349
 2475SOL    HW3 9931   1.290   0.076   4.224
 2475SOL    MW4 9932   1.348   0.128   4.263
 2476SOL     OW 9933   1.341   0.400   4.153
 2476SOL    HW2 9934   1.418   0.456   4.164
 2476SOL    HW3 9935   1.368   0.315   4.188
 2476SOL    MW4 9936   1.355   0.396   4.159
 2477SOL     OW 9937   1.568   0.531   4.187
 2477SOL    HW2 9938   1.574   0.532   4.282
 2477SOL    HW3 9939   1.550   0.622   4.163
 2477SOL    MW4 9940   1.566   0.543   4.196
 2478SOL     OW 9941   1.465   0.771   4.116
 2478SOL    HW2 9942   1.546   0.822   4.122
 2478SOL    HW3 9943   1.443   0.772   4.023
 2478SOL    MW4 9944   1.473   0.778   4.105
 2479SOL     OW 9945   1.280   0.909   4.279
 2479SOL    HW2 9946   1.304   0.992   4.238
 2479SOL    HW3 9947   1.346   0.847   4.248
 2479SOL    MW4 9948   1.292   0.912   4.269
 2480SOL     OW 9949   1.325   1.156   4.158
 2480SOL    HW2 9950   1.232   1.170   4.175
 2480SOL    HW3 9951   1.331   1.148   4.063
 2480SOL    MW4 9952   1.314   1.157   4.148
 2481SOL     OW 9953   1.540   1.274   4.261
 2481SOL    HW2 9954   1.549   1.245   4.352
 2481SOL    HW3 9955   1.464   1.226   4.228
 2481SOL    MW4 9956   1.531   1.264   4.269
 2482SOL     OW 9957   1.551   1.510   4.116
 2482SOL    HW2 9958   1.478   1.564   4.146
 2482SOL    HW3 9959   1.536   1.425   4.156
 2482SOL    MW4 9960   1.539   1.506   4.125
 2483SOL     OW 9961   1.316   1.639   4.191
 2483SOL    HW2 9962   1.289   1.731   4.183
 2483SOL    HW3 9963   1.239   1.589   4.164
 2483SOL    MW4 9964   1.302   1.645   4.186
 2484SOL     OW 9965   1.242   1.897   4.154
 2484SOL    HW2 9966   1.293   1.969   4.190
 2484SOL    HW3 9967   1.155   1.908   4.192
 2484SOL    MW4 9968   1.237   1.908   4.164
 2485SOL     OW 9969   1.405   2.103   4.254
 2485SOL    HW2 9970   1.465   2.052   4.308
 2485SOL    HW3 9971   1.457   2.176   4.222
 2485SOL    MW4 9972   1.420   2.106   4.257
 2486SOL     OW 9973   1.553   2.354   4.165
 2486SOL    HW2 9974   1.634   2.311   4.192
 2486SOL    HW3 9975   1.553   2.346   4.070
 2486SOL    MW4 9976   1.564   2.347   4.156
 2487SOL     OW 9977   1.298   2.474   4.197
 2487SOL    HW2 9978   1.312   2.566   4.175
 2487SOL    HW3 9979   1.386   2.436   4.199
 2487SOL    MW4 9980   1.311   2.481   4.194
 2488SOL     OW 9981   1.364   2.735   4.132
 2488SOL    HW2 9982   1.433   2.739   4.198
 2488SOL    HW3 9983   1.289   2.779   4.173
 2488SOL    MW4 9984   1.363   2.741   4.146
 2489SOL     OW 9985   1.608   2.565   4.450
 2489SOL    HW2 9986   1.668   2.575   4.524
 2489SOL    HW3 9987   1.661   2.586   4.373
 2489SOL    MW4 9988   1.623   2.569   4.450
 2490SOL     OW 9989   1.660   3.053   4.174
 2490SOL    HW2 9990   1.689   3.104   4.250
 2490SOL    HW3 9991   1.608   2.982   4.212
 2490SOL    MW4 9992   1.657   3.050   4.189
 2491SOL     OW 9993   1.199   3.291   4.324
 2491SOL    HW2 9994   1.279   3.259   4.366
 2491SOL    HW3 9995   1.222   3.378   4.292
 2491SOL    MW4 9996   1.213   3.298   4.325
 2492SOL     OW 9997   1.321   3.519   4.181
 2492SOL    HW2 9998   1.258   3.591   4.190
 2492SOL    HW3 9999   1.345   3.519   4.088
 2492SOL    MW410000   1.316   3.528   4.170
 2493SOL     OW10001   1.567   3.587   4.303
 2493SOL    HW210002   1.561   3.567   4.396
 2493SOL    HW310003   1.486   3.554   4.265
 2493SOL    MW410004   1.555   3.580   4.310
 2494SOL     OW10005   1.509   3.816   4.173
 2494SOL    HW210006   1.459   3.875   4.229
 2494SOL    HW310007   1.526   3.739   4.227
 2494SOL    MW410008   1.505   3.814   4.188
 2495SOL     OW10009   1.252   3.990   4.251
 2495SOL    HW210010   1.256   4.012   4.344
 2495SOL    HW310011   1.287   4.067   4.206
 2495SOL    MW410012   1.257   4.003   4.257
 2496SOL     OW10013   1.301   4.227   4.135
 2496SOL    HW210014   1.367   4.282   4.177
 2496SOL    HW310015   1.317   4.238   4.041
 2496SOL    MW410016   1.312   4.236   4.128
 2497SOL     OW10017   1.516   4.371   4.233
 2497SOL    HW210018   1.532   4.463   4.211
 2497SOL    HW310019   1.596   4.325   4.207
 2497SOL    MW410020   1.529   4.377   4.227
 2498SOL     OW10021   2.019   4.649   4.187
 2498SOL    HW210022   1.936   4.689   4.213
 2498SOL    HW310023   2.013   4.641   4.092
 2498SOL    MW410024   2.007   4.653   4.178
 2499SOL     OW10025   1.792   0.137   4.255
 2499SOL    HW210026   1.776   0.160   4.347
 2499SOL    HW310027   1.813   0.220   4.213
 2499SOL    MW410028   1.793   0.151   4.262
 2500SOL     OW10029   1.804   0.384   4.132
 2500SOL    HW210030   1.865   0.446   4.172
 2500SOL    HW310031   1.717   0.417   4.154
 2500SOL    MW410032   1.801   0.397   4.140
 2501SOL     OW10033   2.042   0.540   4.235
 2501SOL    HW210034   2.047   0.514   4.327
 2501SOL    HW310035   2.109   0.486   4.192
 2501SOL    MW410036   2.051   0.530   4.241
 2502SOL     OW10037   2.001   0.784   4.172
 2502SOL    HW210038   2.082   0.823   4.206
 2502SOL    HW310039   2.003   0.694   4.203
 2502SOL    MW410040   2.012   0.777   4.181
 2503SOL     OW10041   1.728   0.872   4.176
 2503SOL    HW210042   1.728   0.968   4.180
 2503SOL    HW310043   1.820   0.847   4.187
 2503SOL    MW410044   1.740   0.881   4.178
 2504SOL     OW10045   1.761   1.146   4.165
 2504SOL    HW210046   1.841   1.187   4.198
 2504SOL    HW310047   1.690   1.203   4.195
 2504SOL    MW410048   1.762   1.159   4.173
 2505SOL     OW10049   1.992   1.262   4.255
 2505SOL    HW210050   2.081   1.230   4.238
 2505SOL    HW310051   1.996   1.356   4.236
 2505SOL    MW410052   2.004   1.270   4.250
 2506SOL     OW10053   2.008   1.526   4.203
 2506SOL    HW210054   2.087   1.546   4.253
 2506SOL    HW310055   2.030   1.550   4.113
 2506SOL    MW410056   2.021   1.532   4.198
 2507SOL     OW10057   1.771   1.658   4.250
 2507SOL    HW210058   1.857   1.618   4.235
 2507SOL    HW310059   1.710   1.600   4.204
 2507SOL    MW410060   1.774   1.645   4.242
 2508SOL     OW10061   1.838   1.925   4.160
 2508SOL    HW210062   1.822   1.839   4.198
 2508SOL    HW310063   1.796   1.987   4.220
 2508SOL    MW410064   1.830   1.922   4.173
 2509SOL     OW10065   1.783   2.218   4.259
 2509SOL    HW210066   1.850   2.274   4.219
 2509SOL    HW310067   1.811   2.208   4.350
 2509SOL    MW410068   1.795   2.224   4.266
 2510SOL     OW10069   2.002   2.377   4.161
 2510SOL    HW210070   2.010   2.343   4.072
 2510SOL    HW310071   2.089   2.411   4.181
 2510SOL    MW410072   2.015   2.377   4.152
 2511SOL     OW10073   1.842   2.601   4.257
 2511SOL    HW210074   1.895   2.628   4.332
 2511SOL    HW310075   1.880   2.518   4.229
 2511SOL    MW410076   1.854   2.594   4.263
 2512SOL     OW10077   1.858   2.863   4.128
 2512SOL    HW210078   1.808   2.791   4.168
 2512SOL    HW310079   1.811   2.942   4.154
 2512SOL    MW410080   1.845   2.864   4.137
 2513SOL     OW10081   1.813   2.888   4.455
 2513SOL    HW210082   1.888   2.829   4.458
 2513SOL    HW310083   1.843   2.963   4.403
 2513SOL    MW410084   1.827   2.890   4.449
 2514SOL     OW10085   2.021   3.080   4.366
 2514SOL    HW210086   2.056   3.002   4.409
 2514SOL    HW310087   2.067   3.083   4.282
 2514SOL    MW410088   2.032   3.070   4.361
 2515SOL     OW10089   1.785   3.218   4.341
 2515SOL    HW210090   1.791   3.296   4.286
 2515SOL    HW310091   1.875   3.184   4.345
 2515SOL    MW410092   1.798   3.224   4.334
 2516SOL     OW10093   1.804   3.461   4.211
 2516SOL    HW210094   1.729   3.508   4.248
 2516SOL    HW310095   1.800   3.479   4.117
 2516SOL    MW410096   1.794   3.470   4.203
 2517SOL     OW10097   2.004   3.615   4.312
 2517SOL    HW210098   2.019   3.693   4.259
 2517SOL    HW310099   1.931   3.570   4.269
 2517SOL    MW410100   1.996   3.619   4.299
 2518SOL     OW10101   1.994   3.834   4.138
 2518SOL    HW210102   1.906   3.858   4.168
 2518SOL    HW310103   1.986   3.824   4.043
 2518SOL    MW410104   1.981   3.836   4.129
 2519SOL     OW10105   1.759   3.948   4.212
 2519SOL    HW210106   1.760   4.041   4.191
 2519SOL    HW310107   1.675   3.917   4.178
 2519SOL    MW410108   1.748   3.956   4.205
 2520SOL     OW10109   1.762   4.224   4.173
 2520SOL    HW210110   1.827   4.282   4.213
 2520SOL    HW310111   1.783   4.224   4.080
 2520SOL    MW410112   1.773   4.232   4.166
 2521SOL     OW10113   1.956   4.402   4.286
 2521SOL    HW210114   1.950   4.403   4.382
 2521SOL    HW310115   1.983   4.491   4.263
 2521SOL    MW410116   1.959   4.414   4.296
 2522SOL     OW10117   2.452   4.654   4.134
 2522SOL    HW210118   2.536   4.689   4.164
 2522SOL    HW310119   2.451   4.564   4.167
 2522SOL    MW410120   2.463   4.647   4.142
 2523SOL     OW10121   2.234   0.114   4.285
 2523SOL    HW210122   2.303   0.069   4.236
 2523SOL    HW310123   2.156   0.060   4.271
 2523SOL    MW410124   2.233   0.101   4.277
 2524SOL     OW10125   2.254   0.367   4.165
 2524SOL    HW210126   2.235   0.279   4.198
 2524SOL    HW310127   2.255   0.357   4.070
 2524SOL    MW410128   2.252   0.354   4.157
 2525SOL     OW10129   2.481   0.473   4.274
 2525SOL    HW210130   2.461   0.471   4.368
 2525SOL    HW310131   2.408   0.427   4.233
 2525SOL    MW410132   2.469   0.467   4.281
 2526SOL     OW10133   2.483   0.770   4.195
 2526SOL    HW210134   2.474   0.687   4.241
 2526SOL    HW310135   2.499   0.745   4.104
 2526SOL    MW410136   2.484   0.756   4.189
 2527SOL     OW10137   2.251   0.924   4.239
 2527SOL    HW210138   2.235   0.918   4.333
 2527SOL    HW310139   2.329   0.870   4.225
 2527SOL    MW410140   2.259   0.916   4.250
 2528SOL     OW10141   2.233   1.184   4.154
 2528SOL    HW210142   2.296   1.241   4.198
 2528SOL    HW310143   2.247   1.098   4.194
 2528SOL    MW410144   2.243   1.180   4.165
 2529SOL     OW10145   2.445   1.305   4.283
 2529SOL    HW210146   2.450   1.309   4.379
 2529SOL    HW310147   2.523   1.257   4.257
 2529SOL    MW410148   2.456   1.299   4.292
 2530SOL     OW10149   2.468   1.570   4.171
 2530SOL    HW210150   2.469   1.483   4.210
 2530SOL    HW310151   2.459   1.554   4.077
 2530SOL    MW410152   2.467   1.556   4.164
 2531SOL     OW10153   2.237   1.665   4.301
 2531SOL    HW210154   2.318   1.624   4.271
 2531SOL    HW310155   2.237   1.752   4.260
 2531SOL    MW410156   2.248   1.671   4.292
 2532SOL     OW10157   2.274   1.904   4.166
 2532SOL    HW210158   2.340   1.954   4.215
 2532SOL    HW310159   2.195   1.959   4.169
 2532SOL    MW410160   2.272   1.918   4.173
 2533SOL     OW10161   2.475   2.081   4.280
 2533SOL    HW210162   2.506   2.097   4.369
 2533SOL    HW310163   2.553   2.053   4.232
 2533SOL    MW410164   2.489   2.079   4.285
 2534SOL     OW10165   2.471   2.342   4.169
 2534SOL    HW210166   2.481   2.257   4.213
 2534SOL    HW310167   2.455   2.320   4.077
 2534SOL    MW410168   2.470   2.328   4.163
 2535SOL     OW10169   2.439   2.521   4.503
 2535SOL    HW210170   2.382   2.466   4.449
 2535SOL    HW310171   2.390   2.602   4.514
 2535SOL    MW410172   2.425   2.524   4.497
 2536SOL     OW10173   2.111   2.731   4.122
 2536SOL    HW210174   2.152   2.729   4.209
 2536SOL    HW310175   2.017   2.727   4.140
 2536SOL    MW410176   2.104   2.730   4.136
 2537SOL     OW10177   2.437   2.820   4.295
 2537SOL    HW210178   2.441   2.861   4.382
 2537SOL    HW310179   2.355   2.771   4.295
 2537SOL    MW410180   2.427   2.819   4.306
 2538SOL     OW10181   2.428   3.058   4.143
 2538SOL    HW210182   2.333   3.063   4.148
 2538SOL    HW310183   2.449   2.971   4.177
 2538SOL    MW410184   2.418   3.047   4.148
 2539SOL     OW10185   2.152   3.023   4.121
 2539SOL    HW210186   2.082   3.063   4.069
 2539SOL    HW310187   2.125   2.931   4.130
 2539SOL    MW410188   2.139   3.016   4.115
 2540SOL     OW10189   2.208   3.493   4.169
 2540SOL    HW210190   2.271   3.444   4.221
 2540SOL    HW310191   2.151   3.535   4.233
 2540SOL    MW410192   2.209   3.492   4.184
 2541SOL     OW10193   2.519   3.681   4.302
 2541SOL    HW210194   2.467   3.608   4.334
 2541SOL    HW310195   2.455   3.740   4.261
 2541SOL    MW410196   2.504   3.679   4.301
 2542SOL     OW10197   2.416   3.907   4.153
 2542SOL    HW210198   2.489   3.954   4.193
 2542SOL    HW310199   2.435   3.910   4.059
 2542SOL    MW410200   2.428   3.914   4.146
 2543SOL     OW10201   2.175   4.015   4.219
 2543SOL    HW210202   2.252   3.974   4.180
 2543SOL    HW310203   2.102   3.959   4.193
 2543SOL    MW410204   2.176   4.002   4.210
 2544SOL     OW10205   2.204   4.299   4.170
 2544SOL    HW210206   2.186   4.207   4.189
 2544SOL    HW310207   2.131   4.346   4.211
 2544SOL    MW410208   2.192   4.293   4.178
 2545SOL     OW10209   2.453   4.398   4.262
 2545SOL    HW210210   2.532   4.346   4.248
 2545SOL    HW310211   2.381   4.342   4.232
 2545SOL    MW410212   2.454   4.384   4.256
 2546SOL     OW10213   2.947   4.611   4.161
 2546SOL    HW210214   3.013   4.665   4.205
 2546SOL    HW310215   2.947   4.529   4.210
 2546SOL    MW410216   2.956   4.607   4.173
 2547SOL     OW10217   2.694   0.063   4.234
 2547SOL    HW210218   2.714   0.157   4.238
 2547SOL    HW310219   2.779   0.021   4.218
 2547SOL    MW410220   2.708   0.070   4.232
 2548SOL     OW10221   2.715   0.334   4.215
 2548SOL    HW210222   2.636   0.381   4.242
 2548SOL    HW310223   2.725   0.354   4.122
 2548SOL    MW410224   2.706   0.343   4.206
 2549SOL     OW10225   2.934   0.463   4.331
 2549SOL    HW210226   2.925   0.552   4.296
 2549SOL    HW310227   2.854   0.418   4.304
 2549SOL    MW410228   2.922   0.469   4.323
 2550SOL     OW10229   2.949   0.707   4.200
 2550SOL    HW210230   2.999   0.785   4.225
 2550SOL    HW310231   2.943   0.713   4.105
 2550SOL    MW410232   2.955   0.718   4.191
 2551SOL     OW10233   2.719   0.882   4.279
 2551SOL    HW210234   2.783   0.811   4.275
 2551SOL    HW310235   2.636   0.841   4.253
 2551SOL    MW410236   2.717   0.867   4.275
 2552SOL     OW10237   2.697   1.145   4.172
 2552SOL    HW210238   2.695   1.054   4.203
 2552SOL    HW310239   2.694   1.138   4.077
 2552SOL    MW410240   2.696   1.132   4.163
 2553SOL     OW10241   2.916   1.255   4.297
 2553SOL    HW210242   2.999   1.230   4.256
 2553SOL    HW310243   2.850   1.203   4.250
 2553SOL    MW410244   2.918   1.245   4.285
 2554SOL     OW10245   2.908   1.515   4.183
 2554SOL    HW210246   2.994   1.555   4.198
 2554SOL    HW310247   2.917   1.426   4.217
 2554SOL    MW410248   2.921   1.509   4.189
 2555SOL     OW10249   2.694   1.671   4.249
 2555SOL    HW210250   2.773   1.624   4.222
 2555SOL    HW310251   2.622   1.625   4.206
 2555SOL    MW410252   2.695   1.659   4.240
 2556SOL     OW10253   2.727   1.958   4.167
 2556SOL    HW210254   2.686   1.875   4.192
 2556SOL    HW310255   2.722   1.959   4.071
 2556SOL    MW410256   2.721   1.947   4.158
 2557SOL     OW10257   2.923   2.095   4.311
 2557SOL    HW210258   2.934   2.176   4.262
 2557SOL    HW310259   2.853   2.048   4.265
 2557SOL    MW410260   2.915   2.100   4.298
 2558SOL     OW10261   2.942   2.304   4.133
 2558SOL    HW210262   3.011   2.342   4.187
 2558SOL    HW310263   2.866   2.359   4.150
 2558SOL    MW410264   2.941   2.316   4.142
 2559SOL     OW10265   2.712   2.439   4.251
 2559SOL    HW210266   2.715   2.438   4.347
 2559SOL    HW310267   2.623   2.412   4.229
 2559SOL    MW410268   2.701   2.435   4.261
 2560SOL     OW10269   2.648   2.715   4.134
 2560SOL    HW210270   2.665   2.632   4.179
 2560SOL    HW310271   2.578   2.756   4.185
 2560SOL    MW410272   2.641   2.710   4.147
 2561SOL     OW10273   2.896   2.759   4.266
 2561SOL    HW210274   2.869   2.735   4.355
 2561SOL    HW310275   2.817   2.747   4.213
 2561SOL    MW410276   2.882   2.754   4.271
 2562SOL     OW10277   2.950   3.025   4.225
 2562SOL    HW210278   2.940   2.933   4.248
 2562SOL    HW310279   2.922   3.030   4.134
 2562SOL    MW410280   2.945   3.013   4.216
 2563SOL     OW10281   2.597   3.282   4.268
 2563SOL    HW210282   2.656   3.220   4.312
 2563SOL    HW310283   2.530   3.227   4.228
 2563SOL    MW410284   2.596   3.267   4.269
 2564SOL     OW10285   2.714   3.529   4.192
 2564SOL    HW210286   2.677   3.443   4.212
 2564SOL    HW310287   2.648   3.592   4.221
 2564SOL    MW410288   2.700   3.526   4.198
 2565SOL     OW10289   2.917   3.619   4.345
 2565SOL    HW210290   2.906   3.592   4.436
 2565SOL    HW310291   2.844   3.577   4.299
 2565SOL    MW410292   2.906   3.610   4.351
 2566SOL     OW10293   2.912   3.845   4.157
 2566SOL    HW210294   2.992   3.891   4.184
 2566SOL    HW310295   2.906   3.771   4.218
 2566SOL    MW410296   2.922   3.841   4.169
 2567SOL     OW10297   2.664   4.005   4.249
 2567SOL    HW210298   2.684   4.097   4.235
 2567SOL    HW310299   2.731   3.958   4.200
 2567SOL    MW410300   2.676   4.011   4.241
 2568SOL     OW10301   2.687   4.271   4.167
 2568SOL    HW210302   2.767   4.306   4.206
 2568SOL    HW310303   2.701   4.278   4.073
 2568SOL    MW410304   2.699   4.277   4.160
 2569SOL     OW10305   2.940   4.357   4.242
 2569SOL    HW210306   2.953   4.370   4.336
 2569SOL    HW310307   3.019   4.311   4.213
 2569SOL    MW410308   2.952   4.353   4.251
 2570SOL     OW10309   3.366   4.653   4.144
 2570SOL    HW210310   3.442   4.694   4.185
 2570SOL    HW310311   3.367   4.563   4.176
 2570SOL    MW410312   3.376   4.647   4.154
 2571SOL     OW10313   3.149   0.103   4.256
 2571SOL    HW210314   3.164   0.117   4.350
 2571SOL    HW310315   3.232   0.069   4.223
 2571SOL    MW410316   3.162   0.100   4.264
 2572SOL     OW10317   3.148   0.368   4.146
 2572SOL    HW210318   3.145   0.275   4.171
 2572SOL    HW310319   3.085   0.410   4.205
 2572SOL    MW410320   3.139   0.361   4.157
 2573SOL     OW10321   3.369   0.524   4.274
 2573SOL    HW210322   3.454   0.482   4.264
 2573SOL    HW310323   3.310   0.472   4.220
 2573SOL    MW410324   3.372   0.512   4.266
 2574SOL     OW10325   3.358   0.780   4.155
 2574SOL    HW210326   3.279   0.824   4.185
 2574SOL    HW310327   3.345   0.688   4.180
 2574SOL    MW410328   3.346   0.774   4.162
 2575SOL     OW10329   3.151   0.918   4.275
 2575SOL    HW210330   3.143   0.923   4.370
 2575SOL    HW310331   3.133   1.007   4.245
 2575SOL    MW410332   3.148   0.930   4.284
 2576SOL     OW10333   3.143   1.173   4.166
 2576SOL    HW210334   3.232   1.205   4.180
 2576SOL    HW310335   3.135   1.163   4.071
 2576SOL    MW410336   3.154   1.176   4.155
 2577SOL     OW10337   3.375   1.322   4.244
 2577SOL    HW210338   3.403   1.338   4.334
 2577SOL    HW310339   3.373   1.409   4.204
 2577SOL    MW410340   3.378   1.336   4.251
 2578SOL     OW10341   3.365   1.578   4.144
 2578SOL    HW210342   3.286   1.597   4.195
 2578SOL    HW310343   3.339   1.593   4.053
 2578SOL    MW410344   3.351   1.582   4.139
 2579SOL     OW10345   3.125   1.669   4.283
 2579SOL    HW210346   3.120   1.673   4.378
 2579SOL    HW310347   3.106   1.758   4.254
 2579SOL    MW410348   3.122   1.681   4.292
 2580SOL     OW10349   3.111   1.930   4.194
 2580SOL    HW210350   3.189   1.945   4.247
 2580SOL    HW310351   3.041   1.975   4.241
 2580SOL    MW410352   3.112   1.938   4.207
 2581SOL     OW10353   3.359   2.043   4.325
 2581SOL    HW210354   3.448   2.016   4.349
 2581SOL    HW310355   3.371   2.117   4.266
 2581SOL    MW410356   3.372   2.049   4.320
 2582SOL     OW10357   3.376   2.270   4.141
 2582SOL    HW210358   3.448   2.330   4.158
 2582SOL    HW310359   3.358   2.279   4.047
 2582SOL    MW410360   3.383   2.279   4.131
 2583SOL     OW10361   3.146   2.432   4.256
 2583SOL    HW210362   3.152   2.520   4.220
 2583SOL    HW310363   3.211   2.382   4.208
 2583SOL    MW410364   3.155   2.437   4.245
 2584SOL     OW10365   3.162   2.698   4.166
 2584SOL    HW210366   3.232   2.744   4.213
 2584SOL    HW310367   3.081   2.733   4.204
 2584SOL    MW410368   3.160   2.709   4.177
 2585SOL     OW10369   3.368   2.836   4.307
 2585SOL    HW210370   3.438   2.805   4.250
 2585SOL    HW310371   3.354   2.927   4.282
 2585SOL    MW410372   3.375   2.844   4.296
 2586SOL     OW10373   3.377   3.096   4.184
 2586SOL    HW210374   3.305   3.152   4.214
 2586SOL    HW310375   3.355   3.076   4.093
 2586SOL    MW410376   3.365   3.101   4.176
 2587SOL     OW10377   3.125   3.226   4.273
 2587SOL    HW210378   3.074   3.302   4.244
 2587SOL    HW310379   3.067   3.151   4.259
 2587SOL    MW410380   3.111   3.226   4.267
 2588SOL     OW10381   3.116   3.500   4.172
 2588SOL    HW210382   3.033   3.534   4.205
 2588SOL    HW310383   3.100   3.487   4.078
 2588SOL    MW410384   3.103   3.503   4.164
 2589SOL     OW10385   3.380   3.578   4.244
 2589SOL    HW210386   3.394   3.568   4.338
 2589SOL    HW310387   3.287   3.559   4.231
 2589SOL    MW410388   3.369   3.574   4.255
 2590SOL     OW10389   3.383   3.855   4.172
 2590SOL    HW210390   3.397   3.762   4.191
 2590SOL    HW310391   3.375   3.859   4.077
 2590SOL    MW410392   3.384   3.843   4.162
 2591SOL     OW10393   3.125   3.980   4.244
 2591SOL    HW210394   3.114   3.967   4.338
 2591SOL    HW310395   3.201   3.926   4.221
 2591SOL    MW410396   3.134   3.971   4.253
 2592SOL     OW10397   3.168   4.227   4.120
 2592SOL    HW210398   3.229   4.271   4.179
 2592SOL    HW310399   3.153   4.142   4.161
 2592SOL    MW410400   3.174   4.222   4.133
 2593SOL     OW10401   3.359   4.393   4.261
 2593SOL    HW210402   3.369   4.400   4.356
 2593SOL    HW310403   3.442   4.357   4.230
 2593SOL    MW410404   3.371   4.389   4.269
 2594SOL     OW10405   3.811   4.644   4.151
 2594SOL    HW210406   3.895   4.682   4.176
 2594SOL    HW310407   3.803   4.663   4.058
 2594SOL    MW410408   3.821   4.652   4.142
 2595SOL     OW10409   3.581   0.114   4.268
 2595SOL    HW210410   3.582   0.209   4.254
 2595SOL    HW310411   3.658   0.082   4.220
 2595SOL    MW410412   3.591   0.122   4.260
 2596SOL     OW10413   3.600   0.380   4.217
 2596SOL    HW210414   3.689   0.406   4.240
 2596SOL    HW310415   3.600   0.377   4.121
 2596SOL    MW410416   3.612   0.383   4.207
 2597SOL     OW10417   3.852   0.493   4.275
 2597SOL    HW210418   3.849   0.510   4.369
 2597SOL    HW310419   3.852   0.580   4.235
 2597SOL    MW410420   3.852   0.507   4.282
 2598SOL     OW10421   3.811   0.756   4.188
 2598SOL    HW210422   3.728   0.803   4.197
 2598SOL    HW310423   3.825   0.751   4.093
 2598SOL    MW410424   3.802   0.762   4.177
 2599SOL     OW10425   3.583   0.917   4.236
 2599SOL    HW210426   3.579   1.008   4.206
 2599SOL    HW310427   3.496   0.882   4.218
 2599SOL    MW410428   3.571   0.924   4.230
 2600SOL     OW10429   3.586   1.177   4.137
 2600SOL    HW210430   3.511   1.225   4.172
 2600SOL    HW310431   3.571   1.176   4.042
 2600SOL    MW410432   3.574   1.183   4.129
 2601SOL     OW10433   3.793   1.297   4.244
 2601SOL    HW210434   3.714   1.251   4.215
 2601SOL    HW310435   3.796   1.376   4.191
 2601SOL    MW410436   3.783   1.301   4.233
 2602SOL     OW10437   3.791   1.559   4.127
 2602SOL    HW210438   3.856   1.606   4.180
 2602SOL    HW310439   3.712   1.613   4.132
 2602SOL    MW410440   3.789   1.572   4.135
 2603SOL     OW10441   3.591   1.929   4.378
 2603SOL    HW210442   3.599   1.855   4.318
 2603SOL    HW310443   3.615   1.893   4.463
 2603SOL    MW410444   3.595   1.914   4.381
 2604SOL     OW10445   3.575   1.740   4.178
 2604SOL    HW210446   3.492   1.693   4.169
 2604SOL    HW310447   3.577   1.800   4.104
 2604SOL    MW410448   3.564   1.742   4.167
 2605SOL     OW10449   3.816   2.073   4.296
 2605SOL    HW210450   3.838   2.088   4.388
 2605SOL    HW310451   3.728   2.035   4.299
 2605SOL    MW410452   3.807   2.070   4.308
 2606SOL     OW10453   3.838   2.345   4.219
 2606SOL    HW210454   3.835   2.255   4.252
 2606SOL    HW310455   3.832   2.336   4.124
 2606SOL    MW410456   3.837   2.332   4.211
 2607SOL     OW10457   3.570   2.453   4.242
 2607SOL    HW210458   3.539   2.442   4.332
 2607SOL    HW310459   3.662   2.425   4.245
 2607SOL    MW410460   3.578   2.448   4.254
 2608SOL     OW10461   3.575   2.733   4.171
 2608SOL    HW210462   3.572   2.641   4.197
 2608SOL    HW310463   3.569   2.732   4.075
 2608SOL    MW410464   3.574   2.721   4.162
 2609SOL     OW10465   3.829   2.797   4.312
 2609SOL    HW210466   3.825   2.816   4.406
 2609SOL    HW310467   3.744   2.759   4.292
 2609SOL    MW410468   3.817   2.794   4.322
 2610SOL     OW10469   3.814   3.047   4.175
 2610SOL    HW210470   3.824   2.953   4.192
 2610SOL    HW310471   3.829   3.056   4.081
 2610SOL    MW410472   3.817   3.036   4.165
 2611SOL     OW10473   3.620   3.211   4.298
 2611SOL    HW210474   3.687   3.158   4.254
 2611SOL    HW310475   3.538   3.167   4.277
 2611SOL    MW410476   3.618   3.198   4.289
 2612SOL     OW10477   3.587   3.431   4.136
 2612SOL    HW210478   3.590   3.343   4.174
 2612SOL    HW310479   3.507   3.470   4.171
 2612SOL    MW410480   3.577   3.425   4.146
 2613SOL     OW10481   3.805   3.639   4.341
 2613SOL    HW210482   3.878   3.584   4.313
 2613SOL    HW310483   3.731   3.579   4.350
 2613SOL    MW410484   3.805   3.624   4.338
 2614SOL     OW10485   3.816   3.897   4.176
 2614SOL    HW210486   3.732   3.941   4.191
 2614SOL    HW310487   3.807   3.813   4.220
 2614SOL    MW410488   3.804   3.892   4.184
 2615SOL     OW10489   3.570   4.032   4.220
 2615SOL    HW210490   3.548   4.065   4.307
 2615SOL    HW310491   3.500   3.971   4.199
 2615SOL    MW410492   3.558   4.028   4.229
 2616SOL     OW10493   3.595   4.308   4.143
 2616SOL    HW210494   3.672   4.337   4.193
 2616SOL    HW310495   3.591   4.213   4.157
 2616SOL    MW410496   3.605   4.299   4.151
 2617SOL     OW10497   3.818   4.403   4.279
 2617SOL    HW210498   3.901   4.359   4.260
 2617SOL    HW310499   3.825   4.487   4.234
 2617SOL    MW410500   3.830   4.408   4.271
 2618SOL     OW10501   4.281   4.614   4.162
 2618SOL    HW210502   4.268   4.538   4.218
 2618SOL    HW310503   4.346   4.667   4.208
 2618SOL    MW410504   4.288   4.611   4.175
 2619SOL     OW10505   4.062   0.105   4.246
 2619SOL    HW210506   4.084   0.196   4.227
 2619SOL    HW310507   4.138   0.055   4.216
 2619SOL    MW410508   4.075   0.110   4.240
 2620SOL     OW10509   4.074   0.375   4.166
 2620SOL    HW210510   4.147   0.416   4.212
 2620SOL    HW310511   3.996   0.405   4.212
 2620SOL    MW410512   4.073   0.384   4.178
 2621SOL     OW10513   4.290   0.508   4.287
 2621SOL    HW210514   4.266   0.593   4.250
 2621SOL    HW310515   4.365   0.479   4.234
 2621SOL    MW410516   4.297   0.515   4.275
 2622SOL     OW10517   4.206   0.739   4.160
 2622SOL    HW210518   4.142   0.794   4.204
 2622SOL    HW310519   4.201   0.765   4.068
 2622SOL    MW410520   4.197   0.750   4.154
 2623SOL     OW10521   4.029   0.925   4.262
 2623SOL    HW210522   4.026   1.015   4.229
 2623SOL    HW310523   3.948   0.885   4.230
 2623SOL    MW410524   4.018   0.932   4.253
 2624SOL     OW10525   4.004   1.170   4.117
 2624SOL    HW210526   4.087   1.212   4.140
 2624SOL    HW310527   3.938   1.221   4.163
 2624SOL    MW410528   4.006   1.182   4.126
 2625SOL     OW10529   4.229   1.303   4.194
 2625SOL    HW210530   4.229   1.285   4.288
 2625SOL    HW310531   4.293   1.243   4.157
 2625SOL    MW410532   4.238   1.293   4.202
 2626SOL     OW10533   4.256   1.560   4.136
 2626SOL    HW210534   4.257   1.468   4.163
 2626SOL    HW310535   4.240   1.558   4.042
 2626SOL    MW410536   4.254   1.548   4.127
 2627SOL     OW10537   4.013   1.680   4.254
 2627SOL    HW210538   4.048   1.702   4.341
 2627SOL    HW310539   4.088   1.643   4.207
 2627SOL    MW410540   4.027   1.678   4.259
 2628SOL     OW10541   4.001   1.921   4.158
 2628SOL    HW210542   3.999   1.828   4.182
 2628SOL    HW310543   3.928   1.960   4.206
 2628SOL    MW410544   3.991   1.914   4.168
 2629SOL     OW10545   4.460   1.979   4.158
 2629SOL    HW210546   4.543   2.015   4.190
 2629SOL    HW310547   4.395   2.007   4.223
 2629SOL    MW410548   4.462   1.987   4.171
 2630SOL     OW10549   4.244   2.274   4.110
 2630SOL    HW210550   4.185   2.332   4.159
 2630SOL    HW310551   4.230   2.188   4.149
 2630SOL    MW410552   4.234   2.270   4.122
 2631SOL     OW10553   4.090   2.453   4.259
 2631SOL    HW210554   4.100   2.477   4.351
 2631SOL    HW310555   3.999   2.426   4.250
 2631SOL    MW410556   4.079   2.453   4.270
 2632SOL     OW10557   4.040   2.699   4.166
 2632SOL    HW210558   4.065   2.614   4.202
 2632SOL    HW310559   3.961   2.723   4.215
 2632SOL    MW410560   4.033   2.691   4.177
 2633SOL     OW10561   4.282   2.797   4.240
 2633SOL    HW210562   4.193   2.780   4.209
 2633SOL    HW310563   4.336   2.733   4.194
 2633SOL    MW410564   4.277   2.786   4.230
 2634SOL     OW10565   4.226   3.096   4.216
 2634SOL    HW210566   4.257   3.011   4.246
 2634SOL    HW310567   4.231   3.091   4.120
 2634SOL    MW410568   4.231   3.084   4.207
 2635SOL     OW10569   3.993   3.220   4.281
 2635SOL    HW210570   4.078   3.188   4.253
 2635SOL    HW310571   3.931   3.152   4.254
 2635SOL    MW410572   3.996   3.207   4.274
 2636SOL     OW10573   3.991   3.495   4.196
 2636SOL    HW210574   3.966   3.403   4.202
 2636SOL    HW310575   3.984   3.516   4.103
 2636SOL    MW410576   3.987   3.486   4.184
 2637SOL     OW10577   4.244   3.597   4.254
 2637SOL    HW210578   4.236   3.692   4.247
 2637SOL    HW310579   4.162   3.563   4.217
 2637SOL    MW410580   4.232   3.605   4.248
 2638SOL     OW10581   4.284   3.868   4.190
 2638SOL    HW210582   4.208   3.925   4.201
 2638SOL    HW310583   4.296   3.861   4.095
 2638SOL    MW410584   4.276   3.875   4.179
 2639SOL     OW10585   4.064   4.014   4.269
 2639SOL    HW210586   4.072   4.004   4.364
 2639SOL    HW310587   3.984   3.966   4.246
 2639SOL    MW410588   4.054   4.006   4.279
 2640SOL     OW10589   4.041   4.262   4.175
 2640SOL    HW210590   4.111   4.312   4.218
 2640SOL    HW310591   4.051   4.173   4.210
 2640SOL    MW410592   4.051   4.257   4.185
 2641SOL     OW10593   3.845   4.405   4.777
 2641SOL    HW210594   3.788   4.408   4.700
 2641SOL    HW310595   3.933   4.418   4.742
 2641SOL    MW410596   3.849   4.407   4.762
 2642SOL     OW10597   4.490   0.060   4.546
 2642SOL    HW210598   4.514   0.146   4.581
 2642SOL    HW310599   4.394   0.058   4.549
 2642SOL    MW410600   4.481   0.071   4.551
 2643SOL     OW10601   4.368   4.421   4.581
 2643SOL    HW210602   4.365   4.498   4.638
 2643SOL    HW310603   4.291   4.370   4.606
 2643SOL    MW410604   4.357   4.424   4.592
 2644SOL     OW10605   4.004   4.612   4.466
 2644SOL    HW210606   4.039   4.654   4.388
 2644SOL    HW310607   3.927   4.665   4.489
 2644SOL    MW410608   3.999   4.625   4.459
 2645SOL     OW10609   4.335   1.545   4.683
 2645SOL    HW210610   4.257   1.505   4.645
 2645SOL    HW310611   4.372   1.598   4.612
 2645SOL    MW410612   4.330   1.547   4.669
 2646SOL     OW10613   0.357   0.197   4.515
 2646SOL    HW210614   0.271   0.217   4.552
 2646SOL    HW310615   0.407   0.161   4.588
 2646SOL    MW410616   0.352   0.195   4.529
 2647SOL     OW10617   0.054   0.870   4.527
 2647SOL    HW210618   0.142   0.833   4.534
 2647SOL    HW310619   0.040   0.883   4.433
 2647SOL    MW410620   0.064   0.867   4.516
 2648SOL     OW10621   4.289   0.772   4.609
 2648SOL    HW210622   4.302   0.679   4.629
 2648SOL    HW310623   4.376   0.803   4.585
 2648SOL    MW410624   4.302   0.764   4.608
 2649SOL     OW10625   0.536   1.244   4.515
 2649SOL    HW210626   0.491   1.326   4.493
 2649SOL    HW310627   0.468   1.189   4.554
 2649SOL    MW410628   0.521   1.248   4.517
 2650SOL     OW10629   0.913   2.013   4.504
 2650SOL    HW210630   1.001   1.998   4.539
 2650SOL    HW310631   0.862   1.938   4.536
 2650SOL    MW410632   0.918   2.001   4.513
 2651SOL     OW10633   4.225   1.231   4.479
 2651SOL    HW210634   4.182   1.156   4.519
 2651SOL    HW310635   4.298   1.251   4.537
 2651SOL    MW410636   4.229   1.224   4.492
 2652SOL     OW10637   0.224   1.806   4.572
 2652SOL    HW210638   0.142   1.764   4.546
 2652SOL    HW310639   0.212   1.898   4.549
 2652SOL    MW410640   0.212   1.813   4.566
 2653SOL     OW10641   0.426   1.629   4.270
 2653SOL    HW210642   0.357   1.598   4.212
 2653SOL    HW310643   0.506   1.589   4.236
 2653SOL    MW410644   0.427   1.620   4.258
 2654SOL     OW10645   0.189   2.072   4.511
 2654SOL    HW210646   0.265   2.122   4.542
 2654SOL    HW310647   0.117   2.100   4.568
 2654SOL    MW410648   0.190   2.082   4.523
 2655SOL     OW10649   4.009   2.307   4.695
 2655SOL    HW210650   4.074   2.252   4.738
 2655SOL    HW310651   4.060   2.371   4.645
 2655SOL    MW410652   4.024   2.308   4.694
 2656SOL     OW10653   0.129   2.804   4.501
 2656SOL    HW210654   0.163   2.725   4.543
 2656SOL    HW310655   0.148   2.792   4.408
 2656SOL    MW410656   0.136   2.792   4.494
 2657SOL     OW10657   0.271   3.048   4.500
 2657SOL    HW210658   0.230   2.962   4.489
 2657SOL    HW310659   0.198   3.109   4.507
 2657SOL    MW410660   0.256   3.045   4.499
 2658SOL     OW10661   4.436   2.388   4.500
 2658SOL    HW210662   4.445   2.385   4.405
 2658SOL    HW310663   4.503   2.451   4.528
 2658SOL    MW410664   4.446   2.396   4.491
 2659SOL     OW10665   4.284   3.354   4.693
 2659SOL    HW210666   4.356   3.299   4.662
 2659SOL    HW310667   4.207   3.323   4.645
 2659SOL    MW410668   4.283   3.343   4.683
 2660SOL     OW10669   0.026   3.207   4.560
 2660SOL    HW210670  -0.007   3.205   4.470
 2660SOL    HW310671   0.081   3.285   4.563
 2660SOL    MW410672   0.029   3.217   4.549
 2661SOL     OW10673   4.348   3.838   4.600
 2661SOL    HW210674   4.276   3.880   4.553
 2661SOL    HW310675   4.358   3.753   4.558
 2661SOL    MW410676   4.340   3.832   4.588
 2662SOL     OW10677   4.211   0.078   4.584
 2662SOL    HW210678   4.128   0.038   4.559
 2662SOL    HW310679   4.187   0.165   4.616
 2662SOL    MW410680   4.197   0.084   4.585
 2663SOL     OW10681   3.833   0.530   4.551
 2663SOL    HW210682   3.747   0.504   4.584
 2663SOL    HW310683   3.840   0.623   4.573
 2663SOL    MW410684   3.823   0.539   4.558
 2664SOL     OW10685   3.897   3.542   4.789
 2664SOL    HW210686   3.991   3.560   4.783
 2664SOL    HW310687   3.872   3.575   4.875
 2664SOL    MW410688   3.906   3.549   4.800
 2665SOL     OW10689   3.883   4.146   4.679
 2665SOL    HW210690   3.863   4.227   4.726
 2665SOL    HW310691   3.808   4.089   4.696
 2665SOL    MW410692   3.870   4.149   4.687
 2666SOL     OW10693   0.480   4.659   4.685
 2666SOL    HW210694   0.494   4.631   4.776
 2666SOL    HW310695   0.417   4.596   4.650
 2666SOL    MW410696   0.474   4.647   4.692
 2667SOL     OW10697   0.108   1.075   4.779
 2667SOL    HW210698   0.060   1.149   4.741
 2667SOL    HW310699   0.072   0.998   4.734
 2667SOL    MW410700   0.097   1.075   4.768
 2668SOL     OW10701   1.428   0.797   4.643
 2668SOL    HW210702   1.392   0.709   4.629
 2668SOL    HW310703   1.357   0.856   4.618
 2668SOL    MW410704   1.414   0.793   4.638
 2669SOL     OW10705   0.500   0.420   4.580
 2669SOL    HW210706   0.445   0.346   4.553
 2669SOL    HW310707   0.550   0.443   4.502
 2669SOL    MW410708   0.499   0.413   4.566
 2670SOL     OW10709   1.233   0.982   4.550
 2670SOL    HW210710   1.260   0.972   4.459
 2670SOL    HW310711   1.146   0.942   4.553
 2670SOL    MW410712   1.225   0.975   4.538
 2671SOL     OW10713   0.345   0.830   4.502
 2671SOL    HW210714   0.339   0.735   4.512
 2671SOL    HW310715   0.362   0.843   4.409
 2671SOL    MW410716   0.346   0.819   4.491
 2672SOL     OW10717   2.018   1.133   4.498
 2672SOL    HW210718   1.989   1.169   4.414
 2672SOL    HW310719   2.067   1.204   4.539
 2672SOL    MW410720   2.021   1.147   4.492
 2673SOL     OW10721   0.398   1.472   4.488
 2673SOL    HW210722   0.366   1.529   4.558
 2673SOL    HW310723   0.411   1.531   4.413
 2673SOL    MW410724   0.395   1.487   4.487
 2674SOL     OW10725   1.263   1.239   4.624
 2674SOL    HW210726   1.247   1.146   4.606
 2674SOL    HW310727   1.190   1.284   4.583
 2674SOL    MW410728   1.251   1.233   4.616
 2675SOL     OW10729   0.934   1.583   4.508
 2675SOL    HW210730   0.870   1.649   4.536
 2675SOL    HW310731   1.002   1.585   4.575
 2675SOL    MW410732   0.935   1.592   4.521
 2676SOL     OW10733   0.664   2.186   4.522
 2676SOL    HW210734   0.713   2.268   4.533
 2676SOL    HW310735   0.731   2.117   4.524
 2676SOL    MW410736   0.679   2.188   4.524
 2677SOL     OW10737   1.180   1.604   4.649
 2677SOL    HW210738   1.221   1.543   4.710
 2677SOL    HW310739   1.248   1.622   4.584
 2677SOL    MW410740   1.194   1.598   4.648
 2678SOL     OW10741   0.416   2.194   4.633
 2678SOL    HW210742   0.498   2.182   4.585
 2678SOL    HW310743   0.395   2.287   4.621
 2678SOL    MW410744   0.424   2.205   4.625
 2679SOL     OW10745   1.155   2.599   4.645
 2679SOL    HW210746   1.113   2.670   4.597
 2679SOL    HW310747   1.247   2.626   4.652
 2679SOL    MW410748   1.162   2.612   4.640
 2680SOL     OW10749   0.648   2.601   4.625
 2680SOL    HW210750   0.650   2.574   4.717
 2680SOL    HW310751   0.723   2.556   4.585
 2680SOL    MW410752   0.658   2.592   4.632
 2681SOL     OW10753   1.066   3.135   4.515
 2681SOL    HW210754   1.113   3.207   4.473
 2681SOL    HW310755   0.974   3.161   4.511
 2681SOL    MW410756   1.060   3.148   4.509
 2682SOL     OW10757   0.502   3.191   4.504
 2682SOL    HW210758   0.501   3.270   4.558
 2682SOL    HW310759   0.429   3.139   4.537
 2682SOL    MW410760   0.492   3.195   4.515
 2683SOL     OW10761   1.277   4.464   4.600
 2683SOL    HW210762   1.215   4.397   4.572
 2683SOL    HW310763   1.362   4.421   4.596
 2683SOL    MW410764   1.280   4.449   4.596
 2684SOL     OW10765   0.125   2.544   4.642
 2684SOL    HW210766   0.213   2.527   4.609
 2684SOL    HW310767   0.126   2.511   4.732
 2684SOL    MW410768   0.137   2.537   4.650
 2685SOL     OW10769   4.363   3.562   4.505
 2685SOL    HW210770   4.321   3.492   4.554
 2685SOL    HW310771   4.308   3.574   4.428
 2685SOL    MW410772   4.350   3.554   4.501
 2686SOL     OW10773   0.866   4.246   4.622
 2686SOL    HW210774   0.815   4.165   4.629
 2686SOL    HW310775   0.803   4.312   4.592
 2686SOL    MW410776   0.851   4.244   4.619
 2687SOL     OW10777   0.136   4.291   4.503
 2687SOL    HW210778   0.129   4.196   4.492
 2687SOL    HW310779   0.049   4.319   4.532
 2687SOL    MW410780   0.124   4.282   4.505
 2688SOL     OW10781   0.082   4.008   4.530
 2688SOL    HW210782   0.159   3.953   4.517
 2688SOL    HW310783   0.021   3.952   4.578
 2688SOL    MW410784   0.084   3.994   4.535
 2689SOL     OW10785   0.245   4.547   4.586
 2689SOL    HW210786   0.168   4.603   4.593
 2689SOL    HW310787   0.210   4.458   4.580
 2689SOL    MW410788   0.230   4.543   4.586
 2690SOL     OW10789   1.034   0.173   4.551
 2690SOL    HW210790   1.010   0.099   4.607
 2690SOL    HW310791   0.996   0.152   4.466
 2690SOL    MW410792   1.026   0.160   4.547
 2691SOL     OW10793   0.967   4.610   4.676
 2691SOL    HW210794   0.877   4.589   4.649
 2691SOL    HW310795   1.014   4.527   4.667
 2691SOL    MW410796   0.961   4.596   4.671
 2692SOL     OW10797   0.850   0.603   4.592
 2692SOL    HW210798   0.783   0.604   4.661
 2692SOL    HW310799   0.801   0.587   4.511
 2692SOL    MW410800   0.835   0.601   4.590
 2693SOL     OW10801   1.596   0.979   4.552
 2693SOL    HW210802   1.534   0.921   4.596
 2693SOL    HW310803   1.671   0.982   4.611
 2693SOL    MW410804   1.598   0.972   4.566
 2694SOL     OW10805   1.707   0.741   4.438
 2694SOL    HW210806   1.664   0.817   4.478
 2694SOL    HW310807   1.700   0.756   4.344
 2694SOL    MW410808   1.700   0.753   4.431
 2695SOL     OW10809   0.312   1.104   4.586
 2695SOL    HW210810   0.310   1.012   4.558
 2695SOL    HW310811   0.259   1.106   4.665
 2695SOL    MW410812   0.305   1.092   4.593
 2696SOL     OW10813   0.765   1.789   4.606
 2696SOL    HW210814   0.673   1.784   4.630
 2696SOL    HW310815   0.811   1.800   4.689
 2696SOL    MW410816   0.759   1.790   4.620
 2697SOL     OW10817   0.818   1.188   4.587
 2697SOL    HW210818   0.724   1.196   4.572
 2697SOL    HW310819   0.837   1.096   4.570
 2697SOL    MW410820   0.808   1.177   4.583
 2698SOL     OW10821   1.838   0.984   4.672
 2698SOL    HW210822   1.869   0.900   4.637
 2698SOL    HW310823   1.864   1.048   4.606
 2698SOL    MW410824   1.845   0.981   4.659
 2699SOL     OW10825   1.036   1.325   4.465
 2699SOL    HW210826   0.967   1.276   4.509
 2699SOL    HW310827   1.006   1.416   4.467
 2699SOL    MW410828   1.023   1.331   4.471
 2700SOL     OW10829   1.061   2.324   4.630
 2700SOL    HW210830   1.092   2.409   4.662
 2700SOL    HW310831   1.115   2.307   4.553
 2700SOL    MW410832   1.072   2.333   4.624
 2701SOL     OW10833   1.432   2.689   4.628
 2701SOL    HW210834   1.483   2.648   4.558
 2701SOL    HW310835   1.497   2.714   4.694
 2701SOL    MW410836   1.447   2.687   4.627
 2702SOL     OW10837   1.541   2.839   4.327
 2702SOL    HW210838   1.612   2.830   4.390
 2702SOL    HW310839   1.465   2.863   4.380
 2702SOL    MW410840   1.540   2.841   4.342
 2703SOL     OW10841   1.238   3.502   4.621
 2703SOL    HW210842   1.329   3.517   4.646
 2703SOL    HW310843   1.241   3.424   4.566
 2703SOL    MW410844   1.250   3.494   4.617
 2704SOL     OW10845   0.784   2.853   4.478
 2704SOL    HW210846   0.863   2.804   4.499
 2704SOL    HW310847   0.716   2.814   4.533
 2704SOL    MW410848   0.785   2.841   4.488
 2705SOL     OW10849   0.524   3.900   4.507
 2705SOL    HW210850   0.586   3.942   4.567
 2705SOL    HW310851   0.519   3.960   4.432
 2705SOL    MW410852   0.532   3.913   4.505
 2706SOL     OW10853   1.066   2.858   4.519
 2706SOL    HW210854   1.062   2.865   4.424
 2706SOL    HW310855   1.048   2.947   4.550
 2706SOL    MW410856   1.063   2.871   4.511
 2707SOL     OW10857   0.794   3.138   4.459
 2707SOL    HW210858   0.703   3.149   4.487
 2707SOL    HW310859   0.803   3.045   4.440
 2707SOL    MW410860   0.783   3.127   4.460
 2708SOL     OW10861   1.519   3.511   4.568
 2708SOL    HW210862   1.578   3.578   4.602
 2708SOL    HW310863   1.570   3.430   4.573
 2708SOL    MW410864   1.533   3.509   4.573
 2709SOL     OW10865   0.475   3.415   4.659
 2709SOL    HW210866   0.535   3.489   4.649
 2709SOL    HW310867   0.390   3.455   4.675
 2709SOL    MW410868   0.472   3.430   4.660
 2710SOL     OW10869   0.260   3.817   4.472
 2710SOL    HW210870   0.355   3.821   4.483
 2710SOL    HW310871   0.246   3.750   4.405
 2710SOL    MW410872   0.271   3.809   4.465
 2711SOL     OW10873   0.755   3.978   4.668
 2711SOL    HW210874   0.804   3.930   4.601
 2711SOL    HW310875   0.815   3.983   4.743
 2711SOL    MW410876   0.769   3.972   4.669
 2712SOL     OW10877   0.720   4.526   4.554
 2712SOL    HW210878   0.652   4.587   4.582
 2712SOL    HW310879   0.689   4.493   4.470
 2712SOL    MW410880   0.707   4.530   4.547
 2713SOL     OW10881   1.728   3.898   4.855
 2713SOL    HW210882   1.731   3.808   4.822
 2713SOL    HW310883   1.662   3.941   4.800
 2713SOL    MW410884   1.720   3.892   4.843
 2714SOL     OW10885   1.523   4.331   4.541
 2714SOL    HW210886   1.591   4.393   4.566
 2714SOL    HW310887   1.522   4.333   4.445
 2714SOL    MW410888   1.532   4.339   4.532
 2715SOL     OW10889   1.100   4.257   4.499
 2715SOL    HW210890   1.150   4.176   4.507
 2715SOL    HW310891   1.029   4.247   4.562
 2715SOL    MW410892   1.097   4.245   4.508
 2716SOL     OW10893   1.098   0.448   4.550
 2716SOL    HW210894   1.018   0.496   4.572
 2716SOL    HW310895   1.070   0.356   4.546
 2716SOL    MW410896   1.084   0.442   4.552
 2717SOL     OW10897   1.611   0.090   4.565
 2717SOL    HW210898   1.516   0.080   4.556
 2717SOL    HW310899   1.643   0.001   4.583
 2717SOL    MW410900   1.603   0.077   4.566
 2718SOL     OW10901   1.362   0.524   4.614
 2718SOL    HW210902   1.270   0.500   4.603
 2718SOL    HW310903   1.376   0.523   4.709
 2718SOL    MW410904   1.352   0.521   4.625
 2719SOL     OW10905   1.807   1.644   4.541
 2719SOL    HW210906   1.738   1.586   4.573
 2719SOL    HW310907   1.780   1.667   4.452
 2719SOL    MW410908   1.794   1.639   4.533
 2720SOL     OW10909   0.939   0.869   4.557
 2720SOL    HW210910   0.915   0.890   4.467
 2720SOL    HW310911   0.901   0.783   4.572
 2720SOL    MW410912   0.931   0.860   4.547
 2721SOL     OW10913   2.036   0.459   4.509
 2721SOL    HW210914   2.113   0.416   4.548
 2721SOL    HW310915   1.964   0.399   4.527
 2721SOL    MW410916   2.037   0.445   4.516
 2722SOL     OW10917   1.507   1.230   4.519
 2722SOL    HW210918   1.414   1.227   4.543
 2722SOL    HW310919   1.536   1.139   4.525
 2722SOL    MW410920   1.499   1.218   4.523
 2723SOL     OW10921   1.396   1.660   4.475
 2723SOL    HW210922   1.462   1.605   4.517
 2723SOL    HW310923   1.382   1.619   4.390
 2723SOL    MW410924   1.403   1.647   4.469
 2724SOL     OW10925   1.348   2.909   4.519
 2724SOL    HW210926   1.253   2.909   4.532
 2724SOL    HW310927   1.378   2.833   4.569
 2724SOL    MW410928   1.339   2.899   4.527
 2725SOL     OW10929   2.242   2.440   4.293
 2725SOL    HW210930   2.328   2.426   4.253
 2725SOL    HW310931   2.238   2.534   4.309
 2725SOL    MW410932   2.253   2.451   4.290
 2726SOL     OW10933   0.818   2.410   4.508
 2726SOL    HW210934   0.892   2.362   4.545
 2726SOL    HW310935   0.842   2.425   4.417
 2726SOL    MW410936   0.831   2.406   4.501
 2727SOL     OW10937   1.285   4.012   4.521
 2727SOL    HW210938   1.254   3.924   4.540
 2727SOL    HW310939   1.372   4.016   4.560
 2727SOL    MW410940   1.292   4.001   4.529
 2728SOL     OW10941   1.203   2.299   4.390
 2728SOL    HW210942   1.239   2.366   4.332
 2728SOL    HW310943   1.274   2.235   4.399
 2728SOL    MW410944   1.217   2.299   4.384
 2729SOL     OW10945   1.590   2.297   4.530
 2729SOL    HW210946   1.685   2.296   4.520
 2729SOL    HW310947   1.562   2.376   4.483
 2729SOL    MW410948   1.599   2.307   4.523
 2730SOL     OW10949   1.411   3.187   4.486
 2730SOL    HW210950   1.495   3.212   4.524
 2730SOL    HW310951   1.399   3.095   4.511
 2730SOL    MW410952   1.421   3.178   4.494
 2731SOL     OW10953   1.145   3.755   4.518
 2731SOL    HW210954   1.169   3.679   4.570
 2731SOL    HW310955   1.153   3.725   4.427
 2731SOL    MW410956   1.149   3.741   4.513
 2732SOL     OW10957   0.631   3.643   4.542
 2732SOL    HW210958   0.592   3.730   4.533
 2732SOL    HW310959   0.725   3.659   4.537
 2732SOL    MW410960   0.638   3.656   4.540
 2733SOL     OW10961   1.977   3.585   4.586
 2733SOL    HW210962   1.974   3.608   4.493
 2733SOL    HW310963   1.991   3.490   4.586
 2733SOL    MW410964   1.978   3.576   4.574
 2734SOL     OW10965   1.669   3.275   4.590
 2734SOL    HW210966   1.691   3.197   4.642
 2734SOL    HW310967   1.727   3.270   4.514
 2734SOL    MW410968   1.680   3.264   4.587
 2735SOL     OW10969   2.362   3.474   4.441
 2735SOL    HW210970   2.327   3.531   4.510
 2735SOL    HW310971   2.331   3.386   4.463
 2735SOL    MW410972   2.353   3.470   4.453
 2736SOL     OW10973   0.885   3.820   4.494
 2736SOL    HW210974   0.894   3.887   4.426
 2736SOL    HW310975   0.974   3.790   4.511
 2736SOL    MW410976   0.898   3.825   4.487
 2737SOL     OW10977   1.991   3.894   4.771
 2737SOL    HW210978   1.922   3.904   4.836
 2737SOL    HW310979   2.028   3.807   4.787
 2737SOL    MW410980   1.987   3.884   4.782
 2738SOL     OW10981   2.282   0.359   4.622
 2738SOL    HW210982   2.363   0.405   4.600
 2738SOL    HW310983   2.284   0.351   4.717
 2738SOL    MW410984   2.293   0.364   4.632
 2739SOL     OW10985   1.317   0.059   4.525
 2739SOL    HW210986   1.235   0.105   4.544
 2739SOL    HW310987   1.299  -0.033   4.546
 2739SOL    MW410988   1.304   0.053   4.530
 2740SOL     OW10989   1.767   0.287   4.494
 2740SOL    HW210990   1.723   0.212   4.534
 2740SOL    HW310991   1.699   0.354   4.486
 2740SOL    MW410992   1.752   0.286   4.498
 2741SOL     OW10993   2.341   0.096   4.526
 2741SOL    HW210994   2.304   0.093   4.438
 2741SOL    HW310995   2.322   0.185   4.557
 2741SOL    MW410996   2.334   0.107   4.518
 2742SOL     OW10997   1.945   0.751   4.571
 2742SOL    HW210998   1.975   0.663   4.595
 2742SOL    HW310999   1.866   0.736   4.519
 2742SOL    MW411000   1.939   0.737   4.567
 2743SOL     OW11001   1.588   0.502   4.466
 2743SOL    HW211002   1.632   0.583   4.493
 2743SOL    HW311003   1.504   0.505   4.511
 2743SOL    MW411004   1.583   0.513   4.475
 2744SOL     OW11005   2.066   1.587   4.644
 2744SOL    HW211006   2.080   1.493   4.651
 2744SOL    HW311007   1.983   1.595   4.596
 2744SOL    MW411008   2.057   1.576   4.639
 2745SOL     OW11009   1.006   1.804   4.762
 2745SOL    HW211010   1.078   1.752   4.727
 2745SOL    HW311011   1.046   1.888   4.784
 2745SOL    MW411012   1.021   1.808   4.760
 2746SOL     OW11013   1.559   1.500   4.615
 2746SOL    HW211014   1.545   1.413   4.577
 2746SOL    HW311015   1.502   1.502   4.692
 2746SOL    MW411016   1.550   1.489   4.620
 2747SOL     OW11017   1.161   2.055   4.717
 2747SOL    HW211018   1.250   2.063   4.682
 2747SOL    HW311019   1.119   2.139   4.697
 2747SOL    MW411020   1.167   2.067   4.710
 2748SOL     OW11021   1.525   1.925   4.425
 2748SOL    HW211022   1.619   1.908   4.432
 2748SOL    HW311023   1.484   1.840   4.439
 2748SOL    MW411024   1.532   1.911   4.428
 2749SOL     OW11025   2.056   2.075   4.193
 2749SOL    HW211026   1.974   2.029   4.177
 2749SOL    HW311027   2.036   2.167   4.173
 2749SOL    MW411028   2.043   2.081   4.188
 2750SOL     OW11029   1.427   2.103   4.638
 2750SOL    HW211030   1.475   2.028   4.601
 2750SOL    HW311031   1.478   2.179   4.612
 2750SOL    MW411032   1.440   2.103   4.630
 2751SOL     OW11033   2.263   3.207   4.456
 2751SOL    HW211034   2.296   3.126   4.494
 2751SOL    HW311035   2.178   3.184   4.420
 2751SOL    MW411036   2.256   3.193   4.456
 2752SOL     OW11037   1.637   2.823   4.769
 2752SOL    HW211038   1.680   2.908   4.757
 2752SOL    HW311039   1.707   2.759   4.761
 2752SOL    MW411040   1.652   2.826   4.766
 2753SOL     OW11041   1.775   3.940   4.494
 2753SOL    HW211042   1.773   3.950   4.399
 2753SOL    HW311043   1.854   3.988   4.521
 2753SOL    MW411044   1.785   3.948   4.485
 2754SOL     OW11045   2.374   3.284   4.746
 2754SOL    HW211046   2.451   3.313   4.697
 2754SOL    HW311047   2.312   3.256   4.679
 2754SOL    MW411048   2.376   3.284   4.731
 2755SOL     OW11049   1.992   3.313   4.614
 2755SOL    HW211050   1.909   3.309   4.662
 2755SOL    HW311051   2.036   3.231   4.635
 2755SOL    MW411052   1.987   3.302   4.623
 2756SOL     OW11053   2.659   3.832   4.482
 2756SOL    HW211054   2.624   3.778   4.411
 2756SOL    HW311055   2.677   3.917   4.441
 2756SOL    MW411056   2.657   3.836   4.467
 2757SOL     OW11057   2.372   3.880   4.562
 2757SOL    HW211058   2.329   3.800   4.591
 2757SOL    HW311059   2.465   3.864   4.576
 2757SOL    MW411060   2.379   3.867   4.568
 2758SOL     OW11061   2.242   3.633   4.653
 2758SOL    HW211062   2.149   3.623   4.631
 2758SOL    HW311063   2.253   3.584   4.735
 2758SOL    MW411064   2.231   3.625   4.661
 2759SOL     OW11065   1.731   3.694   4.659
 2759SOL    HW211066   1.817   3.653   4.664
 2759SOL    HW311067   1.747   3.778   4.615
 2759SOL    MW411068   1.745   3.700   4.654
 2760SOL     OW11069   2.000   4.098   4.589
 2760SOL    HW211070   2.079   4.087   4.536
 2760SOL    HW311071   2.013   4.040   4.664
 2760SOL    MW411072   2.012   4.089   4.592
 2761SOL     OW11073   1.724   4.520   4.633
 2761SOL    HW211074   1.803   4.471   4.610
 2761SOL    HW311075   1.722   4.518   4.729
 2761SOL    MW411076   1.734   4.513   4.643
 2762SOL     OW11077   1.961   4.398   4.566
 2762SOL    HW211078   1.973   4.304   4.581
 2762SOL    HW311079   2.045   4.437   4.591
 2762SOL    MW411080   1.974   4.391   4.571
 2763SOL     OW11081   2.203   4.502   4.624
 2763SOL    HW211082   2.271   4.443   4.591
 2763SOL    HW311083   2.228   4.588   4.590
 2763SOL    MW411084   2.215   4.506   4.615
 2764SOL     OW11085   1.359   1.429   4.807
 2764SOL    HW211086   1.353   1.414   4.901
 2764SOL    HW311087   1.330   1.346   4.768
 2764SOL    MW411088   1.354   1.416   4.814
 2765SOL     OW11089   2.618   0.020   4.509
 2765SOL    HW211090   2.539   0.074   4.508
 2765SOL    HW311091   2.639   0.007   4.416
 2765SOL    MW411092   2.610   0.025   4.497
 2766SOL     OW11093   2.443   0.771   4.571
 2766SOL    HW211094   2.365   0.823   4.549
 2766SOL    HW311095   2.516   0.831   4.558
 2766SOL    MW411096   2.442   0.786   4.566
 2767SOL     OW11097   2.959   0.769   4.637
 2767SOL    HW211098   3.014   0.712   4.691
 2767SOL    HW311099   3.015   0.844   4.617
 2767SOL    MW411100   2.974   0.771   4.641
 2768SOL     OW11101   2.166   1.322   4.647
 2768SOL    HW211102   2.129   1.273   4.720
 2768SOL    HW311103   2.259   1.300   4.648
 2768SOL    MW411104   2.173   1.313   4.657
 2769SOL     OW11105   2.458   1.307   4.577
 2769SOL    HW211106   2.549   1.279   4.586
 2769SOL    HW311107   2.462   1.403   4.582
 2769SOL    MW411108   2.471   1.316   4.579
 2770SOL     OW11109   2.500   1.592   4.563
 2770SOL    HW211110   2.569   1.654   4.540
 2770SOL    HW311111   2.424   1.647   4.581
 2770SOL    MW411112   2.499   1.607   4.562
 2771SOL     OW11113   2.284   1.767   4.588
 2771SOL    HW211114   2.268   1.757   4.494
 2771SOL    HW311115   2.209   1.724   4.629
 2771SOL    MW411116   2.272   1.760   4.581
 2772SOL     OW11117   2.194   2.184   4.417
 2772SOL    HW211118   2.213   2.274   4.389
 2772SOL    HW311119   2.140   2.148   4.347
 2772SOL    MW411120   2.189   2.191   4.404
 2773SOL     OW11121   2.336   2.061   4.624
 2773SOL    HW211122   2.309   1.969   4.625
 2773SOL    HW311123   2.278   2.103   4.561
 2773SOL    MW411124   2.325   2.054   4.616
 2774SOL     OW11125   2.705   2.446   4.530
 2774SOL    HW211126   2.610   2.457   4.539
 2774SOL    HW311127   2.742   2.530   4.557
 2774SOL    MW411128   2.697   2.459   4.535
 2775SOL     OW11129   1.813   2.637   4.682
 2775SOL    HW211130   1.869   2.651   4.606
 2775SOL    HW311131   1.860   2.573   4.736
 2775SOL    MW411132   1.827   2.630   4.679
 2776SOL     OW11133   2.089   3.051   4.707
 2776SOL    HW211134   2.127   3.022   4.790
 2776SOL    HW311135   2.113   2.982   4.644
 2776SOL    MW411136   2.097   3.038   4.710
 2777SOL     OW11137   2.590   3.351   4.561
 2777SOL    HW211138   2.601   3.288   4.489
 2777SOL    HW311139   2.528   3.415   4.527
 2777SOL    MW411140   2.583   3.351   4.547
 2778SOL     OW11141   2.394   3.030   4.839
 2778SOL    HW211142   2.472   3.026   4.895
 2778SOL    HW311143   2.382   3.123   4.820
 2778SOL    MW411144   2.403   3.042   4.844
 2779SOL     OW11145   1.543   4.062   4.606
 2779SOL    HW211146   1.555   4.156   4.595
 2779SOL    HW311147   1.618   4.023   4.561
 2779SOL    MW411148   1.554   4.069   4.599
 2780SOL     OW11149   2.669   4.384   4.528
 2780SOL    HW211150   2.592   4.333   4.552
 2780SOL    HW311151   2.638   4.475   4.527
 2780SOL    MW411152   2.655   4.389   4.531
 2781SOL     OW11153   1.826   3.024   4.691
 2781SOL    HW211154   1.830   2.978   4.607
 2781SOL    HW311155   1.918   3.036   4.716
 2781SOL    MW411156   1.839   3.020   4.683
 2782SOL     OW11157   3.416   3.928   4.876
 2782SOL    HW211158   3.360   4.005   4.862
 2782SOL    HW311159   3.389   3.894   4.961
 2782SOL    MW411160   3.405   3.934   4.885
 2783SOL     OW11161   3.103   3.932   4.510
 2783SOL    HW211162   3.034   3.872   4.538
 2783SOL    HW311163   3.183   3.893   4.545
 2783SOL    MW411164   3.104   3.919   4.518
 2784SOL     OW11165   2.238   4.093   4.456
 2784SOL    HW211166   2.286   4.019   4.494
 2784SOL    HW311167   2.215   4.064   4.368
 2784SOL    MW411168   2.241   4.080   4.449
 2785SOL     OW11169   2.393   4.311   4.544
 2785SOL    HW211170   2.342   4.231   4.528
 2785SOL    HW311171   2.417   4.342   4.457
 2785SOL    MW411172   2.389   4.305   4.530
 2786SOL     OW11173   3.077   0.417   4.559
 2786SOL    HW211174   3.045   0.444   4.473
 2786SOL    HW311175   3.163   0.459   4.567
 2786SOL    MW411176   3.084   0.426   4.549
 2787SOL     OW11177   2.955   0.169   4.546
 2787SOL    HW211178   2.861   0.176   4.530
 2787SOL    HW311179   2.983   0.258   4.569
 2787SOL    MW411180   2.946   0.182   4.547
 2788SOL     OW11181   3.251   0.145   4.527
 2788SOL    HW211182   3.204   0.066   4.555
 2788SOL    HW311183   3.193   0.217   4.551
 2788SOL    MW411184   3.237   0.144   4.534
 2789SOL     OW11185   2.707   0.909   4.546
 2789SOL    HW211186   2.768   0.845   4.583
 2789SOL    HW311187   2.716   0.898   4.451
 2789SOL    MW411188   2.716   0.899   4.538
 2790SOL     OW11189   3.505   0.654   4.837
 2790SOL    HW211190   3.517   0.574   4.786
 2790SOL    HW311191   3.594   0.687   4.851
 2790SOL    MW411192   3.518   0.648   4.832
 2791SOL     OW11193   2.192   0.877   4.510
 2791SOL    HW211194   2.154   0.960   4.541
 2791SOL    HW311195   2.124   0.812   4.527
 2791SOL    MW411196   2.178   0.879   4.516
 2792SOL     OW11197   2.698   1.211   4.632
 2792SOL    HW211198   2.777   1.258   4.605
 2792SOL    HW311199   2.715   1.120   4.609
 2792SOL    MW411200   2.711   1.205   4.625
 2793SOL     OW11201   2.932   1.346   4.544
 2793SOL    HW211202   2.902   1.435   4.560
 2793SOL    HW311203   2.939   1.340   4.449
 2793SOL    MW411204   2.929   1.357   4.534
 2794SOL     OW11205   2.871   1.601   4.633
 2794SOL    HW211206   2.808   1.669   4.608
 2794SOL    HW311207   2.841   1.572   4.719
 2794SOL    MW411208   2.859   1.606   4.641
 2795SOL     OW11209   2.698   1.777   4.507
 2795SOL    HW211210   2.683   1.872   4.504
 2795SOL    HW311211   2.697   1.749   4.415
 2795SOL    MW411212   2.696   1.786   4.494
 2796SOL     OW11213   2.617   2.078   4.534
 2796SOL    HW211214   2.687   2.126   4.578
 2796SOL    HW311215   2.541   2.089   4.591
 2796SOL    MW411216   2.616   2.086   4.547
 2797SOL     OW11217   2.871   2.211   4.574
 2797SOL    HW211218   2.815   2.289   4.573
 2797SOL    HW311219   2.875   2.183   4.482
 2797SOL    MW411220   2.864   2.218   4.562
 2798SOL     OW11221   3.131   2.200   4.684
 2798SOL    HW211222   3.116   2.225   4.775
 2798SOL    HW311223   3.043   2.186   4.649
 2798SOL    MW411224   3.117   2.201   4.691
 2799SOL     OW11225   2.382   2.967   4.559
 2799SOL    HW211226   2.379   2.954   4.654
 2799SOL    HW311227   2.295   2.941   4.529
 2799SOL    MW411228   2.370   2.962   4.568
 2800SOL     OW11229   3.349   3.108   4.606
 2800SOL    HW211230   3.343   3.019   4.641
 2800SOL    HW311231   3.440   3.117   4.578
 2800SOL    MW411232   3.360   3.097   4.607
 2801SOL     OW11233   2.672   2.948   4.612
 2801SOL    HW211234   2.578   2.966   4.608
 2801SOL    HW311235   2.709   3.000   4.541
 2801SOL    MW411236   2.665   2.957   4.602
 2802SOL     OW11237   2.833   3.487   4.584
 2802SOL    HW211238   2.755   3.435   4.605
 2802SOL    HW311239   2.906   3.425   4.591
 2802SOL    MW411240   2.832   3.472   4.588
 2803SOL     OW11241   2.787   3.135   4.426
 2803SOL    HW211242   2.840   3.184   4.489
 2803SOL    HW311243   2.851   3.093   4.369
 2803SOL    MW411244   2.802   3.136   4.427
 2804SOL     OW11245   2.952   4.382   4.525
 2804SOL    HW211246   2.984   4.308   4.577
 2804SOL    HW311247   2.857   4.374   4.530
 2804SOL    MW411248   2.944   4.371   4.532
 2805SOL     OW11249   3.351   3.835   4.603
 2805SOL    HW211250   3.370   3.744   4.579
 2805SOL    HW311251   3.376   3.841   4.695
 2805SOL    MW411252   3.357   3.824   4.612
 2806SOL     OW11253   3.823   3.774   4.594
 2806SOL    HW211254   3.853   3.698   4.644
 2806SOL    HW311255   3.823   3.744   4.503
 2806SOL    MW411256   3.827   3.760   4.589
 2807SOL     OW11257   2.886   3.774   4.621
 2807SOL    HW211258   2.808   3.793   4.568
 2807SOL    HW311259   2.885   3.679   4.632
 2807SOL    MW411260   2.876   3.764   4.615
 2808SOL     OW11261   3.037   4.169   4.665
 2808SOL    HW211262   2.965   4.132   4.716
 2808SOL    HW311263   3.065   4.098   4.607
 2808SOL    MW411264   3.031   4.155   4.664
 2809SOL     OW11265   3.108   4.593   4.624
 2809SOL    HW211266   3.063   4.520   4.581
 2809SOL    HW311267   3.050   4.668   4.610
 2809SOL    MW411268   3.094   4.593   4.617
 2810SOL     OW11269   3.334   0.520   4.541
 2810SOL    HW211270   3.343   0.521   4.446
 2810SOL    HW311271   3.349   0.611   4.568
 2810SOL    MW411272   3.337   0.532   4.532
 2811SOL     OW11273   2.498   0.489   4.548
 2811SOL    HW211274   2.594   0.486   4.547
 2811SOL    HW311275   2.477   0.578   4.575
 2811SOL    MW411276   2.508   0.500   4.551
 2812SOL     OW11277   2.031   1.137   4.817
 2812SOL    HW211278   1.963   1.092   4.766
 2812SOL    HW311279   2.008   1.119   4.908
 2812SOL    MW411280   2.019   1.129   4.822
 2813SOL     OW11281   2.767   0.555   4.538
 2813SOL    HW211282   2.835   0.520   4.480
 2813SOL    HW311283   2.813   0.615   4.596
 2813SOL    MW411284   2.782   0.558   4.538
 2814SOL     OW11285   3.393   0.798   4.631
 2814SOL    HW211286   3.466   0.852   4.601
 2814SOL    HW311287   3.424   0.759   4.713
 2814SOL    MW411288   3.407   0.800   4.638
 2815SOL     OW11289   3.430   1.308   4.551
 2815SOL    HW211290   3.355   1.256   4.580
 2815SOL    HW311291   3.506   1.256   4.576
 2815SOL    MW411292   3.430   1.294   4.558
 2816SOL     OW11293   2.688   1.472   4.824
 2816SOL    HW211294   2.676   1.378   4.812
 2816SOL    HW311295   2.613   1.512   4.780
 2816SOL    MW411296   2.676   1.465   4.817
 2817SOL     OW11297   3.893   1.019   4.708
 2817SOL    HW211298   3.976   0.998   4.665
 2817SOL    HW311299   3.918   1.068   4.786
 2817SOL    MW411300   3.907   1.023   4.713
 2818SOL     OW11301   3.405   1.591   4.585
 2818SOL    HW211302   3.316   1.626   4.591
 2818SOL    HW311303   3.392   1.496   4.577
 2818SOL    MW411304   3.392   1.583   4.585
 2819SOL     OW11305   3.145   1.699   4.555
 2819SOL    HW211306   3.161   1.789   4.582
 2819SOL    HW311307   3.061   1.676   4.594
 2819SOL    MW411308   3.136   1.708   4.564
 2820SOL     OW11309   3.259   1.973   4.590
 2820SOL    HW211310   3.210   2.046   4.627
 2820SOL    HW311311   3.286   2.004   4.503
 2820SOL    MW411312   3.256   1.987   4.583
 2821SOL     OW11313   3.634   1.781   4.646
 2821SOL    HW211314   3.577   1.844   4.691
 2821SOL    HW311315   3.576   1.707   4.625
 2821SOL    MW411316   3.619   1.780   4.649
 2822SOL     OW11317   2.827   2.702   4.520
 2822SOL    HW211318   2.781   2.772   4.566
 2822SOL    HW311319   2.918   2.710   4.549
 2822SOL    MW411320   2.833   2.712   4.530
 2823SOL     OW11321   3.514   2.451   4.497
 2823SOL    HW211322   3.419   2.461   4.498
 2823SOL    HW311323   3.547   2.529   4.542
 2823SOL    MW411324   3.506   2.463   4.503
 2824SOL     OW11325   3.212   2.441   4.521
 2824SOL    HW211326   3.187   2.453   4.429
 2824SOL    HW311327   3.146   2.382   4.557
 2824SOL    MW411328   3.200   2.435   4.514
 2825SOL     OW11329   3.616   2.656   4.659
 2825SOL    HW211330   3.688   2.714   4.633
 2825SOL    HW311331   3.659   2.583   4.703
 2825SOL    MW411332   3.631   2.654   4.661
 2826SOL     OW11333   2.990   3.265   4.588
 2826SOL    HW211334   3.073   3.286   4.546
 2826SOL    HW311335   3.014   3.211   4.663
 2826SOL    MW411336   3.004   3.261   4.592
 2827SOL     OW11337   3.368   2.822   4.582
 2827SOL    HW211338   3.383   2.838   4.489
 2827SOL    HW311339   3.443   2.769   4.609
 2827SOL    MW411340   3.380   2.817   4.573
 2828SOL     OW11341   4.170   2.490   4.547
 2828SOL    HW211342   4.260   2.460   4.536
 2828SOL    HW311343   4.177   2.585   4.553
 2828SOL    MW411344   4.183   2.499   4.546
 2829SOL     OW11345   3.619   3.101   4.550
 2829SOL    HW211346   3.683   3.157   4.594
 2829SOL    HW311347   3.629   3.121   4.457
 2829SOL    MW411348   3.629   3.111   4.544
 2830SOL     OW11349   3.499   4.058   4.500
 2830SOL    HW211350   3.565   4.054   4.569
 2830SOL    HW311351   3.450   3.976   4.509
 2830SOL    MW411352   3.501   4.047   4.510
 2831SOL     OW11353   3.260   4.163   4.821
 2831SOL    HW211354   3.297   4.251   4.812
 2831SOL    HW311355   3.179   4.165   4.769
 2831SOL    MW411356   3.254   4.175   4.813
 2832SOL     OW11357   3.301   4.427   4.762
 2832SOL    HW211358   3.333   4.392   4.679
 2832SOL    HW311359   3.221   4.475   4.739
 2832SOL    MW411360   3.295   4.429   4.748
 2833SOL     OW11361   3.421   4.351   4.533
 2833SOL    HW211362   3.432   4.256   4.528
 2833SOL    HW311363   3.510   4.386   4.530
 2833SOL    MW411364   3.434   4.343   4.532
 2834SOL     OW11365   3.659   3.985   4.715
 2834SOL    HW211366   3.673   3.902   4.670
 2834SOL    HW311367   3.611   3.961   4.795
 2834SOL    MW411368   3.655   3.971   4.720
 2835SOL     OW11369   3.521   0.172   4.645
 2835SOL    HW211370   3.514   0.098   4.705
 2835SOL    HW311371   3.432   0.184   4.611
 2835SOL    MW411372   3.508   0.164   4.648
 2836SOL     OW11373   3.159   0.950   4.545
 2836SOL    HW211374   3.157   1.028   4.601
 2836SOL    HW311375   3.239   0.905   4.570
 2836SOL    MW411376   3.169   0.954   4.556
 2837SOL     OW11377   3.185   1.202   4.650
 2837SOL    HW211378   3.162   1.230   4.738
 2837SOL    HW311379   3.124   1.248   4.593
 2837SOL    MW411380   3.174   1.212   4.654
 2838SOL     OW11381   4.091   1.454   4.569
 2838SOL    HW211382   4.124   1.375   4.526
 2838SOL    HW311383   3.996   1.443   4.570
 2838SOL    MW411384   4.083   1.442   4.563
 2839SOL     OW11385   3.682   1.183   4.599
 2839SOL    HW211386   3.721   1.264   4.567
 2839SOL    HW311387   3.756   1.132   4.632
 2839SOL    MW411388   3.697   1.187   4.599
 2840SOL     OW11389   4.107   0.967   4.525
 2840SOL    HW211390   4.164   0.895   4.550
 2840SOL    HW311391   4.094   0.956   4.431
 2840SOL    MW411392   4.113   0.956   4.516
 2841SOL     OW11393   4.301   0.457   4.572
 2841SOL    HW211394   4.296   0.469   4.477
 2841SOL    HW311395   4.210   0.446   4.599
 2841SOL    MW411396   4.288   0.457   4.563
 2842SOL     OW11397   3.618   1.573   4.414
 2842SOL    HW211398   3.606   1.644   4.351
 2842SOL    HW311399   3.544   1.582   4.474
 2842SOL    MW411400   3.607   1.584   4.414
 2843SOL     OW11401   3.895   1.840   4.701
 2843SOL    HW211402   3.812   1.794   4.688
 2843SOL    HW311403   3.878   1.930   4.674
 2843SOL    MW411404   3.882   1.846   4.696
 2844SOL     OW11405   3.493   2.012   4.749
 2844SOL    HW211406   3.520   2.090   4.700
 2844SOL    HW311407   3.416   1.980   4.702
 2844SOL    MW411408   3.486   2.018   4.736
 2845SOL     OW11409   4.172   2.147   4.858
 2845SOL    HW211410   4.172   2.051   4.852
 2845SOL    HW311411   4.176   2.165   4.952
 2845SOL    MW411412   4.173   2.137   4.870
 2846SOL     OW11413   4.175   1.872   4.818
 2846SOL    HW211414   4.086   1.844   4.797
 2846SOL    HW311415   4.225   1.790   4.821
 2846SOL    MW411416   4.170   1.858   4.816
 2847SOL     OW11417   3.842   2.085   4.576
 2847SOL    HW211418   3.900   2.147   4.619
 2847SOL    HW311419   3.754   2.119   4.593
 2847SOL    MW411420   3.838   2.098   4.584
 2848SOL     OW11421   3.751   2.431   4.782
 2848SOL    HW211422   3.835   2.399   4.748
 2848SOL    HW311423   3.765   2.438   4.877
 2848SOL    MW411424   3.764   2.428   4.790
 2849SOL     OW11425   3.792   2.865   4.581
 2849SOL    HW211426   3.877   2.907   4.595
 2849SOL    HW311427   3.730   2.938   4.572
 2849SOL    MW411428   3.795   2.880   4.582
 2850SOL     OW11429   4.047   2.986   4.631
 2850SOL    HW211430   4.058   2.958   4.722
 2850SOL    HW311431   4.109   2.932   4.582
 2850SOL    MW411432   4.057   2.975   4.637
 2851SOL     OW11433   3.235   3.340   4.494
 2851SOL    HW211434   3.268   3.258   4.532
 2851SOL    HW311435   3.218   3.319   4.402
 2851SOL    MW411436   3.237   3.326   4.487
 2852SOL     OW11437   3.797   3.306   4.647
 2852SOL    HW211438   3.814   3.381   4.705
 2852SOL    HW311439   3.883   3.284   4.611
 2852SOL    MW411440   3.811   3.313   4.650
 2853SOL     OW11441   3.414   3.567   4.520
 2853SOL    HW211442   3.341   3.505   4.520
 2853SOL    HW311443   3.492   3.512   4.517
 2853SOL    MW411444   3.415   3.552   4.520
 2854SOL     OW11445   3.638   3.439   4.459
 2854SOL    HW211446   3.632   3.366   4.398
 2854SOL    HW311447   3.706   3.413   4.522
 2854SOL    MW411448   3.646   3.426   4.459
 2855SOL     OW11449   4.400   2.924   4.641
 2855SOL    HW211450   4.439   3.011   4.641
 2855SOL    HW311451   4.465   2.868   4.599
 2855SOL    MW411452   4.414   2.928   4.635
 2856SOL     OW11453   4.036   3.959   4.535
 2856SOL    HW211454   4.017   4.039   4.584
 2856SOL    HW311455   3.959   3.903   4.549
 2856SOL    MW411456   4.023   3.962   4.543
 2857SOL     OW11457   3.710   4.419   4.528
 2857SOL    HW211458   3.757   4.409   4.445
 2857SOL    HW311459   3.698   4.514   4.538
 2857SOL    MW411460   3.715   4.430   4.518
 2858SOL     OW11461   3.553   4.573   4.768
 2858SOL    HW211462   3.478   4.517   4.787
 2858SOL    HW311463   3.629   4.520   4.790
 2858SOL    MW411464   3.553   4.559   4.773
 2859SOL     OW11465   3.596   0.925   4.502
 2859SOL    HW211466   3.622   1.014   4.527
 2859SOL    HW311467   3.598   0.925   4.406
 2859SOL    MW411468   3.600   0.937   4.493
 2860SOL     OW11469   3.755   0.764   4.685
 2860SOL    HW211470   3.798   0.844   4.716
 2860SOL    HW311471   3.696   0.794   4.616
 2860SOL    MW411472   3.753   0.778   4.680
 2861SOL     OW11473   0.072   0.345   4.617
 2861SOL    HW211474   0.131   0.420   4.616
 2861SOL    HW311475  -0.016   0.383   4.616
 2861SOL    MW411476   0.068   0.360   4.617
 2862SOL     OW11477   0.258   0.546   4.545
 2862SOL    HW211478   0.334   0.493   4.571
 2862SOL    HW311479   0.244   0.523   4.453
 2862SOL    MW411480   0.266   0.536   4.536
 2863SOL     OW11481   4.034   0.366   4.656
 2863SOL    HW211482   3.998   0.346   4.742
 2863SOL    HW311483   3.963   0.412   4.611
 2863SOL    MW411484   4.020   0.369   4.661
 2864SOL     OW11485   3.824   1.413   4.505
 2864SOL    HW211486   3.823   1.361   4.424
 2864SOL    HW311487   3.771   1.490   4.485
 2864SOL    MW411488   3.817   1.416   4.492
 2865SOL     OW11489   4.440   1.289   4.641
 2865SOL    HW211490   4.498   1.311   4.568
 2865SOL    HW311491   4.416   1.374   4.679
 2865SOL    MW411492   4.444   1.303   4.636
 2866SOL     OW11493   0.169   1.307   4.469
 2866SOL    HW211494   0.212   1.230   4.507
 2866SOL    HW311495   0.236   1.376   4.471
 2866SOL    MW411496   0.183   1.306   4.474
 2867SOL     OW11497   4.081   1.750   4.516
 2867SOL    HW211498   4.074   1.662   4.552
 2867SOL    HW311499   4.011   1.799   4.560
 2867SOL    MW411500   4.071   1.745   4.527
 2868SOL     OW11501   3.108   2.713   4.570
 2868SOL    HW211502   3.194   2.752   4.587
 2868SOL    HW311503   3.126   2.621   4.553
 2868SOL    MW411504   3.122   2.706   4.570
 2869SOL     OW11505   4.242   2.036   4.302
 2869SOL    HW211506   4.158   1.998   4.276
 2869SOL    HW311507   4.257   2.001   4.390
 2869SOL    MW411508   4.233   2.026   4.310
 2870SOL     OW11509   4.448   2.173   4.690
 2870SOL    HW211510   4.376   2.195   4.749
 2870SOL    HW311511   4.453   2.247   4.630
 2870SOL    MW411512   4.439   2.186   4.690
 2871SOL     OW11513   4.317   1.956   4.566
 2871SOL    HW211514   4.264   1.920   4.637
 2871SOL    HW311515   4.377   2.017   4.609
 2871SOL    MW411516   4.318   1.959   4.581
 2872SOL     OW11517   3.600   2.230   4.629
 2872SOL    HW211518   3.571   2.295   4.565
 2872SOL    HW311519   3.637   2.281   4.701
 2872SOL    MW411520   3.601   2.245   4.630
 2873SOL     OW11521   0.395   2.467   4.545
 2873SOL    HW211522   0.407   2.462   4.450
 2873SOL    HW311523   0.465   2.525   4.575
 2873SOL    MW411524   0.406   2.474   4.536
 2874SOL     OW11525   4.208   2.780   4.509
 2874SOL    HW211526   4.278   2.813   4.566
 2874SOL    HW311527   4.239   2.800   4.420
 2874SOL    MW411528   4.221   2.787   4.505
 2875SOL     OW11529   4.070   3.254   4.552
 2875SOL    HW211530   4.041   3.247   4.461
 2875SOL    HW311531   4.087   3.164   4.578
 2875SOL    MW411532   4.068   3.241   4.543
 2876SOL     OW11533   0.130   3.465   4.503
 2876SOL    HW211534   0.177   3.506   4.430
 2876SOL    HW311535   0.050   3.516   4.512
 2876SOL    MW411536   0.126   3.477   4.495
 2877SOL     OW11537   4.073   4.371   4.609
 2877SOL    HW211538   4.039   4.435   4.546
 2877SOL    HW311539   4.013   4.297   4.602
 2877SOL    MW411540   4.061   4.370   4.600
 2878SOL     OW11541   3.737   0.038   4.504
 2878SOL    HW211542   3.688   0.074   4.578
 2878SOL    HW311543   3.686   0.064   4.427
 2878SOL    MW411544   3.724   0.046   4.504
 2879SOL     OW11545   4.152   3.609   4.744
 2879SOL    HW211546   4.182   3.699   4.756
 2879SOL    HW311547   4.232   3.557   4.748
 2879SOL    MW411548   4.166   3.614   4.746
 2880SOL     OW11549   3.581   0.452   4.637
 2880SOL    HW211550   3.500   0.476   4.592
 2880SOL    HW311551   3.576   0.357   4.648
 2880SOL    MW411552   3.570   0.443   4.632
 2881SOL     OW11553   4.234   4.402   4.310
 2881SOL    HW211554   4.311   4.353   4.280
 2881SOL    HW311555   4.243   4.406   4.405
 2881SOL    MW411556   4.245   4.396   4.319
 2882NA      NA11557   2.580   4.347   0.578
 2883NA      NA11558   0.741   2.509   0.383
   4.49070   4.66690  10.00000
