Gromacs Runs On Most of All Computer Systems in water t=  90.00000 step= 90000
11558
    1RG35     P    1   2.089   2.782   4.477
    1RG35   O1P    2   2.074   2.702   4.357
    1RG35   O2P    3   1.965   2.842   4.519
    1RG35   O5'    4   2.125   2.685   4.599
    1RG35   C5'    5   2.130   2.732   4.732
    1RG35  H5'1    6   2.056   2.811   4.744
    1RG35  H5'2    7   2.223   2.789   4.744
    1RG35   C4'    8   2.112   2.633   4.845
    1RG35   H4'    9   2.096   2.694   4.934
    1RG35   O4'   10   1.998   2.557   4.815
    1RG35   C1'   11   2.025   2.421   4.805
    1RG35   H1'   12   1.983   2.369   4.892
    1RG35    N9   13   1.967   2.346   4.688
    1RG35    C8   14   1.911   2.401   4.569
    1RG35    H8   15   1.922   2.505   4.546
    1RG35    N7   16   1.855   2.311   4.488
    1RG35    C5   17   1.879   2.192   4.556
    1RG35    C6   18   1.849   2.057   4.518
    1RG35    O6   19   1.795   2.015   4.414
    1RG35    N1   20   1.879   1.962   4.615
    1RG35    H1   21   1.846   1.867   4.602
    1RG35    C2   22   1.951   1.991   4.720
    1RG35    N2   23   1.966   1.892   4.805
    1RG35   H21   24   1.952   1.795   4.781
    1RG35   H22   25   2.001   1.919   4.896
    1RG35    N3   26   1.985   2.112   4.758
    1RG35    C4   27   1.949   2.209   4.671
    1RG35   C3'   28   2.222   2.541   4.877
    1RG35   H3'   29   2.317   2.579   4.838
    1RG35   C2'   30   2.180   2.411   4.815
    1RG35  H2'1   31   2.217   2.412   4.712
    1RG35   O2'   32   2.224   2.297   4.891
    1RG35  HO'2   33   2.217   2.225   4.828
    1RG35   O3'   34   2.237   2.525   5.012
    1RG35   H3T   35   2.237   2.430   5.027
    1RG35   O3P   36   2.209   2.867   4.467
    2SOL     OW   37   0.449   0.029   0.443
    2SOL    HW2   38   0.496   0.102   0.402
    2SOL    HW3   39   0.362   0.064   0.462
    2SOL    MW4   40   0.444   0.043   0.440
    3SOL     OW   41   3.997   0.038   0.462
    3SOL    HW2   42   4.061   0.095   0.420
    3SOL    HW3   43   4.023  -0.050   0.436
    3SOL    MW4   44   4.009   0.034   0.453
    4SOL     OW   45   3.558   0.219   0.375
    4SOL    HW2   46   3.566   0.244   0.283
    4SOL    HW3   47   3.542   0.301   0.421
    4SOL    MW4   48   3.557   0.233   0.369
    5SOL     OW   49   0.073   1.596   0.404
    5SOL    HW2   50   0.067   1.614   0.498
    5SOL    HW3   51   0.036   1.509   0.393
    5SOL    MW4   52   0.067   1.587   0.415
    6SOL     OW   53   1.354   0.844   0.502
    6SOL    HW2   54   1.359   0.846   0.597
    6SOL    HW3   55   1.286   0.907   0.480
    6SOL    MW4   56   1.345   0.853   0.512
    7SOL     OW   57   0.226   0.407   0.467
    7SOL    HW2   58   0.209   0.438   0.557
    7SOL    HW3   59   0.238   0.312   0.476
    7SOL    MW4   60   0.225   0.399   0.480
    8SOL     OW   61   0.405   0.880   0.475
    8SOL    HW2   62   0.403   0.889   0.570
    8SOL    HW3   63   0.386   0.788   0.459
    8SOL    MW4   64   0.402   0.869   0.486
    9SOL     OW   65   0.898   0.822   0.460
    9SOL    HW2   66   0.894   0.827   0.555
    9SOL    HW3   67   0.817   0.863   0.430
    9SOL    MW4   68   0.887   0.828   0.468
   10SOL     OW   69   0.654   0.952   0.361
   10SOL    HW2   70   0.624   0.946   0.270
   10SOL    HW3   71   0.577   0.929   0.413
   10SOL    MW4   72   0.640   0.948   0.356
   11SOL     OW   73   0.611   1.537   0.264
   11SOL    HW2   74   0.538   1.477   0.277
   11SOL    HW3   75   0.687   1.490   0.298
   11SOL    MW4   76   0.611   1.523   0.270
   12SOL     OW   77   4.233   2.024   0.486
   12SOL    HW2   78   4.275   1.941   0.465
   12SOL    HW3   79   4.142   2.013   0.458
   12SOL    MW4   80   4.227   2.012   0.479
   13SOL     OW   81   0.139   1.814   0.218
   13SOL    HW2   82   0.054   1.857   0.203
   13SOL    HW3   83   0.118   1.721   0.221
   13SOL    MW4   84   0.125   1.807   0.216
   14SOL     OW   85   0.384   2.356   0.550
   14SOL    HW2   86   0.306   2.302   0.536
   14SOL    HW3   87   0.457   2.299   0.526
   14SOL    MW4   88   0.384   2.341   0.545
   15SOL     OW   89   0.093   2.656   0.404
   15SOL    HW2   90   0.179   2.682   0.439
   15SOL    HW3   91   0.112   2.621   0.317
   15SOL    MW4   92   0.107   2.655   0.398
   16SOL     OW   93   4.239   3.311   0.469
   16SOL    HW2   94   4.179   3.303   0.544
   16SOL    HW3   95   4.311   3.251   0.488
   16SOL    MW4   96   4.240   3.302   0.481
   17SOL     OW   97   4.411   2.897   0.393
   17SOL    HW2   98   4.470   2.822   0.395
   17SOL    HW3   99   4.326   2.861   0.421
   17SOL    MW4  100   4.407   2.882   0.397
   18SOL     OW  101   0.357   3.434   0.303
   18SOL    HW2  102   0.393   3.357   0.346
   18SOL    HW3  103   0.426   3.500   0.308
   18SOL    MW4  104   0.370   3.433   0.309
   19SOL     OW  105   0.582   3.625   0.352
   19SOL    HW2  106   0.658   3.672   0.316
   19SOL    HW3  107   0.522   3.694   0.379
   19SOL    MW4  108   0.584   3.640   0.351
   20SOL     OW  109   3.847   3.315   0.441
   20SOL    HW2  110   3.865   3.393   0.494
   20SOL    HW3  111   3.865   3.343   0.351
   20SOL    MW4  112   3.852   3.329   0.436
   21SOL     OW  113   4.488   3.771   0.301
   21SOL    HW2  114   4.440   3.712   0.360
   21SOL    HW3  115   4.573   3.783   0.344
   21SOL    MW4  116   4.493   3.765   0.315
   22SOL     OW  117   4.470   4.466   0.354
   22SOL    HW2  118   4.520   4.427   0.282
   22SOL    HW3  119   4.403   4.401   0.375
   22SOL    MW4  120   4.468   4.452   0.347
   23SOL     OW  121   4.289   4.281   0.445
   23SOL    HW2  122   4.304   4.277   0.539
   23SOL    HW3  123   4.313   4.195   0.412
   23SOL    MW4  124   4.294   4.269   0.453
   24SOL     OW  125   4.342   4.013   0.393
   24SOL    HW2  126   4.378   3.955   0.326
   24SOL    HW3  127   4.260   3.971   0.419
   24SOL    MW4  128   4.336   4.000   0.388
   25SOL     OW  129   0.515   3.255   0.478
   25SOL    HW2  130   0.510   3.232   0.571
   25SOL    HW3  131   0.591   3.314   0.472
   25SOL    MW4  132   0.525   3.260   0.489
   26SOL     OW  133   0.466   4.407   0.422
   26SOL    HW2  134   0.372   4.388   0.426
   26SOL    HW3  135   0.471   4.502   0.433
   26SOL    MW4  136   0.454   4.417   0.424
   27SOL     OW  137   0.199   0.138   0.523
   27SOL    HW2  138   0.182   0.111   0.613
   27SOL    HW3  139   0.114   0.130   0.479
   27SOL    MW4  140   0.185   0.134   0.529
   28SOL     OW  141   4.458   0.557   0.457
   28SOL    HW2  142   4.530   0.500   0.428
   28SOL    HW3  143   4.465   0.557   0.552
   28SOL    MW4  144   4.469   0.549   0.465
   29SOL     OW  145   0.962   4.433   0.437
   29SOL    HW2  146   1.005   4.438   0.522
   29SOL    HW3  147   0.881   4.386   0.453
   29SOL    MW4  148   0.957   4.427   0.450
   30SOL     OW  149   1.120   0.979   0.401
   30SOL    HW2  150   1.052   0.917   0.426
   30SOL    HW3  151   1.114   0.983   0.305
   30SOL    MW4  152   1.110   0.971   0.391
   31SOL     OW  153   0.652   0.488   0.494
   31SOL    HW2  154   0.734   0.525   0.461
   31SOL    HW3  155   0.658   0.394   0.475
   31SOL    MW4  156   0.664   0.480   0.487
   32SOL     OW  157   0.266   1.129   0.453
   32SOL    HW2  158   0.185   1.118   0.403
   32SOL    HW3  159   0.303   1.041   0.459
   32SOL    MW4  160   0.260   1.116   0.447
   33SOL     OW  161   0.502   1.839   0.483
   33SOL    HW2  162   0.585   1.812   0.444
   33SOL    HW3  163   0.452   1.757   0.492
   33SOL    MW4  164   0.506   1.825   0.479
   34SOL     OW  165   0.346   2.002   0.293
   34SOL    HW2  166   0.401   1.947   0.349
   34SOL    HW3  167   0.279   1.942   0.259
   34SOL    MW4  168   0.344   1.987   0.296
   35SOL     OW  169   0.442   2.470   0.292
   35SOL    HW2  170   0.405   2.428   0.369
   35SOL    HW3  171   0.434   2.405   0.223
   35SOL    MW4  172   0.436   2.456   0.293
   36SOL     OW  173   0.694   2.275   0.256
   36SOL    HW2  174   0.747   2.203   0.291
   36SOL    HW3  175   0.627   2.232   0.203
   36SOL    MW4  176   0.693   2.260   0.253
   37SOL     OW  177   3.890   2.523   0.361
   37SOL    HW2  178   3.916   2.489   0.275
   37SOL    HW3  179   3.971   2.523   0.412
   37SOL    MW4  180   3.904   2.518   0.356
   38SOL     OW  181   0.697   2.722   0.313
   38SOL    HW2  182   0.658   2.808   0.325
   38SOL    HW3  183   0.790   2.734   0.335
   38SOL    MW4  184   0.704   2.735   0.317
   39SOL     OW  185   0.584   2.599   0.563
   39SOL    HW2  186   0.524   2.553   0.622
   39SOL    HW3  187   0.632   2.659   0.620
   39SOL    MW4  188   0.582   2.600   0.578
   40SOL     OW  189   4.459   3.150   0.484
   40SOL    HW2  190   4.491   3.189   0.402
   40SOL    HW3  191   4.425   3.065   0.458
   40SOL    MW4  192   4.459   3.144   0.470
   41SOL     OW  193   0.374   2.748   0.475
   41SOL    HW2  194   0.410   2.816   0.418
   41SOL    HW3  195   0.446   2.687   0.488
   41SOL    MW4  196   0.388   2.749   0.469
   42SOL     OW  197   0.776   0.344   0.184
   42SOL    HW2  198   0.746   0.377   0.100
   42SOL    HW3  199   0.792   0.423   0.236
   42SOL    MW4  200   0.774   0.359   0.180
   43SOL     OW  201   0.197   3.550   0.489
   43SOL    HW2  202   0.193   3.645   0.475
   43SOL    HW3  203   0.242   3.517   0.411
   43SOL    MW4  204   0.203   3.558   0.477
   44SOL     OW  205   0.724   3.455   0.498
   44SOL    HW2  206   0.681   3.505   0.429
   44SOL    HW3  207   0.700   3.501   0.579
   44SOL    MW4  208   0.715   3.468   0.500
   45SOL     OW  209   1.230   3.602   0.427
   45SOL    HW2  210   1.140   3.598   0.398
   45SOL    HW3  211   1.264   3.514   0.416
   45SOL    MW4  212   1.223   3.590   0.422
   46SOL     OW  213   0.186   4.327   0.507
   46SOL    HW2  214   0.104   4.376   0.502
   46SOL    HW3  215   0.159   4.236   0.520
   46SOL    MW4  216   0.172   4.321   0.508
   47SOL     OW  217   0.960   3.602   0.393
   47SOL    HW2  218   0.920   3.679   0.353
   47SOL    HW3  219   0.896   3.571   0.456
   47SOL    MW4  220   0.946   3.608   0.396
   48SOL     OW  221   0.719   4.284   0.510
   48SOL    HW2  222   0.640   4.321   0.472
   48SOL    HW3  223   0.718   4.314   0.601
   48SOL    MW4  224   0.708   4.293   0.517
   49SOL     OW  225   0.675   0.225   0.406
   49SOL    HW2  226   0.719   0.141   0.418
   49SOL    HW3  227   0.703   0.255   0.320
   49SOL    MW4  228   0.684   0.218   0.396
   50SOL     OW  229   0.893   0.555   0.361
   50SOL    HW2  230   0.898   0.648   0.385
   50SOL    HW3  231   0.974   0.517   0.397
   50SOL    MW4  232   0.905   0.562   0.369
   51SOL     OW  233   0.402   0.609   0.418
   51SOL    HW2  234   0.339   0.537   0.422
   51SOL    HW3  235   0.486   0.569   0.441
   51SOL    MW4  236   0.405   0.594   0.421
   52SOL     OW  237   1.398   0.561   0.477
   52SOL    HW2  238   1.375   0.652   0.494
   52SOL    HW3  239   1.430   0.529   0.561
   52SOL    MW4  240   1.399   0.569   0.490
   53SOL     OW  241   1.817   0.752   0.494
   53SOL    HW2  242   1.802   0.759   0.588
   53SOL    HW3  243   1.785   0.665   0.471
   53SOL    MW4  244   1.811   0.742   0.503
   54SOL     OW  245   1.615   0.948   0.427
   54SOL    HW2  246   1.535   0.899   0.444
   54SOL    HW3  247   1.686   0.885   0.442
   54SOL    MW4  248   1.614   0.933   0.431
   55SOL     OW  249   0.431   1.353   0.374
   55SOL    HW2  250   0.506   1.304   0.407
   55SOL    HW3  251   0.359   1.289   0.374
   55SOL    MW4  252   0.432   1.338   0.378
   56SOL     OW  253   0.660   1.218   0.459
   56SOL    HW2  254   0.652   1.135   0.412
   56SOL    HW3  255   0.740   1.258   0.426
   56SOL    MW4  256   0.669   1.213   0.449
   57SOL     OW  257   1.388   1.402   0.456
   57SOL    HW2  258   1.462   1.433   0.509
   57SOL    HW3  259   1.329   1.477   0.451
   57SOL    MW4  260   1.390   1.416   0.463
   58SOL     OW  261   0.872   1.374   0.379
   58SOL    HW2  262   0.953   1.329   0.403
   58SOL    HW3  263   0.894   1.467   0.387
   58SOL    MW4  264   0.886   1.380   0.383
   59SOL     OW  265   0.957   1.645   0.468
   59SOL    HW2  266   1.051   1.645   0.448
   59SOL    HW3  267   0.953   1.651   0.563
   59SOL    MW4  268   0.969   1.646   0.478
   60SOL     OW  269   0.207   2.149   0.508
   60SOL    HW2  270   0.115   2.156   0.484
   60SOL    HW3  271   0.250   2.111   0.431
   60SOL    MW4  272   0.201   2.145   0.495
   61SOL     OW  273   0.740   1.778   0.358
   61SOL    HW2  274   0.702   1.714   0.298
   61SOL    HW3  275   0.814   1.733   0.398
   61SOL    MW4  276   0.745   1.764   0.355
   62SOL     OW  277   0.871   2.494   0.470
   62SOL    HW2  278   0.957   2.451   0.471
   62SOL    HW3  279   0.840   2.489   0.560
   62SOL    MW4  280   0.879   2.488   0.482
   63SOL     OW  281   0.563   2.135   0.526
   63SOL    HW2  282   0.636   2.110   0.469
   63SOL    HW3  283   0.511   2.055   0.533
   63SOL    MW4  284   0.566   2.121   0.520
   64SOL     OW  285   0.970   2.766   0.400
   64SOL    HW2  286   0.956   2.682   0.443
   64SOL    HW3  287   0.930   2.830   0.459
   64SOL    MW4  288   0.963   2.763   0.413
   65SOL     OW  289   0.438   2.210   0.150
   65SOL    HW2  290   0.403   2.196   0.062
   65SOL    HW3  291   0.399   2.140   0.202
   65SOL    MW4  292   0.428   2.199   0.145
   66SOL     OW  293   0.583   2.971   0.385
   66SOL    HW2  294   0.535   3.053   0.397
   66SOL    HW3  295   0.659   2.979   0.443
   66SOL    MW4  296   0.587   2.983   0.394
   67SOL     OW  297   0.925   3.255   0.505
   67SOL    HW2  298   0.940   3.256   0.600
   67SOL    HW3  299   0.860   3.323   0.490
   67SOL    MW4  300   0.919   3.264   0.516
   68SOL     OW  301   1.643   3.584   0.153
   68SOL    HW2  302   1.659   3.562   0.061
   68SOL    HW3  303   1.605   3.672   0.151
   68SOL    MW4  304   1.640   3.592   0.141
   69SOL     OW  305   0.766   4.022   0.494
   69SOL    HW2  306   0.754   4.117   0.498
   69SOL    HW3  307   0.789   3.996   0.583
   69SOL    MW4  308   0.767   4.031   0.506
   70SOL     OW  309   0.504   3.880   0.477
   70SOL    HW2  310   0.474   3.891   0.568
   70SOL    HW3  311   0.580   3.938   0.470
   70SOL    MW4  312   0.510   3.889   0.488
   71SOL     OW  313   1.073   4.176   0.449
   71SOL    HW2  314   1.048   4.260   0.411
   71SOL    HW3  315   0.992   4.141   0.485
   71SOL    MW4  316   1.059   4.182   0.449
   72SOL     OW  317   1.141   0.440   0.451
   72SOL    HW2  318   1.148   0.364   0.394
   72SOL    HW3  319   1.223   0.488   0.437
   72SOL    MW4  320   1.153   0.437   0.442
   73SOL     OW  321   0.870   0.028   0.444
   73SOL    HW2  322   0.921  -0.053   0.431
   73SOL    HW3  323   0.876   0.046   0.537
   73SOL    MW4  324   0.877   0.020   0.454
   74SOL     OW  325   1.296   0.104   0.401
   74SOL    HW2  326   1.218   0.117   0.348
   74SOL    HW3  327   1.361   0.163   0.363
   74SOL    MW4  328   1.295   0.113   0.389
   75SOL     OW  329   1.740   0.481   0.472
   75SOL    HW2  330   1.820   0.428   0.483
   75SOL    HW3  331   1.693   0.470   0.555
   75SOL    MW4  332   1.745   0.472   0.484
   76SOL     OW  333   1.026   0.208   0.301
   76SOL    HW2  334   0.975   0.143   0.351
   76SOL    HW3  335   0.962   0.246   0.240
   76SOL    MW4  336   1.011   0.204   0.299
   77SOL     OW  337   2.056   0.602   0.544
   77SOL    HW2  338   1.994   0.669   0.514
   77SOL    HW3  339   2.135   0.618   0.494
   77SOL    MW4  340   2.058   0.613   0.533
   78SOL     OW  341   2.665   0.953   0.509
   78SOL    HW2  342   2.744   0.898   0.501
   78SOL    HW3  343   2.679   1.023   0.446
   78SOL    MW4  344   2.678   0.955   0.500
   79SOL     OW  345   1.795   1.452   0.554
   79SOL    HW2  346   1.721   1.471   0.611
   79SOL    HW3  347   1.765   1.380   0.499
   79SOL    MW4  348   1.781   1.445   0.554
   80SOL     OW  349   1.620   1.216   0.470
   80SOL    HW2  350   1.627   1.123   0.449
   80SOL    HW3  351   1.552   1.249   0.412
   80SOL    MW4  352   1.612   1.208   0.460
   81SOL     OW  353   1.123   1.273   0.489
   81SOL    HW2  354   1.211   1.310   0.486
   81SOL    HW3  355   1.137   1.178   0.484
   81SOL    MW4  356   1.137   1.265   0.488
   82SOL     OW  357   1.243   1.655   0.445
   82SOL    HW2  358   1.271   1.679   0.534
   82SOL    HW3  359   1.266   1.731   0.392
   82SOL    MW4  360   1.250   1.669   0.450
   83SOL     OW  361   1.107   2.349   0.428
   83SOL    HW2  362   1.199   2.370   0.442
   83SOL    HW3  363   1.100   2.256   0.450
   83SOL    MW4  364   1.118   2.339   0.433
   84SOL     OW  365   1.440   2.684   0.384
   84SOL    HW2  366   1.464   2.713   0.296
   84SOL    HW3  367   1.383   2.754   0.417
   84SOL    MW4  368   1.435   2.697   0.377
   85SOL     OW  369   1.603   2.024   0.160
   85SOL    HW2  370   1.623   1.980   0.078
   85SOL    HW3  371   1.665   1.988   0.223
   85SOL    MW4  372   1.614   2.013   0.158
   86SOL     OW  373   1.545   2.017   0.475
   86SOL    HW2  374   1.541   2.098   0.424
   86SOL    HW3  375   1.623   1.972   0.443
   86SOL    MW4  376   1.554   2.022   0.464
   87SOL     OW  377   0.814   2.059   0.344
   87SOL    HW2  378   0.903   2.053   0.378
   87SOL    HW3  379   0.788   1.969   0.326
   87SOL    MW4  380   0.822   2.047   0.346
   88SOL     OW  381   0.817   2.987   0.534
   88SOL    HW2  382   0.871   3.066   0.532
   88SOL    HW3  383   0.789   2.980   0.626
   88SOL    MW4  384   0.820   2.997   0.546
   89SOL     OW  385   2.030   2.560   0.366
   89SOL    HW2  386   2.020   2.655   0.368
   89SOL    HW3  387   2.123   2.546   0.384
   89SOL    MW4  388   2.041   2.571   0.369
   90SOL     OW  389   1.793   0.156   0.240
   90SOL    HW2  390   1.708   0.199   0.246
   90SOL    HW3  391   1.837   0.199   0.167
   90SOL    MW4  392   1.788   0.167   0.231
   91SOL     OW  393   1.396   3.848   0.365
   91SOL    HW2  394   1.337   3.775   0.382
   91SOL    HW3  395   1.361   3.920   0.417
   91SOL    MW4  396   1.384   3.848   0.374
   92SOL     OW  397   1.679   2.747   0.516
   92SOL    HW2  398   1.664   2.763   0.609
   92SOL    HW3  399   1.591   2.738   0.479
   92SOL    MW4  400   1.665   2.748   0.523
   93SOL     OW  401   1.548   3.851   0.129
   93SOL    HW2  402   1.502   3.917   0.077
   93SOL    HW3  403   1.498   3.846   0.211
   93SOL    MW4  404   1.535   3.859   0.133
   94SOL     OW  405   1.145   3.107   0.402
   94SOL    HW2  406   1.108   3.097   0.315
   94SOL    HW3  407   1.090   3.173   0.444
   94SOL    MW4  408   1.133   3.115   0.396
   95SOL     OW  409   2.071   3.718   0.321
   95SOL    HW2  410   2.064   3.634   0.366
   95SOL    HW3  411   2.153   3.712   0.272
   95SOL    MW4  412   2.081   3.706   0.320
   96SOL     OW  413   0.835   3.832   0.284
   96SOL    HW2  414   0.821   3.892   0.358
   96SOL    HW3  415   0.894   3.880   0.226
   96SOL    MW4  416   0.841   3.846   0.286
   97SOL     OW  417   1.831   4.561   0.343
   97SOL    HW2  418   1.741   4.530   0.355
   97SOL    HW3  419   1.823   4.635   0.283
   97SOL    MW4  420   1.818   4.567   0.337
   98SOL     OW  421   1.931   4.603   0.598
   98SOL    HW2  422   1.944   4.514   0.631
   98SOL    HW3  423   1.889   4.591   0.513
   98SOL    MW4  424   1.928   4.589   0.591
   99SOL     OW  425   1.945   0.256   0.480
   99SOL    HW2  426   1.904   0.179   0.519
   99SOL    HW3  427   1.926   0.249   0.387
   99SOL    MW4  428   1.937   0.245   0.473
  100SOL     OW  429   1.346   4.080   0.516
  100SOL    HW2  430   1.260   4.120   0.514
  100SOL    HW3  431   1.403   4.143   0.471
  100SOL    MW4  432   1.342   4.094   0.510
  101SOL     OW  433   2.304   0.676   0.415
  101SOL    HW2  434   2.333   0.748   0.472
  101SOL    HW3  435   2.334   0.701   0.328
  101SOL    MW4  436   2.312   0.689   0.411
  102SOL     OW  437   2.023   2.050   0.270
  102SOL    HW2  438   2.069   2.131   0.250
  102SOL    HW3  439   2.074   2.009   0.340
  102SOL    MW4  440   2.036   2.055   0.276
  103SOL     OW  441   2.401   0.894   0.560
  103SOL    HW2  442   2.365   0.981   0.543
  103SOL    HW3  443   2.494   0.901   0.537
  103SOL    MW4  444   2.409   0.906   0.555
  104SOL     OW  445   2.384   1.206   0.543
  104SOL    HW2  446   2.480   1.209   0.537
  104SOL    HW3  447   2.355   1.286   0.500
  104SOL    MW4  448   2.393   1.217   0.537
  105SOL     OW  449   2.166   1.689   0.547
  105SOL    HW2  450   2.185   1.777   0.514
  105SOL    HW3  451   2.072   1.677   0.532
  105SOL    MW4  452   2.156   1.699   0.541
  106SOL     OW  453   1.779   1.911   0.336
  106SOL    HW2  454   1.860   1.955   0.310
  106SOL    HW3  455   1.809   1.834   0.385
  106SOL    MW4  456   1.794   1.906   0.339
  107SOL     OW  457   1.354   1.866   0.308
  107SOL    HW2  458   1.406   1.912   0.374
  107SOL    HW3  459   1.397   1.885   0.225
  107SOL    MW4  460   1.366   1.875   0.306
  108SOL     OW  461   2.308   2.448   0.496
  108SOL    HW2  462   2.393   2.492   0.497
  108SOL    HW3  463   2.275   2.458   0.585
  108SOL    MW4  464   2.315   2.455   0.508
  109SOL     OW  465   1.816   3.282   0.476
  109SOL    HW2  466   1.740   3.329   0.443
  109SOL    HW3  467   1.887   3.346   0.473
  109SOL    MW4  468   1.815   3.296   0.471
  110SOL     OW  469   1.222   2.844   0.470
  110SOL    HW2  470   1.214   2.936   0.445
  110SOL    HW3  471   1.148   2.800   0.427
  110SOL    MW4  472   1.211   2.850   0.461
  111SOL     OW  473   1.593   3.442   0.383
  111SOL    HW2  474   1.619   3.476   0.297
  111SOL    HW3  475   1.606   3.515   0.443
  111SOL    MW4  476   1.598   3.456   0.379
  112SOL     OW  477   1.105   2.010   0.431
  112SOL    HW2  478   1.147   2.011   0.517
  112SOL    HW3  479   1.159   1.950   0.379
  112SOL    MW4  480   1.118   2.002   0.435
  113SOL     OW  481   3.963   1.997   0.346
  113SOL    HW2  482   3.917   1.913   0.359
  113SOL    HW3  483   3.898   2.063   0.370
  113SOL    MW4  484   3.948   1.994   0.351
  114SOL     OW  485   1.786   2.479   0.469
  114SOL    HW2  486   1.873   2.488   0.430
  114SOL    HW3  487   1.747   2.566   0.459
  114SOL    MW4  488   1.793   2.492   0.463
  115SOL     OW  489   1.387   2.418   0.445
  115SOL    HW2  490   1.460   2.363   0.420
  115SOL    HW3  491   1.409   2.505   0.411
  115SOL    MW4  492   1.399   2.423   0.437
  116SOL     OW  493   1.359   3.323   0.488
  116SOL    HW2  494   1.448   3.351   0.466
  116SOL    HW3  495   1.350   3.237   0.447
  116SOL    MW4  496   1.369   3.315   0.480
  117SOL     OW  497   2.232   3.272   0.482
  117SOL    HW2  498   2.175   3.202   0.451
  117SOL    HW3  499   2.251   3.249   0.573
  117SOL    MW4  500   2.227   3.260   0.490
  118SOL     OW  501   1.717   4.045   0.465
  118SOL    HW2  502   1.733   3.970   0.408
  118SOL    HW3  503   1.790   4.104   0.448
  118SOL    MW4  504   1.729   4.043   0.455
  119SOL     OW  505   1.619   3.698   0.533
  119SOL    HW2  506   1.553   3.751   0.488
  119SOL    HW3  507   1.700   3.714   0.485
  119SOL    MW4  508   1.621   3.707   0.520
  120SOL     OW  509   1.539   4.291   0.510
  120SOL    HW2  510   1.524   4.310   0.603
  120SOL    HW3  511   1.599   4.216   0.510
  120SOL    MW4  512   1.545   4.283   0.522
  121SOL     OW  513   1.536   4.525   0.374
  121SOL    HW2  514   1.456   4.577   0.381
  121SOL    HW3  515   1.518   4.446   0.425
  121SOL    MW4  516   1.523   4.521   0.382
  122SOL     OW  517   2.216   4.595   0.534
  122SOL    HW2  518   2.279   4.542   0.582
  122SOL    HW3  519   2.138   4.595   0.589
  122SOL    MW4  520   2.214   4.588   0.548
  123SOL     OW  521   2.235   0.209   0.529
  123SOL    HW2  522   2.232   0.115   0.509
  123SOL    HW3  523   2.144   0.238   0.519
  123SOL    MW4  524   2.222   0.200   0.525
  124SOL     OW  525   2.943   1.576   0.433
  124SOL    HW2  526   2.852   1.588   0.458
  124SOL    HW3  527   2.960   1.483   0.447
  124SOL    MW4  528   2.933   1.565   0.439
  125SOL     OW  529   2.904   0.808   0.442
  125SOL    HW2  530   2.854   0.727   0.434
  125SOL    HW3  531   2.990   0.779   0.473
  125SOL    MW4  532   2.909   0.794   0.445
  126SOL     OW  533   2.654   1.310   0.578
  126SOL    HW2  534   2.706   1.333   0.656
  126SOL    HW3  535   2.641   1.393   0.533
  126SOL    MW4  536   2.659   1.324   0.583
  127SOL     OW  537   3.039   1.335   0.517
  127SOL    HW2  538   3.036   1.248   0.478
  127SOL    HW3  539   2.991   1.326   0.599
  127SOL    MW4  540   3.032   1.322   0.522
  128SOL     OW  541   2.649   1.616   0.499
  128SOL    HW2  542   2.632   1.698   0.453
  128SOL    HW3  543   2.659   1.642   0.591
  128SOL    MW4  544   2.648   1.630   0.505
  129SOL     OW  545   2.981   1.954   0.493
  129SOL    HW2  546   2.909   1.991   0.544
  129SOL    HW3  547   2.940   1.923   0.412
  129SOL    MW4  548   2.967   1.955   0.489
  130SOL     OW  549   2.917   4.431   0.491
  130SOL    HW2  550   2.956   4.519   0.488
  130SOL    HW3  551   2.907   4.412   0.584
  130SOL    MW4  552   2.921   4.440   0.503
  131SOL     OW  553   2.186   1.955   0.469
  131SOL    HW2  554   2.143   1.985   0.549
  131SOL    HW3  555   2.270   2.002   0.468
  131SOL    MW4  556   2.192   1.965   0.479
  132SOL     OW  557   1.565   1.514   0.726
  132SOL    HW2  558   1.609   1.559   0.798
  132SOL    HW3  559   1.480   1.557   0.719
  132SOL    MW4  560   1.560   1.525   0.734
  133SOL     OW  561   2.388   2.166   0.478
  133SOL    HW2  562   2.351   2.254   0.468
  133SOL    HW3  563   2.480   2.177   0.454
  133SOL    MW4  564   2.395   2.179   0.474
  134SOL     OW  565   2.657   2.182   0.391
  134SOL    HW2  566   2.687   2.266   0.358
  134SOL    HW3  567   2.700   2.173   0.476
  134SOL    MW4  568   2.666   2.192   0.398
  135SOL     OW  569   2.652   2.823   0.532
  135SOL    HW2  570   2.665   2.910   0.495
  135SOL    HW3  571   2.629   2.839   0.624
  135SOL    MW4  572   2.651   2.836   0.540
  136SOL     OW  573   1.606   2.271   0.364
  136SOL    HW2  574   1.634   2.244   0.276
  136SOL    HW3  575   1.672   2.335   0.392
  136SOL    MW4  576   1.618   2.276   0.356
  137SOL     OW  577   1.951   2.821   0.466
  137SOL    HW2  578   2.008   2.818   0.544
  137SOL    HW3  579   1.867   2.789   0.497
  137SOL    MW4  580   1.948   2.816   0.480
  138SOL     OW  581   2.181   3.959   0.452
  138SOL    HW2  582   2.271   3.965   0.417
  138SOL    HW3  583   2.149   3.875   0.419
  138SOL    MW4  584   2.189   3.949   0.443
  139SOL     OW  585   2.445   3.971   0.362
  139SOL    HW2  586   2.417   3.887   0.326
  139SOL    HW3  587   2.540   3.961   0.374
  139SOL    MW4  588   2.454   3.958   0.359
  140SOL     OW  589   1.809   3.779   0.353
  140SOL    HW2  590   1.898   3.757   0.326
  140SOL    HW3  591   1.756   3.766   0.275
  140SOL    MW4  592   1.814   3.775   0.339
  141SOL     OW  593   2.034   3.487   0.510
  141SOL    HW2  594   2.107   3.426   0.500
  141SOL    HW3  595   2.051   3.530   0.594
  141SOL    MW4  596   2.046   3.484   0.520
  142SOL     OW  597   2.109   4.403   0.340
  142SOL    HW2  598   2.137   4.475   0.397
  142SOL    HW3  599   2.032   4.438   0.294
  142SOL    MW4  600   2.102   4.417   0.342
  143SOL     OW  601   1.993   4.200   0.486
  143SOL    HW2  602   2.042   4.118   0.500
  143SOL    HW3  603   2.042   4.246   0.419
  143SOL    MW4  604   2.006   4.195   0.479
  144SOL     OW  605   3.057   0.009   0.508
  144SOL    HW2  606   3.138  -0.007   0.459
  144SOL    HW3  607   3.086   0.047   0.590
  144SOL    MW4  608   3.072   0.012   0.512
  145SOL     OW  609   2.352   3.725   0.266
  145SOL    HW2  610   2.418   3.696   0.203
  145SOL    HW3  611   2.361   3.665   0.340
  145SOL    MW4  612   2.362   3.714   0.268
  146SOL     OW  613   2.440   4.271   0.403
  146SOL    HW2  614   2.357   4.313   0.379
  146SOL    HW3  615   2.435   4.184   0.365
  146SOL    MW4  616   2.429   4.265   0.395
  147SOL     OW  617   2.456   0.413   0.461
  147SOL    HW2  618   2.417   0.498   0.438
  147SOL    HW3  619   2.382   0.353   0.466
  147SOL    MW4  620   2.441   0.416   0.459
  148SOL     OW  621   1.543   0.258   0.338
  148SOL    HW2  622   1.577   0.344   0.362
  148SOL    HW3  623   1.587   0.197   0.397
  148SOL    MW4  624   1.553   0.261   0.349
  149SOL     OW  625   3.270   0.512   0.527
  149SOL    HW2  626   3.267   0.608   0.525
  149SOL    HW3  627   3.360   0.491   0.506
  149SOL    MW4  628   3.281   0.522   0.524
  150SOL     OW  629   2.360   1.506   0.502
  150SOL    HW2  630   2.297   1.578   0.502
  150SOL    HW3  631   2.446   1.548   0.492
  150SOL    MW4  632   2.363   1.521   0.500
  151SOL     OW  633   3.037   1.079   0.390
  151SOL    HW2  634   3.132   1.071   0.391
  151SOL    HW3  635   3.005   0.988   0.388
  151SOL    MW4  636   3.045   1.066   0.390
  152SOL     OW  637   3.128   1.730   0.542
  152SOL    HW2  638   3.071   1.662   0.506
  152SOL    HW3  639   3.079   1.811   0.529
  152SOL    MW4  640   3.114   1.732   0.535
  153SOL     OW  641   2.900   1.829   0.255
  153SOL    HW2  642   2.924   1.737   0.266
  153SOL    HW3  643   2.923   1.849   0.164
  153SOL    MW4  644   2.906   1.819   0.244
  154SOL     OW  645   3.721   1.485   0.474
  154SOL    HW2  646   3.647   1.483   0.413
  154SOL    HW3  647   3.680   1.500   0.560
  154SOL    MW4  648   3.706   1.487   0.477
  155SOL     OW  649   2.659   0.138   0.752
  155SOL    HW2  650   2.691   0.219   0.791
  155SOL    HW3  651   2.660   0.154   0.658
  155SOL    MW4  652   2.663   0.151   0.745
  156SOL     OW  653   3.222   2.085   0.612
  156SOL    HW2  654   3.144   2.060   0.563
  156SOL    HW3  655   3.208   2.049   0.700
  156SOL    MW4  656   3.209   2.077   0.617
  157SOL     OW  657   2.770   2.452   0.336
  157SOL    HW2  658   2.852   2.466   0.382
  157SOL    HW3  659   2.786   2.482   0.247
  157SOL    MW4  660   2.783   2.457   0.331
  158SOL     OW  661   2.627   1.847   0.341
  158SOL    HW2  662   2.718   1.844   0.312
  158SOL    HW3  663   2.596   1.934   0.316
  158SOL    MW4  664   2.635   1.858   0.334
  159SOL     OW  665   2.568   2.561   0.491
  159SOL    HW2  666   2.590   2.654   0.501
  159SOL    HW3  667   2.632   2.528   0.428
  159SOL    MW4  668   2.580   2.569   0.484
  160SOL     OW  669   2.699   3.126   0.532
  160SOL    HW2  670   2.776   3.181   0.516
  160SOL    HW3  671   2.676   3.142   0.623
  160SOL    MW4  672   2.706   3.135   0.542
  161SOL     OW  673   2.900   3.311   0.467
  161SOL    HW2  674   2.984   3.271   0.492
  161SOL    HW3  675   2.904   3.399   0.505
  161SOL    MW4  676   2.912   3.317   0.476
  162SOL     OW  677   3.163   3.229   0.533
  162SOL    HW2  678   3.159   3.135   0.511
  162SOL    HW3  679   3.179   3.231   0.627
  162SOL    MW4  680   3.164   3.217   0.543
  163SOL     OW  681   2.504   3.296   0.448
  163SOL    HW2  682   2.566   3.226   0.469
  163SOL    HW3  683   2.418   3.255   0.458
  163SOL    MW4  684   2.501   3.281   0.452
  164SOL     OW  685   2.563   3.638   0.123
  164SOL    HW2  686   2.604   3.555   0.149
  164SOL    HW3  687   2.563   3.635   0.027
  164SOL    MW4  688   2.568   3.627   0.114
  165SOL     OW  689   3.275   3.521   0.292
  165SOL    HW2  690   3.316   3.454   0.348
  165SOL    HW3  691   3.265   3.479   0.207
  165SOL    MW4  692   3.279   3.507   0.288
  166SOL     OW  693   2.664   3.683   0.416
  166SOL    HW2  694   2.681   3.635   0.335
  166SOL    HW3  695   2.581   3.647   0.448
  166SOL    MW4  696   2.655   3.672   0.409
  167SOL     OW  697   2.420   3.560   0.494
  167SOL    HW2  698   2.417   3.582   0.587
  167SOL    HW3  699   2.442   3.467   0.491
  167SOL    MW4  700   2.423   3.551   0.506
  168SOL     OW  701   3.679   3.868   0.489
  168SOL    HW2  702   3.617   3.932   0.523
  168SOL    HW3  703   3.642   3.783   0.512
  168SOL    MW4  704   3.666   3.865   0.496
  169SOL     OW  705   3.170   4.269   0.418
  169SOL    HW2  706   3.120   4.189   0.403
  169SOL    HW3  707   3.104   4.336   0.434
  169SOL    MW4  708   3.155   4.267   0.418
  170SOL     OW  709   3.331   4.462   0.280
  170SOL    HW2  710   3.413   4.456   0.329
  170SOL    HW3  711   3.285   4.380   0.299
  170SOL    MW4  712   3.336   4.450   0.289
  171SOL     OW  713   3.399   4.278   0.566
  171SOL    HW2  714   3.317   4.283   0.519
  171SOL    HW3  715   3.459   4.333   0.516
  171SOL    MW4  716   3.396   4.286   0.553
  172SOL     OW  717   2.738   4.203   0.520
  172SOL    HW2  718   2.796   4.263   0.475
  172SOL    HW3  719   2.735   4.125   0.464
  172SOL    MW4  720   2.745   4.200   0.507
  173SOL     OW  721   2.640   0.157   0.473
  173SOL    HW2  722   2.584   0.225   0.436
  173SOL    HW3  723   2.728   0.179   0.443
  173SOL    MW4  724   2.645   0.169   0.464
  174SOL     OW  725   3.183   0.790   0.527
  174SOL    HW2  726   3.155   0.820   0.614
  174SOL    HW3  727   3.243   0.858   0.497
  174SOL    MW4  728   3.187   0.803   0.534
  175SOL     OW  729   2.982   0.445   0.543
  175SOL    HW2  730   2.964   0.366   0.492
  175SOL    HW3  731   3.077   0.457   0.535
  175SOL    MW4  732   2.992   0.436   0.535
  176SOL     OW  733   3.615   0.924   0.502
  176SOL    HW2  734   3.643   0.835   0.480
  176SOL    HW3  735   3.597   0.921   0.596
  176SOL    MW4  736   3.616   0.912   0.511
  177SOL     OW  737   2.904   0.213   0.406
  177SOL    HW2  738   2.944   0.196   0.321
  177SOL    HW3  739   2.950   0.156   0.467
  177SOL    MW4  740   2.915   0.203   0.403
  178SOL     OW  741   3.474   1.976   0.579
  178SOL    HW2  742   3.496   1.996   0.670
  178SOL    HW3  743   3.386   2.012   0.568
  178SOL    MW4  744   3.466   1.984   0.590
  179SOL     OW  745   3.411   1.733   0.455
  179SOL    HW2  746   3.448   1.817   0.484
  179SOL    HW3  747   3.328   1.726   0.502
  179SOL    MW4  748   3.405   1.743   0.465
  180SOL     OW  749   3.320   1.034   0.466
  180SOL    HW2  750   3.320   1.127   0.488
  180SOL    HW3  751   3.411   1.013   0.446
  180SOL    MW4  752   3.332   1.043   0.466
  181SOL     OW  753   3.858   1.750   0.444
  181SOL    HW2  754   3.827   1.659   0.443
  181SOL    HW3  755   3.825   1.786   0.526
  181SOL    MW4  756   3.849   1.743   0.454
  182SOL     OW  757   3.282   2.355   0.657
  182SOL    HW2  758   3.264   2.262   0.644
  182SOL    HW3  759   3.366   2.357   0.704
  182SOL    MW4  760   3.291   2.343   0.662
  183SOL     OW  761   3.516   2.704   0.651
  183SOL    HW2  762   3.573   2.675   0.722
  183SOL    HW3  763   3.497   2.624   0.602
  183SOL    MW4  764   3.521   2.689   0.654
  184SOL     OW  765   2.030   3.095   0.404
  184SOL    HW2  766   2.016   3.000   0.408
  184SOL    HW3  767   1.942   3.132   0.400
  184SOL    MW4  768   2.017   3.087   0.404
  185SOL     OW  769   3.205   2.698   0.369
  185SOL    HW2  770   3.200   2.674   0.276
  185SOL    HW3  771   3.278   2.646   0.403
  185SOL    MW4  772   3.214   2.688   0.361
  186SOL     OW  773   2.984   2.881   0.829
  186SOL    HW2  774   2.957   2.851   0.742
  186SOL    HW3  775   3.042   2.813   0.861
  186SOL    MW4  776   2.988   2.868   0.821
  187SOL     OW  777   3.309   0.049   0.396
  187SOL    HW2  778   3.334  -0.014   0.328
  187SOL    HW3  779   3.384   0.109   0.402
  187SOL    MW4  780   3.323   0.049   0.388
  188SOL     OW  781   3.045   4.013   0.453
  188SOL    HW2  782   3.080   3.924   0.447
  188SOL    HW3  783   3.070   4.043   0.540
  188SOL    MW4  784   3.053   4.005   0.464
  189SOL     OW  785   3.555   3.605   0.585
  189SOL    HW2  786   3.493   3.546   0.543
  189SOL    HW3  787   3.514   3.630   0.668
  189SOL    MW4  788   3.542   3.601   0.590
  190SOL     OW  789   3.618   3.155   0.490
  190SOL    HW2  790   3.640   3.064   0.469
  190SOL    HW3  791   3.701   3.201   0.483
  190SOL    MW4  792   3.631   3.149   0.486
  191SOL     OW  793   3.407   3.348   0.459
  191SOL    HW2  794   3.329   3.300   0.486
  191SOL    HW3  795   3.477   3.282   0.460
  191SOL    MW4  796   3.406   3.333   0.463
  192SOL     OW  797   2.748   3.950   0.393
  192SOL    HW2  798   2.841   3.952   0.415
  192SOL    HW3  799   2.730   3.859   0.370
  192SOL    MW4  800   2.758   3.938   0.393
  193SOL     OW  801   2.704   3.400   0.263
  193SOL    HW2  802   2.624   3.364   0.301
  193SOL    HW3  803   2.774   3.369   0.320
  193SOL    MW4  804   2.702   3.391   0.275
  194SOL     OW  805   4.197   0.209   0.357
  194SOL    HW2  806   4.287   0.176   0.365
  194SOL    HW3  807   4.174   0.194   0.265
  194SOL    MW4  808   4.206   0.203   0.346
  195SOL     OW  809   3.709   0.008   0.488
  195SOL    HW2  810   3.679   0.087   0.442
  195SOL    HW3  811   3.805   0.016   0.490
  195SOL    MW4  812   3.718   0.020   0.482
  196SOL     OW  813   3.551   0.475   0.519
  196SOL    HW2  814   3.590   0.559   0.494
  196SOL    HW3  815   3.596   0.451   0.600
  196SOL    MW4  816   3.562   0.483   0.526
  197SOL     OW  817   3.713   0.667   0.390
  197SOL    HW2  818   3.800   0.649   0.424
  197SOL    HW3  819   3.723   0.665   0.294
  197SOL    MW4  820   3.726   0.664   0.382
  198SOL     OW  821   3.968   0.620   0.518
  198SOL    HW2  822   4.041   0.560   0.501
  198SOL    HW3  823   3.927   0.586   0.598
  198SOL    MW4  824   3.972   0.608   0.527
  199SOL     OW  825   4.408   0.841   0.394
  199SOL    HW2  826   4.313   0.835   0.401
  199SOL    HW3  827   4.438   0.750   0.395
  199SOL    MW4  828   4.399   0.828   0.395
  200SOL     OW  829   3.894   0.996   0.483
  200SOL    HW2  830   3.898   1.091   0.486
  200SOL    HW3  831   3.801   0.976   0.472
  200SOL    MW4  832   3.882   1.006   0.482
  201SOL     OW  833   4.132   1.681   0.528
  201SOL    HW2  834   4.047   1.707   0.493
  201SOL    HW3  835   4.196   1.726   0.472
  201SOL    MW4  836   4.129   1.691   0.516
  202SOL     OW  837   3.877   1.267   0.533
  202SOL    HW2  838   3.965   1.301   0.519
  202SOL    HW3  839   3.818   1.337   0.505
  202SOL    MW4  840   3.881   1.280   0.528
  203SOL     OW  841   3.323   1.317   0.468
  203SOL    HW2  842   3.375   1.312   0.548
  203SOL    HW3  843   3.237   1.347   0.498
  203SOL    MW4  844   3.318   1.321   0.482
  204SOL     OW  845   3.456   1.500   0.309
  204SOL    HW2  846   3.415   1.434   0.365
  204SOL    HW3  847   3.433   1.584   0.350
  204SOL    MW4  848   3.448   1.503   0.322
  205SOL     OW  849   3.671   2.430   0.500
  205SOL    HW2  850   3.757   2.462   0.472
  205SOL    HW3  851   3.684   2.336   0.516
  205SOL    MW4  852   3.684   2.422   0.498
  206SOL     OW  853   4.159   2.757   0.473
  206SOL    HW2  854   4.138   2.664   0.471
  206SOL    HW3  855   4.082   2.798   0.513
  206SOL    MW4  856   4.146   2.750   0.478
  207SOL     OW  857   2.980   2.552   0.491
  207SOL    HW2  858   3.001   2.514   0.576
  207SOL    HW3  859   3.062   2.589   0.460
  207SOL    MW4  860   2.993   2.551   0.498
  208SOL     OW  861   2.902   3.576   0.549
  208SOL    HW2  862   2.971   3.616   0.497
  208SOL    HW3  863   2.823   3.626   0.526
  208SOL    MW4  864   2.900   3.588   0.539
  209SOL     OW  865   3.160   2.944   0.513
  209SOL    HW2  866   3.208   2.897   0.445
  209SOL    HW3  867   3.079   2.894   0.525
  209SOL    MW4  868   3.155   2.931   0.506
  210SOL     OW  869   3.930   2.866   0.570
  210SOL    HW2  870   3.845   2.852   0.530
  210SOL    HW3  871   3.962   2.947   0.531
  210SOL    MW4  872   3.923   2.875   0.560
  211SOL     OW  873   3.668   2.815   0.452
  211SOL    HW2  874   3.703   2.744   0.398
  211SOL    HW3  875   3.612   2.771   0.516
  211SOL    MW4  876   3.665   2.800   0.454
  212SOL     OW  877   4.078   3.632   0.494
  212SOL    HW2  878   3.988   3.614   0.519
  212SOL    HW3  879   4.091   3.583   0.412
  212SOL    MW4  880   4.068   3.623   0.486
  213SOL     OW  881   3.411   2.514   0.454
  213SOL    HW2  882   3.361   2.468   0.522
  213SOL    HW3  883   3.489   2.459   0.441
  213SOL    MW4  884   3.415   2.501   0.461
  214SOL     OW  885   3.113   3.723   0.428
  214SOL    HW2  886   3.154   3.661   0.369
  214SOL    HW3  887   3.168   3.723   0.506
  214SOL    MW4  888   3.125   3.715   0.430
  215SOL     OW  889   4.409   3.537   0.431
  215SOL    HW2  890   4.356   3.459   0.444
  215SOL    HW3  891   4.500   3.507   0.438
  215SOL    MW4  892   4.414   3.523   0.433
  216SOL     OW  893   3.463   4.020   0.613
  216SOL    HW2  894   3.446   4.114   0.622
  216SOL    HW3  895   3.482   3.991   0.702
  216SOL    MW4  896   3.463   4.029   0.626
  217SOL     OW  897   3.814   4.302   0.471
  217SOL    HW2  898   3.839   4.215   0.440
  217SOL    HW3  899   3.806   4.291   0.566
  217SOL    MW4  900   3.816   4.289   0.480
  218SOL     OW  901   4.434   0.067   0.436
  218SOL    HW2  902   4.444  -0.022   0.403
  218SOL    HW3  903   4.418   0.057   0.530
  218SOL    MW4  904   4.433   0.054   0.444
  219SOL     OW  905   4.136   0.812   0.440
  219SOL    HW2  906   4.077   0.887   0.453
  219SOL    HW3  907   4.084   0.736   0.466
  219SOL    MW4  908   4.121   0.812   0.445
  220SOL     OW  909   0.389   1.591   0.505
  220SOL    HW2  910   0.425   1.507   0.480
  220SOL    HW3  911   0.302   1.593   0.465
  220SOL    MW4  912   0.382   1.580   0.496
  221SOL     OW  913   4.193   0.467   0.477
  221SOL    HW2  914   4.188   0.378   0.440
  221SOL    HW3  915   4.280   0.497   0.454
  221SOL    MW4  916   4.204   0.459   0.469
  222SOL     OW  917   0.031   1.104   0.316
  222SOL    HW2  918   0.005   1.018   0.349
  222SOL    HW3  919  -0.009   1.109   0.229
  222SOL    MW4  920   0.022   1.094   0.308
  223SOL     OW  921   3.572   4.435   0.430
  223SOL    HW2  922   3.655   4.395   0.405
  223SOL    HW3  923   3.591   4.529   0.437
  223SOL    MW4  924   3.585   4.442   0.428
  224SOL     OW  925   4.170   1.401   0.509
  224SOL    HW2  926   4.226   1.369   0.580
  224SOL    HW3  927   4.155   1.494   0.531
  224SOL    MW4  928   4.175   1.409   0.522
  225SOL     OW  929   4.434   1.360   0.361
  225SOL    HW2  930   4.339   1.364   0.369
  225SOL    HW3  931   4.454   1.267   0.359
  225SOL    MW4  932   4.424   1.349   0.362
  226SOL     OW  933   4.122   2.037   0.118
  226SOL    HW2  934   4.050   2.042   0.055
  226SOL    HW3  935   4.079   2.026   0.203
  226SOL    MW4  936   4.107   2.036   0.121
  227SOL     OW  937   4.354   1.783   0.406
  227SOL    HW2  938   4.358   1.821   0.319
  227SOL    HW3  939   4.423   1.717   0.408
  227SOL    MW4  940   4.364   1.780   0.395
  228SOL     OW  941   4.429   2.202   0.410
  228SOL    HW2  942   4.411   2.289   0.444
  228SOL    HW3  943   4.355   2.149   0.439
  228SOL    MW4  944   4.417   2.206   0.418
  229SOL     OW  945   4.388   1.975   0.201
  229SOL    HW2  946   4.306   1.996   0.156
  229SOL    HW3  947   4.414   2.058   0.242
  229SOL    MW4  948   4.381   1.989   0.200
  230SOL     OW  949   4.403   2.461   0.515
  230SOL    HW2  950   4.461   2.524   0.471
  230SOL    HW3  951   4.422   2.473   0.609
  230SOL    MW4  952   4.413   2.471   0.522
  231SOL     OW  953   4.104   3.446   0.260
  231SOL    HW2  954   4.171   3.479   0.200
  231SOL    HW3  955   4.152   3.393   0.324
  231SOL    MW4  956   4.119   3.443   0.260
  232SOL     OW  957   4.127   2.477   0.503
  232SOL    HW2  958   4.107   2.463   0.596
  232SOL    HW3  959   4.222   2.465   0.497
  232SOL    MW4  960   4.137   2.473   0.515
  233SOL     OW  961   0.230   3.847   0.445
  233SOL    HW2  962   0.201   3.925   0.493
  233SOL    HW3  963   0.323   3.860   0.432
  233SOL    MW4  964   0.238   3.859   0.449
  234SOL     OW  965   4.418   3.541   0.112
  234SOL    HW2  966   4.452   3.601   0.178
  234SOL    HW3  967   4.440   3.582   0.028
  234SOL    MW4  968   4.425   3.554   0.110
  235SOL     OW  969   0.073   3.339   0.260
  235SOL    HW2  970   0.018   3.394   0.205
  235SOL    HW3  971   0.163   3.359   0.232
  235SOL    MW4  972   0.078   3.349   0.249
  236SOL     OW  973   3.851   3.539   0.601
  236SOL    HW2  974   3.760   3.558   0.577
  236SOL    HW3  975   3.859   3.572   0.691
  236SOL    MW4  976   3.840   3.546   0.610
  237SOL     OW  977   4.028   3.094   0.429
  237SOL    HW2  978   4.112   3.125   0.394
  237SOL    HW3  979   3.979   3.174   0.448
  237SOL    MW4  980   4.033   3.109   0.426
  238SOL     OW  981   0.093   4.065   0.532
  238SOL    HW2  982   0.065   4.017   0.610
  238SOL    HW3  983   0.024   4.049   0.468
  238SOL    MW4  984   0.080   4.057   0.534
  239SOL     OW  985   4.115   3.917   0.504
  239SOL    HW2  986   4.105   3.822   0.506
  239SOL    HW3  987   4.040   3.948   0.453
  239SOL    MW4  988   4.104   3.909   0.497
  240SOL     OW  989   3.876   4.032   0.389
  240SOL    HW2  990   3.818   3.967   0.427
  240SOL    HW3  991   3.847   4.039   0.298
  240SOL    MW4  992   3.864   4.025   0.382
  241SOL     OW  993   4.076   4.444   0.448
  241SOL    HW2  994   4.158   4.396   0.446
  241SOL    HW3  995   4.009   4.377   0.433
  241SOL    MW4  996   4.078   4.429   0.446
  242SOL     OW  997   0.236   4.660   0.813
  242SOL    HW2  998   0.240   4.570   0.779
  242SOL    HW3  999   0.143   4.681   0.814
  242SOL    MW4 1000   0.224   4.651   0.808
  243SOL     OW 1001   4.460   0.062   0.735
  243SOL    HW2 1002   4.394  -0.002   0.761
  243SOL    HW3 1003   4.434   0.143   0.779
  243SOL    MW4 1004   4.448   0.064   0.744
  244SOL     OW 1005   4.421   0.338   0.802
  244SOL    HW2 1006   4.430   0.327   0.897
  244SOL    HW3 1007   4.494   0.395   0.777
  244SOL    MW4 1008   4.431   0.344   0.811
  245SOL     OW 1009   0.165   0.458   0.727
  245SOL    HW2 1010   0.253   0.433   0.756
  245SOL    HW3 1011   0.154   0.547   0.760
  245SOL    MW4 1012   0.176   0.467   0.735
  246SOL     OW 1013   0.148   0.733   0.799
  246SOL    HW2 1014   0.148   0.740   0.894
  246SOL    HW3 1015   0.074   0.787   0.771
  246SOL    MW4 1016   0.138   0.741   0.808
  247SOL     OW 1017   4.436   0.893   0.680
  247SOL    HW2 1018   4.354   0.863   0.720
  247SOL    HW3 1019   4.419   0.890   0.586
  247SOL    MW4 1020   4.423   0.889   0.673
  248SOL     OW 1021   0.011   1.132   0.800
  248SOL    HW2 1022  -0.002   1.110   0.893
  248SOL    HW3 1023   0.000   1.049   0.754
  248SOL    MW4 1024   0.008   1.118   0.806
  249SOL     OW 1025   0.226   1.288   0.688
  249SOL    HW2 1026   0.151   1.239   0.722
  249SOL    HW3 1027   0.239   1.253   0.600
  249SOL    MW4 1028   0.218   1.277   0.681
  250SOL     OW 1029   0.234   1.525   0.845
  250SOL    HW2 1030   0.317   1.563   0.818
  250SOL    HW3 1031   0.231   1.440   0.801
  250SOL    MW4 1032   0.244   1.519   0.836
  251SOL     OW 1033   0.061   1.664   0.675
  251SOL    HW2 1034  -0.018   1.648   0.726
  251SOL    HW3 1035   0.131   1.622   0.725
  251SOL    MW4 1036   0.060   1.657   0.688
  252SOL     OW 1037   0.025   1.906   0.819
  252SOL    HW2 1038   0.100   1.966   0.811
  252SOL    HW3 1039   0.047   1.833   0.762
  252SOL    MW4 1040   0.038   1.905   0.810
  253SOL     OW 1041   0.225   2.082   0.790
  253SOL    HW2 1042   0.201   2.168   0.824
  253SOL    HW3 1043   0.223   2.093   0.695
  253SOL    MW4 1044   0.222   2.095   0.782
  254SOL     OW 1045   0.186   2.347   0.893
  254SOL    HW2 1046   0.199   2.337   0.987
  254SOL    HW3 1047   0.263   2.396   0.863
  254SOL    MW4 1048   0.198   2.352   0.901
  255SOL     OW 1049   4.471   2.498   0.782
  255SOL    HW2 1050   4.390   2.456   0.811
  255SOL    HW3 1051   4.539   2.464   0.840
  255SOL    MW4 1052   4.469   2.488   0.793
  256SOL     OW 1053   0.049   2.760   0.840
  256SOL    HW2 1054   0.044   2.760   0.936
  256SOL    HW3 1055   0.049   2.668   0.816
  256SOL    MW4 1056   0.048   2.748   0.850
  257SOL     OW 1057   0.303   2.825   0.740
  257SOL    HW2 1058   0.216   2.789   0.760
  257SOL    HW3 1059   0.314   2.809   0.646
  257SOL    MW4 1060   0.293   2.819   0.730
  258SOL     OW 1061   0.240   3.080   0.845
  258SOL    HW2 1062   0.230   3.075   0.940
  258SOL    HW3 1063   0.252   2.990   0.817
  258SOL    MW4 1064   0.240   3.068   0.854
  259SOL     OW 1065   4.491   3.211   0.770
  259SOL    HW2 1066   4.578   3.177   0.791
  259SOL    HW3 1067   4.470   3.172   0.685
  259SOL    MW4 1068   4.500   3.201   0.761
  260SOL     OW 1069   4.472   3.486   0.875
  260SOL    HW2 1070   4.405   3.539   0.830
  260SOL    HW3 1071   4.460   3.398   0.839
  260SOL    MW4 1072   4.461   3.481   0.864
  261SOL     OW 1073   0.226   3.562   0.774
  261SOL    HW2 1074   0.140   3.531   0.803
  261SOL    HW3 1075   0.224   3.556   0.679
  261SOL    MW4 1076   0.215   3.558   0.766
  262SOL     OW 1077   0.203   3.831   0.894
  262SOL    HW2 1078   0.220   3.860   0.984
  262SOL    HW3 1079   0.199   3.735   0.900
  262SOL    MW4 1080   0.205   3.822   0.907
  263SOL     OW 1081   0.002   3.979   0.771
  263SOL    HW2 1082  -0.082   3.947   0.804
  263SOL    HW3 1083   0.067   3.928   0.820
  263SOL    MW4 1084   0.000   3.968   0.782
  264SOL     OW 1085   0.032   4.244   0.870
  264SOL    HW2 1086   0.011   4.232   0.962
  264SOL    HW3 1087   0.027   4.156   0.833
  264SOL    MW4 1088   0.029   4.230   0.877
  265SOL     OW 1089   0.254   4.371   0.773
  265SOL    HW2 1090   0.177   4.327   0.810
  265SOL    HW3 1091   0.251   4.351   0.680
  265SOL    MW4 1092   0.244   4.362   0.766
  266SOL     OW 1093   0.698   4.640   0.855
  266SOL    HW2 1094   0.683   4.654   0.949
  266SOL    HW3 1095   0.637   4.701   0.812
  266SOL    MW4 1096   0.688   4.650   0.862
  267SOL     OW 1097   0.490   0.098   0.736
  267SOL    HW2 1098   0.416   0.057   0.780
  267SOL    HW3 1099   0.491   0.061   0.648
  267SOL    MW4 1100   0.481   0.088   0.731
  268SOL     OW 1101   0.416   0.352   0.786
  268SOL    HW2 1102   0.480   0.418   0.760
  268SOL    HW3 1103   0.455   0.269   0.759
  268SOL    MW4 1104   0.430   0.350   0.779
  269SOL     OW 1105   0.643   0.521   0.763
  269SOL    HW2 1106   0.722   0.485   0.804
  269SOL    HW3 1107   0.658   0.509   0.669
  269SOL    MW4 1108   0.656   0.515   0.756
  270SOL     OW 1109   0.639   0.798   0.835
  270SOL    HW2 1110   0.567   0.842   0.790
  270SOL    HW3 1111   0.633   0.707   0.808
  270SOL    MW4 1112   0.629   0.792   0.825
  271SOL     OW 1113   0.372   0.877   0.739
  271SOL    HW2 1114   0.355   0.963   0.778
  271SOL    HW3 1115   0.297   0.824   0.764
  271SOL    MW4 1116   0.360   0.882   0.747
  272SOL     OW 1117   0.418   1.155   0.817
  272SOL    HW2 1118   0.499   1.193   0.783
  272SOL    HW3 1119   0.348   1.205   0.775
  272SOL    MW4 1120   0.419   1.166   0.807
  273SOL     OW 1121   0.665   1.259   0.730
  273SOL    HW2 1122   0.697   1.347   0.748
  273SOL    HW3 1123   0.673   1.250   0.635
  273SOL    MW4 1124   0.670   1.269   0.720
  274SOL     OW 1125   0.713   1.527   0.822
  274SOL    HW2 1126   0.708   1.517   0.917
  274SOL    HW3 1127   0.631   1.570   0.798
  274SOL    MW4 1128   0.702   1.531   0.831
  275SOL     OW 1129   0.472   1.648   0.773
  275SOL    HW2 1130   0.476   1.742   0.793
  275SOL    HW3 1131   0.462   1.645   0.678
  275SOL    MW4 1132   0.471   1.660   0.763
  276SOL     OW 1133   0.439   1.931   0.887
  276SOL    HW2 1134   0.443   1.941   0.982
  276SOL    HW3 1135   0.358   1.977   0.862
  276SOL    MW4 1136   0.429   1.939   0.896
  277SOL     OW 1137   0.667   2.028   0.764
  277SOL    HW2 1138   0.597   1.977   0.804
  277SOL    HW3 1139   0.634   2.051   0.677
  277SOL    MW4 1140   0.654   2.024   0.758
  278SOL     OW 1141   0.661   2.292   0.868
  278SOL    HW2 1142   0.666   2.289   0.964
  278SOL    HW3 1143   0.645   2.202   0.842
  278SOL    MW4 1144   0.659   2.280   0.878
  279SOL     OW 1145   0.437   2.455   0.807
  279SOL    HW2 1146   0.512   2.407   0.841
  279SOL    HW3 1147   0.422   2.418   0.720
  279SOL    MW4 1148   0.445   2.444   0.800
  280SOL     OW 1149   0.481   2.709   0.898
  280SOL    HW2 1150   0.471   2.620   0.865
  280SOL    HW3 1151   0.408   2.757   0.859
  280SOL    MW4 1152   0.470   2.704   0.888
  281SOL     OW 1153   0.712   2.787   0.745
  281SOL    HW2 1154   0.789   2.769   0.798
  281SOL    HW3 1155   0.638   2.772   0.804
  281SOL    MW4 1156   0.713   2.783   0.760
  282SOL     OW 1157   0.715   3.048   0.843
  282SOL    HW2 1158   0.631   3.090   0.823
  282SOL    HW3 1159   0.704   2.957   0.816
  282SOL    MW4 1160   0.702   3.042   0.837
  283SOL     OW 1161   0.477   3.193   0.752
  283SOL    HW2 1162   0.464   3.272   0.805
  283SOL    HW3 1163   0.393   3.147   0.757
  283SOL    MW4 1164   0.464   3.197   0.760
  284SOL     OW 1165   0.454   3.446   0.867
  284SOL    HW2 1166   0.447   3.441   0.963
  284SOL    HW3 1167   0.376   3.493   0.840
  284SOL    MW4 1168   0.443   3.452   0.876
  285SOL     OW 1169   0.684   3.575   0.735
  285SOL    HW2 1170   0.607   3.528   0.766
  285SOL    HW3 1171   0.666   3.667   0.755
  285SOL    MW4 1172   0.671   3.581   0.742
  286SOL     OW 1173   0.677   3.841   0.843
  286SOL    HW2 1174   0.752   3.889   0.808
  286SOL    HW3 1175   0.600   3.882   0.803
  286SOL    MW4 1176   0.677   3.852   0.834
  287SOL     OW 1177   0.436   3.927   0.742
  287SOL    HW2 1178   0.444   4.017   0.773
  287SOL    HW3 1179   0.359   3.893   0.787
  287SOL    MW4 1180   0.427   3.934   0.752
  288SOL     OW 1181   0.481   4.201   0.833
  288SOL    HW2 1182   0.476   4.196   0.928
  288SOL    HW3 1183   0.405   4.251   0.807
  288SOL    MW4 1184   0.471   4.207   0.842
  289SOL     OW 1185   0.685   4.376   0.766
  289SOL    HW2 1186   0.603   4.330   0.784
  289SOL    HW3 1187   0.674   4.461   0.810
  289SOL    MW4 1188   0.673   4.382   0.774
  290SOL     OW 1189   1.161   4.656   0.824
  290SOL    HW2 1190   1.228   4.710   0.780
  290SOL    HW3 1191   1.078   4.700   0.804
  290SOL    MW4 1192   1.159   4.669   0.816
  291SOL     OW 1193   0.914   0.100   0.731
  291SOL    HW2 1194   0.902   0.194   0.739
  291SOL    HW3 1195   0.842   0.062   0.782
  291SOL    MW4 1196   0.903   0.107   0.739
  292SOL     OW 1197   0.889   0.381   0.804
  292SOL    HW2 1198   0.907   0.353   0.894
  292SOL    HW3 1199   0.972   0.416   0.773
  292SOL    MW4 1200   0.902   0.382   0.812
  293SOL     OW 1201   1.136   0.459   0.732
  293SOL    HW2 1202   1.210   0.416   0.774
  293SOL    HW3 1203   1.143   0.435   0.640
  293SOL    MW4 1204   1.146   0.450   0.725
  294SOL     OW 1205   1.155   0.724   0.809
  294SOL    HW2 1206   1.148   0.715   0.904
  294SOL    HW3 1207   1.154   0.634   0.777
  294SOL    MW4 1208   1.154   0.711   0.817
  295SOL     OW 1209   0.916   0.844   0.742
  295SOL    HW2 1210   0.983   0.791   0.786
  295SOL    HW3 1211   0.834   0.818   0.784
  295SOL    MW4 1212   0.914   0.834   0.753
  296SOL     OW 1213   0.901   1.129   0.811
  296SOL    HW2 1214   0.911   1.039   0.778
  296SOL    HW3 1215   0.813   1.155   0.783
  296SOL    MW4 1216   0.890   1.120   0.803
  297SOL     OW 1217   1.131   1.287   0.769
  297SOL    HW2 1218   1.056   1.238   0.801
  297SOL    HW3 1219   1.115   1.298   0.676
  297SOL    MW4 1220   1.119   1.282   0.761
  298SOL     OW 1221   1.156   1.551   0.880
  298SOL    HW2 1222   1.085   1.596   0.835
  298SOL    HW3 1223   1.155   1.462   0.845
  298SOL    MW4 1224   1.147   1.546   0.869
  299SOL     OW 1225   0.940   1.650   0.735
  299SOL    HW2 1226   0.915   1.740   0.754
  299SOL    HW3 1227   0.881   1.597   0.788
  299SOL    MW4 1228   0.929   1.655   0.745
  300SOL     OW 1229   0.910   1.934   0.798
  300SOL    HW2 1230   0.903   1.929   0.893
  300SOL    HW3 1231   0.824   1.965   0.769
  300SOL    MW4 1232   0.898   1.937   0.807
  301SOL     OW 1233   1.150   2.078   0.711
  301SOL    HW2 1234   1.137   2.167   0.742
  301SOL    HW3 1235   1.076   2.029   0.747
  301SOL    MW4 1236   1.138   2.083   0.720
  302SOL     OW 1237   1.126   2.349   0.821
  302SOL    HW2 1238   1.133   2.325   0.913
  302SOL    HW3 1239   1.216   2.367   0.794
  302SOL    MW4 1240   1.139   2.348   0.829
  303SOL     OW 1241   0.874   2.441   0.747
  303SOL    HW2 1242   0.960   2.400   0.758
  303SOL    HW3 1243   0.815   2.387   0.801
  303SOL    MW4 1244   0.877   2.428   0.756
  304SOL     OW 1245   0.949   2.686   0.841
  304SOL    HW2 1246   0.963   2.676   0.935
  304SOL    HW3 1247   0.932   2.597   0.809
  304SOL    MW4 1248   0.948   2.673   0.849
  305SOL     OW 1249   1.160   2.840   0.741
  305SOL    HW2 1250   1.098   2.771   0.765
  305SOL    HW3 1251   1.177   2.826   0.648
  305SOL    MW4 1252   1.154   2.829   0.732
  306SOL     OW 1253   1.124   3.080   0.855
  306SOL    HW2 1254   1.046   3.118   0.815
  306SOL    HW3 1255   1.134   2.995   0.812
  306SOL    MW4 1256   1.115   3.074   0.844
  307SOL     OW 1257   0.914   3.240   0.794
  307SOL    HW2 1258   0.894   3.325   0.832
  307SOL    HW3 1259   0.838   3.185   0.816
  307SOL    MW4 1260   0.901   3.244   0.802
  308SOL     OW 1261   0.911   3.496   0.878
  308SOL    HW2 1262   0.986   3.521   0.824
  308SOL    HW3 1263   0.835   3.529   0.830
  308SOL    MW4 1264   0.911   3.504   0.864
  309SOL     OW 1265   1.128   3.570   0.721
  309SOL    HW2 1266   1.199   3.540   0.777
  309SOL    HW3 1267   1.166   3.570   0.633
  309SOL    MW4 1268   1.142   3.566   0.717
  310SOL     OW 1269   1.115   3.843   0.797
  310SOL    HW2 1270   1.113   3.849   0.892
  310SOL    HW3 1271   1.098   3.751   0.778
  310SOL    MW4 1272   1.113   3.832   0.807
  311SOL     OW 1273   0.896   4.000   0.730
  311SOL    HW2 1274   0.889   4.084   0.776
  311SOL    HW3 1275   0.980   3.964   0.757
  311SOL    MW4 1276   0.906   4.006   0.740
  312SOL     OW 1277   0.918   4.260   0.872
  312SOL    HW2 1278   0.979   4.312   0.820
  312SOL    HW3 1279   0.831   4.288   0.843
  312SOL    MW4 1280   0.915   4.271   0.862
  313SOL     OW 1281   1.090   4.410   0.706
  313SOL    HW2 1282   1.161   4.350   0.726
  313SOL    HW3 1283   1.113   4.491   0.752
  313SOL    MW4 1284   1.102   4.413   0.714
  314SOL     OW 1285   1.590   0.020   0.799
  314SOL    HW2 1286   1.591   0.024   0.895
  314SOL    HW3 1287   1.501   0.044   0.775
  314SOL    MW4 1288   1.578   0.024   0.809
  315SOL     OW 1289   1.353   0.110   0.700
  315SOL    HW2 1290   1.353   0.197   0.738
  315SOL    HW3 1291   1.329   0.124   0.608
  315SOL    MW4 1292   1.350   0.123   0.692
  316SOL     OW 1293   1.361   0.353   0.807
  316SOL    HW2 1294   1.360   0.359   0.902
  316SOL    HW3 1295   1.446   0.389   0.782
  316SOL    MW4 1296   1.372   0.359   0.816
  317SOL     OW 1297   1.632   0.433   0.741
  317SOL    HW2 1298   1.640   0.523   0.773
  317SOL    HW3 1299   1.702   0.386   0.786
  317SOL    MW4 1300   1.642   0.439   0.751
  318SOL     OW 1301   1.617   0.706   0.859
  318SOL    HW2 1302   1.690   0.762   0.833
  318SOL    HW3 1303   1.539   0.751   0.826
  318SOL    MW4 1304   1.616   0.719   0.851
  319SOL     OW 1305   1.398   0.836   0.766
  319SOL    HW2 1306   1.392   0.926   0.797
  319SOL    HW3 1307   1.318   0.794   0.799
  319SOL    MW4 1308   1.386   0.842   0.774
  320SOL     OW 1309   1.348   1.114   0.844
  320SOL    HW2 1310   1.421   1.159   0.803
  320SOL    HW3 1311   1.272   1.168   0.823
  320SOL    MW4 1312   1.347   1.127   0.836
  321SOL     OW 1313   1.554   1.241   0.728
  321SOL    HW2 1314   1.564   1.336   0.721
  321SOL    HW3 1315   1.571   1.208   0.640
  321SOL    MW4 1316   1.558   1.249   0.716
  322SOL     OW 1317   1.710   1.644   0.907
  322SOL    HW2 1318   1.657   1.621   0.983
  322SOL    HW3 1319   1.790   1.592   0.916
  322SOL    MW4 1320   1.714   1.634   0.918
  323SOL     OW 1321   1.337   1.679   0.713
  323SOL    HW2 1322   1.354   1.763   0.754
  323SOL    HW3 1323   1.284   1.631   0.777
  323SOL    MW4 1324   1.332   1.684   0.727
  324SOL     OW 1325   1.382   1.921   0.822
  324SOL    HW2 1326   1.383   1.926   0.917
  324SOL    HW3 1327   1.308   1.975   0.796
  324SOL    MW4 1328   1.372   1.929   0.831
  325SOL     OW 1329   1.624   2.027   0.739
  325SOL    HW2 1330   1.538   1.993   0.765
  325SOL    HW3 1331   1.616   2.044   0.645
  325SOL    MW4 1332   1.611   2.025   0.730
  326SOL     OW 1333   1.608   2.290   0.847
  326SOL    HW2 1334   1.523   2.318   0.814
  326SOL    HW3 1335   1.627   2.209   0.799
  326SOL    MW4 1336   1.600   2.283   0.836
  327SOL     OW 1337   1.383   2.427   0.731
  327SOL    HW2 1338   1.381   2.518   0.762
  327SOL    HW3 1339   1.381   2.434   0.636
  327SOL    MW4 1340   1.382   2.440   0.723
  328SOL     OW 1341   1.390   2.690   0.847
  328SOL    HW2 1342   1.378   2.684   0.942
  328SOL    HW3 1343   1.317   2.744   0.817
  328SOL    MW4 1344   1.379   2.696   0.856
  329SOL     OW 1345   1.625   2.821   0.776
  329SOL    HW2 1346   1.623   2.915   0.797
  329SOL    HW3 1347   1.541   2.788   0.806
  329SOL    MW4 1348   1.614   2.829   0.782
  330SOL     OW 1349   1.581   3.092   0.849
  330SOL    HW2 1350   1.574   3.100   0.944
  330SOL    HW3 1351   1.497   3.124   0.816
  330SOL    MW4 1352   1.569   3.097   0.857
  331SOL     OW 1353   1.353   3.223   0.744
  331SOL    HW2 1354   1.273   3.178   0.769
  331SOL    HW3 1355   1.337   3.253   0.655
  331SOL    MW4 1356   1.341   3.221   0.735
  332SOL     OW 1357   1.331   3.476   0.876
  332SOL    HW2 1358   1.417   3.514   0.857
  332SOL    HW3 1359   1.332   3.391   0.831
  332SOL    MW4 1360   1.342   3.470   0.867
  333SOL     OW 1361   1.563   3.603   0.806
  333SOL    HW2 1362   1.649   3.564   0.825
  333SOL    HW3 1363   1.569   3.632   0.715
  333SOL    MW4 1364   1.575   3.602   0.796
  334SOL     OW 1365   1.596   3.874   0.858
  334SOL    HW2 1366   1.521   3.919   0.819
  334SOL    HW3 1367   1.579   3.781   0.841
  334SOL    MW4 1368   1.584   3.868   0.850
  335SOL     OW 1369   1.359   3.995   0.769
  335SOL    HW2 1370   1.287   3.932   0.774
  335SOL    HW3 1371   1.361   4.021   0.677
  335SOL    MW4 1372   1.349   3.990   0.758
  336SOL     OW 1373   1.311   4.272   0.831
  336SOL    HW2 1374   1.395   4.317   0.825
  336SOL    HW3 1375   1.327   4.186   0.792
  336SOL    MW4 1376   1.324   4.266   0.825
  337SOL     OW 1377   1.550   4.398   0.791
  337SOL    HW2 1378   1.635   4.369   0.823
  337SOL    HW3 1379   1.562   4.490   0.768
  337SOL    MW4 1380   1.563   4.406   0.792
  338SOL     OW 1381   1.951   0.042   0.847
  338SOL    HW2 1382   2.042   0.071   0.835
  338SOL    HW3 1383   1.926   0.008   0.761
  338SOL    MW4 1384   1.960   0.041   0.834
  339SOL     OW 1385   1.669   0.089   0.528
  339SOL    HW2 1386   1.674   0.004   0.483
  339SOL    HW3 1387   1.643   0.066   0.617
  339SOL    MW4 1388   1.666   0.075   0.534
  340SOL     OW 1389   1.826   0.309   0.881
  340SOL    HW2 1390   1.855   0.219   0.863
  340SOL    HW3 1391   1.897   0.364   0.848
  340SOL    MW4 1392   1.840   0.304   0.874
  341SOL     OW 1393   2.028   0.480   0.799
  341SOL    HW2 1394   2.036   0.522   0.713
  341SOL    HW3 1395   2.113   0.438   0.813
  341SOL    MW4 1396   2.040   0.480   0.789
  342SOL     OW 1397   2.041   0.758   0.891
  342SOL    HW2 1398   2.124   0.779   0.847
  342SOL    HW3 1399   2.030   0.664   0.877
  342SOL    MW4 1400   2.050   0.749   0.883
  343SOL     OW 1401   1.810   0.844   0.758
  343SOL    HW2 1402   1.777   0.925   0.797
  343SOL    HW3 1403   1.895   0.831   0.800
  343SOL    MW4 1404   1.817   0.853   0.769
  344SOL     OW 1405   1.750   1.087   0.869
  344SOL    HW2 1406   1.823   1.132   0.826
  344SOL    HW3 1407   1.672   1.135   0.840
  344SOL    MW4 1408   1.749   1.100   0.859
  345SOL     OW 1409   1.981   1.253   0.797
  345SOL    HW2 1410   2.074   1.237   0.812
  345SOL    HW3 1411   1.976   1.288   0.708
  345SOL    MW4 1412   1.992   1.256   0.788
  346SOL     OW 1413   1.951   1.518   0.921
  346SOL    HW2 1414   2.027   1.559   0.880
  346SOL    HW3 1415   1.951   1.428   0.888
  346SOL    MW4 1416   1.961   1.511   0.911
  347SOL     OW 1417   1.893   1.710   0.504
  347SOL    HW2 1418   1.878   1.763   0.583
  347SOL    HW3 1419   1.839   1.632   0.518
  347SOL    MW4 1420   1.884   1.707   0.516
  348SOL     OW 1421   1.832   1.847   0.747
  348SOL    HW2 1422   1.784   1.782   0.797
  348SOL    HW3 1423   1.766   1.913   0.723
  348SOL    MW4 1424   1.817   1.847   0.750
  349SOL     OW 1425   2.039   2.015   0.693
  349SOL    HW2 1426   2.049   2.089   0.752
  349SOL    HW3 1427   1.975   1.959   0.735
  349SOL    MW4 1428   2.032   2.017   0.706
  350SOL     OW 1429   2.056   2.263   0.824
  350SOL    HW2 1430   2.043   2.272   0.919
  350SOL    HW3 1431   1.982   2.309   0.785
  350SOL    MW4 1432   2.044   2.270   0.832
  351SOL     OW 1433   1.826   2.428   0.747
  351SOL    HW2 1434   1.755   2.374   0.781
  351SOL    HW3 1435   1.808   2.434   0.653
  351SOL    MW4 1436   1.814   2.422   0.739
  352SOL     OW 1437   1.862   2.688   0.849
  352SOL    HW2 1438   1.841   2.599   0.820
  352SOL    HW3 1439   1.782   2.738   0.832
  352SOL    MW4 1440   1.848   2.683   0.843
  353SOL     OW 1441   2.071   2.832   0.712
  353SOL    HW2 1442   2.157   2.816   0.751
  353SOL    HW3 1443   2.010   2.785   0.768
  353SOL    MW4 1444   2.074   2.824   0.724
  354SOL     OW 1445   2.042   3.090   0.822
  354SOL    HW2 1446   1.960   3.132   0.798
  354SOL    HW3 1447   2.044   3.010   0.770
  354SOL    MW4 1448   2.032   3.085   0.812
  355SOL     OW 1449   1.811   3.246   0.755
  355SOL    HW2 1450   1.727   3.207   0.779
  355SOL    HW3 1451   1.806   3.255   0.660
  355SOL    MW4 1452   1.799   3.242   0.745
  356SOL     OW 1453   1.810   3.501   0.861
  356SOL    HW2 1454   1.821   3.482   0.955
  356SOL    HW3 1455   1.825   3.416   0.819
  356SOL    MW4 1456   1.814   3.487   0.868
  357SOL     OW 1457   2.042   3.602   0.755
  357SOL    HW2 1458   2.036   3.696   0.774
  357SOL    HW3 1459   1.961   3.565   0.790
  357SOL    MW4 1460   2.030   3.609   0.762
  358SOL     OW 1461   2.031   3.877   0.816
  358SOL    HW2 1462   2.035   3.886   0.911
  358SOL    HW3 1463   1.959   3.934   0.789
  358SOL    MW4 1464   2.022   3.886   0.825
  359SOL     OW 1465   1.802   4.005   0.720
  359SOL    HW2 1466   1.745   3.939   0.759
  359SOL    HW3 1467   1.767   4.018   0.632
  359SOL    MW4 1468   1.790   3.998   0.713
  360SOL     OW 1469   1.796   4.275   0.847
  360SOL    HW2 1470   1.783   4.268   0.941
  360SOL    HW3 1471   1.802   4.185   0.816
  360SOL    MW4 1472   1.795   4.262   0.855
  361SOL     OW 1473   2.024   4.374   0.701
  361SOL    HW2 1474   1.948   4.358   0.756
  361SOL    HW3 1475   2.018   4.308   0.632
  361SOL    MW4 1476   2.013   4.363   0.699
  362SOL     OW 1477   2.451   4.643   0.885
  362SOL    HW2 1478   2.445   4.656   0.980
  362SOL    HW3 1479   2.524   4.699   0.857
  362SOL    MW4 1480   2.460   4.652   0.894
  363SOL     OW 1481   2.214   0.117   0.810
  363SOL    HW2 1482   2.291   0.074   0.848
  363SOL    HW3 1483   2.237   0.131   0.719
  363SOL    MW4 1484   2.227   0.113   0.803
  364SOL     OW 1485   2.260   0.364   0.871
  364SOL    HW2 1486   2.330   0.403   0.819
  364SOL    HW3 1487   2.253   0.274   0.839
  364SOL    MW4 1488   2.268   0.357   0.860
  365SOL     OW 1489   2.479   0.488   0.745
  365SOL    HW2 1490   2.482   0.478   0.650
  365SOL    HW3 1491   2.564   0.454   0.775
  365SOL    MW4 1492   2.491   0.482   0.737
  366SOL     OW 1493   2.490   0.727   0.883
  366SOL    HW2 1494   2.538   0.782   0.822
  366SOL    HW3 1495   2.480   0.644   0.837
  366SOL    MW4 1496   2.495   0.723   0.869
  367SOL     OW 1497   2.278   0.897   0.817
  367SOL    HW2 1498   2.336   0.847   0.874
  367SOL    HW3 1499   2.322   0.897   0.732
  367SOL    MW4 1500   2.291   0.890   0.813
  368SOL     OW 1501   2.229   1.157   0.917
  368SOL    HW2 1502   2.242   1.168   1.011
  368SOL    HW3 1503   2.250   1.065   0.901
  368SOL    MW4 1504   2.234   1.146   0.927
  369SOL     OW 1505   2.445   1.297   0.817
  369SOL    HW2 1506   2.376   1.260   0.871
  369SOL    HW3 1507   2.425   1.267   0.728
  369SOL    MW4 1508   2.433   1.288   0.812
  370SOL     OW 1509   2.443   1.571   0.848
  370SOL    HW2 1510   2.516   1.617   0.807
  370SOL    HW3 1511   2.448   1.482   0.813
  370SOL    MW4 1512   2.453   1.565   0.838
  371SOL     OW 1513   2.177   1.615   0.807
  371SOL    HW2 1514   2.268   1.601   0.831
  371SOL    HW3 1515   2.176   1.613   0.711
  371SOL    MW4 1516   2.189   1.613   0.797
  372SOL     OW 1517   2.269   1.890   0.812
  372SOL    HW2 1518   2.252   1.796   0.805
  372SOL    HW3 1519   2.210   1.930   0.749
  372SOL    MW4 1520   2.259   1.883   0.803
  373SOL     OW 1521   2.456   2.061   0.729
  373SOL    HW2 1522   2.390   1.995   0.749
  373SOL    HW3 1523   2.426   2.101   0.647
  373SOL    MW4 1524   2.443   2.058   0.721
  374SOL     OW 1525   2.459   2.330   0.871
  374SOL    HW2 1526   2.529   2.381   0.831
  374SOL    HW3 1527   2.467   2.243   0.831
  374SOL    MW4 1528   2.469   2.325   0.860
  375SOL     OW 1529   2.248   2.472   0.772
  375SOL    HW2 1530   2.327   2.426   0.798
  375SOL    HW3 1531   2.176   2.414   0.799
  375SOL    MW4 1532   2.249   2.458   0.779
  376SOL     OW 1533   2.297   2.738   0.847
  376SOL    HW2 1534   2.289   2.735   0.942
  376SOL    HW3 1535   2.291   2.646   0.820
  376SOL    MW4 1536   2.295   2.725   0.856
  377SOL     OW 1537   2.558   2.850   0.788
  377SOL    HW2 1538   2.620   2.798   0.838
  377SOL    HW3 1539   2.476   2.802   0.793
  377SOL    MW4 1540   2.555   2.837   0.795
  378SOL     OW 1541   2.451   3.083   0.922
  378SOL    HW2 1542   2.445   3.077   1.018
  378SOL    HW3 1543   2.472   2.994   0.894
  378SOL    MW4 1544   2.453   3.071   0.931
  379SOL     OW 1545   2.284   3.227   0.752
  379SOL    HW2 1546   2.207   3.174   0.774
  379SOL    HW3 1547   2.354   3.191   0.805
  379SOL    MW4 1548   2.283   3.215   0.762
  380SOL     OW 1549   2.257   3.479   0.884
  380SOL    HW2 1550   2.254   3.391   0.847
  380SOL    HW3 1551   2.178   3.521   0.851
  380SOL    MW4 1552   2.246   3.473   0.875
  381SOL     OW 1553   2.469   3.609   0.760
  381SOL    HW2 1554   2.543   3.555   0.788
  381SOL    HW3 1555   2.392   3.563   0.792
  381SOL    MW4 1556   2.469   3.596   0.768
  382SOL     OW 1557   2.495   3.870   0.835
  382SOL    HW2 1558   2.417   3.908   0.796
  382SOL    HW3 1559   2.480   3.776   0.832
  382SOL    MW4 1560   2.483   3.863   0.829
  383SOL     OW 1561   2.266   3.973   0.707
  383SOL    HW2 1562   2.187   3.948   0.755
  383SOL    HW3 1563   2.244   3.961   0.615
  383SOL    MW4 1564   2.253   3.968   0.702
  384SOL     OW 1565   2.234   4.241   0.837
  384SOL    HW2 1566   2.246   4.162   0.784
  384SOL    HW3 1567   2.158   4.284   0.798
  384SOL    MW4 1568   2.226   4.236   0.824
  385SOL     OW 1569   2.397   4.429   0.697
  385SOL    HW2 1570   2.423   4.496   0.759
  385SOL    HW3 1571   2.348   4.365   0.749
  385SOL    MW4 1572   2.394   4.429   0.712
  386SOL     OW 1573   2.915   4.648   0.842
  386SOL    HW2 1574   2.907   4.561   0.802
  386SOL    HW3 1575   2.838   4.695   0.812
  386SOL    MW4 1576   2.904   4.642   0.833
  387SOL     OW 1577   2.645   4.541   0.551
  387SOL    HW2 1578   2.609   4.623   0.517
  387SOL    HW3 1579   2.724   4.526   0.498
  387SOL    MW4 1580   2.650   4.550   0.539
  388SOL     OW 1581   2.705   0.393   0.859
  388SOL    HW2 1582   2.693   0.395   0.953
  388SOL    HW3 1583   2.772   0.459   0.842
  388SOL    MW4 1584   2.712   0.402   0.869
  389SOL     OW 1585   2.907   0.553   0.778
  389SOL    HW2 1586   2.985   0.517   0.819
  389SOL    HW3 1587   2.911   0.522   0.687
  389SOL    MW4 1588   2.918   0.544   0.771
  390SOL     OW 1589   2.875   0.784   0.898
  390SOL    HW2 1590   2.889   0.764   0.991
  390SOL    HW3 1591   2.901   0.704   0.853
  390SOL    MW4 1592   2.880   0.770   0.905
  391SOL     OW 1593   2.655   0.950   0.794
  391SOL    HW2 1594   2.725   0.899   0.834
  391SOL    HW3 1595   2.667   0.937   0.700
  391SOL    MW4 1596   2.666   0.941   0.787
  392SOL     OW 1597   2.673   1.203   0.920
  392SOL    HW2 1598   2.662   1.121   0.872
  392SOL    HW3 1599   2.591   1.251   0.904
  392SOL    MW4 1600   2.661   1.199   0.911
  393SOL     OW 1601   2.904   1.279   0.762
  393SOL    HW2 1602   2.986   1.232   0.779
  393SOL    HW3 1603   2.846   1.251   0.833
  393SOL    MW4 1604   2.907   1.269   0.773
  394SOL     OW 1605   2.911   1.541   0.867
  394SOL    HW2 1606   2.974   1.608   0.840
  394SOL    HW3 1607   2.930   1.465   0.812
  394SOL    MW4 1608   2.922   1.540   0.856
  395SOL     OW 1609   2.683   1.670   0.766
  395SOL    HW2 1610   2.695   1.762   0.789
  395SOL    HW3 1611   2.751   1.624   0.816
  395SOL    MW4 1612   2.694   1.676   0.775
  396SOL     OW 1613   2.694   1.934   0.816
  396SOL    HW2 1614   2.703   1.947   0.911
  396SOL    HW3 1615   2.605   1.963   0.797
  396SOL    MW4 1616   2.684   1.940   0.826
  397SOL     OW 1617   2.794   2.116   0.649
  397SOL    HW2 1618   2.850   2.167   0.708
  397SOL    HW3 1619   2.752   2.051   0.706
  397SOL    MW4 1620   2.796   2.114   0.664
  398SOL     OW 1621   2.900   2.296   0.833
  398SOL    HW2 1622   2.926   2.315   0.923
  398SOL    HW3 1623   2.813   2.334   0.824
  398SOL    MW4 1624   2.892   2.303   0.843
  399SOL     OW 1625   2.666   2.475   0.769
  399SOL    HW2 1626   2.638   2.513   0.685
  399SOL    HW3 1627   2.699   2.550   0.819
  399SOL    MW4 1628   2.666   2.490   0.764
  400SOL     OW 1629   2.769   2.706   0.898
  400SOL    HW2 1630   2.758   2.701   0.993
  400SOL    HW3 1631   2.824   2.782   0.884
  400SOL    MW4 1632   2.774   2.715   0.909
  401SOL     OW 1633   2.919   2.803   0.565
  401SOL    HW2 1634   2.940   2.713   0.539
  401SOL    HW3 1635   2.824   2.810   0.555
  401SOL    MW4 1636   2.909   2.792   0.561
  402SOL     OW 1637   2.927   3.130   0.935
  402SOL    HW2 1638   2.846   3.143   0.884
  402SOL    HW3 1639   2.955   3.042   0.912
  402SOL    MW4 1640   2.920   3.120   0.925
  403SOL     OW 1641   2.673   3.196   0.796
  403SOL    HW2 1642   2.661   3.291   0.795
  403SOL    HW3 1643   2.597   3.163   0.844
  403SOL    MW4 1644   2.661   3.204   0.802
  404SOL     OW 1645   2.673   3.478   0.885
  404SOL    HW2 1646   2.676   3.467   0.980
  404SOL    HW3 1647   2.760   3.512   0.862
  404SOL    MW4 1648   2.685   3.481   0.894
  405SOL     OW 1649   2.937   3.581   0.840
  405SOL    HW2 1650   2.947   3.676   0.844
  405SOL    HW3 1651   2.940   3.561   0.746
  405SOL    MW4 1652   2.938   3.591   0.828
  406SOL     OW 1653   2.957   3.871   0.847
  406SOL    HW2 1654   2.953   3.870   0.943
  406SOL    HW3 1655   2.875   3.912   0.821
  406SOL    MW4 1656   2.946   3.876   0.857
  407SOL     OW 1657   2.724   3.975   0.740
  407SOL    HW2 1658   2.642   3.938   0.775
  407SOL    HW3 1659   2.727   3.943   0.650
  407SOL    MW4 1660   2.713   3.966   0.733
  408SOL     OW 1661   2.664   4.234   0.806
  408SOL    HW2 1662   2.657   4.230   0.902
  408SOL    HW3 1663   2.700   4.149   0.781
  408SOL    MW4 1664   2.668   4.222   0.816
  409SOL     OW 1665   2.894   4.384   0.758
  409SOL    HW2 1666   2.963   4.336   0.804
  409SOL    HW3 1667   2.817   4.329   0.767
  409SOL    MW4 1668   2.893   4.371   0.766
  410SOL     OW 1669   3.351   0.018   0.818
  410SOL    HW2 1670   3.334   0.011   0.912
  410SOL    HW3 1671   3.274   0.065   0.784
  410SOL    MW4 1672   3.338   0.024   0.826
  411SOL     OW 1673   3.131   0.148   0.726
  411SOL    HW2 1674   3.113   0.234   0.763
  411SOL    HW3 1675   3.065   0.091   0.765
  411SOL    MW4 1676   3.120   0.152   0.736
  412SOL     OW 1677   3.127   0.373   0.858
  412SOL    HW2 1678   3.110   0.354   0.950
  412SOL    HW3 1679   3.209   0.423   0.858
  412SOL    MW4 1680   3.135   0.377   0.870
  413SOL     OW 1681   3.333   0.532   0.794
  413SOL    HW2 1682   3.418   0.501   0.827
  413SOL    HW3 1683   3.333   0.510   0.701
  413SOL    MW4 1684   3.344   0.525   0.786
  414SOL     OW 1685   3.342   0.797   0.858
  414SOL    HW2 1686   3.259   0.838   0.835
  414SOL    HW3 1687   3.334   0.706   0.827
  414SOL    MW4 1688   3.330   0.790   0.851
  415SOL     OW 1689   3.095   0.892   0.766
  415SOL    HW2 1690   3.107   0.974   0.813
  415SOL    HW3 1691   3.013   0.856   0.800
  415SOL    MW4 1692   3.086   0.898   0.776
  416SOL     OW 1693   3.152   1.141   0.864
  416SOL    HW2 1694   3.160   1.134   0.960
  416SOL    HW3 1695   3.233   1.183   0.837
  416SOL    MW4 1696   3.163   1.146   0.873
  417SOL     OW 1697   3.363   1.308   0.760
  417SOL    HW2 1698   3.448   1.278   0.792
  417SOL    HW3 1699   3.361   1.401   0.780
  417SOL    MW4 1700   3.374   1.316   0.767
  418SOL     OW 1701   3.329   1.574   0.860
  418SOL    HW2 1702   3.353   1.567   0.953
  418SOL    HW3 1703   3.402   1.621   0.820
  418SOL    MW4 1704   3.342   1.579   0.867
  419SOL     OW 1705   3.106   1.724   0.804
  419SOL    HW2 1706   3.186   1.681   0.833
  419SOL    HW3 1707   3.118   1.737   0.710
  419SOL    MW4 1708   3.118   1.720   0.796
  420SOL     OW 1709   3.208   1.970   0.874
  420SOL    HW2 1710   3.196   1.971   0.969
  420SOL    HW3 1711   3.179   1.882   0.847
  420SOL    MW4 1712   3.203   1.958   0.883
  421SOL     OW 1713   3.469   2.051   0.849
  421SOL    HW2 1714   3.469   2.145   0.866
  421SOL    HW3 1715   3.377   2.025   0.853
  421SOL    MW4 1716   3.457   2.060   0.851
  422SOL     OW 1717   3.497   2.337   0.847
  422SOL    HW2 1718   3.467   2.341   0.938
  422SOL    HW3 1719   3.593   2.338   0.853
  422SOL    MW4 1720   3.506   2.338   0.860
  423SOL     OW 1721   3.071   2.498   0.738
  423SOL    HW2 1722   3.155   2.462   0.713
  423SOL    HW3 1723   3.016   2.422   0.757
  423SOL    MW4 1724   3.075   2.483   0.737
  424SOL     OW 1725   3.159   2.707   0.904
  424SOL    HW2 1726   3.127   2.646   0.838
  424SOL    HW3 1727   3.228   2.756   0.861
  424SOL    MW4 1728   3.164   2.705   0.890
  425SOL     OW 1729   3.303   2.893   0.746
  425SOL    HW2 1730   3.256   2.897   0.662
  425SOL    HW3 1731   3.385   2.848   0.725
  425SOL    MW4 1732   3.308   2.888   0.732
  426SOL     OW 1733   3.401   3.107   0.925
  426SOL    HW2 1734   3.373   3.104   1.016
  426SOL    HW3 1735   3.382   3.019   0.891
  426SOL    MW4 1736   3.395   3.095   0.932
  427SOL     OW 1737   3.166   3.235   0.809
  427SOL    HW2 1738   3.222   3.178   0.862
  427SOL    HW3 1739   3.077   3.204   0.826
  427SOL    MW4 1740   3.161   3.223   0.818
  428SOL     OW 1741   3.200   3.496   0.916
  428SOL    HW2 1742   3.190   3.404   0.892
  428SOL    HW3 1743   3.117   3.537   0.889
  428SOL    MW4 1744   3.188   3.489   0.909
  429SOL     OW 1745   3.421   3.647   0.826
  429SOL    HW2 1746   3.443   3.700   0.902
  429SOL    HW3 1747   3.344   3.596   0.852
  429SOL    MW4 1748   3.414   3.647   0.839
  430SOL     OW 1749   3.495   3.984   0.892
  430SOL    HW2 1750   3.492   4.080   0.901
  430SOL    HW3 1751   3.445   3.952   0.967
  430SOL    MW4 1752   3.488   3.993   0.903
  431SOL     OW 1753   3.156   4.025   0.741
  431SOL    HW2 1754   3.212   3.962   0.696
  431SOL    HW3 1755   3.089   3.971   0.783
  431SOL    MW4 1756   3.155   4.010   0.741
  432SOL     OW 1757   3.113   4.266   0.854
  432SOL    HW2 1758   3.193   4.318   0.853
  432SOL    HW3 1759   3.138   4.183   0.813
  432SOL    MW4 1760   3.127   4.262   0.848
  433SOL     OW 1761   3.345   4.415   0.794
  433SOL    HW2 1762   3.338   4.509   0.779
  433SOL    HW3 1763   3.361   4.378   0.706
  433SOL    MW4 1764   3.346   4.422   0.780
  434SOL     OW 1765   3.809   4.627   0.840
  434SOL    HW2 1766   3.885   4.661   0.792
  434SOL    HW3 1767   3.735   4.679   0.807
  434SOL    MW4 1768   3.809   4.638   0.829
  435SOL     OW 1769   3.586   0.131   0.715
  435SOL    HW2 1770   3.513   0.080   0.750
  435SOL    HW3 1771   3.615   0.080   0.638
  435SOL    MW4 1772   3.580   0.117   0.709
  436SOL     OW 1773   3.587   0.386   0.803
  436SOL    HW2 1774   3.567   0.385   0.897
  436SOL    HW3 1775   3.572   0.296   0.775
  436SOL    MW4 1776   3.582   0.374   0.812
  437SOL     OW 1777   3.822   0.520   0.771
  437SOL    HW2 1778   3.819   0.599   0.825
  437SOL    HW3 1779   3.744   0.470   0.796
  437SOL    MW4 1780   3.811   0.524   0.781
  438SOL     OW 1781   3.793   0.777   0.889
  438SOL    HW2 1782   3.805   0.795   0.982
  438SOL    HW3 1783   3.864   0.823   0.845
  438SOL    MW4 1784   3.804   0.785   0.896
  439SOL     OW 1785   3.584   0.907   0.769
  439SOL    HW2 1786   3.655   0.854   0.806
  439SOL    HW3 1787   3.506   0.854   0.784
  439SOL    MW4 1788   3.583   0.893   0.776
  440SOL     OW 1789   3.621   1.181   0.867
  440SOL    HW2 1790   3.623   1.202   0.960
  440SOL    HW3 1791   3.588   1.090   0.864
  440SOL    MW4 1792   3.617   1.172   0.879
  441SOL     OW 1793   3.828   1.345   0.774
  441SOL    HW2 1794   3.756   1.289   0.803
  441SOL    HW3 1795   3.851   1.312   0.687
  441SOL    MW4 1796   3.821   1.334   0.766
  442SOL     OW 1797   3.875   1.587   0.869
  442SOL    HW2 1798   3.968   1.609   0.858
  442SOL    HW3 1799   3.865   1.504   0.821
  442SOL    MW4 1800   3.886   1.579   0.861
  443SOL     OW 1801   3.551   1.630   0.685
  443SOL    HW2 1802   3.512   1.651   0.600
  443SOL    HW3 1803   3.604   1.706   0.708
  443SOL    MW4 1804   3.553   1.643   0.677
  444SOL     OW 1805   3.790   1.810   0.705
  444SOL    HW2 1806   3.817   1.755   0.779
  444SOL    HW3 1807   3.802   1.899   0.736
  444SOL    MW4 1808   3.795   1.814   0.719
  445SOL     OW 1809   3.825   2.104   0.759
  445SOL    HW2 1810   3.818   2.198   0.773
  445SOL    HW3 1811   3.904   2.079   0.807
  445SOL    MW4 1812   3.835   2.113   0.767
  446SOL     OW 1813   3.681   2.126   0.510
  446SOL    HW2 1814   3.609   2.063   0.502
  446SOL    HW3 1815   3.729   2.097   0.588
  446SOL    MW4 1816   3.678   2.114   0.519
  447SOL     OW 1817   3.777   2.376   0.849
  447SOL    HW2 1818   3.740   2.465   0.851
  447SOL    HW3 1819   3.793   2.355   0.941
  447SOL    MW4 1820   3.774   2.385   0.861
  448SOL     OW 1821   3.680   2.640   0.859
  448SOL    HW2 1822   3.647   2.652   0.948
  448SOL    HW3 1823   3.728   2.720   0.840
  448SOL    MW4 1824   3.682   2.652   0.868
  449SOL     OW 1825   3.842   2.851   0.818
  449SOL    HW2 1826   3.853   2.945   0.835
  449SOL    HW3 1827   3.856   2.843   0.723
  449SOL    MW4 1828   3.845   2.863   0.807
  450SOL     OW 1829   3.883   3.125   0.855
  450SOL    HW2 1830   3.949   3.169   0.801
  450SOL    HW3 1831   3.801   3.137   0.808
  450SOL    MW4 1832   3.881   3.132   0.842
  451SOL     OW 1833   3.619   3.158   0.768
  451SOL    HW2 1834   3.545   3.111   0.807
  451SOL    HW3 1835   3.595   3.167   0.675
  451SOL    MW4 1836   3.606   3.153   0.761
  452SOL     OW 1837   3.614   3.420   0.882
  452SOL    HW2 1838   3.624   3.332   0.845
  452SOL    HW3 1839   3.567   3.469   0.815
  452SOL    MW4 1840   3.609   3.415   0.869
  453SOL     OW 1841   3.812   3.616   0.870
  453SOL    HW2 1842   3.885   3.583   0.923
  453SOL    HW3 1843   3.747   3.546   0.872
  453SOL    MW4 1844   3.813   3.603   0.878
  454SOL     OW 1845   3.774   3.916   0.876
  454SOL    HW2 1846   3.681   3.939   0.877
  454SOL    HW3 1847   3.775   3.823   0.852
  454SOL    MW4 1848   3.762   3.907   0.873
  455SOL     OW 1849   3.301   3.797   0.618
  455SOL    HW2 1850   3.366   3.860   0.588
  455SOL    HW3 1851   3.352   3.731   0.665
  455SOL    MW4 1852   3.317   3.797   0.621
  456SOL     OW 1853   3.562   4.264   0.849
  456SOL    HW2 1854   3.646   4.297   0.817
  456SOL    HW3 1855   3.498   4.329   0.820
  456SOL    MW4 1856   3.565   4.277   0.841
  457SOL     OW 1857   3.827   4.359   0.765
  457SOL    HW2 1858   3.912   4.342   0.804
  457SOL    HW3 1859   3.811   4.451   0.781
  457SOL    MW4 1860   3.836   4.369   0.772
  458SOL     OW 1861   4.246   4.567   0.822
  458SOL    HW2 1862   4.230   4.564   0.916
  458SOL    HW3 1863   4.172   4.616   0.787
  458SOL    MW4 1864   4.234   4.573   0.830
  459SOL     OW 1865   4.054   0.054   0.727
  459SOL    HW2 1866   4.038   0.146   0.748
  459SOL    HW3 1867   4.042   0.048   0.632
  459SOL    MW4 1868   4.051   0.065   0.717
  460SOL     OW 1869   3.997   0.304   0.814
  460SOL    HW2 1870   4.076   0.354   0.795
  460SOL    HW3 1871   3.925   0.365   0.798
  460SOL    MW4 1872   3.998   0.319   0.809
  461SOL     OW 1873   4.208   0.495   0.758
  461SOL    HW2 1874   4.283   0.440   0.776
  461SOL    HW3 1875   4.197   0.491   0.663
  461SOL    MW4 1876   4.216   0.487   0.747
  462SOL     OW 1877   4.223   0.786   0.828
  462SOL    HW2 1878   4.139   0.814   0.793
  462SOL    HW3 1879   4.225   0.691   0.813
  462SOL    MW4 1880   4.213   0.777   0.822
  463SOL     OW 1881   3.979   0.915   0.752
  463SOL    HW2 1882   3.995   0.999   0.795
  463SOL    HW3 1883   3.944   0.938   0.666
  463SOL    MW4 1884   3.977   0.929   0.746
  464SOL     OW 1885   4.033   1.174   0.860
  464SOL    HW2 1886   4.039   1.167   0.955
  464SOL    HW3 1887   3.966   1.240   0.844
  464SOL    MW4 1888   4.025   1.182   0.870
  465SOL     OW 1889   4.278   1.293   0.763
  465SOL    HW2 1890   4.199   1.259   0.805
  465SOL    HW3 1891   4.343   1.224   0.773
  465SOL    MW4 1892   4.276   1.279   0.770
  466SOL     OW 1893   4.367   1.537   0.854
  466SOL    HW2 1894   4.347   1.518   0.946
  466SOL    HW3 1895   4.350   1.455   0.809
  466SOL    MW4 1896   4.362   1.524   0.860
  467SOL     OW 1897   4.122   1.685   0.808
  467SOL    HW2 1898   4.200   1.638   0.838
  467SOL    HW3 1899   4.133   1.691   0.713
  467SOL    MW4 1900   4.134   1.679   0.800
  468SOL     OW 1901   4.054   1.972   0.861
  468SOL    HW2 1902   4.068   1.881   0.835
  468SOL    HW3 1903   4.129   2.019   0.824
  468SOL    MW4 1904   4.066   1.966   0.852
  469SOL     OW 1905   4.307   2.094   0.750
  469SOL    HW2 1906   4.370   2.024   0.769
  469SOL    HW3 1907   4.286   2.081   0.657
  469SOL    MW4 1908   4.313   2.083   0.740
  470SOL     OW 1909   4.278   2.321   0.884
  470SOL    HW2 1910   4.196   2.360   0.853
  470SOL    HW3 1911   4.287   2.241   0.833
  470SOL    MW4 1912   4.268   2.316   0.873
  471SOL     OW 1913   4.055   2.445   0.774
  471SOL    HW2 1914   4.066   2.514   0.839
  471SOL    HW3 1915   3.962   2.424   0.775
  471SOL    MW4 1916   4.044   2.451   0.783
  472SOL     OW 1917   4.064   2.706   0.907
  472SOL    HW2 1918   4.130   2.749   0.853
  472SOL    HW3 1919   3.982   2.750   0.885
  472SOL    MW4 1920   4.062   2.718   0.897
  473SOL     OW 1921   4.278   2.844   0.742
  473SOL    HW2 1922   4.363   2.802   0.760
  473SOL    HW3 1923   4.263   2.828   0.649
  473SOL    MW4 1924   4.288   2.836   0.732
  474SOL     OW 1925   4.246   3.096   0.869
  474SOL    HW2 1926   4.246   3.006   0.838
  474SOL    HW3 1927   4.335   3.127   0.854
  474SOL    MW4 1928   4.258   3.088   0.863
  475SOL     OW 1929   4.073   3.262   0.712
  475SOL    HW2 1930   4.062   3.335   0.773
  475SOL    HW3 1931   4.136   3.204   0.755
  475SOL    MW4 1932   4.080   3.264   0.726
  476SOL     OW 1933   4.033   3.454   0.911
  476SOL    HW2 1934   4.056   3.452   1.004
  476SOL    HW3 1935   4.099   3.511   0.871
  476SOL    MW4 1936   4.045   3.461   0.918
  477SOL     OW 1937   4.236   3.605   0.750
  477SOL    HW2 1938   4.249   3.699   0.757
  477SOL    HW3 1939   4.250   3.586   0.657
  477SOL    MW4 1940   4.240   3.615   0.738
  478SOL     OW 1941   4.251   3.854   0.863
  478SOL    HW2 1942   4.241   3.848   0.958
  478SOL    HW3 1943   4.180   3.911   0.835
  478SOL    MW4 1944   4.241   3.861   0.872
  479SOL     OW 1945   4.032   4.011   0.773
  479SOL    HW2 1946   3.949   3.967   0.792
  479SOL    HW3 1947   4.051   3.988   0.682
  479SOL    MW4 1948   4.023   4.002   0.764
  480SOL     OW 1949   4.065   4.253   0.876
  480SOL    HW2 1950   4.137   4.281   0.819
  480SOL    HW3 1951   4.046   4.163   0.849
  480SOL    MW4 1952   4.072   4.245   0.865
  481SOL     OW 1953   4.292   4.309   0.723
  481SOL    HW2 1954   4.291   4.402   0.742
  481SOL    HW3 1955   4.372   4.276   0.765
  481SOL    MW4 1956   4.302   4.317   0.731
  482SOL     OW 1957   0.230   4.584   1.114
  482SOL    HW2 1958   0.281   4.659   1.145
  482SOL    HW3 1959   0.229   4.593   1.019
  482SOL    MW4 1960   0.237   4.595   1.106
  483SOL     OW 1961   4.482   0.056   1.178
  483SOL    HW2 1962   4.402   0.007   1.157
  483SOL    HW3 1963   4.553  -0.006   1.164
  483SOL    MW4 1964   4.481   0.041   1.174
  484SOL     OW 1965   4.443   0.313   1.080
  484SOL    HW2 1966   4.368   0.350   1.127
  484SOL    HW3 1967   4.448   0.223   1.113
  484SOL    MW4 1968   4.433   0.306   1.091
  485SOL     OW 1969   0.178   0.461   1.159
  485SOL    HW2 1970   0.158   0.553   1.141
  485SOL    HW3 1971   0.101   0.413   1.128
  485SOL    MW4 1972   0.165   0.467   1.153
  486SOL     OW 1973   0.187   0.729   1.082
  486SOL    HW2 1974   0.266   0.772   1.113
  486SOL    HW3 1975   0.115   0.776   1.125
  486SOL    MW4 1976   0.188   0.741   1.092
  487SOL     OW 1977   4.444   0.863   1.193
  487SOL    HW2 1978   4.450   0.860   1.288
  487SOL    HW3 1979   4.351   0.848   1.174
  487SOL    MW4 1980   4.433   0.861   1.203
  488SOL     OW 1981   0.002   1.124   1.093
  488SOL    HW2 1982  -0.063   1.179   1.138
  488SOL    HW3 1983  -0.012   1.037   1.129
  488SOL    MW4 1984  -0.009   1.120   1.104
  489SOL     OW 1985   0.223   1.252   1.196
  489SOL    HW2 1986   0.295   1.202   1.159
  489SOL    HW3 1987   0.144   1.211   1.160
  489SOL    MW4 1988   0.222   1.240   1.186
  490SOL     OW 1989   0.213   1.527   1.143
  490SOL    HW2 1990   0.242   1.444   1.181
  490SOL    HW3 1991   0.201   1.507   1.050
  490SOL    MW4 1992   0.216   1.513   1.135
  491SOL     OW 1993   0.002   1.662   1.249
  491SOL    HW2 1994   0.026   1.737   1.195
  491SOL    HW3 1995   0.070   1.597   1.232
  491SOL    MW4 1996   0.014   1.663   1.240
  492SOL     OW 1997   0.027   1.897   1.091
  492SOL    HW2 1998  -0.052   1.941   1.123
  492SOL    HW3 1999   0.014   1.889   0.997
  492SOL    MW4 2000   0.015   1.902   1.083
  493SOL     OW 2001   0.224   2.049   1.235
  493SOL    HW2 2002   0.240   2.142   1.215
  493SOL    HW3 2003   0.155   2.023   1.174
  493SOL    MW4 2004   0.217   2.058   1.224
  494SOL     OW 2005   0.222   2.313   1.174
  494SOL    HW2 2006   0.311   2.344   1.192
  494SOL    HW3 2007   0.165   2.380   1.211
  494SOL    MW4 2008   0.226   2.326   1.181
  495SOL     OW 2009   0.016   2.497   1.216
  495SOL    HW2 2010   0.013   2.495   1.312
  495SOL    HW3 2011  -0.041   2.425   1.189
  495SOL    MW4 2012   0.008   2.487   1.225
  496SOL     OW 2013   4.472   2.745   1.102
  496SOL    HW2 2014   4.399   2.794   1.142
  496SOL    HW3 2015   4.466   2.658   1.140
  496SOL    MW4 2016   4.462   2.740   1.113
  497SOL     OW 2017   0.220   2.835   1.235
  497SOL    HW2 2018   0.230   2.822   1.329
  497SOL    HW3 2019   0.133   2.800   1.214
  497SOL    MW4 2020   0.210   2.829   1.244
  498SOL     OW 2021   0.213   3.096   1.139
  498SOL    HW2 2022   0.298   3.136   1.155
  498SOL    HW3 2023   0.220   3.009   1.177
  498SOL    MW4 2024   0.225   3.090   1.146
  499SOL     OW 2025   4.482   3.229   1.203
  499SOL    HW2 2026   4.411   3.166   1.194
  499SOL    HW3 2027   4.562   3.179   1.187
  499SOL    MW4 2028   4.483   3.214   1.200
  500SOL     OW 2029   0.035   3.501   1.146
  500SOL    HW2 2030  -0.002   3.415   1.168
  500SOL    HW3 2031   0.030   3.506   1.051
  500SOL    MW4 2032   0.029   3.490   1.136
  501SOL     OW 2033   0.266   3.621   1.211
  501SOL    HW2 2034   0.284   3.611   1.304
  501SOL    HW3 2035   0.175   3.590   1.201
  501SOL    MW4 2036   0.256   3.616   1.222
  502SOL     OW 2037   0.224   3.890   1.171
  502SOL    HW2 2038   0.134   3.915   1.193
  502SOL    HW3 2039   0.230   3.798   1.196
  502SOL    MW4 2040   0.213   3.881   1.177
  503SOL     OW 2041   4.449   3.994   1.240
  503SOL    HW2 2042   4.457   3.992   1.335
  503SOL    HW3 2043   4.368   3.948   1.222
  503SOL    MW4 2044   4.439   3.988   1.250
  504SOL     OW 2045   4.475   4.251   1.150
  504SOL    HW2 2046   4.551   4.280   1.201
  504SOL    HW3 2047   4.459   4.161   1.178
  504SOL    MW4 2048   4.483   4.243   1.160
  505SOL     OW 2049   0.250   4.335   1.253
  505SOL    HW2 2050   0.250   4.366   1.344
  505SOL    HW3 2051   0.256   4.414   1.201
  505SOL    MW4 2052   0.251   4.349   1.258
  506SOL     OW 2053   0.660   4.650   1.126
  506SOL    HW2 2054   0.746   4.669   1.162
  506SOL    HW3 2055   0.645   4.558   1.146
  506SOL    MW4 2056   0.669   4.640   1.134
  507SOL     OW 2057   0.416   0.096   1.208
  507SOL    HW2 2058   0.405   0.172   1.151
  507SOL    HW3 2059   0.494   0.052   1.175
  507SOL    MW4 2060   0.425   0.100   1.196
  508SOL     OW 2061   0.407   0.325   1.047
  508SOL    HW2 2062   0.327   0.371   1.075
  508SOL    HW3 2063   0.410   0.337   0.952
  508SOL    MW4 2064   0.397   0.333   1.038
  509SOL     OW 2065   0.694   0.489   1.162
  509SOL    HW2 2066   0.671   0.575   1.126
  509SOL    HW3 2067   0.628   0.430   1.127
  509SOL    MW4 2068   0.682   0.493   1.153
  510SOL     OW 2069   0.671   0.772   1.102
  510SOL    HW2 2070   0.586   0.796   1.137
  510SOL    HW3 2071   0.661   0.779   1.007
  510SOL    MW4 2072   0.659   0.776   1.094
  511SOL     OW 2073   0.419   0.832   1.195
  511SOL    HW2 2074   0.422   0.833   1.290
  511SOL    HW3 2075   0.410   0.924   1.170
  511SOL    MW4 2076   0.418   0.844   1.204
  512SOL     OW 2077   0.435   1.105   1.091
  512SOL    HW2 2078   0.503   1.165   1.122
  512SOL    HW3 2079   0.440   1.111   0.996
  512SOL    MW4 2080   0.445   1.113   1.083
  513SOL     OW 2081   0.642   1.261   1.199
  513SOL    HW2 2082   0.716   1.218   1.158
  513SOL    HW3 2083   0.660   1.355   1.190
  513SOL    MW4 2084   0.654   1.268   1.193
  514SOL     OW 2085   0.683   1.516   1.108
  514SOL    HW2 2086   0.759   1.558   1.149
  514SOL    HW3 2087   0.607   1.563   1.144
  514SOL    MW4 2088   0.683   1.528   1.118
  515SOL     OW 2089   0.445   1.651   1.226
  515SOL    HW2 2090   0.444   1.644   1.321
  515SOL    HW3 2091   0.355   1.632   1.199
  515SOL    MW4 2092   0.433   1.648   1.235
  516SOL     OW 2093   0.458   1.928   1.181
  516SOL    HW2 2094   0.452   1.833   1.193
  516SOL    HW3 2095   0.373   1.962   1.212
  516SOL    MW4 2096   0.446   1.920   1.187
  517SOL     OW 2097   0.716   2.033   1.226
  517SOL    HW2 2098   0.709   2.026   1.321
  517SOL    HW3 2099   0.633   2.000   1.193
  517SOL    MW4 2100   0.704   2.028   1.234
  518SOL     OW 2101   0.704   2.303   1.151
  518SOL    HW2 2102   0.619   2.330   1.186
  518SOL    HW3 2103   0.719   2.216   1.189
  518SOL    MW4 2104   0.695   2.295   1.160
  519SOL     OW 2105   0.468   2.417   1.249
  519SOL    HW2 2106   0.446   2.418   1.342
  519SOL    HW3 2107   0.460   2.508   1.222
  519SOL    MW4 2108   0.464   2.429   1.258
  520SOL     OW 2109   0.436   2.676   1.168
  520SOL    HW2 2110   0.357   2.723   1.195
  520SOL    HW3 2111   0.447   2.698   1.076
  520SOL    MW4 2112   0.427   2.685   1.159
  521SOL     OW 2113   0.681   2.786   1.267
  521SOL    HW2 2114   0.677   2.872   1.226
  521SOL    HW3 2115   0.600   2.743   1.241
  521SOL    MW4 2116   0.670   2.791   1.258
  522SOL     OW 2117   0.697   3.037   1.129
  522SOL    HW2 2118   0.773   3.084   1.163
  522SOL    HW3 2119   0.704   3.044   1.034
  522SOL    MW4 2120   0.708   3.044   1.121
  523SOL     OW 2121   0.470   3.176   1.221
  523SOL    HW2 2122   0.481   3.265   1.188
  523SOL    HW3 2123   0.551   3.131   1.195
  523SOL    MW4 2124   0.482   3.182   1.213
  524SOL     OW 2125   0.455   3.435   1.133
  524SOL    HW2 2126   0.531   3.491   1.146
  524SOL    HW3 2127   0.381   3.489   1.160
  524SOL    MW4 2128   0.455   3.449   1.138
  525SOL     OW 2129   0.665   3.593   1.195
  525SOL    HW2 2130   0.661   3.606   1.290
  525SOL    HW3 2131   0.697   3.676   1.161
  525SOL    MW4 2132   0.668   3.605   1.203
  526SOL     OW 2133   0.713   3.866   1.131
  526SOL    HW2 2134   0.635   3.911   1.164
  526SOL    HW3 2135   0.707   3.875   1.036
  526SOL    MW4 2136   0.702   3.873   1.123
  527SOL     OW 2137   0.476   3.992   1.233
  527SOL    HW2 2138   0.480   4.078   1.192
  527SOL    HW3 2139   0.389   3.958   1.209
  527SOL    MW4 2140   0.465   3.999   1.224
  528SOL     OW 2141   0.469   4.232   1.104
  528SOL    HW2 2142   0.529   4.299   1.136
  528SOL    HW3 2143   0.392   4.240   1.160
  528SOL    MW4 2144   0.467   4.242   1.115
  529SOL     OW 2145   0.669   4.384   1.229
  529SOL    HW2 2146   0.681   4.389   1.324
  529SOL    HW3 2147   0.755   4.360   1.195
  529SOL    MW4 2148   0.682   4.382   1.237
  530SOL     OW 2149   1.188   0.037   1.104
  530SOL    HW2 2150   1.191  -0.057   1.124
  530SOL    HW3 2151   1.169   0.042   1.011
  530SOL    MW4 2152   1.186   0.025   1.095
  531SOL     OW 2153   0.925   0.056   1.186
  531SOL    HW2 2154   0.925   0.076   1.280
  531SOL    HW3 2155   1.016   0.033   1.167
  531SOL    MW4 2156   0.937   0.055   1.196
  532SOL     OW 2157   0.905   0.320   1.082
  532SOL    HW2 2158   0.909   0.235   1.125
  532SOL    HW3 2159   0.848   0.372   1.138
  532SOL    MW4 2160   0.898   0.316   1.095
  533SOL     OW 2161   1.129   0.463   1.167
  533SOL    HW2 2162   1.114   0.461   1.261
  533SOL    HW3 2163   1.059   0.408   1.130
  533SOL    MW4 2164   1.117   0.455   1.174
  534SOL     OW 2165   1.161   0.717   1.085
  534SOL    HW2 2166   1.085   0.766   1.115
  534SOL    HW3 2167   1.155   0.632   1.130
  534SOL    MW4 2168   1.150   0.712   1.095
  535SOL     OW 2169   0.932   0.864   1.162
  535SOL    HW2 2170   0.921   0.952   1.127
  535SOL    HW3 2171   0.845   0.824   1.153
  535SOL    MW4 2172   0.919   0.870   1.156
  536SOL     OW 2173   0.859   1.132   1.083
  536SOL    HW2 2174   0.938   1.172   1.120
  536SOL    HW3 2175   0.873   1.134   0.988
  536SOL    MW4 2176   0.871   1.137   1.075
  537SOL     OW 2177   1.103   1.254   1.193
  537SOL    HW2 2178   1.093   1.259   1.288
  537SOL    HW3 2179   1.188   1.212   1.180
  537SOL    MW4 2180   1.113   1.249   1.204
  538SOL     OW 2181   1.140   1.527   1.146
  538SOL    HW2 2182   1.125   1.434   1.161
  538SOL    HW3 2183   1.137   1.537   1.051
  538SOL    MW4 2184   1.138   1.516   1.136
  539SOL     OW 2185   0.888   1.653   1.216
  539SOL    HW2 2186   0.896   1.741   1.178
  539SOL    HW3 2187   0.975   1.616   1.208
  539SOL    MW4 2188   0.900   1.660   1.210
  540SOL     OW 2189   0.895   1.888   1.070
  540SOL    HW2 2190   0.969   1.932   1.111
  540SOL    HW3 2191   0.818   1.933   1.105
  540SOL    MW4 2192   0.895   1.900   1.080
  541SOL     OW 2193   1.126   2.038   1.175
  541SOL    HW2 2194   1.136   2.045   1.270
  541SOL    HW3 2195   1.133   2.128   1.144
  541SOL    MW4 2196   1.128   2.050   1.184
  542SOL     OW 2197   1.144   2.309   1.088
  542SOL    HW2 2198   1.220   2.340   1.137
  542SOL    HW3 2199   1.071   2.360   1.122
  542SOL    MW4 2200   1.144   2.320   1.099
  543SOL     OW 2201   0.939   2.436   1.219
  543SOL    HW2 2202   0.926   2.449   1.313
  543SOL    HW3 2203   0.856   2.398   1.189
  543SOL    MW4 2204   0.926   2.433   1.228
  544SOL     OW 2205   0.907   2.694   1.127
  544SOL    HW2 2206   0.924   2.605   1.159
  544SOL    HW3 2207   0.834   2.725   1.180
  544SOL    MW4 2208   0.899   2.686   1.138
  545SOL     OW 2209   1.143   2.823   1.199
  545SOL    HW2 2210   1.134   2.820   1.294
  545SOL    HW3 2211   1.063   2.784   1.165
  545SOL    MW4 2212   1.131   2.818   1.207
  546SOL     OW 2213   1.128   3.096   1.144
  546SOL    HW2 2214   1.122   3.003   1.167
  546SOL    HW3 2215   1.135   3.097   1.049
  546SOL    MW4 2216   1.128   3.084   1.134
  547SOL     OW 2217   0.885   3.195   1.230
  547SOL    HW2 2218   0.890   3.288   1.209
  547SOL    HW3 2219   0.971   3.159   1.206
  547SOL    MW4 2220   0.897   3.202   1.224
  548SOL     OW 2221   0.902   3.468   1.155
  548SOL    HW2 2222   0.815   3.503   1.171
  548SOL    HW3 2223   0.912   3.472   1.059
  548SOL    MW4 2224   0.892   3.473   1.144
  549SOL     OW 2225   1.114   3.623   1.213
  549SOL    HW2 2226   1.189   3.569   1.191
  549SOL    HW3 2227   1.038   3.566   1.198
  549SOL    MW4 2228   1.114   3.608   1.209
  550SOL     OW 2229   1.104   3.865   1.076
  550SOL    HW2 2230   1.031   3.901   1.126
  550SOL    HW3 2231   1.117   3.778   1.112
  550SOL    MW4 2232   1.096   3.859   1.087
  551SOL     OW 2233   0.932   4.003   1.233
  551SOL    HW2 2234   0.948   3.993   1.327
  551SOL    HW3 2235   0.846   3.962   1.220
  551SOL    MW4 2236   0.922   3.996   1.243
  552SOL     OW 2237   0.913   4.265   1.141
  552SOL    HW2 2238   0.925   4.180   1.183
  552SOL    HW3 2239   0.918   4.246   1.047
  552SOL    MW4 2240   0.915   4.251   1.134
  553SOL     OW 2241   1.165   4.433   1.174
  553SOL    HW2 2242   1.147   4.415   1.266
  553SOL    HW3 2243   1.087   4.404   1.128
  553SOL    MW4 2244   1.153   4.426   1.180
  554SOL     OW 2245   1.602   4.649   1.077
  554SOL    HW2 2246   1.661   4.697   1.136
  554SOL    HW3 2247   1.586   4.566   1.122
  554SOL    MW4 2248   1.608   4.644   1.091
  555SOL     OW 2249   1.427   0.112   1.222
  555SOL    HW2 2250   1.482   0.064   1.160
  555SOL    HW3 2251   1.338   0.090   1.197
  555SOL    MW4 2252   1.423   0.103   1.211
  556SOL     OW 2253   1.366   0.350   1.072
  556SOL    HW2 2254   1.370   0.264   1.112
  556SOL    HW3 2255   1.287   0.390   1.107
  556SOL    MW4 2256   1.356   0.344   1.082
  557SOL     OW 2257   1.556   0.489   1.225
  557SOL    HW2 2258   1.547   0.583   1.209
  557SOL    HW3 2259   1.486   0.449   1.172
  557SOL    MW4 2260   1.545   0.496   1.216
  558SOL     OW 2261   1.565   0.756   1.126
  558SOL    HW2 2262   1.648   0.791   1.158
  558SOL    HW3 2263   1.584   0.725   1.037
  558SOL    MW4 2264   1.578   0.756   1.119
  559SOL     OW 2265   1.326   0.856   1.250
  559SOL    HW2 2266   1.406   0.820   1.211
  559SOL    HW3 2267   1.255   0.815   1.202
  559SOL    MW4 2268   1.327   0.846   1.239
  560SOL     OW 2269   1.327   1.125   1.146
  560SOL    HW2 2270   1.325   1.037   1.184
  560SOL    HW3 2271   1.333   1.110   1.052
  560SOL    MW4 2272   1.327   1.111   1.139
  561SOL     OW 2273   1.529   1.292   1.241
  561SOL    HW2 2274   1.598   1.236   1.206
  561SOL    HW3 2275   1.448   1.252   1.209
  561SOL    MW4 2276   1.527   1.279   1.232
  562SOL     OW 2277   1.606   1.534   1.126
  562SOL    HW2 2278   1.674   1.583   1.172
  562SOL    HW3 2279   1.598   1.452   1.175
  562SOL    MW4 2280   1.614   1.530   1.139
  563SOL     OW 2281   1.362   1.679   1.193
  563SOL    HW2 2282   1.436   1.630   1.158
  563SOL    HW3 2283   1.287   1.620   1.184
  563SOL    MW4 2284   1.362   1.665   1.187
  564SOL     OW 2285   1.368   1.944   1.096
  564SOL    HW2 2286   1.369   1.851   1.115
  564SOL    HW3 2287   1.277   1.971   1.110
  564SOL    MW4 2288   1.356   1.936   1.100
  565SOL     OW 2289   1.578   2.071   1.247
  565SOL    HW2 2290   1.597   2.160   1.218
  565SOL    HW3 2291   1.494   2.050   1.207
  565SOL    MW4 2292   1.570   2.080   1.238
  566SOL     OW 2293   1.598   2.324   1.121
  566SOL    HW2 2294   1.518   2.373   1.137
  566SOL    HW3 2295   1.600   2.310   1.027
  566SOL    MW4 2296   1.588   2.329   1.111
  567SOL     OW 2297   1.357   2.434   1.201
  567SOL    HW2 2298   1.373   2.443   1.295
  567SOL    HW3 2299   1.365   2.523   1.166
  567SOL    MW4 2300   1.360   2.447   1.209
  568SOL     OW 2301   1.378   2.688   1.124
  568SOL    HW2 2302   1.456   2.724   1.166
  568SOL    HW3 2303   1.306   2.743   1.155
  568SOL    MW4 2304   1.379   2.700   1.134
  569SOL     OW 2305   1.585   2.841   1.222
  569SOL    HW2 2306   1.677   2.817   1.212
  569SOL    HW3 2307   1.578   2.928   1.182
  569SOL    MW4 2308   1.596   2.849   1.215
  570SOL     OW 2309   1.568   3.089   1.117
  570SOL    HW2 2310   1.644   3.138   1.147
  570SOL    HW3 2311   1.495   3.128   1.166
  570SOL    MW4 2312   1.568   3.101   1.128
  571SOL     OW 2313   1.345   3.218   1.240
  571SOL    HW2 2314   1.339   3.206   1.335
  571SOL    HW3 2315   1.268   3.173   1.205
  571SOL    MW4 2316   1.334   3.211   1.248
  572SOL     OW 2317   1.339   3.475   1.147
  572SOL    HW2 2318   1.346   3.384   1.178
  572SOL    HW3 2319   1.328   3.467   1.052
  572SOL    MW4 2320   1.339   3.462   1.138
  573SOL     OW 2321   1.579   3.618   1.200
  573SOL    HW2 2322   1.552   3.706   1.175
  573SOL    HW3 2323   1.502   3.563   1.183
  573SOL    MW4 2324   1.565   3.622   1.194
  574SOL     OW 2325   1.542   3.874   1.120
  574SOL    HW2 2326   1.461   3.925   1.132
  574SOL    HW3 2327   1.558   3.876   1.026
  574SOL    MW4 2328   1.533   3.881   1.109
  575SOL     OW 2329   1.289   3.992   1.227
  575SOL    HW2 2330   1.292   4.068   1.169
  575SOL    HW3 2331   1.218   3.939   1.194
  575SOL    MW4 2332   1.280   3.995   1.215
  576SOL     OW 2333   1.329   4.234   1.105
  576SOL    HW2 2334   1.262   4.296   1.132
  576SOL    HW3 2335   1.321   4.229   1.010
  576SOL    MW4 2336   1.319   4.241   1.096
  577SOL     OW 2337   1.562   4.397   1.202
  577SOL    HW2 2338   1.570   4.400   1.297
  577SOL    HW3 2339   1.492   4.334   1.186
  577SOL    MW4 2340   1.554   4.389   1.212
  578SOL     OW 2341   2.019   4.659   1.132
  578SOL    HW2 2342   2.016   4.567   1.159
  578SOL    HW3 2343   1.999   4.657   1.038
  578SOL    MW4 2344   2.016   4.647   1.123
  579SOL     OW 2345   1.805   0.105   1.251
  579SOL    HW2 2346   1.814   0.191   1.211
  579SOL    HW3 2347   1.875   0.053   1.212
  579SOL    MW4 2348   1.815   0.109   1.241
  580SOL     OW 2349   1.806   0.360   1.144
  580SOL    HW2 2350   1.727   0.413   1.149
  580SOL    HW3 2351   1.816   0.340   1.051
  580SOL    MW4 2352   1.797   0.364   1.132
  581SOL     OW 2353   2.050   0.485   1.247
  581SOL    HW2 2354   2.055   0.479   1.343
  581SOL    HW3 2355   1.967   0.443   1.225
  581SOL    MW4 2356   2.040   0.478   1.257
  582SOL     OW 2357   2.031   0.768   1.166
  582SOL    HW2 2358   2.039   0.674   1.184
  582SOL    HW3 2359   2.051   0.775   1.072
  582SOL    MW4 2360   2.035   0.756   1.156
  583SOL     OW 2361   1.770   0.883   1.232
  583SOL    HW2 2362   1.757   0.883   1.327
  583SOL    HW3 2363   1.854   0.841   1.219
  583SOL    MW4 2364   1.779   0.878   1.243
  584SOL     OW 2365   1.754   1.143   1.140
  584SOL    HW2 2366   1.766   1.054   1.174
  584SOL    HW3 2367   1.749   1.132   1.045
  584SOL    MW4 2368   1.755   1.130   1.132
  585SOL     OW 2369   2.005   1.250   1.242
  585SOL    HW2 2370   2.083   1.202   1.212
  585SOL    HW3 2371   1.934   1.214   1.190
  585SOL    MW4 2372   2.006   1.239   1.231
  586SOL     OW 2373   2.050   1.524   1.187
  586SOL    HW2 2374   2.036   1.431   1.206
  586SOL    HW3 2375   2.013   1.536   1.099
  586SOL    MW4 2376   2.043   1.513   1.178
  587SOL     OW 2377   1.806   1.664   1.263
  587SOL    HW2 2378   1.810   1.752   1.225
  587SOL    HW3 2379   1.894   1.629   1.252
  587SOL    MW4 2380   1.818   1.671   1.257
  588SOL     OW 2381   1.778   1.912   1.141
  588SOL    HW2 2382   1.706   1.968   1.171
  588SOL    HW3 2383   1.754   1.887   1.052
  588SOL    MW4 2384   1.765   1.916   1.133
  589SOL     OW 2385   2.030   2.048   1.178
  589SOL    HW2 2386   2.039   2.051   1.273
  589SOL    HW3 2387   1.958   1.987   1.163
  589SOL    MW4 2388   2.022   2.040   1.189
  590SOL     OW 2389   2.033   2.304   1.093
  590SOL    HW2 2390   2.109   2.341   1.138
  590SOL    HW3 2391   2.027   2.215   1.128
  590SOL    MW4 2392   2.043   2.297   1.104
  591SOL     OW 2393   1.828   2.449   1.219
  591SOL    HW2 2394   1.890   2.415   1.156
  591SOL    HW3 2395   1.744   2.412   1.194
  591SOL    MW4 2396   1.825   2.440   1.208
  592SOL     OW 2397   1.820   2.716   1.126
  592SOL    HW2 2398   1.819   2.631   1.169
  592SOL    HW3 2399   1.827   2.696   1.033
  592SOL    MW4 2400   1.821   2.702   1.119
  593SOL     OW 2401   2.065   2.837   1.173
  593SOL    HW2 2402   2.064   2.922   1.129
  593SOL    HW3 2403   1.979   2.799   1.153
  593SOL    MW4 2404   2.053   2.843   1.165
  594SOL     OW 2405   2.049   3.120   1.097
  594SOL    HW2 2406   1.963   3.147   1.131
  594SOL    HW3 2407   2.035   3.111   1.003
  594SOL    MW4 2408   2.036   3.122   1.089
  595SOL     OW 2409   1.794   3.205   1.192
  595SOL    HW2 2410   1.798   3.197   1.288
  595SOL    HW3 2411   1.810   3.298   1.175
  595SOL    MW4 2412   1.797   3.216   1.203
  596SOL     OW 2413   1.801   3.482   1.132
  596SOL    HW2 2414   1.878   3.517   1.176
  596SOL    HW3 2415   1.734   3.550   1.143
  596SOL    MW4 2416   1.802   3.495   1.139
  597SOL     OW 2417   2.066   3.618   1.210
  597SOL    HW2 2418   2.045   3.616   1.304
  597SOL    HW3 2419   2.144   3.562   1.203
  597SOL    MW4 2420   2.074   3.610   1.222
  598SOL     OW 2421   2.027   3.880   1.107
  598SOL    HW2 2422   1.945   3.904   1.149
  598SOL    HW3 2423   2.046   3.793   1.141
  598SOL    MW4 2424   2.019   3.872   1.117
  599SOL     OW 2425   1.777   3.970   1.233
  599SOL    HW2 2426   1.782   3.959   1.328
  599SOL    HW3 2427   1.704   3.913   1.207
  599SOL    MW4 2428   1.768   3.961   1.242
  600SOL     OW 2429   1.778   4.235   1.128
  600SOL    HW2 2430   1.764   4.148   1.166
  600SOL    HW3 2431   1.703   4.287   1.159
  600SOL    MW4 2432   1.766   4.231   1.137
  601SOL     OW 2433   1.994   4.394   1.233
  601SOL    HW2 2434   2.004   4.376   1.327
  601SOL    HW3 2435   1.921   4.339   1.206
  601SOL    MW4 2436   1.986   4.384   1.242
  602SOL     OW 2437   2.480   4.641   1.159
  602SOL    HW2 2438   2.556   4.697   1.177
  602SOL    HW3 2439   2.408   4.682   1.206
  602SOL    MW4 2440   2.481   4.654   1.167
  603SOL     OW 2441   2.253   0.102   1.245
  603SOL    HW2 2442   2.263   0.190   1.209
  603SOL    HW3 2443   2.170   0.070   1.209
  603SOL    MW4 2444   2.243   0.109   1.235
  604SOL     OW 2445   2.262   0.347   1.137
  604SOL    HW2 2446   2.190   0.400   1.170
  604SOL    HW3 2447   2.259   0.358   1.042
  604SOL    MW4 2448   2.252   0.355   1.129
  605SOL     OW 2449   2.468   0.495   1.240
  605SOL    HW2 2450   2.464   0.492   1.336
  605SOL    HW3 2451   2.390   0.449   1.211
  605SOL    MW4 2452   2.457   0.489   1.249
  606SOL     OW 2453   2.470   0.758   1.150
  606SOL    HW2 2454   2.471   0.671   1.190
  606SOL    HW3 2455   2.477   0.742   1.056
  606SOL    MW4 2456   2.471   0.744   1.143
  607SOL     OW 2457   2.263   0.912   1.256
  607SOL    HW2 2458   2.334   0.860   1.218
  607SOL    HW3 2459   2.184   0.872   1.222
  607SOL    MW4 2460   2.262   0.900   1.246
  608SOL     OW 2461   2.307   1.183   1.188
  608SOL    HW2 2462   2.385   1.223   1.227
  608SOL    HW3 2463   2.301   1.097   1.230
  608SOL    MW4 2464   2.316   1.177   1.199
  609SOL     OW 2465   2.536   1.301   1.270
  609SOL    HW2 2466   2.596   1.237   1.231
  609SOL    HW3 2467   2.549   1.380   1.218
  609SOL    MW4 2468   2.546   1.303   1.258
  610SOL     OW 2469   2.506   1.532   1.111
  610SOL    HW2 2470   2.429   1.563   1.159
  610SOL    HW3 2471   2.483   1.542   1.019
  610SOL    MW4 2472   2.493   1.538   1.106
  611SOL     OW 2473   2.281   1.658   1.214
  611SOL    HW2 2474   2.273   1.748   1.183
  611SOL    HW3 2475   2.194   1.620   1.201
  611SOL    MW4 2476   2.269   1.665   1.208
  612SOL     OW 2477   2.274   1.922   1.099
  612SOL    HW2 2478   2.191   1.962   1.124
  612SOL    HW3 2479   2.273   1.921   1.004
  612SOL    MW4 2480   2.263   1.927   1.090
  613SOL     OW 2481   2.474   2.038   1.245
  613SOL    HW2 2482   2.558   2.003   1.217
  613SOL    HW3 2483   2.409   1.985   1.197
  613SOL    MW4 2484   2.476   2.026   1.235
  614SOL     OW 2485   2.514   2.299   1.159
  614SOL    HW2 2486   2.497   2.209   1.185
  614SOL    HW3 2487   2.490   2.302   1.067
  614SOL    MW4 2488   2.509   2.288   1.150
  615SOL     OW 2489   2.269   2.419   1.238
  615SOL    HW2 2490   2.250   2.426   1.332
  615SOL    HW3 2491   2.352   2.372   1.233
  615SOL    MW4 2492   2.277   2.414   1.250
  616SOL     OW 2493   2.302   2.677   1.122
  616SOL    HW2 2494   2.307   2.583   1.140
  616SOL    HW3 2495   2.214   2.703   1.148
  616SOL    MW4 2496   2.291   2.668   1.128
  617SOL     OW 2497   2.506   2.772   1.279
  617SOL    HW2 2498   2.473   2.774   1.368
  617SOL    HW3 2499   2.431   2.744   1.226
  617SOL    MW4 2500   2.491   2.769   1.284
  618SOL     OW 2501   2.450   3.053   1.206
  618SOL    HW2 2502   2.371   3.091   1.244
  618SOL    HW3 2503   2.454   2.964   1.242
  618SOL    MW4 2504   2.440   3.046   1.216
  619SOL     OW 2505   2.228   3.224   1.293
  619SOL    HW2 2506   2.266   3.299   1.248
  619SOL    HW3 2507   2.153   3.198   1.240
  619SOL    MW4 2508   2.223   3.230   1.280
  620SOL     OW 2509   2.290   3.449   1.162
  620SOL    HW2 2510   2.353   3.520   1.176
  620SOL    HW3 2511   2.267   3.455   1.070
  620SOL    MW4 2512   2.296   3.459   1.152
  621SOL     OW 2513   2.482   3.633   1.222
  621SOL    HW2 2514   2.460   3.655   1.312
  621SOL    HW3 2515   2.489   3.717   1.177
  621SOL    MW4 2516   2.480   3.647   1.228
  622SOL     OW 2517   2.484   3.900   1.107
  622SOL    HW2 2518   2.398   3.939   1.119
  622SOL    HW3 2519   2.497   3.899   1.012
  622SOL    MW4 2520   2.474   3.905   1.096
  623SOL     OW 2521   2.253   4.000   1.174
  623SOL    HW2 2522   2.237   4.093   1.158
  623SOL    HW3 2523   2.172   3.957   1.148
  623SOL    MW4 2524   2.241   4.007   1.168
  624SOL     OW 2525   2.227   4.273   1.123
  624SOL    HW2 2526   2.147   4.321   1.143
  624SOL    HW3 2527   2.227   4.265   1.028
  624SOL    MW4 2528   2.217   4.278   1.113
  625SOL     OW 2529   2.471   4.362   1.231
  625SOL    HW2 2530   2.380   4.336   1.217
  625SOL    HW3 2531   2.473   4.455   1.208
  625SOL    MW4 2532   2.459   4.371   1.226
  626SOL     OW 2533   2.921   4.666   1.134
  626SOL    HW2 2534   2.912   4.577   1.166
  626SOL    HW3 2535   2.932   4.657   1.039
  626SOL    MW4 2536   2.922   4.653   1.126
  627SOL     OW 2537   2.702   0.133   1.225
  627SOL    HW2 2538   2.686   0.121   1.319
  627SOL    HW3 2539   2.777   0.077   1.206
  627SOL    MW4 2540   2.709   0.124   1.235
  628SOL     OW 2541   2.703   0.389   1.126
  628SOL    HW2 2542   2.696   0.295   1.138
  628SOL    HW3 2543   2.621   0.424   1.164
  628SOL    MW4 2544   2.691   0.381   1.133
  629SOL     OW 2545   2.932   0.498   1.248
  629SOL    HW2 2546   2.920   0.591   1.230
  629SOL    HW3 2547   2.857   0.455   1.207
  629SOL    MW4 2548   2.921   0.505   1.240
  630SOL     OW 2549   2.905   0.752   1.159
  630SOL    HW2 2550   2.983   0.805   1.177
  630SOL    HW3 2551   2.834   0.798   1.205
  630SOL    MW4 2552   2.906   0.765   1.167
  631SOL     OW 2553   2.671   0.873   1.276
  631SOL    HW2 2554   2.673   0.964   1.246
  631SOL    HW3 2555   2.601   0.833   1.225
  631SOL    MW4 2556   2.662   0.880   1.265
  632SOL     OW 2557   2.731   1.124   1.176
  632SOL    HW2 2558   2.807   1.174   1.208
  632SOL    HW3 2559   2.719   1.154   1.086
  632SOL    MW4 2560   2.739   1.134   1.168
  633SOL     OW 2561   2.942   1.282   1.251
  633SOL    HW2 2562   2.953   1.288   1.346
  633SOL    HW3 2563   2.927   1.372   1.223
  633SOL    MW4 2564   2.941   1.295   1.260
  634SOL     OW 2565   2.916   1.535   1.154
  634SOL    HW2 2566   2.997   1.583   1.173
  634SOL    HW3 2567   2.911   1.535   1.058
  634SOL    MW4 2568   2.926   1.541   1.144
  635SOL     OW 2569   2.708   1.691   1.223
  635SOL    HW2 2570   2.791   1.644   1.214
  635SOL    HW3 2571   2.645   1.637   1.176
  635SOL    MW4 2572   2.711   1.678   1.216
  636SOL     OW 2573   2.718   1.943   1.118
  636SOL    HW2 2574   2.791   1.998   1.147
  636SOL    HW3 2575   2.729   1.861   1.167
  636SOL    MW4 2576   2.729   1.939   1.128
  637SOL     OW 2577   2.959   2.074   1.207
  637SOL    HW2 2578   2.954   2.097   1.300
  637SOL    HW3 2579   2.954   2.158   1.162
  637SOL    MW4 2580   2.957   2.088   1.214
  638SOL     OW 2581   2.939   2.336   1.107
  638SOL    HW2 2582   3.017   2.350   1.160
  638SOL    HW3 2583   2.866   2.361   1.164
  638SOL    MW4 2584   2.940   2.341   1.122
  639SOL     OW 2585   2.739   2.423   1.257
  639SOL    HW2 2586   2.723   2.442   1.349
  639SOL    HW3 2587   2.659   2.381   1.227
  639SOL    MW4 2588   2.726   2.420   1.265
  640SOL     OW 2589   2.756   2.701   1.170
  640SOL    HW2 2590   2.748   2.614   1.210
  640SOL    HW3 2591   2.676   2.746   1.194
  640SOL    MW4 2592   2.745   2.695   1.178
  641SOL     OW 2593   2.958   2.850   1.264
  641SOL    HW2 2594   2.939   2.879   1.353
  641SOL    HW3 2595   2.883   2.797   1.239
  641SOL    MW4 2596   2.946   2.847   1.272
  642SOL     OW 2597   2.919   3.129   1.210
  642SOL    HW2 2598   2.939   3.037   1.225
  642SOL    HW3 2599   2.921   3.139   1.115
  642SOL    MW4 2600   2.922   3.118   1.199
  643SOL     OW 2601   2.651   3.215   1.283
  643SOL    HW2 2602   2.730   3.177   1.244
  643SOL    HW3 2603   2.580   3.158   1.254
  643SOL    MW4 2604   2.652   3.202   1.274
  644SOL     OW 2605   2.675   3.467   1.160
  644SOL    HW2 2606   2.663   3.386   1.208
  644SOL    HW3 2607   2.614   3.529   1.200
  644SOL    MW4 2608   2.666   3.465   1.171
  645SOL     OW 2609   2.872   3.606   1.282
  645SOL    HW2 2610   2.954   3.557   1.276
  645SOL    HW3 2611   2.809   3.554   1.232
  645SOL    MW4 2612   2.874   3.593   1.274
  646SOL     OW 2613   2.927   3.842   1.111
  646SOL    HW2 2614   2.997   3.889   1.156
  646SOL    HW3 2615   2.909   3.766   1.167
  646SOL    MW4 2616   2.934   3.838   1.124
  647SOL     OW 2617   2.714   3.993   1.220
  647SOL    HW2 2618   2.788   3.947   1.180
  647SOL    HW3 2619   2.636   3.950   1.183
  647SOL    MW4 2620   2.713   3.981   1.210
  648SOL     OW 2621   2.693   4.237   1.082
  648SOL    HW2 2622   2.699   4.156   1.133
  648SOL    HW3 2623   2.621   4.285   1.121
  648SOL    MW4 2624   2.685   4.233   1.094
  649SOL     OW 2625   2.887   4.398   1.237
  649SOL    HW2 2626   2.964   4.346   1.218
  649SOL    HW3 2627   2.817   4.358   1.185
  649SOL    MW4 2628   2.888   4.386   1.228
  650SOL     OW 2629   3.336   0.021   1.091
  650SOL    HW2 2630   3.424   0.038   1.124
  650SOL    HW3 2631   3.277   0.061   1.154
  650SOL    MW4 2632   3.340   0.028   1.103
  651SOL     OW 2633   3.147   0.098   1.260
  651SOL    HW2 2634   3.127   0.089   1.353
  651SOL    HW3 2635   3.071   0.061   1.215
  651SOL    MW4 2636   3.135   0.092   1.266
  652SOL     OW 2637   3.147   0.352   1.151
  652SOL    HW2 2638   3.165   0.265   1.187
  652SOL    HW3 2639   3.093   0.395   1.217
  652SOL    MW4 2640   3.142   0.346   1.164
  653SOL     OW 2641   3.362   0.534   1.208
  653SOL    HW2 2642   3.363   0.626   1.181
  653SOL    HW3 2643   3.285   0.497   1.165
  653SOL    MW4 2644   3.352   0.541   1.198
  654SOL     OW 2645   3.336   0.834   1.133
  654SOL    HW2 2646   3.249   0.864   1.156
  654SOL    HW3 2647   3.331   0.816   1.039
  654SOL    MW4 2648   3.324   0.835   1.123
  655SOL     OW 2649   3.095   0.918   1.243
  655SOL    HW2 2650   3.095   0.920   1.339
  655SOL    HW3 2651   3.102   1.010   1.218
  655SOL    MW4 2652   3.096   0.931   1.252
  656SOL     OW 2653   3.165   1.181   1.137
  656SOL    HW2 2654   3.245   1.223   1.169
  656SOL    HW3 2655   3.094   1.238   1.168
  656SOL    MW4 2656   3.166   1.194   1.146
  657SOL     OW 2657   3.408   1.287   1.209
  657SOL    HW2 2658   3.399   1.298   1.303
  657SOL    HW3 2659   3.408   1.376   1.174
  657SOL    MW4 2660   3.407   1.300   1.216
  658SOL     OW 2661   3.392   1.566   1.138
  658SOL    HW2 2662   3.464   1.608   1.185
  658SOL    HW3 2663   3.313   1.597   1.182
  658SOL    MW4 2664   3.391   1.576   1.150
  659SOL     OW 2665   3.148   1.659   1.229
  659SOL    HW2 2666   3.155   1.665   1.324
  659SOL    HW3 2667   3.135   1.749   1.200
  659SOL    MW4 2668   3.147   1.672   1.238
  660SOL     OW 2669   3.165   1.914   1.147
  660SOL    HW2 2670   3.250   1.956   1.162
  660SOL    HW3 2671   3.101   1.983   1.163
  660SOL    MW4 2672   3.168   1.929   1.152
  661SOL     OW 2673   3.401   2.049   1.195
  661SOL    HW2 2674   3.476   2.021   1.144
  661SOL    HW3 2675   3.385   2.140   1.167
  661SOL    MW4 2676   3.409   2.058   1.185
  662SOL     OW 2677   3.391   2.305   1.113
  662SOL    HW2 2678   3.450   2.354   1.170
  662SOL    HW3 2679   3.304   2.339   1.132
  662SOL    MW4 2680   3.388   2.316   1.123
  663SOL     OW 2681   3.173   2.388   1.263
  663SOL    HW2 2682   3.194   2.396   1.356
  663SOL    HW3 2683   3.186   2.476   1.229
  663SOL    MW4 2684   3.178   2.401   1.271
  664SOL     OW 2685   3.181   2.664   1.181
  664SOL    HW2 2686   3.114   2.718   1.222
  664SOL    HW3 2687   3.169   2.678   1.087
  664SOL    MW4 2688   3.171   2.673   1.174
  665SOL     OW 2689   3.386   2.829   1.230
  665SOL    HW2 2690   3.363   2.920   1.214
  665SOL    HW3 2691   3.304   2.781   1.217
  665SOL    MW4 2692   3.372   2.835   1.226
  666SOL     OW 2693   3.342   3.111   1.191
  666SOL    HW2 2694   3.430   3.141   1.213
  666SOL    HW3 2695   3.283   3.180   1.223
  666SOL    MW4 2696   3.345   3.124   1.199
  667SOL     OW 2697   3.140   3.260   1.291
  667SOL    HW2 2698   3.126   3.342   1.242
  667SOL    HW3 2699   3.064   3.206   1.268
  667SOL    MW4 2700   3.128   3.264   1.281
  668SOL     OW 2701   3.138   3.514   1.190
  668SOL    HW2 2702   3.221   3.551   1.220
  668SOL    HW3 2703   3.145   3.512   1.095
  668SOL    MW4 2704   3.149   3.519   1.182
  669SOL     OW 2705   3.389   3.631   1.231
  669SOL    HW2 2706   3.394   3.614   1.325
  669SOL    HW3 2707   3.444   3.563   1.192
  669SOL    MW4 2708   3.397   3.620   1.238
  670SOL     OW 2709   3.377   3.898   1.131
  670SOL    HW2 2710   3.292   3.927   1.163
  670SOL    HW3 2711   3.388   3.811   1.169
  670SOL    MW4 2712   3.367   3.890   1.140
  671SOL     OW 2713   3.134   3.989   1.218
  671SOL    HW2 2714   3.153   3.987   1.312
  671SOL    HW3 2715   3.128   4.083   1.197
  671SOL    MW4 2716   3.136   4.001   1.228
  672SOL     OW 2717   3.118   4.270   1.158
  672SOL    HW2 2718   3.198   4.322   1.166
  672SOL    HW3 2719   3.100   4.268   1.064
  672SOL    MW4 2720   3.126   4.277   1.147
  673SOL     OW 2721   3.328   4.429   1.200
  673SOL    HW2 2722   3.413   4.387   1.186
  673SOL    HW3 2723   3.336   4.514   1.156
  673SOL    MW4 2724   3.340   4.435   1.192
  674SOL     OW 2725   3.848   4.643   1.119
  674SOL    HW2 2726   3.819   4.557   1.149
  674SOL    HW3 2727   3.837   4.640   1.024
  674SOL    MW4 2728   3.842   4.631   1.110
  675SOL     OW 2729   3.560   0.130   1.205
  675SOL    HW2 2730   3.569   0.220   1.175
  675SOL    HW3 2731   3.648   0.092   1.196
  675SOL    MW4 2732   3.573   0.137   1.200
  676SOL     OW 2733   3.568   0.369   1.089
  676SOL    HW2 2734   3.650   0.391   1.133
  676SOL    HW3 2735   3.502   0.423   1.132
  676SOL    MW4 2736   3.570   0.379   1.101
  677SOL     OW 2737   3.779   0.493   1.203
  677SOL    HW2 2738   3.864   0.452   1.185
  677SOL    HW3 2739   3.791   0.585   1.182
  677SOL    MW4 2740   3.792   0.499   1.198
  678SOL     OW 2741   3.803   0.779   1.169
  678SOL    HW2 2742   3.877   0.830   1.203
  678SOL    HW3 2743   3.725   0.825   1.201
  678SOL    MW4 2744   3.803   0.792   1.178
  679SOL     OW 2745   3.564   0.937   1.231
  679SOL    HW2 2746   3.592   1.025   1.205
  679SOL    HW3 2747   3.486   0.921   1.179
  679SOL    MW4 2748   3.557   0.947   1.221
  680SOL     OW 2749   3.655   1.183   1.163
  680SOL    HW2 2750   3.714   1.244   1.208
  680SOL    HW3 2751   3.567   1.215   1.185
  680SOL    MW4 2752   3.651   1.195   1.172
  681SOL     OW 2753   3.907   1.310   1.233
  681SOL    HW2 2754   3.890   1.303   1.327
  681SOL    HW3 2755   3.875   1.398   1.210
  681SOL    MW4 2756   3.900   1.321   1.243
  682SOL     OW 2757   3.810   1.553   1.130
  682SOL    HW2 2758   3.877   1.610   1.168
  682SOL    HW3 2759   3.825   1.558   1.036
  682SOL    MW4 2760   3.821   1.561   1.123
  683SOL     OW 2761   3.602   1.687   1.240
  683SOL    HW2 2762   3.597   1.767   1.188
  683SOL    HW3 2763   3.677   1.640   1.204
  683SOL    MW4 2764   3.612   1.691   1.229
  684SOL     OW 2765   3.594   1.910   1.067
  684SOL    HW2 2766   3.679   1.950   1.085
  684SOL    HW3 2767   3.577   1.930   0.975
  684SOL    MW4 2768   3.603   1.918   1.057
  685SOL     OW 2769   3.827   2.061   1.177
  685SOL    HW2 2770   3.817   2.059   1.272
  685SOL    HW3 2771   3.916   2.030   1.162
  685SOL    MW4 2772   3.837   2.057   1.187
  686SOL     OW 2773   3.837   2.357   1.123
  686SOL    HW2 2774   3.920   2.390   1.155
  686SOL    HW3 2775   3.832   2.267   1.156
  686SOL    MW4 2776   3.847   2.349   1.132
  687SOL     OW 2777   3.595   2.443   1.238
  687SOL    HW2 2778   3.588   2.440   1.334
  687SOL    HW3 2779   3.681   2.404   1.220
  687SOL    MW4 2780   3.606   2.437   1.248
  688SOL     OW 2781   3.580   2.690   1.127
  688SOL    HW2 2782   3.576   2.602   1.165
  688SOL    HW3 2783   3.502   2.734   1.160
  688SOL    MW4 2784   3.569   2.684   1.136
  689SOL     OW 2785   3.790   2.847   1.205
  689SOL    HW2 2786   3.798   2.820   1.297
  689SOL    HW3 2787   3.716   2.797   1.172
  689SOL    MW4 2788   3.781   2.837   1.213
  690SOL     OW 2789   3.823   3.124   1.122
  690SOL    HW2 2790   3.826   3.032   1.146
  690SOL    HW3 2791   3.835   3.125   1.027
  690SOL    MW4 2792   3.825   3.112   1.113
  691SOL     OW 2793   3.601   3.194   1.262
  691SOL    HW2 2794   3.581   3.280   1.225
  691SOL    HW3 2795   3.683   3.168   1.219
  691SOL    MW4 2796   3.609   3.202   1.251
  692SOL     OW 2797   3.570   3.439   1.155
  692SOL    HW2 2798   3.653   3.481   1.180
  692SOL    HW3 2799   3.571   3.440   1.059
  692SOL    MW4 2800   3.581   3.445   1.145
  693SOL     OW 2801   3.848   3.611   1.229
  693SOL    HW2 2802   3.837   3.628   1.323
  693SOL    HW3 2803   3.808   3.687   1.186
  693SOL    MW4 2804   3.841   3.623   1.236
  694SOL     OW 2805   3.755   3.866   1.156
  694SOL    HW2 2806   3.689   3.930   1.185
  694SOL    HW3 2807   3.771   3.889   1.064
  694SOL    MW4 2808   3.748   3.878   1.147
  695SOL     OW 2809   3.574   4.056   1.237
  695SOL    HW2 2810   3.566   4.051   1.333
  695SOL    HW3 2811   3.499   4.006   1.204
  695SOL    MW4 2812   3.563   4.049   1.246
  696SOL     OW 2813   3.578   4.310   1.126
  696SOL    HW2 2814   3.579   4.228   1.175
  696SOL    HW3 2815   3.578   4.284   1.034
  696SOL    MW4 2816   3.578   4.296   1.120
  697SOL     OW 2817   3.818   4.394   1.214
  697SOL    HW2 2818   3.815   4.415   1.307
  697SOL    HW3 2819   3.728   4.373   1.191
  697SOL    MW4 2820   3.806   4.394   1.223
  698SOL     OW 2821   4.250   4.576   1.110
  698SOL    HW2 2822   4.273   4.504   1.169
  698SOL    HW3 2823   4.184   4.626   1.158
  698SOL    MW4 2824   4.244   4.573   1.124
  699SOL     OW 2825   4.059   0.096   1.240
  699SOL    HW2 2826   4.042   0.075   1.332
  699SOL    HW3 2827   3.989   0.052   1.192
  699SOL    MW4 2828   4.047   0.087   1.246
  700SOL     OW 2829   4.006   0.333   1.113
  700SOL    HW2 2830   4.024   0.253   1.163
  700SOL    HW3 2831   4.006   0.305   1.022
  700SOL    MW4 2832   4.008   0.318   1.108
  701SOL     OW 2833   4.260   0.475   1.204
  701SOL    HW2 2834   4.266   0.484   1.299
  701SOL    HW3 2835   4.172   0.442   1.188
  701SOL    MW4 2836   4.249   0.472   1.214
  702SOL     OW 2837   4.193   0.735   1.114
  702SOL    HW2 2838   4.220   0.643   1.121
  702SOL    HW3 2839   4.204   0.756   1.021
  702SOL    MW4 2840   4.198   0.726   1.103
  703SOL     OW 2841   4.037   0.902   1.270
  703SOL    HW2 2842   4.036   0.897   1.366
  703SOL    HW3 2843   4.093   0.829   1.243
  703SOL    MW4 2844   4.045   0.892   1.279
  704SOL     OW 2845   4.079   1.140   1.134
  704SOL    HW2 2846   4.072   1.071   1.200
  704SOL    HW3 2847   4.016   1.206   1.162
  704SOL    MW4 2848   4.070   1.140   1.147
  705SOL     OW 2849   4.292   1.264   1.234
  705SOL    HW2 2850   4.286   1.252   1.329
  705SOL    HW3 2851   4.209   1.231   1.200
  705SOL    MW4 2852   4.280   1.258   1.242
  706SOL     OW 2853   4.260   1.543   1.136
  706SOL    HW2 2854   4.248   1.463   1.187
  706SOL    HW3 2855   4.326   1.592   1.184
  706SOL    MW4 2856   4.267   1.539   1.149
  707SOL     OW 2857   4.034   1.692   1.211
  707SOL    HW2 2858   4.041   1.677   1.305
  707SOL    HW3 2859   4.104   1.640   1.172
  707SOL    MW4 2860   4.044   1.683   1.218
  708SOL     OW 2861   4.059   1.964   1.139
  708SOL    HW2 2862   4.057   1.876   1.177
  708SOL    HW3 2863   4.065   1.949   1.044
  708SOL    MW4 2864   4.059   1.950   1.131
  709SOL     OW 2865   4.321   2.045   1.223
  709SOL    HW2 2866   4.332   2.137   1.198
  709SOL    HW3 2867   4.232   2.023   1.194
  709SOL    MW4 2868   4.311   2.054   1.216
  710SOL     OW 2869   4.319   2.309   1.159
  710SOL    HW2 2870   4.243   2.356   1.194
  710SOL    HW3 2871   4.303   2.304   1.065
  710SOL    MW4 2872   4.306   2.315   1.151
  711SOL     OW 2873   4.084   2.442   1.227
  711SOL    HW2 2874   4.094   2.428   1.321
  711SOL    HW3 2875   4.057   2.533   1.218
  711SOL    MW4 2876   4.082   2.452   1.238
  712SOL     OW 2877   4.037   2.705   1.180
  712SOL    HW2 2878   3.956   2.756   1.172
  712SOL    HW3 2879   4.072   2.702   1.091
  712SOL    MW4 2880   4.031   2.712   1.167
  713SOL     OW 2881   4.264   2.831   1.272
  713SOL    HW2 2882   4.259   2.920   1.236
  713SOL    HW3 2883   4.184   2.788   1.242
  713SOL    MW4 2884   4.253   2.837   1.264
  714SOL     OW 2885   4.229   3.075   1.158
  714SOL    HW2 2886   4.172   3.141   1.198
  714SOL    HW3 2887   4.218   3.088   1.064
  714SOL    MW4 2888   4.220   3.086   1.151
  715SOL     OW 2889   4.036   3.241   1.248
  715SOL    HW2 2890   4.028   3.243   1.343
  715SOL    HW3 2891   3.965   3.185   1.218
  715SOL    MW4 2892   4.026   3.234   1.256
  716SOL     OW 2893   4.102   3.503   1.190
  716SOL    HW2 2894   4.076   3.414   1.215
  716SOL    HW3 2895   4.024   3.556   1.202
  716SOL    MW4 2896   4.088   3.498   1.195
  717SOL     OW 2897   4.315   3.654   1.294
  717SOL    HW2 2898   4.241   3.603   1.260
  717SOL    HW3 2899   4.392   3.617   1.249
  717SOL    MW4 2900   4.316   3.642   1.283
  718SOL     OW 2901   4.223   3.872   1.144
  718SOL    HW2 2902   4.138   3.895   1.181
  718SOL    HW3 2903   4.254   3.800   1.198
  718SOL    MW4 2904   4.216   3.866   1.156
  719SOL     OW 2905   3.996   3.979   1.278
  719SOL    HW2 2906   4.019   4.061   1.233
  719SOL    HW3 2907   3.918   3.947   1.232
  719SOL    MW4 2908   3.989   3.985   1.266
  720SOL     OW 2909   4.036   4.222   1.149
  720SOL    HW2 2910   3.966   4.281   1.177
  720SOL    HW3 2911   4.036   4.228   1.054
  720SOL    MW4 2912   4.027   4.230   1.140
  721SOL     OW 2913   4.247   4.349   1.270
  721SOL    HW2 2914   4.180   4.295   1.228
  721SOL    HW3 2915   4.330   4.314   1.237
  721SOL    MW4 2916   4.249   4.338   1.260
  722SOL     OW 2917   0.225   4.653   1.595
  722SOL    HW2 2918   0.305   4.694   1.562
  722SOL    HW3 2919   0.154   4.698   1.549
  722SOL    MW4 2920   0.227   4.664   1.585
  723SOL     OW 2921   4.490   0.085   1.471
  723SOL    HW2 2922   4.427   0.019   1.501
  723SOL    HW3 2923   4.484   0.082   1.376
  723SOL    MW4 2924   4.481   0.076   1.463
  724SOL     OW 2925   4.486   0.326   1.581
  724SOL    HW2 2926   4.481   0.327   1.677
  724SOL    HW3 2927   4.504   0.235   1.559
  724SOL    MW4 2928   4.488   0.314   1.591
  725SOL     OW 2929   0.203   0.480   1.454
  725SOL    HW2 2930   0.137   0.428   1.500
  725SOL    HW3 2931   0.192   0.457   1.362
  725SOL    MW4 2932   0.193   0.470   1.448
  726SOL     OW 2933   0.224   0.713   1.602
  726SOL    HW2 2934   0.298   0.756   1.558
  726SOL    HW3 2935   0.216   0.628   1.559
  726SOL    MW4 2936   0.233   0.708   1.590
  727SOL     OW 2937   0.002   0.852   1.463
  727SOL    HW2 2938   0.008   0.940   1.498
  727SOL    HW3 2939   0.073   0.804   1.507
  727SOL    MW4 2940   0.012   0.857   1.474
  728SOL     OW 2941   0.042   1.131   1.561
  728SOL    HW2 2942   0.045   1.122   1.656
  728SOL    HW3 2943   0.121   1.180   1.539
  728SOL    MW4 2944   0.053   1.136   1.571
  729SOL     OW 2945   0.254   1.276   1.466
  729SOL    HW2 2946   0.263   1.369   1.488
  729SOL    HW3 2947   0.239   1.275   1.371
  729SOL    MW4 2948   0.253   1.288   1.456
  730SOL     OW 2949   0.234   1.534   1.574
  730SOL    HW2 2950   0.240   1.526   1.669
  730SOL    HW3 2951   0.146   1.568   1.558
  730SOL    MW4 2952   0.223   1.537   1.584
  731SOL     OW 2953   4.486   1.664   1.527
  731SOL    HW2 2954   4.503   1.754   1.558
  731SOL    HW3 2955   4.479   1.672   1.432
  731SOL    MW4 2956   4.487   1.677   1.519
  732SOL     OW 2957   0.020   1.930   1.645
  732SOL    HW2 2958   0.007   1.920   1.739
  732SOL    HW3 2959  -0.050   1.989   1.617
  732SOL    MW4 2960   0.009   1.936   1.654
  733SOL     OW 2961   0.233   2.044   1.529
  733SOL    HW2 2962   0.163   1.998   1.577
  733SOL    HW3 2963   0.210   2.030   1.437
  733SOL    MW4 2964   0.220   2.036   1.523
  734SOL     OW 2965   0.192   2.301   1.627
  734SOL    HW2 2966   0.203   2.302   1.722
  734SOL    HW3 2967   0.213   2.211   1.602
  734SOL    MW4 2968   0.196   2.289   1.636
  735SOL     OW 2969   0.008   2.473   1.502
  735SOL    HW2 2970  -0.079   2.439   1.523
  735SOL    HW3 2971   0.067   2.424   1.560
  735SOL    MW4 2972   0.005   2.462   1.512
  736SOL     OW 2973   4.479   2.700   1.646
  736SOL    HW2 2974   4.412   2.759   1.612
  736SOL    HW3 2975   4.472   2.622   1.590
  736SOL    MW4 2976   4.469   2.697   1.634
  737SOL     OW 2977   0.203   2.831   1.531
  737SOL    HW2 2978   0.280   2.783   1.562
  737SOL    HW3 2979   0.129   2.784   1.569
  737SOL    MW4 2980   0.204   2.819   1.540
  738SOL     OW 2981   0.236   3.115   1.593
  738SOL    HW2 2982   0.165   3.158   1.545
  738SOL    HW3 2983   0.222   3.022   1.579
  738SOL    MW4 2984   0.225   3.109   1.585
  739SOL     OW 2985   4.484   3.243   1.500
  739SOL    HW2 2986   4.481   3.331   1.537
  739SOL    HW3 2987   4.493   3.256   1.406
  739SOL    MW4 2988   4.485   3.256   1.493
  740SOL     OW 2989   0.014   3.508   1.602
  740SOL    HW2 2990   0.008   3.484   1.694
  740SOL    HW3 2991  -0.061   3.566   1.586
  740SOL    MW4 2992   0.004   3.512   1.612
  741SOL     OW 2993   0.282   3.619   1.505
  741SOL    HW2 2994   0.261   3.711   1.522
  741SOL    HW3 2995   0.211   3.571   1.548
  741SOL    MW4 2996   0.270   3.625   1.513
  742SOL     OW 2997   0.229   3.882   1.561
  742SOL    HW2 2998   0.227   3.884   1.656
  742SOL    HW3 2999   0.314   3.921   1.538
  742SOL    MW4 3000   0.240   3.887   1.570
  743SOL     OW 3001   4.487   4.050   1.517
  743SOL    HW2 3002   4.496   4.140   1.550
  743SOL    HW3 3003   4.555   4.001   1.564
  743SOL    MW4 3004   4.497   4.056   1.528
  744SOL     OW 3005   0.001   4.294   1.643
  744SOL    HW2 3006   0.007   4.271   1.736
  744SOL    HW3 3007  -0.090   4.320   1.630
  744SOL    MW4 3008  -0.010   4.294   1.654
  745SOL     OW 3009   0.238   4.399   1.526
  745SOL    HW2 3010   0.157   4.365   1.563
  745SOL    HW3 3011   0.238   4.492   1.550
  745SOL    MW4 3012   0.227   4.407   1.534
  746SOL     OW 3013   0.711   4.667   1.598
  746SOL    HW2 3014   0.782   4.714   1.554
  746SOL    HW3 3015   0.631   4.713   1.572
  746SOL    MW4 3016   0.710   4.679   1.589
  747SOL     OW 3017   0.461   0.098   1.485
  747SOL    HW2 3018   0.442   0.191   1.499
  747SOL    HW3 3019   0.447   0.084   1.391
  747SOL    MW4 3020   0.456   0.108   1.475
  748SOL     OW 3021   0.428   0.358   1.569
  748SOL    HW2 3022   0.497   0.383   1.508
  748SOL    HW3 3023   0.348   0.397   1.533
  748SOL    MW4 3024   0.426   0.366   1.556
  749SOL     OW 3025   0.667   0.430   1.435
  749SOL    HW2 3026   0.681   0.515   1.478
  749SOL    HW3 3027   0.665   0.452   1.341
  749SOL    MW4 3028   0.669   0.444   1.428
  750SOL     OW 3029   0.688   0.699   1.545
  750SOL    HW2 3030   0.674   0.727   1.636
  750SOL    HW3 3031   0.756   0.758   1.512
  750SOL    MW4 3032   0.695   0.710   1.553
  751SOL     OW 3033   0.451   0.850   1.481
  751SOL    HW2 3034   0.454   0.932   1.530
  751SOL    HW3 3035   0.537   0.809   1.496
  751SOL    MW4 3036   0.463   0.855   1.489
  752SOL     OW 3037   0.450   1.108   1.590
  752SOL    HW2 3038   0.538   1.139   1.570
  752SOL    HW3 3039   0.392   1.174   1.552
  752SOL    MW4 3040   0.454   1.121   1.583
  753SOL     OW 3041   0.688   1.231   1.488
  753SOL    HW2 3042   0.698   1.323   1.511
  753SOL    HW3 3043   0.665   1.231   1.395
  753SOL    MW4 3044   0.686   1.243   1.479
  754SOL     OW 3045   0.706   1.516   1.577
  754SOL    HW2 3046   0.769   1.586   1.560
  754SOL    HW3 3047   0.621   1.556   1.563
  754SOL    MW4 3048   0.703   1.530   1.573
  755SOL     OW 3049   0.474   1.646   1.504
  755SOL    HW2 3050   0.468   1.737   1.534
  755SOL    HW3 3051   0.400   1.603   1.546
  755SOL    MW4 3052   0.463   1.653   1.514
  756SOL     OW 3053   0.484   1.916   1.595
  756SOL    HW2 3054   0.475   1.924   1.690
  756SOL    HW3 3055   0.398   1.943   1.561
  756SOL    MW4 3056   0.471   1.921   1.603
  757SOL     OW 3057   0.698   2.079   1.521
  757SOL    HW2 3058   0.775   2.040   1.562
  757SOL    HW3 3059   0.625   2.028   1.554
  757SOL    MW4 3060   0.699   2.067   1.531
  758SOL     OW 3061   0.647   2.352   1.597
  758SOL    HW2 3062   0.559   2.382   1.573
  758SOL    HW3 3063   0.653   2.265   1.559
  758SOL    MW4 3064   0.636   2.345   1.589
  759SOL     OW 3065   0.400   2.441   1.517
  759SOL    HW2 3066   0.410   2.526   1.559
  759SOL    HW3 3067   0.328   2.399   1.564
  759SOL    MW4 3068   0.392   2.447   1.529
  760SOL     OW 3069   0.455   2.703   1.624
  760SOL    HW2 3070   0.461   2.715   1.719
  760SOL    HW3 3071   0.537   2.739   1.590
  760SOL    MW4 3072   0.466   2.710   1.632
  761SOL     OW 3073   0.692   2.800   1.534
  761SOL    HW2 3074   0.676   2.892   1.551
  761SOL    HW3 3075   0.686   2.792   1.439
  761SOL    MW4 3076   0.689   2.811   1.524
  762SOL     OW 3077   0.667   3.068   1.597
  762SOL    HW2 3078   0.741   3.107   1.550
  762SOL    HW3 3079   0.593   3.124   1.574
  762SOL    MW4 3080   0.667   3.081   1.587
  763SOL     OW 3081   0.459   3.224   1.488
  763SOL    HW2 3082   0.380   3.181   1.523
  763SOL    HW3 3083   0.452   3.212   1.393
  763SOL    MW4 3084   0.447   3.216   1.480
  764SOL     OW 3085   0.511   3.484   1.607
  764SOL    HW2 3086   0.519   3.393   1.580
  764SOL    HW3 3087   0.427   3.513   1.571
  764SOL    MW4 3088   0.501   3.476   1.599
  765SOL     OW 3089   0.711   3.629   1.474
  765SOL    HW2 3090   0.793   3.599   1.514
  765SOL    HW3 3091   0.642   3.595   1.532
  765SOL    MW4 3092   0.713   3.620   1.487
  766SOL     OW 3093   0.711   3.871   1.596
  766SOL    HW2 3094   0.795   3.908   1.568
  766SOL    HW3 3095   0.705   3.788   1.549
  766SOL    MW4 3096   0.721   3.865   1.586
  767SOL     OW 3097   0.469   3.997   1.516
  767SOL    HW2 3098   0.556   3.968   1.546
  767SOL    HW3 3099   0.475   3.997   1.421
  767SOL    MW4 3100   0.481   3.993   1.507
  768SOL     OW 3101   0.462   4.253   1.619
  768SOL    HW2 3102   0.459   4.162   1.589
  768SOL    HW3 3103   0.379   4.290   1.589
  768SOL    MW4 3104   0.451   4.246   1.611
  769SOL     OW 3105   0.700   4.399   1.541
  769SOL    HW2 3106   0.621   4.356   1.574
  769SOL    HW3 3107   0.696   4.488   1.576
  769SOL    MW4 3108   0.689   4.405   1.550
  770SOL     OW 3109   1.127   4.624   1.588
  770SOL    HW2 3110   1.119   4.603   1.681
  770SOL    HW3 3111   1.216   4.658   1.578
  770SOL    MW4 3112   1.137   4.626   1.599
  771SOL     OW 3113   0.949   0.113   1.457
  771SOL    HW2 3114   0.959   0.205   1.483
  771SOL    HW3 3115   1.018   0.067   1.505
  771SOL    MW4 3116   0.960   0.119   1.467
  772SOL     OW 3117   0.918   0.357   1.557
  772SOL    HW2 3118   0.911   0.365   1.652
  772SOL    HW3 3119   0.827   0.362   1.526
  772SOL    MW4 3120   0.905   0.359   1.565
  773SOL     OW 3121   1.139   0.471   1.460
  773SOL    HW2 3122   1.149   0.561   1.489
  773SOL    HW3 3123   1.052   0.445   1.491
  773SOL    MW4 3124   1.129   0.479   1.468
  774SOL     OW 3125   1.159   0.744   1.553
  774SOL    HW2 3126   1.152   0.717   1.645
  774SOL    HW3 3127   1.228   0.809   1.553
  774SOL    MW4 3128   1.167   0.749   1.565
  775SOL     OW 3129   0.916   0.855   1.434
  775SOL    HW2 3130   0.987   0.804   1.472
  775SOL    HW3 3131   0.928   0.848   1.339
  775SOL    MW4 3132   0.927   0.847   1.426
  776SOL     OW 3133   0.916   1.110   1.562
  776SOL    HW2 3134   0.931   1.021   1.530
  776SOL    HW3 3135   0.833   1.136   1.521
  776SOL    MW4 3136   0.907   1.102   1.552
  777SOL     OW 3137   1.120   1.282   1.469
  777SOL    HW2 3138   1.204   1.262   1.510
  777SOL    HW3 3139   1.062   1.211   1.498
  777SOL    MW4 3140   1.123   1.270   1.478
  778SOL     OW 3141   1.119   1.553   1.567
  778SOL    HW2 3142   1.204   1.591   1.547
  778SOL    HW3 3143   1.118   1.469   1.520
  778SOL    MW4 3144   1.130   1.547   1.558
  779SOL     OW 3145   0.891   1.714   1.489
  779SOL    HW2 3146   0.961   1.659   1.526
  779SOL    HW3 3147   0.897   1.700   1.395
  779SOL    MW4 3148   0.901   1.705   1.482
  780SOL     OW 3149   0.932   1.951   1.615
  780SOL    HW2 3150   1.000   1.999   1.569
  780SOL    HW3 3151   0.922   1.870   1.565
  780SOL    MW4 3152   0.940   1.946   1.603
  781SOL     OW 3153   1.135   2.059   1.450
  781SOL    HW2 3154   1.206   2.017   1.500
  781SOL    HW3 3155   1.127   2.147   1.489
  781SOL    MW4 3156   1.144   2.065   1.462
  782SOL     OW 3157   1.139   2.308   1.606
  782SOL    HW2 3158   1.207   2.356   1.559
  782SOL    HW3 3159   1.057   2.345   1.573
  782SOL    MW4 3160   1.137   2.319   1.596
  783SOL     OW 3161   0.903   2.446   1.500
  783SOL    HW2 3162   0.923   2.527   1.547
  783SOL    HW3 3163   0.809   2.432   1.514
  783SOL    MW4 3164   0.893   2.455   1.508
  784SOL     OW 3165   0.917   2.684   1.628
  784SOL    HW2 3166   0.913   2.695   1.723
  784SOL    HW3 3167   0.833   2.717   1.596
  784SOL    MW4 3168   0.905   2.690   1.637
  785SOL     OW 3169   1.111   2.829   1.464
  785SOL    HW2 3170   1.105   2.912   1.511
  785SOL    HW3 3171   1.053   2.769   1.511
  785SOL    MW4 3172   1.103   2.832   1.476
  786SOL     OW 3173   1.119   3.058   1.629
  786SOL    HW2 3174   1.123   3.071   1.724
  786SOL    HW3 3175   1.184   3.120   1.594
  786SOL    MW4 3176   1.128   3.068   1.637
  787SOL     OW 3177   0.875   3.222   1.522
  787SOL    HW2 3178   0.956   3.181   1.553
  787SOL    HW3 3179   0.875   3.206   1.428
  787SOL    MW4 3180   0.886   3.215   1.514
  788SOL     OW 3181   0.915   3.488   1.611
  788SOL    HW2 3182   0.998   3.518   1.575
  788SOL    HW3 3183   0.907   3.398   1.581
  788SOL    MW4 3184   0.925   3.480   1.602
  789SOL     OW 3185   1.132   3.624   1.508
  789SOL    HW2 3186   1.200   3.565   1.540
  789SOL    HW3 3187   1.148   3.629   1.413
  789SOL    MW4 3188   1.143   3.617   1.499
  790SOL     OW 3189   1.156   3.863   1.635
  790SOL    HW2 3190   1.239   3.896   1.599
  790SOL    HW3 3191   1.145   3.777   1.595
  790SOL    MW4 3192   1.166   3.856   1.625
  791SOL     OW 3193   0.951   3.993   1.507
  791SOL    HW2 3194   0.948   4.084   1.537
  791SOL    HW3 3195   1.029   3.956   1.549
  791SOL    MW4 3196   0.961   4.000   1.517
  792SOL     OW 3197   0.928   4.258   1.598
  792SOL    HW2 3198   0.908   4.234   1.688
  792SOL    HW3 3199   0.857   4.318   1.573
  792SOL    MW4 3200   0.916   4.263   1.607
  793SOL     OW 3201   1.118   4.389   1.435
  793SOL    HW2 3202   1.044   4.342   1.473
  793SOL    HW3 3203   1.121   4.472   1.483
  793SOL    MW4 3204   1.109   4.393   1.446
  794SOL     OW 3205   1.574   4.574   1.610
  794SOL    HW2 3206   1.579   4.601   1.702
  794SOL    HW3 3207   1.496   4.619   1.576
  794SOL    MW4 3208   1.564   4.584   1.617
  795SOL     OW 3209   1.387   0.055   1.484
  795SOL    HW2 3210   1.397   0.148   1.505
  795SOL    HW3 3211   1.390   0.052   1.388
  795SOL    MW4 3212   1.388   0.067   1.474
  796SOL     OW 3213   1.342   0.336   1.574
  796SOL    HW2 3214   1.419   0.392   1.559
  796SOL    HW3 3215   1.271   0.381   1.529
  796SOL    MW4 3216   1.343   0.350   1.566
  797SOL     OW 3217   1.566   0.511   1.500
  797SOL    HW2 3218   1.642   0.458   1.521
  797SOL    HW3 3219   1.547   0.491   1.409
  797SOL    MW4 3220   1.573   0.502   1.491
  798SOL     OW 3221   1.547   0.769   1.606
  798SOL    HW2 3222   1.546   0.756   1.701
  798SOL    HW3 3223   1.551   0.680   1.570
  798SOL    MW4 3224   1.547   0.756   1.613
  799SOL     OW 3225   1.358   0.945   1.507
  799SOL    HW2 3226   1.429   0.883   1.528
  799SOL    HW3 3227   1.335   0.924   1.417
  799SOL    MW4 3228   1.365   0.934   1.498
  800SOL     OW 3229   1.331   1.196   1.611
  800SOL    HW2 3230   1.333   1.186   1.706
  800SOL    HW3 3231   1.313   1.108   1.579
  800SOL    MW4 3232   1.329   1.183   1.619
  801SOL     OW 3233   1.586   1.279   1.510
  801SOL    HW2 3234   1.503   1.269   1.557
  801SOL    HW3 3235   1.563   1.270   1.418
  801SOL    MW4 3236   1.572   1.277   1.504
  802SOL     OW 3237   1.560   1.543   1.608
  802SOL    HW2 3238   1.560   1.536   1.703
  802SOL    HW3 3239   1.585   1.456   1.577
  802SOL    MW4 3240   1.563   1.531   1.616
  803SOL     OW 3241   1.344   1.676   1.476
  803SOL    HW2 3242   1.428   1.637   1.500
  803SOL    HW3 3243   1.349   1.689   1.382
  803SOL    MW4 3244   1.355   1.672   1.467
  804SOL     OW 3245   1.321   1.930   1.593
  804SOL    HW2 3246   1.314   1.908   1.686
  804SOL    HW3 3247   1.325   1.846   1.548
  804SOL    MW4 3248   1.320   1.916   1.600
  805SOL     OW 3249   1.570   2.051   1.535
  805SOL    HW2 3250   1.486   2.020   1.568
  805SOL    HW3 3251   1.569   2.029   1.441
  805SOL    MW4 3252   1.559   2.044   1.527
  806SOL     OW 3253   1.580   2.334   1.610
  806SOL    HW2 3254   1.654   2.370   1.561
  806SOL    HW3 3255   1.576   2.242   1.581
  806SOL    MW4 3256   1.589   2.326   1.600
  807SOL     OW 3257   1.360   2.449   1.485
  807SOL    HW2 3258   1.350   2.528   1.538
  807SOL    HW3 3259   1.440   2.408   1.518
  807SOL    MW4 3260   1.369   2.454   1.497
  808SOL     OW 3261   1.315   2.698   1.609
  808SOL    HW2 3262   1.391   2.730   1.561
  808SOL    HW3 3263   1.242   2.751   1.577
  808SOL    MW4 3264   1.315   2.709   1.599
  809SOL     OW 3265   1.541   2.803   1.496
  809SOL    HW2 3266   1.620   2.755   1.524
  809SOL    HW3 3267   1.545   2.802   1.401
  809SOL    MW4 3268   1.552   2.797   1.487
  810SOL     OW 3269   1.564   3.084   1.583
  810SOL    HW2 3270   1.638   3.122   1.536
  810SOL    HW3 3271   1.557   2.994   1.550
  810SOL    MW4 3272   1.573   3.077   1.573
  811SOL     OW 3273   1.313   3.206   1.517
  811SOL    HW2 3274   1.324   3.295   1.552
  811SOL    HW3 3275   1.394   3.161   1.539
  811SOL    MW4 3276   1.325   3.212   1.525
  812SOL     OW 3277   1.339   3.454   1.613
  812SOL    HW2 3278   1.349   3.459   1.708
  812SOL    HW3 3279   1.417   3.495   1.578
  812SOL    MW4 3280   1.351   3.460   1.621
  813SOL     OW 3281   1.554   3.594   1.496
  813SOL    HW2 3282   1.554   3.680   1.539
  813SOL    HW3 3283   1.581   3.612   1.406
  813SOL    MW4 3284   1.558   3.608   1.490
  814SOL     OW 3285   1.567   3.837   1.611
  814SOL    HW2 3286   1.561   3.845   1.706
  814SOL    HW3 3287   1.494   3.888   1.578
  814SOL    MW4 3288   1.557   3.845   1.619
  815SOL     OW 3289   1.359   3.995   1.508
  815SOL    HW2 3290   1.356   4.083   1.548
  815SOL    HW3 3291   1.343   4.011   1.415
  815SOL    MW4 3292   1.356   4.009   1.501
  816SOL     OW 3293   1.334   4.254   1.604
  816SOL    HW2 3294   1.411   4.290   1.561
  816SOL    HW3 3295   1.260   4.292   1.557
  816SOL    MW4 3296   1.334   4.264   1.592
  817SOL     OW 3297   1.542   4.350   1.470
  817SOL    HW2 3298   1.618   4.298   1.497
  817SOL    HW3 3299   1.550   4.432   1.518
  817SOL    MW4 3300   1.553   4.354   1.480
  818SOL     OW 3301   2.043   4.618   1.618
  818SOL    HW2 3302   2.031   4.627   1.713
  818SOL    HW3 3303   1.965   4.657   1.580
  818SOL    MW4 3304   2.031   4.624   1.626
  819SOL     OW 3305   1.803   0.014   1.518
  819SOL    HW2 3306   1.718  -0.014   1.550
  819SOL    HW3 3307   1.789   0.029   1.424
  819SOL    MW4 3308   1.790   0.012   1.510
  820SOL     OW 3309   1.782   0.315   1.590
  820SOL    HW2 3310   1.862   0.349   1.552
  820SOL    HW3 3311   1.787   0.220   1.574
  820SOL    MW4 3312   1.793   0.307   1.583
  821SOL     OW 3313   1.999   0.476   1.514
  821SOL    HW2 3314   2.072   0.436   1.561
  821SOL    HW3 3315   2.010   0.570   1.528
  821SOL    MW4 3316   2.010   0.483   1.522
  822SOL     OW 3317   2.016   0.745   1.614
  822SOL    HW2 3318   2.097   0.784   1.581
  822SOL    HW3 3319   1.947   0.798   1.575
  822SOL    MW4 3320   2.018   0.757   1.604
  823SOL     OW 3321   1.786   0.858   1.505
  823SOL    HW2 3322   1.789   0.947   1.542
  823SOL    HW3 3323   1.720   0.812   1.558
  823SOL    MW4 3324   1.777   0.864   1.517
  824SOL     OW 3325   1.777   1.110   1.615
  824SOL    HW2 3326   1.856   1.159   1.595
  824SOL    HW3 3327   1.706   1.162   1.576
  824SOL    MW4 3328   1.778   1.123   1.607
  825SOL     OW 3329   2.007   1.245   1.534
  825SOL    HW2 3330   2.014   1.338   1.557
  825SOL    HW3 3331   2.007   1.244   1.439
  825SOL    MW4 3332   2.008   1.257   1.525
  826SOL     OW 3333   2.017   1.544   1.602
  826SOL    HW2 3334   2.091   1.594   1.567
  826SOL    HW3 3335   1.940   1.595   1.577
  826SOL    MW4 3336   2.017   1.557   1.594
  827SOL     OW 3337   1.779   1.684   1.530
  827SOL    HW2 3338   1.711   1.622   1.554
  827SOL    HW3 3339   1.793   1.669   1.436
  827SOL    MW4 3340   1.772   1.674   1.521
  828SOL     OW 3341   1.812   1.952   1.631
  828SOL    HW2 3342   1.806   1.861   1.604
  828SOL    HW3 3343   1.727   1.990   1.608
  828SOL    MW4 3344   1.800   1.945   1.624
  829SOL     OW 3345   2.032   2.033   1.467
  829SOL    HW2 3346   2.108   1.998   1.513
  829SOL    HW3 3347   1.957   2.006   1.519
  829SOL    MW4 3348   2.032   2.025   1.480
  830SOL     OW 3349   2.039   2.293   1.569
  830SOL    HW2 3350   2.053   2.295   1.664
  830SOL    HW3 3351   2.030   2.200   1.548
  830SOL    MW4 3352   2.039   2.281   1.579
  831SOL     OW 3353   1.813   2.438   1.498
  831SOL    HW2 3354   1.890   2.390   1.527
  831SOL    HW3 3355   1.809   2.422   1.403
  831SOL    MW4 3356   1.822   2.430   1.489
  832SOL     OW 3357   1.794   2.718   1.576
  832SOL    HW2 3358   1.854   2.771   1.523
  832SOL    HW3 3359   1.819   2.628   1.558
  832SOL    MW4 3360   1.805   2.713   1.567
  833SOL     OW 3361   2.018   2.829   1.460
  833SOL    HW2 3362   1.996   2.919   1.483
  833SOL    HW3 3363   2.046   2.833   1.369
  833SOL    MW4 3364   2.019   2.841   1.451
  834SOL     OW 3365   2.020   3.090   1.634
  834SOL    HW2 3366   2.005   3.090   1.728
  834SOL    HW3 3367   2.096   3.148   1.622
  834SOL    MW4 3368   2.028   3.098   1.645
  835SOL     OW 3369   1.809   3.177   1.473
  835SOL    HW2 3370   1.800   3.266   1.509
  835SOL    HW3 3371   1.890   3.143   1.511
  835SOL    MW4 3372   1.818   3.184   1.483
  836SOL     OW 3373   1.776   3.444   1.562
  836SOL    HW2 3374   1.775   3.459   1.656
  836SOL    HW3 3375   1.692   3.479   1.531
  836SOL    MW4 3376   1.765   3.451   1.570
  837SOL     OW 3377   1.992   3.606   1.471
  837SOL    HW2 3378   2.065   3.581   1.527
  837SOL    HW3 3379   1.917   3.556   1.506
  837SOL    MW4 3380   1.991   3.596   1.483
  838SOL     OW 3381   2.028   3.867   1.558
  838SOL    HW2 3382   2.098   3.914   1.512
  838SOL    HW3 3383   2.032   3.778   1.523
  838SOL    MW4 3384   2.038   3.862   1.547
  839SOL     OW 3385   1.773   3.967   1.500
  839SOL    HW2 3386   1.859   3.927   1.512
  839SOL    HW3 3387   1.713   3.907   1.543
  839SOL    MW4 3388   1.777   3.953   1.507
  840SOL     OW 3389   1.779   4.233   1.533
  840SOL    HW2 3390   1.866   4.273   1.527
  840SOL    HW3 3391   1.793   4.142   1.509
  840SOL    MW4 3392   1.792   4.226   1.529
  841SOL     OW 3393   2.024   4.366   1.523
  841SOL    HW2 3394   2.097   4.330   1.573
  841SOL    HW3 3395   2.026   4.460   1.542
  841SOL    MW4 3396   2.034   4.374   1.532
  842SOL     OW 3397   2.461   4.635   1.602
  842SOL    HW2 3398   2.453   4.627   1.697
  842SOL    HW3 3399   2.386   4.689   1.577
  842SOL    MW4 3400   2.450   4.641   1.611
  843SOL     OW 3401   2.241   0.127   1.524
  843SOL    HW2 3402   2.162   0.083   1.555
  843SOL    HW3 3403   2.239   0.118   1.429
  843SOL    MW4 3404   2.230   0.120   1.516
  844SOL     OW 3405   2.215   0.372   1.633
  844SOL    HW2 3406   2.229   0.372   1.727
  844SOL    HW3 3407   2.240   0.284   1.605
  844SOL    MW4 3408   2.220   0.360   1.642
  845SOL     OW 3409   2.443   0.490   1.525
  845SOL    HW2 3410   2.512   0.437   1.565
  845SOL    HW3 3411   2.362   0.456   1.563
  845SOL    MW4 3412   2.442   0.479   1.536
  846SOL     OW 3413   2.452   0.752   1.653
  846SOL    HW2 3414   2.381   0.807   1.621
  846SOL    HW3 3415   2.443   0.670   1.603
  846SOL    MW4 3416   2.442   0.748   1.642
  847SOL     OW 3417   2.242   0.883   1.530
  847SOL    HW2 3418   2.257   0.974   1.556
  847SOL    HW3 3419   2.256   0.882   1.436
  847SOL    MW4 3420   2.246   0.895   1.521
  848SOL     OW 3421   2.263   1.169   1.608
  848SOL    HW2 3422   2.267   1.157   1.702
  848SOL    HW3 3423   2.172   1.194   1.591
  848SOL    MW4 3424   2.251   1.171   1.618
  849SOL     OW 3425   2.511   1.296   1.562
  849SOL    HW2 3426   2.426   1.255   1.575
  849SOL    HW3 3427   2.519   1.304   1.467
  849SOL    MW4 3428   2.501   1.292   1.551
  850SOL     OW 3429   2.495   1.561   1.615
  850SOL    HW2 3430   2.570   1.608   1.580
  850SOL    HW3 3431   2.510   1.469   1.593
  850SOL    MW4 3432   2.507   1.555   1.608
  851SOL     OW 3433   2.262   1.644   1.489
  851SOL    HW2 3434   2.343   1.606   1.523
  851SOL    HW3 3435   2.276   1.650   1.394
  851SOL    MW4 3436   2.275   1.640   1.481
  852SOL     OW 3437   2.253   1.912   1.604
  852SOL    HW2 3438   2.229   1.901   1.696
  852SOL    HW3 3439   2.252   1.824   1.568
  852SOL    MW4 3440   2.249   1.899   1.611
  853SOL     OW 3441   2.476   2.071   1.515
  853SOL    HW2 3442   2.405   2.028   1.564
  853SOL    HW3 3443   2.463   2.042   1.425
  853SOL    MW4 3444   2.465   2.061   1.510
  854SOL     OW 3445   2.491   2.337   1.607
  854SOL    HW2 3446   2.503   2.350   1.701
  854SOL    HW3 3447   2.488   2.242   1.595
  854SOL    MW4 3448   2.493   2.326   1.618
  855SOL     OW 3449   2.250   2.474   1.511
  855SOL    HW2 3450   2.330   2.435   1.545
  855SOL    HW3 3451   2.182   2.410   1.533
  855SOL    MW4 3452   2.251   2.460   1.518
  856SOL     OW 3453   2.207   2.711   1.644
  856SOL    HW2 3454   2.227   2.626   1.604
  856SOL    HW3 3455   2.153   2.756   1.580
  856SOL    MW4 3456   2.203   2.706   1.630
  857SOL     OW 3457   2.429   2.855   1.540
  857SOL    HW2 3458   2.440   2.944   1.573
  857SOL    HW3 3459   2.365   2.815   1.598
  857SOL    MW4 3460   2.422   2.861   1.552
  858SOL     OW 3461   2.440   3.119   1.640
  858SOL    HW2 3462   2.511   3.182   1.629
  858SOL    HW3 3463   2.363   3.163   1.604
  858SOL    MW4 3464   2.439   3.133   1.634
  859SOL     OW 3465   2.230   3.265   1.548
  859SOL    HW2 3466   2.227   3.356   1.578
  859SOL    HW3 3467   2.236   3.272   1.452
  859SOL    MW4 3468   2.230   3.278   1.539
  860SOL     OW 3469   2.201   3.534   1.627
  860SOL    HW2 3470   2.206   3.549   1.721
  860SOL    HW3 3471   2.281   3.573   1.592
  860SOL    MW4 3472   2.212   3.541   1.635
  861SOL     OW 3473   2.411   3.626   1.499
  861SOL    HW2 3474   2.480   3.583   1.550
  861SOL    HW3 3475   2.413   3.717   1.530
  861SOL    MW4 3476   2.421   3.632   1.510
  862SOL     OW 3477   2.448   3.884   1.594
  862SOL    HW2 3478   2.453   3.891   1.689
  862SOL    HW3 3479   2.534   3.912   1.563
  862SOL    MW4 3480   2.460   3.889   1.602
  863SOL     OW 3481   2.245   4.009   1.455
  863SOL    HW2 3482   2.301   3.938   1.488
  863SOL    HW3 3483   2.266   4.014   1.362
  863SOL    MW4 3484   2.255   4.000   1.447
  864SOL     OW 3485   2.257   4.243   1.623
  864SOL    HW2 3486   2.333   4.279   1.576
  864SOL    HW3 3487   2.241   4.159   1.581
  864SOL    MW4 3488   2.265   4.237   1.611
  865SOL     OW 3489   2.471   4.382   1.512
  865SOL    HW2 3490   2.456   4.470   1.546
  865SOL    HW3 3491   2.480   4.394   1.418
  865SOL    MW4 3492   2.470   4.395   1.504
  866SOL     OW 3493   2.879   4.643   1.609
  866SOL    HW2 3494   2.880   4.659   1.704
  866SOL    HW3 3495   2.805   4.695   1.578
  866SOL    MW4 3496   2.869   4.652   1.618
  867SOL     OW 3497   2.659   0.117   1.503
  867SOL    HW2 3498   2.658   0.194   1.559
  867SOL    HW3 3499   2.584   0.064   1.532
  867SOL    MW4 3500   2.649   0.120   1.514
  868SOL     OW 3501   2.677   0.344   1.644
  868SOL    HW2 3502   2.686   0.344   1.739
  868SOL    HW3 3503   2.755   0.390   1.613
  868SOL    MW4 3504   2.688   0.350   1.653
  869SOL     OW 3505   2.895   0.498   1.516
  869SOL    HW2 3506   2.895   0.591   1.538
  869SOL    HW3 3507   2.897   0.496   1.420
  869SOL    MW4 3508   2.895   0.510   1.506
  870SOL     OW 3509   2.927   0.760   1.592
  870SOL    HW2 3510   2.922   0.734   1.684
  870SOL    HW3 3511   2.846   0.808   1.577
  870SOL    MW4 3512   2.916   0.763   1.602
  871SOL     OW 3513   2.686   0.900   1.551
  871SOL    HW2 3514   2.617   0.845   1.588
  871SOL    HW3 3515   2.688   0.876   1.458
  871SOL    MW4 3516   2.677   0.890   1.543
  872SOL     OW 3517   2.720   1.169   1.650
  872SOL    HW2 3518   2.718   1.075   1.630
  872SOL    HW3 3519   2.635   1.202   1.621
  872SOL    MW4 3520   2.709   1.161   1.643
  873SOL     OW 3521   2.945   1.304   1.533
  873SOL    HW2 3522   3.012   1.254   1.580
  873SOL    HW3 3523   2.863   1.262   1.557
  873SOL    MW4 3524   2.943   1.292   1.543
  874SOL     OW 3525   2.948   1.565   1.622
  874SOL    HW2 3526   2.861   1.599   1.599
  874SOL    HW3 3527   2.941   1.471   1.607
  874SOL    MW4 3528   2.935   1.557   1.617
  875SOL     OW 3529   2.702   1.704   1.506
  875SOL    HW2 3530   2.703   1.797   1.530
  875SOL    HW3 3531   2.689   1.704   1.412
  875SOL    MW4 3532   2.701   1.716   1.497
  876SOL     OW 3533   2.711   1.974   1.614
  876SOL    HW2 3534   2.700   1.968   1.709
  876SOL    HW3 3535   2.627   2.009   1.583
  876SOL    MW4 3536   2.698   1.978   1.622
  877SOL     OW 3537   2.921   2.107   1.495
  877SOL    HW2 3538   2.924   2.197   1.528
  877SOL    HW3 3539   2.846   2.068   1.539
  877SOL    MW4 3540   2.911   2.114   1.505
  878SOL     OW 3541   2.928   2.358   1.629
  878SOL    HW2 3542   2.916   2.360   1.724
  878SOL    HW3 3543   2.856   2.411   1.595
  878SOL    MW4 3544   2.917   2.365   1.637
  879SOL     OW 3545   2.692   2.484   1.509
  879SOL    HW2 3546   2.681   2.576   1.533
  879SOL    HW3 3547   2.619   2.439   1.551
  879SOL    MW4 3548   2.681   2.490   1.518
  880SOL     OW 3549   2.666   2.741   1.625
  880SOL    HW2 3550   2.731   2.798   1.585
  880SOL    HW3 3551   2.582   2.783   1.607
  880SOL    MW4 3552   2.663   2.754   1.617
  881SOL     OW 3553   2.903   2.883   1.540
  881SOL    HW2 3554   2.972   2.834   1.586
  881SOL    HW3 3555   2.908   2.971   1.576
  881SOL    MW4 3556   2.913   2.888   1.551
  882SOL     OW 3557   2.892   3.145   1.640
  882SOL    HW2 3558   2.895   3.139   1.735
  882SOL    HW3 3559   2.975   3.187   1.616
  882SOL    MW4 3560   2.904   3.150   1.649
  883SOL     OW 3561   2.663   3.280   1.561
  883SOL    HW2 3562   2.741   3.235   1.594
  883SOL    HW3 3563   2.669   3.272   1.466
  883SOL    MW4 3564   2.674   3.273   1.553
  884SOL     OW 3565   2.637   3.543   1.645
  884SOL    HW2 3566   2.652   3.543   1.740
  884SOL    HW3 3567   2.633   3.451   1.621
  884SOL    MW4 3568   2.638   3.531   1.655
  885SOL     OW 3569   2.904   3.595   1.558
  885SOL    HW2 3570   2.817   3.565   1.586
  885SOL    HW3 3571   2.895   3.611   1.464
  885SOL    MW4 3572   2.891   3.593   1.549
  886SOL     OW 3573   2.887   3.868   1.642
  886SOL    HW2 3574   2.816   3.896   1.585
  886SOL    HW3 3575   2.891   3.773   1.630
  886SOL    MW4 3576   2.879   3.859   1.633
  887SOL     OW 3577   2.687   3.977   1.493
  887SOL    HW2 3578   2.693   4.068   1.522
  887SOL    HW3 3579   2.702   3.981   1.398
  887SOL    MW4 3580   2.690   3.989   1.484
  888SOL     OW 3581   2.671   4.226   1.614
  888SOL    HW2 3582   2.756   4.268   1.610
  888SOL    HW3 3583   2.610   4.290   1.579
  888SOL    MW4 3584   2.674   4.240   1.609
  889SOL     OW 3585   2.906   4.383   1.529
  889SOL    HW2 3586   2.887   4.466   1.571
  889SOL    HW3 3587   2.895   4.400   1.435
  889SOL    MW4 3588   2.902   4.396   1.522
  890SOL     OW 3589   3.329   4.636   1.622
  890SOL    HW2 3590   3.408   4.680   1.590
  890SOL    HW3 3591   3.331   4.550   1.579
  890SOL    MW4 3592   3.340   4.630   1.612
  891SOL     OW 3593   3.095   0.131   1.552
  891SOL    HW2 3594   3.175   0.087   1.580
  891SOL    HW3 3595   3.024   0.072   1.578
  891SOL    MW4 3596   3.096   0.118   1.559
  892SOL     OW 3597   3.153   0.405   1.572
  892SOL    HW2 3598   3.136   0.313   1.553
  892SOL    HW3 3599   3.066   0.445   1.573
  892SOL    MW4 3600   3.139   0.398   1.569
  893SOL     OW 3601   3.392   0.540   1.489
  893SOL    HW2 3602   3.306   0.508   1.515
  893SOL    HW3 3603   3.392   0.533   1.393
  893SOL    MW4 3604   3.381   0.534   1.479
  894SOL     OW 3605   3.374   0.780   1.612
  894SOL    HW2 3606   3.368   0.743   1.700
  894SOL    HW3 3607   3.395   0.705   1.556
  894SOL    MW4 3608   3.376   0.765   1.616
  895SOL     OW 3609   3.131   0.917   1.520
  895SOL    HW2 3610   3.213   0.878   1.551
  895SOL    HW3 3611   3.063   0.856   1.550
  895SOL    MW4 3612   3.133   0.904   1.528
  896SOL     OW 3613   3.157   1.174   1.639
  896SOL    HW2 3614   3.188   1.177   1.729
  896SOL    HW3 3615   3.143   1.081   1.621
  896SOL    MW4 3616   3.159   1.162   1.648
  897SOL     OW 3617   3.373   1.255   1.479
  897SOL    HW2 3618   3.455   1.222   1.517
  897SOL    HW3 3619   3.305   1.226   1.540
  897SOL    MW4 3620   3.375   1.247   1.492
  898SOL     OW 3621   3.378   1.515   1.608
  898SOL    HW2 3622   3.390   1.503   1.703
  898SOL    HW3 3623   3.388   1.427   1.571
  898SOL    MW4 3624   3.381   1.502   1.616
  899SOL     OW 3625   3.170   1.690   1.521
  899SOL    HW2 3626   3.233   1.621   1.543
  899SOL    HW3 3627   3.085   1.654   1.546
  899SOL    MW4 3628   3.167   1.676   1.528
  900SOL     OW 3629   3.157   1.954   1.602
  900SOL    HW2 3630   3.152   1.862   1.575
  900SOL    HW3 3631   3.082   1.995   1.561
  900SOL    MW4 3632   3.147   1.947   1.593
  901SOL     OW 3633   3.397   2.018   1.477
  901SOL    HW2 3634   3.315   1.987   1.516
  901SOL    HW3 3635   3.376   2.033   1.385
  901SOL    MW4 3636   3.383   2.016   1.470
  902SOL     OW 3637   3.392   2.262   1.611
  902SOL    HW2 3638   3.467   2.305   1.569
  902SOL    HW3 3639   3.383   2.179   1.563
  902SOL    MW4 3640   3.401   2.257   1.599
  903SOL     OW 3641   3.189   2.438   1.551
  903SOL    HW2 3642   3.239   2.364   1.587
  903SOL    HW3 3643   3.098   2.419   1.574
  903SOL    MW4 3644   3.184   2.426   1.559
  904SOL     OW 3645   3.130   2.719   1.586
  904SOL    HW2 3646   3.190   2.752   1.520
  904SOL    HW3 3647   3.145   2.624   1.588
  904SOL    MW4 3648   3.140   2.711   1.578
  905SOL     OW 3649   3.399   2.837   1.519
  905SOL    HW2 3650   3.375   2.919   1.561
  905SOL    HW3 3651   3.412   2.860   1.427
  905SOL    MW4 3652   3.398   2.851   1.513
  906SOL     OW 3653   3.339   3.092   1.615
  906SOL    HW2 3654   3.343   3.099   1.710
  906SOL    HW3 3655   3.426   3.115   1.585
  906SOL    MW4 3656   3.351   3.096   1.624
  907SOL     OW 3657   3.139   3.273   1.559
  907SOL    HW2 3658   3.207   3.208   1.579
  907SOL    HW3 3659   3.141   3.281   1.464
  907SOL    MW4 3660   3.149   3.265   1.549
  908SOL     OW 3661   3.147   3.526   1.657
  908SOL    HW2 3662   3.151   3.434   1.631
  908SOL    HW3 3663   3.064   3.557   1.623
  908SOL    MW4 3664   3.137   3.518   1.649
  909SOL     OW 3665   3.380   3.619   1.501
  909SOL    HW2 3666   3.448   3.568   1.545
  909SOL    HW3 3667   3.300   3.600   1.549
  909SOL    MW4 3668   3.378   3.610   1.513
  910SOL     OW 3669   3.367   3.877   1.615
  910SOL    HW2 3670   3.281   3.900   1.579
  910SOL    HW3 3671   3.388   3.794   1.572
  910SOL    MW4 3672   3.358   3.869   1.604
  911SOL     OW 3673   3.121   3.954   1.542
  911SOL    HW2 3674   3.124   4.048   1.563
  911SOL    HW3 3675   3.036   3.925   1.573
  911SOL    MW4 3676   3.110   3.963   1.549
  912SOL     OW 3677   3.115   4.226   1.598
  912SOL    HW2 3678   3.114   4.231   1.694
  912SOL    HW3 3679   3.040   4.279   1.571
  912SOL    MW4 3680   3.105   4.234   1.607
  913SOL     OW 3681   3.325   4.375   1.482
  913SOL    HW2 3682   3.243   4.328   1.499
  913SOL    HW3 3683   3.324   4.392   1.388
  913SOL    MW4 3684   3.314   4.371   1.472
  914SOL     OW 3685   3.789   0.033   1.581
  914SOL    HW2 3686   3.795   0.017   1.675
  914SOL    HW3 3687   3.872   0.076   1.559
  914SOL    MW4 3688   3.801   0.037   1.590
  915SOL     OW 3689   3.540   0.107   1.522
  915SOL    HW2 3690   3.628   0.090   1.555
  915SOL    HW3 3691   3.553   0.135   1.431
  915SOL    MW4 3692   3.553   0.108   1.514
  916SOL     OW 3693   3.582   0.374   1.600
  916SOL    HW2 3694   3.558   0.286   1.571
  916SOL    HW3 3695   3.511   0.430   1.568
  916SOL    MW4 3696   3.570   0.370   1.592
  917SOL     OW 3697   3.800   0.514   1.483
  917SOL    HW2 3698   3.727   0.463   1.517
  917SOL    HW3 3699   3.798   0.500   1.388
  917SOL    MW4 3700   3.790   0.506   1.475
  918SOL     OW 3701   3.821   0.763   1.624
  918SOL    HW2 3702   3.743   0.819   1.624
  918SOL    HW3 3703   3.792   0.682   1.583
  918SOL    MW4 3704   3.807   0.760   1.619
  919SOL     OW 3705   3.597   0.921   1.506
  919SOL    HW2 3706   3.520   0.882   1.547
  919SOL    HW3 3707   3.573   0.931   1.414
  919SOL    MW4 3708   3.584   0.917   1.499
  920SOL     OW 3709   3.621   1.183   1.604
  920SOL    HW2 3710   3.707   1.215   1.575
  920SOL    HW3 3711   3.623   1.089   1.586
  920SOL    MW4 3712   3.633   1.175   1.598
  921SOL     OW 3713   3.848   1.283   1.493
  921SOL    HW2 3714   3.908   1.231   1.547
  921SOL    HW3 3715   3.845   1.368   1.536
  921SOL    MW4 3716   3.856   1.287   1.506
  922SOL     OW 3717   3.812   1.537   1.612
  922SOL    HW2 3718   3.796   1.538   1.706
  922SOL    HW3 3719   3.729   1.564   1.573
  922SOL    MW4 3720   3.799   1.540   1.619
  923SOL     OW 3721   3.591   1.649   1.504
  923SOL    HW2 3722   3.515   1.599   1.535
  923SOL    HW3 3723   3.581   1.651   1.409
  923SOL    MW4 3724   3.580   1.642   1.496
  924SOL     OW 3725   3.619   1.906   1.607
  924SOL    HW2 3726   3.603   1.816   1.580
  924SOL    HW3 3727   3.544   1.955   1.574
  924SOL    MW4 3728   3.607   1.900   1.599
  925SOL     OW 3729   3.825   2.017   1.454
  925SOL    HW2 3730   3.825   2.108   1.484
  925SOL    HW3 3731   3.756   1.974   1.504
  925SOL    MW4 3732   3.816   2.023   1.464
  926SOL     OW 3733   3.838   2.267   1.566
  926SOL    HW2 3734   3.821   2.281   1.659
  926SOL    HW3 3735   3.914   2.322   1.547
  926SOL    MW4 3736   3.846   2.276   1.575
  927SOL     OW 3737   3.595   2.408   1.502
  927SOL    HW2 3738   3.602   2.501   1.523
  927SOL    HW3 3739   3.684   2.374   1.512
  927SOL    MW4 3740   3.608   2.416   1.506
  928SOL     OW 3741   3.594   2.664   1.599
  928SOL    HW2 3742   3.598   2.663   1.695
  928SOL    HW3 3743   3.522   2.723   1.578
  928SOL    MW4 3744   3.585   2.672   1.609
  929SOL     OW 3745   3.820   2.811   1.482
  929SOL    HW2 3746   3.901   2.770   1.513
  929SOL    HW3 3747   3.750   2.761   1.525
  929SOL    MW4 3748   3.821   2.799   1.492
  930SOL     OW 3749   3.809   3.074   1.616
  930SOL    HW2 3750   3.884   3.126   1.587
  930SOL    HW3 3751   3.819   2.991   1.570
  930SOL    MW4 3752   3.820   3.070   1.606
  931SOL     OW 3753   3.584   3.196   1.552
  931SOL    HW2 3754   3.669   3.155   1.572
  931SOL    HW3 3755   3.571   3.179   1.459
  931SOL    MW4 3756   3.594   3.188   1.542
  932SOL     OW 3757   3.581   3.452   1.630
  932SOL    HW2 3758   3.665   3.489   1.603
  932SOL    HW3 3759   3.583   3.362   1.598
  932SOL    MW4 3760   3.592   3.445   1.622
  933SOL     OW 3761   3.789   3.621   1.528
  933SOL    HW2 3762   3.870   3.582   1.561
  933SOL    HW3 3763   3.793   3.712   1.557
  933SOL    MW4 3764   3.800   3.628   1.536
  934SOL     OW 3765   3.817   3.881   1.624
  934SOL    HW2 3766   3.895   3.919   1.584
  934SOL    HW3 3767   3.744   3.931   1.585
  934SOL    MW4 3768   3.817   3.893   1.613
  935SOL     OW 3769   3.598   4.027   1.516
  935SOL    HW2 3770   3.580   4.114   1.552
  935SOL    HW3 3771   3.538   3.968   1.563
  935SOL    MW4 3772   3.588   4.031   1.527
  936SOL     OW 3773   3.562   4.296   1.602
  936SOL    HW2 3774   3.556   4.301   1.698
  936SOL    HW3 3775   3.475   4.324   1.572
  936SOL    MW4 3776   3.549   4.300   1.611
  937SOL     OW 3777   3.783   4.435   1.484
  937SOL    HW2 3778   3.704   4.392   1.514
  937SOL    HW3 3779   3.780   4.522   1.525
  937SOL    MW4 3780   3.772   4.441   1.493
  938SOL     OW 3781   4.285   4.638   1.620
  938SOL    HW2 3782   4.299   4.655   1.713
  938SOL    HW3 3783   4.285   4.543   1.612
  938SOL    MW4 3784   4.287   4.628   1.631
  939SOL     OW 3785   4.041   0.121   1.512
  939SOL    HW2 3786   4.064   0.213   1.525
  939SOL    HW3 3787   4.114   0.072   1.552
  939SOL    MW4 3788   4.054   0.126   1.519
  940SOL     OW 3789   4.035   0.373   1.602
  940SOL    HW2 3790   4.051   0.377   1.696
  940SOL    HW3 3791   3.965   0.437   1.587
  940SOL    MW4 3792   4.028   0.382   1.612
  941SOL     OW 3793   4.277   0.474   1.492
  941SOL    HW2 3794   4.203   0.443   1.545
  941SOL    HW3 3795   4.347   0.412   1.510
  941SOL    MW4 3796   4.276   0.462   1.501
  942SOL     OW 3797   4.297   0.718   1.616
  942SOL    HW2 3798   4.297   0.632   1.574
  942SOL    HW3 3799   4.356   0.771   1.563
  942SOL    MW4 3800   4.305   0.714   1.604
  943SOL     OW 3801   4.051   0.876   1.547
  943SOL    HW2 3802   4.119   0.815   1.577
  943SOL    HW3 3803   3.969   0.832   1.570
  943SOL    MW4 3804   4.049   0.862   1.554
  944SOL     OW 3805   4.076   1.143   1.621
  944SOL    HW2 3806   4.064   1.146   1.716
  944SOL    HW3 3807   4.061   1.051   1.598
  944SOL    MW4 3808   4.072   1.131   1.630
  945SOL     OW 3809   4.309   1.274   1.501
  945SOL    HW2 3810   4.232   1.238   1.544
  945SOL    HW3 3811   4.382   1.221   1.533
  945SOL    MW4 3812   4.309   1.262   1.511
  946SOL     OW 3813   4.253   1.540   1.600
  946SOL    HW2 3814   4.267   1.447   1.583
  946SOL    HW3 3815   4.336   1.581   1.576
  946SOL    MW4 3816   4.266   1.533   1.594
  947SOL     OW 3817   4.037   1.634   1.481
  947SOL    HW2 3818   4.113   1.594   1.525
  947SOL    HW3 3819   3.961   1.594   1.525
  947SOL    MW4 3820   4.037   1.623   1.493
  948SOL     OW 3821   4.050   1.892   1.584
  948SOL    HW2 3822   4.043   1.805   1.547
  948SOL    HW3 3823   3.977   1.941   1.546
  948SOL    MW4 3824   4.040   1.887   1.574
  949SOL     OW 3825   4.270   2.058   1.517
  949SOL    HW2 3826   4.189   2.011   1.536
  949SOL    HW3 3827   4.288   2.038   1.425
  949SOL    MW4 3828   4.261   2.049   1.507
  950SOL     OW 3829   4.285   2.315   1.584
  950SOL    HW2 3830   4.288   2.307   1.679
  950SOL    HW3 3831   4.279   2.226   1.551
  950SOL    MW4 3832   4.285   2.302   1.592
  951SOL     OW 3833   4.060   2.456   1.514
  951SOL    HW2 3834   4.060   2.544   1.552
  951SOL    HW3 3835   4.132   2.411   1.558
  951SOL    MW4 3836   4.069   2.462   1.525
  952SOL     OW 3837   4.059   2.709   1.610
  952SOL    HW2 3838   4.047   2.713   1.705
  952SOL    HW3 3839   4.141   2.755   1.594
  952SOL    MW4 3840   4.068   2.716   1.620
  953SOL     OW 3841   4.299   2.852   1.535
  953SOL    HW2 3842   4.282   2.945   1.550
  953SOL    HW3 3843   4.301   2.844   1.440
  953SOL    MW4 3844   4.297   2.863   1.524
  954SOL     OW 3845   4.265   3.112   1.606
  954SOL    HW2 3846   4.280   3.105   1.700
  954SOL    HW3 3847   4.344   3.155   1.572
  954SOL    MW4 3848   4.278   3.117   1.614
  955SOL     OW 3849   4.022   3.242   1.542
  955SOL    HW2 3850   4.026   3.323   1.592
  955SOL    HW3 3851   4.107   3.201   1.556
  955SOL    MW4 3852   4.034   3.247   1.550
  956SOL     OW 3853   4.021   3.489   1.661
  956SOL    HW2 3854   4.021   3.485   1.757
  956SOL    HW3 3855   4.092   3.549   1.640
  956SOL    MW4 3856   4.030   3.496   1.671
  957SOL     OW 3857   4.250   3.627   1.575
  957SOL    HW2 3858   4.267   3.719   1.595
  957SOL    HW3 3859   4.259   3.621   1.480
  957SOL    MW4 3860   4.253   3.638   1.565
  958SOL     OW 3861   4.289   3.890   1.642
  958SOL    HW2 3862   4.209   3.928   1.607
  958SOL    HW3 3863   4.360   3.942   1.603
  958SOL    MW4 3864   4.288   3.902   1.632
  959SOL     OW 3865   4.041   4.016   1.549
  959SOL    HW2 3866   4.016   4.107   1.565
  959SOL    HW3 3867   4.025   4.003   1.455
  959SOL    MW4 3868   4.036   4.027   1.539
  960SOL     OW 3869   3.978   4.278   1.623
  960SOL    HW2 3870   3.972   4.271   1.719
  960SOL    HW3 3871   3.896   4.320   1.597
  960SOL    MW4 3872   3.967   4.283   1.632
  961SOL     OW 3873   4.240   4.364   1.561
  961SOL    HW2 3874   4.152   4.353   1.597
  961SOL    HW3 3875   4.231   4.341   1.469
  961SOL    MW4 3876   4.227   4.359   1.554
  962SOL     OW 3877   0.192   4.643   1.873
  962SOL    HW2 3878   0.269   4.694   1.900
  962SOL    HW3 3879   0.197   4.640   1.778
  962SOL    MW4 3880   0.202   4.650   1.864
  963SOL     OW 3881   0.003   0.127   2.003
  963SOL    HW2 3882  -0.006   0.211   1.957
  963SOL    HW3 3883   0.076   0.083   1.960
  963SOL    MW4 3884   0.012   0.133   1.991
  964SOL     OW 3885   4.489   0.365   1.873
  964SOL    HW2 3886   4.419   0.419   1.911
  964SOL    HW3 3887   4.570   0.408   1.900
  964SOL    MW4 3888   4.490   0.378   1.881
  965SOL     OW 3889   0.250   0.466   1.961
  965SOL    HW2 3890   0.340   0.439   1.942
  965SOL    HW3 3891   0.247   0.559   1.940
  965SOL    MW4 3892   0.261   0.475   1.955
  966SOL     OW 3893   0.220   0.737   1.881
  966SOL    HW2 3894   0.307   0.771   1.898
  966SOL    HW3 3895   0.220   0.718   1.787
  966SOL    MW4 3896   0.231   0.739   1.871
  967SOL     OW 3897   0.014   0.891   1.969
  967SOL    HW2 3898  -0.063   0.840   1.943
  967SOL    HW3 3899   0.088   0.844   1.931
  967SOL    MW4 3900   0.013   0.878   1.961
  968SOL     OW 3901   0.021   1.146   1.837
  968SOL    HW2 3902  -0.061   1.185   1.867
  968SOL    HW3 3903   0.029   1.064   1.887
  968SOL    MW4 3904   0.011   1.140   1.848
  969SOL     OW 3905   0.228   1.275   1.979
  969SOL    HW2 3906   0.248   1.364   1.949
  969SOL    HW3 3907   0.154   1.248   1.924
  969SOL    MW4 3908   0.221   1.283   1.968
  970SOL     OW 3909   0.264   1.532   1.872
  970SOL    HW2 3910   0.346   1.569   1.904
  970SOL    HW3 3911   0.196   1.591   1.906
  970SOL    MW4 3912   0.265   1.544   1.881
  971SOL     OW 3913   0.005   1.634   1.976
  971SOL    HW2 3914   0.013   1.620   2.070
  971SOL    HW3 3915  -0.079   1.594   1.952
  971SOL    MW4 3916  -0.005   1.627   1.985
  972SOL     OW 3917   0.010   1.911   1.925
  972SOL    HW2 3918  -0.068   1.959   1.954
  972SOL    HW3 3919  -0.009   1.820   1.945
  972SOL    MW4 3920  -0.003   1.905   1.931
  973SOL     OW 3921   0.236   2.067   2.015
  973SOL    HW2 3922   0.231   2.147   1.963
  973SOL    HW3 3923   0.167   2.011   1.980
  973SOL    MW4 3924   0.226   2.070   2.004
  974SOL     OW 3925   0.223   2.314   1.903
  974SOL    HW2 3926   0.301   2.359   1.935
  974SOL    HW3 3927   0.151   2.375   1.921
  974SOL    MW4 3928   0.223   2.328   1.910
  975SOL     OW 3929   0.007   2.458   2.009
  975SOL    HW2 3930   0.008   2.462   2.105
  975SOL    HW3 3931   0.016   2.549   1.981
  975SOL    MW4 3932   0.008   2.471   2.018
  976SOL     OW 3933   0.056   2.722   1.917
  976SOL    HW2 3934  -0.024   2.747   1.966
  976SOL    HW3 3935   0.029   2.723   1.825
  976SOL    MW4 3936   0.042   2.726   1.912
  977SOL     OW 3937   0.270   2.866   1.984
  977SOL    HW2 3938   0.258   2.949   1.938
  977SOL    HW3 3939   0.195   2.813   1.956
  977SOL    MW4 3940   0.258   2.870   1.974
  978SOL     OW 3941   0.196   3.110   1.867
  978SOL    HW2 3942   0.268   3.160   1.905
  978SOL    HW3 3943   0.214   3.109   1.773
  978SOL    MW4 3944   0.208   3.116   1.860
  979SOL     OW 3945   4.480   3.226   1.996
  979SOL    HW2 3946   4.407   3.173   1.964
  979SOL    HW3 3947   4.558   3.182   1.963
  979SOL    MW4 3948   4.480   3.214   1.987
  980SOL     OW 3949   0.005   3.483   1.884
  980SOL    HW2 3950   0.087   3.527   1.908
  980SOL    HW3 3951   0.007   3.401   1.934
  980SOL    MW4 3952   0.016   3.478   1.894
  981SOL     OW 3953   0.233   3.598   1.990
  981SOL    HW2 3954   0.234   3.608   2.085
  981SOL    HW3 3955   0.312   3.548   1.970
  981SOL    MW4 3956   0.243   3.592   2.000
  982SOL     OW 3957   0.204   3.853   1.857
  982SOL    HW2 3958   0.275   3.887   1.911
  982SOL    HW3 3959   0.197   3.761   1.882
  982SOL    MW4 3960   0.212   3.845   1.867
  983SOL     OW 3961   0.010   3.968   2.013
  983SOL    HW2 3962   0.000   4.056   1.977
  983SOL    HW3 3963   0.062   3.921   1.948
  983SOL    MW4 3964   0.016   3.974   2.000
  984SOL     OW 3965   0.007   4.227   1.902
  984SOL    HW2 3966  -0.070   4.269   1.942
  984SOL    HW3 3967   0.080   4.283   1.927
  984SOL    MW4 3968   0.006   4.240   1.911
  985SOL     OW 3969   0.233   4.400   1.971
  985SOL    HW2 3970   0.239   4.415   2.065
  985SOL    HW3 3971   0.223   4.488   1.933
  985SOL    MW4 3972   0.233   4.414   1.978
  986SOL     OW 3973   0.686   0.009   1.864
  986SOL    HW2 3974   0.667  -0.084   1.880
  986SOL    HW3 3975   0.708   0.014   1.771
  986SOL    MW4 3976   0.686  -0.003   1.854
  987SOL     OW 3977   0.443   0.098   1.948
  987SOL    HW2 3978   0.446   0.189   1.920
  987SOL    HW3 3979   0.526   0.061   1.917
  987SOL    MW4 3980   0.454   0.105   1.940
  988SOL     OW 3981   0.490   0.366   1.856
  988SOL    HW2 3982   0.558   0.428   1.881
  988SOL    HW3 3983   0.480   0.377   1.761
  988SOL    MW4 3984   0.497   0.376   1.847
  989SOL     OW 3985   0.710   0.537   1.955
  989SOL    HW2 3986   0.705   0.519   2.049
  989SOL    HW3 3987   0.779   0.478   1.924
  989SOL    MW4 3988   0.719   0.527   1.964
  990SOL     OW 3989   0.696   0.771   1.810
  990SOL    HW2 3990   0.781   0.812   1.826
  990SOL    HW3 3991   0.702   0.686   1.853
  990SOL    MW4 3992   0.708   0.765   1.818
  991SOL     OW 3993   0.477   0.862   1.984
  991SOL    HW2 3994   0.476   0.951   1.948
  991SOL    HW3 3995   0.562   0.827   1.957
  991SOL    MW4 3996   0.488   0.869   1.975
  992SOL     OW 3997   0.446   1.118   1.860
  992SOL    HW2 3998   0.366   1.159   1.892
  992SOL    HW3 3999   0.435   1.116   1.765
  992SOL    MW4 4000   0.434   1.123   1.851
  993SOL     OW 4001   0.661   1.258   1.961
  993SOL    HW2 4002   0.647   1.254   2.055
  993SOL    HW3 4003   0.582   1.219   1.923
  993SOL    MW4 4004   0.649   1.252   1.968
  994SOL     OW 4005   0.698   1.539   1.846
  994SOL    HW2 4006   0.707   1.451   1.883
  994SOL    HW3 4007   0.719   1.527   1.753
  994SOL    MW4 4008   0.702   1.526   1.838
  995SOL     OW 4009   0.489   1.688   1.972
  995SOL    HW2 4010   0.491   1.658   2.063
  995SOL    HW3 4011   0.561   1.643   1.930
  995SOL    MW4 4012   0.498   1.678   1.979
  996SOL     OW 4013   0.473   1.945   1.876
  996SOL    HW2 4014   0.460   1.861   1.920
  996SOL    HW3 4015   0.402   2.000   1.908
  996SOL    MW4 4016   0.462   1.941   1.886
  997SOL     OW 4017   0.699   2.080   1.971
  997SOL    HW2 4018   0.695   2.070   2.066
  997SOL    HW3 4019   0.622   2.032   1.939
  997SOL    MW4 4020   0.688   2.072   1.979
  998SOL     OW 4021   0.711   2.352   1.877
  998SOL    HW2 4022   0.709   2.260   1.904
  998SOL    HW3 4023   0.698   2.348   1.782
  998SOL    MW4 4024   0.709   2.339   1.868
  999SOL     OW 4025   0.462   2.440   1.986
  999SOL    HW2 4026   0.457   2.425   2.080
  999SOL    HW3 4027   0.551   2.414   1.962
  999SOL    MW4 4028   0.473   2.435   1.995
 1000SOL     OW 4029   0.491   2.713   1.916
 1000SOL    HW2 4030   0.498   2.624   1.951
 1000SOL    HW3 4031   0.417   2.752   1.963
 1000SOL    MW4 4032   0.482   2.706   1.927
 1001SOL     OW 4033   0.717   2.836   1.994
 1001SOL    HW2 4034   0.708   2.842   2.090
 1001SOL    HW3 4035   0.635   2.796   1.965
 1001SOL    MW4 4036   0.705   2.831   2.003
 1002SOL     OW 4037   0.674   3.114   1.882
 1002SOL    HW2 4038   0.678   3.025   1.917
 1002SOL    HW3 4039   0.664   3.102   1.788
 1002SOL    MW4 4040   0.673   3.101   1.874
 1003SOL     OW 4041   0.430   3.217   1.969
 1003SOL    HW2 4042   0.435   3.305   1.932
 1003SOL    HW3 4043   0.511   3.174   1.941
 1003SOL    MW4 4044   0.441   3.223   1.961
 1004SOL     OW 4045   0.474   3.481   1.880
 1004SOL    HW2 4046   0.536   3.535   1.929
 1004SOL    HW3 4047   0.506   3.483   1.790
 1004SOL    MW4 4048   0.487   3.488   1.875
 1005SOL     OW 4049   0.682   3.617   1.995
 1005SOL    HW2 4050   0.757   3.573   1.953
 1005SOL    HW3 4051   0.676   3.701   1.951
 1005SOL    MW4 4052   0.691   3.622   1.984
 1006SOL     OW 4053   0.669   3.853   1.881
 1006SOL    HW2 4054   0.757   3.881   1.905
 1006SOL    HW3 4055   0.662   3.872   1.788
 1006SOL    MW4 4056   0.679   3.859   1.872
 1007SOL     OW 4057   0.427   3.946   1.990
 1007SOL    HW2 4058   0.422   4.039   1.970
 1007SOL    HW3 4059   0.514   3.919   1.963
 1007SOL    MW4 4060   0.438   3.954   1.984
 1008SOL     OW 4061   0.444   4.215   1.911
 1008SOL    HW2 4062   0.378   4.271   1.952
 1008SOL    HW3 4063   0.425   4.219   1.817
 1008SOL    MW4 4064   0.433   4.223   1.904
 1009SOL     OW 4065   0.661   4.408   1.940
 1009SOL    HW2 4066   0.729   4.345   1.917
 1009SOL    HW3 4067   0.579   4.362   1.921
 1009SOL    MW4 4068   0.659   4.394   1.935
 1010SOL     OW 4069   1.123   4.562   1.861
 1010SOL    HW2 4070   1.192   4.614   1.903
 1010SOL    HW3 4071   1.108   4.489   1.921
 1010SOL    MW4 4072   1.130   4.559   1.874
 1011SOL     OW 4073   0.931   0.111   1.962
 1011SOL    HW2 4074   0.989   0.036   1.951
 1011SOL    HW3 4075   0.847   0.081   1.926
 1011SOL    MW4 4076   0.927   0.097   1.956
 1012SOL     OW 4077   0.908   0.359   1.829
 1012SOL    HW2 4078   0.990   0.399   1.859
 1012SOL    HW3 4079   0.907   0.272   1.869
 1012SOL    MW4 4080   0.919   0.353   1.838
 1013SOL     OW 4081   1.155   0.469   1.954
 1013SOL    HW2 4082   1.242   0.439   1.931
 1013SOL    HW3 4083   1.145   0.553   1.908
 1013SOL    MW4 4084   1.165   0.476   1.945
 1014SOL     OW 4085   1.139   0.711   1.831
 1014SOL    HW2 4086   1.218   0.746   1.872
 1014SOL    HW3 4087   1.069   0.768   1.861
 1014SOL    MW4 4088   1.140   0.723   1.841
 1015SOL     OW 4089   0.931   0.888   1.904
 1015SOL    HW2 4090   0.891   0.875   1.990
 1015SOL    HW3 4091   0.924   0.982   1.888
 1015SOL    MW4 4092   0.925   0.899   1.913
 1016SOL     OW 4093   0.883   1.140   1.837
 1016SOL    HW2 4094   0.797   1.164   1.872
 1016SOL    HW3 4095   0.870   1.138   1.742
 1016SOL    MW4 4096   0.870   1.143   1.829
 1017SOL     OW 4097   1.118   1.257   1.948
 1017SOL    HW2 4098   1.122   1.348   1.918
 1017SOL    HW3 4099   1.036   1.223   1.912
 1017SOL    MW4 4100   1.107   1.265   1.939
 1018SOL     OW 4101   1.134   1.520   1.845
 1018SOL    HW2 4102   1.059   1.565   1.885
 1018SOL    HW3 4103   1.130   1.544   1.753
 1018SOL    MW4 4104   1.123   1.529   1.838
 1019SOL     OW 4105   0.920   1.632   1.985
 1019SOL    HW2 4106   0.930   1.723   1.956
 1019SOL    HW3 4107   0.839   1.602   1.945
 1019SOL    MW4 4108   0.911   1.640   1.976
 1020SOL     OW 4109   0.917   1.882   1.898
 1020SOL    HW2 4110   0.841   1.931   1.930
 1020SOL    HW3 4111   0.920   1.901   1.805
 1020SOL    MW4 4112   0.907   1.891   1.890
 1021SOL     OW 4113   1.116   2.047   2.006
 1021SOL    HW2 4114   1.122   2.127   1.955
 1021SOL    HW3 4115   1.050   1.994   1.960
 1021SOL    MW4 4116   1.108   2.050   1.993
 1022SOL     OW 4117   1.142   2.283   1.880
 1022SOL    HW2 4118   1.218   2.336   1.906
 1022SOL    HW3 4119   1.145   2.284   1.784
 1022SOL    MW4 4120   1.153   2.290   1.870
 1023SOL     OW 4121   0.938   2.430   2.020
 1023SOL    HW2 4122   1.011   2.383   1.980
 1023SOL    HW3 4123   0.860   2.394   1.976
 1023SOL    MW4 4124   0.937   2.419   2.009
 1024SOL     OW 4125   0.940   2.711   1.905
 1024SOL    HW2 4126   0.933   2.619   1.930
 1024SOL    HW3 4127   0.863   2.753   1.945
 1024SOL    MW4 4128   0.929   2.705   1.914
 1025SOL     OW 4129   1.151   2.837   2.019
 1025SOL    HW2 4130   1.140   2.853   2.112
 1025SOL    HW3 4131   1.076   2.784   1.994
 1025SOL    MW4 4132   1.140   2.832   2.028
 1026SOL     OW 4133   1.133   3.078   1.906
 1026SOL    HW2 4134   1.051   3.118   1.934
 1026SOL    HW3 4135   1.135   2.994   1.951
 1026SOL    MW4 4136   1.123   3.072   1.916
 1027SOL     OW 4137   0.926   3.217   1.983
 1027SOL    HW2 4138   0.926   3.226   2.078
 1027SOL    HW3 4139   0.841   3.177   1.963
 1027SOL    MW4 4140   0.915   3.213   1.993
 1028SOL     OW 4141   0.899   3.494   1.889
 1028SOL    HW2 4142   0.904   3.402   1.914
 1028SOL    HW3 4143   0.900   3.492   1.793
 1028SOL    MW4 4144   0.900   3.482   1.880
 1029SOL     OW 4145   1.125   3.582   1.989
 1029SOL    HW2 4146   1.109   3.591   2.083
 1029SOL    HW3 4147   1.039   3.566   1.951
 1029SOL    MW4 4148   1.112   3.581   1.996
 1030SOL     OW 4149   1.149   3.843   1.916
 1030SOL    HW2 4150   1.145   3.750   1.938
 1030SOL    HW3 4151   1.142   3.845   1.820
 1030SOL    MW4 4152   1.147   3.831   1.906
 1031SOL     OW 4153   0.890   3.960   1.985
 1031SOL    HW2 4154   0.890   3.985   2.077
 1031SOL    HW3 4155   0.978   3.924   1.970
 1031SOL    MW4 4156   0.902   3.959   1.995
 1032SOL     OW 4157   0.865   4.222   1.863
 1032SOL    HW2 4158   0.939   4.254   1.914
 1032SOL    HW3 4159   0.849   4.134   1.898
 1032SOL    MW4 4160   0.873   4.214   1.874
 1033SOL     OW 4161   1.092   4.324   2.014
 1033SOL    HW2 4162   1.105   4.346   2.106
 1033SOL    HW3 4163   1.176   4.288   1.985
 1033SOL    MW4 4164   1.105   4.322   2.022
 1034SOL     OW 4165   1.570   4.582   1.880
 1034SOL    HW2 4166   1.646   4.617   1.927
 1034SOL    HW3 4167   1.571   4.488   1.900
 1034SOL    MW4 4168   1.581   4.574   1.889
 1035SOL     OW 4169   1.322   0.062   1.957
 1035SOL    HW2 4170   1.321   0.070   2.053
 1035SOL    HW3 4171   1.396   0.004   1.939
 1035SOL    MW4 4172   1.332   0.055   1.967
 1036SOL     OW 4173   1.384   0.329   1.864
 1036SOL    HW2 4174   1.343   0.247   1.890
 1036SOL    HW3 4175   1.384   0.327   1.769
 1036SOL    MW4 4176   1.379   0.318   1.855
 1037SOL     OW 4177   1.578   0.470   2.013
 1037SOL    HW2 4178   1.660   0.427   1.990
 1037SOL    HW3 4179   1.511   0.421   1.966
 1037SOL    MW4 4180   1.580   0.458   2.004
 1038SOL     OW 4181   1.570   0.719   1.878
 1038SOL    HW2 4182   1.645   0.761   1.920
 1038SOL    HW3 4183   1.576   0.627   1.905
 1038SOL    MW4 4184   1.581   0.712   1.887
 1039SOL     OW 4185   1.347   0.832   1.962
 1039SOL    HW2 4186   1.347   0.848   2.056
 1039SOL    HW3 4187   1.425   0.778   1.947
 1039SOL    MW4 4188   1.357   0.827   1.972
 1040SOL     OW 4189   1.347   1.118   1.884
 1040SOL    HW2 4190   1.339   1.028   1.916
 1040SOL    HW3 4191   1.264   1.160   1.910
 1040SOL    MW4 4192   1.335   1.112   1.892
 1041SOL     OW 4193   1.565   1.258   1.997
 1041SOL    HW2 4194   1.569   1.346   1.960
 1041SOL    HW3 4195   1.482   1.222   1.967
 1041SOL    MW4 4196   1.555   1.265   1.988
 1042SOL     OW 4197   1.567   1.521   1.879
 1042SOL    HW2 4198   1.644   1.573   1.903
 1042SOL    HW3 4199   1.493   1.570   1.915
 1042SOL    MW4 4200   1.568   1.534   1.887
 1043SOL     OW 4201   1.360   1.658   1.974
 1043SOL    HW2 4202   1.338   1.678   2.065
 1043SOL    HW3 4203   1.289   1.601   1.944
 1043SOL    MW4 4204   1.348   1.653   1.982
 1044SOL     OW 4205   1.321   1.915   1.866
 1044SOL    HW2 4206   1.340   1.832   1.910
 1044SOL    HW3 4207   1.265   1.962   1.928
 1044SOL    MW4 4208   1.316   1.911   1.880
 1045SOL     OW 4209   1.547   2.051   1.978
 1045SOL    HW2 4210   1.561   2.132   1.928
 1045SOL    HW3 4211   1.471   2.011   1.937
 1045SOL    MW4 4212   1.539   2.056   1.966
 1046SOL     OW 4213   1.644   2.305   1.880
 1046SOL    HW2 4214   1.724   2.357   1.890
 1046SOL    HW3 4215   1.623   2.311   1.787
 1046SOL    MW4 4216   1.652   2.313   1.869
 1047SOL     OW 4217   1.386   2.440   1.951
 1047SOL    HW2 4218   1.375   2.532   1.926
 1047SOL    HW3 4219   1.477   2.421   1.932
 1047SOL    MW4 4220   1.396   2.450   1.945
 1048SOL     OW 4221   1.342   2.716   1.879
 1048SOL    HW2 4222   1.274   2.767   1.923
 1048SOL    HW3 4223   1.310   2.705   1.789
 1048SOL    MW4 4224   1.329   2.721   1.873
 1049SOL     OW 4225   1.594   2.828   1.945
 1049SOL    HW2 4226   1.666   2.787   1.896
 1049SOL    HW3 4227   1.515   2.793   1.903
 1049SOL    MW4 4228   1.593   2.818   1.933
 1050SOL     OW 4229   1.602   3.090   1.853
 1050SOL    HW2 4230   1.589   3.000   1.882
 1050SOL    HW3 4231   1.606   3.085   1.758
 1050SOL    MW4 4232   1.601   3.078   1.845
 1051SOL     OW 4233   1.361   3.210   1.945
 1051SOL    HW2 4234   1.432   3.148   1.929
 1051SOL    HW3 4235   1.281   3.162   1.925
 1051SOL    MW4 4236   1.360   3.195   1.940
 1052SOL     OW 4237   1.347   3.466   1.895
 1052SOL    HW2 4238   1.351   3.375   1.922
 1052SOL    HW3 4239   1.262   3.497   1.926
 1052SOL    MW4 4240   1.336   3.458   1.902
 1053SOL     OW 4241   1.582   3.613   1.982
 1053SOL    HW2 4242   1.577   3.600   2.077
 1053SOL    HW3 4243   1.504   3.569   1.948
 1053SOL    MW4 4244   1.571   3.605   1.990
 1054SOL     OW 4245   1.581   3.874   1.887
 1054SOL    HW2 4246   1.654   3.922   1.926
 1054SOL    HW3 4247   1.583   3.788   1.929
 1054SOL    MW4 4248   1.591   3.869   1.898
 1055SOL     OW 4249   1.376   3.996   2.016
 1055SOL    HW2 4250   1.450   3.948   1.981
 1055SOL    HW3 4251   1.300   3.943   1.994
 1055SOL    MW4 4252   1.376   3.983   2.009
 1056SOL     OW 4253   1.319   4.233   1.895
 1056SOL    HW2 4254   1.337   4.143   1.922
 1056SOL    HW3 4255   1.314   4.229   1.799
 1056SOL    MW4 4256   1.321   4.221   1.886
 1057SOL     OW 4257   1.578   4.312   1.957
 1057SOL    HW2 4258   1.572   4.315   2.053
 1057SOL    HW3 4259   1.490   4.291   1.928
 1057SOL    MW4 4260   1.566   4.309   1.966
 1058SOL     OW 4261   2.017   4.632   1.887
 1058SOL    HW2 4262   2.088   4.666   1.940
 1058SOL    HW3 4263   2.011   4.540   1.910
 1058SOL    MW4 4264   2.025   4.625   1.897
 1059SOL     OW 4265   1.767   0.084   1.969
 1059SOL    HW2 4266   1.767   0.099   2.064
 1059SOL    HW3 4267   1.851   0.043   1.952
 1059SOL    MW4 4268   1.778   0.081   1.980
 1060SOL     OW 4269   1.787   0.343   1.868
 1060SOL    HW2 4270   1.771   0.255   1.900
 1060SOL    HW3 4271   1.779   0.336   1.773
 1060SOL    MW4 4272   1.784   0.330   1.860
 1061SOL     OW 4273   1.999   0.473   1.989
 1061SOL    HW2 4274   2.007   0.551   1.934
 1061SOL    HW3 4275   1.925   0.424   1.951
 1061SOL    MW4 4276   1.990   0.477   1.976
 1062SOL     OW 4277   2.016   0.729   1.880
 1062SOL    HW2 4278   2.072   0.802   1.909
 1062SOL    HW3 4279   2.013   0.738   1.785
 1062SOL    MW4 4280   2.023   0.740   1.871
 1063SOL     OW 4281   1.797   0.860   1.983
 1063SOL    HW2 4282   1.810   0.949   1.949
 1063SOL    HW3 4283   1.874   0.812   1.954
 1063SOL    MW4 4284   1.808   0.866   1.975
 1064SOL     OW 4285   1.800   1.118   1.901
 1064SOL    HW2 4286   1.721   1.158   1.938
 1064SOL    HW3 4287   1.778   1.103   1.809
 1064SOL    MW4 4288   1.786   1.122   1.894
 1065SOL     OW 4289   2.027   1.273   1.963
 1065SOL    HW2 4290   2.111   1.233   1.938
 1065SOL    HW3 4291   1.961   1.210   1.934
 1065SOL    MW4 4292   2.030   1.259   1.956
 1066SOL     OW 4293   2.034   1.546   1.877
 1066SOL    HW2 4294   2.027   1.452   1.892
 1066SOL    HW3 4295   2.020   1.557   1.783
 1066SOL    MW4 4296   2.031   1.535   1.867
 1067SOL     OW 4297   1.797   1.649   1.986
 1067SOL    HW2 4298   1.810   1.743   1.972
 1067SOL    HW3 4299   1.869   1.607   1.938
 1067SOL    MW4 4300   1.809   1.656   1.978
 1068SOL     OW 4301   1.800   1.932   1.916
 1068SOL    HW2 4302   1.717   1.960   1.956
 1068SOL    HW3 4303   1.789   1.949   1.822
 1068SOL    MW4 4304   1.787   1.938   1.909
 1069SOL     OW 4305   2.025   2.072   1.985
 1069SOL    HW2 4306   2.096   2.014   1.958
 1069SOL    HW3 4307   1.945   2.028   1.954
 1069SOL    MW4 4308   2.024   2.058   1.977
 1070SOL     OW 4309   2.101   2.334   1.833
 1070SOL    HW2 4310   2.161   2.381   1.891
 1070SOL    HW3 4311   2.078   2.255   1.882
 1070SOL    MW4 4312   2.106   2.329   1.847
 1071SOL     OW 4313   1.869   2.460   1.922
 1071SOL    HW2 4314   1.891   2.473   2.014
 1071SOL    HW3 4315   1.943   2.410   1.887
 1071SOL    MW4 4316   1.882   2.455   1.930
 1072SOL     OW 4317   1.852   2.737   1.866
 1072SOL    HW2 4318   1.875   2.651   1.900
 1072SOL    HW3 4319   1.863   2.729   1.771
 1072SOL    MW4 4320   1.857   2.725   1.858
 1073SOL     OW 4321   2.054   2.872   2.018
 1073SOL    HW2 4322   2.039   2.861   2.112
 1073SOL    HW3 4323   1.970   2.849   1.978
 1073SOL    MW4 4324   2.041   2.868   2.026
 1074SOL     OW 4325   2.014   3.139   1.927
 1074SOL    HW2 4326   1.934   3.189   1.941
 1074SOL    HW3 4327   2.004   3.062   1.983
 1074SOL    MW4 4328   2.003   3.135   1.936
 1075SOL     OW 4329   1.775   3.257   1.973
 1075SOL    HW2 4330   1.776   3.242   2.067
 1075SOL    HW3 4331   1.708   3.197   1.940
 1075SOL    MW4 4332   1.766   3.247   1.981
 1076SOL     OW 4333   1.802   3.496   1.836
 1076SOL    HW2 4334   1.800   3.405   1.865
 1076SOL    HW3 4335   1.729   3.537   1.883
 1076SOL    MW4 4336   1.792   3.489   1.846
 1077SOL     OW 4337   1.977   3.645   2.007
 1077SOL    HW2 4338   1.986   3.729   1.961
 1077SOL    HW3 4339   1.913   3.596   1.956
 1077SOL    MW4 4340   1.970   3.650   1.994
 1078SOL     OW 4341   2.016   3.858   1.850
 1078SOL    HW2 4342   2.091   3.910   1.880
 1078SOL    HW3 4343   2.025   3.857   1.755
 1078SOL    MW4 4344   2.027   3.864   1.841
 1079SOL     OW 4345   1.824   4.019   1.998
 1079SOL    HW2 4346   1.833   4.087   1.931
 1079SOL    HW3 4347   1.905   3.969   1.992
 1079SOL    MW4 4348   1.836   4.021   1.988
 1080SOL     OW 4349   1.804   4.223   1.828
 1080SOL    HW2 4350   1.719   4.248   1.865
 1080SOL    HW3 4351   1.791   4.231   1.733
 1080SOL    MW4 4352   1.791   4.227   1.820
 1081SOL     OW 4353   2.015   4.349   1.972
 1081SOL    HW2 4354   2.105   4.332   1.941
 1081SOL    HW3 4355   1.960   4.300   1.911
 1081SOL    MW4 4356   2.020   4.340   1.960
 1082SOL     OW 4357   2.466   4.655   1.883
 1082SOL    HW2 4358   2.538   4.708   1.917
 1082SOL    HW3 4359   2.469   4.575   1.935
 1082SOL    MW4 4360   2.476   4.651   1.894
 1083SOL     OW 4361   2.228   0.102   1.986
 1083SOL    HW2 4362   2.247   0.110   2.079
 1083SOL    HW3 4363   2.308   0.067   1.947
 1083SOL    MW4 4364   2.241   0.099   1.993
 1084SOL     OW 4365   2.243   0.360   1.898
 1084SOL    HW2 4366   2.240   0.268   1.923
 1084SOL    HW3 4367   2.162   0.397   1.934
 1084SOL    MW4 4368   2.232   0.353   1.906
 1085SOL     OW 4369   2.471   0.515   1.994
 1085SOL    HW2 4370   2.547   0.466   1.962
 1085SOL    HW3 4371   2.396   0.462   1.969
 1085SOL    MW4 4372   2.471   0.502   1.987
 1086SOL     OW 4373   2.493   0.786   1.914
 1086SOL    HW2 4374   2.488   0.693   1.936
 1086SOL    HW3 4375   2.489   0.789   1.818
 1086SOL    MW4 4376   2.492   0.774   1.904
 1087SOL     OW 4377   2.240   0.866   1.994
 1087SOL    HW2 4378   2.223   0.870   2.088
 1087SOL    HW3 4379   2.322   0.818   1.986
 1087SOL    MW4 4380   2.248   0.860   2.006
 1088SOL     OW 4381   2.250   1.128   1.881
 1088SOL    HW2 4382   2.310   1.184   1.930
 1088SOL    HW3 4383   2.256   1.042   1.924
 1088SOL    MW4 4384   2.259   1.124   1.893
 1089SOL     OW 4385   2.467   1.264   2.021
 1089SOL    HW2 4386   2.453   1.278   2.115
 1089SOL    HW3 4387   2.482   1.351   1.985
 1089SOL    MW4 4388   2.467   1.277   2.029
 1090SOL     OW 4389   2.474   1.507   1.889
 1090SOL    HW2 4390   2.406   1.572   1.908
 1090SOL    HW3 4391   2.500   1.525   1.799
 1090SOL    MW4 4392   2.468   1.518   1.880
 1091SOL     OW 4393   2.263   1.686   1.954
 1091SOL    HW2 4394   2.259   1.708   2.047
 1091SOL    HW3 4395   2.188   1.628   1.940
 1091SOL    MW4 4396   2.252   1.682   1.964
 1092SOL     OW 4397   2.249   1.947   1.882
 1092SOL    HW2 4398   2.323   1.995   1.919
 1092SOL    HW3 4399   2.270   1.855   1.897
 1092SOL    MW4 4400   2.262   1.941   1.889
 1093SOL     OW 4401   2.453   2.101   1.983
 1093SOL    HW2 4402   2.526   2.049   1.950
 1093SOL    HW3 4403   2.471   2.190   1.952
 1093SOL    MW4 4404   2.465   2.106   1.974
 1094SOL     OW 4405   2.518   2.355   1.875
 1094SOL    HW2 4406   2.591   2.388   1.927
 1094SOL    HW3 4407   2.442   2.404   1.906
 1094SOL    MW4 4408   2.517   2.366   1.886
 1095SOL     OW 4409   2.291   2.469   1.980
 1095SOL    HW2 4410   2.295   2.446   2.072
 1095SOL    HW3 4411   2.299   2.565   1.979
 1095SOL    MW4 4412   2.292   2.479   1.992
 1096SOL     OW 4413   2.280   2.728   1.917
 1096SOL    HW2 4414   2.201   2.772   1.949
 1096SOL    HW3 4415   2.257   2.698   1.829
 1096SOL    MW4 4416   2.267   2.730   1.910
 1097SOL     OW 4417   2.514   2.855   1.979
 1097SOL    HW2 4418   2.499   2.947   1.955
 1097SOL    HW3 4419   2.433   2.810   1.954
 1097SOL    MW4 4420   2.501   2.861   1.972
 1098SOL     OW 4421   2.479   3.110   1.913
 1098SOL    HW2 4422   2.408   3.154   1.960
 1098SOL    HW3 4423   2.452   3.111   1.821
 1098SOL    MW4 4424   2.466   3.116   1.907
 1099SOL     OW 4425   2.273   3.241   2.022
 1099SOL    HW2 4426   2.271   3.241   2.117
 1099SOL    HW3 4427   2.193   3.196   1.996
 1099SOL    MW4 4428   2.262   3.235   2.031
 1100SOL     OW 4429   2.200   3.496   1.908
 1100SOL    HW2 4430   2.213   3.415   1.958
 1100SOL    HW3 4431   2.121   3.535   1.947
 1100SOL    MW4 4432   2.191   3.490   1.920
 1101SOL     OW 4433   2.426   3.645   2.000
 1101SOL    HW2 4434   2.438   3.642   2.095
 1101SOL    HW3 4435   2.346   3.595   1.984
 1101SOL    MW4 4436   2.417   3.638   2.010
 1102SOL     OW 4437   2.446   3.895   1.884
 1102SOL    HW2 4438   2.362   3.935   1.904
 1102SOL    HW3 4439   2.440   3.806   1.919
 1102SOL    MW4 4440   2.434   3.888   1.892
 1103SOL     OW 4441   2.195   4.027   1.997
 1103SOL    HW2 4442   2.226   4.023   2.088
 1103SOL    HW3 4443   2.219   4.114   1.967
 1103SOL    MW4 4444   2.202   4.038   2.005
 1104SOL     OW 4445   2.256   4.279   1.895
 1104SOL    HW2 4446   2.327   4.334   1.929
 1104SOL    HW3 4447   2.282   4.260   1.805
 1104SOL    MW4 4448   2.269   4.284   1.887
 1105SOL     OW 4449   2.460   4.420   2.016
 1105SOL    HW2 4450   2.459   4.414   2.111
 1105SOL    HW3 4451   2.532   4.362   1.989
 1105SOL    MW4 4452   2.470   4.411   2.025
 1106SOL     OW 4453   2.901   4.620   1.886
 1106SOL    HW2 4454   2.980   4.670   1.910
 1106SOL    HW3 4455   2.909   4.538   1.934
 1106SOL    MW4 4456   2.913   4.616   1.896
 1107SOL     OW 4457   2.685   0.095   1.991
 1107SOL    HW2 4458   2.684   0.089   2.087
 1107SOL    HW3 4459   2.768   0.054   1.965
 1107SOL    MW4 4460   2.696   0.089   2.000
 1108SOL     OW 4461   2.705   0.365   1.922
 1108SOL    HW2 4462   2.785   0.407   1.953
 1108SOL    HW3 4463   2.705   0.279   1.965
 1108SOL    MW4 4464   2.715   0.359   1.932
 1109SOL     OW 4465   2.920   0.499   2.003
 1109SOL    HW2 4466   2.987   0.446   1.960
 1109SOL    HW3 4467   2.924   0.583   1.958
 1109SOL    MW4 4468   2.929   0.503   1.991
 1110SOL     OW 4469   2.924   0.749   1.875
 1110SOL    HW2 4470   3.004   0.793   1.906
 1110SOL    HW3 4471   2.853   0.796   1.918
 1110SOL    MW4 4472   2.925   0.761   1.884
 1111SOL     OW 4473   2.730   0.876   2.025
 1111SOL    HW2 4474   2.721   0.968   2.001
 1111SOL    HW3 4475   2.649   0.835   1.993
 1111SOL    MW4 4476   2.718   0.883   2.017
 1112SOL     OW 4477   2.709   1.154   1.928
 1112SOL    HW2 4478   2.621   1.184   1.950
 1112SOL    HW3 4479   2.710   1.153   1.832
 1112SOL    MW4 4480   2.697   1.158   1.918
 1113SOL     OW 4481   2.937   1.279   2.002
 1113SOL    HW2 4482   2.940   1.368   1.967
 1113SOL    HW3 4483   2.858   1.241   1.964
 1113SOL    MW4 4484   2.927   1.286   1.992
 1114SOL     OW 4485   2.939   1.547   1.915
 1114SOL    HW2 4486   3.013   1.592   1.956
 1114SOL    HW3 4487   2.953   1.557   1.821
 1114SOL    MW4 4488   2.951   1.554   1.908
 1115SOL     OW 4489   2.701   1.663   1.994
 1115SOL    HW2 4490   2.787   1.640   1.957
 1115SOL    HW3 4491   2.642   1.597   1.958
 1115SOL    MW4 4492   2.705   1.651   1.985
 1116SOL     OW 4493   2.715   1.932   1.891
 1116SOL    HW2 4494   2.792   1.978   1.926
 1116SOL    HW3 4495   2.725   1.842   1.922
 1116SOL    MW4 4496   2.727   1.926   1.900
 1117SOL     OW 4497   2.936   2.062   1.993
 1117SOL    HW2 4498   2.910   2.058   2.085
 1117SOL    HW3 4499   3.003   1.994   1.984
 1117SOL    MW4 4500   2.942   2.052   2.004
 1118SOL     OW 4501   2.908   2.330   1.891
 1118SOL    HW2 4502   2.986   2.384   1.904
 1118SOL    HW3 4503   2.933   2.244   1.927
 1118SOL    MW4 4504   2.922   2.325   1.898
 1119SOL     OW 4505   2.718   2.486   2.016
 1119SOL    HW2 4506   2.735   2.567   1.968
 1119SOL    HW3 4507   2.796   2.432   2.001
 1119SOL    MW4 4508   2.731   2.490   2.008
 1120SOL     OW 4509   2.746   2.736   1.880
 1120SOL    HW2 4510   2.676   2.787   1.921
 1120SOL    HW3 4511   2.720   2.731   1.788
 1120SOL    MW4 4512   2.733   2.742   1.873
 1121SOL     OW 4513   2.978   2.845   2.004
 1121SOL    HW2 4514   2.973   2.939   1.983
 1121SOL    HW3 4515   2.902   2.807   1.960
 1121SOL    MW4 4516   2.967   2.853   1.995
 1122SOL     OW 4517   2.938   3.107   1.908
 1122SOL    HW2 4518   3.019   3.142   1.945
 1122SOL    HW3 4519   2.869   3.162   1.945
 1122SOL    MW4 4520   2.940   3.119   1.918
 1123SOL     OW 4521   2.690   3.241   1.990
 1123SOL    HW2 4522   2.662   3.331   1.973
 1123SOL    HW3 4523   2.616   3.187   1.962
 1123SOL    MW4 4524   2.677   3.246   1.984
 1124SOL     OW 4525   2.660   3.510   1.932
 1124SOL    HW2 4526   2.733   3.559   1.969
 1124SOL    HW3 4527   2.582   3.557   1.961
 1124SOL    MW4 4528   2.659   3.522   1.941
 1125SOL     OW 4529   2.888   3.618   2.031
 1125SOL    HW2 4530   2.903   3.631   2.125
 1125SOL    HW3 4531   2.961   3.564   2.002
 1125SOL    MW4 4532   2.900   3.613   2.040
 1126SOL     OW 4533   2.872   3.884   1.918
 1126SOL    HW2 4534   2.866   3.793   1.946
 1126SOL    HW3 4535   2.870   3.880   1.823
 1126SOL    MW4 4536   2.871   3.872   1.909
 1127SOL     OW 4537   2.647   4.026   2.036
 1127SOL    HW2 4538   2.723   3.991   1.990
 1127SOL    HW3 4539   2.572   3.987   1.992
 1127SOL    MW4 4540   2.647   4.016   2.024
 1128SOL     OW 4541   2.674   4.279   1.893
 1128SOL    HW2 4542   2.666   4.194   1.938
 1128SOL    HW3 4543   2.650   4.260   1.802
 1128SOL    MW4 4544   2.670   4.265   1.887
 1129SOL     OW 4545   2.923   4.388   2.023
 1129SOL    HW2 4546   2.908   4.390   2.117
 1129SOL    HW3 4547   2.846   4.345   1.987
 1129SOL    MW4 4548   2.911   4.383   2.031
 1130SOL     OW 4549   3.361   4.665   1.909
 1130SOL    HW2 4550   3.343   4.578   1.944
 1130SOL    HW3 4551   3.356   4.655   1.814
 1130SOL    MW4 4552   3.358   4.652   1.901
 1131SOL     OW 4553   3.121   0.118   1.987
 1131SOL    HW2 4554   3.107   0.123   2.082
 1131SOL    HW3 4555   3.212   0.091   1.978
 1131SOL    MW4 4556   3.131   0.115   1.998
 1132SOL     OW 4557   3.136   0.375   1.883
 1132SOL    HW2 4558   3.121   0.287   1.918
 1132SOL    HW3 4559   3.129   0.364   1.788
 1132SOL    MW4 4560   3.133   0.362   1.875
 1133SOL     OW 4561   3.350   0.503   1.996
 1133SOL    HW2 4562   3.434   0.464   1.971
 1133SOL    HW3 4563   3.286   0.458   1.941
 1133SOL    MW4 4564   3.353   0.492   1.986
 1134SOL     OW 4565   3.368   0.749   1.883
 1134SOL    HW2 4566   3.304   0.803   1.929
 1134SOL    HW3 4567   3.360   0.663   1.924
 1134SOL    MW4 4568   3.358   0.745   1.895
 1135SOL     OW 4569   3.132   0.858   2.021
 1135SOL    HW2 4570   3.115   0.844   2.114
 1135SOL    HW3 4571   3.129   0.953   2.010
 1135SOL    MW4 4572   3.129   0.869   2.032
 1136SOL     OW 4573   3.161   1.122   1.967
 1136SOL    HW2 4574   3.237   1.171   1.998
 1136SOL    HW3 4575   3.085   1.174   1.993
 1136SOL    MW4 4576   3.161   1.135   1.975
 1137SOL     OW 4577   3.403   1.252   2.033
 1137SOL    HW2 4578   3.387   1.260   2.126
 1137SOL    HW3 4579   3.411   1.342   2.001
 1137SOL    MW4 4580   3.402   1.265   2.041
 1138SOL     OW 4581   3.411   1.497   1.895
 1138SOL    HW2 4582   3.488   1.546   1.923
 1138SOL    HW3 4583   3.337   1.550   1.926
 1138SOL    MW4 4584   3.411   1.510   1.903
 1139SOL     OW 4585   3.194   1.642   1.986
 1139SOL    HW2 4586   3.177   1.659   2.079
 1139SOL    HW3 4587   3.179   1.727   1.943
 1139SOL    MW4 4588   3.189   1.656   1.992
 1140SOL     OW 4589   3.158   1.900   1.900
 1140SOL    HW2 4590   3.235   1.947   1.934
 1140SOL    HW3 4591   3.152   1.928   1.809
 1140SOL    MW4 4592   3.168   1.910   1.893
 1141SOL     OW 4593   3.392   2.046   1.969
 1141SOL    HW2 4594   3.479   2.011   1.951
 1141SOL    HW3 4595   3.395   2.136   1.937
 1141SOL    MW4 4596   3.404   2.053   1.963
 1142SOL     OW 4597   3.398   2.305   1.893
 1142SOL    HW2 4598   3.327   2.366   1.913
 1142SOL    HW3 4599   3.406   2.308   1.797
 1142SOL    MW4 4600   3.389   2.313   1.883
 1143SOL     OW 4601   3.158   2.455   1.960
 1143SOL    HW2 4602   3.160   2.454   2.055
 1143SOL    HW3 4603   3.172   2.547   1.937
 1143SOL    MW4 4604   3.161   2.467   1.969
 1144SOL     OW 4605   3.187   2.715   1.860
 1144SOL    HW2 4606   3.100   2.743   1.889
 1144SOL    HW3 4607   3.181   2.710   1.765
 1144SOL    MW4 4608   3.175   2.718   1.852
 1145SOL     OW 4609   3.393   2.852   1.997
 1145SOL    HW2 4610   3.383   2.840   2.091
 1145SOL    HW3 4611   3.317   2.810   1.958
 1145SOL    MW4 4612   3.382   2.845   2.004
 1146SOL     OW 4613   3.363   3.108   1.895
 1146SOL    HW2 4614   3.435   3.157   1.936
 1146SOL    HW3 4615   3.385   3.016   1.911
 1146SOL    MW4 4616   3.376   3.102   1.903
 1147SOL     OW 4617   3.146   3.222   2.007
 1147SOL    HW2 4618   3.161   3.312   1.980
 1147SOL    HW3 4619   3.217   3.172   1.966
 1147SOL    MW4 4620   3.158   3.227   1.998
 1148SOL     OW 4621   3.123   3.492   1.945
 1148SOL    HW2 4622   3.166   3.567   1.986
 1148SOL    HW3 4623   3.135   3.506   1.851
 1148SOL    MW4 4624   3.130   3.504   1.938
 1149SOL     OW 4625   3.357   3.628   2.034
 1149SOL    HW2 4626   3.435   3.585   1.999
 1149SOL    HW3 4627   3.362   3.718   2.000
 1149SOL    MW4 4628   3.368   3.634   2.025
 1150SOL     OW 4629   3.365   3.875   1.884
 1150SOL    HW2 4630   3.286   3.926   1.902
 1150SOL    HW3 4631   3.374   3.876   1.789
 1150SOL    MW4 4632   3.356   3.882   1.874
 1151SOL     OW 4633   3.135   3.995   1.994
 1151SOL    HW2 4634   3.142   3.984   2.089
 1151SOL    HW3 4635   3.043   3.977   1.975
 1151SOL    MW4 4636   3.124   3.991   2.004
 1152SOL     OW 4637   3.114   4.243   1.883
 1152SOL    HW2 4638   3.114   4.158   1.927
 1152SOL    HW3 4639   3.057   4.298   1.936
 1152SOL    MW4 4640   3.107   4.239   1.896
 1153SOL     OW 4641   3.344   4.382   1.988
 1153SOL    HW2 4642   3.424   4.349   1.947
 1153SOL    HW3 4643   3.274   4.326   1.955
 1153SOL    MW4 4644   3.345   4.370   1.979
 1154SOL     OW 4645   3.798   4.638   1.852
 1154SOL    HW2 4646   3.800   4.547   1.883
 1154SOL    HW3 4647   3.739   4.683   1.913
 1154SOL    MW4 4648   3.790   4.632   1.864
 1155SOL     OW 4649   3.597   0.104   2.001
 1155SOL    HW2 4650   3.597   0.113   2.096
 1155SOL    HW3 4651   3.510   0.071   1.980
 1155SOL    MW4 4652   3.586   0.101   2.011
 1156SOL     OW 4653   3.589   0.369   1.918
 1156SOL    HW2 4654   3.588   0.276   1.940
 1156SOL    HW3 4655   3.589   0.371   1.822
 1156SOL    MW4 4656   3.589   0.357   1.908
 1157SOL     OW 4657   3.834   0.473   2.002
 1157SOL    HW2 4658   3.836   0.564   1.971
 1157SOL    HW3 4659   3.748   0.441   1.975
 1157SOL    MW4 4660   3.823   0.481   1.994
 1158SOL     OW 4661   3.855   0.729   1.904
 1158SOL    HW2 4662   3.778   0.783   1.923
 1158SOL    HW3 4663   3.863   0.732   1.808
 1158SOL    MW4 4664   3.846   0.736   1.894
 1159SOL     OW 4665   3.618   0.861   1.970
 1159SOL    HW2 4666   3.602   0.950   1.941
 1159SOL    HW3 4667   3.546   0.810   1.932
 1159SOL    MW4 4668   3.606   0.866   1.961
 1160SOL     OW 4669   3.616   1.128   1.893
 1160SOL    HW2 4670   3.541   1.175   1.931
 1160SOL    HW3 4671   3.602   1.132   1.798
 1160SOL    MW4 4672   3.604   1.135   1.885
 1161SOL     OW 4673   3.818   1.254   2.010
 1161SOL    HW2 4674   3.814   1.246   2.106
 1161SOL    HW3 4675   3.735   1.217   1.980
 1161SOL    MW4 4676   3.806   1.248   2.019
 1162SOL     OW 4677   3.789   1.513   1.878
 1162SOL    HW2 4678   3.868   1.565   1.893
 1162SOL    HW3 4679   3.807   1.428   1.918
 1162SOL    MW4 4680   3.802   1.508   1.885
 1163SOL     OW 4681   3.601   1.668   2.014
 1163SOL    HW2 4682   3.623   1.758   1.989
 1163SOL    HW3 4683   3.668   1.614   1.970
 1163SOL    MW4 4684   3.613   1.673   2.005
 1164SOL     OW 4685   3.627   1.923   1.886
 1164SOL    HW2 4686   3.705   1.973   1.910
 1164SOL    HW3 4687   3.625   1.927   1.790
 1164SOL    MW4 4688   3.637   1.930   1.877
 1165SOL     OW 4689   3.827   2.071   1.972
 1165SOL    HW2 4690   3.902   2.021   1.940
 1165SOL    HW3 4691   3.835   2.156   1.929
 1165SOL    MW4 4692   3.838   2.076   1.962
 1166SOL     OW 4693   3.841   2.336   1.860
 1166SOL    HW2 4694   3.918   2.364   1.909
 1166SOL    HW3 4695   3.769   2.384   1.900
 1166SOL    MW4 4696   3.842   2.346   1.872
 1167SOL     OW 4697   3.610   2.434   1.998
 1167SOL    HW2 4698   3.589   2.522   1.966
 1167SOL    HW3 4699   3.541   2.379   1.962
 1167SOL    MW4 4700   3.598   2.438   1.989
 1168SOL     OW 4701   3.596   2.680   1.873
 1168SOL    HW2 4702   3.679   2.702   1.915
 1168SOL    HW3 4703   3.532   2.740   1.913
 1168SOL    MW4 4704   3.598   2.691   1.884
 1169SOL     OW 4705   3.824   2.765   2.003
 1169SOL    HW2 4706   3.823   2.746   2.097
 1169SOL    HW3 4707   3.825   2.861   1.998
 1169SOL    MW4 4708   3.824   2.775   2.015
 1170SOL     OW 4709   3.829   3.033   1.894
 1170SOL    HW2 4710   3.755   3.080   1.932
 1170SOL    HW3 4711   3.823   3.051   1.800
 1170SOL    MW4 4712   3.819   3.041   1.887
 1171SOL     OW 4713   3.618   3.209   2.023
 1171SOL    HW2 4714   3.605   3.208   2.118
 1171SOL    HW3 4715   3.595   3.298   1.997
 1171SOL    MW4 4716   3.613   3.221   2.032
 1172SOL     OW 4717   3.564   3.485   1.911
 1172SOL    HW2 4718   3.635   3.548   1.926
 1172SOL    HW3 4719   3.557   3.481   1.815
 1172SOL    MW4 4720   3.573   3.493   1.900
 1173SOL     OW 4721   3.787   3.652   1.960
 1173SOL    HW2 4722   3.873   3.610   1.959
 1173SOL    HW3 4723   3.803   3.742   1.932
 1173SOL    MW4 4724   3.801   3.658   1.956
 1174SOL     OW 4725   3.814   3.905   1.898
 1174SOL    HW2 4726   3.728   3.944   1.914
 1174SOL    HW3 4727   3.821   3.900   1.802
 1174SOL    MW4 4728   3.804   3.909   1.887
 1175SOL     OW 4729   3.583   4.031   1.974
 1175SOL    HW2 4730   3.605   4.032   2.067
 1175SOL    HW3 4731   3.499   3.986   1.969
 1175SOL    MW4 4732   3.575   4.025   1.985
 1176SOL     OW 4733   3.566   4.280   1.874
 1176SOL    HW2 4734   3.648   4.312   1.913
 1176SOL    HW3 4735   3.560   4.189   1.901
 1176SOL    MW4 4736   3.576   4.272   1.883
 1177SOL     OW 4737   3.789   4.394   1.977
 1177SOL    HW2 4738   3.799   4.421   2.069
 1177SOL    HW3 4739   3.875   4.359   1.954
 1177SOL    MW4 4740   3.802   4.393   1.986
 1178SOL     OW 4741   4.296   4.641   1.890
 1178SOL    HW2 4742   4.216   4.688   1.912
 1178SOL    HW3 4743   4.367   4.691   1.931
 1178SOL    MW4 4744   4.295   4.653   1.898
 1179SOL     OW 4745   4.042   0.067   1.950
 1179SOL    HW2 4746   4.028   0.103   2.038
 1179SOL    HW3 4747   3.958   0.026   1.927
 1179SOL    MW4 4748   4.029   0.067   1.958
 1180SOL     OW 4749   4.054   0.342   1.879
 1180SOL    HW2 4750   4.042   0.247   1.879
 1180SOL    HW3 4751   3.981   0.376   1.931
 1180SOL    MW4 4752   4.043   0.334   1.886
 1181SOL     OW 4753   4.263   0.478   1.987
 1181SOL    HW2 4754   4.242   0.503   2.077
 1181SOL    HW3 4755   4.190   0.421   1.960
 1181SOL    MW4 4756   4.250   0.474   1.995
 1182SOL     OW 4757   4.276   0.732   1.893
 1182SOL    HW2 4758   4.279   0.642   1.926
 1182SOL    HW3 4759   4.279   0.722   1.798
 1182SOL    MW4 4760   4.277   0.719   1.885
 1183SOL     OW 4761   4.052   0.898   1.990
 1183SOL    HW2 4762   4.122   0.835   1.970
 1183SOL    HW3 4763   3.972   0.852   1.965
 1183SOL    MW4 4764   4.051   0.883   1.984
 1184SOL     OW 4765   4.045   1.152   1.889
 1184SOL    HW2 4766   4.039   1.060   1.911
 1184SOL    HW3 4767   3.978   1.195   1.942
 1184SOL    MW4 4768   4.035   1.146   1.899
 1185SOL     OW 4769   4.290   1.267   1.957
 1185SOL    HW2 4770   4.280   1.256   2.051
 1185SOL    HW3 4771   4.209   1.233   1.920
 1185SOL    MW4 4772   4.278   1.261   1.964
 1186SOL     OW 4773   4.253   1.541   1.890
 1186SOL    HW2 4774   4.268   1.447   1.898
 1186SOL    HW3 4775   4.231   1.555   1.798
 1186SOL    MW4 4776   4.252   1.531   1.879
 1187SOL     OW 4777   4.015   1.684   1.980
 1187SOL    HW2 4778   4.009   1.686   2.076
 1187SOL    HW3 4779   4.102   1.649   1.962
 1187SOL    MW4 4780   4.025   1.680   1.990
 1188SOL     OW 4781   4.065   1.920   1.847
 1188SOL    HW2 4782   4.040   1.838   1.889
 1188SOL    HW3 4783   4.045   1.906   1.754
 1188SOL    MW4 4784   4.059   1.908   1.840
 1189SOL     OW 4785   4.261   2.041   1.988
 1189SOL    HW2 4786   4.245   2.045   2.083
 1189SOL    HW3 4787   4.185   1.993   1.954
 1189SOL    MW4 4788   4.249   2.035   1.996
 1190SOL     OW 4789   4.307   2.294   1.867
 1190SOL    HW2 4790   4.307   2.205   1.902
 1190SOL    HW3 4791   4.376   2.339   1.917
 1190SOL    MW4 4792   4.316   2.288   1.879
 1191SOL     OW 4793   4.077   2.420   1.969
 1191SOL    HW2 4794   4.098   2.431   2.062
 1191SOL    HW3 4795   4.148   2.365   1.936
 1191SOL    MW4 4796   4.089   2.414   1.977
 1192SOL     OW 4797   4.059   2.686   1.885
 1192SOL    HW2 4798   4.075   2.601   1.926
 1192SOL    HW3 4799   3.991   2.726   1.938
 1192SOL    MW4 4800   4.052   2.680   1.897
 1193SOL     OW 4801   4.286   2.818   1.995
 1193SOL    HW2 4802   4.267   2.820   2.089
 1193SOL    HW3 4803   4.208   2.781   1.955
 1193SOL    MW4 4804   4.273   2.814   2.002
 1194SOL     OW 4805   4.289   3.069   1.886
 1194SOL    HW2 4806   4.204   3.106   1.911
 1194SOL    HW3 4807   4.285   2.978   1.915
 1194SOL    MW4 4808   4.277   3.062   1.893
 1195SOL     OW 4809   4.036   3.223   1.953
 1195SOL    HW2 4810   4.054   3.211   2.047
 1195SOL    HW3 4811   3.967   3.160   1.933
 1195SOL    MW4 4812   4.030   3.213   1.963
 1196SOL     OW 4813   4.032   3.493   1.946
 1196SOL    HW2 4814   4.123   3.520   1.953
 1196SOL    HW3 4815   4.035   3.397   1.951
 1196SOL    MW4 4816   4.044   3.484   1.948
 1197SOL     OW 4817   4.284   3.609   1.990
 1197SOL    HW2 4818   4.268   3.695   1.951
 1197SOL    HW3 4819   4.366   3.579   1.951
 1197SOL    MW4 4820   4.292   3.617   1.980
 1198SOL     OW 4821   4.235   3.873   1.922
 1198SOL    HW2 4822   4.326   3.888   1.946
 1198SOL    HW3 4823   4.232   3.888   1.827
 1198SOL    MW4 4824   4.246   3.877   1.912
 1199SOL     OW 4825   4.029   4.038   2.020
 1199SOL    HW2 4826   4.103   3.986   1.989
 1199SOL    HW3 4827   3.952   3.988   1.995
 1199SOL    MW4 4828   4.029   4.025   2.012
 1200SOL     OW 4829   4.038   4.288   1.908
 1200SOL    HW2 4830   4.105   4.339   1.954
 1200SOL    HW3 4831   4.035   4.205   1.955
 1200SOL    MW4 4832   4.047   4.284   1.920
 1201SOL     OW 4833   4.287   4.390   1.986
 1201SOL    HW2 4834   4.291   4.391   2.081
 1201SOL    HW3 4835   4.295   4.482   1.961
 1201SOL    MW4 4836   4.289   4.403   1.995
 1202SOL     OW 4837   0.168   4.648   2.354
 1202SOL    HW2 4838   0.185   4.642   2.448
 1202SOL    HW3 4839   0.252   4.676   2.316
 1202SOL    MW4 4840   0.181   4.651   2.362
 1203SOL     OW 4841   4.439   0.138   2.282
 1203SOL    HW2 4842   4.513   0.095   2.324
 1203SOL    HW3 4843   4.449   0.119   2.189
 1203SOL    MW4 4844   4.450   0.130   2.276
 1204SOL     OW 4845   4.463   0.392   2.359
 1204SOL    HW2 4846   4.543   0.423   2.316
 1204SOL    HW3 4847   4.452   0.303   2.327
 1204SOL    MW4 4848   4.472   0.384   2.349
 1205SOL     OW 4849   0.212   0.463   2.236
 1205SOL    HW2 4850   0.279   0.408   2.277
 1205SOL    HW3 4851   0.225   0.450   2.142
 1205SOL    MW4 4852   0.223   0.454   2.229
 1206SOL     OW 4853   0.176   0.731   2.307
 1206SOL    HW2 4854   0.202   0.734   2.399
 1206SOL    HW3 4855   0.167   0.637   2.288
 1206SOL    MW4 4856   0.178   0.719   2.317
 1207SOL     OW 4857   4.471   0.917   2.249
 1207SOL    HW2 4858   4.546   0.861   2.273
 1207SOL    HW3 4859   4.477   0.926   2.154
 1207SOL    MW4 4860   4.482   0.911   2.240
 1208SOL     OW 4861   4.488   1.183   2.339
 1208SOL    HW2 4862   4.489   1.165   2.433
 1208SOL    HW3 4863   4.497   1.097   2.298
 1208SOL    MW4 4864   4.489   1.169   2.346
 1209SOL     OW 4865   0.238   1.307   2.263
 1209SOL    HW2 4866   0.155   1.271   2.295
 1209SOL    HW3 4867   0.232   1.300   2.168
 1209SOL    MW4 4868   0.226   1.301   2.255
 1210SOL     OW 4869   0.199   1.548   2.364
 1210SOL    HW2 4870   0.203   1.544   2.459
 1210SOL    HW3 4871   0.224   1.461   2.335
 1210SOL    MW4 4872   0.203   1.536   2.372
 1211SOL     OW 4873   4.470   1.677   2.263
 1211SOL    HW2 4874   4.481   1.770   2.278
 1211SOL    HW3 4875   4.543   1.636   2.311
 1211SOL    MW4 4876   4.481   1.684   2.271
 1212SOL     OW 4877   4.481   1.929   2.383
 1212SOL    HW2 4878   4.408   1.975   2.341
 1212SOL    HW3 4879   4.559   1.977   2.355
 1212SOL    MW4 4880   4.482   1.942   2.374
 1213SOL     OW 4881   0.222   2.074   2.283
 1213SOL    HW2 4882   0.285   2.008   2.311
 1213SOL    HW3 4883   0.231   2.077   2.188
 1213SOL    MW4 4884   0.231   2.066   2.274
 1214SOL     OW 4885   0.239   2.344   2.376
 1214SOL    HW2 4886   0.249   2.342   2.471
 1214SOL    HW3 4887   0.220   2.253   2.351
 1214SOL    MW4 4888   0.238   2.332   2.385
 1215SOL     OW 4889   0.016   2.500   2.291
 1215SOL    HW2 4890   0.020   2.588   2.328
 1215SOL    HW3 4891   0.100   2.461   2.316
 1215SOL    MW4 4892   0.028   2.506   2.299
 1216SOL     OW 4893   4.489   2.781   2.397
 1216SOL    HW2 4894   4.502   2.734   2.479
 1216SOL    HW3 4895   4.573   2.825   2.382
 1216SOL    MW4 4896   4.502   2.780   2.405
 1217SOL     OW 4897   0.257   2.878   2.274
 1217SOL    HW2 4898   0.330   2.825   2.306
 1217SOL    HW3 4899   0.253   2.860   2.180
 1217SOL    MW4 4900   0.266   2.869   2.266
 1218SOL     OW 4901   0.223   3.115   2.405
 1218SOL    HW2 4902   0.138   3.121   2.361
 1218SOL    HW3 4903   0.260   3.031   2.376
 1218SOL    MW4 4904   0.217   3.104   2.395
 1219SOL     OW 4905   0.004   3.211   2.261
 1219SOL    HW2 4906   0.014   3.294   2.309
 1219SOL    HW3 4907  -0.003   3.237   2.169
 1219SOL    MW4 4908   0.005   3.226   2.255
 1220SOL     OW 4909   0.011   3.460   2.385
 1220SOL    HW2 4910   0.019   3.448   2.479
 1220SOL    HW3 4911  -0.073   3.505   2.373
 1220SOL    MW4 4912   0.001   3.464   2.396
 1221SOL     OW 4913   0.228   3.588   2.281
 1221SOL    HW2 4914   0.308   3.553   2.320
 1221SOL    HW3 4915   0.157   3.544   2.329
 1221SOL    MW4 4916   0.229   3.577   2.293
 1222SOL     OW 4917   0.230   3.858   2.379
 1222SOL    HW2 4918   0.149   3.900   2.349
 1222SOL    HW3 4919   0.219   3.766   2.356
 1222SOL    MW4 4920   0.218   3.851   2.372
 1223SOL     OW 4921   0.009   4.007   2.297
 1223SOL    HW2 4922   0.012   4.099   2.322
 1223SOL    HW3 4923   0.003   4.007   2.202
 1223SOL    MW4 4924   0.009   4.019   2.288
 1224SOL     OW 4925   4.484   4.270   2.393
 1224SOL    HW2 4926   4.478   4.284   2.488
 1224SOL    HW3 4927   4.559   4.325   2.365
 1224SOL    MW4 4928   4.494   4.279   2.402
 1225SOL     OW 4929   0.202   4.401   2.247
 1225SOL    HW2 4930   0.288   4.369   2.271
 1225SOL    HW3 4931   0.199   4.490   2.282
 1225SOL    MW4 4932   0.213   4.409   2.255
 1226SOL     OW 4933   0.642   4.652   2.319
 1226SOL    HW2 4934   0.648   4.654   2.414
 1226SOL    HW3 4935   0.726   4.688   2.289
 1226SOL    MW4 4936   0.654   4.657   2.327
 1227SOL     OW 4937   0.402   0.061   2.237
 1227SOL    HW2 4938   0.493   0.041   2.261
 1227SOL    HW3 4939   0.401   0.055   2.142
 1227SOL    MW4 4940   0.414   0.058   2.228
 1228SOL     OW 4941   0.448   0.324   2.340
 1228SOL    HW2 4942   0.431   0.331   2.434
 1228SOL    HW3 4943   0.424   0.234   2.318
 1228SOL    MW4 4944   0.443   0.313   2.349
 1229SOL     OW 4945   0.656   0.488   2.226
 1229SOL    HW2 4946   0.647   0.574   2.267
 1229SOL    HW3 4947   0.575   0.442   2.250
 1229SOL    MW4 4948   0.644   0.493   2.235
 1230SOL     OW 4949   0.625   0.748   2.312
 1230SOL    HW2 4950   0.621   0.742   2.407
 1230SOL    HW3 4951   0.547   0.799   2.288
 1230SOL    MW4 4952   0.614   0.754   2.321
 1231SOL     OW 4953   0.383   0.887   2.229
 1231SOL    HW2 4954   0.308   0.828   2.240
 1231SOL    HW3 4955   0.411   0.873   2.138
 1231SOL    MW4 4956   0.377   0.877   2.218
 1232SOL     OW 4957   0.417   1.121   2.364
 1232SOL    HW2 4958   0.394   1.035   2.329
 1232SOL    HW3 4959   0.352   1.181   2.326
 1232SOL    MW4 4960   0.405   1.118   2.354
 1233SOL     OW 4961   0.634   1.229   2.240
 1233SOL    HW2 4962   0.649   1.307   2.293
 1233SOL    HW3 4963   0.562   1.183   2.284
 1233SOL    MW4 4964   0.626   1.233   2.253
 1234SOL     OW 4965   0.636   1.468   2.368
 1234SOL    HW2 4966   0.652   1.476   2.462
 1234SOL    HW3 4967   0.701   1.525   2.328
 1234SOL    MW4 4968   0.647   1.476   2.375
 1235SOL     OW 4969   0.443   1.628   2.241
 1235SOL    HW2 4970   0.494   1.571   2.298
 1235SOL    HW3 4971   0.354   1.624   2.277
 1235SOL    MW4 4972   0.438   1.620   2.254
 1236SOL     OW 4973   0.440   1.908   2.357
 1236SOL    HW2 4974   0.510   1.957   2.314
 1236SOL    HW3 4975   0.457   1.817   2.336
 1236SOL    MW4 4976   0.451   1.903   2.348
 1237SOL     OW 4977   0.680   2.032   2.261
 1237SOL    HW2 4978   0.747   1.974   2.296
 1237SOL    HW3 4979   0.693   2.115   2.307
 1237SOL    MW4 4980   0.690   2.035   2.271
 1238SOL     OW 4981   0.676   2.288   2.368
 1238SOL    HW2 4982   0.695   2.290   2.462
 1238SOL    HW3 4983   0.749   2.336   2.329
 1238SOL    MW4 4984   0.688   2.295   2.376
 1239SOL     OW 4985   0.472   2.431   2.266
 1239SOL    HW2 4986   0.547   2.384   2.302
 1239SOL    HW3 4987   0.398   2.399   2.318
 1239SOL    MW4 4988   0.472   2.420   2.278
 1240SOL     OW 4989   0.454   2.690   2.362
 1240SOL    HW2 4990   0.460   2.672   2.456
 1240SOL    HW3 4991   0.457   2.604   2.321
 1240SOL    MW4 4992   0.455   2.676   2.369
 1241SOL     OW 4993   0.709   2.802   2.279
 1241SOL    HW2 4994   0.774   2.748   2.323
 1241SOL    HW3 4995   0.625   2.764   2.306
 1241SOL    MW4 4996   0.706   2.790   2.289
 1242SOL     OW 4997   0.700   3.089   2.376
 1242SOL    HW2 4998   0.627   3.137   2.336
 1242SOL    HW3 4999   0.691   2.999   2.343
 1242SOL    MW4 5000   0.689   3.083   2.366
 1243SOL     OW 5001   0.455   3.204   2.267
 1243SOL    HW2 5002   0.379   3.178   2.319
 1243SOL    HW3 5003   0.427   3.194   2.176
 1243SOL    MW4 5004   0.441   3.199   2.262
 1244SOL     OW 5005   0.466   3.463   2.371
 1244SOL    HW2 5006   0.536   3.520   2.340
 1244SOL    HW3 5007   0.471   3.386   2.315
 1244SOL    MW4 5008   0.476   3.461   2.360
 1245SOL     OW 5009   0.665   3.638   2.271
 1245SOL    HW2 5010   0.673   3.725   2.309
 1245SOL    HW3 5011   0.658   3.653   2.177
 1245SOL    MW4 5012   0.665   3.651   2.264
 1246SOL     OW 5013   0.677   3.899   2.365
 1246SOL    HW2 5014   0.653   3.891   2.457
 1246SOL    HW3 5015   0.598   3.933   2.323
 1246SOL    MW4 5016   0.663   3.902   2.371
 1247SOL     OW 5017   0.450   3.998   2.271
 1247SOL    HW2 5018   0.381   3.945   2.311
 1247SOL    HW3 5019   0.439   3.983   2.177
 1247SOL    MW4 5020   0.439   3.989   2.263
 1248SOL     OW 5021   0.430   4.270   2.341
 1248SOL    HW2 5022   0.503   4.309   2.293
 1248SOL    HW3 5023   0.436   4.176   2.321
 1248SOL    MW4 5024   0.440   4.262   2.332
 1249SOL     OW 5025   0.668   4.403   2.229
 1249SOL    HW2 5026   0.649   4.493   2.258
 1249SOL    HW3 5027   0.669   4.409   2.133
 1249SOL    MW4 5028   0.665   4.416   2.220
 1250SOL     OW 5029   1.124   4.637   2.341
 1250SOL    HW2 5030   1.123   4.649   2.436
 1250SOL    HW3 5031   1.043   4.679   2.310
 1250SOL    MW4 5032   1.113   4.644   2.349
 1251SOL     OW 5033   0.893   0.096   2.249
 1251SOL    HW2 5034   0.897   0.181   2.294
 1251SOL    HW3 5035   0.916   0.116   2.159
 1251SOL    MW4 5036   0.897   0.110   2.243
 1252SOL     OW 5037   0.891   0.357   2.328
 1252SOL    HW2 5038   0.956   0.418   2.292
 1252SOL    HW3 5039   0.807   0.393   2.301
 1252SOL    MW4 5040   0.889   0.370   2.320
 1253SOL     OW 5041   1.096   0.512   2.238
 1253SOL    HW2 5042   1.165   0.459   2.278
 1253SOL    HW3 5043   1.113   0.507   2.144
 1253SOL    MW4 5044   1.107   0.505   2.231
 1254SOL     OW 5045   1.039   0.757   2.341
 1254SOL    HW2 5046   0.972   0.791   2.281
 1254SOL    HW3 5047   1.065   0.673   2.304
 1254SOL    MW4 5048   1.033   0.750   2.329
 1255SOL     OW 5049   0.831   0.855   2.155
 1255SOL    HW2 5050   0.827   0.936   2.207
 1255SOL    HW3 5051   0.764   0.799   2.193
 1255SOL    MW4 5052   0.822   0.859   2.167
 1256SOL     OW 5053   0.864   1.092   2.307
 1256SOL    HW2 5054   0.929   1.161   2.292
 1256SOL    HW3 5055   0.781   1.131   2.280
 1256SOL    MW4 5056   0.862   1.106   2.302
 1257SOL     OW 5057   1.081   1.261   2.242
 1257SOL    HW2 5058   1.161   1.219   2.275
 1257SOL    HW3 5059   1.091   1.262   2.147
 1257SOL    MW4 5060   1.093   1.256   2.234
 1258SOL     OW 5061   1.095   1.516   2.350
 1258SOL    HW2 5062   1.012   1.559   2.331
 1258SOL    HW3 5063   1.083   1.425   2.321
 1258SOL    MW4 5064   1.083   1.509   2.344
 1259SOL     OW 5065   0.849   1.628   2.259
 1259SOL    HW2 5066   0.864   1.718   2.288
 1259SOL    HW3 5067   0.867   1.629   2.165
 1259SOL    MW4 5068   0.853   1.640   2.250
 1260SOL     OW 5069   0.888   1.888   2.351
 1260SOL    HW2 5070   0.883   1.867   2.445
 1260SOL    HW3 5071   0.972   1.931   2.341
 1260SOL    MW4 5072   0.898   1.891   2.362
 1261SOL     OW 5073   1.116   2.066   2.297
 1261SOL    HW2 5074   1.180   2.000   2.324
 1261SOL    HW3 5075   1.119   2.064   2.201
 1261SOL    MW4 5076   1.125   2.057   2.288
 1262SOL     OW 5077   1.167   2.328   2.356
 1262SOL    HW2 5078   1.238   2.369   2.307
 1262SOL    HW3 5079   1.168   2.237   2.326
 1262SOL    MW4 5080   1.177   2.321   2.345
 1263SOL     OW 5081   0.919   2.409   2.298
 1263SOL    HW2 5082   1.001   2.373   2.332
 1263SOL    HW3 5083   0.937   2.429   2.207
 1263SOL    MW4 5084   0.932   2.407   2.291
 1264SOL     OW 5085   0.925   2.685   2.424
 1264SOL    HW2 5086   0.887   2.693   2.512
 1264SOL    HW3 5087   0.929   2.590   2.408
 1264SOL    MW4 5088   0.920   2.673   2.434
 1265SOL     OW 5089   1.136   2.822   2.298
 1265SOL    HW2 5090   1.215   2.778   2.330
 1265SOL    HW3 5091   1.065   2.781   2.347
 1265SOL    MW4 5092   1.137   2.811   2.309
 1266SOL     OW 5093   1.143   3.073   2.377
 1266SOL    HW2 5094   1.081   3.121   2.321
 1266SOL    HW3 5095   1.136   2.982   2.348
 1266SOL    MW4 5096   1.134   3.068   2.365
 1267SOL     OW 5097   0.923   3.217   2.257
 1267SOL    HW2 5098   0.905   3.309   2.278
 1267SOL    HW3 5099   0.858   3.169   2.309
 1267SOL    MW4 5100   0.912   3.223   2.267
 1268SOL     OW 5101   0.895   3.490   2.321
 1268SOL    HW2 5102   0.897   3.484   2.416
 1268SOL    HW3 5103   0.814   3.537   2.302
 1268SOL    MW4 5104   0.885   3.495   2.331
 1269SOL     OW 5105   1.130   3.631   2.262
 1269SOL    HW2 5106   1.207   3.590   2.300
 1269SOL    HW3 5107   1.056   3.579   2.294
 1269SOL    MW4 5108   1.130   3.619   2.271
 1270SOL     OW 5109   1.134   3.897   2.374
 1270SOL    HW2 5110   1.220   3.936   2.357
 1270SOL    HW3 5111   1.133   3.816   2.322
 1270SOL    MW4 5112   1.145   3.891   2.365
 1271SOL     OW 5113   0.894   4.018   2.259
 1271SOL    HW2 5114   0.974   3.987   2.302
 1271SOL    HW3 5115   0.823   3.975   2.306
 1271SOL    MW4 5116   0.896   4.008   2.271
 1272SOL     OW 5117   0.869   4.254   2.390
 1272SOL    HW2 5118   0.887   4.171   2.345
 1272SOL    HW3 5119   0.804   4.298   2.336
 1272SOL    MW4 5120   0.863   4.249   2.377
 1273SOL     OW 5121   1.093   4.368   2.284
 1273SOL    HW2 5122   1.019   4.348   2.341
 1273SOL    HW3 5123   1.105   4.462   2.292
 1273SOL    MW4 5124   1.085   4.378   2.292
 1274SOL     OW 5125   1.562   4.649   2.320
 1274SOL    HW2 5126   1.621   4.719   2.291
 1274SOL    HW3 5127   1.474   4.681   2.296
 1274SOL    MW4 5128   1.558   4.663   2.313
 1275SOL     OW 5129   1.321   0.117   2.238
 1275SOL    HW2 5130   1.329   0.193   2.295
 1275SOL    HW3 5131   1.250   0.065   2.277
 1275SOL    MW4 5132   1.312   0.120   2.250
 1276SOL     OW 5133   1.300   0.354   2.378
 1276SOL    HW2 5134   1.294   0.364   2.474
 1276SOL    HW3 5135   1.381   0.398   2.355
 1276SOL    MW4 5136   1.310   0.361   2.388
 1277SOL     OW 5137   1.528   0.487   2.269
 1277SOL    HW2 5138   1.612   0.448   2.293
 1277SOL    HW3 5139   1.527   0.488   2.174
 1277SOL    MW4 5140   1.539   0.482   2.260
 1278SOL     OW 5141   1.545   0.747   2.353
 1278SOL    HW2 5142   1.624   0.786   2.315
 1278SOL    HW3 5143   1.540   0.660   2.313
 1278SOL    MW4 5144   1.555   0.740   2.343
 1279SOL     OW 5145   1.285   0.866   2.259
 1279SOL    HW2 5146   1.350   0.816   2.308
 1279SOL    HW3 5147   1.201   0.839   2.298
 1279SOL    MW4 5148   1.282   0.856   2.271
 1280SOL     OW 5149   1.306   1.126   2.355
 1280SOL    HW2 5150   1.309   1.130   2.450
 1280SOL    HW3 5151   1.278   1.037   2.335
 1280SOL    MW4 5152   1.303   1.115   2.365
 1281SOL     OW 5153   1.566   1.213   2.264
 1281SOL    HW2 5154   1.482   1.177   2.293
 1281SOL    HW3 5155   1.552   1.239   2.174
 1281SOL    MW4 5156   1.553   1.212   2.256
 1282SOL     OW 5157   1.571   1.495   2.364
 1282SOL    HW2 5158   1.655   1.529   2.334
 1282SOL    HW3 5159   1.564   1.410   2.321
 1282SOL    MW4 5160   1.581   1.488   2.354
 1283SOL     OW 5161   1.339   1.641   2.251
 1283SOL    HW2 5162   1.422   1.600   2.275
 1283SOL    HW3 5163   1.273   1.590   2.298
 1283SOL    MW4 5164   1.341   1.629   2.261
 1284SOL     OW 5165   1.312   1.899   2.356
 1284SOL    HW2 5166   1.386   1.953   2.329
 1284SOL    HW3 5167   1.343   1.809   2.343
 1284SOL    MW4 5168   1.326   1.894   2.351
 1285SOL     OW 5169   1.528   2.061   2.261
 1285SOL    HW2 5170   1.611   2.019   2.283
 1285SOL    HW3 5171   1.528   2.065   2.166
 1285SOL    MW4 5172   1.539   2.056   2.252
 1286SOL     OW 5173   1.624   2.326   2.309
 1286SOL    HW2 5174   1.643   2.328   2.403
 1286SOL    HW3 5175   1.606   2.234   2.290
 1286SOL    MW4 5176   1.624   2.314   2.319
 1287SOL     OW 5177   1.382   2.444   2.221
 1287SOL    HW2 5178   1.451   2.403   2.274
 1287SOL    HW3 5179   1.408   2.426   2.131
 1287SOL    MW4 5180   1.395   2.436   2.216
 1288SOL     OW 5181   1.387   2.716   2.346
 1288SOL    HW2 5182   1.467   2.748   2.304
 1288SOL    HW3 5183   1.368   2.634   2.302
 1288SOL    MW4 5184   1.395   2.710   2.335
 1289SOL     OW 5185   1.619   2.811   2.231
 1289SOL    HW2 5186   1.618   2.905   2.253
 1289SOL    HW3 5187   1.612   2.809   2.135
 1289SOL    MW4 5188   1.618   2.823   2.221
 1290SOL     OW 5189   1.561   3.072   2.332
 1290SOL    HW2 5190   1.561   3.094   2.425
 1290SOL    HW3 5191   1.488   3.122   2.295
 1290SOL    MW4 5192   1.552   3.082   2.339
 1291SOL     OW 5193   1.346   3.222   2.227
 1291SOL    HW2 5194   1.277   3.164   2.259
 1291SOL    HW3 5195   1.345   3.211   2.132
 1291SOL    MW4 5196   1.337   3.213   2.219
 1292SOL     OW 5197   1.343   3.492   2.360
 1292SOL    HW2 5198   1.340   3.473   2.454
 1292SOL    HW3 5199   1.338   3.405   2.318
 1292SOL    MW4 5200   1.342   3.478   2.367
 1293SOL     OW 5201   1.577   3.597   2.261
 1293SOL    HW2 5202   1.589   3.684   2.298
 1293SOL    HW3 5203   1.497   3.564   2.301
 1293SOL    MW4 5204   1.568   3.604   2.271
 1294SOL     OW 5205   1.584   3.851   2.398
 1294SOL    HW2 5206   1.577   3.832   2.492
 1294SOL    HW3 5207   1.666   3.899   2.389
 1294SOL    MW4 5208   1.594   3.854   2.409
 1295SOL     OW 5209   1.387   4.010   2.287
 1295SOL    HW2 5210   1.459   3.960   2.325
 1295SOL    HW3 5211   1.389   3.987   2.194
 1295SOL    MW4 5212   1.397   4.001   2.279
 1296SOL     OW 5213   1.341   4.271   2.378
 1296SOL    HW2 5214   1.350   4.194   2.321
 1296SOL    HW3 5215   1.259   4.312   2.351
 1296SOL    MW4 5216   1.331   4.266   2.367
 1297SOL     OW 5217   1.579   4.366   2.263
 1297SOL    HW2 5218   1.502   4.342   2.313
 1297SOL    HW3 5219   1.573   4.461   2.252
 1297SOL    MW4 5220   1.568   4.375   2.268
 1298SOL     OW 5221   2.016   0.001   2.343
 1298SOL    HW2 5222   2.102   0.027   2.309
 1298SOL    HW3 5223   2.011  -0.093   2.325
 1298SOL    MW4 5224   2.027  -0.008   2.336
 1299SOL     OW 5225   1.785   0.133   2.234
 1299SOL    HW2 5226   1.772   0.214   2.283
 1299SOL    HW3 5227   1.856   0.088   2.279
 1299SOL    MW4 5228   1.792   0.138   2.246
 1300SOL     OW 5229   1.780   0.373   2.342
 1300SOL    HW2 5230   1.781   0.378   2.438
 1300SOL    HW3 5231   1.869   0.395   2.316
 1300SOL    MW4 5232   1.791   0.376   2.351
 1301SOL     OW 5233   2.030   0.456   2.256
 1301SOL    HW2 5234   2.017   0.542   2.296
 1301SOL    HW3 5235   2.016   0.469   2.163
 1301SOL    MW4 5236   2.027   0.469   2.249
 1302SOL     OW 5237   1.985   0.714   2.365
 1302SOL    HW2 5238   2.059   0.767   2.337
 1302SOL    HW3 5239   1.909   0.757   2.326
 1302SOL    MW4 5240   1.985   0.727   2.356
 1303SOL     OW 5241   1.781   0.854   2.252
 1303SOL    HW2 5242   1.776   0.944   2.286
 1303SOL    HW3 5243   1.790   0.865   2.157
 1303SOL    MW4 5244   1.782   0.868   2.244
 1304SOL     OW 5245   1.801   1.102   2.379
 1304SOL    HW2 5246   1.866   1.164   2.346
 1304SOL    HW3 5247   1.717   1.139   2.354
 1304SOL    MW4 5248   1.798   1.115   2.372
 1305SOL     OW 5249   1.964   1.279   2.261
 1305SOL    HW2 5250   1.980   1.372   2.280
 1305SOL    HW3 5251   1.988   1.269   2.169
 1305SOL    MW4 5252   1.970   1.290   2.252
 1306SOL     OW 5253   2.033   1.545   2.321
 1306SOL    HW2 5254   2.036   1.535   2.416
 1306SOL    HW3 5255   1.944   1.577   2.303
 1306SOL    MW4 5256   2.021   1.548   2.331
 1307SOL     OW 5257   1.773   1.647   2.273
 1307SOL    HW2 5258   1.779   1.737   2.306
 1307SOL    HW3 5259   1.782   1.656   2.178
 1307SOL    MW4 5260   1.775   1.660   2.265
 1308SOL     OW 5261   1.756   1.922   2.352
 1308SOL    HW2 5262   1.758   1.914   2.448
 1308SOL    HW3 5263   1.827   1.982   2.331
 1308SOL    MW4 5264   1.766   1.929   2.362
 1309SOL     OW 5265   1.979   2.086   2.256
 1309SOL    HW2 5266   2.052   2.055   2.310
 1309SOL    HW3 5267   2.008   2.070   2.166
 1309SOL    MW4 5268   1.993   2.079   2.251
 1310SOL     OW 5269   2.035   2.326   2.370
 1310SOL    HW2 5270   2.119   2.353   2.333
 1310SOL    HW3 5271   2.018   2.240   2.332
 1310SOL    MW4 5272   2.044   2.318   2.360
 1311SOL     OW 5273   1.862   2.458   2.198
 1311SOL    HW2 5274   1.918   2.413   2.261
 1311SOL    HW3 5275   1.773   2.432   2.222
 1311SOL    MW4 5276   1.858   2.448   2.210
 1312SOL     OW 5277   1.830   2.688   2.350
 1312SOL    HW2 5278   1.849   2.605   2.306
 1312SOL    HW3 5279   1.758   2.726   2.300
 1312SOL    MW4 5280   1.823   2.682   2.338
 1313SOL     OW 5281   2.053   2.835   2.306
 1313SOL    HW2 5282   2.141   2.801   2.322
 1313SOL    HW3 5283   1.995   2.765   2.334
 1313SOL    MW4 5284   2.057   2.822   2.312
 1314SOL     OW 5285   2.030   3.111   2.375
 1314SOL    HW2 5286   2.109   3.155   2.346
 1314SOL    HW3 5287   2.039   3.021   2.344
 1314SOL    MW4 5288   2.041   3.105   2.367
 1315SOL     OW 5289   1.799   3.213   2.254
 1315SOL    HW2 5290   1.867   3.184   2.314
 1315SOL    HW3 5291   1.721   3.165   2.280
 1315SOL    MW4 5292   1.798   3.203   2.265
 1316SOL     OW 5293   1.787   3.456   2.384
 1316SOL    HW2 5294   1.781   3.381   2.325
 1316SOL    HW3 5295   1.705   3.503   2.372
 1316SOL    MW4 5296   1.775   3.452   2.375
 1317SOL     OW 5297   2.016   3.606   2.299
 1317SOL    HW2 5298   1.939   3.565   2.337
 1317SOL    HW3 5299   2.000   3.604   2.204
 1317SOL    MW4 5300   2.004   3.601   2.291
 1318SOL     OW 5301   2.035   3.871   2.375
 1318SOL    HW2 5302   2.053   3.874   2.469
 1318SOL    HW3 5303   2.023   3.778   2.356
 1318SOL    MW4 5304   2.036   3.859   2.385
 1319SOL     OW 5305   1.798   3.990   2.298
 1319SOL    HW2 5306   1.888   3.960   2.310
 1319SOL    HW3 5307   1.791   4.008   2.205
 1319SOL    MW4 5308   1.809   3.989   2.287
 1320SOL     OW 5309   1.785   4.247   2.408
 1320SOL    HW2 5310   1.791   4.160   2.369
 1320SOL    HW3 5311   1.722   4.293   2.353
 1320SOL    MW4 5312   1.778   4.242   2.396
 1321SOL     OW 5313   2.004   4.383   2.310
 1321SOL    HW2 5314   1.924   4.357   2.355
 1321SOL    HW3 5315   1.995   4.345   2.222
 1321SOL    MW4 5316   1.992   4.374   2.304
 1322SOL     OW 5317   2.477   4.627   2.412
 1322SOL    HW2 5318   2.552   4.678   2.382
 1322SOL    HW3 5319   2.486   4.543   2.367
 1322SOL    MW4 5320   2.488   4.623   2.402
 1323SOL     OW 5321   2.270   0.105   2.272
 1323SOL    HW2 5322   2.277   0.191   2.313
 1323SOL    HW3 5323   2.326   0.048   2.325
 1323SOL    MW4 5324   2.278   0.109   2.285
 1324SOL     OW 5325   2.268   0.351   2.390
 1324SOL    HW2 5326   2.333   0.409   2.349
 1324SOL    HW3 5327   2.185   0.374   2.348
 1324SOL    MW4 5328   2.266   0.362   2.379
 1325SOL     OW 5329   2.459   0.509   2.281
 1325SOL    HW2 5330   2.534   0.454   2.302
 1325SOL    HW3 5331   2.447   0.498   2.186
 1325SOL    MW4 5332   2.468   0.500   2.271
 1326SOL     OW 5333   2.417   0.767   2.373
 1326SOL    HW2 5334   2.492   0.812   2.334
 1326SOL    HW3 5335   2.424   0.677   2.342
 1326SOL    MW4 5336   2.428   0.761   2.364
 1327SOL     OW 5337   2.186   0.884   2.270
 1327SOL    HW2 5338   2.182   0.977   2.292
 1327SOL    HW3 5339   2.267   0.853   2.311
 1327SOL    MW4 5340   2.196   0.892   2.279
 1328SOL     OW 5341   2.173   1.149   2.361
 1328SOL    HW2 5342   2.234   1.206   2.314
 1328SOL    HW3 5343   2.089   1.193   2.355
 1328SOL    MW4 5344   2.170   1.163   2.354
 1329SOL     OW 5345   2.427   1.290   2.297
 1329SOL    HW2 5346   2.503   1.248   2.337
 1329SOL    HW3 5347   2.427   1.379   2.332
 1329SOL    MW4 5348   2.437   1.296   2.307
 1330SOL     OW 5349   2.435   1.585   2.365
 1330SOL    HW2 5350   2.444   1.572   2.459
 1330SOL    HW3 5351   2.521   1.617   2.336
 1330SOL    MW4 5352   2.448   1.588   2.373
 1331SOL     OW 5353   2.228   1.720   2.245
 1331SOL    HW2 5354   2.303   1.668   2.277
 1331SOL    HW3 5355   2.153   1.662   2.258
 1331SOL    MW4 5356   2.228   1.705   2.251
 1332SOL     OW 5357   2.191   1.969   2.379
 1332SOL    HW2 5358   2.265   2.024   2.352
 1332SOL    HW3 5359   2.205   1.886   2.335
 1332SOL    MW4 5360   2.202   1.965   2.370
 1333SOL     OW 5361   2.423   2.047   2.245
 1333SOL    HW2 5362   2.495   1.988   2.269
 1333SOL    HW3 5363   2.438   2.069   2.153
 1333SOL    MW4 5364   2.434   2.042   2.236
 1334SOL     OW 5365   2.483   2.269   2.386
 1334SOL    HW2 5366   2.564   2.307   2.353
 1334SOL    HW3 5367   2.479   2.181   2.348
 1334SOL    MW4 5368   2.493   2.262   2.377
 1335SOL     OW 5369   2.280   2.421   2.268
 1335SOL    HW2 5370   2.295   2.508   2.305
 1335SOL    HW3 5371   2.351   2.368   2.303
 1335SOL    MW4 5372   2.291   2.425   2.278
 1336SOL     OW 5373   2.280   2.684   2.367
 1336SOL    HW2 5374   2.264   2.697   2.460
 1336SOL    HW3 5375   2.354   2.742   2.348
 1336SOL    MW4 5376   2.288   2.694   2.377
 1337SOL     OW 5377   2.496   2.838   2.251
 1337SOL    HW2 5378   2.575   2.819   2.301
 1337SOL    HW3 5379   2.524   2.836   2.159
 1337SOL    MW4 5380   2.510   2.835   2.245
 1338SOL     OW 5381   2.460   3.076   2.382
 1338SOL    HW2 5382   2.543   3.105   2.344
 1338SOL    HW3 5383   2.438   2.996   2.335
 1338SOL    MW4 5384   2.468   3.069   2.370
 1339SOL     OW 5385   2.252   3.253   2.294
 1339SOL    HW2 5386   2.261   3.337   2.340
 1339SOL    HW3 5387   2.313   3.195   2.338
 1339SOL    MW4 5388   2.261   3.257   2.306
 1340SOL     OW 5389   2.259   3.532   2.385
 1340SOL    HW2 5390   2.255   3.523   2.481
 1340SOL    HW3 5391   2.171   3.562   2.361
 1340SOL    MW4 5392   2.247   3.535   2.395
 1341SOL     OW 5393   2.480   3.646   2.263
 1341SOL    HW2 5394   2.496   3.727   2.310
 1341SOL    HW3 5395   2.401   3.609   2.303
 1341SOL    MW4 5396   2.472   3.652   2.275
 1342SOL     OW 5397   2.479   3.885   2.403
 1342SOL    HW2 5398   2.470   3.896   2.498
 1342SOL    HW3 5399   2.403   3.930   2.366
 1342SOL    MW4 5400   2.468   3.892   2.411
 1343SOL     OW 5401   2.254   3.998   2.285
 1343SOL    HW2 5402   2.250   4.088   2.319
 1343SOL    HW3 5403   2.175   3.956   2.317
 1343SOL    MW4 5404   2.243   4.005   2.294
 1344SOL     OW 5405   2.231   4.257   2.411
 1344SOL    HW2 5406   2.226   4.247   2.506
 1344SOL    HW3 5407   2.155   4.310   2.388
 1344SOL    MW4 5408   2.220   4.263   2.421
 1345SOL     OW 5409   2.463   4.383   2.283
 1345SOL    HW2 5410   2.536   4.346   2.332
 1345SOL    HW3 5411   2.385   4.352   2.328
 1345SOL    MW4 5412   2.463   4.374   2.295
 1346SOL     OW 5413   2.922   4.647   2.382
 1346SOL    HW2 5414   3.003   4.684   2.346
 1346SOL    HW3 5415   2.916   4.560   2.342
 1346SOL    MW4 5416   2.932   4.641   2.372
 1347SOL     OW 5417   2.677   0.077   2.266
 1347SOL    HW2 5418   2.682   0.170   2.289
 1347SOL    HW3 5419   2.760   0.040   2.298
 1347SOL    MW4 5420   2.689   0.084   2.273
 1348SOL     OW 5421   2.664   0.331   2.350
 1348SOL    HW2 5422   2.667   0.348   2.444
 1348SOL    HW3 5423   2.733   0.387   2.313
 1348SOL    MW4 5424   2.674   0.341   2.357
 1349SOL     OW 5425   2.862   0.502   2.272
 1349SOL    HW2 5426   2.872   0.591   2.306
 1349SOL    HW3 5427   2.866   0.511   2.177
 1349SOL    MW4 5428   2.864   0.515   2.264
 1350SOL     OW 5429   2.874   0.748   2.385
 1350SOL    HW2 5430   2.892   0.767   2.477
 1350SOL    HW3 5431   2.794   0.798   2.366
 1350SOL    MW4 5432   2.866   0.757   2.395
 1351SOL     OW 5433   2.637   0.877   2.280
 1351SOL    HW2 5434   2.656   0.967   2.307
 1351SOL    HW3 5435   2.656   0.875   2.187
 1351SOL    MW4 5436   2.642   0.889   2.272
 1352SOL     OW 5437   2.654   1.161   2.367
 1352SOL    HW2 5438   2.676   1.152   2.460
 1352SOL    HW3 5439   2.726   1.212   2.330
 1352SOL    MW4 5440   2.667   1.166   2.374
 1353SOL     OW 5441   2.890   1.306   2.302
 1353SOL    HW2 5442   2.955   1.243   2.332
 1353SOL    HW3 5443   2.885   1.293   2.208
 1353SOL    MW4 5444   2.898   1.296   2.294
 1354SOL     OW 5445   2.938   1.550   2.383
 1354SOL    HW2 5446   2.926   1.552   2.478
 1354SOL    HW3 5447   2.910   1.462   2.357
 1354SOL    MW4 5448   2.933   1.539   2.392
 1355SOL     OW 5449   2.713   1.669   2.294
 1355SOL    HW2 5450   2.786   1.626   2.340
 1355SOL    HW3 5451   2.736   1.663   2.202
 1355SOL    MW4 5452   2.726   1.663   2.288
 1356SOL     OW 5453   2.659   1.934   2.357
 1356SOL    HW2 5454   2.669   1.972   2.444
 1356SOL    HW3 5455   2.688   1.844   2.366
 1356SOL    MW4 5456   2.664   1.927   2.369
 1357SOL     OW 5457   2.882   2.047   2.260
 1357SOL    HW2 5458   2.951   2.003   2.310
 1357SOL    HW3 5459   2.803   1.995   2.277
 1357SOL    MW4 5460   2.880   2.034   2.269
 1358SOL     OW 5461   2.940   2.301   2.374
 1358SOL    HW2 5462   2.937   2.283   2.468
 1358SOL    HW3 5463   2.914   2.219   2.333
 1358SOL    MW4 5464   2.937   2.288   2.381
 1359SOL     OW 5465   2.717   2.430   2.282
 1359SOL    HW2 5466   2.797   2.387   2.313
 1359SOL    HW3 5467   2.734   2.448   2.190
 1359SOL    MW4 5468   2.730   2.427   2.274
 1360SOL     OW 5469   2.710   2.700   2.369
 1360SOL    HW2 5470   2.797   2.725   2.337
 1360SOL    HW3 5471   2.703   2.607   2.347
 1360SOL    MW4 5472   2.721   2.691   2.362
 1361SOL     OW 5473   2.937   2.822   2.285
 1361SOL    HW2 5474   2.943   2.913   2.315
 1361SOL    HW3 5475   2.963   2.825   2.193
 1361SOL    MW4 5476   2.941   2.835   2.277
 1362SOL     OW 5477   2.921   3.091   2.389
 1362SOL    HW2 5478   3.005   3.128   2.363
 1362SOL    HW3 5479   2.856   3.147   2.348
 1362SOL    MW4 5480   2.924   3.103   2.380
 1363SOL     OW 5481   2.709   3.214   2.270
 1363SOL    HW2 5482   2.690   3.296   2.316
 1363SOL    HW3 5483   2.709   3.238   2.177
 1363SOL    MW4 5484   2.706   3.228   2.264
 1364SOL     OW 5485   2.679   3.485   2.347
 1364SOL    HW2 5486   2.759   3.538   2.342
 1364SOL    HW3 5487   2.611   3.539   2.307
 1364SOL    MW4 5488   2.681   3.499   2.341
 1365SOL     OW 5489   2.945   3.614   2.298
 1365SOL    HW2 5490   3.014   3.555   2.328
 1365SOL    HW3 5491   2.954   3.691   2.354
 1365SOL    MW4 5492   2.955   3.617   2.310
 1366SOL     OW 5493   2.941   3.867   2.427
 1366SOL    HW2 5494   2.951   3.894   2.518
 1366SOL    HW3 5495   2.865   3.916   2.396
 1366SOL    MW4 5496   2.932   3.877   2.435
 1367SOL     OW 5497   2.713   4.005   2.319
 1367SOL    HW2 5498   2.636   3.956   2.348
 1367SOL    HW3 5499   2.699   4.018   2.225
 1367SOL    MW4 5500   2.701   4.001   2.311
 1368SOL     OW 5501   2.694   4.262   2.413
 1368SOL    HW2 5502   2.691   4.258   2.509
 1368SOL    HW3 5503   2.688   4.171   2.385
 1368SOL    MW4 5504   2.693   4.250   2.422
 1369SOL     OW 5505   2.909   4.392   2.295
 1369SOL    HW2 5506   2.984   4.341   2.324
 1369SOL    HW3 5507   2.833   4.347   2.333
 1369SOL    MW4 5508   2.909   4.379   2.304
 1370SOL     OW 5509   3.365   4.653   2.359
 1370SOL    HW2 5510   3.375   4.664   2.454
 1370SOL    HW3 5511   3.443   4.696   2.322
 1370SOL    MW4 5512   3.377   4.660   2.367
 1371SOL     OW 5513   3.141   0.107   2.264
 1371SOL    HW2 5514   3.141   0.200   2.290
 1371SOL    HW3 5515   3.217   0.070   2.308
 1371SOL    MW4 5516   3.151   0.115   2.273
 1372SOL     OW 5517   3.101   0.372   2.373
 1372SOL    HW2 5518   3.169   0.431   2.341
 1372SOL    HW3 5519   3.019   0.409   2.338
 1372SOL    MW4 5520   3.099   0.384   2.364
 1373SOL     OW 5521   3.329   0.503   2.279
 1373SOL    HW2 5522   3.407   0.455   2.307
 1373SOL    HW3 5523   3.331   0.499   2.183
 1373SOL    MW4 5524   3.340   0.496   2.270
 1374SOL     OW 5525   3.342   0.761   2.381
 1374SOL    HW2 5526   3.420   0.798   2.340
 1374SOL    HW3 5527   3.340   0.670   2.351
 1374SOL    MW4 5528   3.352   0.754   2.372
 1375SOL     OW 5529   3.105   0.871   2.301
 1375SOL    HW2 5530   3.179   0.820   2.333
 1375SOL    HW3 5531   3.028   0.818   2.323
 1375SOL    MW4 5532   3.104   0.857   2.308
 1376SOL     OW 5533   3.108   1.132   2.375
 1376SOL    HW2 5534   3.189   1.166   2.336
 1376SOL    HW3 5535   3.114   1.037   2.365
 1376SOL    MW4 5536   3.119   1.124   2.369
 1377SOL     OW 5537   3.324   1.273   2.290
 1377SOL    HW2 5538   3.397   1.218   2.319
 1377SOL    HW3 5539   3.344   1.360   2.324
 1377SOL    MW4 5540   3.336   1.277   2.298
 1378SOL     OW 5541   3.362   1.536   2.379
 1378SOL    HW2 5542   3.356   1.572   2.467
 1378SOL    HW3 5543   3.296   1.582   2.329
 1378SOL    MW4 5544   3.353   1.547   2.384
 1379SOL     OW 5545   3.139   1.664   2.251
 1379SOL    HW2 5546   3.149   1.750   2.294
 1379SOL    HW3 5547   3.063   1.625   2.295
 1379SOL    MW4 5548   3.130   1.670   2.263
 1380SOL     OW 5549   3.105   1.935   2.364
 1380SOL    HW2 5550   3.104   1.924   2.459
 1380SOL    HW3 5551   3.186   1.982   2.346
 1380SOL    MW4 5552   3.115   1.940   2.374
 1381SOL     OW 5553   3.337   2.053   2.242
 1381SOL    HW2 5554   3.418   2.016   2.277
 1381SOL    HW3 5555   3.354   2.063   2.148
 1381SOL    MW4 5556   3.350   2.049   2.234
 1382SOL     OW 5557   3.342   2.306   2.370
 1382SOL    HW2 5558   3.267   2.351   2.332
 1382SOL    HW3 5559   3.338   2.218   2.333
 1382SOL    MW4 5560   3.332   2.300   2.360
 1383SOL     OW 5561   3.138   2.446   2.237
 1383SOL    HW2 5562   3.144   2.531   2.281
 1383SOL    HW3 5563   3.069   2.399   2.284
 1383SOL    MW4 5564   3.130   2.451   2.249
 1384SOL     OW 5565   3.139   2.683   2.373
 1384SOL    HW2 5566   3.121   2.687   2.467
 1384SOL    HW3 5567   3.069   2.735   2.334
 1384SOL    MW4 5568   3.127   2.691   2.380
 1385SOL     OW 5569   3.373   2.787   2.282
 1385SOL    HW2 5570   3.381   2.880   2.304
 1385SOL    HW3 5571   3.291   2.760   2.322
 1385SOL    MW4 5572   3.363   2.796   2.290
 1386SOL     OW 5573   3.363   3.040   2.394
 1386SOL    HW2 5574   3.433   3.101   2.370
 1386SOL    HW3 5575   3.283   3.080   2.360
 1386SOL    MW4 5576   3.362   3.053   2.386
 1387SOL     OW 5577   3.146   3.200   2.279
 1387SOL    HW2 5578   3.145   3.290   2.313
 1387SOL    HW3 5579   3.152   3.211   2.184
 1387SOL    MW4 5580   3.147   3.214   2.271
 1388SOL     OW 5581   3.157   3.444   2.392
 1388SOL    HW2 5582   3.151   3.462   2.486
 1388SOL    HW3 5583   3.228   3.501   2.361
 1388SOL    MW4 5584   3.166   3.454   2.400
 1389SOL     OW 5585   3.375   3.586   2.307
 1389SOL    HW2 5586   3.454   3.534   2.323
 1389SOL    HW3 5587   3.359   3.576   2.213
 1389SOL    MW4 5588   3.383   3.577   2.297
 1390SOL     OW 5589   3.399   3.838   2.397
 1390SOL    HW2 5590   3.475   3.871   2.350
 1390SOL    HW3 5591   3.401   3.743   2.382
 1390SOL    MW4 5592   3.409   3.830   2.389
 1391SOL     OW 5593   3.162   3.952   2.286
 1391SOL    HW2 5594   3.236   3.905   2.324
 1391SOL    HW3 5595   3.086   3.916   2.330
 1391SOL    MW4 5596   3.162   3.941   2.297
 1392SOL     OW 5597   3.138   4.226   2.372
 1392SOL    HW2 5598   3.212   4.281   2.349
 1392SOL    HW3 5599   3.167   4.137   2.354
 1392SOL    MW4 5600   3.151   4.221   2.367
 1393SOL     OW 5601   3.324   4.390   2.267
 1393SOL    HW2 5602   3.338   4.480   2.295
 1393SOL    HW3 5603   3.318   4.395   2.172
 1393SOL    MW4 5604   3.325   4.402   2.258
 1394SOL     OW 5605   3.798   4.640   2.381
 1394SOL    HW2 5606   3.835   4.635   2.469
 1394SOL    HW3 5607   3.863   4.689   2.331
 1394SOL    MW4 5608   3.811   4.646   2.386
 1395SOL     OW 5609   3.600   0.134   2.282
 1395SOL    HW2 5610   3.589   0.220   2.322
 1395SOL    HW3 5611   3.650   0.084   2.346
 1395SOL    MW4 5612   3.605   0.139   2.295
 1396SOL     OW 5613   3.555   0.372   2.390
 1396SOL    HW2 5614   3.561   0.384   2.485
 1396SOL    HW3 5615   3.637   0.410   2.356
 1396SOL    MW4 5616   3.567   0.379   2.398
 1397SOL     OW 5617   3.777   0.493   2.274
 1397SOL    HW2 5618   3.780   0.584   2.301
 1397SOL    HW3 5619   3.784   0.496   2.178
 1397SOL    MW4 5620   3.779   0.505   2.265
 1398SOL     OW 5621   3.813   0.755   2.342
 1398SOL    HW2 5622   3.814   0.770   2.436
 1398SOL    HW3 5623   3.892   0.797   2.309
 1398SOL    MW4 5624   3.824   0.762   2.350
 1399SOL     OW 5625   3.572   0.870   2.251
 1399SOL    HW2 5626   3.645   0.817   2.282
 1399SOL    HW3 5627   3.589   0.881   2.157
 1399SOL    MW4 5628   3.584   0.864   2.243
 1400SOL     OW 5629   3.586   1.151   2.365
 1400SOL    HW2 5630   3.580   1.145   2.461
 1400SOL    HW3 5631   3.608   1.063   2.336
 1400SOL    MW4 5632   3.588   1.139   2.374
 1401SOL     OW 5633   3.788   1.313   2.287
 1401SOL    HW2 5634   3.782   1.401   2.325
 1401SOL    HW3 5635   3.717   1.264   2.329
 1401SOL    MW4 5636   3.778   1.318   2.298
 1402SOL     OW 5637   3.815   1.582   2.392
 1402SOL    HW2 5638   3.835   1.599   2.484
 1402SOL    HW3 5639   3.741   1.639   2.372
 1402SOL    MW4 5640   3.808   1.592   2.401
 1403SOL     OW 5641   3.568   1.716   2.286
 1403SOL    HW2 5642   3.519   1.637   2.308
 1403SOL    HW3 5643   3.574   1.714   2.190
 1403SOL    MW4 5644   3.562   1.705   2.276
 1404SOL     OW 5645   3.569   1.982   2.380
 1404SOL    HW2 5646   3.651   2.011   2.342
 1404SOL    HW3 5647   3.563   1.890   2.356
 1404SOL    MW4 5648   3.579   1.974   2.372
 1405SOL     OW 5649   3.822   2.074   2.261
 1405SOL    HW2 5650   3.891   2.013   2.288
 1405SOL    HW3 5651   3.816   2.064   2.166
 1405SOL    MW4 5652   3.830   2.065   2.252
 1406SOL     OW 5653   3.862   2.310   2.379
 1406SOL    HW2 5654   3.779   2.351   2.350
 1406SOL    HW3 5655   3.858   2.221   2.344
 1406SOL    MW4 5656   3.850   2.304   2.370
 1407SOL     OW 5657   3.616   2.408   2.296
 1407SOL    HW2 5658   3.523   2.393   2.310
 1407SOL    HW3 5659   3.627   2.407   2.201
 1407SOL    MW4 5660   3.605   2.406   2.285
 1408SOL     OW 5661   3.580   2.669   2.424
 1408SOL    HW2 5662   3.600   2.587   2.379
 1408SOL    HW3 5663   3.506   2.705   2.374
 1408SOL    MW4 5664   3.573   2.663   2.412
 1409SOL     OW 5665   3.807   2.775   2.294
 1409SOL    HW2 5666   3.810   2.870   2.278
 1409SOL    HW3 5667   3.716   2.759   2.322
 1409SOL    MW4 5668   3.795   2.786   2.296
 1410SOL     OW 5669   3.824   3.056   2.338
 1410SOL    HW2 5670   3.815   3.068   2.433
 1410SOL    HW3 5671   3.894   3.117   2.313
 1410SOL    MW4 5672   3.832   3.066   2.347
 1411SOL     OW 5673   3.571   3.182   2.302
 1411SOL    HW2 5674   3.583   3.273   2.331
 1411SOL    HW3 5675   3.654   3.139   2.321
 1411SOL    MW4 5676   3.583   3.188   2.308
 1412SOL     OW 5677   3.610   3.451   2.346
 1412SOL    HW2 5678   3.608   3.471   2.440
 1412SOL    HW3 5679   3.677   3.509   2.310
 1412SOL    MW4 5680   3.618   3.461   2.354
 1413SOL     OW 5681   3.779   3.634   2.257
 1413SOL    HW2 5682   3.786   3.727   2.282
 1413SOL    HW3 5683   3.773   3.635   2.162
 1413SOL    MW4 5684   3.779   3.647   2.248
 1414SOL     OW 5685   3.823   3.894   2.368
 1414SOL    HW2 5686   3.806   3.901   2.462
 1414SOL    HW3 5687   3.902   3.946   2.354
 1414SOL    MW4 5688   3.831   3.902   2.378
 1415SOL     OW 5689   3.604   4.016   2.255
 1415SOL    HW2 5690   3.583   4.100   2.296
 1415SOL    HW3 5691   3.679   3.984   2.305
 1415SOL    MW4 5692   3.611   4.023   2.267
 1416SOL     OW 5693   3.557   4.267   2.345
 1416SOL    HW2 5694   3.622   4.312   2.292
 1416SOL    HW3 5695   3.473   4.303   2.317
 1416SOL    MW4 5696   3.555   4.277   2.335
 1417SOL     OW 5697   3.786   4.398   2.243
 1417SOL    HW2 5698   3.859   4.343   2.272
 1417SOL    HW3 5699   3.786   4.472   2.303
 1417SOL    MW4 5700   3.795   4.400   2.255
 1418SOL     OW 5701   4.228   0.002   2.381
 1418SOL    HW2 5702   4.245  -0.013   2.474
 1418SOL    HW3 5703   4.294   0.067   2.355
 1418SOL    MW4 5704   4.239   0.009   2.390
 1419SOL     OW 5705   4.014   0.127   2.235
 1419SOL    HW2 5706   4.010   0.214   2.275
 1419SOL    HW3 5707   4.089   0.085   2.277
 1419SOL    MW4 5708   4.023   0.133   2.246
 1420SOL     OW 5709   4.027   0.371   2.353
 1420SOL    HW2 5710   4.088   0.439   2.323
 1420SOL    HW3 5711   3.941   0.403   2.326
 1420SOL    MW4 5712   4.024   0.384   2.346
 1421SOL     OW 5713   4.217   0.539   2.267
 1421SOL    HW2 5714   4.233   0.629   2.295
 1421SOL    HW3 5715   4.290   0.489   2.302
 1421SOL    MW4 5716   4.229   0.545   2.275
 1422SOL     OW 5717   4.269   0.787   2.389
 1422SOL    HW2 5718   4.197   0.838   2.351
 1422SOL    HW3 5719   4.348   0.829   2.355
 1422SOL    MW4 5720   4.270   0.799   2.380
 1423SOL     OW 5721   4.031   0.907   2.261
 1423SOL    HW2 5722   4.020   0.997   2.294
 1423SOL    HW3 5723   4.027   0.917   2.166
 1423SOL    MW4 5724   4.029   0.920   2.253
 1424SOL     OW 5725   4.035   1.174   2.336
 1424SOL    HW2 5726   4.049   1.167   2.431
 1424SOL    HW3 5727   3.973   1.245   2.326
 1424SOL    MW4 5728   4.029   1.182   2.348
 1425SOL     OW 5729   4.261   1.306   2.234
 1425SOL    HW2 5730   4.193   1.244   2.261
 1425SOL    HW3 5731   4.343   1.264   2.259
 1425SOL    MW4 5732   4.263   1.292   2.241
 1426SOL     OW 5733   4.247   1.552   2.371
 1426SOL    HW2 5734   4.244   1.479   2.309
 1426SOL    HW3 5735   4.324   1.602   2.345
 1426SOL    MW4 5736   4.257   1.549   2.359
 1427SOL     OW 5737   4.027   1.689   2.258
 1427SOL    HW2 5738   4.094   1.631   2.293
 1427SOL    HW3 5739   3.947   1.664   2.305
 1427SOL    MW4 5740   4.025   1.678   2.269
 1428SOL     OW 5741   4.047   1.934   2.357
 1428SOL    HW2 5742   4.043   1.916   2.451
 1428SOL    HW3 5743   4.047   1.848   2.316
 1428SOL    MW4 5744   4.046   1.920   2.364
 1429SOL     OW 5745   4.284   2.080   2.264
 1429SOL    HW2 5746   4.291   2.168   2.299
 1429SOL    HW3 5747   4.214   2.039   2.314
 1429SOL    MW4 5748   4.276   2.086   2.275
 1430SOL     OW 5749   4.294   2.347   2.366
 1430SOL    HW2 5750   4.216   2.398   2.342
 1430SOL    HW3 5751   4.366   2.390   2.320
 1430SOL    MW4 5752   4.293   2.360   2.357
 1431SOL     OW 5753   4.069   2.488   2.250
 1431SOL    HW2 5754   4.066   2.571   2.297
 1431SOL    HW3 5755   3.998   2.436   2.289
 1431SOL    MW4 5756   4.059   2.492   2.261
 1432SOL     OW 5757   4.045   2.711   2.417
 1432SOL    HW2 5758   4.039   2.692   2.510
 1432SOL    HW3 5759   3.955   2.730   2.390
 1432SOL    MW4 5760   4.032   2.711   2.426
 1433SOL     OW 5761   4.256   2.852   2.290
 1433SOL    HW2 5762   4.180   2.806   2.326
 1433SOL    HW3 5763   4.331   2.812   2.334
 1433SOL    MW4 5764   4.256   2.841   2.300
 1434SOL     OW 5765   4.264   3.112   2.380
 1434SOL    HW2 5766   4.262   3.023   2.347
 1434SOL    HW3 5767   4.350   3.146   2.354
 1434SOL    MW4 5768   4.275   3.105   2.372
 1435SOL     OW 5769   4.036   3.211   2.245
 1435SOL    HW2 5770   4.024   3.292   2.294
 1435SOL    HW3 5771   4.105   3.164   2.292
 1435SOL    MW4 5772   4.044   3.216   2.257
 1436SOL     OW 5773   4.005   3.490   2.337
 1436SOL    HW2 5774   4.084   3.537   2.311
 1436SOL    HW3 5775   3.933   3.540   2.299
 1436SOL    MW4 5776   4.006   3.503   2.329
 1437SOL     OW 5777   4.270   3.595   2.282
 1437SOL    HW2 5778   4.284   3.684   2.314
 1437SOL    HW3 5779   4.290   3.600   2.189
 1437SOL    MW4 5780   4.275   3.607   2.274
 1438SOL     OW 5781   4.273   3.865   2.379
 1438SOL    HW2 5782   4.268   3.868   2.475
 1438SOL    HW3 5783   4.352   3.913   2.357
 1438SOL    MW4 5784   4.282   3.871   2.389
 1439SOL     OW 5785   4.052   4.019   2.294
 1439SOL    HW2 5786   4.120   3.958   2.323
 1439SOL    HW3 5787   4.059   4.020   2.199
 1439SOL    MW4 5788   4.062   4.011   2.286
 1440SOL     OW 5789   4.036   4.292   2.326
 1440SOL    HW2 5790   4.113   4.333   2.286
 1440SOL    HW3 5791   4.051   4.198   2.315
 1440SOL    MW4 5792   4.048   4.285   2.319
 1441SOL     OW 5793   4.285   4.430   2.255
 1441SOL    HW2 5794   4.267   4.513   2.299
 1441SOL    HW3 5795   4.351   4.387   2.310
 1441SOL    MW4 5796   4.292   4.435   2.268
 1442SOL     OW 5797   0.173   4.637   2.636
 1442SOL    HW2 5798   0.173   4.547   2.668
 1442SOL    HW3 5799   0.111   4.683   2.692
 1442SOL    MW4 5800   0.165   4.631   2.647
 1443SOL     OW 5801   4.467   0.124   2.752
 1443SOL    HW2 5802   4.462   0.139   2.847
 1443SOL    HW3 5803   4.474   0.211   2.714
 1443SOL    MW4 5804   4.467   0.137   2.760
 1444SOL     OW 5805   4.483   0.353   2.632
 1444SOL    HW2 5806   4.548   0.422   2.647
 1444SOL    HW3 5807   4.456   0.366   2.541
 1444SOL    MW4 5808   4.488   0.364   2.622
 1445SOL     OW 5809   0.190   0.528   2.702
 1445SOL    HW2 5810   0.177   0.507   2.794
 1445SOL    HW3 5811   0.246   0.458   2.669
 1445SOL    MW4 5812   0.196   0.516   2.709
 1446SOL     OW 5813   0.209   0.769   2.576
 1446SOL    HW2 5814   0.281   0.814   2.621
 1446SOL    HW3 5815   0.206   0.682   2.617
 1446SOL    MW4 5816   0.218   0.763   2.588
 1447SOL     OW 5817   0.004   0.911   2.700
 1447SOL    HW2 5818  -0.085   0.878   2.684
 1447SOL    HW3 5819   0.059   0.858   2.643
 1447SOL    MW4 5820  -0.001   0.899   2.690
 1448SOL     OW 5821   4.470   1.176   2.619
 1448SOL    HW2 5822   4.542   1.222   2.663
 1448SOL    HW3 5823   4.483   1.084   2.642
 1448SOL    MW4 5824   4.482   1.170   2.628
 1449SOL     OW 5825   0.195   1.267   2.750
 1449SOL    HW2 5826   0.277   1.224   2.729
 1449SOL    HW3 5827   0.206   1.356   2.717
 1449SOL    MW4 5828   0.207   1.273   2.743
 1450SOL     OW 5829   0.229   1.527   2.648
 1450SOL    HW2 5830   0.311   1.571   2.667
 1450SOL    HW3 5831   0.162   1.579   2.693
 1450SOL    MW4 5832   0.231   1.539   2.657
 1451SOL     OW 5833   4.489   1.650   2.765
 1451SOL    HW2 5834   4.490   1.652   2.860
 1451SOL    HW3 5835   4.480   1.742   2.738
 1451SOL    MW4 5836   4.488   1.662   2.774
 1452SOL     OW 5837   4.458   1.892   2.669
 1452SOL    HW2 5838   4.533   1.939   2.707
 1452SOL    HW3 5839   4.471   1.899   2.575
 1452SOL    MW4 5840   4.469   1.899   2.662
 1453SOL     OW 5841   0.199   2.029   2.769
 1453SOL    HW2 5842   0.284   1.992   2.744
 1453SOL    HW3 5843   0.197   2.115   2.728
 1453SOL    MW4 5844   0.210   2.035   2.760
 1454SOL     OW 5845   0.235   2.294   2.645
 1454SOL    HW2 5846   0.303   2.346   2.688
 1454SOL    HW3 5847   0.153   2.326   2.684
 1454SOL    MW4 5848   0.233   2.305   2.656
 1455SOL     OW 5849   4.481   2.427   2.746
 1455SOL    HW2 5850   4.488   2.421   2.841
 1455SOL    HW3 5851   4.412   2.366   2.723
 1455SOL    MW4 5852   4.473   2.418   2.755
 1456SOL     OW 5853   4.473   2.700   2.662
 1456SOL    HW2 5854   4.404   2.750   2.707
 1456SOL    HW3 5855   4.456   2.609   2.686
 1456SOL    MW4 5856   4.462   2.695   2.671
 1457SOL     OW 5857   0.213   2.824   2.748
 1457SOL    HW2 5858   0.203   2.916   2.722
 1457SOL    HW3 5859   0.132   2.782   2.720
 1457SOL    MW4 5860   0.201   2.831   2.740
 1458SOL     OW 5861   0.185   3.087   2.670
 1458SOL    HW2 5862   0.270   3.116   2.705
 1458SOL    HW3 5863   0.197   3.088   2.575
 1458SOL    MW4 5864   0.198   3.091   2.663
 1459SOL     OW 5865   4.480   3.226   2.798
 1459SOL    HW2 5866   4.403   3.190   2.754
 1459SOL    HW3 5867   4.555   3.183   2.756
 1459SOL    MW4 5868   4.480   3.216   2.786
 1460SOL     OW 5869   4.477   3.464   2.656
 1460SOL    HW2 5870   4.546   3.519   2.692
 1460SOL    HW3 5871   4.480   3.384   2.708
 1460SOL    MW4 5872   4.486   3.460   2.667
 1461SOL     OW 5873   0.219   3.580   2.755
 1461SOL    HW2 5874   0.244   3.580   2.847
 1461SOL    HW3 5875   0.292   3.538   2.710
 1461SOL    MW4 5876   0.232   3.575   2.761
 1462SOL     OW 5877   0.204   3.849   2.657
 1462SOL    HW2 5878   0.211   3.755   2.673
 1462SOL    HW3 5879   0.226   3.860   2.564
 1462SOL    MW4 5880   0.208   3.838   2.647
 1463SOL     OW 5881   4.468   3.974   2.744
 1463SOL    HW2 5882   4.485   4.062   2.710
 1463SOL    HW3 5883   4.539   3.920   2.708
 1463SOL    MW4 5884   4.479   3.978   2.735
 1464SOL     OW 5885   4.482   4.245   2.694
 1464SOL    HW2 5886   4.398   4.277   2.727
 1464SOL    HW3 5887   4.545   4.312   2.722
 1464SOL    MW4 5888   4.479   4.258   2.702
 1465SOL     OW 5889   0.219   4.401   2.745
 1465SOL    HW2 5890   0.239   4.399   2.838
 1465SOL    HW3 5891   0.289   4.351   2.703
 1465SOL    MW4 5892   0.231   4.394   2.751
 1466SOL     OW 5893   0.627   4.619   2.609
 1466SOL    HW2 5894   0.709   4.650   2.648
 1466SOL    HW3 5895   0.559   4.670   2.653
 1466SOL    MW4 5896   0.629   4.630   2.620
 1467SOL     OW 5897   0.431   0.110   2.727
 1467SOL    HW2 5898   0.439   0.110   2.823
 1467SOL    HW3 5899   0.356   0.052   2.710
 1467SOL    MW4 5900   0.422   0.102   2.738
 1468SOL     OW 5901   0.392   0.376   2.601
 1468SOL    HW2 5902   0.465   0.424   2.641
 1468SOL    HW3 5903   0.391   0.292   2.647
 1468SOL    MW4 5904   0.401   0.371   2.613
 1469SOL     OW 5905   0.626   0.484   2.734
 1469SOL    HW2 5906   0.631   0.486   2.830
 1469SOL    HW3 5907   0.710   0.446   2.707
 1469SOL    MW4 5908   0.638   0.480   2.743
 1470SOL     OW 5909   0.619   0.725   2.586
 1470SOL    HW2 5910   0.694   0.760   2.633
 1470SOL    HW3 5911   0.594   0.647   2.636
 1470SOL    MW4 5912   0.626   0.719   2.599
 1471SOL     OW 5913   0.409   0.865   2.734
 1471SOL    HW2 5914   0.423   0.958   2.721
 1471SOL    HW3 5915   0.482   0.823   2.686
 1471SOL    MW4 5916   0.421   0.871   2.726
 1472SOL     OW 5917   0.426   1.150   2.650
 1472SOL    HW2 5918   0.507   1.195   2.673
 1472SOL    HW3 5919   0.424   1.149   2.555
 1472SOL    MW4 5920   0.436   1.156   2.641
 1473SOL     OW 5921   0.680   1.253   2.708
 1473SOL    HW2 5922   0.676   1.254   2.804
 1473SOL    HW3 5923   0.762   1.208   2.688
 1473SOL    MW4 5924   0.690   1.247   2.718
 1474SOL     OW 5925   0.711   1.507   2.629
 1474SOL    HW2 5926   0.631   1.548   2.662
 1474SOL    HW3 5927   0.710   1.419   2.668
 1474SOL    MW4 5928   0.700   1.501   2.639
 1475SOL     OW 5929   0.481   1.629   2.727
 1475SOL    HW2 5930   0.479   1.608   2.820
 1475SOL    HW3 5931   0.479   1.725   2.724
 1475SOL    MW4 5932   0.481   1.639   2.739
 1476SOL     OW 5933   0.431   1.922   2.637
 1476SOL    HW2 5934   0.521   1.953   2.644
 1476SOL    HW3 5935   0.419   1.906   2.543
 1476SOL    MW4 5936   0.441   1.924   2.625
 1477SOL     OW 5937   0.720   2.040   2.715
 1477SOL    HW2 5938   0.733   2.032   2.809
 1477SOL    HW3 5939   0.792   1.989   2.677
 1477SOL    MW4 5940   0.731   2.033   2.722
 1478SOL     OW 5941   0.675   2.314   2.640
 1478SOL    HW2 5942   0.752   2.357   2.677
 1478SOL    HW3 5943   0.687   2.222   2.663
 1478SOL    MW4 5944   0.687   2.307   2.648
 1479SOL     OW 5945   0.448   2.427   2.755
 1479SOL    HW2 5946   0.439   2.513   2.712
 1479SOL    HW3 5947   0.524   2.388   2.713
 1479SOL    MW4 5948   0.456   2.433   2.743
 1480SOL     OW 5949   0.415   2.688   2.641
 1480SOL    HW2 5950   0.483   2.737   2.687
 1480SOL    HW3 5951   0.333   2.715   2.683
 1480SOL    MW4 5952   0.413   2.698   2.652
 1481SOL     OW 5953   0.606   2.858   2.745
 1481SOL    HW2 5954   0.627   2.855   2.838
 1481SOL    HW3 5955   0.630   2.947   2.718
 1481SOL    MW4 5956   0.612   2.870   2.753
 1482SOL     OW 5957   0.666   3.132   2.663
 1482SOL    HW2 5958   0.753   3.150   2.698
 1482SOL    HW3 5959   0.678   3.126   2.568
 1482SOL    MW4 5960   0.679   3.133   2.655
 1483SOL     OW 5961   0.422   3.223   2.756
 1483SOL    HW2 5962   0.421   3.237   2.851
 1483SOL    HW3 5963   0.508   3.186   2.739
 1483SOL    MW4 5964   0.433   3.220   2.767
 1484SOL     OW 5965   0.433   3.463   2.638
 1484SOL    HW2 5966   0.448   3.378   2.680
 1484SOL    HW3 5967   0.440   3.445   2.544
 1484SOL    MW4 5968   0.436   3.449   2.631
 1485SOL     OW 5969   0.663   3.605   2.718
 1485SOL    HW2 5970   0.653   3.596   2.812
 1485SOL    HW3 5971   0.585   3.562   2.681
 1485SOL    MW4 5972   0.651   3.598   2.725
 1486SOL     OW 5973   0.669   3.887   2.645
 1486SOL    HW2 5974   0.583   3.904   2.682
 1486SOL    HW3 5975   0.691   3.799   2.676
 1486SOL    MW4 5976   0.661   3.877   2.654
 1487SOL     OW 5977   0.427   4.016   2.731
 1487SOL    HW2 5978   0.412   4.107   2.706
 1487SOL    HW3 5979   0.350   3.969   2.699
 1487SOL    MW4 5980   0.415   4.022   2.723
 1488SOL     OW 5981   0.418   4.258   2.613
 1488SOL    HW2 5982   0.497   4.296   2.651
 1488SOL    HW3 5983   0.429   4.268   2.519
 1488SOL    MW4 5984   0.430   4.264   2.606
 1489SOL     OW 5985   0.648   4.360   2.745
 1489SOL    HW2 5986   0.728   4.317   2.715
 1489SOL    HW3 5987   0.654   4.448   2.710
 1489SOL    MW4 5988   0.659   4.366   2.737
 1490SOL     OW 5989   1.125   4.620   2.659
 1490SOL    HW2 5990   1.202   4.669   2.690
 1490SOL    HW3 5991   1.136   4.533   2.698
 1490SOL    MW4 5992   1.137   4.615   2.668
 1491SOL     OW 5993   0.863   0.059   2.713
 1491SOL    HW2 5994   0.856   0.065   2.809
 1491SOL    HW3 5995   0.952   0.027   2.697
 1491SOL    MW4 5996   0.874   0.055   2.724
 1492SOL     OW 5997   0.874   0.338   2.610
 1492SOL    HW2 5998   0.873   0.243   2.619
 1492SOL    HW3 5999   0.892   0.354   2.518
 1492SOL    MW4 6000   0.876   0.328   2.599
 1493SOL     OW 6001   1.076   0.479   2.726
 1493SOL    HW2 6002   1.062   0.570   2.700
 1493SOL    HW3 6003   0.996   0.433   2.700
 1493SOL    MW4 6004   1.063   0.485   2.719
 1494SOL     OW 6005   1.063   0.741   2.616
 1494SOL    HW2 6006   1.151   0.776   2.626
 1494SOL    HW3 6007   1.044   0.749   2.522
 1494SOL    MW4 6008   1.072   0.746   2.605
 1495SOL     OW 6009   0.838   0.841   2.725
 1495SOL    HW2 6010   0.861   0.861   2.815
 1495SOL    HW3 6011   0.921   0.818   2.684
 1495SOL    MW4 6012   0.852   0.840   2.731
 1496SOL     OW 6013   0.883   1.106   2.600
 1496SOL    HW2 6014   0.864   1.019   2.635
 1496SOL    HW3 6015   0.848   1.104   2.511
 1496SOL    MW4 6016   0.876   1.095   2.593
 1497SOL     OW 6017   1.093   1.223   2.747
 1497SOL    HW2 6018   1.122   1.300   2.699
 1497SOL    HW3 6019   1.020   1.188   2.695
 1497SOL    MW4 6020   1.087   1.229   2.734
 1498SOL     OW 6021   1.137   1.475   2.617
 1498SOL    HW2 6022   1.061   1.517   2.657
 1498SOL    HW3 6023   1.114   1.469   2.524
 1498SOL    MW4 6024   1.124   1.480   2.610
 1499SOL     OW 6025   0.935   1.596   2.760
 1499SOL    HW2 6026   0.906   1.609   2.850
 1499SOL    HW3 6027   0.856   1.568   2.713
 1499SOL    MW4 6028   0.921   1.594   2.766
 1500SOL     OW 6029   0.927   1.853   2.637
 1500SOL    HW2 6030   1.000   1.907   2.668
 1500SOL    HW3 6031   0.925   1.779   2.698
 1500SOL    MW4 6032   0.936   1.850   2.649
 1501SOL     OW 6033   1.094   2.073   2.693
 1501SOL    HW2 6034   1.173   2.042   2.649
 1501SOL    HW3 6035   1.091   2.167   2.674
 1501SOL    MW4 6036   1.104   2.081   2.685
 1502SOL     OW 6037   1.128   2.348   2.636
 1502SOL    HW2 6038   1.213   2.382   2.663
 1502SOL    HW3 6039   1.130   2.352   2.540
 1502SOL    MW4 6040   1.139   2.353   2.627
 1503SOL     OW 6041   0.888   2.448   2.745
 1503SOL    HW2 6042   0.872   2.534   2.707
 1503SOL    HW3 6043   0.974   2.423   2.713
 1503SOL    MW4 6044   0.897   2.456   2.736
 1504SOL     OW 6045   0.842   2.705   2.690
 1504SOL    HW2 6046   0.923   2.744   2.723
 1504SOL    HW3 6047   0.775   2.772   2.707
 1504SOL    MW4 6048   0.844   2.719   2.697
 1505SOL     OW 6049   1.083   2.832   2.708
 1505SOL    HW2 6050   1.106   2.825   2.801
 1505SOL    HW3 6051   1.159   2.795   2.662
 1505SOL    MW4 6052   1.096   2.826   2.714
 1506SOL     OW 6053   1.148   3.096   2.646
 1506SOL    HW2 6054   1.122   3.007   2.669
 1506SOL    HW3 6055   1.136   3.101   2.551
 1506SOL    MW4 6056   1.143   3.085   2.637
 1507SOL     OW 6057   0.919   3.208   2.751
 1507SOL    HW2 6058   0.903   3.286   2.698
 1507SOL    HW3 6059   1.006   3.179   2.724
 1507SOL    MW4 6060   0.928   3.215   2.741
 1508SOL     OW 6061   0.887   3.462   2.617
 1508SOL    HW2 6062   0.961   3.508   2.659
 1508SOL    HW3 6063   0.810   3.512   2.646
 1508SOL    MW4 6064   0.887   3.475   2.627
 1509SOL     OW 6065   1.102   3.599   2.747
 1509SOL    HW2 6066   1.101   3.626   2.839
 1509SOL    HW3 6067   1.100   3.681   2.698
 1509SOL    MW4 6068   1.102   3.613   2.753
 1510SOL     OW 6069   1.098   3.851   2.627
 1510SOL    HW2 6070   1.178   3.889   2.665
 1510SOL    HW3 6071   1.110   3.859   2.533
 1510SOL    MW4 6072   1.110   3.857   2.620
 1511SOL     OW 6073   0.893   4.008   2.763
 1511SOL    HW2 6074   0.958   3.963   2.708
 1511SOL    HW3 6075   0.809   3.970   2.735
 1511SOL    MW4 6076   0.890   3.997   2.752
 1512SOL     OW 6077   0.888   4.266   2.676
 1512SOL    HW2 6078   0.892   4.174   2.701
 1512SOL    HW3 6079   0.884   4.265   2.580
 1512SOL    MW4 6080   0.888   4.254   2.666
 1513SOL     OW 6081   1.144   4.351   2.767
 1513SOL    HW2 6082   1.137   4.378   2.859
 1513SOL    HW3 6083   1.055   4.327   2.742
 1513SOL    MW4 6084   1.131   4.351   2.776
 1514SOL     OW 6085   1.588   4.618   2.626
 1514SOL    HW2 6086   1.582   4.529   2.660
 1514SOL    HW3 6087   1.573   4.610   2.532
 1514SOL    MW4 6088   1.585   4.605   2.618
 1515SOL     OW 6089   1.366   0.077   2.754
 1515SOL    HW2 6090   1.374   0.170   2.733
 1515SOL    HW3 6091   1.444   0.037   2.714
 1515SOL    MW4 6092   1.378   0.084   2.746
 1516SOL     OW 6093   1.318   0.351   2.671
 1516SOL    HW2 6094   1.376   0.417   2.709
 1516SOL    HW3 6095   1.230   0.378   2.698
 1516SOL    MW4 6096   1.314   0.363   2.679
 1517SOL     OW 6097   1.574   0.481   2.738
 1517SOL    HW2 6098   1.646   0.432   2.699
 1517SOL    HW3 6099   1.577   0.567   2.696
 1517SOL    MW4 6100   1.584   0.486   2.728
 1518SOL     OW 6101   1.543   0.740   2.623
 1518SOL    HW2 6102   1.460   0.776   2.655
 1518SOL    HW3 6103   1.536   0.746   2.527
 1518SOL    MW4 6104   1.531   0.745   2.614
 1519SOL     OW 6105   1.303   0.862   2.689
 1519SOL    HW2 6106   1.310   0.855   2.784
 1519SOL    HW3 6107   1.319   0.954   2.670
 1519SOL    MW4 6108   1.306   0.873   2.699
 1520SOL     OW 6109   1.340   1.125   2.639
 1520SOL    HW2 6110   1.416   1.179   2.660
 1520SOL    HW3 6111   1.274   1.151   2.703
 1520SOL    MW4 6112   1.341   1.136   2.650
 1521SOL     OW 6113   1.561   1.267   2.716
 1521SOL    HW2 6114   1.564   1.248   2.810
 1521SOL    HW3 6115   1.644   1.236   2.682
 1521SOL    MW4 6116   1.572   1.261   2.724
 1522SOL     OW 6117   1.572   1.544   2.646
 1522SOL    HW2 6118   1.567   1.455   2.682
 1522SOL    HW3 6119   1.549   1.534   2.554
 1522SOL    MW4 6120   1.568   1.531   2.639
 1523SOL     OW 6121   1.334   1.666   2.718
 1523SOL    HW2 6122   1.420   1.628   2.700
 1523SOL    HW3 6123   1.272   1.607   2.674
 1523SOL    MW4 6124   1.337   1.653   2.710
 1524SOL     OW 6125   1.330   1.930   2.630
 1524SOL    HW2 6126   1.335   1.837   2.650
 1524SOL    HW3 6127   1.327   1.934   2.535
 1524SOL    MW4 6128   1.330   1.918   2.620
 1525SOL     OW 6129   1.570   2.074   2.724
 1525SOL    HW2 6130   1.629   2.010   2.684
 1525SOL    HW3 6131   1.482   2.039   2.706
 1525SOL    MW4 6132   1.566   2.061   2.716
 1526SOL     OW 6133   1.586   2.324   2.602
 1526SOL    HW2 6134   1.642   2.370   2.664
 1526SOL    HW3 6135   1.570   2.239   2.643
 1526SOL    MW4 6136   1.591   2.319   2.616
 1527SOL     OW 6137   1.369   2.461   2.723
 1527SOL    HW2 6138   1.344   2.546   2.687
 1527SOL    HW3 6139   1.445   2.435   2.672
 1527SOL    MW4 6140   1.375   2.469   2.712
 1528SOL     OW 6141   1.327   2.700   2.614
 1528SOL    HW2 6142   1.389   2.760   2.656
 1528SOL    HW3 6143   1.361   2.687   2.526
 1528SOL    MW4 6144   1.340   2.706   2.608
 1529SOL     OW 6145   1.557   2.843   2.716
 1529SOL    HW2 6146   1.568   2.850   2.810
 1529SOL    HW3 6147   1.640   2.809   2.684
 1529SOL    MW4 6148   1.569   2.839   2.724
 1530SOL     OW 6149   1.574   3.114   2.601
 1530SOL    HW2 6150   1.661   3.143   2.627
 1530SOL    HW3 6151   1.566   3.026   2.638
 1530SOL    MW4 6152   1.584   3.106   2.610
 1531SOL     OW 6153   1.359   3.217   2.781
 1531SOL    HW2 6154   1.439   3.181   2.743
 1531SOL    HW3 6155   1.288   3.166   2.741
 1531SOL    MW4 6156   1.360   3.206   2.770
 1532SOL     OW 6157   1.323   3.451   2.645
 1532SOL    HW2 6158   1.327   3.374   2.700
 1532SOL    HW3 6159   1.237   3.489   2.661
 1532SOL    MW4 6160   1.312   3.446   2.654
 1533SOL     OW 6161   1.538   3.573   2.773
 1533SOL    HW2 6162   1.613   3.530   2.733
 1533SOL    HW3 6163   1.462   3.527   2.738
 1533SOL    MW4 6164   1.537   3.561   2.763
 1534SOL     OW 6165   1.569   3.834   2.681
 1534SOL    HW2 6166   1.489   3.872   2.717
 1534SOL    HW3 6167   1.571   3.745   2.716
 1534SOL    MW4 6168   1.559   3.827   2.690
 1535SOL     OW 6169   1.343   3.968   2.763
 1535SOL    HW2 6170   1.349   3.994   2.855
 1535SOL    HW3 6171   1.345   4.050   2.714
 1535SOL    MW4 6172   1.344   3.982   2.769
 1536SOL     OW 6173   1.340   4.200   2.642
 1536SOL    HW2 6174   1.270   4.254   2.677
 1536SOL    HW3 6175   1.351   4.230   2.551
 1536SOL    MW4 6176   1.332   4.211   2.634
 1537SOL     OW 6177   1.564   4.354   2.755
 1537SOL    HW2 6178   1.561   4.352   2.851
 1537SOL    HW3 6179   1.489   4.301   2.728
 1537SOL    MW4 6180   1.553   4.347   2.764
 1538SOL     OW 6181   2.008   4.648   2.627
 1538SOL    HW2 6182   2.088   4.676   2.672
 1538SOL    HW3 6183   2.027   4.659   2.534
 1538SOL    MW4 6184   2.021   4.653   2.621
 1539SOL     OW 6185   1.788   0.088   2.748
 1539SOL    HW2 6186   1.864   0.051   2.704
 1539SOL    HW3 6187   1.713   0.051   2.700
 1539SOL    MW4 6188   1.788   0.078   2.736
 1540SOL     OW 6189   1.805   0.344   2.620
 1540SOL    HW2 6190   1.872   0.395   2.666
 1540SOL    HW3 6191   1.807   0.258   2.663
 1540SOL    MW4 6192   1.814   0.340   2.632
 1541SOL     OW 6193   2.001   0.482   2.749
 1541SOL    HW2 6194   2.086   0.456   2.714
 1541SOL    HW3 6195   1.997   0.576   2.734
 1541SOL    MW4 6196   2.012   0.491   2.742
 1542SOL     OW 6197   1.995   0.774   2.640
 1542SOL    HW2 6198   1.919   0.814   2.683
 1542SOL    HW3 6199   1.963   0.751   2.553
 1542SOL    MW4 6200   1.980   0.777   2.634
 1543SOL     OW 6201   1.766   0.874   2.733
 1543SOL    HW2 6202   1.760   0.969   2.742
 1543SOL    HW3 6203   1.689   0.850   2.681
 1543SOL    MW4 6204   1.755   0.884   2.727
 1544SOL     OW 6205   1.803   1.156   2.658
 1544SOL    HW2 6206   1.878   1.206   2.689
 1544SOL    HW3 6207   1.831   1.122   2.573
 1544SOL    MW4 6208   1.817   1.158   2.651
 1545SOL     OW 6209   2.042   1.290   2.735
 1545SOL    HW2 6210   2.039   1.306   2.830
 1545SOL    HW3 6211   2.128   1.250   2.720
 1545SOL    MW4 6212   2.053   1.287   2.746
 1546SOL     OW 6213   2.020   1.540   2.603
 1546SOL    HW2 6214   1.939   1.570   2.645
 1546SOL    HW3 6215   2.027   1.448   2.628
 1546SOL    MW4 6216   2.010   1.532   2.612
 1547SOL     OW 6217   1.811   1.648   2.737
 1547SOL    HW2 6218   1.810   1.646   2.833
 1547SOL    HW3 6219   1.726   1.614   2.711
 1547SOL    MW4 6220   1.800   1.643   2.746
 1548SOL     OW 6221   1.774   1.889   2.625
 1548SOL    HW2 6222   1.842   1.943   2.665
 1548SOL    HW3 6223   1.781   1.805   2.670
 1548SOL    MW4 6224   1.784   1.885   2.636
 1549SOL     OW 6225   1.974   2.054   2.749
 1549SOL    HW2 6226   1.999   2.068   2.841
 1549SOL    HW3 6227   1.975   2.141   2.710
 1549SOL    MW4 6228   1.978   2.067   2.756
 1550SOL     OW 6229   1.998   2.307   2.648
 1550SOL    HW2 6230   2.072   2.349   2.691
 1550SOL    HW3 6231   2.017   2.316   2.554
 1550SOL    MW4 6232   2.011   2.314   2.641
 1551SOL     OW 6233   1.793   2.473   2.765
 1551SOL    HW2 6234   1.784   2.459   2.859
 1551SOL    HW3 6235   1.871   2.422   2.741
 1551SOL    MW4 6236   1.802   2.464   2.774
 1552SOL     OW 6237   1.805   2.730   2.634
 1552SOL    HW2 6238   1.797   2.641   2.669
 1552SOL    HW3 6239   1.809   2.717   2.539
 1552SOL    MW4 6240   1.804   2.716   2.626
 1553SOL     OW 6241   2.012   2.880   2.734
 1553SOL    HW2 6242   2.083   2.817   2.721
 1553SOL    HW3 6243   1.936   2.840   2.690
 1553SOL    MW4 6244   2.011   2.866   2.727
 1554SOL     OW 6245   2.040   3.147   2.655
 1554SOL    HW2 6246   2.028   3.055   2.680
 1554SOL    HW3 6247   2.044   3.144   2.559
 1554SOL    MW4 6248   2.039   3.134   2.645
 1555SOL     OW 6249   1.789   3.209   2.738
 1555SOL    HW2 6250   1.784   3.303   2.719
 1555SOL    HW3 6251   1.873   3.181   2.701
 1555SOL    MW4 6252   1.799   3.218   2.730
 1556SOL     OW 6253   1.766   3.475   2.642
 1556SOL    HW2 6254   1.850   3.508   2.674
 1556SOL    HW3 6255   1.777   3.471   2.547
 1556SOL    MW4 6256   1.779   3.479   2.633
 1557SOL     OW 6257   2.018   3.548   2.781
 1557SOL    HW2 6258   2.027   3.580   2.871
 1557SOL    HW3 6259   2.103   3.509   2.762
 1557SOL    MW4 6260   2.031   3.547   2.791
 1558SOL     OW 6261   2.050   3.818   2.669
 1558SOL    HW2 6262   1.969   3.852   2.708
 1558SOL    HW3 6263   2.048   3.725   2.690
 1558SOL    MW4 6264   2.039   3.810   2.677
 1559SOL     OW 6265   1.825   3.957   2.757
 1559SOL    HW2 6266   1.819   4.045   2.720
 1559SOL    HW3 6267   1.744   3.914   2.732
 1559SOL    MW4 6268   1.814   3.963   2.748
 1560SOL     OW 6269   1.805   4.231   2.683
 1560SOL    HW2 6270   1.737   4.281   2.727
 1560SOL    HW3 6271   1.788   4.243   2.589
 1560SOL    MW4 6272   1.794   4.239   2.676
 1561SOL     OW 6273   1.984   4.403   2.781
 1561SOL    HW2 6274   1.920   4.344   2.741
 1561SOL    HW3 6275   1.991   4.477   2.721
 1561SOL    MW4 6276   1.977   4.405   2.768
 1562SOL     OW 6277   2.433   4.661   2.685
 1562SOL    HW2 6278   2.513   4.709   2.709
 1562SOL    HW3 6279   2.438   4.653   2.589
 1562SOL    MW4 6280   2.444   4.666   2.675
 1563SOL     OW 6281   2.207   0.123   2.757
 1563SOL    HW2 6282   2.212   0.130   2.853
 1563SOL    HW3 6283   2.292   0.085   2.732
 1563SOL    MW4 6284   2.219   0.119   2.767
 1564SOL     OW 6285   2.238   0.387   2.661
 1564SOL    HW2 6286   2.230   0.294   2.681
 1564SOL    HW3 6287   2.248   0.391   2.566
 1564SOL    MW4 6288   2.238   0.375   2.651
 1565SOL     OW 6289   2.477   0.503   2.772
 1565SOL    HW2 6290   2.478   0.587   2.727
 1565SOL    HW3 6291   2.391   0.466   2.752
 1565SOL    MW4 6292   2.466   0.509   2.763
 1566SOL     OW 6293   2.475   0.776   2.642
 1566SOL    HW2 6294   2.394   0.820   2.666
 1566SOL    HW3 6295   2.475   0.776   2.546
 1566SOL    MW4 6296   2.465   0.782   2.632
 1567SOL     OW 6297   2.245   0.885   2.721
 1567SOL    HW2 6298   2.234   0.884   2.816
 1567SOL    HW3 6299   2.175   0.829   2.688
 1567SOL    MW4 6300   2.235   0.877   2.729
 1568SOL     OW 6301   2.250   1.165   2.642
 1568SOL    HW2 6302   2.239   1.075   2.673
 1568SOL    HW3 6303   2.223   1.162   2.551
 1568SOL    MW4 6304   2.245   1.153   2.634
 1569SOL     OW 6305   2.470   1.301   2.699
 1569SOL    HW2 6306   2.545   1.249   2.671
 1569SOL    HW3 6307   2.394   1.244   2.683
 1569SOL    MW4 6308   2.470   1.287   2.693
 1570SOL     OW 6309   2.473   1.572   2.637
 1570SOL    HW2 6310   2.387   1.607   2.663
 1570SOL    HW3 6311   2.470   1.480   2.661
 1570SOL    MW4 6312   2.461   1.565   2.643
 1571SOL     OW 6313   2.223   1.685   2.717
 1571SOL    HW2 6314   2.212   1.777   2.694
 1571SOL    HW3 6315   2.157   1.639   2.665
 1571SOL    MW4 6316   2.213   1.691   2.707
 1572SOL     OW 6317   2.217   1.964   2.660
 1572SOL    HW2 6318   2.137   1.993   2.703
 1572SOL    HW3 6319   2.198   1.971   2.567
 1572SOL    MW4 6320   2.204   1.969   2.654
 1573SOL     OW 6321   2.429   2.052   2.779
 1573SOL    HW2 6322   2.427   2.137   2.735
 1573SOL    HW3 6323   2.357   2.003   2.740
 1573SOL    MW4 6324   2.419   2.057   2.768
 1574SOL     OW 6325   2.454   2.295   2.648
 1574SOL    HW2 6326   2.538   2.329   2.679
 1574SOL    HW3 6327   2.465   2.288   2.553
 1574SOL    MW4 6328   2.467   2.298   2.640
 1575SOL     OW 6329   2.230   2.458   2.743
 1575SOL    HW2 6330   2.231   2.458   2.839
 1575SOL    HW3 6331   2.300   2.397   2.718
 1575SOL    MW4 6332   2.240   2.450   2.752
 1576SOL     OW 6333   2.240   2.720   2.643
 1576SOL    HW2 6334   2.318   2.745   2.692
 1576SOL    HW3 6335   2.217   2.634   2.678
 1576SOL    MW4 6336   2.248   2.712   2.654
 1577SOL     OW 6337   2.485   2.813   2.769
 1577SOL    HW2 6338   2.558   2.758   2.739
 1577SOL    HW3 6339   2.492   2.892   2.716
 1577SOL    MW4 6340   2.496   2.816   2.758
 1578SOL     OW 6341   2.502   3.095   2.659
 1578SOL    HW2 6342   2.424   3.128   2.703
 1578SOL    HW3 6343   2.476   3.086   2.567
 1578SOL    MW4 6344   2.488   3.098   2.653
 1579SOL     OW 6345   2.282   3.217   2.799
 1579SOL    HW2 6346   2.277   3.246   2.890
 1579SOL    HW3 6347   2.191   3.203   2.773
 1579SOL    MW4 6348   2.270   3.219   2.808
 1580SOL     OW 6349   2.254   3.464   2.658
 1580SOL    HW2 6350   2.325   3.520   2.688
 1580SOL    HW3 6351   2.268   3.381   2.703
 1580SOL    MW4 6352   2.265   3.460   2.668
 1581SOL     OW 6353   2.492   3.615   2.729
 1581SOL    HW2 6354   2.508   3.618   2.824
 1581SOL    HW3 6355   2.459   3.702   2.708
 1581SOL    MW4 6356   2.490   3.627   2.739
 1582SOL     OW 6357   2.423   3.903   2.663
 1582SOL    HW2 6358   2.500   3.942   2.704
 1582SOL    HW3 6359   2.349   3.956   2.695
 1582SOL    MW4 6360   2.423   3.915   2.673
 1583SOL     OW 6361   2.228   4.037   2.817
 1583SOL    HW2 6362   2.235   4.021   2.912
 1583SOL    HW3 6363   2.175   3.965   2.785
 1583SOL    MW4 6364   2.222   4.025   2.826
 1584SOL     OW 6365   2.218   4.271   2.703
 1584SOL    HW2 6366   2.219   4.189   2.753
 1584SOL    HW3 6367   2.131   4.307   2.718
 1584SOL    MW4 6368   2.207   4.265   2.712
 1585SOL     OW 6369   2.440   4.404   2.787
 1585SOL    HW2 6370   2.369   4.359   2.741
 1585SOL    HW3 6371   2.442   4.492   2.748
 1585SOL    MW4 6372   2.431   4.410   2.776
 1586SOL     OW 6373   2.910   0.027   2.663
 1586SOL    HW2 6374   2.995   0.050   2.699
 1586SOL    HW3 6375   2.926   0.012   2.570
 1586SOL    MW4 6376   2.923   0.028   2.655
 1587SOL     OW 6377   2.676   0.137   2.758
 1587SOL    HW2 6378   2.687   0.129   2.852
 1587SOL    HW3 6379   2.747   0.085   2.721
 1587SOL    MW4 6380   2.687   0.129   2.765
 1588SOL     OW 6381   2.682   0.373   2.621
 1588SOL    HW2 6382   2.676   0.287   2.662
 1588SOL    HW3 6383   2.625   0.429   2.674
 1588SOL    MW4 6384   2.674   0.369   2.634
 1589SOL     OW 6385   2.891   0.523   2.749
 1589SOL    HW2 6386   2.891   0.617   2.731
 1589SOL    HW3 6387   2.815   0.490   2.702
 1589SOL    MW4 6388   2.881   0.531   2.741
 1590SOL     OW 6389   2.899   0.788   2.666
 1590SOL    HW2 6390   2.980   0.830   2.694
 1590SOL    HW3 6391   2.830   0.847   2.695
 1590SOL    MW4 6392   2.900   0.801   2.673
 1591SOL     OW 6393   2.670   0.909   2.785
 1591SOL    HW2 6394   2.663   0.895   2.879
 1591SOL    HW3 6395   2.593   0.864   2.749
 1591SOL    MW4 6396   2.659   0.901   2.793
 1592SOL     OW 6397   2.710   1.170   2.662
 1592SOL    HW2 6398   2.791   1.214   2.689
 1592SOL    HW3 6399   2.700   1.098   2.725
 1592SOL    MW4 6400   2.719   1.166   2.674
 1593SOL     OW 6401   2.932   1.298   2.754
 1593SOL    HW2 6402   2.944   1.292   2.848
 1593SOL    HW3 6403   3.003   1.246   2.717
 1593SOL    MW4 6404   2.943   1.291   2.761
 1594SOL     OW 6405   2.906   1.573   2.651
 1594SOL    HW2 6406   2.841   1.617   2.706
 1594SOL    HW3 6407   2.916   1.486   2.690
 1594SOL    MW4 6408   2.899   1.567   2.664
 1595SOL     OW 6409   2.686   1.718   2.741
 1595SOL    HW2 6410   2.686   1.701   2.835
 1595SOL    HW3 6411   2.614   1.666   2.707
 1595SOL    MW4 6412   2.676   1.709   2.749
 1596SOL     OW 6413   2.674   1.982   2.654
 1596SOL    HW2 6414   2.689   1.891   2.678
 1596SOL    HW3 6415   2.595   2.008   2.701
 1596SOL    MW4 6416   2.666   1.974   2.663
 1597SOL     OW 6417   2.904   2.066   2.784
 1597SOL    HW2 6418   2.902   2.146   2.731
 1597SOL    HW3 6419   2.832   2.014   2.751
 1597SOL    MW4 6420   2.894   2.070   2.772
 1598SOL     OW 6421   2.913   2.287   2.638
 1598SOL    HW2 6422   2.973   2.335   2.695
 1598SOL    HW3 6423   2.826   2.321   2.661
 1598SOL    MW4 6424   2.909   2.298   2.648
 1599SOL     OW 6425   2.685   2.423   2.756
 1599SOL    HW2 6426   2.678   2.433   2.851
 1599SOL    HW3 6427   2.698   2.512   2.723
 1599SOL    MW4 6428   2.686   2.436   2.764
 1600SOL     OW 6429   2.705   2.686   2.665
 1600SOL    HW2 6430   2.769   2.750   2.694
 1600SOL    HW3 6431   2.709   2.690   2.569
 1600SOL    MW4 6432   2.714   2.695   2.656
 1601SOL     OW 6433   2.918   2.815   2.768
 1601SOL    HW2 6434   2.927   2.828   2.862
 1601SOL    HW3 6435   2.924   2.903   2.731
 1601SOL    MW4 6436   2.920   2.828   2.775
 1602SOL     OW 6437   2.890   3.094   2.669
 1602SOL    HW2 6438   2.816   3.135   2.712
 1602SOL    HW3 6439   2.867   3.096   2.576
 1602SOL    MW4 6440   2.877   3.100   2.662
 1603SOL     OW 6441   2.685   3.261   2.785
 1603SOL    HW2 6442   2.697   3.328   2.718
 1603SOL    HW3 6443   2.615   3.205   2.750
 1603SOL    MW4 6444   2.677   3.262   2.771
 1604SOL     OW 6445   2.701   3.496   2.628
 1604SOL    HW2 6446   2.617   3.529   2.658
 1604SOL    HW3 6447   2.695   3.496   2.533
 1604SOL    MW4 6448   2.689   3.500   2.619
 1605SOL     OW 6449   2.915   3.624   2.774
 1605SOL    HW2 6450   2.913   3.596   2.865
 1605SOL    HW3 6451   2.846   3.573   2.731
 1605SOL    MW4 6452   2.905   3.614   2.780
 1606SOL     OW 6453   2.895   3.891   2.693
 1606SOL    HW2 6454   2.980   3.915   2.729
 1606SOL    HW3 6455   2.886   3.798   2.713
 1606SOL    MW4 6456   2.905   3.882   2.701
 1607SOL     OW 6457   2.654   4.011   2.780
 1607SOL    HW2 6458   2.651   4.104   2.758
 1607SOL    HW3 6459   2.733   3.978   2.736
 1607SOL    MW4 6460   2.664   4.019   2.771
 1608SOL     OW 6461   2.677   4.265   2.686
 1608SOL    HW2 6462   2.753   4.318   2.711
 1608SOL    HW3 6463   2.602   4.324   2.696
 1608SOL    MW4 6464   2.677   4.280   2.691
 1609SOL     OW 6465   2.901   4.417   2.733
 1609SOL    HW2 6466   2.906   4.415   2.829
 1609SOL    HW3 6467   2.896   4.510   2.711
 1609SOL    MW4 6468   2.901   4.429   2.743
 1610SOL     OW 6469   3.357   0.013   2.628
 1610SOL    HW2 6470   3.371  -0.071   2.673
 1610SOL    HW3 6471   3.292   0.058   2.681
 1610SOL    MW4 6472   3.351   0.008   2.641
 1611SOL     OW 6473   3.151   0.125   2.766
 1611SOL    HW2 6474   3.142   0.120   2.861
 1611SOL    HW3 6475   3.135   0.217   2.745
 1611SOL    MW4 6476   3.147   0.136   2.776
 1612SOL     OW 6477   3.125   0.389   2.665
 1612SOL    HW2 6478   3.047   0.435   2.694
 1612SOL    HW3 6479   3.108   0.366   2.574
 1612SOL    MW4 6480   3.113   0.392   2.657
 1613SOL     OW 6481   3.365   0.527   2.740
 1613SOL    HW2 6482   3.348   0.617   2.713
 1613SOL    HW3 6483   3.289   0.478   2.709
 1613SOL    MW4 6484   3.353   0.533   2.732
 1614SOL     OW 6485   3.339   0.790   2.657
 1614SOL    HW2 6486   3.413   0.847   2.678
 1614SOL    HW3 6487   3.337   0.787   2.562
 1614SOL    MW4 6488   3.349   0.797   2.647
 1615SOL     OW 6489   3.132   0.928   2.765
 1615SOL    HW2 6490   3.133   0.932   2.861
 1615SOL    HW3 6491   3.212   0.882   2.742
 1615SOL    MW4 6492   3.142   0.923   2.775
 1616SOL     OW 6493   3.169   1.184   2.656
 1616SOL    HW2 6494   3.161   1.097   2.694
 1616SOL    HW3 6495   3.152   1.172   2.562
 1616SOL    MW4 6496   3.165   1.171   2.649
 1617SOL     OW 6497   3.377   1.346   2.721
 1617SOL    HW2 6498   3.373   1.325   2.814
 1617SOL    HW3 6499   3.311   1.290   2.680
 1617SOL    MW4 6500   3.368   1.336   2.728
 1618SOL     OW 6501   3.364   1.616   2.643
 1618SOL    HW2 6502   3.275   1.637   2.671
 1618SOL    HW3 6503   3.376   1.524   2.667
 1618SOL    MW4 6504   3.354   1.607   2.650
 1619SOL     OW 6505   3.122   1.725   2.739
 1619SOL    HW2 6506   3.128   1.810   2.695
 1619SOL    HW3 6507   3.039   1.689   2.709
 1619SOL    MW4 6508   3.112   1.732   2.729
 1620SOL     OW 6509   3.116   1.980   2.641
 1620SOL    HW2 6510   3.194   2.008   2.690
 1620SOL    HW3 6511   3.043   2.017   2.691
 1620SOL    MW4 6512   3.117   1.989   2.654
 1621SOL     OW 6513   3.353   2.078   2.752
 1621SOL    HW2 6514   3.363   2.092   2.847
 1621SOL    HW3 6515   3.337   2.165   2.717
 1621SOL    MW4 6516   3.352   2.091   2.760
 1622SOL     OW 6517   3.323   2.328   2.649
 1622SOL    HW2 6518   3.414   2.349   2.669
 1622SOL    HW3 6519   3.320   2.322   2.553
 1622SOL    MW4 6520   3.334   2.330   2.639
 1623SOL     OW 6521   3.104   2.435   2.772
 1623SOL    HW2 6522   3.099   2.528   2.753
 1623SOL    HW3 6523   3.178   2.404   2.719
 1623SOL    MW4 6524   3.113   2.443   2.763
 1624SOL     OW 6525   3.142   2.695   2.665
 1624SOL    HW2 6526   3.209   2.759   2.689
 1624SOL    HW3 6527   3.061   2.732   2.699
 1624SOL    MW4 6528   3.140   2.709   2.672
 1625SOL     OW 6529   3.339   2.845   2.760
 1625SOL    HW2 6530   3.324   2.848   2.854
 1625SOL    HW3 6531   3.419   2.792   2.750
 1625SOL    MW4 6532   3.348   2.838   2.771
 1626SOL     OW 6533   3.381   3.102   2.666
 1626SOL    HW2 6534   3.359   3.020   2.710
 1626SOL    HW3 6535   3.391   3.079   2.574
 1626SOL    MW4 6536   3.380   3.088   2.660
 1627SOL     OW 6537   3.122   3.249   2.752
 1627SOL    HW2 6538   3.198   3.191   2.746
 1627SOL    HW3 6539   3.048   3.194   2.726
 1627SOL    MW4 6540   3.122   3.234   2.748
 1628SOL     OW 6541   3.136   3.504   2.670
 1628SOL    HW2 6542   3.120   3.413   2.693
 1628SOL    HW3 6543   3.059   3.551   2.705
 1628SOL    MW4 6544   3.123   3.498   2.678
 1629SOL     OW 6545   3.381   3.614   2.741
 1629SOL    HW2 6546   3.388   3.615   2.837
 1629SOL    HW3 6547   3.300   3.567   2.723
 1629SOL    MW4 6548   3.371   3.608   2.752
 1630SOL     OW 6549   3.340   3.883   2.661
 1630SOL    HW2 6550   3.349   3.793   2.694
 1630SOL    HW3 6551   3.373   3.878   2.571
 1630SOL    MW4 6552   3.346   3.870   2.653
 1631SOL     OW 6553   3.130   4.015   2.771
 1631SOL    HW2 6554   3.114   4.103   2.737
 1631SOL    HW3 6555   3.209   3.986   2.725
 1631SOL    MW4 6556   3.139   4.023   2.760
 1632SOL     OW 6557   3.111   4.259   2.644
 1632SOL    HW2 6558   3.056   4.330   2.677
 1632SOL    HW3 6559   3.098   4.260   2.550
 1632SOL    MW4 6560   3.102   4.268   2.636
 1633SOL     OW 6561   3.336   4.416   2.719
 1633SOL    HW2 6562   3.338   4.412   2.814
 1633SOL    HW3 6563   3.270   4.351   2.694
 1633SOL    MW4 6564   3.327   4.407   2.728
 1634SOL     OW 6565   3.853   4.655   2.648
 1634SOL    HW2 6566   3.837   4.570   2.689
 1634SOL    HW3 6567   3.778   4.709   2.675
 1634SOL    MW4 6568   3.841   4.651   2.657
 1635SOL     OW 6569   3.598   0.106   2.715
 1635SOL    HW2 6570   3.586   0.200   2.701
 1635SOL    HW3 6571   3.515   0.067   2.689
 1635SOL    MW4 6572   3.586   0.114   2.710
 1636SOL     OW 6573   3.597   0.389   2.669
 1636SOL    HW2 6574   3.674   0.442   2.692
 1636SOL    HW3 6575   3.525   0.429   2.718
 1636SOL    MW4 6576   3.598   0.401   2.679
 1637SOL     OW 6577   3.812   0.540   2.720
 1637SOL    HW2 6578   3.824   0.540   2.815
 1637SOL    HW3 6579   3.883   0.484   2.687
 1637SOL    MW4 6580   3.823   0.533   2.728
 1638SOL     OW 6581   3.780   0.799   2.633
 1638SOL    HW2 6582   3.697   0.828   2.671
 1638SOL    HW3 6583   3.784   0.706   2.653
 1638SOL    MW4 6584   3.769   0.791   2.640
 1639SOL     OW 6585   3.559   0.953   2.746
 1639SOL    HW2 6586   3.587   0.961   2.837
 1639SOL    HW3 6587   3.588   1.035   2.705
 1639SOL    MW4 6588   3.567   0.965   2.752
 1640SOL     OW 6589   3.612   1.202   2.658
 1640SOL    HW2 6590   3.688   1.242   2.701
 1640SOL    HW3 6591   3.540   1.263   2.674
 1640SOL    MW4 6592   3.613   1.215   2.666
 1641SOL     OW 6593   3.854   1.310   2.770
 1641SOL    HW2 6594   3.916   1.257   2.720
 1641SOL    HW3 6595   3.853   1.395   2.727
 1641SOL    MW4 6596   3.862   1.314   2.758
 1642SOL     OW 6597   3.830   1.577   2.663
 1642SOL    HW2 6598   3.907   1.622   2.699
 1642SOL    HW3 6599   3.756   1.621   2.704
 1642SOL    MW4 6600   3.831   1.589   2.673
 1643SOL     OW 6601   3.603   1.720   2.759
 1643SOL    HW2 6602   3.603   1.808   2.720
 1643SOL    HW3 6603   3.524   1.679   2.724
 1643SOL    MW4 6604   3.592   1.726   2.749
 1644SOL     OW 6605   3.579   1.974   2.659
 1644SOL    HW2 6606   3.500   2.009   2.701
 1644SOL    HW3 6607   3.573   2.003   2.568
 1644SOL    MW4 6608   3.568   1.982   2.653
 1645SOL     OW 6609   3.817   2.068   2.755
 1645SOL    HW2 6610   3.886   2.017   2.713
 1645SOL    HW3 6611   3.736   2.031   2.720
 1645SOL    MW4 6612   3.816   2.056   2.744
 1646SOL     OW 6613   3.840   2.320   2.649
 1646SOL    HW2 6614   3.830   2.236   2.693
 1646SOL    HW3 6615   3.852   2.297   2.557
 1646SOL    MW4 6616   3.840   2.306   2.643
 1647SOL     OW 6617   3.572   2.389   2.744
 1647SOL    HW2 6618   3.589   2.388   2.838
 1647SOL    HW3 6619   3.656   2.364   2.704
 1647SOL    MW4 6620   3.585   2.385   2.751
 1648SOL     OW 6621   3.572   2.684   2.718
 1648SOL    HW2 6622   3.562   2.595   2.753
 1648SOL    HW3 6623   3.573   2.673   2.623
 1648SOL    MW4 6624   3.571   2.670   2.710
 1649SOL     OW 6625   3.778   2.844   2.784
 1649SOL    HW2 6626   3.859   2.800   2.757
 1649SOL    HW3 6627   3.709   2.782   2.761
 1649SOL    MW4 6628   3.779   2.830   2.777
 1650SOL     OW 6629   3.779   3.108   2.629
 1650SOL    HW2 6630   3.715   3.160   2.677
 1650SOL    HW3 6631   3.791   3.029   2.683
 1650SOL    MW4 6632   3.772   3.104   2.642
 1651SOL     OW 6633   3.596   3.250   2.778
 1651SOL    HW2 6634   3.610   3.329   2.725
 1651SOL    HW3 6635   3.522   3.206   2.736
 1651SOL    MW4 6636   3.588   3.255   2.766
 1652SOL     OW 6637   3.590   3.482   2.620
 1652SOL    HW2 6638   3.658   3.519   2.675
 1652SOL    HW3 6639   3.511   3.533   2.641
 1652SOL    MW4 6640   3.588   3.494   2.630
 1653SOL     OW 6641   3.785   3.602   2.764
 1653SOL    HW2 6642   3.865   3.561   2.730
 1653SOL    HW3 6643   3.781   3.686   2.719
 1653SOL    MW4 6644   3.795   3.608   2.753
 1654SOL     OW 6645   3.766   3.875   2.652
 1654SOL    HW2 6646   3.850   3.915   2.675
 1654SOL    HW3 6647   3.701   3.923   2.703
 1654SOL    MW4 6648   3.769   3.887   2.661
 1655SOL     OW 6649   3.565   4.024   2.766
 1655SOL    HW2 6650   3.561   4.115   2.736
 1655SOL    HW3 6651   3.490   3.981   2.724
 1655SOL    MW4 6652   3.555   4.030   2.756
 1656SOL     OW 6653   3.560   4.286   2.630
 1656SOL    HW2 6654   3.485   4.343   2.645
 1656SOL    HW3 6655   3.564   4.276   2.534
 1656SOL    MW4 6656   3.551   4.292   2.619
 1657SOL     OW 6657   3.790   4.391   2.715
 1657SOL    HW2 6658   3.857   4.346   2.662
 1657SOL    HW3 6659   3.710   4.342   2.699
 1657SOL    MW4 6660   3.788   4.379   2.706
 1658SOL     OW 6661   4.256   4.646   2.651
 1658SOL    HW2 6662   4.181   4.697   2.682
 1658SOL    HW3 6663   4.333   4.697   2.680
 1658SOL    MW4 6664   4.256   4.660   2.659
 1659SOL     OW 6665   4.069   0.144   2.745
 1659SOL    HW2 6666   4.040   0.164   2.835
 1659SOL    HW3 6667   3.997   0.093   2.708
 1659SOL    MW4 6668   4.055   0.140   2.752
 1660SOL     OW 6669   4.042   0.404   2.642
 1660SOL    HW2 6670   4.058   0.318   2.680
 1660SOL    HW3 6671   4.043   0.389   2.548
 1660SOL    MW4 6672   4.045   0.391   2.635
 1661SOL     OW 6673   4.266   0.539   2.730
 1661SOL    HW2 6674   4.188   0.506   2.686
 1661SOL    HW3 6675   4.337   0.483   2.697
 1661SOL    MW4 6676   4.265   0.527   2.720
 1662SOL     OW 6677   4.234   0.801   2.662
 1662SOL    HW2 6678   4.228   0.711   2.693
 1662SOL    HW3 6679   4.256   0.793   2.570
 1662SOL    MW4 6680   4.236   0.788   2.654
 1663SOL     OW 6681   3.989   0.927   2.767
 1663SOL    HW2 6682   4.067   0.883   2.735
 1663SOL    HW3 6683   3.916   0.878   2.729
 1663SOL    MW4 6684   3.989   0.915   2.758
 1664SOL     OW 6685   4.053   1.151   2.615
 1664SOL    HW2 6686   4.117   1.202   2.664
 1664SOL    HW3 6687   4.042   1.071   2.666
 1664SOL    MW4 6688   4.060   1.147   2.628
 1665SOL     OW 6689   4.252   1.269   2.766
 1665SOL    HW2 6690   4.254   1.355   2.724
 1665SOL    HW3 6691   4.332   1.226   2.737
 1665SOL    MW4 6692   4.263   1.274   2.757
 1666SOL     OW 6693   4.254   1.507   2.657
 1666SOL    HW2 6694   4.341   1.546   2.671
 1666SOL    HW3 6695   4.241   1.511   2.562
 1666SOL    MW4 6696   4.264   1.513   2.646
 1667SOL     OW 6697   4.055   1.688   2.784
 1667SOL    HW2 6698   4.062   1.685   2.880
 1667SOL    HW3 6699   4.133   1.642   2.753
 1667SOL    MW4 6700   4.066   1.682   2.793
 1668SOL     OW 6701   4.028   1.908   2.638
 1668SOL    HW2 6702   4.100   1.952   2.684
 1668SOL    HW3 6703   4.031   1.818   2.669
 1668SOL    MW4 6704   4.038   1.902   2.648
 1669SOL     OW 6705   4.235   2.030   2.759
 1669SOL    HW2 6706   4.242   2.109   2.705
 1669SOL    HW3 6707   4.320   1.987   2.749
 1669SOL    MW4 6708   4.247   2.035   2.750
 1670SOL     OW 6709   4.276   2.282   2.629
 1670SOL    HW2 6710   4.199   2.328   2.663
 1670SOL    HW3 6711   4.286   2.315   2.540
 1670SOL    MW4 6712   4.267   2.292   2.622
 1671SOL     OW 6713   4.068   2.431   2.756
 1671SOL    HW2 6714   4.045   2.448   2.848
 1671SOL    HW3 6715   3.988   2.393   2.718
 1671SOL    MW4 6716   4.054   2.429   2.763
 1672SOL     OW 6717   4.026   2.686   2.692
 1672SOL    HW2 6718   4.106   2.734   2.712
 1672SOL    HW3 6719   4.047   2.595   2.710
 1672SOL    MW4 6720   4.039   2.680   2.697
 1673SOL     OW 6721   4.257   2.830   2.777
 1673SOL    HW2 6722   4.262   2.821   2.872
 1673SOL    HW3 6723   4.249   2.924   2.761
 1673SOL    MW4 6724   4.256   2.841   2.787
 1674SOL     OW 6725   4.243   3.104   2.655
 1674SOL    HW2 6726   4.161   3.143   2.684
 1674SOL    HW3 6727   4.239   3.108   2.560
 1674SOL    MW4 6728   4.232   3.109   2.646
 1675SOL     OW 6729   3.998   3.238   2.733
 1675SOL    HW2 6730   4.005   3.324   2.690
 1675SOL    HW3 6731   3.938   3.188   2.678
 1675SOL    MW4 6732   3.991   3.243   2.720
 1676SOL     OW 6733   4.016   3.494   2.629
 1676SOL    HW2 6734   4.107   3.519   2.645
 1676SOL    HW3 6735   4.009   3.490   2.533
 1676SOL    MW4 6736   4.027   3.497   2.618
 1677SOL     OW 6737   4.248   3.588   2.732
 1677SOL    HW2 6738   4.259   3.607   2.825
 1677SOL    HW3 6739   4.328   3.541   2.707
 1677SOL    MW4 6740   4.260   3.585   2.741
 1678SOL     OW 6741   4.240   3.867   2.649
 1678SOL    HW2 6742   4.238   3.780   2.689
 1678SOL    HW3 6743   4.312   3.912   2.693
 1678SOL    MW4 6744   4.249   3.862   2.660
 1679SOL     OW 6745   3.998   3.996   2.702
 1679SOL    HW2 6746   4.000   4.021   2.795
 1679SOL    HW3 6747   4.086   3.962   2.685
 1679SOL    MW4 6748   4.010   3.995   2.712
 1680SOL     OW 6749   4.039   4.279   2.610
 1680SOL    HW2 6750   4.024   4.187   2.632
 1680SOL    HW3 6751   4.051   4.280   2.515
 1680SOL    MW4 6752   4.039   4.267   2.600
 1681SOL     OW 6753   4.256   4.389   2.753
 1681SOL    HW2 6754   4.175   4.359   2.712
 1681SOL    HW3 6755   4.274   4.473   2.712
 1681SOL    MW4 6756   4.247   4.396   2.742
 1682SOL     OW 6757   0.189   4.610   3.101
 1682SOL    HW2 6758   0.199   4.612   3.196
 1682SOL    HW3 6759   0.107   4.656   3.084
 1682SOL    MW4 6760   0.180   4.616   3.111
 1683SOL     OW 6761   4.462   0.122   3.054
 1683SOL    HW2 6762   4.382   0.075   3.080
 1683SOL    HW3 6763   4.437   0.214   3.061
 1683SOL    MW4 6764   4.448   0.128   3.059
 1684SOL     OW 6765   4.435   0.398   3.079
 1684SOL    HW2 6766   4.457   0.401   3.172
 1684SOL    HW3 6767   4.346   0.431   3.074
 1684SOL    MW4 6768   4.426   0.403   3.091
 1685SOL     OW 6769   0.188   0.489   2.973
 1685SOL    HW2 6770   0.252   0.422   2.996
 1685SOL    HW3 6771   0.103   0.452   2.997
 1685SOL    MW4 6772   0.185   0.475   2.979
 1686SOL     OW 6773   0.168   0.735   3.095
 1686SOL    HW2 6774   0.168   0.727   3.190
 1686SOL    HW3 6775   0.186   0.647   3.063
 1686SOL    MW4 6776   0.170   0.723   3.103
 1687SOL     OW 6777   4.467   0.923   3.003
 1687SOL    HW2 6778   4.545   0.873   3.029
 1687SOL    HW3 6779   4.477   0.936   2.909
 1687SOL    MW4 6780   4.479   0.918   2.994
 1688SOL     OW 6781   0.003   1.148   3.156
 1688SOL    HW2 6782  -0.064   1.213   3.133
 1688SOL    HW3 6783  -0.015   1.074   3.097
 1688SOL    MW4 6784  -0.009   1.147   3.145
 1689SOL     OW 6785   0.236   1.251   3.020
 1689SOL    HW2 6786   0.161   1.212   3.064
 1689SOL    HW3 6787   0.208   1.260   2.929
 1689SOL    MW4 6788   0.222   1.247   3.013
 1690SOL     OW 6789   0.244   1.525   3.107
 1690SOL    HW2 6790   0.177   1.581   3.068
 1690SOL    HW3 6791   0.227   1.438   3.070
 1690SOL    MW4 6792   0.233   1.521   3.097
 1691SOL     OW 6793   0.028   1.674   3.044
 1691SOL    HW2 6794  -0.054   1.629   3.069
 1691SOL    HW3 6795   0.024   1.758   3.091
 1691SOL    MW4 6796   0.016   1.679   3.054
 1692SOL     OW 6797   4.489   1.912   3.163
 1692SOL    HW2 6798   4.411   1.955   3.129
 1692SOL    HW3 6799   4.563   1.960   3.123
 1692SOL    MW4 6800   4.489   1.924   3.153
 1693SOL     OW 6801   0.214   2.032   3.050
 1693SOL    HW2 6802   0.228   2.124   3.071
 1693SOL    HW3 6803   0.217   2.028   2.955
 1693SOL    MW4 6804   0.216   2.044   3.040
 1694SOL     OW 6805   0.233   2.305   3.105
 1694SOL    HW2 6806   0.231   2.300   3.201
 1694SOL    HW3 6807   0.316   2.347   3.085
 1694SOL    MW4 6808   0.243   2.310   3.115
 1695SOL     OW 6809   0.001   2.434   3.020
 1695SOL    HW2 6810  -0.002   2.517   3.069
 1695SOL    HW3 6811   0.081   2.392   3.051
 1695SOL    MW4 6812   0.011   2.440   3.031
 1696SOL     OW 6813   0.012   2.686   3.143
 1696SOL    HW2 6814   0.021   2.709   3.236
 1696SOL    HW3 6815   0.077   2.740   3.099
 1696SOL    MW4 6816   0.022   2.696   3.150
 1697SOL     OW 6817   0.225   2.858   3.048
 1697SOL    HW2 6818   0.293   2.800   3.083
 1697SOL    HW3 6819   0.235   2.851   2.953
 1697SOL    MW4 6820   0.235   2.849   3.040
 1698SOL     OW 6821   0.240   3.104   3.159
 1698SOL    HW2 6822   0.153   3.138   3.137
 1698SOL    HW3 6823   0.238   3.013   3.128
 1698SOL    MW4 6824   0.228   3.096   3.152
 1699SOL     OW 6825   4.473   3.234   3.081
 1699SOL    HW2 6826   4.386   3.232   3.121
 1699SOL    HW3 6827   4.458   3.213   2.989
 1699SOL    MW4 6828   4.460   3.231   3.074
 1700SOL     OW 6829   0.014   3.507   3.117
 1700SOL    HW2 6830  -0.071   3.545   3.094
 1700SOL    HW3 6831   0.017   3.424   3.068
 1700SOL    MW4 6832   0.003   3.501   3.107
 1701SOL     OW 6833   0.254   3.637   3.028
 1701SOL    HW2 6834   0.243   3.731   3.043
 1701SOL    HW3 6835   0.170   3.599   3.054
 1701SOL    MW4 6836   0.241   3.645   3.033
 1702SOL     OW 6837   0.269   3.903   3.098
 1702SOL    HW2 6838   0.266   3.910   3.193
 1702SOL    HW3 6839   0.346   3.955   3.073
 1702SOL    MW4 6840   0.279   3.911   3.107
 1703SOL     OW 6841   4.465   3.969   3.033
 1703SOL    HW2 6842   4.552   3.940   3.063
 1703SOL    HW3 6843   4.472   3.968   2.937
 1703SOL    MW4 6844   4.477   3.965   3.024
 1704SOL     OW 6845   4.488   4.241   3.117
 1704SOL    HW2 6846   4.493   4.252   3.212
 1704SOL    HW3 6847   4.495   4.147   3.102
 1704SOL    MW4 6848   4.490   4.230   3.127
 1705SOL     OW 6849   0.248   4.353   3.035
 1705SOL    HW2 6850   0.179   4.305   3.080
 1705SOL    HW3 6851   0.224   4.445   3.047
 1705SOL    MW4 6852   0.235   4.359   3.043
 1706SOL     OW 6853   0.632   4.626   3.152
 1706SOL    HW2 6854   0.645   4.546   3.101
 1706SOL    HW3 6855   0.560   4.671   3.106
 1706SOL    MW4 6856   0.624   4.621   3.139
 1707SOL     OW 6857   0.426   0.091   2.996
 1707SOL    HW2 6858   0.407   0.179   3.028
 1707SOL    HW3 6859   0.356   0.037   3.032
 1707SOL    MW4 6860   0.414   0.095   3.005
 1708SOL     OW 6861   0.397   0.354   3.087
 1708SOL    HW2 6862   0.405   0.359   3.182
 1708SOL    HW3 6863   0.477   0.395   3.054
 1708SOL    MW4 6864   0.409   0.360   3.095
 1709SOL     OW 6865   0.632   0.461   3.006
 1709SOL    HW2 6866   0.718   0.421   3.020
 1709SOL    HW3 6867   0.634   0.542   3.057
 1709SOL    MW4 6868   0.643   0.466   3.015
 1710SOL     OW 6869   0.642   0.724   3.106
 1710SOL    HW2 6870   0.628   0.759   3.194
 1710SOL    HW3 6871   0.572   0.761   3.053
 1710SOL    MW4 6872   0.631   0.733   3.111
 1711SOL     OW 6873   0.400   0.843   3.007
 1711SOL    HW2 6874   0.325   0.788   3.029
 1711SOL    HW3 6875   0.387   0.866   2.915
 1711SOL    MW4 6876   0.389   0.839   2.998
 1712SOL     OW 6877   0.442   1.103   3.116
 1712SOL    HW2 6878   0.419   1.013   3.095
 1712SOL    HW3 6879   0.368   1.155   3.084
 1712SOL    MW4 6880   0.429   1.098   3.109
 1713SOL     OW 6881   0.652   1.241   2.995
 1713SOL    HW2 6882   0.733   1.208   3.033
 1713SOL    HW3 6883   0.583   1.199   3.045
 1713SOL    MW4 6884   0.654   1.231   3.006
 1714SOL     OW 6885   0.671   1.498   3.108
 1714SOL    HW2 6886   0.645   1.519   3.197
 1714SOL    HW3 6887   0.642   1.407   3.095
 1714SOL    MW4 6888   0.664   1.489   3.118
 1715SOL     OW 6889   0.476   1.653   3.004
 1715SOL    HW2 6890   0.543   1.593   3.039
 1715SOL    HW3 6891   0.395   1.625   3.046
 1715SOL    MW4 6892   0.474   1.641   3.014
 1716SOL     OW 6893   0.461   1.926   3.112
 1716SOL    HW2 6894   0.459   1.843   3.065
 1716SOL    HW3 6895   0.374   1.964   3.096
 1716SOL    MW4 6896   0.449   1.920   3.103
 1717SOL     OW 6897   0.686   2.073   3.056
 1717SOL    HW2 6898   0.757   2.016   3.086
 1717SOL    HW3 6899   0.606   2.026   3.077
 1717SOL    MW4 6900   0.685   2.060   3.063
 1718SOL     OW 6901   0.671   2.337   3.158
 1718SOL    HW2 6902   0.674   2.339   3.254
 1718SOL    HW3 6903   0.676   2.244   3.136
 1718SOL    MW4 6904   0.672   2.325   3.168
 1719SOL     OW 6905   0.445   2.445   3.043
 1719SOL    HW2 6906   0.531   2.406   3.061
 1719SOL    HW3 6907   0.439   2.445   2.948
 1719SOL    MW4 6908   0.456   2.440   3.033
 1720SOL     OW 6909   0.445   2.703   3.158
 1720SOL    HW2 6910   0.518   2.743   3.112
 1720SOL    HW3 6911   0.439   2.615   3.121
 1720SOL    MW4 6912   0.454   2.697   3.147
 1721SOL     OW 6913   0.656   2.834   3.015
 1721SOL    HW2 6914   0.736   2.799   3.053
 1721SOL    HW3 6915   0.638   2.914   3.065
 1721SOL    MW4 6916   0.664   2.840   3.026
 1722SOL     OW 6917   0.664   3.101   3.099
 1722SOL    HW2 6918   0.660   3.100   3.194
 1722SOL    HW3 6919   0.586   3.150   3.072
 1722SOL    MW4 6920   0.653   3.107   3.108
 1723SOL     OW 6921   0.433   3.243   3.021
 1723SOL    HW2 6922   0.441   3.330   3.059
 1723SOL    HW3 6923   0.361   3.202   3.068
 1723SOL    MW4 6924   0.425   3.249   3.032
 1724SOL     OW 6925   0.448   3.486   3.160
 1724SOL    HW2 6926   0.452   3.510   3.253
 1724SOL    HW3 6927   0.378   3.540   3.124
 1724SOL    MW4 6928   0.439   3.496   3.168
 1725SOL     OW 6929   0.642   3.594   2.981
 1725SOL    HW2 6930   0.727   3.564   3.011
 1725SOL    HW3 6931   0.579   3.549   3.038
 1725SOL    MW4 6932   0.645   3.584   2.993
 1726SOL     OW 6933   0.681   3.865   3.098
 1726SOL    HW2 6934   0.698   3.850   3.191
 1726SOL    HW3 6935   0.664   3.778   3.062
 1726SOL    MW4 6936   0.681   3.852   3.105
 1727SOL     OW 6937   0.509   4.061   3.020
 1727SOL    HW2 6938   0.555   3.982   3.048
 1727SOL    HW3 6939   0.480   4.042   2.931
 1727SOL    MW4 6940   0.511   4.048   3.012
 1728SOL     OW 6941   0.479   4.286   3.180
 1728SOL    HW2 6942   0.496   4.194   3.160
 1728SOL    HW3 6943   0.410   4.311   3.119
 1728SOL    MW4 6944   0.472   4.277   3.170
 1729SOL     OW 6945   0.676   4.391   3.023
 1729SOL    HW2 6946   0.624   4.329   3.076
 1729SOL    HW3 6947   0.655   4.369   2.933
 1729SOL    MW4 6948   0.666   4.380   3.018
 1730SOL     OW 6949   1.078   4.659   3.161
 1730SOL    HW2 6950   1.148   4.712   3.122
 1730SOL    HW3 6951   1.001   4.678   3.108
 1730SOL    MW4 6952   1.077   4.669   3.149
 1731SOL     OW 6953   0.839   0.075   3.006
 1731SOL    HW2 6954   0.845   0.167   3.033
 1731SOL    HW3 6955   0.767   0.039   3.058
 1731SOL    MW4 6956   0.831   0.082   3.016
 1732SOL     OW 6957   0.866   0.341   3.101
 1732SOL    HW2 6958   0.860   0.360   3.195
 1732SOL    HW3 6959   0.939   0.394   3.070
 1732SOL    MW4 6960   0.875   0.350   3.109
 1733SOL     OW 6961   1.096   0.505   3.017
 1733SOL    HW2 6962   1.165   0.446   3.049
 1733SOL    HW3 6963   1.105   0.502   2.922
 1733SOL    MW4 6964   1.107   0.497   3.009
 1734SOL     OW 6965   1.086   0.777   3.105
 1734SOL    HW2 6966   1.087   0.778   3.201
 1734SOL    HW3 6967   1.090   0.685   3.082
 1734SOL    MW4 6968   1.087   0.765   3.115
 1735SOL     OW 6969   0.849   0.876   3.007
 1735SOL    HW2 6970   0.932   0.839   3.038
 1735SOL    HW3 6971   0.782   0.818   3.042
 1735SOL    MW4 6972   0.851   0.863   3.016
 1736SOL     OW 6973   0.872   1.137   3.107
 1736SOL    HW2 6974   0.959   1.155   3.072
 1736SOL    HW3 6975   0.855   1.046   3.084
 1736SOL    MW4 6976   0.881   1.127   3.099
 1737SOL     OW 6977   1.115   1.251   3.037
 1737SOL    HW2 6978   1.181   1.187   3.064
 1737SOL    HW3 6979   1.094   1.228   2.946
 1737SOL    MW4 6980   1.121   1.239   3.028
 1738SOL     OW 6981   1.111   1.534   3.102
 1738SOL    HW2 6982   1.194   1.570   3.070
 1738SOL    HW3 6983   1.118   1.440   3.087
 1738SOL    MW4 6984   1.123   1.526   3.096
 1739SOL     OW 6985   0.888   1.664   3.034
 1739SOL    HW2 6986   0.964   1.612   3.059
 1739SOL    HW3 6987   0.813   1.610   3.060
 1739SOL    MW4 6988   0.888   1.650   3.041
 1740SOL     OW 6989   0.904   1.922   3.112
 1740SOL    HW2 6990   0.885   1.918   3.206
 1740SOL    HW3 6991   0.898   1.831   3.082
 1740SOL    MW4 6992   0.901   1.910   3.121
 1741SOL     OW 6993   1.140   2.038   2.970
 1741SOL    HW2 6994   1.072   1.993   3.020
 1741SOL    HW3 6995   1.120   2.016   2.879
 1741SOL    MW4 6996   1.128   2.029   2.965
 1742SOL     OW 6997   1.150   2.289   3.084
 1742SOL    HW2 6998   1.058   2.315   3.082
 1742SOL    HW3 6999   1.152   2.203   3.042
 1742SOL    MW4 7000   1.138   2.281   3.078
 1743SOL     OW 7001   0.903   2.427   3.030
 1743SOL    HW2 7002   0.822   2.395   3.069
 1743SOL    HW3 7003   0.888   2.419   2.935
 1743SOL    MW4 7004   0.890   2.422   3.023
 1744SOL     OW 7005   0.905   2.684   3.103
 1744SOL    HW2 7006   0.880   2.679   3.195
 1744SOL    HW3 7007   0.888   2.596   3.069
 1744SOL    MW4 7008   0.900   2.672   3.111
 1745SOL     OW 7009   1.126   2.816   2.987
 1745SOL    HW2 7010   1.111   2.905   3.019
 1745SOL    HW3 7011   1.062   2.763   3.035
 1745SOL    MW4 7012   1.116   2.820   2.997
 1746SOL     OW 7013   1.102   3.071   3.087
 1746SOL    HW2 7014   1.173   3.134   3.076
 1746SOL    HW3 7015   1.022   3.121   3.067
 1746SOL    MW4 7016   1.101   3.086   3.083
 1747SOL     OW 7017   0.890   3.248   3.023
 1747SOL    HW2 7018   0.812   3.193   3.037
 1747SOL    HW3 7019   0.902   3.248   2.928
 1747SOL    MW4 7020   0.881   3.240   3.012
 1748SOL     OW 7021   0.872   3.524   3.137
 1748SOL    HW2 7022   0.949   3.570   3.105
 1748SOL    HW3 7023   0.874   3.439   3.094
 1748SOL    MW4 7024   0.882   3.519   3.127
 1749SOL     OW 7025   1.077   3.664   3.015
 1749SOL    HW2 7026   1.150   3.610   3.046
 1749SOL    HW3 7027   1.087   3.747   3.062
 1749SOL    MW4 7028   1.088   3.668   3.025
 1750SOL     OW 7029   1.101   3.901   3.141
 1750SOL    HW2 7030   1.100   3.914   3.235
 1750SOL    HW3 7031   1.014   3.929   3.112
 1750SOL    MW4 7032   1.089   3.906   3.149
 1751SOL     OW 7033   0.885   4.050   3.049
 1751SOL    HW2 7034   0.812   3.998   3.083
 1751SOL    HW3 7035   0.882   4.037   2.955
 1751SOL    MW4 7036   0.875   4.041   3.041
 1752SOL     OW 7037   0.918   4.306   3.162
 1752SOL    HW2 7038   0.912   4.216   3.131
 1752SOL    HW3 7039   0.850   4.353   3.115
 1752SOL    MW4 7040   0.908   4.301   3.152
 1753SOL     OW 7041   1.148   4.425   3.042
 1753SOL    HW2 7042   1.089   4.378   3.101
 1753SOL    HW3 7043   1.146   4.515   3.073
 1753SOL    MW4 7044   1.140   4.431   3.054
 1754SOL     OW 7045   1.537   4.633   3.121
 1754SOL    HW2 7046   1.552   4.656   3.213
 1754SOL    HW3 7047   1.456   4.677   3.098
 1754SOL    MW4 7048   1.528   4.642   3.130
 1755SOL     OW 7049   1.307   0.081   3.049
 1755SOL    HW2 7050   1.321   0.173   3.072
 1755SOL    HW3 7051   1.323   0.078   2.955
 1755SOL    MW4 7052   1.311   0.093   3.040
 1756SOL     OW 7053   1.357   0.347   3.105
 1756SOL    HW2 7054   1.360   0.374   3.197
 1756SOL    HW3 7055   1.433   0.389   3.065
 1756SOL    MW4 7056   1.367   0.356   3.112
 1757SOL     OW 7057   1.592   0.476   3.014
 1757SOL    HW2 7058   1.587   0.568   3.041
 1757SOL    HW3 7059   1.586   0.479   2.918
 1757SOL    MW4 7060   1.590   0.488   3.005
 1758SOL     OW 7061   1.551   0.754   3.075
 1758SOL    HW2 7062   1.560   0.766   3.170
 1758SOL    HW3 7063   1.477   0.810   3.051
 1758SOL    MW4 7064   1.542   0.763   3.085
 1759SOL     OW 7065   1.316   0.867   3.000
 1759SOL    HW2 7066   1.331   0.954   3.036
 1759SOL    HW3 7067   1.241   0.833   3.049
 1759SOL    MW4 7068   1.308   0.874   3.011
 1760SOL     OW 7069   1.343   1.100   3.107
 1760SOL    HW2 7070   1.332   1.102   3.202
 1760SOL    HW3 7071   1.421   1.152   3.091
 1760SOL    MW4 7072   1.352   1.108   3.118
 1761SOL     OW 7073   1.586   1.198   2.999
 1761SOL    HW2 7074   1.675   1.190   3.033
 1761SOL    HW3 7075   1.565   1.291   3.009
 1761SOL    MW4 7076   1.595   1.209   3.005
 1762SOL     OW 7077   1.574   1.463   3.085
 1762SOL    HW2 7078   1.642   1.522   3.055
 1762SOL    HW3 7079   1.493   1.513   3.075
 1762SOL    MW4 7080   1.572   1.477   3.080
 1763SOL     OW 7081   1.364   1.641   3.001
 1763SOL    HW2 7082   1.368   1.736   3.014
 1763SOL    HW3 7083   1.343   1.630   2.908
 1763SOL    MW4 7084   1.362   1.652   2.990
 1764SOL     OW 7085   1.367   1.915   3.059
 1764SOL    HW2 7086   1.348   1.925   3.152
 1764SOL    HW3 7087   1.296   1.962   3.014
 1764SOL    MW4 7088   1.355   1.923   3.065
 1765SOL     OW 7089   1.579   2.082   2.990
 1765SOL    HW2 7090   1.522   2.013   3.023
 1765SOL    HW3 7091   1.578   2.072   2.895
 1765SOL    MW4 7092   1.572   2.071   2.982
 1766SOL     OW 7093   1.528   2.334   3.115
 1766SOL    HW2 7094   1.456   2.374   3.065
 1766SOL    HW3 7095   1.551   2.257   3.064
 1766SOL    MW4 7096   1.521   2.329   3.102
 1767SOL     OW 7097   1.332   2.463   2.995
 1767SOL    HW2 7098   1.251   2.416   3.016
 1767SOL    HW3 7099   1.334   2.465   2.899
 1767SOL    MW4 7100   1.321   2.457   2.985
 1768SOL     OW 7101   1.347   2.723   3.114
 1768SOL    HW2 7102   1.357   2.636   3.075
 1768SOL    HW3 7103   1.264   2.756   3.078
 1768SOL    MW4 7104   1.337   2.716   3.104
 1769SOL     OW 7105   1.569   2.838   3.002
 1769SOL    HW2 7106   1.643   2.801   3.049
 1769SOL    HW3 7107   1.493   2.789   3.034
 1769SOL    MW4 7108   1.568   2.827   3.012
 1770SOL     OW 7109   1.520   3.114   3.112
 1770SOL    HW2 7110   1.551   3.102   3.202
 1770SOL    HW3 7111   1.530   3.028   3.071
 1770SOL    MW4 7112   1.525   3.101   3.118
 1771SOL     OW 7113   1.297   3.254   3.041
 1771SOL    HW2 7114   1.367   3.217   3.095
 1771SOL    HW3 7115   1.328   3.243   2.951
 1771SOL    MW4 7116   1.310   3.248   3.036
 1772SOL     OW 7117   1.315   3.538   3.089
 1772SOL    HW2 7118   1.322   3.534   3.184
 1772SOL    HW3 7119   1.322   3.447   3.060
 1772SOL    MW4 7120   1.317   3.526   3.098
 1773SOL     OW 7121   1.559   3.658   3.028
 1773SOL    HW2 7122   1.480   3.608   3.045
 1773SOL    HW3 7123   1.570   3.655   2.933
 1773SOL    MW4 7124   1.550   3.651   3.018
 1774SOL     OW 7125   1.571   3.896   3.145
 1774SOL    HW2 7126   1.645   3.942   3.105
 1774SOL    HW3 7127   1.571   3.809   3.105
 1774SOL    MW4 7128   1.581   3.891   3.134
 1775SOL     OW 7129   1.344   4.008   3.040
 1775SOL    HW2 7130   1.417   3.959   3.077
 1775SOL    HW3 7131   1.267   3.955   3.060
 1775SOL    MW4 7132   1.343   3.995   3.047
 1776SOL     OW 7133   1.328   4.269   3.188
 1776SOL    HW2 7134   1.312   4.181   3.153
 1776SOL    HW3 7135   1.279   4.327   3.131
 1776SOL    MW4 7136   1.320   4.265   3.176
 1777SOL     OW 7137   1.548   4.338   3.036
 1777SOL    HW2 7138   1.470   4.303   3.079
 1777SOL    HW3 7139   1.554   4.428   3.067
 1777SOL    MW4 7140   1.538   4.345   3.046
 1778SOL     OW 7141   2.020   0.029   3.123
 1778SOL    HW2 7142   2.018   0.020   3.218
 1778SOL    HW3 7143   1.932   0.060   3.100
 1778SOL    MW4 7144   2.008   0.032   3.132
 1779SOL     OW 7145   1.775   0.116   3.033
 1779SOL    HW2 7146   1.709   0.053   3.062
 1779SOL    HW3 7147   1.782   0.102   2.939
 1779SOL    MW4 7148   1.768   0.105   3.025
 1780SOL     OW 7149   1.819   0.367   3.121
 1780SOL    HW2 7150   1.826   0.279   3.084
 1780SOL    HW3 7151   1.741   0.404   3.081
 1780SOL    MW4 7152   1.810   0.360   3.111
 1781SOL     OW 7153   2.025   0.504   3.023
 1781SOL    HW2 7154   1.955   0.470   3.080
 1781SOL    HW3 7155   2.000   0.477   2.935
 1781SOL    MW4 7156   2.012   0.496   3.019
 1782SOL     OW 7157   2.017   0.774   3.122
 1782SOL    HW2 7158   1.944   0.822   3.085
 1782SOL    HW3 7159   2.011   0.686   3.084
 1782SOL    MW4 7160   2.007   0.769   3.112
 1783SOL     OW 7161   1.795   0.881   3.013
 1783SOL    HW2 7162   1.722   0.835   3.053
 1783SOL    HW3 7163   1.786   0.865   2.919
 1783SOL    MW4 7164   1.784   0.873   3.006
 1784SOL     OW 7165   1.849   1.150   3.057
 1784SOL    HW2 7166   1.863   1.161   3.151
 1784SOL    HW3 7167   1.842   1.056   3.044
 1784SOL    MW4 7168   1.850   1.139   3.068
 1785SOL     OW 7169   2.044   1.316   3.006
 1785SOL    HW2 7170   2.127   1.271   3.022
 1785SOL    HW3 7171   1.977   1.248   3.018
 1785SOL    MW4 7172   2.046   1.301   3.010
 1786SOL     OW 7173   2.014   1.552   3.125
 1786SOL    HW2 7174   2.018   1.552   3.221
 1786SOL    HW3 7175   2.016   1.460   3.100
 1786SOL    MW4 7176   2.015   1.540   3.134
 1787SOL     OW 7177   1.770   1.649   3.013
 1787SOL    HW2 7178   1.757   1.739   3.042
 1787SOL    HW3 7179   1.853   1.623   3.052
 1787SOL    MW4 7180   1.779   1.657   3.022
 1788SOL     OW 7181   1.785   1.910   3.088
 1788SOL    HW2 7182   1.872   1.944   3.064
 1788SOL    HW3 7183   1.725   1.981   3.066
 1788SOL    MW4 7184   1.789   1.924   3.082
 1789SOL     OW 7185   2.038   2.006   3.044
 1789SOL    HW2 7186   2.118   1.964   3.076
 1789SOL    HW3 7187   2.046   2.097   3.073
 1789SOL    MW4 7188   2.050   2.013   3.052
 1790SOL     OW 7189   2.028   2.272   3.103
 1790SOL    HW2 7190   2.102   2.330   3.084
 1790SOL    HW3 7191   1.951   2.329   3.096
 1790SOL    MW4 7192   2.028   2.287   3.100
 1791SOL     OW 7193   1.786   2.448   3.056
 1791SOL    HW2 7194   1.776   2.543   3.068
 1791SOL    HW3 7195   1.697   2.414   3.070
 1791SOL    MW4 7196   1.773   2.456   3.060
 1792SOL     OW 7197   1.782   2.721   3.139
 1792SOL    HW2 7198   1.779   2.710   3.234
 1792SOL    HW3 7199   1.867   2.762   3.123
 1792SOL    MW4 7200   1.793   2.725   3.150
 1793SOL     OW 7201   2.019   2.850   3.033
 1793SOL    HW2 7202   2.029   2.941   3.059
 1793SOL    HW3 7203   1.997   2.854   2.940
 1793SOL    MW4 7204   2.017   2.863   3.024
 1794SOL     OW 7205   2.004   3.121   3.108
 1794SOL    HW2 7206   2.000   3.116   3.203
 1794SOL    HW3 7207   1.921   3.161   3.082
 1794SOL    MW4 7208   1.992   3.125   3.117
 1795SOL     OW 7209   1.763   3.256   3.009
 1795SOL    HW2 7210   1.682   3.215   3.037
 1795SOL    HW3 7211   1.768   3.239   2.915
 1795SOL    MW4 7212   1.753   3.248   3.000
 1796SOL     OW 7213   1.778   3.517   3.115
 1796SOL    HW2 7214   1.765   3.436   3.065
 1796SOL    HW3 7215   1.698   3.567   3.101
 1796SOL    MW4 7216   1.766   3.513   3.106
 1797SOL     OW 7217   2.041   3.614   3.051
 1797SOL    HW2 7218   2.044   3.698   3.097
 1797SOL    HW3 7219   1.955   3.579   3.072
 1797SOL    MW4 7220   2.030   3.621   3.060
 1798SOL     OW 7221   2.019   3.877   3.159
 1798SOL    HW2 7222   1.995   3.865   3.251
 1798SOL    HW3 7223   1.940   3.913   3.118
 1798SOL    MW4 7224   2.005   3.880   3.166
 1799SOL     OW 7225   1.811   3.991   3.027
 1799SOL    HW2 7226   1.802   4.081   3.058
 1799SOL    HW3 7227   1.812   3.999   2.932
 1799SOL    MW4 7228   1.810   4.004   3.019
 1800SOL     OW 7229   1.785   4.253   3.137
 1800SOL    HW2 7230   1.840   4.321   3.100
 1800SOL    HW3 7231   1.697   4.273   3.105
 1800SOL    MW4 7232   1.781   4.264   3.128
 1801SOL     OW 7233   1.971   4.440   3.046
 1801SOL    HW2 7234   1.985   4.532   3.071
 1801SOL    HW3 7235   1.969   4.442   2.951
 1801SOL    MW4 7236   1.973   4.453   3.037
 1802SOL     OW 7237   2.425   4.667   3.168
 1802SOL    HW2 7238   2.431   4.578   3.133
 1802SOL    HW3 7239   2.356   4.708   3.117
 1802SOL    MW4 7240   2.417   4.660   3.157
 1803SOL     OW 7241   2.242   0.139   3.020
 1803SOL    HW2 7242   2.249   0.224   3.063
 1803SOL    HW3 7243   2.162   0.101   3.055
 1803SOL    MW4 7244   2.232   0.145   3.030
 1804SOL     OW 7245   2.257   0.418   3.144
 1804SOL    HW2 7246   2.229   0.409   3.235
 1804SOL    HW3 7247   2.181   0.454   3.099
 1804SOL    MW4 7248   2.243   0.421   3.150
 1805SOL     OW 7249   2.504   0.502   3.050
 1805SOL    HW2 7250   2.430   0.458   3.092
 1805SOL    HW3 7251   2.491   0.487   2.957
 1805SOL    MW4 7252   2.493   0.494   3.043
 1806SOL     OW 7253   2.464   0.775   3.138
 1806SOL    HW2 7254   2.547   0.819   3.120
 1806SOL    HW3 7255   2.478   0.684   3.112
 1806SOL    MW4 7256   2.477   0.769   3.132
 1807SOL     OW 7257   2.249   0.882   2.995
 1807SOL    HW2 7258   2.326   0.839   3.033
 1807SOL    HW3 7259   2.174   0.840   3.038
 1807SOL    MW4 7260   2.249   0.871   3.005
 1808SOL     OW 7261   2.247   1.147   3.078
 1808SOL    HW2 7262   2.247   1.154   3.173
 1808SOL    HW3 7263   2.261   1.055   3.060
 1808SOL    MW4 7264   2.249   1.136   3.088
 1809SOL     OW 7265   2.478   1.271   2.980
 1809SOL    HW2 7266   2.395   1.231   3.005
 1809SOL    HW3 7267   2.473   1.281   2.884
 1809SOL    MW4 7268   2.467   1.267   2.970
 1810SOL     OW 7269   2.463   1.529   3.113
 1810SOL    HW2 7270   2.382   1.564   3.075
 1810SOL    HW3 7271   2.470   1.441   3.077
 1810SOL    MW4 7272   2.453   1.522   3.103
 1811SOL     OW 7273   2.244   1.653   3.001
 1811SOL    HW2 7274   2.163   1.605   3.018
 1811SOL    HW3 7275   2.246   1.664   2.906
 1811SOL    MW4 7276   2.234   1.648   2.990
 1812SOL     OW 7277   2.266   1.887   3.145
 1812SOL    HW2 7278   2.328   1.950   3.108
 1812SOL    HW3 7279   2.269   1.812   3.085
 1812SOL    MW4 7280   2.275   1.885   3.132
 1813SOL     OW 7281   2.439   2.086   3.067
 1813SOL    HW2 7282   2.524   2.046   3.086
 1813SOL    HW3 7283   2.428   2.075   2.972
 1813SOL    MW4 7284   2.448   2.079   3.057
 1814SOL     OW 7285   2.466   2.341   3.150
 1814SOL    HW2 7286   2.460   2.340   3.245
 1814SOL    HW3 7287   2.450   2.250   3.124
 1814SOL    MW4 7288   2.463   2.328   3.159
 1815SOL     OW 7289   2.234   2.428   3.048
 1815SOL    HW2 7290   2.218   2.513   3.088
 1815SOL    HW3 7291   2.315   2.397   3.087
 1815SOL    MW4 7292   2.242   2.435   3.059
 1816SOL     OW 7293   2.243   2.707   3.123
 1816SOL    HW2 7294   2.324   2.745   3.091
 1816SOL    HW3 7295   2.174   2.768   3.096
 1816SOL    MW4 7296   2.244   2.720   3.115
 1817SOL     OW 7297   2.496   2.816   3.041
 1817SOL    HW2 7298   2.482   2.910   3.055
 1817SOL    HW3 7299   2.489   2.805   2.946
 1817SOL    MW4 7300   2.493   2.827   3.031
 1818SOL     OW 7301   2.452   3.105   3.136
 1818SOL    HW2 7302   2.525   3.162   3.111
 1818SOL    HW3 7303   2.374   3.154   3.111
 1818SOL    MW4 7304   2.452   3.119   3.129
 1819SOL     OW 7305   2.246   3.255   3.065
 1819SOL    HW2 7306   2.253   3.332   3.121
 1819SOL    HW3 7307   2.157   3.224   3.076
 1819SOL    MW4 7308   2.235   3.261   3.074
 1820SOL     OW 7309   2.262   3.530   3.183
 1820SOL    HW2 7310   2.322   3.544   3.109
 1820SOL    HW3 7311   2.176   3.554   3.148
 1820SOL    MW4 7312   2.258   3.535   3.168
 1821SOL     OW 7313   2.470   3.611   3.008
 1821SOL    HW2 7314   2.540   3.559   3.048
 1821SOL    HW3 7315   2.469   3.693   3.057
 1821SOL    MW4 7316   2.479   3.615   3.020
 1822SOL     OW 7317   2.443   3.844   3.156
 1822SOL    HW2 7318   2.434   3.848   3.251
 1822SOL    HW3 7319   2.522   3.895   3.138
 1822SOL    MW4 7320   2.453   3.851   3.166
 1823SOL     OW 7321   2.240   4.013   3.096
 1823SOL    HW2 7322   2.312   3.953   3.117
 1823SOL    HW3 7323   2.162   3.971   3.135
 1823SOL    MW4 7324   2.239   3.999   3.104
 1824SOL     OW 7325   2.223   4.288   3.160
 1824SOL    HW2 7326   2.218   4.194   3.141
 1824SOL    HW3 7327   2.141   4.324   3.127
 1824SOL    MW4 7328   2.212   4.280   3.153
 1825SOL     OW 7329   2.448   4.405   3.064
 1825SOL    HW2 7330   2.364   4.373   3.097
 1825SOL    HW3 7331   2.435   4.410   2.969
 1825SOL    MW4 7332   2.435   4.401   3.056
 1826SOL     OW 7333   2.913   4.647   3.137
 1826SOL    HW2 7334   3.000   4.678   3.114
 1826SOL    HW3 7335   2.902   4.567   3.086
 1826SOL    MW4 7336   2.923   4.641   3.127
 1827SOL     OW 7337   2.671   0.122   3.041
 1827SOL    HW2 7338   2.750   0.076   3.066
 1827SOL    HW3 7339   2.600   0.075   3.086
 1827SOL    MW4 7340   2.672   0.110   3.050
 1828SOL     OW 7341   2.730   0.384   3.148
 1828SOL    HW2 7342   2.715   0.290   3.136
 1828SOL    HW3 7343   2.659   0.426   3.099
 1828SOL    MW4 7344   2.719   0.377   3.140
 1829SOL     OW 7345   2.932   0.522   3.028
 1829SOL    HW2 7346   2.860   0.466   3.056
 1829SOL    HW3 7347   2.916   0.537   2.935
 1829SOL    MW4 7348   2.920   0.517   3.019
 1830SOL     OW 7349   2.938   0.777   3.132
 1830SOL    HW2 7350   2.954   0.776   3.226
 1830SOL    HW3 7351   2.925   0.685   3.108
 1830SOL    MW4 7352   2.939   0.765   3.141
 1831SOL     OW 7353   2.702   0.895   3.061
 1831SOL    HW2 7354   2.715   0.989   3.077
 1831SOL    HW3 7355   2.775   0.853   3.106
 1831SOL    MW4 7356   2.713   0.902   3.069
 1832SOL     OW 7357   2.723   1.185   3.125
 1832SOL    HW2 7358   2.795   1.227   3.078
 1832SOL    HW3 7359   2.644   1.215   3.079
 1832SOL    MW4 7360   2.722   1.194   3.113
 1833SOL     OW 7361   2.946   1.295   3.028
 1833SOL    HW2 7362   3.017   1.243   3.063
 1833SOL    HW3 7363   2.956   1.380   3.071
 1833SOL    MW4 7364   2.957   1.300   3.039
 1834SOL     OW 7365   2.931   1.555   3.142
 1834SOL    HW2 7366   2.941   1.571   3.236
 1834SOL    HW3 7367   2.994   1.614   3.101
 1834SOL    MW4 7368   2.940   1.565   3.149
 1835SOL     OW 7369   2.686   1.682   3.020
 1835SOL    HW2 7370   2.758   1.640   3.068
 1835SOL    HW3 7371   2.607   1.635   3.050
 1835SOL    MW4 7372   2.685   1.670   3.031
 1836SOL     OW 7373   2.689   1.947   3.139
 1836SOL    HW2 7374   2.777   1.984   3.131
 1836SOL    HW3 7375   2.692   1.866   3.088
 1836SOL    MW4 7376   2.701   1.941   3.132
 1837SOL     OW 7377   2.927   2.071   3.068
 1837SOL    HW2 7378   2.913   2.162   3.094
 1837SOL    HW3 7379   2.912   2.071   2.973
 1837SOL    MW4 7380   2.923   2.083   3.059
 1838SOL     OW 7381   2.880   2.319   3.177
 1838SOL    HW2 7382   2.963   2.362   3.160
 1838SOL    HW3 7383   2.815   2.371   3.129
 1838SOL    MW4 7384   2.882   2.332   3.168
 1839SOL     OW 7385   2.687   2.482   3.054
 1839SOL    HW2 7386   2.692   2.562   3.108
 1839SOL    HW3 7387   2.627   2.425   3.101
 1839SOL    MW4 7388   2.680   2.485   3.067
 1840SOL     OW 7389   2.714   2.727   3.169
 1840SOL    HW2 7390   2.688   2.737   3.261
 1840SOL    HW3 7391   2.637   2.752   3.119
 1840SOL    MW4 7392   2.701   2.731   3.175
 1841SOL     OW 7393   2.926   2.851   3.053
 1841SOL    HW2 7394   3.003   2.803   3.084
 1841SOL    HW3 7395   2.852   2.810   3.099
 1841SOL    MW4 7396   2.926   2.839   3.063
 1842SOL     OW 7397   2.915   3.108   3.168
 1842SOL    HW2 7398   2.831   3.142   3.139
 1842SOL    HW3 7399   2.913   3.015   3.143
 1842SOL    MW4 7400   2.904   3.100   3.161
 1843SOL     OW 7401   2.676   3.222   3.048
 1843SOL    HW2 7402   2.660   3.309   3.084
 1843SOL    HW3 7403   2.679   3.236   2.953
 1843SOL    MW4 7404   2.674   3.235   3.040
 1844SOL     OW 7405   2.667   3.483   3.136
 1844SOL    HW2 7406   2.662   3.470   3.230
 1844SOL    HW3 7407   2.759   3.503   3.118
 1844SOL    MW4 7408   2.678   3.484   3.146
 1845SOL     OW 7409   2.920   3.557   3.063
 1845SOL    HW2 7410   3.008   3.521   3.077
 1845SOL    HW3 7411   2.923   3.642   3.107
 1845SOL    MW4 7412   2.932   3.564   3.071
 1846SOL     OW 7413   2.908   3.838   3.135
 1846SOL    HW2 7414   2.894   3.852   3.229
 1846SOL    HW3 7415   2.838   3.889   3.093
 1846SOL    MW4 7416   2.897   3.847   3.142
 1847SOL     OW 7417   2.662   3.996   3.045
 1847SOL    HW2 7418   2.662   4.088   3.071
 1847SOL    HW3 7419   2.652   3.998   2.950
 1847SOL    MW4 7420   2.660   4.008   3.036
 1848SOL     OW 7421   2.689   4.285   3.130
 1848SOL    HW2 7422   2.686   4.283   3.226
 1848SOL    HW3 7423   2.603   4.319   3.104
 1848SOL    MW4 7424   2.677   4.289   3.139
 1849SOL     OW 7425   2.903   4.404   3.009
 1849SOL    HW2 7426   2.981   4.353   3.031
 1849SOL    HW3 7427   2.830   4.355   3.047
 1849SOL    MW4 7428   2.904   4.391   3.017
 1850SOL     OW 7429   3.329   4.650   3.111
 1850SOL    HW2 7430   3.400   4.701   3.072
 1850SOL    HW3 7431   3.340   4.562   3.074
 1850SOL    MW4 7432   3.340   4.645   3.101
 1851SOL     OW 7433   3.122   0.120   3.040
 1851SOL    HW2 7434   3.125   0.205   3.084
 1851SOL    HW3 7435   3.197   0.072   3.075
 1851SOL    MW4 7436   3.133   0.125   3.050
 1852SOL     OW 7437   3.138   0.368   3.146
 1852SOL    HW2 7438   3.199   0.431   3.107
 1852SOL    HW3 7439   3.051   0.406   3.131
 1852SOL    MW4 7440   3.135   0.381   3.139
 1853SOL     OW 7441   3.356   0.494   3.017
 1853SOL    HW2 7442   3.441   0.462   3.046
 1853SOL    HW3 7443   3.365   0.504   2.923
 1853SOL    MW4 7444   3.368   0.491   3.009
 1854SOL     OW 7445   3.378   0.764   3.085
 1854SOL    HW2 7446   3.381   0.764   3.181
 1854SOL    HW3 7447   3.366   0.672   3.062
 1854SOL    MW4 7448   3.377   0.752   3.095
 1855SOL     OW 7449   3.157   0.903   3.035
 1855SOL    HW2 7450   3.227   0.839   3.047
 1855SOL    HW3 7451   3.079   0.860   3.070
 1855SOL    MW4 7452   3.156   0.889   3.041
 1856SOL     OW 7453   3.162   1.173   3.133
 1856SOL    HW2 7454   3.238   1.213   3.090
 1856SOL    HW3 7455   3.158   1.084   3.098
 1856SOL    MW4 7456   3.172   1.167   3.123
 1857SOL     OW 7457   3.373   1.314   3.001
 1857SOL    HW2 7458   3.448   1.264   3.034
 1857SOL    HW3 7459   3.384   1.401   3.039
 1857SOL    MW4 7460   3.385   1.319   3.010
 1858SOL     OW 7461   3.361   1.553   3.105
 1858SOL    HW2 7462   3.344   1.524   3.195
 1858SOL    HW3 7463   3.431   1.619   3.114
 1858SOL    MW4 7464   3.368   1.558   3.118
 1859SOL     OW 7465   3.132   1.686   3.021
 1859SOL    HW2 7466   3.213   1.637   3.031
 1859SOL    HW3 7467   3.124   1.701   2.927
 1859SOL    MW4 7468   3.142   1.682   3.010
 1860SOL     OW 7469   3.133   1.929   3.172
 1860SOL    HW2 7470   3.120   1.846   3.127
 1860SOL    HW3 7471   3.066   1.987   3.134
 1860SOL    MW4 7472   3.122   1.926   3.161
 1861SOL     OW 7473   3.323   2.081   3.042
 1861SOL    HW2 7474   3.404   2.060   3.089
 1861SOL    HW3 7475   3.256   2.029   3.085
 1861SOL    MW4 7476   3.325   2.072   3.054
 1862SOL     OW 7477   3.367   2.331   3.125
 1862SOL    HW2 7478   3.367   2.320   3.220
 1862SOL    HW3 7479   3.345   2.244   3.091
 1862SOL    MW4 7480   3.364   2.318   3.133
 1863SOL     OW 7481   3.108   2.443   3.065
 1863SOL    HW2 7482   3.185   2.393   3.092
 1863SOL    HW3 7483   3.107   2.436   2.969
 1863SOL    MW4 7484   3.118   2.436   3.056
 1864SOL     OW 7485   3.172   2.710   3.142
 1864SOL    HW2 7486   3.175   2.715   3.238
 1864SOL    HW3 7487   3.147   2.620   3.123
 1864SOL    MW4 7488   3.169   2.699   3.152
 1865SOL     OW 7489   3.371   2.860   3.030
 1865SOL    HW2 7490   3.359   2.948   3.065
 1865SOL    HW3 7491   3.298   2.809   3.067
 1865SOL    MW4 7492   3.359   2.865   3.039
 1866SOL     OW 7493   3.340   3.118   3.163
 1866SOL    HW2 7494   3.324   3.108   3.257
 1866SOL    HW3 7495   3.256   3.144   3.126
 1866SOL    MW4 7496   3.327   3.120   3.171
 1867SOL     OW 7497   3.123   3.213   3.030
 1867SOL    HW2 7498   3.046   3.169   3.066
 1867SOL    HW3 7499   3.097   3.235   2.940
 1867SOL    MW4 7500   3.109   3.210   3.023
 1868SOL     OW 7501   3.168   3.464   3.149
 1868SOL    HW2 7502   3.230   3.511   3.092
 1868SOL    HW3 7503   3.157   3.379   3.107
 1868SOL    MW4 7504   3.175   3.459   3.136
 1869SOL     OW 7505   3.372   3.624   3.030
 1869SOL    HW2 7506   3.452   3.588   3.069
 1869SOL    HW3 7507   3.365   3.712   3.067
 1869SOL    MW4 7508   3.381   3.631   3.040
 1870SOL     OW 7509   3.359   3.900   3.132
 1870SOL    HW2 7510   3.349   3.896   3.227
 1870SOL    HW3 7511   3.277   3.938   3.101
 1870SOL    MW4 7512   3.347   3.905   3.141
 1871SOL     OW 7513   3.123   4.006   3.053
 1871SOL    HW2 7514   3.043   3.960   3.079
 1871SOL    HW3 7515   3.120   4.005   2.957
 1871SOL    MW4 7516   3.112   4.000   3.044
 1872SOL     OW 7517   3.120   4.279   3.108
 1872SOL    HW2 7518   3.121   4.290   3.203
 1872SOL    HW3 7519   3.132   4.185   3.094
 1872SOL    MW4 7520   3.122   4.268   3.119
 1873SOL     OW 7521   3.348   4.394   2.987
 1873SOL    HW2 7522   3.411   4.348   3.042
 1873SOL    HW3 7523   3.262   4.363   3.016
 1873SOL    MW4 7524   3.345   4.384   2.998
 1874SOL     OW 7525   3.771   0.018   3.140
 1874SOL    HW2 7526   3.795  -0.066   3.099
 1874SOL    HW3 7527   3.688   0.042   3.100
 1874SOL    MW4 7528   3.763   0.010   3.130
 1875SOL     OW 7529   3.560   0.140   2.996
 1875SOL    HW2 7530   3.568   0.232   3.020
 1875SOL    HW3 7531   3.552   0.141   2.900
 1875SOL    MW4 7532   3.560   0.152   2.986
 1876SOL     OW 7533   3.590   0.388   3.124
 1876SOL    HW2 7534   3.594   0.391   3.219
 1876SOL    HW3 7535   3.667   0.437   3.095
 1876SOL    MW4 7536   3.601   0.395   3.132
 1877SOL     OW 7537   3.800   0.546   2.996
 1877SOL    HW2 7538   3.873   0.504   3.042
 1877SOL    HW3 7539   3.795   0.633   3.035
 1877SOL    MW4 7540   3.809   0.552   3.008
 1878SOL     OW 7541   3.828   0.796   3.120
 1878SOL    HW2 7542   3.828   0.796   3.216
 1878SOL    HW3 7543   3.913   0.834   3.096
 1878SOL    MW4 7544   3.839   0.801   3.129
 1879SOL     OW 7545   3.594   0.925   3.025
 1879SOL    HW2 7546   3.671   0.874   3.053
 1879SOL    HW3 7547   3.521   0.864   3.034
 1879SOL    MW4 7548   3.595   0.910   3.030
 1880SOL     OW 7549   3.582   1.180   3.123
 1880SOL    HW2 7550   3.660   1.226   3.094
 1880SOL    HW3 7551   3.592   1.091   3.088
 1880SOL    MW4 7552   3.593   1.174   3.114
 1881SOL     OW 7553   3.824   1.288   3.054
 1881SOL    HW2 7554   3.825   1.380   3.080
 1881SOL    HW3 7555   3.839   1.289   2.960
 1881SOL    MW4 7556   3.826   1.300   3.045
 1882SOL     OW 7557   3.799   1.576   3.111
 1882SOL    HW2 7558   3.809   1.571   3.206
 1882SOL    HW3 7559   3.716   1.623   3.099
 1882SOL    MW4 7560   3.789   1.582   3.122
 1883SOL     OW 7561   3.576   1.721   3.072
 1883SOL    HW2 7562   3.561   1.813   3.096
 1883SOL    HW3 7563   3.560   1.718   2.978
 1883SOL    MW4 7564   3.572   1.733   3.063
 1884SOL     OW 7565   3.562   1.985   3.140
 1884SOL    HW2 7566   3.580   1.969   3.233
 1884SOL    HW3 7567   3.647   2.008   3.103
 1884SOL    MW4 7568   3.576   1.986   3.147
 1885SOL     OW 7569   3.828   2.039   3.064
 1885SOL    HW2 7570   3.839   2.130   3.092
 1885SOL    HW3 7571   3.831   2.043   2.968
 1885SOL    MW4 7572   3.829   2.052   3.055
 1886SOL     OW 7573   3.806   2.331   3.138
 1886SOL    HW2 7574   3.775   2.326   3.229
 1886SOL    HW3 7575   3.733   2.371   3.090
 1886SOL    MW4 7576   3.792   2.335   3.144
 1887SOL     OW 7577   3.587   2.448   3.020
 1887SOL    HW2 7578   3.598   2.540   3.045
 1887SOL    HW3 7579   3.508   2.420   3.066
 1887SOL    MW4 7580   3.578   2.457   3.029
 1888SOL     OW 7581   3.612   2.717   3.100
 1888SOL    HW2 7582   3.691   2.771   3.091
 1888SOL    HW3 7583   3.541   2.776   3.077
 1888SOL    MW4 7584   3.613   2.732   3.096
 1889SOL     OW 7585   3.837   2.858   3.054
 1889SOL    HW2 7586   3.789   2.933   3.090
 1889SOL    HW3 7587   3.815   2.859   2.961
 1889SOL    MW4 7588   3.827   2.868   3.047
 1890SOL     OW 7589   3.766   3.107   3.162
 1890SOL    HW2 7590   3.834   3.140   3.104
 1890SOL    HW3 7591   3.691   3.164   3.145
 1890SOL    MW4 7592   3.765   3.119   3.152
 1891SOL     OW 7593   3.563   3.272   3.069
 1891SOL    HW2 7594   3.478   3.238   3.096
 1891SOL    HW3 7595   3.572   3.246   2.977
 1891SOL    MW4 7596   3.553   3.264   3.060
 1892SOL     OW 7597   3.603   3.532   3.146
 1892SOL    HW2 7598   3.681   3.572   3.108
 1892SOL    HW3 7599   3.601   3.443   3.110
 1892SOL    MW4 7600   3.613   3.525   3.136
 1893SOL     OW 7601   3.841   3.643   3.038
 1893SOL    HW2 7602   3.822   3.734   3.060
 1893SOL    HW3 7603   3.830   3.639   2.943
 1893SOL    MW4 7604   3.837   3.655   3.028
 1894SOL     OW 7605   3.764   3.891   3.123
 1894SOL    HW2 7606   3.765   3.891   3.218
 1894SOL    HW3 7607   3.684   3.939   3.099
 1894SOL    MW4 7608   3.753   3.897   3.132
 1895SOL     OW 7609   3.560   4.051   3.030
 1895SOL    HW2 7610   3.482   4.001   3.053
 1895SOL    HW3 7611   3.562   4.050   2.934
 1895SOL    MW4 7612   3.550   4.044   3.020
 1896SOL     OW 7613   3.586   4.310   3.125
 1896SOL    HW2 7614   3.665   4.351   3.089
 1896SOL    HW3 7615   3.594   4.217   3.100
 1896SOL    MW4 7616   3.597   4.303   3.117
 1897SOL     OW 7617   3.797   4.424   2.996
 1897SOL    HW2 7618   3.872   4.371   3.022
 1897SOL    HW3 7619   3.789   4.409   2.902
 1897SOL    MW4 7620   3.806   4.415   2.987
 1898SOL     OW 7621   4.219   4.657   3.083
 1898SOL    HW2 7622   4.228   4.651   3.178
 1898SOL    HW3 7623   4.233   4.567   3.051
 1898SOL    MW4 7624   4.222   4.644   3.091
 1899SOL     OW 7625   3.980   0.162   3.016
 1899SOL    HW2 7626   4.050   0.106   3.049
 1899SOL    HW3 7627   3.900   0.116   3.040
 1899SOL    MW4 7628   3.979   0.149   3.024
 1900SOL     OW 7629   3.993   0.394   3.159
 1900SOL    HW2 7630   4.067   0.434   3.114
 1900SOL    HW3 7631   3.982   0.308   3.117
 1900SOL    MW4 7632   4.001   0.388   3.148
 1901SOL     OW 7633   4.187   0.491   2.993
 1901SOL    HW2 7634   4.203   0.575   3.034
 1901SOL    HW3 7635   4.228   0.498   2.907
 1901SOL    MW4 7636   4.195   0.503   2.987
 1902SOL     OW 7637   4.262   0.744   3.087
 1902SOL    HW2 7638   4.187   0.804   3.095
 1902SOL    HW3 7639   4.330   0.798   3.046
 1902SOL    MW4 7640   4.261   0.759   3.082
 1903SOL     OW 7641   4.062   0.922   3.042
 1903SOL    HW2 7642   4.040   1.005   3.084
 1903SOL    HW3 7643   4.021   0.928   2.956
 1903SOL    MW4 7644   4.054   0.934   3.036
 1904SOL     OW 7645   4.048   1.184   3.139
 1904SOL    HW2 7646   4.040   1.170   3.234
 1904SOL    HW3 7647   3.965   1.225   3.114
 1904SOL    MW4 7648   4.036   1.188   3.148
 1905SOL     OW 7649   4.283   1.309   3.063
 1905SOL    HW2 7650   4.202   1.266   3.092
 1905SOL    HW3 7651   4.281   1.301   2.968
 1905SOL    MW4 7652   4.272   1.302   3.054
 1906SOL     OW 7653   4.290   1.560   3.173
 1906SOL    HW2 7654   4.215   1.600   3.128
 1906SOL    HW3 7655   4.288   1.468   3.146
 1906SOL    MW4 7656   4.280   1.553   3.163
 1907SOL     OW 7657   4.058   1.688   3.067
 1907SOL    HW2 7658   4.052   1.771   3.114
 1907SOL    HW3 7659   3.969   1.652   3.072
 1907SOL    MW4 7660   4.045   1.694   3.074
 1908SOL     OW 7661   4.050   1.931   3.192
 1908SOL    HW2 7662   4.120   1.968   3.138
 1908SOL    HW3 7663   3.970   1.971   3.159
 1908SOL    MW4 7664   4.049   1.941   3.180
 1909SOL     OW 7665   4.249   2.077   3.034
 1909SOL    HW2 7666   4.249   2.168   3.065
 1909SOL    HW3 7667   4.239   2.084   2.940
 1909SOL    MW4 7668   4.248   2.090   3.026
 1910SOL     OW 7669   4.249   2.345   3.115
 1910SOL    HW2 7670   4.167   2.378   3.078
 1910SOL    HW3 7671   4.317   2.395   3.069
 1910SOL    MW4 7672   4.247   2.356   3.104
 1911SOL     OW 7673   4.006   2.467   3.025
 1911SOL    HW2 7674   4.005   2.551   3.071
 1911SOL    HW3 7675   3.935   2.417   3.065
 1911SOL    MW4 7676   3.996   2.472   3.036
 1912SOL     OW 7677   4.049   2.709   3.149
 1912SOL    HW2 7678   4.048   2.696   3.244
 1912SOL    HW3 7679   3.968   2.757   3.130
 1912SOL    MW4 7680   4.038   2.714   3.159
 1913SOL     OW 7681   4.281   2.832   3.058
 1913SOL    HW2 7682   4.198   2.790   3.082
 1913SOL    HW3 7683   4.348   2.772   3.090
 1913SOL    MW4 7684   4.279   2.819   3.065
 1914SOL     OW 7685   4.214   3.085   3.158
 1914SOL    HW2 7686   4.130   3.110   3.121
 1914SOL    HW3 7687   4.234   3.000   3.117
 1914SOL    MW4 7688   4.206   3.077   3.148
 1915SOL     OW 7689   3.980   3.226   3.040
 1915SOL    HW2 7690   3.994   3.313   3.078
 1915SOL    HW3 7691   3.985   3.241   2.945
 1915SOL    MW4 7692   3.983   3.239   3.032
 1916SOL     OW 7693   4.054   3.483   3.141
 1916SOL    HW2 7694   4.056   3.494   3.236
 1916SOL    HW3 7695   3.981   3.537   3.112
 1916SOL    MW4 7696   4.045   3.492   3.150
 1917SOL     OW 7697   4.279   3.601   3.007
 1917SOL    HW2 7698   4.258   3.685   3.049
 1917SOL    HW3 7699   4.210   3.542   3.035
 1917SOL    MW4 7700   4.267   3.604   3.016
 1918SOL     OW 7701   4.214   3.853   3.099
 1918SOL    HW2 7702   4.150   3.913   3.060
 1918SOL    HW3 7703   4.299   3.894   3.080
 1918SOL    MW4 7704   4.217   3.866   3.091
 1919SOL     OW 7705   4.000   4.001   3.001
 1919SOL    HW2 7706   3.995   4.094   3.023
 1919SOL    HW3 7707   3.919   3.963   3.034
 1919SOL    MW4 7708   3.989   4.008   3.008
 1920SOL     OW 7709   4.008   4.275   3.097
 1920SOL    HW2 7710   3.992   4.276   3.191
 1920SOL    HW3 7711   4.095   4.312   3.086
 1920SOL    MW4 7712   4.017   4.280   3.108
 1921SOL     OW 7713   4.254   4.392   3.018
 1921SOL    HW2 7714   4.330   4.339   3.041
 1921SOL    HW3 7715   4.260   4.401   2.923
 1921SOL    MW4 7716   4.265   4.386   3.008
 1922SOL     OW 7717   0.214   4.640   3.364
 1922SOL    HW2 7718   0.272   4.695   3.417
 1922SOL    HW3 7719   0.218   4.554   3.405
 1922SOL    MW4 7720   0.222   4.636   3.376
 1923SOL     OW 7721   4.463   0.114   3.448
 1923SOL    HW2 7722   4.468   0.204   3.417
 1923SOL    HW3 7723   4.547   0.075   3.424
 1923SOL    MW4 7724   4.474   0.121   3.441
 1924SOL     OW 7725   0.013   0.378   3.352
 1924SOL    HW2 7726  -0.061   0.420   3.397
 1924SOL    HW3 7727   0.090   0.405   3.402
 1924SOL    MW4 7728   0.013   0.387   3.365
 1925SOL     OW 7729   0.226   0.503   3.504
 1925SOL    HW2 7730   0.292   0.459   3.450
 1925SOL    HW3 7731   0.208   0.584   3.456
 1925SOL    MW4 7732   0.233   0.508   3.491
 1926SOL     OW 7733   0.159   0.764   3.373
 1926SOL    HW2 7734   0.236   0.813   3.401
 1926SOL    HW3 7735   0.084   0.813   3.408
 1926SOL    MW4 7736   0.159   0.777   3.381
 1927SOL     OW 7737   4.438   0.891   3.508
 1927SOL    HW2 7738   4.456   0.854   3.594
 1927SOL    HW3 7739   4.418   0.983   3.525
 1927SOL    MW4 7740   4.438   0.898   3.521
 1928SOL     OW 7741   4.425   1.171   3.426
 1928SOL    HW2 7742   4.505   1.213   3.459
 1928SOL    HW3 7743   4.442   1.158   3.332
 1928SOL    MW4 7744   4.438   1.175   3.418
 1929SOL     OW 7745   0.195   1.268   3.518
 1929SOL    HW2 7746   0.256   1.219   3.462
 1929SOL    HW3 7747   0.208   1.359   3.493
 1929SOL    MW4 7748   0.205   1.273   3.507
 1930SOL     OW 7749   0.183   1.538   3.401
 1930SOL    HW2 7750   0.255   1.592   3.434
 1930SOL    HW3 7751   0.206   1.521   3.310
 1930SOL    MW4 7752   0.196   1.543   3.393
 1931SOL     OW 7753   4.472   1.682   3.533
 1931SOL    HW2 7754   4.387   1.643   3.511
 1931SOL    HW3 7755   4.537   1.624   3.492
 1931SOL    MW4 7756   4.470   1.669   3.524
 1932SOL     OW 7757   4.457   1.941   3.423
 1932SOL    HW2 7758   4.454   1.850   3.454
 1932SOL    HW3 7759   4.476   1.934   3.329
 1932SOL    MW4 7760   4.459   1.928   3.415
 1933SOL     OW 7761   0.221   2.026   3.517
 1933SOL    HW2 7762   0.222   2.009   3.611
 1933SOL    HW3 7763   0.140   1.986   3.487
 1933SOL    MW4 7764   0.210   2.019   3.526
 1934SOL     OW 7765   0.268   2.277   3.398
 1934SOL    HW2 7766   0.202   2.336   3.434
 1934SOL    HW3 7767   0.256   2.195   3.448
 1934SOL    MW4 7768   0.258   2.274   3.410
 1935SOL     OW 7769   0.048   2.442   3.498
 1935SOL    HW2 7770   0.023   2.430   3.590
 1935SOL    HW3 7771  -0.030   2.418   3.449
 1935SOL    MW4 7772   0.035   2.437   3.504
 1936SOL     OW 7773   0.016   2.721   3.422
 1936SOL    HW2 7774   0.078   2.771   3.475
 1936SOL    HW3 7775   0.029   2.630   3.449
 1936SOL    MW4 7776   0.026   2.716   3.432
 1937SOL     OW 7777   0.231   2.844   3.552
 1937SOL    HW2 7778   0.302   2.801   3.504
 1937SOL    HW3 7779   0.242   2.937   3.531
 1937SOL    MW4 7780   0.242   2.851   3.543
 1938SOL     OW 7781   0.229   3.085   3.431
 1938SOL    HW2 7782   0.154   3.136   3.461
 1938SOL    HW3 7783   0.230   3.097   3.336
 1938SOL    MW4 7784   0.219   3.093   3.423
 1939SOL     OW 7785   4.490   3.231   3.511
 1939SOL    HW2 7786   4.410   3.182   3.493
 1939SOL    HW3 7787   4.473   3.319   3.475
 1939SOL    MW4 7788   4.477   3.236   3.504
 1940SOL     OW 7789   0.001   3.492   3.404
 1940SOL    HW2 7790  -0.080   3.540   3.421
 1940SOL    HW3 7791   0.010   3.494   3.308
 1940SOL    MW4 7792  -0.009   3.498   3.393
 1941SOL     OW 7793   0.218   3.634   3.475
 1941SOL    HW2 7794   0.230   3.631   3.570
 1941SOL    HW3 7795   0.139   3.583   3.459
 1941SOL    MW4 7796   0.209   3.627   3.485
 1942SOL     OW 7797   0.235   3.911   3.366
 1942SOL    HW2 7798   0.148   3.935   3.397
 1942SOL    HW3 7799   0.246   3.820   3.393
 1942SOL    MW4 7800   0.225   3.902   3.374
 1943SOL     OW 7801   4.483   4.017   3.453
 1943SOL    HW2 7802   4.473   4.007   3.547
 1943SOL    HW3 7803   4.485   4.112   3.439
 1943SOL    MW4 7804   4.482   4.028   3.463
 1944SOL     OW 7805   4.474   4.280   3.413
 1944SOL    HW2 7806   4.391   4.322   3.436
 1944SOL    HW3 7807   4.541   4.341   3.444
 1944SOL    MW4 7808   4.472   4.294   3.420
 1945SOL     OW 7809   0.201   4.409   3.512
 1945SOL    HW2 7810   0.200   4.418   3.607
 1945SOL    HW3 7811   0.277   4.353   3.494
 1945SOL    MW4 7812   0.211   4.403   3.522
 1946SOL     OW 7813   0.625   4.658   3.430
 1946SOL    HW2 7814   0.689   4.712   3.477
 1946SOL    HW3 7815   0.652   4.663   3.338
 1946SOL    MW4 7816   0.637   4.666   3.424
 1947SOL     OW 7817   0.405   0.120   3.500
 1947SOL    HW2 7818   0.402   0.101   3.593
 1947SOL    HW3 7819   0.475   0.064   3.466
 1947SOL    MW4 7820   0.413   0.110   3.508
 1948SOL     OW 7821   0.421   0.377   3.361
 1948SOL    HW2 7822   0.491   0.423   3.408
 1948SOL    HW3 7823   0.419   0.290   3.400
 1948SOL    MW4 7824   0.430   0.372   3.372
 1949SOL     OW 7825   0.635   0.503   3.482
 1949SOL    HW2 7826   0.634   0.499   3.577
 1949SOL    HW3 7827   0.721   0.466   3.458
 1949SOL    MW4 7828   0.646   0.497   3.491
 1950SOL     OW 7829   0.617   0.765   3.407
 1950SOL    HW2 7830   0.528   0.794   3.422
 1950SOL    HW3 7831   0.617   0.672   3.431
 1950SOL    MW4 7832   0.606   0.757   3.412
 1951SOL     OW 7833   0.388   0.911   3.468
 1951SOL    HW2 7834   0.385   0.912   3.564
 1951SOL    HW3 7835   0.414   1.000   3.444
 1951SOL    MW4 7836   0.391   0.923   3.478
 1952SOL     OW 7837   0.388   1.172   3.372
 1952SOL    HW2 7838   0.468   1.201   3.416
 1952SOL    HW3 7839   0.416   1.151   3.283
 1952SOL    MW4 7840   0.402   1.173   3.366
 1953SOL     OW 7841   0.632   1.252   3.476
 1953SOL    HW2 7842   0.713   1.213   3.443
 1953SOL    HW3 7843   0.634   1.342   3.442
 1953SOL    MW4 7844   0.643   1.259   3.467
 1954SOL     OW 7845   0.629   1.505   3.389
 1954SOL    HW2 7846   0.704   1.559   3.413
 1954SOL    HW3 7847   0.556   1.541   3.439
 1954SOL    MW4 7848   0.629   1.516   3.399
 1955SOL     OW 7849   0.418   1.640   3.501
 1955SOL    HW2 7850   0.430   1.645   3.596
 1955SOL    HW3 7851   0.417   1.731   3.472
 1955SOL    MW4 7852   0.420   1.653   3.510
 1956SOL     OW 7853   0.434   1.909   3.401
 1956SOL    HW2 7854   0.362   1.967   3.426
 1956SOL    HW3 7855   0.466   1.944   3.318
 1956SOL    MW4 7856   0.429   1.921   3.394
 1957SOL     OW 7857   0.667   2.025   3.505
 1957SOL    HW2 7858   0.674   2.020   3.600
 1957SOL    HW3 7859   0.584   1.984   3.484
 1957SOL    MW4 7860   0.657   2.019   3.515
 1958SOL     OW 7861   0.688   2.304   3.438
 1958SOL    HW2 7862   0.780   2.329   3.430
 1958SOL    HW3 7863   0.690   2.220   3.485
 1958SOL    MW4 7864   0.700   2.296   3.443
 1959SOL     OW 7865   0.468   2.456   3.508
 1959SOL    HW2 7866   0.551   2.411   3.497
 1959SOL    HW3 7867   0.407   2.410   3.451
 1959SOL    MW4 7868   0.471   2.444   3.499
 1960SOL     OW 7869   0.435   2.716   3.433
 1960SOL    HW2 7870   0.453   2.627   3.462
 1960SOL    HW3 7871   0.431   2.710   3.338
 1960SOL    MW4 7872   0.437   2.704   3.425
 1961SOL     OW 7873   0.684   2.880   3.446
 1961SOL    HW2 7874   0.737   2.801   3.434
 1961SOL    HW3 7875   0.594   2.849   3.447
 1961SOL    MW4 7876   0.679   2.865   3.444
 1962SOL     OW 7877   0.697   3.157   3.386
 1962SOL    HW2 7878   0.621   3.205   3.417
 1962SOL    HW3 7879   0.685   3.068   3.419
 1962SOL    MW4 7880   0.686   3.151   3.394
 1963SOL     OW 7881   0.459   3.272   3.497
 1963SOL    HW2 7882   0.469   3.240   3.586
 1963SOL    HW3 7883   0.379   3.229   3.465
 1963SOL    MW4 7884   0.450   3.262   3.504
 1964SOL     OW 7885   0.464   3.540   3.437
 1964SOL    HW2 7886   0.466   3.450   3.470
 1964SOL    HW3 7887   0.374   3.569   3.454
 1964SOL    MW4 7888   0.452   3.532   3.444
 1965SOL     OW 7889   0.716   3.626   3.561
 1965SOL    HW2 7890   0.796   3.599   3.516
 1965SOL    HW3 7891   0.649   3.564   3.530
 1965SOL    MW4 7892   0.717   3.614   3.551
 1966SOL     OW 7893   0.688   3.850   3.386
 1966SOL    HW2 7894   0.614   3.907   3.409
 1966SOL    HW3 7895   0.682   3.778   3.448
 1966SOL    MW4 7896   0.677   3.848   3.397
 1967SOL     OW 7897   0.472   3.992   3.452
 1967SOL    HW2 7898   0.473   4.088   3.458
 1967SOL    HW3 7899   0.384   3.971   3.421
 1967SOL    MW4 7900   0.460   4.002   3.449
 1968SOL     OW 7901   0.442   4.257   3.451
 1968SOL    HW2 7902   0.523   4.296   3.485
 1968SOL    HW3 7903   0.449   4.267   3.356
 1968SOL    MW4 7904   0.454   4.264   3.442
 1969SOL     OW 7905   0.662   4.399   3.548
 1969SOL    HW2 7906   0.738   4.365   3.502
 1969SOL    HW3 7907   0.662   4.493   3.529
 1969SOL    MW4 7908   0.672   4.407   3.540
 1970SOL     OW 7909   1.043   0.014   3.439
 1970SOL    HW2 7910   1.132   0.034   3.466
 1970SOL    HW3 7911   1.047   0.010   3.343
 1970SOL    MW4 7912   1.055   0.016   3.429
 1971SOL     OW 7913   0.837   0.161   3.545
 1971SOL    HW2 7914   0.861   0.164   3.638
 1971SOL    HW3 7915   0.904   0.106   3.505
 1971SOL    MW4 7916   0.849   0.154   3.552
 1972SOL     OW 7917   0.854   0.382   3.376
 1972SOL    HW2 7918   0.934   0.429   3.400
 1972SOL    HW3 7919   0.855   0.303   3.431
 1972SOL    MW4 7920   0.865   0.377   3.387
 1973SOL     OW 7921   1.087   0.537   3.462
 1973SOL    HW2 7922   1.096   0.551   3.556
 1973SOL    HW3 7923   1.099   0.624   3.424
 1973SOL    MW4 7924   1.090   0.550   3.469
 1974SOL     OW 7925   1.104   0.795   3.367
 1974SOL    HW2 7926   1.172   0.826   3.428
 1974SOL    HW3 7927   1.022   0.812   3.413
 1974SOL    MW4 7928   1.102   0.802   3.381
 1975SOL     OW 7929   0.840   0.870   3.522
 1975SOL    HW2 7930   0.845   0.961   3.495
 1975SOL    HW3 7931   0.758   0.838   3.484
 1975SOL    MW4 7932   0.830   0.878   3.514
 1976SOL     OW 7933   0.869   1.111   3.403
 1976SOL    HW2 7934   0.938   1.170   3.434
 1976SOL    HW3 7935   0.871   1.119   3.308
 1976SOL    MW4 7936   0.879   1.120   3.394
 1977SOL     OW 7937   1.095   1.269   3.492
 1977SOL    HW2 7938   1.114   1.261   3.585
 1977SOL    HW3 7939   1.106   1.363   3.474
 1977SOL    MW4 7940   1.099   1.281   3.502
 1978SOL     OW 7941   1.109   1.536   3.398
 1978SOL    HW2 7942   1.195   1.569   3.423
 1978SOL    HW3 7943   1.104   1.551   3.303
 1978SOL    MW4 7944   1.119   1.543   3.388
 1979SOL     OW 7945   0.847   1.649   3.455
 1979SOL    HW2 7946   0.869   1.741   3.440
 1979SOL    HW3 7947   0.927   1.601   3.434
 1979SOL    MW4 7948   0.860   1.655   3.450
 1980SOL     OW 7949   0.882   1.928   3.389
 1980SOL    HW2 7950   0.951   1.978   3.433
 1980SOL    HW3 7951   0.801   1.959   3.428
 1980SOL    MW4 7952   0.881   1.939   3.400
 1981SOL     OW 7953   1.126   2.006   3.488
 1981SOL    HW2 7954   1.176   1.950   3.428
 1981SOL    HW3 7955   1.150   2.095   3.463
 1981SOL    MW4 7956   1.136   2.010   3.477
 1982SOL     OW 7957   1.155   2.258   3.363
 1982SOL    HW2 7958   1.212   2.332   3.384
 1982SOL    HW3 7959   1.149   2.258   3.268
 1982SOL    MW4 7960   1.162   2.268   3.354
 1983SOL     OW 7961   0.943   2.403   3.446
 1983SOL    HW2 7962   0.936   2.398   3.541
 1983SOL    HW3 7963   1.019   2.348   3.425
 1983SOL    MW4 7964   0.952   2.395   3.456
 1984SOL     OW 7965   0.861   2.681   3.393
 1984SOL    HW2 7966   0.932   2.742   3.411
 1984SOL    HW3 7967   0.897   2.595   3.416
 1984SOL    MW4 7968   0.875   2.678   3.398
 1985SOL     OW 7969   1.071   2.846   3.475
 1985SOL    HW2 7970   1.082   2.842   3.570
 1985SOL    HW3 7971   1.151   2.809   3.439
 1985SOL    MW4 7972   1.083   2.841   3.483
 1986SOL     OW 7973   1.115   3.088   3.360
 1986SOL    HW2 7974   1.082   3.006   3.396
 1986SOL    HW3 7975   1.101   3.081   3.265
 1986SOL    MW4 7976   1.109   3.076   3.352
 1987SOL     OW 7977   0.946   3.258   3.515
 1987SOL    HW2 7978   1.015   3.209   3.470
 1987SOL    HW3 7979   0.865   3.230   3.472
 1987SOL    MW4 7980   0.944   3.248   3.504
 1988SOL     OW 7981   0.927   3.511   3.420
 1988SOL    HW2 7982   0.917   3.422   3.455
 1988SOL    HW3 7983   0.903   3.504   3.328
 1988SOL    MW4 7984   0.922   3.498   3.413
 1989SOL     OW 7985   1.162   3.614   3.506
 1989SOL    HW2 7986   1.146   3.600   3.599
 1989SOL    HW3 7987   1.080   3.589   3.463
 1989SOL    MW4 7988   1.149   3.609   3.513
 1990SOL     OW 7989   1.125   3.887   3.428
 1990SOL    HW2 7990   1.204   3.935   3.455
 1990SOL    HW3 7991   1.133   3.802   3.471
 1990SOL    MW4 7992   1.137   3.882   3.437
 1991SOL     OW 7993   0.890   4.021   3.486
 1991SOL    HW2 7994   0.968   3.977   3.453
 1991SOL    HW3 7995   0.817   3.970   3.448
 1991SOL    MW4 7996   0.890   4.008   3.476
 1992SOL     OW 7997   0.890   4.298   3.439
 1992SOL    HW2 7998   0.899   4.206   3.464
 1992SOL    HW3 7999   0.891   4.297   3.343
 1992SOL    MW4 8000   0.891   4.286   3.430
 1993SOL     OW 8001   1.088   4.433   3.560
 1993SOL    HW2 8002   1.025   4.368   3.530
 1993SOL    HW3 8003   1.052   4.517   3.532
 1993SOL    MW4 8004   1.075   4.435   3.552
 1994SOL     OW 8005   1.557   0.011   3.392
 1994SOL    HW2 8006   1.554  -0.072   3.439
 1994SOL    HW3 8007   1.480   0.059   3.424
 1994SOL    MW4 8008   1.546   0.007   3.403
 1995SOL     OW 8009   1.307   0.132   3.471
 1995SOL    HW2 8010   1.318   0.123   3.566
 1995SOL    HW3 8011   1.320   0.225   3.454
 1995SOL    MW4 8012   1.310   0.143   3.481
 1996SOL     OW 8013   1.338   0.407   3.381
 1996SOL    HW2 8014   1.415   0.441   3.426
 1996SOL    HW3 8015   1.264   0.450   3.424
 1996SOL    MW4 8016   1.338   0.417   3.393
 1997SOL     OW 8017   1.556   0.530   3.516
 1997SOL    HW2 8018   1.564   0.527   3.611
 1997SOL    HW3 8019   1.628   0.476   3.484
 1997SOL    MW4 8020   1.567   0.522   3.524
 1998SOL     OW 8021   1.534   0.782   3.379
 1998SOL    HW2 8022   1.465   0.825   3.429
 1998SOL    HW3 8023   1.542   0.695   3.417
 1998SOL    MW4 8024   1.526   0.777   3.391
 1999SOL     OW 8025   1.314   0.878   3.514
 1999SOL    HW2 8026   1.332   0.901   3.605
 1999SOL    HW3 8027   1.305   0.962   3.469
 1999SOL    MW4 8028   1.315   0.892   3.520
 2000SOL     OW 8029   1.307   1.120   3.385
 2000SOL    HW2 8030   1.391   1.162   3.407
 2000SOL    HW3 8031   1.242   1.173   3.431
 2000SOL    MW4 8032   1.309   1.133   3.394
 2001SOL     OW 8033   1.551   1.225   3.453
 2001SOL    HW2 8034   1.580   1.238   3.544
 2001SOL    HW3 8035   1.629   1.190   3.409
 2001SOL    MW4 8036   1.565   1.222   3.459
 2002SOL     OW 8037   1.572   1.480   3.385
 2002SOL    HW2 8038   1.561   1.388   3.409
 2002SOL    HW3 8039   1.607   1.478   3.296
 2002SOL    MW4 8040   1.575   1.468   3.377
 2003SOL     OW 8041   1.361   1.642   3.463
 2003SOL    HW2 8042   1.369   1.641   3.558
 2003SOL    HW3 8043   1.420   1.572   3.434
 2003SOL    MW4 8044   1.370   1.633   3.472
 2004SOL     OW 8045   1.308   1.885   3.324
 2004SOL    HW2 8046   1.365   1.948   3.368
 2004SOL    HW3 8047   1.329   1.801   3.365
 2004SOL    MW4 8048   1.318   1.882   3.335
 2005SOL     OW 8049   1.503   2.031   3.462
 2005SOL    HW2 8050   1.586   1.997   3.428
 2005SOL    HW3 8051   1.505   2.124   3.440
 2005SOL    MW4 8052   1.514   2.039   3.455
 2006SOL     OW 8053   1.551   2.304   3.404
 2006SOL    HW2 8054   1.468   2.347   3.422
 2006SOL    HW3 8055   1.561   2.311   3.309
 2006SOL    MW4 8056   1.541   2.311   3.394
 2007SOL     OW 8057   1.327   2.442   3.488
 2007SOL    HW2 8058   1.329   2.438   3.584
 2007SOL    HW3 8059   1.312   2.535   3.469
 2007SOL    MW4 8060   1.325   2.454   3.498
 2008SOL     OW 8061   1.290   2.704   3.391
 2008SOL    HW2 8062   1.365   2.756   3.419
 2008SOL    HW3 8063   1.294   2.705   3.295
 2008SOL    MW4 8064   1.300   2.711   3.382
 2009SOL     OW 8065   1.529   2.848   3.465
 2009SOL    HW2 8066   1.605   2.798   3.435
 2009SOL    HW3 8067   1.546   2.937   3.435
 2009SOL    MW4 8068   1.541   2.853   3.457
 2010SOL     OW 8069   1.563   3.117   3.388
 2010SOL    HW2 8070   1.642   3.156   3.424
 2010SOL    HW3 8071   1.491   3.167   3.428
 2010SOL    MW4 8072   1.564   3.129   3.398
 2011SOL     OW 8073   1.314   3.252   3.463
 2011SOL    HW2 8074   1.308   3.248   3.559
 2011SOL    HW3 8075   1.247   3.191   3.433
 2011SOL    MW4 8076   1.305   3.243   3.472
 2012SOL     OW 8077   1.340   3.492   3.345
 2012SOL    HW2 8078   1.339   3.401   3.376
 2012SOL    HW3 8079   1.286   3.539   3.409
 2012SOL    MW4 8080   1.333   3.486   3.358
 2013SOL     OW 8081   1.565   3.626   3.488
 2013SOL    HW2 8082   1.562   3.616   3.583
 2013SOL    HW3 8083   1.487   3.581   3.457
 2013SOL    MW4 8084   1.554   3.619   3.497
 2014SOL     OW 8085   1.574   3.883   3.431
 2014SOL    HW2 8086   1.584   3.796   3.470
 2014SOL    HW3 8087   1.553   3.867   3.339
 2014SOL    MW4 8088   1.572   3.870   3.424
 2015SOL     OW 8089   1.333   4.032   3.534
 2015SOL    HW2 8090   1.338   4.124   3.507
 2015SOL    HW3 8091   1.407   3.990   3.490
 2015SOL    MW4 8092   1.343   4.038   3.524
 2016SOL     OW 8093   1.339   4.317   3.463
 2016SOL    HW2 8094   1.257   4.357   3.490
 2016SOL    HW3 8095   1.335   4.315   3.367
 2016SOL    MW4 8096   1.328   4.322   3.454
 2017SOL     OW 8097   1.572   4.437   3.518
 2017SOL    HW2 8098   1.643   4.384   3.483
 2017SOL    HW3 8099   1.492   4.389   3.494
 2017SOL    MW4 8100   1.571   4.424   3.510
 2018SOL     OW 8101   2.014   0.009   3.387
 2018SOL    HW2 8102   2.092   0.047   3.428
 2018SOL    HW3 8103   1.941   0.049   3.434
 2018SOL    MW4 8104   2.015   0.019   3.399
 2019SOL     OW 8105   1.789   0.107   3.520
 2019SOL    HW2 8106   1.776   0.113   3.615
 2019SOL    HW3 8107   1.718   0.050   3.490
 2019SOL    MW4 8108   1.778   0.101   3.529
 2020SOL     OW 8109   1.761   0.385   3.417
 2020SOL    HW2 8110   1.752   0.297   3.453
 2020SOL    HW3 8111   1.773   0.371   3.323
 2020SOL    MW4 8112   1.761   0.371   3.409
 2021SOL     OW 8113   1.980   0.522   3.526
 2021SOL    HW2 8114   1.969   0.611   3.493
 2021SOL    HW3 8115   1.897   0.479   3.507
 2021SOL    MW4 8116   1.968   0.528   3.519
 2022SOL     OW 8117   2.021   0.770   3.406
 2022SOL    HW2 8118   2.102   0.804   3.443
 2022SOL    HW3 8119   2.031   0.781   3.312
 2022SOL    MW4 8120   2.033   0.776   3.399
 2023SOL     OW 8121   1.779   0.902   3.453
 2023SOL    HW2 8122   1.854   0.843   3.452
 2023SOL    HW3 8123   1.705   0.847   3.424
 2023SOL    MW4 8124   1.779   0.887   3.449
 2024SOL     OW 8125   1.802   1.143   3.347
 2024SOL    HW2 8126   1.859   1.191   3.406
 2024SOL    HW3 8127   1.800   1.054   3.383
 2024SOL    MW4 8128   1.809   1.137   3.359
 2025SOL     OW 8129   2.028   1.288   3.455
 2025SOL    HW2 8130   2.031   1.290   3.551
 2025SOL    HW3 8131   2.022   1.380   3.430
 2025SOL    MW4 8132   2.027   1.300   3.465
 2026SOL     OW 8133   1.986   1.551   3.398
 2026SOL    HW2 8134   2.063   1.586   3.442
 2026SOL    HW3 8135   1.912   1.599   3.436
 2026SOL    MW4 8136   1.986   1.562   3.409
 2027SOL     OW 8137   1.754   1.670   3.505
 2027SOL    HW2 8138   1.732   1.753   3.462
 2027SOL    HW3 8139   1.678   1.615   3.490
 2027SOL    MW4 8140   1.741   1.674   3.497
 2028SOL     OW 8141   1.734   1.919   3.367
 2028SOL    HW2 8142   1.806   1.963   3.411
 2028SOL    HW3 8143   1.755   1.927   3.274
 2028SOL    MW4 8144   1.746   1.926   3.360
 2029SOL     OW 8145   1.950   2.055   3.508
 2029SOL    HW2 8146   2.026   1.998   3.494
 2029SOL    HW3 8147   1.979   2.142   3.482
 2029SOL    MW4 8148   1.964   2.059   3.503
 2030SOL     OW 8149   2.002   2.307   3.403
 2030SOL    HW2 8150   2.079   2.363   3.419
 2030SOL    HW3 8151   1.995   2.302   3.308
 2030SOL    MW4 8152   2.011   2.314   3.393
 2031SOL     OW 8153   1.773   2.453   3.474
 2031SOL    HW2 8154   1.853   2.404   3.457
 2031SOL    HW3 8155   1.703   2.394   3.447
 2031SOL    MW4 8156   1.774   2.439   3.468
 2032SOL     OW 8157   1.761   2.707   3.401
 2032SOL    HW2 8158   1.848   2.739   3.425
 2032SOL    HW3 8159   1.758   2.618   3.437
 2032SOL    MW4 8160   1.773   2.700   3.409
 2033SOL     OW 8161   2.001   2.824   3.464
 2033SOL    HW2 8162   1.991   2.823   3.559
 2033SOL    HW3 8163   2.014   2.916   3.442
 2033SOL    MW4 8164   2.001   2.836   3.473
 2034SOL     OW 8165   2.021   3.085   3.383
 2034SOL    HW2 8166   2.098   3.142   3.387
 2034SOL    HW3 8167   1.949   3.139   3.413
 2034SOL    MW4 8168   2.022   3.100   3.387
 2035SOL     OW 8169   1.795   3.212   3.491
 2035SOL    HW2 8170   1.789   3.194   3.584
 2035SOL    HW3 8171   1.803   3.308   3.486
 2035SOL    MW4 8172   1.795   3.222   3.502
 2036SOL     OW 8173   1.776   3.493   3.385
 2036SOL    HW2 8174   1.697   3.533   3.421
 2036SOL    HW3 8175   1.776   3.517   3.292
 2036SOL    MW4 8176   1.766   3.501   3.377
 2037SOL     OW 8177   1.980   3.591   3.555
 2037SOL    HW2 8178   2.068   3.558   3.540
 2037SOL    HW3 8179   1.925   3.545   3.492
 2037SOL    MW4 8180   1.984   3.581   3.545
 2038SOL     OW 8181   1.990   3.859   3.438
 2038SOL    HW2 8182   1.904   3.897   3.454
 2038SOL    HW3 8183   1.989   3.775   3.484
 2038SOL    MW4 8184   1.979   3.853   3.446
 2039SOL     OW 8185   1.779   4.016   3.541
 2039SOL    HW2 8186   1.776   4.009   3.637
 2039SOL    HW3 8187   1.699   3.974   3.511
 2039SOL    MW4 8188   1.768   4.010   3.550
 2040SOL     OW 8189   1.793   4.278   3.419
 2040SOL    HW2 8190   1.792   4.191   3.458
 2040SOL    HW3 8191   1.778   4.263   3.326
 2040SOL    MW4 8192   1.791   4.265   3.412
 2041SOL     OW 8193   1.994   4.432   3.526
 2041SOL    HW2 8194   1.926   4.386   3.477
 2041SOL    HW3 8195   2.013   4.509   3.472
 2041SOL    MW4 8196   1.988   4.436   3.512
 2042SOL     OW 8197   2.461   0.011   3.453
 2042SOL    HW2 8198   2.448  -0.082   3.471
 2042SOL    HW3 8199   2.463   0.016   3.357
 2042SOL    MW4 8200   2.459  -0.001   3.442
 2043SOL     OW 8201   2.228   0.121   3.537
 2043SOL    HW2 8202   2.232   0.214   3.512
 2043SOL    HW3 8203   2.308   0.083   3.500
 2043SOL    MW4 8204   2.239   0.128   3.529
 2044SOL     OW 8205   2.191   0.392   3.408
 2044SOL    HW2 8206   2.267   0.446   3.429
 2044SOL    HW3 8207   2.116   0.444   3.439
 2044SOL    MW4 8208   2.191   0.406   3.415
 2045SOL     OW 8209   2.420   0.520   3.494
 2045SOL    HW2 8210   2.499   0.471   3.471
 2045SOL    HW3 8211   2.442   0.611   3.473
 2045SOL    MW4 8212   2.434   0.526   3.488
 2046SOL     OW 8213   2.487   0.765   3.424
 2046SOL    HW2 8214   2.569   0.794   3.464
 2046SOL    HW3 8215   2.502   0.771   3.330
 2046SOL    MW4 8216   2.500   0.770   3.417
 2047SOL     OW 8217   2.254   0.898   3.484
 2047SOL    HW2 8218   2.257   0.985   3.445
 2047SOL    HW3 8219   2.342   0.862   3.469
 2047SOL    MW4 8220   2.266   0.905   3.477
 2048SOL     OW 8221   2.242   1.162   3.358
 2048SOL    HW2 8222   2.316   1.207   3.399
 2048SOL    HW3 8223   2.165   1.211   3.386
 2048SOL    MW4 8224   2.242   1.174   3.367
 2049SOL     OW 8225   2.455   1.298   3.467
 2049SOL    HW2 8226   2.443   1.297   3.562
 2049SOL    HW3 8227   2.529   1.239   3.452
 2049SOL    MW4 8228   2.463   1.290   3.478
 2050SOL     OW 8229   2.487   1.564   3.400
 2050SOL    HW2 8230   2.485   1.477   3.440
 2050SOL    HW3 8231   2.485   1.547   3.306
 2050SOL    MW4 8232   2.487   1.551   3.393
 2051SOL     OW 8233   2.236   1.641   3.486
 2051SOL    HW2 8234   2.258   1.644   3.579
 2051SOL    HW3 8235   2.321   1.645   3.441
 2051SOL    MW4 8236   2.250   1.642   3.492
 2052SOL     OW 8237   2.181   1.907   3.416
 2052SOL    HW2 8238   2.187   1.819   3.452
 2052SOL    HW3 8239   2.201   1.896   3.323
 2052SOL    MW4 8240   2.184   1.894   3.408
 2053SOL     OW 8241   2.398   2.054   3.497
 2053SOL    HW2 8242   2.402   2.059   3.593
 2053SOL    HW3 8243   2.324   1.997   3.479
 2053SOL    MW4 8244   2.389   2.047   3.507
 2054SOL     OW 8245   2.477   2.324   3.428
 2054SOL    HW2 8246   2.539   2.372   3.483
 2054SOL    HW3 8247   2.479   2.234   3.462
 2054SOL    MW4 8248   2.486   2.318   3.440
 2055SOL     OW 8249   2.242   2.454   3.457
 2055SOL    HW2 8250   2.258   2.547   3.438
 2055SOL    HW3 8251   2.325   2.411   3.439
 2055SOL    MW4 8252   2.255   2.461   3.452
 2056SOL     OW 8253   2.267   2.722   3.405
 2056SOL    HW2 8254   2.182   2.755   3.435
 2056SOL    HW3 8255   2.260   2.724   3.309
 2056SOL    MW4 8256   2.255   2.727   3.396
 2057SOL     OW 8257   2.439   2.855   3.558
 2057SOL    HW2 8258   2.441   2.937   3.509
 2057SOL    HW3 8259   2.374   2.801   3.512
 2057SOL    MW4 8260   2.430   2.859   3.545
 2058SOL     OW 8261   2.434   3.080   3.414
 2058SOL    HW2 8262   2.519   3.107   3.449
 2058SOL    HW3 8263   2.447   3.072   3.320
 2058SOL    MW4 8264   2.447   3.082   3.406
 2059SOL     OW 8265   2.224   3.241   3.473
 2059SOL    HW2 8266   2.230   3.243   3.568
 2059SOL    HW3 8267   2.297   3.186   3.445
 2059SOL    MW4 8268   2.234   3.234   3.482
 2060SOL     OW 8269   2.239   3.521   3.465
 2060SOL    HW2 8270   2.247   3.426   3.470
 2060SOL    HW3 8271   2.257   3.541   3.373
 2060SOL    MW4 8272   2.243   3.511   3.453
 2061SOL     OW 8273   2.478   3.620   3.552
 2061SOL    HW2 8274   2.470   3.710   3.522
 2061SOL    HW3 8275   2.394   3.580   3.532
 2061SOL    MW4 8276   2.466   3.627   3.545
 2062SOL     OW 8277   2.435   3.873   3.432
 2062SOL    HW2 8278   2.512   3.924   3.460
 2062SOL    HW3 8279   2.361   3.930   3.451
 2062SOL    MW4 8280   2.435   3.888   3.438
 2063SOL     OW 8281   2.228   4.007   3.529
 2063SOL    HW2 8282   2.228   4.102   3.514
 2063SOL    HW3 8283   2.141   3.978   3.498
 2063SOL    MW4 8284   2.216   4.016   3.523
 2064SOL     OW 8285   2.206   4.279   3.449
 2064SOL    HW2 8286   2.139   4.343   3.473
 2064SOL    HW3 8287   2.212   4.284   3.354
 2064SOL    MW4 8288   2.197   4.288   3.440
 2065SOL     OW 8289   2.441   4.404   3.502
 2065SOL    HW2 8290   2.449   4.404   3.597
 2065SOL    HW3 8291   2.361   4.355   3.484
 2065SOL    MW4 8292   2.432   4.397   3.512
 2066SOL     OW 8293   2.893   0.016   3.401
 2066SOL    HW2 8294   2.813   0.064   3.422
 2066SOL    HW3 8295   2.890   0.006   3.306
 2066SOL    MW4 8296   2.882   0.021   3.391
 2067SOL     OW 8297   2.691   0.144   3.506
 2067SOL    HW2 8298   2.674   0.233   3.476
 2067SOL    HW3 8299   2.606   0.100   3.502
 2067SOL    MW4 8300   2.677   0.150   3.502
 2068SOL     OW 8301   2.658   0.400   3.416
 2068SOL    HW2 8302   2.727   0.449   3.462
 2068SOL    HW3 8303   2.686   0.398   3.325
 2068SOL    MW4 8304   2.671   0.406   3.410
 2069SOL     OW 8305   2.899   0.519   3.533
 2069SOL    HW2 8306   2.911   0.521   3.628
 2069SOL    HW3 8307   2.915   0.608   3.504
 2069SOL    MW4 8308   2.903   0.531   3.541
 2070SOL     OW 8309   2.958   0.764   3.413
 2070SOL    HW2 8310   3.040   0.801   3.445
 2070SOL    HW3 8311   2.891   0.826   3.443
 2070SOL    MW4 8312   2.960   0.777   3.421
 2071SOL     OW 8313   2.721   0.894   3.512
 2071SOL    HW2 8314   2.699   0.896   3.605
 2071SOL    HW3 8315   2.691   0.979   3.479
 2071SOL    MW4 8316   2.714   0.906   3.520
 2072SOL     OW 8317   2.681   1.145   3.415
 2072SOL    HW2 8318   2.760   1.187   3.449
 2072SOL    HW3 8319   2.693   1.143   3.320
 2072SOL    MW4 8320   2.693   1.150   3.407
 2073SOL     OW 8321   2.897   1.290   3.492
 2073SOL    HW2 8322   2.898   1.275   3.587
 2073SOL    HW3 8323   2.981   1.257   3.462
 2073SOL    MW4 8324   2.909   1.284   3.501
 2074SOL     OW 8325   2.914   1.574   3.444
 2074SOL    HW2 8326   2.831   1.613   3.473
 2074SOL    HW3 8327   2.905   1.481   3.464
 2074SOL    MW4 8328   2.902   1.567   3.450
 2075SOL     OW 8329   2.688   1.713   3.522
 2075SOL    HW2 8330   2.675   1.804   3.496
 2075SOL    HW3 8331   2.615   1.666   3.480
 2075SOL    MW4 8332   2.677   1.719   3.513
 2076SOL     OW 8333   2.664   1.972   3.422
 2076SOL    HW2 8334   2.575   2.007   3.432
 2076SOL    HW3 8335   2.678   1.971   3.328
 2076SOL    MW4 8336   2.654   1.977   3.411
 2077SOL     OW 8337   2.908   2.075   3.574
 2077SOL    HW2 8338   2.915   2.054   3.668
 2077SOL    HW3 8339   2.824   2.037   3.547
 2077SOL    MW4 8340   2.898   2.067   3.583
 2078SOL     OW 8341   2.885   2.343   3.466
 2078SOL    HW2 8342   2.881   2.253   3.499
 2078SOL    HW3 8343   2.887   2.333   3.370
 2078SOL    MW4 8344   2.884   2.329   3.457
 2079SOL     OW 8345   2.659   2.477   3.559
 2079SOL    HW2 8346   2.664   2.475   3.655
 2079SOL    HW3 8347   2.736   2.429   3.530
 2079SOL    MW4 8348   2.670   2.471   3.568
 2080SOL     OW 8349   2.651   2.732   3.442
 2080SOL    HW2 8350   2.668   2.643   3.473
 2080SOL    HW3 8351   2.575   2.761   3.492
 2080SOL    MW4 8352   2.643   2.724   3.453
 2081SOL     OW 8353   2.899   2.816   3.517
 2081SOL    HW2 8354   2.906   2.817   3.613
 2081SOL    HW3 8355   2.808   2.792   3.501
 2081SOL    MW4 8356   2.888   2.813   3.528
 2082SOL     OW 8357   2.916   3.082   3.461
 2082SOL    HW2 8358   2.915   2.988   3.479
 2082SOL    HW3 8359   2.930   3.088   3.366
 2082SOL    MW4 8360   2.917   3.070   3.451
 2083SOL     OW 8361   2.659   3.188   3.541
 2083SOL    HW2 8362   2.648   3.176   3.635
 2083SOL    HW3 8363   2.740   3.142   3.520
 2083SOL    MW4 8364   2.668   3.181   3.550
 2084SOL     OW 8365   2.646   3.441   3.430
 2084SOL    HW2 8366   2.650   3.365   3.488
 2084SOL    HW3 8367   2.588   3.503   3.475
 2084SOL    MW4 8368   2.639   3.439   3.444
 2085SOL     OW 8369   2.875   3.574   3.511
 2085SOL    HW2 8370   2.871   3.658   3.465
 2085SOL    HW3 8371   2.793   3.530   3.488
 2085SOL    MW4 8372   2.864   3.579   3.502
 2086SOL     OW 8373   2.891   3.843   3.424
 2086SOL    HW2 8374   2.969   3.893   3.448
 2086SOL    HW3 8375   2.817   3.899   3.449
 2086SOL    MW4 8376   2.892   3.857   3.430
 2087SOL     OW 8377   2.674   4.010   3.498
 2087SOL    HW2 8378   2.659   4.013   3.593
 2087SOL    HW3 8379   2.642   4.095   3.467
 2087SOL    MW4 8380   2.668   4.022   3.507
 2088SOL     OW 8381   2.664   4.284   3.400
 2088SOL    HW2 8382   2.740   4.332   3.434
 2088SOL    HW3 8383   2.589   4.339   3.419
 2088SOL    MW4 8384   2.664   4.297   3.407
 2089SOL     OW 8385   2.878   4.409   3.501
 2089SOL    HW2 8386   2.871   4.417   3.596
 2089SOL    HW3 8387   2.884   4.499   3.470
 2089SOL    MW4 8388   2.878   4.422   3.510
 2090SOL     OW 8389   3.371   4.652   3.401
 2090SOL    HW2 8390   3.288   4.692   3.428
 2090SOL    HW3 8391   3.376   4.669   3.307
 2090SOL    MW4 8392   3.360   4.660   3.393
 2091SOL     OW 8393   3.131   0.115   3.494
 2091SOL    HW2 8394   3.137   0.211   3.489
 2091SOL    HW3 8395   3.042   0.095   3.466
 2091SOL    MW4 8396   3.120   0.125   3.490
 2092SOL     OW 8397   3.133   0.389   3.431
 2092SOL    HW2 8398   3.046   0.421   3.452
 2092SOL    HW3 8399   3.136   0.384   3.336
 2092SOL    MW4 8400   3.122   0.393   3.421
 2093SOL     OW 8401   3.361   0.562   3.520
 2093SOL    HW2 8402   3.376   0.562   3.615
 2093SOL    HW3 8403   3.272   0.527   3.510
 2093SOL    MW4 8404   3.351   0.558   3.531
 2094SOL     OW 8405   3.371   0.780   3.366
 2094SOL    HW2 8406   3.453   0.821   3.394
 2094SOL    HW3 8407   3.369   0.696   3.411
 2094SOL    MW4 8408   3.381   0.775   3.376
 2095SOL     OW 8409   3.171   0.898   3.511
 2095SOL    HW2 8410   3.147   0.984   3.475
 2095SOL    HW3 8411   3.258   0.881   3.475
 2095SOL    MW4 8412   3.180   0.907   3.502
 2096SOL     OW 8413   3.128   1.167   3.404
 2096SOL    HW2 8414   3.209   1.191   3.450
 2096SOL    HW3 8415   3.150   1.173   3.311
 2096SOL    MW4 8416   3.142   1.171   3.398
 2097SOL     OW 8417   3.358   1.295   3.521
 2097SOL    HW2 8418   3.437   1.250   3.491
 2097SOL    HW3 8419   3.360   1.379   3.475
 2097SOL    MW4 8420   3.369   1.300   3.511
 2098SOL     OW 8421   3.359   1.544   3.391
 2098SOL    HW2 8422   3.423   1.593   3.443
 2098SOL    HW3 8423   3.277   1.593   3.401
 2098SOL    MW4 8424   3.357   1.557   3.399
 2099SOL     OW 8425   3.152   1.690   3.516
 2099SOL    HW2 8426   3.129   1.781   3.501
 2099SOL    HW3 8427   3.071   1.642   3.503
 2099SOL    MW4 8428   3.138   1.696   3.512
 2100SOL     OW 8429   3.135   1.954   3.460
 2100SOL    HW2 8430   3.053   1.996   3.486
 2100SOL    HW3 8431   3.128   1.945   3.365
 2100SOL    MW4 8432   3.124   1.959   3.451
 2101SOL     OW 8433   3.379   2.077   3.535
 2101SOL    HW2 8434   3.369   2.164   3.496
 2101SOL    HW3 8435   3.293   2.037   3.527
 2101SOL    MW4 8436   3.366   2.083   3.529
 2102SOL     OW 8437   3.346   2.331   3.410
 2102SOL    HW2 8438   3.416   2.395   3.427
 2102SOL    HW3 8439   3.268   2.370   3.450
 2102SOL    MW4 8440   3.345   2.345   3.417
 2103SOL     OW 8441   3.146   2.441   3.544
 2103SOL    HW2 8442   3.154   2.531   3.511
 2103SOL    HW3 8443   3.059   2.413   3.515
 2103SOL    MW4 8444   3.136   2.449   3.536
 2104SOL     OW 8445   3.152   2.693   3.422
 2104SOL    HW2 8446   3.214   2.747   3.470
 2104SOL    HW3 8447   3.066   2.731   3.441
 2104SOL    MW4 8448   3.149   2.705   3.431
 2105SOL     OW 8449   3.364   2.839   3.539
 2105SOL    HW2 8450   3.437   2.805   3.487
 2105SOL    HW3 8451   3.340   2.921   3.496
 2105SOL    MW4 8452   3.371   2.845   3.527
 2106SOL     OW 8453   3.308   3.078   3.431
 2106SOL    HW2 8454   3.385   3.118   3.471
 2106SOL    HW3 8455   3.235   3.135   3.457
 2106SOL    MW4 8456   3.308   3.091   3.439
 2107SOL     OW 8457   3.122   3.221   3.568
 2107SOL    HW2 8458   3.119   3.315   3.548
 2107SOL    HW3 8459   3.040   3.186   3.534
 2107SOL    MW4 8460   3.111   3.229   3.561
 2108SOL     OW 8461   3.114   3.457   3.424
 2108SOL    HW2 8462   3.040   3.515   3.440
 2108SOL    HW3 8463   3.117   3.447   3.329
 2108SOL    MW4 8464   3.105   3.463   3.414
 2109SOL     OW 8465   3.329   3.602   3.500
 2109SOL    HW2 8466   3.327   3.688   3.459
 2109SOL    HW3 8467   3.253   3.556   3.465
 2109SOL    MW4 8468   3.319   3.607   3.490
 2110SOL     OW 8469   3.317   3.871   3.398
 2110SOL    HW2 8470   3.387   3.926   3.433
 2110SOL    HW3 8471   3.238   3.903   3.441
 2110SOL    MW4 8472   3.316   3.883   3.408
 2111SOL     OW 8473   3.091   4.017   3.488
 2111SOL    HW2 8474   3.095   4.031   3.583
 2111SOL    HW3 8475   3.093   4.106   3.451
 2111SOL    MW4 8476   3.092   4.031   3.496
 2112SOL     OW 8477   3.101   4.274   3.371
 2112SOL    HW2 8478   3.178   4.309   3.417
 2112SOL    HW3 8479   3.027   4.316   3.414
 2112SOL    MW4 8480   3.102   4.284   3.383
 2113SOL     OW 8481   3.336   4.388   3.473
 2113SOL    HW2 8482   3.334   4.391   3.569
 2113SOL    HW3 8483   3.346   4.479   3.446
 2113SOL    MW4 8484   3.337   4.400   3.482
 2114SOL     OW 8485   3.780   0.001   3.417
 2114SOL    HW2 8486   3.708   0.048   3.458
 2114SOL    HW3 8487   3.763   0.007   3.323
 2114SOL    MW4 8488   3.768   0.008   3.410
 2115SOL     OW 8489   3.565   0.154   3.520
 2115SOL    HW2 8490   3.562   0.236   3.471
 2115SOL    HW3 8491   3.493   0.102   3.486
 2115SOL    MW4 8492   3.555   0.158   3.509
 2116SOL     OW 8493   3.546   0.413   3.401
 2116SOL    HW2 8494   3.625   0.448   3.441
 2116SOL    HW3 8495   3.474   0.451   3.451
 2116SOL    MW4 8496   3.547   0.422   3.413
 2117SOL     OW 8497   3.767   0.536   3.529
 2117SOL    HW2 8498   3.771   0.551   3.624
 2117SOL    HW3 8499   3.853   0.499   3.508
 2117SOL    MW4 8500   3.779   0.533   3.539
 2118SOL     OW 8501   3.810   0.776   3.413
 2118SOL    HW2 8502   3.889   0.814   3.450
 2118SOL    HW3 8503   3.805   0.688   3.452
 2118SOL    MW4 8504   3.820   0.769   3.423
 2119SOL     OW 8505   3.578   0.908   3.498
 2119SOL    HW2 8506   3.574   0.903   3.594
 2119SOL    HW3 8507   3.657   0.858   3.475
 2119SOL    MW4 8508   3.588   0.901   3.508
 2120SOL     OW 8509   3.551   1.168   3.402
 2120SOL    HW2 8510   3.553   1.075   3.425
 2120SOL    HW3 8511   3.551   1.169   3.306
 2120SOL    MW4 8512   3.551   1.156   3.392
 2121SOL     OW 8513   3.810   1.283   3.485
 2121SOL    HW2 8514   3.799   1.275   3.580
 2121SOL    HW3 8515   3.724   1.261   3.449
 2121SOL    MW4 8516   3.797   1.279   3.493
 2122SOL     OW 8517   3.834   1.562   3.383
 2122SOL    HW2 8518   3.900   1.616   3.426
 2122SOL    HW3 8519   3.837   1.479   3.430
 2122SOL    MW4 8520   3.843   1.558   3.395
 2123SOL     OW 8521   3.606   1.674   3.489
 2123SOL    HW2 8522   3.597   1.762   3.454
 2123SOL    HW3 8523   3.682   1.638   3.443
 2123SOL    MW4 8524   3.615   1.681   3.478
 2124SOL     OW 8525   3.581   1.939   3.433
 2124SOL    HW2 8526   3.648   1.967   3.495
 2124SOL    HW3 8527   3.503   1.988   3.458
 2124SOL    MW4 8528   3.579   1.949   3.444
 2125SOL     OW 8529   3.775   2.093   3.578
 2125SOL    HW2 8530   3.790   2.084   3.673
 2125SOL    HW3 8531   3.861   2.081   3.539
 2125SOL    MW4 8532   3.788   2.091   3.586
 2126SOL     OW 8533   3.780   2.320   3.408
 2126SOL    HW2 8534   3.868   2.349   3.430
 2126SOL    HW3 8535   3.765   2.243   3.464
 2126SOL    MW4 8536   3.789   2.314   3.418
 2127SOL     OW 8537   3.566   2.472   3.490
 2127SOL    HW2 8538   3.574   2.556   3.444
 2127SOL    HW3 8539   3.641   2.421   3.460
 2127SOL    MW4 8540   3.577   2.476   3.480
 2128SOL     OW 8541   3.567   2.746   3.378
 2128SOL    HW2 8542   3.646   2.771   3.426
 2128SOL    HW3 8543   3.590   2.761   3.286
 2128SOL    MW4 8544   3.580   2.752   3.372
 2129SOL     OW 8545   3.821   2.808   3.471
 2129SOL    HW2 8546   3.816   2.806   3.567
 2129SOL    HW3 8547   3.825   2.901   3.449
 2129SOL    MW4 8548   3.821   2.820   3.481
 2130SOL     OW 8549   3.821   3.083   3.427
 2130SOL    HW2 8550   3.888   3.146   3.454
 2130SOL    HW3 8551   3.810   3.099   3.333
 2130SOL    MW4 8552   3.829   3.093   3.418
 2131SOL     OW 8553   3.564   3.160   3.517
 2131SOL    HW2 8554   3.565   3.254   3.499
 2131SOL    HW3 8555   3.652   3.130   3.497
 2131SOL    MW4 8556   3.576   3.168   3.512
 2132SOL     OW 8557   3.551   3.454   3.450
 2132SOL    HW2 8558   3.475   3.505   3.477
 2132SOL    HW3 8559   3.548   3.455   3.354
 2132SOL    MW4 8560   3.540   3.461   3.440
 2133SOL     OW 8561   3.774   3.612   3.489
 2133SOL    HW2 8562   3.795   3.627   3.581
 2133SOL    HW3 8563   3.686   3.574   3.490
 2133SOL    MW4 8564   3.765   3.609   3.501
 2134SOL     OW 8565   3.794   3.885   3.402
 2134SOL    HW2 8566   3.725   3.934   3.447
 2134SOL    HW3 8567   3.778   3.793   3.426
 2134SOL    MW4 8568   3.783   3.879   3.411
 2135SOL     OW 8569   3.527   4.008   3.492
 2135SOL    HW2 8570   3.555   4.003   3.584
 2135SOL    HW3 8571   3.541   4.099   3.467
 2135SOL    MW4 8572   3.533   4.019   3.501
 2136SOL     OW 8573   3.562   4.269   3.393
 2136SOL    HW2 8574   3.477   4.309   3.412
 2136SOL    HW3 8575   3.570   4.274   3.298
 2136SOL    MW4 8576   3.552   4.275   3.383
 2137SOL     OW 8577   3.769   4.406   3.500
 2137SOL    HW2 8578   3.692   4.360   3.467
 2137SOL    HW3 8579   3.768   4.491   3.456
 2137SOL    MW4 8580   3.759   4.411   3.490
 2138SOL     OW 8581   4.245   4.632   3.352
 2138SOL    HW2 8582   4.243   4.555   3.409
 2138SOL    HW3 8583   4.324   4.679   3.378
 2138SOL    MW4 8584   4.255   4.628   3.363
 2139SOL     OW 8585   4.029   0.126   3.419
 2139SOL    HW2 8586   4.104   0.070   3.403
 2139SOL    HW3 8587   3.953   0.069   3.407
 2139SOL    MW4 8588   4.029   0.111   3.415
 2140SOL     OW 8589   4.014   0.401   3.431
 2140SOL    HW2 8590   4.022   0.305   3.433
 2140SOL    HW3 8591   3.999   0.421   3.338
 2140SOL    MW4 8592   4.013   0.391   3.419
 2141SOL     OW 8593   4.281   0.478   3.483
 2141SOL    HW2 8594   4.264   0.560   3.436
 2141SOL    HW3 8595   4.200   0.428   3.474
 2141SOL    MW4 8596   4.268   0.482   3.475
 2142SOL     OW 8597   4.251   0.736   3.358
 2142SOL    HW2 8598   4.317   0.794   3.395
 2142SOL    HW3 8599   4.264   0.742   3.263
 2142SOL    MW4 8600   4.261   0.744   3.351
 2143SOL     OW 8601   4.044   0.879   3.514
 2143SOL    HW2 8602   4.032   0.965   3.473
 2143SOL    HW3 8603   4.110   0.836   3.459
 2143SOL    MW4 8604   4.051   0.885   3.501
 2144SOL     OW 8605   4.011   1.128   3.405
 2144SOL    HW2 8606   4.083   1.173   3.449
 2144SOL    HW3 8607   3.934   1.183   3.423
 2144SOL    MW4 8608   4.010   1.141   3.413
 2145SOL     OW 8609   4.199   1.300   3.532
 2145SOL    HW2 8610   4.209   1.391   3.505
 2145SOL    HW3 8611   4.268   1.253   3.484
 2145SOL    MW4 8612   4.210   1.306   3.522
 2146SOL     OW 8613   4.248   1.556   3.449
 2146SOL    HW2 8614   4.163   1.600   3.461
 2146SOL    HW3 8615   4.271   1.574   3.358
 2146SOL    MW4 8616   4.240   1.564   3.439
 2147SOL     OW 8617   4.021   1.737   3.505
 2147SOL    HW2 8618   4.009   1.721   3.598
 2147SOL    HW3 8619   4.024   1.832   3.497
 2147SOL    MW4 8620   4.020   1.748   3.516
 2148SOL     OW 8621   4.013   2.008   3.461
 2148SOL    HW2 8622   4.099   2.033   3.495
 2148SOL    HW3 8623   4.027   1.992   3.368
 2148SOL    MW4 8624   4.026   2.009   3.454
 2149SOL     OW 8625   4.276   2.110   3.551
 2149SOL    HW2 8626   4.280   2.195   3.507
 2149SOL    HW3 8627   4.345   2.058   3.509
 2149SOL    MW4 8628   4.286   2.114   3.539
 2150SOL     OW 8629   4.288   2.364   3.405
 2150SOL    HW2 8630   4.204   2.388   3.443
 2150SOL    HW3 8631   4.270   2.352   3.312
 2150SOL    MW4 8632   4.275   2.365   3.398
 2151SOL     OW 8633   4.060   2.426   3.537
 2151SOL    HW2 8634   4.057   2.426   3.633
 2151SOL    HW3 8635   4.053   2.518   3.512
 2151SOL    MW4 8636   4.058   2.438   3.546
 2152SOL     OW 8637   4.066   2.691   3.429
 2152SOL    HW2 8638   4.135   2.743   3.471
 2152SOL    HW3 8639   3.985   2.738   3.450
 2152SOL    MW4 8640   4.064   2.704   3.437
 2153SOL     OW 8641   4.262   2.847   3.535
 2153SOL    HW2 8642   4.287   2.854   3.628
 2153SOL    HW3 8643   4.334   2.798   3.495
 2153SOL    MW4 8644   4.275   2.841   3.542
 2154SOL     OW 8645   4.237   3.089   3.433
 2154SOL    HW2 8646   4.236   2.994   3.449
 2154SOL    HW3 8647   4.240   3.098   3.338
 2154SOL    MW4 8648   4.237   3.077   3.423
 2155SOL     OW 8649   4.031   3.242   3.557
 2155SOL    HW2 8650   4.035   3.324   3.506
 2155SOL    HW3 8651   4.102   3.189   3.523
 2155SOL    MW4 8652   4.041   3.246   3.546
 2156SOL     OW 8653   4.035   3.484   3.434
 2156SOL    HW2 8654   4.101   3.551   3.454
 2156SOL    HW3 8655   3.951   3.528   3.449
 2156SOL    MW4 8656   4.032   3.499   3.438
 2157SOL     OW 8657   4.251   3.642   3.491
 2157SOL    HW2 8658   4.242   3.647   3.587
 2157SOL    HW3 8659   4.223   3.728   3.460
 2157SOL    MW4 8660   4.246   3.654   3.500
 2158SOL     OW 8661   4.231   3.890   3.361
 2158SOL    HW2 8662   4.316   3.934   3.368
 2158SOL    HW3 8663   4.210   3.892   3.268
 2158SOL    MW4 8664   4.240   3.896   3.350
 2159SOL     OW 8665   4.039   4.031   3.504
 2159SOL    HW2 8666   4.112   3.998   3.452
 2159SOL    HW3 8667   3.966   3.974   3.481
 2159SOL    MW4 8668   4.039   4.019   3.494
 2160SOL     OW 8669   3.985   4.270   3.370
 2160SOL    HW2 8670   4.000   4.189   3.418
 2160SOL    HW3 8671   3.902   4.303   3.403
 2160SOL    MW4 8672   3.976   4.264   3.380
 2161SOL     OW 8673   4.215   4.391   3.489
 2161SOL    HW2 8674   4.205   4.400   3.583
 2161SOL    HW3 8675   4.131   4.357   3.458
 2161SOL    MW4 8676   4.203   4.388   3.497
 2162SOL     OW 8677   0.204   4.655   3.874
 2162SOL    HW2 8678   0.213   4.686   3.964
 2162SOL    HW3 8679   0.125   4.698   3.841
 2162SOL    MW4 8680   0.195   4.665   3.881
 2163SOL     OW 8681   0.002   0.144   3.743
 2163SOL    HW2 8682   0.007   0.238   3.756
 2163SOL    HW3 8683  -0.024   0.133   3.651
 2163SOL    MW4 8684  -0.001   0.155   3.732
 2164SOL     OW 8685   4.479   0.394   3.842
 2164SOL    HW2 8686   4.405   0.454   3.828
 2164SOL    HW3 8687   4.557   0.448   3.828
 2164SOL    MW4 8688   4.479   0.409   3.838
 2165SOL     OW 8689   0.243   0.517   3.782
 2165SOL    HW2 8690   0.246   0.609   3.810
 2165SOL    HW3 8691   0.244   0.521   3.687
 2165SOL    MW4 8692   0.243   0.530   3.773
 2166SOL     OW 8693   0.225   0.791   3.875
 2166SOL    HW2 8694   0.200   0.791   3.968
 2166SOL    HW3 8695   0.144   0.816   3.829
 2166SOL    MW4 8696   0.211   0.794   3.881
 2167SOL     OW 8697   4.471   0.912   3.812
 2167SOL    HW2 8698   4.402   0.872   3.866
 2167SOL    HW3 8699   4.485   0.998   3.852
 2167SOL    MW4 8700   4.464   0.918   3.825
 2168SOL     OW 8701   4.488   1.164   3.923
 2168SOL    HW2 8702   4.413   1.220   3.902
 2168SOL    HW3 8703   4.562   1.203   3.874
 2168SOL    MW4 8704   4.488   1.177   3.913
 2169SOL     OW 8705   0.225   1.282   3.804
 2169SOL    HW2 8706   0.204   1.372   3.828
 2169SOL    HW3 8707   0.226   1.283   3.708
 2169SOL    MW4 8708   0.222   1.294   3.794
 2170SOL     OW 8709   0.224   1.546   3.885
 2170SOL    HW2 8710   0.219   1.554   3.981
 2170SOL    HW3 8711   0.148   1.596   3.854
 2170SOL    MW4 8712   0.213   1.554   3.894
 2171SOL     OW 8713   0.017   1.692   3.801
 2171SOL    HW2 8714   0.015   1.785   3.824
 2171SOL    HW3 8715   0.014   1.691   3.705
 2171SOL    MW4 8716   0.016   1.704   3.791
 2172SOL     OW 8717   4.459   1.955   3.896
 2172SOL    HW2 8718   4.463   1.973   3.990
 2172SOL    HW3 8719   4.387   2.010   3.864
 2172SOL    MW4 8720   4.450   1.965   3.904
 2173SOL     OW 8721   0.219   2.024   3.793
 2173SOL    HW2 8722   0.215   2.118   3.812
 2173SOL    HW3 8723   0.134   1.991   3.821
 2173SOL    MW4 8724   0.207   2.032   3.799
 2174SOL     OW 8725   0.227   2.302   3.875
 2174SOL    HW2 8726   0.211   2.316   3.968
 2174SOL    HW3 8727   0.156   2.350   3.831
 2174SOL    MW4 8728   0.215   2.310   3.882
 2175SOL     OW 8729   0.020   2.438   3.765
 2175SOL    HW2 8730  -0.060   2.409   3.809
 2175SOL    HW3 8731   0.039   2.524   3.802
 2175SOL    MW4 8732   0.012   2.446   3.775
 2176SOL     OW 8733   0.037   2.668   3.934
 2176SOL    HW2 8734   0.036   2.677   4.029
 2176SOL    HW3 8735   0.115   2.716   3.906
 2176SOL    MW4 8736   0.048   2.676   3.943
 2177SOL     OW 8737   0.242   2.818   3.832
 2177SOL    HW2 8738   0.331   2.782   3.838
 2177SOL    HW3 8739   0.225   2.821   3.737
 2177SOL    MW4 8740   0.251   2.814   3.820
 2178SOL     OW 8741   0.253   3.085   3.854
 2178SOL    HW2 8742   0.246   3.098   3.948
 2178SOL    HW3 8743   0.255   2.990   3.843
 2178SOL    MW4 8744   0.252   3.074   3.865
 2179SOL     OW 8745   0.008   3.232   3.788
 2179SOL    HW2 8746   0.096   3.199   3.804
 2179SOL    HW3 8747   0.008   3.258   3.696
 2179SOL    MW4 8748   0.019   3.231   3.778
 2180SOL     OW 8749   4.461   3.499   3.837
 2180SOL    HW2 8750   4.543   3.534   3.800
 2180SOL    HW3 8751   4.467   3.404   3.824
 2180SOL    MW4 8752   4.472   3.491   3.830
 2181SOL     OW 8753   0.201   3.620   3.752
 2181SOL    HW2 8754   0.265   3.573   3.805
 2181SOL    HW3 8755   0.206   3.710   3.782
 2181SOL    MW4 8756   0.210   3.625   3.763
 2182SOL     OW 8757   0.211   3.905   3.851
 2182SOL    HW2 8758   0.225   3.917   3.945
 2182SOL    HW3 8759   0.285   3.949   3.810
 2182SOL    MW4 8760   0.222   3.912   3.858
 2183SOL     OW 8761   4.477   4.016   3.724
 2183SOL    HW2 8762   4.405   3.979   3.775
 2183SOL    HW3 8763   4.556   3.972   3.757
 2183SOL    MW4 8764   4.478   4.006   3.735
 2184SOL     OW 8765   4.400   4.266   3.820
 2184SOL    HW2 8766   4.485   4.308   3.826
 2184SOL    HW3 8767   4.419   4.175   3.797
 2184SOL    MW4 8768   4.414   4.260   3.818
 2185SOL     OW 8769   0.165   4.382   3.796
 2185SOL    HW2 8770   0.239   4.343   3.844
 2185SOL    HW3 8771   0.175   4.476   3.810
 2185SOL    MW4 8772   0.176   4.389   3.805
 2186SOL     OW 8773   0.660   4.649   3.939
 2186SOL    HW2 8774   0.686   4.568   3.895
 2186SOL    HW3 8775   0.582   4.678   3.893
 2186SOL    MW4 8776   0.654   4.642   3.927
 2187SOL     OW 8777   0.452   0.112   3.818
 2187SOL    HW2 8778   0.454   0.194   3.868
 2187SOL    HW3 8779   0.368   0.073   3.840
 2187SOL    MW4 8780   0.441   0.118   3.828
 2188SOL     OW 8781   0.447   0.373   3.909
 2188SOL    HW2 8782   0.520   0.414   3.862
 2188SOL    HW3 8783   0.369   0.407   3.866
 2188SOL    MW4 8784   0.447   0.383   3.897
 2189SOL     OW 8785   0.644   0.519   3.764
 2189SOL    HW2 8786   0.722   0.489   3.810
 2189SOL    HW3 8787   0.610   0.589   3.819
 2189SOL    MW4 8788   0.650   0.524   3.777
 2190SOL     OW 8789   0.611   0.773   3.897
 2190SOL    HW2 8790   0.697   0.808   3.877
 2190SOL    HW3 8791   0.550   0.831   3.852
 2190SOL    MW4 8792   0.614   0.785   3.889
 2191SOL     OW 8793   0.419   0.921   3.750
 2191SOL    HW2 8794   0.425   1.011   3.783
 2191SOL    HW3 8795   0.352   0.879   3.805
 2191SOL    MW4 8796   0.411   0.927   3.762
 2192SOL     OW 8797   0.437   1.179   3.912
 2192SOL    HW2 8798   0.505   1.226   3.863
 2192SOL    HW3 8799   0.354   1.211   3.876
 2192SOL    MW4 8800   0.435   1.189   3.901
 2193SOL     OW 8801   0.641   1.289   3.760
 2193SOL    HW2 8802   0.720   1.251   3.799
 2193SOL    HW3 8803   0.638   1.253   3.671
 2193SOL    MW4 8804   0.651   1.279   3.754
 2194SOL     OW 8805   0.673   1.551   3.842
 2194SOL    HW2 8806   0.744   1.594   3.793
 2194SOL    HW3 8807   0.674   1.461   3.811
 2194SOL    MW4 8808   0.683   1.545   3.831
 2195SOL     OW 8809   0.452   1.687   3.765
 2195SOL    HW2 8810   0.532   1.635   3.778
 2195SOL    HW3 8811   0.384   1.639   3.813
 2195SOL    MW4 8812   0.454   1.674   3.773
 2196SOL     OW 8813   0.478   1.908   3.917
 2196SOL    HW2 8814   0.467   1.825   3.871
 2196SOL    HW3 8815   0.400   1.959   3.895
 2196SOL    MW4 8816   0.467   1.904   3.908
 2197SOL     OW 8817   0.677   2.024   3.775
 2197SOL    HW2 8818   0.675   2.116   3.800
 2197SOL    HW3 8819   0.607   1.983   3.826
 2197SOL    MW4 8820   0.668   2.031   3.785
 2198SOL     OW 8821   0.696   2.280   3.847
 2198SOL    HW2 8822   0.774   2.321   3.810
 2198SOL    HW3 8823   0.630   2.349   3.848
 2198SOL    MW4 8824   0.697   2.294   3.842
 2199SOL     OW 8825   0.467   2.440   3.790
 2199SOL    HW2 8826   0.395   2.382   3.817
 2199SOL    HW3 8827   0.461   2.442   3.694
 2199SOL    MW4 8828   0.457   2.432   3.781
 2200SOL     OW 8829   0.513   2.715   3.851
 2200SOL    HW2 8830   0.586   2.746   3.797
 2200SOL    HW3 8831   0.511   2.620   3.836
 2200SOL    MW4 8832   0.522   2.706   3.842
 2201SOL     OW 8833   0.686   2.868   3.727
 2201SOL    HW2 8834   0.763   2.823   3.760
 2201SOL    HW3 8835   0.697   2.869   3.632
 2201SOL    MW4 8836   0.697   2.862   3.719
 2202SOL     OW 8837   0.709   3.109   3.835
 2202SOL    HW2 8838   0.712   3.098   3.930
 2202SOL    HW3 8839   0.691   3.021   3.801
 2202SOL    MW4 8840   0.707   3.096   3.843
 2203SOL     OW 8841   0.477   3.216   3.765
 2203SOL    HW2 8842   0.559   3.178   3.797
 2203SOL    HW3 8843   0.408   3.168   3.810
 2203SOL    MW4 8844   0.479   3.204   3.775
 2204SOL     OW 8845   0.417   3.476   3.858
 2204SOL    HW2 8846   0.490   3.535   3.840
 2204SOL    HW3 8847   0.437   3.396   3.810
 2204SOL    MW4 8848   0.429   3.474   3.849
 2205SOL     OW 8849   0.646   3.642   3.829
 2205SOL    HW2 8850   0.648   3.734   3.858
 2205SOL    HW3 8851   0.668   3.646   3.736
 2205SOL    MW4 8852   0.649   3.655   3.821
 2206SOL     OW 8853   0.676   3.941   3.868
 2206SOL    HW2 8854   0.684   3.931   3.963
 2206SOL    HW3 8855   0.759   3.980   3.841
 2206SOL    MW4 8856   0.688   3.945   3.877
 2207SOL     OW 8857   0.445   4.020   3.744
 2207SOL    HW2 8858   0.522   3.981   3.787
 2207SOL    HW3 8859   0.454   3.996   3.652
 2207SOL    MW4 8860   0.457   4.012   3.737
 2208SOL     OW 8861   0.416   4.274   3.889
 2208SOL    HW2 8862   0.475   4.342   3.857
 2208SOL    HW3 8863   0.431   4.200   3.830
 2208SOL    MW4 8864   0.426   4.273   3.877
 2209SOL     OW 8865   0.675   4.401   3.825
 2209SOL    HW2 8866   0.736   4.343   3.871
 2209SOL    HW3 8867   0.686   4.379   3.733
 2209SOL    MW4 8868   0.684   4.390   3.819
 2210SOL     OW 8869   1.104   0.016   3.906
 2210SOL    HW2 8870   1.186   0.043   3.865
 2210SOL    HW3 8871   1.105  -0.080   3.899
 2210SOL    MW4 8872   1.115   0.007   3.900
 2211SOL     OW 8873   0.876   0.151   3.825
 2211SOL    HW2 8874   0.938   0.089   3.864
 2211SOL    HW3 8875   0.790   0.114   3.844
 2211SOL    MW4 8876   0.873   0.138   3.832
 2212SOL     OW 8877   0.884   0.401   3.923
 2212SOL    HW2 8878   0.867   0.392   4.017
 2212SOL    HW3 8879   0.882   0.312   3.889
 2212SOL    MW4 8880   0.881   0.388   3.931
 2213SOL     OW 8881   1.069   0.533   3.749
 2213SOL    HW2 8882   1.145   0.475   3.755
 2213SOL    HW3 8883   1.003   0.493   3.806
 2213SOL    MW4 8884   1.071   0.520   3.757
 2214SOL     OW 8885   1.128   0.783   3.867
 2214SOL    HW2 8886   1.115   0.762   3.960
 2214SOL    HW3 8887   1.121   0.698   3.823
 2214SOL    MW4 8888   1.125   0.769   3.874
 2215SOL     OW 8889   0.864   0.884   3.814
 2215SOL    HW2 8890   0.955   0.859   3.835
 2215SOL    HW3 8891   0.859   0.878   3.719
 2215SOL    MW4 8892   0.876   0.880   3.804
 2216SOL     OW 8893   0.888   1.172   3.840
 2216SOL    HW2 8894   0.886   1.161   3.935
 2216SOL    HW3 8895   0.866   1.085   3.806
 2216SOL    MW4 8896   0.885   1.159   3.848
 2217SOL     OW 8897   1.159   1.267   3.781
 2217SOL    HW2 8898   1.152   1.358   3.809
 2217SOL    HW3 8899   1.076   1.227   3.806
 2217SOL    MW4 8900   1.147   1.274   3.788
 2218SOL     OW 8901   1.122   1.526   3.829
 2218SOL    HW2 8902   1.116   1.542   3.923
 2218SOL    HW3 8903   1.209   1.558   3.804
 2218SOL    MW4 8904   1.133   1.532   3.838
 2219SOL     OW 8905   0.905   1.659   3.720
 2219SOL    HW2 8906   0.979   1.601   3.734
 2219SOL    HW3 8907   0.884   1.650   3.627
 2219SOL    MW4 8908   0.912   1.650   3.710
 2220SOL     OW 8909   0.907   1.885   3.889
 2220SOL    HW2 8910   0.899   1.800   3.846
 2220SOL    HW3 8911   0.830   1.934   3.861
 2220SOL    MW4 8912   0.896   1.881   3.879
 2221SOL     OW 8913   1.125   2.008   3.766
 2221SOL    HW2 8914   1.062   1.949   3.805
 2221SOL    HW3 8915   1.115   1.996   3.672
 2221SOL    MW4 8916   1.116   1.999   3.759
 2222SOL     OW 8917   1.095   2.288   3.852
 2222SOL    HW2 8918   1.104   2.286   3.947
 2222SOL    HW3 8919   1.089   2.196   3.827
 2222SOL    MW4 8920   1.096   2.275   3.861
 2223SOL     OW 8921   0.905   2.426   3.728
 2223SOL    HW2 8922   0.896   2.514   3.764
 2223SOL    HW3 8923   0.968   2.382   3.786
 2223SOL    MW4 8924   0.912   2.432   3.740
 2224SOL     OW 8925   0.881   2.699   3.833
 2224SOL    HW2 8926   0.885   2.707   3.929
 2224SOL    HW3 8927   0.962   2.740   3.802
 2224SOL    MW4 8928   0.893   2.705   3.842
 2225SOL     OW 8929   1.119   2.829   3.762
 2225SOL    HW2 8930   1.183   2.791   3.822
 2225SOL    HW3 8931   1.131   2.924   3.771
 2225SOL    MW4 8932   1.129   2.836   3.771
 2226SOL     OW 8933   1.116   3.091   3.830
 2226SOL    HW2 8934   1.197   3.140   3.813
 2226SOL    HW3 8935   1.046   3.155   3.817
 2226SOL    MW4 8936   1.118   3.106   3.826
 2227SOL     OW 8937   0.910   3.295   3.792
 2227SOL    HW2 8938   0.852   3.224   3.819
 2227SOL    HW3 8939   0.926   3.278   3.699
 2227SOL    MW4 8940   0.904   3.284   3.783
 2228SOL     OW 8941   0.895   3.538   3.922
 2228SOL    HW2 8942   0.881   3.449   3.888
 2228SOL    HW3 8943   0.812   3.582   3.905
 2228SOL    MW4 8944   0.882   3.532   3.915
 2229SOL     OW 8945   1.129   3.616   3.798
 2229SOL    HW2 8946   1.132   3.709   3.818
 2229SOL    HW3 8947   1.045   3.586   3.833
 2229SOL    MW4 8948   1.118   3.624   3.805
 2230SOL     OW 8949   1.090   3.887   3.870
 2230SOL    HW2 8950   1.074   3.885   3.964
 2230SOL    HW3 8951   1.167   3.944   3.861
 2230SOL    MW4 8952   1.098   3.894   3.881
 2231SOL     OW 8953   0.898   4.041   3.765
 2231SOL    HW2 8954   0.967   3.982   3.795
 2231SOL    HW3 8955   0.906   4.042   3.670
 2231SOL    MW4 8956   0.908   4.033   3.757
 2232SOL     OW 8957   0.887   4.274   3.919
 2232SOL    HW2 8958   0.874   4.259   4.013
 2232SOL    HW3 8959   0.888   4.187   3.880
 2232SOL    MW4 8960   0.885   4.261   3.927
 2233SOL     OW 8961   1.099   4.424   3.865
 2233SOL    HW2 8962   1.024   4.368   3.886
 2233SOL    HW3 8963   1.101   4.425   3.769
 2233SOL    MW4 8964   1.089   4.417   3.855
 2234SOL     OW 8965   1.527   0.029   3.914
 2234SOL    HW2 8966   1.561   0.018   4.004
 2234SOL    HW3 8967   1.536  -0.057   3.874
 2234SOL    MW4 8968   1.533   0.017   3.921
 2235SOL     OW 8969   1.321   0.111   3.754
 2235SOL    HW2 8970   1.326   0.205   3.774
 2235SOL    HW3 8971   1.386   0.071   3.812
 2235SOL    MW4 8972   1.330   0.118   3.764
 2236SOL     OW 8973   1.307   0.388   3.822
 2236SOL    HW2 8974   1.298   0.367   3.915
 2236SOL    HW3 8975   1.397   0.419   3.813
 2236SOL    MW4 8976   1.318   0.389   3.833
 2237SOL     OW 8977   1.579   0.465   3.783
 2237SOL    HW2 8978   1.659   0.434   3.824
 2237SOL    HW3 8979   1.579   0.559   3.798
 2237SOL    MW4 8980   1.589   0.473   3.790
 2238SOL     OW 8981   1.593   0.750   3.805
 2238SOL    HW2 8982   1.661   0.805   3.765
 2238SOL    HW3 8983   1.515   0.806   3.805
 2238SOL    MW4 8984   1.591   0.765   3.799
 2239SOL     OW 8985   1.361   0.919   3.802
 2239SOL    HW2 8986   1.362   1.009   3.833
 2239SOL    HW3 8987   1.281   0.881   3.838
 2239SOL    MW4 8988   1.351   0.926   3.811
 2240SOL     OW 8989   1.405   1.195   3.878
 2240SOL    HW2 8990   1.468   1.242   3.824
 2240SOL    HW3 8991   1.320   1.215   3.839
 2240SOL    MW4 8992   1.402   1.204   3.866
 2241SOL     OW 8993   1.603   1.317   3.708
 2241SOL    HW2 8994   1.678   1.278   3.752
 2241SOL    HW3 8995   1.593   1.403   3.748
 2241SOL    MW4 8996   1.612   1.323   3.719
 2242SOL     OW 8997   1.566   1.528   3.871
 2242SOL    HW2 8998   1.551   1.532   3.965
 2242SOL    HW3 8999   1.640   1.586   3.855
 2242SOL    MW4 9000   1.574   1.536   3.881
 2243SOL     OW 9001   1.354   1.632   3.744
 2243SOL    HW2 9002   1.330   1.713   3.788
 2243SOL    HW3 9003   1.438   1.609   3.781
 2243SOL    MW4 9004   1.362   1.640   3.755
 2244SOL     OW 9005   1.365   1.916   3.865
 2244SOL    HW2 9006   1.363   1.930   3.960
 2244SOL    HW3 9007   1.285   1.956   3.833
 2244SOL    MW4 9008   1.354   1.923   3.873
 2245SOL     OW 9009   1.552   2.056   3.740
 2245SOL    HW2 9010   1.486   1.996   3.774
 2245SOL    HW3 9011   1.535   2.059   3.645
 2245SOL    MW4 9012   1.541   2.049   3.732
 2246SOL     OW 9013   1.537   2.281   3.908
 2246SOL    HW2 9014   1.616   2.328   3.882
 2246SOL    HW3 9015   1.537   2.203   3.853
 2246SOL    MW4 9016   1.547   2.277   3.897
 2247SOL     OW 9017   1.342   2.406   3.765
 2247SOL    HW2 9018   1.409   2.362   3.819
 2247SOL    HW3 9019   1.262   2.358   3.784
 2247SOL    MW4 9020   1.341   2.394   3.775
 2248SOL     OW 9021   1.326   2.691   3.878
 2248SOL    HW2 9022   1.329   2.702   3.973
 2248SOL    HW3 9023   1.326   2.596   3.865
 2248SOL    MW4 9024   1.326   2.680   3.889
 2249SOL     OW 9025   1.525   2.830   3.740
 2249SOL    HW2 9026   1.465   2.767   3.780
 2249SOL    HW3 9027   1.500   2.831   3.647
 2249SOL    MW4 9028   1.514   2.822   3.733
 2250SOL     OW 9029   1.555   3.081   3.854
 2250SOL    HW2 9030   1.571   3.052   3.944
 2250SOL    HW3 9031   1.549   3.000   3.804
 2250SOL    MW4 9032   1.556   3.067   3.859
 2251SOL     OW 9033   1.326   3.237   3.754
 2251SOL    HW2 9034   1.324   3.319   3.804
 2251SOL    HW3 9035   1.409   3.195   3.779
 2251SOL    MW4 9036   1.337   3.242   3.764
 2252SOL     OW 9037   1.342   3.461   3.924
 2252SOL    HW2 9038   1.401   3.505   3.864
 2252SOL    HW3 9039   1.255   3.496   3.903
 2252SOL    MW4 9040   1.338   3.471   3.913
 2253SOL     OW 9041   1.538   3.610   3.786
 2253SOL    HW2 9042   1.603   3.560   3.835
 2253SOL    HW3 9043   1.546   3.699   3.818
 2253SOL    MW4 9044   1.547   3.615   3.797
 2254SOL     OW 9045   1.528   3.866   3.918
 2254SOL    HW2 9046   1.529   3.873   4.014
 2254SOL    HW3 9047   1.446   3.905   3.892
 2254SOL    MW4 9048   1.518   3.872   3.927
 2255SOL     OW 9049   1.320   4.026   3.833
 2255SOL    HW2 9050   1.339   4.117   3.858
 2255SOL    HW3 9051   1.317   4.027   3.738
 2255SOL    MW4 9052   1.322   4.038   3.824
 2256SOL     OW 9053   1.351   4.297   3.918
 2256SOL    HW2 9054   1.422   4.358   3.901
 2256SOL    HW3 9055   1.271   4.346   3.900
 2256SOL    MW4 9056   1.350   4.311   3.913
 2257SOL     OW 9057   1.570   4.455   3.796
 2257SOL    HW2 9058   1.628   4.383   3.820
 2257SOL    HW3 9059   1.578   4.460   3.700
 2257SOL    MW4 9060   1.579   4.447   3.786
 2258SOL     OW 9061   1.978   4.637   3.917
 2258SOL    HW2 9062   2.049   4.679   3.868
 2258SOL    HW3 9063   1.970   4.550   3.879
 2258SOL    MW4 9064   1.986   4.631   3.906
 2259SOL     OW 9065   1.774   0.141   3.796
 2259SOL    HW2 9066   1.835   0.077   3.833
 2259SOL    HW3 9067   1.688   0.113   3.827
 2259SOL    MW4 9068   1.771   0.129   3.805
 2260SOL     OW 9069   1.812   0.378   3.934
 2260SOL    HW2 9070   1.813   0.361   4.028
 2260SOL    HW3 9071   1.810   0.291   3.894
 2260SOL    MW4 9072   1.812   0.364   3.941
 2261SOL     OW 9073   2.021   0.493   3.800
 2261SOL    HW2 9074   1.944   0.463   3.849
 2261SOL    HW3 9075   1.992   0.496   3.709
 2261SOL    MW4 9076   2.007   0.489   3.794
 2262SOL     OW 9077   2.007   0.764   3.861
 2262SOL    HW2 9078   1.997   0.768   3.956
 2262SOL    HW3 9079   2.014   0.671   3.841
 2262SOL    MW4 9080   2.007   0.753   3.871
 2263SOL     OW 9081   1.818   0.920   3.735
 2263SOL    HW2 9082   1.880   0.855   3.768
 2263SOL    HW3 9083   1.826   0.916   3.640
 2263SOL    MW4 9084   1.827   0.911   3.727
 2264SOL     OW 9085   1.809   1.197   3.842
 2264SOL    HW2 9086   1.775   1.194   3.931
 2264SOL    HW3 9087   1.827   1.106   3.820
 2264SOL    MW4 9088   1.807   1.185   3.850
 2265SOL     OW 9089   2.040   1.316   3.732
 2265SOL    HW2 9090   2.115   1.282   3.780
 2265SOL    HW3 9091   1.964   1.273   3.772
 2265SOL    MW4 9092   2.040   1.306   3.744
 2266SOL     OW 9093   2.030   1.564   3.835
 2266SOL    HW2 9094   1.943   1.599   3.817
 2266SOL    HW3 9095   2.026   1.473   3.803
 2266SOL    MW4 9096   2.018   1.556   3.828
 2267SOL     OW 9097   1.768   1.677   3.777
 2267SOL    HW2 9098   1.771   1.771   3.798
 2267SOL    HW3 9099   1.762   1.674   3.682
 2267SOL    MW4 9100   1.767   1.689   3.768
 2268SOL     OW 9101   1.776   1.958   3.859
 2268SOL    HW2 9102   1.756   1.968   3.952
 2268SOL    HW3 9103   1.701   1.996   3.814
 2268SOL    MW4 9104   1.764   1.964   3.866
 2269SOL     OW 9105   2.017   2.051   3.768
 2269SOL    HW2 9106   1.941   2.003   3.800
 2269SOL    HW3 9107   2.004   2.057   3.674
 2269SOL    MW4 9108   2.006   2.045   3.760
 2270SOL     OW 9109   2.004   2.315   3.855
 2270SOL    HW2 9110   1.921   2.346   3.819
 2270SOL    HW3 9111   2.004   2.221   3.840
 2270SOL    MW4 9112   1.993   2.307   3.848
 2271SOL     OW 9113   1.756   2.431   3.773
 2271SOL    HW2 9114   1.750   2.524   3.792
 2271SOL    HW3 9115   1.755   2.426   3.677
 2271SOL    MW4 9116   1.755   2.443   3.763
 2272SOL     OW 9117   1.761   2.707   3.827
 2272SOL    HW2 9118   1.757   2.746   3.914
 2272SOL    HW3 9119   1.677   2.728   3.787
 2272SOL    MW4 9120   1.750   2.715   3.833
 2273SOL     OW 9121   1.986   2.825   3.745
 2273SOL    HW2 9122   2.058   2.782   3.791
 2273SOL    HW3 9123   1.907   2.794   3.790
 2273SOL    MW4 9124   1.985   2.815   3.757
 2274SOL     OW 9125   2.012   3.094   3.825
 2274SOL    HW2 9126   2.019   3.007   3.785
 2274SOL    HW3 9127   2.091   3.139   3.798
 2274SOL    MW4 9128   2.023   3.088   3.816
 2275SOL     OW 9129   1.777   3.228   3.777
 2275SOL    HW2 9130   1.841   3.166   3.810
 2275SOL    HW3 9131   1.693   3.195   3.809
 2275SOL    MW4 9132   1.774   3.216   3.786
 2276SOL     OW 9133   1.783   3.459   3.918
 2276SOL    HW2 9134   1.845   3.523   3.882
 2276SOL    HW3 9135   1.786   3.386   3.856
 2276SOL    MW4 9136   1.792   3.458   3.905
 2277SOL     OW 9137   1.974   3.621   3.824
 2277SOL    HW2 9138   2.059   3.581   3.842
 2277SOL    HW3 9139   1.965   3.614   3.729
 2277SOL    MW4 9140   1.984   3.615   3.814
 2278SOL     OW 9141   1.965   3.872   3.928
 2278SOL    HW2 9142   2.040   3.915   3.886
 2278SOL    HW3 9143   1.959   3.787   3.885
 2278SOL    MW4 9144   1.974   3.867   3.917
 2279SOL     OW 9145   1.750   3.983   3.817
 2279SOL    HW2 9146   1.830   3.939   3.846
 2279SOL    HW3 9147   1.680   3.942   3.869
 2279SOL    MW4 9148   1.751   3.972   3.828
 2280SOL     OW 9149   1.737   4.254   3.883
 2280SOL    HW2 9150   1.819   4.290   3.848
 2280SOL    HW3 9151   1.734   4.164   3.849
 2280SOL    MW4 9152   1.747   4.247   3.874
 2281SOL     OW 9153   1.980   4.385   3.816
 2281SOL    HW2 9154   2.068   4.352   3.834
 2281SOL    HW3 9155   1.977   4.395   3.721
 2281SOL    MW4 9156   1.991   4.382   3.806
 2282SOL     OW 9157   2.459   4.650   3.890
 2282SOL    HW2 9158   2.486   4.649   3.982
 2282SOL    HW3 9159   2.523   4.705   3.846
 2282SOL    MW4 9160   2.471   4.657   3.896
 2283SOL     OW 9161   2.218   0.095   3.817
 2283SOL    HW2 9162   2.300   0.067   3.855
 2283SOL    HW3 9163   2.233   0.093   3.722
 2283SOL    MW4 9164   2.231   0.091   3.809
 2284SOL     OW 9165   2.247   0.359   3.907
 2284SOL    HW2 9166   2.244   0.276   3.860
 2284SOL    HW3 9167   2.163   0.401   3.887
 2284SOL    MW4 9168   2.236   0.354   3.898
 2285SOL     OW 9169   2.464   0.486   3.764
 2285SOL    HW2 9170   2.389   0.447   3.808
 2285SOL    HW3 9171   2.442   0.480   3.670
 2285SOL    MW4 9172   2.451   0.480   3.757
 2286SOL     OW 9173   2.444   0.731   3.895
 2286SOL    HW2 9174   2.379   0.784   3.849
 2286SOL    HW3 9175   2.447   0.648   3.846
 2286SOL    MW4 9176   2.436   0.727   3.882
 2287SOL     OW 9177   2.243   0.891   3.790
 2287SOL    HW2 9178   2.169   0.847   3.830
 2287SOL    HW3 9179   2.228   0.881   3.696
 2287SOL    MW4 9180   2.231   0.884   3.783
 2288SOL     OW 9181   2.270   1.184   3.853
 2288SOL    HW2 9182   2.276   1.188   3.949
 2288SOL    HW3 9183   2.263   1.090   3.834
 2288SOL    MW4 9184   2.270   1.172   3.863
 2289SOL     OW 9185   2.495   1.304   3.750
 2289SOL    HW2 9186   2.518   1.389   3.786
 2289SOL    HW3 9187   2.411   1.283   3.791
 2289SOL    MW4 9188   2.487   1.312   3.760
 2290SOL     OW 9189   2.497   1.563   3.868
 2290SOL    HW2 9190   2.574   1.619   3.855
 2290SOL    HW3 9191   2.425   1.613   3.830
 2290SOL    MW4 9192   2.498   1.577   3.861
 2291SOL     OW 9193   2.251   1.690   3.750
 2291SOL    HW2 9194   2.231   1.777   3.784
 2291SOL    HW3 9195   2.172   1.638   3.768
 2291SOL    MW4 9196   2.238   1.694   3.757
 2292SOL     OW 9197   2.248   1.934   3.878
 2292SOL    HW2 9198   2.227   1.925   3.971
 2292SOL    HW3 9199   2.181   1.993   3.844
 2292SOL    MW4 9200   2.237   1.941   3.886
 2293SOL     OW 9201   2.457   2.082   3.777
 2293SOL    HW2 9202   2.437   2.163   3.824
 2293SOL    HW3 9203   2.406   2.015   3.823
 2293SOL    MW4 9204   2.448   2.084   3.790
 2294SOL     OW 9205   2.390   2.312   3.927
 2294SOL    HW2 9206   2.464   2.373   3.930
 2294SOL    HW3 9207   2.326   2.355   3.870
 2294SOL    MW4 9208   2.391   2.326   3.920
 2295SOL     OW 9209   2.227   2.461   3.739
 2295SOL    HW2 9210   2.144   2.416   3.759
 2295SOL    HW3 9211   2.238   2.450   3.645
 2295SOL    MW4 9212   2.217   2.453   3.730
 2296SOL     OW 9213   2.207   2.710   3.870
 2296SOL    HW2 9214   2.191   2.672   3.956
 2296SOL    HW3 9215   2.236   2.637   3.816
 2296SOL    MW4 9216   2.209   2.696   3.874
 2297SOL     OW 9217   2.437   2.855   3.842
 2297SOL    HW2 9218   2.357   2.814   3.876
 2297SOL    HW3 9219   2.426   2.853   3.747
 2297SOL    MW4 9220   2.425   2.849   3.834
 2298SOL     OW 9221   2.414   3.131   3.910
 2298SOL    HW2 9222   2.441   3.132   4.002
 2298SOL    HW3 9223   2.415   3.038   3.886
 2298SOL    MW4 9224   2.418   3.119   3.919
 2299SOL     OW 9225   2.226   3.247   3.756
 2299SOL    HW2 9226   2.206   3.337   3.784
 2299SOL    HW3 9227   2.284   3.214   3.825
 2299SOL    MW4 9228   2.231   3.255   3.769
 2300SOL     OW 9229   2.218   3.489   3.882
 2300SOL    HW2 9230   2.206   3.456   3.971
 2300SOL    HW3 9231   2.311   3.514   3.879
 2300SOL    MW4 9232   2.229   3.488   3.894
 2301SOL     OW 9233   2.473   3.574   3.855
 2301SOL    HW2 9234   2.529   3.497   3.863
 2301SOL    HW3 9235   2.475   3.596   3.762
 2301SOL    MW4 9236   2.481   3.567   3.844
 2302SOL     OW 9237   2.421   3.855   3.926
 2302SOL    HW2 9238   2.495   3.900   3.884
 2302SOL    HW3 9239   2.431   3.764   3.899
 2302SOL    MW4 9240   2.432   3.849   3.917
 2303SOL     OW 9241   2.206   3.982   3.803
 2303SOL    HW2 9242   2.282   3.936   3.838
 2303SOL    HW3 9243   2.216   3.977   3.708
 2303SOL    MW4 9244   2.217   3.976   3.795
 2304SOL     OW 9245   2.220   4.245   3.866
 2304SOL    HW2 9246   2.248   4.254   3.957
 2304SOL    HW3 9247   2.224   4.151   3.849
 2304SOL    MW4 9248   2.224   4.233   3.876
 2305SOL     OW 9249   2.428   4.401   3.771
 2305SOL    HW2 9250   2.354   4.349   3.802
 2305SOL    HW3 9251   2.419   4.485   3.817
 2305SOL    MW4 9252   2.417   4.405   3.781
 2306SOL     OW 9253   2.890   4.657   3.920
 2306SOL    HW2 9254   2.871   4.657   4.014
 2306SOL    HW3 9255   2.976   4.698   3.913
 2306SOL    MW4 9256   2.899   4.663   3.932
 2307SOL     OW 9257   2.685   0.145   3.797
 2307SOL    HW2 9258   2.754   0.089   3.831
 2307SOL    HW3 9259   2.691   0.136   3.702
 2307SOL    MW4 9260   2.695   0.137   3.789
 2308SOL     OW 9261   2.659   0.384   3.948
 2308SOL    HW2 9262   2.662   0.302   3.899
 2308SOL    HW3 9263   2.602   0.440   3.896
 2308SOL    MW4 9264   2.652   0.380   3.935
 2309SOL     OW 9265   2.893   0.509   3.815
 2309SOL    HW2 9266   2.969   0.464   3.852
 2309SOL    HW3 9267   2.819   0.456   3.843
 2309SOL    MW4 9268   2.894   0.496   3.823
 2310SOL     OW 9269   2.927   0.759   3.942
 2310SOL    HW2 9270   2.994   0.799   3.886
 2310SOL    HW3 9271   2.914   0.672   3.906
 2310SOL    MW4 9272   2.934   0.753   3.930
 2311SOL     OW 9273   2.682   0.877   3.806
 2311SOL    HW2 9274   2.750   0.845   3.866
 2311SOL    HW3 9275   2.602   0.831   3.834
 2311SOL    MW4 9276   2.681   0.866   3.818
 2312SOL     OW 9277   2.709   1.144   3.852
 2312SOL    HW2 9278   2.696   1.053   3.826
 2312SOL    HW3 9279   2.633   1.190   3.818
 2312SOL    MW4 9280   2.697   1.138   3.844
 2313SOL     OW 9281   2.958   1.289   3.780
 2313SOL    HW2 9282   2.955   1.380   3.809
 2313SOL    HW3 9283   2.873   1.253   3.805
 2313SOL    MW4 9284   2.946   1.297   3.787
 2314SOL     OW 9285   2.918   1.562   3.878
 2314SOL    HW2 9286   2.914   1.562   3.973
 2314SOL    HW3 9287   2.986   1.625   3.856
 2314SOL    MW4 9288   2.926   1.570   3.887
 2315SOL     OW 9289   2.706   1.716   3.807
 2315SOL    HW2 9290   2.782   1.660   3.825
 2315SOL    HW3 9291   2.700   1.718   3.712
 2315SOL    MW4 9292   2.715   1.709   3.797
 2316SOL     OW 9293   2.691   1.955   3.966
 2316SOL    HW2 9294   2.673   1.874   3.917
 2316SOL    HW3 9295   2.628   2.018   3.930
 2316SOL    MW4 9296   2.680   1.952   3.955
 2317SOL     OW 9297   2.932   2.055   3.861
 2317SOL    HW2 9298   2.898   2.145   3.859
 2317SOL    HW3 9299   2.861   2.004   3.901
 2317SOL    MW4 9300   2.918   2.060   3.866
 2318SOL     OW 9301   2.887   2.320   3.886
 2318SOL    HW2 9302   2.874   2.310   3.980
 2318SOL    HW3 9303   2.976   2.356   3.878
 2318SOL    MW4 9304   2.897   2.324   3.897
 2319SOL     OW 9305   2.644   2.441   3.844
 2319SOL    HW2 9306   2.659   2.527   3.881
 2319SOL    HW3 9307   2.729   2.397   3.851
 2319SOL    MW4 9308   2.657   2.446   3.850
 2320SOL     OW 9309   2.674   2.716   3.903
 2320SOL    HW2 9310   2.665   2.691   3.995
 2320SOL    HW3 9311   2.598   2.772   3.886
 2320SOL    MW4 9312   2.662   2.720   3.913
 2321SOL     OW 9313   2.904   2.790   3.784
 2321SOL    HW2 9314   2.931   2.872   3.826
 2321SOL    HW3 9315   2.821   2.767   3.827
 2321SOL    MW4 9316   2.897   2.798   3.796
 2322SOL     OW 9317   2.905   3.029   3.923
 2322SOL    HW2 9318   2.977   3.085   3.894
 2322SOL    HW3 9319   2.829   3.059   3.873
 2322SOL    MW4 9320   2.905   3.040   3.912
 2323SOL     OW 9321   2.682   3.132   3.822
 2323SOL    HW2 9322   2.697   3.225   3.841
 2323SOL    HW3 9323   2.598   3.113   3.863
 2323SOL    MW4 9324   2.673   3.142   3.830
 2324SOL     OW 9325   2.679   3.399   3.874
 2324SOL    HW2 9326   2.673   3.416   3.968
 2324SOL    HW3 9327   2.751   3.455   3.844
 2324SOL    MW4 9328   2.687   3.409   3.882
 2325SOL     OW 9329   2.858   3.627   3.787
 2325SOL    HW2 9330   2.945   3.605   3.819
 2325SOL    HW3 9331   2.859   3.604   3.694
 2325SOL    MW4 9332   2.869   3.621   3.779
 2326SOL     OW 9333   2.870   3.888   3.855
 2326SOL    HW2 9334   2.855   3.895   3.949
 2326SOL    HW3 9335   2.860   3.795   3.835
 2326SOL    MW4 9336   2.866   3.877   3.865
 2327SOL     OW 9337   2.618   3.990   3.777
 2327SOL    HW2 9338   2.618   4.082   3.805
 2327SOL    HW3 9339   2.708   3.961   3.790
 2327SOL    MW4 9340   2.630   3.998   3.782
 2328SOL     OW 9341   2.639   4.252   3.853
 2328SOL    HW2 9342   2.715   4.310   3.849
 2328SOL    HW3 9343   2.564   4.308   3.833
 2328SOL    MW4 9344   2.639   4.267   3.850
 2329SOL     OW 9345   2.844   4.412   3.782
 2329SOL    HW2 9346   2.905   4.346   3.814
 2329SOL    HW3 9347   2.868   4.492   3.830
 2329SOL    MW4 9348   2.855   4.414   3.793
 2330SOL     OW 9349   3.325   4.625   3.878
 2330SOL    HW2 9350   3.347   4.611   3.970
 2330SOL    HW3 9351   3.381   4.698   3.851
 2330SOL    MW4 9352   3.336   4.633   3.886
 2331SOL     OW 9353   3.122   0.109   3.801
 2331SOL    HW2 9354   3.190   0.050   3.831
 2331SOL    HW3 9355   3.118   0.094   3.706
 2331SOL    MW4 9356   3.130   0.099   3.792
 2332SOL     OW 9357   3.134   0.384   3.878
 2332SOL    HW2 9358   3.156   0.368   3.970
 2332SOL    HW3 9359   3.120   0.296   3.841
 2332SOL    MW4 9360   3.135   0.370   3.885
 2333SOL     OW 9361   3.359   0.544   3.804
 2333SOL    HW2 9362   3.431   0.494   3.843
 2333SOL    HW3 9363   3.282   0.488   3.817
 2333SOL    MW4 9364   3.358   0.530   3.811
 2334SOL     OW 9365   3.341   0.795   3.943
 2334SOL    HW2 9366   3.355   0.786   4.037
 2334SOL    HW3 9367   3.365   0.710   3.907
 2334SOL    MW4 9368   3.346   0.783   3.950
 2335SOL     OW 9369   3.125   0.868   3.794
 2335SOL    HW2 9370   3.203   0.852   3.848
 2335SOL    HW3 9371   3.156   0.861   3.704
 2335SOL    MW4 9372   3.139   0.865   3.789
 2336SOL     OW 9373   3.182   1.122   3.882
 2336SOL    HW2 9374   3.171   1.030   3.858
 2336SOL    HW3 9375   3.102   1.165   3.849
 2336SOL    MW4 9376   3.170   1.115   3.874
 2337SOL     OW 9377   3.342   1.355   3.797
 2337SOL    HW2 9378   3.283   1.292   3.838
 2337SOL    HW3 9379   3.344   1.330   3.704
 2337SOL    MW4 9380   3.335   1.343   3.790
 2338SOL     OW 9381   3.362   1.615   3.876
 2338SOL    HW2 9382   3.279   1.662   3.861
 2338SOL    HW3 9383   3.343   1.525   3.848
 2338SOL    MW4 9384   3.348   1.610   3.870
 2339SOL     OW 9385   3.109   1.744   3.836
 2339SOL    HW2 9386   3.145   1.822   3.878
 2339SOL    HW3 9387   3.149   1.744   3.749
 2339SOL    MW4 9388   3.119   1.754   3.830
 2340SOL     OW 9389   3.192   1.991   3.959
 2340SOL    HW2 9390   3.182   1.962   4.050
 2340SOL    HW3 9391   3.114   2.044   3.943
 2340SOL    MW4 9392   3.180   1.995   3.969
 2341SOL     OW 9393   3.407   2.078   3.805
 2341SOL    HW2 9394   3.325   2.045   3.840
 2341SOL    HW3 9395   3.395   2.079   3.710
 2341SOL    MW4 9396   3.395   2.074   3.797
 2342SOL     OW 9397   3.383   2.339   3.895
 2342SOL    HW2 9398   3.303   2.374   3.856
 2342SOL    HW3 9399   3.393   2.252   3.856
 2342SOL    MW4 9400   3.374   2.332   3.885
 2343SOL     OW 9401   3.132   2.431   3.820
 2343SOL    HW2 9402   3.127   2.523   3.846
 2343SOL    HW3 9403   3.134   2.433   3.724
 2343SOL    MW4 9404   3.132   2.443   3.811
 2344SOL     OW 9405   3.145   2.687   3.901
 2344SOL    HW2 9406   3.133   2.684   3.996
 2344SOL    HW3 9407   3.057   2.703   3.867
 2344SOL    MW4 9408   3.132   2.688   3.909
 2345SOL     OW 9409   3.366   2.842   3.821
 2345SOL    HW2 9410   3.280   2.806   3.842
 2345SOL    HW3 9411   3.372   2.838   3.725
 2345SOL    MW4 9412   3.356   2.837   3.811
 2346SOL     OW 9413   3.370   3.092   3.922
 2346SOL    HW2 9414   3.441   3.134   3.873
 2346SOL    HW3 9415   3.368   3.002   3.887
 2346SOL    MW4 9416   3.379   3.085   3.911
 2347SOL     OW 9417   3.118   3.200   3.842
 2347SOL    HW2 9418   3.209   3.169   3.845
 2347SOL    HW3 9419   3.100   3.212   3.749
 2347SOL    MW4 9420   3.128   3.198   3.830
 2348SOL     OW 9421   3.123   3.491   3.850
 2348SOL    HW2 9422   3.212   3.521   3.828
 2348SOL    HW3 9423   3.133   3.396   3.862
 2348SOL    MW4 9424   3.136   3.483   3.849
 2349SOL     OW 9425   3.339   3.625   3.769
 2349SOL    HW2 9426   3.355   3.718   3.786
 2349SOL    HW3 9427   3.317   3.620   3.676
 2349SOL    MW4 9428   3.338   3.636   3.759
 2350SOL     OW 9429   3.365   3.884   3.845
 2350SOL    HW2 9430   3.441   3.933   3.813
 2350SOL    HW3 9431   3.290   3.939   3.823
 2350SOL    MW4 9432   3.365   3.898   3.838
 2351SOL     OW 9433   3.125   4.013   3.762
 2351SOL    HW2 9434   3.109   4.103   3.789
 2351SOL    HW3 9435   3.059   3.961   3.809
 2351SOL    MW4 9436   3.114   4.018   3.772
 2352SOL     OW 9437   3.079   4.268   3.859
 2352SOL    HW2 9438   3.104   4.252   3.951
 2352SOL    HW3 9439   3.155   4.312   3.822
 2352SOL    MW4 9440   3.092   4.272   3.866
 2353SOL     OW 9441   3.312   4.369   3.746
 2353SOL    HW2 9442   3.395   4.331   3.773
 2353SOL    HW3 9443   3.309   4.455   3.789
 2353SOL    MW4 9444   3.322   4.375   3.755
 2354SOL     OW 9445   3.773   0.026   3.853
 2354SOL    HW2 9446   3.844   0.062   3.800
 2354SOL    HW3 9447   3.757  -0.061   3.817
 2354SOL    MW4 9448   3.780   0.019   3.841
 2355SOL     OW 9449   3.530   0.151   3.805
 2355SOL    HW2 9450   3.616   0.110   3.817
 2355SOL    HW3 9451   3.520   0.159   3.710
 2355SOL    MW4 9452   3.540   0.147   3.794
 2356SOL     OW 9453   3.561   0.407   3.915
 2356SOL    HW2 9454   3.637   0.450   3.877
 2356SOL    HW3 9455   3.557   0.322   3.871
 2356SOL    MW4 9456   3.570   0.402   3.904
 2357SOL     OW 9457   3.786   0.558   3.804
 2357SOL    HW2 9458   3.861   0.508   3.836
 2357SOL    HW3 9459   3.800   0.646   3.837
 2357SOL    MW4 9460   3.797   0.563   3.812
 2358SOL     OW 9461   3.832   0.809   3.892
 2358SOL    HW2 9462   3.901   0.848   3.839
 2358SOL    HW3 9463   3.751   0.853   3.865
 2358SOL    MW4 9464   3.830   0.820   3.882
 2359SOL     OW 9465   3.602   0.921   3.806
 2359SOL    HW2 9466   3.589   1.014   3.821
 2359SOL    HW3 9467   3.529   0.878   3.851
 2359SOL    MW4 9468   3.591   0.927   3.814
 2360SOL     OW 9469   3.570   1.201   3.871
 2360SOL    HW2 9470   3.642   1.261   3.850
 2360SOL    HW3 9471   3.491   1.249   3.844
 2360SOL    MW4 9472   3.569   1.215   3.865
 2361SOL     OW 9473   3.809   1.305   3.761
 2361SOL    HW2 9474   3.871   1.249   3.807
 2361SOL    HW3 9475   3.815   1.390   3.804
 2361SOL    MW4 9476   3.818   1.309   3.773
 2362SOL     OW 9477   3.834   1.552   3.864
 2362SOL    HW2 9478   3.829   1.561   3.959
 2362SOL    HW3 9479   3.764   1.607   3.831
 2362SOL    MW4 9480   3.824   1.561   3.872
 2363SOL     OW 9481   3.609   1.679   3.781
 2363SOL    HW2 9482   3.523   1.658   3.819
 2363SOL    HW3 9483   3.597   1.666   3.687
 2363SOL    MW4 9484   3.596   1.674   3.774
 2364SOL     OW 9485   3.602   1.919   3.925
 2364SOL    HW2 9486   3.603   1.849   3.858
 2364SOL    HW3 9487   3.533   1.979   3.896
 2364SOL    MW4 9488   3.593   1.918   3.912
 2365SOL     OW 9489   3.827   2.080   3.864
 2365SOL    HW2 9490   3.909   2.033   3.877
 2365SOL    HW3 9491   3.760   2.022   3.900
 2365SOL    MW4 9492   3.829   2.066   3.871
 2366SOL     OW 9493   3.827   2.362   3.962
 2366SOL    HW2 9494   3.752   2.396   3.913
 2366SOL    HW3 9495   3.830   2.269   3.938
 2366SOL    MW4 9496   3.817   2.354   3.952
 2367SOL     OW 9497   3.616   2.462   3.806
 2367SOL    HW2 9498   3.528   2.450   3.842
 2367SOL    HW3 9499   3.603   2.459   3.711
 2367SOL    MW4 9500   3.603   2.460   3.798
 2368SOL     OW 9501   3.608   2.734   3.907
 2368SOL    HW2 9502   3.607   2.648   3.865
 2368SOL    HW3 9503   3.525   2.775   3.880
 2368SOL    MW4 9504   3.597   2.728   3.898
 2369SOL     OW 9505   3.866   2.830   3.763
 2369SOL    HW2 9506   3.941   2.791   3.806
 2369SOL    HW3 9507   3.790   2.792   3.808
 2369SOL    MW4 9508   3.866   2.820   3.775
 2370SOL     OW 9509   3.835   3.102   3.887
 2370SOL    HW2 9510   3.755   3.143   3.852
 2370SOL    HW3 9511   3.846   3.023   3.835
 2370SOL    MW4 9512   3.826   3.097   3.876
 2371SOL     OW 9513   3.584   3.220   3.789
 2371SOL    HW2 9514   3.603   3.314   3.792
 2371SOL    HW3 9515   3.579   3.200   3.696
 2371SOL    MW4 9516   3.586   3.230   3.777
 2372SOL     OW 9517   3.586   3.495   3.823
 2372SOL    HW2 9518   3.582   3.504   3.919
 2372SOL    HW3 9519   3.516   3.553   3.792
 2372SOL    MW4 9520   3.576   3.504   3.832
 2373SOL     OW 9521   3.812   3.640   3.750
 2373SOL    HW2 9522   3.810   3.722   3.800
 2373SOL    HW3 9523   3.732   3.595   3.777
 2373SOL    MW4 9524   3.801   3.645   3.760
 2374SOL     OW 9525   3.808   3.880   3.905
 2374SOL    HW2 9526   3.815   3.893   4.000
 2374SOL    HW3 9527   3.879   3.932   3.868
 2374SOL    MW4 9528   3.818   3.888   3.913
 2375SOL     OW 9529   3.597   3.992   3.758
 2375SOL    HW2 9530   3.574   4.078   3.794
 2375SOL    HW3 9531   3.668   3.961   3.815
 2375SOL    MW4 9532   3.603   3.999   3.770
 2376SOL     OW 9533   3.546   4.264   3.835
 2376SOL    HW2 9534   3.561   4.281   3.928
 2376SOL    HW3 9535   3.610   4.318   3.790
 2376SOL    MW4 9536   3.556   4.273   3.842
 2377SOL     OW 9537   3.751   4.440   3.775
 2377SOL    HW2 9538   3.826   4.393   3.811
 2377SOL    HW3 9539   3.766   4.440   3.681
 2377SOL    MW4 9540   3.763   4.434   3.768
 2378SOL     OW 9541   4.239   0.083   3.843
 2378SOL    HW2 9542   4.244   0.073   3.938
 2378SOL    HW3 9543   4.329   0.104   3.817
 2378SOL    MW4 9544   4.252   0.084   3.852
 2379SOL     OW 9545   4.001   0.165   3.705
 2379SOL    HW2 9546   4.087   0.135   3.734
 2379SOL    HW3 9547   4.008   0.170   3.610
 2379SOL    MW4 9548   4.013   0.162   3.697
 2380SOL     OW 9549   4.035   0.406   3.837
 2380SOL    HW2 9550   4.039   0.379   3.929
 2380SOL    HW3 9551   4.014   0.326   3.789
 2380SOL    MW4 9552   4.033   0.392   3.843
 2381SOL     OW 9553   4.258   0.543   3.773
 2381SOL    HW2 9554   4.195   0.475   3.794
 2381SOL    HW3 9555   4.268   0.538   3.678
 2381SOL    MW4 9556   4.251   0.533   3.763
 2382SOL     OW 9557   4.247   0.782   3.929
 2382SOL    HW2 9558   4.174   0.835   3.898
 2382SOL    HW3 9559   4.249   0.706   3.871
 2382SOL    MW4 9560   4.238   0.779   3.917
 2383SOL     OW 9561   4.049   0.930   3.801
 2383SOL    HW2 9562   4.036   1.022   3.822
 2383SOL    HW3 9563   4.061   0.928   3.706
 2383SOL    MW4 9564   4.049   0.942   3.791
 2384SOL     OW 9565   4.027   1.185   3.887
 2384SOL    HW2 9566   4.026   1.178   3.983
 2384SOL    HW3 9567   4.111   1.226   3.866
 2384SOL    MW4 9568   4.038   1.190   3.897
 2385SOL     OW 9569   4.265   1.310   3.810
 2385SOL    HW2 9570   4.254   1.402   3.833
 2385SOL    HW3 9571   4.255   1.307   3.715
 2385SOL    MW4 9572   4.262   1.322   3.801
 2386SOL     OW 9573   4.249   1.579   3.885
 2386SOL    HW2 9574   4.169   1.621   3.854
 2386SOL    HW3 9575   4.318   1.616   3.831
 2386SOL    MW4 9576   4.247   1.590   3.874
 2387SOL     OW 9577   4.036   1.705   3.774
 2387SOL    HW2 9578   4.028   1.786   3.824
 2387SOL    HW3 9579   3.966   1.649   3.808
 2387SOL    MW4 9580   4.026   1.708   3.785
 2388SOL     OW 9581   4.043   1.925   3.930
 2388SOL    HW2 9582   4.035   1.952   4.021
 2388SOL    HW3 9583   4.129   1.958   3.903
 2388SOL    MW4 9584   4.053   1.933   3.938
 2389SOL     OW 9585   4.244   2.112   3.825
 2389SOL    HW2 9586   4.271   2.194   3.865
 2389SOL    HW3 9587   4.243   2.129   3.731
 2389SOL    MW4 9588   4.247   2.125   3.818
 2390SOL     OW 9589   4.300   2.364   3.917
 2390SOL    HW2 9590   4.296   2.376   4.012
 2390SOL    HW3 9591   4.222   2.408   3.883
 2390SOL    MW4 9592   4.289   2.371   3.925
 2391SOL     OW 9593   4.066   2.464   3.820
 2391SOL    HW2 9594   4.061   2.560   3.828
 2391SOL    HW3 9595   4.005   2.432   3.886
 2391SOL    MW4 9596   4.057   2.473   3.830
 2392SOL     OW 9597   4.080   2.722   3.900
 2392SOL    HW2 9598   4.074   2.741   3.994
 2392SOL    HW3 9599   4.161   2.763   3.873
 2392SOL    MW4 9600   4.090   2.730   3.909
 2393SOL     OW 9601   4.315   2.810   3.833
 2393SOL    HW2 9602   4.307   2.896   3.874
 2393SOL    HW3 9603   4.394   2.772   3.872
 2393SOL    MW4 9604   4.324   2.816   3.843
 2394SOL     OW 9605   4.279   3.082   3.902
 2394SOL    HW2 9606   4.204   3.139   3.884
 2394SOL    HW3 9607   4.352   3.123   3.857
 2394SOL    MW4 9608   4.279   3.095   3.894
 2395SOL     OW 9609   4.065   3.240   3.833
 2395SOL    HW2 9610   3.990   3.188   3.861
 2395SOL    HW3 9611   4.066   3.231   3.738
 2395SOL    MW4 9612   4.056   3.232   3.824
 2396SOL     OW 9613   4.021   3.521   3.900
 2396SOL    HW2 9614   4.031   3.426   3.901
 2396SOL    HW3 9615   3.933   3.536   3.864
 2396SOL    MW4 9616   4.011   3.511   3.895
 2397SOL     OW 9617   4.236   3.653   3.770
 2397SOL    HW2 9618   4.172   3.606   3.823
 2397SOL    HW3 9619   4.318   3.606   3.783
 2397SOL    MW4 9620   4.238   3.641   3.778
 2398SOL     OW 9621   4.259   3.909   3.873
 2398SOL    HW2 9622   4.178   3.958   3.858
 2398SOL    HW3 9623   4.244   3.823   3.833
 2398SOL    MW4 9624   4.246   3.904   3.866
 2399SOL     OW 9625   4.012   4.036   3.794
 2399SOL    HW2 9626   4.001   4.129   3.815
 2399SOL    HW3 9627   4.028   4.035   3.699
 2399SOL    MW4 9628   4.013   4.048   3.784
 2400SOL     OW 9629   3.987   4.309   3.875
 2400SOL    HW2 9630   4.014   4.293   3.966
 2400SOL    HW3 9631   4.058   4.361   3.838
 2400SOL    MW4 9632   3.999   4.314   3.882
 2401SOL     OW 9633   4.193   4.434   3.751
 2401SOL    HW2 9634   4.226   4.521   3.772
 2401SOL    HW3 9635   4.263   4.374   3.777
 2401SOL    MW4 9636   4.207   4.438   3.757
 2402SOL     OW 9637   0.234   0.032   4.154
 2402SOL    HW2 9638   0.309   0.057   4.207
 2402SOL    HW3 9639   0.213  -0.058   4.183
 2402SOL    MW4 9640   0.241   0.023   4.165
 2403SOL     OW 9641   4.488   0.113   4.281
 2403SOL    HW2 9642   4.494   0.169   4.359
 2403SOL    HW3 9643   4.579   0.100   4.254
 2403SOL    MW4 9644   4.501   0.118   4.288
 2404SOL     OW 9645   0.002   0.385   4.137
 2404SOL    HW2 9646  -0.027   0.297   4.161
 2404SOL    HW3 9647   0.003   0.386   4.041
 2404SOL    MW4 9648  -0.002   0.374   4.128
 2405SOL     OW 9649   0.194   0.519   4.284
 2405SOL    HW2 9650   0.273   0.475   4.253
 2405SOL    HW3 9651   0.122   0.467   4.248
 2405SOL    MW4 9652   0.195   0.506   4.276
 2406SOL     OW 9653   0.194   0.794   4.165
 2406SOL    HW2 9654   0.129   0.822   4.229
 2406SOL    HW3 9655   0.213   0.703   4.188
 2406SOL    MW4 9656   0.188   0.786   4.177
 2407SOL     OW 9657   4.473   0.925   4.323
 2407SOL    HW2 9658   4.392   0.891   4.284
 2407SOL    HW3 9659   4.489   1.007   4.276
 2407SOL    MW4 9660   4.464   0.931   4.311
 2408SOL     OW 9661   0.004   1.155   4.187
 2408SOL    HW2 9662   0.073   1.209   4.223
 2408SOL    HW3 9663   0.011   1.168   4.092
 2408SOL    MW4 9664   0.014   1.164   4.179
 2409SOL     OW 9665   0.212   1.305   4.275
 2409SOL    HW2 9666   0.236   1.338   4.362
 2409SOL    HW3 9667   0.293   1.268   4.241
 2409SOL    MW4 9668   0.225   1.304   4.282
 2410SOL     OW 9669   4.427   1.703   4.566
 2410SOL    HW2 9670   4.464   1.698   4.478
 2410SOL    HW3 9671   4.392   1.792   4.571
 2410SOL    MW4 9672   4.427   1.714   4.555
 2411SOL     OW 9673   4.470   1.692   4.281
 2411SOL    HW2 9674   4.397   1.648   4.238
 2411SOL    HW3 9675   4.467   1.782   4.248
 2411SOL    MW4 9676   4.460   1.698   4.271
 2412SOL     OW 9677   0.182   2.075   4.253
 2412SOL    HW2 9678   0.176   2.069   4.348
 2412SOL    HW3 9679   0.258   2.023   4.229
 2412SOL    MW4 9680   0.191   2.068   4.262
 2413SOL     OW 9681   0.684   1.583   4.667
 2413SOL    HW2 9682   0.596   1.610   4.641
 2413SOL    HW3 9683   0.713   1.652   4.727
 2413SOL    MW4 9684   0.677   1.596   4.671
 2414SOL     OW 9685   0.198   2.338   4.159
 2414SOL    HW2 9686   0.287   2.362   4.187
 2414SOL    HW3 9687   0.186   2.249   4.190
 2414SOL    MW4 9688   0.208   2.330   4.167
 2415SOL     OW 9689   0.010   2.469   4.322
 2415SOL    HW2 9690  -0.069   2.431   4.283
 2415SOL    HW3 9691   0.082   2.428   4.274
 2415SOL    MW4 9692   0.010   2.459   4.310
 2416SOL     OW 9693   4.464   2.723   4.214
 2416SOL    HW2 9694   4.543   2.769   4.243
 2416SOL    HW3 9695   4.473   2.635   4.250
 2416SOL    MW4 9696   4.475   2.717   4.223
 2417SOL     OW 9697   0.235   2.837   4.236
 2417SOL    HW2 9698   0.310   2.790   4.200
 2417SOL    HW3 9699   0.231   2.919   4.186
 2417SOL    MW4 9700   0.244   2.842   4.225
 2418SOL     OW 9701   0.226   3.107   4.147
 2418SOL    HW2 9702   0.310   3.141   4.176
 2418SOL    HW3 9703   0.163   3.175   4.170
 2418SOL    MW4 9704   0.229   3.120   4.154
 2419SOL     OW 9705   0.048   3.319   4.222
 2419SOL    HW2 9706  -0.037   3.274   4.220
 2419SOL    HW3 9707   0.031   3.404   4.181
 2419SOL    MW4 9708   0.034   3.324   4.217
 2420SOL     OW 9709   0.017   3.558   4.097
 2420SOL    HW2 9710  -0.068   3.593   4.126
 2420SOL    HW3 9711   0.003   3.535   4.005
 2420SOL    MW4 9712   0.004   3.560   4.089
 2421SOL     OW 9713   0.227   3.701   4.253
 2421SOL    HW2 9714   0.288   3.639   4.214
 2421SOL    HW3 9715   0.142   3.678   4.216
 2421SOL    MW4 9716   0.224   3.690   4.243
 2422SOL     OW 9717   0.249   3.932   4.122
 2422SOL    HW2 9718   0.168   3.973   4.151
 2422SOL    HW3 9719   0.247   3.845   4.162
 2422SOL    MW4 9720   0.238   3.926   4.131
 2423SOL     OW 9721   0.014   4.053   4.213
 2423SOL    HW2 9722   0.025   4.078   4.305
 2423SOL    HW3 9723  -0.064   3.997   4.212
 2423SOL    MW4 9724   0.005   4.049   4.225
 2424SOL     OW 9725   4.453   4.297   4.085
 2424SOL    HW2 9726   4.487   4.210   4.107
 2424SOL    HW3 9727   4.424   4.289   3.995
 2424SOL    MW4 9728   4.454   4.284   4.076
 2425SOL     OW 9729   0.149   4.442   4.206
 2425SOL    HW2 9730   0.123   4.414   4.294
 2425SOL    HW3 9731   0.083   4.403   4.149
 2425SOL    MW4 9732   0.137   4.433   4.210
 2426SOL     OW 9733   0.694   4.625   4.202
 2426SOL    HW2 9734   0.621   4.675   4.237
 2426SOL    HW3 9735   0.687   4.634   4.107
 2426SOL    MW4 9736   0.684   4.632   4.194
 2427SOL     OW 9737   0.470   0.107   4.273
 2427SOL    HW2 9738   0.487   0.104   4.367
 2427SOL    HW3 9739   0.452   0.200   4.255
 2427SOL    MW4 9740   0.470   0.119   4.283
 2428SOL     OW 9741   0.438   0.381   4.196
 2428SOL    HW2 9742   0.519   0.428   4.212
 2428SOL    HW3 9743   0.426   0.385   4.101
 2428SOL    MW4 9744   0.447   0.388   4.186
 2429SOL     OW 9745   0.651   0.540   4.273
 2429SOL    HW2 9746   0.730   0.495   4.243
 2429SOL    HW3 9747   0.652   0.623   4.226
 2429SOL    MW4 9748   0.661   0.545   4.263
 2430SOL     OW 9749   0.655   0.808   4.178
 2430SOL    HW2 9750   0.576   0.834   4.225
 2430SOL    HW3 9751   0.633   0.819   4.086
 2430SOL    MW4 9752   0.642   0.813   4.172
 2431SOL     OW 9753   0.412   0.924   4.289
 2431SOL    HW2 9754   0.432   1.007   4.246
 2431SOL    HW3 9755   0.330   0.896   4.250
 2431SOL    MW4 9756   0.404   0.931   4.278
 2432SOL     OW 9757   0.455   1.184   4.187
 2432SOL    HW2 9758   0.537   1.228   4.208
 2432SOL    HW3 9759   0.457   1.175   4.092
 2432SOL    MW4 9760   0.466   1.189   4.177
 2433SOL     OW 9761   0.709   1.292   4.251
 2433SOL    HW2 9762   0.698   1.310   4.345
 2433SOL    HW3 9763   0.680   1.372   4.208
 2433SOL    MW4 9764   0.704   1.305   4.258
 2434SOL     OW 9765   0.649   1.548   4.129
 2434SOL    HW2 9766   0.727   1.597   4.156
 2434SOL    HW3 9767   0.648   1.554   4.034
 2434SOL    MW4 9768   0.659   1.555   4.120
 2435SOL     OW 9769   0.196   1.574   4.167
 2435SOL    HW2 9770   0.190   1.484   4.200
 2435SOL    HW3 9771   0.116   1.616   4.198
 2435SOL    MW4 9772   0.185   1.567   4.176
 2436SOL     OW 9773   0.411   1.922   4.191
 2436SOL    HW2 9774   0.415   1.837   4.235
 2436SOL    HW3 9775   0.406   1.901   4.098
 2436SOL    MW4 9776   0.411   1.908   4.184
 2437SOL     OW 9777   0.644   2.057   4.256
 2437SOL    HW2 9778   0.654   2.071   4.350
 2437SOL    HW3 9779   0.550   2.051   4.242
 2437SOL    MW4 9780   0.633   2.058   4.267
 2438SOL     OW 9781   0.709   2.301   4.121
 2438SOL    HW2 9782   0.702   2.217   4.166
 2438SOL    HW3 9783   0.705   2.279   4.028
 2438SOL    MW4 9784   0.707   2.287   4.115
 2439SOL     OW 9785   0.464   2.424   4.214
 2439SOL    HW2 9786   0.465   2.516   4.190
 2439SOL    HW3 9787   0.537   2.385   4.166
 2439SOL    MW4 9788   0.474   2.431   4.205
 2440SOL     OW 9789   0.491   2.700   4.145
 2440SOL    HW2 9790   0.563   2.745   4.191
 2440SOL    HW3 9791   0.502   2.726   4.053
 2440SOL    MW4 9792   0.502   2.710   4.139
 2441SOL     OW 9793   0.702   2.862   4.246
 2441SOL    HW2 9794   0.728   2.877   4.337
 2441SOL    HW3 9795   0.674   2.948   4.215
 2441SOL    MW4 9796   0.701   2.876   4.254
 2442SOL     OW 9797   0.684   3.098   4.113
 2442SOL    HW2 9798   0.762   3.147   4.140
 2442SOL    HW3 9799   0.612   3.159   4.127
 2442SOL    MW4 9800   0.685   3.112   4.119
 2443SOL     OW 9801   0.448   3.253   4.223
 2443SOL    HW2 9802   0.431   3.248   4.317
 2443SOL    HW3 9803   0.414   3.339   4.197
 2443SOL    MW4 9804   0.441   3.264   4.232
 2444SOL     OW 9805   0.389   3.494   4.141
 2444SOL    HW2 9806   0.473   3.534   4.165
 2444SOL    HW3 9807   0.394   3.484   4.046
 2444SOL    MW4 9808   0.401   3.498   4.132
 2445SOL     OW 9809   0.624   3.595   4.233
 2445SOL    HW2 9810   0.614   3.581   4.327
 2445SOL    HW3 9811   0.708   3.553   4.212
 2445SOL    MW4 9812   0.634   3.587   4.242
 2446SOL     OW 9813   0.682   3.859   4.166
 2446SOL    HW2 9814   0.628   3.915   4.221
 2446SOL    HW3 9815   0.665   3.770   4.197
 2446SOL    MW4 9816   0.673   3.855   4.177
 2447SOL     OW 9817   0.498   4.051   4.274
 2447SOL    HW2 9818   0.481   4.134   4.230
 2447SOL    HW3 9819   0.416   4.002   4.267
 2447SOL    MW4 9820   0.485   4.056   4.268
 2448SOL     OW 9821   0.404   4.271   4.158
 2448SOL    HW2 9822   0.321   4.316   4.177
 2448SOL    HW3 9823   0.410   4.270   4.063
 2448SOL    MW4 9824   0.394   4.277   4.148
 2449SOL     OW 9825   0.630   4.381   4.311
 2449SOL    HW2 9826   0.557   4.343   4.262
 2449SOL    HW3 9827   0.665   4.448   4.252
 2449SOL    MW4 9828   0.625   4.385   4.296
 2450SOL     OW 9829   1.127   0.000   4.184
 2450SOL    HW2 9830   1.117  -0.094   4.196
 2450SOL    HW3 9831   1.124   0.014   4.090
 2450SOL    MW4 9832   1.125  -0.010   4.173
 2451SOL     OW 9833   0.914   0.099   4.311
 2451SOL    HW2 9834   0.985   0.054   4.265
 2451SOL    HW3 9835   0.834   0.060   4.275
 2451SOL    MW4 9836   0.913   0.088   4.300
 2452SOL     OW 9837   0.867   0.357   4.201
 2452SOL    HW2 9838   0.946   0.401   4.232
 2452SOL    HW3 9839   0.872   0.269   4.236
 2452SOL    MW4 9840   0.878   0.351   4.210
 2453SOL     OW 9841   1.126   0.466   4.229
 2453SOL    HW2 9842   1.162   0.489   4.314
 2453SOL    HW3 9843   1.197   0.419   4.185
 2453SOL    MW4 9844   1.140   0.463   4.234
 2454SOL     OW 9845   1.110   0.724   4.140
 2454SOL    HW2 9846   1.186   0.764   4.184
 2454SOL    HW3 9847   1.110   0.633   4.171
 2454SOL    MW4 9848   1.120   0.717   4.150
 2455SOL     OW 9849   0.918   0.882   4.232
 2455SOL    HW2 9850   0.974   0.818   4.189
 2455SOL    HW3 9851   0.830   0.846   4.223
 2455SOL    MW4 9852   0.914   0.869   4.225
 2456SOL     OW 9853   0.892   1.141   4.115
 2456SOL    HW2 9854   0.894   1.056   4.159
 2456SOL    HW3 9855   0.821   1.189   4.159
 2456SOL    MW4 9856   0.883   1.136   4.127
 2457SOL     OW 9857   1.133   1.290   4.188
 2457SOL    HW2 9858   1.135   1.315   4.280
 2457SOL    HW3 9859   1.052   1.239   4.179
 2457SOL    MW4 9860   1.122   1.287   4.199
 2458SOL     OW 9861   1.119   1.562   4.101
 2458SOL    HW2 9862   1.038   1.601   4.132
 2458SOL    HW3 9863   1.119   1.474   4.139
 2458SOL    MW4 9864   1.108   1.555   4.110
 2459SOL     OW 9865   0.873   1.691   4.215
 2459SOL    HW2 9866   0.882   1.682   4.310
 2459SOL    HW3 9867   0.878   1.786   4.200
 2459SOL    MW4 9868   0.875   1.702   4.225
 2460SOL     OW 9869   0.885   1.966   4.153
 2460SOL    HW2 9870   0.799   1.982   4.193
 2460SOL    HW3 9871   0.865   1.931   4.066
 2460SOL    MW4 9872   0.871   1.963   4.147
 2461SOL     OW 9873   1.135   2.029   4.256
 2461SOL    HW2 9874   1.131   2.002   4.348
 2461SOL    HW3 9875   1.052   1.999   4.219
 2461SOL    MW4 9876   1.124   2.021   4.263
 2462SOL     OW 9877   1.139   2.283   4.119
 2462SOL    HW2 9878   1.203   2.338   4.165
 2462SOL    HW3 9879   1.130   2.205   4.174
 2462SOL    MW4 9880   1.147   2.280   4.133
 2463SOL     OW 9881   0.920   2.456   4.225
 2463SOL    HW2 9882   0.995   2.397   4.225
 2463SOL    HW3 9883   0.856   2.414   4.167
 2463SOL    MW4 9884   0.921   2.442   4.218
 2464SOL     OW 9885   0.897   2.718   4.113
 2464SOL    HW2 9886   0.916   2.638   4.163
 2464SOL    HW3 9887   0.826   2.760   4.162
 2464SOL    MW4 9888   0.890   2.713   4.126
 2465SOL     OW 9889   1.122   2.824   4.189
 2465SOL    HW2 9890   1.124   2.915   4.160
 2465SOL    HW3 9891   1.040   2.789   4.154
 2465SOL    MW4 9892   1.112   2.831   4.180
 2466SOL     OW 9893   1.106   3.087   4.106
 2466SOL    HW2 9894   1.191   3.116   4.141
 2466SOL    HW3 9895   1.118   3.086   4.011
 2466SOL    MW4 9896   1.119   3.091   4.098
 2467SOL     OW 9897   0.901   3.244   4.214
 2467SOL    HW2 9898   0.886   3.231   4.308
 2467SOL    HW3 9899   0.982   3.196   4.196
 2467SOL    MW4 9900   0.910   3.236   4.224
 2468SOL     OW 9901   0.897   3.523   4.215
 2468SOL    HW2 9902   0.874   3.433   4.239
 2468SOL    HW3 9903   0.909   3.520   4.120
 2468SOL    MW4 9904   0.896   3.510   4.206
 2469SOL     OW 9905   1.160   3.630   4.251
 2469SOL    HW2 9906   1.169   3.718   4.214
 2469SOL    HW3 9907   1.070   3.605   4.233
 2469SOL    MW4 9908   1.149   3.638   4.244
 2470SOL     OW 9909   1.109   3.889   4.148
 2470SOL    HW2 9910   1.176   3.930   4.202
 2470SOL    HW3 9911   1.029   3.937   4.168
 2470SOL    MW4 9912   1.107   3.901   4.158
 2471SOL     OW 9913   0.881   3.988   4.303
 2471SOL    HW2 9914   0.870   4.081   4.282
 2471SOL    HW3 9915   0.816   3.943   4.249
 2471SOL    MW4 9916   0.871   3.995   4.293
 2472SOL     OW 9917   0.872   4.262   4.191
 2472SOL    HW2 9918   0.943   4.322   4.214
 2472SOL    HW3 9919   0.793   4.306   4.222
 2472SOL    MW4 9920   0.871   4.276   4.198
 2473SOL     OW 9921   1.103   4.404   4.257
 2473SOL    HW2 9922   1.117   4.410   4.351
 2473SOL    HW3 9923   1.178   4.354   4.225
 2473SOL    MW4 9924   1.114   4.398   4.265
 2474SOL     OW 9925   1.594   4.659   4.179
 2474SOL    HW2 9926   1.670   4.685   4.231
 2474SOL    HW3 9927   1.522   4.710   4.215
 2474SOL    MW4 9928   1.595   4.669   4.190
 2475SOL     OW 9929   1.379   0.109   4.290
 2475SOL    HW2 9930   1.383   0.099   4.385
 2475SOL    HW3 9931   1.293   0.076   4.265
 2475SOL    MW4 9932   1.368   0.103   4.299
 2476SOL     OW 9933   1.356   0.330   4.110
 2476SOL    HW2 9934   1.430   0.386   4.132
 2476SOL    HW3 9935   1.358   0.261   4.177
 2476SOL    MW4 9936   1.366   0.328   4.121
 2477SOL     OW 9937   1.560   0.492   4.223
 2477SOL    HW2 9938   1.524   0.519   4.308
 2477SOL    HW3 9939   1.575   0.573   4.176
 2477SOL    MW4 9940   1.557   0.506   4.228
 2478SOL     OW 9941   1.576   0.764   4.095
 2478SOL    HW2 9942   1.656   0.813   4.113
 2478SOL    HW3 9943   1.575   0.754   4.000
 2478SOL    MW4 9944   1.587   0.769   4.085
 2479SOL     OW 9945   1.348   0.847   4.210
 2479SOL    HW2 9946   1.349   0.937   4.178
 2479SOL    HW3 9947   1.420   0.804   4.164
 2479SOL    MW4 9948   1.358   0.853   4.200
 2480SOL     OW 9949   1.353   1.110   4.133
 2480SOL    HW2 9950   1.273   1.151   4.166
 2480SOL    HW3 9951   1.367   1.150   4.047
 2480SOL    MW4 9952   1.344   1.121   4.126
 2481SOL     OW 9953   1.571   1.286   4.229
 2481SOL    HW2 9954   1.549   1.288   4.323
 2481SOL    HW3 9955   1.494   1.246   4.188
 2481SOL    MW4 9956   1.558   1.281   4.236
 2482SOL     OW 9957   1.596   1.552   4.140
 2482SOL    HW2 9958   1.514   1.568   4.186
 2482SOL    HW3 9959   1.619   1.462   4.163
 2482SOL    MW4 9960   1.589   1.542   4.149
 2483SOL     OW 9961   1.363   1.637   4.249
 2483SOL    HW2 9962   1.371   1.716   4.196
 2483SOL    HW3 9963   1.283   1.595   4.218
 2483SOL    MW4 9964   1.354   1.642   4.238
 2484SOL     OW 9965   1.354   1.897   4.163
 2484SOL    HW2 9966   1.429   1.925   4.214
 2484SOL    HW3 9967   1.279   1.941   4.204
 2484SOL    MW4 9968   1.354   1.907   4.175
 2485SOL     OW 9969   1.561   2.037   4.301
 2485SOL    HW2 9970   1.645   2.029   4.347
 2485SOL    HW3 9971   1.561   2.127   4.268
 2485SOL    MW4 9972   1.572   2.048   4.303
 2486SOL     OW 9973   1.551   2.284   4.176
 2486SOL    HW2 9974   1.635   2.322   4.200
 2486SOL    HW3 9975   1.555   2.275   4.081
 2486SOL    MW4 9976   1.562   2.288   4.167
 2487SOL     OW 9977   1.551   2.776   4.360
 2487SOL    HW2 9978   1.550   2.859   4.408
 2487SOL    HW3 9979   1.644   2.754   4.355
 2487SOL    MW4 9980   1.563   2.784   4.365
 2488SOL     OW 9981   1.385   2.706   4.146
 2488SOL    HW2 9982   1.451   2.740   4.206
 2488SOL    HW3 9983   1.307   2.759   4.163
 2488SOL    MW4 9984   1.383   2.717   4.156
 2489SOL     OW 9985   1.570   2.591   4.578
 2489SOL    HW2 9986   1.663   2.609   4.595
 2489SOL    HW3 9987   1.553   2.632   4.493
 2489SOL    MW4 9988   1.580   2.599   4.569
 2490SOL     OW 9989   1.607   3.036   4.139
 2490SOL    HW2 9990   1.642   3.087   4.212
 2490SOL    HW3 9991   1.670   2.965   4.127
 2490SOL    MW4 9992   1.620   3.034   4.147
 2491SOL     OW 9993   1.349   3.145   4.223
 2491SOL    HW2 9994   1.432   3.114   4.185
 2491SOL    HW3 9995   1.354   3.240   4.217
 2491SOL    MW4 9996   1.361   3.153   4.217
 2492SOL     OW 9997   1.356   3.413   4.201
 2492SOL    HW2 9998   1.304   3.481   4.244
 2492SOL    HW3 9999   1.360   3.441   4.109
 2492SOL    MW410000   1.349   3.426   4.194
 2493SOL     OW10001   1.575   3.580   4.273
 2493SOL    HW210002   1.569   3.576   4.368
 2493SOL    HW310003   1.509   3.517   4.242
 2493SOL    MW410004   1.565   3.571   4.281
 2494SOL     OW10005   1.571   3.859   4.215
 2494SOL    HW210006   1.491   3.902   4.244
 2494SOL    HW310007   1.564   3.770   4.249
 2494SOL    MW410008   1.560   3.853   4.223
 2495SOL     OW10009   1.325   4.011   4.278
 2495SOL    HW210010   1.311   4.020   4.372
 2495SOL    HW310011   1.326   4.102   4.246
 2495SOL    MW410012   1.324   4.024   4.286
 2496SOL     OW10013   1.322   4.264   4.201
 2496SOL    HW210014   1.394   4.309   4.245
 2496SOL    HW310015   1.344   4.266   4.108
 2496SOL    MW410016   1.334   4.270   4.195
 2497SOL     OW10017   1.541   4.392   4.302
 2497SOL    HW210018   1.545   4.472   4.250
 2497SOL    HW310019   1.616   4.341   4.272
 2497SOL    MW410020   1.552   4.396   4.291
 2498SOL     OW10021   2.027   4.589   4.194
 2498SOL    HW210022   1.954   4.637   4.233
 2498SOL    HW310023   2.020   4.606   4.100
 2498SOL    MW410024   2.017   4.598   4.187
 2499SOL     OW10025   1.829   0.077   4.299
 2499SOL    HW210026   1.830   0.073   4.395
 2499SOL    HW310027   1.828   0.170   4.279
 2499SOL    MW410028   1.829   0.089   4.309
 2500SOL     OW10029   1.793   0.327   4.213
 2500SOL    HW210030   1.874   0.372   4.241
 2500SOL    HW310031   1.725   0.393   4.225
 2500SOL    MW410032   1.795   0.342   4.219
 2501SOL     OW10033   1.995   0.527   4.273
 2501SOL    HW210034   1.985   0.517   4.368
 2501SOL    HW310035   2.075   0.479   4.252
 2501SOL    MW410036   2.005   0.520   4.283
 2502SOL     OW10037   2.023   0.790   4.145
 2502SOL    HW210038   2.110   0.816   4.176
 2502SOL    HW310039   2.002   0.711   4.195
 2502SOL    MW410040   2.032   0.783   4.156
 2503SOL     OW10041   1.766   0.921   4.213
 2503SOL    HW210042   1.767   1.008   4.173
 2503SOL    HW310043   1.853   0.885   4.194
 2503SOL    MW410044   1.778   0.928   4.206
 2504SOL     OW10045   1.791   1.167   4.109
 2504SOL    HW210046   1.869   1.218   4.130
 2504SOL    HW310047   1.721   1.211   4.158
 2504SOL    MW410048   1.792   1.180   4.119
 2505SOL     OW10049   2.016   1.281   4.233
 2505SOL    HW210050   2.098   1.245   4.198
 2505SOL    HW310051   2.019   1.374   4.209
 2505SOL    MW410052   2.027   1.289   4.225
 2506SOL     OW10053   2.019   1.552   4.119
 2506SOL    HW210054   2.093   1.583   4.172
 2506SOL    HW310055   2.044   1.571   4.029
 2506SOL    MW410056   2.032   1.559   4.114
 2507SOL     OW10057   1.805   1.704   4.249
 2507SOL    HW210058   1.880   1.662   4.206
 2507SOL    HW310059   1.729   1.658   4.213
 2507SOL    MW410060   1.805   1.692   4.239
 2508SOL     OW10061   1.757   1.951   4.123
 2508SOL    HW210062   1.770   1.868   4.168
 2508SOL    HW310063   1.691   1.997   4.176
 2508SOL    MW410064   1.750   1.946   4.136
 2509SOL     OW10065   1.793   2.410   4.221
 2509SOL    HW210066   1.875   2.387   4.178
 2509SOL    HW310067   1.801   2.371   4.309
 2509SOL    MW410068   1.805   2.402   4.227
 2510SOL     OW10069   2.054   2.357   4.114
 2510SOL    HW210070   2.052   2.330   4.022
 2510SOL    HW310071   2.135   2.320   4.148
 2510SOL    MW410072   2.064   2.348   4.106
 2511SOL     OW10073   1.798   2.679   4.301
 2511SOL    HW210074   1.807   2.583   4.296
 2511SOL    HW310075   1.883   2.708   4.335
 2511SOL    MW410076   1.811   2.670   4.305
 2512SOL     OW10077   1.803   2.830   4.066
 2512SOL    HW210078   1.803   2.786   4.151
 2512SOL    HW310079   1.889   2.871   4.060
 2512SOL    MW410080   1.814   2.829   4.077
 2513SOL     OW10081   1.977   3.061   4.335
 2513SOL    HW210082   1.986   2.990   4.398
 2513SOL    HW310083   1.973   3.017   4.250
 2513SOL    MW410084   1.978   3.046   4.332
 2514SOL     OW10085   2.276   2.875   4.201
 2514SOL    HW210086   2.248   2.896   4.290
 2514SOL    HW310087   2.222   2.800   4.176
 2514SOL    MW410088   2.266   2.868   4.210
 2515SOL     OW10089   1.733   3.201   4.300
 2515SOL    HW210090   1.758   3.287   4.265
 2515SOL    HW310091   1.816   3.159   4.322
 2515SOL    MW410092   1.747   3.207   4.299
 2516SOL     OW10093   1.797   3.457   4.186
 2516SOL    HW210094   1.725   3.516   4.206
 2516SOL    HW310095   1.808   3.462   4.091
 2516SOL    MW410096   1.789   3.465   4.176
 2517SOL     OW10097   2.012   3.595   4.313
 2517SOL    HW210098   2.015   3.686   4.283
 2517SOL    HW310099   1.935   3.558   4.269
 2517SOL    MW410100   2.002   3.602   4.303
 2518SOL     OW10101   2.019   3.854   4.209
 2518SOL    HW210102   1.940   3.900   4.237
 2518SOL    HW310103   2.016   3.856   4.114
 2518SOL    MW410104   2.008   3.860   4.200
 2519SOL     OW10105   1.801   4.000   4.308
 2519SOL    HW210106   1.794   4.075   4.249
 2519SOL    HW310107   1.719   3.951   4.293
 2519SOL    MW410108   1.789   4.004   4.298
 2520SOL     OW10109   1.758   4.242   4.162
 2520SOL    HW210110   1.845   4.278   4.183
 2520SOL    HW310111   1.758   4.234   4.067
 2520SOL    MW410112   1.770   4.246   4.152
 2521SOL     OW10113   2.009   4.323   4.219
 2521SOL    HW210114   2.023   4.302   4.312
 2521SOL    HW310115   2.023   4.418   4.214
 2521SOL    MW410116   2.013   4.333   4.231
 2522SOL     OW10117   2.443   4.615   4.175
 2522SOL    HW210118   2.515   4.669   4.209
 2522SOL    HW310119   2.462   4.527   4.209
 2522SOL    MW410120   2.455   4.610   4.184
 2523SOL     OW10121   2.228   0.086   4.280
 2523SOL    HW210122   2.305   0.038   4.249
 2523SOL    HW310123   2.153   0.036   4.247
 2523SOL    MW410124   2.228   0.073   4.272
 2524SOL     OW10125   2.207   0.354   4.202
 2524SOL    HW210126   2.208   0.259   4.212
 2524SOL    HW310127   2.228   0.368   4.109
 2524SOL    MW410128   2.210   0.343   4.191
 2525SOL     OW10129   2.450   0.463   4.286
 2525SOL    HW210130   2.422   0.478   4.376
 2525SOL    HW310131   2.372   0.428   4.242
 2525SOL    MW410132   2.436   0.461   4.292
 2526SOL     OW10133   2.480   0.742   4.178
 2526SOL    HW210134   2.492   0.657   4.220
 2526SOL    HW310135   2.488   0.724   4.084
 2526SOL    MW410136   2.483   0.728   4.171
 2527SOL     OW10137   2.254   0.926   4.251
 2527SOL    HW210138   2.204   0.917   4.332
 2527SOL    HW310139   2.318   0.855   4.255
 2527SOL    MW410140   2.256   0.915   4.263
 2528SOL     OW10141   2.253   1.166   4.121
 2528SOL    HW210142   2.319   1.226   4.155
 2528SOL    HW310143   2.266   1.085   4.170
 2528SOL    MW410144   2.263   1.163   4.132
 2529SOL     OW10145   2.481   1.298   4.222
 2529SOL    HW210146   2.477   1.304   4.317
 2529SOL    HW310147   2.571   1.269   4.204
 2529SOL    MW410148   2.493   1.295   4.232
 2530SOL     OW10149   2.474   1.557   4.181
 2530SOL    HW210150   2.482   1.463   4.195
 2530SOL    HW310151   2.494   1.569   4.088
 2530SOL    MW410152   2.478   1.546   4.170
 2531SOL     OW10153   2.233   1.653   4.258
 2531SOL    HW210154   2.319   1.620   4.232
 2531SOL    HW310155   2.227   1.740   4.219
 2531SOL    MW410156   2.243   1.660   4.250
 2532SOL     OW10157   2.231   1.908   4.152
 2532SOL    HW210158   2.289   1.976   4.187
 2532SOL    HW310159   2.144   1.947   4.155
 2532SOL    MW410160   2.228   1.922   4.157
 2533SOL     OW10161   2.432   2.054   4.301
 2533SOL    HW210162   2.433   2.040   4.396
 2533SOL    HW310163   2.513   2.012   4.270
 2533SOL    MW410164   2.443   2.047   4.310
 2534SOL     OW10165   2.320   2.289   4.184
 2534SOL    HW210166   2.365   2.216   4.227
 2534SOL    HW310167   2.356   2.290   4.095
 2534SOL    MW410168   2.331   2.279   4.178
 2535SOL     OW10169   2.455   2.511   4.510
 2535SOL    HW210170   2.364   2.486   4.495
 2535SOL    HW310171   2.450   2.589   4.564
 2535SOL    MW410172   2.442   2.518   4.515
 2536SOL     OW10173   2.134   2.626   4.111
 2536SOL    HW210174   2.105   2.663   4.194
 2536SOL    HW310175   2.110   2.533   4.116
 2536SOL    MW410176   2.127   2.619   4.122
 2537SOL     OW10177   2.469   2.672   4.250
 2537SOL    HW210178   2.445   2.618   4.326
 2537SOL    HW310179   2.397   2.735   4.244
 2537SOL    MW410180   2.456   2.673   4.260
 2538SOL     OW10181   2.548   3.073   4.160
 2538SOL    HW210182   2.609   3.138   4.194
 2538SOL    HW310183   2.491   3.052   4.234
 2538SOL    MW410184   2.548   3.079   4.174
 2539SOL     OW10185   2.041   2.976   4.069
 2539SOL    HW210186   2.030   3.026   3.989
 2539SOL    HW310187   2.136   2.973   4.083
 2539SOL    MW410188   2.052   2.982   4.060
 2540SOL     OW10189   2.197   3.463   4.160
 2540SOL    HW210190   2.200   3.379   4.206
 2540SOL    HW310191   2.137   3.517   4.212
 2540SOL    MW410192   2.190   3.459   4.173
 2541SOL     OW10193   2.437   3.545   4.284
 2541SOL    HW210194   2.355   3.516   4.245
 2541SOL    HW310195   2.447   3.636   4.256
 2541SOL    MW410196   2.428   3.553   4.276
 2542SOL     OW10197   2.464   3.832   4.199
 2542SOL    HW210198   2.538   3.884   4.228
 2542SOL    HW310199   2.472   3.830   4.104
 2542SOL    MW410200   2.475   3.838   4.190
 2543SOL     OW10201   2.256   3.982   4.271
 2543SOL    HW210202   2.325   3.920   4.246
 2543SOL    HW310203   2.176   3.930   4.269
 2543SOL    MW410204   2.255   3.967   4.268
 2544SOL     OW10205   2.263   4.229   4.131
 2544SOL    HW210206   2.273   4.145   4.175
 2544SOL    HW310207   2.171   4.252   4.143
 2544SOL    MW410208   2.253   4.221   4.138
 2545SOL     OW10209   2.472   4.346   4.284
 2545SOL    HW210210   2.541   4.300   4.236
 2545SOL    HW310211   2.391   4.307   4.251
 2545SOL    MW410212   2.471   4.334   4.273
 2546SOL     OW10213   2.868   4.620   4.221
 2546SOL    HW210214   2.953   4.658   4.242
 2546SOL    HW310215   2.884   4.525   4.223
 2546SOL    MW410216   2.881   4.612   4.224
 2547SOL     OW10217   2.643   0.083   4.315
 2547SOL    HW210218   2.676   0.169   4.287
 2547SOL    HW310219   2.713   0.022   4.293
 2547SOL    MW410220   2.656   0.087   4.308
 2548SOL     OW10221   2.711   0.359   4.226
 2548SOL    HW210222   2.649   0.401   4.287
 2548SOL    HW310223   2.677   0.380   4.139
 2548SOL    MW410224   2.698   0.368   4.223
 2549SOL     OW10225   2.944   0.497   4.289
 2549SOL    HW210226   2.930   0.592   4.282
 2549SOL    HW310227   2.859   0.458   4.268
 2549SOL    MW410228   2.931   0.504   4.285
 2550SOL     OW10229   2.925   0.758   4.217
 2550SOL    HW210230   3.003   0.795   4.258
 2550SOL    HW310231   2.942   0.764   4.123
 2550SOL    MW410232   2.937   0.763   4.210
 2551SOL     OW10233   2.677   0.928   4.220
 2551SOL    HW210234   2.751   0.867   4.219
 2551SOL    HW310235   2.601   0.874   4.200
 2551SOL    MW410236   2.677   0.913   4.217
 2552SOL     OW10237   2.719   1.190   4.146
 2552SOL    HW210238   2.718   1.098   4.170
 2552SOL    HW310239   2.727   1.190   4.050
 2552SOL    MW410240   2.720   1.178   4.136
 2553SOL     OW10241   2.964   1.291   4.205
 2553SOL    HW210242   3.036   1.231   4.189
 2553SOL    HW310243   2.885   1.241   4.181
 2553SOL    MW410244   2.963   1.277   4.200
 2554SOL     OW10245   2.905   1.559   4.174
 2554SOL    HW210246   2.983   1.603   4.206
 2554SOL    HW310247   2.926   1.465   4.179
 2554SOL    MW410248   2.918   1.552   4.179
 2555SOL     OW10249   2.692   1.685   4.336
 2555SOL    HW210250   2.755   1.650   4.272
 2555SOL    HW310251   2.607   1.653   4.306
 2555SOL    MW410252   2.689   1.676   4.324
 2556SOL     OW10253   2.660   1.939   4.228
 2556SOL    HW210254   2.665   1.848   4.258
 2556SOL    HW310255   2.675   1.933   4.133
 2556SOL    MW410256   2.662   1.926   4.219
 2557SOL     OW10257   2.877   2.075   4.320
 2557SOL    HW210258   2.877   2.148   4.259
 2557SOL    HW310259   2.798   2.025   4.299
 2557SOL    MW410260   2.867   2.078   4.309
 2558SOL     OW10261   2.880   2.292   4.142
 2558SOL    HW210262   2.965   2.300   4.185
 2558SOL    HW310263   2.833   2.371   4.168
 2558SOL    MW410264   2.885   2.303   4.151
 2559SOL     OW10265   2.737   2.542   4.157
 2559SOL    HW210266   2.647   2.530   4.186
 2559SOL    HW310267   2.781   2.582   4.232
 2559SOL    MW410268   2.731   2.546   4.171
 2560SOL     OW10269   2.685   2.851   4.218
 2560SOL    HW210270   2.615   2.785   4.221
 2560SOL    HW310271   2.640   2.932   4.194
 2560SOL    MW410272   2.670   2.853   4.215
 2561SOL     OW10273   2.952   2.894   4.157
 2561SOL    HW210274   2.864   2.863   4.177
 2561SOL    HW310275   2.941   2.948   4.079
 2561SOL    MW410276   2.939   2.897   4.149
 2562SOL     OW10277   2.997   3.094   4.322
 2562SOL    HW210278   3.046   3.062   4.398
 2562SOL    HW310279   2.988   3.017   4.266
 2562SOL    MW410280   3.002   3.080   4.325
 2563SOL     OW10281   2.743   3.233   4.306
 2563SOL    HW210282   2.709   3.265   4.389
 2563SOL    HW310283   2.832   3.203   4.325
 2563SOL    MW410284   2.750   3.233   4.319
 2564SOL     OW10285   2.654   3.456   4.148
 2564SOL    HW210286   2.668   3.379   4.204
 2564SOL    HW310287   2.572   3.494   4.179
 2564SOL    MW410288   2.645   3.451   4.159
 2565SOL     OW10289   2.858   3.636   4.233
 2565SOL    HW210290   2.860   3.658   4.326
 2565SOL    HW310291   2.781   3.580   4.223
 2565SOL    MW410292   2.848   3.632   4.244
 2566SOL     OW10293   2.879   3.889   4.129
 2566SOL    HW210294   2.964   3.912   4.166
 2566SOL    HW310295   2.862   3.800   4.160
 2566SOL    MW410296   2.888   3.880   4.138
 2567SOL     OW10297   2.667   4.000   4.258
 2567SOL    HW210298   2.667   4.088   4.220
 2567SOL    HW310299   2.738   3.954   4.212
 2567SOL    MW410300   2.676   4.005   4.247
 2568SOL     OW10301   2.675   4.246   4.132
 2568SOL    HW210302   2.767   4.271   4.140
 2568SOL    HW310303   2.661   4.234   4.038
 2568SOL    MW410304   2.686   4.248   4.121
 2569SOL     OW10305   2.912   4.335   4.213
 2569SOL    HW210306   2.922   4.306   4.304
 2569SOL    HW310307   2.999   4.322   4.174
 2569SOL    MW410308   2.925   4.330   4.220
 2570SOL     OW10309   3.337   4.608   4.161
 2570SOL    HW210310   3.414   4.650   4.199
 2570SOL    HW310311   3.341   4.517   4.193
 2570SOL    MW410312   3.348   4.601   4.170
 2571SOL     OW10313   3.127   0.088   4.260
 2571SOL    HW210314   3.152   0.098   4.352
 2571SOL    HW310315   3.199   0.037   4.222
 2571SOL    MW410316   3.140   0.083   4.267
 2572SOL     OW10317   3.154   0.348   4.153
 2572SOL    HW210318   3.163   0.258   4.186
 2572SOL    HW310319   3.076   0.381   4.197
 2572SOL    MW410320   3.145   0.340   4.163
 2573SOL     OW10321   3.378   0.512   4.240
 2573SOL    HW210322   3.454   0.454   4.227
 2573SOL    HW310323   3.304   0.463   4.206
 2573SOL    MW410324   3.379   0.498   4.234
 2574SOL     OW10325   3.366   0.791   4.225
 2574SOL    HW210326   3.285   0.810   4.273
 2574SOL    HW310327   3.382   0.698   4.241
 2574SOL    MW410328   3.357   0.781   4.234
 2575SOL     OW10329   3.134   0.891   4.325
 2575SOL    HW210330   3.129   0.909   4.419
 2575SOL    HW310331   3.164   0.973   4.286
 2575SOL    MW410332   3.137   0.904   4.332
 2576SOL     OW10333   3.189   1.122   4.149
 2576SOL    HW210334   3.242   1.199   4.171
 2576SOL    HW310335   3.192   1.119   4.053
 2576SOL    MW410336   3.197   1.132   4.139
 2577SOL     OW10337   3.355   1.327   4.206
 2577SOL    HW210338   3.359   1.304   4.299
 2577SOL    HW310339   3.365   1.423   4.205
 2577SOL    MW410340   3.357   1.337   4.218
 2578SOL     OW10341   3.384   1.594   4.276
 2578SOL    HW210342   3.394   1.580   4.370
 2578SOL    HW310343   3.292   1.619   4.266
 2578SOL    MW410344   3.373   1.596   4.287
 2579SOL     OW10345   3.118   1.678   4.306
 2579SOL    HW210346   3.121   1.668   4.401
 2579SOL    HW310347   3.125   1.772   4.291
 2579SOL    MW410348   3.119   1.689   4.317
 2580SOL     OW10349   3.152   1.948   4.247
 2580SOL    HW210350   3.218   2.013   4.272
 2580SOL    HW310351   3.069   1.984   4.279
 2580SOL    MW410352   3.150   1.962   4.254
 2581SOL     OW10353   3.363   2.104   4.379
 2581SOL    HW210354   3.441   2.048   4.383
 2581SOL    HW310355   3.382   2.165   4.308
 2581SOL    MW410356   3.376   2.105   4.370
 2582SOL     OW10357   3.390   2.276   4.163
 2582SOL    HW210358   3.473   2.317   4.189
 2582SOL    HW310359   3.392   2.277   4.067
 2582SOL    MW410360   3.401   2.282   4.154
 2583SOL     OW10361   3.136   2.385   4.244
 2583SOL    HW210362   3.135   2.479   4.225
 2583SOL    HW310363   3.223   2.356   4.218
 2583SOL    MW410364   3.147   2.393   4.238
 2584SOL     OW10365   3.127   2.664   4.171
 2584SOL    HW210366   3.207   2.714   4.189
 2584SOL    HW310367   3.056   2.727   4.181
 2584SOL    MW410368   3.129   2.679   4.174
 2585SOL     OW10369   3.342   2.839   4.226
 2585SOL    HW210370   3.416   2.787   4.195
 2585SOL    HW310371   3.371   2.930   4.219
 2585SOL    MW410372   3.356   2.844   4.221
 2586SOL     OW10373   3.390   3.132   4.188
 2586SOL    HW210374   3.318   3.189   4.215
 2586SOL    HW310375   3.367   3.105   4.099
 2586SOL    MW410376   3.377   3.136   4.180
 2587SOL     OW10377   3.177   3.289   4.262
 2587SOL    HW210378   3.134   3.355   4.208
 2587SOL    HW310379   3.114   3.217   4.267
 2587SOL    MW410380   3.163   3.288   4.255
 2588SOL     OW10381   3.089   3.499   4.137
 2588SOL    HW210382   3.017   3.555   4.166
 2588SOL    HW310383   3.096   3.515   4.043
 2588SOL    MW410384   3.080   3.509   4.128
 2589SOL     OW10385   3.343   3.620   4.226
 2589SOL    HW210386   3.334   3.626   4.321
 2589SOL    HW310387   3.289   3.545   4.200
 2589SOL    MW410388   3.335   3.611   4.235
 2590SOL     OW10389   3.390   3.868   4.135
 2590SOL    HW210390   3.363   3.779   4.160
 2590SOL    HW310391   3.389   3.867   4.039
 2590SOL    MW410392   3.386   3.856   4.126
 2591SOL     OW10393   3.136   3.958   4.216
 2591SOL    HW210394   3.144   3.953   4.311
 2591SOL    HW310395   3.212   3.910   4.183
 2591SOL    MW410396   3.147   3.951   4.224
 2592SOL     OW10397   3.157   4.223   4.133
 2592SOL    HW210398   3.220   4.267   4.190
 2592SOL    HW310399   3.166   4.130   4.154
 2592SOL    MW410400   3.167   4.216   4.143
 2593SOL     OW10401   3.371   4.370   4.289
 2593SOL    HW210402   3.378   4.345   4.381
 2593SOL    HW310403   3.451   4.337   4.249
 2593SOL    MW410404   3.382   4.363   4.296
 2594SOL     OW10405   3.823   4.606   4.113
 2594SOL    HW210406   3.892   4.658   4.154
 2594SOL    HW310407   3.817   4.639   4.024
 2594SOL    MW410408   3.831   4.617   4.107
 2595SOL     OW10409   3.563   0.058   4.244
 2595SOL    HW210410   3.573   0.151   4.224
 2595SOL    HW310411   3.632   0.015   4.193
 2595SOL    MW410412   3.574   0.064   4.235
 2596SOL     OW10413   3.607   0.333   4.180
 2596SOL    HW210414   3.686   0.378   4.210
 2596SOL    HW310415   3.603   0.354   4.086
 2596SOL    MW410416   3.617   0.342   4.171
 2597SOL     OW10417   3.820   0.496   4.275
 2597SOL    HW210418   3.804   0.502   4.369
 2597SOL    HW310419   3.818   0.587   4.244
 2597SOL    MW410420   3.817   0.509   4.283
 2598SOL     OW10421   3.832   0.767   4.168
 2598SOL    HW210422   3.755   0.821   4.185
 2598SOL    HW310423   3.839   0.764   4.072
 2598SOL    MW410424   3.823   0.773   4.157
 2599SOL     OW10425   3.607   0.901   4.196
 2599SOL    HW210426   3.588   0.986   4.158
 2599SOL    HW310427   3.521   0.863   4.216
 2599SOL    MW410428   3.593   0.907   4.194
 2600SOL     OW10429   3.587   1.191   4.144
 2600SOL    HW210430   3.519   1.248   4.181
 2600SOL    HW310431   3.577   1.201   4.049
 2600SOL    MW410432   3.577   1.200   4.136
 2601SOL     OW10433   3.796   1.332   4.263
 2601SOL    HW210434   3.717   1.288   4.234
 2601SOL    HW310435   3.792   1.419   4.222
 2601SOL    MW410436   3.785   1.338   4.254
 2602SOL     OW10437   3.805   1.597   4.143
 2602SOL    HW210438   3.884   1.641   4.175
 2602SOL    HW310439   3.736   1.661   4.156
 2602SOL    MW410440   3.807   1.611   4.149
 2603SOL     OW10441   3.616   1.971   4.368
 2603SOL    HW210442   3.594   1.927   4.285
 2603SOL    HW310443   3.639   1.899   4.427
 2603SOL    MW410444   3.616   1.956   4.365
 2604SOL     OW10445   3.586   1.770   4.156
 2604SOL    HW210446   3.504   1.722   4.170
 2604SOL    HW310447   3.570   1.822   4.078
 2604SOL    MW410448   3.573   1.770   4.147
 2605SOL     OW10449   3.838   2.122   4.357
 2605SOL    HW210450   3.840   2.162   4.444
 2605SOL    HW310451   3.758   2.069   4.358
 2605SOL    MW410452   3.827   2.120   4.369
 2606SOL     OW10453   3.850   2.356   4.239
 2606SOL    HW210454   3.865   2.263   4.260
 2606SOL    HW310455   3.839   2.358   4.144
 2606SOL    MW410456   3.851   2.344   4.229
 2607SOL     OW10457   3.590   2.432   4.270
 2607SOL    HW210458   3.557   2.412   4.357
 2607SOL    HW310459   3.677   2.391   4.266
 2607SOL    MW410460   3.597   2.424   4.281
 2608SOL     OW10461   3.577   2.698   4.187
 2608SOL    HW210462   3.581   2.606   4.214
 2608SOL    HW310463   3.609   2.698   4.097
 2608SOL    MW410464   3.582   2.686   4.179
 2609SOL     OW10465   3.781   2.844   4.323
 2609SOL    HW210466   3.746   2.894   4.397
 2609SOL    HW310467   3.707   2.793   4.292
 2609SOL    MW410468   3.767   2.844   4.329
 2610SOL     OW10469   3.822   3.084   4.190
 2610SOL    HW210470   3.810   3.002   4.239
 2610SOL    HW310471   3.807   3.059   4.099
 2610SOL    MW410472   3.818   3.070   4.185
 2611SOL     OW10473   3.626   3.281   4.210
 2611SOL    HW210474   3.702   3.225   4.194
 2611SOL    HW310475   3.550   3.223   4.202
 2611SOL    MW410476   3.626   3.266   4.207
 2612SOL     OW10477   3.586   3.520   4.106
 2612SOL    HW210478   3.602   3.430   4.136
 2612SOL    HW310479   3.509   3.549   4.155
 2612SOL    MW410480   3.578   3.512   4.116
 2613SOL     OW10481   3.789   3.642   4.282
 2613SOL    HW210482   3.875   3.605   4.262
 2613SOL    HW310483   3.727   3.585   4.236
 2613SOL    MW410484   3.792   3.629   4.273
 2614SOL     OW10485   3.821   3.900   4.172
 2614SOL    HW210486   3.752   3.961   4.198
 2614SOL    HW310487   3.800   3.819   4.218
 2614SOL    MW410488   3.810   3.898   4.181
 2615SOL     OW10489   3.581   4.038   4.256
 2615SOL    HW210490   3.577   4.027   4.351
 2615SOL    HW310491   3.513   3.980   4.222
 2615SOL    MW410492   3.572   4.029   4.264
 2616SOL     OW10493   3.597   4.264   4.103
 2616SOL    HW210494   3.676   4.303   4.139
 2616SOL    HW310495   3.588   4.181   4.149
 2616SOL    MW410496   3.606   4.258   4.114
 2617SOL     OW10497   3.792   4.371   4.256
 2617SOL    HW210498   3.879   4.333   4.241
 2617SOL    HW310499   3.796   4.456   4.214
 2617SOL    MW410500   3.804   4.377   4.249
 2618SOL     OW10501   4.267   0.051   4.133
 2618SOL    HW210502   4.261  -0.044   4.148
 2618SOL    HW310503   4.348   0.077   4.178
 2618SOL    MW410504   4.277   0.042   4.141
 2619SOL     OW10505   4.015   0.112   4.237
 2619SOL    HW210506   4.015   0.202   4.206
 2619SOL    HW310507   4.098   0.076   4.206
 2619SOL    MW410508   4.026   0.119   4.229
 2620SOL     OW10509   4.034   0.370   4.130
 2620SOL    HW210510   4.112   0.417   4.160
 2620SOL    HW310511   3.964   0.401   4.187
 2620SOL    MW410512   4.035   0.380   4.141
 2621SOL     OW10513   4.245   0.515   4.232
 2621SOL    HW210514   4.251   0.610   4.227
 2621SOL    HW310515   4.336   0.485   4.222
 2621SOL    MW410516   4.258   0.523   4.230
 2622SOL     OW10517   4.253   0.789   4.224
 2622SOL    HW210518   4.163   0.819   4.237
 2622SOL    HW310519   4.259   0.772   4.130
 2622SOL    MW410520   4.242   0.791   4.213
 2623SOL     OW10521   4.022   0.915   4.275
 2623SOL    HW210522   4.009   1.001   4.236
 2623SOL    HW310523   3.945   0.864   4.249
 2623SOL    MW410524   4.010   0.920   4.266
 2624SOL     OW10525   4.009   1.173   4.162
 2624SOL    HW210526   4.090   1.223   4.166
 2624SOL    HW310527   3.943   1.231   4.200
 2624SOL    MW410528   4.011   1.187   4.167
 2625SOL     OW10529   4.264   1.282   4.229
 2625SOL    HW210530   4.247   1.286   4.323
 2625SOL    HW310531   4.348   1.237   4.222
 2625SOL    MW410532   4.273   1.277   4.240
 2626SOL     OW10533   4.256   1.547   4.164
 2626SOL    HW210534   4.255   1.456   4.194
 2626SOL    HW310535   4.261   1.540   4.068
 2626SOL    MW410536   4.257   1.534   4.155
 2627SOL     OW10537   4.015   1.716   4.243
 2627SOL    HW210538   3.996   1.733   4.336
 2627SOL    HW310539   4.099   1.670   4.244
 2627SOL    MW410540   4.024   1.712   4.256
 2628SOL     OW10541   4.056   1.991   4.190
 2628SOL    HW210542   4.035   1.900   4.211
 2628SOL    HW310543   3.999   2.042   4.248
 2628SOL    MW410544   4.046   1.986   4.201
 2629SOL     OW10545   4.435   1.960   4.185
 2629SOL    HW210546   4.517   2.001   4.212
 2629SOL    HW310547   4.367   2.012   4.229
 2629SOL    MW410548   4.437   1.973   4.195
 2630SOL     OW10549   4.271   2.356   4.208
 2630SOL    HW210550   4.201   2.413   4.240
 2630SOL    HW310551   4.255   2.273   4.252
 2630SOL    MW410552   4.260   2.353   4.218
 2631SOL     OW10553   4.083   2.530   4.306
 2631SOL    HW210554   4.097   2.562   4.395
 2631SOL    HW310555   3.990   2.508   4.303
 2631SOL    MW410556   4.072   2.531   4.317
 2632SOL     OW10557   4.027   2.754   4.168
 2632SOL    HW210558   4.051   2.669   4.204
 2632SOL    HW310559   3.946   2.778   4.213
 2632SOL    MW410560   4.019   2.746   4.179
 2633SOL     OW10561   4.246   2.883   4.282
 2633SOL    HW210562   4.167   2.844   4.245
 2633SOL    HW310563   4.318   2.833   4.243
 2633SOL    MW410564   4.245   2.871   4.272
 2634SOL     OW10565   4.304   3.151   4.169
 2634SOL    HW210566   4.288   3.069   4.216
 2634SOL    HW310567   4.294   3.128   4.077
 2634SOL    MW410568   4.301   3.137   4.163
 2635SOL     OW10569   4.039   3.269   4.242
 2635SOL    HW210570   4.128   3.246   4.217
 2635SOL    HW310571   3.987   3.193   4.217
 2635SOL    MW410572   4.044   3.256   4.235
 2636SOL     OW10573   4.029   3.545   4.177
 2636SOL    HW210574   4.041   3.454   4.205
 2636SOL    HW310575   4.012   3.540   4.083
 2636SOL    MW410576   4.029   3.533   4.169
 2637SOL     OW10577   4.297   3.615   4.245
 2637SOL    HW210578   4.299   3.708   4.223
 2637SOL    HW310579   4.207   3.588   4.226
 2637SOL    MW410580   4.285   3.624   4.239
 2638SOL     OW10581   4.301   3.870   4.160
 2638SOL    HW210582   4.218   3.897   4.199
 2638SOL    HW310583   4.288   3.881   4.066
 2638SOL    MW410584   4.288   3.875   4.153
 2639SOL     OW10585   4.070   4.002   4.257
 2639SOL    HW210586   4.071   3.998   4.353
 2639SOL    HW310587   3.995   3.948   4.232
 2639SOL    MW410588   4.060   3.994   4.266
 2640SOL     OW10589   4.042   4.281   4.153
 2640SOL    HW210590   4.118   4.333   4.179
 2640SOL    HW310591   4.066   4.191   4.176
 2640SOL    MW410592   4.055   4.276   4.159
 2641SOL     OW10593   3.955   4.346   4.649
 2641SOL    HW210594   3.871   4.361   4.606
 2641SOL    HW310595   3.995   4.433   4.655
 2641SOL    MW410596   3.950   4.360   4.644
 2642SOL     OW10597   4.208   0.172   4.770
 2642SOL    HW210598   4.230   0.212   4.854
 2642SOL    HW310599   4.131   0.219   4.740
 2642SOL    MW410600   4.201   0.183   4.777
 2643SOL     OW10601   4.318   4.515   4.497
 2643SOL    HW210602   4.353   4.604   4.502
 2643SOL    HW310603   4.238   4.519   4.549
 2643SOL    MW410604   4.312   4.528   4.505
 2644SOL     OW10605   3.949   0.122   4.495
 2644SOL    HW210606   3.970   0.098   4.404
 2644SOL    HW310607   3.855   0.107   4.502
 2644SOL    MW410608   3.939   0.117   4.484
 2645SOL     OW10609   4.223   1.667   4.774
 2645SOL    HW210610   4.186   1.582   4.750
 2645SOL    HW310611   4.302   1.675   4.721
 2645SOL    MW410612   4.229   1.657   4.764
 2646SOL     OW10613   0.466   0.116   4.564
 2646SOL    HW210614   0.385   0.068   4.577
 2646SOL    HW310615   0.534   0.060   4.601
 2646SOL    MW410616   0.464   0.102   4.571
 2647SOL     OW10617   0.224   0.825   4.667
 2647SOL    HW210618   0.199   0.741   4.628
 2647SOL    HW310619   0.141   0.870   4.682
 2647SOL    MW410620   0.210   0.820   4.664
 2648SOL     OW10621   4.384   0.650   4.664
 2648SOL    HW210622   4.319   0.598   4.617
 2648SOL    HW310623   4.468   0.610   4.640
 2648SOL    MW410624   4.387   0.638   4.655
 2649SOL     OW10625   0.681   1.312   4.519
 2649SOL    HW210626   0.669   1.401   4.551
 2649SOL    HW310627   0.603   1.265   4.547
 2649SOL    MW410628   0.669   1.317   4.527
 2650SOL     OW10629   1.063   2.000   4.523
 2650SOL    HW210630   1.141   2.047   4.552
 2650SOL    HW310631   0.991   2.039   4.573
 2650SOL    MW410632   1.064   2.011   4.534
 2651SOL     OW10633   4.217   1.319   4.498
 2651SOL    HW210634   4.239   1.244   4.554
 2651SOL    HW310635   4.297   1.371   4.495
 2651SOL    MW410636   4.230   1.316   4.505
 2652SOL     OW10637   0.242   1.818   4.628
 2652SOL    HW210638   0.150   1.798   4.609
 2652SOL    HW310639   0.250   1.912   4.609
 2652SOL    MW410640   0.231   1.828   4.623
 2653SOL     OW10641   0.442   1.655   4.288
 2653SOL    HW210642   0.353   1.627   4.267
 2653SOL    HW310643   0.497   1.610   4.224
 2653SOL    MW410644   0.438   1.645   4.277
 2654SOL     OW10645   0.220   2.109   4.531
 2654SOL    HW210646   0.304   2.153   4.518
 2654SOL    HW310647   0.178   2.157   4.602
 2654SOL    MW410648   0.226   2.121   4.539
 2655SOL     OW10649   4.031   2.416   4.722
 2655SOL    HW210650   4.089   2.359   4.771
 2655SOL    HW310651   4.090   2.475   4.674
 2655SOL    MW410652   4.046   2.416   4.722
 2656SOL     OW10653   0.285   2.938   4.499
 2656SOL    HW210654   0.357   2.890   4.540
 2656SOL    HW310655   0.276   2.898   4.412
 2656SOL    MW410656   0.294   2.926   4.493
 2657SOL     OW10657   0.334   3.234   4.489
 2657SOL    HW210658   0.303   3.143   4.498
 2657SOL    HW310659   0.254   3.286   4.485
 2657SOL    MW410660   0.320   3.229   4.490
 2658SOL     OW10661   4.485   2.461   4.609
 2658SOL    HW210662   4.508   2.454   4.516
 2658SOL    HW310663   4.561   2.505   4.648
 2658SOL    MW410664   4.499   2.466   4.602
 2659SOL     OW10665   4.208   3.453   4.629
 2659SOL    HW210666   4.261   3.374   4.622
 2659SOL    HW310667   4.132   3.436   4.573
 2659SOL    MW410668   4.205   3.440   4.621
 2660SOL     OW10669   0.089   3.416   4.478
 2660SOL    HW210670   0.094   3.394   4.385
 2660SOL    HW310671   0.018   3.481   4.484
 2660SOL    MW410672   0.081   3.422   4.466
 2661SOL     OW10673   4.313   3.900   4.559
 2661SOL    HW210674   4.218   3.903   4.552
 2661SOL    HW310675   4.336   3.811   4.533
 2661SOL    MW410676   4.304   3.889   4.555
 2662SOL     OW10677   4.437   0.097   4.628
 2662SOL    HW210678   4.359   0.110   4.680
 2662SOL    HW310679   4.457   0.184   4.592
 2662SOL    MW410680   4.430   0.110   4.630
 2663SOL     OW10681   3.763   0.508   4.551
 2663SOL    HW210682   3.684   0.461   4.578
 2663SOL    HW310683   3.752   0.596   4.589
 2663SOL    MW410684   3.751   0.514   4.560
 2664SOL     OW10685   4.084   3.645   4.798
 2664SOL    HW210686   4.136   3.720   4.827
 2664SOL    HW310687   4.144   3.594   4.744
 2664SOL    MW410688   4.099   3.648   4.794
 2665SOL     OW10689   3.964   4.091   4.769
 2665SOL    HW210690   3.958   4.177   4.727
 2665SOL    HW310691   3.874   4.068   4.790
 2665SOL    MW410692   3.952   4.099   4.766
 2666SOL     OW10693   0.668   4.632   4.696
 2666SOL    HW210694   0.761   4.648   4.678
 2666SOL    HW310695   0.665   4.611   4.790
 2666SOL    MW410696   0.680   4.631   4.706
 2667SOL     OW10697   4.229   1.064   4.669
 2667SOL    HW210698   4.302   1.008   4.640
 2667SOL    HW310699   4.226   1.053   4.764
 2667SOL    MW410700   4.239   1.055   4.678
 2668SOL     OW10701   1.231   0.965   4.604
 2668SOL    HW210702   1.200   0.950   4.693
 2668SOL    HW310703   1.156   0.942   4.549
 2668SOL    MW410704   1.217   0.960   4.608
 2669SOL     OW10705   0.378   0.407   4.657
 2669SOL    HW210706   0.366   0.313   4.668
 2669SOL    HW310707   0.467   0.416   4.622
 2669SOL    MW410708   0.388   0.396   4.654
 2670SOL     OW10709   0.987   0.872   4.507
 2670SOL    HW210710   0.981   0.880   4.412
 2670SOL    HW310711   0.897   0.857   4.536
 2670SOL    MW410712   0.974   0.871   4.498
 2671SOL     OW10713   0.453   0.946   4.558
 2671SOL    HW210714   0.374   0.914   4.602
 2671SOL    HW310715   0.436   0.933   4.465
 2671SOL    MW410716   0.440   0.940   4.552
 2672SOL     OW10717   1.977   1.184   4.492
 2672SOL    HW210718   1.980   1.220   4.404
 2672SOL    HW310719   2.029   1.244   4.545
 2672SOL    MW410720   1.984   1.197   4.488
 2673SOL     OW10721   0.423   1.627   4.569
 2673SOL    HW210722   0.356   1.692   4.591
 2673SOL    HW310723   0.428   1.629   4.473
 2673SOL    MW410724   0.415   1.635   4.559
 2674SOL     OW10725   1.314   1.229   4.591
 2674SOL    HW210726   1.292   1.136   4.601
 2674SOL    HW310727   1.248   1.264   4.532
 2674SOL    MW410728   1.303   1.221   4.585
 2675SOL     OW10729   0.914   1.589   4.458
 2675SOL    HW210730   0.840   1.598   4.518
 2675SOL    HW310731   0.976   1.657   4.485
 2675SOL    MW410732   0.913   1.599   4.469
 2676SOL     OW10733   0.646   2.200   4.528
 2676SOL    HW210734   0.722   2.252   4.506
 2676SOL    HW310735   0.678   2.136   4.591
 2676SOL    MW410736   0.660   2.198   4.533
 2677SOL     OW10737   1.105   1.745   4.579
 2677SOL    HW210738   1.193   1.716   4.557
 2677SOL    HW310739   1.106   1.839   4.567
 2677SOL    MW410740   1.117   1.753   4.575
 2678SOL     OW10741   0.414   2.340   4.475
 2678SOL    HW210742   0.489   2.282   4.491
 2678SOL    HW310743   0.428   2.373   4.386
 2678SOL    MW410744   0.426   2.336   4.465
 2679SOL     OW10745   1.052   2.731   4.639
 2679SOL    HW210746   1.061   2.794   4.568
 2679SOL    HW310747   1.097   2.771   4.713
 2679SOL    MW410748   1.059   2.744   4.639
 2680SOL     OW10749   0.788   2.663   4.600
 2680SOL    HW210750   0.874   2.680   4.640
 2680SOL    HW310751   0.796   2.575   4.563
 2680SOL    MW410752   0.800   2.654   4.601
 2681SOL     OW10753   1.022   3.410   4.532
 2681SOL    HW210754   0.952   3.347   4.547
 2681SOL    HW310755   1.029   3.416   4.437
 2681SOL    MW410756   1.013   3.403   4.522
 2682SOL     OW10757   0.596   3.356   4.535
 2682SOL    HW210758   0.579   3.449   4.545
 2682SOL    HW310759   0.509   3.317   4.523
 2682SOL    MW410760   0.582   3.363   4.535
 2683SOL     OW10761   1.431   0.121   4.556
 2683SOL    HW210762   1.471   0.035   4.572
 2683SOL    HW310763   1.505   0.180   4.543
 2683SOL    MW410764   1.446   0.117   4.556
 2684SOL     OW10765   0.218   2.609   4.703
 2684SOL    HW210766   0.294   2.609   4.644
 2684SOL    HW310767   0.253   2.636   4.787
 2684SOL    MW410768   0.233   2.612   4.706
 2685SOL     OW10769   4.378   3.619   4.499
 2685SOL    HW210770   4.317   3.558   4.541
 2685SOL    HW310771   4.350   3.622   4.408
 2685SOL    MW410772   4.366   3.611   4.493
 2686SOL     OW10773   1.256   4.071   4.558
 2686SOL    HW210774   1.286   4.002   4.618
 2686SOL    HW310775   1.162   4.056   4.550
 2686SOL    MW410776   1.248   4.060   4.565
 2687SOL     OW10777   0.086   4.403   4.496
 2687SOL    HW210778   0.083   4.311   4.519
 2687SOL    HW310779  -0.004   4.434   4.508
 2687SOL    MW410780   0.074   4.395   4.501
 2688SOL     OW10781   0.029   4.112   4.512
 2688SOL    HW210782   0.111   4.067   4.529
 2688SOL    HW310783  -0.039   4.046   4.528
 2688SOL    MW410784   0.031   4.097   4.516
 2689SOL     OW10785   0.207   4.648   4.544
 2689SOL    HW210786   0.123   4.689   4.567
 2689SOL    HW310787   0.185   4.557   4.525
 2689SOL    MW410788   0.193   4.642   4.545
 2690SOL     OW10789   0.932   0.002   4.573
 2690SOL    HW210790   0.990  -0.074   4.565
 2690SOL    HW310791   0.906   0.022   4.483
 2690SOL    MW410792   0.936  -0.005   4.560
 2691SOL     OW10793   1.079   4.439   4.525
 2691SOL    HW210794   1.161   4.408   4.561
 2691SOL    HW310795   1.022   4.362   4.524
 2691SOL    MW410796   1.082   4.425   4.529
 2692SOL     OW10797   0.654   0.497   4.546
 2692SOL    HW210798   0.653   0.530   4.456
 2692SOL    HW310799   0.695   0.410   4.539
 2692SOL    MW410800   0.659   0.490   4.533
 2693SOL     OW10801   1.433   0.808   4.460
 2693SOL    HW210802   1.392   0.829   4.376
 2693SOL    HW310803   1.385   0.860   4.524
 2693SOL    MW410804   1.422   0.818   4.457
 2694SOL     OW10805   1.750   0.876   4.486
 2694SOL    HW210806   1.657   0.858   4.503
 2694SOL    HW310807   1.754   0.893   4.392
 2694SOL    MW410808   1.738   0.876   4.476
 2695SOL     OW10809   0.438   1.203   4.640
 2695SOL    HW210810   0.447   1.109   4.626
 2695SOL    HW310811   0.443   1.213   4.735
 2695SOL    MW410812   0.439   1.192   4.651
 2696SOL     OW10813   0.847   2.068   4.674
 2696SOL    HW210814   0.906   2.125   4.724
 2696SOL    HW310815   0.856   1.982   4.715
 2696SOL    MW410816   0.856   2.064   4.686
 2697SOL     OW10817   0.930   1.175   4.572
 2697SOL    HW210818   0.849   1.225   4.558
 2697SOL    HW310819   0.912   1.089   4.534
 2697SOL    MW410820   0.917   1.170   4.565
 2698SOL     OW10821   1.759   1.126   4.640
 2698SOL    HW210822   1.742   1.033   4.625
 2698SOL    HW310823   1.827   1.149   4.577
 2698SOL    MW410824   1.765   1.117   4.630
 2699SOL     OW10825   1.100   1.361   4.454
 2699SOL    HW210826   1.048   1.287   4.486
 2699SOL    HW310827   1.040   1.435   4.455
 2699SOL    MW410828   1.086   1.361   4.458
 2700SOL     OW10829   1.087   2.451   4.610
 2700SOL    HW210830   1.086   2.543   4.636
 2700SOL    HW310831   1.179   2.433   4.590
 2700SOL    MW410832   1.099   2.461   4.610
 2701SOL     OW10833   1.532   2.800   4.775
 2701SOL    HW210834   1.543   2.723   4.720
 2701SOL    HW310835   1.619   2.814   4.813
 2701SOL    MW410836   1.545   2.792   4.773
 2702SOL     OW10837   1.554   2.971   4.542
 2702SOL    HW210838   1.613   3.046   4.548
 2702SOL    HW310839   1.572   2.920   4.621
 2702SOL    MW410840   1.564   2.974   4.553
 2703SOL     OW10841   1.304   3.354   4.597
 2703SOL    HW210842   1.215   3.383   4.617
 2703SOL    HW310843   1.299   3.259   4.594
 2703SOL    MW410844   1.292   3.345   4.600
 2704SOL     OW10845   0.801   2.917   4.494
 2704SOL    HW210846   0.895   2.930   4.481
 2704SOL    HW310847   0.795   2.834   4.542
 2704SOL    MW410848   0.813   2.908   4.499
 2705SOL     OW10849   0.533   4.078   4.589
 2705SOL    HW210850   0.560   4.166   4.615
 2705SOL    HW310851   0.530   4.082   4.493
 2705SOL    MW410852   0.536   4.090   4.580
 2706SOL     OW10853   1.074   2.911   4.441
 2706SOL    HW210854   1.089   2.892   4.348
 2706SOL    HW310855   1.160   2.940   4.473
 2706SOL    MW410856   1.087   2.913   4.433
 2707SOL     OW10857   0.824   3.214   4.485
 2707SOL    HW210858   0.744   3.264   4.500
 2707SOL    HW310859   0.806   3.128   4.524
 2707SOL    MW410860   0.811   3.209   4.492
 2708SOL     OW10861   1.501   3.553   4.537
 2708SOL    HW210862   1.576   3.529   4.592
 2708SOL    HW310863   1.438   3.483   4.550
 2708SOL    MW410864   1.503   3.541   4.546
 2709SOL     OW10865   0.566   3.626   4.513
 2709SOL    HW210866   0.619   3.700   4.544
 2709SOL    HW310867   0.476   3.655   4.526
 2709SOL    MW410868   0.561   3.640   4.519
 2710SOL     OW10869   0.278   3.971   4.535
 2710SOL    HW210870   0.351   4.030   4.554
 2710SOL    HW310871   0.316   3.883   4.541
 2710SOL    MW410872   0.293   3.967   4.538
 2711SOL     OW10873   0.911   4.220   4.533
 2711SOL    HW210874   0.841   4.257   4.587
 2711SOL    HW310875   0.929   4.135   4.573
 2711SOL    MW410876   0.904   4.214   4.546
 2712SOL     OW10877   0.637   4.366   4.583
 2712SOL    HW210878   0.645   4.457   4.613
 2712SOL    HW310879   0.646   4.371   4.488
 2712SOL    MW410880   0.639   4.379   4.575
 2713SOL     OW10881   2.106   3.806   4.625
 2713SOL    HW210882   2.061   3.722   4.621
 2713SOL    HW310883   2.036   3.871   4.615
 2713SOL    MW410884   2.091   3.804   4.623
 2714SOL     OW10885   1.565   4.533   4.549
 2714SOL    HW210886   1.571   4.453   4.602
 2714SOL    HW310887   1.547   4.502   4.461
 2714SOL    MW410888   1.563   4.518   4.544
 2715SOL     OW10889   1.333   4.333   4.634
 2715SOL    HW210890   1.423   4.346   4.665
 2715SOL    HW310891   1.330   4.242   4.605
 2715SOL    MW410892   1.345   4.323   4.634
 2716SOL     OW10893   0.932   0.585   4.552
 2716SOL    HW210894   0.941   0.679   4.567
 2716SOL    HW310895   0.840   0.566   4.570
 2716SOL    MW410896   0.921   0.595   4.557
 2717SOL     OW10897   1.814   4.656   4.555
 2717SOL    HW210898   1.734   4.603   4.556
 2717SOL    HW310899   1.876   4.606   4.608
 2717SOL    MW410900   1.812   4.642   4.562
 2718SOL     OW10901   1.191   0.462   4.499
 2718SOL    HW210902   1.111   0.499   4.536
 2718SOL    HW310903   1.181   0.368   4.509
 2718SOL    MW410904   1.179   0.455   4.506
 2719SOL     OW10905   1.802   1.697   4.562
 2719SOL    HW210906   1.718   1.663   4.592
 2719SOL    HW310907   1.798   1.694   4.467
 2719SOL    MW410908   1.790   1.692   4.554
 2720SOL     OW10909   0.722   0.819   4.565
 2720SOL    HW210910   0.640   0.868   4.569
 2720SOL    HW310911   0.696   0.731   4.538
 2720SOL    MW410912   0.708   0.814   4.562
 2721SOL     OW10913   1.911   0.459   4.521
 2721SOL    HW210914   1.979   0.400   4.552
 2721SOL    HW310915   1.829   0.413   4.541
 2721SOL    MW410916   1.909   0.445   4.528
 2722SOL     OW10917   1.558   1.282   4.502
 2722SOL    HW210918   1.477   1.266   4.549
 2722SOL    HW310919   1.626   1.241   4.555
 2722SOL    MW410920   1.556   1.275   4.515
 2723SOL     OW10921   1.362   1.671   4.520
 2723SOL    HW210922   1.430   1.620   4.565
 2723SOL    HW310923   1.376   1.652   4.427
 2723SOL    MW410924   1.373   1.662   4.514
 2724SOL     OW10925   1.253   2.879   4.826
 2724SOL    HW210926   1.342   2.844   4.821
 2724SOL    HW310927   1.265   2.974   4.831
 2724SOL    MW410928   1.266   2.887   4.826
 2725SOL     OW10929   2.200   2.433   4.415
 2725SOL    HW210930   2.234   2.434   4.326
 2725SOL    HW310931   2.154   2.517   4.424
 2725SOL    MW410932   2.198   2.445   4.404
 2726SOL     OW10933   0.839   2.389   4.483
 2726SOL    HW210934   0.926   2.382   4.522
 2726SOL    HW310935   0.853   2.437   4.401
 2726SOL    MW410936   0.852   2.395   4.477
 2727SOL     OW10937   1.349   3.790   4.632
 2727SOL    HW210938   1.261   3.759   4.614
 2727SOL    HW310939   1.403   3.711   4.631
 2727SOL    MW410940   1.345   3.775   4.629
 2728SOL     OW10941   1.328   2.464   4.254
 2728SOL    HW210942   1.348   2.552   4.222
 2728SOL    HW310943   1.400   2.410   4.221
 2728SOL    MW410944   1.340   2.469   4.245
 2729SOL     OW10945   1.348   2.382   4.527
 2729SOL    HW210946   1.340   2.409   4.435
 2729SOL    HW310947   1.432   2.419   4.555
 2729SOL    MW410948   1.358   2.391   4.518
 2730SOL     OW10949   1.303   3.064   4.498
 2730SOL    HW210950   1.315   3.103   4.411
 2730SOL    HW310951   1.388   3.025   4.519
 2730SOL    MW410952   1.316   3.064   4.489
 2731SOL     OW10953   1.100   3.695   4.524
 2731SOL    HW210954   1.060   3.614   4.557
 2731SOL    HW310955   1.154   3.665   4.450
 2731SOL    MW410956   1.102   3.680   4.518
 2732SOL     OW10957   0.726   3.842   4.601
 2732SOL    HW210958   0.690   3.925   4.634
 2732SOL    HW310959   0.817   3.862   4.579
 2732SOL    MW410960   0.733   3.856   4.603
 2733SOL     OW10961   2.026   3.537   4.572
 2733SOL    HW210962   2.025   3.554   4.477
 2733SOL    HW310963   2.076   3.455   4.581
 2733SOL    MW410964   2.033   3.528   4.560
 2734SOL     OW10965   1.691   3.220   4.582
 2734SOL    HW210966   1.701   3.303   4.630
 2734SOL    HW310967   1.687   3.247   4.490
 2734SOL    MW410968   1.692   3.235   4.576
 2735SOL     OW10969   2.216   3.214   4.298
 2735SOL    HW210970   2.134   3.172   4.324
 2735SOL    HW310971   2.284   3.153   4.326
 2735SOL    MW410972   2.214   3.200   4.305
 2736SOL     OW10973   0.999   3.955   4.540
 2736SOL    HW210974   0.959   3.968   4.454
 2736SOL    HW310975   1.026   3.863   4.540
 2736SOL    MW410976   0.998   3.944   4.529
 2737SOL     OW10977   1.856   4.257   4.650
 2737SOL    HW210978   1.900   4.323   4.703
 2737SOL    HW310979   1.899   4.262   4.565
 2737SOL    MW410980   1.867   4.266   4.646
 2738SOL     OW10981   2.167   0.329   4.660
 2738SOL    HW210982   2.232   0.396   4.639
 2738SOL    HW310983   2.128   0.359   4.742
 2738SOL    MW410984   2.171   0.342   4.668
 2739SOL     OW10985   1.156   0.204   4.572
 2739SOL    HW210986   1.084   0.140   4.572
 2739SOL    HW310987   1.234   0.153   4.594
 2739SOL    MW410988   1.157   0.189   4.575
 2740SOL     OW10989   1.669   0.329   4.500
 2740SOL    HW210990   1.680   0.334   4.405
 2740SOL    HW310991   1.603   0.396   4.520
 2740SOL    MW410992   1.661   0.339   4.490
 2741SOL     OW10993   2.290   0.101   4.558
 2741SOL    HW210994   2.269   0.113   4.466
 2741SOL    HW310995   2.253   0.178   4.601
 2741SOL    MW410996   2.282   0.113   4.552
 2742SOL     OW10997   1.978   0.750   4.559
 2742SOL    HW210998   1.960   0.656   4.552
 2742SOL    HW310999   1.902   0.791   4.518
 2742SOL    MW411000   1.966   0.743   4.553
 2743SOL     OW11001   1.468   0.524   4.505
 2743SOL    HW211002   1.459   0.619   4.504
 2743SOL    HW311003   1.379   0.491   4.517
 2743SOL    MW411004   1.455   0.532   4.506
 2744SOL     OW11005   2.070   1.592   4.704
 2744SOL    HW211006   2.105   1.503   4.702
 2744SOL    HW311007   1.985   1.584   4.661
 2744SOL    MW411008   2.063   1.579   4.698
 2745SOL     OW11009   0.885   1.785   4.777
 2745SOL    HW211010   0.962   1.764   4.724
 2745SOL    HW311011   0.918   1.787   4.867
 2745SOL    MW411012   0.900   1.783   4.782
 2746SOL     OW11013   1.577   1.537   4.647
 2746SOL    HW211014   1.565   1.458   4.594
 2746SOL    HW311015   1.632   1.509   4.719
 2746SOL    MW411016   1.583   1.523   4.649
 2747SOL     OW11017   1.060   2.212   4.784
 2747SOL    HW211018   1.149   2.189   4.755
 2747SOL    HW311019   1.044   2.298   4.744
 2747SOL    MW411020   1.070   2.221   4.775
 2748SOL     OW11021   1.507   1.938   4.558
 2748SOL    HW211022   1.514   1.960   4.465
 2748SOL    HW311023   1.482   1.845   4.560
 2748SOL    MW411024   1.504   1.929   4.546
 2749SOL     OW11025   2.005   2.068   4.191
 2749SOL    HW211026   1.926   2.039   4.146
 2749SOL    HW311027   2.003   2.163   4.186
 2749SOL    MW411028   1.994   2.076   4.184
 2750SOL     OW11029   1.290   2.119   4.627
 2750SOL    HW211030   1.365   2.062   4.613
 2750SOL    HW311031   1.317   2.204   4.592
 2750SOL    MW411032   1.303   2.123   4.621
 2751SOL     OW11033   2.410   3.044   4.402
 2751SOL    HW211034   2.456   3.055   4.485
 2751SOL    HW311035   2.341   2.980   4.422
 2751SOL    MW411036   2.407   3.037   4.415
 2752SOL     OW11037   1.802   2.848   4.872
 2752SOL    HW211038   1.815   2.782   4.803
 2752SOL    HW311039   1.857   2.921   4.845
 2752SOL    MW411040   1.811   2.849   4.859
 2753SOL     OW11041   1.854   3.975   4.598
 2753SOL    HW211042   1.834   3.992   4.506
 2753SOL    HW311043   1.865   4.062   4.637
 2753SOL    MW411044   1.853   3.989   4.591
 2754SOL     OW11045   2.550   3.073   4.645
 2754SOL    HW211046   2.616   3.010   4.616
 2754SOL    HW311047   2.498   3.025   4.710
 2754SOL    MW411048   2.552   3.058   4.650
 2755SOL     OW11049   2.226   3.304   4.565
 2755SOL    HW211050   2.221   3.286   4.471
 2755SOL    HW311051   2.200   3.222   4.607
 2755SOL    MW411052   2.222   3.291   4.558
 2756SOL     OW11053   2.641   3.907   4.522
 2756SOL    HW211054   2.552   3.892   4.554
 2756SOL    HW311055   2.629   3.940   4.432
 2756SOL    MW411056   2.628   3.910   4.514
 2757SOL     OW11057   2.396   3.808   4.626
 2757SOL    HW211058   2.438   3.723   4.640
 2757SOL    HW311059   2.303   3.792   4.642
 2757SOL    MW411060   2.390   3.795   4.630
 2758SOL     OW11061   2.420   3.490   4.594
 2758SOL    HW211062   2.352   3.422   4.599
 2758SOL    HW311063   2.420   3.517   4.502
 2758SOL    MW411064   2.411   3.484   4.583
 2759SOL     OW11065   1.783   3.485   4.691
 2759SOL    HW211066   1.869   3.505   4.654
 2759SOL    HW311067   1.792   3.506   4.784
 2759SOL    MW411068   1.796   3.491   4.698
 2760SOL     OW11069   2.063   4.253   4.477
 2760SOL    HW211070   2.116   4.178   4.504
 2760SOL    HW311071   2.107   4.328   4.517
 2760SOL    MW411072   2.076   4.253   4.486
 2761SOL     OW11073   1.591   4.294   4.707
 2761SOL    HW211074   1.686   4.283   4.706
 2761SOL    HW311075   1.558   4.204   4.713
 2761SOL    MW411076   1.599   4.280   4.708
 2762SOL     OW11077   2.010   4.522   4.749
 2762SOL    HW211078   2.028   4.570   4.829
 2762SOL    HW311079   2.095   4.515   4.705
 2762SOL    MW411080   2.023   4.527   4.754
 2763SOL     OW11081   2.227   4.483   4.566
 2763SOL    HW211082   2.306   4.433   4.586
 2763SOL    HW311083   2.255   4.574   4.570
 2763SOL    MW411084   2.241   4.488   4.569
 2764SOL     OW11085   1.799   1.389   4.750
 2764SOL    HW211086   1.775   1.304   4.712
 2764SOL    HW311087   1.887   1.375   4.785
 2764SOL    MW411088   1.807   1.376   4.749
 2765SOL     OW11089   2.556   0.145   4.588
 2765SOL    HW211090   2.467   0.112   4.579
 2765SOL    HW311091   2.592   0.141   4.500
 2765SOL    MW411092   2.549   0.140   4.575
 2766SOL     OW11093   2.376   0.793   4.518
 2766SOL    HW211094   2.312   0.863   4.531
 2766SOL    HW311095   2.457   0.838   4.496
 2766SOL    MW411096   2.378   0.808   4.517
 2767SOL     OW11097   2.853   0.792   4.612
 2767SOL    HW211098   2.946   0.812   4.617
 2767SOL    HW311099   2.847   0.700   4.639
 2767SOL    MW411100   2.865   0.782   4.616
 2768SOL     OW11101   2.159   1.336   4.628
 2768SOL    HW211102   2.183   1.262   4.683
 2768SOL    HW311103   2.234   1.347   4.569
 2768SOL    MW411104   2.172   1.328   4.627
 2769SOL     OW11105   2.404   1.342   4.494
 2769SOL    HW211106   2.427   1.271   4.555
 2769SOL    HW311107   2.432   1.421   4.540
 2769SOL    MW411108   2.411   1.343   4.508
 2770SOL     OW11109   2.500   1.562   4.645
 2770SOL    HW211110   2.562   1.635   4.653
 2770SOL    HW311111   2.416   1.603   4.628
 2770SOL    MW411112   2.497   1.577   4.643
 2771SOL     OW11113   2.281   1.712   4.568
 2771SOL    HW211114   2.251   1.717   4.478
 2771SOL    HW311115   2.204   1.684   4.618
 2771SOL    MW411116   2.267   1.709   4.563
 2772SOL     OW11117   2.164   2.127   4.456
 2772SOL    HW211118   2.169   2.221   4.471
 2772SOL    HW311119   2.110   2.117   4.378
 2772SOL    MW411120   2.157   2.138   4.448
 2773SOL     OW11121   2.381   1.984   4.592
 2773SOL    HW211122   2.350   1.896   4.615
 2773SOL    HW311123   2.303   2.030   4.561
 2773SOL    MW411124   2.367   1.978   4.591
 2774SOL     OW11125   2.698   2.393   4.499
 2774SOL    HW211126   2.607   2.425   4.506
 2774SOL    HW311127   2.750   2.472   4.485
 2774SOL    MW411128   2.692   2.408   4.498
 2775SOL     OW11129   1.807   2.687   4.657
 2775SOL    HW211130   1.860   2.749   4.606
 2775SOL    HW311131   1.870   2.638   4.709
 2775SOL    MW411132   1.822   2.689   4.657
 2776SOL     OW11133   2.179   3.045   4.670
 2776SOL    HW211134   2.085   3.047   4.688
 2776SOL    HW311135   2.188   2.982   4.599
 2776SOL    MW411136   2.167   3.037   4.663
 2777SOL     OW11137   2.641   3.336   4.561
 2777SOL    HW211138   2.609   3.260   4.609
 2777SOL    HW311139   2.574   3.403   4.574
 2777SOL    MW411140   2.628   3.335   4.569
 2778SOL     OW11141   2.383   2.960   4.836
 2778SOL    HW211142   2.363   2.970   4.929
 2778SOL    HW311143   2.306   2.993   4.791
 2778SOL    MW411144   2.370   2.966   4.842
 2779SOL     OW11145   1.549   4.000   4.692
 2779SOL    HW211146   1.490   3.925   4.686
 2779SOL    HW311147   1.632   3.969   4.657
 2779SOL    MW411148   1.552   3.986   4.686
 2780SOL     OW11149   2.689   4.178   4.562
 2780SOL    HW211150   2.603   4.216   4.545
 2780SOL    HW311151   2.673   4.085   4.574
 2780SOL    MW411152   2.676   4.171   4.561
 2781SOL     OW11153   1.897   3.055   4.684
 2781SOL    HW211154   1.902   2.991   4.613
 2781SOL    HW311155   1.830   3.118   4.657
 2781SOL    MW411156   1.889   3.055   4.671
 2782SOL     OW11157   3.394   3.940   4.855
 2782SOL    HW211158   3.387   4.036   4.849
 2782SOL    HW311159   3.353   3.918   4.938
 2782SOL    MW411160   3.388   3.950   4.865
 2783SOL     OW11161   3.061   3.926   4.490
 2783SOL    HW211162   2.996   3.856   4.486
 2783SOL    HW311163   3.134   3.889   4.540
 2783SOL    MW411164   3.062   3.912   4.496
 2784SOL     OW11165   2.292   4.080   4.527
 2784SOL    HW211166   2.318   4.001   4.574
 2784SOL    HW311167   2.276   4.051   4.437
 2784SOL    MW411168   2.293   4.066   4.521
 2785SOL     OW11169   2.444   4.309   4.550
 2785SOL    HW211170   2.404   4.222   4.543
 2785SOL    HW311171   2.452   4.338   4.459
 2785SOL    MW411172   2.440   4.301   4.537
 2786SOL     OW11173   3.055   0.401   4.518
 2786SOL    HW211174   3.008   0.427   4.439
 2786SOL    HW311175   3.136   0.452   4.515
 2786SOL    MW411176   3.059   0.411   4.507
 2787SOL     OW11177   2.557   0.414   4.685
 2787SOL    HW211178   2.553   0.319   4.673
 2787SOL    HW311179   2.650   0.436   4.674
 2787SOL    MW411180   2.569   0.404   4.682
 2788SOL     OW11181   3.196   0.140   4.512
 2788SOL    HW211182   3.134   0.069   4.527
 2788SOL    HW311183   3.146   0.220   4.532
 2788SOL    MW411184   3.181   0.141   4.516
 2789SOL     OW11185   2.638   0.935   4.495
 2789SOL    HW211186   2.705   0.874   4.527
 2789SOL    HW311187   2.661   0.951   4.404
 2789SOL    MW411188   2.650   0.929   4.487
 2790SOL     OW11189   3.555   0.660   4.777
 2790SOL    HW211190   3.554   0.565   4.771
 2790SOL    HW311191   3.644   0.685   4.756
 2790SOL    MW411192   3.566   0.651   4.774
 2791SOL     OW11193   2.156   0.964   4.506
 2791SOL    HW211194   2.090   1.030   4.485
 2791SOL    HW311195   2.107   0.885   4.526
 2791SOL    MW411196   2.141   0.962   4.506
 2792SOL     OW11197   2.519   1.110   4.682
 2792SOL    HW211198   2.595   1.168   4.689
 2792SOL    HW311199   2.550   1.038   4.627
 2792SOL    MW411200   2.534   1.108   4.676
 2793SOL     OW11201   2.974   1.330   4.500
 2793SOL    HW211202   2.888   1.336   4.542
 2793SOL    HW311203   2.956   1.340   4.407
 2793SOL    MW411204   2.960   1.332   4.493
 2794SOL     OW11205   3.034   1.583   4.585
 2794SOL    HW211206   2.949   1.626   4.587
 2794SOL    HW311207   3.017   1.496   4.548
 2794SOL    MW411208   3.021   1.577   4.580
 2795SOL     OW11209   2.768   1.716   4.604
 2795SOL    HW211210   2.749   1.804   4.635
 2795SOL    HW311211   2.753   1.719   4.510
 2795SOL    MW411212   2.763   1.728   4.596
 2796SOL     OW11213   2.648   1.961   4.679
 2796SOL    HW211214   2.703   2.021   4.629
 2796SOL    HW311215   2.559   1.984   4.655
 2796SOL    MW411216   2.644   1.972   4.670
 2797SOL     OW11217   2.812   2.160   4.570
 2797SOL    HW211218   2.769   2.241   4.545
 2797SOL    HW311219   2.841   2.122   4.488
 2797SOL    MW411220   2.810   2.166   4.556
 2798SOL     OW11221   3.069   2.203   4.697
 2798SOL    HW211222   3.039   2.231   4.783
 2798SOL    HW311223   2.990   2.203   4.643
 2798SOL    MW411224   3.055   2.207   4.701
 2799SOL     OW11225   2.449   2.770   4.612
 2799SOL    HW211226   2.437   2.801   4.702
 2799SOL    HW311227   2.368   2.793   4.568
 2799SOL    MW411228   2.437   2.777   4.618
 2800SOL     OW11229   3.485   3.137   4.546
 2800SOL    HW211230   3.391   3.140   4.564
 2800SOL    HW311231   3.505   3.224   4.511
 2800SOL    MW411232   3.475   3.149   4.544
 2801SOL     OW11233   2.692   2.877   4.483
 2801SOL    HW211234   2.631   2.819   4.528
 2801SOL    HW311235   2.668   2.871   4.391
 2801SOL    MW411236   2.681   2.869   4.477
 2802SOL     OW11237   2.881   3.470   4.636
 2802SOL    HW211238   2.963   3.430   4.607
 2802SOL    HW311239   2.816   3.399   4.629
 2802SOL    MW411240   2.883   3.455   4.631
 2803SOL     OW11241   2.951   2.903   4.607
 2803SOL    HW211242   3.002   2.823   4.605
 2803SOL    HW311243   2.868   2.879   4.565
 2803SOL    MW411244   2.946   2.889   4.601
 2804SOL     OW11245   2.770   4.467   4.620
 2804SOL    HW211246   2.738   4.379   4.596
 2804SOL    HW311247   2.690   4.519   4.628
 2804SOL    MW411248   2.755   4.462   4.618
 2805SOL     OW11249   3.326   3.864   4.583
 2805SOL    HW211250   3.324   3.770   4.567
 2805SOL    HW311251   3.332   3.873   4.678
 2805SOL    MW411252   3.326   3.853   4.593
 2806SOL     OW11253   3.862   3.742   4.658
 2806SOL    HW211254   3.934   3.722   4.717
 2806SOL    HW311255   3.846   3.660   4.611
 2806SOL    MW411256   3.869   3.729   4.659
 2807SOL     OW11257   2.856   3.712   4.501
 2807SOL    HW211258   2.770   3.741   4.529
 2807SOL    HW311259   2.867   3.626   4.541
 2807SOL    MW411260   2.846   3.705   4.510
 2808SOL     OW11261   2.960   4.202   4.476
 2808SOL    HW211262   2.869   4.202   4.508
 2808SOL    HW311263   2.978   4.110   4.458
 2808SOL    MW411264   2.950   4.190   4.478
 2809SOL     OW11265   3.016   4.591   4.548
 2809SOL    HW211266   3.072   4.515   4.536
 2809SOL    HW311267   2.928   4.554   4.560
 2809SOL    MW411268   3.011   4.576   4.548
 2810SOL     OW11269   3.300   0.530   4.525
 2810SOL    HW211270   3.327   0.520   4.434
 2810SOL    HW311271   3.323   0.620   4.547
 2810SOL    MW411272   3.307   0.540   4.516
 2811SOL     OW11273   2.343   0.529   4.567
 2811SOL    HW211274   2.418   0.506   4.621
 2811SOL    HW311275   2.345   0.625   4.563
 2811SOL    MW411276   2.353   0.539   4.573
 2812SOL     OW11277   2.237   1.103   4.760
 2812SOL    HW211278   2.332   1.098   4.769
 2812SOL    HW311279   2.216   1.046   4.686
 2812SOL    MW411280   2.247   1.095   4.751
 2813SOL     OW11281   2.850   0.486   4.682
 2813SOL    HW211282   2.876   0.436   4.759
 2813SOL    HW311283   2.915   0.461   4.615
 2813SOL    MW411284   2.862   0.476   4.683
 2814SOL     OW11285   3.380   0.793   4.580
 2814SOL    HW211286   3.431   0.851   4.524
 2814SOL    HW311287   3.439   0.769   4.651
 2814SOL    MW411288   3.394   0.797   4.582
 2815SOL     OW11289   3.407   1.246   4.490
 2815SOL    HW211290   3.324   1.225   4.533
 2815SOL    HW311291   3.448   1.161   4.474
 2815SOL    MW411292   3.402   1.232   4.494
 2816SOL     OW11293   2.742   1.333   4.663
 2816SOL    HW211294   2.797   1.336   4.741
 2816SOL    HW311295   2.693   1.416   4.665
 2816SOL    MW411296   2.743   1.345   4.673
 2817SOL     OW11297   3.979   0.973   4.549
 2817SOL    HW211298   4.009   0.936   4.466
 2817SOL    HW311299   4.057   1.015   4.586
 2817SOL    MW411300   3.993   0.974   4.543
 2818SOL     OW11301   3.506   1.502   4.522
 2818SOL    HW211302   3.444   1.560   4.566
 2818SOL    HW311303   3.462   1.418   4.518
 2818SOL    MW411304   3.492   1.499   4.528
 2819SOL     OW11305   3.307   1.699   4.609
 2819SOL    HW211306   3.305   1.795   4.606
 2819SOL    HW311307   3.215   1.674   4.621
 2819SOL    MW411308   3.294   1.709   4.610
 2820SOL     OW11309   3.287   2.000   4.623
 2820SOL    HW211310   3.204   2.041   4.647
 2820SOL    HW311311   3.309   2.040   4.538
 2820SOL    MW411312   3.279   2.011   4.615
 2821SOL     OW11313   3.702   1.771   4.792
 2821SOL    HW211314   3.697   1.683   4.829
 2821SOL    HW311315   3.696   1.758   4.698
 2821SOL    MW411316   3.700   1.758   4.785
 2822SOL     OW11317   2.830   2.638   4.393
 2822SOL    HW211318   2.781   2.710   4.433
 2822SOL    HW311319   2.919   2.649   4.426
 2822SOL    MW411320   2.836   2.649   4.403
 2823SOL     OW11321   3.505   2.426   4.531
 2823SOL    HW211322   3.411   2.436   4.546
 2823SOL    HW311323   3.540   2.515   4.540
 2823SOL    MW411324   3.497   2.439   4.534
 2824SOL     OW11325   3.210   2.401   4.532
 2824SOL    HW211326   3.190   2.371   4.443
 2824SOL    HW311327   3.170   2.336   4.589
 2824SOL    MW411328   3.202   2.389   4.528
 2825SOL     OW11329   3.590   2.697   4.605
 2825SOL    HW211330   3.649   2.765   4.574
 2825SOL    HW311331   3.642   2.647   4.669
 2825SOL    MW411332   3.604   2.699   4.610
 2826SOL     OW11333   3.188   3.058   4.545
 2826SOL    HW211334   3.235   2.979   4.521
 2826SOL    HW311335   3.112   3.027   4.594
 2826SOL    MW411336   3.184   3.044   4.548
 2827SOL     OW11337   3.333   2.823   4.496
 2827SOL    HW211338   3.353   2.825   4.402
 2827SOL    HW311339   3.419   2.819   4.539
 2827SOL    MW411340   3.347   2.823   4.489
 2828SOL     OW11341   4.225   2.553   4.577
 2828SOL    HW211342   4.318   2.534   4.592
 2828SOL    HW311343   4.220   2.648   4.577
 2828SOL    MW411344   4.237   2.563   4.579
 2829SOL     OW11345   3.534   3.407   4.440
 2829SOL    HW211346   3.610   3.453   4.477
 2829SOL    HW311347   3.563   3.378   4.354
 2829SOL    MW411348   3.548   3.410   4.434
 2830SOL     OW11349   3.541   4.036   4.522
 2830SOL    HW211350   3.597   4.016   4.597
 2830SOL    HW311351   3.460   3.988   4.540
 2830SOL    MW411352   3.537   4.027   4.535
 2831SOL     OW11353   3.310   4.219   4.779
 2831SOL    HW211354   3.362   4.281   4.727
 2831SOL    HW311355   3.224   4.260   4.785
 2831SOL    MW411356   3.305   4.233   4.773
 2832SOL     OW11357   3.099   4.357   4.694
 2832SOL    HW211358   3.076   4.274   4.653
 2832SOL    HW311359   3.024   4.414   4.676
 2832SOL    MW411360   3.086   4.354   4.686
 2833SOL     OW11361   3.464   4.319   4.537
 2833SOL    HW211362   3.477   4.224   4.529
 2833SOL    HW311363   3.553   4.354   4.551
 2833SOL    MW411364   3.478   4.311   4.538
 2834SOL     OW11365   3.673   3.946   4.756
 2834SOL    HW211366   3.720   3.872   4.718
 2834SOL    HW311367   3.597   3.907   4.798
 2834SOL    MW411368   3.669   3.931   4.756
 2835SOL     OW11369   3.413   0.120   4.675
 2835SOL    HW211370   3.390   0.029   4.692
 2835SOL    HW311371   3.343   0.151   4.616
 2835SOL    MW411372   3.400   0.112   4.669
 2836SOL     OW11373   3.120   0.896   4.599
 2836SOL    HW211374   3.140   0.984   4.629
 2836SOL    HW311375   3.205   0.852   4.599
 2836SOL    MW411376   3.134   0.902   4.603
 2837SOL     OW11377   3.182   1.177   4.637
 2837SOL    HW211378   3.196   1.231   4.714
 2837SOL    HW311379   3.108   1.219   4.591
 2837SOL    MW411380   3.174   1.189   4.641
 2838SOL     OW11381   4.043   1.490   4.612
 2838SOL    HW211382   4.109   1.435   4.572
 2838SOL    HW311383   3.960   1.449   4.589
 2838SOL    MW411384   4.040   1.477   4.604
 2839SOL     OW11385   3.738   1.119   4.556
 2839SOL    HW211386   3.748   1.214   4.568
 2839SOL    HW311387   3.827   1.086   4.553
 2839SOL    MW411388   3.751   1.127   4.558
 2840SOL     OW11389   4.453   0.904   4.593
 2840SOL    HW211390   4.455   0.909   4.498
 2840SOL    HW311391   4.441   0.810   4.612
 2840SOL    MW411392   4.451   0.892   4.583
 2841SOL     OW11393   4.226   0.476   4.509
 2841SOL    HW211394   4.214   0.493   4.415
 2841SOL    HW311395   4.152   0.420   4.533
 2841SOL    MW411396   4.215   0.471   4.499
 2842SOL     OW11397   3.687   1.741   4.514
 2842SOL    HW211398   3.782   1.726   4.512
 2842SOL    HW311399   3.649   1.658   4.482
 2842SOL    MW411400   3.695   1.728   4.509
 2843SOL     OW11401   3.941   1.933   4.700
 2843SOL    HW211402   3.871   1.898   4.756
 2843SOL    HW311403   3.917   2.024   4.685
 2843SOL    MW411404   3.929   1.940   4.706
 2844SOL     OW11405   3.511   2.030   4.806
 2844SOL    HW211406   3.563   1.951   4.786
 2844SOL    HW311407   3.430   2.018   4.756
 2844SOL    MW411408   3.507   2.018   4.797
 2845SOL     OW11409   4.236   2.261   4.908
 2845SOL    HW211410   4.243   2.166   4.898
 2845SOL    HW311411   4.246   2.275   5.002
 2845SOL    MW411412   4.238   2.250   4.919
 2846SOL     OW11413   4.192   1.948   4.814
 2846SOL    HW211414   4.105   1.961   4.778
 2846SOL    HW311415   4.199   1.853   4.826
 2846SOL    MW411416   4.182   1.937   4.811
 2847SOL     OW11417   3.864   2.186   4.652
 2847SOL    HW211418   3.917   2.266   4.653
 2847SOL    HW311419   3.784   2.210   4.698
 2847SOL    MW411420   3.861   2.200   4.658
 2848SOL     OW11421   3.760   2.535   4.742
 2848SOL    HW211422   3.851   2.508   4.754
 2848SOL    HW311423   3.710   2.464   4.784
 2848SOL    MW411424   3.766   2.522   4.749
 2849SOL     OW11425   3.708   2.947   4.566
 2849SOL    HW211426   3.791   2.974   4.605
 2849SOL    HW311427   3.644   3.011   4.598
 2849SOL    MW411428   3.710   2.959   4.575
 2850SOL     OW11429   4.064   3.089   4.622
 2850SOL    HW211430   4.106   3.135   4.695
 2850SOL    HW311431   4.117   3.010   4.609
 2850SOL    MW411432   4.077   3.085   4.630
 2851SOL     OW11433   3.139   3.357   4.526
 2851SOL    HW211434   3.173   3.287   4.583
 2851SOL    HW311435   3.158   3.326   4.437
 2851SOL    MW411436   3.146   3.344   4.522
 2852SOL     OW11437   3.970   3.319   4.504
 2852SOL    HW211438   3.994   3.238   4.549
 2852SOL    HW311439   3.970   3.296   4.412
 2852SOL    MW411440   3.973   3.305   4.498
 2853SOL     OW11441   3.321   3.575   4.509
 2853SOL    HW211442   3.253   3.509   4.524
 2853SOL    HW311443   3.402   3.525   4.508
 2853SOL    MW411444   3.322   3.560   4.511
 2854SOL     OW11445   3.771   3.523   4.518
 2854SOL    HW211446   3.785   3.567   4.434
 2854SOL    HW311447   3.831   3.448   4.516
 2854SOL    MW411448   3.780   3.518   4.506
 2855SOL     OW11449   0.020   2.881   4.607
 2855SOL    HW211450   0.043   2.790   4.627
 2855SOL    HW311451   0.088   2.910   4.545
 2855SOL    MW411452   0.032   2.873   4.602
 2856SOL     OW11453   4.031   3.935   4.549
 2856SOL    HW211454   4.020   3.999   4.619
 2856SOL    HW311455   3.964   3.869   4.565
 2856SOL    MW411456   4.021   3.935   4.560
 2857SOL     OW11457   3.714   4.416   4.525
 2857SOL    HW211458   3.737   4.397   4.434
 2857SOL    HW311459   3.693   4.509   4.526
 2857SOL    MW411460   3.714   4.426   4.513
 2858SOL     OW11461   3.353   4.524   4.713
 2858SOL    HW211462   3.387   4.457   4.655
 2858SOL    HW311463   3.264   4.495   4.734
 2858SOL    MW411464   3.346   4.512   4.708
 2859SOL     OW11465   3.535   0.985   4.459
 2859SOL    HW211466   3.606   1.039   4.494
 2859SOL    HW311467   3.562   0.965   4.370
 2859SOL    MW411468   3.548   0.990   4.452
 2860SOL     OW11469   3.780   0.763   4.656
 2860SOL    HW211470   3.858   0.816   4.674
 2860SOL    HW311471   3.714   0.826   4.630
 2860SOL    MW411472   3.782   0.778   4.655
 2861SOL     OW11473   4.467   0.336   4.486
 2861SOL    HW211474   4.529   0.397   4.526
 2861SOL    HW311475   4.381   0.374   4.504
 2861SOL    MW411476   4.464   0.349   4.494
 2862SOL     OW11477   0.148   0.527   4.564
 2862SOL    HW211478   0.223   0.488   4.608
 2862SOL    HW311479   0.176   0.537   4.473
 2862SOL    MW411480   0.161   0.523   4.558
 2863SOL     OW11481   4.016   0.340   4.650
 2863SOL    HW211482   3.949   0.401   4.681
 2863SOL    HW311483   3.968   0.277   4.596
 2863SOL    MW411484   4.001   0.339   4.647
 2864SOL     OW11485   3.770   1.400   4.544
 2864SOL    HW211486   3.793   1.384   4.452
 2864SOL    HW311487   3.682   1.437   4.540
 2864SOL    MW411488   3.762   1.403   4.531
 2865SOL     OW11489   4.476   1.441   4.516
 2865SOL    HW211490   4.571   1.429   4.530
 2865SOL    HW311491   4.458   1.528   4.551
 2865SOL    MW411492   4.486   1.451   4.523
 2866SOL     OW11493   0.269   1.406   4.538
 2866SOL    HW211494   0.316   1.327   4.565
 2866SOL    HW311495   0.322   1.478   4.573
 2866SOL    MW411496   0.282   1.405   4.546
 2867SOL     OW11497   3.965   1.737   4.519
 2867SOL    HW211498   4.012   1.663   4.560
 2867SOL    HW311499   3.964   1.805   4.586
 2867SOL    MW411500   3.971   1.736   4.533
 2868SOL     OW11501   3.097   2.666   4.518
 2868SOL    HW211502   3.174   2.720   4.506
 2868SOL    HW311503   3.131   2.577   4.530
 2868SOL    MW411504   3.111   2.661   4.518
 2869SOL     OW11505   4.243   2.088   4.335
 2869SOL    HW211506   4.178   2.035   4.289
 2869SOL    HW311507   4.243   2.052   4.424
 2869SOL    MW411508   4.234   2.076   4.341
 2870SOL     OW11509   0.019   2.219   4.718
 2870SOL    HW211510  -0.018   2.231   4.805
 2870SOL    HW311511   0.017   2.307   4.679
 2870SOL    MW411512   0.014   2.232   4.724
 2871SOL     OW11513   4.353   1.973   4.593
 2871SOL    HW211514   4.287   1.966   4.662
 2871SOL    HW311515   4.406   2.048   4.617
 2871SOL    MW411516   4.351   1.982   4.605
 2872SOL     OW11517   3.610   2.297   4.774
 2872SOL    HW211518   3.571   2.315   4.689
 2872SOL    HW311519   3.581   2.209   4.796
 2872SOL    MW411520   3.601   2.288   4.766
 2873SOL     OW11521   0.485   2.600   4.555
 2873SOL    HW211522   0.480   2.506   4.541
 2873SOL    HW311523   0.575   2.617   4.580
 2873SOL    MW411524   0.496   2.590   4.556
 2874SOL     OW11525   4.231   2.834   4.559
 2874SOL    HW211526   4.324   2.832   4.582
 2874SOL    HW311527   4.231   2.851   4.464
 2874SOL    MW411528   4.243   2.836   4.549
 2875SOL     OW11529   4.373   3.221   4.556
 2875SOL    HW211530   4.379   3.126   4.555
 2875SOL    HW311531   4.465   3.251   4.557
 2875SOL    MW411532   4.386   3.213   4.556
 2876SOL     OW11533   0.289   3.658   4.530
 2876SOL    HW211534   0.276   3.690   4.441
 2876SOL    HW311535   0.218   3.595   4.543
 2876SOL    MW411536   0.278   3.654   4.520
 2877SOL     OW11537   4.096   4.608   4.643
 2877SOL    HW211538   4.041   4.674   4.602
 2877SOL    HW311539   4.145   4.655   4.711
 2877SOL    MW411540   4.095   4.623   4.647
 2878SOL     OW11541   3.683   0.025   4.531
 2878SOL    HW211542   3.625   0.054   4.601
 2878SOL    HW311543   3.629   0.027   4.452
 2878SOL    MW411544   3.669   0.029   4.530
 2879SOL     OW11545   4.174   3.903   4.866
 2879SOL    HW211546   4.127   3.981   4.837
 2879SOL    HW311547   4.264   3.918   4.839
 2879SOL    MW411548   4.180   3.915   4.859
 2880SOL     OW11549   3.533   0.398   4.653
 2880SOL    HW211550   3.456   0.430   4.605
 2880SOL    HW311551   3.508   0.309   4.680
 2880SOL    MW411552   3.519   0.390   4.650
 2881SOL     OW11553   4.263   4.435   4.234
 2881SOL    HW211554   4.338   4.383   4.205
 2881SOL    HW311555   4.282   4.456   4.326
 2881SOL    MW411556   4.276   4.431   4.242
 2882NA      NA11557   2.565   4.319   0.597
 2883NA      NA11558   0.677   2.480   0.352
   4.49070   4.66690  10.00000
