Gromacs Runs On Most of All Computer Systems in water t= 810.00000 step= 810000
11558
    1RG35     P    1   2.232   2.875   4.416
    1RG35   O1P    2   2.227   2.784   4.306
    1RG35   O2P    3   2.163   3.003   4.390
    1RG35   O5'    4   2.148   2.807   4.530
    1RG35   C5'    5   2.008   2.800   4.523
    1RG35  H5'1    6   1.975   2.796   4.419
    1RG35  H5'2    7   1.953   2.879   4.574
    1RG35   C4'    8   1.963   2.666   4.586
    1RG35   H4'    9   1.854   2.662   4.595
    1RG35   O4'   10   1.991   2.554   4.497
    1RG35   C1'   11   2.024   2.445   4.588
    1RG35   H1'   12   1.933   2.413   4.638
    1RG35    N9   13   2.081   2.330   4.512
    1RG35    C8   14   2.166   2.333   4.402
    1RG35    H8   15   2.228   2.415   4.369
    1RG35    N7   16   2.167   2.225   4.333
    1RG35    C5   17   2.077   2.138   4.399
    1RG35    C6   18   2.035   2.007   4.369
    1RG35    O6   19   2.068   1.940   4.272
    1RG35    N1   20   1.933   1.958   4.452
    1RG35    H1   21   1.900   1.864   4.437
    1RG35    C2   22   1.881   2.036   4.551
    1RG35    N2   23   1.785   1.982   4.625
    1RG35   H21   24   1.756   1.891   4.592
    1RG35   H22   25   1.734   2.042   4.688
    1RG35    N3   26   1.922   2.159   4.581
    1RG35    C4   27   2.024   2.206   4.509
    1RG35   C3'   28   2.022   2.633   4.722
    1RG35   H3'   29   2.075   2.718   4.764
    1RG35   C2'   30   2.110   2.513   4.683
    1RG35  H2'1   31   2.203   2.538   4.633
    1RG35   O2'   32   2.143   2.435   4.803
    1RG35  HO'2   33   2.206   2.491   4.849
    1RG35   O3'   34   1.922   2.594   4.816
    1RG35   H3T   35   1.973   2.584   4.897
    1RG35   O3P   36   2.362   2.887   4.480
    2SOL     OW   37   0.434   0.048   0.437
    2SOL    HW2   38   0.430  -0.048   0.437
    2SOL    HW3   39   0.522   0.068   0.404
    2SOL    MW4   40   0.445   0.038   0.433
    3SOL     OW   41   3.741   0.469   0.241
    3SOL    HW2   42   3.810   0.449   0.177
    3SOL    HW3   43   3.747   0.563   0.255
    3SOL    MW4   44   3.751   0.478   0.234
    4SOL     OW   45   3.799   0.294   0.451
    4SOL    HW2   46   3.778   0.326   0.363
    4SOL    HW3   47   3.787   0.370   0.508
    4SOL    MW4   48   3.794   0.308   0.447
    5SOL     OW   49   0.485   1.670   0.323
    5SOL    HW2   50   0.564   1.618   0.336
    5SOL    HW3   51   0.414   1.615   0.357
    5SOL    MW4   52   0.486   1.656   0.329
    6SOL     OW   53   1.465   0.798   0.442
    6SOL    HW2   54   1.425   0.822   0.525
    6SOL    HW3   55   1.559   0.803   0.458
    6SOL    MW4   56   1.472   0.802   0.455
    7SOL     OW   57   0.223   0.454   0.506
    7SOL    HW2   58   0.220   0.441   0.601
    7SOL    HW3   59   0.208   0.367   0.469
    7SOL    MW4   60   0.221   0.441   0.514
    8SOL     OW   61   0.586   0.782   0.405
    8SOL    HW2   62   0.551   0.774   0.494
    8SOL    HW3   63   0.555   0.704   0.360
    8SOL    MW4   64   0.577   0.771   0.411
    9SOL     OW   65   0.889   0.799   0.422
    9SOL    HW2   66   0.903   0.814   0.515
    9SOL    HW3   67   0.794   0.792   0.412
    9SOL    MW4   68   0.879   0.800   0.433
   10SOL     OW   69   0.463   1.059   0.375
   10SOL    HW2   70   0.451   1.061   0.280
   10SOL    HW3   71   0.494   0.970   0.393
   10SOL    MW4   72   0.466   1.047   0.364
   11SOL     OW   73   4.284   1.463   0.524
   11SOL    HW2   74   4.214   1.524   0.548
   11SOL    HW3   75   4.299   1.411   0.603
   11SOL    MW4   76   4.277   1.464   0.538
   12SOL     OW   77   4.048   2.299   0.584
   12SOL    HW2   78   3.954   2.282   0.597
   12SOL    HW3   79   4.054   2.394   0.574
   12SOL    MW4   80   4.036   2.309   0.584
   13SOL     OW   81   0.028   1.626   0.496
   13SOL    HW2   82   0.032   1.652   0.588
   13SOL    HW3   83  -0.036   1.555   0.493
   13SOL    MW4   84   0.020   1.620   0.507
   14SOL     OW   85   0.704   2.256   0.487
   14SOL    HW2   86   0.679   2.279   0.576
   14SOL    HW3   87   0.777   2.314   0.467
   14SOL    MW4   88   0.710   2.267   0.496
   15SOL     OW   89   0.152   2.768   0.426
   15SOL    HW2   90   0.154   2.863   0.422
   15SOL    HW3   91   0.232   2.741   0.380
   15SOL    MW4   92   0.163   2.777   0.419
   16SOL     OW   93   4.104   3.417   0.440
   16SOL    HW2   94   4.143   3.345   0.391
   16SOL    HW3   95   4.080   3.379   0.525
   16SOL    MW4   96   4.106   3.403   0.445
   17SOL     OW   97   0.183   3.045   0.440
   17SOL    HW2   98   0.265   3.091   0.460
   17SOL    HW3   99   0.124   3.114   0.410
   17SOL    MW4  100   0.186   3.060   0.439
   18SOL     OW  101   0.591   3.341   0.366
   18SOL    HW2  102   0.649   3.400   0.414
   18SOL    HW3  103   0.538   3.399   0.311
   18SOL    MW4  104   0.592   3.357   0.365
   19SOL     OW  105   0.665   3.799   0.310
   19SOL    HW2  106   0.738   3.850   0.276
   19SOL    HW3  107   0.604   3.864   0.345
   19SOL    MW4  108   0.667   3.814   0.310
   20SOL     OW  109   4.169   3.891   0.280
   20SOL    HW2  110   4.207   3.959   0.335
   20SOL    HW3  111   4.206   3.809   0.312
   20SOL    MW4  112   4.179   3.889   0.291
   21SOL     OW  113   0.208   3.652   0.135
   21SOL    HW2  114   0.208   3.731   0.189
   21SOL    HW3  115   0.236   3.682   0.049
   21SOL    MW4  116   0.212   3.666   0.131
   22SOL     OW  117   4.372   4.510   0.462
   22SOL    HW2  118   4.300   4.502   0.400
   22SOL    HW3  119   4.337   4.477   0.545
   22SOL    MW4  120   4.358   4.505   0.465
   23SOL     OW  121   4.088   4.247   0.233
   23SOL    HW2  122   3.996   4.224   0.235
   23SOL    HW3  123   4.126   4.190   0.166
   23SOL    MW4  124   4.081   4.237   0.224
   24SOL     OW  125   4.146   0.133   0.309
   24SOL    HW2  126   4.132   0.055   0.255
   24SOL    HW3  127   4.225   0.173   0.272
   24SOL    MW4  128   4.155   0.128   0.297
   25SOL     OW  129   0.437   3.125   0.483
   25SOL    HW2  130   0.455   3.143   0.575
   25SOL    HW3  131   0.488   3.191   0.435
   25SOL    MW4  132   0.446   3.136   0.488
   26SOL     OW  133   0.373   4.417   0.479
   26SOL    HW2  134   0.334   4.428   0.566
   26SOL    HW3  135   0.300   4.390   0.423
   26SOL    MW4  136   0.358   4.415   0.483
   27SOL     OW  137   0.205   0.202   0.376
   27SOL    HW2  138   0.143   0.147   0.423
   27SOL    HW3  139   0.287   0.152   0.378
   27SOL    MW4  140   0.208   0.188   0.382
   28SOL     OW  141   4.479   0.676   0.541
   28SOL    HW2  142   4.562   0.629   0.529
   28SOL    HW3  143   4.473   0.733   0.465
   28SOL    MW4  144   4.489   0.677   0.529
   29SOL     OW  145   0.813   4.378   0.477
   29SOL    HW2  146   0.865   4.301   0.457
   29SOL    HW3  147   0.782   4.363   0.567
   29SOL    MW4  148   0.816   4.366   0.486
   30SOL     OW  149   1.098   1.283   0.470
   30SOL    HW2  150   1.049   1.365   0.479
   30SOL    HW3  151   1.171   1.306   0.412
   30SOL    MW4  152   1.102   1.297   0.463
   31SOL     OW  153   0.656   0.369   0.481
   31SOL    HW2  154   0.735   0.414   0.449
   31SOL    HW3  155   0.675   0.276   0.467
   31SOL    MW4  156   0.669   0.363   0.475
   32SOL     OW  157   0.265   1.245   0.434
   32SOL    HW2  158   0.339   1.187   0.414
   32SOL    HW3  159   0.188   1.189   0.429
   32SOL    MW4  160   0.265   1.230   0.431
   33SOL     OW  161   0.074   2.139   0.418
   33SOL    HW2  162   0.009   2.198   0.380
   33SOL    HW3  163   0.053   2.053   0.382
   33SOL    MW4  164   0.063   2.136   0.408
   34SOL     OW  165   0.538   1.934   0.414
   34SOL    HW2  166   0.477   2.003   0.391
   34SOL    HW3  167   0.500   1.854   0.377
   34SOL    MW4  168   0.525   1.933   0.406
   35SOL     OW  169   0.922   2.638   0.245
   35SOL    HW2  170   0.874   2.717   0.272
   35SOL    HW3  171   0.896   2.625   0.154
   35SOL    MW4  172   0.912   2.647   0.236
   36SOL     OW  173   0.789   3.166   0.241
   36SOL    HW2  174   0.723   3.229   0.272
   36SOL    HW3  175   0.814   3.198   0.155
   36SOL    MW4  176   0.783   3.179   0.234
   37SOL     OW  177   3.885   2.227   0.241
   37SOL    HW2  178   3.971   2.240   0.282
   37SOL    HW3  179   3.905   2.209   0.149
   37SOL    MW4  180   3.899   2.226   0.234
   38SOL     OW  181   1.175   2.061   0.447
   38SOL    HW2  182   1.147   2.049   0.538
   38SOL    HW3  183   1.258   2.015   0.440
   38SOL    MW4  184   1.182   2.053   0.458
   39SOL     OW  185   0.495   2.488   0.453
   39SOL    HW2  186   0.465   2.553   0.389
   39SOL    HW3  187   0.580   2.460   0.420
   39SOL    MW4  188   0.502   2.493   0.440
   40SOL     OW  189   4.261   3.210   0.284
   40SOL    HW2  190   4.232   3.125   0.318
   40SOL    HW3  191   4.253   3.201   0.189
   40SOL    MW4  192   4.256   3.198   0.276
   41SOL     OW  193   0.387   2.705   0.309
   41SOL    HW2  194   0.410   2.724   0.218
   41SOL    HW3  195   0.437   2.769   0.360
   41SOL    MW4  196   0.397   2.716   0.304
   42SOL     OW  197   0.805   0.279   0.203
   42SOL    HW2  198   0.763   0.310   0.123
   42SOL    HW3  199   0.829   0.359   0.250
   42SOL    MW4  200   0.803   0.294   0.199
   43SOL     OW  201   0.258   3.608   0.455
   43SOL    HW2  202   0.253   3.700   0.428
   43SOL    HW3  203   0.333   3.573   0.405
   43SOL    MW4  204   0.267   3.616   0.445
   44SOL     OW  205   0.455   3.570   0.262
   44SOL    HW2  206   0.378   3.609   0.222
   44SOL    HW3  207   0.524   3.636   0.251
   44SOL    MW4  208   0.454   3.584   0.255
   45SOL     OW  209   1.025   3.605   0.475
   45SOL    HW2  210   0.931   3.584   0.474
   45SOL    HW3  211   1.069   3.520   0.480
   45SOL    MW4  212   1.018   3.591   0.476
   46SOL     OW  213   0.121   4.331   0.409
   46SOL    HW2  214   0.036   4.374   0.411
   46SOL    HW3  215   0.100   4.237   0.407
   46SOL    MW4  216   0.107   4.324   0.409
   47SOL     OW  217   0.752   3.556   0.478
   47SOL    HW2  218   0.717   3.638   0.444
   47SOL    HW3  219   0.751   3.567   0.573
   47SOL    MW4  220   0.748   3.568   0.486
   48SOL     OW  221   0.575   4.268   0.354
   48SOL    HW2  222   0.507   4.312   0.404
   48SOL    HW3  223   0.656   4.310   0.381
   48SOL    MW4  224   0.577   4.279   0.364
   49SOL     OW  225   0.690   0.095   0.368
   49SOL    HW2  226   0.766   0.042   0.392
   49SOL    HW3  227   0.723   0.155   0.301
   49SOL    MW4  228   0.705   0.096   0.363
   50SOL     OW  229   0.883   0.503   0.367
   50SOL    HW2  230   0.887   0.597   0.381
   50SOL    HW3  231   0.973   0.473   0.378
   50SOL    MW4  232   0.895   0.511   0.370
   51SOL     OW  233   0.472   0.521   0.345
   51SOL    HW2  234   0.384   0.493   0.369
   51SOL    HW3  235   0.530   0.457   0.386
   51SOL    MW4  236   0.468   0.509   0.354
   52SOL     OW  237   1.491   0.525   0.437
   52SOL    HW2  238   1.510   0.521   0.530
   52SOL    HW3  239   1.472   0.617   0.420
   52SOL    MW4  240   1.491   0.536   0.447
   53SOL     OW  241   1.991   0.808   0.370
   53SOL    HW2  242   1.896   0.816   0.383
   53SOL    HW3  243   2.003   0.719   0.335
   53SOL    MW4  244   1.980   0.797   0.367
   54SOL     OW  245   1.932   0.004   0.439
   54SOL    HW2  246   1.909  -0.084   0.410
   54SOL    HW3  247   1.848   0.047   0.457
   54SOL    MW4  248   1.918  -0.002   0.438
   55SOL     OW  249   0.743   1.516   0.370
   55SOL    HW2  250   0.706   1.429   0.383
   55SOL    HW3  251   0.822   1.517   0.423
   55SOL    MW4  252   0.749   1.505   0.379
   56SOL     OW  253   0.679   1.246   0.455
   56SOL    HW2  254   0.613   1.192   0.412
   56SOL    HW3  255   0.763   1.211   0.422
   56SOL    MW4  256   0.682   1.234   0.445
   57SOL     OW  257   1.735   1.138   0.126
   57SOL    HW2  258   1.673   1.098   0.187
   57SOL    HW3  259   1.786   1.065   0.093
   57SOL    MW4  260   1.734   1.123   0.130
   58SOL     OW  261   0.897   1.124   0.340
   58SOL    HW2  262   0.919   1.031   0.345
   58SOL    HW3  263   0.979   1.170   0.359
   58SOL    MW4  264   0.910   1.118   0.343
   59SOL     OW  265   1.338   1.351   0.334
   59SOL    HW2  266   1.343   1.439   0.371
   59SOL    HW3  267   1.375   1.360   0.246
   59SOL    MW4  268   1.343   1.364   0.327
   60SOL     OW  269   4.382   2.315   0.312
   60SOL    HW2  270   4.401   2.397   0.357
   60SOL    HW3  271   4.416   2.327   0.224
   60SOL    MW4  272   4.389   2.327   0.307
   61SOL     OW  273   4.490   1.855   0.331
   61SOL    HW2  274   4.505   1.772   0.378
   61SOL    HW3  275   4.462   1.828   0.244
   61SOL    MW4  276   4.488   1.840   0.326
   62SOL     OW  277   0.824   2.034   0.664
   62SOL    HW2  278   0.769   2.106   0.695
   62SOL    HW3  279   0.804   1.962   0.724
   62SOL    MW4  280   0.814   2.034   0.676
   63SOL     OW  281   0.844   1.801   0.348
   63SOL    HW2  282   0.930   1.763   0.366
   63SOL    HW3  283   0.785   1.726   0.345
   63SOL    MW4  284   0.848   1.786   0.350
   64SOL     OW  285   0.921   2.139   0.323
   64SOL    HW2  286   0.934   2.233   0.334
   64SOL    HW3  287   1.008   2.101   0.331
   64SOL    MW4  288   0.934   2.146   0.326
   65SOL     OW  289   0.780   2.885   0.318
   65SOL    HW2  290   0.697   2.881   0.365
   65SOL    HW3  291   0.787   2.977   0.291
   65SOL    MW4  292   0.770   2.897   0.321
   66SOL     OW  293   0.536   2.871   0.455
   66SOL    HW2  294   0.506   2.961   0.466
   66SOL    HW3  295   0.586   2.852   0.534
   66SOL    MW4  296   0.539   2.880   0.467
   67SOL     OW  297   0.987   3.138   0.461
   67SOL    HW2  298   0.960   3.173   0.546
   67SOL    HW3  299   0.933   3.185   0.398
   67SOL    MW4  300   0.977   3.149   0.464
   68SOL     OW  301   2.052   2.995   0.323
   68SOL    HW2  302   2.119   3.059   0.343
   68SOL    HW3  303   2.061   2.979   0.229
   68SOL    MW4  304   2.062   3.001   0.313
   69SOL     OW  305   0.947   4.145   0.461
   69SOL    HW2  306   0.901   4.107   0.385
   69SOL    HW3  307   0.951   4.074   0.525
   69SOL    MW4  308   0.941   4.131   0.459
   70SOL     OW  309   0.497   4.002   0.413
   70SOL    HW2  310   0.486   4.014   0.507
   70SOL    HW3  311   0.535   4.085   0.383
   70SOL    MW4  312   0.501   4.015   0.421
   71SOL     OW  313   1.196   4.317   0.450
   71SOL    HW2  314   1.188   4.343   0.541
   71SOL    HW3  315   1.113   4.276   0.428
   71SOL    MW4  316   1.184   4.315   0.459
   72SOL     OW  317   1.160   0.391   0.447
   72SOL    HW2  318   1.120   0.310   0.415
   72SOL    HW3  319   1.250   0.387   0.416
   72SOL    MW4  320   1.167   0.380   0.439
   73SOL     OW  321   0.927   4.640   0.455
   73SOL    HW2  322   0.888   4.553   0.466
   73SOL    HW3  323   0.928   4.677   0.544
   73SOL    MW4  324   0.922   4.633   0.468
   74SOL     OW  325   1.486   0.322   0.254
   74SOL    HW2  326   1.580   0.305   0.265
   74SOL    HW3  327   1.473   0.407   0.297
   74SOL    MW4  328   1.497   0.331   0.261
   75SOL     OW  329   2.008   4.626   0.709
   75SOL    HW2  330   2.015   4.530   0.714
   75SOL    HW3  331   2.003   4.644   0.615
   75SOL    MW4  332   2.008   4.616   0.697
   76SOL     OW  333   1.061   0.159   0.304
   76SOL    HW2  334   1.020   0.095   0.361
   76SOL    HW3  335   0.992   0.185   0.243
   76SOL    MW4  336   1.046   0.154   0.304
   77SOL     OW  337   2.172   0.370   0.486
   77SOL    HW2  338   2.127   0.418   0.417
   77SOL    HW3  339   2.154   0.278   0.468
   77SOL    MW4  340   2.164   0.364   0.474
   78SOL     OW  341   2.446   1.033   0.345
   78SOL    HW2  342   2.431   1.052   0.252
   78SOL    HW3  343   2.361   0.999   0.376
   78SOL    MW4  344   2.432   1.031   0.337
   79SOL     OW  345   1.697   1.131   0.488
   79SOL    HW2  346   1.616   1.135   0.437
   79SOL    HW3  347   1.754   1.196   0.447
   79SOL    MW4  348   1.694   1.140   0.476
   80SOL     OW  349   1.733   0.855   0.485
   80SOL    HW2  350   1.786   0.833   0.562
   80SOL    HW3  351   1.720   0.950   0.491
   80SOL    MW4  352   1.739   0.865   0.496
   81SOL     OW  353   1.470   1.098   0.331
   81SOL    HW2  354   1.389   1.148   0.344
   81SOL    HW3  355   1.449   1.011   0.365
   81SOL    MW4  356   1.456   1.093   0.337
   82SOL     OW  357   1.850   1.892   0.417
   82SOL    HW2  358   1.930   1.849   0.387
   82SOL    HW3  359   1.881   1.968   0.465
   82SOL    MW4  360   1.865   1.896   0.419
   83SOL     OW  361   1.217   2.346   0.480
   83SOL    HW2  362   1.286   2.400   0.442
   83SOL    HW3  363   1.239   2.257   0.454
   83SOL    MW4  364   1.229   2.341   0.472
   84SOL     OW  365   1.392   2.546   0.373
   84SOL    HW2  366   1.317   2.604   0.356
   84SOL    HW3  367   1.465   2.605   0.392
   84SOL    MW4  368   1.392   2.561   0.373
   85SOL     OW  369   2.291   1.963   0.355
   85SOL    HW2  370   2.377   1.943   0.393
   85SOL    HW3  371   2.293   2.058   0.341
   85SOL    MW4  372   2.303   1.973   0.358
   86SOL     OW  373   1.491   2.290   0.398
   86SOL    HW2  374   1.582   2.296   0.427
   86SOL    HW3  375   1.472   2.374   0.356
   86SOL    MW4  376   1.500   2.302   0.396
   87SOL     OW  377   0.963   1.506   0.528
   87SOL    HW2  378   0.922   1.508   0.614
   87SOL    HW3  379   1.009   1.589   0.522
   87SOL    MW4  380   0.964   1.517   0.539
   88SOL     OW  381   1.161   3.362   0.466
   88SOL    HW2  382   1.253   3.383   0.448
   88SOL    HW3  383   1.155   3.268   0.452
   88SOL    MW4  384   1.173   3.353   0.462
   89SOL     OW  385   1.953   2.151   0.515
   89SOL    HW2  386   1.977   2.099   0.592
   89SOL    HW3  387   2.037   2.165   0.469
   89SOL    MW4  388   1.968   2.146   0.519
   90SOL     OW  389   2.006   0.517   0.301
   90SOL    HW2  390   2.021   0.517   0.206
   90SOL    HW3  391   1.914   0.494   0.311
   90SOL    MW4  392   1.996   0.514   0.290
   91SOL     OW  393   1.083   3.861   0.448
   91SOL    HW2  394   1.070   3.766   0.453
   91SOL    HW3  395   1.039   3.895   0.526
   91SOL    MW4  396   1.076   3.853   0.459
   92SOL     OW  397   1.863   2.568   0.374
   92SOL    HW2  398   1.781   2.613   0.394
   92SOL    HW3  399   1.931   2.629   0.401
   92SOL    MW4  400   1.861   2.582   0.380
   93SOL     OW  401   1.349   3.812   0.461
   93SOL    HW2  402   1.255   3.828   0.463
   93SOL    HW3  403   1.388   3.899   0.457
   93SOL    MW4  404   1.342   3.825   0.461
   94SOL     OW  405   1.624   2.719   0.438
   94SOL    HW2  406   1.625   2.811   0.412
   94SOL    HW3  407   1.600   2.720   0.530
   94SOL    MW4  408   1.621   2.731   0.447
   95SOL     OW  409   2.203   4.002   0.470
   95SOL    HW2  410   2.151   3.925   0.451
   95SOL    HW3  411   2.288   3.984   0.429
   95SOL    MW4  412   2.208   3.990   0.462
   96SOL     OW  413   0.899   3.940   0.244
   96SOL    HW2  414   0.977   3.905   0.289
   96SOL    HW3  415   0.933   3.977   0.163
   96SOL    MW4  416   0.914   3.941   0.240
   97SOL     OW  417   1.867   4.400   0.353
   97SOL    HW2  418   1.927   4.340   0.397
   97SOL    HW3  419   1.780   4.361   0.367
   97SOL    MW4  420   1.863   4.387   0.361
   98SOL     OW  421   2.212   0.117   0.806
   98SOL    HW2  422   2.156   0.040   0.795
   98SOL    HW3  423   2.299   0.082   0.820
   98SOL    MW4  424   2.216   0.102   0.807
   99SOL     OW  425   2.601   4.460   0.286
   99SOL    HW2  426   2.636   4.434   0.371
   99SOL    HW3  427   2.628   4.551   0.275
   99SOL    MW4  428   2.609   4.468   0.295
  100SOL     OW  429   1.407   4.481   0.373
  100SOL    HW2  430   1.329   4.428   0.388
  100SOL    HW3  431   1.375   4.559   0.328
  100SOL    MW4  432   1.393   4.484   0.369
  101SOL     OW  433   2.464   0.334   0.504
  101SOL    HW2  434   2.373   0.354   0.484
  101SOL    HW3  435   2.514   0.395   0.451
  101SOL    MW4  436   2.459   0.345   0.495
  102SOL     OW  437   1.602   1.751   0.394
  102SOL    HW2  438   1.689   1.792   0.386
  102SOL    HW3  439   1.621   1.658   0.406
  102SOL    MW4  440   1.616   1.744   0.395
  103SOL     OW  441   2.113   1.244   0.455
  103SOL    HW2  442   2.036   1.254   0.400
  103SOL    HW3  443   2.154   1.331   0.455
  103SOL    MW4  444   2.108   1.257   0.448
  104SOL     OW  445   2.553   1.264   0.512
  104SOL    HW2  446   2.649   1.270   0.506
  104SOL    HW3  447   2.531   1.186   0.460
  104SOL    MW4  448   2.563   1.254   0.504
  105SOL     OW  449   2.693   1.683   0.489
  105SOL    HW2  450   2.765   1.627   0.462
  105SOL    HW3  451   2.701   1.689   0.584
  105SOL    MW4  452   2.703   1.676   0.498
  106SOL     OW  453   1.632   1.459   0.427
  106SOL    HW2  454   1.550   1.412   0.415
  106SOL    HW3  455   1.635   1.479   0.521
  106SOL    MW4  456   1.622   1.455   0.438
  107SOL     OW  457   1.363   1.615   0.464
  107SOL    HW2  458   1.431   1.681   0.452
  107SOL    HW3  459   1.341   1.619   0.557
  107SOL    MW4  460   1.369   1.624   0.475
  108SOL     OW  461   2.162   2.290   0.332
  108SOL    HW2  462   2.099   2.318   0.266
  108SOL    HW3  463   2.193   2.371   0.372
  108SOL    MW4  464   2.158   2.304   0.328
  109SOL     OW  465   1.817   3.005   0.494
  109SOL    HW2  466   1.887   2.991   0.430
  109SOL    HW3  467   1.860   2.995   0.579
  109SOL    MW4  468   1.832   3.002   0.497
  110SOL     OW  469   0.986   2.875   0.529
  110SOL    HW2  470   0.893   2.860   0.509
  110SOL    HW3  471   1.003   2.963   0.497
  110SOL    MW4  472   0.976   2.884   0.522
  111SOL     OW  473   1.622   3.183   0.471
  111SOL    HW2  474   1.693   3.118   0.464
  111SOL    HW3  475   1.543   3.130   0.480
  111SOL    MW4  476   1.621   3.167   0.471
  112SOL     OW  477   1.102   1.739   0.488
  112SOL    HW2  478   1.116   1.798   0.562
  112SOL    HW3  479   1.189   1.712   0.462
  112SOL    MW4  480   1.115   1.743   0.495
  113SOL     OW  481   3.911   1.531   0.356
  113SOL    HW2  482   3.849   1.594   0.319
  113SOL    HW3  483   3.856   1.463   0.395
  113SOL    MW4  484   3.895   1.531   0.356
  114SOL     OW  485   1.750   2.316   0.475
  114SOL    HW2  486   1.813   2.246   0.493
  114SOL    HW3  487   1.801   2.384   0.430
  114SOL    MW4  488   1.765   2.316   0.471
  115SOL     OW  489   1.441   1.987   0.446
  115SOL    HW2  490   1.464   2.057   0.384
  115SOL    HW3  491   1.494   1.912   0.418
  115SOL    MW4  492   1.451   1.986   0.434
  116SOL     OW  493   1.444   3.412   0.511
  116SOL    HW2  494   1.500   3.345   0.471
  116SOL    HW3  495   1.492   3.494   0.497
  116SOL    MW4  496   1.458   3.414   0.504
  117SOL     OW  497   2.424   3.393   0.320
  117SOL    HW2  498   2.502   3.338   0.318
  117SOL    HW3  499   2.356   3.336   0.356
  117SOL    MW4  500   2.425   3.378   0.325
  118SOL     OW  501   1.622   4.294   0.428
  118SOL    HW2  502   1.650   4.341   0.507
  118SOL    HW3  503   1.555   4.350   0.389
  118SOL    MW4  504   1.617   4.308   0.433
  119SOL     OW  505   1.573   3.674   0.503
  119SOL    HW2  506   1.489   3.715   0.482
  119SOL    HW3  507   1.639   3.737   0.475
  119SOL    MW4  508   1.571   3.688   0.497
  120SOL     OW  509   1.338   0.090   0.322
  120SOL    HW2  510   1.245   0.115   0.319
  120SOL    HW3  511   1.383   0.162   0.277
  120SOL    MW4  512   1.331   0.103   0.316
  121SOL     OW  513   1.513   0.042   0.548
  121SOL    HW2  514   1.461   0.080   0.477
  121SOL    HW3  515   1.512  -0.052   0.530
  121SOL    MW4  516   1.506   0.035   0.536
  122SOL     OW  517   2.449   4.592   0.581
  122SOL    HW2  518   2.393   4.662   0.546
  122SOL    HW3  519   2.439   4.598   0.676
  122SOL    MW4  520   2.441   4.602   0.589
  123SOL     OW  521   2.217   0.095   0.501
  123SOL    HW2  522   2.142   0.053   0.458
  123SOL    HW3  523   2.189   0.107   0.591
  123SOL    MW4  524   2.203   0.091   0.507
  124SOL     OW  525   2.463   1.530   0.464
  124SOL    HW2  526   2.493   1.439   0.466
  124SOL    HW3  527   2.544   1.582   0.464
  124SOL    MW4  528   2.478   1.525   0.464
  125SOL     OW  529   3.047   0.673   0.544
  125SOL    HW2  530   3.134   0.712   0.555
  125SOL    HW3  531   2.990   0.746   0.523
  125SOL    MW4  532   3.051   0.688   0.543
  126SOL     OW  533   2.208   0.970   0.466
  126SOL    HW2  534   2.185   1.063   0.464
  126SOL    HW3  535   2.131   0.925   0.432
  126SOL    MW4  536   2.195   0.976   0.461
  127SOL     OW  537   2.833   1.249   0.494
  127SOL    HW2  538   2.906   1.196   0.461
  127SOL    HW3  539   2.860   1.274   0.582
  127SOL    MW4  540   2.846   1.246   0.501
  128SOL     OW  541   2.906   1.518   0.421
  128SOL    HW2  542   2.904   1.501   0.327
  128SOL    HW3  543   2.891   1.432   0.461
  128SOL    MW4  544   2.903   1.504   0.414
  129SOL     OW  545   3.231   2.083   0.421
  129SOL    HW2  546   3.192   2.034   0.494
  129SOL    HW3  547   3.305   2.030   0.393
  129SOL    MW4  548   3.236   2.070   0.427
  130SOL     OW  549   2.931   4.595   0.411
  130SOL    HW2  550   2.995   4.656   0.448
  130SOL    HW3  551   2.978   4.513   0.403
  130SOL    MW4  552   2.946   4.592   0.415
  131SOL     OW  553   2.095   1.791   0.308
  131SOL    HW2  554   2.119   1.712   0.261
  131SOL    HW3  555   2.176   1.842   0.312
  131SOL    MW4  556   2.109   1.788   0.302
  132SOL     OW  557   1.591   1.512   0.696
  132SOL    HW2  558   1.655   1.559   0.750
  132SOL    HW3  559   1.507   1.554   0.717
  132SOL    MW4  560   1.588   1.524   0.706
  133SOL     OW  561   2.560   1.951   0.450
  133SOL    HW2  562   2.603   1.867   0.434
  133SOL    HW3  563   2.627   2.016   0.429
  133SOL    MW4  564   2.575   1.948   0.445
  134SOL     OW  565   2.752   2.176   0.429
  134SOL    HW2  566   2.828   2.190   0.373
  134SOL    HW3  567   2.789   2.153   0.514
  134SOL    MW4  568   2.767   2.175   0.433
  135SOL     OW  569   2.498   2.619   0.344
  135SOL    HW2  570   2.550   2.548   0.383
  135SOL    HW3  571   2.408   2.602   0.373
  135SOL    MW4  572   2.493   2.607   0.353
  136SOL     OW  573   1.381   3.016   0.502
  136SOL    HW2  574   1.399   2.952   0.571
  136SOL    HW3  575   1.370   2.964   0.422
  136SOL    MW4  576   1.382   3.001   0.501
  137SOL     OW  577   1.157   2.699   0.374
  137SOL    HW2  578   1.123   2.765   0.434
  137SOL    HW3  579   1.083   2.680   0.315
  137SOL    MW4  580   1.143   2.705   0.374
  138SOL     OW  581   2.041   3.769   0.424
  138SOL    HW2  582   2.083   3.714   0.358
  138SOL    HW3  583   2.029   3.711   0.499
  138SOL    MW4  584   2.045   3.754   0.425
  139SOL     OW  585   2.476   3.957   0.382
  139SOL    HW2  586   2.498   3.868   0.356
  139SOL    HW3  587   2.488   4.009   0.303
  139SOL    MW4  588   2.481   3.953   0.368
  140SOL     OW  589   1.763   3.879   0.441
  140SOL    HW2  590   1.768   3.953   0.381
  140SOL    HW3  591   1.847   3.835   0.430
  140SOL    MW4  592   1.775   3.883   0.431
  141SOL     OW  593   2.206   3.548   0.240
  141SOL    HW2  594   2.206   3.514   0.150
  141SOL    HW3  595   2.268   3.492   0.286
  141SOL    MW4  596   2.214   3.536   0.234
  142SOL     OW  597   2.364   4.377   0.424
  142SOL    HW2  598   2.437   4.402   0.367
  142SOL    HW3  599   2.365   4.443   0.493
  142SOL    MW4  600   2.374   4.389   0.425
  143SOL     OW  601   2.108   4.266   0.483
  143SOL    HW2  602   2.124   4.171   0.476
  143SOL    HW3  603   2.191   4.305   0.456
  143SOL    MW4  604   2.121   4.258   0.478
  144SOL     OW  605   3.119   0.111   0.514
  144SOL    HW2  606   3.045   0.171   0.515
  144SOL    HW3  607   3.133   0.089   0.607
  144SOL    MW4  608   3.111   0.116   0.527
  145SOL     OW  609   2.528   3.680   0.409
  145SOL    HW2  610   2.508   3.646   0.496
  145SOL    HW3  611   2.515   3.606   0.350
  145SOL    MW4  612   2.524   3.666   0.412
  146SOL     OW  613   2.557   4.208   0.523
  146SOL    HW2  614   2.478   4.250   0.488
  146SOL    HW3  615   2.560   4.122   0.481
  146SOL    MW4  616   2.547   4.203   0.513
  147SOL     OW  617   2.679   0.174   0.518
  147SOL    HW2  618   2.607   0.231   0.488
  147SOL    HW3  619   2.756   0.231   0.515
  147SOL    MW4  620   2.679   0.189   0.514
  148SOL     OW  621   1.738   0.439   0.332
  148SOL    HW2  622   1.739   0.360   0.386
  148SOL    HW3  623   1.669   0.493   0.371
  148SOL    MW4  624   1.729   0.436   0.345
  149SOL     OW  625   3.155   0.497   0.350
  149SOL    HW2  626   3.248   0.480   0.336
  149SOL    HW3  627   3.153   0.577   0.403
  149SOL    MW4  628   3.167   0.506   0.355
  150SOL     OW  629   2.181   1.515   0.483
  150SOL    HW2  630   2.148   1.598   0.449
  150SOL    HW3  631   2.274   1.516   0.463
  150SOL    MW4  632   2.189   1.526   0.476
  151SOL     OW  633   2.633   0.528   0.412
  151SOL    HW2  634   2.616   0.621   0.398
  151SOL    HW3  635   2.714   0.511   0.365
  151SOL    MW4  636   2.641   0.538   0.404
  152SOL     OW  637   3.156   1.666   0.479
  152SOL    HW2  638   3.087   1.600   0.472
  152SOL    HW3  639   3.109   1.750   0.476
  152SOL    MW4  640   3.140   1.668   0.478
  153SOL     OW  641   3.508   1.006   0.516
  153SOL    HW2  642   3.586   1.022   0.463
  153SOL    HW3  643   3.541   0.954   0.591
  153SOL    MW4  644   3.523   1.001   0.519
  154SOL     OW  645   3.782   1.977   0.348
  154SOL    HW2  646   3.818   2.062   0.322
  154SOL    HW3  647   3.795   1.973   0.443
  154SOL    MW4  648   3.789   1.987   0.357
  155SOL     OW  649   2.917   0.308   0.515
  155SOL    HW2  650   2.941   0.354   0.434
  155SOL    HW3  651   2.917   0.376   0.582
  155SOL    MW4  652   2.920   0.323   0.513
  156SOL     OW  653   3.088   1.932   0.591
  156SOL    HW2  654   3.021   2.000   0.591
  156SOL    HW3  655   3.111   1.922   0.683
  156SOL    MW4  656   3.082   1.940   0.603
  157SOL     OW  657   2.710   2.459   0.446
  157SOL    HW2  658   2.787   2.490   0.398
  157SOL    HW3  659   2.706   2.365   0.429
  157SOL    MW4  660   2.720   2.451   0.438
  158SOL     OW  661   3.007   2.241   0.297
  158SOL    HW2  662   3.029   2.239   0.204
  158SOL    HW3  663   3.078   2.193   0.340
  158SOL    MW4  664   3.019   2.235   0.290
  159SOL     OW  665   2.261   2.543   0.462
  159SOL    HW2  666   2.267   2.501   0.548
  159SOL    HW3  667   2.190   2.607   0.471
  159SOL    MW4  668   2.253   2.546   0.474
  160SOL     OW  669   2.619   2.802   0.497
  160SOL    HW2  670   2.579   2.736   0.440
  160SOL    HW3  671   2.568   2.797   0.578
  160SOL    MW4  672   2.607   2.792   0.500
  161SOL     OW  673   3.161   3.172   0.443
  161SOL    HW2  674   3.159   3.078   0.423
  161SOL    HW3  675   3.124   3.179   0.531
  161SOL    MW4  676   3.156   3.160   0.452
  162SOL     OW  677   3.430   3.249   0.530
  162SOL    HW2  678   3.431   3.177   0.593
  162SOL    HW3  679   3.351   3.235   0.478
  162SOL    MW4  680   3.420   3.238   0.532
  163SOL     OW  681   2.270   3.184   0.404
  163SOL    HW2  682   2.345   3.126   0.416
  163SOL    HW3  683   2.245   3.208   0.493
  163SOL    MW4  684   2.276   3.179   0.417
  164SOL     OW  685   1.420   4.100   0.477
  164SOL    HW2  686   1.484   4.169   0.462
  164SOL    HW3  687   1.335   4.145   0.475
  164SOL    MW4  688   1.417   4.115   0.475
  165SOL     OW  689   3.360   4.104   0.373
  165SOL    HW2  690   3.278   4.079   0.330
  165SOL    HW3  691   3.358   4.058   0.457
  165SOL    MW4  692   3.349   4.095   0.379
  166SOL     OW  693   2.962   3.370   0.368
  166SOL    HW2  694   2.873   3.335   0.364
  166SOL    HW3  695   3.018   3.293   0.372
  166SOL    MW4  696   2.957   3.355   0.368
  167SOL     OW  697   2.678   3.290   0.385
  167SOL    HW2  698   2.677   3.204   0.344
  167SOL    HW3  699   2.685   3.272   0.479
  167SOL    MW4  700   2.679   3.277   0.392
  168SOL     OW  701   3.719   4.195   0.661
  168SOL    HW2  702   3.772   4.116   0.654
  168SOL    HW3  703   3.680   4.205   0.574
  168SOL    MW4  704   3.721   4.186   0.648
  169SOL     OW  705   3.093   4.121   0.253
  169SOL    HW2  706   3.102   4.216   0.264
  169SOL    HW3  707   3.000   4.104   0.272
  169SOL    MW4  708   3.082   4.132   0.257
  170SOL     OW  709   3.349   0.255   0.497
  170SOL    HW2  710   3.267   0.209   0.480
  170SOL    HW3  711   3.415   0.186   0.496
  170SOL    MW4  712   3.347   0.240   0.495
  171SOL     OW  713   2.713   0.041   0.264
  171SOL    HW2  714   2.790  -0.008   0.292
  171SOL    HW3  715   2.691   0.096   0.339
  171SOL    MW4  716   2.720   0.042   0.278
  172SOL     OW  717   2.827   4.046   0.311
  172SOL    HW2  718   2.778   3.972   0.348
  172SOL    HW3  719   2.761   4.097   0.264
  172SOL    MW4  720   2.812   4.043   0.310
  173SOL     OW  721   2.818   0.249   0.114
  173SOL    HW2  722   2.807   0.222   0.023
  173SOL    HW3  723   2.774   0.181   0.165
  173SOL    MW4  724   2.811   0.237   0.109
  174SOL     OW  725   2.889   0.887   0.478
  174SOL    HW2  726   2.944   0.958   0.446
  174SOL    HW3  727   2.856   0.918   0.562
  174SOL    MW4  728   2.892   0.900   0.485
  175SOL     OW  729   3.481   1.449   0.428
  175SOL    HW2  730   3.503   1.476   0.517
  175SOL    HW3  731   3.416   1.380   0.440
  175SOL    MW4  732   3.476   1.443   0.441
  176SOL     OW  733   3.532   0.673   0.473
  176SOL    HW2  734   3.505   0.597   0.422
  176SOL    HW3  735   3.454   0.697   0.524
  176SOL    MW4  736   3.518   0.666   0.473
  177SOL     OW  737   3.314   0.805   0.579
  177SOL    HW2  738   3.251   0.854   0.632
  177SOL    HW3  739   3.377   0.871   0.549
  177SOL    MW4  740   3.314   0.820   0.582
  178SOL     OW  741   3.583   1.829   0.639
  178SOL    HW2  742   3.544   1.880   0.568
  178SOL    HW3  743   3.568   1.883   0.717
  178SOL    MW4  744   3.576   1.843   0.640
  179SOL     OW  745   3.500   1.947   0.414
  179SOL    HW2  746   3.471   1.857   0.402
  179SOL    HW3  747   3.580   1.953   0.363
  179SOL    MW4  748   3.506   1.936   0.405
  180SOL     OW  749   3.310   1.199   0.481
  180SOL    HW2  750   3.354   1.118   0.455
  180SOL    HW3  751   3.343   1.217   0.569
  180SOL    MW4  752   3.320   1.190   0.489
  181SOL     OW  753   3.705   1.704   0.290
  181SOL    HW2  754   3.727   1.797   0.278
  181SOL    HW3  755   3.611   1.703   0.307
  181SOL    MW4  756   3.696   1.716   0.291
  182SOL     OW  757   3.350   2.293   0.602
  182SOL    HW2  758   3.311   2.216   0.560
  182SOL    HW3  759   3.414   2.256   0.664
  182SOL    MW4  760   3.353   2.278   0.605
  183SOL     OW  761   3.529   2.692   0.588
  183SOL    HW2  762   3.575   2.668   0.668
  183SOL    HW3  763   3.499   2.609   0.551
  183SOL    MW4  764   3.531   2.678   0.593
  184SOL     OW  765   2.062   2.733   0.466
  184SOL    HW2  766   2.046   2.769   0.554
  184SOL    HW3  767   2.048   2.807   0.407
  184SOL    MW4  768   2.058   2.747   0.470
  185SOL     OW  769   3.224   2.654   0.279
  185SOL    HW2  770   3.145   2.600   0.283
  185SOL    HW3  771   3.296   2.594   0.294
  185SOL    MW4  772   3.223   2.639   0.281
  186SOL     OW  773   2.885   2.797   0.745
  186SOL    HW2  774   2.872   2.806   0.651
  186SOL    HW3  775   2.978   2.777   0.755
  186SOL    MW4  776   2.895   2.795   0.734
  187SOL     OW  777   2.616   0.808   0.411
  187SOL    HW2  778   2.703   0.844   0.427
  187SOL    HW3  779   2.564   0.882   0.379
  187SOL    MW4  780   2.620   0.822   0.409
  188SOL     OW  781   2.920   4.197   0.535
  188SOL    HW2  782   2.890   4.152   0.456
  188SOL    HW3  783   2.983   4.137   0.575
  188SOL    MW4  784   2.925   4.183   0.530
  189SOL     OW  785   3.308   3.683   0.487
  189SOL    HW2  786   3.329   3.658   0.397
  189SOL    HW3  787   3.328   3.605   0.539
  189SOL    MW4  788   3.313   3.669   0.482
  190SOL     OW  789   3.829   3.424   0.331
  190SOL    HW2  790   3.919   3.422   0.364
  190SOL    HW3  791   3.788   3.497   0.377
  190SOL    MW4  792   3.836   3.433   0.341
  191SOL     OW  793   3.763   3.278   0.694
  191SOL    HW2  794   3.858   3.283   0.705
  191SOL    HW3  795   3.750   3.245   0.605
  191SOL    MW4  796   3.774   3.274   0.684
  192SOL     OW  797   2.747   3.833   0.496
  192SOL    HW2  798   2.824   3.779   0.478
  192SOL    HW3  799   2.673   3.779   0.466
  192SOL    MW4  800   2.748   3.818   0.490
  193SOL     OW  801   2.514   3.042   0.445
  193SOL    HW2  802   2.539   3.085   0.527
  193SOL    HW3  803   2.552   2.955   0.451
  193SOL    MW4  804   2.522   3.036   0.456
  194SOL     OW  805   4.348   0.317   0.334
  194SOL    HW2  806   4.423   0.324   0.275
  194SOL    HW3  807   4.375   0.251   0.398
  194SOL    MW4  808   4.362   0.309   0.335
  195SOL     OW  809   4.004   0.130   0.562
  195SOL    HW2  810   3.928   0.180   0.531
  195SOL    HW3  811   4.064   0.129   0.487
  195SOL    MW4  812   4.002   0.137   0.548
  196SOL     OW  813   2.880   0.467   0.275
  196SOL    HW2  814   2.878   0.402   0.204
  196SOL    HW3  815   2.971   0.498   0.275
  196SOL    MW4  816   2.892   0.462   0.265
  197SOL     OW  817   3.446   0.453   0.329
  197SOL    HW2  818   3.419   0.370   0.368
  197SOL    HW3  819   3.522   0.430   0.276
  197SOL    MW4  820   3.453   0.439   0.327
  198SOL     OW  821   3.995   0.660   0.507
  198SOL    HW2  822   4.065   0.595   0.500
  198SOL    HW3  823   3.926   0.616   0.557
  198SOL    MW4  824   3.995   0.646   0.513
  199SOL     OW  825   4.372   0.886   0.388
  199SOL    HW2  826   4.284   0.883   0.427
  199SOL    HW3  827   4.357   0.881   0.294
  199SOL    MW4  828   4.358   0.885   0.381
  200SOL     OW  829   3.759   0.741   0.321
  200SOL    HW2  830   3.683   0.720   0.375
  200SOL    HW3  831   3.834   0.714   0.373
  200SOL    MW4  832   3.759   0.735   0.335
  201SOL     OW  833   3.980   1.110   0.481
  201SOL    HW2  834   4.026   1.179   0.433
  201SOL    HW3  835   3.953   1.152   0.562
  201SOL    MW4  836   3.983   1.124   0.485
  202SOL     OW  837   3.750   1.335   0.445
  202SOL    HW2  838   3.739   1.247   0.409
  202SOL    HW3  839   3.667   1.379   0.427
  202SOL    MW4  840   3.738   1.329   0.438
  203SOL     OW  841   3.404   1.707   0.344
  203SOL    HW2  842   3.319   1.715   0.387
  203SOL    HW3  843   3.435   1.619   0.369
  203SOL    MW4  844   3.397   1.696   0.353
  204SOL     OW  845   3.068   1.122   0.377
  204SOL    HW2  846   3.083   1.119   0.282
  204SOL    HW3  847   3.144   1.170   0.411
  204SOL    MW4  848   3.080   1.128   0.369
  205SOL     OW  849   3.742   2.430   0.371
  205SOL    HW2  850   3.795   2.379   0.310
  205SOL    HW3  851   3.744   2.380   0.452
  205SOL    MW4  852   3.749   2.416   0.373
  206SOL     OW  853   4.148   3.004   0.420
  206SOL    HW2  854   4.193   2.921   0.440
  206SOL    HW3  855   4.058   2.989   0.447
  206SOL    MW4  856   4.142   2.991   0.427
  207SOL     OW  857   2.998   2.544   0.396
  207SOL    HW2  858   3.053   2.543   0.474
  207SOL    HW3  859   3.005   2.455   0.360
  207SOL    MW4  860   3.006   2.532   0.401
  208SOL     OW  861   2.968   3.637   0.486
  208SOL    HW2  862   3.053   3.663   0.450
  208SOL    HW3  863   2.947   3.555   0.440
  208SOL    MW4  864   2.976   3.630   0.475
  209SOL     OW  865   3.177   2.894   0.438
  209SOL    HW2  866   3.209   2.830   0.375
  209SOL    HW3  867   3.083   2.878   0.444
  209SOL    MW4  868   3.169   2.884   0.431
  210SOL     OW  869   3.878   2.970   0.482
  210SOL    HW2  870   3.831   2.894   0.448
  210SOL    HW3  871   3.813   3.040   0.484
  210SOL    MW4  872   3.863   2.969   0.478
  211SOL     OW  873   3.784   2.698   0.463
  211SOL    HW2  874   3.781   2.612   0.422
  211SOL    HW3  875   3.699   2.708   0.506
  211SOL    MW4  876   3.773   2.688   0.463
  212SOL     OW  877   3.806   4.079   0.251
  212SOL    HW2  878   3.851   4.024   0.315
  212SOL    HW3  879   3.776   4.018   0.183
  212SOL    MW4  880   3.808   4.064   0.251
  213SOL     OW  881   3.460   2.485   0.408
  213SOL    HW2  882   3.425   2.411   0.458
  213SOL    HW3  883   3.550   2.460   0.387
  213SOL    MW4  884   3.467   2.472   0.412
  214SOL     OW  885   3.345   3.949   0.592
  214SOL    HW2  886   3.379   3.939   0.681
  214SOL    HW3  887   3.337   3.859   0.560
  214SOL    MW4  888   3.349   3.936   0.600
  215SOL     OW  889   4.249   4.113   0.438
  215SOL    HW2  890   4.207   4.087   0.520
  215SOL    HW3  891   4.181   4.161   0.390
  215SOL    MW4  892   4.234   4.116   0.443
  216SOL     OW  893   3.617   4.218   0.409
  216SOL    HW2  894   3.682   4.188   0.345
  216SOL    HW3  895   3.537   4.169   0.386
  216SOL    MW4  896   3.615   4.208   0.397
  217SOL     OW  897   3.668   4.489   0.492
  217SOL    HW2  898   3.643   4.414   0.438
  217SOL    HW3  899   3.764   4.487   0.495
  217SOL    MW4  900   3.678   4.479   0.486
  218SOL     OW  901   4.479   0.092   0.485
  218SOL    HW2  902   4.460   0.000   0.467
  218SOL    HW3  903   4.472   0.100   0.580
  218SOL    MW4  904   4.476   0.081   0.495
  219SOL     OW  905   4.144   0.887   0.528
  219SOL    HW2  906   4.087   0.811   0.521
  219SOL    HW3  907   4.088   0.962   0.508
  219SOL    MW4  908   4.129   0.887   0.524
  220SOL     OW  909   0.397   2.170   0.378
  220SOL    HW2  910   0.415   2.255   0.418
  220SOL    HW3  911   0.302   2.163   0.376
  220SOL    MW4  912   0.387   2.180   0.383
  221SOL     OW  913   4.247   0.522   0.498
  221SOL    HW2  914   4.272   0.455   0.434
  221SOL    HW3  915   4.326   0.574   0.510
  221SOL    MW4  916   4.261   0.520   0.491
  222SOL     OW  917   4.100   1.328   0.353
  222SOL    HW2  918   4.175   1.357   0.404
  222SOL    HW3  919   4.043   1.405   0.349
  222SOL    MW4  920   4.102   1.342   0.359
  223SOL     OW  921   3.583   0.097   0.474
  223SOL    HW2  922   3.619   0.010   0.461
  223SOL    HW3  923   3.658   0.156   0.465
  223SOL    MW4  924   3.598   0.093   0.471
  224SOL     OW  925   3.738   1.055   0.367
  224SOL    HW2  926   3.818   1.066   0.419
  224SOL    HW3  927   3.751   0.972   0.322
  224SOL    MW4  928   3.750   1.046   0.368
  225SOL     OW  929   0.024   1.114   0.469
  225SOL    HW2  930  -0.050   1.167   0.500
  225SOL    HW3  931  -0.018   1.033   0.439
  225SOL    MW4  932   0.009   1.110   0.469
  226SOL     OW  933   4.151   2.203   0.342
  226SOL    HW2  934   4.131   2.232   0.431
  226SOL    HW3  935   4.241   2.233   0.326
  226SOL    MW4  936   4.160   2.211   0.351
  227SOL     OW  937   0.291   1.544   0.480
  227SOL    HW2  938   0.272   1.454   0.452
  227SOL    HW3  939   0.206   1.585   0.489
  227SOL    MW4  940   0.278   1.537   0.477
  228SOL     OW  941   0.936   2.398   0.439
  228SOL    HW2  942   1.022   2.373   0.473
  228SOL    HW3  943   0.953   2.471   0.380
  228SOL    MW4  944   0.949   2.404   0.435
  229SOL     OW  945   4.260   1.956   0.481
  229SOL    HW2  946   4.339   1.919   0.442
  229SOL    HW3  947   4.231   2.022   0.418
  229SOL    MW4  948   4.266   1.959   0.467
  230SOL     OW  949   4.450   2.552   0.456
  230SOL    HW2  950   4.518   2.620   0.449
  230SOL    HW3  951   4.458   2.520   0.546
  230SOL    MW4  952   4.460   2.557   0.467
  231SOL     OW  953   4.255   3.654   0.424
  231SOL    HW2  954   4.338   3.621   0.389
  231SOL    HW3  955   4.199   3.576   0.429
  231SOL    MW4  956   4.259   3.639   0.420
  232SOL     OW  957   4.240   2.750   0.481
  232SOL    HW2  958   4.173   2.687   0.505
  232SOL    HW3  959   4.318   2.697   0.463
  232SOL    MW4  960   4.242   2.735   0.482
  233SOL     OW  961   0.265   3.868   0.345
  233SOL    HW2  962   0.195   3.931   0.361
  233SOL    HW3  963   0.345   3.920   0.350
  233SOL    MW4  964   0.266   3.884   0.348
  234SOL     OW  965   0.014   3.550   0.330
  234SOL    HW2  966   0.052   3.566   0.243
  234SOL    HW3  967   0.086   3.566   0.391
  234SOL    MW4  968   0.028   3.554   0.327
  235SOL     OW  969   0.016   3.271   0.425
  235SOL    HW2  970  -0.074   3.259   0.396
  235SOL    HW3  971   0.040   3.358   0.393
  235SOL    MW4  972   0.007   3.281   0.417
  236SOL     OW  973   3.913   3.877   0.401
  236SOL    HW2  974   3.895   3.784   0.417
  236SOL    HW3  975   4.001   3.878   0.363
  236SOL    MW4  976   3.923   3.865   0.398
  237SOL     OW  977   3.696   3.184   0.445
  237SOL    HW2  978   3.723   3.252   0.383
  237SOL    HW3  979   3.601   3.188   0.445
  237SOL    MW4  980   3.687   3.194   0.437
  238SOL     OW  981   0.033   4.066   0.431
  238SOL    HW2  982   0.033   4.067   0.526
  238SOL    HW3  983  -0.059   4.082   0.406
  238SOL    MW4  984   0.021   4.068   0.440
  239SOL     OW  985   4.134   4.517   0.291
  239SOL    HW2  986   4.070   4.521   0.361
  239SOL    HW3  987   4.118   4.432   0.249
  239SOL    MW4  988   4.123   4.506   0.294
  240SOL     OW  989   4.059   4.318   0.637
  240SOL    HW2  990   3.998   4.338   0.708
  240SOL    HW3  991   4.141   4.360   0.663
  240SOL    MW4  992   4.062   4.326   0.650
  241SOL     OW  993   3.956   4.525   0.500
  241SOL    HW2  994   3.987   4.608   0.537
  241SOL    HW3  995   3.995   4.458   0.556
  241SOL    MW4  996   3.965   4.527   0.512
  242SOL     OW  997   0.204   4.652   0.807
  242SOL    HW2  998   0.190   4.567   0.766
  242SOL    HW3  999   0.123   4.701   0.789
  242SOL    MW4 1000   0.191   4.648   0.799
  243SOL     OW 1001   4.472   0.143   0.774
  243SOL    HW2 1002   4.397   0.101   0.814
  243SOL    HW3 1003   4.471   0.233   0.808
  243SOL    MW4 1004   4.462   0.150   0.784
  244SOL     OW 1005   0.008   0.414   0.869
  244SOL    HW2 1006   0.013   0.411   0.964
  244SOL    HW3 1007   0.094   0.447   0.841
  244SOL    MW4 1008   0.020   0.418   0.878
  245SOL     OW 1009   0.265   0.443   0.783
  245SOL    HW2 1010   0.342   0.397   0.817
  245SOL    HW3 1011   0.289   0.535   0.786
  245SOL    MW4 1012   0.278   0.449   0.788
  246SOL     OW 1013   0.245   0.720   0.801
  246SOL    HW2 1014   0.250   0.705   0.896
  246SOL    HW3 1015   0.156   0.751   0.787
  246SOL    MW4 1016   0.234   0.722   0.812
  247SOL     OW 1017   4.481   0.845   0.756
  247SOL    HW2 1018   4.409   0.808   0.807
  247SOL    HW3 1019   4.483   0.793   0.676
  247SOL    MW4 1020   4.471   0.833   0.752
  248SOL     OW 1021   4.488   1.109   0.839
  248SOL    HW2 1022   4.514   1.107   0.931
  248SOL    HW3 1023   4.485   1.018   0.812
  248SOL    MW4 1024   4.491   1.097   0.847
  249SOL     OW 1025   0.257   1.228   0.728
  249SOL    HW2 1026   0.187   1.181   0.774
  249SOL    HW3 1027   0.236   1.219   0.635
  249SOL    MW4 1028   0.245   1.220   0.722
  250SOL     OW 1029   0.239   1.492   0.848
  250SOL    HW2 1030   0.304   1.546   0.802
  250SOL    HW3 1031   0.241   1.408   0.803
  250SOL    MW4 1032   0.248   1.488   0.836
  251SOL     OW 1033   0.008   1.657   0.784
  251SOL    HW2 1034  -0.080   1.620   0.796
  251SOL    HW3 1035   0.067   1.593   0.824
  251SOL    MW4 1036   0.004   1.643   0.791
  252SOL     OW 1037   4.475   1.917   0.861
  252SOL    HW2 1038   4.517   1.961   0.787
  252SOL    HW3 1039   4.494   1.824   0.847
  252SOL    MW4 1040   4.483   1.911   0.849
  253SOL     OW 1041   0.187   2.054   0.678
  253SOL    HW2 1042   0.203   2.126   0.739
  253SOL    HW3 1043   0.150   2.095   0.600
  253SOL    MW4 1044   0.185   2.069   0.676
  254SOL     OW 1045   0.198   2.290   0.811
  254SOL    HW2 1046   0.211   2.294   0.906
  254SOL    HW3 1047   0.267   2.345   0.775
  254SOL    MW4 1048   0.208   2.298   0.819
  255SOL     OW 1049   4.443   2.428   0.714
  255SOL    HW2 1050   4.359   2.385   0.731
  255SOL    HW3 1051   4.509   2.366   0.747
  255SOL    MW4 1052   4.441   2.414   0.721
  256SOL     OW 1053   4.481   2.693   0.827
  256SOL    HW2 1054   4.479   2.687   0.922
  256SOL    HW3 1055   4.473   2.603   0.796
  256SOL    MW4 1056   4.480   2.681   0.836
  257SOL     OW 1057   0.223   2.817   0.715
  257SOL    HW2 1058   0.142   2.779   0.747
  257SOL    HW3 1059   0.215   2.816   0.619
  257SOL    MW4 1060   0.211   2.812   0.706
  258SOL     OW 1061   0.222   3.082   0.807
  258SOL    HW2 1062   0.223   3.081   0.903
  258SOL    HW3 1063   0.219   2.990   0.782
  258SOL    MW4 1064   0.222   3.070   0.816
  259SOL     OW 1065   4.488   3.233   0.710
  259SOL    HW2 1066   4.560   3.181   0.749
  259SOL    HW3 1067   4.507   3.234   0.617
  259SOL    MW4 1068   4.500   3.226   0.703
  260SOL     OW 1069   0.038   3.483   0.792
  260SOL    HW2 1070  -0.025   3.542   0.750
  260SOL    HW3 1071   0.019   3.398   0.754
  260SOL    MW4 1072   0.027   3.480   0.781
  261SOL     OW 1073   0.269   3.612   0.752
  261SOL    HW2 1074   0.189   3.566   0.776
  261SOL    HW3 1075   0.279   3.596   0.658
  261SOL    MW4 1076   0.260   3.604   0.743
  262SOL     OW 1077   0.238   3.889   0.794
  262SOL    HW2 1078   0.238   3.897   0.890
  262SOL    HW3 1079   0.250   3.795   0.778
  262SOL    MW4 1080   0.240   3.878   0.805
  263SOL     OW 1081   0.041   4.049   0.703
  263SOL    HW2 1082  -0.036   3.995   0.721
  263SOL    HW3 1083   0.115   3.995   0.729
  263SOL    MW4 1084   0.041   4.035   0.709
  264SOL     OW 1085   4.485   4.294   0.833
  264SOL    HW2 1086   4.473   4.282   0.927
  264SOL    HW3 1087   4.483   4.205   0.797
  264SOL    MW4 1088   4.483   4.280   0.840
  265SOL     OW 1089   0.211   4.390   0.699
  265SOL    HW2 1090   0.141   4.359   0.757
  265SOL    HW3 1091   0.212   4.328   0.627
  265SOL    MW4 1092   0.202   4.378   0.697
  266SOL     OW 1093   0.687   4.626   0.824
  266SOL    HW2 1094   0.685   4.628   0.920
  266SOL    HW3 1095   0.604   4.664   0.798
  266SOL    MW4 1096   0.676   4.631   0.833
  267SOL     OW 1097   0.462   0.072   0.717
  267SOL    HW2 1098   0.373   0.052   0.745
  267SOL    HW3 1099   0.462   0.054   0.623
  267SOL    MW4 1100   0.450   0.067   0.708
  268SOL     OW 1101   0.518   0.320   0.856
  268SOL    HW2 1102   0.586   0.368   0.810
  268SOL    HW3 1103   0.493   0.250   0.796
  268SOL    MW4 1104   0.524   0.317   0.842
  269SOL     OW 1105   0.707   0.495   0.730
  269SOL    HW2 1106   0.793   0.465   0.759
  269SOL    HW3 1107   0.701   0.466   0.639
  269SOL    MW4 1108   0.718   0.487   0.722
  270SOL     OW 1109   0.698   0.752   0.821
  270SOL    HW2 1110   0.626   0.802   0.783
  270SOL    HW3 1111   0.693   0.667   0.777
  270SOL    MW4 1112   0.688   0.747   0.810
  271SOL     OW 1113   0.469   0.852   0.642
  271SOL    HW2 1114   0.475   0.938   0.682
  271SOL    HW3 1115   0.389   0.814   0.678
  271SOL    MW4 1116   0.459   0.858   0.652
  272SOL     OW 1117   0.488   1.108   0.817
  272SOL    HW2 1118   0.570   1.142   0.781
  272SOL    HW3 1119   0.419   1.156   0.770
  272SOL    MW4 1120   0.490   1.119   0.806
  273SOL     OW 1121   0.710   1.228   0.741
  273SOL    HW2 1122   0.678   1.309   0.781
  273SOL    HW3 1123   0.685   1.236   0.649
  273SOL    MW4 1124   0.702   1.240   0.734
  274SOL     OW 1125   0.638   1.482   0.832
  274SOL    HW2 1126   0.637   1.505   0.924
  274SOL    HW3 1127   0.563   1.528   0.794
  274SOL    MW4 1128   0.628   1.491   0.839
  275SOL     OW 1129   0.415   1.623   0.710
  275SOL    HW2 1130   0.404   1.718   0.705
  275SOL    HW3 1131   0.381   1.590   0.627
  275SOL    MW4 1132   0.409   1.631   0.699
  276SOL     OW 1133   0.426   1.901   0.690
  276SOL    HW2 1134   0.342   1.946   0.683
  276SOL    HW3 1135   0.470   1.917   0.606
  276SOL    MW4 1136   0.421   1.909   0.678
  277SOL     OW 1137   0.582   1.988   0.898
  277SOL    HW2 1138   0.536   1.987   0.982
  277SOL    HW3 1139   0.518   1.952   0.835
  277SOL    MW4 1140   0.567   1.983   0.900
  278SOL     OW 1141   0.657   2.239   0.750
  278SOL    HW2 1142   0.737   2.268   0.793
  278SOL    HW3 1143   0.617   2.178   0.812
  278SOL    MW4 1144   0.662   2.235   0.764
  279SOL     OW 1145   0.447   2.424   0.707
  279SOL    HW2 1146   0.530   2.383   0.733
  279SOL    HW3 1147   0.464   2.457   0.618
  279SOL    MW4 1148   0.460   2.423   0.698
  280SOL     OW 1149   0.468   2.695   0.805
  280SOL    HW2 1150   0.458   2.602   0.783
  280SOL    HW3 1151   0.389   2.736   0.771
  280SOL    MW4 1152   0.456   2.688   0.798
  281SOL     OW 1153   0.692   2.779   0.677
  281SOL    HW2 1154   0.757   2.741   0.737
  281SOL    HW3 1155   0.608   2.762   0.719
  281SOL    MW4 1156   0.690   2.771   0.690
  282SOL     OW 1157   0.698   3.018   0.811
  282SOL    HW2 1158   0.613   3.058   0.793
  282SOL    HW3 1159   0.698   2.938   0.759
  282SOL    MW4 1160   0.687   3.013   0.802
  283SOL     OW 1161   0.482   3.178   0.742
  283SOL    HW2 1162   0.489   3.273   0.757
  283SOL    HW3 1163   0.394   3.156   0.773
  283SOL    MW4 1164   0.471   3.188   0.748
  284SOL     OW 1165   0.493   3.493   0.860
  284SOL    HW2 1166   0.483   3.467   0.952
  284SOL    HW3 1167   0.408   3.530   0.837
  284SOL    MW4 1168   0.481   3.495   0.869
  285SOL     OW 1169   0.693   3.619   0.735
  285SOL    HW2 1170   0.630   3.569   0.787
  285SOL    HW3 1171   0.693   3.706   0.773
  285SOL    MW4 1172   0.685   3.624   0.747
  286SOL     OW 1173   0.699   3.879   0.820
  286SOL    HW2 1174   0.769   3.917   0.767
  286SOL    HW3 1175   0.619   3.918   0.785
  286SOL    MW4 1176   0.697   3.889   0.808
  287SOL     OW 1177   0.481   4.018   0.702
  287SOL    HW2 1178   0.453   4.107   0.727
  287SOL    HW3 1179   0.421   3.960   0.750
  287SOL    MW4 1180   0.469   4.022   0.712
  288SOL     OW 1181   0.448   4.268   0.814
  288SOL    HW2 1182   0.434   4.263   0.908
  288SOL    HW3 1183   0.378   4.325   0.782
  288SOL    MW4 1184   0.437   4.275   0.822
  289SOL     OW 1185   0.701   4.358   0.741
  289SOL    HW2 1186   0.613   4.327   0.757
  289SOL    HW3 1187   0.705   4.443   0.785
  289SOL    MW4 1188   0.690   4.365   0.749
  290SOL     OW 1189   1.124   4.595   0.827
  290SOL    HW2 1190   1.199   4.648   0.800
  290SOL    HW3 1191   1.049   4.653   0.816
  290SOL    MW4 1192   1.124   4.610   0.822
  291SOL     OW 1193   0.904   0.074   0.708
  291SOL    HW2 1194   0.898   0.168   0.728
  291SOL    HW3 1195   0.827   0.036   0.750
  291SOL    MW4 1196   0.893   0.082   0.716
  292SOL     OW 1197   0.919   0.353   0.822
  292SOL    HW2 1198   0.921   0.347   0.917
  292SOL    HW3 1199   1.008   0.378   0.797
  292SOL    MW4 1200   0.931   0.356   0.831
  293SOL     OW 1201   1.162   0.485   0.718
  293SOL    HW2 1202   1.238   0.445   0.760
  293SOL    HW3 1203   1.163   0.452   0.629
  293SOL    MW4 1204   1.172   0.476   0.712
  294SOL     OW 1205   1.164   0.742   0.817
  294SOL    HW2 1206   1.161   0.730   0.912
  294SOL    HW3 1207   1.167   0.653   0.782
  294SOL    MW4 1208   1.164   0.728   0.825
  295SOL     OW 1209   0.923   0.854   0.700
  295SOL    HW2 1210   0.994   0.817   0.752
  295SOL    HW3 1211   0.843   0.823   0.741
  295SOL    MW4 1212   0.922   0.845   0.712
  296SOL     OW 1213   0.911   1.091   0.862
  296SOL    HW2 1214   0.915   1.014   0.805
  296SOL    HW3 1215   0.843   1.146   0.824
  296SOL    MW4 1216   0.903   1.088   0.849
  297SOL     OW 1217   1.155   1.233   0.760
  297SOL    HW2 1218   1.085   1.184   0.803
  297SOL    HW3 1219   1.128   1.237   0.668
  297SOL    MW4 1220   1.142   1.227   0.753
  298SOL     OW 1221   1.135   1.501   0.877
  298SOL    HW2 1222   1.046   1.528   0.856
  298SOL    HW3 1223   1.152   1.427   0.818
  298SOL    MW4 1224   1.126   1.494   0.867
  299SOL     OW 1225   0.895   1.589   0.794
  299SOL    HW2 1226   0.892   1.681   0.822
  299SOL    HW3 1227   0.806   1.557   0.807
  299SOL    MW4 1228   0.883   1.597   0.800
  300SOL     OW 1229   0.821   1.839   0.872
  300SOL    HW2 1230   0.864   1.873   0.951
  300SOL    HW3 1231   0.730   1.865   0.881
  300SOL    MW4 1232   0.815   1.847   0.883
  301SOL     OW 1233   1.106   2.030   0.726
  301SOL    HW2 1234   1.106   2.097   0.794
  301SOL    HW3 1235   1.014   2.020   0.701
  301SOL    MW4 1236   1.094   2.038   0.731
  302SOL     OW 1237   1.113   2.254   0.898
  302SOL    HW2 1238   1.132   2.275   0.989
  302SOL    HW3 1239   1.176   2.306   0.848
  302SOL    MW4 1240   1.123   2.263   0.903
  303SOL     OW 1241   0.874   2.365   0.886
  303SOL    HW2 1242   0.961   2.325   0.885
  303SOL    HW3 1243   0.839   2.343   0.972
  303SOL    MW4 1244   0.881   2.357   0.897
  304SOL     OW 1245   0.864   2.652   0.867
  304SOL    HW2 1246   0.860   2.677   0.959
  304SOL    HW3 1247   0.857   2.556   0.867
  304SOL    MW4 1248   0.862   2.642   0.879
  305SOL     OW 1249   1.089   2.800   0.777
  305SOL    HW2 1250   1.022   2.755   0.828
  305SOL    HW3 1251   1.050   2.812   0.691
  305SOL    MW4 1252   1.075   2.796   0.773
  306SOL     OW 1253   1.187   3.064   0.778
  306SOL    HW2 1254   1.108   3.118   0.767
  306SOL    HW3 1255   1.155   2.974   0.776
  306SOL    MW4 1256   1.172   3.059   0.776
  307SOL     OW 1257   0.932   3.189   0.734
  307SOL    HW2 1258   0.908   3.276   0.765
  307SOL    HW3 1259   0.858   3.133   0.759
  307SOL    MW4 1260   0.919   3.193   0.741
  308SOL     OW 1261   0.875   3.442   0.815
  308SOL    HW2 1262   0.959   3.485   0.799
  308SOL    HW3 1263   0.810   3.508   0.793
  308SOL    MW4 1264   0.878   3.456   0.810
  309SOL     OW 1265   1.126   3.556   0.759
  309SOL    HW2 1266   1.211   3.524   0.787
  309SOL    HW3 1267   1.133   3.562   0.663
  309SOL    MW4 1268   1.138   3.552   0.750
  310SOL     OW 1269   1.159   3.822   0.815
  310SOL    HW2 1270   1.169   3.830   0.909
  310SOL    HW3 1271   1.161   3.727   0.798
  310SOL    MW4 1272   1.160   3.810   0.825
  311SOL     OW 1273   0.951   3.964   0.681
  311SOL    HW2 1274   0.945   4.039   0.740
  311SOL    HW3 1275   1.012   3.905   0.724
  311SOL    MW4 1276   0.958   3.966   0.694
  312SOL     OW 1277   0.924   4.208   0.818
  312SOL    HW2 1278   0.995   4.257   0.777
  312SOL    HW3 1279   0.844   4.247   0.783
  312SOL    MW4 1280   0.923   4.220   0.808
  313SOL     OW 1281   1.155   4.338   0.727
  313SOL    HW2 1282   1.243   4.317   0.757
  313SOL    HW3 1283   1.141   4.428   0.754
  313SOL    MW4 1284   1.165   4.347   0.734
  314SOL     OW 1285   1.587   4.621   0.897
  314SOL    HW2 1286   1.592   4.617   0.992
  314SOL    HW3 1287   1.502   4.663   0.879
  314SOL    MW4 1288   1.576   4.626   0.907
  315SOL     OW 1289   1.350   0.066   0.757
  315SOL    HW2 1290   1.355   0.159   0.780
  315SOL    HW3 1291   1.403   0.058   0.678
  315SOL    MW4 1292   1.357   0.077   0.749
  316SOL     OW 1293   1.370   0.336   0.805
  316SOL    HW2 1294   1.373   0.345   0.901
  316SOL    HW3 1295   1.453   0.372   0.775
  316SOL    MW4 1296   1.381   0.342   0.814
  317SOL     OW 1297   1.589   0.489   0.724
  317SOL    HW2 1298   1.586   0.577   0.761
  317SOL    HW3 1299   1.677   0.458   0.742
  317SOL    MW4 1300   1.600   0.497   0.731
  318SOL     OW 1301   1.590   0.746   0.821
  318SOL    HW2 1302   1.676   0.778   0.793
  318SOL    HW3 1303   1.527   0.801   0.775
  318SOL    MW4 1304   1.593   0.757   0.812
  319SOL     OW 1305   1.374   0.852   0.689
  319SOL    HW2 1306   1.362   0.941   0.722
  319SOL    HW3 1307   1.303   0.802   0.730
  319SOL    MW4 1308   1.363   0.857   0.699
  320SOL     OW 1309   1.386   1.096   0.840
  320SOL    HW2 1310   1.464   1.141   0.806
  320SOL    HW3 1311   1.312   1.149   0.808
  320SOL    MW4 1312   1.386   1.109   0.831
  321SOL     OW 1313   1.592   1.237   0.705
  321SOL    HW2 1314   1.605   1.332   0.700
  321SOL    HW3 1315   1.633   1.203   0.626
  321SOL    MW4 1316   1.599   1.245   0.694
  322SOL     OW 1317   1.787   1.622   0.862
  322SOL    HW2 1318   1.753   1.553   0.919
  322SOL    HW3 1319   1.882   1.610   0.864
  322SOL    MW4 1320   1.795   1.611   0.870
  323SOL     OW 1321   1.338   1.637   0.743
  323SOL    HW2 1322   1.359   1.715   0.794
  323SOL    HW3 1323   1.269   1.593   0.794
  323SOL    MW4 1324   1.331   1.641   0.757
  324SOL     OW 1325   1.354   1.898   0.861
  324SOL    HW2 1326   1.360   1.903   0.957
  324SOL    HW3 1327   1.274   1.947   0.840
  324SOL    MW4 1328   1.344   1.905   0.871
  325SOL     OW 1329   1.544   2.044   0.724
  325SOL    HW2 1330   1.533   2.044   0.629
  325SOL    HW3 1331   1.466   2.000   0.758
  325SOL    MW4 1332   1.532   2.038   0.716
  326SOL     OW 1333   1.559   2.326   0.802
  326SOL    HW2 1334   1.471   2.355   0.777
  326SOL    HW3 1335   1.573   2.246   0.750
  326SOL    MW4 1336   1.549   2.319   0.792
  327SOL     OW 1337   1.282   2.405   0.752
  327SOL    HW2 1338   1.286   2.500   0.764
  327SOL    HW3 1339   1.246   2.394   0.664
  327SOL    MW4 1340   1.277   2.417   0.742
  328SOL     OW 1341   1.336   2.671   0.827
  328SOL    HW2 1342   1.346   2.671   0.922
  328SOL    HW3 1343   1.253   2.717   0.812
  328SOL    MW4 1344   1.326   2.677   0.838
  329SOL     OW 1345   1.535   2.812   0.698
  329SOL    HW2 1346   1.540   2.901   0.733
  329SOL    HW3 1347   1.474   2.767   0.755
  329SOL    MW4 1348   1.528   2.818   0.710
  330SOL     OW 1349   1.555   3.064   0.804
  330SOL    HW2 1350   1.561   3.078   0.899
  330SOL    HW3 1351   1.501   3.135   0.772
  330SOL    MW4 1352   1.549   3.075   0.813
  331SOL     OW 1353   1.382   3.283   0.746
  331SOL    HW2 1354   1.311   3.220   0.741
  331SOL    HW3 1355   1.384   3.324   0.659
  331SOL    MW4 1356   1.373   3.280   0.734
  332SOL     OW 1357   1.376   3.507   0.895
  332SOL    HW2 1358   1.452   3.556   0.862
  332SOL    HW3 1359   1.388   3.419   0.860
  332SOL    MW4 1360   1.388   3.502   0.886
  333SOL     OW 1361   1.597   3.658   0.791
  333SOL    HW2 1362   1.673   3.600   0.797
  333SOL    HW3 1363   1.585   3.673   0.698
  333SOL    MW4 1364   1.606   3.652   0.780
  334SOL     OW 1365   1.601   3.908   0.900
  334SOL    HW2 1366   1.517   3.938   0.867
  334SOL    HW3 1367   1.609   3.818   0.867
  334SOL    MW4 1368   1.591   3.900   0.891
  335SOL     OW 1369   1.369   3.984   0.746
  335SOL    HW2 1370   1.294   3.925   0.749
  335SOL    HW3 1371   1.387   3.995   0.653
  335SOL    MW4 1372   1.362   3.978   0.734
  336SOL     OW 1373   1.400   4.257   0.817
  336SOL    HW2 1374   1.463   4.292   0.755
  336SOL    HW3 1375   1.392   4.164   0.794
  336SOL    MW4 1376   1.407   4.249   0.805
  337SOL     OW 1377   1.621   4.402   0.701
  337SOL    HW2 1378   1.696   4.349   0.729
  337SOL    HW3 1379   1.620   4.475   0.762
  337SOL    MW4 1380   1.631   4.405   0.713
  338SOL     OW 1381   1.841   0.048   0.904
  338SOL    HW2 1382   1.885   0.011   0.828
  338SOL    HW3 1383   1.752   0.013   0.900
  338SOL    MW4 1384   1.835   0.039   0.893
  339SOL     OW 1385   1.730   0.208   0.517
  339SOL    HW2 1386   1.660   0.142   0.516
  339SOL    HW3 1387   1.744   0.226   0.610
  339SOL    MW4 1388   1.722   0.201   0.529
  340SOL     OW 1389   1.791   0.315   0.800
  340SOL    HW2 1390   1.811   0.229   0.838
  340SOL    HW3 1391   1.874   0.345   0.763
  340SOL    MW4 1392   1.804   0.307   0.800
  341SOL     OW 1393   2.028   0.432   0.708
  341SOL    HW2 1394   2.063   0.406   0.623
  341SOL    HW3 1395   2.096   0.407   0.771
  341SOL    MW4 1396   2.041   0.425   0.705
  342SOL     OW 1397   2.050   0.699   0.852
  342SOL    HW2 1398   2.121   0.746   0.808
  342SOL    HW3 1399   2.044   0.615   0.806
  342SOL    MW4 1400   2.059   0.694   0.840
  343SOL     OW 1401   1.841   0.831   0.738
  343SOL    HW2 1402   1.854   0.919   0.775
  343SOL    HW3 1403   1.916   0.781   0.771
  343SOL    MW4 1404   1.853   0.836   0.748
  344SOL     OW 1405   1.840   1.091   0.832
  344SOL    HW2 1406   1.906   1.152   0.798
  344SOL    HW3 1407   1.756   1.130   0.808
  344SOL    MW4 1408   1.838   1.104   0.825
  345SOL     OW 1409   2.014   1.290   0.723
  345SOL    HW2 1410   2.087   1.255   0.773
  345SOL    HW3 1411   2.045   1.292   0.633
  345SOL    MW4 1412   2.028   1.286   0.718
  346SOL     OW 1413   2.039   1.526   0.871
  346SOL    HW2 1414   2.107   1.570   0.820
  346SOL    HW3 1415   2.018   1.447   0.820
  346SOL    MW4 1416   2.045   1.521   0.857
  347SOL     OW 1417   1.852   1.310   0.332
  347SOL    HW2 1418   1.793   1.383   0.350
  347SOL    HW3 1419   1.817   1.269   0.253
  347SOL    MW4 1420   1.839   1.314   0.324
  348SOL     OW 1421   1.754   1.928   0.863
  348SOL    HW2 1422   1.758   1.839   0.827
  348SOL    HW3 1423   1.672   1.964   0.829
  348SOL    MW4 1424   1.744   1.921   0.854
  349SOL     OW 1425   1.981   2.042   0.775
  349SOL    HW2 1426   1.984   2.136   0.794
  349SOL    HW3 1427   1.899   2.012   0.813
  349SOL    MW4 1428   1.971   2.051   0.782
  350SOL     OW 1429   2.016   2.313   0.801
  350SOL    HW2 1430   2.005   2.322   0.896
  350SOL    HW3 1431   1.939   2.355   0.764
  350SOL    MW4 1432   2.005   2.320   0.809
  351SOL     OW 1433   1.779   2.449   0.706
  351SOL    HW2 1434   1.706   2.404   0.749
  351SOL    HW3 1435   1.788   2.404   0.623
  351SOL    MW4 1436   1.770   2.437   0.701
  352SOL     OW 1437   1.791   2.704   0.794
  352SOL    HW2 1438   1.782   2.619   0.750
  352SOL    HW3 1439   1.715   2.754   0.765
  352SOL    MW4 1440   1.780   2.699   0.784
  353SOL     OW 1441   2.003   2.864   0.718
  353SOL    HW2 1442   2.077   2.817   0.755
  353SOL    HW3 1443   1.926   2.819   0.754
  353SOL    MW4 1444   2.002   2.852   0.728
  354SOL     OW 1445   2.003   3.120   0.803
  354SOL    HW2 1446   1.925   3.164   0.770
  354SOL    HW3 1447   1.994   3.029   0.774
  354SOL    MW4 1448   1.992   3.113   0.795
  355SOL     OW 1449   1.771   3.245   0.712
  355SOL    HW2 1450   1.714   3.192   0.769
  355SOL    HW3 1451   1.721   3.254   0.631
  355SOL    MW4 1452   1.757   3.239   0.709
  356SOL     OW 1453   1.848   3.502   0.817
  356SOL    HW2 1454   1.850   3.498   0.912
  356SOL    HW3 1455   1.832   3.412   0.789
  356SOL    MW4 1456   1.846   3.489   0.826
  357SOL     OW 1457   2.035   3.632   0.663
  357SOL    HW2 1458   2.039   3.693   0.737
  357SOL    HW3 1459   1.972   3.565   0.690
  357SOL    MW4 1460   2.027   3.631   0.676
  358SOL     OW 1461   2.018   3.852   0.834
  358SOL    HW2 1462   2.026   3.863   0.929
  358SOL    HW3 1463   1.933   3.891   0.812
  358SOL    MW4 1464   2.008   3.859   0.843
  359SOL     OW 1465   1.805   3.968   0.700
  359SOL    HW2 1466   1.733   3.928   0.749
  359SOL    HW3 1467   1.801   3.927   0.613
  359SOL    MW4 1468   1.795   3.957   0.695
  360SOL     OW 1469   1.835   4.240   0.820
  360SOL    HW2 1470   1.786   4.238   0.903
  360SOL    HW3 1471   1.831   4.150   0.788
  360SOL    MW4 1472   1.828   4.228   0.827
  361SOL     OW 1473   2.077   4.348   0.748
  361SOL    HW2 1474   1.993   4.310   0.772
  361SOL    HW3 1475   2.087   4.327   0.655
  361SOL    MW4 1476   2.067   4.340   0.739
  362SOL     OW 1477   2.675   0.131   0.794
  362SOL    HW2 1478   2.672   0.142   0.699
  362SOL    HW3 1479   2.703   0.217   0.827
  362SOL    MW4 1480   2.679   0.144   0.786
  363SOL     OW 1481   2.447   4.657   0.850
  363SOL    HW2 1482   2.529   4.703   0.832
  363SOL    HW3 1483   2.449   4.641   0.944
  363SOL    MW4 1484   2.458   4.661   0.860
  364SOL     OW 1485   2.239   0.377   0.867
  364SOL    HW2 1486   2.310   0.404   0.809
  364SOL    HW3 1487   2.229   0.283   0.852
  364SOL    MW4 1488   2.247   0.368   0.857
  365SOL     OW 1489   2.457   0.473   0.743
  365SOL    HW2 1490   2.478   0.431   0.659
  365SOL    HW3 1491   2.535   0.457   0.797
  365SOL    MW4 1492   2.470   0.465   0.739
  366SOL     OW 1493   2.506   0.737   0.690
  366SOL    HW2 1494   2.546   0.738   0.604
  366SOL    HW3 1495   2.500   0.644   0.712
  366SOL    MW4 1496   2.510   0.725   0.682
  367SOL     OW 1497   2.245   0.855   0.720
  367SOL    HW2 1498   2.330   0.813   0.713
  367SOL    HW3 1499   2.229   0.892   0.633
  367SOL    MW4 1500   2.254   0.855   0.708
  368SOL     OW 1501   2.241   1.104   0.859
  368SOL    HW2 1502   2.237   1.100   0.955
  368SOL    HW3 1503   2.246   1.013   0.831
  368SOL    MW4 1504   2.241   1.091   0.868
  369SOL     OW 1505   2.458   1.248   0.807
  369SOL    HW2 1506   2.383   1.195   0.832
  369SOL    HW3 1507   2.465   1.237   0.712
  369SOL    MW4 1508   2.449   1.239   0.798
  370SOL     OW 1509   2.459   1.524   0.857
  370SOL    HW2 1510   2.548   1.554   0.837
  370SOL    HW3 1511   2.456   1.434   0.825
  370SOL    MW4 1512   2.470   1.516   0.850
  371SOL     OW 1513   2.241   1.653   0.719
  371SOL    HW2 1514   2.322   1.613   0.750
  371SOL    HW3 1515   2.215   1.599   0.644
  371SOL    MW4 1516   2.248   1.640   0.713
  372SOL     OW 1517   2.234   1.919   0.805
  372SOL    HW2 1518   2.244   1.829   0.774
  372SOL    HW3 1519   2.144   1.942   0.783
  372SOL    MW4 1520   2.223   1.910   0.798
  373SOL     OW 1521   2.454   2.049   0.712
  373SOL    HW2 1522   2.370   2.008   0.735
  373SOL    HW3 1523   2.481   2.005   0.631
  373SOL    MW4 1524   2.446   2.038   0.704
  374SOL     OW 1525   2.483   2.314   0.848
  374SOL    HW2 1526   2.544   2.373   0.803
  374SOL    HW3 1527   2.492   2.231   0.803
  374SOL    MW4 1528   2.492   2.311   0.836
  375SOL     OW 1529   2.271   2.453   0.739
  375SOL    HW2 1530   2.351   2.405   0.761
  375SOL    HW3 1531   2.200   2.395   0.766
  375SOL    MW4 1532   2.273   2.439   0.745
  376SOL     OW 1533   2.223   2.734   0.808
  376SOL    HW2 1534   2.249   2.739   0.899
  376SOL    HW3 1535   2.237   2.643   0.783
  376SOL    MW4 1536   2.228   2.723   0.816
  377SOL     OW 1537   2.460   2.821   0.717
  377SOL    HW2 1538   2.521   2.777   0.777
  377SOL    HW3 1539   2.374   2.805   0.755
  377SOL    MW4 1540   2.457   2.813   0.730
  378SOL     OW 1541   2.440   3.088   0.816
  378SOL    HW2 1542   2.441   3.080   0.912
  378SOL    HW3 1543   2.423   2.998   0.786
  378SOL    MW4 1544   2.438   3.075   0.825
  379SOL     OW 1545   2.218   3.226   0.680
  379SOL    HW2 1546   2.138   3.189   0.717
  379SOL    HW3 1547   2.289   3.186   0.730
  379SOL    MW4 1548   2.217   3.216   0.691
  380SOL     OW 1549   2.248   3.486   0.782
  380SOL    HW2 1550   2.244   3.399   0.743
  380SOL    HW3 1551   2.188   3.539   0.730
  380SOL    MW4 1552   2.239   3.481   0.770
  381SOL     OW 1553   2.476   3.594   0.681
  381SOL    HW2 1554   2.551   3.554   0.726
  381SOL    HW3 1555   2.399   3.552   0.721
  381SOL    MW4 1556   2.476   3.583   0.692
  382SOL     OW 1557   2.504   3.867   0.801
  382SOL    HW2 1558   2.426   3.912   0.768
  382SOL    HW3 1559   2.496   3.778   0.767
  382SOL    MW4 1560   2.492   3.861   0.792
  383SOL     OW 1561   2.249   3.972   0.731
  383SOL    HW2 1562   2.166   3.938   0.765
  383SOL    HW3 1563   2.232   3.990   0.639
  383SOL    MW4 1564   2.236   3.970   0.724
  384SOL     OW 1565   2.305   4.224   0.849
  384SOL    HW2 1566   2.273   4.142   0.811
  384SOL    HW3 1567   2.241   4.290   0.820
  384SOL    MW4 1568   2.292   4.222   0.840
  385SOL     OW 1569   2.571   4.184   0.844
  385SOL    HW2 1570   2.596   4.195   0.936
  385SOL    HW3 1571   2.477   4.203   0.842
  385SOL    MW4 1572   2.562   4.188   0.856
  386SOL     OW 1573   2.894   4.628   0.874
  386SOL    HW2 1574   2.865   4.542   0.843
  386SOL    HW3 1575   2.829   4.689   0.839
  386SOL    MW4 1576   2.882   4.625   0.865
  387SOL     OW 1577   2.714   4.482   0.567
  387SOL    HW2 1578   2.787   4.536   0.535
  387SOL    HW3 1579   2.639   4.541   0.568
  387SOL    MW4 1580   2.714   4.497   0.563
  388SOL     OW 1581   2.712   0.411   0.848
  388SOL    HW2 1582   2.705   0.395   0.942
  388SOL    HW3 1583   2.792   0.462   0.838
  388SOL    MW4 1584   2.722   0.416   0.859
  389SOL     OW 1585   2.951   0.494   0.734
  389SOL    HW2 1586   3.027   0.445   0.767
  389SOL    HW3 1587   2.987   0.556   0.671
  389SOL    MW4 1588   2.966   0.496   0.730
  390SOL     OW 1589   2.907   0.758   0.852
  390SOL    HW2 1590   2.924   0.758   0.946
  390SOL    HW3 1591   2.929   0.669   0.824
  390SOL    MW4 1592   2.912   0.746   0.861
  391SOL     OW 1593   2.744   0.941   0.710
  391SOL    HW2 1594   2.792   0.874   0.759
  391SOL    HW3 1595   2.658   0.902   0.696
  391SOL    MW4 1596   2.739   0.927   0.714
  392SOL     OW 1597   2.723   1.164   0.875
  392SOL    HW2 1598   2.726   1.084   0.822
  392SOL    HW3 1599   2.635   1.199   0.860
  392SOL    MW4 1600   2.712   1.158   0.866
  393SOL     OW 1601   2.929   1.301   0.750
  393SOL    HW2 1602   3.004   1.249   0.779
  393SOL    HW3 1603   2.856   1.270   0.804
  393SOL    MW4 1604   2.929   1.290   0.761
  394SOL     OW 1605   2.921   1.580   0.840
  394SOL    HW2 1606   3.003   1.624   0.817
  394SOL    HW3 1607   2.927   1.493   0.800
  394SOL    MW4 1608   2.932   1.574   0.831
  395SOL     OW 1609   2.686   1.697   0.777
  395SOL    HW2 1610   2.686   1.786   0.812
  395SOL    HW3 1611   2.770   1.661   0.803
  395SOL    MW4 1612   2.697   1.704   0.785
  396SOL     OW 1613   2.713   1.955   0.848
  396SOL    HW2 1614   2.714   1.952   0.943
  396SOL    HW3 1615   2.626   1.987   0.825
  396SOL    MW4 1616   2.702   1.959   0.857
  397SOL     OW 1617   2.872   2.096   0.662
  397SOL    HW2 1618   2.902   2.171   0.714
  397SOL    HW3 1619   2.822   2.042   0.724
  397SOL    MW4 1620   2.869   2.099   0.677
  398SOL     OW 1621   2.934   2.350   0.792
  398SOL    HW2 1622   2.942   2.337   0.886
  398SOL    HW3 1623   2.844   2.380   0.779
  398SOL    MW4 1624   2.923   2.352   0.803
  399SOL     OW 1625   2.694   2.453   0.735
  399SOL    HW2 1626   2.706   2.465   0.641
  399SOL    HW3 1627   2.691   2.542   0.770
  399SOL    MW4 1628   2.695   2.466   0.727
  400SOL     OW 1629   2.667   2.692   0.853
  400SOL    HW2 1630   2.691   2.687   0.945
  400SOL    HW3 1631   2.747   2.723   0.809
  400SOL    MW4 1632   2.681   2.695   0.859
  401SOL     OW 1633   2.903   2.809   0.450
  401SOL    HW2 1634   2.921   2.719   0.423
  401SOL    HW3 1635   2.810   2.821   0.434
  401SOL    MW4 1636   2.893   2.799   0.444
  402SOL     OW 1637   2.902   3.071   0.843
  402SOL    HW2 1638   2.837   3.132   0.809
  402SOL    HW3 1639   2.878   2.986   0.806
  402SOL    MW4 1640   2.890   3.068   0.834
  403SOL     OW 1641   2.646   3.204   0.680
  403SOL    HW2 1642   2.648   3.295   0.709
  403SOL    HW3 1643   2.578   3.163   0.733
  403SOL    MW4 1644   2.637   3.211   0.691
  404SOL     OW 1645   2.705   3.467   0.789
  404SOL    HW2 1646   2.697   3.459   0.884
  404SOL    HW3 1647   2.786   3.517   0.777
  404SOL    MW4 1648   2.715   3.473   0.800
  405SOL     OW 1649   2.960   3.601   0.762
  405SOL    HW2 1650   2.943   3.687   0.799
  405SOL    HW3 1651   2.965   3.617   0.667
  405SOL    MW4 1652   2.959   3.615   0.754
  406SOL     OW 1653   2.933   3.854   0.846
  406SOL    HW2 1654   2.930   3.862   0.941
  406SOL    HW3 1655   2.850   3.891   0.816
  406SOL    MW4 1656   2.921   3.860   0.854
  407SOL     OW 1657   2.736   4.004   0.709
  407SOL    HW2 1658   2.652   3.986   0.751
  407SOL    HW3 1659   2.736   3.949   0.631
  407SOL    MW4 1660   2.725   3.994   0.704
  408SOL     OW 1661   2.851   4.336   0.850
  408SOL    HW2 1662   2.819   4.306   0.935
  408SOL    HW3 1663   2.931   4.286   0.836
  408SOL    MW4 1664   2.857   4.325   0.860
  409SOL     OW 1665   3.101   4.377   0.402
  409SOL    HW2 1666   3.184   4.385   0.449
  409SOL    HW3 1667   3.045   4.328   0.461
  409SOL    MW4 1668   3.105   4.372   0.416
  410SOL     OW 1669   3.380   4.618   0.869
  410SOL    HW2 1670   3.401   4.631   0.961
  410SOL    HW3 1671   3.299   4.667   0.855
  410SOL    MW4 1672   3.372   4.626   0.879
  411SOL     OW 1673   3.134   0.053   0.783
  411SOL    HW2 1674   3.121   0.144   0.810
  411SOL    HW3 1675   3.060   0.006   0.821
  411SOL    MW4 1676   3.122   0.059   0.792
  412SOL     OW 1677   3.147   0.337   0.861
  412SOL    HW2 1678   3.156   0.373   0.950
  412SOL    HW3 1679   3.232   0.354   0.820
  412SOL    MW4 1680   3.159   0.344   0.867
  413SOL     OW 1681   3.366   0.418   0.722
  413SOL    HW2 1682   3.447   0.382   0.758
  413SOL    HW3 1683   3.360   0.380   0.635
  413SOL    MW4 1684   3.376   0.408   0.715
  414SOL     OW 1685   3.390   0.665   0.857
  414SOL    HW2 1686   3.319   0.723   0.832
  414SOL    HW3 1687   3.387   0.594   0.792
  414SOL    MW4 1688   3.380   0.663   0.845
  415SOL     OW 1689   3.168   0.867   0.807
  415SOL    HW2 1690   3.174   0.959   0.833
  415SOL    HW3 1691   3.075   0.846   0.811
  415SOL    MW4 1692   3.157   0.877   0.811
  416SOL     OW 1693   3.137   1.154   0.873
  416SOL    HW2 1694   3.145   1.159   0.969
  416SOL    HW3 1695   3.222   1.183   0.841
  416SOL    MW4 1696   3.149   1.158   0.882
  417SOL     OW 1697   3.386   1.231   0.756
  417SOL    HW2 1698   3.474   1.192   0.761
  417SOL    HW3 1699   3.397   1.318   0.796
  417SOL    MW4 1700   3.399   1.238   0.762
  418SOL     OW 1701   3.356   1.495   0.856
  418SOL    HW2 1702   3.371   1.516   0.948
  418SOL    HW3 1703   3.442   1.501   0.815
  418SOL    MW4 1704   3.369   1.499   0.863
  419SOL     OW 1705   3.176   1.676   0.762
  419SOL    HW2 1706   3.243   1.613   0.787
  419SOL    HW3 1707   3.174   1.673   0.667
  419SOL    MW4 1708   3.184   1.667   0.753
  420SOL     OW 1709   3.238   1.929   0.874
  420SOL    HW2 1710   3.184   1.950   0.951
  420SOL    HW3 1711   3.220   1.836   0.857
  420SOL    MW4 1712   3.228   1.919   0.882
  421SOL     OW 1713   3.514   1.961   0.880
  421SOL    HW2 1714   3.520   2.056   0.875
  421SOL    HW3 1715   3.420   1.942   0.872
  421SOL    MW4 1716   3.502   1.971   0.878
  422SOL     OW 1717   3.490   2.257   0.854
  422SOL    HW2 1718   3.447   2.269   0.939
  422SOL    HW3 1719   3.567   2.314   0.858
  422SOL    MW4 1720   3.495   2.266   0.866
  423SOL     OW 1721   3.130   2.475   0.652
  423SOL    HW2 1722   3.197   2.407   0.641
  423SOL    HW3 1723   3.058   2.430   0.697
  423SOL    MW4 1724   3.130   2.460   0.657
  424SOL     OW 1725   3.135   2.694   0.804
  424SOL    HW2 1726   3.135   2.609   0.761
  424SOL    HW3 1727   3.205   2.743   0.761
  424SOL    MW4 1728   3.144   2.690   0.793
  425SOL     OW 1729   3.333   2.862   0.660
  425SOL    HW2 1730   3.277   2.874   0.583
  425SOL    HW3 1731   3.405   2.807   0.628
  425SOL    MW4 1732   3.335   2.857   0.646
  426SOL     OW 1733   3.403   3.080   0.792
  426SOL    HW2 1734   3.394   3.065   0.886
  426SOL    HW3 1735   3.383   2.995   0.752
  426SOL    MW4 1736   3.399   3.067   0.799
  427SOL     OW 1737   3.130   3.171   0.745
  427SOL    HW2 1738   3.194   3.108   0.777
  427SOL    HW3 1739   3.046   3.141   0.780
  427SOL    MW4 1740   3.127   3.159   0.754
  428SOL     OW 1741   3.155   3.433   0.844
  428SOL    HW2 1742   3.131   3.348   0.807
  428SOL    HW3 1743   3.093   3.495   0.805
  428SOL    MW4 1744   3.144   3.430   0.834
  429SOL     OW 1745   3.360   4.377   0.537
  429SOL    HW2 1746   3.388   4.305   0.480
  429SOL    HW3 1747   3.428   4.444   0.527
  429SOL    MW4 1748   3.373   4.376   0.528
  430SOL     OW 1749   3.439   3.905   0.848
  430SOL    HW2 1750   3.482   3.991   0.851
  430SOL    HW3 1751   3.407   3.891   0.937
  430SOL    MW4 1752   3.441   3.915   0.860
  431SOL     OW 1753   3.077   4.000   0.666
  431SOL    HW2 1754   3.163   3.963   0.646
  431SOL    HW3 1755   3.035   3.934   0.722
  431SOL    MW4 1756   3.083   3.986   0.671
  432SOL     OW 1757   3.081   4.180   0.881
  432SOL    HW2 1758   3.162   4.231   0.886
  432SOL    HW3 1759   3.095   4.120   0.808
  432SOL    MW4 1760   3.094   4.179   0.872
  433SOL     OW 1761   3.307   4.350   0.819
  433SOL    HW2 1762   3.335   4.438   0.843
  433SOL    HW3 1763   3.320   4.345   0.725
  433SOL    MW4 1764   3.312   4.361   0.810
  434SOL     OW 1765   3.844   4.639   0.835
  434SOL    HW2 1766   3.907   4.708   0.814
  434SOL    HW3 1767   3.760   4.675   0.806
  434SOL    MW4 1768   3.841   4.653   0.829
  435SOL     OW 1769   3.594   0.077   0.753
  435SOL    HW2 1770   3.516   0.032   0.786
  435SOL    HW3 1771   3.584   0.077   0.658
  435SOL    MW4 1772   3.583   0.071   0.745
  436SOL     OW 1773   3.619   0.348   0.811
  436SOL    HW2 1774   3.617   0.362   0.906
  436SOL    HW3 1775   3.628   0.254   0.801
  436SOL    MW4 1776   3.620   0.337   0.822
  437SOL     OW 1777   3.750   0.527   0.602
  437SOL    HW2 1778   3.668   0.556   0.563
  437SOL    HW3 1779   3.735   0.534   0.696
  437SOL    MW4 1780   3.737   0.532   0.609
  438SOL     OW 1781   3.835   0.693   0.844
  438SOL    HW2 1782   3.820   0.703   0.938
  438SOL    HW3 1783   3.900   0.760   0.823
  438SOL    MW4 1784   3.842   0.703   0.853
  439SOL     OW 1785   3.604   0.846   0.769
  439SOL    HW2 1786   3.684   0.794   0.782
  439SOL    HW3 1787   3.536   0.797   0.816
  439SOL    MW4 1788   3.606   0.833   0.777
  440SOL     OW 1789   3.634   1.112   0.830
  440SOL    HW2 1790   3.613   1.124   0.923
  440SOL    HW3 1791   3.628   1.017   0.817
  440SOL    MW4 1792   3.630   1.101   0.841
  441SOL     OW 1793   3.841   1.260   0.697
  441SOL    HW2 1794   3.766   1.212   0.732
  441SOL    HW3 1795   3.812   1.293   0.612
  441SOL    MW4 1796   3.827   1.258   0.691
  442SOL     OW 1797   3.771   1.477   0.849
  442SOL    HW2 1798   3.843   1.539   0.835
  442SOL    HW3 1799   3.803   1.395   0.811
  442SOL    MW4 1800   3.785   1.474   0.842
  443SOL     OW 1801   3.560   1.538   0.672
  443SOL    HW2 1802   3.563   1.633   0.662
  443SOL    HW3 1803   3.633   1.518   0.731
  443SOL    MW4 1804   3.570   1.548   0.679
  444SOL     OW 1805   3.825   1.982   0.624
  444SOL    HW2 1806   3.884   1.950   0.692
  444SOL    HW3 1807   3.749   1.924   0.629
  444SOL    MW4 1808   3.823   1.970   0.634
  445SOL     OW 1809   3.766   2.277   0.624
  445SOL    HW2 1810   3.769   2.318   0.710
  445SOL    HW3 1811   3.757   2.183   0.643
  445SOL    MW4 1812   3.765   2.270   0.638
  446SOL     OW 1813   4.099   1.680   0.516
  446SOL    HW2 1814   4.033   1.655   0.451
  446SOL    HW3 1815   4.131   1.765   0.486
  446SOL    MW4 1816   4.094   1.688   0.503
  447SOL     OW 1817   3.742   2.413   0.863
  447SOL    HW2 1818   3.740   2.508   0.847
  447SOL    HW3 1819   3.788   2.404   0.946
  447SOL    MW4 1820   3.748   2.425   0.872
  448SOL     OW 1821   3.679   2.681   0.821
  448SOL    HW2 1822   3.654   2.714   0.907
  448SOL    HW3 1823   3.743   2.745   0.788
  448SOL    MW4 1824   3.684   2.694   0.828
  449SOL     OW 1825   3.852   2.869   0.735
  449SOL    HW2 1826   3.794   2.940   0.763
  449SOL    HW3 1827   3.856   2.878   0.639
  449SOL    MW4 1828   3.845   2.879   0.726
  450SOL     OW 1829   3.671   3.065   0.822
  450SOL    HW2 1830   3.699   3.148   0.783
  450SOL    HW3 1831   3.576   3.065   0.813
  450SOL    MW4 1832   3.662   3.076   0.816
  451SOL     OW 1833   3.378   3.471   0.685
  451SOL    HW2 1834   3.393   3.387   0.642
  451SOL    HW3 1835   3.302   3.457   0.741
  451SOL    MW4 1836   3.370   3.458   0.687
  452SOL     OW 1837   3.620   3.487   0.815
  452SOL    HW2 1838   3.657   3.404   0.782
  452SOL    HW3 1839   3.532   3.489   0.778
  452SOL    MW4 1840   3.613   3.476   0.806
  453SOL     OW 1841   3.824   3.611   0.570
  453SOL    HW2 1842   3.745   3.575   0.610
  453SOL    HW3 1843   3.894   3.591   0.632
  453SOL    MW4 1844   3.823   3.604   0.583
  454SOL     OW 1845   3.696   3.757   0.843
  454SOL    HW2 1846   3.609   3.798   0.847
  454SOL    HW3 1847   3.678   3.663   0.837
  454SOL    MW4 1848   3.682   3.750   0.842
  455SOL     OW 1849   2.632   4.186   0.182
  455SOL    HW2 1850   2.662   4.179   0.091
  455SOL    HW3 1851   2.635   4.280   0.201
  455SOL    MW4 1852   2.636   4.197   0.173
  456SOL     OW 1853   3.528   4.181   0.859
  456SOL    HW2 1854   3.603   4.194   0.801
  456SOL    HW3 1855   3.465   4.247   0.832
  456SOL    MW4 1856   3.530   4.191   0.848
  457SOL     OW 1857   3.875   4.364   0.827
  457SOL    HW2 1858   3.808   4.332   0.767
  457SOL    HW3 1859   3.860   4.459   0.831
  457SOL    MW4 1860   3.864   4.373   0.820
  458SOL     OW 1861   4.258   0.005   0.860
  458SOL    HW2 1862   4.263  -0.014   0.954
  458SOL    HW3 1863   4.191   0.072   0.853
  458SOL    MW4 1864   4.250   0.011   0.872
  459SOL     OW 1865   4.045   0.180   0.843
  459SOL    HW2 1866   3.996   0.262   0.849
  459SOL    HW3 1867   4.054   0.165   0.748
  459SOL    MW4 1868   4.040   0.189   0.831
  460SOL     OW 1869   3.982   0.443   0.901
  460SOL    HW2 1870   4.076   0.457   0.884
  460SOL    HW3 1871   3.940   0.520   0.861
  460SOL    MW4 1872   3.989   0.455   0.893
  461SOL     OW 1873   4.248   0.503   0.799
  461SOL    HW2 1874   4.330   0.458   0.821
  461SOL    HW3 1875   4.242   0.494   0.703
  461SOL    MW4 1876   4.258   0.496   0.789
  462SOL     OW 1877   4.254   0.767   0.914
  462SOL    HW2 1878   4.190   0.820   0.867
  462SOL    HW3 1879   4.248   0.681   0.873
  462SOL    MW4 1880   4.245   0.763   0.902
  463SOL     OW 1881   4.036   0.875   0.790
  463SOL    HW2 1882   4.009   0.964   0.815
  463SOL    HW3 1883   4.062   0.883   0.699
  463SOL    MW4 1884   4.035   0.888   0.782
  464SOL     OW 1885   4.034   1.158   0.867
  464SOL    HW2 1886   4.029   1.188   0.958
  464SOL    HW3 1887   3.973   1.215   0.820
  464SOL    MW4 1888   4.026   1.170   0.872
  465SOL     OW 1889   4.287   1.261   0.742
  465SOL    HW2 1890   4.215   1.221   0.790
  465SOL    HW3 1891   4.365   1.212   0.770
  465SOL    MW4 1892   4.288   1.249   0.752
  466SOL     OW 1893   4.259   1.505   0.866
  466SOL    HW2 1894   4.259   1.518   0.960
  466SOL    HW3 1895   4.280   1.412   0.854
  466SOL    MW4 1896   4.262   1.494   0.877
  467SOL     OW 1897   4.016   1.632   0.797
  467SOL    HW2 1898   4.089   1.575   0.823
  467SOL    HW3 1899   4.037   1.657   0.707
  467SOL    MW4 1900   4.029   1.628   0.789
  468SOL     OW 1901   3.980   1.907   0.853
  468SOL    HW2 1902   3.992   1.812   0.856
  468SOL    HW3 1903   4.067   1.941   0.830
  468SOL    MW4 1904   3.993   1.899   0.850
  469SOL     OW 1905   4.220   2.002   0.781
  469SOL    HW2 1906   4.305   1.963   0.802
  469SOL    HW3 1907   4.216   2.000   0.685
  469SOL    MW4 1908   4.231   1.997   0.771
  470SOL     OW 1909   4.209   2.266   0.806
  470SOL    HW2 1910   4.137   2.262   0.743
  470SOL    HW3 1911   4.234   2.174   0.819
  470SOL    MW4 1912   4.203   2.253   0.800
  471SOL     OW 1913   4.044   2.590   0.571
  471SOL    HW2 1914   4.063   2.621   0.659
  471SOL    HW3 1915   3.960   2.630   0.548
  471SOL    MW4 1916   4.036   2.599   0.579
  472SOL     OW 1917   4.081   2.709   0.819
  472SOL    HW2 1918   4.164   2.755   0.808
  472SOL    HW3 1919   4.015   2.779   0.812
  472SOL    MW4 1920   4.083   2.725   0.816
  473SOL     OW 1921   4.300   2.868   0.736
  473SOL    HW2 1922   4.376   2.825   0.775
  473SOL    HW3 1923   4.294   2.831   0.648
  473SOL    MW4 1924   4.309   2.858   0.730
  474SOL     OW 1925   4.247   3.131   0.813
  474SOL    HW2 1926   4.239   3.042   0.780
  474SOL    HW3 1927   4.328   3.164   0.775
  474SOL    MW4 1928   4.256   3.124   0.804
  475SOL     OW 1929   4.041   3.298   0.693
  475SOL    HW2 1930   4.053   3.373   0.751
  475SOL    HW3 1931   4.090   3.227   0.735
  475SOL    MW4 1932   4.049   3.298   0.706
  476SOL     OW 1933   4.056   3.546   0.812
  476SOL    HW2 1934   4.053   3.557   0.907
  476SOL    HW3 1935   4.136   3.591   0.785
  476SOL    MW4 1936   4.066   3.553   0.821
  477SOL     OW 1937   4.312   3.630   0.695
  477SOL    HW2 1938   4.302   3.718   0.731
  477SOL    HW3 1939   4.281   3.637   0.604
  477SOL    MW4 1940   4.307   3.642   0.687
  478SOL     OW 1941   4.301   3.892   0.794
  478SOL    HW2 1942   4.290   3.889   0.889
  478SOL    HW3 1943   4.220   3.933   0.762
  478SOL    MW4 1944   4.289   3.897   0.803
  479SOL     OW 1945   3.850   3.939   0.680
  479SOL    HW2 1946   3.805   3.869   0.727
  479SOL    HW3 1947   3.853   3.908   0.589
  479SOL    MW4 1948   3.844   3.925   0.674
  480SOL     OW 1949   4.107   4.049   0.675
  480SOL    HW2 1950   4.090   4.143   0.672
  480SOL    HW3 1951   4.021   4.009   0.688
  480SOL    MW4 1952   4.094   4.056   0.676
  481SOL     OW 1953   4.291   4.440   0.717
  481SOL    HW2 1954   4.276   4.521   0.765
  481SOL    HW3 1955   4.368   4.401   0.758
  481SOL    MW4 1956   4.299   4.446   0.728
  482SOL     OW 1957   0.211   4.630   1.095
  482SOL    HW2 1958   0.297   4.660   1.123
  482SOL    HW3 1959   0.219   4.618   1.000
  482SOL    MW4 1960   0.223   4.632   1.086
  483SOL     OW 1961   0.019   0.124   1.237
  483SOL    HW2 1962  -0.065   0.079   1.223
  483SOL    HW3 1963   0.073   0.097   1.164
  483SOL    MW4 1964   0.015   0.114   1.226
  484SOL     OW 1965   4.485   0.378   1.156
  484SOL    HW2 1966   4.399   0.404   1.187
  484SOL    HW3 1967   4.495   0.287   1.185
  484SOL    MW4 1968   4.475   0.370   1.164
  485SOL     OW 1969   0.256   0.464   1.215
  485SOL    HW2 1970   0.266   0.550   1.174
  485SOL    HW3 1971   0.167   0.437   1.195
  485SOL    MW4 1972   0.246   0.472   1.207
  486SOL     OW 1973   0.257   0.723   1.096
  486SOL    HW2 1974   0.335   0.773   1.117
  486SOL    HW3 1975   0.187   0.765   1.147
  486SOL    MW4 1976   0.258   0.735   1.105
  487SOL     OW 1977   0.057   0.868   1.230
  487SOL    HW2 1978   0.048   0.878   1.325
  487SOL    HW3 1979  -0.025   0.826   1.202
  487SOL    MW4 1980   0.045   0.864   1.239
  488SOL     OW 1981   0.025   1.140   1.135
  488SOL    HW2 1982  -0.051   1.184   1.174
  488SOL    HW3 1983   0.024   1.052   1.172
  488SOL    MW4 1984   0.015   1.134   1.145
  489SOL     OW 1985   0.249   1.262   1.198
  489SOL    HW2 1986   0.318   1.202   1.172
  489SOL    HW3 1987   0.167   1.215   1.181
  489SOL    MW4 1988   0.247   1.248   1.192
  490SOL     OW 1989   0.203   1.515   1.112
  490SOL    HW2 1990   0.222   1.428   1.149
  490SOL    HW3 1991   0.217   1.504   1.018
  490SOL    MW4 1992   0.207   1.502   1.105
  491SOL     OW 1993   4.490   1.656   1.236
  491SOL    HW2 1994   4.493   1.745   1.202
  491SOL    HW3 1995   4.566   1.613   1.195
  491SOL    MW4 1996   4.501   1.662   1.226
  492SOL     OW 1997   4.453   1.917   1.141
  492SOL    HW2 1998   4.395   1.986   1.175
  492SOL    HW3 1999   4.450   1.928   1.046
  492SOL    MW4 2000   4.445   1.927   1.133
  493SOL     OW 2001   0.199   2.065   1.243
  493SOL    HW2 2002   0.202   2.140   1.184
  493SOL    HW3 2003   0.133   2.007   1.204
  493SOL    MW4 2004   0.191   2.067   1.230
  494SOL     OW 2005   0.253   2.298   1.095
  494SOL    HW2 2006   0.332   2.342   1.124
  494SOL    HW3 2007   0.182   2.343   1.141
  494SOL    MW4 2008   0.254   2.309   1.105
  495SOL     OW 2009   0.019   2.420   1.189
  495SOL    HW2 2010   0.014   2.417   1.284
  495SOL    HW3 2011  -0.068   2.391   1.159
  495SOL    MW4 2012   0.007   2.416   1.197
  496SOL     OW 2013   4.475   2.694   1.112
  496SOL    HW2 2014   4.401   2.747   1.141
  496SOL    HW3 2015   4.468   2.614   1.163
  496SOL    MW4 2016   4.464   2.690   1.122
  497SOL     OW 2017   0.245   2.810   1.142
  497SOL    HW2 2018   0.241   2.827   1.236
  497SOL    HW3 2019   0.161   2.766   1.122
  497SOL    MW4 2020   0.233   2.806   1.151
  498SOL     OW 2021   0.233   3.091   1.087
  498SOL    HW2 2022   0.317   3.128   1.117
  498SOL    HW3 2023   0.239   2.998   1.108
  498SOL    MW4 2024   0.245   3.084   1.094
  499SOL     OW 2025   0.019   3.261   1.174
  499SOL    HW2 2026  -0.048   3.208   1.129
  499SOL    HW3 2027   0.102   3.216   1.155
  499SOL    MW4 2028   0.021   3.248   1.165
  500SOL     OW 2029   0.007   3.504   1.069
  500SOL    HW2 2030   0.021   3.412   1.091
  500SOL    HW3 2031   0.011   3.506   0.973
  500SOL    MW4 2032   0.009   3.492   1.059
  501SOL     OW 2033   0.254   3.598   1.165
  501SOL    HW2 2034   0.244   3.579   1.259
  501SOL    HW3 2035   0.171   3.570   1.126
  501SOL    MW4 2036   0.242   3.592   1.173
  502SOL     OW 2037   0.266   3.865   1.060
  502SOL    HW2 2038   0.181   3.900   1.088
  502SOL    HW3 2039   0.265   3.774   1.088
  502SOL    MW4 2040   0.254   3.858   1.067
  503SOL     OW 2041   0.041   3.991   1.181
  503SOL    HW2 2042   0.049   3.983   1.276
  503SOL    HW3 2043  -0.041   3.946   1.160
  503SOL    MW4 2044   0.031   3.984   1.191
  504SOL     OW 2045   4.464   4.246   1.125
  504SOL    HW2 2046   4.542   4.290   1.158
  504SOL    HW3 2047   4.483   4.153   1.137
  504SOL    MW4 2048   4.477   4.239   1.131
  505SOL     OW 2049   0.212   4.368   1.206
  505SOL    HW2 2050   0.209   4.353   1.300
  505SOL    HW3 2051   0.200   4.462   1.195
  505SOL    MW4 2052   0.210   4.378   1.217
  506SOL     OW 2053   0.670   4.631   1.106
  506SOL    HW2 2054   0.754   4.662   1.140
  506SOL    HW3 2055   0.666   4.539   1.132
  506SOL    MW4 2056   0.681   4.623   1.114
  507SOL     OW 2057   0.452   0.067   1.225
  507SOL    HW2 2058   0.464   0.159   1.201
  507SOL    HW3 2059   0.525   0.021   1.183
  507SOL    MW4 2060   0.463   0.073   1.216
  508SOL     OW 2061   0.483   0.317   1.134
  508SOL    HW2 2062   0.407   0.374   1.143
  508SOL    HW3 2063   0.499   0.313   1.040
  508SOL    MW4 2064   0.475   0.324   1.123
  509SOL     OW 2065   0.713   0.449   1.205
  509SOL    HW2 2066   0.716   0.528   1.150
  509SOL    HW3 2067   0.625   0.415   1.194
  509SOL    MW4 2068   0.702   0.455   1.196
  510SOL     OW 2069   0.721   0.698   1.086
  510SOL    HW2 2070   0.646   0.742   1.127
  510SOL    HW3 2071   0.711   0.715   0.992
  510SOL    MW4 2072   0.710   0.706   1.079
  511SOL     OW 2073   0.495   0.832   1.194
  511SOL    HW2 2074   0.478   0.820   1.287
  511SOL    HW3 2075   0.483   0.926   1.179
  511SOL    MW4 2076   0.491   0.843   1.204
  512SOL     OW 2077   0.475   1.119   1.111
  512SOL    HW2 2078   0.547   1.167   1.152
  512SOL    HW3 2079   0.501   1.110   1.019
  512SOL    MW4 2080   0.488   1.124   1.104
  513SOL     OW 2081   0.674   1.272   1.252
  513SOL    HW2 2082   0.760   1.242   1.222
  513SOL    HW3 2083   0.666   1.361   1.216
  513SOL    MW4 2084   0.685   1.280   1.243
  514SOL     OW 2085   0.663   1.520   1.120
  514SOL    HW2 2086   0.735   1.577   1.145
  514SOL    HW3 2087   0.585   1.563   1.155
  514SOL    MW4 2088   0.662   1.533   1.128
  515SOL     OW 2089   0.442   1.663   1.199
  515SOL    HW2 2090   0.434   1.663   1.295
  515SOL    HW3 2091   0.360   1.624   1.168
  515SOL    MW4 2092   0.430   1.658   1.208
  516SOL     OW 2093   0.451   1.936   1.142
  516SOL    HW2 2094   0.463   1.841   1.144
  516SOL    HW3 2095   0.366   1.951   1.183
  516SOL    MW4 2096   0.442   1.925   1.148
  517SOL     OW 2097   0.682   2.072   1.234
  517SOL    HW2 2098   0.688   2.049   1.327
  517SOL    HW3 2099   0.597   2.039   1.206
  517SOL    MW4 2100   0.672   2.065   1.243
  518SOL     OW 2101   0.749   2.317   1.143
  518SOL    HW2 2102   0.664   2.362   1.142
  518SOL    HW3 2103   0.731   2.232   1.181
  518SOL    MW4 2104   0.736   2.312   1.148
  519SOL     OW 2105   0.497   2.410   1.184
  519SOL    HW2 2106   0.498   2.418   1.279
  519SOL    HW3 2107   0.482   2.499   1.152
  519SOL    MW4 2108   0.495   2.422   1.192
  520SOL     OW 2109   0.472   2.666   1.084
  520SOL    HW2 2110   0.385   2.697   1.110
  520SOL    HW3 2111   0.474   2.680   0.989
  520SOL    MW4 2112   0.461   2.672   1.075
  521SOL     OW 2113   0.661   2.817   1.216
  521SOL    HW2 2114   0.662   2.901   1.171
  521SOL    HW3 2115   0.591   2.767   1.174
  521SOL    MW4 2116   0.652   2.821   1.205
  522SOL     OW 2117   0.700   3.068   1.089
  522SOL    HW2 2118   0.785   3.109   1.108
  522SOL    HW3 2119   0.695   3.067   0.993
  522SOL    MW4 2120   0.711   3.073   1.079
  523SOL     OW 2121   0.471   3.183   1.157
  523SOL    HW2 2122   0.470   3.279   1.155
  523SOL    HW3 2123   0.561   3.160   1.133
  523SOL    MW4 2124   0.483   3.193   1.154
  524SOL     OW 2125   0.487   3.452   1.124
  524SOL    HW2 2126   0.558   3.504   1.162
  524SOL    HW3 2127   0.407   3.497   1.151
  524SOL    MW4 2128   0.486   3.465   1.133
  525SOL     OW 2129   0.702   3.609   1.205
  525SOL    HW2 2130   0.693   3.609   1.300
  525SOL    HW3 2131   0.682   3.699   1.179
  525SOL    MW4 2132   0.698   3.621   1.214
  526SOL     OW 2133   0.674   3.865   1.102
  526SOL    HW2 2134   0.602   3.918   1.135
  526SOL    HW3 2135   0.658   3.857   1.008
  526SOL    MW4 2136   0.663   3.871   1.094
  527SOL     OW 2137   0.464   4.006   1.211
  527SOL    HW2 2138   0.454   4.093   1.174
  527SOL    HW3 2139   0.399   3.952   1.165
  527SOL    MW4 2140   0.454   4.010   1.200
  528SOL     OW 2141   0.435   4.245   1.083
  528SOL    HW2 2142   0.519   4.285   1.107
  528SOL    HW3 2143   0.370   4.305   1.118
  528SOL    MW4 2144   0.438   4.258   1.091
  529SOL     OW 2145   0.652   4.375   1.191
  529SOL    HW2 2146   0.669   4.360   1.284
  529SOL    HW3 2147   0.725   4.332   1.146
  529SOL    MW4 2148   0.664   4.367   1.197
  530SOL     OW 2149   1.173   4.623   1.097
  530SOL    HW2 2150   1.190   4.534   1.128
  530SOL    HW3 2151   1.161   4.614   1.003
  530SOL    MW4 2152   1.173   4.611   1.089
  531SOL     OW 2153   0.929   0.054   1.181
  531SOL    HW2 2154   0.937   0.067   1.275
  531SOL    HW3 2155   1.008   0.006   1.156
  531SOL    MW4 2156   0.940   0.049   1.190
  532SOL     OW 2157   0.939   0.317   1.095
  532SOL    HW2 2158   0.931   0.225   1.123
  532SOL    HW3 2159   0.866   0.361   1.137
  532SOL    MW4 2160   0.929   0.310   1.104
  533SOL     OW 2161   1.136   0.489   1.200
  533SOL    HW2 2162   1.119   0.472   1.293
  533SOL    HW3 2163   1.077   0.430   1.154
  533SOL    MW4 2164   1.126   0.479   1.206
  534SOL     OW 2165   1.134   0.743   1.093
  534SOL    HW2 2166   1.052   0.783   1.121
  534SOL    HW3 2167   1.139   0.661   1.142
  534SOL    MW4 2168   1.124   0.737   1.103
  535SOL     OW 2169   0.904   0.862   1.182
  535SOL    HW2 2170   0.886   0.956   1.180
  535SOL    HW3 2171   0.825   0.821   1.149
  535SOL    MW4 2172   0.891   0.869   1.178
  536SOL     OW 2173   0.903   1.143   1.131
  536SOL    HW2 2174   0.985   1.183   1.160
  536SOL    HW3 2175   0.919   1.121   1.039
  536SOL    MW4 2176   0.916   1.145   1.123
  537SOL     OW 2177   1.145   1.260   1.222
  537SOL    HW2 2178   1.154   1.253   1.317
  537SOL    HW3 2179   1.223   1.216   1.187
  537SOL    MW4 2180   1.157   1.254   1.230
  538SOL     OW 2181   1.132   1.555   1.175
  538SOL    HW2 2182   1.123   1.474   1.226
  538SOL    HW3 2183   1.133   1.525   1.083
  538SOL    MW4 2184   1.131   1.540   1.169
  539SOL     OW 2185   0.895   1.682   1.210
  539SOL    HW2 2186   0.905   1.773   1.184
  539SOL    HW3 2187   0.978   1.640   1.185
  539SOL    MW4 2188   0.907   1.688   1.204
  540SOL     OW 2189   0.900   1.948   1.125
  540SOL    HW2 2190   0.976   1.986   1.170
  540SOL    HW3 2191   0.824   1.986   1.170
  540SOL    MW4 2192   0.900   1.958   1.137
  541SOL     OW 2193   1.130   2.049   1.275
  541SOL    HW2 2194   1.124   2.064   1.369
  541SOL    HW3 2195   1.149   2.136   1.238
  541SOL    MW4 2196   1.132   2.063   1.282
  542SOL     OW 2197   1.145   2.322   1.180
  542SOL    HW2 2198   1.231   2.362   1.193
  542SOL    HW3 2199   1.084   2.386   1.216
  542SOL    MW4 2200   1.148   2.336   1.186
  543SOL     OW 2201   0.937   2.475   1.278
  543SOL    HW2 2202   0.919   2.464   1.371
  543SOL    HW3 2203   0.897   2.399   1.236
  543SOL    MW4 2204   0.930   2.463   1.284
  544SOL     OW 2205   0.912   2.717   1.126
  544SOL    HW2 2206   0.915   2.644   1.187
  544SOL    HW3 2207   0.830   2.762   1.147
  544SOL    MW4 2208   0.901   2.713   1.137
  545SOL     OW 2209   1.146   2.853   1.182
  545SOL    HW2 2210   1.152   2.839   1.277
  545SOL    HW3 2211   1.083   2.788   1.152
  545SOL    MW4 2212   1.139   2.842   1.191
  546SOL     OW 2213   1.162   3.107   1.085
  546SOL    HW2 2214   1.160   3.017   1.119
  546SOL    HW3 2215   1.174   3.097   0.991
  546SOL    MW4 2216   1.163   3.094   1.077
  547SOL     OW 2217   0.924   3.228   1.188
  547SOL    HW2 2218   0.908   3.316   1.154
  547SOL    HW3 2219   1.009   3.203   1.153
  547SOL    MW4 2220   0.933   3.236   1.179
  548SOL     OW 2221   0.937   3.500   1.100
  548SOL    HW2 2222   0.856   3.545   1.123
  548SOL    HW3 2223   0.934   3.493   1.005
  548SOL    MW4 2224   0.926   3.505   1.091
  549SOL     OW 2225   1.114   3.645   1.249
  549SOL    HW2 2226   1.197   3.600   1.235
  549SOL    HW3 2227   1.051   3.598   1.194
  549SOL    MW4 2228   1.117   3.633   1.240
  550SOL     OW 2229   1.171   3.867   1.086
  550SOL    HW2 2230   1.089   3.916   1.099
  550SOL    HW3 2231   1.168   3.798   1.153
  550SOL    MW4 2232   1.159   3.865   1.097
  551SOL     OW 2233   0.925   3.978   1.155
  551SOL    HW2 2234   0.922   3.957   1.249
  551SOL    HW3 2235   0.857   3.923   1.116
  551SOL    MW4 2236   0.916   3.968   1.163
  552SOL     OW 2237   0.872   4.249   1.098
  552SOL    HW2 2238   0.886   4.164   1.139
  552SOL    HW3 2239   0.894   4.236   1.006
  552SOL    MW4 2240   0.877   4.236   1.091
  553SOL     OW 2241   1.127   4.340   1.155
  553SOL    HW2 2242   1.131   4.317   1.248
  553SOL    HW3 2243   1.038   4.320   1.129
  553SOL    MW4 2244   1.116   4.335   1.164
  554SOL     OW 2245   1.625   4.648   1.176
  554SOL    HW2 2246   1.702   4.696   1.208
  554SOL    HW3 2247   1.629   4.564   1.222
  554SOL    MW4 2248   1.636   4.643   1.186
  555SOL     OW 2249   1.381   0.122   1.197
  555SOL    HW2 2250   1.461   0.074   1.179
  555SOL    HW3 2251   1.311   0.067   1.162
  555SOL    MW4 2252   1.382   0.109   1.190
  556SOL     OW 2253   1.373   0.377   1.077
  556SOL    HW2 2254   1.377   0.292   1.120
  556SOL    HW3 2255   1.298   0.421   1.117
  556SOL    MW4 2256   1.364   0.372   1.088
  557SOL     OW 2257   1.590   0.465   1.201
  557SOL    HW2 2258   1.592   0.556   1.172
  557SOL    HW3 2259   1.519   0.425   1.150
  557SOL    MW4 2260   1.581   0.472   1.190
  558SOL     OW 2261   1.562   0.732   1.101
  558SOL    HW2 2262   1.639   0.769   1.145
  558SOL    HW3 2263   1.573   0.757   1.009
  558SOL    MW4 2264   1.573   0.740   1.095
  559SOL     OW 2265   1.352   0.856   1.220
  559SOL    HW2 2266   1.430   0.832   1.169
  559SOL    HW3 2267   1.278   0.825   1.167
  559SOL    MW4 2268   1.353   0.849   1.206
  560SOL     OW 2269   1.366   1.124   1.121
  560SOL    HW2 2270   1.374   1.033   1.150
  560SOL    HW3 2271   1.367   1.119   1.026
  560SOL    MW4 2272   1.367   1.111   1.113
  561SOL     OW 2273   1.587   1.270   1.229
  561SOL    HW2 2274   1.662   1.222   1.194
  561SOL    HW3 2275   1.511   1.221   1.197
  561SOL    MW4 2276   1.587   1.257   1.220
  562SOL     OW 2277   1.622   1.522   1.086
  562SOL    HW2 2278   1.675   1.572   1.147
  562SOL    HW3 2279   1.604   1.439   1.131
  562SOL    MW4 2280   1.626   1.518   1.100
  563SOL     OW 2281   1.398   1.649   1.214
  563SOL    HW2 2282   1.464   1.608   1.157
  563SOL    HW3 2283   1.314   1.621   1.177
  563SOL    MW4 2284   1.396   1.640   1.202
  564SOL     OW 2285   1.356   1.948   1.143
  564SOL    HW2 2286   1.368   1.863   1.184
  564SOL    HW3 2287   1.279   1.985   1.187
  564SOL    MW4 2288   1.347   1.942   1.154
  565SOL     OW 2289   1.595   2.057   1.221
  565SOL    HW2 2290   1.600   2.142   1.177
  565SOL    HW3 2291   1.516   2.016   1.187
  565SOL    MW4 2292   1.585   2.063   1.211
  566SOL     OW 2293   1.596   2.310   1.079
  566SOL    HW2 2294   1.542   2.375   1.124
  566SOL    HW3 2295   1.576   2.321   0.986
  566SOL    MW4 2296   1.586   2.320   1.073
  567SOL     OW 2297   1.421   2.459   1.225
  567SOL    HW2 2298   1.388   2.450   1.314
  567SOL    HW3 2299   1.419   2.553   1.207
  567SOL    MW4 2300   1.416   2.470   1.234
  568SOL     OW 2301   1.377   2.722   1.120
  568SOL    HW2 2302   1.456   2.766   1.152
  568SOL    HW3 2303   1.310   2.789   1.121
  568SOL    MW4 2304   1.379   2.737   1.124
  569SOL     OW 2305   1.611   2.847   1.187
  569SOL    HW2 2306   1.693   2.813   1.152
  569SOL    HW3 2307   1.610   2.939   1.161
  569SOL    MW4 2308   1.622   2.855   1.179
  570SOL     OW 2309   1.592   3.120   1.073
  570SOL    HW2 2310   1.674   3.139   1.121
  570SOL    HW3 2311   1.523   3.155   1.129
  570SOL    MW4 2312   1.594   3.127   1.087
  571SOL     OW 2313   1.369   3.239   1.191
  571SOL    HW2 2314   1.355   3.242   1.286
  571SOL    HW3 2315   1.290   3.199   1.156
  571SOL    MW4 2316   1.357   3.234   1.199
  572SOL     OW 2317   1.335   3.511   1.164
  572SOL    HW2 2318   1.344   3.416   1.171
  572SOL    HW3 2319   1.328   3.527   1.070
  572SOL    MW4 2320   1.335   3.500   1.152
  573SOL     OW 2321   1.583   3.590   1.204
  573SOL    HW2 2322   1.595   3.685   1.194
  573SOL    HW3 2323   1.490   3.575   1.188
  573SOL    MW4 2324   1.573   3.601   1.200
  574SOL     OW 2325   1.603   3.866   1.173
  574SOL    HW2 2326   1.536   3.925   1.207
  574SOL    HW3 2327   1.586   3.862   1.079
  574SOL    MW4 2328   1.592   3.873   1.165
  575SOL     OW 2329   1.366   4.016   1.221
  575SOL    HW2 2330   1.363   4.104   1.181
  575SOL    HW3 2331   1.301   3.966   1.173
  575SOL    MW4 2332   1.357   4.021   1.209
  576SOL     OW 2333   1.375   4.254   1.096
  576SOL    HW2 2334   1.281   4.269   1.106
  576SOL    HW3 2335   1.390   4.256   1.002
  576SOL    MW4 2336   1.365   4.256   1.085
  577SOL     OW 2337   1.576   4.381   1.256
  577SOL    HW2 2338   1.583   4.337   1.341
  577SOL    HW3 2339   1.497   4.344   1.216
  577SOL    MW4 2340   1.567   4.371   1.262
  578SOL     OW 2341   2.029   4.653   1.096
  578SOL    HW2 2342   2.000   4.564   1.117
  578SOL    HW3 2343   1.982   4.676   1.016
  578SOL    MW4 2344   2.019   4.644   1.089
  579SOL     OW 2345   1.828   0.137   1.247
  579SOL    HW2 2346   1.823   0.213   1.188
  579SOL    HW3 2347   1.904   0.088   1.215
  579SOL    MW4 2348   1.838   0.140   1.235
  580SOL     OW 2349   1.810   0.375   1.082
  580SOL    HW2 2350   1.725   0.395   1.123
  580SOL    HW3 2351   1.791   0.374   0.988
  580SOL    MW4 2352   1.796   0.377   1.075
  581SOL     OW 2353   2.046   0.494   1.204
  581SOL    HW2 2354   2.021   0.489   1.296
  581SOL    HW3 2355   1.975   0.451   1.157
  581SOL    MW4 2356   2.033   0.488   1.210
  582SOL     OW 2357   2.037   0.769   1.120
  582SOL    HW2 2358   2.061   0.682   1.151
  582SOL    HW3 2359   2.032   0.760   1.025
  582SOL    MW4 2360   2.040   0.756   1.111
  583SOL     OW 2361   1.787   0.874   1.200
  583SOL    HW2 2362   1.795   0.880   1.295
  583SOL    HW3 2363   1.874   0.848   1.170
  583SOL    MW4 2364   1.799   0.871   1.208
  584SOL     OW 2365   1.802   1.132   1.129
  584SOL    HW2 2366   1.783   1.049   1.172
  584SOL    HW3 2367   1.822   1.108   1.038
  584SOL    MW4 2368   1.802   1.118   1.122
  585SOL     OW 2369   2.041   1.251   1.235
  585SOL    HW2 2370   2.118   1.201   1.207
  585SOL    HW3 2371   1.967   1.205   1.196
  585SOL    MW4 2372   2.041   1.238   1.226
  586SOL     OW 2373   2.054   1.514   1.145
  586SOL    HW2 2374   2.038   1.423   1.169
  586SOL    HW3 2375   2.057   1.514   1.049
  586SOL    MW4 2376   2.052   1.502   1.136
  587SOL     OW 2377   1.801   1.666   1.232
  587SOL    HW2 2378   1.803   1.757   1.204
  587SOL    HW3 2379   1.872   1.624   1.183
  587SOL    MW4 2380   1.811   1.672   1.222
  588SOL     OW 2381   1.834   1.925   1.134
  588SOL    HW2 2382   1.761   1.973   1.173
  588SOL    HW3 2383   1.810   1.914   1.042
  588SOL    MW4 2384   1.822   1.930   1.127
  589SOL     OW 2385   2.071   2.084   1.184
  589SOL    HW2 2386   2.082   2.083   1.279
  589SOL    HW3 2387   1.991   2.033   1.169
  589SOL    MW4 2388   2.062   2.077   1.194
  590SOL     OW 2389   2.071   2.339   1.078
  590SOL    HW2 2390   2.154   2.382   1.096
  590SOL    HW3 2391   2.088   2.246   1.091
  590SOL    MW4 2392   2.084   2.332   1.082
  591SOL     OW 2393   1.835   2.444   1.170
  591SOL    HW2 2394   1.913   2.399   1.138
  591SOL    HW3 2395   1.762   2.393   1.135
  591SOL    MW4 2396   1.835   2.431   1.161
  592SOL     OW 2397   1.809   2.702   1.072
  592SOL    HW2 2398   1.821   2.613   1.107
  592SOL    HW3 2399   1.822   2.692   0.978
  592SOL    MW4 2400   1.813   2.689   1.064
  593SOL     OW 2401   2.016   2.850   1.207
  593SOL    HW2 2402   2.029   2.929   1.154
  593SOL    HW3 2403   1.955   2.797   1.157
  593SOL    MW4 2404   2.010   2.854   1.193
  594SOL     OW 2405   2.064   3.098   1.090
  594SOL    HW2 2406   1.994   3.149   1.132
  594SOL    HW3 2407   2.046   3.107   0.996
  594SOL    MW4 2408   2.052   3.106   1.083
  595SOL     OW 2409   1.834   3.203   1.198
  595SOL    HW2 2410   1.839   3.202   1.294
  595SOL    HW3 2411   1.806   3.292   1.177
  595SOL    MW4 2412   1.831   3.215   1.208
  596SOL     OW 2413   1.824   3.471   1.108
  596SOL    HW2 2414   1.896   3.530   1.129
  596SOL    HW3 2415   1.746   3.514   1.144
  596SOL    MW4 2416   1.823   3.485   1.115
  597SOL     OW 2417   2.069   3.614   1.148
  597SOL    HW2 2418   2.091   3.617   1.241
  597SOL    HW3 2419   2.135   3.556   1.110
  597SOL    MW4 2420   2.081   3.607   1.156
  598SOL     OW 2421   2.039   3.880   1.106
  598SOL    HW2 2422   1.963   3.912   1.156
  598SOL    HW3 2423   2.048   3.788   1.131
  598SOL    MW4 2424   2.030   3.872   1.116
  599SOL     OW 2425   1.836   4.006   1.258
  599SOL    HW2 2426   1.859   3.970   1.344
  599SOL    HW3 2427   1.760   3.955   1.230
  599SOL    MW4 2428   1.829   3.994   1.266
  600SOL     OW 2429   1.748   4.227   1.106
  600SOL    HW2 2430   1.775   4.155   1.162
  600SOL    HW3 2431   1.675   4.267   1.153
  600SOL    MW4 2432   1.742   4.223   1.120
  601SOL     OW 2433   1.994   4.367   1.153
  601SOL    HW2 2434   1.992   4.361   1.249
  601SOL    HW3 2435   1.928   4.304   1.124
  601SOL    MW4 2436   1.985   4.358   1.162
  602SOL     OW 2437   2.484   4.629   1.120
  602SOL    HW2 2438   2.556   4.689   1.138
  602SOL    HW3 2439   2.411   4.662   1.173
  602SOL    MW4 2440   2.484   4.641   1.130
  603SOL     OW 2441   2.260   0.079   1.245
  603SOL    HW2 2442   2.254   0.169   1.213
  603SOL    HW3 2443   2.181   0.036   1.212
  603SOL    MW4 2444   2.248   0.085   1.237
  604SOL     OW 2445   2.258   0.338   1.141
  604SOL    HW2 2446   2.182   0.391   1.165
  604SOL    HW3 2447   2.261   0.342   1.045
  604SOL    MW4 2448   2.248   0.345   1.132
  605SOL     OW 2449   2.486   0.482   1.204
  605SOL    HW2 2450   2.485   0.497   1.299
  605SOL    HW3 2451   2.412   0.424   1.187
  605SOL    MW4 2452   2.476   0.476   1.214
  606SOL     OW 2453   2.484   0.750   1.076
  606SOL    HW2 2454   2.492   0.664   1.120
  606SOL    HW3 2455   2.461   0.729   0.986
  606SOL    MW4 2456   2.482   0.736   1.070
  607SOL     OW 2457   2.261   0.842   1.240
  607SOL    HW2 2458   2.310   0.791   1.177
  607SOL    HW3 2459   2.171   0.839   1.208
  607SOL    MW4 2460   2.255   0.835   1.228
  608SOL     OW 2461   2.267   1.107   1.160
  608SOL    HW2 2462   2.342   1.166   1.166
  608SOL    HW3 2463   2.292   1.031   1.212
  608SOL    MW4 2464   2.280   1.105   1.168
  609SOL     OW 2465   2.487   1.249   1.220
  609SOL    HW2 2466   2.578   1.221   1.207
  609SOL    HW3 2467   2.486   1.340   1.190
  609SOL    MW4 2468   2.499   1.257   1.214
  610SOL     OW 2469   2.487   1.502   1.122
  610SOL    HW2 2470   2.414   1.539   1.171
  610SOL    HW3 2471   2.468   1.523   1.030
  610SOL    MW4 2472   2.475   1.510   1.116
  611SOL     OW 2473   2.267   1.658   1.219
  611SOL    HW2 2474   2.260   1.735   1.163
  611SOL    HW3 2475   2.186   1.609   1.202
  611SOL    MW4 2476   2.256   1.662   1.209
  612SOL     OW 2477   2.279   1.916   1.090
  612SOL    HW2 2478   2.208   1.972   1.120
  612SOL    HW3 2479   2.274   1.921   0.994
  612SOL    MW4 2480   2.269   1.924   1.081
  613SOL     OW 2481   2.491   2.051   1.226
  613SOL    HW2 2482   2.570   2.016   1.184
  613SOL    HW3 2483   2.419   2.005   1.183
  613SOL    MW4 2484   2.492   2.040   1.215
  614SOL     OW 2485   2.517   2.301   1.109
  614SOL    HW2 2486   2.510   2.209   1.137
  614SOL    HW3 2487   2.506   2.298   1.014
  614SOL    MW4 2488   2.515   2.288   1.100
  615SOL     OW 2489   2.295   2.474   1.176
  615SOL    HW2 2490   2.293   2.464   1.271
  615SOL    HW3 2491   2.369   2.422   1.148
  615SOL    MW4 2492   2.304   2.466   1.185
  616SOL     OW 2493   2.232   2.734   1.098
  616SOL    HW2 2494   2.244   2.645   1.132
  616SOL    HW3 2495   2.154   2.766   1.144
  616SOL    MW4 2496   2.223   2.726   1.109
  617SOL     OW 2497   2.475   2.845   1.208
  617SOL    HW2 2498   2.491   2.805   1.294
  617SOL    HW3 2499   2.386   2.818   1.186
  617SOL    MW4 2500   2.465   2.836   1.216
  618SOL     OW 2501   2.459   3.100   1.090
  618SOL    HW2 2502   2.389   3.150   1.132
  618SOL    HW3 2503   2.461   3.017   1.137
  618SOL    MW4 2504   2.450   3.096   1.102
  619SOL     OW 2505   2.259   3.231   1.230
  619SOL    HW2 2506   2.267   3.311   1.178
  619SOL    HW3 2507   2.201   3.175   1.179
  619SOL    MW4 2508   2.253   3.234   1.217
  620SOL     OW 2509   2.286   3.459   1.053
  620SOL    HW2 2510   2.350   3.518   1.093
  620SOL    HW3 2511   2.288   3.481   0.960
  620SOL    MW4 2512   2.295   3.470   1.046
  621SOL     OW 2513   2.495   3.600   1.195
  621SOL    HW2 2514   2.491   3.598   1.291
  621SOL    HW3 2515   2.492   3.693   1.173
  621SOL    MW4 2516   2.494   3.612   1.205
  622SOL     OW 2517   2.471   3.855   1.089
  622SOL    HW2 2518   2.407   3.926   1.093
  622SOL    HW3 2519   2.502   3.857   0.998
  622SOL    MW4 2520   2.467   3.865   1.077
  623SOL     OW 2521   2.250   4.005   1.242
  623SOL    HW2 2522   2.257   4.092   1.203
  623SOL    HW3 2523   2.177   3.964   1.195
  623SOL    MW4 2524   2.241   4.011   1.231
  624SOL     OW 2525   2.262   4.261   1.129
  624SOL    HW2 2526   2.176   4.303   1.135
  624SOL    HW3 2527   2.272   4.241   1.035
  624SOL    MW4 2528   2.252   4.264   1.117
  625SOL     OW 2529   2.519   4.365   1.210
  625SOL    HW2 2530   2.430   4.330   1.205
  625SOL    HW3 2531   2.510   4.456   1.182
  625SOL    MW4 2532   2.506   4.373   1.206
  626SOL     OW 2533   2.940   0.013   1.145
  626SOL    HW2 2534   2.945  -0.075   1.183
  626SOL    HW3 2535   2.924  -0.003   1.052
  626SOL    MW4 2536   2.938  -0.001   1.137
  627SOL     OW 2537   2.702   0.119   1.215
  627SOL    HW2 2538   2.698   0.115   1.310
  627SOL    HW3 2539   2.787   0.081   1.193
  627SOL    MW4 2540   2.713   0.114   1.224
  628SOL     OW 2541   2.721   0.375   1.129
  628SOL    HW2 2542   2.722   0.288   1.168
  628SOL    HW3 2543   2.639   0.414   1.158
  628SOL    MW4 2544   2.711   0.369   1.138
  629SOL     OW 2545   2.935   0.485   1.272
  629SOL    HW2 2546   2.940   0.581   1.268
  629SOL    HW3 2547   2.851   0.464   1.232
  629SOL    MW4 2548   2.925   0.495   1.266
  630SOL     OW 2549   2.921   0.743   1.138
  630SOL    HW2 2550   3.000   0.789   1.168
  630SOL    HW3 2551   2.849   0.798   1.169
  630SOL    MW4 2552   2.922   0.757   1.146
  631SOL     OW 2553   2.702   0.875   1.238
  631SOL    HW2 2554   2.718   0.968   1.223
  631SOL    HW3 2555   2.626   0.855   1.185
  631SOL    MW4 2556   2.694   0.884   1.229
  632SOL     OW 2557   2.728   1.143   1.145
  632SOL    HW2 2558   2.814   1.177   1.166
  632SOL    HW3 2559   2.717   1.160   1.051
  632SOL    MW4 2560   2.738   1.150   1.135
  633SOL     OW 2561   2.967   1.302   1.229
  633SOL    HW2 2562   2.952   1.299   1.323
  633SOL    HW3 2563   2.943   1.391   1.203
  633SOL    MW4 2564   2.962   1.313   1.238
  634SOL     OW 2565   2.915   1.549   1.120
  634SOL    HW2 2566   3.001   1.576   1.154
  634SOL    HW3 2567   2.921   1.564   1.026
  634SOL    MW4 2568   2.928   1.555   1.112
  635SOL     OW 2569   2.685   1.690   1.220
  635SOL    HW2 2570   2.763   1.662   1.172
  635SOL    HW3 2571   2.616   1.631   1.189
  635SOL    MW4 2572   2.686   1.678   1.210
  636SOL     OW 2573   2.713   1.957   1.122
  636SOL    HW2 2574   2.790   1.999   1.161
  636SOL    HW3 2575   2.708   1.872   1.166
  636SOL    MW4 2576   2.723   1.951   1.133
  637SOL     OW 2577   2.926   2.085   1.241
  637SOL    HW2 2578   2.947   2.090   1.334
  637SOL    HW3 2579   2.952   2.170   1.206
  637SOL    MW4 2580   2.933   2.097   1.248
  638SOL     OW 2581   2.973   2.309   1.073
  638SOL    HW2 2582   3.049   2.349   1.117
  638SOL    HW3 2583   2.898   2.342   1.122
  638SOL    MW4 2584   2.973   2.319   1.085
  639SOL     OW 2585   2.747   2.417   1.203
  639SOL    HW2 2586   2.733   2.423   1.297
  639SOL    HW3 2587   2.666   2.379   1.169
  639SOL    MW4 2588   2.734   2.413   1.211
  640SOL     OW 2589   2.694   2.685   1.133
  640SOL    HW2 2590   2.707   2.598   1.170
  640SOL    HW3 2591   2.604   2.708   1.157
  640SOL    MW4 2592   2.684   2.676   1.141
  641SOL     OW 2593   2.943   2.792   1.192
  641SOL    HW2 2594   2.945   2.805   1.287
  641SOL    HW3 2595   2.858   2.752   1.175
  641SOL    MW4 2596   2.932   2.788   1.203
  642SOL     OW 2597   2.930   3.065   1.116
  642SOL    HW2 2598   2.937   2.976   1.151
  642SOL    HW3 2599   2.933   3.054   1.021
  642SOL    MW4 2600   2.931   3.052   1.108
  643SOL     OW 2601   2.693   3.193   1.188
  643SOL    HW2 2602   2.768   3.146   1.152
  643SOL    HW3 2603   2.617   3.146   1.153
  643SOL    MW4 2604   2.693   3.180   1.178
  644SOL     OW 2605   2.688   3.430   1.056
  644SOL    HW2 2606   2.689   3.349   1.108
  644SOL    HW3 2607   2.629   3.487   1.104
  644SOL    MW4 2608   2.681   3.427   1.069
  645SOL     OW 2609   2.887   3.548   1.210
  645SOL    HW2 2610   2.971   3.515   1.178
  645SOL    HW3 2611   2.821   3.501   1.158
  645SOL    MW4 2612   2.889   3.538   1.199
  646SOL     OW 2613   2.904   3.808   1.118
  646SOL    HW2 2614   2.985   3.845   1.154
  646SOL    HW3 2615   2.898   3.721   1.157
  646SOL    MW4 2616   2.914   3.801   1.128
  647SOL     OW 2617   2.691   3.967   1.205
  647SOL    HW2 2618   2.762   3.907   1.183
  647SOL    HW3 2619   2.613   3.926   1.167
  647SOL    MW4 2620   2.690   3.954   1.197
  648SOL     OW 2621   2.693   4.222   1.079
  648SOL    HW2 2622   2.705   4.141   1.129
  648SOL    HW3 2623   2.617   4.264   1.118
  648SOL    MW4 2624   2.685   4.217   1.091
  649SOL     OW 2625   2.913   4.416   1.213
  649SOL    HW2 2626   2.961   4.334   1.202
  649SOL    HW3 2627   2.822   4.393   1.196
  649SOL    MW4 2628   2.907   4.402   1.209
  650SOL     OW 2629   3.405   4.620   1.146
  650SOL    HW2 2630   3.481   4.664   1.186
  650SOL    HW3 2631   3.332   4.679   1.163
  650SOL    MW4 2632   3.406   4.634   1.154
  651SOL     OW 2633   3.185   0.102   1.235
  651SOL    HW2 2634   3.175   0.103   1.330
  651SOL    HW3 2635   3.107   0.057   1.203
  651SOL    MW4 2636   3.173   0.096   1.243
  652SOL     OW 2637   3.143   0.364   1.150
  652SOL    HW2 2638   3.142   0.274   1.183
  652SOL    HW3 2639   3.069   0.406   1.194
  652SOL    MW4 2640   3.133   0.357   1.160
  653SOL     OW 2641   3.386   0.436   1.222
  653SOL    HW2 2642   3.391   0.521   1.180
  653SOL    HW3 2643   3.303   0.399   1.194
  653SOL    MW4 2644   3.376   0.442   1.213
  654SOL     OW 2645   3.411   0.725   1.139
  654SOL    HW2 2646   3.323   0.752   1.165
  654SOL    HW3 2647   3.404   0.707   1.045
  654SOL    MW4 2648   3.398   0.726   1.130
  655SOL     OW 2649   3.165   0.851   1.202
  655SOL    HW2 2650   3.162   0.844   1.297
  655SOL    HW3 2651   3.182   0.944   1.185
  655SOL    MW4 2652   3.167   0.862   1.212
  656SOL     OW 2653   3.177   1.133   1.145
  656SOL    HW2 2654   3.259   1.177   1.169
  656SOL    HW3 2655   3.108   1.192   1.178
  656SOL    MW4 2656   3.178   1.147   1.153
  657SOL     OW 2657   3.386   1.280   1.230
  657SOL    HW2 2658   3.385   1.283   1.325
  657SOL    HW3 2659   3.398   1.372   1.204
  657SOL    MW4 2660   3.388   1.293   1.239
  658SOL     OW 2661   3.407   1.545   1.126
  658SOL    HW2 2662   3.478   1.587   1.174
  658SOL    HW3 2663   3.328   1.586   1.159
  658SOL    MW4 2664   3.406   1.556   1.136
  659SOL     OW 2665   3.162   1.654   1.190
  659SOL    HW2 2666   3.182   1.671   1.282
  659SOL    HW3 2667   3.147   1.741   1.153
  659SOL    MW4 2668   3.163   1.668   1.197
  660SOL     OW 2669   3.102   1.910   1.114
  660SOL    HW2 2670   3.184   1.939   1.154
  660SOL    HW3 2671   3.037   1.973   1.145
  660SOL    MW4 2672   3.104   1.922   1.124
  661SOL     OW 2673   3.345   2.007   1.218
  661SOL    HW2 2674   3.424   1.952   1.212
  661SOL    HW3 2675   3.371   2.090   1.178
  661SOL    MW4 2676   3.359   2.011   1.212
  662SOL     OW 2677   3.397   2.276   1.110
  662SOL    HW2 2678   3.470   2.328   1.145
  662SOL    HW3 2679   3.320   2.330   1.126
  662SOL    MW4 2680   3.396   2.290   1.117
  663SOL     OW 2681   3.189   2.426   1.196
  663SOL    HW2 2682   3.162   2.453   1.284
  663SOL    HW3 2683   3.170   2.501   1.140
  663SOL    MW4 2684   3.183   2.439   1.200
  664SOL     OW 2685   3.153   2.677   1.080
  664SOL    HW2 2686   3.073   2.710   1.122
  664SOL    HW3 2687   3.139   2.693   0.987
  664SOL    MW4 2688   3.140   2.683   1.074
  665SOL     OW 2689   3.373   2.843   1.231
  665SOL    HW2 2690   3.351   2.924   1.184
  665SOL    HW3 2691   3.309   2.779   1.200
  665SOL    MW4 2692   3.362   2.846   1.221
  666SOL     OW 2693   3.366   3.077   1.064
  666SOL    HW2 2694   3.438   3.118   1.112
  666SOL    HW3 2695   3.287   3.119   1.098
  666SOL    MW4 2696   3.365   3.088   1.075
  667SOL     OW 2697   3.155   3.197   1.195
  667SOL    HW2 2698   3.156   3.282   1.152
  667SOL    HW3 2699   3.080   3.151   1.156
  667SOL    MW4 2700   3.145   3.202   1.184
  668SOL     OW 2701   3.144   3.450   1.109
  668SOL    HW2 2702   3.223   3.500   1.132
  668SOL    HW3 2703   3.146   3.445   1.014
  668SOL    MW4 2704   3.155   3.456   1.100
  669SOL     OW 2705   3.369   3.599   1.183
  669SOL    HW2 2706   3.377   3.611   1.278
  669SOL    HW3 2707   3.442   3.543   1.159
  669SOL    MW4 2708   3.380   3.593   1.193
  670SOL     OW 2709   3.375   3.868   1.124
  670SOL    HW2 2710   3.282   3.881   1.144
  670SOL    HW3 2711   3.393   3.777   1.150
  670SOL    MW4 2712   3.365   3.858   1.130
  671SOL     OW 2713   3.123   3.922   1.235
  671SOL    HW2 2714   3.150   3.915   1.327
  671SOL    HW3 2715   3.100   4.014   1.224
  671SOL    MW4 2716   3.123   3.933   1.246
  672SOL     OW 2717   3.088   4.197   1.194
  672SOL    HW2 2718   3.152   4.268   1.203
  672SOL    HW3 2719   3.073   4.191   1.099
  672SOL    MW4 2720   3.095   4.206   1.182
  673SOL     OW 2721   3.324   4.364   1.207
  673SOL    HW2 2722   3.403   4.321   1.176
  673SOL    HW3 2723   3.339   4.457   1.191
  673SOL    MW4 2724   3.336   4.371   1.201
  674SOL     OW 2725   3.814   4.659   1.105
  674SOL    HW2 2726   3.815   4.568   1.136
  674SOL    HW3 2727   3.830   4.652   1.010
  674SOL    MW4 2728   3.816   4.646   1.096
  675SOL     OW 2729   3.613   0.111   1.243
  675SOL    HW2 2730   3.602   0.194   1.196
  675SOL    HW3 2731   3.686   0.068   1.199
  675SOL    MW4 2732   3.621   0.117   1.231
  676SOL     OW 2733   3.621   0.344   1.097
  676SOL    HW2 2734   3.681   0.415   1.120
  676SOL    HW3 2735   3.542   0.362   1.148
  676SOL    MW4 2736   3.618   0.356   1.107
  677SOL     OW 2737   3.801   0.514   1.217
  677SOL    HW2 2738   3.888   0.475   1.202
  677SOL    HW3 2739   3.814   0.608   1.201
  677SOL    MW4 2740   3.815   0.521   1.213
  678SOL     OW 2741   3.822   0.787   1.133
  678SOL    HW2 2742   3.898   0.836   1.165
  678SOL    HW3 2743   3.747   0.831   1.173
  678SOL    MW4 2744   3.822   0.799   1.143
  679SOL     OW 2745   3.588   0.897   1.252
  679SOL    HW2 2746   3.582   0.973   1.193
  679SOL    HW3 2747   3.527   0.833   1.215
  679SOL    MW4 2748   3.579   0.899   1.239
  680SOL     OW 2749   3.571   1.127   1.104
  680SOL    HW2 2750   3.650   1.165   1.144
  680SOL    HW3 2751   3.499   1.168   1.152
  680SOL    MW4 2752   3.572   1.137   1.116
  681SOL     OW 2753   3.777   1.251   1.251
  681SOL    HW2 2754   3.797   1.269   1.343
  681SOL    HW3 2755   3.762   1.338   1.213
  681SOL    MW4 2756   3.778   1.265   1.258
  682SOL     OW 2757   3.821   1.524   1.141
  682SOL    HW2 2758   3.890   1.581   1.174
  682SOL    HW3 2759   3.828   1.529   1.046
  682SOL    MW4 2760   3.831   1.532   1.133
  683SOL     OW 2761   3.604   1.642   1.280
  683SOL    HW2 2762   3.599   1.728   1.239
  683SOL    HW3 2763   3.686   1.604   1.248
  683SOL    MW4 2764   3.614   1.648   1.270
  684SOL     OW 2765   3.588   1.889   1.148
  684SOL    HW2 2766   3.654   1.956   1.163
  684SOL    HW3 2767   3.556   1.906   1.059
  684SOL    MW4 2768   3.592   1.900   1.138
  685SOL     OW 2769   3.777   2.078   1.202
  685SOL    HW2 2770   3.797   2.076   1.296
  685SOL    HW3 2771   3.852   2.034   1.161
  685SOL    MW4 2772   3.790   2.072   1.209
  686SOL     OW 2773   3.855   2.359   1.116
  686SOL    HW2 2774   3.936   2.365   1.166
  686SOL    HW3 2775   3.826   2.269   1.128
  686SOL    MW4 2776   3.862   2.348   1.124
  687SOL     OW 2777   3.599   2.463   1.196
  687SOL    HW2 2778   3.588   2.482   1.289
  687SOL    HW3 2779   3.686   2.424   1.189
  687SOL    MW4 2780   3.609   2.460   1.207
  688SOL     OW 2781   3.582   2.724   1.070
  688SOL    HW2 2782   3.594   2.645   1.123
  688SOL    HW3 2783   3.504   2.766   1.107
  688SOL    MW4 2784   3.573   2.719   1.082
  689SOL     OW 2785   3.825   2.808   1.189
  689SOL    HW2 2786   3.803   2.809   1.282
  689SOL    HW3 2787   3.746   2.777   1.145
  689SOL    MW4 2788   3.812   2.804   1.195
  690SOL     OW 2789   3.836   3.060   1.078
  690SOL    HW2 2790   3.842   2.974   1.119
  690SOL    HW3 2791   3.794   3.043   0.993
  690SOL    MW4 2792   3.831   3.046   1.072
  691SOL     OW 2793   3.589   3.170   1.203
  691SOL    HW2 2794   3.600   3.258   1.167
  691SOL    HW3 2795   3.666   3.121   1.173
  691SOL    MW4 2796   3.600   3.175   1.194
  692SOL     OW 2797   3.579   3.430   1.091
  692SOL    HW2 2798   3.656   3.462   1.139
  692SOL    HW3 2799   3.600   3.444   0.999
  692SOL    MW4 2800   3.592   3.436   1.085
  693SOL     OW 2801   3.801   3.564   1.196
  693SOL    HW2 2802   3.820   3.564   1.290
  693SOL    HW3 2803   3.792   3.657   1.173
  693SOL    MW4 2804   3.802   3.577   1.205
  694SOL     OW 2805   3.815   3.840   1.098
  694SOL    HW2 2806   3.748   3.883   1.152
  694SOL    HW3 2807   3.768   3.812   1.020
  694SOL    MW4 2808   3.800   3.842   1.095
  695SOL     OW 2809   3.614   3.991   1.208
  695SOL    HW2 2810   3.609   4.010   1.301
  695SOL    HW3 2811   3.524   3.969   1.183
  695SOL    MW4 2812   3.601   3.990   1.217
  696SOL     OW 2813   3.566   4.263   1.122
  696SOL    HW2 2814   3.586   4.177   1.159
  696SOL    HW3 2815   3.575   4.250   1.028
  696SOL    MW4 2816   3.570   4.250   1.114
  697SOL     OW 2817   3.804   4.412   1.215
  697SOL    HW2 2818   3.796   4.430   1.308
  697SOL    HW3 2819   3.723   4.366   1.192
  697SOL    MW4 2820   3.792   4.408   1.224
  698SOL     OW 2821   4.302   4.620   1.153
  698SOL    HW2 2822   4.289   4.525   1.152
  698SOL    HW3 2823   4.217   4.655   1.180
  698SOL    MW4 2824   4.289   4.612   1.156
  699SOL     OW 2825   4.060   0.092   1.220
  699SOL    HW2 2826   4.057   0.067   1.313
  699SOL    HW3 2827   3.984   0.049   1.181
  699SOL    MW4 2828   4.050   0.083   1.227
  700SOL     OW 2829   4.016   0.366   1.149
  700SOL    HW2 2830   4.039   0.274   1.160
  700SOL    HW3 2831   3.990   0.374   1.057
  700SOL    MW4 2832   4.016   0.355   1.138
  701SOL     OW 2833   4.241   0.489   1.238
  701SOL    HW2 2834   4.237   0.477   1.332
  701SOL    HW3 2835   4.155   0.460   1.206
  701SOL    MW4 2836   4.229   0.483   1.246
  702SOL     OW 2837   4.287   0.764   1.171
  702SOL    HW2 2838   4.267   0.672   1.190
  702SOL    HW3 2839   4.299   0.767   1.076
  702SOL    MW4 2840   4.286   0.752   1.161
  703SOL     OW 2841   4.059   0.925   1.214
  703SOL    HW2 2842   4.040   0.908   1.306
  703SOL    HW3 2843   4.127   0.862   1.191
  703SOL    MW4 2844   4.065   0.914   1.223
  704SOL     OW 2845   4.028   1.186   1.132
  704SOL    HW2 2846   4.045   1.096   1.160
  704SOL    HW3 2847   3.946   1.210   1.177
  704SOL    MW4 2848   4.019   1.178   1.142
  705SOL     OW 2849   4.294   1.282   1.243
  705SOL    HW2 2850   4.296   1.290   1.338
  705SOL    HW3 2851   4.213   1.234   1.224
  705SOL    MW4 2852   4.284   1.276   1.253
  706SOL     OW 2853   4.268   1.526   1.137
  706SOL    HW2 2854   4.272   1.444   1.187
  706SOL    HW3 2855   4.347   1.574   1.163
  706SOL    MW4 2856   4.279   1.521   1.147
  707SOL     OW 2857   4.051   1.687   1.212
  707SOL    HW2 2858   4.043   1.683   1.308
  707SOL    HW3 2859   4.139   1.652   1.194
  707SOL    MW4 2860   4.062   1.682   1.223
  708SOL     OW 2861   4.030   1.953   1.134
  708SOL    HW2 2862   4.047   1.864   1.165
  708SOL    HW3 2863   4.015   1.944   1.040
  708SOL    MW4 2864   4.031   1.940   1.126
  709SOL     OW 2865   4.266   2.081   1.248
  709SOL    HW2 2866   4.270   2.172   1.217
  709SOL    HW3 2867   4.193   2.043   1.199
  709SOL    MW4 2868   4.257   2.088   1.237
  710SOL     OW 2869   4.262   2.326   1.105
  710SOL    HW2 2870   4.191   2.362   1.160
  710SOL    HW3 2871   4.230   2.335   1.016
  710SOL    MW4 2872   4.248   2.332   1.101
  711SOL     OW 2873   4.078   2.451   1.268
  711SOL    HW2 2874   4.070   2.446   1.363
  711SOL    HW3 2875   4.066   2.543   1.247
  711SOL    MW4 2876   4.076   2.462   1.278
  712SOL     OW 2877   4.061   2.686   1.115
  712SOL    HW2 2878   3.975   2.727   1.121
  712SOL    HW3 2879   4.076   2.677   1.021
  712SOL    MW4 2880   4.051   2.690   1.103
  713SOL     OW 2881   4.256   2.849   1.217
  713SOL    HW2 2882   4.251   2.933   1.171
  713SOL    HW3 2883   4.178   2.801   1.187
  713SOL    MW4 2884   4.245   2.854   1.207
  714SOL     OW 2885   4.283   3.099   1.078
  714SOL    HW2 2886   4.208   3.150   1.107
  714SOL    HW3 2887   4.285   3.111   0.983
  714SOL    MW4 2888   4.274   3.107   1.070
  715SOL     OW 2889   4.042   3.225   1.125
  715SOL    HW2 2890   4.031   3.244   1.218
  715SOL    HW3 2891   3.972   3.163   1.105
  715SOL    MW4 2892   4.031   3.219   1.135
  716SOL     OW 2893   4.052   3.501   1.077
  716SOL    HW2 2894   4.049   3.406   1.086
  716SOL    HW3 2895   3.968   3.531   1.113
  716SOL    MW4 2896   4.040   3.492   1.083
  717SOL     OW 2897   4.287   3.614   1.193
  717SOL    HW2 2898   4.213   3.571   1.149
  717SOL    HW3 2899   4.364   3.574   1.154
  717SOL    MW4 2900   4.287   3.603   1.182
  718SOL     OW 2901   4.292   3.875   1.075
  718SOL    HW2 2902   4.213   3.919   1.105
  718SOL    HW3 2903   4.283   3.785   1.107
  718SOL    MW4 2904   4.281   3.869   1.083
  719SOL     OW 2905   4.049   4.008   1.161
  719SOL    HW2 2906   4.015   4.085   1.114
  719SOL    HW3 2907   3.993   3.936   1.131
  719SOL    MW4 2908   4.037   4.009   1.151
  720SOL     OW 2909   3.970   4.264   1.056
  720SOL    HW2 2910   3.916   4.311   1.120
  720SOL    HW3 2911   3.940   4.298   0.971
  720SOL    MW4 2912   3.959   4.275   1.053
  721SOL     OW 2913   4.215   4.324   1.210
  721SOL    HW2 2914   4.158   4.290   1.140
  721SOL    HW3 2915   4.301   4.287   1.191
  721SOL    MW4 2916   4.219   4.315   1.198
  722SOL     OW 2917   0.264   4.580   1.602
  722SOL    HW2 2918   0.343   4.628   1.577
  722SOL    HW3 2919   0.192   4.631   1.564
  722SOL    MW4 2920   0.265   4.593   1.594
  723SOL     OW 2921   0.019   0.081   1.516
  723SOL    HW2 2922  -0.065   0.038   1.531
  723SOL    HW3 2923   0.027   0.086   1.421
  723SOL    MW4 2924   0.009   0.076   1.506
  724SOL     OW 2925   0.022   0.325   1.616
  724SOL    HW2 2926   0.018   0.319   1.711
  724SOL    HW3 2927   0.026   0.235   1.586
  724SOL    MW4 2928   0.022   0.313   1.624
  725SOL     OW 2929   0.231   0.478   1.501
  725SOL    HW2 2930   0.164   0.420   1.536
  725SOL    HW3 2931   0.232   0.459   1.407
  725SOL    MW4 2932   0.222   0.467   1.493
  726SOL     OW 2933   0.212   0.763   1.551
  726SOL    HW2 2934   0.298   0.789   1.518
  726SOL    HW3 2935   0.206   0.669   1.532
  726SOL    MW4 2936   0.222   0.754   1.544
  727SOL     OW 2937   4.474   0.880   1.506
  727SOL    HW2 2938   4.461   0.966   1.545
  727SOL    HW3 2939   4.559   0.851   1.538
  727SOL    MW4 2940   4.483   0.888   1.515
  728SOL     OW 2941   4.485   1.127   1.616
  728SOL    HW2 2942   4.500   1.124   1.711
  728SOL    HW3 2943   4.567   1.160   1.580
  728SOL    MW4 2944   4.498   1.131   1.624
  729SOL     OW 2945   0.214   1.222   1.468
  729SOL    HW2 2946   0.221   1.312   1.499
  729SOL    HW3 2947   0.218   1.228   1.373
  729SOL    MW4 2948   0.215   1.235   1.460
  730SOL     OW 2949   0.217   1.481   1.577
  730SOL    HW2 2950   0.221   1.470   1.672
  730SOL    HW3 2951   0.141   1.538   1.561
  730SOL    MW4 2952   0.208   1.487   1.587
  731SOL     OW 2953   0.008   1.628   1.497
  731SOL    HW2 2954   0.021   1.719   1.525
  731SOL    HW3 2955   0.002   1.633   1.401
  731SOL    MW4 2956   0.009   1.641   1.488
  732SOL     OW 2957   4.441   1.894   1.581
  732SOL    HW2 2958   4.467   1.906   1.672
  732SOL    HW3 2959   4.374   1.961   1.565
  732SOL    MW4 2960   4.436   1.904   1.591
  733SOL     OW 2961   0.167   2.057   1.509
  733SOL    HW2 2962   0.086   2.010   1.529
  733SOL    HW3 2963   0.168   2.064   1.413
  733SOL    MW4 2964   0.156   2.051   1.499
  734SOL     OW 2965   0.203   2.323   1.546
  734SOL    HW2 2966   0.206   2.337   1.641
  734SOL    HW3 2967   0.185   2.229   1.537
  734SOL    MW4 2968   0.201   2.312   1.557
  735SOL     OW 2969   4.472   2.469   1.477
  735SOL    HW2 2970   4.400   2.429   1.526
  735SOL    HW3 2971   4.550   2.424   1.510
  735SOL    MW4 2972   4.473   2.458   1.488
  736SOL     OW 2973   0.015   2.732   1.569
  736SOL    HW2 2974  -0.070   2.775   1.555
  736SOL    HW3 2975   0.002   2.642   1.540
  736SOL    MW4 2976   0.002   2.726   1.564
  737SOL     OW 2977   0.207   2.822   1.420
  737SOL    HW2 2978   0.275   2.764   1.454
  737SOL    HW3 2979   0.127   2.796   1.465
  737SOL    MW4 2980   0.205   2.811   1.430
  738SOL     OW 2981   0.224   3.078   1.559
  738SOL    HW2 2982   0.139   3.118   1.540
  738SOL    HW3 2983   0.221   2.994   1.513
  738SOL    MW4 2984   0.213   3.072   1.550
  739SOL     OW 2985   0.010   3.226   1.463
  739SOL    HW2 2986  -0.001   3.313   1.503
  739SOL    HW3 2987   0.014   3.243   1.369
  739SOL    MW4 2988   0.009   3.240   1.456
  740SOL     OW 2989   0.006   3.480   1.577
  740SOL    HW2 2990   0.001   3.489   1.672
  740SOL    HW3 2991  -0.075   3.520   1.545
  740SOL    MW4 2992  -0.006   3.486   1.585
  741SOL     OW 2993   0.259   3.580   1.464
  741SOL    HW2 2994   0.245   3.668   1.499
  741SOL    HW3 2995   0.188   3.528   1.502
  741SOL    MW4 2996   0.248   3.585   1.474
  742SOL     OW 2997   0.241   3.833   1.596
  742SOL    HW2 2998   0.260   3.846   1.689
  742SOL    HW3 2999   0.305   3.888   1.550
  742SOL    MW4 3000   0.252   3.842   1.602
  743SOL     OW 3001   0.041   3.976   1.471
  743SOL    HW2 3002   0.040   4.060   1.516
  743SOL    HW3 3003   0.116   3.929   1.509
  743SOL    MW4 3004   0.051   3.981   1.482
  744SOL     OW 3005   4.479   4.223   1.556
  744SOL    HW2 3006   4.480   4.242   1.650
  744SOL    HW3 3007   4.399   4.264   1.524
  744SOL    MW4 3008   4.469   4.231   1.564
  745SOL     OW 3009   0.231   4.329   1.487
  745SOL    HW2 3010   0.150   4.279   1.495
  745SOL    HW3 3011   0.220   4.402   1.549
  745SOL    MW4 3012   0.219   4.332   1.496
  746SOL     OW 3013   0.702   4.604   1.572
  746SOL    HW2 3014   0.773   4.659   1.540
  746SOL    HW3 3015   0.622   4.653   1.549
  746SOL    MW4 3016   0.701   4.618   1.565
  747SOL     OW 3017   0.483   0.087   1.493
  747SOL    HW2 3018   0.480   0.179   1.518
  747SOL    HW3 3019   0.459   0.087   1.400
  747SOL    MW4 3020   0.480   0.099   1.484
  748SOL     OW 3021   0.464   0.343   1.592
  748SOL    HW2 3022   0.541   0.391   1.562
  748SOL    HW3 3023   0.390   0.394   1.559
  748SOL    MW4 3024   0.464   0.356   1.584
  749SOL     OW 3025   0.722   0.449   1.486
  749SOL    HW2 3026   0.725   0.539   1.518
  749SOL    HW3 3027   0.718   0.457   1.391
  749SOL    MW4 3028   0.722   0.462   1.478
  750SOL     OW 3029   0.718   0.708   1.559
  750SOL    HW2 3030   0.715   0.728   1.653
  750SOL    HW3 3031   0.771   0.778   1.521
  750SOL    MW4 3032   0.725   0.720   1.566
  751SOL     OW 3033   0.466   0.836   1.464
  751SOL    HW2 3034   0.456   0.928   1.490
  751SOL    HW3 3035   0.531   0.801   1.525
  751SOL    MW4 3036   0.473   0.844   1.476
  752SOL     OW 3037   0.430   1.085   1.576
  752SOL    HW2 3038   0.509   1.138   1.565
  752SOL    HW3 3039   0.361   1.137   1.535
  752SOL    MW4 3040   0.431   1.099   1.569
  753SOL     OW 3041   0.657   1.235   1.523
  753SOL    HW2 3042   0.662   1.326   1.552
  753SOL    HW3 3043   0.663   1.240   1.428
  753SOL    MW4 3044   0.658   1.248   1.514
  754SOL     OW 3045   0.664   1.491   1.605
  754SOL    HW2 3046   0.723   1.559   1.573
  754SOL    HW3 3047   0.576   1.523   1.583
  754SOL    MW4 3048   0.660   1.504   1.598
  755SOL     OW 3049   0.449   1.639   1.478
  755SOL    HW2 3050   0.427   1.726   1.509
  755SOL    HW3 3051   0.379   1.583   1.510
  755SOL    MW4 3052   0.437   1.643   1.486
  756SOL     OW 3053   0.397   1.895   1.544
  756SOL    HW2 3054   0.396   1.884   1.639
  756SOL    HW3 3055   0.318   1.945   1.524
  756SOL    MW4 3056   0.387   1.900   1.553
  757SOL     OW 3057   0.637   2.036   1.523
  757SOL    HW2 3058   0.695   1.976   1.569
  757SOL    HW3 3059   0.552   1.992   1.523
  757SOL    MW4 3060   0.633   2.022   1.529
  758SOL     OW 3061   0.665   2.313   1.621
  758SOL    HW2 3062   0.587   2.357   1.588
  758SOL    HW3 3063   0.650   2.220   1.602
  758SOL    MW4 3064   0.653   2.307   1.614
  759SOL     OW 3065   0.458   2.444   1.461
  759SOL    HW2 3066   0.447   2.537   1.479
  759SOL    HW3 3067   0.379   2.403   1.497
  759SOL    MW4 3068   0.446   2.451   1.468
  760SOL     OW 3069   0.426   2.699   1.552
  760SOL    HW2 3070   0.413   2.690   1.647
  760SOL    HW3 3071   0.512   2.740   1.544
  760SOL    MW4 3072   0.436   2.704   1.564
  761SOL     OW 3073   0.666   2.809   1.510
  761SOL    HW2 3074   0.639   2.899   1.526
  761SOL    HW3 3075   0.671   2.801   1.415
  761SOL    MW4 3076   0.663   2.820   1.500
  762SOL     OW 3077   0.645   3.094   1.582
  762SOL    HW2 3078   0.723   3.136   1.545
  762SOL    HW3 3079   0.572   3.145   1.550
  762SOL    MW4 3080   0.646   3.106   1.573
  763SOL     OW 3081   0.427   3.213   1.437
  763SOL    HW2 3082   0.352   3.165   1.473
  763SOL    HW3 3083   0.423   3.198   1.343
  763SOL    MW4 3084   0.417   3.205   1.430
  764SOL     OW 3085   0.479   3.475   1.586
  764SOL    HW2 3086   0.458   3.389   1.550
  764SOL    HW3 3087   0.402   3.529   1.569
  764SOL    MW4 3088   0.466   3.471   1.579
  765SOL     OW 3089   0.687   3.595   1.465
  765SOL    HW2 3090   0.768   3.551   1.492
  765SOL    HW3 3091   0.617   3.541   1.503
  765SOL    MW4 3092   0.688   3.582   1.474
  766SOL     OW 3093   0.683   3.864   1.565
  766SOL    HW2 3094   0.756   3.899   1.514
  766SOL    HW3 3095   0.687   3.769   1.552
  766SOL    MW4 3096   0.693   3.856   1.556
  767SOL     OW 3097   0.449   3.986   1.499
  767SOL    HW2 3098   0.526   3.940   1.534
  767SOL    HW3 3099   0.468   3.998   1.406
  767SOL    MW4 3100   0.462   3.981   1.492
  768SOL     OW 3101   0.467   4.223   1.598
  768SOL    HW2 3102   0.457   4.130   1.575
  768SOL    HW3 3103   0.386   4.263   1.569
  768SOL    MW4 3104   0.455   4.216   1.591
  769SOL     OW 3105   0.692   4.340   1.481
  769SOL    HW2 3106   0.621   4.299   1.530
  769SOL    HW3 3107   0.700   4.428   1.520
  769SOL    MW4 3108   0.684   4.347   1.493
  770SOL     OW 3109   1.160   4.559   1.541
  770SOL    HW2 3110   1.163   4.568   1.636
  770SOL    HW3 3111   1.217   4.629   1.508
  770SOL    MW4 3112   1.168   4.569   1.549
  771SOL     OW 3113   0.924   0.064   1.468
  771SOL    HW2 3114   0.947   0.134   1.529
  771SOL    HW3 3115   0.985  -0.007   1.488
  771SOL    MW4 3116   0.935   0.064   1.478
  772SOL     OW 3117   0.922   0.309   1.627
  772SOL    HW2 3118   0.893   0.322   1.718
  772SOL    HW3 3119   0.853   0.348   1.574
  772SOL    MW4 3120   0.909   0.316   1.632
  773SOL     OW 3121   1.130   0.447   1.477
  773SOL    HW2 3122   1.142   0.529   1.525
  773SOL    HW3 3123   1.060   0.402   1.525
  773SOL    MW4 3124   1.122   0.452   1.490
  774SOL     OW 3125   1.174   0.704   1.572
  774SOL    HW2 3126   1.141   0.719   1.660
  774SOL    HW3 3127   1.223   0.783   1.550
  774SOL    MW4 3128   1.176   0.716   1.581
  775SOL     OW 3129   0.933   0.851   1.450
  775SOL    HW2 3130   0.997   0.782   1.467
  775SOL    HW3 3131   0.916   0.846   1.356
  775SOL    MW4 3132   0.939   0.841   1.440
  776SOL     OW 3133   0.922   1.105   1.580
  776SOL    HW2 3134   0.911   1.014   1.553
  776SOL    HW3 3135   0.837   1.146   1.562
  776SOL    MW4 3136   0.909   1.098   1.574
  777SOL     OW 3137   1.124   1.283   1.511
  777SOL    HW2 3138   1.201   1.257   1.561
  777SOL    HW3 3139   1.053   1.230   1.547
  777SOL    MW4 3140   1.125   1.272   1.523
  778SOL     OW 3141   1.081   1.543   1.571
  778SOL    HW2 3142   1.171   1.576   1.564
  778SOL    HW3 3143   1.087   1.451   1.548
  778SOL    MW4 3144   1.093   1.535   1.567
  779SOL     OW 3145   0.840   1.676   1.487
  779SOL    HW2 3146   0.919   1.628   1.512
  779SOL    HW3 3147   0.847   1.685   1.392
  779SOL    MW4 3148   0.851   1.671   1.477
  780SOL     OW 3149   0.865   1.909   1.630
  780SOL    HW2 3150   0.939   1.963   1.602
  780SOL    HW3 3151   0.879   1.825   1.586
  780SOL    MW4 3152   0.876   1.905   1.620
  781SOL     OW 3153   1.093   2.035   1.547
  781SOL    HW2 3154   1.174   1.985   1.558
  781SOL    HW3 3155   1.116   2.123   1.576
  781SOL    MW4 3156   1.107   2.040   1.553
  782SOL     OW 3157   1.131   2.297   1.612
  782SOL    HW2 3158   1.198   2.340   1.559
  782SOL    HW3 3159   1.049   2.337   1.584
  782SOL    MW4 3160   1.129   2.308   1.601
  783SOL     OW 3161   0.893   2.434   1.541
  783SOL    HW2 3162   0.885   2.529   1.548
  783SOL    HW3 3163   0.805   2.401   1.556
  783SOL    MW4 3164   0.881   2.442   1.544
  784SOL     OW 3165   0.934   2.721   1.572
  784SOL    HW2 3166   0.934   2.734   1.667
  784SOL    HW3 3167   0.854   2.764   1.541
  784SOL    MW4 3168   0.923   2.728   1.580
  785SOL     OW 3169   1.159   2.839   1.456
  785SOL    HW2 3170   1.141   2.926   1.491
  785SOL    HW3 3171   1.086   2.785   1.486
  785SOL    MW4 3172   1.147   2.843   1.465
  786SOL     OW 3173   1.082   3.092   1.563
  786SOL    HW2 3174   1.084   3.083   1.658
  786SOL    HW3 3175   1.161   3.141   1.541
  786SOL    MW4 3176   1.092   3.097   1.573
  787SOL     OW 3177   0.859   3.191   1.454
  787SOL    HW2 3178   0.934   3.143   1.488
  787SOL    HW3 3179   0.883   3.215   1.364
  787SOL    MW4 3180   0.872   3.188   1.447
  788SOL     OW 3181   0.877   3.438   1.604
  788SOL    HW2 3182   0.962   3.462   1.569
  788SOL    HW3 3183   0.864   3.348   1.574
  788SOL    MW4 3184   0.887   3.429   1.595
  789SOL     OW 3185   1.110   3.592   1.521
  789SOL    HW2 3186   1.202   3.570   1.534
  789SOL    HW3 3187   1.102   3.603   1.426
  789SOL    MW4 3188   1.121   3.590   1.510
  790SOL     OW 3189   1.110   3.854   1.632
  790SOL    HW2 3190   1.188   3.886   1.587
  790SOL    HW3 3191   1.100   3.764   1.601
  790SOL    MW4 3192   1.119   3.846   1.622
  791SOL     OW 3193   0.901   3.968   1.440
  791SOL    HW2 3194   0.899   4.053   1.484
  791SOL    HW3 3195   0.959   3.914   1.494
  791SOL    MW4 3196   0.908   3.972   1.453
  792SOL     OW 3197   0.922   4.208   1.575
  792SOL    HW2 3198   0.922   4.207   1.671
  792SOL    HW3 3199   0.842   4.256   1.553
  792SOL    MW4 3200   0.911   4.215   1.585
  793SOL     OW 3201   1.150   4.315   1.430
  793SOL    HW2 3202   1.077   4.281   1.482
  793SOL    HW3 3203   1.167   4.402   1.467
  793SOL    MW4 3204   1.143   4.322   1.442
  794SOL     OW 3205   1.582   4.585   1.556
  794SOL    HW2 3206   1.595   4.592   1.651
  794SOL    HW3 3207   1.510   4.644   1.536
  794SOL    MW4 3208   1.574   4.593   1.566
  795SOL     OW 3209   1.352   0.070   1.483
  795SOL    HW2 3210   1.362   0.154   1.527
  795SOL    HW3 3211   1.362   0.091   1.390
  795SOL    MW4 3212   1.355   0.084   1.477
  796SOL     OW 3213   1.369   0.333   1.575
  796SOL    HW2 3214   1.443   0.374   1.530
  796SOL    HW3 3215   1.292   0.381   1.545
  796SOL    MW4 3216   1.369   0.344   1.565
  797SOL     OW 3217   1.576   0.502   1.481
  797SOL    HW2 3218   1.658   0.465   1.512
  797SOL    HW3 3219   1.581   0.495   1.385
  797SOL    MW4 3220   1.587   0.496   1.472
  798SOL     OW 3221   1.589   0.770   1.593
  798SOL    HW2 3222   1.566   0.764   1.686
  798SOL    HW3 3223   1.562   0.686   1.556
  798SOL    MW4 3224   1.582   0.758   1.601
  799SOL     OW 3225   1.355   0.913   1.493
  799SOL    HW2 3226   1.419   0.870   1.551
  799SOL    HW3 3227   1.368   0.872   1.408
  799SOL    MW4 3228   1.365   0.902   1.490
  800SOL     OW 3229   1.357   1.177   1.594
  800SOL    HW2 3230   1.370   1.159   1.687
  800SOL    HW3 3231   1.365   1.091   1.552
  800SOL    MW4 3232   1.360   1.163   1.601
  801SOL     OW 3233   1.608   1.293   1.514
  801SOL    HW2 3234   1.521   1.267   1.545
  801SOL    HW3 3235   1.609   1.267   1.422
  801SOL    MW4 3236   1.597   1.286   1.506
  802SOL     OW 3237   1.618   1.553   1.583
  802SOL    HW2 3238   1.621   1.548   1.679
  802SOL    HW3 3239   1.612   1.462   1.555
  802SOL    MW4 3240   1.618   1.540   1.592
  803SOL     OW 3241   1.346   1.613   1.494
  803SOL    HW2 3242   1.426   1.592   1.542
  803SOL    HW3 3243   1.375   1.628   1.404
  803SOL    MW4 3244   1.360   1.613   1.489
  804SOL     OW 3245   1.323   1.894   1.578
  804SOL    HW2 3246   1.355   1.895   1.668
  804SOL    HW3 3247   1.313   1.802   1.557
  804SOL    MW4 3248   1.326   1.882   1.587
  805SOL     OW 3249   1.566   2.015   1.497
  805SOL    HW2 3250   1.487   1.962   1.514
  805SOL    HW3 3251   1.563   2.034   1.403
  805SOL    MW4 3252   1.555   2.011   1.487
  806SOL     OW 3253   1.563   2.295   1.559
  806SOL    HW2 3254   1.635   2.345   1.521
  806SOL    HW3 3255   1.571   2.208   1.519
  806SOL    MW4 3256   1.574   2.290   1.549
  807SOL     OW 3257   1.336   2.432   1.478
  807SOL    HW2 3258   1.325   2.520   1.515
  807SOL    HW3 3259   1.420   2.402   1.512
  807SOL    MW4 3260   1.345   2.440   1.488
  808SOL     OW 3261   1.357   2.687   1.577
  808SOL    HW2 3262   1.431   2.736   1.542
  808SOL    HW3 3263   1.280   2.732   1.543
  808SOL    MW4 3264   1.357   2.699   1.568
  809SOL     OW 3265   1.566   2.818   1.468
  809SOL    HW2 3266   1.644   2.781   1.510
  809SOL    HW3 3267   1.590   2.826   1.376
  809SOL    MW4 3268   1.580   2.814   1.462
  810SOL     OW 3269   1.545   3.084   1.554
  810SOL    HW2 3270   1.628   3.124   1.529
  810SOL    HW3 3271   1.543   3.000   1.509
  810SOL    MW4 3272   1.556   3.078   1.545
  811SOL     OW 3273   1.326   3.228   1.479
  811SOL    HW2 3274   1.347   3.315   1.513
  811SOL    HW3 3275   1.401   3.174   1.502
  811SOL    MW4 3276   1.339   3.232   1.486
  812SOL     OW 3277   1.360   3.493   1.566
  812SOL    HW2 3278   1.374   3.501   1.660
  812SOL    HW3 3279   1.445   3.513   1.527
  812SOL    MW4 3280   1.373   3.497   1.573
  813SOL     OW 3281   1.625   3.549   1.493
  813SOL    HW2 3282   1.609   3.633   1.536
  813SOL    HW3 3283   1.636   3.571   1.401
  813SOL    MW4 3284   1.624   3.563   1.486
  814SOL     OW 3285   1.604   3.822   1.587
  814SOL    HW2 3286   1.602   3.820   1.683
  814SOL    HW3 3287   1.528   3.875   1.563
  814SOL    MW4 3288   1.594   3.829   1.597
  815SOL     OW 3289   1.355   3.947   1.500
  815SOL    HW2 3290   1.346   4.030   1.547
  815SOL    HW3 3291   1.359   3.971   1.408
  815SOL    MW4 3292   1.354   3.961   1.494
  816SOL     OW 3293   1.338   4.202   1.591
  816SOL    HW2 3294   1.423   4.241   1.569
  816SOL    HW3 3295   1.279   4.231   1.521
  816SOL    MW4 3296   1.341   4.211   1.579
  817SOL     OW 3297   1.588   4.314   1.527
  817SOL    HW2 3298   1.677   4.278   1.531
  817SOL    HW3 3299   1.600   4.408   1.543
  817SOL    MW4 3300   1.602   4.321   1.530
  818SOL     OW 3301   2.039   4.626   1.618
  818SOL    HW2 3302   2.020   4.621   1.712
  818SOL    HW3 3303   1.961   4.664   1.579
  818SOL    MW4 3304   2.026   4.631   1.625
  819SOL     OW 3305   1.799   0.088   1.511
  819SOL    HW2 3306   1.717   0.041   1.528
  819SOL    HW3 3307   1.806   0.091   1.415
  819SOL    MW4 3308   1.789   0.082   1.500
  820SOL     OW 3309   1.802   0.351   1.591
  820SOL    HW2 3310   1.883   0.391   1.562
  820SOL    HW3 3311   1.800   0.266   1.547
  820SOL    MW4 3312   1.813   0.345   1.582
  821SOL     OW 3313   2.020   0.472   1.489
  821SOL    HW2 3314   2.085   0.430   1.544
  821SOL    HW3 3315   2.017   0.563   1.521
  821SOL    MW4 3316   2.028   0.479   1.500
  822SOL     OW 3317   2.015   0.739   1.586
  822SOL    HW2 3318   2.097   0.785   1.567
  822SOL    HW3 3319   1.949   0.785   1.535
  822SOL    MW4 3320   2.017   0.751   1.576
  823SOL     OW 3321   1.803   0.894   1.489
  823SOL    HW2 3322   1.819   0.979   1.530
  823SOL    HW3 3323   1.722   0.863   1.528
  823SOL    MW4 3324   1.795   0.901   1.500
  824SOL     OW 3325   1.848   1.149   1.595
  824SOL    HW2 3326   1.924   1.203   1.573
  824SOL    HW3 3327   1.773   1.208   1.583
  824SOL    MW4 3328   1.848   1.164   1.590
  825SOL     OW 3329   2.096   1.271   1.509
  825SOL    HW2 3330   2.087   1.363   1.534
  825SOL    HW3 3331   2.080   1.270   1.415
  825SOL    MW4 3332   2.093   1.283   1.500
  826SOL     OW 3333   2.057   1.522   1.569
  826SOL    HW2 3334   2.119   1.576   1.520
  826SOL    HW3 3335   1.972   1.561   1.551
  826SOL    MW4 3336   2.054   1.534   1.560
  827SOL     OW 3337   1.840   1.685   1.511
  827SOL    HW2 3338   1.763   1.632   1.531
  827SOL    HW3 3339   1.837   1.696   1.416
  827SOL    MW4 3340   1.829   1.680   1.501
  828SOL     OW 3341   1.815   1.963   1.604
  828SOL    HW2 3342   1.832   1.873   1.575
  828SOL    HW3 3343   1.722   1.977   1.584
  828SOL    MW4 3344   1.805   1.953   1.597
  829SOL     OW 3345   2.032   2.094   1.476
  829SOL    HW2 3346   2.109   2.056   1.519
  829SOL    HW3 3347   1.957   2.052   1.518
  829SOL    MW4 3348   2.032   2.083   1.487
  830SOL     OW 3349   2.025   2.352   1.589
  830SOL    HW2 3350   2.013   2.333   1.682
  830SOL    HW3 3351   2.014   2.267   1.546
  830SOL    MW4 3352   2.022   2.338   1.595
  831SOL     OW 3353   1.797   2.452   1.457
  831SOL    HW2 3354   1.887   2.439   1.484
  831SOL    HW3 3355   1.799   2.448   1.362
  831SOL    MW4 3356   1.809   2.450   1.448
  832SOL     OW 3357   1.791   2.699   1.569
  832SOL    HW2 3358   1.870   2.736   1.530
  832SOL    HW3 3359   1.780   2.614   1.525
  832SOL    MW4 3360   1.800   2.692   1.558
  833SOL     OW 3361   2.025   2.840   1.489
  833SOL    HW2 3362   2.036   2.930   1.519
  833SOL    HW3 3363   2.018   2.847   1.394
  833SOL    MW4 3364   2.026   2.853   1.481
  834SOL     OW 3365   2.013   3.111   1.588
  834SOL    HW2 3366   2.012   3.081   1.679
  834SOL    HW3 3367   2.104   3.135   1.572
  834SOL    MW4 3368   2.025   3.110   1.598
  835SOL     OW 3369   1.774   3.204   1.466
  835SOL    HW2 3370   1.785   3.296   1.486
  835SOL    HW3 3371   1.848   3.161   1.509
  835SOL    MW4 3372   1.785   3.210   1.475
  836SOL     OW 3373   1.862   3.436   1.586
  836SOL    HW2 3374   1.838   3.400   1.671
  836SOL    HW3 3375   1.784   3.484   1.557
  836SOL    MW4 3376   1.848   3.438   1.594
  837SOL     OW 3377   2.072   3.560   1.447
  837SOL    HW2 3378   2.144   3.509   1.485
  837SOL    HW3 3379   1.994   3.522   1.486
  837SOL    MW4 3380   2.071   3.548   1.457
  838SOL     OW 3381   2.069   3.792   1.621
  838SOL    HW2 3382   2.133   3.846   1.573
  838SOL    HW3 3383   2.080   3.704   1.583
  838SOL    MW4 3384   2.079   3.787   1.609
  839SOL     OW 3385   1.861   3.933   1.523
  839SOL    HW2 3386   1.931   3.873   1.550
  839SOL    HW3 3387   1.780   3.892   1.555
  839SOL    MW4 3388   1.859   3.919   1.531
  840SOL     OW 3389   1.853   4.202   1.580
  840SOL    HW2 3390   1.930   4.248   1.545
  840SOL    HW3 3391   1.861   4.113   1.545
  840SOL    MW4 3392   1.865   4.196   1.571
  841SOL     OW 3393   2.072   4.367   1.465
  841SOL    HW2 3394   2.138   4.310   1.504
  841SOL    HW3 3395   2.059   4.436   1.530
  841SOL    MW4 3396   2.079   4.369   1.479
  842SOL     OW 3397   2.504   4.601   1.581
  842SOL    HW2 3398   2.514   4.613   1.676
  842SOL    HW3 3399   2.415   4.630   1.563
  842SOL    MW4 3400   2.494   4.606   1.591
  843SOL     OW 3401   2.285   0.088   1.520
  843SOL    HW2 3402   2.202   0.053   1.554
  843SOL    HW3 3403   2.272   0.092   1.426
  843SOL    MW4 3404   2.272   0.084   1.512
  844SOL     OW 3405   2.245   0.356   1.628
  844SOL    HW2 3406   2.259   0.360   1.723
  844SOL    HW3 3407   2.247   0.262   1.608
  844SOL    MW4 3408   2.247   0.344   1.638
  845SOL     OW 3409   2.463   0.474   1.472
  845SOL    HW2 3410   2.534   0.418   1.504
  845SOL    HW3 3411   2.385   0.443   1.519
  845SOL    MW4 3412   2.462   0.462   1.482
  846SOL     OW 3413   2.502   0.733   1.611
  846SOL    HW2 3414   2.426   0.775   1.572
  846SOL    HW3 3415   2.505   0.647   1.571
  846SOL    MW4 3416   2.492   0.727   1.601
  847SOL     OW 3417   2.281   0.855   1.519
  847SOL    HW2 3418   2.285   0.947   1.545
  847SOL    HW3 3419   2.277   0.857   1.423
  847SOL    MW4 3420   2.281   0.867   1.510
  848SOL     OW 3421   2.294   1.109   1.615
  848SOL    HW2 3422   2.289   1.117   1.710
  848SOL    HW3 3423   2.221   1.161   1.582
  848SOL    MW4 3424   2.284   1.117   1.623
  849SOL     OW 3425   2.507   1.254   1.522
  849SOL    HW2 3426   2.435   1.200   1.554
  849SOL    HW3 3427   2.491   1.263   1.428
  849SOL    MW4 3428   2.496   1.248   1.514
  850SOL     OW 3429   2.490   1.541   1.552
  850SOL    HW2 3430   2.572   1.580   1.520
  850SOL    HW3 3431   2.506   1.446   1.549
  850SOL    MW4 3432   2.503   1.533   1.547
  851SOL     OW 3433   2.240   1.691   1.485
  851SOL    HW2 3434   2.319   1.660   1.529
  851SOL    HW3 3435   2.264   1.694   1.392
  851SOL    MW4 3436   2.254   1.688   1.478
  852SOL     OW 3437   2.234   1.953   1.587
  852SOL    HW2 3438   2.229   1.965   1.682
  852SOL    HW3 3439   2.226   1.859   1.573
  852SOL    MW4 3440   2.232   1.942   1.597
  853SOL     OW 3441   2.507   2.028   1.517
  853SOL    HW2 3442   2.419   2.003   1.547
  853SOL    HW3 3443   2.497   2.038   1.422
  853SOL    MW4 3444   2.494   2.026   1.508
  854SOL     OW 3445   2.473   2.293   1.554
  854SOL    HW2 3446   2.487   2.305   1.648
  854SOL    HW3 3447   2.488   2.200   1.539
  854SOL    MW4 3448   2.477   2.283   1.565
  855SOL     OW 3449   2.250   2.418   1.441
  855SOL    HW2 3450   2.328   2.368   1.465
  855SOL    HW3 3451   2.179   2.374   1.488
  855SOL    MW4 3452   2.251   2.406   1.450
  856SOL     OW 3453   2.250   2.652   1.564
  856SOL    HW2 3454   2.249   2.572   1.511
  856SOL    HW3 3455   2.169   2.698   1.540
  856SOL    MW4 3456   2.239   2.648   1.554
  857SOL     OW 3457   2.478   2.774   1.491
  857SOL    HW2 3458   2.474   2.867   1.516
  857SOL    HW3 3459   2.393   2.739   1.519
  857SOL    MW4 3460   2.466   2.782   1.498
  858SOL     OW 3461   2.482   3.033   1.574
  858SOL    HW2 3462   2.548   3.092   1.537
  858SOL    HW3 3463   2.399   3.079   1.561
  858SOL    MW4 3464   2.480   3.047   1.567
  859SOL     OW 3465   2.275   3.194   1.515
  859SOL    HW2 3466   2.272   3.277   1.562
  859SOL    HW3 3467   2.296   3.217   1.425
  859SOL    MW4 3468   2.277   3.208   1.509
  860SOL     OW 3469   2.279   3.456   1.605
  860SOL    HW2 3470   2.264   3.476   1.697
  860SOL    HW3 3471   2.344   3.520   1.577
  860SOL    MW4 3472   2.286   3.467   1.614
  861SOL     OW 3473   2.456   3.626   1.464
  861SOL    HW2 3474   2.539   3.591   1.497
  861SOL    HW3 3475   2.455   3.717   1.494
  861SOL    MW4 3476   2.467   3.633   1.472
  862SOL     OW 3477   2.484   3.884   1.597
  862SOL    HW2 3478   2.480   3.878   1.692
  862SOL    HW3 3479   2.564   3.934   1.580
  862SOL    MW4 3480   2.494   3.890   1.607
  863SOL     OW 3481   2.255   3.981   1.507
  863SOL    HW2 3482   2.341   3.947   1.531
  863SOL    HW3 3483   2.263   4.006   1.415
  863SOL    MW4 3484   2.267   3.980   1.498
  864SOL     OW 3485   2.255   4.224   1.639
  864SOL    HW2 3486   2.319   4.262   1.578
  864SOL    HW3 3487   2.251   4.131   1.616
  864SOL    MW4 3488   2.263   4.217   1.628
  865SOL     OW 3489   2.488   4.337   1.497
  865SOL    HW2 3490   2.491   4.426   1.531
  865SOL    HW3 3491   2.504   4.347   1.403
  865SOL    MW4 3492   2.491   4.350   1.489
  866SOL     OW 3493   2.932   4.629   1.613
  866SOL    HW2 3494   2.924   4.642   1.708
  866SOL    HW3 3495   2.853   4.669   1.577
  866SOL    MW4 3496   2.920   4.636   1.621
  867SOL     OW 3497   2.724   0.090   1.497
  867SOL    HW2 3498   2.704   0.179   1.528
  867SOL    HW3 3499   2.647   0.039   1.524
  867SOL    MW4 3500   2.711   0.095   1.505
  868SOL     OW 3501   2.671   0.351   1.586
  868SOL    HW2 3502   2.659   0.363   1.680
  868SOL    HW3 3503   2.762   0.377   1.570
  868SOL    MW4 3504   2.681   0.356   1.596
  869SOL     OW 3505   2.939   0.448   1.550
  869SOL    HW2 3506   2.941   0.539   1.578
  869SOL    HW3 3507   2.934   0.452   1.454
  869SOL    MW4 3508   2.939   0.460   1.541
  870SOL     OW 3509   2.949   0.727   1.627
  870SOL    HW2 3510   2.939   0.731   1.722
  870SOL    HW3 3511   2.875   0.777   1.593
  870SOL    MW4 3512   2.938   0.734   1.635
  871SOL     OW 3513   2.730   0.854   1.513
  871SOL    HW2 3514   2.654   0.819   1.560
  871SOL    HW3 3515   2.704   0.852   1.421
  871SOL    MW4 3516   2.717   0.849   1.507
  872SOL     OW 3517   2.732   1.105   1.641
  872SOL    HW2 3518   2.730   1.019   1.599
  872SOL    HW3 3519   2.651   1.147   1.614
  872SOL    MW4 3520   2.721   1.099   1.632
  873SOL     OW 3521   2.939   1.252   1.503
  873SOL    HW2 3522   3.023   1.209   1.520
  873SOL    HW3 3523   2.875   1.196   1.546
  873SOL    MW4 3524   2.942   1.239   1.511
  874SOL     OW 3525   2.938   1.527   1.615
  874SOL    HW2 3526   2.857   1.568   1.585
  874SOL    HW3 3527   2.934   1.437   1.582
  874SOL    MW4 3528   2.927   1.521   1.607
  875SOL     OW 3529   2.725   1.671   1.499
  875SOL    HW2 3530   2.726   1.757   1.540
  875SOL    HW3 3531   2.725   1.689   1.405
  875SOL    MW4 3532   2.725   1.684   1.492
  876SOL     OW 3533   2.762   1.929   1.601
  876SOL    HW2 3534   2.758   1.930   1.696
  876SOL    HW3 3535   2.675   1.960   1.574
  876SOL    MW4 3536   2.750   1.933   1.610
  877SOL     OW 3537   2.978   2.062   1.510
  877SOL    HW2 3538   2.948   2.151   1.532
  877SOL    HW3 3539   2.903   2.006   1.532
  877SOL    MW4 3540   2.964   2.067   1.516
  878SOL     OW 3541   2.951   2.321   1.564
  878SOL    HW2 3542   2.958   2.332   1.659
  878SOL    HW3 3543   2.866   2.359   1.542
  878SOL    MW4 3544   2.940   2.327   1.574
  879SOL     OW 3545   2.722   2.436   1.475
  879SOL    HW2 3546   2.719   2.519   1.522
  879SOL    HW3 3547   2.641   2.391   1.498
  879SOL    MW4 3548   2.711   2.441   1.484
  880SOL     OW 3549   2.713   2.674   1.604
  880SOL    HW2 3550   2.787   2.722   1.566
  880SOL    HW3 3551   2.636   2.711   1.562
  880SOL    MW4 3552   2.713   2.685   1.593
  881SOL     OW 3553   2.914   2.821   1.461
  881SOL    HW2 3554   2.996   2.788   1.498
  881SOL    HW3 3555   2.907   2.910   1.495
  881SOL    MW4 3556   2.924   2.828   1.470
  882SOL     OW 3557   2.883   3.088   1.584
  882SOL    HW2 3558   2.894   3.078   1.679
  882SOL    HW3 3559   2.959   3.138   1.556
  882SOL    MW4 3560   2.894   3.093   1.593
  883SOL     OW 3561   2.657   3.215   1.463
  883SOL    HW2 3562   2.744   3.193   1.497
  883SOL    HW3 3563   2.663   3.199   1.369
  883SOL    MW4 3564   2.669   3.210   1.455
  884SOL     OW 3565   2.666   3.474   1.543
  884SOL    HW2 3566   2.677   3.487   1.637
  884SOL    HW3 3567   2.649   3.380   1.534
  884SOL    MW4 3568   2.665   3.463   1.554
  885SOL     OW 3569   2.919   3.562   1.498
  885SOL    HW2 3570   2.831   3.527   1.512
  885SOL    HW3 3571   2.936   3.545   1.405
  885SOL    MW4 3572   2.909   3.555   1.487
  886SOL     OW 3573   2.925   3.841   1.570
  886SOL    HW2 3574   2.844   3.881   1.538
  886SOL    HW3 3575   2.919   3.749   1.541
  886SOL    MW4 3576   2.913   3.834   1.562
  887SOL     OW 3577   2.711   3.987   1.485
  887SOL    HW2 3578   2.718   4.080   1.508
  887SOL    HW3 3579   2.693   3.987   1.391
  887SOL    MW4 3580   2.710   3.999   1.476
  888SOL     OW 3581   2.724   4.250   1.596
  888SOL    HW2 3582   2.796   4.299   1.556
  888SOL    HW3 3583   2.645   4.288   1.557
  888SOL    MW4 3584   2.723   4.262   1.585
  889SOL     OW 3585   2.938   4.377   1.487
  889SOL    HW2 3586   2.957   4.453   1.542
  889SOL    HW3 3587   2.931   4.412   1.398
  889SOL    MW4 3588   2.940   4.391   1.483
  890SOL     OW 3589   3.384   4.635   1.624
  890SOL    HW2 3590   3.464   4.670   1.584
  890SOL    HW3 3591   3.366   4.555   1.575
  890SOL    MW4 3592   3.392   4.629   1.612
  891SOL     OW 3593   3.153   0.075   1.498
  891SOL    HW2 3594   3.227   0.041   1.548
  891SOL    HW3 3595   3.076   0.036   1.540
  891SOL    MW4 3596   3.152   0.066   1.510
  892SOL     OW 3597   3.174   0.333   1.629
  892SOL    HW2 3598   3.168   0.241   1.603
  892SOL    HW3 3599   3.092   0.372   1.601
  892SOL    MW4 3600   3.163   0.326   1.622
  893SOL     OW 3601   3.385   0.474   1.514
  893SOL    HW2 3602   3.312   0.419   1.543
  893SOL    HW3 3603   3.395   0.454   1.422
  893SOL    MW4 3604   3.377   0.464   1.506
  894SOL     OW 3605   3.380   0.743   1.604
  894SOL    HW2 3606   3.353   0.734   1.695
  894SOL    HW3 3607   3.386   0.653   1.572
  894SOL    MW4 3608   3.377   0.730   1.612
  895SOL     OW 3609   3.161   0.853   1.484
  895SOL    HW2 3610   3.238   0.807   1.518
  895SOL    HW3 3611   3.087   0.814   1.530
  895SOL    MW4 3612   3.161   0.842   1.494
  896SOL     OW 3613   3.164   1.103   1.574
  896SOL    HW2 3614   3.177   1.104   1.669
  896SOL    HW3 3615   3.181   1.011   1.549
  896SOL    MW4 3616   3.168   1.091   1.583
  897SOL     OW 3617   3.348   1.276   1.511
  897SOL    HW2 3618   3.424   1.236   1.551
  897SOL    HW3 3619   3.277   1.212   1.523
  897SOL    MW4 3620   3.348   1.262   1.518
  898SOL     OW 3621   3.334   1.551   1.611
  898SOL    HW2 3622   3.327   1.536   1.705
  898SOL    HW3 3623   3.323   1.464   1.572
  898SOL    MW4 3624   3.332   1.537   1.618
  899SOL     OW 3625   3.151   1.694   1.485
  899SOL    HW2 3626   3.223   1.654   1.535
  899SOL    HW3 3627   3.075   1.640   1.505
  899SOL    MW4 3628   3.151   1.682   1.494
  900SOL     OW 3629   3.192   1.925   1.639
  900SOL    HW2 3630   3.171   1.847   1.588
  900SOL    HW3 3631   3.114   1.980   1.634
  900SOL    MW4 3632   3.179   1.922   1.632
  901SOL     OW 3633   3.384   2.079   1.489
  901SOL    HW2 3634   3.320   2.023   1.533
  901SOL    HW3 3635   3.370   2.063   1.396
  901SOL    MW4 3636   3.374   2.070   1.482
  902SOL     OW 3637   3.373   2.327   1.606
  902SOL    HW2 3638   3.441   2.370   1.554
  902SOL    HW3 3639   3.367   2.239   1.569
  902SOL    MW4 3640   3.381   2.321   1.594
  903SOL     OW 3641   3.156   2.475   1.466
  903SOL    HW2 3642   3.233   2.435   1.505
  903SOL    HW3 3643   3.083   2.419   1.495
  903SOL    MW4 3644   3.156   2.462   1.475
  904SOL     OW 3645   3.131   2.722   1.598
  904SOL    HW2 3646   3.204   2.774   1.565
  904SOL    HW3 3647   3.145   2.635   1.561
  904SOL    MW4 3648   3.143   2.718   1.589
  905SOL     OW 3649   3.358   2.852   1.510
  905SOL    HW2 3650   3.359   2.945   1.534
  905SOL    HW3 3651   3.358   2.851   1.415
  905SOL    MW4 3652   3.358   2.864   1.501
  906SOL     OW 3653   3.378   3.112   1.604
  906SOL    HW2 3654   3.374   3.129   1.698
  906SOL    HW3 3655   3.447   3.170   1.571
  906SOL    MW4 3656   3.386   3.121   1.612
  907SOL     OW 3657   3.123   3.173   1.490
  907SOL    HW2 3658   3.204   3.145   1.532
  907SOL    HW3 3659   3.147   3.189   1.399
  907SOL    MW4 3660   3.137   3.172   1.484
  908SOL     OW 3661   3.137   3.435   1.609
  908SOL    HW2 3662   3.132   3.351   1.562
  908SOL    HW3 3663   3.071   3.489   1.566
  908SOL    MW4 3664   3.128   3.431   1.597
  909SOL     OW 3665   3.329   3.625   1.466
  909SOL    HW2 3666   3.410   3.583   1.497
  909SOL    HW3 3667   3.259   3.579   1.511
  909SOL    MW4 3668   3.331   3.614   1.476
  910SOL     OW 3669   3.361   3.853   1.620
  910SOL    HW2 3670   3.294   3.918   1.597
  910SOL    HW3 3671   3.337   3.775   1.570
  910SOL    MW4 3672   3.349   3.851   1.610
  911SOL     OW 3673   3.143   3.973   1.516
  911SOL    HW2 3674   3.129   4.066   1.534
  911SOL    HW3 3675   3.065   3.929   1.551
  911SOL    MW4 3676   3.131   3.979   1.523
  912SOL     OW 3677   3.144   4.235   1.581
  912SOL    HW2 3678   3.131   4.259   1.672
  912SOL    HW3 3679   3.068   4.271   1.535
  912SOL    MW4 3680   3.132   4.243   1.587
  913SOL     OW 3681   3.359   4.392   1.501
  913SOL    HW2 3682   3.286   4.342   1.537
  913SOL    HW3 3683   3.341   4.396   1.407
  913SOL    MW4 3684   3.347   4.386   1.493
  914SOL     OW 3685   3.835   4.634   1.630
  914SOL    HW2 3686   3.825   4.653   1.723
  914SOL    HW3 3687   3.922   4.669   1.608
  914SOL    MW4 3688   3.845   4.641   1.639
  915SOL     OW 3689   3.609   0.090   1.518
  915SOL    HW2 3690   3.694   0.056   1.547
  915SOL    HW3 3691   3.620   0.103   1.424
  915SOL    MW4 3692   3.622   0.088   1.510
  916SOL     OW 3693   3.606   0.355   1.611
  916SOL    HW2 3694   3.611   0.267   1.572
  916SOL    HW3 3695   3.527   0.394   1.573
  916SOL    MW4 3696   3.596   0.349   1.600
  917SOL     OW 3697   3.823   0.492   1.508
  917SOL    HW2 3698   3.744   0.449   1.542
  917SOL    HW3 3699   3.813   0.489   1.413
  917SOL    MW4 3700   3.811   0.486   1.500
  918SOL     OW 3701   3.850   0.737   1.613
  918SOL    HW2 3702   3.768   0.783   1.590
  918SOL    HW3 3703   3.837   0.649   1.579
  918SOL    MW4 3704   3.837   0.732   1.605
  919SOL     OW 3705   3.619   0.867   1.538
  919SOL    HW2 3706   3.535   0.828   1.562
  919SOL    HW3 3707   3.620   0.864   1.442
  919SOL    MW4 3708   3.608   0.861   1.528
  920SOL     OW 3709   3.558   1.147   1.596
  920SOL    HW2 3710   3.634   1.204   1.583
  920SOL    HW3 3711   3.586   1.062   1.562
  920SOL    MW4 3712   3.572   1.144   1.590
  921SOL     OW 3713   3.789   1.274   1.535
  921SOL    HW2 3714   3.876   1.246   1.565
  921SOL    HW3 3715   3.784   1.367   1.559
  921SOL    MW4 3716   3.800   1.283   1.542
  922SOL     OW 3717   3.793   1.557   1.624
  922SOL    HW2 3718   3.799   1.552   1.719
  922SOL    HW3 3719   3.724   1.621   1.607
  922SOL    MW4 3720   3.785   1.565   1.634
  923SOL     OW 3721   3.563   1.710   1.550
  923SOL    HW2 3722   3.484   1.659   1.569
  923SOL    HW3 3723   3.579   1.696   1.456
  923SOL    MW4 3724   3.555   1.702   1.540
  924SOL     OW 3725   3.617   1.969   1.593
  924SOL    HW2 3726   3.597   1.878   1.572
  924SOL    HW3 3727   3.546   2.019   1.552
  924SOL    MW4 3728   3.605   1.964   1.585
  925SOL     OW 3729   3.843   2.075   1.473
  925SOL    HW2 3730   3.844   2.169   1.495
  925SOL    HW3 3731   3.767   2.041   1.520
  925SOL    MW4 3732   3.833   2.083   1.482
  926SOL     OW 3733   3.802   2.348   1.551
  926SOL    HW2 3734   3.778   2.321   1.640
  926SOL    HW3 3735   3.879   2.404   1.563
  926SOL    MW4 3736   3.809   2.352   1.564
  927SOL     OW 3737   3.566   2.486   1.478
  927SOL    HW2 3738   3.581   2.570   1.521
  927SOL    HW3 3739   3.647   2.437   1.493
  927SOL    MW4 3740   3.579   2.490   1.486
  928SOL     OW 3741   3.595   2.749   1.609
  928SOL    HW2 3742   3.588   2.745   1.704
  928SOL    HW3 3743   3.510   2.782   1.580
  928SOL    MW4 3744   3.583   2.753   1.617
  929SOL     OW 3745   3.805   2.853   1.471
  929SOL    HW2 3746   3.886   2.824   1.514
  929SOL    HW3 3747   3.736   2.828   1.532
  929SOL    MW4 3748   3.807   2.846   1.485
  930SOL     OW 3749   3.799   3.109   1.560
  930SOL    HW2 3750   3.868   3.150   1.506
  930SOL    HW3 3751   3.792   3.020   1.525
  930SOL    MW4 3752   3.807   3.102   1.548
  931SOL     OW 3753   3.576   3.254   1.470
  931SOL    HW2 3754   3.651   3.209   1.510
  931SOL    HW3 3755   3.569   3.215   1.383
  931SOL    MW4 3756   3.585   3.243   1.464
  932SOL     OW 3757   3.552   3.509   1.588
  932SOL    HW2 3758   3.642   3.536   1.571
  932SOL    HW3 3759   3.547   3.420   1.554
  932SOL    MW4 3760   3.563   3.501   1.581
  933SOL     OW 3761   3.836   3.583   1.474
  933SOL    HW2 3762   3.900   3.530   1.520
  933SOL    HW3 3763   3.842   3.669   1.515
  933SOL    MW4 3764   3.845   3.587   1.485
  934SOL     OW 3765   3.815   3.877   1.577
  934SOL    HW2 3766   3.898   3.903   1.536
  934SOL    HW3 3767   3.748   3.923   1.527
  934SOL    MW4 3768   3.817   3.887   1.565
  935SOL     OW 3769   3.576   4.003   1.479
  935SOL    HW2 3770   3.577   4.087   1.526
  935SOL    HW3 3771   3.500   3.957   1.514
  935SOL    MW4 3772   3.566   4.008   1.490
  936SOL     OW 3773   3.567   4.255   1.607
  936SOL    HW2 3774   3.569   4.247   1.702
  936SOL    HW3 3775   3.492   4.312   1.589
  936SOL    MW4 3776   3.557   4.261   1.617
  937SOL     OW 3777   3.775   4.386   1.489
  937SOL    HW2 3778   3.711   4.335   1.539
  937SOL    HW3 3779   3.784   4.468   1.538
  937SOL    MW4 3780   3.768   4.390   1.502
  938SOL     OW 3781   4.272   4.624   1.597
  938SOL    HW2 3782   4.280   4.628   1.693
  938SOL    HW3 3783   4.259   4.531   1.579
  938SOL    MW4 3784   4.271   4.612   1.607
  939SOL     OW 3785   4.050   0.059   1.489
  939SOL    HW2 3786   4.056   0.149   1.522
  939SOL    HW3 3787   4.133   0.019   1.514
  939SOL    MW4 3788   4.061   0.065   1.497
  940SOL     OW 3789   4.055   0.323   1.603
  940SOL    HW2 3790   4.054   0.323   1.699
  940SOL    HW3 3791   3.976   0.371   1.579
  940SOL    MW4 3792   4.045   0.329   1.613
  941SOL     OW 3793   4.278   0.462   1.522
  941SOL    HW2 3794   4.204   0.407   1.549
  941SOL    HW3 3795   4.355   0.417   1.557
  941SOL    MW4 3796   4.278   0.449   1.530
  942SOL     OW 3797   4.223   0.718   1.546
  942SOL    HW2 3798   4.240   0.624   1.549
  942SOL    HW3 3799   4.308   0.758   1.527
  942SOL    MW4 3800   4.237   0.711   1.544
  943SOL     OW 3801   4.028   0.903   1.488
  943SOL    HW2 3802   4.110   0.856   1.502
  943SOL    HW3 3803   3.960   0.846   1.523
  943SOL    MW4 3804   4.030   0.890   1.494
  944SOL     OW 3805   4.047   1.175   1.595
  944SOL    HW2 3806   4.049   1.156   1.689
  944SOL    HW3 3807   4.036   1.089   1.554
  944SOL    MW4 3808   4.046   1.161   1.602
  945SOL     OW 3809   4.279   1.290   1.523
  945SOL    HW2 3810   4.200   1.241   1.548
  945SOL    HW3 3811   4.350   1.247   1.572
  945SOL    MW4 3812   4.278   1.277   1.533
  946SOL     OW 3813   4.258   1.556   1.599
  946SOL    HW2 3814   4.263   1.466   1.567
  946SOL    HW3 3815   4.342   1.596   1.572
  946SOL    MW4 3816   4.270   1.550   1.591
  947SOL     OW 3817   4.022   1.689   1.501
  947SOL    HW2 3818   4.101   1.648   1.535
  947SOL    HW3 3819   3.951   1.652   1.554
  947SOL    MW4 3820   4.023   1.678   1.512
  948SOL     OW 3821   4.038   1.953   1.615
  948SOL    HW2 3822   4.039   1.871   1.566
  948SOL    HW3 3823   3.973   2.008   1.571
  948SOL    MW4 3824   4.030   1.950   1.603
  949SOL     OW 3825   4.255   2.091   1.519
  949SOL    HW2 3826   4.170   2.060   1.550
  949SOL    HW3 3827   4.250   2.085   1.424
  949SOL    MW4 3828   4.243   2.086   1.511
  950SOL     OW 3829   4.257   2.353   1.613
  950SOL    HW2 3830   4.267   2.341   1.707
  950SOL    HW3 3831   4.260   2.264   1.577
  950SOL    MW4 3832   4.259   2.340   1.621
  951SOL     OW 3833   4.030   2.498   1.540
  951SOL    HW2 3834   4.030   2.586   1.579
  951SOL    HW3 3835   4.103   2.453   1.581
  951SOL    MW4 3836   4.039   2.504   1.550
  952SOL     OW 3837   4.028   2.772   1.608
  952SOL    HW2 3838   4.037   2.744   1.699
  952SOL    HW3 3839   4.116   2.802   1.584
  952SOL    MW4 3840   4.041   2.772   1.617
  953SOL     OW 3841   4.262   2.839   1.494
  953SOL    HW2 3842   4.274   2.933   1.507
  953SOL    HW3 3843   4.235   2.831   1.402
  953SOL    MW4 3844   4.260   2.850   1.483
  954SOL     OW 3845   4.262   3.118   1.534
  954SOL    HW2 3846   4.259   3.100   1.628
  954SOL    HW3 3847   4.351   3.148   1.518
  954SOL    MW4 3848   4.273   3.119   1.544
  955SOL     OW 3849   4.043   3.242   1.414
  955SOL    HW2 3850   4.034   3.314   1.477
  955SOL    HW3 3851   4.109   3.184   1.453
  955SOL    MW4 3852   4.051   3.244   1.428
  956SOL     OW 3853   4.047   3.468   1.591
  956SOL    HW2 3854   4.051   3.493   1.683
  956SOL    HW3 3855   4.114   3.521   1.548
  956SOL    MW4 3856   4.056   3.478   1.597
  957SOL     OW 3857   4.273   3.595   1.469
  957SOL    HW2 3858   4.287   3.681   1.507
  957SOL    HW3 3859   4.283   3.608   1.375
  957SOL    MW4 3860   4.276   3.608   1.462
  958SOL     OW 3861   4.303   3.863   1.550
  958SOL    HW2 3862   4.247   3.909   1.487
  958SOL    HW3 3863   4.391   3.897   1.534
  958SOL    MW4 3864   4.307   3.874   1.539
  959SOL     OW 3865   4.035   3.981   1.437
  959SOL    HW2 3866   4.017   4.064   1.483
  959SOL    HW3 3867   4.046   4.006   1.346
  959SOL    MW4 3868   4.034   3.996   1.431
  960SOL     OW 3869   4.005   4.247   1.561
  960SOL    HW2 3870   4.021   4.270   1.653
  960SOL    HW3 3871   3.929   4.299   1.536
  960SOL    MW4 3872   3.997   4.257   1.570
  961SOL     OW 3873   4.258   4.352   1.485
  961SOL    HW2 3874   4.184   4.305   1.523
  961SOL    HW3 3875   4.243   4.348   1.391
  961SOL    MW4 3876   4.247   4.345   1.478
  962SOL     OW 3877   0.221   4.631   1.877
  962SOL    HW2 3878   0.293   4.685   1.910
  962SOL    HW3 3879   0.227   4.640   1.782
  962SOL    MW4 3880   0.231   4.639   1.869
  963SOL     OW 3881   4.489   0.110   2.011
  963SOL    HW2 3882   4.512   0.198   1.980
  963SOL    HW3 3883   4.569   0.059   1.998
  963SOL    MW4 3884   4.503   0.115   2.005
  964SOL     OW 3885   4.483   0.364   1.902
  964SOL    HW2 3886   4.411   0.420   1.933
  964SOL    HW3 3887   4.563   0.407   1.932
  964SOL    MW4 3888   4.484   0.377   1.910
  965SOL     OW 3889   0.242   0.487   1.977
  965SOL    HW2 3890   0.312   0.430   1.944
  965SOL    HW3 3891   0.248   0.566   1.923
  965SOL    MW4 3892   0.252   0.490   1.965
  966SOL     OW 3893   0.208   0.725   1.834
  966SOL    HW2 3894   0.271   0.780   1.882
  966SOL    HW3 3895   0.223   0.746   1.742
  966SOL    MW4 3896   0.218   0.735   1.828
  967SOL     OW 3897   4.483   0.861   1.947
  967SOL    HW2 3898   4.401   0.835   1.907
  967SOL    HW3 3899   4.550   0.808   1.903
  967SOL    MW4 3900   4.481   0.851   1.936
  968SOL     OW 3901   0.015   1.123   1.884
  968SOL    HW2 3902  -0.062   1.172   1.911
  968SOL    HW3 3903  -0.001   1.034   1.915
  968SOL    MW4 3904   0.003   1.118   1.892
  969SOL     OW 3905   0.248   1.224   1.964
  969SOL    HW2 3906   0.238   1.317   1.945
  969SOL    HW3 3907   0.162   1.186   1.949
  969SOL    MW4 3908   0.236   1.231   1.960
  970SOL     OW 3909   0.250   1.479   1.869
  970SOL    HW2 3910   0.333   1.525   1.884
  970SOL    HW3 3911   0.184   1.534   1.911
  970SOL    MW4 3912   0.253   1.492   1.876
  971SOL     OW 3913   0.066   1.653   1.983
  971SOL    HW2 3914   0.046   1.664   2.076
  971SOL    HW3 3915  -0.018   1.629   1.943
  971SOL    MW4 3916   0.053   1.651   1.990
  972SOL     OW 3917   0.045   1.906   1.856
  972SOL    HW2 3918  -0.026   1.950   1.902
  972SOL    HW3 3919   0.046   1.818   1.893
  972SOL    MW4 3920   0.036   1.900   1.867
  973SOL     OW 3921   0.258   2.059   1.923
  973SOL    HW2 3922   0.247   2.152   1.903
  973SOL    HW3 3923   0.179   2.017   1.889
  973SOL    MW4 3924   0.246   2.066   1.916
  974SOL     OW 3925   0.217   2.337   1.835
  974SOL    HW2 3926   0.302   2.366   1.870
  974SOL    HW3 3927   0.152   2.379   1.891
  974SOL    MW4 3928   0.220   2.347   1.847
  975SOL     OW 3929   0.004   2.467   1.973
  975SOL    HW2 3930  -0.017   2.476   2.067
  975SOL    HW3 3931   0.003   2.557   1.940
  975SOL    MW4 3932   0.001   2.480   1.981
  976SOL     OW 3933   0.015   2.712   1.860
  976SOL    HW2 3934  -0.071   2.748   1.885
  976SOL    HW3 3935   0.022   2.730   1.766
  976SOL    MW4 3936   0.005   2.719   1.851
  977SOL     OW 3937   0.245   2.820   1.984
  977SOL    HW2 3938   0.250   2.895   1.925
  977SOL    HW3 3939   0.165   2.774   1.958
  977SOL    MW4 3940   0.235   2.824   1.973
  978SOL     OW 3941   0.209   3.063   1.840
  978SOL    HW2 3942   0.280   3.123   1.865
  978SOL    HW3 3943   0.214   3.061   1.744
  978SOL    MW4 3944   0.219   3.071   1.830
  979SOL     OW 3945   4.475   3.192   1.925
  979SOL    HW2 3946   4.401   3.144   1.886
  979SOL    HW3 3947   4.553   3.144   1.896
  979SOL    MW4 3948   4.475   3.180   1.916
  980SOL     OW 3949   4.468   3.490   1.851
  980SOL    HW2 3950   4.550   3.521   1.891
  980SOL    HW3 3951   4.463   3.398   1.875
  980SOL    MW4 3952   4.478   3.482   1.859
  981SOL     OW 3953   0.210   3.621   1.957
  981SOL    HW2 3954   0.215   3.600   2.050
  981SOL    HW3 3955   0.285   3.575   1.917
  981SOL    MW4 3956   0.221   3.612   1.964
  982SOL     OW 3957   0.256   3.867   1.860
  982SOL    HW2 3958   0.337   3.903   1.897
  982SOL    HW3 3959   0.248   3.781   1.900
  982SOL    MW4 3960   0.266   3.861   1.871
  983SOL     OW 3961   0.038   4.036   1.920
  983SOL    HW2 3962   0.055   4.128   1.898
  983SOL    HW3 3963   0.122   3.992   1.908
  983SOL    MW4 3964   0.051   4.042   1.915
  984SOL     OW 3965   0.005   4.305   1.820
  984SOL    HW2 3966  -0.063   4.334   1.881
  984SOL    HW3 3967   0.087   4.335   1.860
  984SOL    MW4 3968   0.007   4.313   1.833
  985SOL     OW 3969   0.239   4.361   1.929
  985SOL    HW2 3970   0.226   4.373   2.023
  985SOL    HW3 3971   0.239   4.450   1.894
  985SOL    MW4 3972   0.237   4.375   1.937
  986SOL     OW 3973   0.689   4.620   1.850
  986SOL    HW2 3974   0.695   4.528   1.877
  986SOL    HW3 3975   0.696   4.617   1.755
  986SOL    MW4 3976   0.691   4.607   1.841
  987SOL     OW 3977   0.456   0.073   1.974
  987SOL    HW2 3978   0.470   0.165   1.952
  987SOL    HW3 3979   0.528   0.027   1.930
  987SOL    MW4 3980   0.468   0.079   1.965
  988SOL     OW 3981   0.463   0.341   1.871
  988SOL    HW2 3982   0.521   0.401   1.918
  988SOL    HW3 3983   0.461   0.376   1.781
  988SOL    MW4 3984   0.470   0.354   1.865
  989SOL     OW 3985   0.640   0.504   1.993
  989SOL    HW2 3986   0.649   0.499   2.089
  989SOL    HW3 3987   0.717   0.458   1.960
  989SOL    MW4 3988   0.651   0.497   2.002
  990SOL     OW 3989   0.653   0.731   1.831
  990SOL    HW2 3990   0.717   0.776   1.886
  990SOL    HW3 3991   0.648   0.643   1.867
  990SOL    MW4 3992   0.660   0.726   1.843
  991SOL     OW 3993   0.423   0.867   1.952
  991SOL    HW2 3994   0.444   0.959   1.935
  991SOL    HW3 3995   0.497   0.818   1.915
  991SOL    MW4 3996   0.436   0.872   1.945
  992SOL     OW 3997   0.482   1.124   1.864
  992SOL    HW2 3998   0.400   1.157   1.900
  992SOL    HW3 3999   0.463   1.105   1.772
  992SOL    MW4 4000   0.469   1.126   1.857
  993SOL     OW 4001   0.707   1.260   1.959
  993SOL    HW2 4002   0.688   1.261   2.053
  993SOL    HW3 4003   0.641   1.202   1.922
  993SOL    MW4 4004   0.696   1.252   1.967
  994SOL     OW 4005   0.716   1.527   1.876
  994SOL    HW2 4006   0.728   1.439   1.910
  994SOL    HW3 4007   0.708   1.515   1.781
  994SOL    MW4 4008   0.717   1.514   1.868
  995SOL     OW 4009   0.479   1.664   1.954
  995SOL    HW2 4010   0.468   1.673   2.048
  995SOL    HW3 4011   0.561   1.617   1.943
  995SOL    MW4 4012   0.488   1.659   1.965
  996SOL     OW 4013   0.450   1.897   1.815
  996SOL    HW2 4014   0.455   1.814   1.864
  996SOL    HW3 4015   0.381   1.946   1.860
  996SOL    MW4 4016   0.441   1.892   1.827
  997SOL     OW 4017   0.632   2.068   1.952
  997SOL    HW2 4018   0.617   2.053   2.045
  997SOL    HW3 4019   0.576   2.003   1.908
  997SOL    MW4 4020   0.623   2.057   1.958
  998SOL     OW 4021   0.728   2.327   1.895
  998SOL    HW2 4022   0.689   2.243   1.920
  998SOL    HW3 4023   0.717   2.332   1.800
  998SOL    MW4 4024   0.721   2.317   1.886
  999SOL     OW 4025   0.465   2.422   1.950
  999SOL    HW2 4026   0.449   2.430   2.044
  999SOL    HW3 4027   0.557   2.399   1.943
  999SOL    MW4 4028   0.475   2.420   1.962
 1000SOL     OW 4029   0.426   2.686   1.824
 1000SOL    HW2 4030   0.455   2.599   1.850
 1000SOL    HW3 4031   0.347   2.702   1.875
 1000SOL    MW4 4032   0.419   2.677   1.834
 1001SOL     OW 4033   0.612   2.849   1.946
 1001SOL    HW2 4034   0.623   2.818   2.035
 1001SOL    HW3 4035   0.550   2.788   1.906
 1001SOL    MW4 4036   0.605   2.837   1.952
 1002SOL     OW 4037   0.642   3.107   1.856
 1002SOL    HW2 4038   0.648   3.015   1.881
 1002SOL    HW3 4039   0.640   3.106   1.760
 1002SOL    MW4 4040   0.642   3.095   1.846
 1003SOL     OW 4041   0.406   3.209   1.966
 1003SOL    HW2 4042   0.418   3.304   1.959
 1003SOL    HW3 4043   0.481   3.172   1.920
 1003SOL    MW4 4044   0.417   3.217   1.959
 1004SOL     OW 4045   0.421   3.463   1.862
 1004SOL    HW2 4046   0.490   3.521   1.896
 1004SOL    HW3 4047   0.439   3.456   1.769
 1004SOL    MW4 4048   0.433   3.470   1.855
 1005SOL     OW 4049   0.640   3.618   1.997
 1005SOL    HW2 4050   0.701   3.555   1.958
 1005SOL    HW3 4051   0.666   3.702   1.961
 1005SOL    MW4 4052   0.651   3.621   1.987
 1006SOL     OW 4053   0.660   3.864   1.873
 1006SOL    HW2 4054   0.745   3.897   1.904
 1006SOL    HW3 4055   0.674   3.847   1.780
 1006SOL    MW4 4056   0.673   3.866   1.865
 1007SOL     OW 4057   0.458   4.012   1.976
 1007SOL    HW2 4058   0.468   4.104   1.950
 1007SOL    HW3 4059   0.539   3.970   1.950
 1007SOL    MW4 4060   0.470   4.019   1.969
 1008SOL     OW 4061   0.480   4.271   1.872
 1008SOL    HW2 4062   0.398   4.310   1.901
 1008SOL    HW3 4063   0.469   4.258   1.778
 1008SOL    MW4 4064   0.468   4.274   1.864
 1009SOL     OW 4065   0.721   4.377   1.958
 1009SOL    HW2 4066   0.790   4.321   1.923
 1009SOL    HW3 4067   0.640   4.339   1.924
 1009SOL    MW4 4068   0.720   4.365   1.949
 1010SOL     OW 4069   1.149   4.606   1.821
 1010SOL    HW2 4070   1.211   4.663   1.866
 1010SOL    HW3 4071   1.150   4.524   1.871
 1010SOL    MW4 4072   1.157   4.602   1.833
 1011SOL     OW 4073   0.926   0.074   1.935
 1011SOL    HW2 4074   1.008   0.029   1.915
 1011SOL    HW3 4075   0.858   0.015   1.905
 1011SOL    MW4 4076   0.928   0.061   1.929
 1012SOL     OW 4077   0.881   0.365   1.902
 1012SOL    HW2 4078   0.970   0.398   1.913
 1012SOL    HW3 4079   0.885   0.275   1.932
 1012SOL    MW4 4080   0.894   0.358   1.907
 1013SOL     OW 4081   1.119   0.509   1.986
 1013SOL    HW2 4082   1.192   0.475   1.935
 1013SOL    HW3 4083   1.099   0.593   1.946
 1013SOL    MW4 4084   1.126   0.516   1.974
 1014SOL     OW 4085   1.077   0.743   1.839
 1014SOL    HW2 4086   1.151   0.789   1.880
 1014SOL    HW3 4087   1.000   0.782   1.881
 1014SOL    MW4 4088   1.077   0.754   1.850
 1015SOL     OW 4089   0.852   0.860   1.974
 1015SOL    HW2 4090   0.861   0.849   2.068
 1015SOL    HW3 4091   0.887   0.947   1.956
 1015SOL    MW4 4092   0.858   0.870   1.984
 1016SOL     OW 4093   0.939   1.120   1.900
 1016SOL    HW2 4094   0.860   1.170   1.920
 1016SOL    HW3 4095   0.946   1.124   1.804
 1016SOL    MW4 4096   0.930   1.127   1.890
 1017SOL     OW 4097   1.158   1.297   2.001
 1017SOL    HW2 4098   1.141   1.380   1.957
 1017SOL    HW3 4099   1.091   1.237   1.967
 1017SOL    MW4 4100   1.147   1.300   1.991
 1018SOL     OW 4101   1.095   1.521   1.852
 1018SOL    HW2 4102   1.032   1.579   1.893
 1018SOL    HW3 4103   1.086   1.538   1.758
 1018SOL    MW4 4104   1.086   1.531   1.845
 1019SOL     OW 4105   0.910   1.683   1.987
 1019SOL    HW2 4106   0.906   1.776   1.964
 1019SOL    HW3 4107   0.828   1.647   1.955
 1019SOL    MW4 4108   0.899   1.691   1.980
 1020SOL     OW 4109   0.880   1.945   1.899
 1020SOL    HW2 4110   0.802   1.992   1.929
 1020SOL    HW3 4111   0.866   1.933   1.805
 1020SOL    MW4 4112   0.867   1.950   1.891
 1021SOL     OW 4113   1.135   2.040   1.994
 1021SOL    HW2 4114   1.134   2.133   1.969
 1021SOL    HW3 4115   1.043   2.013   1.991
 1021SOL    MW4 4116   1.123   2.049   1.991
 1022SOL     OW 4117   1.133   2.315   1.921
 1022SOL    HW2 4118   1.207   2.369   1.948
 1022SOL    HW3 4119   1.140   2.312   1.825
 1022SOL    MW4 4120   1.144   2.322   1.912
 1023SOL     OW 4121   0.935   2.492   1.981
 1023SOL    HW2 4122   1.004   2.426   1.970
 1023SOL    HW3 4123   0.856   2.450   1.945
 1023SOL    MW4 4124   0.933   2.477   1.975
 1024SOL     OW 4125   0.905   2.741   1.859
 1024SOL    HW2 4126   0.924   2.653   1.892
 1024SOL    HW3 4127   0.815   2.758   1.885
 1024SOL    MW4 4128   0.896   2.732   1.867
 1025SOL     OW 4129   1.145   2.824   1.960
 1025SOL    HW2 4130   1.130   2.822   2.055
 1025SOL    HW3 4131   1.061   2.796   1.922
 1025SOL    MW4 4132   1.132   2.820   1.968
 1026SOL     OW 4133   1.103   3.079   1.837
 1026SOL    HW2 4134   1.017   3.111   1.861
 1026SOL    HW3 4135   1.115   2.999   1.889
 1026SOL    MW4 4136   1.093   3.073   1.847
 1027SOL     OW 4137   0.885   3.219   1.950
 1027SOL    HW2 4138   0.897   3.205   2.044
 1027SOL    HW3 4139   0.801   3.177   1.930
 1027SOL    MW4 4140   0.876   3.212   1.960
 1028SOL     OW 4141   0.836   3.470   1.866
 1028SOL    HW2 4142   0.845   3.385   1.909
 1028SOL    HW3 4143   0.844   3.451   1.773
 1028SOL    MW4 4144   0.838   3.456   1.860
 1029SOL     OW 4145   1.090   3.587   1.928
 1029SOL    HW2 4146   1.090   3.571   2.022
 1029SOL    HW3 4147   1.007   3.551   1.897
 1029SOL    MW4 4148   1.079   3.580   1.936
 1030SOL     OW 4149   1.129   3.900   1.913
 1030SOL    HW2 4150   1.115   3.805   1.923
 1030SOL    HW3 4151   1.119   3.915   1.819
 1030SOL    MW4 4152   1.125   3.889   1.902
 1031SOL     OW 4153   0.884   3.993   2.015
 1031SOL    HW2 4154   0.881   4.012   2.109
 1031SOL    HW3 4155   0.973   3.963   1.999
 1031SOL    MW4 4156   0.895   3.991   2.025
 1032SOL     OW 4157   0.924   4.226   1.860
 1032SOL    HW2 4158   1.009   4.268   1.873
 1032SOL    HW3 4159   0.925   4.151   1.919
 1032SOL    MW4 4160   0.935   4.222   1.870
 1033SOL     OW 4161   1.155   4.371   1.946
 1033SOL    HW2 4162   1.127   4.341   2.032
 1033SOL    HW3 4163   1.238   4.325   1.930
 1033SOL    MW4 4164   1.163   4.361   1.955
 1034SOL     OW 4165   1.587   4.629   1.843
 1034SOL    HW2 4166   1.650   4.684   1.890
 1034SOL    HW3 4167   1.594   4.544   1.886
 1034SOL    MW4 4168   1.596   4.625   1.855
 1035SOL     OW 4169   1.362   0.074   1.933
 1035SOL    HW2 4170   1.375   0.079   2.027
 1035SOL    HW3 4171   1.437   0.024   1.901
 1035SOL    MW4 4172   1.374   0.068   1.941
 1036SOL     OW 4173   1.328   0.358   1.854
 1036SOL    HW2 4174   1.332   0.275   1.902
 1036SOL    HW3 4175   1.345   0.333   1.763
 1036SOL    MW4 4176   1.331   0.344   1.848
 1037SOL     OW 4177   1.572   0.472   1.953
 1037SOL    HW2 4178   1.649   0.433   1.912
 1037SOL    HW3 4179   1.498   0.430   1.911
 1037SOL    MW4 4180   1.573   0.461   1.942
 1038SOL     OW 4181   1.537   0.732   1.867
 1038SOL    HW2 4182   1.594   0.791   1.917
 1038SOL    HW3 4183   1.557   0.645   1.902
 1038SOL    MW4 4184   1.548   0.729   1.879
 1039SOL     OW 4185   1.304   0.860   1.962
 1039SOL    HW2 4186   1.309   0.866   2.057
 1039SOL    HW3 4187   1.378   0.804   1.937
 1039SOL    MW4 4188   1.314   0.853   1.971
 1040SOL     OW 4189   1.347   1.130   1.886
 1040SOL    HW2 4190   1.316   1.040   1.898
 1040SOL    HW3 4191   1.283   1.183   1.932
 1040SOL    MW4 4192   1.334   1.125   1.894
 1041SOL     OW 4193   1.568   1.269   1.972
 1041SOL    HW2 4194   1.562   1.356   1.932
 1041SOL    HW3 4195   1.485   1.227   1.951
 1041SOL    MW4 4196   1.556   1.275   1.964
 1042SOL     OW 4197   1.584   1.525   1.856
 1042SOL    HW2 4198   1.656   1.570   1.899
 1042SOL    HW3 4199   1.505   1.568   1.889
 1042SOL    MW4 4200   1.583   1.536   1.866
 1043SOL     OW 4201   1.356   1.631   1.946
 1043SOL    HW2 4202   1.349   1.628   2.042
 1043SOL    HW3 4203   1.268   1.608   1.916
 1043SOL    MW4 4204   1.343   1.628   1.955
 1044SOL     OW 4205   1.375   1.890   1.860
 1044SOL    HW2 4206   1.373   1.806   1.905
 1044SOL    HW3 4207   1.294   1.935   1.887
 1044SOL    MW4 4208   1.364   1.885   1.869
 1045SOL     OW 4209   1.593   2.042   1.978
 1045SOL    HW2 4210   1.586   2.133   1.948
 1045SOL    HW3 4211   1.515   1.999   1.942
 1045SOL    MW4 4212   1.582   2.049   1.969
 1046SOL     OW 4213   1.576   2.286   1.865
 1046SOL    HW2 4214   1.642   2.353   1.885
 1046SOL    HW3 4215   1.571   2.285   1.769
 1046SOL    MW4 4216   1.584   2.295   1.855
 1047SOL     OW 4217   1.382   2.423   2.004
 1047SOL    HW2 4218   1.397   2.512   1.972
 1047SOL    HW3 4219   1.439   2.368   1.950
 1047SOL    MW4 4220   1.391   2.428   1.993
 1048SOL     OW 4221   1.359   2.685   1.873
 1048SOL    HW2 4222   1.290   2.742   1.906
 1048SOL    HW3 4223   1.351   2.691   1.777
 1048SOL    MW4 4224   1.349   2.693   1.865
 1049SOL     OW 4225   1.553   2.869   1.922
 1049SOL    HW2 4226   1.634   2.837   1.883
 1049SOL    HW3 4227   1.488   2.802   1.901
 1049SOL    MW4 4228   1.555   2.856   1.914
 1050SOL     OW 4229   1.532   3.111   1.835
 1050SOL    HW2 4230   1.534   3.022   1.871
 1050SOL    HW3 4231   1.532   3.098   1.740
 1050SOL    MW4 4232   1.532   3.098   1.827
 1051SOL     OW 4233   1.319   3.256   1.946
 1051SOL    HW2 4234   1.396   3.209   1.918
 1051SOL    HW3 4235   1.245   3.204   1.914
 1051SOL    MW4 4236   1.319   3.243   1.938
 1052SOL     OW 4237   1.342   3.508   1.853
 1052SOL    HW2 4238   1.346   3.423   1.897
 1052SOL    HW3 4239   1.250   3.535   1.861
 1052SOL    MW4 4240   1.330   3.500   1.860
 1053SOL     OW 4241   1.584   3.590   1.958
 1053SOL    HW2 4242   1.566   3.596   2.052
 1053SOL    HW3 4243   1.501   3.562   1.920
 1053SOL    MW4 4244   1.571   3.587   1.966
 1054SOL     OW 4245   1.621   3.836   1.855
 1054SOL    HW2 4246   1.685   3.889   1.903
 1054SOL    HW3 4247   1.624   3.750   1.898
 1054SOL    MW4 4248   1.630   3.832   1.867
 1055SOL     OW 4249   1.398   3.985   1.954
 1055SOL    HW2 4250   1.462   3.918   1.932
 1055SOL    HW3 4251   1.313   3.945   1.936
 1055SOL    MW4 4252   1.396   3.971   1.949
 1056SOL     OW 4253   1.374   4.240   1.865
 1056SOL    HW2 4254   1.384   4.151   1.899
 1056SOL    HW3 4255   1.357   4.229   1.772
 1056SOL    MW4 4256   1.373   4.227   1.857
 1057SOL     OW 4257   1.617   4.358   1.948
 1057SOL    HW2 4258   1.613   4.361   2.044
 1057SOL    HW3 4259   1.533   4.321   1.922
 1057SOL    MW4 4260   1.606   4.353   1.957
 1058SOL     OW 4261   2.005   4.667   1.903
 1058SOL    HW2 4262   2.093   4.700   1.922
 1058SOL    HW3 4263   2.013   4.572   1.912
 1058SOL    MW4 4264   2.018   4.659   1.906
 1059SOL     OW 4265   1.766   0.104   1.988
 1059SOL    HW2 4266   1.769   0.135   2.078
 1059SOL    HW3 4267   1.850   0.059   1.975
 1059SOL    MW4 4268   1.778   0.102   1.998
 1060SOL     OW 4269   1.796   0.344   1.876
 1060SOL    HW2 4270   1.815   0.255   1.907
 1060SOL    HW3 4271   1.789   0.334   1.781
 1060SOL    MW4 4272   1.798   0.331   1.868
 1061SOL     OW 4273   2.008   0.504   1.937
 1061SOL    HW2 4274   1.997   0.597   1.916
 1061SOL    HW3 4275   1.924   0.465   1.913
 1061SOL    MW4 4276   1.995   0.511   1.931
 1062SOL     OW 4277   1.996   0.766   1.868
 1062SOL    HW2 4278   2.082   0.800   1.892
 1062SOL    HW3 4279   1.996   0.762   1.773
 1062SOL    MW4 4280   2.007   0.770   1.859
 1063SOL     OW 4281   1.771   0.885   1.971
 1063SOL    HW2 4282   1.778   0.977   1.944
 1063SOL    HW3 4283   1.844   0.842   1.926
 1063SOL    MW4 4284   1.782   0.892   1.961
 1064SOL     OW 4285   1.824   1.162   1.893
 1064SOL    HW2 4286   1.742   1.208   1.908
 1064SOL    HW3 4287   1.824   1.144   1.799
 1064SOL    MW4 4288   1.813   1.166   1.882
 1065SOL     OW 4289   2.047   1.324   1.956
 1065SOL    HW2 4290   2.133   1.284   1.946
 1065SOL    HW3 4291   1.986   1.257   1.924
 1065SOL    MW4 4292   2.050   1.310   1.950
 1066SOL     OW 4293   2.030   1.562   1.838
 1066SOL    HW2 4294   2.030   1.469   1.862
 1066SOL    HW3 4295   2.050   1.562   1.744
 1066SOL    MW4 4296   2.032   1.549   1.828
 1067SOL     OW 4297   1.813   1.668   1.956
 1067SOL    HW2 4298   1.825   1.758   1.927
 1067SOL    HW3 4299   1.884   1.619   1.914
 1067SOL    MW4 4300   1.824   1.673   1.947
 1068SOL     OW 4301   1.821   1.920   1.871
 1068SOL    HW2 4302   1.748   1.971   1.906
 1068SOL    HW3 4303   1.823   1.941   1.777
 1068SOL    MW4 4304   1.812   1.929   1.863
 1069SOL     OW 4305   2.034   2.048   1.982
 1069SOL    HW2 4306   2.118   2.022   1.944
 1069SOL    HW3 4307   1.969   1.995   1.936
 1069SOL    MW4 4308   2.036   2.037   1.971
 1070SOL     OW 4309   2.011   2.307   1.873
 1070SOL    HW2 4310   2.098   2.341   1.894
 1070SOL    HW3 4311   2.011   2.218   1.908
 1070SOL    MW4 4312   2.022   2.300   1.880
 1071SOL     OW 4313   1.780   2.463   1.947
 1071SOL    HW2 4314   1.790   2.475   2.041
 1071SOL    HW3 4315   1.848   2.399   1.923
 1071SOL    MW4 4316   1.790   2.456   1.956
 1072SOL     OW 4317   1.787   2.728   1.842
 1072SOL    HW2 4318   1.786   2.636   1.868
 1072SOL    HW3 4319   1.792   2.726   1.747
 1072SOL    MW4 4320   1.788   2.715   1.833
 1073SOL     OW 4321   2.042   2.798   1.960
 1073SOL    HW2 4322   2.032   2.824   2.051
 1073SOL    HW3 4323   1.955   2.767   1.934
 1073SOL    MW4 4324   2.029   2.797   1.968
 1074SOL     OW 4325   2.028   3.065   1.868
 1074SOL    HW2 4326   1.940   3.100   1.882
 1074SOL    HW3 4327   2.025   2.976   1.902
 1074SOL    MW4 4328   2.016   3.058   1.875
 1075SOL     OW 4329   1.785   3.163   1.951
 1075SOL    HW2 4330   1.771   3.163   2.045
 1075SOL    HW3 4331   1.702   3.134   1.913
 1075SOL    MW4 4332   1.772   3.159   1.958
 1076SOL     OW 4333   1.778   3.427   1.855
 1076SOL    HW2 4334   1.777   3.341   1.896
 1076SOL    HW3 4335   1.712   3.478   1.902
 1076SOL    MW4 4336   1.769   3.423   1.866
 1077SOL     OW 4337   2.022   3.549   1.963
 1077SOL    HW2 4338   2.042   3.635   1.927
 1077SOL    HW3 4339   1.938   3.525   1.924
 1077SOL    MW4 4340   2.013   3.557   1.953
 1078SOL     OW 4341   2.051   3.825   1.903
 1078SOL    HW2 4342   2.120   3.887   1.926
 1078SOL    HW3 4343   2.045   3.830   1.808
 1078SOL    MW4 4344   2.059   3.834   1.894
 1079SOL     OW 4345   1.832   3.971   1.968
 1079SOL    HW2 4346   1.858   4.059   1.942
 1079SOL    HW3 4347   1.910   3.918   1.953
 1079SOL    MW4 4348   1.846   3.976   1.963
 1080SOL     OW 4349   1.840   4.216   1.846
 1080SOL    HW2 4350   1.748   4.234   1.865
 1080SOL    HW3 4351   1.845   4.211   1.751
 1080SOL    MW4 4352   1.829   4.217   1.836
 1081SOL     OW 4353   2.006   4.397   1.958
 1081SOL    HW2 4354   2.085   4.346   1.940
 1081SOL    HW3 4355   1.935   4.345   1.919
 1081SOL    MW4 4356   2.007   4.383   1.950
 1082SOL     OW 4357   2.482   4.664   1.845
 1082SOL    HW2 4358   2.552   4.712   1.890
 1082SOL    HW3 4359   2.483   4.577   1.884
 1082SOL    MW4 4360   2.492   4.659   1.856
 1083SOL     OW 4361   2.252   0.096   1.960
 1083SOL    HW2 4362   2.263   0.095   2.055
 1083SOL    HW3 4363   2.326   0.045   1.927
 1083SOL    MW4 4364   2.263   0.089   1.968
 1084SOL     OW 4365   2.245   0.363   1.891
 1084SOL    HW2 4366   2.247   0.277   1.933
 1084SOL    HW3 4367   2.155   0.393   1.902
 1084SOL    MW4 4368   2.234   0.355   1.898
 1085SOL     OW 4369   2.460   0.496   2.019
 1085SOL    HW2 4370   2.528   0.449   1.971
 1085SOL    HW3 4371   2.380   0.448   1.999
 1085SOL    MW4 4372   2.458   0.483   2.010
 1086SOL     OW 4373   2.493   0.744   1.892
 1086SOL    HW2 4374   2.478   0.659   1.934
 1086SOL    HW3 4375   2.501   0.724   1.799
 1086SOL    MW4 4376   2.492   0.730   1.885
 1087SOL     OW 4377   2.244   0.876   1.947
 1087SOL    HW2 4378   2.261   0.894   2.039
 1087SOL    HW3 4379   2.324   0.834   1.915
 1087SOL    MW4 4380   2.257   0.873   1.955
 1088SOL     OW 4381   2.253   1.143   1.883
 1088SOL    HW2 4382   2.344   1.169   1.894
 1088SOL    HW3 4383   2.249   1.053   1.914
 1088SOL    MW4 4384   2.264   1.135   1.889
 1089SOL     OW 4385   2.496   1.275   1.913
 1089SOL    HW2 4386   2.483   1.280   2.008
 1089SOL    HW3 4387   2.487   1.366   1.883
 1089SOL    MW4 4388   2.493   1.288   1.922
 1090SOL     OW 4389   2.488   1.535   1.832
 1090SOL    HW2 4390   2.405   1.576   1.857
 1090SOL    HW3 4391   2.496   1.553   1.739
 1090SOL    MW4 4392   2.478   1.543   1.823
 1091SOL     OW 4393   2.262   1.677   1.945
 1091SOL    HW2 4394   2.266   1.682   2.040
 1091SOL    HW3 4395   2.178   1.635   1.927
 1091SOL    MW4 4396   2.251   1.673   1.955
 1092SOL     OW 4397   2.267   1.955   1.860
 1092SOL    HW2 4398   2.351   1.990   1.890
 1092SOL    HW3 4399   2.261   1.869   1.901
 1092SOL    MW4 4400   2.277   1.949   1.869
 1093SOL     OW 4401   2.518   2.047   1.960
 1093SOL    HW2 4402   2.603   2.015   1.930
 1093SOL    HW3 4403   2.514   2.137   1.928
 1093SOL    MW4 4404   2.529   2.055   1.952
 1094SOL     OW 4405   2.493   2.320   1.848
 1094SOL    HW2 4406   2.573   2.360   1.881
 1094SOL    HW3 4407   2.423   2.359   1.901
 1094SOL    MW4 4408   2.494   2.331   1.859
 1095SOL     OW 4409   2.268   2.430   1.943
 1095SOL    HW2 4410   2.275   2.439   2.038
 1095SOL    HW3 4411   2.301   2.513   1.908
 1095SOL    MW4 4412   2.274   2.442   1.951
 1096SOL     OW 4413   2.298   2.698   1.831
 1096SOL    HW2 4414   2.217   2.729   1.871
 1096SOL    HW3 4415   2.274   2.675   1.742
 1096SOL    MW4 4416   2.284   2.699   1.825
 1097SOL     OW 4417   2.515   2.815   1.969
 1097SOL    HW2 4418   2.513   2.903   1.931
 1097SOL    HW3 4419   2.444   2.769   1.925
 1097SOL    MW4 4420   2.505   2.821   1.958
 1098SOL     OW 4421   2.506   3.053   1.858
 1098SOL    HW2 4422   2.427   3.100   1.887
 1098SOL    HW3 4423   2.494   3.043   1.764
 1098SOL    MW4 4424   2.494   3.058   1.850
 1099SOL     OW 4425   2.291   3.212   1.950
 1099SOL    HW2 4426   2.274   3.211   2.044
 1099SOL    HW3 4427   2.212   3.172   1.912
 1099SOL    MW4 4428   2.278   3.206   1.957
 1100SOL     OW 4429   2.262   3.472   1.882
 1100SOL    HW2 4430   2.270   3.386   1.926
 1100SOL    HW3 4431   2.175   3.503   1.906
 1100SOL    MW4 4432   2.252   3.464   1.891
 1101SOL     OW 4433   2.470   3.622   1.966
 1101SOL    HW2 4434   2.498   3.608   2.056
 1101SOL    HW3 4435   2.388   3.574   1.958
 1101SOL    MW4 4436   2.463   3.614   1.977
 1102SOL     OW 4437   2.486   3.891   1.873
 1102SOL    HW2 4438   2.416   3.950   1.902
 1102SOL    HW3 4439   2.464   3.807   1.912
 1102SOL    MW4 4440   2.474   3.888   1.882
 1103SOL     OW 4441   2.258   3.998   1.960
 1103SOL    HW2 4442   2.261   3.989   2.055
 1103SOL    HW3 4443   2.260   4.093   1.945
 1103SOL    MW4 4444   2.259   4.010   1.970
 1104SOL     OW 4445   2.250   4.280   1.914
 1104SOL    HW2 4446   2.314   4.332   1.962
 1104SOL    HW3 4447   2.276   4.289   1.822
 1104SOL    MW4 4448   2.262   4.288   1.908
 1105SOL     OW 4449   2.465   4.430   1.998
 1105SOL    HW2 4450   2.457   4.435   2.093
 1105SOL    HW3 4451   2.539   4.370   1.984
 1105SOL    MW4 4452   2.474   4.422   2.009
 1106SOL     OW 4453   2.931   4.665   1.886
 1106SOL    HW2 4454   2.997   4.715   1.934
 1106SOL    HW3 4455   2.931   4.579   1.927
 1106SOL    MW4 4456   2.939   4.660   1.898
 1107SOL     OW 4457   2.686   0.129   1.974
 1107SOL    HW2 4458   2.704   0.105   2.066
 1107SOL    HW3 4459   2.766   0.106   1.928
 1107SOL    MW4 4460   2.699   0.123   1.980
 1108SOL     OW 4461   2.676   0.387   1.886
 1108SOL    HW2 4462   2.746   0.434   1.931
 1108SOL    HW3 4463   2.686   0.296   1.914
 1108SOL    MW4 4464   2.686   0.381   1.896
 1109SOL     OW 4465   2.944   0.493   2.054
 1109SOL    HW2 4466   3.016   0.448   2.009
 1109SOL    HW3 4467   2.928   0.571   2.001
 1109SOL    MW4 4468   2.951   0.497   2.041
 1110SOL     OW 4469   2.893   0.751   1.898
 1110SOL    HW2 4470   2.968   0.793   1.940
 1110SOL    HW3 4471   2.817   0.797   1.933
 1110SOL    MW4 4472   2.893   0.762   1.908
 1111SOL     OW 4473   2.698   0.903   2.051
 1111SOL    HW2 4474   2.693   0.983   1.998
 1111SOL    HW3 4475   2.618   0.855   2.030
 1111SOL    MW4 4476   2.687   0.908   2.041
 1112SOL     OW 4477   2.733   1.149   1.917
 1112SOL    HW2 4478   2.648   1.194   1.916
 1112SOL    HW3 4479   2.746   1.120   1.826
 1112SOL    MW4 4480   2.723   1.151   1.905
 1113SOL     OW 4481   2.975   1.267   1.955
 1113SOL    HW2 4482   2.965   1.356   1.923
 1113SOL    HW3 4483   2.886   1.231   1.953
 1113SOL    MW4 4484   2.962   1.274   1.951
 1114SOL     OW 4485   2.924   1.524   1.894
 1114SOL    HW2 4486   3.002   1.562   1.936
 1114SOL    HW3 4487   2.937   1.541   1.800
 1114SOL    MW4 4488   2.936   1.532   1.887
 1115SOL     OW 4489   2.695   1.676   1.940
 1115SOL    HW2 4490   2.771   1.626   1.912
 1115SOL    HW3 4491   2.620   1.627   1.907
 1115SOL    MW4 4492   2.695   1.663   1.932
 1116SOL     OW 4493   2.755   1.936   1.875
 1116SOL    HW2 4494   2.818   1.987   1.926
 1116SOL    HW3 4495   2.766   1.847   1.906
 1116SOL    MW4 4496   2.765   1.931   1.886
 1117SOL     OW 4497   2.976   2.079   1.963
 1117SOL    HW2 4498   2.965   2.073   2.058
 1117SOL    HW3 4499   3.059   2.034   1.945
 1117SOL    MW4 4500   2.986   2.072   1.973
 1118SOL     OW 4501   2.958   2.330   1.841
 1118SOL    HW2 4502   3.025   2.388   1.877
 1118SOL    HW3 4503   2.968   2.248   1.890
 1118SOL    MW4 4504   2.968   2.327   1.852
 1119SOL     OW 4505   2.734   2.422   1.973
 1119SOL    HW2 4506   2.743   2.511   1.939
 1119SOL    HW3 4507   2.815   2.379   1.947
 1119SOL    MW4 4508   2.746   2.428   1.965
 1120SOL     OW 4509   2.727   2.670   1.889
 1120SOL    HW2 4510   2.662   2.728   1.929
 1120SOL    HW3 4511   2.716   2.683   1.795
 1120SOL    MW4 4512   2.717   2.680   1.882
 1121SOL     OW 4513   2.924   2.837   1.976
 1121SOL    HW2 4514   2.909   2.926   1.943
 1121SOL    HW3 4515   2.854   2.785   1.936
 1121SOL    MW4 4516   2.913   2.842   1.966
 1122SOL     OW 4517   2.922   3.087   1.863
 1122SOL    HW2 4518   2.993   3.136   1.905
 1122SOL    HW3 4519   2.844   3.140   1.879
 1122SOL    MW4 4520   2.921   3.101   1.870
 1123SOL     OW 4521   2.704   3.230   1.909
 1123SOL    HW2 4522   2.682   3.321   1.886
 1123SOL    HW3 4523   2.630   3.179   1.877
 1123SOL    MW4 4524   2.691   3.236   1.902
 1124SOL     OW 4525   2.666   3.490   1.834
 1124SOL    HW2 4526   2.739   3.522   1.887
 1124SOL    HW3 4527   2.596   3.553   1.849
 1124SOL    MW4 4528   2.667   3.502   1.843
 1125SOL     OW 4529   2.866   3.607   1.974
 1125SOL    HW2 4530   2.892   3.620   2.065
 1125SOL    HW3 4531   2.939   3.558   1.935
 1125SOL    MW4 4532   2.879   3.602   1.981
 1126SOL     OW 4533   2.925   3.856   1.859
 1126SOL    HW2 4534   2.916   3.767   1.894
 1126SOL    HW3 4535   2.919   3.845   1.765
 1126SOL    MW4 4536   2.923   3.842   1.852
 1127SOL     OW 4537   2.712   3.998   1.992
 1127SOL    HW2 4538   2.791   3.964   1.949
 1127SOL    HW3 4539   2.642   3.941   1.961
 1127SOL    MW4 4540   2.713   3.986   1.982
 1128SOL     OW 4541   2.677   4.253   1.915
 1128SOL    HW2 4542   2.692   4.165   1.950
 1128SOL    HW3 4543   2.664   4.240   1.822
 1128SOL    MW4 4544   2.678   4.240   1.908
 1129SOL     OW 4545   2.920   4.393   1.955
 1129SOL    HW2 4546   2.927   4.400   2.051
 1129SOL    HW3 4547   2.835   4.351   1.941
 1129SOL    MW4 4548   2.909   4.388   1.966
 1130SOL     OW 4549   3.368   0.010   1.902
 1130SOL    HW2 4550   3.359  -0.079   1.939
 1130SOL    HW3 4551   3.360  -0.003   1.808
 1130SOL    MW4 4552   3.366  -0.004   1.895
 1131SOL     OW 4553   3.140   0.118   2.020
 1131SOL    HW2 4554   3.140   0.106   2.115
 1131SOL    HW3 4555   3.222   0.079   1.991
 1131SOL    MW4 4556   3.151   0.112   2.029
 1132SOL     OW 4557   3.159   0.363   1.920
 1132SOL    HW2 4558   3.153   0.271   1.945
 1132SOL    HW3 4559   3.191   0.362   1.830
 1132SOL    MW4 4560   3.162   0.351   1.911
 1133SOL     OW 4561   3.361   0.528   2.008
 1133SOL    HW2 4562   3.440   0.488   1.973
 1133SOL    HW3 4563   3.293   0.461   1.998
 1133SOL    MW4 4564   3.362   0.514   2.002
 1134SOL     OW 4565   3.321   0.751   1.864
 1134SOL    HW2 4566   3.255   0.801   1.913
 1134SOL    HW3 4567   3.333   0.672   1.916
 1134SOL    MW4 4568   3.314   0.747   1.878
 1135SOL     OW 4569   3.129   0.888   1.998
 1135SOL    HW2 4570   3.132   0.905   2.092
 1135SOL    HW3 4571   3.125   0.975   1.959
 1135SOL    MW4 4572   3.129   0.902   2.005
 1136SOL     OW 4573   3.180   1.128   1.848
 1136SOL    HW2 4574   3.256   1.166   1.892
 1136SOL    HW3 4575   3.105   1.176   1.881
 1136SOL    MW4 4576   3.180   1.139   1.858
 1137SOL     OW 4577   3.380   1.266   1.955
 1137SOL    HW2 4578   3.375   1.271   2.050
 1137SOL    HW3 4579   3.348   1.351   1.924
 1137SOL    MW4 4580   3.375   1.278   1.963
 1138SOL     OW 4581   3.339   1.533   1.882
 1138SOL    HW2 4582   3.419   1.580   1.907
 1138SOL    HW3 4583   3.270   1.572   1.935
 1138SOL    MW4 4584   3.341   1.544   1.892
 1139SOL     OW 4585   3.132   1.676   2.001
 1139SOL    HW2 4586   3.139   1.669   2.097
 1139SOL    HW3 4587   3.149   1.768   1.982
 1139SOL    MW4 4588   3.135   1.687   2.011
 1140SOL     OW 4589   3.198   1.927   1.911
 1140SOL    HW2 4590   3.278   1.972   1.938
 1140SOL    HW3 4591   3.207   1.918   1.816
 1140SOL    MW4 4592   3.210   1.932   1.902
 1141SOL     OW 4593   3.443   2.050   2.011
 1141SOL    HW2 4594   3.500   1.994   1.959
 1141SOL    HW3 4595   3.437   2.131   1.960
 1141SOL    MW4 4596   3.450   2.053   1.997
 1142SOL     OW 4597   3.381   2.314   1.895
 1142SOL    HW2 4598   3.304   2.364   1.919
 1142SOL    HW3 4599   3.389   2.324   1.800
 1142SOL    MW4 4600   3.372   2.322   1.886
 1143SOL     OW 4601   3.163   2.461   1.962
 1143SOL    HW2 4602   3.173   2.470   2.056
 1143SOL    HW3 4603   3.168   2.550   1.928
 1143SOL    MW4 4604   3.165   2.474   1.970
 1144SOL     OW 4605   3.151   2.718   1.874
 1144SOL    HW2 4606   3.072   2.759   1.910
 1144SOL    HW3 4607   3.135   2.715   1.779
 1144SOL    MW4 4608   3.138   2.723   1.866
 1145SOL     OW 4609   3.367   2.867   1.957
 1145SOL    HW2 4610   3.372   2.849   2.051
 1145SOL    HW3 4611   3.291   2.816   1.928
 1145SOL    MW4 4612   3.358   2.858   1.966
 1146SOL     OW 4613   3.355   3.136   1.890
 1146SOL    HW2 4614   3.433   3.185   1.917
 1146SOL    HW3 4615   3.367   3.049   1.928
 1146SOL    MW4 4616   3.367   3.131   1.899
 1147SOL     OW 4617   3.118   3.244   2.008
 1147SOL    HW2 4618   3.112   3.334   1.976
 1147SOL    HW3 4619   3.199   3.210   1.971
 1147SOL    MW4 4620   3.128   3.251   1.999
 1148SOL     OW 4621   3.098   3.492   1.884
 1148SOL    HW2 4622   3.182   3.524   1.916
 1148SOL    HW3 4623   3.111   3.477   1.791
 1148SOL    MW4 4624   3.111   3.494   1.876
 1149SOL     OW 4625   3.332   3.600   1.954
 1149SOL    HW2 4626   3.407   3.557   1.914
 1149SOL    HW3 4627   3.342   3.692   1.931
 1149SOL    MW4 4628   3.343   3.606   1.946
 1150SOL     OW 4629   3.373   3.871   1.892
 1150SOL    HW2 4630   3.286   3.905   1.912
 1150SOL    HW3 4631   3.377   3.872   1.796
 1150SOL    MW4 4632   3.362   3.876   1.882
 1151SOL     OW 4633   3.134   4.012   1.956
 1151SOL    HW2 4634   3.132   3.992   2.049
 1151SOL    HW3 4635   3.055   3.971   1.921
 1151SOL    MW4 4636   3.124   4.004   1.963
 1152SOL     OW 4637   3.138   4.273   1.851
 1152SOL    HW2 4638   3.123   4.183   1.881
 1152SOL    HW3 4639   3.060   4.320   1.879
 1152SOL    MW4 4640   3.126   4.267   1.858
 1153SOL     OW 4641   3.364   4.415   1.960
 1153SOL    HW2 4642   3.447   4.375   1.934
 1153SOL    HW3 4643   3.297   4.354   1.929
 1153SOL    MW4 4644   3.366   4.402   1.953
 1154SOL     OW 4645   3.815   0.031   1.897
 1154SOL    HW2 4646   3.814  -0.062   1.921
 1154SOL    HW3 4647   3.728   0.063   1.921
 1154SOL    MW4 4648   3.803   0.023   1.903
 1155SOL     OW 4649   3.580   0.145   1.998
 1155SOL    HW2 4650   3.584   0.150   2.093
 1155SOL    HW3 4651   3.508   0.084   1.980
 1155SOL    MW4 4652   3.571   0.138   2.008
 1156SOL     OW 4653   3.562   0.391   1.881
 1156SOL    HW2 4654   3.566   0.304   1.919
 1156SOL    HW3 4655   3.560   0.375   1.786
 1156SOL    MW4 4656   3.563   0.378   1.873
 1157SOL     OW 4657   3.837   0.458   1.934
 1157SOL    HW2 4658   3.847   0.546   1.897
 1157SOL    HW3 4659   3.744   0.438   1.924
 1157SOL    MW4 4660   3.826   0.467   1.928
 1158SOL     OW 4661   3.838   0.744   1.891
 1158SOL    HW2 4662   3.747   0.760   1.919
 1158SOL    HW3 4663   3.835   0.748   1.795
 1158SOL    MW4 4664   3.825   0.747   1.882
 1159SOL     OW 4665   3.580   0.859   1.971
 1159SOL    HW2 4666   3.587   0.950   1.941
 1159SOL    HW3 4667   3.499   0.827   1.931
 1159SOL    MW4 4668   3.570   0.867   1.962
 1160SOL     OW 4669   3.596   1.121   1.865
 1160SOL    HW2 4670   3.526   1.182   1.889
 1160SOL    HW3 4671   3.592   1.115   1.770
 1160SOL    MW4 4672   3.586   1.128   1.856
 1161SOL     OW 4673   3.795   1.295   2.006
 1161SOL    HW2 4674   3.796   1.317   2.099
 1161SOL    HW3 4675   3.737   1.218   2.000
 1161SOL    MW4 4676   3.787   1.288   2.018
 1162SOL     OW 4677   3.813   1.554   1.895
 1162SOL    HW2 4678   3.897   1.588   1.927
 1162SOL    HW3 4679   3.804   1.469   1.938
 1162SOL    MW4 4680   3.823   1.547   1.905
 1163SOL     OW 4681   3.584   1.663   2.003
 1163SOL    HW2 4682   3.591   1.754   1.975
 1163SOL    HW3 4683   3.655   1.618   1.958
 1163SOL    MW4 4684   3.594   1.669   1.993
 1164SOL     OW 4685   3.608   1.897   1.853
 1164SOL    HW2 4686   3.687   1.938   1.888
 1164SOL    HW3 4687   3.600   1.933   1.765
 1164SOL    MW4 4688   3.618   1.907   1.846
 1165SOL     OW 4689   3.820   2.037   1.947
 1165SOL    HW2 4690   3.907   2.000   1.931
 1165SOL    HW3 4691   3.812   2.109   1.885
 1165SOL    MW4 4692   3.831   2.042   1.937
 1166SOL     OW 4693   3.780   2.290   1.837
 1166SOL    HW2 4694   3.856   2.323   1.884
 1166SOL    HW3 4695   3.705   2.332   1.879
 1166SOL    MW4 4696   3.781   2.300   1.848
 1167SOL     OW 4697   3.612   2.421   2.009
 1167SOL    HW2 4698   3.616   2.513   1.984
 1167SOL    HW3 4699   3.528   2.390   1.976
 1167SOL    MW4 4700   3.602   2.429   2.001
 1168SOL     OW 4701   3.584   2.700   1.875
 1168SOL    HW2 4702   3.664   2.743   1.906
 1168SOL    HW3 4703   3.513   2.755   1.909
 1168SOL    MW4 4704   3.585   2.713   1.884
 1169SOL     OW 4705   3.821   2.816   1.985
 1169SOL    HW2 4706   3.818   2.821   2.081
 1169SOL    HW3 4707   3.818   2.907   1.956
 1169SOL    MW4 4708   3.820   2.829   1.994
 1170SOL     OW 4709   3.832   3.092   1.851
 1170SOL    HW2 4710   3.757   3.137   1.888
 1170SOL    HW3 4711   3.821   3.101   1.756
 1170SOL    MW4 4712   3.821   3.099   1.843
 1171SOL     OW 4713   3.603   3.230   1.958
 1171SOL    HW2 4714   3.601   3.225   2.053
 1171SOL    HW3 4715   3.608   3.324   1.939
 1171SOL    MW4 4716   3.604   3.242   1.968
 1172SOL     OW 4717   3.580   3.490   1.866
 1172SOL    HW2 4718   3.649   3.549   1.894
 1172SOL    HW3 4719   3.572   3.506   1.771
 1172SOL    MW4 4720   3.588   3.500   1.857
 1173SOL     OW 4721   3.792   3.632   1.961
 1173SOL    HW2 4722   3.877   3.589   1.947
 1173SOL    HW3 4723   3.800   3.715   1.915
 1173SOL    MW4 4724   3.804   3.637   1.953
 1174SOL     OW 4725   3.837   3.890   1.852
 1174SOL    HW2 4726   3.752   3.926   1.877
 1174SOL    HW3 4727   3.838   3.894   1.757
 1174SOL    MW4 4728   3.826   3.895   1.843
 1175SOL     OW 4729   3.609   3.985   1.956
 1175SOL    HW2 4730   3.603   4.008   2.049
 1175SOL    HW3 4731   3.523   3.948   1.936
 1175SOL    MW4 4732   3.597   3.983   1.966
 1176SOL     OW 4733   3.582   4.264   1.886
 1176SOL    HW2 4734   3.671   4.284   1.915
 1176SOL    HW3 4735   3.567   4.174   1.914
 1176SOL    MW4 4736   3.592   4.255   1.894
 1177SOL     OW 4737   3.818   4.428   1.950
 1177SOL    HW2 4738   3.824   4.419   2.045
 1177SOL    HW3 4739   3.896   4.384   1.916
 1177SOL    MW4 4740   3.829   4.421   1.958
 1178SOL     OW 4741   4.279   4.638   1.890
 1178SOL    HW2 4742   4.205   4.670   1.941
 1178SOL    HW3 4743   4.356   4.671   1.936
 1178SOL    MW4 4744   4.279   4.647   1.902
 1179SOL     OW 4745   4.059   0.078   2.043
 1179SOL    HW2 4746   4.038   0.111   2.131
 1179SOL    HW3 4747   3.975   0.052   2.007
 1179SOL    MW4 4748   4.045   0.079   2.050
 1180SOL     OW 4749   4.062   0.314   1.886
 1180SOL    HW2 4750   4.076   0.251   1.956
 1180SOL    HW3 4751   3.977   0.353   1.905
 1180SOL    MW4 4752   4.052   0.311   1.897
 1181SOL     OW 4753   4.243   0.483   1.971
 1181SOL    HW2 4754   4.226   0.479   2.066
 1181SOL    HW3 4755   4.183   0.419   1.933
 1181SOL    MW4 4756   4.233   0.474   1.979
 1182SOL     OW 4757   4.260   0.756   1.830
 1182SOL    HW2 4758   4.249   0.668   1.866
 1182SOL    HW3 4759   4.244   0.745   1.736
 1182SOL    MW4 4760   4.256   0.743   1.823
 1183SOL     OW 4761   4.060   0.892   1.971
 1183SOL    HW2 4762   4.138   0.847   1.936
 1183SOL    HW3 4763   3.987   0.834   1.947
 1183SOL    MW4 4764   4.061   0.878   1.963
 1184SOL     OW 4765   4.027   1.161   1.863
 1184SOL    HW2 4766   4.034   1.067   1.882
 1184SOL    HW3 4767   3.960   1.192   1.924
 1184SOL    MW4 4768   4.019   1.152   1.874
 1185SOL     OW 4769   4.270   1.250   1.963
 1185SOL    HW2 4770   4.253   1.284   2.051
 1185SOL    HW3 4771   4.187   1.212   1.936
 1185SOL    MW4 4772   4.257   1.250   1.971
 1186SOL     OW 4773   4.316   1.531   1.877
 1186SOL    HW2 4774   4.318   1.439   1.905
 1186SOL    HW3 4775   4.289   1.528   1.785
 1186SOL    MW4 4776   4.312   1.518   1.869
 1187SOL     OW 4777   4.060   1.637   1.991
 1187SOL    HW2 4778   4.050   1.647   2.085
 1187SOL    HW3 4779   4.153   1.617   1.979
 1187SOL    MW4 4780   4.071   1.636   2.002
 1188SOL     OW 4781   4.042   1.893   1.901
 1188SOL    HW2 4782   4.038   1.801   1.927
 1188SOL    HW3 4783   4.034   1.893   1.806
 1188SOL    MW4 4784   4.041   1.881   1.892
 1189SOL     OW 4785   4.295   2.042   1.959
 1189SOL    HW2 4786   4.308   2.039   2.053
 1189SOL    HW3 4787   4.204   2.017   1.946
 1189SOL    MW4 4788   4.285   2.039   1.970
 1190SOL     OW 4789   4.256   2.315   1.882
 1190SOL    HW2 4790   4.288   2.230   1.915
 1190SOL    HW3 4791   4.326   2.377   1.905
 1190SOL    MW4 4792   4.270   2.312   1.889
 1191SOL     OW 4793   4.012   2.402   1.936
 1191SOL    HW2 4794   4.009   2.418   2.030
 1191SOL    HW3 4795   4.087   2.345   1.923
 1191SOL    MW4 4796   4.021   2.396   1.947
 1192SOL     OW 4797   4.025   2.677   1.863
 1192SOL    HW2 4798   4.016   2.584   1.883
 1192SOL    HW3 4799   3.958   2.720   1.917
 1192SOL    MW4 4800   4.015   2.670   1.873
 1193SOL     OW 4801   4.246   2.821   1.945
 1193SOL    HW2 4802   4.236   2.824   2.041
 1193SOL    HW3 4803   4.172   2.769   1.915
 1193SOL    MW4 4804   4.235   2.815   1.954
 1194SOL     OW 4805   4.249   3.057   1.813
 1194SOL    HW2 4806   4.181   3.107   1.857
 1194SOL    HW3 4807   4.252   2.974   1.861
 1194SOL    MW4 4808   4.240   3.052   1.825
 1195SOL     OW 4809   4.073   3.211   1.939
 1195SOL    HW2 4810   4.059   3.217   2.034
 1195SOL    HW3 4811   3.996   3.165   1.906
 1195SOL    MW4 4812   4.061   3.206   1.947
 1196SOL     OW 4813   4.025   3.492   1.887
 1196SOL    HW2 4814   4.109   3.535   1.899
 1196SOL    HW3 4815   4.039   3.403   1.919
 1196SOL    MW4 4816   4.038   3.486   1.893
 1197SOL     OW 4817   4.262   3.653   1.932
 1197SOL    HW2 4818   4.285   3.742   1.905
 1197SOL    HW3 4819   4.337   3.600   1.907
 1197SOL    MW4 4820   4.275   3.658   1.925
 1198SOL     OW 4821   4.290   3.915   1.847
 1198SOL    HW2 4822   4.368   3.968   1.864
 1198SOL    HW3 4823   4.279   3.917   1.752
 1198SOL    MW4 4824   4.299   3.922   1.837
 1199SOL     OW 4825   4.057   4.050   1.927
 1199SOL    HW2 4826   4.132   4.003   1.891
 1199SOL    HW3 4827   3.981   4.003   1.893
 1199SOL    MW4 4828   4.057   4.038   1.918
 1200SOL     OW 4829   4.040   4.309   1.841
 1200SOL    HW2 4830   4.122   4.349   1.870
 1200SOL    HW3 4831   4.045   4.219   1.873
 1200SOL    MW4 4832   4.051   4.302   1.849
 1201SOL     OW 4833   4.280   4.384   1.965
 1201SOL    HW2 4834   4.263   4.372   2.059
 1201SOL    HW3 4835   4.289   4.479   1.955
 1201SOL    MW4 4836   4.279   4.395   1.976
 1202SOL     OW 4837   0.217   0.021   2.360
 1202SOL    HW2 4838   0.193   0.004   2.451
 1202SOL    HW3 4839   0.309   0.045   2.364
 1202SOL    MW4 4840   0.226   0.022   2.373
 1203SOL     OW 4841   4.459   0.123   2.284
 1203SOL    HW2 4842   4.543   0.079   2.295
 1203SOL    HW3 4843   4.444   0.123   2.190
 1203SOL    MW4 4844   4.468   0.117   2.273
 1204SOL     OW 4845   4.453   0.388   2.363
 1204SOL    HW2 4846   4.535   0.420   2.325
 1204SOL    HW3 4847   4.453   0.294   2.345
 1204SOL    MW4 4848   4.463   0.380   2.356
 1205SOL     OW 4849   0.193   0.480   2.248
 1205SOL    HW2 4850   0.268   0.426   2.270
 1205SOL    HW3 4851   0.205   0.501   2.155
 1205SOL    MW4 4852   0.204   0.475   2.238
 1206SOL     OW 4853   0.191   0.772   2.341
 1206SOL    HW2 4854   0.194   0.780   2.437
 1206SOL    HW3 4855   0.198   0.677   2.325
 1206SOL    MW4 4856   0.192   0.760   2.352
 1207SOL     OW 4857   0.011   0.930   2.222
 1207SOL    HW2 4858   0.079   0.874   2.259
 1207SOL    HW3 4859   0.013   0.910   2.128
 1207SOL    MW4 4860   0.020   0.920   2.214
 1208SOL     OW 4861   4.473   1.184   2.309
 1208SOL    HW2 4862   4.469   1.162   2.402
 1208SOL    HW3 4863   4.468   1.100   2.264
 1208SOL    MW4 4864   4.472   1.170   2.315
 1209SOL     OW 4865   0.247   1.262   2.244
 1209SOL    HW2 4866   0.168   1.229   2.288
 1209SOL    HW3 4867   0.237   1.235   2.153
 1209SOL    MW4 4868   0.235   1.254   2.238
 1210SOL     OW 4869   0.250   1.517   2.356
 1210SOL    HW2 4870   0.238   1.511   2.451
 1210SOL    HW3 4871   0.236   1.427   2.325
 1210SOL    MW4 4872   0.246   1.504   2.364
 1211SOL     OW 4873   0.027   1.642   2.261
 1211SOL    HW2 4874   0.023   1.728   2.302
 1211SOL    HW3 4875   0.114   1.609   2.282
 1211SOL    MW4 4876   0.038   1.649   2.270
 1212SOL     OW 4877   4.484   1.898   2.350
 1212SOL    HW2 4878   4.401   1.933   2.318
 1212SOL    HW3 4879   4.551   1.958   2.316
 1212SOL    MW4 4880   4.482   1.911   2.342
 1213SOL     OW 4881   0.187   2.043   2.190
 1213SOL    HW2 4882   0.268   2.004   2.223
 1213SOL    HW3 4883   0.196   2.039   2.094
 1213SOL    MW4 4884   0.199   2.037   2.181
 1214SOL     OW 4885   0.200   2.285   2.309
 1214SOL    HW2 4886   0.179   2.265   2.401
 1214SOL    HW3 4887   0.195   2.200   2.265
 1214SOL    MW4 4888   0.197   2.271   2.316
 1215SOL     OW 4889   4.465   2.464   2.245
 1215SOL    HW2 4890   4.466   2.542   2.300
 1215SOL    HW3 4891   4.546   2.418   2.267
 1215SOL    MW4 4892   4.476   2.468   2.255
 1216SOL     OW 4893   4.488   2.710   2.353
 1216SOL    HW2 4894   4.495   2.699   2.448
 1216SOL    HW3 4895   4.571   2.751   2.328
 1216SOL    MW4 4896   4.500   2.714   2.362
 1217SOL     OW 4897   0.220   2.852   2.268
 1217SOL    HW2 4898   0.298   2.810   2.304
 1217SOL    HW3 4899   0.222   2.830   2.175
 1217SOL    MW4 4900   0.230   2.844   2.260
 1218SOL     OW 4901   0.213   3.129   2.344
 1218SOL    HW2 4902   0.140   3.171   2.299
 1218SOL    HW3 4903   0.208   3.037   2.318
 1218SOL    MW4 4904   0.203   3.123   2.335
 1219SOL     OW 4905   4.476   3.212   2.210
 1219SOL    HW2 4906   4.466   3.305   2.229
 1219SOL    HW3 4907   4.464   3.206   2.115
 1219SOL    MW4 4908   4.473   3.224   2.200
 1220SOL     OW 4909   4.453   3.470   2.322
 1220SOL    HW2 4910   4.449   3.488   2.416
 1220SOL    HW3 4911   4.389   3.531   2.284
 1220SOL    MW4 4912   4.444   3.481   2.329
 1221SOL     OW 4913   0.186   3.583   2.228
 1221SOL    HW2 4914   0.256   3.541   2.277
 1221SOL    HW3 4915   0.106   3.537   2.257
 1221SOL    MW4 4916   0.185   3.571   2.238
 1222SOL     OW 4917   0.197   3.870   2.308
 1222SOL    HW2 4918   0.122   3.920   2.275
 1222SOL    HW3 4919   0.181   3.781   2.277
 1222SOL    MW4 4920   0.185   3.865   2.299
 1223SOL     OW 4921   4.462   4.012   2.199
 1223SOL    HW2 4922   4.485   4.097   2.238
 1223SOL    HW3 4923   4.473   4.026   2.105
 1223SOL    MW4 4924   4.466   4.025   2.192
 1224SOL     OW 4925   0.031   4.276   2.297
 1224SOL    HW2 4926   0.018   4.284   2.391
 1224SOL    HW3 4927   0.096   4.342   2.275
 1224SOL    MW4 4928   0.038   4.286   2.306
 1225SOL     OW 4929   0.254   4.431   2.202
 1225SOL    HW2 4930   0.328   4.387   2.244
 1225SOL    HW3 4931   0.259   4.521   2.234
 1225SOL    MW4 4932   0.265   4.437   2.212
 1226SOL     OW 4933   0.721   4.665   2.317
 1226SOL    HW2 4934   0.718   4.678   2.412
 1226SOL    HW3 4935   0.798   4.715   2.288
 1226SOL    MW4 4936   0.731   4.673   2.326
 1227SOL     OW 4937   0.479   0.112   2.252
 1227SOL    HW2 4938   0.560   0.075   2.287
 1227SOL    HW3 4939   0.484   0.096   2.158
 1227SOL    MW4 4940   0.490   0.105   2.244
 1228SOL     OW 4941   0.443   0.369   2.354
 1228SOL    HW2 4942   0.431   0.358   2.448
 1228SOL    HW3 4943   0.454   0.280   2.321
 1228SOL    MW4 4944   0.443   0.356   2.362
 1229SOL     OW 4945   0.671   0.505   2.269
 1229SOL    HW2 4946   0.662   0.593   2.306
 1229SOL    HW3 4947   0.597   0.456   2.304
 1229SOL    MW4 4948   0.660   0.510   2.278
 1230SOL     OW 4949   0.652   0.761   2.410
 1230SOL    HW2 4950   0.650   0.774   2.505
 1230SOL    HW3 4951   0.576   0.809   2.377
 1230SOL    MW4 4952   0.642   0.769   2.418
 1231SOL     OW 4953   0.436   0.896   2.256
 1231SOL    HW2 4954   0.350   0.879   2.294
 1231SOL    HW3 4955   0.426   0.876   2.163
 1231SOL    MW4 4956   0.424   0.891   2.249
 1232SOL     OW 4957   0.476   1.151   2.367
 1232SOL    HW2 4958   0.468   1.066   2.325
 1232SOL    HW3 4959   0.409   1.206   2.325
 1232SOL    MW4 4960   0.466   1.147   2.356
 1233SOL     OW 4961   0.694   1.277   2.237
 1233SOL    HW2 4962   0.684   1.360   2.283
 1233SOL    HW3 4963   0.634   1.217   2.281
 1233SOL    MW4 4964   0.685   1.280   2.248
 1234SOL     OW 4965   0.686   1.543   2.326
 1234SOL    HW2 4966   0.680   1.548   2.421
 1234SOL    HW3 4967   0.768   1.588   2.306
 1234SOL    MW4 4968   0.696   1.550   2.336
 1235SOL     OW 4969   0.443   1.669   2.241
 1235SOL    HW2 4970   0.526   1.628   2.265
 1235SOL    HW3 4971   0.376   1.606   2.269
 1235SOL    MW4 4972   0.445   1.655   2.248
 1236SOL     OW 4973   0.408   1.923   2.325
 1236SOL    HW2 4974   0.488   1.974   2.311
 1236SOL    HW3 4975   0.429   1.835   2.291
 1236SOL    MW4 4976   0.421   1.918   2.319
 1237SOL     OW 4977   0.651   2.072   2.245
 1237SOL    HW2 4978   0.740   2.042   2.263
 1237SOL    HW3 4979   0.642   2.152   2.296
 1237SOL    MW4 4980   0.662   2.078   2.254
 1238SOL     OW 4981   0.638   2.318   2.362
 1238SOL    HW2 4982   0.647   2.321   2.457
 1238SOL    HW3 4983   0.713   2.368   2.330
 1238SOL    MW4 4984   0.649   2.325   2.370
 1239SOL     OW 4985   0.423   2.419   2.231
 1239SOL    HW2 4986   0.497   2.379   2.277
 1239SOL    HW3 4987   0.348   2.365   2.257
 1239SOL    MW4 4988   0.423   2.406   2.241
 1240SOL     OW 4989   0.470   2.657   2.334
 1240SOL    HW2 4990   0.446   2.658   2.426
 1240SOL    HW3 4991   0.438   2.573   2.302
 1240SOL    MW4 4992   0.462   2.646   2.342
 1241SOL     OW 4993   0.691   2.754   2.200
 1241SOL    HW2 4994   0.765   2.731   2.257
 1241SOL    HW3 4995   0.614   2.722   2.247
 1241SOL    MW4 4996   0.691   2.747   2.214
 1242SOL     OW 4997   0.700   3.009   2.324
 1242SOL    HW2 4998   0.621   3.054   2.293
 1242SOL    HW3 4999   0.691   2.919   2.292
 1242SOL    MW4 5000   0.688   3.003   2.316
 1243SOL     OW 5001   0.470   3.175   2.245
 1243SOL    HW2 5002   0.382   3.152   2.275
 1243SOL    HW3 5003   0.460   3.187   2.150
 1243SOL    MW4 5004   0.457   3.173   2.236
 1244SOL     OW 5005   0.392   3.435   2.349
 1244SOL    HW2 5006   0.461   3.495   2.322
 1244SOL    HW3 5007   0.421   3.349   2.317
 1244SOL    MW4 5008   0.405   3.432   2.341
 1245SOL     OW 5009   0.598   3.581   2.251
 1245SOL    HW2 5010   0.600   3.666   2.295
 1245SOL    HW3 5011   0.604   3.601   2.158
 1245SOL    MW4 5012   0.599   3.594   2.245
 1246SOL     OW 5013   0.617   3.836   2.363
 1246SOL    HW2 5014   0.631   3.858   2.455
 1246SOL    HW3 5015   0.558   3.905   2.331
 1246SOL    MW4 5016   0.611   3.848   2.370
 1247SOL     OW 5017   0.430   4.029   2.243
 1247SOL    HW2 5018   0.359   3.968   2.261
 1247SOL    HW3 5019   0.443   4.023   2.148
 1247SOL    MW4 5020   0.422   4.020   2.233
 1248SOL     OW 5021   0.452   4.293   2.345
 1248SOL    HW2 5022   0.537   4.318   2.308
 1248SOL    HW3 5023   0.442   4.201   2.323
 1248SOL    MW4 5024   0.462   4.284   2.337
 1249SOL     OW 5025   0.694   4.403   2.230
 1249SOL    HW2 5026   0.706   4.496   2.249
 1249SOL    HW3 5027   0.707   4.396   2.135
 1249SOL    MW4 5028   0.698   4.414   2.220
 1250SOL     OW 5029   1.144   4.616   2.304
 1250SOL    HW2 5030   1.142   4.631   2.399
 1250SOL    HW3 5031   1.082   4.680   2.269
 1250SOL    MW4 5032   1.136   4.626   2.312
 1251SOL     OW 5033   0.949   0.129   2.225
 1251SOL    HW2 5034   0.926   0.216   2.256
 1251SOL    HW3 5035   0.934   0.132   2.130
 1251SOL    MW4 5036   0.944   0.141   2.216
 1252SOL     OW 5037   0.906   0.390   2.316
 1252SOL    HW2 5038   0.972   0.450   2.282
 1252SOL    HW3 5039   0.822   0.433   2.299
 1252SOL    MW4 5040   0.904   0.404   2.309
 1253SOL     OW 5041   1.151   0.504   2.261
 1253SOL    HW2 5042   1.220   0.439   2.275
 1253SOL    HW3 5043   1.140   0.506   2.165
 1253SOL    MW4 5044   1.159   0.496   2.250
 1254SOL     OW 5045   1.122   0.763   2.358
 1254SOL    HW2 5046   1.038   0.798   2.327
 1254SOL    HW3 5047   1.125   0.674   2.322
 1254SOL    MW4 5048   1.111   0.756   2.349
 1255SOL     OW 5049   0.881   0.862   2.253
 1255SOL    HW2 5050   0.891   0.953   2.282
 1255SOL    HW3 5051   0.807   0.829   2.304
 1255SOL    MW4 5052   0.873   0.870   2.264
 1256SOL     OW 5053   0.914   1.136   2.315
 1256SOL    HW2 5054   0.989   1.194   2.302
 1256SOL    HW3 5055   0.841   1.183   2.275
 1256SOL    MW4 5056   0.914   1.150   2.308
 1257SOL     OW 5057   1.135   1.269   2.273
 1257SOL    HW2 5058   1.219   1.234   2.303
 1257SOL    HW3 5059   1.148   1.285   2.179
 1257SOL    MW4 5060   1.148   1.267   2.264
 1258SOL     OW 5061   1.142   1.535   2.368
 1258SOL    HW2 5062   1.069   1.583   2.330
 1258SOL    HW3 5063   1.137   1.448   2.330
 1258SOL    MW4 5064   1.132   1.530   2.358
 1259SOL     OW 5065   0.926   1.682   2.274
 1259SOL    HW2 5066   0.910   1.774   2.293
 1259SOL    HW3 5067   0.908   1.673   2.181
 1259SOL    MW4 5068   0.921   1.693   2.264
 1260SOL     OW 5069   0.913   1.959   2.309
 1260SOL    HW2 5070   0.904   1.945   2.404
 1260SOL    HW3 5071   1.006   1.979   2.297
 1260SOL    MW4 5072   0.924   1.960   2.320
 1261SOL     OW 5073   1.180   2.053   2.265
 1261SOL    HW2 5074   1.242   1.984   2.291
 1261SOL    HW3 5075   1.178   2.048   2.169
 1261SOL    MW4 5076   1.188   2.043   2.256
 1262SOL     OW 5077   1.126   2.295   2.384
 1262SOL    HW2 5078   1.199   2.345   2.347
 1262SOL    HW3 5079   1.134   2.208   2.346
 1262SOL    MW4 5080   1.136   2.290   2.374
 1263SOL     OW 5081   0.875   2.439   2.266
 1263SOL    HW2 5082   0.949   2.394   2.307
 1263SOL    HW3 5083   0.894   2.434   2.172
 1263SOL    MW4 5084   0.888   2.433   2.259
 1264SOL     OW 5085   0.926   2.681   2.363
 1264SOL    HW2 5086   0.902   2.686   2.455
 1264SOL    HW3 5087   0.892   2.597   2.334
 1264SOL    MW4 5088   0.919   2.671   2.371
 1265SOL     OW 5089   1.109   2.843   2.235
 1265SOL    HW2 5090   1.190   2.797   2.258
 1265SOL    HW3 5091   1.039   2.791   2.274
 1265SOL    MW4 5092   1.111   2.830   2.243
 1266SOL     OW 5093   1.104   3.079   2.359
 1266SOL    HW2 5094   1.028   3.116   2.313
 1266SOL    HW3 5095   1.103   2.986   2.337
 1266SOL    MW4 5096   1.094   3.072   2.350
 1267SOL     OW 5097   0.878   3.192   2.226
 1267SOL    HW2 5098   0.865   3.279   2.265
 1267SOL    HW3 5099   0.807   3.139   2.262
 1267SOL    MW4 5100   0.867   3.197   2.236
 1268SOL     OW 5101   0.835   3.448   2.326
 1268SOL    HW2 5102   0.850   3.466   2.419
 1268SOL    HW3 5103   0.755   3.496   2.305
 1268SOL    MW4 5104   0.826   3.457   2.336
 1269SOL     OW 5105   1.071   3.622   2.212
 1269SOL    HW2 5106   1.150   3.581   2.247
 1269SOL    HW3 5107   0.999   3.570   2.248
 1269SOL    MW4 5108   1.072   3.610   2.222
 1270SOL     OW 5109   1.078   3.885   2.294
 1270SOL    HW2 5110   1.165   3.906   2.260
 1270SOL    HW3 5111   1.064   3.794   2.269
 1270SOL    MW4 5112   1.088   3.876   2.286
 1271SOL     OW 5113   0.829   4.000   2.299
 1271SOL    HW2 5114   0.910   3.955   2.323
 1271SOL    HW3 5115   0.759   3.945   2.334
 1271SOL    MW4 5116   0.830   3.987   2.306
 1272SOL     OW 5117   0.887   4.258   2.385
 1272SOL    HW2 5118   0.858   4.172   2.356
 1272SOL    HW3 5119   0.833   4.320   2.336
 1272SOL    MW4 5120   0.876   4.255   2.375
 1273SOL     OW 5121   1.101   4.334   2.219
 1273SOL    HW2 5122   1.029   4.298   2.272
 1273SOL    HW3 5123   1.102   4.427   2.241
 1273SOL    MW4 5124   1.091   4.342   2.229
 1274SOL     OW 5125   1.597   4.627   2.331
 1274SOL    HW2 5126   1.667   4.688   2.308
 1274SOL    HW3 5127   1.519   4.662   2.289
 1274SOL    MW4 5128   1.596   4.640   2.322
 1275SOL     OW 5129   1.381   0.077   2.204
 1275SOL    HW2 5130   1.392   0.158   2.254
 1275SOL    HW3 5131   1.305   0.034   2.243
 1275SOL    MW4 5132   1.372   0.082   2.216
 1276SOL     OW 5133   1.385   0.331   2.329
 1276SOL    HW2 5134   1.375   0.338   2.424
 1276SOL    HW3 5135   1.458   0.389   2.309
 1276SOL    MW4 5136   1.394   0.339   2.339
 1277SOL     OW 5137   1.586   0.495   2.248
 1277SOL    HW2 5138   1.674   0.470   2.275
 1277SOL    HW3 5139   1.588   0.491   2.153
 1277SOL    MW4 5140   1.598   0.491   2.239
 1278SOL     OW 5141   1.577   0.757   2.341
 1278SOL    HW2 5142   1.658   0.802   2.318
 1278SOL    HW3 5143   1.589   0.668   2.309
 1278SOL    MW4 5144   1.589   0.751   2.334
 1279SOL     OW 5145   1.351   0.868   2.241
 1279SOL    HW2 5146   1.426   0.821   2.276
 1279SOL    HW3 5147   1.275   0.819   2.274
 1279SOL    MW4 5148   1.351   0.855   2.250
 1280SOL     OW 5149   1.362   1.136   2.342
 1280SOL    HW2 5150   1.362   1.136   2.437
 1280SOL    HW3 5151   1.342   1.046   2.317
 1280SOL    MW4 5152   1.359   1.124   2.351
 1281SOL     OW 5153   1.569   1.298   2.245
 1281SOL    HW2 5154   1.500   1.241   2.278
 1281SOL    HW3 5155   1.565   1.288   2.150
 1281SOL    MW4 5156   1.559   1.289   2.237
 1282SOL     OW 5157   1.586   1.535   2.367
 1282SOL    HW2 5158   1.664   1.577   2.329
 1282SOL    HW3 5159   1.576   1.454   2.317
 1282SOL    MW4 5160   1.595   1.530   2.355
 1283SOL     OW 5161   1.361   1.628   2.234
 1283SOL    HW2 5162   1.440   1.617   2.288
 1283SOL    HW3 5163   1.290   1.598   2.290
 1283SOL    MW4 5164   1.362   1.623   2.249
 1284SOL     OW 5165   1.376   1.891   2.369
 1284SOL    HW2 5166   1.451   1.940   2.335
 1284SOL    HW3 5167   1.375   1.810   2.318
 1284SOL    MW4 5168   1.386   1.887   2.358
 1285SOL     OW 5169   1.586   2.031   2.264
 1285SOL    HW2 5170   1.659   1.979   2.298
 1285SOL    HW3 5171   1.593   2.023   2.169
 1285SOL    MW4 5172   1.596   2.023   2.256
 1286SOL     OW 5173   1.596   2.322   2.346
 1286SOL    HW2 5174   1.584   2.338   2.440
 1286SOL    HW3 5175   1.584   2.228   2.336
 1286SOL    MW4 5176   1.593   2.312   2.357
 1287SOL     OW 5177   1.352   2.418   2.278
 1287SOL    HW2 5178   1.434   2.385   2.314
 1287SOL    HW3 5179   1.362   2.409   2.183
 1287SOL    MW4 5180   1.364   2.412   2.270
 1288SOL     OW 5181   1.338   2.709   2.315
 1288SOL    HW2 5182   1.423   2.742   2.287
 1288SOL    HW3 5183   1.342   2.615   2.297
 1288SOL    MW4 5184   1.350   2.701   2.309
 1289SOL     OW 5185   1.567   2.817   2.205
 1289SOL    HW2 5186   1.571   2.905   2.243
 1289SOL    HW3 5187   1.577   2.830   2.111
 1289SOL    MW4 5188   1.569   2.830   2.198
 1290SOL     OW 5189   1.573   3.100   2.330
 1290SOL    HW2 5190   1.574   3.086   2.425
 1290SOL    HW3 5191   1.504   3.164   2.316
 1290SOL    MW4 5192   1.564   3.106   2.341
 1291SOL     OW 5193   1.316   3.244   2.232
 1291SOL    HW2 5194   1.250   3.184   2.265
 1291SOL    HW3 5195   1.298   3.251   2.138
 1291SOL    MW4 5196   1.305   3.237   2.224
 1292SOL     OW 5197   1.311   3.513   2.353
 1292SOL    HW2 5198   1.330   3.514   2.446
 1292SOL    HW3 5199   1.333   3.425   2.324
 1292SOL    MW4 5200   1.316   3.502   2.361
 1293SOL     OW 5201   1.535   3.614   2.233
 1293SOL    HW2 5202   1.551   3.701   2.269
 1293SOL    HW3 5203   1.448   3.590   2.265
 1293SOL    MW4 5204   1.526   3.622   2.242
 1294SOL     OW 5205   1.545   3.871   2.367
 1294SOL    HW2 5206   1.541   3.878   2.463
 1294SOL    HW3 5207   1.630   3.906   2.344
 1294SOL    MW4 5208   1.556   3.876   2.377
 1295SOL     OW 5209   1.335   3.976   2.217
 1295SOL    HW2 5210   1.410   3.945   2.269
 1295SOL    HW3 5211   1.371   3.991   2.129
 1295SOL    MW4 5212   1.350   3.974   2.212
 1296SOL     OW 5213   1.339   4.238   2.315
 1296SOL    HW2 5214   1.338   4.148   2.283
 1296SOL    HW3 5215   1.254   4.274   2.289
 1296SOL    MW4 5216   1.327   4.231   2.307
 1297SOL     OW 5217   1.573   4.375   2.229
 1297SOL    HW2 5218   1.502   4.332   2.277
 1297SOL    HW3 5219   1.578   4.462   2.269
 1297SOL    MW4 5220   1.564   4.381   2.241
 1298SOL     OW 5221   2.030   0.027   2.333
 1298SOL    HW2 5222   2.116   0.060   2.308
 1298SOL    HW3 5223   2.027  -0.062   2.298
 1298SOL    MW4 5224   2.041   0.020   2.325
 1299SOL     OW 5225   1.791   0.142   2.248
 1299SOL    HW2 5226   1.784   0.227   2.292
 1299SOL    HW3 5227   1.875   0.107   2.278
 1299SOL    MW4 5228   1.801   0.148   2.258
 1300SOL     OW 5229   1.830   0.402   2.343
 1300SOL    HW2 5230   1.840   0.400   2.438
 1300SOL    HW3 5231   1.914   0.434   2.310
 1300SOL    MW4 5232   1.842   0.406   2.351
 1301SOL     OW 5233   2.066   0.494   2.220
 1301SOL    HW2 5234   2.064   0.583   2.255
 1301SOL    HW3 5235   2.047   0.504   2.127
 1301SOL    MW4 5236   2.064   0.507   2.212
 1302SOL     OW 5237   2.064   0.753   2.316
 1302SOL    HW2 5238   2.137   0.806   2.284
 1302SOL    HW3 5239   1.986   0.798   2.287
 1302SOL    MW4 5240   2.063   0.766   2.308
 1303SOL     OW 5241   1.818   0.897   2.255
 1303SOL    HW2 5242   1.796   0.986   2.283
 1303SOL    HW3 5243   1.812   0.901   2.159
 1303SOL    MW4 5244   1.814   0.910   2.246
 1304SOL     OW 5245   1.806   1.192   2.361
 1304SOL    HW2 5246   1.885   1.228   2.321
 1304SOL    HW3 5247   1.734   1.233   2.313
 1304SOL    MW4 5248   1.807   1.202   2.349
 1305SOL     OW 5249   2.031   1.307   2.234
 1305SOL    HW2 5250   2.028   1.399   2.259
 1305SOL    HW3 5251   2.022   1.307   2.139
 1305SOL    MW4 5252   2.030   1.319   2.225
 1306SOL     OW 5253   2.027   1.569   2.316
 1306SOL    HW2 5254   2.025   1.575   2.411
 1306SOL    HW3 5255   1.940   1.595   2.288
 1306SOL    MW4 5256   2.015   1.574   2.325
 1307SOL     OW 5257   1.791   1.662   2.221
 1307SOL    HW2 5258   1.812   1.747   2.257
 1307SOL    HW3 5259   1.805   1.671   2.127
 1307SOL    MW4 5260   1.795   1.674   2.213
 1308SOL     OW 5261   1.815   1.899   2.354
 1308SOL    HW2 5262   1.808   1.918   2.448
 1308SOL    HW3 5263   1.885   1.956   2.323
 1308SOL    MW4 5264   1.823   1.909   2.362
 1309SOL     OW 5265   2.018   2.089   2.252
 1309SOL    HW2 5266   2.086   2.025   2.274
 1309SOL    HW3 5267   2.002   2.076   2.158
 1309SOL    MW4 5268   2.025   2.079   2.242
 1310SOL     OW 5269   2.020   2.377   2.315
 1310SOL    HW2 5270   2.103   2.407   2.276
 1310SOL    HW3 5271   2.012   2.286   2.289
 1310SOL    MW4 5272   2.030   2.369   2.307
 1311SOL     OW 5273   1.775   2.484   2.217
 1311SOL    HW2 5274   1.862   2.469   2.254
 1311SOL    HW3 5275   1.719   2.420   2.262
 1311SOL    MW4 5276   1.779   2.473   2.228
 1312SOL     OW 5277   1.791   2.716   2.368
 1312SOL    HW2 5278   1.802   2.626   2.336
 1312SOL    HW3 5279   1.714   2.748   2.321
 1312SOL    MW4 5280   1.782   2.708   2.358
 1313SOL     OW 5281   1.997   2.856   2.229
 1313SOL    HW2 5282   2.081   2.815   2.249
 1313SOL    HW3 5283   1.934   2.811   2.285
 1313SOL    MW4 5284   2.000   2.845   2.239
 1314SOL     OW 5285   2.002   3.097   2.357
 1314SOL    HW2 5286   2.074   3.137   2.308
 1314SOL    HW3 5287   2.003   3.005   2.330
 1314SOL    MW4 5288   2.012   3.090   2.347
 1315SOL     OW 5289   1.793   3.197   2.215
 1315SOL    HW2 5290   1.865   3.175   2.273
 1315SOL    HW3 5291   1.716   3.159   2.257
 1315SOL    MW4 5292   1.792   3.189   2.228
 1316SOL     OW 5293   1.783   3.453   2.326
 1316SOL    HW2 5294   1.792   3.369   2.280
 1316SOL    HW3 5295   1.695   3.483   2.302
 1316SOL    MW4 5296   1.772   3.446   2.317
 1317SOL     OW 5297   2.018   3.623   2.226
 1317SOL    HW2 5298   1.950   3.568   2.266
 1317SOL    HW3 5299   2.010   3.608   2.132
 1317SOL    MW4 5300   2.008   3.614   2.219
 1318SOL     OW 5301   2.047   3.863   2.355
 1318SOL    HW2 5302   2.033   3.846   2.448
 1318SOL    HW3 5303   2.027   3.779   2.313
 1318SOL    MW4 5304   2.042   3.850   2.362
 1319SOL     OW 5305   1.787   3.963   2.256
 1319SOL    HW2 5306   1.874   3.939   2.288
 1319SOL    HW3 5307   1.795   3.959   2.160
 1319SOL    MW4 5308   1.799   3.959   2.247
 1320SOL     OW 5309   1.805   4.256   2.293
 1320SOL    HW2 5310   1.800   4.160   2.289
 1320SOL    HW3 5311   1.717   4.286   2.271
 1320SOL    MW4 5312   1.793   4.247   2.290
 1321SOL     OW 5313   1.984   4.448   2.235
 1321SOL    HW2 5314   1.911   4.396   2.270
 1321SOL    HW3 5315   1.982   4.431   2.140
 1321SOL    MW4 5316   1.974   4.439   2.227
 1322SOL     OW 5317   2.483   4.653   2.372
 1322SOL    HW2 5318   2.559   4.686   2.323
 1322SOL    HW3 5319   2.484   4.558   2.355
 1322SOL    MW4 5320   2.493   4.645   2.363
 1323SOL     OW 5321   2.297   0.110   2.221
 1323SOL    HW2 5322   2.286   0.191   2.269
 1323SOL    HW3 5323   2.353   0.056   2.277
 1323SOL    MW4 5324   2.303   0.113   2.235
 1324SOL     OW 5325   2.263   0.350   2.370
 1324SOL    HW2 5326   2.342   0.402   2.357
 1324SOL    HW3 5327   2.194   0.396   2.322
 1324SOL    MW4 5328   2.264   0.363   2.362
 1325SOL     OW 5329   2.481   0.499   2.318
 1325SOL    HW2 5330   2.564   0.451   2.326
 1325SOL    HW3 5331   2.468   0.509   2.223
 1325SOL    MW4 5332   2.490   0.494   2.306
 1326SOL     OW 5333   2.466   0.776   2.375
 1326SOL    HW2 5334   2.551   0.814   2.352
 1326SOL    HW3 5335   2.477   0.682   2.360
 1326SOL    MW4 5336   2.479   0.769   2.370
 1327SOL     OW 5337   2.265   0.905   2.214
 1327SOL    HW2 5338   2.258   0.993   2.252
 1327SOL    HW3 5339   2.332   0.862   2.268
 1327SOL    MW4 5340   2.273   0.911   2.226
 1328SOL     OW 5341   2.270   1.165   2.304
 1328SOL    HW2 5342   2.344   1.196   2.253
 1328SOL    HW3 5343   2.195   1.215   2.271
 1328SOL    MW4 5344   2.270   1.176   2.293
 1329SOL     OW 5345   2.493   1.265   2.187
 1329SOL    HW2 5346   2.578   1.229   2.212
 1329SOL    HW3 5347   2.489   1.350   2.231
 1329SOL    MW4 5348   2.504   1.271   2.196
 1330SOL     OW 5349   2.462   1.523   2.317
 1330SOL    HW2 5350   2.454   1.533   2.412
 1330SOL    HW3 5351   2.535   1.581   2.293
 1330SOL    MW4 5352   2.471   1.532   2.326
 1331SOL     OW 5353   2.262   1.665   2.218
 1331SOL    HW2 5354   2.327   1.600   2.246
 1331SOL    HW3 5355   2.180   1.632   2.255
 1331SOL    MW4 5356   2.260   1.652   2.227
 1332SOL     OW 5357   2.253   1.925   2.325
 1332SOL    HW2 5358   2.332   1.970   2.294
 1332SOL    HW3 5359   2.260   1.837   2.289
 1332SOL    MW4 5360   2.264   1.920   2.316
 1333SOL     OW 5361   2.464   2.046   2.228
 1333SOL    HW2 5362   2.537   2.004   2.273
 1333SOL    HW3 5363   2.484   2.036   2.135
 1333SOL    MW4 5364   2.476   2.039   2.222
 1334SOL     OW 5365   2.449   2.299   2.345
 1334SOL    HW2 5366   2.533   2.341   2.328
 1334SOL    HW3 5367   2.452   2.218   2.294
 1334SOL    MW4 5368   2.460   2.294   2.336
 1335SOL     OW 5369   2.261   2.483   2.227
 1335SOL    HW2 5370   2.258   2.576   2.249
 1335SOL    HW3 5371   2.329   2.447   2.283
 1335SOL    MW4 5372   2.269   2.491   2.237
 1336SOL     OW 5373   2.219   2.740   2.309
 1336SOL    HW2 5374   2.208   2.726   2.403
 1336SOL    HW3 5375   2.292   2.801   2.301
 1336SOL    MW4 5376   2.227   2.746   2.320
 1337SOL     OW 5377   2.473   2.859   2.247
 1337SOL    HW2 5378   2.529   2.798   2.296
 1337SOL    HW3 5379   2.479   2.830   2.156
 1337SOL    MW4 5380   2.481   2.847   2.242
 1338SOL     OW 5381   2.480   3.131   2.286
 1338SOL    HW2 5382   2.561   3.171   2.255
 1338SOL    HW3 5383   2.484   3.041   2.255
 1338SOL    MW4 5384   2.491   3.125   2.278
 1339SOL     OW 5385   2.207   3.228   2.221
 1339SOL    HW2 5386   2.220   3.323   2.215
 1339SOL    HW3 5387   2.291   3.194   2.249
 1339SOL    MW4 5388   2.220   3.236   2.224
 1340SOL     OW 5389   2.256   3.490   2.266
 1340SOL    HW2 5390   2.255   3.474   2.361
 1340SOL    HW3 5391   2.177   3.543   2.251
 1340SOL    MW4 5392   2.245   3.495   2.277
 1341SOL     OW 5393   2.522   3.596   2.237
 1341SOL    HW2 5394   2.547   3.678   2.280
 1341SOL    HW3 5395   2.431   3.582   2.262
 1341SOL    MW4 5396   2.513   3.605   2.246
 1342SOL     OW 5397   2.488   3.883   2.367
 1342SOL    HW2 5398   2.505   3.892   2.461
 1342SOL    HW3 5399   2.411   3.938   2.351
 1342SOL    MW4 5400   2.481   3.892   2.377
 1343SOL     OW 5401   2.253   4.013   2.262
 1343SOL    HW2 5402   2.223   4.103   2.276
 1343SOL    HW3 5403   2.179   3.959   2.289
 1343SOL    MW4 5404   2.239   4.018   2.267
 1344SOL     OW 5405   2.181   4.286   2.332
 1344SOL    HW2 5406   2.196   4.301   2.426
 1344SOL    HW3 5407   2.106   4.343   2.311
 1344SOL    MW4 5408   2.173   4.296   2.342
 1345SOL     OW 5409   2.439   4.392   2.287
 1345SOL    HW2 5410   2.512   4.333   2.301
 1345SOL    HW3 5411   2.361   4.338   2.303
 1345SOL    MW4 5412   2.438   4.377   2.291
 1346SOL     OW 5413   2.931   4.634   2.370
 1346SOL    HW2 5414   3.014   4.667   2.335
 1346SOL    HW3 5415   2.924   4.545   2.335
 1346SOL    MW4 5416   2.941   4.626   2.360
 1347SOL     OW 5417   2.708   0.078   2.253
 1347SOL    HW2 5418   2.706   0.173   2.266
 1347SOL    HW3 5419   2.782   0.048   2.306
 1347SOL    MW4 5420   2.717   0.087   2.262
 1348SOL     OW 5421   2.714   0.340   2.351
 1348SOL    HW2 5422   2.704   0.322   2.444
 1348SOL    HW3 5423   2.795   0.390   2.345
 1348SOL    MW4 5424   2.724   0.344   2.362
 1349SOL     OW 5425   2.962   0.471   2.340
 1349SOL    HW2 5426   2.955   0.565   2.358
 1349SOL    HW3 5427   2.950   0.464   2.246
 1349SOL    MW4 5428   2.960   0.483   2.330
 1350SOL     OW 5429   2.934   0.766   2.419
 1350SOL    HW2 5430   2.931   0.763   2.514
 1350SOL    HW3 5431   2.857   0.819   2.395
 1350SOL    MW4 5432   2.923   0.773   2.428
 1351SOL     OW 5433   2.716   0.890   2.323
 1351SOL    HW2 5434   2.721   0.981   2.351
 1351SOL    HW3 5435   2.730   0.893   2.229
 1351SOL    MW4 5436   2.719   0.902   2.314
 1352SOL     OW 5437   2.713   1.180   2.346
 1352SOL    HW2 5438   2.721   1.205   2.439
 1352SOL    HW3 5439   2.791   1.219   2.305
 1352SOL    MW4 5440   2.724   1.189   2.353
 1353SOL     OW 5441   2.957   1.302   2.243
 1353SOL    HW2 5442   3.033   1.268   2.291
 1353SOL    HW3 5443   2.979   1.289   2.151
 1353SOL    MW4 5444   2.970   1.296   2.238
 1354SOL     OW 5445   2.893   1.546   2.382
 1354SOL    HW2 5446   2.885   1.532   2.476
 1354SOL    HW3 5447   2.919   1.461   2.346
 1354SOL    MW4 5448   2.896   1.533   2.390
 1355SOL     OW 5449   2.682   1.662   2.239
 1355SOL    HW2 5450   2.738   1.602   2.288
 1355SOL    HW3 5451   2.704   1.647   2.147
 1355SOL    MW4 5452   2.692   1.652   2.233
 1356SOL     OW 5453   2.695   1.932   2.353
 1356SOL    HW2 5454   2.675   1.930   2.447
 1356SOL    HW3 5455   2.690   1.840   2.326
 1356SOL    MW4 5456   2.692   1.920   2.362
 1357SOL     OW 5457   2.918   2.055   2.234
 1357SOL    HW2 5458   2.997   2.018   2.272
 1357SOL    HW3 5459   2.846   2.015   2.284
 1357SOL    MW4 5460   2.919   2.045   2.246
 1358SOL     OW 5461   2.922   2.323   2.325
 1358SOL    HW2 5462   2.915   2.305   2.419
 1358SOL    HW3 5463   2.920   2.236   2.284
 1358SOL    MW4 5464   2.921   2.309   2.332
 1359SOL     OW 5465   2.673   2.436   2.251
 1359SOL    HW2 5466   2.760   2.403   2.273
 1359SOL    HW3 5467   2.668   2.428   2.156
 1359SOL    MW4 5468   2.683   2.431   2.241
 1360SOL     OW 5469   2.644   2.693   2.373
 1360SOL    HW2 5470   2.710   2.750   2.333
 1360SOL    HW3 5471   2.659   2.607   2.334
 1360SOL    MW4 5472   2.654   2.689   2.363
 1361SOL     OW 5473   2.876   2.819   2.238
 1361SOL    HW2 5474   2.900   2.902   2.279
 1361SOL    HW3 5475   2.883   2.836   2.144
 1361SOL    MW4 5476   2.880   2.832   2.231
 1362SOL     OW 5477   2.921   3.061   2.354
 1362SOL    HW2 5478   2.998   3.113   2.328
 1362SOL    HW3 5479   2.848   3.102   2.308
 1362SOL    MW4 5480   2.922   3.074   2.345
 1363SOL     OW 5481   2.723   3.197   2.194
 1363SOL    HW2 5482   2.743   3.285   2.226
 1363SOL    HW3 5483   2.722   3.206   2.099
 1363SOL    MW4 5484   2.726   3.209   2.186
 1364SOL     OW 5485   2.741   3.445   2.331
 1364SOL    HW2 5486   2.815   3.488   2.289
 1364SOL    HW3 5487   2.664   3.486   2.292
 1364SOL    MW4 5488   2.740   3.456   2.320
 1365SOL     OW 5489   2.951   3.611   2.238
 1365SOL    HW2 5490   3.026   3.563   2.272
 1365SOL    HW3 5491   2.954   3.696   2.282
 1365SOL    MW4 5492   2.961   3.616   2.248
 1366SOL     OW 5493   2.958   3.865   2.346
 1366SOL    HW2 5494   2.958   3.867   2.442
 1366SOL    HW3 5495   2.878   3.910   2.322
 1366SOL    MW4 5496   2.948   3.871   2.356
 1367SOL     OW 5497   2.734   4.003   2.286
 1367SOL    HW2 5498   2.654   3.953   2.304
 1367SOL    HW3 5499   2.737   4.009   2.190
 1367SOL    MW4 5500   2.724   3.997   2.275
 1368SOL     OW 5501   2.702   4.279   2.348
 1368SOL    HW2 5502   2.688   4.303   2.440
 1368SOL    HW3 5503   2.707   4.184   2.349
 1368SOL    MW4 5504   2.701   4.270   2.360
 1369SOL     OW 5505   2.913   4.386   2.226
 1369SOL    HW2 5506   2.988   4.338   2.262
 1369SOL    HW3 5507   2.837   4.344   2.265
 1369SOL    MW4 5508   2.913   4.374   2.236
 1370SOL     OW 5509   3.415   4.655   2.332
 1370SOL    HW2 5510   3.399   4.645   2.426
 1370SOL    HW3 5511   3.494   4.710   2.327
 1370SOL    MW4 5512   3.424   4.661   2.344
 1371SOL     OW 5513   3.163   0.093   2.293
 1371SOL    HW2 5514   3.171   0.176   2.341
 1371SOL    HW3 5515   3.253   0.063   2.282
 1371SOL    MW4 5516   3.176   0.100   2.298
 1372SOL     OW 5517   3.190   0.338   2.430
 1372SOL    HW2 5518   3.267   0.388   2.404
 1372SOL    HW3 5519   3.117   0.382   2.385
 1372SOL    MW4 5520   3.191   0.350   2.421
 1373SOL     OW 5521   3.338   0.524   2.295
 1373SOL    HW2 5522   3.428   0.504   2.321
 1373SOL    HW3 5523   3.343   0.537   2.200
 1373SOL    MW4 5524   3.351   0.523   2.286
 1374SOL     OW 5525   3.333   0.771   2.391
 1374SOL    HW2 5526   3.415   0.808   2.359
 1374SOL    HW3 5527   3.332   0.681   2.356
 1374SOL    MW4 5528   3.344   0.764   2.382
 1375SOL     OW 5529   3.123   0.908   2.271
 1375SOL    HW2 5530   3.196   0.863   2.312
 1375SOL    HW3 5531   3.045   0.860   2.301
 1375SOL    MW4 5532   3.122   0.896   2.280
 1376SOL     OW 5533   3.163   1.166   2.384
 1376SOL    HW2 5534   3.245   1.193   2.343
 1376SOL    HW3 5535   3.150   1.075   2.355
 1376SOL    MW4 5536   3.172   1.157   2.375
 1377SOL     OW 5537   3.389   1.267   2.248
 1377SOL    HW2 5538   3.457   1.225   2.302
 1377SOL    HW3 5539   3.379   1.354   2.287
 1377SOL    MW4 5540   3.397   1.273   2.260
 1378SOL     OW 5541   3.381   1.522   2.352
 1378SOL    HW2 5542   3.377   1.520   2.448
 1378SOL    HW3 5543   3.306   1.575   2.326
 1378SOL    MW4 5544   3.370   1.529   2.361
 1379SOL     OW 5545   3.131   1.664   2.270
 1379SOL    HW2 5546   3.146   1.754   2.298
 1379SOL    HW3 5547   3.044   1.642   2.304
 1379SOL    MW4 5548   3.121   1.673   2.278
 1380SOL     OW 5549   3.142   1.934   2.362
 1380SOL    HW2 5550   3.142   1.917   2.456
 1380SOL    HW3 5551   3.230   1.967   2.343
 1380SOL    MW4 5552   3.153   1.936   2.372
 1381SOL     OW 5553   3.393   2.029   2.290
 1381SOL    HW2 5554   3.472   1.983   2.319
 1381SOL    HW3 5555   3.403   2.033   2.194
 1381SOL    MW4 5556   3.405   2.023   2.281
 1382SOL     OW 5557   3.347   2.309   2.363
 1382SOL    HW2 5558   3.276   2.343   2.307
 1382SOL    HW3 5559   3.345   2.215   2.348
 1382SOL    MW4 5560   3.337   2.301   2.353
 1383SOL     OW 5561   3.153   2.468   2.234
 1383SOL    HW2 5562   3.158   2.558   2.268
 1383SOL    HW3 5563   3.067   2.436   2.262
 1383SOL    MW4 5564   3.142   2.476   2.242
 1384SOL     OW 5565   3.118   2.733   2.346
 1384SOL    HW2 5566   3.105   2.710   2.438
 1384SOL    HW3 5567   3.030   2.752   2.313
 1384SOL    MW4 5568   3.105   2.733   2.354
 1385SOL     OW 5569   3.356   2.825   2.228
 1385SOL    HW2 5570   3.350   2.918   2.254
 1385SOL    HW3 5571   3.276   2.786   2.264
 1385SOL    MW4 5572   3.345   2.832   2.236
 1386SOL     OW 5573   3.388   3.067   2.352
 1386SOL    HW2 5574   3.462   3.116   2.318
 1386SOL    HW3 5575   3.312   3.124   2.336
 1386SOL    MW4 5576   3.388   3.081   2.346
 1387SOL     OW 5577   3.148   3.212   2.289
 1387SOL    HW2 5578   3.145   3.301   2.325
 1387SOL    HW3 5579   3.120   3.223   2.198
 1387SOL    MW4 5580   3.144   3.226   2.282
 1388SOL     OW 5581   3.173   3.496   2.334
 1388SOL    HW2 5582   3.173   3.519   2.427
 1388SOL    HW3 5583   3.231   3.561   2.294
 1388SOL    MW4 5584   3.181   3.508   2.341
 1389SOL     OW 5585   3.368   3.660   2.219
 1389SOL    HW2 5586   3.447   3.611   2.244
 1389SOL    HW3 5587   3.347   3.628   2.131
 1389SOL    MW4 5588   3.376   3.649   2.211
 1390SOL     OW 5589   3.380   3.906   2.348
 1390SOL    HW2 5590   3.452   3.962   2.318
 1390SOL    HW3 5591   3.386   3.829   2.291
 1390SOL    MW4 5592   3.391   3.903   2.336
 1391SOL     OW 5593   3.151   3.999   2.227
 1391SOL    HW2 5594   3.229   3.954   2.259
 1391SOL    HW3 5595   3.079   3.962   2.279
 1391SOL    MW4 5596   3.152   3.989   2.238
 1392SOL     OW 5597   3.131   4.246   2.354
 1392SOL    HW2 5598   3.197   4.290   2.301
 1392SOL    HW3 5599   3.142   4.153   2.332
 1392SOL    MW4 5600   3.141   4.239   2.344
 1393SOL     OW 5601   3.324   4.402   2.237
 1393SOL    HW2 5602   3.367   4.485   2.258
 1393SOL    HW3 5603   3.321   4.400   2.141
 1393SOL    MW4 5604   3.329   4.413   2.227
 1394SOL     OW 5605   3.800   4.641   2.413
 1394SOL    HW2 5606   3.796   4.641   2.509
 1394SOL    HW3 5607   3.883   4.683   2.392
 1394SOL    MW4 5608   3.810   4.646   2.423
 1395SOL     OW 5609   3.619   0.171   2.287
 1395SOL    HW2 5610   3.615   0.258   2.326
 1395SOL    HW3 5611   3.692   0.129   2.332
 1395SOL    MW4 5612   3.628   0.177   2.298
 1396SOL     OW 5613   3.590   0.432   2.398
 1396SOL    HW2 5614   3.595   0.419   2.493
 1396SOL    HW3 5615   3.677   0.460   2.373
 1396SOL    MW4 5616   3.602   0.434   2.408
 1397SOL     OW 5617   3.812   0.487   2.228
 1397SOL    HW2 5618   3.799   0.582   2.237
 1397SOL    HW3 5619   3.815   0.473   2.133
 1397SOL    MW4 5620   3.811   0.498   2.217
 1398SOL     OW 5621   3.781   0.753   2.302
 1398SOL    HW2 5622   3.779   0.770   2.396
 1398SOL    HW3 5623   3.863   0.792   2.273
 1398SOL    MW4 5624   3.792   0.760   2.311
 1399SOL     OW 5625   3.550   0.885   2.247
 1399SOL    HW2 5626   3.635   0.841   2.249
 1399SOL    HW3 5627   3.527   0.887   2.154
 1399SOL    MW4 5628   3.558   0.879   2.235
 1400SOL     OW 5629   3.585   1.147   2.373
 1400SOL    HW2 5630   3.591   1.150   2.469
 1400SOL    HW3 5631   3.558   1.057   2.354
 1400SOL    MW4 5632   3.582   1.136   2.383
 1401SOL     OW 5633   3.803   1.305   2.287
 1401SOL    HW2 5634   3.812   1.378   2.349
 1401SOL    HW3 5635   3.720   1.264   2.312
 1401SOL    MW4 5636   3.793   1.309   2.299
 1402SOL     OW 5637   3.857   1.550   2.417
 1402SOL    HW2 5638   3.830   1.535   2.507
 1402SOL    HW3 5639   3.782   1.593   2.376
 1402SOL    MW4 5640   3.843   1.554   2.423
 1403SOL     OW 5641   3.616   1.638   2.274
 1403SOL    HW2 5642   3.547   1.581   2.306
 1403SOL    HW3 5643   3.599   1.648   2.180
 1403SOL    MW4 5644   3.605   1.632   2.266
 1404SOL     OW 5645   3.609   1.887   2.390
 1404SOL    HW2 5646   3.672   1.951   2.356
 1404SOL    HW3 5647   3.629   1.806   2.343
 1404SOL    MW4 5648   3.620   1.885   2.380
 1405SOL     OW 5649   3.807   2.045   2.257
 1405SOL    HW2 5650   3.892   2.011   2.287
 1405SOL    HW3 5651   3.810   2.037   2.162
 1405SOL    MW4 5652   3.819   2.039   2.248
 1406SOL     OW 5653   3.796   2.299   2.359
 1406SOL    HW2 5654   3.716   2.347   2.338
 1406SOL    HW3 5655   3.783   2.212   2.320
 1406SOL    MW4 5656   3.784   2.294   2.351
 1407SOL     OW 5657   3.571   2.436   2.276
 1407SOL    HW2 5658   3.491   2.392   2.303
 1407SOL    HW3 5659   3.582   2.414   2.184
 1407SOL    MW4 5660   3.562   2.428   2.268
 1408SOL     OW 5661   3.580   2.697   2.369
 1408SOL    HW2 5662   3.572   2.611   2.328
 1408SOL    HW3 5663   3.517   2.752   2.323
 1408SOL    MW4 5664   3.570   2.693   2.358
 1409SOL     OW 5665   3.798   2.833   2.266
 1409SOL    HW2 5666   3.786   2.926   2.284
 1409SOL    HW3 5667   3.733   2.789   2.320
 1409SOL    MW4 5668   3.788   2.840   2.275
 1410SOL     OW 5669   3.812   3.087   2.352
 1410SOL    HW2 5670   3.813   3.100   2.446
 1410SOL    HW3 5671   3.893   3.129   2.321
 1410SOL    MW4 5672   3.823   3.094   2.360
 1411SOL     OW 5673   3.595   3.239   2.248
 1411SOL    HW2 5674   3.600   3.333   2.265
 1411SOL    HW3 5675   3.671   3.203   2.293
 1411SOL    MW4 5676   3.606   3.247   2.256
 1412SOL     OW 5677   3.578   3.528   2.321
 1412SOL    HW2 5678   3.576   3.542   2.416
 1412SOL    HW3 5679   3.665   3.556   2.294
 1412SOL    MW4 5680   3.589   3.534   2.330
 1413SOL     OW 5681   3.828   3.638   2.246
 1413SOL    HW2 5682   3.803   3.723   2.283
 1413SOL    HW3 5683   3.813   3.647   2.152
 1413SOL    MW4 5684   3.823   3.650   2.239
 1414SOL     OW 5685   3.765   3.893   2.343
 1414SOL    HW2 5686   3.778   3.896   2.438
 1414SOL    HW3 5687   3.845   3.930   2.307
 1414SOL    MW4 5688   3.777   3.898   2.351
 1415SOL     OW 5689   3.577   4.065   2.221
 1415SOL    HW2 5690   3.583   4.155   2.253
 1415SOL    HW3 5691   3.643   4.017   2.270
 1415SOL    MW4 5692   3.586   4.071   2.232
 1416SOL     OW 5693   3.556   4.304   2.350
 1416SOL    HW2 5694   3.634   4.348   2.314
 1416SOL    HW3 5695   3.482   4.345   2.305
 1416SOL    MW4 5696   3.557   4.315   2.339
 1417SOL     OW 5697   3.798   4.416   2.245
 1417SOL    HW2 5698   3.866   4.356   2.274
 1417SOL    HW3 5699   3.809   4.493   2.302
 1417SOL    MW4 5700   3.808   4.418   2.257
 1418SOL     OW 5701   4.265   4.623   2.374
 1418SOL    HW2 5702   4.255   4.647   2.466
 1418SOL    HW3 5703   4.332   4.684   2.341
 1418SOL    MW4 5704   4.273   4.634   2.382
 1419SOL     OW 5705   4.023   0.105   2.323
 1419SOL    HW2 5706   4.039   0.196   2.346
 1419SOL    HW3 5707   4.105   0.060   2.343
 1419SOL    MW4 5708   4.036   0.111   2.329
 1420SOL     OW 5709   4.041   0.376   2.378
 1420SOL    HW2 5710   4.112   0.431   2.346
 1420SOL    HW3 5711   3.961   0.418   2.345
 1420SOL    MW4 5712   4.040   0.389   2.370
 1421SOL     OW 5713   4.249   0.509   2.249
 1421SOL    HW2 5714   4.266   0.603   2.262
 1421SOL    HW3 5715   4.320   0.465   2.295
 1421SOL    MW4 5716   4.261   0.516   2.257
 1422SOL     OW 5717   4.280   0.780   2.330
 1422SOL    HW2 5718   4.200   0.829   2.307
 1422SOL    HW3 5719   4.351   0.829   2.289
 1422SOL    MW4 5720   4.279   0.793   2.322
 1423SOL     OW 5721   4.036   0.911   2.259
 1423SOL    HW2 5722   4.035   1.003   2.283
 1423SOL    HW3 5723   4.041   0.910   2.164
 1423SOL    MW4 5724   4.037   0.923   2.250
 1424SOL     OW 5725   4.032   1.173   2.360
 1424SOL    HW2 5726   4.015   1.154   2.452
 1424SOL    HW3 5727   3.959   1.229   2.333
 1424SOL    MW4 5728   4.020   1.178   2.369
 1425SOL     OW 5729   4.245   1.323   2.232
 1425SOL    HW2 5730   4.183   1.274   2.286
 1425SOL    HW3 5731   4.331   1.296   2.264
 1425SOL    MW4 5732   4.248   1.313   2.243
 1426SOL     OW 5733   4.290   1.549   2.397
 1426SOL    HW2 5734   4.273   1.469   2.347
 1426SOL    HW3 5735   4.370   1.584   2.359
 1426SOL    MW4 5736   4.298   1.543   2.386
 1427SOL     OW 5737   4.054   1.659   2.266
 1427SOL    HW2 5738   4.136   1.625   2.301
 1427SOL    HW3 5739   3.987   1.602   2.303
 1427SOL    MW4 5740   4.056   1.647   2.276
 1428SOL     OW 5741   4.044   1.914   2.317
 1428SOL    HW2 5742   4.049   1.930   2.411
 1428SOL    HW3 5743   4.047   1.818   2.309
 1428SOL    MW4 5744   4.045   1.903   2.329
 1429SOL     OW 5745   4.266   2.035   2.240
 1429SOL    HW2 5746   4.249   2.130   2.246
 1429SOL    HW3 5747   4.183   1.995   2.266
 1429SOL    MW4 5748   4.252   2.043   2.244
 1430SOL     OW 5749   4.215   2.311   2.313
 1430SOL    HW2 5750   4.144   2.360   2.272
 1430SOL    HW3 5751   4.294   2.359   2.289
 1430SOL    MW4 5752   4.216   2.323   2.304
 1431SOL     OW 5753   3.989   2.444   2.208
 1431SOL    HW2 5754   4.007   2.516   2.269
 1431SOL    HW3 5755   3.922   2.392   2.251
 1431SOL    MW4 5756   3.983   2.447   2.222
 1432SOL     OW 5757   4.020   2.691   2.357
 1432SOL    HW2 5758   4.012   2.695   2.452
 1432SOL    HW3 5759   3.949   2.745   2.324
 1432SOL    MW4 5760   4.010   2.698   2.365
 1433SOL     OW 5761   4.241   2.806   2.225
 1433SOL    HW2 5762   4.165   2.767   2.270
 1433SOL    HW3 5763   4.316   2.761   2.264
 1433SOL    MW4 5764   4.241   2.795   2.236
 1434SOL     OW 5765   4.234   3.070   2.321
 1434SOL    HW2 5766   4.251   2.983   2.286
 1434SOL    HW3 5767   4.310   3.122   2.294
 1434SOL    MW4 5768   4.246   3.065   2.313
 1435SOL     OW 5769   4.023   3.203   2.213
 1435SOL    HW2 5770   4.042   3.290   2.247
 1435SOL    HW3 5771   4.087   3.146   2.256
 1435SOL    MW4 5772   4.034   3.207   2.223
 1436SOL     OW 5773   4.045   3.489   2.297
 1436SOL    HW2 5774   4.121   3.541   2.270
 1436SOL    HW3 5775   3.969   3.542   2.270
 1436SOL    MW4 5776   4.045   3.503   2.290
 1437SOL     OW 5777   4.259   3.641   2.220
 1437SOL    HW2 5778   4.248   3.732   2.248
 1437SOL    HW3 5779   4.270   3.647   2.125
 1437SOL    MW4 5780   4.259   3.654   2.211
 1438SOL     OW 5781   4.237   3.900   2.297
 1438SOL    HW2 5782   4.247   3.899   2.392
 1438SOL    HW3 5783   4.314   3.946   2.264
 1438SOL    MW4 5784   4.248   3.906   2.305
 1439SOL     OW 5785   3.995   3.980   2.201
 1439SOL    HW2 5786   4.080   3.952   2.236
 1439SOL    HW3 5787   4.015   4.011   2.113
 1439SOL    MW4 5788   4.009   3.980   2.194
 1440SOL     OW 5789   3.993   4.240   2.304
 1440SOL    HW2 5790   4.077   4.278   2.277
 1440SOL    HW3 5791   3.993   4.152   2.266
 1440SOL    MW4 5792   4.004   4.233   2.295
 1441SOL     OW 5793   4.244   4.369   2.241
 1441SOL    HW2 5794   4.240   4.460   2.271
 1441SOL    HW3 5795   4.328   4.337   2.273
 1441SOL    MW4 5796   4.255   4.377   2.249
 1442SOL     OW 5797   0.241   4.656   2.637
 1442SOL    HW2 5798   0.236   4.564   2.663
 1442SOL    HW3 5799   0.163   4.696   2.676
 1442SOL    MW4 5800   0.230   4.649   2.646
 1443SOL     OW 5801   4.488   0.108   2.729
 1443SOL    HW2 5802   4.507   0.093   2.822
 1443SOL    HW3 5803   4.495   0.202   2.718
 1443SOL    MW4 5804   4.491   0.118   2.740
 1444SOL     OW 5805   4.465   0.369   2.665
 1444SOL    HW2 5806   4.533   0.431   2.691
 1444SOL    HW3 5807   4.460   0.379   2.570
 1444SOL    MW4 5808   4.473   0.379   2.656
 1445SOL     OW 5809   0.197   0.510   2.741
 1445SOL    HW2 5810   0.200   0.517   2.837
 1445SOL    HW3 5811   0.274   0.458   2.718
 1445SOL    MW4 5812   0.208   0.504   2.751
 1446SOL     OW 5813   0.219   0.760   2.616
 1446SOL    HW2 5814   0.293   0.808   2.653
 1446SOL    HW3 5815   0.218   0.677   2.664
 1446SOL    MW4 5816   0.229   0.755   2.627
 1447SOL     OW 5817   0.001   0.903   2.720
 1447SOL    HW2 5818  -0.075   0.851   2.693
 1447SOL    HW3 5819   0.076   0.852   2.691
 1447SOL    MW4 5820   0.001   0.890   2.713
 1448SOL     OW 5821   0.030   1.135   2.578
 1448SOL    HW2 5822   0.090   1.185   2.633
 1448SOL    HW3 5823   0.008   1.057   2.631
 1448SOL    MW4 5824   0.035   1.131   2.593
 1449SOL     OW 5825   0.225   1.262   2.737
 1449SOL    HW2 5826   0.304   1.218   2.708
 1449SOL    HW3 5827   0.229   1.348   2.695
 1449SOL    MW4 5828   0.236   1.268   2.728
 1450SOL     OW 5829   0.247   1.514   2.626
 1450SOL    HW2 5830   0.323   1.559   2.663
 1450SOL    HW3 5831   0.172   1.562   2.661
 1450SOL    MW4 5832   0.247   1.526   2.636
 1451SOL     OW 5833   0.017   1.645   2.741
 1451SOL    HW2 5834   0.011   1.646   2.836
 1451SOL    HW3 5835  -0.014   1.732   2.715
 1451SOL    MW4 5836   0.012   1.657   2.750
 1452SOL     OW 5837   4.427   1.901   2.629
 1452SOL    HW2 5838   4.510   1.939   2.660
 1452SOL    HW3 5839   4.440   1.891   2.535
 1452SOL    MW4 5840   4.440   1.904   2.621
 1453SOL     OW 5841   0.158   2.036   2.701
 1453SOL    HW2 5842   0.234   1.991   2.666
 1453SOL    HW3 5843   0.163   2.125   2.665
 1453SOL    MW4 5844   0.168   2.042   2.692
 1454SOL     OW 5845   0.143   2.283   2.579
 1454SOL    HW2 5846   0.225   2.319   2.613
 1454SOL    HW3 5847   0.075   2.340   2.615
 1454SOL    MW4 5848   0.145   2.296   2.588
 1455SOL     OW 5849   4.435   2.442   2.690
 1455SOL    HW2 5850   4.443   2.437   2.786
 1455SOL    HW3 5851   4.357   2.391   2.670
 1455SOL    MW4 5852   4.426   2.435   2.700
 1456SOL     OW 5853   4.459   2.698   2.618
 1456SOL    HW2 5854   4.383   2.747   2.649
 1456SOL    HW3 5855   4.449   2.611   2.657
 1456SOL    MW4 5856   4.448   2.693   2.627
 1457SOL     OW 5857   0.197   2.841   2.676
 1457SOL    HW2 5858   0.190   2.930   2.642
 1457SOL    HW3 5859   0.109   2.804   2.663
 1457SOL    MW4 5860   0.184   2.848   2.670
 1458SOL     OW 5861   0.200   3.122   2.623
 1458SOL    HW2 5862   0.290   3.130   2.653
 1458SOL    HW3 5863   0.205   3.142   2.529
 1458SOL    MW4 5864   0.213   3.125   2.614
 1459SOL     OW 5865   4.452   3.262   2.699
 1459SOL    HW2 5866   4.391   3.194   2.672
 1459SOL    HW3 5867   4.539   3.224   2.682
 1459SOL    MW4 5868   4.456   3.248   2.693
 1460SOL     OW 5869   4.453   3.517   2.601
 1460SOL    HW2 5870   4.538   3.558   2.617
 1460SOL    HW3 5871   4.462   3.428   2.637
 1460SOL    MW4 5872   4.465   3.510   2.608
 1461SOL     OW 5873   0.215   3.609   2.686
 1461SOL    HW2 5874   0.230   3.619   2.780
 1461SOL    HW3 5875   0.298   3.575   2.652
 1461SOL    MW4 5876   0.228   3.606   2.694
 1462SOL     OW 5877   0.219   3.893   2.595
 1462SOL    HW2 5878   0.213   3.798   2.607
 1462SOL    HW3 5879   0.206   3.906   2.501
 1462SOL    MW4 5880   0.216   3.882   2.584
 1463SOL     OW 5881   4.473   4.028   2.698
 1463SOL    HW2 5882   4.473   4.113   2.655
 1463SOL    HW3 5883   4.552   3.984   2.664
 1463SOL    MW4 5884   4.484   4.033   2.688
 1464SOL     OW 5885   4.464   4.278   2.580
 1464SOL    HW2 5886   4.393   4.319   2.629
 1464SOL    HW3 5887   4.543   4.327   2.607
 1464SOL    MW4 5888   4.465   4.290   2.590
 1465SOL     OW 5889   0.202   4.383   2.723
 1465SOL    HW2 5890   0.208   4.394   2.818
 1465SOL    HW3 5891   0.274   4.324   2.700
 1465SOL    MW4 5892   0.212   4.376   2.733
 1466SOL     OW 5893   0.684   4.664   2.590
 1466SOL    HW2 5894   0.765   4.700   2.624
 1466SOL    HW3 5895   0.615   4.712   2.635
 1466SOL    MW4 5896   0.685   4.675   2.601
 1467SOL     OW 5897   0.461   0.116   2.750
 1467SOL    HW2 5898   0.460   0.089   2.842
 1467SOL    HW3 5899   0.391   0.065   2.709
 1467SOL    MW4 5900   0.451   0.106   2.756
 1468SOL     OW 5901   0.423   0.359   2.624
 1468SOL    HW2 5902   0.507   0.396   2.652
 1468SOL    HW3 5903   0.424   0.270   2.660
 1468SOL    MW4 5904   0.434   0.352   2.633
 1469SOL     OW 5905   0.650   0.492   2.701
 1469SOL    HW2 5906   0.662   0.470   2.794
 1469SOL    HW3 5907   0.735   0.473   2.661
 1469SOL    MW4 5908   0.663   0.487   2.708
 1470SOL     OW 5909   0.635   0.768   2.689
 1470SOL    HW2 5910   0.723   0.804   2.702
 1470SOL    HW3 5911   0.642   0.678   2.720
 1470SOL    MW4 5912   0.648   0.761   2.695
 1471SOL     OW 5913   0.409   0.899   2.746
 1471SOL    HW2 5914   0.439   0.985   2.717
 1471SOL    HW3 5915   0.485   0.842   2.733
 1471SOL    MW4 5916   0.423   0.903   2.741
 1472SOL     OW 5917   0.462   1.148   2.637
 1472SOL    HW2 5918   0.548   1.181   2.664
 1472SOL    HW3 5919   0.463   1.154   2.541
 1472SOL    MW4 5920   0.473   1.154   2.628
 1473SOL     OW 5921   0.710   1.268   2.697
 1473SOL    HW2 5922   0.716   1.268   2.793
 1473SOL    HW3 5923   0.791   1.227   2.668
 1473SOL    MW4 5924   0.721   1.263   2.706
 1474SOL     OW 5925   0.686   1.514   2.590
 1474SOL    HW2 5926   0.625   1.561   2.646
 1474SOL    HW3 5927   0.678   1.423   2.617
 1474SOL    MW4 5928   0.677   1.508   2.601
 1475SOL     OW 5929   0.477   1.650   2.709
 1475SOL    HW2 5930   0.463   1.648   2.804
 1475SOL    HW3 5931   0.465   1.742   2.686
 1475SOL    MW4 5932   0.474   1.662   2.719
 1476SOL     OW 5933   0.396   1.920   2.605
 1476SOL    HW2 5934   0.482   1.956   2.628
 1476SOL    HW3 5935   0.396   1.916   2.510
 1476SOL    MW4 5936   0.407   1.924   2.596
 1477SOL     OW 5937   0.654   2.019   2.712
 1477SOL    HW2 5938   0.655   2.006   2.807
 1477SOL    HW3 5939   0.733   1.974   2.681
 1477SOL    MW4 5940   0.665   2.011   2.721
 1478SOL     OW 5941   0.637   2.276   2.637
 1478SOL    HW2 5942   0.720   2.317   2.662
 1478SOL    HW3 5943   0.645   2.185   2.667
 1478SOL    MW4 5944   0.649   2.270   2.645
 1479SOL     OW 5945   0.385   2.389   2.678
 1479SOL    HW2 5946   0.402   2.480   2.653
 1479SOL    HW3 5947   0.471   2.347   2.678
 1479SOL    MW4 5948   0.398   2.396   2.675
 1480SOL     OW 5949   0.412   2.682   2.605
 1480SOL    HW2 5950   0.491   2.717   2.646
 1480SOL    HW3 5951   0.343   2.744   2.631
 1480SOL    MW4 5952   0.413   2.695   2.614
 1481SOL     OW 5953   0.616   2.798   2.732
 1481SOL    HW2 5954   0.645   2.812   2.822
 1481SOL    HW3 5955   0.631   2.882   2.689
 1481SOL    MW4 5956   0.622   2.811   2.738
 1482SOL     OW 5957   0.707   3.050   2.629
 1482SOL    HW2 5958   0.778   3.101   2.667
 1482SOL    HW3 5959   0.731   3.041   2.536
 1482SOL    MW4 5960   0.720   3.055   2.622
 1483SOL     OW 5961   0.459   3.194   2.692
 1483SOL    HW2 5962   0.443   3.186   2.786
 1483SOL    HW3 5963   0.532   3.135   2.675
 1483SOL    MW4 5964   0.466   3.185   2.702
 1484SOL     OW 5965   0.436   3.453   2.608
 1484SOL    HW2 5966   0.434   3.367   2.650
 1484SOL    HW3 5967   0.411   3.436   2.517
 1484SOL    MW4 5968   0.433   3.439   2.602
 1485SOL     OW 5969   0.666   3.601   2.675
 1485SOL    HW2 5970   0.668   3.606   2.770
 1485SOL    HW3 5971   0.591   3.546   2.655
 1485SOL    MW4 5972   0.657   3.595   2.685
 1486SOL     OW 5973   0.677   3.865   2.628
 1486SOL    HW2 5974   0.594   3.888   2.669
 1486SOL    HW3 5975   0.687   3.771   2.646
 1486SOL    MW4 5976   0.668   3.855   2.636
 1487SOL     OW 5977   0.444   4.007   2.715
 1487SOL    HW2 5978   0.452   4.093   2.675
 1487SOL    HW3 5979   0.364   3.970   2.677
 1487SOL    MW4 5980   0.434   4.013   2.705
 1488SOL     OW 5981   0.423   4.255   2.614
 1488SOL    HW2 5982   0.489   4.317   2.647
 1488SOL    HW3 5983   0.419   4.272   2.520
 1488SOL    MW4 5984   0.431   4.266   2.606
 1489SOL     OW 5985   0.648   4.401   2.701
 1489SOL    HW2 5986   0.725   4.347   2.682
 1489SOL    HW3 5987   0.666   4.485   2.660
 1489SOL    MW4 5988   0.661   4.405   2.693
 1490SOL     OW 5989   1.131   4.614   2.578
 1490SOL    HW2 5990   1.192   4.668   2.628
 1490SOL    HW3 5991   1.130   4.530   2.623
 1490SOL    MW4 5992   1.139   4.610   2.591
 1491SOL     OW 5993   0.927   0.118   2.674
 1491SOL    HW2 5994   0.936   0.126   2.769
 1491SOL    HW3 5995   0.999   0.059   2.648
 1491SOL    MW4 5996   0.938   0.111   2.683
 1492SOL     OW 5997   0.893   0.399   2.602
 1492SOL    HW2 5998   0.916   0.319   2.649
 1492SOL    HW3 5999   0.903   0.377   2.510
 1492SOL    MW4 6000   0.897   0.385   2.596
 1493SOL     OW 6001   1.138   0.513   2.704
 1493SOL    HW2 6002   1.145   0.606   2.682
 1493SOL    HW3 6003   1.061   0.482   2.656
 1493SOL    MW4 6004   1.129   0.521   2.695
 1494SOL     OW 6005   1.123   0.785   2.640
 1494SOL    HW2 6006   1.208   0.822   2.664
 1494SOL    HW3 6007   1.121   0.788   2.544
 1494SOL    MW4 6008   1.134   0.790   2.630
 1495SOL     OW 6009   0.889   0.892   2.710
 1495SOL    HW2 6010   0.888   0.906   2.805
 1495SOL    HW3 6011   0.978   0.861   2.692
 1495SOL    MW4 6012   0.901   0.890   2.720
 1496SOL     OW 6013   0.946   1.140   2.599
 1496SOL    HW2 6014   0.915   1.054   2.625
 1496SOL    HW3 6015   0.933   1.143   2.504
 1496SOL    MW4 6016   0.940   1.129   2.590
 1497SOL     OW 6017   1.147   1.283   2.731
 1497SOL    HW2 6018   1.146   1.373   2.697
 1497SOL    HW3 6019   1.072   1.241   2.690
 1497SOL    MW4 6020   1.137   1.290   2.721
 1498SOL     OW 6021   1.139   1.542   2.653
 1498SOL    HW2 6022   1.051   1.577   2.670
 1498SOL    HW3 6023   1.148   1.546   2.557
 1498SOL    MW4 6024   1.129   1.547   2.642
 1499SOL     OW 6025   0.895   1.651   2.685
 1499SOL    HW2 6026   0.898   1.673   2.778
 1499SOL    HW3 6027   0.818   1.596   2.675
 1499SOL    MW4 6028   0.886   1.647   2.696
 1500SOL     OW 6029   0.880   1.911   2.579
 1500SOL    HW2 6030   0.957   1.955   2.616
 1500SOL    HW3 6031   0.882   1.824   2.617
 1500SOL    MW4 6032   0.891   1.906   2.589
 1501SOL     OW 6033   1.078   2.039   2.714
 1501SOL    HW2 6034   1.157   1.994   2.684
 1501SOL    HW3 6035   1.095   2.132   2.697
 1501SOL    MW4 6036   1.091   2.045   2.707
 1502SOL     OW 6037   1.097   2.316   2.651
 1502SOL    HW2 6038   1.183   2.344   2.682
 1502SOL    HW3 6039   1.104   2.317   2.555
 1502SOL    MW4 6040   1.109   2.319   2.642
 1503SOL     OW 6041   0.853   2.406   2.725
 1503SOL    HW2 6042   0.873   2.494   2.692
 1503SOL    HW3 6043   0.935   2.357   2.713
 1503SOL    MW4 6044   0.867   2.411   2.719
 1504SOL     OW 6045   0.861   2.673   2.641
 1504SOL    HW2 6046   0.926   2.734   2.676
 1504SOL    HW3 6047   0.777   2.707   2.671
 1504SOL    MW4 6048   0.859   2.685   2.649
 1505SOL     OW 6049   1.083   2.832   2.688
 1505SOL    HW2 6050   1.106   2.825   2.781
 1505SOL    HW3 6051   1.159   2.795   2.642
 1505SOL    MW4 6052   1.096   2.826   2.694
 1506SOL     OW 6053   1.148   3.096   2.644
 1506SOL    HW2 6054   1.122   3.007   2.667
 1506SOL    HW3 6055   1.136   3.101   2.549
 1506SOL    MW4 6056   1.143   3.085   2.635
 1507SOL     OW 6057   0.919   3.208   2.739
 1507SOL    HW2 6058   0.903   3.286   2.686
 1507SOL    HW3 6059   1.006   3.179   2.711
 1507SOL    MW4 6060   0.928   3.215   2.728
 1508SOL     OW 6061   0.887   3.462   2.599
 1508SOL    HW2 6062   0.961   3.508   2.640
 1508SOL    HW3 6063   0.810   3.512   2.628
 1508SOL    MW4 6064   0.887   3.475   2.608
 1509SOL     OW 6065   1.102   3.599   2.698
 1509SOL    HW2 6066   1.101   3.626   2.790
 1509SOL    HW3 6067   1.100   3.681   2.649
 1509SOL    MW4 6068   1.102   3.613   2.704
 1510SOL     OW 6069   1.098   3.851   2.576
 1510SOL    HW2 6070   1.178   3.889   2.614
 1510SOL    HW3 6071   1.110   3.859   2.482
 1510SOL    MW4 6072   1.110   3.857   2.569
 1511SOL     OW 6073   0.893   4.008   2.716
 1511SOL    HW2 6074   0.958   3.963   2.661
 1511SOL    HW3 6075   0.809   3.970   2.689
 1511SOL    MW4 6076   0.890   3.997   2.705
 1512SOL     OW 6077   0.888   4.266   2.657
 1512SOL    HW2 6078   0.892   4.174   2.682
 1512SOL    HW3 6079   0.884   4.265   2.562
 1512SOL    MW4 6080   0.888   4.254   2.648
 1513SOL     OW 6081   1.144   4.351   2.712
 1513SOL    HW2 6082   1.137   4.378   2.804
 1513SOL    HW3 6083   1.055   4.327   2.687
 1513SOL    MW4 6084   1.131   4.351   2.721
 1514SOL     OW 6085   1.577   4.651   2.608
 1514SOL    HW2 6086   1.583   4.563   2.646
 1514SOL    HW3 6087   1.597   4.639   2.515
 1514SOL    MW4 6088   1.580   4.638   2.601
 1515SOL     OW 6089   1.320   0.105   2.729
 1515SOL    HW2 6090   1.315   0.194   2.695
 1515SOL    HW3 6091   1.398   0.068   2.687
 1515SOL    MW4 6092   1.330   0.112   2.719
 1516SOL     OW 6093   1.347   0.359   2.599
 1516SOL    HW2 6094   1.427   0.405   2.624
 1516SOL    HW3 6095   1.277   0.408   2.644
 1516SOL    MW4 6096   1.348   0.372   2.608
 1517SOL     OW 6097   1.575   0.516   2.687
 1517SOL    HW2 6098   1.658   0.470   2.674
 1517SOL    HW3 6099   1.593   0.606   2.657
 1517SOL    MW4 6100   1.588   0.522   2.681
 1518SOL     OW 6101   1.613   0.776   2.619
 1518SOL    HW2 6102   1.530   0.805   2.655
 1518SOL    HW3 6103   1.591   0.743   2.532
 1518SOL    MW4 6104   1.600   0.775   2.612
 1519SOL     OW 6105   1.371   0.881   2.710
 1519SOL    HW2 6106   1.375   0.875   2.806
 1519SOL    HW3 6107   1.372   0.975   2.692
 1519SOL    MW4 6108   1.371   0.892   2.720
 1520SOL     OW 6109   1.362   1.149   2.634
 1520SOL    HW2 6110   1.433   1.201   2.671
 1520SOL    HW3 6111   1.283   1.182   2.676
 1520SOL    MW4 6112   1.361   1.160   2.644
 1521SOL     OW 6113   1.591   1.264   2.719
 1521SOL    HW2 6114   1.589   1.248   2.813
 1521SOL    HW3 6115   1.671   1.220   2.689
 1521SOL    MW4 6116   1.601   1.256   2.728
 1522SOL     OW 6117   1.610   1.525   2.641
 1522SOL    HW2 6118   1.605   1.434   2.672
 1522SOL    HW3 6119   1.622   1.518   2.547
 1522SOL    MW4 6120   1.611   1.512   2.633
 1523SOL     OW 6121   1.381   1.657   2.733
 1523SOL    HW2 6122   1.454   1.597   2.718
 1523SOL    HW3 6123   1.304   1.609   2.701
 1523SOL    MW4 6124   1.381   1.643   2.726
 1524SOL     OW 6125   1.320   1.931   2.634
 1524SOL    HW2 6126   1.327   1.843   2.670
 1524SOL    HW3 6127   1.338   1.920   2.540
 1524SOL    MW4 6128   1.324   1.918   2.626
 1525SOL     OW 6129   1.537   2.097   2.683
 1525SOL    HW2 6130   1.618   2.054   2.655
 1525SOL    HW3 6131   1.469   2.031   2.671
 1525SOL    MW4 6132   1.539   2.083   2.677
 1526SOL     OW 6133   1.534   2.373   2.622
 1526SOL    HW2 6134   1.604   2.422   2.664
 1526SOL    HW3 6135   1.541   2.284   2.659
 1526SOL    MW4 6136   1.544   2.367   2.633
 1527SOL     OW 6137   1.306   2.475   2.765
 1527SOL    HW2 6138   1.292   2.553   2.712
 1527SOL    HW3 6139   1.380   2.431   2.724
 1527SOL    MW4 6140   1.313   2.479   2.752
 1528SOL     OW 6141   1.310   2.690   2.601
 1528SOL    HW2 6142   1.381   2.741   2.637
 1528SOL    HW3 6143   1.315   2.704   2.506
 1528SOL    MW4 6144   1.320   2.698   2.593
 1529SOL     OW 6145   1.522   2.816   2.723
 1529SOL    HW2 6146   1.527   2.831   2.818
 1529SOL    HW3 6147   1.602   2.767   2.703
 1529SOL    MW4 6148   1.533   2.811   2.733
 1530SOL     OW 6149   1.559   3.062   2.605
 1530SOL    HW2 6150   1.628   3.100   2.659
 1530SOL    HW3 6151   1.535   2.981   2.650
 1530SOL    MW4 6152   1.565   3.056   2.618
 1531SOL     OW 6153   1.362   3.241   2.716
 1531SOL    HW2 6154   1.433   3.189   2.678
 1531SOL    HW3 6155   1.282   3.196   2.691
 1531SOL    MW4 6156   1.361   3.229   2.708
 1532SOL     OW 6157   1.351   3.495   2.635
 1532SOL    HW2 6158   1.354   3.401   2.655
 1532SOL    HW3 6159   1.268   3.524   2.672
 1532SOL    MW4 6160   1.340   3.486   2.642
 1533SOL     OW 6161   1.589   3.606   2.720
 1533SOL    HW2 6162   1.654   3.550   2.679
 1533SOL    HW3 6163   1.505   3.564   2.700
 1533SOL    MW4 6164   1.586   3.593   2.712
 1534SOL     OW 6165   1.576   3.888   2.653
 1534SOL    HW2 6166   1.487   3.909   2.683
 1534SOL    HW3 6167   1.581   3.793   2.659
 1534SOL    MW4 6168   1.565   3.879   2.658
 1535SOL     OW 6169   1.312   3.952   2.713
 1535SOL    HW2 6170   1.311   3.959   2.808
 1535SOL    HW3 6171   1.312   4.043   2.682
 1535SOL    MW4 6172   1.312   3.965   2.721
 1536SOL     OW 6173   1.369   4.244   2.578
 1536SOL    HW2 6174   1.295   4.287   2.620
 1536SOL    HW3 6175   1.347   4.245   2.484
 1536SOL    MW4 6176   1.356   4.250   2.571
 1537SOL     OW 6177   1.581   4.389   2.684
 1537SOL    HW2 6178   1.578   4.388   2.780
 1537SOL    HW3 6179   1.509   4.333   2.657
 1537SOL    MW4 6180   1.571   4.381   2.693
 1538SOL     OW 6181   1.989   4.665   2.607
 1538SOL    HW2 6182   2.073   4.677   2.652
 1538SOL    HW3 6183   2.009   4.677   2.514
 1538SOL    MW4 6184   2.003   4.668   2.601
 1539SOL     OW 6185   1.771   0.139   2.738
 1539SOL    HW2 6186   1.849   0.090   2.711
 1539SOL    HW3 6187   1.698   0.088   2.703
 1539SOL    MW4 6188   1.772   0.125   2.730
 1540SOL     OW 6189   1.810   0.372   2.615
 1540SOL    HW2 6190   1.888   0.408   2.657
 1540SOL    HW3 6191   1.797   0.287   2.657
 1540SOL    MW4 6192   1.819   0.366   2.626
 1541SOL     OW 6193   2.032   0.497   2.710
 1541SOL    HW2 6194   2.099   0.443   2.669
 1541SOL    HW3 6195   2.028   0.576   2.655
 1541SOL    MW4 6196   2.040   0.500   2.697
 1542SOL     OW 6197   2.060   0.773   2.592
 1542SOL    HW2 6198   1.988   0.821   2.633
 1542SOL    HW3 6199   2.047   0.786   2.498
 1542SOL    MW4 6200   2.049   0.781   2.585
 1543SOL     OW 6201   1.844   0.904   2.715
 1543SOL    HW2 6202   1.833   0.996   2.690
 1543SOL    HW3 6203   1.765   0.861   2.682
 1543SOL    MW4 6204   1.832   0.911   2.707
 1544SOL     OW 6205   1.830   1.157   2.630
 1544SOL    HW2 6206   1.899   1.214   2.664
 1544SOL    HW3 6207   1.833   1.169   2.535
 1544SOL    MW4 6208   1.840   1.166   2.622
 1545SOL     OW 6209   2.038   1.335   2.714
 1545SOL    HW2 6210   2.046   1.337   2.809
 1545SOL    HW3 6211   2.111   1.280   2.685
 1545SOL    MW4 6212   2.048   1.328   2.723
 1546SOL     OW 6213   1.991   1.573   2.591
 1546SOL    HW2 6214   1.909   1.604   2.631
 1546SOL    HW3 6215   2.006   1.487   2.629
 1546SOL    MW4 6216   1.982   1.566   2.601
 1547SOL     OW 6217   1.791   1.728   2.735
 1547SOL    HW2 6218   1.796   1.730   2.830
 1547SOL    HW3 6219   1.724   1.663   2.715
 1547SOL    MW4 6220   1.783   1.720   2.745
 1548SOL     OW 6221   1.785   1.970   2.633
 1548SOL    HW2 6222   1.860   2.015   2.670
 1548SOL    HW3 6223   1.790   1.881   2.667
 1548SOL    MW4 6224   1.795   1.964   2.642
 1549SOL     OW 6225   2.032   2.084   2.716
 1549SOL    HW2 6226   2.022   2.083   2.811
 1549SOL    HW3 6227   2.020   2.176   2.692
 1549SOL    MW4 6228   2.029   2.096   2.725
 1550SOL     OW 6229   2.000   2.341   2.589
 1550SOL    HW2 6230   2.068   2.386   2.639
 1550SOL    HW3 6231   2.034   2.337   2.500
 1550SOL    MW4 6232   2.014   2.347   2.584
 1551SOL     OW 6233   1.784   2.456   2.727
 1551SOL    HW2 6234   1.785   2.440   2.822
 1551SOL    HW3 6235   1.860   2.408   2.693
 1551SOL    MW4 6236   1.794   2.448   2.735
 1552SOL     OW 6237   1.756   2.712   2.636
 1552SOL    HW2 6238   1.779   2.624   2.665
 1552SOL    HW3 6239   1.771   2.711   2.542
 1552SOL    MW4 6240   1.761   2.700   2.628
 1553SOL     OW 6241   1.995   2.842   2.696
 1553SOL    HW2 6242   2.060   2.786   2.653
 1553SOL    HW3 6243   1.912   2.797   2.682
 1553SOL    MW4 6244   1.993   2.828   2.689
 1554SOL     OW 6245   2.030   3.117   2.631
 1554SOL    HW2 6246   2.031   3.026   2.661
 1554SOL    HW3 6247   2.000   3.112   2.540
 1554SOL    MW4 6248   2.026   3.105   2.623
 1555SOL     OW 6249   1.769   3.204   2.721
 1555SOL    HW2 6250   1.771   3.281   2.665
 1555SOL    HW3 6251   1.854   3.162   2.706
 1555SOL    MW4 6252   1.781   3.208   2.711
 1556SOL     OW 6253   1.813   3.454   2.605
 1556SOL    HW2 6254   1.898   3.486   2.636
 1556SOL    HW3 6255   1.815   3.470   2.511
 1556SOL    MW4 6256   1.825   3.460   2.597
 1557SOL     OW 6257   2.050   3.562   2.699
 1557SOL    HW2 6258   2.071   3.565   2.792
 1557SOL    HW3 6259   2.121   3.512   2.660
 1557SOL    MW4 6260   2.062   3.556   2.706
 1558SOL     OW 6261   2.055   3.840   2.645
 1558SOL    HW2 6262   1.972   3.876   2.678
 1558SOL    HW3 6263   2.051   3.747   2.667
 1558SOL    MW4 6264   2.043   3.833   2.652
 1559SOL     OW 6265   1.810   3.980   2.757
 1559SOL    HW2 6266   1.807   4.069   2.722
 1559SOL    HW3 6267   1.728   3.940   2.726
 1559SOL    MW4 6268   1.798   3.987   2.748
 1560SOL     OW 6269   1.814   4.228   2.618
 1560SOL    HW2 6270   1.739   4.277   2.652
 1560SOL    HW3 6271   1.825   4.260   2.529
 1560SOL    MW4 6272   1.806   4.239   2.611
 1561SOL     OW 6273   2.026   4.405   2.702
 1561SOL    HW2 6274   1.952   4.352   2.673
 1561SOL    HW3 6275   2.002   4.495   2.677
 1561SOL    MW4 6276   2.013   4.410   2.695
 1562SOL     OW 6277   2.469   4.643   2.646
 1562SOL    HW2 6278   2.544   4.694   2.676
 1562SOL    HW3 6279   2.472   4.648   2.551
 1562SOL    MW4 6280   2.479   4.650   2.638
 1563SOL     OW 6281   2.229   0.051   2.742
 1563SOL    HW2 6282   2.243   0.085   2.830
 1563SOL    HW3 6283   2.311   0.007   2.719
 1563SOL    MW4 6284   2.242   0.050   2.750
 1564SOL     OW 6285   2.232   0.315   2.639
 1564SOL    HW2 6286   2.237   0.221   2.657
 1564SOL    HW3 6287   2.237   0.322   2.544
 1564SOL    MW4 6288   2.234   0.303   2.629
 1565SOL     OW 6289   2.461   0.473   2.752
 1565SOL    HW2 6290   2.449   0.561   2.717
 1565SOL    HW3 6291   2.380   0.427   2.727
 1565SOL    MW4 6292   2.448   0.479   2.744
 1566SOL     OW 6293   2.448   0.741   2.654
 1566SOL    HW2 6294   2.377   0.798   2.686
 1566SOL    HW3 6295   2.463   0.770   2.564
 1566SOL    MW4 6296   2.440   0.753   2.646
 1567SOL     OW 6297   2.232   0.925   2.742
 1567SOL    HW2 6298   2.214   0.922   2.836
 1567SOL    HW3 6299   2.166   0.868   2.703
 1567SOL    MW4 6300   2.221   0.917   2.749
 1568SOL     OW 6301   2.254   1.182   2.607
 1568SOL    HW2 6302   2.249   1.090   2.636
 1568SOL    HW3 6303   2.271   1.176   2.513
 1568SOL    MW4 6304   2.255   1.169   2.599
 1569SOL     OW 6305   2.467   1.297   2.731
 1569SOL    HW2 6306   2.546   1.258   2.693
 1569SOL    HW3 6307   2.397   1.237   2.706
 1569SOL    MW4 6308   2.468   1.284   2.723
 1570SOL     OW 6309   2.433   1.533   2.602
 1570SOL    HW2 6310   2.366   1.579   2.653
 1570SOL    HW3 6311   2.430   1.443   2.635
 1570SOL    MW4 6312   2.424   1.528   2.613
 1571SOL     OW 6313   2.207   1.667   2.750
 1571SOL    HW2 6314   2.212   1.753   2.709
 1571SOL    HW3 6315   2.124   1.631   2.720
 1571SOL    MW4 6316   2.197   1.674   2.741
 1572SOL     OW 6317   2.260   1.903   2.623
 1572SOL    HW2 6318   2.188   1.960   2.651
 1572SOL    HW3 6319   2.261   1.911   2.527
 1572SOL    MW4 6320   2.250   1.912   2.614
 1573SOL     OW 6321   2.466   2.054   2.756
 1573SOL    HW2 6322   2.450   2.142   2.723
 1573SOL    HW3 6323   2.399   2.000   2.714
 1573SOL    MW4 6324   2.455   2.059   2.746
 1574SOL     OW 6325   2.420   2.300   2.634
 1574SOL    HW2 6326   2.511   2.323   2.649
 1574SOL    HW3 6327   2.411   2.295   2.539
 1574SOL    MW4 6328   2.431   2.302   2.623
 1575SOL     OW 6329   2.201   2.463   2.740
 1575SOL    HW2 6330   2.202   2.479   2.835
 1575SOL    HW3 6331   2.273   2.401   2.726
 1575SOL    MW4 6332   2.211   2.457   2.751
 1576SOL     OW 6333   2.209   2.718   2.583
 1576SOL    HW2 6334   2.268   2.766   2.641
 1576SOL    HW3 6335   2.188   2.638   2.631
 1576SOL    MW4 6336   2.214   2.714   2.597
 1577SOL     OW 6337   2.412   2.870   2.703
 1577SOL    HW2 6338   2.471   2.802   2.673
 1577SOL    HW3 6339   2.457   2.952   2.681
 1577SOL    MW4 6340   2.426   2.872   2.696
 1578SOL     OW 6341   2.494   3.125   2.591
 1578SOL    HW2 6342   2.418   3.179   2.616
 1578SOL    HW3 6343   2.490   3.121   2.496
 1578SOL    MW4 6344   2.483   3.132   2.582
 1579SOL     OW 6345   2.257   3.249   2.666
 1579SOL    HW2 6346   2.273   3.250   2.761
 1579SOL    HW3 6347   2.176   3.199   2.656
 1579SOL    MW4 6348   2.248   3.242   2.677
 1580SOL     OW 6349   2.275   3.480   2.537
 1580SOL    HW2 6350   2.346   3.534   2.573
 1580SOL    HW3 6351   2.282   3.397   2.583
 1580SOL    MW4 6352   2.285   3.477   2.548
 1581SOL     OW 6353   2.499   3.594   2.687
 1581SOL    HW2 6354   2.492   3.575   2.781
 1581SOL    HW3 6355   2.487   3.689   2.681
 1581SOL    MW4 6356   2.497   3.604   2.699
 1582SOL     OW 6357   2.489   3.868   2.657
 1582SOL    HW2 6358   2.563   3.925   2.678
 1582SOL    HW3 6359   2.412   3.918   2.685
 1582SOL    MW4 6360   2.489   3.882   2.663
 1583SOL     OW 6361   2.279   4.015   2.731
 1583SOL    HW2 6362   2.274   4.011   2.826
 1583SOL    HW3 6363   2.204   3.964   2.701
 1583SOL    MW4 6364   2.269   4.007   2.740
 1584SOL     OW 6365   2.244   4.267   2.622
 1584SOL    HW2 6366   2.240   4.174   2.642
 1584SOL    HW3 6367   2.164   4.304   2.659
 1584SOL    MW4 6368   2.233   4.260   2.630
 1585SOL     OW 6369   2.444   4.382   2.765
 1585SOL    HW2 6370   2.383   4.325   2.719
 1585SOL    HW3 6371   2.443   4.464   2.715
 1585SOL    MW4 6372   2.436   4.385   2.752
 1586SOL     OW 6373   2.945   4.650   2.657
 1586SOL    HW2 6374   3.013   4.705   2.696
 1586SOL    HW3 6375   2.946   4.673   2.564
 1586SOL    MW4 6376   2.954   4.661   2.650
 1587SOL     OW 6377   2.704   0.127   2.731
 1587SOL    HW2 6378   2.693   0.136   2.826
 1587SOL    HW3 6379   2.791   0.091   2.720
 1587SOL    MW4 6380   2.714   0.124   2.742
 1588SOL     OW 6381   2.691   0.371   2.617
 1588SOL    HW2 6382   2.696   0.285   2.657
 1588SOL    HW3 6383   2.615   0.413   2.658
 1588SOL    MW4 6384   2.681   0.365   2.627
 1589SOL     OW 6385   2.901   0.503   2.749
 1589SOL    HW2 6386   2.877   0.595   2.742
 1589SOL    HW3 6387   2.835   0.457   2.699
 1589SOL    MW4 6388   2.889   0.509   2.742
 1590SOL     OW 6389   2.861   0.778   2.690
 1590SOL    HW2 6390   2.936   0.820   2.733
 1590SOL    HW3 6391   2.786   0.832   2.712
 1590SOL    MW4 6392   2.861   0.790   2.698
 1591SOL     OW 6393   2.641   0.930   2.728
 1591SOL    HW2 6394   2.637   0.936   2.824
 1591SOL    HW3 6395   2.572   0.868   2.705
 1591SOL    MW4 6396   2.631   0.923   2.738
 1592SOL     OW 6397   2.688   1.173   2.641
 1592SOL    HW2 6398   2.767   1.203   2.686
 1592SOL    HW3 6399   2.678   1.082   2.671
 1592SOL    MW4 6400   2.697   1.165   2.651
 1593SOL     OW 6401   2.912   1.264   2.777
 1593SOL    HW2 6402   2.926   1.238   2.868
 1593SOL    HW3 6403   2.987   1.229   2.730
 1593SOL    MW4 6404   2.924   1.256   2.783
 1594SOL     OW 6405   2.897   1.519   2.651
 1594SOL    HW2 6406   2.812   1.558   2.673
 1594SOL    HW3 6407   2.895   1.433   2.692
 1594SOL    MW4 6408   2.886   1.513   2.659
 1595SOL     OW 6409   2.668   1.653   2.729
 1595SOL    HW2 6410   2.678   1.641   2.823
 1595SOL    HW3 6411   2.586   1.609   2.707
 1595SOL    MW4 6412   2.659   1.645   2.738
 1596SOL     OW 6413   2.664   1.917   2.639
 1596SOL    HW2 6414   2.669   1.832   2.682
 1596SOL    HW3 6415   2.581   1.954   2.668
 1596SOL    MW4 6416   2.654   1.910   2.648
 1597SOL     OW 6417   2.889   2.042   2.748
 1597SOL    HW2 6418   2.903   2.113   2.686
 1597SOL    HW3 6419   2.806   2.002   2.720
 1597SOL    MW4 6420   2.880   2.046   2.736
 1598SOL     OW 6421   2.936   2.288   2.595
 1598SOL    HW2 6422   3.006   2.341   2.634
 1598SOL    HW3 6423   2.855   2.331   2.624
 1598SOL    MW4 6424   2.934   2.301   2.604
 1599SOL     OW 6425   2.676   2.411   2.667
 1599SOL    HW2 6426   2.670   2.414   2.762
 1599SOL    HW3 6427   2.657   2.500   2.639
 1599SOL    MW4 6428   2.673   2.423   2.676
 1600SOL     OW 6429   2.634   2.697   2.652
 1600SOL    HW2 6430   2.719   2.736   2.674
 1600SOL    HW3 6431   2.627   2.706   2.557
 1600SOL    MW4 6432   2.644   2.704   2.643
 1601SOL     OW 6433   2.868   2.834   2.726
 1601SOL    HW2 6434   2.861   2.854   2.820
 1601SOL    HW3 6435   2.894   2.917   2.686
 1601SOL    MW4 6436   2.870   2.848   2.733
 1602SOL     OW 6437   2.951   3.077   2.625
 1602SOL    HW2 6438   2.880   3.135   2.654
 1602SOL    HW3 6439   2.949   3.084   2.529
 1602SOL    MW4 6440   2.941   3.086   2.616
 1603SOL     OW 6441   2.732   3.220   2.696
 1603SOL    HW2 6442   2.734   3.298   2.641
 1603SOL    HW3 6443   2.647   3.180   2.678
 1603SOL    MW4 6444   2.721   3.225   2.687
 1604SOL     OW 6445   2.740   3.484   2.602
 1604SOL    HW2 6446   2.656   3.521   2.629
 1604SOL    HW3 6447   2.733   3.474   2.507
 1604SOL    MW4 6448   2.728   3.487   2.593
 1605SOL     OW 6449   2.924   3.646   2.724
 1605SOL    HW2 6450   2.928   3.627   2.818
 1605SOL    HW3 6451   2.854   3.590   2.691
 1605SOL    MW4 6452   2.915   3.636   2.732
 1606SOL     OW 6453   2.909   3.901   2.626
 1606SOL    HW2 6454   2.985   3.938   2.670
 1606SOL    HW3 6455   2.895   3.816   2.669
 1606SOL    MW4 6456   2.917   3.895   2.638
 1607SOL     OW 6457   2.691   4.057   2.717
 1607SOL    HW2 6458   2.686   4.140   2.669
 1607SOL    HW3 6459   2.765   4.011   2.679
 1607SOL    MW4 6460   2.700   4.062   2.706
 1608SOL     OW 6461   2.677   4.327   2.612
 1608SOL    HW2 6462   2.755   4.369   2.650
 1608SOL    HW3 6463   2.604   4.364   2.662
 1608SOL    MW4 6464   2.677   4.338   2.624
 1609SOL     OW 6465   2.905   4.396   2.741
 1609SOL    HW2 6466   2.886   4.391   2.835
 1609SOL    HW3 6467   2.914   4.490   2.724
 1609SOL    MW4 6468   2.904   4.408   2.751
 1610SOL     OW 6469   3.392   4.659   2.626
 1610SOL    HW2 6470   3.399   4.573   2.668
 1610SOL    HW3 6471   3.319   4.702   2.670
 1610SOL    MW4 6472   3.383   4.653   2.637
 1611SOL     OW 6473   3.170   0.109   2.757
 1611SOL    HW2 6474   3.154   0.096   2.851
 1611SOL    HW3 6475   3.163   0.204   2.744
 1611SOL    MW4 6476   3.167   0.120   2.768
 1612SOL     OW 6477   3.150   0.391   2.695
 1612SOL    HW2 6478   3.063   0.429   2.701
 1612SOL    HW3 6479   3.163   0.375   2.601
 1612SOL    MW4 6480   3.141   0.394   2.683
 1613SOL     OW 6481   3.383   0.512   2.772
 1613SOL    HW2 6482   3.366   0.600   2.739
 1613SOL    HW3 6483   3.302   0.464   2.755
 1613SOL    MW4 6484   3.370   0.517   2.765
 1614SOL     OW 6485   3.358   0.756   2.675
 1614SOL    HW2 6486   3.433   0.813   2.694
 1614SOL    HW3 6487   3.359   0.746   2.580
 1614SOL    MW4 6488   3.368   0.762   2.665
 1615SOL     OW 6489   3.118   0.887   2.766
 1615SOL    HW2 6490   3.117   0.878   2.861
 1615SOL    HW3 6491   3.194   0.838   2.738
 1615SOL    MW4 6492   3.128   0.879   2.775
 1616SOL     OW 6493   3.124   1.160   2.647
 1616SOL    HW2 6494   3.128   1.071   2.680
 1616SOL    HW3 6495   3.145   1.153   2.554
 1616SOL    MW4 6496   3.127   1.148   2.639
 1617SOL     OW 6497   3.362   1.263   2.774
 1617SOL    HW2 6498   3.345   1.251   2.867
 1617SOL    HW3 6499   3.287   1.223   2.730
 1617SOL    MW4 6500   3.350   1.256   2.780
 1618SOL     OW 6501   3.366   1.486   2.621
 1618SOL    HW2 6502   3.287   1.532   2.650
 1618SOL    HW3 6503   3.375   1.413   2.682
 1618SOL    MW4 6504   3.357   1.483   2.633
 1619SOL     OW 6505   3.142   1.624   2.722
 1619SOL    HW2 6506   3.132   1.707   2.676
 1619SOL    HW3 6507   3.055   1.583   2.716
 1619SOL    MW4 6508   3.129   1.629   2.715
 1620SOL     OW 6509   3.136   1.905   2.637
 1620SOL    HW2 6510   3.209   1.952   2.678
 1620SOL    HW3 6511   3.058   1.945   2.676
 1620SOL    MW4 6512   3.135   1.917   2.648
 1621SOL     OW 6513   3.324   2.062   2.743
 1621SOL    HW2 6514   3.318   2.071   2.838
 1621SOL    HW3 6515   3.345   2.150   2.712
 1621SOL    MW4 6516   3.326   2.074   2.751
 1622SOL     OW 6517   3.358   2.319   2.647
 1622SOL    HW2 6518   3.439   2.358   2.679
 1622SOL    HW3 6519   3.377   2.293   2.556
 1622SOL    MW4 6520   3.371   2.320   2.639
 1623SOL     OW 6521   3.133   2.433   2.724
 1623SOL    HW2 6522   3.138   2.522   2.690
 1623SOL    HW3 6523   3.215   2.392   2.698
 1623SOL    MW4 6524   3.144   2.440   2.716
 1624SOL     OW 6525   3.127   2.696   2.640
 1624SOL    HW2 6526   3.200   2.750   2.672
 1624SOL    HW3 6527   3.049   2.738   2.677
 1624SOL    MW4 6528   3.126   2.709   2.649
 1625SOL     OW 6529   3.336   2.835   2.740
 1625SOL    HW2 6530   3.336   2.827   2.835
 1625SOL    HW3 6531   3.415   2.787   2.712
 1625SOL    MW4 6532   3.347   2.828   2.749
 1626SOL     OW 6533   3.386   3.090   2.648
 1626SOL    HW2 6534   3.403   3.003   2.683
 1626SOL    HW3 6535   3.383   3.077   2.553
 1626SOL    MW4 6536   3.388   3.077   2.640
 1627SOL     OW 6537   3.169   3.258   2.726
 1627SOL    HW2 6538   3.247   3.207   2.709
 1627SOL    HW3 6539   3.097   3.204   2.694
 1627SOL    MW4 6540   3.169   3.244   2.720
 1628SOL     OW 6541   3.144   3.513   2.613
 1628SOL    HW2 6542   3.156   3.430   2.659
 1628SOL    HW3 6543   3.062   3.548   2.648
 1628SOL    MW4 6544   3.135   3.507   2.624
 1629SOL     OW 6545   3.379   3.627   2.699
 1629SOL    HW2 6546   3.383   3.638   2.793
 1629SOL    HW3 6547   3.295   3.583   2.683
 1629SOL    MW4 6548   3.368   3.622   2.709
 1630SOL     OW 6549   3.329   3.880   2.622
 1630SOL    HW2 6550   3.332   3.789   2.652
 1630SOL    HW3 6551   3.348   3.874   2.528
 1630SOL    MW4 6552   3.332   3.867   2.613
 1631SOL     OW 6553   3.139   4.001   2.747
 1631SOL    HW2 6554   3.128   4.095   2.731
 1631SOL    HW3 6555   3.209   3.975   2.688
 1631SOL    MW4 6556   3.147   4.010   2.737
 1632SOL     OW 6557   3.116   4.260   2.661
 1632SOL    HW2 6558   3.039   4.310   2.688
 1632SOL    HW3 6559   3.112   4.259   2.566
 1632SOL    MW4 6560   3.105   4.266   2.652
 1633SOL     OW 6561   3.348   4.400   2.735
 1633SOL    HW2 6562   3.347   4.394   2.831
 1633SOL    HW3 6563   3.270   4.352   2.708
 1633SOL    MW4 6564   3.337   4.393   2.744
 1634SOL     OW 6565   3.809   4.638   2.690
 1634SOL    HW2 6566   3.795   4.547   2.717
 1634SOL    HW3 6567   3.735   4.686   2.728
 1634SOL    MW4 6568   3.797   4.632   2.698
 1635SOL     OW 6569   3.606   0.114   2.756
 1635SOL    HW2 6570   3.614   0.198   2.711
 1635SOL    HW3 6571   3.537   0.068   2.708
 1635SOL    MW4 6572   3.598   0.119   2.744
 1636SOL     OW 6573   3.615   0.401   2.670
 1636SOL    HW2 6574   3.680   0.456   2.714
 1636SOL    HW3 6575   3.531   0.431   2.704
 1636SOL    MW4 6576   3.612   0.412   2.680
 1637SOL     OW 6577   3.835   0.573   2.763
 1637SOL    HW2 6578   3.832   0.569   2.859
 1637SOL    HW3 6579   3.895   0.502   2.738
 1637SOL    MW4 6580   3.843   0.563   2.772
 1638SOL     OW 6581   3.814   0.804   2.601
 1638SOL    HW2 6582   3.742   0.841   2.652
 1638SOL    HW3 6583   3.835   0.722   2.645
 1638SOL    MW4 6584   3.807   0.798   2.614
 1639SOL     OW 6585   3.592   0.894   2.727
 1639SOL    HW2 6586   3.580   0.895   2.822
 1639SOL    HW3 6587   3.593   0.986   2.702
 1639SOL    MW4 6588   3.591   0.906   2.736
 1640SOL     OW 6589   3.592   1.160   2.656
 1640SOL    HW2 6590   3.663   1.212   2.692
 1640SOL    HW3 6591   3.512   1.200   2.692
 1640SOL    MW4 6592   3.591   1.172   2.665
 1641SOL     OW 6593   3.821   1.287   2.768
 1641SOL    HW2 6594   3.903   1.259   2.728
 1641SOL    HW3 6595   3.809   1.377   2.737
 1641SOL    MW4 6596   3.830   1.295   2.759
 1642SOL     OW 6597   3.776   1.530   2.672
 1642SOL    HW2 6598   3.850   1.588   2.695
 1642SOL    HW3 6599   3.698   1.582   2.693
 1642SOL    MW4 6600   3.776   1.545   2.678
 1643SOL     OW 6601   3.541   1.624   2.780
 1643SOL    HW2 6602   3.547   1.714   2.750
 1643SOL    HW3 6603   3.473   1.585   2.725
 1643SOL    MW4 6604   3.533   1.630   2.769
 1644SOL     OW 6605   3.564   1.872   2.660
 1644SOL    HW2 6606   3.491   1.930   2.684
 1644SOL    HW3 6607   3.569   1.877   2.565
 1644SOL    MW4 6608   3.555   1.880   2.651
 1645SOL     OW 6609   3.783   2.022   2.749
 1645SOL    HW2 6610   3.858   1.970   2.719
 1645SOL    HW3 6611   3.707   1.969   2.726
 1645SOL    MW4 6612   3.783   2.008   2.742
 1646SOL     OW 6613   3.785   2.283   2.644
 1646SOL    HW2 6614   3.778   2.192   2.673
 1646SOL    HW3 6615   3.791   2.277   2.549
 1646SOL    MW4 6616   3.785   2.270   2.636
 1647SOL     OW 6617   3.587   2.445   2.742
 1647SOL    HW2 6618   3.596   2.432   2.837
 1647SOL    HW3 6619   3.662   2.398   2.705
 1647SOL    MW4 6620   3.598   2.437   2.750
 1648SOL     OW 6621   3.584   2.709   2.662
 1648SOL    HW2 6622   3.577   2.623   2.704
 1648SOL    HW3 6623   3.595   2.689   2.569
 1648SOL    MW4 6624   3.585   2.695   2.655
 1649SOL     OW 6625   3.822   2.857   2.730
 1649SOL    HW2 6626   3.888   2.801   2.690
 1649SOL    HW3 6627   3.739   2.815   2.709
 1649SOL    MW4 6628   3.820   2.844   2.722
 1650SOL     OW 6629   3.805   3.119   2.629
 1650SOL    HW2 6630   3.726   3.156   2.667
 1650SOL    HW3 6631   3.813   3.032   2.668
 1650SOL    MW4 6632   3.796   3.113   2.639
 1651SOL     OW 6633   3.579   3.264   2.736
 1651SOL    HW2 6634   3.587   3.346   2.686
 1651SOL    HW3 6635   3.511   3.215   2.689
 1651SOL    MW4 6636   3.571   3.268   2.723
 1652SOL     OW 6637   3.604   3.515   2.600
 1652SOL    HW2 6638   3.671   3.569   2.641
 1652SOL    HW3 6639   3.524   3.535   2.648
 1652SOL    MW4 6640   3.602   3.524   2.612
 1653SOL     OW 6641   3.826   3.639   2.724
 1653SOL    HW2 6642   3.882   3.592   2.663
 1653SOL    HW3 6643   3.815   3.726   2.685
 1653SOL    MW4 6644   3.832   3.645   2.711
 1654SOL     OW 6645   3.777   3.896   2.628
 1654SOL    HW2 6646   3.862   3.937   2.645
 1654SOL    HW3 6647   3.714   3.949   2.677
 1654SOL    MW4 6648   3.780   3.908   2.637
 1655SOL     OW 6649   3.537   4.029   2.742
 1655SOL    HW2 6650   3.530   4.118   2.707
 1655SOL    HW3 6651   3.461   3.984   2.706
 1655SOL    MW4 6652   3.526   4.035   2.733
 1656SOL     OW 6653   3.568   4.281   2.624
 1656SOL    HW2 6654   3.483   4.317   2.647
 1656SOL    HW3 6655   3.569   4.279   2.528
 1656SOL    MW4 6656   3.557   4.285   2.614
 1657SOL     OW 6657   3.823   4.376   2.737
 1657SOL    HW2 6658   3.885   4.335   2.676
 1657SOL    HW3 6659   3.738   4.343   2.710
 1657SOL    MW4 6660   3.820   4.367   2.725
 1658SOL     OW 6661   4.242   0.014   2.632
 1658SOL    HW2 6662   4.185   0.070   2.685
 1658SOL    HW3 6663   4.330   0.031   2.665
 1658SOL    MW4 6664   4.246   0.024   2.643
 1659SOL     OW 6665   4.020   0.133   2.787
 1659SOL    HW2 6666   4.013   0.148   2.881
 1659SOL    HW3 6667   3.944   0.081   2.765
 1659SOL    MW4 6668   4.009   0.128   2.796
 1660SOL     OW 6669   4.014   0.382   2.673
 1660SOL    HW2 6670   4.008   0.298   2.719
 1660SOL    HW3 6671   4.029   0.359   2.581
 1660SOL    MW4 6672   4.015   0.368   2.667
 1661SOL     OW 6673   4.239   0.531   2.716
 1661SOL    HW2 6674   4.157   0.485   2.696
 1661SOL    HW3 6675   4.308   0.467   2.698
 1661SOL    MW4 6676   4.237   0.517   2.711
 1662SOL     OW 6677   4.249   0.782   2.611
 1662SOL    HW2 6678   4.233   0.688   2.621
 1662SOL    HW3 6679   4.265   0.794   2.518
 1662SOL    MW4 6680   4.249   0.771   2.600
 1663SOL     OW 6681   4.027   0.897   2.752
 1663SOL    HW2 6682   4.096   0.841   2.716
 1663SOL    HW3 6683   3.948   0.872   2.703
 1663SOL    MW4 6684   4.026   0.886   2.741
 1664SOL     OW 6685   4.039   1.167   2.657
 1664SOL    HW2 6686   4.123   1.182   2.700
 1664SOL    HW3 6687   4.011   1.081   2.687
 1664SOL    MW4 6688   4.046   1.158   2.667
 1665SOL     OW 6689   4.291   1.246   2.758
 1665SOL    HW2 6690   4.278   1.338   2.732
 1665SOL    HW3 6691   4.359   1.214   2.699
 1665SOL    MW4 6692   4.298   1.254   2.747
 1666SOL     OW 6693   4.268   1.510   2.679
 1666SOL    HW2 6694   4.346   1.556   2.711
 1666SOL    HW3 6695   4.271   1.520   2.584
 1666SOL    MW4 6696   4.278   1.518   2.671
 1667SOL     OW 6697   4.034   1.672   2.734
 1667SOL    HW2 6698   4.022   1.673   2.829
 1667SOL    HW3 6699   4.106   1.611   2.720
 1667SOL    MW4 6700   4.042   1.664   2.745
 1668SOL     OW 6701   4.015   1.919   2.618
 1668SOL    HW2 6702   4.082   1.979   2.654
 1668SOL    HW3 6703   4.036   1.834   2.658
 1668SOL    MW4 6704   4.027   1.916   2.628
 1669SOL     OW 6705   4.226   2.057   2.738
 1669SOL    HW2 6706   4.248   2.138   2.692
 1669SOL    HW3 6707   4.301   2.000   2.722
 1669SOL    MW4 6708   4.239   2.060   2.730
 1670SOL     OW 6709   4.227   2.286   2.588
 1670SOL    HW2 6710   4.155   2.333   2.630
 1670SOL    HW3 6711   4.216   2.302   2.495
 1670SOL    MW4 6712   4.216   2.294   2.582
 1671SOL     OW 6713   4.017   2.418   2.718
 1671SOL    HW2 6714   4.005   2.451   2.807
 1671SOL    HW3 6715   3.937   2.368   2.700
 1671SOL    MW4 6716   4.005   2.416   2.728
 1672SOL     OW 6717   4.005   2.680   2.627
 1672SOL    HW2 6718   4.083   2.720   2.666
 1672SOL    HW3 6719   4.002   2.592   2.665
 1672SOL    MW4 6720   4.015   2.674   2.637
 1673SOL     OW 6721   4.226   2.827   2.726
 1673SOL    HW2 6722   4.243   2.840   2.819
 1673SOL    HW3 6723   4.231   2.914   2.687
 1673SOL    MW4 6724   4.229   2.840   2.733
 1674SOL     OW 6725   4.251   3.082   2.613
 1674SOL    HW2 6726   4.186   3.149   2.633
 1674SOL    HW3 6727   4.242   3.068   2.518
 1674SOL    MW4 6728   4.241   3.089   2.603
 1675SOL     OW 6729   4.059   3.252   2.702
 1675SOL    HW2 6730   4.043   3.337   2.660
 1675SOL    HW3 6731   3.978   3.203   2.690
 1675SOL    MW4 6732   4.047   3.257   2.695
 1676SOL     OW 6733   4.020   3.492   2.578
 1676SOL    HW2 6734   4.087   3.556   2.603
 1676SOL    HW3 6735   4.025   3.487   2.482
 1676SOL    MW4 6736   4.029   3.500   2.568
 1677SOL     OW 6737   4.212   3.665   2.679
 1677SOL    HW2 6738   4.205   3.675   2.774
 1677SOL    HW3 6739   4.297   3.623   2.666
 1677SOL    MW4 6740   4.222   3.661   2.690
 1678SOL     OW 6741   4.235   3.919   2.579
 1678SOL    HW2 6742   4.211   3.834   2.616
 1678SOL    HW3 6743   4.322   3.936   2.613
 1678SOL    MW4 6744   4.243   3.910   2.588
 1679SOL     OW 6745   4.004   4.029   2.676
 1679SOL    HW2 6746   4.004   4.052   2.769
 1679SOL    HW3 6747   4.088   3.985   2.662
 1679SOL    MW4 6748   4.015   4.026   2.687
 1680SOL     OW 6749   4.041   4.280   2.593
 1680SOL    HW2 6750   4.061   4.192   2.625
 1680SOL    HW3 6751   4.030   4.269   2.498
 1680SOL    MW4 6752   4.042   4.267   2.584
 1681SOL     OW 6753   4.267   4.406   2.708
 1681SOL    HW2 6754   4.188   4.364   2.672
 1681SOL    HW3 6755   4.260   4.497   2.680
 1681SOL    MW4 6756   4.255   4.412   2.699
 1682SOL     OW 6757   0.221   4.611   3.129
 1682SOL    HW2 6758   0.222   4.603   3.224
 1682SOL    HW3 6759   0.137   4.652   3.108
 1682SOL    MW4 6760   0.210   4.616   3.139
 1683SOL     OW 6761   0.009   0.112   3.011
 1683SOL    HW2 6762  -0.079   0.083   3.034
 1683SOL    HW3 6763   0.012   0.204   3.037
 1683SOL    MW4 6764  -0.002   0.120   3.018
 1684SOL     OW 6765   4.489   0.407   3.102
 1684SOL    HW2 6766   4.491   0.404   3.198
 1684SOL    HW3 6767   4.403   0.445   3.081
 1684SOL    MW4 6768   4.478   0.412   3.112
 1685SOL     OW 6769   0.234   0.532   3.002
 1685SOL    HW2 6770   0.299   0.469   3.035
 1685SOL    HW3 6771   0.150   0.497   3.032
 1685SOL    MW4 6772   0.231   0.519   3.011
 1686SOL     OW 6773   0.190   0.771   3.127
 1686SOL    HW2 6774   0.223   0.755   3.215
 1686SOL    HW3 6775   0.206   0.688   3.080
 1686SOL    MW4 6776   0.196   0.758   3.132
 1687SOL     OW 6777   4.478   0.900   3.005
 1687SOL    HW2 6778   4.552   0.853   3.045
 1687SOL    HW3 6779   4.489   0.883   2.911
 1687SOL    MW4 6780   4.489   0.891   2.998
 1688SOL     OW 6781   4.481   1.172   3.145
 1688SOL    HW2 6782   4.400   1.212   3.114
 1688SOL    HW3 6783   4.482   1.085   3.105
 1688SOL    MW4 6784   4.470   1.166   3.136
 1689SOL     OW 6785   0.206   1.257   3.018
 1689SOL    HW2 6786   0.123   1.231   3.057
 1689SOL    HW3 6787   0.189   1.259   2.924
 1689SOL    MW4 6788   0.193   1.254   3.011
 1690SOL     OW 6789   0.218   1.533   3.077
 1690SOL    HW2 6790   0.129   1.564   3.059
 1690SOL    HW3 6791   0.217   1.441   3.050
 1690SOL    MW4 6792   0.206   1.525   3.071
 1691SOL     OW 6793   4.468   1.656   3.015
 1691SOL    HW2 6794   4.396   1.610   3.057
 1691SOL    HW3 6795   4.467   1.743   3.054
 1691SOL    MW4 6796   4.459   1.661   3.026
 1692SOL     OW 6797   4.467   1.913   3.104
 1692SOL    HW2 6798   4.397   1.969   3.072
 1692SOL    HW3 6799   4.548   1.956   3.073
 1692SOL    MW4 6800   4.469   1.926   3.096
 1693SOL     OW 6801   0.180   2.038   2.957
 1693SOL    HW2 6802   0.185   2.131   2.977
 1693SOL    HW3 6803   0.188   2.034   2.861
 1693SOL    MW4 6804   0.182   2.050   2.947
 1694SOL     OW 6805   0.181   2.298   3.056
 1694SOL    HW2 6806   0.199   2.300   3.150
 1694SOL    HW3 6807   0.242   2.362   3.018
 1694SOL    MW4 6808   0.192   2.307   3.063
 1695SOL     OW 6809   4.462   2.466   2.996
 1695SOL    HW2 6810   4.476   2.555   3.031
 1695SOL    HW3 6811   4.535   2.415   3.032
 1695SOL    MW4 6812   4.474   2.471   3.006
 1696SOL     OW 6813   4.487   2.746   3.073
 1696SOL    HW2 6814   4.497   2.745   3.168
 1696SOL    HW3 6815   4.570   2.783   3.041
 1696SOL    MW4 6816   4.500   2.751   3.081
 1697SOL     OW 6817   0.205   2.878   2.958
 1697SOL    HW2 6818   0.293   2.842   2.970
 1697SOL    HW3 6819   0.199   2.893   2.863
 1697SOL    MW4 6820   0.216   2.875   2.947
 1698SOL     OW 6821   0.208   3.124   3.092
 1698SOL    HW2 6822   0.138   3.178   3.054
 1698SOL    HW3 6823   0.193   3.037   3.055
 1698SOL    MW4 6824   0.196   3.120   3.082
 1699SOL     OW 6825   0.001   3.272   2.973
 1699SOL    HW2 6826  -0.070   3.232   3.024
 1699SOL    HW3 6827  -0.032   3.274   2.884
 1699SOL    MW4 6828  -0.013   3.267   2.968
 1700SOL     OW 6829   4.484   3.540   3.037
 1700SOL    HW2 6830   4.396   3.567   3.012
 1700SOL    HW3 6831   4.491   3.449   3.008
 1700SOL    MW4 6832   4.474   3.532   3.030
 1701SOL     OW 6833   0.226   3.651   2.963
 1701SOL    HW2 6834   0.227   3.747   2.972
 1701SOL    HW3 6835   0.140   3.624   2.994
 1701SOL    MW4 6836   0.215   3.660   2.968
 1702SOL     OW 6837   0.221   3.918   3.076
 1702SOL    HW2 6838   0.215   3.931   3.171
 1702SOL    HW3 6839   0.298   3.968   3.049
 1702SOL    MW4 6840   0.230   3.926   3.085
 1703SOL     OW 6841   4.478   4.012   2.975
 1703SOL    HW2 6842   4.558   3.968   3.007
 1703SOL    HW3 6843   4.482   4.002   2.880
 1703SOL    MW4 6844   4.489   4.005   2.967
 1704SOL     OW 6845   4.475   4.262   3.098
 1704SOL    HW2 6846   4.505   4.254   3.189
 1704SOL    HW3 6847   4.471   4.172   3.066
 1704SOL    MW4 6848   4.478   4.249   3.106
 1705SOL     OW 6849   0.185   4.392   2.985
 1705SOL    HW2 6850   0.108   4.351   3.025
 1705SOL    HW3 6851   0.197   4.473   3.034
 1705SOL    MW4 6852   0.176   4.397   2.997
 1706SOL     OW 6853   0.725   4.660   3.054
 1706SOL    HW2 6854   0.735   4.571   3.019
 1706SOL    HW3 6855   0.637   4.686   3.028
 1706SOL    MW4 6856   0.715   4.651   3.046
 1707SOL     OW 6857   0.455   0.088   3.037
 1707SOL    HW2 6858   0.439   0.182   3.036
 1707SOL    HW3 6859   0.382   0.051   3.086
 1707SOL    MW4 6860   0.443   0.095   3.043
 1708SOL     OW 6861   0.422   0.356   3.089
 1708SOL    HW2 6862   0.430   0.368   3.183
 1708SOL    HW3 6863   0.508   0.379   3.054
 1708SOL    MW4 6864   0.434   0.361   3.096
 1709SOL     OW 6865   0.668   0.469   2.991
 1709SOL    HW2 6866   0.755   0.436   3.016
 1709SOL    HW3 6867   0.668   0.560   3.019
 1709SOL    MW4 6868   0.680   0.477   2.998
 1710SOL     OW 6869   0.660   0.751   3.112
 1710SOL    HW2 6870   0.661   0.733   3.206
 1710SOL    HW3 6871   0.587   0.811   3.100
 1710SOL    MW4 6872   0.651   0.757   3.123
 1711SOL     OW 6873   0.419   0.925   3.020
 1711SOL    HW2 6874   0.344   0.879   3.059
 1711SOL    HW3 6875   0.408   0.911   2.926
 1711SOL    MW4 6876   0.407   0.917   3.012
 1712SOL     OW 6877   0.461   1.186   3.076
 1712SOL    HW2 6878   0.467   1.095   3.048
 1712SOL    HW3 6879   0.370   1.210   3.058
 1712SOL    MW4 6880   0.450   1.177   3.070
 1713SOL     OW 6881   0.699   1.287   2.976
 1713SOL    HW2 6882   0.768   1.244   3.026
 1713SOL    HW3 6883   0.618   1.255   3.014
 1713SOL    MW4 6884   0.698   1.277   2.987
 1714SOL     OW 6885   0.647   1.537   3.099
 1714SOL    HW2 6886   0.655   1.509   3.190
 1714SOL    HW3 6887   0.662   1.458   3.048
 1714SOL    MW4 6888   0.650   1.523   3.105
 1715SOL     OW 6889   0.432   1.665   2.972
 1715SOL    HW2 6890   0.509   1.638   3.022
 1715SOL    HW3 6891   0.359   1.618   3.012
 1715SOL    MW4 6892   0.433   1.655   2.984
 1716SOL     OW 6893   0.415   1.926   3.059
 1716SOL    HW2 6894   0.402   1.837   3.026
 1716SOL    HW3 6895   0.342   1.976   3.023
 1716SOL    MW4 6896   0.404   1.921   3.050
 1717SOL     OW 6897   0.658   2.052   2.976
 1717SOL    HW2 6898   0.731   2.005   3.016
 1717SOL    HW3 6899   0.580   2.015   3.018
 1717SOL    MW4 6900   0.658   2.041   2.987
 1718SOL     OW 6901   0.647   2.318   3.044
 1718SOL    HW2 6902   0.638   2.302   3.138
 1718SOL    HW3 6903   0.650   2.231   3.005
 1718SOL    MW4 6904   0.646   2.305   3.051
 1719SOL     OW 6905   0.394   2.446   2.976
 1719SOL    HW2 6906   0.478   2.411   3.005
 1719SOL    HW3 6907   0.391   2.426   2.883
 1719SOL    MW4 6908   0.405   2.439   2.968
 1720SOL     OW 6909   0.419   2.741   3.057
 1720SOL    HW2 6910   0.509   2.771   3.043
 1720SOL    HW3 6911   0.414   2.656   3.015
 1720SOL    MW4 6912   0.430   2.734   3.050
 1721SOL     OW 6913   0.672   2.813   2.996
 1721SOL    HW2 6914   0.760   2.783   3.018
 1721SOL    HW3 6915   0.672   2.906   3.018
 1721SOL    MW4 6916   0.684   2.821   3.002
 1722SOL     OW 6917   0.667   3.074   3.059
 1722SOL    HW2 6918   0.671   3.090   3.154
 1722SOL    HW3 6919   0.597   3.132   3.029
 1722SOL    MW4 6920   0.658   3.084   3.068
 1723SOL     OW 6921   0.445   3.208   2.962
 1723SOL    HW2 6922   0.445   3.303   2.973
 1723SOL    HW3 6923   0.375   3.177   3.020
 1723SOL    MW4 6924   0.435   3.217   2.971
 1724SOL     OW 6925   0.449   3.482   3.038
 1724SOL    HW2 6926   0.452   3.483   3.133
 1724SOL    HW3 6927   0.373   3.536   3.016
 1724SOL    MW4 6928   0.439   3.489   3.047
 1725SOL     OW 6929   0.668   3.598   2.941
 1725SOL    HW2 6930   0.742   3.558   2.988
 1725SOL    HW3 6931   0.591   3.566   2.987
 1725SOL    MW4 6932   0.668   3.589   2.954
 1726SOL     OW 6933   0.635   3.872   3.037
 1726SOL    HW2 6934   0.640   3.867   3.133
 1726SOL    HW3 6935   0.635   3.780   3.009
 1726SOL    MW4 6936   0.636   3.859   3.046
 1727SOL     OW 6937   0.435   4.069   2.984
 1727SOL    HW2 6938   0.495   4.011   3.030
 1727SOL    HW3 6939   0.436   4.038   2.893
 1727SOL    MW4 6940   0.443   4.058   2.978
 1728SOL     OW 6941   0.426   4.318   3.100
 1728SOL    HW2 6942   0.435   4.228   3.070
 1728SOL    HW3 6943   0.346   4.350   3.058
 1728SOL    MW4 6944   0.417   4.310   3.090
 1729SOL     OW 6945   0.673   4.386   2.979
 1729SOL    HW2 6946   0.592   4.351   3.017
 1729SOL    HW3 6947   0.659   4.380   2.885
 1729SOL    MW4 6948   0.660   4.380   2.972
 1730SOL     OW 6949   1.139   4.659   3.105
 1730SOL    HW2 6950   1.219   4.710   3.093
 1730SOL    HW3 6951   1.072   4.708   3.059
 1730SOL    MW4 6952   1.141   4.672   3.097
 1731SOL     OW 6953   0.942   0.150   2.936
 1731SOL    HW2 6954   0.955   0.236   2.976
 1731SOL    HW3 6955   0.863   0.116   2.979
 1731SOL    MW4 6956   0.933   0.157   2.947
 1732SOL     OW 6957   0.916   0.384   3.074
 1732SOL    HW2 6958   0.897   0.376   3.168
 1732SOL    HW3 6959   0.980   0.455   3.069
 1732SOL    MW4 6960   0.922   0.392   3.086
 1733SOL     OW 6961   1.141   0.541   2.961
 1733SOL    HW2 6962   1.222   0.499   2.989
 1733SOL    HW3 6963   1.135   0.523   2.867
 1733SOL    MW4 6964   1.151   0.533   2.952
 1734SOL     OW 6965   1.154   0.794   3.035
 1734SOL    HW2 6966   1.159   0.801   3.131
 1734SOL    HW3 6967   1.139   0.700   3.019
 1734SOL    MW4 6968   1.152   0.782   3.046
 1735SOL     OW 6969   0.900   0.900   3.004
 1735SOL    HW2 6970   0.987   0.863   3.020
 1735SOL    HW3 6971   0.840   0.843   3.051
 1735SOL    MW4 6972   0.904   0.888   3.012
 1736SOL     OW 6973   0.909   1.151   3.116
 1736SOL    HW2 6974   0.981   1.202   3.078
 1736SOL    HW3 6975   0.912   1.067   3.071
 1736SOL    MW4 6976   0.919   1.147   3.105
 1737SOL     OW 6977   1.136   1.289   3.011
 1737SOL    HW2 6978   1.221   1.256   3.040
 1737SOL    HW3 6979   1.139   1.280   2.916
 1737SOL    MW4 6980   1.148   1.283   3.002
 1738SOL     OW 6981   1.104   1.561   3.061
 1738SOL    HW2 6982   1.186   1.610   3.049
 1738SOL    HW3 6983   1.130   1.469   3.058
 1738SOL    MW4 6984   1.119   1.555   3.059
 1739SOL     OW 6985   0.860   1.666   2.955
 1739SOL    HW2 6986   0.937   1.635   3.003
 1739SOL    HW3 6987   0.787   1.613   2.989
 1739SOL    MW4 6988   0.860   1.655   2.966
 1740SOL     OW 6989   0.882   1.921   3.088
 1740SOL    HW2 6990   0.883   1.912   3.184
 1740SOL    HW3 6991   0.864   1.832   3.056
 1740SOL    MW4 6992   0.880   1.908   3.097
 1741SOL     OW 6993   1.128   2.041   3.002
 1741SOL    HW2 6994   1.055   2.033   3.063
 1741SOL    HW3 6995   1.090   2.022   2.916
 1741SOL    MW4 6996   1.114   2.038   2.998
 1742SOL     OW 6997   1.135   2.335   3.087
 1742SOL    HW2 6998   1.052   2.379   3.065
 1742SOL    HW3 6999   1.130   2.251   3.041
 1742SOL    MW4 7000   1.123   2.329   3.078
 1743SOL     OW 7001   0.886   2.449   2.987
 1743SOL    HW2 7002   0.802   2.422   3.023
 1743SOL    HW3 7003   0.878   2.433   2.893
 1743SOL    MW4 7004   0.874   2.444   2.979
 1744SOL     OW 7005   0.939   2.721   3.053
 1744SOL    HW2 7006   0.918   2.708   3.146
 1744SOL    HW3 7007   0.924   2.635   3.013
 1744SOL    MW4 7008   0.934   2.708   3.060
 1745SOL     OW 7009   1.155   2.862   2.950
 1745SOL    HW2 7010   1.143   2.954   2.974
 1745SOL    HW3 7011   1.083   2.816   2.993
 1745SOL    MW4 7012   1.144   2.868   2.959
 1746SOL     OW 7013   1.144   3.112   3.086
 1746SOL    HW2 7014   1.205   3.182   3.061
 1746SOL    HW3 7015   1.059   3.141   3.055
 1746SOL    MW4 7016   1.141   3.125   3.079
 1747SOL     OW 7017   0.900   3.219   3.011
 1747SOL    HW2 7018   0.824   3.168   3.040
 1747SOL    HW3 7019   0.899   3.210   2.915
 1747SOL    MW4 7020   0.890   3.211   3.002
 1748SOL     OW 7021   0.901   3.483   3.064
 1748SOL    HW2 7022   0.987   3.508   3.030
 1748SOL    HW3 7023   0.902   3.387   3.065
 1748SOL    MW4 7024   0.912   3.473   3.059
 1749SOL     OW 7025   1.125   3.644   2.965
 1749SOL    HW2 7026   1.217   3.629   2.984
 1749SOL    HW3 7027   1.101   3.717   3.023
 1749SOL    MW4 7028   1.134   3.652   2.975
 1750SOL     OW 7029   1.095   3.861   3.143
 1750SOL    HW2 7030   1.090   3.895   3.233
 1750SOL    HW3 7031   1.025   3.906   3.097
 1750SOL    MW4 7032   1.085   3.872   3.149
 1751SOL     OW 7033   0.879   4.000   2.987
 1751SOL    HW2 7034   0.791   3.963   2.991
 1751SOL    HW3 7035   0.892   4.020   2.894
 1751SOL    MW4 7036   0.869   3.998   2.975
 1752SOL     OW 7037   0.897   4.257   3.120
 1752SOL    HW2 7038   0.903   4.171   3.079
 1752SOL    HW3 7039   0.812   4.291   3.092
 1752SOL    MW4 7040   0.887   4.250   3.111
 1753SOL     OW 7041   1.125   4.381   2.993
 1753SOL    HW2 7042   1.041   4.355   3.029
 1753SOL    HW3 7043   1.145   4.464   3.036
 1753SOL    MW4 7044   1.117   4.389   3.003
 1754SOL     OW 7045   1.551   4.618   3.081
 1754SOL    HW2 7046   1.560   4.633   3.175
 1754SOL    HW3 7047   1.483   4.679   3.053
 1754SOL    MW4 7048   1.543   4.628   3.090
 1755SOL     OW 7049   1.364   0.124   2.987
 1755SOL    HW2 7050   1.349   0.214   3.016
 1755SOL    HW3 7051   1.345   0.126   2.893
 1755SOL    MW4 7052   1.360   0.136   2.978
 1756SOL     OW 7053   1.335   0.375   3.044
 1756SOL    HW2 7054   1.338   0.388   3.139
 1756SOL    HW3 7055   1.423   0.395   3.014
 1756SOL    MW4 7056   1.347   0.379   3.053
 1757SOL     OW 7057   1.577   0.479   2.974
 1757SOL    HW2 7058   1.568   0.572   2.996
 1757SOL    HW3 7059   1.593   0.478   2.880
 1757SOL    MW4 7060   1.578   0.491   2.965
 1758SOL     OW 7061   1.592   0.746   3.068
 1758SOL    HW2 7062   1.585   0.749   3.163
 1758SOL    HW3 7063   1.533   0.814   3.038
 1758SOL    MW4 7064   1.584   0.755   3.077
 1759SOL     OW 7065   1.385   0.925   2.982
 1759SOL    HW2 7066   1.388   1.014   3.016
 1759SOL    HW3 7067   1.301   0.891   3.012
 1759SOL    MW4 7068   1.375   0.932   2.991
 1760SOL     OW 7069   1.374   1.173   3.108
 1760SOL    HW2 7070   1.384   1.182   3.203
 1760SOL    HW3 7071   1.443   1.228   3.072
 1760SOL    MW4 7072   1.384   1.182   3.116
 1761SOL     OW 7073   1.616   1.280   2.997
 1761SOL    HW2 7074   1.692   1.233   3.029
 1761SOL    HW3 7075   1.621   1.366   3.038
 1761SOL    MW4 7076   1.626   1.285   3.007
 1762SOL     OW 7077   1.618   1.530   3.107
 1762SOL    HW2 7078   1.691   1.590   3.091
 1762SOL    HW3 7079   1.539   1.582   3.089
 1762SOL    MW4 7080   1.617   1.544   3.102
 1763SOL     OW 7081   1.364   1.691   3.007
 1763SOL    HW2 7082   1.372   1.783   3.031
 1763SOL    HW3 7083   1.391   1.688   2.915
 1763SOL    MW4 7084   1.368   1.703   2.998
 1764SOL     OW 7085   1.386   1.944   3.071
 1764SOL    HW2 7086   1.384   1.928   3.166
 1764SOL    HW3 7087   1.296   1.970   3.050
 1764SOL    MW4 7088   1.373   1.945   3.081
 1765SOL     OW 7089   1.596   2.088   2.981
 1765SOL    HW2 7090   1.519   2.040   3.012
 1765SOL    HW3 7091   1.591   2.083   2.886
 1765SOL    MW4 7092   1.585   2.081   2.972
 1766SOL     OW 7093   1.586   2.327   3.108
 1766SOL    HW2 7094   1.519   2.380   3.064
 1766SOL    HW3 7095   1.577   2.240   3.068
 1766SOL    MW4 7096   1.576   2.322   3.097
 1767SOL     OW 7097   1.379   2.481   3.023
 1767SOL    HW2 7098   1.317   2.418   3.059
 1767SOL    HW3 7099   1.352   2.494   2.932
 1767SOL    MW4 7100   1.367   2.475   3.016
 1768SOL     OW 7101   1.369   2.752   3.083
 1768SOL    HW2 7102   1.367   2.656   3.078
 1768SOL    HW3 7103   1.299   2.780   3.023
 1768SOL    MW4 7104   1.359   2.743   3.074
 1769SOL     OW 7105   1.576   2.894   2.973
 1769SOL    HW2 7106   1.657   2.843   2.983
 1769SOL    HW3 7107   1.510   2.843   3.020
 1769SOL    MW4 7108   1.578   2.881   2.981
 1770SOL     OW 7109   1.573   3.163   3.058
 1770SOL    HW2 7110   1.555   3.150   3.151
 1770SOL    HW3 7111   1.569   3.075   3.020
 1770SOL    MW4 7112   1.570   3.150   3.066
 1771SOL     OW 7113   1.342   3.301   2.981
 1771SOL    HW2 7114   1.423   3.263   3.014
 1771SOL    HW3 7115   1.349   3.292   2.886
 1771SOL    MW4 7116   1.354   3.294   2.973
 1772SOL     OW 7117   1.369   3.565   3.059
 1772SOL    HW2 7118   1.360   3.589   3.151
 1772SOL    HW3 7119   1.364   3.470   3.059
 1772SOL    MW4 7120   1.367   3.556   3.071
 1773SOL     OW 7121   1.628   3.632   3.001
 1773SOL    HW2 7122   1.544   3.595   3.030
 1773SOL    HW3 7123   1.630   3.617   2.907
 1773SOL    MW4 7124   1.617   3.625   2.993
 1774SOL     OW 7125   1.566   3.897   3.079
 1774SOL    HW2 7126   1.650   3.943   3.069
 1774SOL    HW3 7127   1.579   3.814   3.033
 1774SOL    MW4 7128   1.579   3.893   3.072
 1775SOL     OW 7129   1.298   3.968   2.990
 1775SOL    HW2 7130   1.385   3.952   3.026
 1775SOL    HW3 7131   1.240   3.913   3.043
 1775SOL    MW4 7132   1.302   3.958   3.002
 1776SOL     OW 7133   1.347   4.229   3.054
 1776SOL    HW2 7134   1.320   4.142   3.027
 1776SOL    HW3 7135   1.273   4.285   3.033
 1776SOL    MW4 7136   1.334   4.225   3.048
 1777SOL     OW 7137   1.586   4.373   2.968
 1777SOL    HW2 7138   1.508   4.319   2.982
 1777SOL    HW3 7139   1.563   4.458   3.007
 1777SOL    MW4 7140   1.572   4.377   2.975
 1778SOL     OW 7141   2.025   4.652   3.084
 1778SOL    HW2 7142   2.028   4.654   3.180
 1778SOL    HW3 7143   1.940   4.689   3.062
 1778SOL    MW4 7144   2.014   4.657   3.094
 1779SOL     OW 7145   1.784   0.083   2.997
 1779SOL    HW2 7146   1.706   0.031   3.015
 1779SOL    HW3 7147   1.773   0.111   2.906
 1779SOL    MW4 7148   1.772   0.080   2.987
 1780SOL     OW 7149   1.776   0.344   3.112
 1780SOL    HW2 7150   1.777   0.254   3.080
 1780SOL    HW3 7151   1.699   0.384   3.072
 1780SOL    MW4 7152   1.766   0.338   3.103
 1781SOL     OW 7153   1.998   0.487   3.012
 1781SOL    HW2 7154   1.920   0.440   3.039
 1781SOL    HW3 7155   2.006   0.470   2.918
 1781SOL    MW4 7156   1.989   0.479   3.003
 1782SOL     OW 7157   2.042   0.733   3.122
 1782SOL    HW2 7158   1.960   0.767   3.086
 1782SOL    HW3 7159   2.049   0.644   3.087
 1782SOL    MW4 7160   2.032   0.725   3.113
 1783SOL     OW 7161   1.833   0.867   3.015
 1783SOL    HW2 7162   1.742   0.837   3.023
 1783SOL    HW3 7163   1.848   0.873   2.921
 1783SOL    MW4 7164   1.823   0.864   3.004
 1784SOL     OW 7165   1.831   1.145   3.095
 1784SOL    HW2 7166   1.835   1.140   3.191
 1784SOL    HW3 7167   1.831   1.054   3.066
 1784SOL    MW4 7168   1.831   1.133   3.104
 1785SOL     OW 7169   2.019   1.336   3.005
 1785SOL    HW2 7170   2.084   1.297   3.062
 1785SOL    HW3 7171   1.940   1.283   3.019
 1785SOL    MW4 7172   2.017   1.323   3.014
 1786SOL     OW 7173   2.023   1.577   3.129
 1786SOL    HW2 7174   2.042   1.557   3.220
 1786SOL    HW3 7175   2.020   1.492   3.086
 1786SOL    MW4 7176   2.025   1.563   3.135
 1787SOL     OW 7177   1.806   1.710   3.026
 1787SOL    HW2 7178   1.808   1.796   3.067
 1787SOL    HW3 7179   1.890   1.670   3.049
 1787SOL    MW4 7180   1.817   1.716   3.035
 1788SOL     OW 7181   1.789   1.964   3.145
 1788SOL    HW2 7182   1.870   2.002   3.111
 1788SOL    HW3 7183   1.721   1.993   3.084
 1788SOL    MW4 7184   1.791   1.973   3.133
 1789SOL     OW 7185   2.016   2.080   3.001
 1789SOL    HW2 7186   2.089   2.033   3.043
 1789SOL    HW3 7187   2.026   2.170   3.030
 1789SOL    MW4 7188   2.027   2.085   3.010
 1790SOL     OW 7189   2.032   2.339   3.087
 1790SOL    HW2 7190   2.106   2.396   3.066
 1790SOL    HW3 7191   1.955   2.391   3.067
 1790SOL    MW4 7192   2.032   2.353   3.082
 1791SOL     OW 7193   1.806   2.438   3.003
 1791SOL    HW2 7194   1.795   2.531   3.020
 1791SOL    HW3 7195   1.736   2.396   3.054
 1791SOL    MW4 7196   1.795   2.445   3.012
 1792SOL     OW 7197   1.782   2.734   3.039
 1792SOL    HW2 7198   1.774   2.712   3.131
 1792SOL    HW3 7199   1.863   2.787   3.034
 1792SOL    MW4 7200   1.792   2.738   3.050
 1793SOL     OW 7201   2.027   2.872   2.971
 1793SOL    HW2 7202   2.021   2.966   2.992
 1793SOL    HW3 7203   2.026   2.869   2.876
 1793SOL    MW4 7204   2.026   2.884   2.961
 1794SOL     OW 7205   2.045   3.134   3.034
 1794SOL    HW2 7206   2.058   3.135   3.129
 1794SOL    HW3 7207   1.965   3.185   3.020
 1794SOL    MW4 7208   2.036   3.141   3.045
 1795SOL     OW 7209   1.815   3.276   3.000
 1795SOL    HW2 7210   1.741   3.224   3.032
 1795SOL    HW3 7211   1.800   3.285   2.906
 1795SOL    MW4 7212   1.804   3.270   2.992
 1796SOL     OW 7213   1.863   3.525   3.101
 1796SOL    HW2 7214   1.841   3.435   3.080
 1796SOL    HW3 7215   1.782   3.574   3.086
 1796SOL    MW4 7216   1.849   3.520   3.097
 1797SOL     OW 7217   2.064   3.646   2.977
 1797SOL    HW2 7218   2.064   3.734   3.015
 1797SOL    HW3 7219   1.983   3.606   3.008
 1797SOL    MW4 7220   2.053   3.653   2.986
 1798SOL     OW 7221   2.046   3.885   3.107
 1798SOL    HW2 7222   2.046   3.887   3.203
 1798SOL    HW3 7223   1.965   3.929   3.082
 1798SOL    MW4 7224   2.035   3.891   3.117
 1799SOL     OW 7225   1.819   4.002   3.030
 1799SOL    HW2 7226   1.808   4.095   3.052
 1799SOL    HW3 7227   1.816   4.000   2.934
 1799SOL    MW4 7228   1.817   4.014   3.020
 1800SOL     OW 7229   1.815   4.280   3.099
 1800SOL    HW2 7230   1.890   4.310   3.047
 1800SOL    HW3 7231   1.739   4.311   3.050
 1800SOL    MW4 7232   1.815   4.288   3.085
 1801SOL     OW 7233   2.025   4.400   2.980
 1801SOL    HW2 7234   2.042   4.489   3.012
 1801SOL    HW3 7235   2.043   4.404   2.886
 1801SOL    MW4 7236   2.030   4.413   2.972
 1802SOL     OW 7237   2.446   4.643   3.057
 1802SOL    HW2 7238   2.409   4.557   3.037
 1802SOL    HW3 7239   2.370   4.700   3.065
 1802SOL    MW4 7240   2.431   4.639   3.055
 1803SOL     OW 7241   2.235   0.151   3.010
 1803SOL    HW2 7242   2.235   0.221   3.076
 1803SOL    HW3 7243   2.165   0.092   3.036
 1803SOL    MW4 7244   2.226   0.153   3.022
 1804SOL     OW 7245   2.240   0.411   3.140
 1804SOL    HW2 7246   2.221   0.412   3.234
 1804SOL    HW3 7247   2.161   0.444   3.098
 1804SOL    MW4 7248   2.227   0.415   3.147
 1805SOL     OW 7249   2.475   0.531   3.028
 1805SOL    HW2 7250   2.406   0.484   3.075
 1805SOL    HW3 7251   2.467   0.501   2.937
 1805SOL    MW4 7252   2.465   0.520   3.022
 1806SOL     OW 7253   2.433   0.781   3.131
 1806SOL    HW2 7254   2.510   0.829   3.101
 1806SOL    HW3 7255   2.448   0.691   3.101
 1806SOL    MW4 7256   2.445   0.775   3.123
 1807SOL     OW 7257   2.234   0.920   3.034
 1807SOL    HW2 7258   2.307   0.870   3.069
 1807SOL    HW3 7259   2.157   0.868   3.055
 1807SOL    MW4 7260   2.233   0.906   3.041
 1808SOL     OW 7261   2.230   1.199   3.134
 1808SOL    HW2 7262   2.237   1.185   3.228
 1808SOL    HW3 7263   2.226   1.111   3.097
 1808SOL    MW4 7264   2.230   1.186   3.141
 1809SOL     OW 7265   2.459   1.300   3.011
 1809SOL    HW2 7266   2.387   1.245   3.042
 1809SOL    HW3 7267   2.458   1.289   2.916
 1809SOL    MW4 7268   2.449   1.291   3.002
 1810SOL     OW 7269   2.464   1.556   3.108
 1810SOL    HW2 7270   2.388   1.609   3.084
 1810SOL    HW3 7271   2.452   1.473   3.062
 1810SOL    MW4 7272   2.453   1.552   3.099
 1811SOL     OW 7273   2.253   1.700   3.012
 1811SOL    HW2 7274   2.175   1.656   3.044
 1811SOL    HW3 7275   2.253   1.683   2.918
 1811SOL    MW4 7276   2.243   1.692   3.004
 1812SOL     OW 7277   2.228   1.944   3.132
 1812SOL    HW2 7278   2.295   2.009   3.112
 1812SOL    HW3 7279   2.253   1.866   3.082
 1812SOL    MW4 7280   2.240   1.942   3.123
 1813SOL     OW 7281   2.447   2.076   3.025
 1813SOL    HW2 7282   2.493   2.005   3.070
 1813SOL    HW3 7283   2.464   2.060   2.932
 1813SOL    MW4 7284   2.455   2.064   3.019
 1814SOL     OW 7285   2.460   2.342   3.082
 1814SOL    HW2 7286   2.484   2.356   3.173
 1814SOL    HW3 7287   2.450   2.247   3.075
 1814SOL    MW4 7288   2.461   2.331   3.093
 1815SOL     OW 7289   2.235   2.497   3.012
 1815SOL    HW2 7290   2.245   2.576   3.064
 1815SOL    HW3 7291   2.311   2.443   3.034
 1815SOL    MW4 7292   2.246   2.500   3.022
 1816SOL     OW 7293   2.254   2.776   3.116
 1816SOL    HW2 7294   2.338   2.791   3.074
 1816SOL    HW3 7295   2.192   2.827   3.064
 1816SOL    MW4 7296   2.257   2.785   3.104
 1817SOL     OW 7297   2.471   2.826   2.961
 1817SOL    HW2 7298   2.482   2.918   2.986
 1817SOL    HW3 7299   2.448   2.829   2.868
 1817SOL    MW4 7300   2.469   2.839   2.952
 1818SOL     OW 7301   2.492   3.091   3.019
 1818SOL    HW2 7302   2.572   3.141   3.002
 1818SOL    HW3 7303   2.422   3.155   3.013
 1818SOL    MW4 7304   2.493   3.106   3.016
 1819SOL     OW 7305   2.281   3.254   2.945
 1819SOL    HW2 7306   2.267   3.339   2.985
 1819SOL    HW3 7307   2.208   3.200   2.977
 1819SOL    MW4 7308   2.269   3.258   2.954
 1820SOL     OW 7309   2.258   3.492   3.086
 1820SOL    HW2 7310   2.332   3.521   3.033
 1820SOL    HW3 7311   2.182   3.536   3.046
 1820SOL    MW4 7312   2.258   3.502   3.074
 1821SOL     OW 7313   2.475   3.614   2.964
 1821SOL    HW2 7314   2.553   3.577   3.004
 1821SOL    HW3 7315   2.479   3.708   2.985
 1821SOL    MW4 7316   2.486   3.622   2.972
 1822SOL     OW 7317   2.473   3.871   3.093
 1822SOL    HW2 7318   2.459   3.870   3.188
 1822SOL    HW3 7319   2.557   3.916   3.082
 1822SOL    MW4 7320   2.482   3.877   3.104
 1823SOL     OW 7321   2.256   4.018   3.018
 1823SOL    HW2 7322   2.334   3.975   3.053
 1823SOL    HW3 7323   2.183   3.962   3.045
 1823SOL    MW4 7324   2.257   4.005   3.027
 1824SOL     OW 7325   2.174   4.253   3.151
 1824SOL    HW2 7326   2.203   4.171   3.111
 1824SOL    HW3 7327   2.118   4.294   3.084
 1824SOL    MW4 7328   2.170   4.247   3.137
 1825SOL     OW 7329   2.411   4.371   3.048
 1825SOL    HW2 7330   2.325   4.338   3.074
 1825SOL    HW3 7331   2.409   4.369   2.952
 1825SOL    MW4 7332   2.399   4.366   3.039
 1826SOL     OW 7333   2.867   0.002   3.150
 1826SOL    HW2 7334   2.955   0.037   3.135
 1826SOL    HW3 7335   2.870  -0.086   3.113
 1826SOL    MW4 7336   2.879  -0.005   3.143
 1827SOL     OW 7337   2.675   0.135   3.007
 1827SOL    HW2 7338   2.750   0.098   3.053
 1827SOL    HW3 7339   2.602   0.077   3.028
 1827SOL    MW4 7340   2.675   0.123   3.016
 1828SOL     OW 7341   2.709   0.385   3.139
 1828SOL    HW2 7342   2.701   0.293   3.113
 1828SOL    HW3 7343   2.625   0.424   3.114
 1828SOL    MW4 7344   2.697   0.378   3.132
 1829SOL     OW 7345   2.932   0.489   3.022
 1829SOL    HW2 7346   2.859   0.449   3.071
 1829SOL    HW3 7347   2.911   0.472   2.930
 1829SOL    MW4 7348   2.919   0.481   3.016
 1830SOL     OW 7349   2.849   0.753   3.114
 1830SOL    HW2 7350   2.857   0.746   3.209
 1830SOL    HW3 7351   2.864   0.664   3.082
 1830SOL    MW4 7352   2.852   0.740   3.122
 1831SOL     OW 7353   2.637   0.918   3.026
 1831SOL    HW2 7354   2.657   1.003   3.065
 1831SOL    HW3 7355   2.713   0.863   3.047
 1831SOL    MW4 7356   2.650   0.922   3.034
 1832SOL     OW 7357   2.668   1.186   3.148
 1832SOL    HW2 7358   2.753   1.214   3.117
 1832SOL    HW3 7359   2.605   1.239   3.098
 1832SOL    MW4 7360   2.671   1.197   3.137
 1833SOL     OW 7361   2.905   1.253   3.049
 1833SOL    HW2 7362   2.981   1.208   3.087
 1833SOL    HW3 7363   2.917   1.345   3.073
 1833SOL    MW4 7364   2.917   1.259   3.057
 1834SOL     OW 7365   2.939   1.525   3.089
 1834SOL    HW2 7366   2.928   1.544   3.182
 1834SOL    HW3 7367   3.006   1.587   3.059
 1834SOL    MW4 7368   2.947   1.535   3.097
 1835SOL     OW 7369   2.713   1.650   3.013
 1835SOL    HW2 7370   2.792   1.612   3.051
 1835SOL    HW3 7371   2.641   1.607   3.059
 1835SOL    MW4 7372   2.714   1.640   3.024
 1836SOL     OW 7373   2.644   1.907   3.102
 1836SOL    HW2 7374   2.722   1.952   3.070
 1836SOL    HW3 7375   2.660   1.814   3.084
 1836SOL    MW4 7376   2.656   1.901   3.096
 1837SOL     OW 7377   2.897   1.999   3.027
 1837SOL    HW2 7378   2.883   2.089   3.055
 1837SOL    HW3 7379   2.908   2.005   2.932
 1837SOL    MW4 7380   2.897   2.011   3.018
 1838SOL     OW 7381   2.880   2.268   3.091
 1838SOL    HW2 7382   2.958   2.317   3.063
 1838SOL    HW3 7383   2.808   2.309   3.044
 1838SOL    MW4 7384   2.881   2.280   3.081
 1839SOL     OW 7385   2.689   2.429   2.957
 1839SOL    HW2 7386   2.701   2.508   3.010
 1839SOL    HW3 7387   2.602   2.397   2.982
 1839SOL    MW4 7388   2.679   2.435   2.967
 1840SOL     OW 7389   2.688   2.670   3.070
 1840SOL    HW2 7390   2.692   2.685   3.164
 1840SOL    HW3 7391   2.622   2.731   3.038
 1840SOL    MW4 7392   2.680   2.680   3.078
 1841SOL     OW 7393   2.901   2.847   3.004
 1841SOL    HW2 7394   2.987   2.806   3.015
 1841SOL    HW3 7395   2.839   2.780   3.032
 1841SOL    MW4 7396   2.904   2.833   3.009
 1842SOL     OW 7397   2.954   3.111   3.098
 1842SOL    HW2 7398   2.877   3.147   3.055
 1842SOL    HW3 7399   2.950   3.017   3.080
 1842SOL    MW4 7400   2.944   3.104   3.090
 1843SOL     OW 7401   2.732   3.225   2.975
 1843SOL    HW2 7402   2.717   3.314   3.006
 1843SOL    HW3 7403   2.750   3.235   2.882
 1843SOL    MW4 7404   2.733   3.238   2.967
 1844SOL     OW 7405   2.702   3.492   3.060
 1844SOL    HW2 7406   2.688   3.480   3.154
 1844SOL    HW3 7407   2.788   3.535   3.054
 1844SOL    MW4 7408   2.712   3.496   3.071
 1845SOL     OW 7409   2.955   3.616   3.001
 1845SOL    HW2 7410   3.034   3.581   3.042
 1845SOL    HW3 7411   2.941   3.701   3.043
 1845SOL    MW4 7412   2.964   3.622   3.012
 1846SOL     OW 7413   2.909   3.862   3.096
 1846SOL    HW2 7414   2.901   3.854   3.191
 1846SOL    HW3 7415   2.837   3.920   3.071
 1846SOL    MW4 7416   2.898   3.869   3.105
 1847SOL     OW 7417   2.686   3.996   3.003
 1847SOL    HW2 7418   2.691   4.086   3.035
 1847SOL    HW3 7419   2.675   4.006   2.908
 1847SOL    MW4 7420   2.685   4.009   2.995
 1848SOL     OW 7421   2.661   4.254   3.108
 1848SOL    HW2 7422   2.658   4.253   3.204
 1848SOL    HW3 7423   2.585   4.305   3.082
 1848SOL    MW4 7424   2.651   4.261   3.118
 1849SOL     OW 7425   2.875   4.410   3.018
 1849SOL    HW2 7426   2.953   4.361   3.045
 1849SOL    HW3 7427   2.801   4.360   3.053
 1849SOL    MW4 7428   2.876   4.397   3.026
 1850SOL     OW 7429   3.314   4.645   3.146
 1850SOL    HW2 7430   3.377   4.693   3.093
 1850SOL    HW3 7431   3.316   4.556   3.111
 1850SOL    MW4 7432   3.322   4.640   3.134
 1851SOL     OW 7433   3.094   0.098   3.046
 1851SOL    HW2 7434   3.097   0.193   3.061
 1851SOL    HW3 7435   3.166   0.063   3.099
 1851SOL    MW4 7436   3.104   0.106   3.055
 1852SOL     OW 7437   3.157   0.359   3.131
 1852SOL    HW2 7438   3.241   0.403   3.121
 1852SOL    HW3 7439   3.095   0.413   3.082
 1852SOL    MW4 7440   3.160   0.372   3.123
 1853SOL     OW 7441   3.384   0.494   3.053
 1853SOL    HW2 7442   3.463   0.443   3.067
 1853SOL    HW3 7443   3.372   0.493   2.958
 1853SOL    MW4 7444   3.393   0.487   3.042
 1854SOL     OW 7445   3.321   0.755   3.139
 1854SOL    HW2 7446   3.347   0.756   3.232
 1854SOL    HW3 7447   3.355   0.672   3.106
 1854SOL    MW4 7448   3.329   0.744   3.147
 1855SOL     OW 7449   3.098   0.876   3.036
 1855SOL    HW2 7450   3.153   0.804   3.068
 1855SOL    HW3 7451   3.010   0.853   3.065
 1855SOL    MW4 7452   3.094   0.863   3.044
 1856SOL     OW 7453   3.111   1.112   3.179
 1856SOL    HW2 7454   3.181   1.174   3.158
 1856SOL    HW3 7455   3.134   1.033   3.129
 1856SOL    MW4 7456   3.123   1.110   3.169
 1857SOL     OW 7457   3.307   1.266   3.056
 1857SOL    HW2 7458   3.394   1.231   3.076
 1857SOL    HW3 7459   3.314   1.360   3.074
 1857SOL    MW4 7460   3.319   1.274   3.061
 1858SOL     OW 7461   3.317   1.524   3.163
 1858SOL    HW2 7462   3.332   1.509   3.256
 1858SOL    HW3 7463   3.400   1.559   3.131
 1858SOL    MW4 7464   3.330   1.527   3.171
 1859SOL     OW 7465   3.164   1.715   2.993
 1859SOL    HW2 7466   3.211   1.643   3.035
 1859SOL    HW3 7467   3.155   1.688   2.902
 1859SOL    MW4 7468   3.169   1.702   2.987
 1860SOL     OW 7469   3.154   1.955   3.129
 1860SOL    HW2 7470   3.175   1.871   3.088
 1860SOL    HW3 7471   3.070   1.980   3.090
 1860SOL    MW4 7472   3.146   1.947   3.118
 1861SOL     OW 7473   3.345   2.110   3.026
 1861SOL    HW2 7474   3.421   2.052   3.034
 1861SOL    HW3 7475   3.273   2.059   3.064
 1861SOL    MW4 7476   3.345   2.095   3.032
 1862SOL     OW 7477   3.330   2.357   3.145
 1862SOL    HW2 7478   3.332   2.343   3.240
 1862SOL    HW3 7479   3.336   2.270   3.108
 1862SOL    MW4 7480   3.331   2.344   3.153
 1863SOL     OW 7481   3.101   2.432   3.002
 1863SOL    HW2 7482   3.186   2.406   3.038
 1863SOL    HW3 7483   3.112   2.427   2.907
 1863SOL    MW4 7484   3.114   2.428   2.995
 1864SOL     OW 7485   3.133   2.702   3.085
 1864SOL    HW2 7486   3.125   2.710   3.180
 1864SOL    HW3 7487   3.112   2.610   3.067
 1864SOL    MW4 7488   3.129   2.691   3.095
 1865SOL     OW 7489   3.386   2.814   3.008
 1865SOL    HW2 7490   3.373   2.908   3.020
 1865SOL    HW3 7491   3.310   2.774   3.051
 1865SOL    MW4 7492   3.374   2.821   3.015
 1866SOL     OW 7493   3.392   3.098   3.084
 1866SOL    HW2 7494   3.395   3.101   3.179
 1866SOL    HW3 7495   3.316   3.151   3.060
 1866SOL    MW4 7496   3.382   3.105   3.093
 1867SOL     OW 7497   3.165   3.267   3.008
 1867SOL    HW2 7498   3.097   3.209   3.044
 1867SOL    HW3 7499   3.174   3.239   2.917
 1867SOL    MW4 7500   3.157   3.255   3.001
 1868SOL     OW 7501   3.191   3.507   3.121
 1868SOL    HW2 7502   3.259   3.560   3.079
 1868SOL    HW3 7503   3.199   3.421   3.080
 1868SOL    MW4 7504   3.201   3.503   3.110
 1869SOL     OW 7505   3.379   3.646   2.974
 1869SOL    HW2 7506   3.449   3.604   3.023
 1869SOL    HW3 7507   3.371   3.733   3.011
 1869SOL    MW4 7508   3.387   3.652   2.986
 1870SOL     OW 7509   3.347   3.869   3.112
 1870SOL    HW2 7510   3.362   3.866   3.206
 1870SOL    HW3 7511   3.264   3.915   3.102
 1870SOL    MW4 7512   3.338   3.874   3.123
 1871SOL     OW 7513   3.125   4.027   3.037
 1871SOL    HW2 7514   3.054   3.967   3.056
 1871SOL    HW3 7515   3.133   4.026   2.941
 1871SOL    MW4 7516   3.117   4.019   3.027
 1872SOL     OW 7517   3.124   4.295   3.088
 1872SOL    HW2 7518   3.127   4.314   3.182
 1872SOL    HW3 7519   3.112   4.201   3.083
 1872SOL    MW4 7520   3.123   4.285   3.100
 1873SOL     OW 7521   3.355   4.411   3.013
 1873SOL    HW2 7522   3.422   4.368   3.067
 1873SOL    HW3 7523   3.275   4.362   3.030
 1873SOL    MW4 7524   3.353   4.399   3.023
 1874SOL     OW 7525   3.789   0.002   3.140
 1874SOL    HW2 7526   3.795  -0.087   3.106
 1874SOL    HW3 7527   3.702   0.032   3.114
 1874SOL    MW4 7528   3.778  -0.006   3.132
 1875SOL     OW 7529   3.542   0.098   3.030
 1875SOL    HW2 7530   3.564   0.183   3.068
 1875SOL    HW3 7531   3.576   0.102   2.940
 1875SOL    MW4 7532   3.550   0.110   3.023
 1876SOL     OW 7533   3.608   0.347   3.134
 1876SOL    HW2 7534   3.619   0.343   3.229
 1876SOL    HW3 7535   3.686   0.393   3.103
 1876SOL    MW4 7536   3.620   0.353   3.142
 1877SOL     OW 7537   3.811   0.505   3.045
 1877SOL    HW2 7538   3.893   0.474   3.085
 1877SOL    HW3 7539   3.795   0.589   3.088
 1877SOL    MW4 7540   3.820   0.512   3.056
 1878SOL     OW 7541   3.782   0.773   3.147
 1878SOL    HW2 7542   3.805   0.763   3.239
 1878SOL    HW3 7543   3.863   0.803   3.105
 1878SOL    MW4 7544   3.796   0.776   3.154
 1879SOL     OW 7545   3.537   0.909   3.008
 1879SOL    HW2 7546   3.605   0.860   3.054
 1879SOL    HW3 7547   3.455   0.870   3.038
 1879SOL    MW4 7548   3.535   0.897   3.018
 1880SOL     OW 7549   3.571   1.162   3.070
 1880SOL    HW2 7550   3.659   1.191   3.048
 1880SOL    HW3 7551   3.570   1.069   3.046
 1880SOL    MW4 7552   3.582   1.154   3.064
 1881SOL     OW 7553   3.817   1.283   3.034
 1881SOL    HW2 7554   3.806   1.376   3.057
 1881SOL    HW3 7555   3.818   1.282   2.938
 1881SOL    MW4 7556   3.816   1.295   3.024
 1882SOL     OW 7557   3.799   1.555   3.099
 1882SOL    HW2 7558   3.833   1.554   3.188
 1882SOL    HW3 7559   3.709   1.587   3.108
 1882SOL    MW4 7560   3.791   1.559   3.112
 1883SOL     OW 7561   3.537   1.671   3.057
 1883SOL    HW2 7562   3.547   1.763   3.081
 1883SOL    HW3 7563   3.541   1.670   2.961
 1883SOL    MW4 7564   3.539   1.683   3.048
 1884SOL     OW 7565   3.555   1.937   3.108
 1884SOL    HW2 7566   3.562   1.938   3.204
 1884SOL    HW3 7567   3.632   1.985   3.078
 1884SOL    MW4 7568   3.566   1.943   3.117
 1885SOL     OW 7569   3.798   2.067   3.027
 1885SOL    HW2 7570   3.821   2.155   3.058
 1885SOL    HW3 7571   3.808   2.071   2.932
 1885SOL    MW4 7572   3.802   2.079   3.019
 1886SOL     OW 7573   3.832   2.324   3.107
 1886SOL    HW2 7574   3.833   2.331   3.202
 1886SOL    HW3 7575   3.744   2.351   3.081
 1886SOL    MW4 7576   3.821   2.328   3.116
 1887SOL     OW 7577   3.586   2.416   3.032
 1887SOL    HW2 7578   3.585   2.508   3.058
 1887SOL    HW3 7579   3.512   2.378   3.079
 1887SOL    MW4 7580   3.576   2.423   3.042
 1888SOL     OW 7581   3.614   2.683   3.094
 1888SOL    HW2 7582   3.688   2.742   3.083
 1888SOL    HW3 7583   3.538   2.735   3.065
 1888SOL    MW4 7584   3.614   2.697   3.088
 1889SOL     OW 7585   3.806   2.869   3.025
 1889SOL    HW2 7586   3.818   2.956   3.062
 1889SOL    HW3 7587   3.821   2.879   2.931
 1889SOL    MW4 7588   3.809   2.882   3.018
 1890SOL     OW 7589   3.817   3.127   3.108
 1890SOL    HW2 7590   3.897   3.169   3.075
 1890SOL    HW3 7591   3.747   3.188   3.086
 1890SOL    MW4 7592   3.818   3.141   3.100
 1891SOL     OW 7593   3.614   3.257   3.008
 1891SOL    HW2 7594   3.540   3.206   3.042
 1891SOL    HW3 7595   3.600   3.261   2.914
 1891SOL    MW4 7596   3.603   3.251   3.000
 1892SOL     OW 7597   3.593   3.519   3.113
 1892SOL    HW2 7598   3.672   3.563   3.082
 1892SOL    HW3 7599   3.601   3.430   3.079
 1892SOL    MW4 7600   3.604   3.513   3.104
 1893SOL     OW 7601   3.817   3.658   3.005
 1893SOL    HW2 7602   3.815   3.748   3.037
 1893SOL    HW3 7603   3.826   3.666   2.910
 1893SOL    MW4 7604   3.818   3.671   2.997
 1894SOL     OW 7605   3.784   3.936   3.078
 1894SOL    HW2 7606   3.786   3.928   3.173
 1894SOL    HW3 7607   3.697   3.969   3.057
 1894SOL    MW4 7608   3.773   3.939   3.088
 1895SOL     OW 7609   3.540   4.041   3.015
 1895SOL    HW2 7610   3.474   3.979   3.047
 1895SOL    HW3 7611   3.546   4.023   2.922
 1895SOL    MW4 7612   3.532   4.031   3.007
 1896SOL     OW 7613   3.557   4.287   3.130
 1896SOL    HW2 7614   3.638   4.329   3.100
 1896SOL    HW3 7615   3.549   4.208   3.076
 1896SOL    MW4 7616   3.567   4.282   3.119
 1897SOL     OW 7617   3.801   4.376   3.025
 1897SOL    HW2 7618   3.882   4.338   3.059
 1897SOL    HW3 7619   3.807   4.366   2.930
 1897SOL    MW4 7620   3.812   4.370   3.017
 1898SOL     OW 7621   4.248   0.023   3.096
 1898SOL    HW2 7622   4.264   0.015   3.190
 1898SOL    HW3 7623   4.240  -0.067   3.065
 1898SOL    MW4 7624   4.249   0.010   3.104
 1899SOL     OW 7625   4.003   0.169   3.055
 1899SOL    HW2 7626   4.084   0.124   3.080
 1899SOL    HW3 7627   3.933   0.112   3.086
 1899SOL    MW4 7628   4.005   0.156   3.062
 1900SOL     OW 7629   4.045   0.419   3.185
 1900SOL    HW2 7630   4.108   0.453   3.121
 1900SOL    HW3 7631   4.025   0.331   3.154
 1900SOL    MW4 7632   4.051   0.412   3.172
 1901SOL     OW 7633   4.254   0.504   3.014
 1901SOL    HW2 7634   4.263   0.595   3.042
 1901SOL    HW3 7635   4.237   0.509   2.920
 1901SOL    MW4 7636   4.253   0.517   3.006
 1902SOL     OW 7637   4.269   0.754   3.137
 1902SOL    HW2 7638   4.183   0.786   3.110
 1902SOL    HW3 7639   4.331   0.814   3.096
 1902SOL    MW4 7640   4.265   0.766   3.128
 1903SOL     OW 7641   4.021   0.880   3.033
 1903SOL    HW2 7642   4.038   0.969   3.065
 1903SOL    HW3 7643   4.031   0.887   2.938
 1903SOL    MW4 7644   4.025   0.893   3.025
 1904SOL     OW 7645   4.048   1.138   3.128
 1904SOL    HW2 7646   4.044   1.146   3.224
 1904SOL    HW3 7647   3.971   1.186   3.097
 1904SOL    MW4 7648   4.037   1.146   3.137
 1905SOL     OW 7649   4.244   1.317   3.049
 1905SOL    HW2 7650   4.162   1.277   3.077
 1905SOL    HW3 7651   4.244   1.308   2.953
 1905SOL    MW4 7652   4.233   1.311   3.040
 1906SOL     OW 7653   4.242   1.572   3.146
 1906SOL    HW2 7654   4.168   1.616   3.104
 1906SOL    HW3 7655   4.232   1.480   3.124
 1906SOL    MW4 7656   4.231   1.566   3.138
 1907SOL     OW 7657   4.023   1.703   3.027
 1907SOL    HW2 7658   4.004   1.783   3.076
 1907SOL    HW3 7659   3.949   1.645   3.046
 1907SOL    MW4 7660   4.011   1.706   3.036
 1908SOL     OW 7661   4.012   1.943   3.160
 1908SOL    HW2 7662   4.086   1.986   3.118
 1908SOL    HW3 7663   3.935   1.977   3.113
 1908SOL    MW4 7664   4.011   1.953   3.148
 1909SOL     OW 7665   4.213   2.064   3.022
 1909SOL    HW2 7666   4.229   2.157   3.039
 1909SOL    HW3 7667   4.228   2.054   2.928
 1909SOL    MW4 7668   4.217   2.075   3.012
 1910SOL     OW 7669   4.234   2.339   3.056
 1910SOL    HW2 7670   4.159   2.397   3.039
 1910SOL    HW3 7671   4.310   2.392   3.034
 1910SOL    MW4 7672   4.234   2.353   3.051
 1911SOL     OW 7673   3.995   2.509   2.978
 1911SOL    HW2 7674   3.994   2.590   3.029
 1911SOL    HW3 7675   3.933   2.452   3.023
 1911SOL    MW4 7676   3.987   2.512   2.991
 1912SOL     OW 7677   4.036   2.759   3.113
 1912SOL    HW2 7678   4.045   2.745   3.207
 1912SOL    HW3 7679   3.943   2.778   3.100
 1912SOL    MW4 7680   4.025   2.760   3.124
 1913SOL     OW 7681   4.260   2.868   3.008
 1913SOL    HW2 7682   4.180   2.826   3.041
 1913SOL    HW3 7683   4.331   2.811   3.036
 1913SOL    MW4 7684   4.259   2.855   3.016
 1914SOL     OW 7685   4.296   3.126   3.129
 1914SOL    HW2 7686   4.218   3.163   3.086
 1914SOL    HW3 7687   4.305   3.039   3.090
 1914SOL    MW4 7688   4.287   3.119   3.118
 1915SOL     OW 7689   4.062   3.248   3.022
 1915SOL    HW2 7690   4.058   3.342   3.041
 1915SOL    HW3 7691   4.063   3.243   2.926
 1915SOL    MW4 7692   4.062   3.260   3.012
 1916SOL     OW 7693   4.024   3.521   3.109
 1916SOL    HW2 7694   4.033   3.533   3.203
 1916SOL    HW3 7695   3.956   3.583   3.083
 1916SOL    MW4 7696   4.016   3.531   3.118
 1917SOL     OW 7697   4.231   3.634   2.970
 1917SOL    HW2 7698   4.238   3.722   3.006
 1917SOL    HW3 7699   4.166   3.590   3.025
 1917SOL    MW4 7700   4.223   3.640   2.982
 1918SOL     OW 7701   4.251   3.894   3.063
 1918SOL    HW2 7702   4.171   3.927   3.022
 1918SOL    HW3 7703   4.322   3.940   3.017
 1918SOL    MW4 7704   4.250   3.904   3.051
 1919SOL     OW 7705   4.021   4.027   2.964
 1919SOL    HW2 7706   4.044   4.113   3.000
 1919SOL    HW3 7707   3.941   4.002   3.011
 1919SOL    MW4 7708   4.013   4.035   2.975
 1920SOL     OW 7709   4.050   4.270   3.099
 1920SOL    HW2 7710   4.063   4.270   3.193
 1920SOL    HW3 7711   4.115   4.333   3.066
 1920SOL    MW4 7712   4.060   4.279   3.107
 1921SOL     OW 7713   4.241   4.407   2.984
 1921SOL    HW2 7714   4.313   4.354   3.020
 1921SOL    HW3 7715   4.258   4.409   2.890
 1921SOL    MW4 7716   4.253   4.400   2.976
 1922SOL     OW 7717   0.201   4.628   3.415
 1922SOL    HW2 7718   0.288   4.667   3.422
 1922SOL    HW3 7719   0.209   4.543   3.460
 1922SOL    MW4 7720   0.214   4.622   3.422
 1923SOL     OW 7721   4.486   0.138   3.519
 1923SOL    HW2 7722   4.492   0.215   3.462
 1923SOL    HW3 7723   4.567   0.089   3.501
 1923SOL    MW4 7724   4.498   0.141   3.509
 1924SOL     OW 7725   4.476   0.373   3.382
 1924SOL    HW2 7726   4.406   0.419   3.428
 1924SOL    HW3 7727   4.556   0.422   3.404
 1924SOL    MW4 7728   4.477   0.385   3.391
 1925SOL     OW 7729   0.208   0.485   3.480
 1925SOL    HW2 7730   0.286   0.434   3.455
 1925SOL    HW3 7731   0.223   0.572   3.443
 1925SOL    MW4 7732   0.221   0.489   3.472
 1926SOL     OW 7733   0.253   0.756   3.387
 1926SOL    HW2 7734   0.320   0.815   3.420
 1926SOL    HW3 7735   0.170   0.798   3.411
 1926SOL    MW4 7736   0.251   0.769   3.394
 1927SOL     OW 7737   0.042   0.908   3.489
 1927SOL    HW2 7738   0.023   0.925   3.581
 1927SOL    HW3 7739   0.036   0.994   3.447
 1927SOL    MW4 7740   0.039   0.922   3.496
 1928SOL     OW 7741   0.005   1.174   3.426
 1928SOL    HW2 7742   0.076   1.235   3.446
 1928SOL    HW3 7743   0.001   1.173   3.330
 1928SOL    MW4 7744   0.014   1.182   3.416
 1929SOL     OW 7745   0.250   1.303   3.465
 1929SOL    HW2 7746   0.322   1.250   3.431
 1929SOL    HW3 7747   0.255   1.385   3.417
 1929SOL    MW4 7748   0.260   1.306   3.454
 1930SOL     OW 7749   0.236   1.534   3.355
 1930SOL    HW2 7750   0.309   1.586   3.388
 1930SOL    HW3 7751   0.248   1.534   3.260
 1930SOL    MW4 7752   0.247   1.541   3.346
 1931SOL     OW 7753   0.057   1.702   3.492
 1931SOL    HW2 7754  -0.031   1.666   3.474
 1931SOL    HW3 7755   0.117   1.639   3.452
 1931SOL    MW4 7756   0.053   1.689   3.485
 1932SOL     OW 7757   0.021   1.962   3.385
 1932SOL    HW2 7758   0.042   1.880   3.430
 1932SOL    HW3 7759  -0.009   1.935   3.298
 1932SOL    MW4 7760   0.020   1.948   3.379
 1933SOL     OW 7761   0.275   2.057   3.440
 1933SOL    HW2 7762   0.288   2.057   3.535
 1933SOL    HW3 7763   0.185   2.027   3.428
 1933SOL    MW4 7764   0.265   2.053   3.451
 1934SOL     OW 7765   0.238   2.332   3.339
 1934SOL    HW2 7766   0.163   2.365   3.390
 1934SOL    HW3 7767   0.260   2.249   3.380
 1934SOL    MW4 7768   0.231   2.326   3.351
 1935SOL     OW 7769   4.485   2.448   3.443
 1935SOL    HW2 7770   4.477   2.429   3.537
 1935SOL    HW3 7771   4.415   2.397   3.403
 1935SOL    MW4 7772   4.475   2.439   3.450
 1936SOL     OW 7773   4.485   2.721   3.344
 1936SOL    HW2 7774   4.561   2.767   3.381
 1936SOL    HW3 7775   4.488   2.635   3.386
 1936SOL    MW4 7776   4.496   2.716   3.355
 1937SOL     OW 7777   0.210   2.851   3.460
 1937SOL    HW2 7778   0.282   2.819   3.406
 1937SOL    HW3 7779   0.206   2.945   3.443
 1937SOL    MW4 7780   0.219   2.859   3.451
 1938SOL     OW 7781   0.194   3.112   3.378
 1938SOL    HW2 7782   0.118   3.157   3.415
 1938SOL    HW3 7783   0.182   3.120   3.283
 1938SOL    MW4 7784   0.182   3.119   3.370
 1939SOL     OW 7785   4.469   3.249   3.477
 1939SOL    HW2 7786   4.388   3.198   3.465
 1939SOL    HW3 7787   4.454   3.330   3.429
 1939SOL    MW4 7788   4.456   3.253   3.469
 1940SOL     OW 7789   4.483   3.506   3.311
 1940SOL    HW2 7790   4.417   3.559   3.357
 1940SOL    HW3 7791   4.466   3.524   3.218
 1940SOL    MW4 7792   4.472   3.515   3.305
 1941SOL     OW 7793   0.229   3.626   3.430
 1941SOL    HW2 7794   0.227   3.618   3.526
 1941SOL    HW3 7795   0.145   3.588   3.401
 1941SOL    MW4 7796   0.217   3.620   3.439
 1942SOL     OW 7797   0.224   3.907   3.359
 1942SOL    HW2 7798   0.144   3.942   3.399
 1942SOL    HW3 7799   0.233   3.820   3.398
 1942SOL    MW4 7800   0.214   3.900   3.370
 1943SOL     OW 7801   4.461   4.008   3.465
 1943SOL    HW2 7802   4.447   4.000   3.559
 1943SOL    HW3 7803   4.472   4.102   3.450
 1943SOL    MW4 7804   4.461   4.019   3.475
 1944SOL     OW 7805   0.001   4.267   3.388
 1944SOL    HW2 7806  -0.075   4.324   3.398
 1944SOL    HW3 7807   0.068   4.305   3.445
 1944SOL    MW4 7808   0.000   4.280   3.396
 1945SOL     OW 7809   0.206   4.377   3.522
 1945SOL    HW2 7810   0.235   4.373   3.613
 1945SOL    HW3 7811   0.283   4.353   3.471
 1945SOL    MW4 7812   0.220   4.373   3.527
 1946SOL     OW 7813   0.708   4.639   3.350
 1946SOL    HW2 7814   0.782   4.689   3.384
 1946SOL    HW3 7815   0.718   4.643   3.255
 1946SOL    MW4 7816   0.719   4.646   3.342
 1947SOL     OW 7817   0.458   0.076   3.437
 1947SOL    HW2 7818   0.472   0.071   3.532
 1947SOL    HW3 7819   0.537   0.038   3.399
 1947SOL    MW4 7820   0.470   0.071   3.445
 1948SOL     OW 7821   0.441   0.339   3.382
 1948SOL    HW2 7822   0.525   0.374   3.412
 1948SOL    HW3 7823   0.440   0.248   3.410
 1948SOL    MW4 7824   0.452   0.332   3.389
 1949SOL     OW 7825   0.664   0.472   3.455
 1949SOL    HW2 7826   0.685   0.486   3.547
 1949SOL    HW3 7827   0.746   0.443   3.415
 1949SOL    MW4 7828   0.678   0.470   3.462
 1950SOL     OW 7829   0.696   0.733   3.376
 1950SOL    HW2 7830   0.619   0.775   3.413
 1950SOL    HW3 7831   0.692   0.643   3.407
 1950SOL    MW4 7832   0.685   0.727   3.385
 1951SOL     OW 7833   0.472   0.882   3.458
 1951SOL    HW2 7834   0.476   0.885   3.554
 1951SOL    HW3 7835   0.458   0.972   3.431
 1951SOL    MW4 7836   0.470   0.894   3.467
 1952SOL     OW 7837   0.441   1.150   3.353
 1952SOL    HW2 7838   0.517   1.191   3.392
 1952SOL    HW3 7839   0.449   1.168   3.259
 1952SOL    MW4 7840   0.452   1.158   3.346
 1953SOL     OW 7841   0.655   1.256   3.495
 1953SOL    HW2 7842   0.737   1.210   3.480
 1953SOL    HW3 7843   0.668   1.341   3.453
 1953SOL    MW4 7844   0.667   1.261   3.488
 1954SOL     OW 7845   0.686   1.501   3.381
 1954SOL    HW2 7846   0.760   1.560   3.396
 1954SOL    HW3 7847   0.610   1.550   3.414
 1954SOL    MW4 7848   0.686   1.515   3.388
 1955SOL     OW 7849   0.478   1.654   3.464
 1955SOL    HW2 7850   0.472   1.678   3.556
 1955SOL    HW3 7851   0.472   1.737   3.417
 1955SOL    MW4 7852   0.476   1.668   3.470
 1956SOL     OW 7853   0.463   1.888   3.331
 1956SOL    HW2 7854   0.392   1.939   3.371
 1956SOL    HW3 7855   0.461   1.913   3.239
 1956SOL    MW4 7856   0.453   1.898   3.324
 1957SOL     OW 7857   0.689   2.044   3.423
 1957SOL    HW2 7858   0.670   2.063   3.515
 1957SOL    HW3 7859   0.619   1.986   3.395
 1957SOL    MW4 7860   0.678   2.039   3.432
 1958SOL     OW 7861   0.654   2.320   3.321
 1958SOL    HW2 7862   0.731   2.372   3.344
 1958SOL    HW3 7863   0.670   2.234   3.359
 1958SOL    MW4 7864   0.666   2.316   3.329
 1959SOL     OW 7865   0.453   2.493   3.420
 1959SOL    HW2 7866   0.523   2.436   3.388
 1959SOL    HW3 7867   0.372   2.446   3.400
 1959SOL    MW4 7868   0.452   2.479   3.413
 1960SOL     OW 7869   0.435   2.755   3.331
 1960SOL    HW2 7870   0.442   2.669   3.373
 1960SOL    HW3 7871   0.443   2.736   3.237
 1960SOL    MW4 7872   0.437   2.741   3.324
 1961SOL     OW 7873   0.666   2.882   3.431
 1961SOL    HW2 7874   0.734   2.819   3.405
 1961SOL    HW3 7875   0.586   2.851   3.388
 1961SOL    MW4 7876   0.664   2.869   3.422
 1962SOL     OW 7877   0.665   3.138   3.351
 1962SOL    HW2 7878   0.578   3.167   3.378
 1962SOL    HW3 7879   0.671   3.048   3.384
 1962SOL    MW4 7880   0.654   3.130   3.359
 1963SOL     OW 7881   0.429   3.256   3.430
 1963SOL    HW2 7882   0.430   3.264   3.526
 1963SOL    HW3 7883   0.348   3.209   3.411
 1963SOL    MW4 7884   0.419   3.251   3.440
 1964SOL     OW 7885   0.444   3.515   3.325
 1964SOL    HW2 7886   0.448   3.424   3.352
 1964SOL    HW3 7887   0.359   3.546   3.356
 1964SOL    MW4 7888   0.434   3.507   3.333
 1965SOL     OW 7889   0.671   3.655   3.433
 1965SOL    HW2 7890   0.743   3.603   3.398
 1965SOL    HW3 7891   0.592   3.607   3.408
 1965SOL    MW4 7892   0.670   3.642   3.425
 1966SOL     OW 7893   0.651   3.910   3.321
 1966SOL    HW2 7894   0.587   3.955   3.376
 1966SOL    HW3 7895   0.659   3.823   3.360
 1966SOL    MW4 7896   0.644   3.904   3.333
 1967SOL     OW 7897   0.436   4.053   3.452
 1967SOL    HW2 7898   0.444   4.141   3.416
 1967SOL    HW3 7899   0.358   4.017   3.409
 1967SOL    MW4 7900   0.427   4.060   3.442
 1968SOL     OW 7901   0.447   4.314   3.382
 1968SOL    HW2 7902   0.532   4.346   3.414
 1968SOL    HW3 7903   0.452   4.325   3.287
 1968SOL    MW4 7904   0.459   4.320   3.374
 1969SOL     OW 7905   0.682   4.413   3.488
 1969SOL    HW2 7906   0.753   4.352   3.468
 1969SOL    HW3 7907   0.704   4.493   3.441
 1969SOL    MW4 7908   0.694   4.415   3.479
 1970SOL     OW 7909   1.143   4.628   3.377
 1970SOL    HW2 7910   1.219   4.679   3.405
 1970SOL    HW3 7911   1.144   4.636   3.281
 1970SOL    MW4 7912   1.153   4.636   3.368
 1971SOL     OW 7913   0.930   0.106   3.432
 1971SOL    HW2 7914   0.934   0.122   3.526
 1971SOL    HW3 7915   1.009   0.056   3.412
 1971SOL    MW4 7916   0.941   0.102   3.441
 1972SOL     OW 7917   0.886   0.370   3.348
 1972SOL    HW2 7918   0.958   0.419   3.387
 1972SOL    HW3 7919   0.894   0.282   3.385
 1972SOL    MW4 7920   0.897   0.365   3.358
 1973SOL     OW 7921   1.123   0.525   3.409
 1973SOL    HW2 7922   1.136   0.529   3.504
 1973SOL    HW3 7923   1.119   0.617   3.381
 1973SOL    MW4 7924   1.124   0.538   3.418
 1974SOL     OW 7925   1.131   0.778   3.320
 1974SOL    HW2 7926   1.202   0.804   3.379
 1974SOL    HW3 7927   1.051   0.788   3.373
 1974SOL    MW4 7928   1.130   0.783   3.335
 1975SOL     OW 7929   0.918   0.872   3.476
 1975SOL    HW2 7930   0.904   0.957   3.434
 1975SOL    HW3 7931   0.840   0.821   3.455
 1975SOL    MW4 7932   0.906   0.876   3.468
 1976SOL     OW 7933   0.894   1.127   3.387
 1976SOL    HW2 7934   0.970   1.179   3.413
 1976SOL    HW3 7935   0.901   1.120   3.292
 1976SOL    MW4 7936   0.905   1.133   3.378
 1977SOL     OW 7937   1.103   1.255   3.469
 1977SOL    HW2 7938   1.091   1.273   3.562
 1977SOL    HW3 7939   1.099   1.341   3.427
 1977SOL    MW4 7940   1.101   1.269   3.476
 1978SOL     OW 7941   1.128   1.516   3.366
 1978SOL    HW2 7942   1.211   1.561   3.385
 1978SOL    HW3 7943   1.124   1.513   3.270
 1978SOL    MW4 7944   1.139   1.522   3.356
 1979SOL     OW 7945   0.901   1.670   3.436
 1979SOL    HW2 7946   0.916   1.758   3.401
 1979SOL    HW3 7947   0.979   1.620   3.410
 1979SOL    MW4 7948   0.913   1.675   3.428
 1980SOL     OW 7949   0.931   1.942   3.362
 1980SOL    HW2 7950   0.999   1.994   3.405
 1980SOL    HW3 7951   0.849   1.988   3.382
 1980SOL    MW4 7952   0.929   1.955   3.370
 1981SOL     OW 7953   1.146   2.054   3.497
 1981SOL    HW2 7954   1.220   2.015   3.450
 1981SOL    HW3 7955   1.151   2.148   3.476
 1981SOL    MW4 7956   1.157   2.061   3.488
 1982SOL     OW 7957   1.139   2.308   3.377
 1982SOL    HW2 7958   1.192   2.384   3.400
 1982SOL    HW3 7959   1.135   2.309   3.281
 1982SOL    MW4 7960   1.145   2.318   3.367
 1983SOL     OW 7961   0.904   2.451   3.422
 1983SOL    HW2 7962   0.903   2.466   3.517
 1983SOL    HW3 7963   0.968   2.382   3.409
 1983SOL    MW4 7964   0.912   2.444   3.433
 1984SOL     OW 7965   0.870   2.707   3.324
 1984SOL    HW2 7966   0.938   2.750   3.377
 1984SOL    HW3 7967   0.883   2.614   3.340
 1984SOL    MW4 7968   0.881   2.701   3.333
 1985SOL     OW 7969   1.096   2.821   3.433
 1985SOL    HW2 7970   1.114   2.834   3.526
 1985SOL    HW3 7971   1.180   2.794   3.396
 1985SOL    MW4 7972   1.110   2.819   3.441
 1986SOL     OW 7973   1.089   3.103   3.365
 1986SOL    HW2 7974   1.088   3.012   3.395
 1986SOL    HW3 7975   1.110   3.097   3.272
 1986SOL    MW4 7976   1.091   3.090   3.357
 1987SOL     OW 7977   0.896   3.269   3.459
 1987SOL    HW2 7978   0.972   3.214   3.438
 1987SOL    HW3 7979   0.820   3.214   3.439
 1987SOL    MW4 7980   0.896   3.254   3.454
 1988SOL     OW 7981   0.899   3.530   3.346
 1988SOL    HW2 7982   0.893   3.443   3.385
 1988SOL    HW3 7983   0.901   3.515   3.252
 1988SOL    MW4 7984   0.898   3.517   3.339
 1989SOL     OW 7985   1.126   3.652   3.473
 1989SOL    HW2 7986   1.109   3.642   3.567
 1989SOL    HW3 7987   1.046   3.622   3.430
 1989SOL    MW4 7988   1.113   3.646   3.480
 1990SOL     OW 7989   1.134   3.922   3.421
 1990SOL    HW2 7990   1.208   3.974   3.453
 1990SOL    HW3 7991   1.157   3.832   3.442
 1990SOL    MW4 7992   1.147   3.917   3.428
 1991SOL     OW 7993   0.857   4.006   3.487
 1991SOL    HW2 7994   0.935   3.951   3.483
 1991SOL    HW3 7995   0.803   3.977   3.414
 1991SOL    MW4 7996   0.860   3.995   3.477
 1992SOL     OW 7997   0.906   4.257   3.397
 1992SOL    HW2 7998   0.893   4.167   3.426
 1992SOL    HW3 7999   0.907   4.251   3.301
 1992SOL    MW4 8000   0.905   4.244   3.388
 1993SOL     OW 8001   1.153   4.360   3.450
 1993SOL    HW2 8002   1.067   4.321   3.435
 1993SOL    HW3 8003   1.142   4.451   3.424
 1993SOL    MW4 8004   1.140   4.367   3.444
 1994SOL     OW 8005   1.581   4.666   3.352
 1994SOL    HW2 8006   1.566   4.578   3.386
 1994SOL    HW3 8007   1.518   4.721   3.399
 1994SOL    MW4 8008   1.571   4.662   3.363
 1995SOL     OW 8009   1.357   0.112   3.448
 1995SOL    HW2 8010   1.345   0.121   3.543
 1995SOL    HW3 8011   1.342   0.200   3.413
 1995SOL    MW4 8012   1.353   0.124   3.456
 1996SOL     OW 8013   1.331   0.358   3.340
 1996SOL    HW2 8014   1.407   0.398   3.382
 1996SOL    HW3 8015   1.259   0.417   3.362
 1996SOL    MW4 8016   1.331   0.371   3.349
 1997SOL     OW 8017   1.534   0.517   3.463
 1997SOL    HW2 8018   1.525   0.537   3.556
 1997SOL    HW3 8019   1.616   0.468   3.457
 1997SOL    MW4 8020   1.544   0.513   3.474
 1998SOL     OW 8021   1.551   0.764   3.356
 1998SOL    HW2 8022   1.494   0.820   3.409
 1998SOL    HW3 8023   1.531   0.675   3.386
 1998SOL    MW4 8024   1.541   0.759   3.367
 1999SOL     OW 8025   1.338   0.891   3.497
 1999SOL    HW2 8026   1.348   0.900   3.592
 1999SOL    HW3 8027   1.334   0.981   3.464
 1999SOL    MW4 8028   1.339   0.904   3.505
 2000SOL     OW 8029   1.341   1.150   3.384
 2000SOL    HW2 8030   1.402   1.206   3.433
 2000SOL    HW3 8031   1.255   1.175   3.416
 2000SOL    MW4 8032   1.338   1.161   3.395
 2001SOL     OW 8033   1.558   1.284   3.469
 2001SOL    HW2 8034   1.550   1.271   3.563
 2001SOL    HW3 8035   1.640   1.239   3.445
 2001SOL    MW4 8036   1.568   1.276   3.478
 2002SOL     OW 8037   1.621   1.538   3.385
 2002SOL    HW2 8038   1.608   1.448   3.415
 2002SOL    HW3 8039   1.625   1.532   3.290
 2002SOL    MW4 8040   1.620   1.525   3.377
 2003SOL     OW 8041   1.360   1.639   3.443
 2003SOL    HW2 8042   1.341   1.652   3.536
 2003SOL    HW3 8043   1.448   1.601   3.442
 2003SOL    MW4 8044   1.369   1.635   3.455
 2004SOL     OW 8045   1.368   1.914   3.344
 2004SOL    HW2 8046   1.429   1.964   3.399
 2004SOL    HW3 8047   1.376   1.824   3.375
 2004SOL    MW4 8048   1.377   1.909   3.356
 2005SOL     OW 8049   1.566   2.045   3.504
 2005SOL    HW2 8050   1.642   1.990   3.487
 2005SOL    HW3 8051   1.587   2.129   3.463
 2005SOL    MW4 8052   1.578   2.049   3.497
 2006SOL     OW 8053   1.568   2.308   3.375
 2006SOL    HW2 8054   1.506   2.379   3.395
 2006SOL    HW3 8055   1.574   2.307   3.280
 2006SOL    MW4 8056   1.560   2.317   3.365
 2007SOL     OW 8057   1.366   2.498   3.426
 2007SOL    HW2 8058   1.368   2.503   3.521
 2007SOL    HW3 8059   1.366   2.590   3.397
 2007SOL    MW4 8060   1.366   2.511   3.434
 2008SOL     OW 8061   1.364   2.778   3.365
 2008SOL    HW2 8062   1.439   2.818   3.409
 2008SOL    HW3 8063   1.386   2.781   3.272
 2008SOL    MW4 8064   1.377   2.783   3.359
 2009SOL     OW 8065   1.601   2.869   3.472
 2009SOL    HW2 8066   1.658   2.818   3.414
 2009SOL    HW3 8067   1.585   2.950   3.424
 2009SOL    MW4 8068   1.607   2.873   3.458
 2010SOL     OW 8069   1.552   3.109   3.349
 2010SOL    HW2 8070   1.627   3.160   3.379
 2010SOL    HW3 8071   1.476   3.162   3.373
 2010SOL    MW4 8072   1.552   3.123   3.356
 2011SOL     OW 8073   1.331   3.238   3.421
 2011SOL    HW2 8074   1.336   3.248   3.516
 2011SOL    HW3 8075   1.258   3.179   3.406
 2011SOL    MW4 8076   1.322   3.231   3.431
 2012SOL     OW 8077   1.317   3.508   3.342
 2012SOL    HW2 8078   1.327   3.416   3.367
 2012SOL    HW3 8079   1.245   3.541   3.396
 2012SOL    MW4 8080   1.309   3.500   3.353
 2013SOL     OW 8081   1.571   3.604   3.415
 2013SOL    HW2 8082   1.577   3.616   3.510
 2013SOL    HW3 8083   1.484   3.566   3.401
 2013SOL    MW4 8084   1.560   3.600   3.426
 2014SOL     OW 8085   1.546   3.866   3.363
 2014SOL    HW2 8086   1.557   3.772   3.374
 2014SOL    HW3 8087   1.546   3.879   3.268
 2014SOL    MW4 8088   1.547   3.856   3.352
 2015SOL     OW 8089   1.375   4.031   3.510
 2015SOL    HW2 8090   1.377   4.107   3.451
 2015SOL    HW3 8091   1.431   3.966   3.467
 2015SOL    MW4 8092   1.383   4.033   3.496
 2016SOL     OW 8093   1.373   4.256   3.332
 2016SOL    HW2 8094   1.296   4.300   3.370
 2016SOL    HW3 8095   1.347   4.237   3.242
 2016SOL    MW4 8096   1.359   4.259   3.325
 2017SOL     OW 8097   1.580   4.390   3.435
 2017SOL    HW2 8098   1.657   4.340   3.410
 2017SOL    HW3 8099   1.507   4.346   3.392
 2017SOL    MW4 8100   1.580   4.378   3.426
 2018SOL     OW 8101   2.027   0.004   3.368
 2018SOL    HW2 8102   2.091   0.040   3.429
 2018SOL    HW3 8103   1.944   0.044   3.395
 2018SOL    MW4 8104   2.024   0.014   3.380
 2019SOL     OW 8105   1.803   0.111   3.471
 2019SOL    HW2 8106   1.794   0.110   3.567
 2019SOL    HW3 8107   1.725   0.066   3.439
 2019SOL    MW4 8108   1.791   0.105   3.480
 2020SOL     OW 8109   1.767   0.379   3.400
 2020SOL    HW2 8110   1.781   0.289   3.429
 2020SOL    HW3 8111   1.755   0.373   3.306
 2020SOL    MW4 8112   1.768   0.366   3.392
 2021SOL     OW 8113   2.004   0.504   3.490
 2021SOL    HW2 8114   1.991   0.591   3.451
 2021SOL    HW3 8115   1.930   0.452   3.460
 2021SOL    MW4 8116   1.993   0.509   3.481
 2022SOL     OW 8117   2.004   0.770   3.391
 2022SOL    HW2 8118   2.086   0.794   3.434
 2022SOL    HW3 8119   2.027   0.756   3.300
 2022SOL    MW4 8120   2.018   0.771   3.385
 2023SOL     OW 8121   1.774   0.880   3.480
 2023SOL    HW2 8122   1.841   0.823   3.442
 2023SOL    HW3 8123   1.693   0.853   3.438
 2023SOL    MW4 8124   1.772   0.869   3.469
 2024SOL     OW 8125   1.798   1.151   3.381
 2024SOL    HW2 8126   1.877   1.190   3.420
 2024SOL    HW3 8127   1.810   1.057   3.392
 2024SOL    MW4 8128   1.810   1.144   3.388
 2025SOL     OW 8129   2.019   1.260   3.507
 2025SOL    HW2 8130   2.023   1.276   3.602
 2025SOL    HW3 8131   2.037   1.346   3.468
 2025SOL    MW4 8132   2.022   1.274   3.515
 2026SOL     OW 8133   2.051   1.518   3.402
 2026SOL    HW2 8134   2.124   1.562   3.445
 2026SOL    HW3 8135   1.975   1.573   3.421
 2026SOL    MW4 8136   2.051   1.531   3.410
 2027SOL     OW 8137   1.839   1.679   3.492
 2027SOL    HW2 8138   1.837   1.768   3.458
 2027SOL    HW3 8139   1.763   1.636   3.452
 2027SOL    MW4 8140   1.829   1.685   3.482
 2028SOL     OW 8141   1.812   1.938   3.423
 2028SOL    HW2 8142   1.880   1.999   3.451
 2028SOL    HW3 8143   1.805   1.951   3.329
 2028SOL    MW4 8144   1.820   1.948   3.414
 2029SOL     OW 8145   2.008   2.085   3.523
 2029SOL    HW2 8146   2.084   2.042   3.484
 2029SOL    HW3 8147   2.003   2.170   3.479
 2029SOL    MW4 8148   2.017   2.090   3.512
 2030SOL     OW 8149   2.024   2.326   3.385
 2030SOL    HW2 8150   2.116   2.345   3.401
 2030SOL    HW3 8151   2.015   2.328   3.290
 2030SOL    MW4 8152   2.035   2.329   3.375
 2031SOL     OW 8153   1.788   2.479   3.458
 2031SOL    HW2 8154   1.865   2.426   3.439
 2031SOL    HW3 8155   1.714   2.426   3.426
 2031SOL    MW4 8156   1.788   2.465   3.451
 2032SOL     OW 8157   1.784   2.725   3.319
 2032SOL    HW2 8158   1.864   2.770   3.348
 2032SOL    HW3 8159   1.779   2.648   3.375
 2032SOL    MW4 8160   1.794   2.721   3.330
 2033SOL     OW 8161   1.992   2.857   3.441
 2033SOL    HW2 8162   2.013   2.852   3.534
 2033SOL    HW3 8163   2.011   2.948   3.417
 2033SOL    MW4 8164   1.997   2.868   3.450
 2034SOL     OW 8165   2.058   3.103   3.307
 2034SOL    HW2 8166   2.134   3.125   3.360
 2034SOL    HW3 8167   1.985   3.150   3.348
 2034SOL    MW4 8168   2.058   3.112   3.319
 2035SOL     OW 8169   1.796   3.217   3.446
 2035SOL    HW2 8170   1.770   3.230   3.538
 2035SOL    HW3 8171   1.807   3.306   3.412
 2035SOL    MW4 8172   1.794   3.231   3.454
 2036SOL     OW 8173   1.824   3.491   3.363
 2036SOL    HW2 8174   1.736   3.524   3.380
 2036SOL    HW3 8175   1.839   3.508   3.270
 2036SOL    MW4 8176   1.815   3.497   3.353
 2037SOL     OW 8177   2.061   3.591   3.465
 2037SOL    HW2 8178   2.141   3.553   3.428
 2037SOL    HW3 8179   1.990   3.548   3.418
 2037SOL    MW4 8180   2.062   3.580   3.454
 2038SOL     OW 8181   2.041   3.870   3.375
 2038SOL    HW2 8182   1.954   3.899   3.403
 2038SOL    HW3 8183   2.046   3.779   3.403
 2038SOL    MW4 8184   2.030   3.862   3.382
 2039SOL     OW 8185   1.790   3.979   3.448
 2039SOL    HW2 8186   1.782   3.993   3.542
 2039SOL    HW3 8187   1.705   3.943   3.422
 2039SOL    MW4 8188   1.777   3.976   3.457
 2040SOL     OW 8189   1.820   4.246   3.382
 2040SOL    HW2 8190   1.825   4.152   3.396
 2040SOL    HW3 8191   1.820   4.256   3.286
 2040SOL    MW4 8192   1.820   4.235   3.371
 2041SOL     OW 8193   2.007   4.425   3.507
 2041SOL    HW2 8194   1.939   4.360   3.488
 2041SOL    HW3 8195   1.991   4.495   3.444
 2041SOL    MW4 8196   1.996   4.425   3.496
 2042SOL     OW 8197   2.440   0.003   3.352
 2042SOL    HW2 8198   2.443  -0.089   3.377
 2042SOL    HW3 8199   2.436   0.002   3.256
 2042SOL    MW4 8200   2.439  -0.009   3.343
 2043SOL     OW 8201   2.230   0.093   3.527
 2043SOL    HW2 8202   2.238   0.178   3.482
 2043SOL    HW3 8203   2.297   0.038   3.485
 2043SOL    MW4 8204   2.240   0.097   3.515
 2044SOL     OW 8205   2.219   0.354   3.423
 2044SOL    HW2 8206   2.292   0.405   3.460
 2044SOL    HW3 8207   2.140   0.401   3.450
 2044SOL    MW4 8208   2.218   0.367   3.431
 2045SOL     OW 8209   2.446   0.470   3.529
 2045SOL    HW2 8210   2.527   0.429   3.497
 2045SOL    HW3 8211   2.445   0.556   3.487
 2045SOL    MW4 8212   2.457   0.476   3.519
 2046SOL     OW 8213   2.447   0.717   3.403
 2046SOL    HW2 8214   2.516   0.777   3.433
 2046SOL    HW3 8215   2.436   0.737   3.310
 2046SOL    MW4 8216   2.454   0.728   3.395
 2047SOL     OW 8217   2.244   0.849   3.529
 2047SOL    HW2 8218   2.248   0.941   3.503
 2047SOL    HW3 8219   2.320   0.809   3.486
 2047SOL    MW4 8220   2.255   0.856   3.520
 2048SOL     OW 8221   2.237   1.121   3.410
 2048SOL    HW2 8222   2.310   1.178   3.435
 2048SOL    HW3 8223   2.159   1.170   3.434
 2048SOL    MW4 8224   2.237   1.135   3.416
 2049SOL     OW 8225   2.455   1.299   3.475
 2049SOL    HW2 8226   2.453   1.304   3.570
 2049SOL    HW3 8227   2.526   1.239   3.455
 2049SOL    MW4 8228   2.464   1.292   3.485
 2050SOL     OW 8229   2.477   1.550   3.379
 2050SOL    HW2 8230   2.472   1.460   3.411
 2050SOL    HW3 8231   2.467   1.542   3.285
 2050SOL    MW4 8232   2.475   1.537   3.371
 2051SOL     OW 8233   2.255   1.684   3.500
 2051SOL    HW2 8234   2.263   1.676   3.595
 2051SOL    HW3 8235   2.333   1.641   3.466
 2051SOL    MW4 8236   2.267   1.678   3.508
 2052SOL     OW 8237   2.245   1.962   3.416
 2052SOL    HW2 8238   2.259   1.876   3.455
 2052SOL    HW3 8239   2.250   1.947   3.322
 2052SOL    MW4 8240   2.247   1.949   3.409
 2053SOL     OW 8241   2.485   2.070   3.489
 2053SOL    HW2 8242   2.477   2.090   3.582
 2053SOL    HW3 8243   2.399   2.036   3.464
 2053SOL    MW4 8244   2.473   2.069   3.498
 2054SOL     OW 8245   2.503   2.334   3.357
 2054SOL    HW2 8246   2.588   2.371   3.382
 2054SOL    HW3 8247   2.502   2.248   3.399
 2054SOL    MW4 8248   2.514   2.328   3.366
 2055SOL     OW 8249   2.263   2.458   3.492
 2055SOL    HW2 8250   2.252   2.549   3.462
 2055SOL    HW3 8251   2.342   2.427   3.447
 2055SOL    MW4 8252   2.272   2.466   3.482
 2056SOL     OW 8253   2.220   2.709   3.377
 2056SOL    HW2 8254   2.139   2.751   3.405
 2056SOL    HW3 8255   2.221   2.719   3.282
 2056SOL    MW4 8256   2.210   2.715   3.369
 2057SOL     OW 8257   2.477   2.806   3.481
 2057SOL    HW2 8258   2.496   2.871   3.413
 2057SOL    HW3 8259   2.391   2.771   3.457
 2057SOL    MW4 8260   2.468   2.810   3.469
 2058SOL     OW 8261   2.490   3.068   3.310
 2058SOL    HW2 8262   2.557   3.122   3.352
 2058SOL    HW3 8263   2.501   3.084   3.216
 2058SOL    MW4 8264   2.500   3.077   3.303
 2059SOL     OW 8265   2.277   3.189   3.450
 2059SOL    HW2 8266   2.281   3.171   3.544
 2059SOL    HW3 8267   2.354   3.145   3.414
 2059SOL    MW4 8268   2.288   3.181   3.458
 2060SOL     OW 8269   2.286   3.471   3.367
 2060SOL    HW2 8270   2.279   3.377   3.385
 2060SOL    HW3 8271   2.290   3.477   3.272
 2060SOL    MW4 8272   2.286   3.459   3.357
 2061SOL     OW 8273   2.493   3.621   3.463
 2061SOL    HW2 8274   2.488   3.712   3.434
 2061SOL    HW3 8275   2.415   3.580   3.424
 2061SOL    MW4 8276   2.482   3.628   3.454
 2062SOL     OW 8277   2.451   3.873   3.377
 2062SOL    HW2 8278   2.524   3.930   3.403
 2062SOL    HW3 8279   2.374   3.912   3.417
 2062SOL    MW4 8280   2.451   3.885   3.385
 2063SOL     OW 8281   2.241   4.034   3.475
 2063SOL    HW2 8282   2.221   4.127   3.469
 2063SOL    HW3 8283   2.162   3.990   3.442
 2063SOL    MW4 8284   2.227   4.041   3.470
 2064SOL     OW 8285   2.230   4.298   3.412
 2064SOL    HW2 8286   2.156   4.350   3.443
 2064SOL    HW3 8287   2.203   4.268   3.325
 2064SOL    MW4 8288   2.216   4.301   3.405
 2065SOL     OW 8289   2.464   4.413   3.460
 2065SOL    HW2 8290   2.469   4.416   3.555
 2065SOL    HW3 8291   2.379   4.374   3.441
 2065SOL    MW4 8292   2.454   4.408   3.470
 2066SOL     OW 8293   2.884   4.658   3.431
 2066SOL    HW2 8294   2.812   4.700   3.478
 2066SOL    HW3 8295   2.861   4.667   3.339
 2066SOL    MW4 8296   2.872   4.665   3.425
 2067SOL     OW 8297   2.644   0.098   3.536
 2067SOL    HW2 8298   2.631   0.183   3.496
 2067SOL    HW3 8299   2.593   0.037   3.482
 2067SOL    MW4 8300   2.636   0.101   3.524
 2068SOL     OW 8301   2.667   0.343   3.414
 2068SOL    HW2 8302   2.747   0.367   3.460
 2068SOL    HW3 8303   2.682   0.371   3.323
 2068SOL    MW4 8304   2.680   0.350   3.408
 2069SOL     OW 8305   2.912   0.461   3.493
 2069SOL    HW2 8306   2.926   0.452   3.588
 2069SOL    HW3 8307   2.881   0.551   3.482
 2069SOL    MW4 8308   2.910   0.472   3.504
 2070SOL     OW 8309   2.885   0.748   3.397
 2070SOL    HW2 8310   2.971   0.764   3.436
 2070SOL    HW3 8311   2.825   0.801   3.449
 2070SOL    MW4 8312   2.889   0.757   3.409
 2071SOL     OW 8313   2.657   0.873   3.506
 2071SOL    HW2 8314   2.653   0.885   3.601
 2071SOL    HW3 8315   2.643   0.960   3.471
 2071SOL    MW4 8316   2.654   0.886   3.514
 2072SOL     OW 8317   2.657   1.134   3.422
 2072SOL    HW2 8318   2.733   1.170   3.468
 2072SOL    HW3 8319   2.667   1.165   3.332
 2072SOL    MW4 8320   2.668   1.143   3.416
 2073SOL     OW 8321   2.906   1.253   3.518
 2073SOL    HW2 8322   2.909   1.284   3.609
 2073SOL    HW3 8323   2.982   1.195   3.511
 2073SOL    MW4 8324   2.917   1.249   3.529
 2074SOL     OW 8325   2.900   1.512   3.368
 2074SOL    HW2 8326   2.840   1.575   3.409
 2074SOL    HW3 8327   2.901   1.438   3.428
 2074SOL    MW4 8328   2.892   1.511   3.381
 2075SOL     OW 8329   2.711   1.677   3.471
 2075SOL    HW2 8330   2.715   1.769   3.444
 2075SOL    HW3 8331   2.627   1.645   3.437
 2075SOL    MW4 8332   2.701   1.685   3.463
 2076SOL     OW 8333   2.707   1.938   3.364
 2076SOL    HW2 8334   2.642   1.991   3.411
 2076SOL    HW3 8335   2.670   1.925   3.277
 2076SOL    MW4 8336   2.693   1.943   3.359
 2077SOL     OW 8337   2.945   2.051   3.481
 2077SOL    HW2 8338   2.934   2.050   3.576
 2077SOL    HW3 8339   2.863   2.016   3.446
 2077SOL    MW4 8340   2.933   2.046   3.489
 2078SOL     OW 8341   2.968   2.310   3.353
 2078SOL    HW2 8342   2.965   2.224   3.396
 2078SOL    HW3 8343   2.938   2.293   3.264
 2078SOL    MW4 8344   2.964   2.296   3.347
 2079SOL     OW 8345   2.756   2.432   3.464
 2079SOL    HW2 8346   2.731   2.401   3.550
 2079SOL    HW3 8347   2.839   2.388   3.445
 2079SOL    MW4 8348   2.763   2.422   3.473
 2080SOL     OW 8349   2.700   2.688   3.344
 2080SOL    HW2 8350   2.731   2.603   3.374
 2080SOL    HW3 8351   2.627   2.709   3.403
 2080SOL    MW4 8352   2.695   2.680   3.356
 2081SOL     OW 8353   2.914   2.835   3.463
 2081SOL    HW2 8354   2.906   2.806   3.554
 2081SOL    HW3 8355   2.854   2.778   3.415
 2081SOL    MW4 8356   2.905   2.823   3.469
 2082SOL     OW 8357   2.913   3.121   3.400
 2082SOL    HW2 8358   2.897   3.031   3.429
 2082SOL    HW3 8359   2.929   3.114   3.306
 2082SOL    MW4 8360   2.913   3.108   3.391
 2083SOL     OW 8361   2.655   3.239   3.440
 2083SOL    HW2 8362   2.651   3.270   3.531
 2083SOL    HW3 8363   2.740   3.196   3.433
 2083SOL    MW4 8364   2.665   3.238   3.451
 2084SOL     OW 8365   2.704   3.488   3.334
 2084SOL    HW2 8366   2.695   3.401   3.373
 2084SOL    HW3 8367   2.637   3.540   3.377
 2084SOL    MW4 8368   2.694   3.483   3.345
 2085SOL     OW 8369   2.933   3.614   3.437
 2085SOL    HW2 8370   2.918   3.706   3.415
 2085SOL    HW3 8371   2.856   3.568   3.403
 2085SOL    MW4 8372   2.921   3.620   3.430
 2086SOL     OW 8373   2.888   3.881   3.386
 2086SOL    HW2 8374   2.955   3.949   3.400
 2086SOL    HW3 8375   2.806   3.922   3.413
 2086SOL    MW4 8376   2.886   3.895   3.391
 2087SOL     OW 8377   2.677   4.027   3.444
 2087SOL    HW2 8378   2.670   4.027   3.540
 2087SOL    HW3 8379   2.699   4.117   3.422
 2087SOL    MW4 8380   2.679   4.039   3.454
 2088SOL     OW 8381   2.703   4.293   3.396
 2088SOL    HW2 8382   2.772   4.333   3.448
 2088SOL    HW3 8383   2.623   4.336   3.425
 2088SOL    MW4 8384   2.702   4.304   3.406
 2089SOL     OW 8385   2.901   4.400   3.537
 2089SOL    HW2 8386   2.884   4.410   3.631
 2089SOL    HW3 8387   2.892   4.488   3.501
 2089SOL    MW4 8388   2.898   4.413   3.545
 2090SOL     OW 8389   3.371   0.019   3.424
 2090SOL    HW2 8390   3.286   0.056   3.448
 2090SOL    HW3 8391   3.362  -0.003   3.331
 2090SOL    MW4 8392   3.358   0.021   3.414
 2091SOL     OW 8393   3.114   0.118   3.522
 2091SOL    HW2 8394   3.117   0.206   3.485
 2091SOL    HW3 8395   3.036   0.078   3.485
 2091SOL    MW4 8396   3.104   0.124   3.512
 2092SOL     OW 8397   3.150   0.364   3.403
 2092SOL    HW2 8398   3.070   0.410   3.430
 2092SOL    HW3 8399   3.145   0.365   3.307
 2092SOL    MW4 8400   3.139   0.370   3.394
 2093SOL     OW 8401   3.378   0.459   3.537
 2093SOL    HW2 8402   3.353   0.466   3.629
 2093SOL    HW3 8403   3.305   0.412   3.496
 2093SOL    MW4 8404   3.365   0.453   3.544
 2094SOL     OW 8405   3.387   0.719   3.419
 2094SOL    HW2 8406   3.477   0.747   3.436
 2094SOL    HW3 8407   3.379   0.637   3.467
 2094SOL    MW4 8408   3.398   0.712   3.427
 2095SOL     OW 8409   3.141   0.844   3.488
 2095SOL    HW2 8410   3.146   0.934   3.455
 2095SOL    HW3 8411   3.216   0.800   3.448
 2095SOL    MW4 8412   3.152   0.850   3.479
 2096SOL     OW 8413   3.129   1.114   3.460
 2096SOL    HW2 8414   3.214   1.157   3.467
 2096SOL    HW3 8415   3.115   1.104   3.366
 2096SOL    MW4 8416   3.139   1.118   3.449
 2097SOL     OW 8417   3.367   1.225   3.505
 2097SOL    HW2 8418   3.455   1.211   3.470
 2097SOL    HW3 8419   3.354   1.320   3.501
 2097SOL    MW4 8420   3.377   1.236   3.500
 2098SOL     OW 8421   3.368   1.490   3.445
 2098SOL    HW2 8422   3.451   1.534   3.464
 2098SOL    HW3 8423   3.301   1.557   3.461
 2098SOL    MW4 8424   3.370   1.505   3.449
 2099SOL     OW 8425   3.123   1.629   3.500
 2099SOL    HW2 8426   3.133   1.719   3.469
 2099SOL    HW3 8427   3.048   1.595   3.451
 2099SOL    MW4 8428   3.114   1.636   3.490
 2100SOL     OW 8429   3.157   1.881   3.415
 2100SOL    HW2 8430   3.079   1.937   3.425
 2100SOL    HW3 8431   3.178   1.886   3.322
 2100SOL    MW4 8432   3.149   1.889   3.404
 2101SOL     OW 8433   3.369   2.029   3.518
 2101SOL    HW2 8434   3.358   2.117   3.481
 2101SOL    HW3 8435   3.292   1.980   3.489
 2101SOL    MW4 8436   3.358   2.034   3.509
 2102SOL     OW 8437   3.348   2.279   3.420
 2102SOL    HW2 8438   3.426   2.326   3.448
 2102SOL    HW3 8439   3.275   2.338   3.442
 2102SOL    MW4 8440   3.349   2.293   3.427
 2103SOL     OW 8441   3.140   2.474   3.498
 2103SOL    HW2 8442   3.149   2.557   3.451
 2103SOL    HW3 8443   3.082   2.421   3.443
 2103SOL    MW4 8444   3.134   2.478   3.484
 2104SOL     OW 8445   3.143   2.702   3.370
 2104SOL    HW2 8446   3.214   2.761   3.395
 2104SOL    HW3 8447   3.064   2.742   3.408
 2104SOL    MW4 8448   3.142   2.715   3.378
 2105SOL     OW 8449   3.362   2.848   3.478
 2105SOL    HW2 8450   3.440   2.811   3.438
 2105SOL    HW3 8451   3.359   2.939   3.447
 2105SOL    MW4 8452   3.372   2.855   3.469
 2106SOL     OW 8453   3.367   3.092   3.362
 2106SOL    HW2 8454   3.449   3.113   3.408
 2106SOL    HW3 8455   3.301   3.148   3.404
 2106SOL    MW4 8456   3.369   3.103   3.374
 2107SOL     OW 8457   3.157   3.230   3.483
 2107SOL    HW2 8458   3.153   3.320   3.451
 2107SOL    HW3 8459   3.073   3.192   3.458
 2107SOL    MW4 8460   3.145   3.237   3.476
 2108SOL     OW 8461   3.158   3.487   3.383
 2108SOL    HW2 8462   3.075   3.532   3.393
 2108SOL    HW3 8463   3.179   3.495   3.290
 2108SOL    MW4 8464   3.150   3.494   3.372
 2109SOL     OW 8465   3.376   3.629   3.495
 2109SOL    HW2 8466   3.379   3.717   3.458
 2109SOL    HW3 8467   3.299   3.589   3.455
 2109SOL    MW4 8468   3.367   3.635   3.485
 2110SOL     OW 8469   3.352   3.897   3.384
 2110SOL    HW2 8470   3.428   3.948   3.411
 2110SOL    HW3 8471   3.277   3.944   3.420
 2110SOL    MW4 8472   3.352   3.910   3.392
 2111SOL     OW 8473   3.126   4.030   3.467
 2111SOL    HW2 8474   3.127   4.031   3.563
 2111SOL    HW3 8475   3.124   4.123   3.443
 2111SOL    MW4 8476   3.126   4.042   3.477
 2112SOL     OW 8477   3.123   4.296   3.387
 2112SOL    HW2 8478   3.200   4.338   3.425
 2112SOL    HW3 8479   3.049   4.333   3.434
 2112SOL    MW4 8480   3.124   4.306   3.398
 2113SOL     OW 8481   3.372   4.413   3.489
 2113SOL    HW2 8482   3.373   4.399   3.583
 2113SOL    HW3 8483   3.376   4.508   3.478
 2113SOL    MW4 8484   3.372   4.423   3.500
 2114SOL     OW 8485   3.840   4.661   3.404
 2114SOL    HW2 8486   3.755   4.681   3.442
 2114SOL    HW3 8487   3.826   4.669   3.309
 2114SOL    MW4 8488   3.827   4.665   3.396
 2115SOL     OW 8489   3.619   0.088   3.526
 2115SOL    HW2 8490   3.617   0.184   3.517
 2115SOL    HW3 8491   3.534   0.059   3.491
 2115SOL    MW4 8492   3.607   0.097   3.520
 2116SOL     OW 8493   3.606   0.353   3.428
 2116SOL    HW2 8494   3.672   0.413   3.464
 2116SOL    HW3 8495   3.522   0.387   3.459
 2116SOL    MW4 8496   3.604   0.365   3.437
 2117SOL     OW 8497   3.813   0.496   3.535
 2117SOL    HW2 8498   3.817   0.480   3.630
 2117SOL    HW3 8499   3.897   0.464   3.502
 2117SOL    MW4 8500   3.825   0.490   3.543
 2118SOL     OW 8501   3.848   0.744   3.417
 2118SOL    HW2 8502   3.927   0.780   3.458
 2118SOL    HW3 8503   3.831   0.664   3.466
 2118SOL    MW4 8504   3.856   0.738   3.429
 2119SOL     OW 8505   3.612   0.872   3.473
 2119SOL    HW2 8506   3.610   0.889   3.567
 2119SOL    HW3 8507   3.694   0.823   3.460
 2119SOL    MW4 8508   3.623   0.868   3.483
 2120SOL     OW 8509   3.616   1.165   3.386
 2120SOL    HW2 8510   3.600   1.071   3.391
 2120SOL    HW3 8511   3.604   1.187   3.293
 2120SOL    MW4 8512   3.612   1.156   3.374
 2121SOL     OW 8513   3.841   1.281   3.495
 2121SOL    HW2 8514   3.837   1.274   3.590
 2121SOL    HW3 8515   3.759   1.241   3.464
 2121SOL    MW4 8516   3.830   1.275   3.503
 2122SOL     OW 8517   3.840   1.547   3.396
 2122SOL    HW2 8518   3.924   1.585   3.422
 2122SOL    HW3 8519   3.840   1.460   3.436
 2122SOL    MW4 8520   3.851   1.541   3.405
 2123SOL     OW 8521   3.589   1.661   3.507
 2123SOL    HW2 8522   3.581   1.750   3.473
 2123SOL    HW3 8523   3.674   1.631   3.477
 2123SOL    MW4 8524   3.599   1.669   3.499
 2124SOL     OW 8525   3.605   1.925   3.397
 2124SOL    HW2 8526   3.689   1.956   3.429
 2124SOL    HW3 8527   3.540   1.972   3.449
 2124SOL    MW4 8528   3.607   1.935   3.408
 2125SOL     OW 8529   3.817   2.068   3.502
 2125SOL    HW2 8530   3.820   2.088   3.596
 2125SOL    HW3 8531   3.894   2.013   3.486
 2125SOL    MW4 8532   3.828   2.064   3.512
 2126SOL     OW 8533   3.803   2.335   3.389
 2126SOL    HW2 8534   3.886   2.378   3.413
 2126SOL    HW3 8535   3.816   2.243   3.411
 2126SOL    MW4 8536   3.816   2.329   3.395
 2127SOL     OW 8537   3.570   2.447   3.507
 2127SOL    HW2 8538   3.568   2.540   3.484
 2127SOL    HW3 8539   3.651   2.415   3.468
 2127SOL    MW4 8540   3.580   2.455   3.499
 2128SOL     OW 8541   3.580   2.707   3.383
 2128SOL    HW2 8542   3.665   2.742   3.410
 2128SOL    HW3 8543   3.594   2.673   3.295
 2128SOL    MW4 8544   3.593   2.707   3.375
 2129SOL     OW 8545   3.818   2.803   3.459
 2129SOL    HW2 8546   3.821   2.822   3.553
 2129SOL    HW3 8547   3.829   2.888   3.417
 2129SOL    MW4 8548   3.820   2.817   3.466
 2130SOL     OW 8549   3.817   3.085   3.383
 2130SOL    HW2 8550   3.874   3.147   3.428
 2130SOL    HW3 8551   3.831   3.104   3.290
 2130SOL    MW4 8552   3.827   3.096   3.377
 2131SOL     OW 8553   3.588   3.211   3.492
 2131SOL    HW2 8554   3.588   3.302   3.462
 2131SOL    HW3 8555   3.661   3.170   3.445
 2131SOL    MW4 8556   3.598   3.217   3.482
 2132SOL     OW 8557   3.590   3.468   3.393
 2132SOL    HW2 8558   3.516   3.519   3.426
 2132SOL    HW3 8559   3.592   3.486   3.299
 2132SOL    MW4 8560   3.581   3.477   3.385
 2133SOL     OW 8561   3.820   3.630   3.473
 2133SOL    HW2 8562   3.822   3.624   3.569
 2133SOL    HW3 8563   3.738   3.586   3.449
 2133SOL    MW4 8564   3.809   3.623   3.483
 2134SOL     OW 8565   3.810   3.890   3.363
 2134SOL    HW2 8566   3.725   3.915   3.399
 2134SOL    HW3 8567   3.828   3.804   3.401
 2134SOL    MW4 8568   3.801   3.882   3.372
 2135SOL     OW 8569   3.577   4.016   3.462
 2135SOL    HW2 8570   3.581   4.002   3.557
 2135SOL    HW3 8571   3.600   4.108   3.451
 2135SOL    MW4 8572   3.580   4.027   3.473
 2136SOL     OW 8573   3.598   4.281   3.411
 2136SOL    HW2 8574   3.514   4.311   3.446
 2136SOL    HW3 8575   3.584   4.277   3.316
 2136SOL    MW4 8576   3.585   4.284   3.403
 2137SOL     OW 8577   3.865   4.397   3.507
 2137SOL    HW2 8578   3.786   4.353   3.475
 2137SOL    HW3 8579   3.851   4.490   3.485
 2137SOL    MW4 8580   3.853   4.404   3.499
 2138SOL     OW 8581   4.270   0.031   3.375
 2138SOL    HW2 8582   4.275  -0.061   3.398
 2138SOL    HW3 8583   4.341   0.072   3.424
 2138SOL    MW4 8584   4.280   0.025   3.384
 2139SOL     OW 8585   4.059   0.163   3.505
 2139SOL    HW2 8586   4.131   0.116   3.463
 2139SOL    HW3 8587   3.982   0.109   3.489
 2139SOL    MW4 8588   4.059   0.149   3.497
 2140SOL     OW 8589   4.077   0.434   3.457
 2140SOL    HW2 8590   4.079   0.340   3.474
 2140SOL    HW3 8591   4.079   0.441   3.362
 2140SOL    MW4 8592   4.077   0.422   3.447
 2141SOL     OW 8593   4.307   0.537   3.544
 2141SOL    HW2 8594   4.306   0.621   3.498
 2141SOL    HW3 8595   4.220   0.500   3.528
 2141SOL    MW4 8596   4.295   0.543   3.536
 2142SOL     OW 8597   4.305   0.785   3.413
 2142SOL    HW2 8598   4.389   0.829   3.428
 2142SOL    HW3 8599   4.304   0.767   3.319
 2142SOL    MW4 8600   4.316   0.788   3.403
 2143SOL     OW 8601   4.068   0.873   3.534
 2143SOL    HW2 8602   4.054   0.955   3.488
 2143SOL    HW3 8603   4.153   0.842   3.502
 2143SOL    MW4 8604   4.077   0.879   3.524
 2144SOL     OW 8605   4.049   1.132   3.411
 2144SOL    HW2 8606   4.128   1.178   3.441
 2144SOL    HW3 8607   3.976   1.183   3.448
 2144SOL    MW4 8608   4.050   1.145   3.420
 2145SOL     OW 8609   4.266   1.274   3.508
 2145SOL    HW2 8610   4.286   1.364   3.481
 2145SOL    HW3 8611   4.347   1.225   3.491
 2145SOL    MW4 8612   4.279   1.279   3.502
 2146SOL     OW 8613   4.312   1.537   3.418
 2146SOL    HW2 8614   4.244   1.583   3.466
 2146SOL    HW3 8615   4.298   1.562   3.326
 2146SOL    MW4 8616   4.301   1.546   3.412
 2147SOL     OW 8617   4.079   1.673   3.464
 2147SOL    HW2 8618   4.077   1.661   3.559
 2147SOL    HW3 8619   4.068   1.768   3.451
 2147SOL    MW4 8620   4.077   1.684   3.475
 2148SOL     OW 8621   4.048   1.937   3.427
 2148SOL    HW2 8622   4.128   1.989   3.439
 2148SOL    HW3 8623   4.032   1.942   3.332
 2148SOL    MW4 8624   4.057   1.944   3.416
 2149SOL     OW 8625   4.289   2.082   3.466
 2149SOL    HW2 8626   4.286   2.170   3.427
 2149SOL    HW3 8627   4.376   2.050   3.446
 2149SOL    MW4 8628   4.300   2.089   3.459
 2150SOL     OW 8629   4.284   2.323   3.321
 2150SOL    HW2 8630   4.204   2.349   3.366
 2150SOL    HW3 8631   4.263   2.331   3.228
 2150SOL    MW4 8632   4.271   2.328   3.315
 2151SOL     OW 8633   4.053   2.413   3.431
 2151SOL    HW2 8634   4.061   2.427   3.525
 2151SOL    HW3 8635   4.053   2.501   3.393
 2151SOL    MW4 8636   4.054   2.426   3.439
 2152SOL     OW 8637   4.068   2.676   3.384
 2152SOL    HW2 8638   4.141   2.711   3.435
 2152SOL    HW3 8639   3.991   2.721   3.418
 2152SOL    MW4 8640   4.068   2.687   3.395
 2153SOL     OW 8641   4.277   2.856   3.482
 2153SOL    HW2 8642   4.289   2.833   3.574
 2153SOL    HW3 8643   4.344   2.806   3.435
 2153SOL    MW4 8644   4.287   2.846   3.488
 2154SOL     OW 8645   4.249   3.114   3.402
 2154SOL    HW2 8646   4.238   3.024   3.431
 2154SOL    HW3 8647   4.260   3.108   3.307
 2154SOL    MW4 8648   4.249   3.101   3.394
 2155SOL     OW 8649   4.019   3.235   3.483
 2155SOL    HW2 8650   4.029   3.328   3.462
 2155SOL    HW3 8651   4.102   3.196   3.456
 2155SOL    MW4 8652   4.031   3.242   3.477
 2156SOL     OW 8653   4.057   3.506   3.380
 2156SOL    HW2 8654   4.125   3.557   3.423
 2156SOL    HW3 8655   3.977   3.526   3.429
 2156SOL    MW4 8656   4.056   3.515   3.392
 2157SOL     OW 8657   4.304   3.612   3.482
 2157SOL    HW2 8658   4.281   3.617   3.574
 2157SOL    HW3 8659   4.298   3.703   3.451
 2157SOL    MW4 8660   4.300   3.625   3.490
 2158SOL     OW 8661   4.257   3.872   3.346
 2158SOL    HW2 8662   4.324   3.934   3.375
 2158SOL    HW3 8663   4.259   3.877   3.250
 2158SOL    MW4 8664   4.266   3.881   3.337
 2159SOL     OW 8665   4.046   4.012   3.472
 2159SOL    HW2 8666   4.114   3.953   3.443
 2159SOL    HW3 8667   3.964   3.969   3.447
 2159SOL    MW4 8668   4.044   3.999   3.465
 2160SOL     OW 8669   4.075   4.261   3.378
 2160SOL    HW2 8670   4.052   4.170   3.397
 2160SOL    HW3 8671   4.012   4.313   3.429
 2160SOL    MW4 8672   4.064   4.256   3.387
 2161SOL     OW 8673   4.282   4.425   3.474
 2161SOL    HW2 8674   4.284   4.426   3.570
 2161SOL    HW3 8675   4.215   4.359   3.453
 2161SOL    MW4 8676   4.274   4.416   3.484
 2162SOL     OW 8677   0.228   4.643   3.831
 2162SOL    HW2 8678   0.221   4.647   3.927
 2162SOL    HW3 8679   0.149   4.688   3.799
 2162SOL    MW4 8680   0.217   4.650   3.840
 2163SOL     OW 8681   0.016   0.160   3.797
 2163SOL    HW2 8682   0.025   0.246   3.838
 2163SOL    HW3 8683   0.020   0.177   3.703
 2163SOL    MW4 8684   0.017   0.173   3.790
 2164SOL     OW 8685   0.055   0.405   3.912
 2164SOL    HW2 8686  -0.026   0.450   3.887
 2164SOL    HW3 8687   0.124   0.453   3.866
 2164SOL    MW4 8688   0.054   0.417   3.902
 2165SOL     OW 8689   0.266   0.524   3.753
 2165SOL    HW2 8690   0.270   0.618   3.771
 2165SOL    HW3 8691   0.231   0.517   3.664
 2165SOL    MW4 8692   0.262   0.535   3.744
 2166SOL     OW 8693   0.235   0.796   3.819
 2166SOL    HW2 8694   0.239   0.793   3.915
 2166SOL    HW3 8695   0.153   0.842   3.801
 2166SOL    MW4 8696   0.225   0.802   3.830
 2167SOL     OW 8697   4.481   0.930   3.765
 2167SOL    HW2 8698   4.401   0.888   3.795
 2167SOL    HW3 8699   4.480   1.016   3.806
 2167SOL    MW4 8700   4.471   0.936   3.774
 2168SOL     OW 8701   4.450   1.171   3.898
 2168SOL    HW2 8702   4.373   1.225   3.880
 2168SOL    HW3 8703   4.524   1.221   3.862
 2168SOL    MW4 8704   4.450   1.185   3.891
 2169SOL     OW 8705   0.180   1.288   3.789
 2169SOL    HW2 8706   0.179   1.378   3.823
 2169SOL    HW3 8707   0.192   1.297   3.695
 2169SOL    MW4 8708   0.181   1.301   3.781
 2170SOL     OW 8709   0.188   1.550   3.858
 2170SOL    HW2 8710   0.206   1.561   3.952
 2170SOL    HW3 8711   0.110   1.602   3.842
 2170SOL    MW4 8712   0.180   1.558   3.869
 2171SOL     OW 8713   4.476   1.703   3.765
 2171SOL    HW2 8714   4.488   1.798   3.773
 2171SOL    HW3 8715   4.512   1.682   3.678
 2171SOL    MW4 8716   4.482   1.713   3.754
 2172SOL     OW 8717   0.030   1.977   3.824
 2172SOL    HW2 8718   0.019   1.960   3.918
 2172SOL    HW3 8719  -0.058   1.997   3.793
 2172SOL    MW4 8720   0.017   1.977   3.833
 2173SOL     OW 8721   0.260   2.075   3.715
 2173SOL    HW2 8722   0.263   2.162   3.753
 2173SOL    HW3 8723   0.177   2.038   3.746
 2173SOL    MW4 8724   0.249   2.081   3.724
 2174SOL     OW 8725   0.226   2.350   3.797
 2174SOL    HW2 8726   0.220   2.336   3.891
 2174SOL    HW3 8727   0.138   2.379   3.771
 2174SOL    MW4 8728   0.214   2.352   3.806
 2175SOL     OW 8729   4.450   2.427   3.716
 2175SOL    HW2 8730   4.393   2.371   3.770
 2175SOL    HW3 8731   4.467   2.504   3.771
 2175SOL    MW4 8732   4.444   2.430   3.731
 2176SOL     OW 8733   0.043   2.655   3.855
 2176SOL    HW2 8734   0.036   2.678   3.948
 2176SOL    HW3 8735   0.118   2.704   3.823
 2176SOL    MW4 8736   0.052   2.664   3.863
 2177SOL     OW 8737   0.208   2.828   3.738
 2177SOL    HW2 8738   0.298   2.812   3.766
 2177SOL    HW3 8739   0.211   2.821   3.642
 2177SOL    MW4 8740   0.220   2.825   3.729
 2178SOL     OW 8741   0.223   3.108   3.812
 2178SOL    HW2 8742   0.214   3.096   3.907
 2178SOL    HW3 8743   0.199   3.023   3.775
 2178SOL    MW4 8744   0.219   3.095   3.820
 2179SOL     OW 8745   4.478   3.260   3.765
 2179SOL    HW2 8746   4.557   3.208   3.781
 2179SOL    HW3 8747   4.472   3.267   3.670
 2179SOL    MW4 8748   4.487   3.254   3.755
 2180SOL     OW 8749   4.489   3.525   3.840
 2180SOL    HW2 8750   4.553   3.571   3.785
 2180SOL    HW3 8751   4.497   3.433   3.815
 2180SOL    MW4 8752   4.499   3.519   3.829
 2181SOL     OW 8753   0.217   3.652   3.721
 2181SOL    HW2 8754   0.299   3.611   3.749
 2181SOL    HW3 8755   0.220   3.740   3.758
 2181SOL    MW4 8756   0.228   3.658   3.730
 2182SOL     OW 8757   0.223   3.908   3.841
 2182SOL    HW2 8758   0.243   3.879   3.930
 2182SOL    HW3 8759   0.294   3.968   3.818
 2182SOL    MW4 8760   0.235   3.912   3.850
 2183SOL     OW 8761   4.471   3.999   3.732
 2183SOL    HW2 8762   4.405   3.964   3.791
 2183SOL    HW3 8763   4.553   3.957   3.759
 2183SOL    MW4 8764   4.473   3.989   3.743
 2184SOL     OW 8765   4.489   4.248   3.877
 2184SOL    HW2 8766   4.571   4.286   3.845
 2184SOL    HW3 8767   4.471   4.175   3.817
 2184SOL    MW4 8768   4.497   4.244   3.864
 2185SOL     OW 8769   0.243   4.368   3.808
 2185SOL    HW2 8770   0.315   4.360   3.871
 2185SOL    HW3 8771   0.219   4.461   3.812
 2185SOL    MW4 8772   0.250   4.380   3.817
 2186SOL     OW 8773   0.675   0.017   3.842
 2186SOL    HW2 8774   0.686  -0.077   3.826
 2186SOL    HW3 8775   0.595   0.040   3.795
 2186SOL    MW4 8776   0.666   0.007   3.834
 2187SOL     OW 8777   0.446   0.095   3.722
 2187SOL    HW2 8778   0.437   0.189   3.737
 2187SOL    HW3 8779   0.365   0.058   3.756
 2187SOL    MW4 8780   0.434   0.102   3.729
 2188SOL     OW 8781   0.489   0.363   3.779
 2188SOL    HW2 8782   0.571   0.409   3.762
 2188SOL    HW3 8783   0.421   0.422   3.747
 2188SOL    MW4 8784   0.491   0.377   3.772
 2189SOL     OW 8785   0.710   0.518   3.723
 2189SOL    HW2 8786   0.780   0.474   3.771
 2189SOL    HW3 8787   0.695   0.599   3.770
 2189SOL    MW4 8788   0.717   0.522   3.735
 2190SOL     OW 8789   0.684   0.772   3.850
 2190SOL    HW2 8790   0.756   0.831   3.829
 2190SOL    HW3 8791   0.606   0.816   3.816
 2190SOL    MW4 8792   0.683   0.786   3.843
 2191SOL     OW 8793   0.460   0.909   3.721
 2191SOL    HW2 8794   0.446   0.993   3.764
 2191SOL    HW3 8795   0.382   0.858   3.742
 2191SOL    MW4 8796   0.448   0.914   3.729
 2192SOL     OW 8797   0.425   1.159   3.845
 2192SOL    HW2 8798   0.492   1.223   3.824
 2192SOL    HW3 8799   0.342   1.201   3.820
 2192SOL    MW4 8800   0.423   1.173   3.839
 2193SOL     OW 8801   0.677   1.289   3.764
 2193SOL    HW2 8802   0.753   1.240   3.796
 2193SOL    HW3 8803   0.681   1.281   3.669
 2193SOL    MW4 8804   0.688   1.282   3.755
 2194SOL     OW 8805   0.672   1.560   3.824
 2194SOL    HW2 8806   0.755   1.591   3.787
 2194SOL    HW3 8807   0.669   1.467   3.802
 2194SOL    MW4 8808   0.682   1.552   3.816
 2195SOL     OW 8809   0.428   1.672   3.735
 2195SOL    HW2 8810   0.494   1.619   3.780
 2195SOL    HW3 8811   0.344   1.634   3.764
 2195SOL    MW4 8812   0.425   1.660   3.745
 2196SOL     OW 8813   0.474   1.931   3.830
 2196SOL    HW2 8814   0.468   1.844   3.791
 2196SOL    HW3 8815   0.406   1.982   3.785
 2196SOL    MW4 8816   0.464   1.927   3.819
 2197SOL     OW 8817   0.679   2.080   3.709
 2197SOL    HW2 8818   0.661   2.172   3.730
 2197SOL    HW3 8819   0.613   2.032   3.758
 2197SOL    MW4 8820   0.668   2.086   3.718
 2198SOL     OW 8821   0.666   2.353   3.785
 2198SOL    HW2 8822   0.745   2.382   3.739
 2198SOL    HW3 8823   0.597   2.412   3.754
 2198SOL    MW4 8824   0.667   2.364   3.775
 2199SOL     OW 8825   0.446   2.498   3.712
 2199SOL    HW2 8826   0.365   2.454   3.736
 2199SOL    HW3 8827   0.453   2.486   3.617
 2199SOL    MW4 8828   0.436   2.491   3.702
 2200SOL     OW 8829   0.449   2.750   3.818
 2200SOL    HW2 8830   0.526   2.797   3.787
 2200SOL    HW3 8831   0.460   2.661   3.785
 2200SOL    MW4 8832   0.461   2.744   3.810
 2201SOL     OW 8833   0.670   2.889   3.703
 2201SOL    HW2 8834   0.756   2.862   3.737
 2201SOL    HW3 8835   0.676   2.875   3.609
 2201SOL    MW4 8836   0.682   2.884   3.695
 2202SOL     OW 8837   0.670   3.143   3.797
 2202SOL    HW2 8838   0.665   3.137   3.892
 2202SOL    HW3 8839   0.669   3.052   3.767
 2202SOL    MW4 8840   0.669   3.130   3.805
 2203SOL     OW 8841   0.435   3.263   3.716
 2203SOL    HW2 8842   0.524   3.236   3.739
 2203SOL    HW3 8843   0.378   3.198   3.755
 2203SOL    MW4 8844   0.439   3.251   3.724
 2204SOL     OW 8845   0.439   3.520   3.798
 2204SOL    HW2 8846   0.528   3.542   3.770
 2204SOL    HW3 8847   0.429   3.428   3.775
 2204SOL    MW4 8848   0.450   3.511   3.791
 2205SOL     OW 8849   0.679   3.613   3.717
 2205SOL    HW2 8850   0.643   3.694   3.752
 2205SOL    HW3 8851   0.679   3.626   3.622
 2205SOL    MW4 8852   0.674   3.626   3.709
 2206SOL     OW 8853   0.601   3.847   3.848
 2206SOL    HW2 8854   0.580   3.852   3.942
 2206SOL    HW3 8855   0.672   3.910   3.836
 2206SOL    MW4 8856   0.607   3.856   3.859
 2207SOL     OW 8857   0.451   4.058   3.740
 2207SOL    HW2 8858   0.504   3.982   3.766
 2207SOL    HW3 8859   0.459   4.061   3.645
 2207SOL    MW4 8860   0.459   4.048   3.731
 2208SOL     OW 8861   0.497   4.275   3.918
 2208SOL    HW2 8862   0.546   4.334   3.861
 2208SOL    HW3 8863   0.473   4.202   3.861
 2208SOL    MW4 8864   0.500   4.274   3.903
 2209SOL     OW 8865   0.671   4.422   3.766
 2209SOL    HW2 8866   0.743   4.360   3.779
 2209SOL    HW3 8867   0.669   4.437   3.672
 2209SOL    MW4 8868   0.680   4.416   3.755
 2210SOL     OW 8869   1.108   0.021   3.796
 2210SOL    HW2 8870   1.193   0.056   3.767
 2210SOL    HW3 8871   1.106  -0.068   3.762
 2210SOL    MW4 8872   1.119   0.014   3.788
 2211SOL     OW 8873   0.875   0.151   3.700
 2211SOL    HW2 8874   0.954   0.118   3.742
 2211SOL    HW3 8875   0.803   0.110   3.748
 2211SOL    MW4 8876   0.876   0.141   3.712
 2212SOL     OW 8877   0.929   0.390   3.833
 2212SOL    HW2 8878   0.923   0.370   3.927
 2212SOL    HW3 8879   0.903   0.308   3.790
 2212SOL    MW4 8880   0.925   0.377   3.840
 2213SOL     OW 8881   1.139   0.510   3.707
 2213SOL    HW2 8882   1.215   0.467   3.746
 2213SOL    HW3 8883   1.064   0.479   3.757
 2213SOL    MW4 8884   1.140   0.501   3.718
 2214SOL     OW 8885   1.133   0.765   3.829
 2214SOL    HW2 8886   1.137   0.752   3.923
 2214SOL    HW3 8887   1.142   0.678   3.792
 2214SOL    MW4 8888   1.135   0.752   3.836
 2215SOL     OW 8889   0.914   0.929   3.769
 2215SOL    HW2 8890   0.982   0.870   3.800
 2215SOL    HW3 8891   0.917   0.920   3.674
 2215SOL    MW4 8892   0.923   0.920   3.760
 2216SOL     OW 8893   0.893   1.180   3.894
 2216SOL    HW2 8894   0.898   1.185   3.989
 2216SOL    HW3 8895   0.878   1.088   3.875
 2216SOL    MW4 8896   0.891   1.169   3.904
 2217SOL     OW 8897   1.090   1.282   3.748
 2217SOL    HW2 8898   1.109   1.371   3.776
 2217SOL    HW3 8899   1.028   1.248   3.813
 2217SOL    MW4 8900   1.085   1.289   3.760
 2218SOL     OW 8901   1.145   1.531   3.814
 2218SOL    HW2 8902   1.149   1.540   3.909
 2218SOL    HW3 8903   1.227   1.568   3.783
 2218SOL    MW4 8904   1.156   1.537   3.823
 2219SOL     OW 8905   0.906   1.659   3.718
 2219SOL    HW2 8906   0.985   1.616   3.749
 2219SOL    HW3 8907   0.920   1.671   3.624
 2219SOL    MW4 8908   0.918   1.655   3.710
 2220SOL     OW 8909   0.899   1.933   3.818
 2220SOL    HW2 8910   0.907   1.846   3.779
 2220SOL    HW3 8911   0.826   1.974   3.770
 2220SOL    MW4 8912   0.890   1.927   3.806
 2221SOL     OW 8913   1.160   2.059   3.761
 2221SOL    HW2 8914   1.080   2.022   3.799
 2221SOL    HW3 8915   1.148   2.047   3.667
 2221SOL    MW4 8916   1.148   2.053   3.753
 2222SOL     OW 8917   1.128   2.322   3.827
 2222SOL    HW2 8918   1.113   2.329   3.921
 2222SOL    HW3 8919   1.147   2.230   3.812
 2222SOL    MW4 8920   1.129   2.311   3.837
 2223SOL     OW 8921   0.897   2.488   3.694
 2223SOL    HW2 8922   0.909   2.578   3.727
 2223SOL    HW3 8923   0.972   2.440   3.727
 2223SOL    MW4 8924   0.908   2.494   3.703
 2224SOL     OW 8925   0.906   2.753   3.793
 2224SOL    HW2 8926   0.905   2.760   3.889
 2224SOL    HW3 8927   0.986   2.800   3.767
 2224SOL    MW4 8928   0.916   2.760   3.802
 2225SOL     OW 8929   1.137   2.886   3.691
 2225SOL    HW2 8930   1.208   2.836   3.731
 2225SOL    HW3 8931   1.147   2.975   3.726
 2225SOL    MW4 8932   1.148   2.891   3.701
 2226SOL     OW 8933   1.146   3.137   3.821
 2226SOL    HW2 8934   1.213   3.187   3.773
 2226SOL    HW3 8935   1.063   3.168   3.786
 2226SOL    MW4 8936   1.144   3.148   3.810
 2227SOL     OW 8937   0.912   3.266   3.751
 2227SOL    HW2 8938   0.824   3.234   3.768
 2227SOL    HW3 8939   0.919   3.267   3.655
 2227SOL    MW4 8940   0.902   3.262   3.740
 2228SOL     OW 8941   0.866   3.506   3.876
 2228SOL    HW2 8942   0.881   3.422   3.832
 2228SOL    HW3 8943   0.799   3.549   3.822
 2228SOL    MW4 8944   0.859   3.501   3.863
 2229SOL     OW 8945   1.081   3.637   3.748
 2229SOL    HW2 8946   1.090   3.727   3.780
 2229SOL    HW3 8947   1.010   3.600   3.801
 2229SOL    MW4 8948   1.073   3.644   3.759
 2230SOL     OW 8949   1.108   3.915   3.834
 2230SOL    HW2 8950   1.097   3.914   3.929
 2230SOL    HW3 8951   1.183   3.973   3.819
 2230SOL    MW4 8952   1.117   3.923   3.844
 2231SOL     OW 8953   0.828   3.984   3.776
 2231SOL    HW2 8954   0.918   3.953   3.790
 2231SOL    HW3 8955   0.822   3.995   3.681
 2231SOL    MW4 8956   0.839   3.982   3.765
 2232SOL     OW 8957   0.919   4.261   3.793
 2232SOL    HW2 8958   0.946   4.274   3.884
 2232SOL    HW3 8959   0.868   4.180   3.795
 2232SOL    MW4 8960   0.916   4.252   3.805
 2233SOL     OW 8961   1.123   4.432   3.709
 2233SOL    HW2 8962   1.039   4.389   3.727
 2233SOL    HW3 8963   1.136   4.420   3.615
 2233SOL    MW4 8964   1.114   4.425   3.699
 2234SOL     OW 8965   1.541   0.021   3.859
 2234SOL    HW2 8966   1.558   0.021   3.953
 2234SOL    HW3 8967   1.548  -0.071   3.834
 2234SOL    MW4 8968   1.544   0.009   3.868
 2235SOL     OW 8969   1.343   0.142   3.718
 2235SOL    HW2 8970   1.335   0.218   3.776
 2235SOL    HW3 8971   1.414   0.090   3.757
 2235SOL    MW4 8972   1.351   0.145   3.731
 2236SOL     OW 8973   1.367   0.406   3.827
 2236SOL    HW2 8974   1.359   0.401   3.923
 2236SOL    HW3 8975   1.443   0.463   3.812
 2236SOL    MW4 8976   1.376   0.413   3.838
 2237SOL     OW 8977   1.568   0.562   3.730
 2237SOL    HW2 8978   1.643   0.514   3.765
 2237SOL    HW3 8979   1.578   0.651   3.764
 2237SOL    MW4 8980   1.580   0.568   3.739
 2238SOL     OW 8981   1.575   0.783   3.891
 2238SOL    HW2 8982   1.647   0.838   3.860
 2238SOL    HW3 8983   1.498   0.819   3.848
 2238SOL    MW4 8984   1.575   0.795   3.882
 2239SOL     OW 8985   1.360   0.896   3.779
 2239SOL    HW2 8986   1.351   0.985   3.814
 2239SOL    HW3 8987   1.278   0.853   3.804
 2239SOL    MW4 8988   1.348   0.902   3.787
 2240SOL     OW 8989   1.333   1.147   3.869
 2240SOL    HW2 8990   1.413   1.192   3.839
 2240SOL    HW3 8991   1.262   1.200   3.834
 2240SOL    MW4 8992   1.334   1.160   3.860
 2241SOL     OW 8993   1.576   1.273   3.748
 2241SOL    HW2 8994   1.663   1.239   3.769
 2241SOL    HW3 8995   1.575   1.362   3.784
 2241SOL    MW4 8996   1.588   1.280   3.755
 2242SOL     OW 8997   1.586   1.523   3.832
 2242SOL    HW2 8998   1.575   1.543   3.925
 2242SOL    HW3 8999   1.659   1.579   3.804
 2242SOL    MW4 9000   1.595   1.533   3.841
 2243SOL     OW 9001   1.365   1.660   3.735
 2243SOL    HW2 9002   1.361   1.744   3.781
 2243SOL    HW3 9003   1.447   1.621   3.763
 2243SOL    MW4 9004   1.375   1.666   3.745
 2244SOL     OW 9005   1.355   1.909   3.859
 2244SOL    HW2 9006   1.365   1.916   3.954
 2244SOL    HW3 9007   1.279   1.963   3.839
 2244SOL    MW4 9008   1.346   1.917   3.869
 2245SOL     OW 9009   1.563   2.079   3.786
 2245SOL    HW2 9010   1.495   2.015   3.806
 2245SOL    HW3 9011   1.562   2.086   3.691
 2245SOL    MW4 9012   1.554   2.071   3.776
 2246SOL     OW 9013   1.560   2.350   3.858
 2246SOL    HW2 9014   1.642   2.387   3.824
 2246SOL    HW3 9015   1.562   2.258   3.832
 2246SOL    MW4 9016   1.571   2.343   3.850
 2247SOL     OW 9017   1.342   2.487   3.726
 2247SOL    HW2 9018   1.423   2.448   3.760
 2247SOL    HW3 9019   1.273   2.451   3.781
 2247SOL    MW4 9020   1.344   2.477   3.738
 2248SOL     OW 9021   1.357   2.761   3.789
 2248SOL    HW2 9022   1.345   2.758   3.883
 2248SOL    HW3 9023   1.343   2.671   3.760
 2248SOL    MW4 9024   1.353   2.749   3.797
 2249SOL     OW 9025   1.609   2.859   3.747
 2249SOL    HW2 9026   1.521   2.832   3.774
 2249SOL    HW3 9027   1.607   2.857   3.652
 2249SOL    MW4 9028   1.597   2.855   3.738
 2250SOL     OW 9029   1.568   3.114   3.850
 2250SOL    HW2 9030   1.552   3.105   3.944
 2250SOL    HW3 9031   1.597   3.027   3.823
 2250SOL    MW4 9032   1.570   3.101   3.859
 2251SOL     OW 9033   1.352   3.274   3.699
 2251SOL    HW2 9034   1.345   3.368   3.716
 2251SOL    HW3 9035   1.416   3.242   3.763
 2251SOL    MW4 9036   1.359   3.282   3.710
 2252SOL     OW 9037   1.326   3.545   3.795
 2252SOL    HW2 9038   1.399   3.590   3.754
 2252SOL    HW3 9039   1.249   3.594   3.767
 2252SOL    MW4 9040   1.326   3.557   3.786
 2253SOL     OW 9041   1.547   3.687   3.691
 2253SOL    HW2 9042   1.621   3.633   3.717
 2253SOL    HW3 9043   1.547   3.760   3.754
 2253SOL    MW4 9044   1.557   3.690   3.703
 2254SOL     OW 9045   1.569   3.911   3.862
 2254SOL    HW2 9046   1.583   3.912   3.956
 2254SOL    HW3 9047   1.488   3.960   3.848
 2254SOL    MW4 9048   1.560   3.917   3.872
 2255SOL     OW 9049   1.335   4.060   3.785
 2255SOL    HW2 9050   1.331   4.152   3.808
 2255SOL    HW3 9051   1.370   4.058   3.696
 2255SOL    MW4 9052   1.339   4.072   3.776
 2256SOL     OW 9053   1.327   4.339   3.873
 2256SOL    HW2 9054   1.398   4.385   3.828
 2256SOL    HW3 9055   1.249   4.357   3.821
 2256SOL    MW4 9056   1.326   4.347   3.860
 2257SOL     OW 9057   1.533   4.437   3.724
 2257SOL    HW2 9058   1.600   4.377   3.758
 2257SOL    HW3 9059   1.537   4.426   3.629
 2257SOL    MW4 9060   1.542   4.427   3.716
 2258SOL     OW 9061   1.979   4.659   3.882
 2258SOL    HW2 9062   2.066   4.698   3.875
 2258SOL    HW3 9063   1.983   4.581   3.826
 2258SOL    MW4 9064   1.991   4.654   3.874
 2259SOL     OW 9065   1.779   0.140   3.758
 2259SOL    HW2 9066   1.851   0.088   3.795
 2259SOL    HW3 9067   1.700   0.100   3.794
 2259SOL    MW4 9068   1.778   0.128   3.768
 2260SOL     OW 9069   1.762   0.412   3.833
 2260SOL    HW2 9070   1.764   0.400   3.928
 2260SOL    HW3 9071   1.778   0.324   3.798
 2260SOL    MW4 9072   1.764   0.398   3.841
 2261SOL     OW 9073   2.024   0.479   3.760
 2261SOL    HW2 9074   1.938   0.453   3.791
 2261SOL    HW3 9075   2.015   0.482   3.664
 2261SOL    MW4 9076   2.012   0.476   3.751
 2262SOL     OW 9077   1.999   0.767   3.867
 2262SOL    HW2 9078   1.970   0.750   3.957
 2262SOL    HW3 9079   2.036   0.684   3.837
 2262SOL    MW4 9080   2.000   0.754   3.875
 2263SOL     OW 9081   1.789   0.921   3.765
 2263SOL    HW2 9082   1.868   0.874   3.791
 2263SOL    HW3 9083   1.789   0.917   3.670
 2263SOL    MW4 9084   1.799   0.914   3.756
 2264SOL     OW 9085   1.816   1.181   3.891
 2264SOL    HW2 9086   1.818   1.172   3.987
 2264SOL    HW3 9087   1.781   1.098   3.860
 2264SOL    MW4 9088   1.811   1.169   3.900
 2265SOL     OW 9089   2.048   1.284   3.800
 2265SOL    HW2 9090   2.111   1.229   3.847
 2265SOL    HW3 9091   1.963   1.252   3.828
 2265SOL    MW4 9092   2.045   1.273   3.810
 2266SOL     OW 9093   2.038   1.562   3.890
 2266SOL    HW2 9094   1.956   1.588   3.848
 2266SOL    HW3 9095   2.048   1.470   3.867
 2266SOL    MW4 9096   2.029   1.553   3.881
 2267SOL     OW 9097   1.802   1.674   3.772
 2267SOL    HW2 9098   1.798   1.765   3.803
 2267SOL    HW3 9099   1.814   1.681   3.678
 2267SOL    MW4 9100   1.803   1.687   3.764
 2268SOL     OW 9101   1.825   1.955   3.862
 2268SOL    HW2 9102   1.820   1.962   3.957
 2268SOL    HW3 9103   1.744   1.995   3.831
 2268SOL    MW4 9104   1.813   1.961   3.871
 2269SOL     OW 9105   2.072   2.073   3.797
 2269SOL    HW2 9106   1.989   2.030   3.814
 2269SOL    HW3 9107   2.065   2.106   3.708
 2269SOL    MW4 9108   2.060   2.072   3.788
 2270SOL     OW 9109   2.006   2.336   3.851
 2270SOL    HW2 9110   1.917   2.357   3.822
 2270SOL    HW3 9111   2.011   2.241   3.849
 2270SOL    MW4 9112   1.995   2.326   3.847
 2271SOL     OW 9113   1.780   2.463   3.734
 2271SOL    HW2 9114   1.777   2.544   3.784
 2271SOL    HW3 9115   1.775   2.491   3.642
 2271SOL    MW4 9116   1.779   2.477   3.728
 2272SOL     OW 9117   1.825   2.710   3.848
 2272SOL    HW2 9118   1.837   2.733   3.941
 2272SOL    HW3 9119   1.751   2.763   3.819
 2272SOL    MW4 9120   1.817   2.720   3.857
 2273SOL     OW 9121   2.013   2.847   3.711
 2273SOL    HW2 9122   2.099   2.828   3.748
 2273SOL    HW3 9123   1.953   2.789   3.759
 2273SOL    MW4 9124   2.016   2.837   3.722
 2274SOL     OW 9125   1.987   3.115   3.759
 2274SOL    HW2 9126   1.972   3.026   3.727
 2274SOL    HW3 9127   2.082   3.126   3.757
 2274SOL    MW4 9128   1.997   3.105   3.755
 2275SOL     OW 9129   1.762   3.274   3.726
 2275SOL    HW2 9130   1.841   3.222   3.739
 2275SOL    HW3 9131   1.691   3.219   3.759
 2275SOL    MW4 9132   1.763   3.260   3.732
 2276SOL     OW 9133   1.759   3.542   3.805
 2276SOL    HW2 9134   1.851   3.570   3.801
 2276SOL    HW3 9135   1.759   3.457   3.761
 2276SOL    MW4 9136   1.771   3.534   3.798
 2277SOL     OW 9137   2.057   3.606   3.743
 2277SOL    HW2 9138   2.116   3.541   3.780
 2277SOL    HW3 9139   2.070   3.599   3.648
 2277SOL    MW4 9140   2.066   3.597   3.735
 2278SOL     OW 9141   1.979   3.880   3.772
 2278SOL    HW2 9142   2.070   3.910   3.770
 2278SOL    HW3 9143   1.983   3.789   3.744
 2278SOL    MW4 9144   1.992   3.872   3.768
 2279SOL     OW 9145   1.761   4.029   3.711
 2279SOL    HW2 9146   1.836   3.980   3.744
 2279SOL    HW3 9147   1.686   3.996   3.762
 2279SOL    MW4 9148   1.761   4.018   3.722
 2280SOL     OW 9149   1.745   4.287   3.819
 2280SOL    HW2 9150   1.828   4.334   3.807
 2280SOL    HW3 9151   1.765   4.196   3.798
 2280SOL    MW4 9152   1.759   4.282   3.815
 2281SOL     OW 9153   1.988   4.402   3.772
 2281SOL    HW2 9154   2.066   4.351   3.795
 2281SOL    HW3 9155   1.992   4.411   3.677
 2281SOL    MW4 9156   1.999   4.397   3.763
 2282SOL     OW 9157   2.420   4.622   3.899
 2282SOL    HW2 9158   2.442   4.583   3.984
 2282SOL    HW3 9159   2.497   4.674   3.877
 2282SOL    MW4 9160   2.433   4.624   3.907
 2283SOL     OW 9161   2.232   0.127   3.800
 2283SOL    HW2 9162   2.298   0.068   3.837
 2283SOL    HW3 9163   2.243   0.117   3.705
 2283SOL    MW4 9164   2.242   0.118   3.792
 2284SOL     OW 9165   2.222   0.360   3.929
 2284SOL    HW2 9166   2.226   0.281   3.875
 2284SOL    HW3 9167   2.155   0.414   3.888
 2284SOL    MW4 9168   2.214   0.356   3.916
 2285SOL     OW 9169   2.433   0.493   3.808
 2285SOL    HW2 9170   2.354   0.448   3.838
 2285SOL    HW3 9171   2.430   0.485   3.713
 2285SOL    MW4 9172   2.422   0.486   3.799
 2286SOL     OW 9173   2.442   0.755   3.947
 2286SOL    HW2 9174   2.367   0.798   3.906
 2286SOL    HW3 9175   2.443   0.667   3.909
 2286SOL    MW4 9176   2.432   0.749   3.937
 2287SOL     OW 9177   2.239   0.885   3.811
 2287SOL    HW2 9178   2.150   0.855   3.829
 2287SOL    HW3 9179   2.255   0.864   3.719
 2287SOL    MW4 9180   2.230   0.878   3.802
 2288SOL     OW 9181   2.243   1.153   3.926
 2288SOL    HW2 9182   2.238   1.163   4.021
 2288SOL    HW3 9183   2.225   1.060   3.911
 2288SOL    MW4 9184   2.240   1.142   3.936
 2289SOL     OW 9185   2.462   1.249   3.793
 2289SOL    HW2 9186   2.477   1.342   3.812
 2289SOL    HW3 9187   2.381   1.228   3.840
 2289SOL    MW4 9188   2.453   1.259   3.802
 2290SOL     OW 9189   2.479   1.512   3.861
 2290SOL    HW2 9190   2.550   1.575   3.847
 2290SOL    HW3 9191   2.400   1.557   3.829
 2290SOL    MW4 9192   2.478   1.527   3.855
 2291SOL     OW 9193   2.263   1.661   3.777
 2291SOL    HW2 9194   2.274   1.751   3.807
 2291SOL    HW3 9195   2.178   1.635   3.811
 2291SOL    MW4 9196   2.254   1.670   3.785
 2292SOL     OW 9197   2.295   1.921   3.852
 2292SOL    HW2 9198   2.289   1.906   3.947
 2292SOL    HW3 9199   2.209   1.955   3.828
 2292SOL    MW4 9200   2.283   1.923   3.861
 2293SOL     OW 9201   2.474   2.106   3.755
 2293SOL    HW2 9202   2.471   2.178   3.818
 2293SOL    HW3 9203   2.404   2.047   3.783
 2293SOL    MW4 9204   2.464   2.108   3.767
 2294SOL     OW 9205   2.444   2.322   3.918
 2294SOL    HW2 9206   2.521   2.365   3.878
 2294SOL    HW3 9207   2.369   2.368   3.880
 2294SOL    MW4 9208   2.445   2.334   3.908
 2295SOL     OW 9209   2.241   2.457   3.769
 2295SOL    HW2 9210   2.153   2.423   3.786
 2295SOL    HW3 9211   2.249   2.454   3.673
 2295SOL    MW4 9212   2.230   2.452   3.759
 2296SOL     OW 9213   2.255   2.741   3.794
 2296SOL    HW2 9214   2.265   2.755   3.888
 2296SOL    HW3 9215   2.261   2.646   3.783
 2296SOL    MW4 9216   2.257   2.730   3.805
 2297SOL     OW 9217   2.480   2.895   3.743
 2297SOL    HW2 9218   2.395   2.851   3.750
 2297SOL    HW3 9219   2.510   2.876   3.655
 2297SOL    MW4 9220   2.472   2.887   3.733
 2298SOL     OW 9221   2.509   3.130   3.872
 2298SOL    HW2 9222   2.480   3.105   3.960
 2298SOL    HW3 9223   2.525   3.047   3.827
 2298SOL    MW4 9224   2.507   3.116   3.878
 2299SOL     OW 9225   2.258   3.142   3.723
 2299SOL    HW2 9226   2.269   3.234   3.749
 2299SOL    HW3 9227   2.324   3.095   3.774
 2299SOL    MW4 9228   2.268   3.148   3.733
 2300SOL     OW 9229   2.248   3.400   3.834
 2300SOL    HW2 9230   2.247   3.406   3.930
 2300SOL    HW3 9231   2.313   3.465   3.807
 2300SOL    MW4 9232   2.257   3.409   3.843
 2301SOL     OW 9233   2.407   3.610   3.738
 2301SOL    HW2 9234   2.494   3.574   3.753
 2301SOL    HW3 9235   2.404   3.627   3.643
 2301SOL    MW4 9236   2.418   3.608   3.727
 2302SOL     OW 9237   2.444   3.856   3.842
 2302SOL    HW2 9238   2.511   3.884   3.780
 2302SOL    HW3 9239   2.426   3.764   3.818
 2302SOL    MW4 9240   2.450   3.847   3.831
 2303SOL     OW 9241   2.224   4.003   3.740
 2303SOL    HW2 9242   2.297   3.957   3.781
 2303SOL    HW3 9243   2.248   4.010   3.648
 2303SOL    MW4 9244   2.237   3.998   3.733
 2304SOL     OW 9245   2.211   4.260   3.838
 2304SOL    HW2 9246   2.208   4.255   3.933
 2304SOL    HW3 9247   2.221   4.169   3.810
 2304SOL    MW4 9248   2.212   4.247   3.847
 2305SOL     OW 9249   2.451   4.387   3.743
 2305SOL    HW2 9250   2.378   4.328   3.761
 2305SOL    HW3 9251   2.432   4.466   3.793
 2305SOL    MW4 9252   2.439   4.389   3.752
 2306SOL     OW 9253   2.902   4.656   3.868
 2306SOL    HW2 9254   2.908   4.651   3.964
 2306SOL    HW3 9255   2.981   4.701   3.841
 2306SOL    MW4 9256   2.913   4.661   3.877
 2307SOL     OW 9257   2.640   0.078   3.806
 2307SOL    HW2 9258   2.725   0.040   3.829
 2307SOL    HW3 9259   2.637   0.070   3.710
 2307SOL    MW4 9260   2.651   0.072   3.796
 2308SOL     OW 9261   2.656   0.336   3.918
 2308SOL    HW2 9262   2.649   0.248   3.881
 2308SOL    HW3 9263   2.578   0.381   3.886
 2308SOL    MW4 9264   2.645   0.330   3.909
 2309SOL     OW 9265   2.896   0.462   3.761
 2309SOL    HW2 9266   2.975   0.444   3.811
 2309SOL    HW3 9267   2.825   0.426   3.814
 2309SOL    MW4 9268   2.897   0.455   3.775
 2310SOL     OW 9269   2.883   0.731   3.853
 2310SOL    HW2 9270   2.958   0.782   3.823
 2310SOL    HW3 9271   2.894   0.646   3.811
 2310SOL    MW4 9272   2.894   0.727   3.843
 2311SOL     OW 9273   2.659   0.884   3.790
 2311SOL    HW2 9274   2.734   0.831   3.817
 2311SOL    HW3 9275   2.583   0.841   3.830
 2311SOL    MW4 9276   2.658   0.871   3.799
 2312SOL     OW 9277   2.678   1.114   3.921
 2312SOL    HW2 9278   2.682   1.026   3.882
 2312SOL    HW3 9279   2.607   1.158   3.874
 2312SOL    MW4 9280   2.669   1.108   3.909
 2313SOL     OW 9281   2.892   1.243   3.810
 2313SOL    HW2 9282   2.855   1.327   3.834
 2313SOL    HW3 9283   2.831   1.178   3.846
 2313SOL    MW4 9284   2.879   1.245   3.818
 2314SOL     OW 9285   2.859   1.538   3.874
 2314SOL    HW2 9286   2.856   1.554   3.968
 2314SOL    HW3 9287   2.942   1.576   3.845
 2314SOL    MW4 9288   2.869   1.545   3.882
 2315SOL     OW 9289   2.672   1.686   3.757
 2315SOL    HW2 9290   2.748   1.637   3.791
 2315SOL    HW3 9291   2.681   1.681   3.662
 2315SOL    MW4 9292   2.683   1.679   3.749
 2316SOL     OW 9293   2.669   1.937   3.866
 2316SOL    HW2 9294   2.653   1.857   3.816
 2316SOL    HW3 9295   2.608   2.000   3.829
 2316SOL    MW4 9296   2.659   1.935   3.854
 2317SOL     OW 9297   2.870   2.073   3.741
 2317SOL    HW2 9298   2.869   2.151   3.797
 2317SOL    HW3 9299   2.801   2.017   3.776
 2317SOL    MW4 9300   2.861   2.076   3.753
 2318SOL     OW 9301   2.864   2.303   3.900
 2318SOL    HW2 9302   2.840   2.341   3.985
 2318SOL    HW3 9303   2.951   2.338   3.882
 2318SOL    MW4 9304   2.872   2.313   3.909
 2319SOL     OW 9305   2.665   2.413   3.743
 2319SOL    HW2 9306   2.660   2.507   3.758
 2319SOL    HW3 9307   2.740   2.384   3.795
 2319SOL    MW4 9308   2.675   2.421   3.752
 2320SOL     OW 9309   2.653   2.683   3.836
 2320SOL    HW2 9310   2.637   2.670   3.929
 2320SOL    HW3 9311   2.582   2.742   3.808
 2320SOL    MW4 9312   2.641   2.689   3.845
 2321SOL     OW 9313   2.895   2.798   3.735
 2321SOL    HW2 9314   2.892   2.892   3.756
 2321SOL    HW3 9315   2.815   2.763   3.774
 2321SOL    MW4 9316   2.884   2.806   3.743
 2322SOL     OW 9317   2.868   3.067   3.791
 2322SOL    HW2 9318   2.952   3.112   3.786
 2322SOL    HW3 9319   2.804   3.133   3.765
 2322SOL    MW4 9320   2.870   3.081   3.787
 2323SOL     OW 9321   2.691   3.260   3.714
 2323SOL    HW2 9322   2.684   3.349   3.750
 2323SOL    HW3 9323   2.624   3.210   3.760
 2323SOL    MW4 9324   2.681   3.265   3.725
 2324SOL     OW 9325   2.647   3.504   3.818
 2324SOL    HW2 9326   2.659   3.511   3.912
 2324SOL    HW3 9327   2.725   3.545   3.780
 2324SOL    MW4 9328   2.658   3.510   3.825
 2325SOL     OW 9329   2.877   3.625   3.701
 2325SOL    HW2 9330   2.958   3.598   3.744
 2325SOL    HW3 9331   2.893   3.611   3.608
 2325SOL    MW4 9332   2.889   3.620   3.694
 2326SOL     OW 9333   2.912   3.889   3.793
 2326SOL    HW2 9334   2.929   3.888   3.888
 2326SOL    HW3 9335   2.902   3.797   3.769
 2326SOL    MW4 9336   2.913   3.877   3.803
 2327SOL     OW 9337   2.655   3.986   3.714
 2327SOL    HW2 9338   2.646   4.060   3.775
 2327SOL    HW3 9339   2.735   3.942   3.742
 2327SOL    MW4 9340   2.664   3.990   3.726
 2328SOL     OW 9341   2.636   4.213   3.871
 2328SOL    HW2 9342   2.717   4.257   3.845
 2328SOL    HW3 9343   2.566   4.268   3.836
 2328SOL    MW4 9344   2.638   4.226   3.863
 2329SOL     OW 9345   2.843   4.393   3.825
 2329SOL    HW2 9346   2.927   4.351   3.846
 2329SOL    HW3 9347   2.859   4.486   3.840
 2329SOL    MW4 9348   2.856   4.400   3.830
 2330SOL     OW 9349   3.328   4.637   3.898
 2330SOL    HW2 9350   3.332   4.648   3.993
 2330SOL    HW3 9351   3.412   4.673   3.867
 2330SOL    MW4 9352   3.340   4.643   3.906
 2331SOL     OW 9353   3.125   0.137   3.796
 2331SOL    HW2 9354   3.198   0.084   3.828
 2331SOL    HW3 9355   3.127   0.125   3.701
 2331SOL    MW4 9356   3.135   0.129   3.788
 2332SOL     OW 9357   3.115   0.381   3.904
 2332SOL    HW2 9358   3.108   0.379   3.999
 2332SOL    HW3 9359   3.121   0.289   3.878
 2332SOL    MW4 9360   3.115   0.369   3.913
 2333SOL     OW 9361   3.344   0.472   3.804
 2333SOL    HW2 9362   3.419   0.436   3.852
 2333SOL    HW3 9363   3.267   0.438   3.850
 2333SOL    MW4 9364   3.344   0.463   3.816
 2334SOL     OW 9365   3.361   0.739   3.855
 2334SOL    HW2 9366   3.363   0.727   3.950
 2334SOL    HW3 9367   3.352   0.650   3.820
 2334SOL    MW4 9368   3.360   0.726   3.863
 2335SOL     OW 9369   3.133   0.853   3.765
 2335SOL    HW2 9370   3.208   0.803   3.796
 2335SOL    HW3 9371   3.148   0.862   3.670
 2335SOL    MW4 9372   3.145   0.847   3.756
 2336SOL     OW 9373   3.130   1.102   3.899
 2336SOL    HW2 9374   3.126   1.022   3.845
 2336SOL    HW3 9375   3.046   1.144   3.886
 2336SOL    MW4 9376   3.119   1.097   3.890
 2337SOL     OW 9377   3.346   1.259   3.791
 2337SOL    HW2 9378   3.267   1.209   3.813
 2337SOL    HW3 9379   3.347   1.262   3.695
 2337SOL    MW4 9380   3.336   1.253   3.781
 2338SOL     OW 9381   3.332   1.528   3.866
 2338SOL    HW2 9382   3.251   1.568   3.835
 2338SOL    HW3 9383   3.326   1.437   3.839
 2338SOL    MW4 9384   3.321   1.521   3.858
 2339SOL     OW 9385   3.105   1.670   3.784
 2339SOL    HW2 9386   3.092   1.762   3.805
 2339SOL    HW3 9387   3.115   1.668   3.689
 2339SOL    MW4 9388   3.104   1.682   3.774
 2340SOL     OW 9389   3.080   1.943   3.859
 2340SOL    HW2 9390   3.065   1.966   3.950
 2340SOL    HW3 9391   3.014   1.993   3.810
 2340SOL    MW4 9392   3.070   1.953   3.864
 2341SOL     OW 9393   3.334   2.091   3.794
 2341SOL    HW2 9394   3.256   2.042   3.821
 2341SOL    HW3 9395   3.336   2.082   3.698
 2341SOL    MW4 9396   3.324   2.083   3.785
 2342SOL     OW 9397   3.325   2.391   3.844
 2342SOL    HW2 9398   3.245   2.425   3.804
 2342SOL    HW3 9399   3.322   2.297   3.829
 2342SOL    MW4 9400   3.314   2.383   3.837
 2343SOL     OW 9401   3.074   2.471   3.768
 2343SOL    HW2 9402   3.082   2.562   3.797
 2343SOL    HW3 9403   3.103   2.473   3.677
 2343SOL    MW4 9404   3.079   2.483   3.760
 2344SOL     OW 9405   3.135   2.714   3.897
 2344SOL    HW2 9406   3.118   2.695   3.990
 2344SOL    HW3 9407   3.067   2.777   3.873
 2344SOL    MW4 9408   3.124   2.720   3.906
 2345SOL     OW 9409   3.371   2.845   3.756
 2345SOL    HW2 9410   3.306   2.782   3.785
 2345SOL    HW3 9411   3.358   2.852   3.661
 2345SOL    MW4 9412   3.360   2.838   3.747
 2346SOL     OW 9413   3.349   3.108   3.850
 2346SOL    HW2 9414   3.431   3.149   3.824
 2346SOL    HW3 9415   3.353   3.019   3.814
 2346SOL    MW4 9416   3.360   3.102   3.842
 2347SOL     OW 9417   3.111   3.186   3.749
 2347SOL    HW2 9418   3.186   3.140   3.787
 2347SOL    HW3 9419   3.124   3.180   3.655
 2347SOL    MW4 9420   3.122   3.179   3.742
 2348SOL     OW 9421   3.090   3.484   3.810
 2348SOL    HW2 9422   3.183   3.506   3.801
 2348SOL    HW3 9423   3.087   3.390   3.795
 2348SOL    MW4 9424   3.102   3.475   3.807
 2349SOL     OW 9425   3.321   3.638   3.772
 2349SOL    HW2 9426   3.316   3.729   3.800
 2349SOL    HW3 9427   3.320   3.642   3.676
 2349SOL    MW4 9428   3.320   3.650   3.763
 2350SOL     OW 9429   3.352   3.888   3.877
 2350SOL    HW2 9430   3.432   3.927   3.842
 2350SOL    HW3 9431   3.283   3.951   3.853
 2350SOL    MW4 9432   3.353   3.902   3.869
 2351SOL     OW 9433   3.143   4.050   3.763
 2351SOL    HW2 9434   3.131   4.130   3.814
 2351SOL    HW3 9435   3.060   4.004   3.771
 2351SOL    MW4 9436   3.131   4.055   3.771
 2352SOL     OW 9437   3.096   4.306   3.866
 2352SOL    HW2 9438   3.122   4.305   3.958
 2352SOL    HW3 9439   3.177   4.324   3.818
 2352SOL    MW4 9440   3.110   4.308   3.872
 2353SOL     OW 9441   3.347   4.393   3.759
 2353SOL    HW2 9442   3.426   4.348   3.789
 2353SOL    HW3 9443   3.345   4.475   3.809
 2353SOL    MW4 9444   3.357   4.398   3.770
 2354SOL     OW 9445   3.821   4.623   3.933
 2354SOL    HW2 9446   3.899   4.669   3.901
 2354SOL    HW3 9447   3.832   4.533   3.904
 2354SOL    MW4 9448   3.833   4.617   3.925
 2355SOL     OW 9449   3.592   0.061   3.812
 2355SOL    HW2 9450   3.678   0.038   3.849
 2355SOL    HW3 9451   3.605   0.058   3.718
 2355SOL    MW4 9452   3.605   0.057   3.805
 2356SOL     OW 9453   3.566   0.336   3.901
 2356SOL    HW2 9454   3.646   0.376   3.867
 2356SOL    HW3 9455   3.563   0.250   3.859
 2356SOL    MW4 9456   3.576   0.330   3.891
 2357SOL     OW 9457   3.809   0.448   3.794
 2357SOL    HW2 9458   3.887   0.409   3.833
 2357SOL    HW3 9459   3.825   0.542   3.797
 2357SOL    MW4 9460   3.822   0.455   3.799
 2358SOL     OW 9461   3.801   0.732   3.764
 2358SOL    HW2 9462   3.876   0.791   3.771
 2358SOL    HW3 9463   3.726   0.791   3.749
 2358SOL    MW4 9464   3.801   0.748   3.763
 2359SOL     OW 9465   3.571   0.876   3.759
 2359SOL    HW2 9466   3.571   0.960   3.804
 2359SOL    HW3 9467   3.490   0.833   3.788
 2359SOL    MW4 9468   3.560   0.881   3.768
 2360SOL     OW 9469   3.573   1.127   3.874
 2360SOL    HW2 9470   3.635   1.180   3.824
 2360SOL    HW3 9471   3.490   1.174   3.866
 2360SOL    MW4 9472   3.570   1.140   3.867
 2361SOL     OW 9473   3.797   1.270   3.761
 2361SOL    HW2 9474   3.849   1.230   3.832
 2361SOL    HW3 9475   3.798   1.364   3.781
 2361SOL    MW4 9476   3.804   1.277   3.773
 2362SOL     OW 9477   3.775   1.532   3.834
 2362SOL    HW2 9478   3.774   1.528   3.929
 2362SOL    HW3 9479   3.697   1.583   3.810
 2362SOL    MW4 9480   3.765   1.538   3.843
 2363SOL     OW 9481   3.537   1.707   3.774
 2363SOL    HW2 9482   3.487   1.632   3.805
 2363SOL    HW3 9483   3.544   1.694   3.679
 2363SOL    MW4 9484   3.531   1.696   3.765
 2364SOL     OW 9485   3.575   1.974   3.841
 2364SOL    HW2 9486   3.564   1.883   3.814
 2364SOL    HW3 9487   3.493   2.016   3.818
 2364SOL    MW4 9488   3.563   1.968   3.834
 2365SOL     OW 9489   3.835   2.055   3.782
 2365SOL    HW2 9490   3.901   1.986   3.790
 2365SOL    HW3 9491   3.754   2.014   3.814
 2365SOL    MW4 9492   3.833   2.040   3.788
 2366SOL     OW 9493   3.804   2.313   3.872
 2366SOL    HW2 9494   3.727   2.354   3.834
 2366SOL    HW3 9495   3.811   2.228   3.828
 2366SOL    MW4 9496   3.795   2.307   3.861
 2367SOL     OW 9497   3.587   2.446   3.773
 2367SOL    HW2 9498   3.499   2.439   3.808
 2367SOL    HW3 9499   3.576   2.447   3.678
 2367SOL    MW4 9500   3.574   2.445   3.765
 2368SOL     OW 9501   3.596   2.718   3.850
 2368SOL    HW2 9502   3.593   2.630   3.812
 2368SOL    HW3 9503   3.519   2.762   3.814
 2368SOL    MW4 9504   3.585   2.712   3.840
 2369SOL     OW 9505   3.843   2.834   3.742
 2369SOL    HW2 9506   3.906   2.763   3.755
 2369SOL    HW3 9507   3.764   2.805   3.789
 2369SOL    MW4 9508   3.841   2.821   3.750
 2370SOL     OW 9509   3.838   3.111   3.831
 2370SOL    HW2 9510   3.748   3.134   3.809
 2370SOL    HW3 9511   3.843   3.017   3.813
 2370SOL    MW4 9512   3.827   3.101   3.826
 2371SOL     OW 9513   3.581   3.220   3.758
 2371SOL    HW2 9514   3.570   3.313   3.777
 2371SOL    HW3 9515   3.592   3.217   3.662
 2371SOL    MW4 9516   3.581   3.232   3.748
 2372SOL     OW 9517   3.568   3.485   3.853
 2372SOL    HW2 9518   3.563   3.459   3.945
 2372SOL    HW3 9519   3.483   3.527   3.836
 2372SOL    MW4 9520   3.556   3.487   3.863
 2373SOL     OW 9521   3.813   3.636   3.750
 2373SOL    HW2 9522   3.804   3.720   3.796
 2373SOL    HW3 9523   3.736   3.586   3.777
 2373SOL    MW4 9524   3.802   3.641   3.760
 2374SOL     OW 9525   3.812   3.883   3.873
 2374SOL    HW2 9526   3.810   3.886   3.969
 2374SOL    HW3 9527   3.881   3.945   3.849
 2374SOL    MW4 9528   3.821   3.891   3.882
 2375SOL     OW 9529   3.591   3.990   3.749
 2375SOL    HW2 9530   3.604   4.083   3.769
 2375SOL    HW3 9531   3.659   3.945   3.799
 2375SOL    MW4 9532   3.601   3.997   3.758
 2376SOL     OW 9533   3.605   4.259   3.851
 2376SOL    HW2 9534   3.604   4.256   3.947
 2376SOL    HW3 9535   3.688   4.301   3.829
 2376SOL    MW4 9536   3.616   4.264   3.861
 2377SOL     OW 9537   3.837   4.398   3.796
 2377SOL    HW2 9538   3.917   4.354   3.824
 2377SOL    HW3 9539   3.850   4.413   3.702
 2377SOL    MW4 9540   3.849   4.394   3.787
 2378SOL     OW 9541   4.282   4.653   3.870
 2378SOL    HW2 9542   4.258   4.644   3.962
 2378SOL    HW3 9543   4.355   4.716   3.870
 2378SOL    MW4 9544   4.289   4.660   3.882
 2379SOL     OW 9545   4.047   0.110   3.789
 2379SOL    HW2 9546   4.131   0.074   3.817
 2379SOL    HW3 9547   4.057   0.127   3.695
 2379SOL    MW4 9548   4.059   0.107   3.780
 2380SOL     OW 9549   4.084   0.375   3.875
 2380SOL    HW2 9550   4.072   0.367   3.970
 2380SOL    HW3 9551   4.082   0.285   3.843
 2380SOL    MW4 9552   4.082   0.362   3.883
 2381SOL     OW 9553   4.309   0.530   3.833
 2381SOL    HW2 9554   4.227   0.483   3.840
 2381SOL    HW3 9555   4.317   0.550   3.739
 2381SOL    MW4 9556   4.300   0.526   3.821
 2382SOL     OW 9557   4.273   0.798   3.887
 2382SOL    HW2 9558   4.182   0.822   3.866
 2382SOL    HW3 9559   4.278   0.704   3.869
 2382SOL    MW4 9560   4.261   0.789   3.882
 2383SOL     OW 9561   4.026   0.895   3.803
 2383SOL    HW2 9562   4.010   0.984   3.833
 2383SOL    HW3 9563   4.055   0.905   3.713
 2383SOL    MW4 9564   4.027   0.908   3.795
 2384SOL     OW 9565   4.029   1.149   3.904
 2384SOL    HW2 9566   4.054   1.153   3.996
 2384SOL    HW3 9567   4.097   1.198   3.858
 2384SOL    MW4 9568   4.041   1.156   3.910
 2385SOL     OW 9569   4.231   1.308   3.785
 2385SOL    HW2 9570   4.238   1.401   3.809
 2385SOL    HW3 9571   4.231   1.309   3.689
 2385SOL    MW4 9572   4.232   1.321   3.776
 2386SOL     OW 9573   4.252   1.563   3.878
 2386SOL    HW2 9574   4.166   1.587   3.846
 2386SOL    HW3 9575   4.314   1.612   3.824
 2386SOL    MW4 9576   4.249   1.572   3.867
 2387SOL     OW 9577   4.015   1.626   3.733
 2387SOL    HW2 9578   4.013   1.718   3.759
 2387SOL    HW3 9579   3.940   1.587   3.777
 2387SOL    MW4 9580   4.005   1.633   3.742
 2388SOL     OW 9581   4.055   1.880   3.838
 2388SOL    HW2 9582   4.034   1.917   3.924
 2388SOL    HW3 9583   4.134   1.926   3.811
 2388SOL    MW4 9584   4.062   1.891   3.846
 2389SOL     OW 9585   4.265   2.020   3.739
 2389SOL    HW2 9586   4.245   2.107   3.774
 2389SOL    HW3 9587   4.272   2.034   3.645
 2389SOL    MW4 9588   4.263   2.034   3.731
 2390SOL     OW 9589   4.215   2.271   3.863
 2390SOL    HW2 9590   4.200   2.270   3.957
 2390SOL    HW3 9591   4.140   2.320   3.828
 2390SOL    MW4 9592   4.203   2.277   3.871
 2391SOL     OW 9593   4.030   2.419   3.711
 2391SOL    HW2 9594   4.056   2.508   3.735
 2391SOL    HW3 9595   3.957   2.398   3.768
 2391SOL    MW4 9596   4.024   2.428   3.721
 2392SOL     OW 9597   4.064   2.672   3.794
 2392SOL    HW2 9598   4.042   2.697   3.884
 2392SOL    HW3 9599   4.151   2.711   3.779
 2392SOL    MW4 9600   4.073   2.681   3.804
 2393SOL     OW 9601   4.306   2.776   3.742
 2393SOL    HW2 9602   4.304   2.867   3.771
 2393SOL    HW3 9603   4.389   2.742   3.776
 2393SOL    MW4 9604   4.317   2.784   3.750
 2394SOL     OW 9605   4.284   3.064   3.816
 2394SOL    HW2 9606   4.201   3.106   3.795
 2394SOL    HW3 9607   4.350   3.128   3.790
 2394SOL    MW4 9608   4.282   3.078   3.810
 2395SOL     OW 9609   4.063   3.224   3.757
 2395SOL    HW2 9610   3.980   3.187   3.786
 2395SOL    HW3 9611   4.062   3.212   3.662
 2395SOL    MW4 9612   4.052   3.217   3.748
 2396SOL     OW 9613   4.042   3.512   3.873
 2396SOL    HW2 9614   4.054   3.429   3.827
 2396SOL    HW3 9615   3.961   3.548   3.837
 2396SOL    MW4 9616   4.033   3.506   3.862
 2397SOL     OW 9617   4.257   3.662   3.764
 2397SOL    HW2 9618   4.183   3.626   3.812
 2397SOL    HW3 9619   4.332   3.608   3.790
 2397SOL    MW4 9620   4.257   3.650   3.774
 2398SOL     OW 9621   4.237   3.914   3.862
 2398SOL    HW2 9622   4.156   3.952   3.828
 2398SOL    HW3 9623   4.240   3.826   3.823
 2398SOL    MW4 9624   4.226   3.907   3.852
 2399SOL     OW 9625   3.995   4.035   3.755
 2399SOL    HW2 9626   4.032   4.116   3.790
 2399SOL    HW3 9627   4.019   4.036   3.662
 2399SOL    MW4 9628   4.003   4.046   3.747
 2400SOL     OW 9629   4.069   4.282   3.863
 2400SOL    HW2 9630   4.084   4.288   3.958
 2400SOL    HW3 9631   4.143   4.329   3.824
 2400SOL    MW4 9632   4.081   4.289   3.871
 2401SOL     OW 9633   4.300   4.415   3.749
 2401SOL    HW2 9634   4.298   4.505   3.781
 2401SOL    HW3 9635   4.352   4.367   3.814
 2401SOL    MW4 9636   4.306   4.421   3.762
 2402SOL     OW 9637   0.283   4.617   4.103
 2402SOL    HW2 9638   0.339   4.677   4.153
 2402SOL    HW3 9639   0.240   4.563   4.170
 2402SOL    MW4 9640   0.285   4.617   4.119
 2403SOL     OW 9641   0.038   0.089   4.208
 2403SOL    HW2 9642   0.032   0.089   4.304
 2403SOL    HW3 9643   0.131   0.079   4.189
 2403SOL    MW4 9644   0.049   0.088   4.218
 2404SOL     OW 9645   0.009   0.368   4.181
 2404SOL    HW2 9646   0.010   0.274   4.197
 2404SOL    HW3 9647   0.017   0.377   4.086
 2404SOL    MW4 9648   0.010   0.357   4.171
 2405SOL     OW 9649   0.248   0.557   4.228
 2405SOL    HW2 9650   0.304   0.496   4.180
 2405SOL    HW3 9651   0.161   0.517   4.225
 2405SOL    MW4 9652   0.244   0.544   4.221
 2406SOL     OW 9653   0.227   0.822   4.125
 2406SOL    HW2 9654   0.163   0.870   4.177
 2406SOL    HW3 9655   0.211   0.730   4.147
 2406SOL    MW4 9656   0.216   0.816   4.135
 2407SOL     OW 9657   0.006   0.909   4.292
 2407SOL    HW2 9658  -0.069   0.868   4.247
 2407SOL    HW3 9659   0.002   1.001   4.265
 2407SOL    MW4 9660  -0.005   0.916   4.283
 2408SOL     OW 9661   4.472   1.161   4.178
 2408SOL    HW2 9662   4.560   1.199   4.176
 2408SOL    HW3 9663   4.445   1.157   4.086
 2408SOL    MW4 9664   4.480   1.166   4.165
 2409SOL     OW 9665   0.227   1.265   4.214
 2409SOL    HW2 9666   0.231   1.269   4.310
 2409SOL    HW3 9667   0.310   1.225   4.189
 2409SOL    MW4 9668   0.239   1.261   4.224
 2410SOL     OW 9669   0.527   1.951   4.658
 2410SOL    HW2 9670   0.487   2.030   4.624
 2410SOL    HW3 9671   0.469   1.880   4.631
 2410SOL    MW4 9672   0.514   1.952   4.650
 2411SOL     OW 9673   0.041   1.704   4.219
 2411SOL    HW2 9674  -0.047   1.666   4.215
 2411SOL    HW3 9675   0.030   1.793   4.183
 2411SOL    MW4 9676   0.028   1.711   4.213
 2412SOL     OW 9677   0.244   2.067   4.213
 2412SOL    HW2 9678   0.258   2.100   4.301
 2412SOL    HW3 9679   0.327   2.028   4.188
 2412SOL    MW4 9680   0.257   2.066   4.221
 2413SOL     OW 9681   0.468   1.474   4.616
 2413SOL    HW2 9682   0.452   1.566   4.592
 2413SOL    HW3 9683   0.499   1.478   4.706
 2413SOL    MW4 9684   0.470   1.487   4.625
 2414SOL     OW 9685   0.204   2.309   4.060
 2414SOL    HW2 9686   0.266   2.367   4.105
 2414SOL    HW3 9687   0.219   2.223   4.098
 2414SOL    MW4 9688   0.214   2.306   4.071
 2415SOL     OW 9689   0.007   2.457   4.172
 2415SOL    HW2 9690  -0.079   2.417   4.159
 2415SOL    HW3 9691   0.069   2.395   4.134
 2415SOL    MW4 9692   0.004   2.443   4.166
 2416SOL     OW 9693   4.482   2.727   4.110
 2416SOL    HW2 9694   4.539   2.779   4.168
 2416SOL    HW3 9695   4.477   2.642   4.152
 2416SOL    MW4 9696   4.489   2.723   4.124
 2417SOL     OW 9697   0.199   2.849   4.248
 2417SOL    HW2 9698   0.258   2.796   4.194
 2417SOL    HW3 9699   0.217   2.939   4.222
 2417SOL    MW4 9700   0.209   2.854   4.237
 2418SOL     OW 9701   0.214   3.099   4.113
 2418SOL    HW2 9702   0.283   3.159   4.143
 2418SOL    HW3 9703   0.132   3.140   4.141
 2418SOL    MW4 9704   0.212   3.112   4.121
 2419SOL     OW 9705   4.482   3.245   4.203
 2419SOL    HW2 9706   4.411   3.193   4.166
 2419SOL    HW3 9707   4.483   3.325   4.151
 2419SOL    MW4 9708   4.473   3.249   4.192
 2420SOL     OW 9709   0.008   3.498   4.111
 2420SOL    HW2 9710  -0.074   3.539   4.139
 2420SOL    HW3 9711   0.009   3.509   4.016
 2420SOL    MW4 9712  -0.003   3.505   4.103
 2421SOL     OW 9713   0.237   3.614   4.218
 2421SOL    HW2 9714   0.302   3.556   4.179
 2421SOL    HW3 9715   0.154   3.583   4.182
 2421SOL    MW4 9716   0.235   3.602   4.209
 2422SOL     OW 9717   0.032   3.971   4.193
 2422SOL    HW2 9718  -0.054   3.940   4.165
 2422SOL    HW3 9719   0.042   3.938   4.282
 2422SOL    MW4 9720   0.022   3.962   4.201
 2423SOL     OW 9721   0.047   3.856   4.462
 2423SOL    HW2 9722   0.105   3.786   4.493
 2423SOL    HW3 9723  -0.037   3.838   4.504
 2423SOL    MW4 9724   0.044   3.844   4.471
 2424SOL     OW 9725   4.480   4.246   4.171
 2424SOL    HW2 9726   4.505   4.156   4.189
 2424SOL    HW3 9727   4.497   4.257   4.077
 2424SOL    MW4 9728   4.485   4.236   4.161
 2425SOL     OW 9729   0.215   4.406   4.287
 2425SOL    HW2 9730   0.208   4.430   4.379
 2425SOL    HW3 9731   0.133   4.362   4.267
 2425SOL    MW4 9732   0.203   4.404   4.296
 2426SOL     OW 9733   0.633   4.640   4.104
 2426SOL    HW2 9734   0.552   4.690   4.119
 2426SOL    HW3 9735   0.651   4.653   4.011
 2426SOL    MW4 9736   0.624   4.649   4.094
 2427SOL     OW 9737   0.435   0.153   4.223
 2427SOL    HW2 9738   0.474   0.179   4.306
 2427SOL    HW3 9739   0.412   0.236   4.180
 2427SOL    MW4 9740   0.437   0.168   4.228
 2428SOL     OW 9741   0.418   0.393   4.073
 2428SOL    HW2 9742   0.505   0.413   4.107
 2428SOL    HW3 9743   0.431   0.381   3.978
 2428SOL    MW4 9744   0.431   0.394   4.065
 2429SOL     OW 9745   0.649   0.448   4.179
 2429SOL    HW2 9746   0.735   0.416   4.153
 2429SOL    HW3 9747   0.654   0.543   4.171
 2429SOL    MW4 9748   0.661   0.456   4.174
 2430SOL     OW 9749   0.678   0.713   4.123
 2430SOL    HW2 9750   0.600   0.764   4.144
 2430SOL    HW3 9751   0.686   0.719   4.028
 2430SOL    MW4 9752   0.668   0.721   4.113
 2431SOL     OW 9753   0.484   0.899   4.203
 2431SOL    HW2 9754   0.494   0.986   4.164
 2431SOL    HW3 9755   0.395   0.872   4.178
 2431SOL    MW4 9756   0.473   0.907   4.194
 2432SOL     OW 9757   0.486   1.164   4.110
 2432SOL    HW2 9758   0.553   1.229   4.134
 2432SOL    HW3 9759   0.486   1.164   4.014
 2432SOL    MW4 9760   0.495   1.173   4.101
 2433SOL     OW 9761   0.702   1.340   4.197
 2433SOL    HW2 9762   0.709   1.367   4.289
 2433SOL    HW3 9763   0.677   1.420   4.151
 2433SOL    MW4 9764   0.699   1.354   4.203
 2434SOL     OW 9765   0.677   1.599   4.104
 2434SOL    HW2 9766   0.753   1.648   4.137
 2434SOL    HW3 9767   0.696   1.587   4.011
 2434SOL    MW4 9768   0.690   1.604   4.096
 2435SOL     OW 9769   0.259   1.544   4.144
 2435SOL    HW2 9770   0.238   1.451   4.158
 2435SOL    HW3 9771   0.188   1.591   4.188
 2435SOL    MW4 9772   0.247   1.538   4.152
 2436SOL     OW 9773   0.467   1.922   4.122
 2436SOL    HW2 9774   0.471   1.832   4.155
 2436SOL    HW3 9775   0.484   1.914   4.028
 2436SOL    MW4 9776   0.469   1.909   4.114
 2437SOL     OW 9777   0.688   2.074   4.167
 2437SOL    HW2 9778   0.680   2.087   4.261
 2437SOL    HW3 9779   0.604   2.035   4.141
 2437SOL    MW4 9780   0.676   2.070   4.176
 2438SOL     OW 9781   0.650   2.347   4.078
 2438SOL    HW2 9782   0.659   2.253   4.095
 2438SOL    HW3 9783   0.658   2.356   3.983
 2438SOL    MW4 9784   0.652   2.336   4.068
 2439SOL     OW 9785   0.408   2.461   4.168
 2439SOL    HW2 9786   0.418   2.552   4.139
 2439SOL    HW3 9787   0.489   2.418   4.139
 2439SOL    MW4 9788   0.420   2.467   4.160
 2440SOL     OW 9789   0.413   2.723   4.087
 2440SOL    HW2 9790   0.485   2.772   4.126
 2440SOL    HW3 9791   0.425   2.733   3.993
 2440SOL    MW4 9792   0.424   2.731   4.080
 2441SOL     OW 9793   0.656   2.869   4.177
 2441SOL    HW2 9794   0.642   2.876   4.272
 2441SOL    HW3 9795   0.653   2.959   4.146
 2441SOL    MW4 9796   0.654   2.882   4.186
 2442SOL     OW 9797   0.641   3.120   4.073
 2442SOL    HW2 9798   0.719   3.161   4.110
 2442SOL    HW3 9799   0.568   3.174   4.105
 2442SOL    MW4 9800   0.641   3.133   4.082
 2443SOL     OW 9801   0.445   3.251   4.207
 2443SOL    HW2 9802   0.456   3.291   4.294
 2443SOL    HW3 9803   0.425   3.325   4.149
 2443SOL    MW4 9804   0.444   3.266   4.211
 2444SOL     OW 9805   0.423   3.470   4.064
 2444SOL    HW2 9806   0.498   3.522   4.093
 2444SOL    HW3 9807   0.405   3.502   3.975
 2444SOL    MW4 9808   0.430   3.481   4.056
 2445SOL     OW 9809   0.914   3.630   4.443
 2445SOL    HW2 9810   0.829   3.612   4.483
 2445SOL    HW3 9811   0.909   3.589   4.357
 2445SOL    MW4 9812   0.902   3.622   4.437
 2446SOL     OW 9813   0.602   3.637   4.210
 2446SOL    HW2 9814   0.612   3.724   4.172
 2446SOL    HW3 9815   0.689   3.598   4.205
 2446SOL    MW4 9816   0.615   3.643   4.205
 2447SOL     OW 9817   0.598   3.908   4.132
 2447SOL    HW2 9818   0.656   3.964   4.184
 2447SOL    HW3 9819   0.512   3.947   4.143
 2447SOL    MW4 9820   0.595   3.920   4.141
 2448SOL     OW 9821   0.453   4.281   4.199
 2448SOL    HW2 9822   0.369   4.324   4.215
 2448SOL    HW3 9823   0.453   4.262   4.106
 2448SOL    MW4 9824   0.442   4.284   4.189
 2449SOL     OW 9825   0.630   4.453   4.308
 2449SOL    HW2 9826   0.564   4.389   4.280
 2449SOL    HW3 9827   0.636   4.515   4.236
 2449SOL    MW4 9828   0.622   4.453   4.295
 2450SOL     OW 9829   1.103   4.630   4.064
 2450SOL    HW2 9830   1.074   4.539   4.061
 2450SOL    HW3 9831   1.104   4.658   3.973
 2450SOL    MW4 9832   1.099   4.622   4.052
 2451SOL     OW 9833   0.887   0.085   4.235
 2451SOL    HW2 9834   0.953   0.047   4.178
 2451SOL    HW3 9835   0.804   0.049   4.204
 2451SOL    MW4 9836   0.885   0.075   4.224
 2452SOL     OW 9837   0.893   0.339   4.111
 2452SOL    HW2 9838   0.964   0.390   4.150
 2452SOL    HW3 9839   0.893   0.257   4.159
 2452SOL    MW4 9840   0.902   0.335   4.122
 2453SOL     OW 9841   1.108   0.488   4.208
 2453SOL    HW2 9842   1.114   0.478   4.303
 2453SOL    HW3 9843   1.188   0.447   4.175
 2453SOL    MW4 9844   1.119   0.481   4.216
 2454SOL     OW 9845   1.120   0.742   4.113
 2454SOL    HW2 9846   1.185   0.781   4.171
 2454SOL    HW3 9847   1.127   0.648   4.129
 2454SOL    MW4 9848   1.129   0.735   4.123
 2455SOL     OW 9849   0.879   0.868   4.219
 2455SOL    HW2 9850   0.960   0.821   4.200
 2455SOL    HW3 9851   0.811   0.818   4.173
 2455SOL    MW4 9852   0.881   0.855   4.210
 2456SOL     OW 9853   0.908   1.146   4.172
 2456SOL    HW2 9854   0.887   1.060   4.211
 2456SOL    HW3 9855   0.838   1.203   4.202
 2456SOL    MW4 9856   0.896   1.142   4.181
 2457SOL     OW 9857   1.125   1.311   4.192
 2457SOL    HW2 9858   1.151   1.318   4.283
 2457SOL    HW3 9859   1.047   1.256   4.193
 2457SOL    MW4 9860   1.118   1.305   4.204
 2458SOL     OW 9861   1.141   1.558   4.090
 2458SOL    HW2 9862   1.069   1.616   4.115
 2458SOL    HW3 9863   1.130   1.480   4.145
 2458SOL    MW4 9864   1.130   1.555   4.101
 2459SOL     OW 9865   0.923   1.704   4.205
 2459SOL    HW2 9866   0.900   1.700   4.298
 2459SOL    HW3 9867   0.921   1.797   4.184
 2459SOL    MW4 9868   0.920   1.716   4.215
 2460SOL     OW 9869   0.923   1.965   4.095
 2460SOL    HW2 9870   0.841   2.008   4.116
 2460SOL    HW3 9871   0.918   1.947   4.001
 2460SOL    MW4 9872   0.912   1.968   4.085
 2461SOL     OW 9873   1.106   2.124   4.222
 2461SOL    HW2 9874   1.093   2.117   4.316
 2461SOL    HW3 9875   1.037   2.069   4.184
 2461SOL    MW4 9876   1.095   2.116   4.229
 2462SOL     OW 9877   1.092   2.359   4.092
 2462SOL    HW2 9878   1.170   2.405   4.124
 2462SOL    HW3 9879   1.086   2.281   4.148
 2462SOL    MW4 9880   1.102   2.355   4.104
 2463SOL     OW 9881   0.866   2.491   4.168
 2463SOL    HW2 9882   0.947   2.445   4.147
 2463SOL    HW3 9883   0.798   2.446   4.119
 2463SOL    MW4 9884   0.868   2.479   4.159
 2464SOL     OW 9885   0.896   2.767   4.100
 2464SOL    HW2 9886   0.884   2.678   4.134
 2464SOL    HW3 9887   0.812   2.810   4.118
 2464SOL    MW4 9888   0.883   2.761   4.107
 2465SOL     OW 9889   1.128   2.878   4.202
 2465SOL    HW2 9890   1.122   2.969   4.174
 2465SOL    HW3 9891   1.054   2.834   4.160
 2465SOL    MW4 9892   1.117   2.884   4.193
 2466SOL     OW 9893   1.100   3.147   4.092
 2466SOL    HW2 9894   1.164   3.211   4.123
 2466SOL    HW3 9895   1.123   3.131   4.001
 2466SOL    MW4 9896   1.111   3.153   4.084
 2467SOL     OW 9897   0.862   3.243   4.171
 2467SOL    HW2 9898   0.869   3.217   4.263
 2467SOL    HW3 9899   0.939   3.205   4.129
 2467SOL    MW4 9900   0.873   3.235   4.178
 2468SOL     OW 9901   0.863   3.530   4.179
 2468SOL    HW2 9902   0.858   3.437   4.200
 2468SOL    HW3 9903   0.870   3.533   4.083
 2468SOL    MW4 9904   0.864   3.518   4.169
 2469SOL     OW 9905   0.999   3.901   4.357
 2469SOL    HW2 9906   0.911   3.935   4.343
 2469SOL    HW3 9907   0.986   3.816   4.398
 2469SOL    MW4 9908   0.986   3.895   4.360
 2470SOL     OW 9909   1.112   3.857   4.106
 2470SOL    HW2 9910   1.199   3.890   4.130
 2470SOL    HW3 9911   1.062   3.861   4.187
 2470SOL    MW4 9912   1.117   3.862   4.120
 2471SOL     OW 9913   0.759   4.064   4.319
 2471SOL    HW2 9914   0.787   4.155   4.303
 2471SOL    HW3 9915   0.695   4.071   4.390
 2471SOL    MW4 9916   0.754   4.077   4.326
 2472SOL     OW 9917   1.007   4.333   4.042
 2472SOL    HW2 9918   1.086   4.285   4.070
 2472SOL    HW3 9919   0.957   4.344   4.123
 2472SOL    MW4 9920   1.011   4.328   4.057
 2473SOL     OW 9921   1.027   4.458   4.523
 2473SOL    HW2 9922   1.085   4.533   4.532
 2473SOL    HW3 9923   1.081   4.383   4.547
 2473SOL    MW4 9924   1.042   4.458   4.527
 2474SOL     OW 9925   1.563   4.649   4.142
 2474SOL    HW2 9926   1.627   4.717   4.166
 2474SOL    HW3 9927   1.478   4.691   4.155
 2474SOL    MW4 9928   1.560   4.664   4.147
 2475SOL     OW 9929   1.324   0.102   4.187
 2475SOL    HW2 9930   1.319   0.126   4.280
 2475SOL    HW3 9931   1.244   0.052   4.171
 2475SOL    MW4 9932   1.313   0.098   4.197
 2476SOL     OW 9933   1.343   0.368   4.093
 2476SOL    HW2 9934   1.414   0.394   4.151
 2476SOL    HW3 9935   1.333   0.274   4.107
 2476SOL    MW4 9936   1.351   0.359   4.102
 2477SOL     OW 9937   1.544   0.489   4.292
 2477SOL    HW2 9938   1.534   0.519   4.382
 2477SOL    HW3 9939   1.553   0.569   4.240
 2477SOL    MW4 9940   1.544   0.503   4.297
 2478SOL     OW 9941   1.553   0.739   4.161
 2478SOL    HW2 9942   1.630   0.782   4.199
 2478SOL    HW3 9943   1.556   0.761   4.068
 2478SOL    MW4 9944   1.564   0.748   4.154
 2479SOL     OW 9945   1.333   0.867   4.259
 2479SOL    HW2 9946   1.340   0.953   4.218
 2479SOL    HW3 9947   1.410   0.819   4.227
 2479SOL    MW4 9948   1.344   0.872   4.249
 2480SOL     OW 9949   1.331   1.121   4.141
 2480SOL    HW2 9950   1.273   1.198   4.148
 2480SOL    HW3 9951   1.345   1.111   4.047
 2480SOL    MW4 9952   1.325   1.130   4.130
 2481SOL     OW 9953   1.551   1.282   4.192
 2481SOL    HW2 9954   1.565   1.299   4.285
 2481SOL    HW3 9955   1.476   1.221   4.189
 2481SOL    MW4 9956   1.543   1.276   4.204
 2482SOL     OW 9957   1.555   1.548   4.114
 2482SOL    HW2 9958   1.478   1.575   4.164
 2482SOL    HW3 9959   1.566   1.455   4.135
 2482SOL    MW4 9960   1.546   1.539   4.123
 2483SOL     OW 9961   1.317   1.714   4.230
 2483SOL    HW2 9962   1.331   1.801   4.193
 2483SOL    HW3 9963   1.255   1.672   4.170
 2483SOL    MW4 9964   1.311   1.720   4.217
 2484SOL     OW 9965   1.348   1.976   4.149
 2484SOL    HW2 9966   1.421   2.024   4.188
 2484SOL    HW3 9967   1.270   2.026   4.175
 2484SOL    MW4 9968   1.347   1.989   4.158
 2485SOL     OW 9969   1.558   2.110   4.236
 2485SOL    HW2 9970   1.642   2.071   4.213
 2485SOL    HW3 9971   1.567   2.202   4.211
 2485SOL    MW4 9972   1.570   2.117   4.230
 2486SOL     OW 9973   1.587   2.381   4.163
 2486SOL    HW2 9974   1.647   2.447   4.199
 2486SOL    HW3 9975   1.613   2.374   4.071
 2486SOL    MW4 9976   1.599   2.389   4.155
 2487SOL     OW 9977   1.566   2.877   4.180
 2487SOL    HW2 9978   1.591   2.834   4.262
 2487SOL    HW3 9979   1.637   2.858   4.120
 2487SOL    MW4 9980   1.578   2.869   4.183
 2488SOL     OW 9981   1.332   2.762   4.065
 2488SOL    HW2 9982   1.412   2.798   4.105
 2488SOL    HW3 9983   1.261   2.806   4.111
 2488SOL    MW4 9984   1.333   2.772   4.077
 2489SOL     OW 9985   1.714   2.374   4.533
 2489SOL    HW2 9986   1.680   2.413   4.613
 2489SOL    HW3 9987   1.761   2.297   4.562
 2489SOL    MW4 9988   1.716   2.369   4.547
 2490SOL     OW 9989   1.500   3.139   4.111
 2490SOL    HW2 9990   1.573   3.194   4.141
 2490SOL    HW3 9991   1.511   3.057   4.158
 2490SOL    MW4 9992   1.511   3.136   4.122
 2491SOL     OW 9993   1.286   3.314   4.204
 2491SOL    HW2 9994   1.364   3.269   4.174
 2491SOL    HW3 9995   1.289   3.399   4.159
 2491SOL    MW4 9996   1.296   3.320   4.194
 2492SOL     OW 9997   1.292   3.568   4.073
 2492SOL    HW2 9998   1.224   3.629   4.101
 2492SOL    HW3 9999   1.286   3.567   3.978
 2492SOL    MW410000   1.282   3.576   4.064
 2493SOL     OW10001   1.532   3.665   4.241
 2493SOL    HW210002   1.536   3.659   4.336
 2493SOL    HW310003   1.443   3.639   4.219
 2493SOL    MW410004   1.521   3.661   4.251
 2494SOL     OW10005   1.602   3.907   4.133
 2494SOL    HW210006   1.516   3.948   4.141
 2494SOL    HW310007   1.589   3.818   4.166
 2494SOL    MW410008   1.589   3.900   4.138
 2495SOL     OW10009   1.341   3.994   4.197
 2495SOL    HW210010   1.309   3.987   4.286
 2495SOL    HW310011   1.317   4.083   4.170
 2495SOL    MW410012   1.334   4.005   4.205
 2496SOL     OW10013   1.271   4.246   4.129
 2496SOL    HW210014   1.328   4.297   4.187
 2496SOL    HW310015   1.288   4.281   4.041
 2496SOL    MW410016   1.281   4.257   4.125
 2497SOL     OW10017   1.517   4.404   4.250
 2497SOL    HW210018   1.532   4.487   4.206
 2497SOL    HW310019   1.566   4.340   4.199
 2497SOL    MW410020   1.525   4.406   4.238
 2498SOL     OW10021   1.993   4.649   4.165
 2498SOL    HW210022   1.917   4.697   4.198
 2498SOL    HW310023   1.988   4.661   4.070
 2498SOL    MW410024   1.982   4.657   4.156
 2499SOL     OW10025   1.779   0.151   4.236
 2499SOL    HW210026   1.762   0.169   4.329
 2499SOL    HW310027   1.758   0.234   4.192
 2499SOL    MW410028   1.774   0.165   4.242
 2500SOL     OW10029   1.732   0.380   4.113
 2500SOL    HW210030   1.812   0.422   4.146
 2500SOL    HW310031   1.662   0.412   4.170
 2500SOL    MW410032   1.734   0.390   4.125
 2501SOL     OW10033   1.954   0.468   4.206
 2501SOL    HW210034   1.921   0.459   4.295
 2501SOL    HW310035   2.046   0.440   4.212
 2501SOL    MW410036   1.962   0.463   4.219
 2502SOL     OW10037   1.971   0.744   4.138
 2502SOL    HW210038   2.028   0.783   4.204
 2502SOL    HW310039   1.962   0.652   4.166
 2502SOL    MW410040   1.977   0.737   4.151
 2503SOL     OW10041   1.776   0.866   4.263
 2503SOL    HW210042   1.770   0.959   4.244
 2503SOL    HW310043   1.843   0.833   4.204
 2503SOL    MW410044   1.784   0.874   4.253
 2504SOL     OW10045   1.810   1.151   4.168
 2504SOL    HW210046   1.875   1.210   4.206
 2504SOL    HW310047   1.726   1.192   4.189
 2504SOL    MW410048   1.807   1.164   4.175
 2505SOL     OW10049   1.982   1.331   4.322
 2505SOL    HW210050   2.054   1.274   4.297
 2505SOL    HW310051   1.979   1.398   4.254
 2505SOL    MW410052   1.991   1.333   4.310
 2506SOL     OW10053   1.992   1.552   4.152
 2506SOL    HW210054   2.057   1.602   4.202
 2506SOL    HW310055   2.022   1.558   4.062
 2506SOL    MW410056   2.005   1.559   4.147
 2507SOL     OW10057   1.756   1.687   4.227
 2507SOL    HW210058   1.836   1.643   4.201
 2507SOL    HW310059   1.686   1.638   4.183
 2507SOL    MW410060   1.757   1.674   4.218
 2508SOL     OW10061   1.789   1.973   4.142
 2508SOL    HW210062   1.759   1.884   4.161
 2508SOL    HW310063   1.869   1.982   4.194
 2508SOL    MW410064   1.796   1.962   4.152
 2509SOL     OW10065   1.772   2.541   4.326
 2509SOL    HW210066   1.766   2.498   4.412
 2509SOL    HW310067   1.863   2.569   4.320
 2509SOL    MW410068   1.783   2.539   4.337
 2510SOL     OW10069   2.470   2.349   4.194
 2510SOL    HW210070   2.443   2.363   4.103
 2510SOL    HW310071   2.441   2.429   4.239
 2510SOL    MW410072   2.462   2.361   4.188
 2511SOL     OW10073   1.688   3.039   4.440
 2511SOL    HW210074   1.666   2.946   4.438
 2511SOL    HW310075   1.762   3.047   4.380
 2511SOL    MW410076   1.695   3.028   4.432
 2512SOL     OW10077   1.819   2.831   4.092
 2512SOL    HW210078   1.892   2.788   4.135
 2512SOL    HW310079   1.855   2.913   4.060
 2512SOL    MW410080   1.833   2.836   4.093
 2513SOL     OW10081   1.925   3.073   4.292
 2513SOL    HW210082   2.003   3.049   4.343
 2513SOL    HW310083   1.948   3.052   4.202
 2513SOL    MW410084   1.939   3.067   4.287
 2514SOL     OW10085   2.251   2.910   4.072
 2514SOL    HW210086   2.301   2.990   4.088
 2514SOL    HW310087   2.237   2.872   4.158
 2514SOL    MW410088   2.255   2.916   4.085
 2515SOL     OW10089   1.703   3.304   4.262
 2515SOL    HW210090   1.709   3.373   4.195
 2515SOL    HW310091   1.795   3.283   4.282
 2515SOL    MW410092   1.716   3.310   4.256
 2516SOL     OW10093   1.725   3.525   4.103
 2516SOL    HW210094   1.657   3.579   4.143
 2516SOL    HW310095   1.712   3.536   4.008
 2516SOL    MW410096   1.715   3.534   4.095
 2517SOL     OW10097   2.003   3.605   4.142
 2517SOL    HW210098   2.014   3.696   4.116
 2517SOL    HW310099   1.909   3.591   4.146
 2517SOL    MW410100   1.992   3.615   4.139
 2518SOL     OW10101   2.019   3.888   4.051
 2518SOL    HW210102   1.968   3.965   4.078
 2518SOL    HW310103   1.987   3.868   3.963
 2518SOL    MW410104   2.008   3.896   4.043
 2519SOL     OW10105   1.828   4.052   4.213
 2519SOL    HW210106   1.787   4.127   4.170
 2519SOL    HW310107   1.758   3.986   4.216
 2519SOL    MW410108   1.813   4.053   4.208
 2520SOL     OW10109   1.728   4.267   4.093
 2520SOL    HW210110   1.805   4.308   4.133
 2520SOL    HW310111   1.728   4.300   4.003
 2520SOL    MW410112   1.738   4.277   4.086
 2521SOL     OW10113   1.978   4.352   4.203
 2521SOL    HW210114   1.956   4.344   4.296
 2521SOL    HW310115   1.968   4.445   4.184
 2521SOL    MW410116   1.973   4.363   4.213
 2522SOL     OW10117   2.390   4.612   4.292
 2522SOL    HW210118   2.472   4.660   4.291
 2522SOL    HW310119   2.400   4.544   4.225
 2522SOL    MW410120   2.402   4.609   4.283
 2523SOL     OW10121   2.197   0.128   4.261
 2523SOL    HW210122   2.269   0.066   4.264
 2523SOL    HW310123   2.121   0.076   4.234
 2523SOL    MW410124   2.197   0.113   4.258
 2524SOL     OW10125   2.209   0.398   4.202
 2524SOL    HW210126   2.219   0.310   4.238
 2524SOL    HW310127   2.221   0.388   4.108
 2524SOL    MW410128   2.212   0.385   4.195
 2525SOL     OW10129   2.454   0.495   4.286
 2525SOL    HW210130   2.521   0.430   4.262
 2525SOL    HW310131   2.375   0.466   4.239
 2525SOL    MW410132   2.453   0.482   4.276
 2526SOL     OW10133   2.463   0.767   4.219
 2526SOL    HW210134   2.480   0.675   4.242
 2526SOL    HW310135   2.470   0.769   4.123
 2526SOL    MW410136   2.466   0.755   4.209
 2527SOL     OW10137   2.190   0.877   4.288
 2527SOL    HW210138   2.188   0.872   4.384
 2527SOL    HW310139   2.271   0.831   4.264
 2527SOL    MW410140   2.200   0.870   4.298
 2528SOL     OW10141   2.188   1.152   4.202
 2528SOL    HW210142   2.277   1.178   4.227
 2528SOL    HW310143   2.184   1.058   4.223
 2528SOL    MW410144   2.199   1.143   4.208
 2529SOL     OW10145   2.438   1.238   4.290
 2529SOL    HW210146   2.424   1.224   4.384
 2529SOL    HW310147   2.524   1.199   4.273
 2529SOL    MW410148   2.448   1.231   4.301
 2530SOL     OW10149   2.451   1.497   4.182
 2530SOL    HW210150   2.438   1.411   4.222
 2530SOL    HW310151   2.471   1.479   4.090
 2530SOL    MW410152   2.452   1.483   4.175
 2531SOL     OW10153   2.226   1.650   4.242
 2531SOL    HW210154   2.298   1.586   4.242
 2531SOL    HW310155   2.262   1.726   4.196
 2531SOL    MW410156   2.240   1.651   4.236
 2532SOL     OW10157   2.303   1.888   4.143
 2532SOL    HW210158   2.364   1.948   4.186
 2532SOL    HW310159   2.218   1.907   4.184
 2532SOL    MW410160   2.300   1.898   4.154
 2533SOL     OW10161   2.461   2.043   4.296
 2533SOL    HW210162   2.439   2.122   4.247
 2533SOL    HW310163   2.536   2.006   4.249
 2533SOL    MW410164   2.468   2.049   4.283
 2534SOL     OW10165   2.592   2.699   4.104
 2534SOL    HW210166   2.502   2.669   4.108
 2534SOL    HW310167   2.640   2.640   4.161
 2534SOL    MW410168   2.587   2.688   4.112
 2535SOL     OW10169   2.412   2.573   4.359
 2535SOL    HW210170   2.345   2.638   4.339
 2535SOL    HW310171   2.440   2.594   4.448
 2535SOL    MW410172   2.407   2.584   4.368
 2536SOL     OW10173   2.013   2.653   4.193
 2536SOL    HW210174   2.086   2.698   4.236
 2536SOL    HW310175   2.047   2.565   4.175
 2536SOL    MW410176   2.027   2.647   4.196
 2537SOL     OW10177   2.550   2.912   4.277
 2537SOL    HW210178   2.550   2.838   4.217
 2537SOL    HW310179   2.484   2.890   4.342
 2537SOL    MW410180   2.541   2.900   4.277
 2538SOL     OW10181   2.248   3.249   4.312
 2538SOL    HW210182   2.209   3.164   4.334
 2538SOL    HW310183   2.280   3.283   4.395
 2538SOL    MW410184   2.247   3.242   4.326
 2539SOL     OW10185   2.000   3.030   4.032
 2539SOL    HW210186   2.010   3.076   3.949
 2539SOL    HW310187   2.085   2.988   4.047
 2539SOL    MW410188   2.013   3.030   4.023
 2540SOL     OW10189   2.226   3.439   4.113
 2540SOL    HW210190   2.204   3.361   4.165
 2540SOL    HW310191   2.149   3.495   4.120
 2540SOL    MW410192   2.213   3.436   4.121
 2541SOL     OW10193   2.432   3.576   4.228
 2541SOL    HW210194   2.367   3.541   4.167
 2541SOL    HW310195   2.452   3.663   4.195
 2541SOL    MW410196   2.426   3.583   4.216
 2542SOL     OW10197   2.493   3.828   4.122
 2542SOL    HW210198   2.566   3.878   4.160
 2542SOL    HW310199   2.496   3.848   4.029
 2542SOL    MW410200   2.503   3.838   4.115
 2543SOL     OW10201   2.266   3.979   4.170
 2543SOL    HW210202   2.333   3.914   4.150
 2543SOL    HW310203   2.186   3.943   4.134
 2543SOL    MW410204   2.265   3.966   4.163
 2544SOL     OW10205   2.221   4.240   4.119
 2544SOL    HW210206   2.224   4.148   4.147
 2544SOL    HW310207   2.145   4.276   4.164
 2544SOL    MW410208   2.211   4.232   4.129
 2545SOL     OW10209   2.458   4.426   4.109
 2545SOL    HW210210   2.529   4.364   4.126
 2545SOL    HW310211   2.378   4.374   4.111
 2545SOL    MW410212   2.457   4.411   4.111
 2546SOL     OW10213   2.902   4.614   4.154
 2546SOL    HW210214   2.984   4.641   4.195
 2546SOL    HW310215   2.898   4.520   4.168
 2546SOL    MW410216   2.912   4.605   4.161
 2547SOL     OW10217   2.661   0.057   4.270
 2547SOL    HW210218   2.655   0.147   4.238
 2547SOL    HW310219   2.732   0.017   4.221
 2547SOL    MW410220   2.669   0.063   4.260
 2548SOL     OW10221   2.649   0.321   4.202
 2548SOL    HW210222   2.660   0.328   4.107
 2548SOL    HW310223   2.726   0.367   4.238
 2548SOL    MW410224   2.661   0.328   4.195
 2549SOL     OW10225   3.323   0.681   4.117
 2549SOL    HW210226   3.363   0.717   4.197
 2549SOL    HW310227   3.230   0.701   4.126
 2549SOL    MW410228   3.316   0.688   4.129
 2550SOL     OW10229   3.036   0.765   4.100
 2550SOL    HW210230   3.051   0.859   4.114
 2550SOL    HW310231   2.971   0.761   4.030
 2550SOL    MW410232   3.029   0.777   4.093
 2551SOL     OW10233   2.664   0.887   4.363
 2551SOL    HW210234   2.740   0.829   4.355
 2551SOL    HW310235   2.595   0.843   4.314
 2551SOL    MW410236   2.665   0.873   4.356
 2552SOL     OW10237   2.701   1.142   4.211
 2552SOL    HW210238   2.703   1.069   4.273
 2552SOL    HW310239   2.691   1.100   4.126
 2552SOL    MW410240   2.700   1.126   4.208
 2553SOL     OW10241   2.944   1.263   4.181
 2553SOL    HW210242   2.993   1.187   4.151
 2553SOL    HW310243   2.853   1.234   4.184
 2553SOL    MW410244   2.939   1.249   4.178
 2554SOL     OW10245   2.902   1.545   4.140
 2554SOL    HW210246   2.975   1.597   4.174
 2554SOL    HW310247   2.922   1.456   4.167
 2554SOL    MW410248   2.915   1.540   4.148
 2555SOL     OW10249   2.661   1.675   4.213
 2555SOL    HW210250   2.731   1.627   4.169
 2555SOL    HW310251   2.586   1.615   4.211
 2555SOL    MW410252   2.660   1.661   4.207
 2556SOL     OW10253   2.675   1.939   4.137
 2556SOL    HW210254   2.674   1.850   4.173
 2556SOL    HW310255   2.681   1.926   4.043
 2556SOL    MW410256   2.676   1.925   4.129
 2557SOL     OW10257   2.838   2.138   4.228
 2557SOL    HW210258   2.799   2.220   4.199
 2557SOL    HW310259   2.776   2.070   4.201
 2557SOL    MW410260   2.825   2.140   4.221
 2558SOL     OW10261   2.744   2.378   4.157
 2558SOL    HW210262   2.768   2.441   4.225
 2558SOL    HW310263   2.648   2.375   4.159
 2558SOL    MW410264   2.734   2.386   4.166
 2559SOL     OW10265   2.702   3.242   4.468
 2559SOL    HW210266   2.691   3.324   4.518
 2559SOL    HW310267   2.633   3.185   4.500
 2559SOL    MW410268   2.691   3.246   4.479
 2560SOL     OW10269   2.434   3.119   4.137
 2560SOL    HW210270   2.474   3.060   4.202
 2560SOL    HW310271   2.381   3.179   4.190
 2560SOL    MW410272   2.432   3.119   4.153
 2561SOL     OW10273   2.994   2.982   4.037
 2561SOL    HW210274   3.023   3.064   4.076
 2561SOL    HW310275   2.930   3.008   3.971
 2561SOL    MW410276   2.989   2.996   4.034
 2562SOL     OW10277   2.968   3.144   4.409
 2562SOL    HW210278   2.981   3.056   4.446
 2562SOL    HW310279   2.881   3.170   4.440
 2562SOL    MW410280   2.958   3.136   4.418
 2563SOL     OW10281   2.691   3.232   4.195
 2563SOL    HW210282   2.606   3.213   4.157
 2563SOL    HW310283   2.682   3.209   4.288
 2563SOL    MW410284   2.679   3.226   4.203
 2564SOL     OW10285   2.670   3.488   4.104
 2564SOL    HW210286   2.698   3.401   4.134
 2564SOL    HW310287   2.592   3.508   4.156
 2564SOL    MW410288   2.663   3.479   4.115
 2565SOL     OW10289   2.904   3.638   4.167
 2565SOL    HW210290   2.893   3.631   4.262
 2565SOL    HW310291   2.828   3.593   4.130
 2565SOL    MW410292   2.893   3.631   4.174
 2566SOL     OW10293   2.919   3.895   4.072
 2566SOL    HW210294   2.997   3.937   4.109
 2566SOL    HW310295   2.911   3.813   4.120
 2566SOL    MW410296   2.928   3.890   4.083
 2567SOL     OW10297   2.725   3.990   4.240
 2567SOL    HW210298   2.701   4.079   4.213
 2567SOL    HW310299   2.794   3.965   4.179
 2567SOL    MW410300   2.731   3.999   4.228
 2568SOL     OW10301   2.636   4.246   4.171
 2568SOL    HW210302   2.726   4.280   4.173
 2568SOL    HW310303   2.625   4.214   4.081
 2568SOL    MW410304   2.646   4.246   4.159
 2569SOL     OW10305   2.892   4.325   4.185
 2569SOL    HW210306   2.888   4.321   4.280
 2569SOL    HW310307   2.983   4.305   4.163
 2569SOL    MW410308   2.903   4.322   4.194
 2570SOL     OW10309   3.374   4.661   4.174
 2570SOL    HW210310   3.457   4.700   4.201
 2570SOL    HW310311   3.382   4.568   4.196
 2570SOL    MW410312   3.386   4.654   4.181
 2571SOL     OW10313   3.128   0.049   4.294
 2571SOL    HW210314   3.117  -0.012   4.367
 2571SOL    HW310315   3.221   0.043   4.272
 2571SOL    MW410316   3.139   0.040   4.301
 2572SOL     OW10317   3.104   0.313   4.172
 2572SOL    HW210318   3.192   0.346   4.195
 2572SOL    HW310319   3.104   0.222   4.202
 2572SOL    MW410320   3.116   0.305   4.179
 2573SOL     OW10321   3.348   0.425   4.224
 2573SOL    HW210322   3.443   0.410   4.226
 2573SOL    HW310323   3.339   0.511   4.184
 2573SOL    MW410324   3.360   0.434   4.219
 2574SOL     OW10325   3.456   0.763   4.344
 2574SOL    HW210326   3.467   0.858   4.349
 2574SOL    HW310327   3.401   0.742   4.420
 2574SOL    MW410328   3.450   0.773   4.355
 2575SOL     OW10329   3.174   1.103   4.636
 2575SOL    HW210330   3.168   1.195   4.662
 2575SOL    HW310331   3.084   1.075   4.623
 2575SOL    MW410332   3.162   1.112   4.638
 2576SOL     OW10333   3.080   1.018   4.168
 2576SOL    HW210334   3.129   1.039   4.247
 2576SOL    HW310335   3.135   1.048   4.096
 2576SOL    MW410336   3.094   1.024   4.169
 2577SOL     OW10337   3.521   1.034   4.341
 2577SOL    HW210338   3.562   1.049   4.426
 2577SOL    HW310339   3.433   1.071   4.350
 2577SOL    MW410340   3.514   1.041   4.353
 2578SOL     OW10341   3.327   1.401   4.382
 2578SOL    HW210342   3.343   1.447   4.299
 2578SOL    HW310343   3.409   1.408   4.430
 2578SOL    MW410344   3.340   1.408   4.377
 2579SOL     OW10345   3.090   1.720   4.210
 2579SOL    HW210346   3.098   1.730   4.305
 2579SOL    HW310347   3.078   1.810   4.178
 2579SOL    MW410348   3.090   1.733   4.218
 2580SOL     OW10349   3.040   1.987   4.121
 2580SOL    HW210350   3.128   2.016   4.145
 2580SOL    HW310351   2.981   2.044   4.171
 2580SOL    MW410352   3.044   1.998   4.131
 2581SOL     OW10353   3.274   2.093   4.209
 2581SOL    HW210354   3.355   2.053   4.180
 2581SOL    HW310355   3.278   2.183   4.176
 2581SOL    MW410356   3.285   2.100   4.201
 2582SOL     OW10357   3.322   2.371   4.141
 2582SOL    HW210358   3.409   2.393   4.175
 2582SOL    HW310359   3.322   2.405   4.051
 2582SOL    MW410360   3.333   2.379   4.133
 2583SOL     OW10361   3.094   2.424   4.287
 2583SOL    HW210362   3.062   2.505   4.247
 2583SOL    HW310363   3.174   2.404   4.238
 2583SOL    MW410364   3.100   2.432   4.275
 2584SOL     OW10365   3.084   2.692   4.173
 2584SOL    HW210366   3.155   2.749   4.202
 2584SOL    HW310367   3.008   2.751   4.166
 2584SOL    MW410368   3.084   2.708   4.176
 2585SOL     OW10369   3.325   2.836   4.212
 2585SOL    HW210370   3.343   2.930   4.211
 2585SOL    HW310371   3.403   2.797   4.172
 2585SOL    MW410372   3.337   2.844   4.206
 2586SOL     OW10373   3.351   3.095   4.134
 2586SOL    HW210374   3.265   3.136   4.147
 2586SOL    HW310375   3.357   3.083   4.039
 2586SOL    MW410376   3.340   3.099   4.123
 2587SOL     OW10377   3.100   3.196   4.179
 2587SOL    HW210378   3.094   3.289   4.158
 2587SOL    HW310379   3.050   3.187   4.261
 2587SOL    MW410380   3.092   3.207   4.187
 2588SOL     OW10381   3.105   3.483   4.081
 2588SOL    HW210382   3.035   3.534   4.123
 2588SOL    HW310383   3.076   3.471   3.991
 2588SOL    MW410384   3.092   3.488   4.075
 2589SOL     OW10385   3.340   3.607   4.197
 2589SOL    HW210386   3.329   3.544   4.269
 2589SOL    HW310387   3.266   3.589   4.139
 2589SOL    MW410388   3.328   3.596   4.199
 2590SOL     OW10389   3.381   3.882   4.149
 2590SOL    HW210390   3.386   3.790   4.173
 2590SOL    HW310391   3.374   3.883   4.054
 2590SOL    MW410392   3.381   3.870   4.140
 2591SOL     OW10393   3.143   4.007   4.206
 2591SOL    HW210394   3.134   4.002   4.301
 2591SOL    HW310395   3.221   3.956   4.186
 2591SOL    MW410396   3.152   4.000   4.216
 2592SOL     OW10397   3.156   4.279   4.145
 2592SOL    HW210398   3.223   4.327   4.193
 2592SOL    HW310399   3.171   4.187   4.168
 2592SOL    MW410400   3.167   4.273   4.154
 2593SOL     OW10401   3.403   4.404   4.237
 2593SOL    HW210402   3.413   4.416   4.331
 2593SOL    HW310403   3.476   4.346   4.213
 2593SOL    MW410404   3.414   4.398   4.246
 2594SOL     OW10405   3.833   4.605   4.214
 2594SOL    HW210406   3.887   4.676   4.248
 2594SOL    HW310407   3.841   4.612   4.119
 2594SOL    MW410408   3.841   4.615   4.206
 2595SOL     OW10409   3.604   0.088   4.310
 2595SOL    HW210410   3.594   0.178   4.279
 2595SOL    HW310411   3.677   0.053   4.260
 2595SOL    MW410412   3.612   0.096   4.300
 2596SOL     OW10413   3.602   0.338   4.190
 2596SOL    HW210414   3.681   0.388   4.207
 2596SOL    HW310415   3.595   0.334   4.095
 2596SOL    MW410416   3.611   0.344   4.180
 2597SOL     OW10417   3.833   0.461   4.275
 2597SOL    HW210418   3.865   0.429   4.359
 2597SOL    HW310419   3.796   0.547   4.294
 2597SOL    MW410420   3.832   0.468   4.288
 2598SOL     OW10421   3.835   0.825   4.053
 2598SOL    HW210422   3.791   0.908   4.068
 2598SOL    HW310423   3.834   0.813   3.958
 2598SOL    MW410424   3.829   0.834   4.042
 2599SOL     OW10425   3.740   0.708   4.299
 2599SOL    HW210426   3.645   0.717   4.300
 2599SOL    HW310427   3.767   0.744   4.214
 2599SOL    MW410428   3.731   0.714   4.288
 2600SOL     OW10429   3.696   1.069   4.114
 2600SOL    HW210430   3.627   1.044   4.175
 2600SOL    HW310431   3.650   1.088   4.033
 2600SOL    MW410432   3.681   1.068   4.111
 2601SOL     OW10433   3.828   1.269   4.251
 2601SOL    HW210434   3.768   1.199   4.224
 2601SOL    HW310435   3.822   1.271   4.346
 2601SOL    MW410436   3.819   1.260   4.260
 2602SOL     OW10437   3.793   1.509   4.101
 2602SOL    HW210438   3.787   1.421   4.138
 2602SOL    HW310439   3.876   1.544   4.135
 2602SOL    MW410440   3.803   1.502   4.110
 2603SOL     OW10441   3.519   1.982   4.112
 2603SOL    HW210442   3.522   1.979   4.017
 2603SOL    HW310443   3.531   1.891   4.139
 2603SOL    MW410444   3.521   1.969   4.103
 2604SOL     OW10445   3.350   1.562   4.143
 2604SOL    HW210446   3.345   1.559   4.047
 2604SOL    HW310447   3.272   1.611   4.169
 2604SOL    MW410448   3.339   1.568   4.134
 2605SOL     OW10449   3.768   2.107   4.214
 2605SOL    HW210450   3.759   2.102   4.309
 2605SOL    HW310451   3.683   2.078   4.181
 2605SOL    MW410452   3.755   2.102   4.222
 2606SOL     OW10453   3.813   2.365   4.144
 2606SOL    HW210454   3.811   2.283   4.194
 2606SOL    HW310455   3.801   2.338   4.053
 2606SOL    MW410456   3.811   2.351   4.139
 2607SOL     OW10457   3.577   2.459   4.210
 2607SOL    HW210458   3.580   2.441   4.304
 2607SOL    HW310459   3.657   2.419   4.176
 2607SOL    MW410460   3.588   2.451   4.218
 2608SOL     OW10461   3.568   2.726   4.116
 2608SOL    HW210462   3.585   2.637   4.145
 2608SOL    HW310463   3.580   2.723   4.021
 2608SOL    MW410464   3.572   2.714   4.107
 2609SOL     OW10465   3.798   2.874   4.216
 2609SOL    HW210466   3.820   2.877   4.309
 2609SOL    HW310467   3.721   2.817   4.211
 2609SOL    MW410468   3.791   2.867   4.228
 2610SOL     OW10469   3.810   3.150   4.118
 2610SOL    HW210470   3.817   3.065   4.162
 2610SOL    HW310471   3.816   3.130   4.025
 2610SOL    MW410472   3.812   3.136   4.111
 2611SOL     OW10473   3.572   3.212   4.241
 2611SOL    HW210474   3.646   3.176   4.193
 2611SOL    HW310475   3.496   3.166   4.206
 2611SOL    MW410476   3.572   3.201   4.230
 2612SOL     OW10477   3.596   3.477   4.131
 2612SOL    HW210478   3.585   3.397   4.182
 2612SOL    HW310479   3.520   3.530   4.153
 2612SOL    MW410480   3.585   3.474   4.141
 2613SOL     OW10481   3.791   3.629   4.248
 2613SOL    HW210482   3.872   3.600   4.207
 2613SOL    HW310483   3.722   3.583   4.200
 2613SOL    MW410484   3.792   3.619   4.236
 2614SOL     OW10485   3.802   3.893   4.150
 2614SOL    HW210486   3.724   3.940   4.178
 2614SOL    HW310487   3.790   3.805   4.185
 2614SOL    MW410488   3.790   3.887   4.158
 2615SOL     OW10489   3.578   4.019   4.259
 2615SOL    HW210490   3.573   3.997   4.352
 2615SOL    HW310491   3.498   3.981   4.221
 2615SOL    MW410492   3.567   4.011   4.267
 2616SOL     OW10493   3.631   4.258   4.137
 2616SOL    HW210494   3.707   4.294   4.183
 2616SOL    HW310495   3.616   4.174   4.180
 2616SOL    MW410496   3.639   4.251   4.149
 2617SOL     OW10497   3.878   4.354   4.261
 2617SOL    HW210498   3.956   4.338   4.209
 2617SOL    HW310499   3.858   4.446   4.247
 2617SOL    MW410500   3.885   4.364   4.252
 2618SOL     OW10501   4.279   4.649   4.161
 2618SOL    HW210502   4.275   4.558   4.189
 2618SOL    HW310503   4.368   4.677   4.182
 2618SOL    MW410504   4.291   4.641   4.167
 2619SOL     OW10505   4.052   0.110   4.278
 2619SOL    HW210506   4.036   0.195   4.237
 2619SOL    HW310507   4.126   0.073   4.230
 2619SOL    MW410508   4.059   0.116   4.266
 2620SOL     OW10509   4.041   0.349   4.136
 2620SOL    HW210510   4.122   0.397   4.153
 2620SOL    HW310511   3.973   0.400   4.179
 2620SOL    MW410512   4.043   0.362   4.144
 2621SOL     OW10513   4.269   0.503   4.216
 2621SOL    HW210514   4.287   0.594   4.192
 2621SOL    HW310515   4.352   0.457   4.201
 2621SOL    MW410516   4.282   0.509   4.211
 2622SOL     OW10517   4.294   0.776   4.162
 2622SOL    HW210518   4.215   0.815   4.198
 2622SOL    HW310519   4.288   0.794   4.068
 2622SOL    MW410520   4.283   0.784   4.154
 2623SOL     OW10521   4.048   0.891   4.243
 2623SOL    HW210522   4.048   0.986   4.240
 2623SOL    HW310523   3.975   0.865   4.186
 2623SOL    MW410524   4.038   0.900   4.235
 2624SOL     OW10525   4.074   1.158   4.172
 2624SOL    HW210526   4.140   1.219   4.206
 2624SOL    HW310527   3.990   1.200   4.192
 2624SOL    MW410528   4.071   1.171   4.179
 2625SOL     OW10529   4.271   1.311   4.306
 2625SOL    HW210530   4.237   1.259   4.379
 2625SOL    HW310531   4.330   1.252   4.260
 2625SOL    MW410532   4.274   1.296   4.310
 2626SOL     OW10533   4.293   1.568   4.161
 2626SOL    HW210534   4.295   1.476   4.186
 2626SOL    HW310535   4.283   1.567   4.066
 2626SOL    MW410536   4.292   1.556   4.152
 2627SOL     OW10537   4.187   1.852   4.522
 2627SOL    HW210538   4.123   1.791   4.485
 2627SOL    HW310539   4.248   1.796   4.570
 2627SOL    MW410540   4.187   1.837   4.524
 2628SOL     OW10541   3.988   1.951   4.089
 2628SOL    HW210542   4.000   1.863   4.126
 2628SOL    HW310543   3.898   1.974   4.109
 2628SOL    MW410544   3.978   1.942   4.096
 2629SOL     OW10545   0.003   1.955   4.115
 2629SOL    HW210546   0.085   2.001   4.132
 2629SOL    HW310547  -0.056   1.982   4.186
 2629SOL    MW410548   0.006   1.965   4.127
 2630SOL     OW10549   4.245   2.338   4.147
 2630SOL    HW210550   4.191   2.416   4.160
 2630SOL    HW310551   4.199   2.269   4.195
 2630SOL    MW410552   4.232   2.339   4.155
 2631SOL     OW10553   4.045   2.532   4.212
 2631SOL    HW210554   4.063   2.557   4.303
 2631SOL    HW310555   3.970   2.473   4.218
 2631SOL    MW410556   4.037   2.528   4.225
 2632SOL     OW10557   4.013   2.765   4.064
 2632SOL    HW210558   4.015   2.687   4.120
 2632SOL    HW310559   3.935   2.813   4.093
 2632SOL    MW410560   4.003   2.761   4.075
 2633SOL     OW10561   4.238   2.859   4.185
 2633SOL    HW210562   4.170   2.830   4.123
 2633SOL    HW310563   4.318   2.815   4.155
 2633SOL    MW410564   4.239   2.849   4.173
 2634SOL     OW10565   4.250   3.116   4.101
 2634SOL    HW210566   4.252   3.030   4.144
 2634SOL    HW310567   4.237   3.096   4.008
 2634SOL    MW410568   4.249   3.102   4.094
 2635SOL     OW10569   4.042   3.254   4.224
 2635SOL    HW210570   4.102   3.213   4.162
 2635SOL    HW310571   3.955   3.235   4.188
 2635SOL    MW410572   4.038   3.246   4.211
 2636SOL     OW10573   4.042   3.531   4.155
 2636SOL    HW210574   4.043   3.438   4.179
 2636SOL    HW310575   4.051   3.531   4.060
 2636SOL    MW410576   4.043   3.519   4.146
 2637SOL     OW10577   4.288   3.603   4.253
 2637SOL    HW210578   4.306   3.697   4.240
 2637SOL    HW310579   4.201   3.590   4.217
 2637SOL    MW410580   4.279   3.614   4.247
 2638SOL     OW10581   4.260   3.885   4.136
 2638SOL    HW210582   4.196   3.944   4.176
 2638SOL    HW310583   4.260   3.910   4.043
 2638SOL    MW410584   4.251   3.896   4.129
 2639SOL     OW10585   4.028   4.036   4.228
 2639SOL    HW210586   4.040   4.003   4.317
 2639SOL    HW310587   3.959   3.980   4.192
 2639SOL    MW410588   4.020   4.024   4.235
 2640SOL     OW10589   4.106   4.271   4.129
 2640SOL    HW210590   4.156   4.316   4.196
 2640SOL    HW310591   4.075   4.191   4.171
 2640SOL    MW410592   4.108   4.266   4.143
 2641SOL     OW10593   0.041   4.311   4.525
 2641SOL    HW210594  -0.052   4.313   4.546
 2641SOL    HW310595   0.078   4.389   4.565
 2641SOL    MW410596   0.034   4.321   4.533
 2642SOL     OW10597   3.974   4.093   4.667
 2642SOL    HW210598   3.896   4.052   4.706
 2642SOL    HW310599   3.943   4.179   4.637
 2642SOL    MW410600   3.960   4.099   4.668
 2643SOL     OW10601   4.323   0.241   4.529
 2643SOL    HW210602   4.244   0.199   4.565
 2643SOL    HW310603   4.301   0.334   4.526
 2643SOL    MW410604   4.309   0.248   4.533
 2644SOL     OW10605   4.061   0.143   4.558
 2644SOL    HW210606   3.985   0.089   4.579
 2644SOL    HW310607   4.076   0.127   4.465
 2644SOL    MW410608   4.053   0.134   4.548
 2645SOL     OW10609   4.008   1.674   4.435
 2645SOL    HW210610   3.913   1.677   4.444
 2645SOL    HW310611   4.034   1.593   4.479
 2645SOL    MW410612   3.999   1.664   4.442
 2646SOL     OW10613   0.564   0.210   4.479
 2646SOL    HW210614   0.513   0.136   4.512
 2646SOL    HW310615   0.656   0.181   4.486
 2646SOL    MW410616   0.570   0.196   4.484
 2647SOL     OW10617   0.343   0.873   4.598
 2647SOL    HW210618   0.414   0.873   4.663
 2647SOL    HW310619   0.351   0.787   4.555
 2647SOL    MW410620   0.353   0.861   4.601
 2648SOL     OW10621   4.255   0.783   4.595
 2648SOL    HW210622   4.239   0.689   4.582
 2648SOL    HW310623   4.348   0.789   4.614
 2648SOL    MW410624   4.265   0.771   4.596
 2649SOL     OW10625   0.712   1.453   4.457
 2649SOL    HW210626   0.731   1.547   4.467
 2649SOL    HW310627   0.631   1.440   4.505
 2649SOL    MW410628   0.704   1.464   4.464
 2650SOL     OW10629   1.063   2.040   4.481
 2650SOL    HW210630   1.128   2.083   4.537
 2650SOL    HW310631   0.990   2.020   4.540
 2650SOL    MW410632   1.062   2.043   4.497
 2651SOL     OW10633   4.177   1.171   4.538
 2651SOL    HW210634   4.131   1.087   4.530
 2651SOL    HW310635   4.249   1.153   4.598
 2651SOL    MW410636   4.180   1.157   4.545
 2652SOL     OW10637   0.111   1.814   4.483
 2652SOL    HW210638   0.089   1.795   4.391
 2652SOL    HW310639   0.136   1.907   4.483
 2652SOL    MW410640   0.111   1.824   4.471
 2653SOL     OW10641   0.466   1.662   4.288
 2653SOL    HW210642   0.396   1.612   4.245
 2653SOL    HW310643   0.546   1.637   4.242
 2653SOL    MW410644   0.467   1.652   4.276
 2654SOL     OW10645   4.343   2.007   4.342
 2654SOL    HW210646   4.374   2.072   4.405
 2654SOL    HW310647   4.305   1.938   4.396
 2654SOL    MW410648   4.342   2.006   4.357
 2655SOL     OW10649   4.177   2.304   4.646
 2655SOL    HW210650   4.123   2.237   4.604
 2655SOL    HW310651   4.154   2.385   4.601
 2655SOL    MW410652   4.167   2.306   4.635
 2656SOL     OW10653   0.561   3.104   4.616
 2656SOL    HW210654   0.590   3.044   4.548
 2656SOL    HW310655   0.641   3.132   4.660
 2656SOL    MW410656   0.575   3.100   4.613
 2657SOL     OW10657   0.262   2.840   4.726
 2657SOL    HW210658   0.248   2.815   4.818
 2657SOL    HW310659   0.280   2.934   4.730
 2657SOL    MW410660   0.263   2.849   4.739
 2658SOL     OW10661   0.072   2.490   4.452
 2658SOL    HW210662   0.060   2.485   4.357
 2658SOL    HW310663   0.069   2.583   4.473
 2658SOL    MW410664   0.070   2.501   4.442
 2659SOL     OW10665   3.522   3.603   4.507
 2659SOL    HW210666   3.582   3.540   4.545
 2659SOL    HW310667   3.452   3.550   4.469
 2659SOL    MW410668   3.521   3.588   4.507
 2660SOL     OW10669   0.519   3.329   4.485
 2660SOL    HW210670   0.426   3.347   4.502
 2660SOL    HW310671   0.533   3.243   4.525
 2660SOL    MW410672   0.508   3.320   4.493
 2661SOL     OW10673   4.066   3.944   4.471
 2661SOL    HW210674   4.017   3.862   4.483
 2661SOL    HW310675   4.037   3.999   4.544
 2661SOL    MW410676   4.056   3.941   4.482
 2662SOL     OW10677   0.067   0.119   4.495
 2662SOL    HW210678  -0.019   0.157   4.516
 2662SOL    HW310679   0.127   0.193   4.503
 2662SOL    MW410680   0.063   0.134   4.499
 2663SOL     OW10681   3.316   0.409   4.527
 2663SOL    HW210682   3.323   0.422   4.433
 2663SOL    HW310683   3.223   0.423   4.546
 2663SOL    MW410684   3.304   0.413   4.517
 2664SOL     OW10685   3.762   3.921   4.720
 2664SOL    HW210686   3.823   3.852   4.747
 2664SOL    HW310687   3.713   3.942   4.800
 2664SOL    MW410688   3.764   3.915   4.734
 2665SOL     OW10689   3.904   3.703   4.789
 2665SOL    HW210690   3.832   3.642   4.807
 2665SOL    HW310691   3.962   3.655   4.730
 2665SOL    MW410692   3.902   3.688   4.783
 2666SOL     OW10693   0.471   4.627   4.523
 2666SOL    HW210694   0.536   4.598   4.587
 2666SOL    HW310695   0.503   4.594   4.439
 2666SOL    MW410696   0.484   4.618   4.521
 2667SOL     OW10697   3.745   0.513   4.688
 2667SOL    HW210698   3.785   0.599   4.677
 2667SOL    HW310699   3.668   0.530   4.742
 2667SOL    MW410700   3.740   0.527   4.694
 2668SOL     OW10701   1.114   0.703   4.611
 2668SOL    HW210702   1.046   0.756   4.570
 2668SOL    HW310703   1.067   0.645   4.671
 2668SOL    MW410704   1.099   0.702   4.614
 2669SOL     OW10705   0.987   0.540   4.794
 2669SOL    HW210706   0.970   0.448   4.771
 2669SOL    HW310707   0.900   0.577   4.808
 2669SOL    MW410708   0.973   0.532   4.792
 2670SOL     OW10709   0.875   0.840   4.487
 2670SOL    HW210710   0.877   0.849   4.392
 2670SOL    HW310711   0.820   0.912   4.518
 2670SOL    MW410712   0.868   0.850   4.479
 2671SOL     OW10713   0.463   1.069   4.441
 2671SOL    HW210714   0.471   1.018   4.360
 2671SOL    HW310715   0.419   1.009   4.502
 2671SOL    MW410716   0.458   1.054   4.438
 2672SOL     OW10717   2.141   1.183   4.605
 2672SOL    HW210718   2.093   1.251   4.652
 2672SOL    HW310719   2.232   1.212   4.606
 2672SOL    MW410720   2.147   1.196   4.611
 2673SOL     OW10721   0.407   1.732   4.547
 2673SOL    HW210722   0.313   1.751   4.552
 2673SOL    HW310723   0.426   1.734   4.453
 2673SOL    MW410724   0.397   1.735   4.535
 2674SOL     OW10725   1.402   1.159   4.506
 2674SOL    HW210726   1.373   1.074   4.540
 2674SOL    HW310727   1.321   1.208   4.493
 2674SOL    MW410728   1.387   1.154   4.509
 2675SOL     OW10729   0.827   1.720   4.484
 2675SOL    HW210730   0.794   1.803   4.517
 2675SOL    HW310731   0.913   1.710   4.526
 2675SOL    MW410732   0.834   1.729   4.494
 2676SOL     OW10733   0.724   2.167   4.442
 2676SOL    HW210734   0.767   2.251   4.458
 2676SOL    HW310735   0.756   2.110   4.512
 2676SOL    MW410736   0.734   2.171   4.453
 2677SOL     OW10737   1.121   1.772   4.592
 2677SOL    HW210738   1.198   1.721   4.566
 2677SOL    HW310739   1.123   1.849   4.535
 2677SOL    MW410740   1.132   1.775   4.581
 2678SOL     OW10741   0.439   2.208   4.542
 2678SOL    HW210742   0.533   2.210   4.525
 2678SOL    HW310743   0.409   2.297   4.523
 2678SOL    MW410744   0.448   2.220   4.537
 2679SOL     OW10745   1.055   2.708   4.644
 2679SOL    HW210746   0.973   2.686   4.689
 2679SOL    HW310747   1.028   2.771   4.577
 2679SOL    MW410748   1.040   2.713   4.641
 2680SOL     OW10749   0.751   2.645   4.656
 2680SOL    HW210750   0.655   2.648   4.652
 2680SOL    HW310751   0.776   2.580   4.591
 2680SOL    MW410752   0.741   2.637   4.647
 2681SOL     OW10753   0.919   3.176   4.453
 2681SOL    HW210754   1.008   3.208   4.469
 2681SOL    HW310755   0.878   3.175   4.539
 2681SOL    MW410756   0.925   3.180   4.466
 2682SOL     OW10757   0.896   3.448   4.725
 2682SOL    HW210758   0.826   3.501   4.686
 2682SOL    HW310759   0.977   3.492   4.701
 2682SOL    MW410760   0.897   3.461   4.717
 2683SOL     OW10761   1.202   0.001   4.517
 2683SOL    HW210762   1.279  -0.056   4.508
 2683SOL    HW310763   1.234   0.088   4.491
 2683SOL    MW410764   1.217   0.005   4.513
 2684SOL     OW10765   0.357   2.482   4.458
 2684SOL    HW210766   0.376   2.468   4.365
 2684SOL    HW310767   0.261   2.477   4.463
 2684SOL    MW410768   0.347   2.480   4.446
 2685SOL     OW10769   4.466   3.241   4.515
 2685SOL    HW210770   4.387   3.296   4.513
 2685SOL    HW310771   4.484   3.222   4.424
 2685SOL    MW410772   4.458   3.246   4.503
 2686SOL     OW10773   1.556   3.680   4.511
 2686SOL    HW210774   1.559   3.595   4.554
 2686SOL    HW310775   1.645   3.716   4.522
 2686SOL    MW410776   1.568   3.674   4.518
 2687SOL     OW10777   0.201   4.090   4.515
 2687SOL    HW210778   0.137   4.019   4.508
 2687SOL    HW310779   0.148   4.169   4.526
 2687SOL    MW410780   0.186   4.091   4.515
 2688SOL     OW10781   0.300   3.869   4.106
 2688SOL    HW210782   0.283   3.791   4.158
 2688SOL    HW310783   0.238   3.934   4.138
 2688SOL    MW410784   0.289   3.868   4.117
 2689SOL     OW10785   0.206   4.549   4.525
 2689SOL    HW210786   0.154   4.627   4.541
 2689SOL    HW310787   0.297   4.576   4.539
 2689SOL    MW410788   0.211   4.563   4.529
 2690SOL     OW10789   0.611   0.494   4.473
 2690SOL    HW210790   0.643   0.499   4.383
 2690SOL    HW310791   0.601   0.401   4.490
 2690SOL    MW410792   0.614   0.483   4.463
 2691SOL     OW10793   0.458   4.066   4.391
 2691SOL    HW210794   0.370   4.062   4.428
 2691SOL    HW310795   0.451   4.127   4.318
 2691SOL    MW410796   0.445   4.073   4.386
 2692SOL     OW10797   0.569   0.867   4.742
 2692SOL    HW210798   0.577   0.882   4.836
 2692SOL    HW310799   0.615   0.784   4.727
 2692SOL    MW410800   0.576   0.858   4.752
 2693SOL     OW10801   1.356   0.821   4.524
 2693SOL    HW210802   1.331   0.837   4.433
 2693SOL    HW310803   1.276   0.786   4.565
 2693SOL    MW410804   1.342   0.818   4.518
 2694SOL     OW10805   1.853   1.173   4.543
 2694SOL    HW210806   1.872   1.084   4.571
 2694SOL    HW310807   1.926   1.196   4.485
 2694SOL    MW410808   1.865   1.164   4.539
 2695SOL     OW10809   0.288   1.281   4.495
 2695SOL    HW210810   0.360   1.218   4.492
 2695SOL    HW310811   0.320   1.351   4.551
 2695SOL    MW410812   0.302   1.282   4.502
 2696SOL     OW10813   1.034   1.987   4.817
 2696SOL    HW210814   1.095   2.061   4.808
 2696SOL    HW310815   1.083   1.912   4.785
 2696SOL    MW410816   1.049   1.987   4.812
 2697SOL     OW10817   0.889   1.254   4.547
 2697SOL    HW210818   0.824   1.321   4.530
 2697SOL    HW310819   0.840   1.172   4.547
 2697SOL    MW410820   0.874   1.252   4.545
 2698SOL     OW10821   1.962   1.358   4.731
 2698SOL    HW210822   1.903   1.303   4.679
 2698SOL    HW310823   1.951   1.446   4.694
 2698SOL    MW410824   1.953   1.362   4.719
 2699SOL     OW10825   1.155   1.303   4.477
 2699SOL    HW210826   1.062   1.298   4.501
 2699SOL    HW310827   1.179   1.394   4.498
 2699SOL    MW410828   1.146   1.315   4.483
 2700SOL     OW10829   1.092   2.449   4.543
 2700SOL    HW210830   1.078   2.534   4.583
 2700SOL    HW310831   1.177   2.456   4.500
 2700SOL    MW410832   1.101   2.461   4.543
 2701SOL     OW10833   1.656   2.477   4.784
 2701SOL    HW210834   1.730   2.532   4.807
 2701SOL    HW310835   1.596   2.535   4.738
 2701SOL    MW410836   1.658   2.492   4.781
 2702SOL     OW10837   1.440   3.129   4.595
 2702SOL    HW210838   1.458   3.219   4.622
 2702SOL    HW310839   1.516   3.104   4.543
 2702SOL    MW410840   1.453   3.138   4.592
 2703SOL     OW10841   1.618   3.358   4.544
 2703SOL    HW210842   1.676   3.306   4.599
 2703SOL    HW310843   1.630   3.321   4.456
 2703SOL    MW410844   1.628   3.346   4.540
 2704SOL     OW10845   0.677   2.880   4.465
 2704SOL    HW210846   0.769   2.851   4.472
 2704SOL    HW310847   0.628   2.814   4.514
 2704SOL    MW410848   0.683   2.867   4.473
 2705SOL     OW10849   0.742   4.532   4.559
 2705SOL    HW210850   0.836   4.518   4.569
 2705SOL    HW310851   0.719   4.482   4.481
 2705SOL    MW410852   0.752   4.524   4.550
 2706SOL     OW10853   1.355   2.877   4.677
 2706SOL    HW210854   1.260   2.892   4.681
 2706SOL    HW310855   1.393   2.964   4.669
 2706SOL    MW410856   1.347   2.890   4.677
 2707SOL     OW10857   0.990   2.890   4.439
 2707SOL    HW210858   0.983   2.985   4.446
 2707SOL    HW310859   1.042   2.876   4.360
 2707SOL    MW410860   0.996   2.901   4.429
 2708SOL     OW10861   1.997   3.643   4.422
 2708SOL    HW210862   2.029   3.621   4.335
 2708SOL    HW310863   1.975   3.559   4.462
 2708SOL    MW410864   1.998   3.629   4.416
 2709SOL     OW10865   0.518   3.743   4.464
 2709SOL    HW210866   0.548   3.709   4.380
 2709SOL    HW310867   0.511   3.838   4.450
 2709SOL    MW410868   0.521   3.751   4.451
 2710SOL     OW10869   0.238   3.369   4.543
 2710SOL    HW210870   0.220   3.461   4.559
 2710SOL    HW310871   0.151   3.329   4.533
 2710SOL    MW410872   0.224   3.376   4.543
 2711SOL     OW10873   0.838   0.127   4.503
 2711SOL    HW210874   0.872   0.112   4.415
 2711SOL    HW310875   0.805   0.041   4.530
 2711SOL    MW410876   0.838   0.113   4.495
 2712SOL     OW10877   0.880   4.321   4.297
 2712SOL    HW210878   0.934   4.362   4.364
 2712SOL    HW310879   0.799   4.372   4.296
 2712SOL    MW410880   0.876   4.333   4.306
 2713SOL     OW10881   2.231   4.003   4.435
 2713SOL    HW210882   2.241   3.991   4.340
 2713SOL    HW310883   2.230   3.914   4.470
 2713SOL    MW410884   2.232   3.990   4.427
 2714SOL     OW10885   1.675   4.509   4.501
 2714SOL    HW210886   1.681   4.451   4.425
 2714SOL    HW310887   1.585   4.500   4.532
 2714SOL    MW410888   1.664   4.500   4.495
 2715SOL     OW10889   1.374   4.436   4.507
 2715SOL    HW210890   1.322   4.362   4.538
 2715SOL    HW310891   1.402   4.410   4.419
 2715SOL    MW410892   1.371   4.423   4.500
 2716SOL     OW10893   0.746   0.658   4.669
 2716SOL    HW210894   0.785   0.719   4.607
 2716SOL    HW310895   0.697   0.596   4.615
 2716SOL    MW410896   0.745   0.658   4.654
 2717SOL     OW10897   1.834   0.084   4.555
 2717SOL    HW210898   1.786   0.003   4.542
 2717SOL    HW310899   1.865   0.079   4.646
 2717SOL    MW410900   1.832   0.073   4.565
 2718SOL     OW10901   1.167   0.457   4.479
 2718SOL    HW210902   1.103   0.413   4.535
 2718SOL    HW310903   1.169   0.547   4.511
 2718SOL    MW410904   1.159   0.463   4.490
 2719SOL     OW10905   1.761   1.718   4.492
 2719SOL    HW210906   1.833   1.659   4.517
 2719SOL    HW310907   1.749   1.702   4.399
 2719SOL    MW410908   1.769   1.708   4.483
 2720SOL     OW10909   0.702   1.033   4.573
 2720SOL    HW210910   0.633   1.060   4.512
 2720SOL    HW310911   0.655   0.999   4.649
 2720SOL    MW410912   0.687   1.032   4.575
 2721SOL     OW10913   1.626   0.356   4.552
 2721SOL    HW210914   1.577   0.430   4.589
 2721SOL    HW310915   1.636   0.295   4.625
 2721SOL    MW410916   1.621   0.358   4.567
 2722SOL     OW10917   1.624   1.304   4.459
 2722SOL    HW210918   1.556   1.243   4.487
 2722SOL    HW310919   1.706   1.259   4.478
 2722SOL    MW410920   1.626   1.290   4.465
 2723SOL     OW10921   1.282   1.571   4.467
 2723SOL    HW210922   1.368   1.569   4.509
 2723SOL    HW310923   1.294   1.627   4.390
 2723SOL    MW410924   1.295   1.578   4.463
 2724SOL     OW10925   1.489   2.648   4.622
 2724SOL    HW210926   1.452   2.730   4.653
 2724SOL    HW310927   1.422   2.612   4.564
 2724SOL    MW410928   1.475   2.654   4.618
 2725SOL     OW10929   2.325   2.641   4.074
 2725SOL    HW210930   2.274   2.566   4.104
 2725SOL    HW310931   2.303   2.711   4.135
 2725SOL    MW410932   2.316   2.640   4.086
 2726SOL     OW10933   0.844   2.446   4.445
 2726SOL    HW210934   0.936   2.439   4.471
 2726SOL    HW310935   0.847   2.470   4.352
 2726SOL    MW410936   0.856   2.448   4.436
 2727SOL     OW10937   1.239   3.986   4.462
 2727SOL    HW210938   1.152   3.962   4.431
 2727SOL    HW310939   1.271   3.909   4.508
 2727SOL    MW410940   1.232   3.973   4.464
 2728SOL     OW10941   1.322   2.492   4.169
 2728SOL    HW210942   1.325   2.585   4.148
 2728SOL    HW310943   1.406   2.457   4.139
 2728SOL    MW410944   1.333   2.499   4.162
 2729SOL     OW10945   1.345   2.484   4.447
 2729SOL    HW210946   1.343   2.479   4.352
 2729SOL    HW310947   1.397   2.409   4.475
 2729SOL    MW410948   1.351   2.474   4.438
 2730SOL     OW10949   1.192   3.255   4.460
 2730SOL    HW210950   1.262   3.193   4.482
 2730SOL    HW310951   1.204   3.273   4.367
 2730SOL    MW410952   1.203   3.249   4.451
 2731SOL     OW10953   0.817   3.196   4.715
 2731SOL    HW210954   0.859   3.142   4.783
 2731SOL    HW310955   0.836   3.286   4.740
 2731SOL    MW410956   0.825   3.201   4.728
 2732SOL     OW10957   0.680   3.554   4.584
 2732SOL    HW210958   0.621   3.482   4.558
 2732SOL    HW310959   0.625   3.632   4.579
 2732SOL    MW410960   0.665   3.554   4.580
 2733SOL     OW10961   2.304   3.309   4.576
 2733SOL    HW210962   2.366   3.243   4.606
 2733SOL    HW310963   2.218   3.272   4.595
 2733SOL    MW410964   2.301   3.296   4.582
 2734SOL     OW10965   1.972   3.385   4.499
 2734SOL    HW210966   1.924   3.346   4.572
 2734SOL    HW310967   2.018   3.312   4.458
 2734SOL    MW410968   1.972   3.370   4.503
 2735SOL     OW10969   2.484   3.104   4.591
 2735SOL    HW210970   2.456   3.026   4.542
 2735SOL    HW310971   2.523   3.069   4.671
 2735SOL    MW410972   2.485   3.089   4.595
 2736SOL     OW10973   1.153   3.509   4.578
 2736SOL    HW210974   1.094   3.555   4.519
 2736SOL    HW310975   1.170   3.425   4.535
 2736SOL    MW410976   1.148   3.504   4.565
 2737SOL     OW10977   1.950   4.056   4.479
 2737SOL    HW210978   1.914   4.047   4.390
 2737SOL    HW310979   2.043   4.039   4.469
 2737SOL    MW410980   1.957   4.053   4.466
 2738SOL     OW10981   1.866   0.426   4.458
 2738SOL    HW210982   1.775   0.400   4.466
 2738SOL    HW310983   1.911   0.377   4.527
 2738SOL    MW410984   1.860   0.416   4.468
 2739SOL     OW10985   1.025   0.282   4.644
 2739SOL    HW210986   1.093   0.219   4.670
 2739SOL    HW310987   0.956   0.227   4.606
 2739SOL    MW410988   1.025   0.266   4.643
 2740SOL     OW10989   1.346   0.230   4.441
 2740SOL    HW210990   1.435   0.265   4.444
 2740SOL    HW310991   1.290   0.304   4.465
 2740SOL    MW410992   1.350   0.244   4.445
 2741SOL     OW10993   2.104   0.094   4.514
 2741SOL    HW210994   2.009   0.085   4.507
 2741SOL    HW310995   2.133   0.112   4.424
 2741SOL    MW410996   2.095   0.095   4.501
 2742SOL     OW10997   1.880   0.881   4.520
 2742SOL    HW210998   1.846   0.801   4.559
 2742SOL    HW310999   1.855   0.875   4.428
 2742SOL    MW411000   1.872   0.870   4.513
 2743SOL     OW11001   1.520   0.599   4.558
 2743SOL    HW211002   1.455   0.669   4.559
 2743SOL    HW311003   1.604   0.644   4.569
 2743SOL    MW411004   1.522   0.615   4.559
 2744SOL     OW11005   2.205   1.715   4.553
 2744SOL    HW211006   2.239   1.770   4.624
 2744SOL    HW311007   2.252   1.744   4.475
 2744SOL    MW411008   2.216   1.726   4.552
 2745SOL     OW11009   0.805   1.969   4.628
 2745SOL    HW211010   0.865   1.956   4.701
 2745SOL    HW311011   0.718   1.961   4.667
 2745SOL    MW411012   0.801   1.966   4.643
 2746SOL     OW11013   1.538   1.558   4.551
 2746SOL    HW211014   1.569   1.468   4.540
 2746SOL    HW311015   1.614   1.612   4.529
 2746SOL    MW411016   1.552   1.553   4.547
 2747SOL     OW11017   1.233   2.182   4.641
 2747SOL    HW211018   1.322   2.188   4.606
 2747SOL    HW311019   1.187   2.256   4.603
 2747SOL    MW411020   1.239   2.192   4.632
 2748SOL     OW11021   1.464   2.220   4.475
 2748SOL    HW211022   1.496   2.181   4.394
 2748SOL    HW311023   1.541   2.264   4.512
 2748SOL    MW411024   1.479   2.221   4.470
 2749SOL     OW11025   2.145   2.411   4.081
 2749SOL    HW211026   2.088   2.382   4.010
 2749SOL    HW311027   2.157   2.332   4.135
 2749SOL    MW411028   2.139   2.397   4.079
 2750SOL     OW11029   1.644   2.193   4.820
 2750SOL    HW211030   1.644   2.289   4.819
 2750SOL    HW311031   1.603   2.170   4.903
 2750SOL    MW411032   1.639   2.203   4.831
 2751SOL     OW11033   2.879   3.079   4.740
 2751SOL    HW211034   2.965   3.120   4.733
 2751SOL    HW311035   2.889   2.994   4.697
 2751SOL    MW411036   2.891   3.073   4.733
 2752SOL     OW11037   1.832   3.185   4.645
 2752SOL    HW211038   1.800   3.132   4.572
 2752SOL    HW311039   1.914   3.144   4.671
 2752SOL    MW411040   1.839   3.173   4.638
 2753SOL     OW11041   1.810   3.811   4.526
 2753SOL    HW211042   1.838   3.901   4.510
 2753SOL    HW311043   1.880   3.757   4.490
 2753SOL    MW411044   1.823   3.816   4.519
 2754SOL     OW11045   2.673   2.717   4.830
 2754SOL    HW211046   2.618   2.685   4.758
 2754SOL    HW311047   2.763   2.699   4.801
 2754SOL    MW411048   2.678   2.710   4.816
 2755SOL     OW11049   2.338   2.689   4.858
 2755SOL    HW211050   2.424   2.714   4.891
 2755SOL    HW311051   2.297   2.772   4.832
 2755SOL    MW411052   2.344   2.703   4.859
 2756SOL     OW11053   2.849   3.942   4.501
 2756SOL    HW211054   2.816   3.957   4.412
 2756SOL    HW311055   2.787   3.989   4.557
 2756SOL    MW411056   2.836   3.950   4.496
 2757SOL     OW11057   2.414   4.016   4.690
 2757SOL    HW211058   2.409   3.926   4.722
 2757SOL    HW311059   2.348   4.020   4.621
 2757SOL    MW411060   2.404   4.005   4.685
 2758SOL     OW11061   2.419   3.549   4.527
 2758SOL    HW211062   2.382   3.462   4.543
 2758SOL    HW311063   2.436   3.550   4.433
 2758SOL    MW411064   2.417   3.537   4.517
 2759SOL     OW11065   2.207   3.777   4.577
 2759SOL    HW211066   2.275   3.710   4.573
 2759SOL    HW311067   2.129   3.734   4.542
 2759SOL    MW411068   2.206   3.763   4.572
 2760SOL     OW11069   1.955   4.330   4.476
 2760SOL    HW211070   1.941   4.237   4.495
 2760SOL    HW311071   1.882   4.374   4.518
 2760SOL    MW411072   1.944   4.324   4.484
 2761SOL     OW11073   1.298   3.755   4.590
 2761SOL    HW211074   1.387   3.724   4.573
 2761SOL    HW311075   1.246   3.674   4.593
 2761SOL    MW411076   1.303   3.740   4.588
 2762SOL     OW11077   2.047   0.315   4.672
 2762SOL    HW211078   2.082   0.245   4.616
 2762SOL    HW311079   2.125   0.364   4.698
 2762SOL    MW411080   2.062   0.312   4.668
 2763SOL     OW11081   1.943   0.086   4.802
 2763SOL    HW211082   2.013   0.027   4.829
 2763SOL    HW311083   1.986   0.170   4.786
 2763SOL    MW411084   1.958   0.089   4.803
 2764SOL     OW11085   1.984   1.561   4.530
 2764SOL    HW211086   2.072   1.600   4.532
 2764SOL    HW311087   1.982   1.510   4.449
 2764SOL    MW411088   1.995   1.560   4.520
 2765SOL     OW11089   2.396   0.816   4.694
 2765SOL    HW211090   2.307   0.846   4.679
 2765SOL    HW311091   2.403   0.736   4.643
 2765SOL    MW411092   2.385   0.809   4.686
 2766SOL     OW11093   2.868   0.696   4.307
 2766SOL    HW211094   2.909   0.716   4.391
 2766SOL    HW311095   2.930   0.726   4.241
 2766SOL    MW411096   2.881   0.703   4.309
 2767SOL     OW11097   3.251   1.129   4.369
 2767SOL    HW211098   3.230   1.111   4.461
 2767SOL    HW311099   3.280   1.220   4.369
 2767SOL    MW411100   3.252   1.138   4.381
 2768SOL     OW11101   2.157   0.908   4.589
 2768SOL    HW211102   2.167   1.002   4.605
 2768SOL    HW311103   2.064   0.891   4.600
 2768SOL    MW411104   2.146   0.918   4.592
 2769SOL     OW11105   2.644   1.419   4.592
 2769SOL    HW211106   2.690   1.421   4.675
 2769SOL    HW311107   2.709   1.389   4.529
 2769SOL    MW411108   2.658   1.415   4.594
 2770SOL     OW11109   2.637   1.681   4.486
 2770SOL    HW211110   2.646   1.665   4.392
 2770SOL    HW311111   2.639   1.594   4.525
 2770SOL    MW411112   2.638   1.668   4.479
 2771SOL     OW11113   2.457   1.889   4.544
 2771SOL    HW211114   2.510   1.812   4.526
 2771SOL    HW311115   2.467   1.943   4.465
 2771SOL    MW411116   2.465   1.886   4.531
 2772SOL     OW11117   2.136   2.177   4.801
 2772SOL    HW211118   2.128   2.273   4.800
 2772SOL    HW311119   2.063   2.147   4.747
 2772SOL    MW411120   2.125   2.186   4.794
 2773SOL     OW11121   2.416   2.124   4.694
 2773SOL    HW211122   2.435   2.049   4.638
 2773SOL    HW311123   2.328   2.108   4.728
 2773SOL    MW411124   2.407   2.112   4.691
 2774SOL     OW11125   2.765   2.605   4.316
 2774SOL    HW211126   2.741   2.579   4.405
 2774SOL    HW311127   2.779   2.700   4.322
 2774SOL    MW411128   2.763   2.614   4.329
 2775SOL     OW11129   1.637   2.755   4.420
 2775SOL    HW211130   1.668   2.670   4.389
 2775SOL    HW311131   1.588   2.735   4.500
 2775SOL    MW411132   1.635   2.741   4.427
 2776SOL     OW11133   2.260   2.926   4.763
 2776SOL    HW211134   2.336   2.980   4.783
 2776SOL    HW311135   2.274   2.899   4.672
 2776SOL    MW411136   2.272   2.930   4.753
 2777SOL     OW11137   2.709   3.499   4.614
 2777SOL    HW211138   2.706   3.455   4.699
 2777SOL    HW311139   2.617   3.511   4.591
 2777SOL    MW411140   2.697   3.495   4.622
 2778SOL     OW11141   2.586   2.991   4.818
 2778SOL    HW211142   2.660   3.049   4.830
 2778SOL    HW311143   2.621   2.903   4.832
 2778SOL    MW411144   2.600   2.987   4.822
 2779SOL     OW11145   1.197   4.234   4.588
 2779SOL    HW211146   1.224   4.155   4.541
 2779SOL    HW311147   1.206   4.212   4.680
 2779SOL    MW411148   1.201   4.221   4.594
 2780SOL     OW11149   3.107   4.055   4.509
 2780SOL    HW211150   3.024   4.009   4.520
 2780SOL    HW311151   3.170   4.002   4.559
 2780SOL    MW411152   3.105   4.042   4.517
 2781SOL     OW11153   2.103   3.107   4.618
 2781SOL    HW211154   2.125   3.063   4.536
 2781SOL    HW311155   2.150   3.058   4.685
 2781SOL    MW411156   2.112   3.095   4.616
 2782SOL     OW11157   3.304   3.911   4.654
 2782SOL    HW211158   3.344   3.977   4.711
 2782SOL    HW311159   3.333   3.827   4.691
 2782SOL    MW411160   3.313   3.908   4.666
 2783SOL     OW11161   3.196   4.279   4.833
 2783SOL    HW211162   3.177   4.306   4.743
 2783SOL    HW311163   3.110   4.258   4.870
 2783SOL    MW411164   3.182   4.280   4.826
 2784SOL     OW11165   2.270   4.297   4.517
 2784SOL    HW211166   2.176   4.314   4.518
 2784SOL    HW311167   2.277   4.207   4.484
 2784SOL    MW411168   2.259   4.287   4.513
 2785SOL     OW11169   2.397   4.547   4.554
 2785SOL    HW211170   2.371   4.455   4.552
 2785SOL    HW311171   2.365   4.582   4.470
 2785SOL    MW411172   2.389   4.540   4.542
 2786SOL     OW11173   2.882   0.423   4.321
 2786SOL    HW211174   2.893   0.518   4.309
 2786SOL    HW311175   2.948   0.384   4.265
 2786SOL    MW411176   2.892   0.431   4.312
 2787SOL     OW11177   3.032   4.552   4.510
 2787SOL    HW211178   3.082   4.473   4.532
 2787SOL    HW311179   2.941   4.524   4.510
 2787SOL    MW411180   3.027   4.538   4.513
 2788SOL     OW11181   2.671   4.128   4.663
 2788SOL    HW211182   2.694   4.148   4.754
 2788SOL    HW311183   2.583   4.092   4.668
 2788SOL    MW411184   2.662   4.126   4.676
 2789SOL     OW11185   2.878   1.059   4.603
 2789SOL    HW211186   2.925   0.976   4.613
 2789SOL    HW311187   2.786   1.037   4.617
 2789SOL    MW411188   2.872   1.045   4.606
 2790SOL     OW11189   2.704   0.151   4.680
 2790SOL    HW211190   2.618   0.178   4.713
 2790SOL    HW311191   2.686   0.069   4.633
 2790SOL    MW411192   2.690   0.144   4.678
 2791SOL     OW11193   1.825   0.636   4.649
 2791SOL    HW211194   1.861   0.614   4.735
 2791SOL    HW311195   1.845   0.560   4.594
 2791SOL    MW411196   1.832   0.623   4.653
 2792SOL     OW11197   2.603   0.986   4.628
 2792SOL    HW211198   2.524   0.940   4.655
 2792SOL    HW311199   2.620   0.954   4.539
 2792SOL    MW411200   2.595   0.976   4.620
 2793SOL     OW11201   3.121   1.407   4.587
 2793SOL    HW211202   3.038   1.382   4.545
 2793SOL    HW311203   3.187   1.394   4.519
 2793SOL    MW411204   3.119   1.402   4.572
 2794SOL     OW11205   3.087   1.684   4.487
 2794SOL    HW211206   3.012   1.740   4.504
 2794SOL    HW311207   3.060   1.597   4.518
 2794SOL    MW411208   3.074   1.680   4.494
 2795SOL     OW11209   2.860   1.813   4.536
 2795SOL    HW211210   2.832   1.904   4.526
 2795SOL    HW311211   2.781   1.762   4.518
 2795SOL    MW411212   2.846   1.818   4.532
 2796SOL     OW11213   2.588   2.266   4.496
 2796SOL    HW211214   2.534   2.282   4.418
 2796SOL    HW311215   2.527   2.237   4.563
 2796SOL    MW411216   2.573   2.265   4.494
 2797SOL     OW11217   2.805   2.087   4.500
 2797SOL    HW211218   2.730   2.142   4.520
 2797SOL    HW311219   2.820   2.099   4.406
 2797SOL    MW411220   2.797   2.096   4.490
 2798SOL     OW11221   3.001   2.278   4.510
 2798SOL    HW211222   2.927   2.218   4.516
 2798SOL    HW311223   3.002   2.307   4.419
 2798SOL    MW411224   2.991   2.274   4.499
 2799SOL     OW11225   2.475   2.675   4.604
 2799SOL    HW211226   2.416   2.656   4.677
 2799SOL    HW311227   2.432   2.746   4.557
 2799SOL    MW411228   2.462   2.682   4.608
 2800SOL     OW11229   3.685   3.549   4.841
 2800SOL    HW211230   3.596   3.583   4.844
 2800SOL    HW311231   3.682   3.479   4.777
 2800SOL    MW411232   3.673   3.545   4.833
 2801SOL     OW11233   2.829   2.898   4.276
 2801SOL    HW211234   2.871   2.947   4.205
 2801SOL    HW311235   2.740   2.933   4.280
 2801SOL    MW411236   2.823   2.909   4.267
 2802SOL     OW11237   2.736   3.322   4.830
 2802SOL    HW211238   2.793   3.249   4.807
 2802SOL    HW311239   2.726   3.316   4.925
 2802SOL    MW411240   2.742   3.312   4.839
 2803SOL     OW11241   2.977   2.858   4.530
 2803SOL    HW211242   3.071   2.868   4.513
 2803SOL    HW311243   2.938   2.851   4.443
 2803SOL    MW411244   2.984   2.859   4.516
 2804SOL     OW11245   2.442   0.207   4.729
 2804SOL    HW211246   2.379   0.278   4.726
 2804SOL    HW311247   2.395   0.133   4.768
 2804SOL    MW411248   2.428   0.206   4.734
 2805SOL     OW11249   3.418   4.114   4.820
 2805SOL    HW211250   3.347   4.178   4.814
 2805SOL    HW311251   3.493   4.159   4.781
 2805SOL    MW411252   3.419   4.128   4.814
 2806SOL     OW11253   3.916   3.717   4.496
 2806SOL    HW211254   3.872   3.692   4.415
 2806SOL    HW311255   3.846   3.727   4.559
 2806SOL    MW411256   3.901   3.715   4.493
 2807SOL     OW11257   2.910   3.625   4.466
 2807SOL    HW211258   2.839   3.581   4.513
 2807SOL    HW311259   2.917   3.711   4.508
 2807SOL    MW411260   2.902   3.631   4.478
 2808SOL     OW11261   3.172   4.330   4.561
 2808SOL    HW211262   3.162   4.245   4.517
 2808SOL    HW311263   3.267   4.343   4.567
 2808SOL    MW411264   3.183   4.320   4.556
 2809SOL     OW11265   2.685   0.392   4.544
 2809SOL    HW211266   2.702   0.309   4.588
 2809SOL    HW311267   2.742   0.391   4.467
 2809SOL    MW411268   2.695   0.381   4.540
 2810SOL     OW11269   2.971   0.768   4.551
 2810SOL    HW211270   3.064   0.743   4.547
 2810SOL    HW311271   2.931   0.704   4.610
 2810SOL    MW411272   2.978   0.756   4.558
 2811SOL     OW11273   2.298   0.444   4.738
 2811SOL    HW211274   2.331   0.472   4.652
 2811SOL    HW311275   2.311   0.520   4.794
 2811SOL    MW411276   2.304   0.458   4.734
 2812SOL     OW11277   2.421   1.226   4.590
 2812SOL    HW211278   2.484   1.156   4.610
 2812SOL    HW311279   2.469   1.306   4.609
 2812SOL    MW411280   2.436   1.227   4.595
 2813SOL     OW11281   2.805   4.333   4.455
 2813SOL    HW211282   2.765   4.255   4.494
 2813SOL    HW311283   2.745   4.404   4.478
 2813SOL    MW411284   2.792   4.332   4.463
 2814SOL     OW11285   2.686   4.591   4.520
 2814SOL    HW211286   2.684   4.651   4.446
 2814SOL    HW311287   2.594   4.579   4.544
 2814SOL    MW411288   2.674   4.597   4.513
 2815SOL     OW11289   3.368   1.604   4.648
 2815SOL    HW211290   3.327   1.690   4.641
 2815SOL    HW311291   3.295   1.542   4.643
 2815SOL    MW411292   3.353   1.608   4.646
 2816SOL     OW11293   2.900   1.314   4.468
 2816SOL    HW211294   2.882   1.222   4.489
 2816SOL    HW311295   2.920   1.315   4.375
 2816SOL    MW411296   2.900   1.302   4.459
 2817SOL     OW11297   4.054   0.937   4.515
 2817SOL    HW211298   4.065   0.923   4.421
 2817SOL    HW311299   4.126   0.888   4.555
 2817SOL    MW411300   4.065   0.929   4.508
 2818SOL     OW11301   3.561   1.450   4.532
 2818SOL    HW211302   3.620   1.517   4.498
 2818SOL    HW311303   3.503   1.497   4.593
 2818SOL    MW411304   3.561   1.465   4.536
 2819SOL     OW11305   3.294   1.880   4.566
 2819SOL    HW211306   3.282   1.974   4.556
 2819SOL    HW311307   3.211   1.842   4.537
 2819SOL    MW411308   3.282   1.887   4.561
 2820SOL     OW11309   3.262   2.143   4.500
 2820SOL    HW211310   3.173   2.174   4.516
 2820SOL    HW311311   3.264   2.123   4.406
 2820SOL    MW411312   3.251   2.145   4.489
 2821SOL     OW11313   3.715   1.674   4.447
 2821SOL    HW211314   3.685   1.750   4.496
 2821SOL    HW311315   3.687   1.692   4.357
 2821SOL    MW411316   3.707   1.687   4.441
 2822SOL     OW11317   2.912   2.660   4.704
 2822SOL    HW211318   2.884   2.579   4.662
 2822SOL    HW311319   2.921   2.723   4.633
 2822SOL    MW411320   2.910   2.657   4.689
 2823SOL     OW11321   3.187   2.559   4.523
 2823SOL    HW211322   3.135   2.527   4.597
 2823SOL    HW311323   3.147   2.518   4.446
 2823SOL    MW411324   3.175   2.549   4.522
 2824SOL     OW11325   2.804   2.452   4.557
 2824SOL    HW211326   2.723   2.404   4.542
 2824SOL    HW311327   2.873   2.386   4.548
 2824SOL    MW411328   2.803   2.437   4.554
 2825SOL     OW11329   3.605   3.140   4.507
 2825SOL    HW211330   3.614   3.169   4.416
 2825SOL    HW311331   3.663   3.063   4.514
 2825SOL    MW411332   3.614   3.134   4.496
 2826SOL     OW11333   3.299   3.437   4.419
 2826SOL    HW211334   3.243   3.444   4.497
 2826SOL    HW311335   3.310   3.342   4.406
 2826SOL    MW411336   3.293   3.425   4.427
 2827SOL     OW11337   3.328   3.139   4.533
 2827SOL    HW211338   3.313   3.046   4.550
 2827SOL    HW311339   3.422   3.146   4.515
 2827SOL    MW411340   3.338   3.128   4.533
 2828SOL     OW11341   3.840   2.852   4.507
 2828SOL    HW211342   3.829   2.757   4.517
 2828SOL    HW311343   3.934   2.866   4.509
 2828SOL    MW411344   3.851   2.841   4.509
 2829SOL     OW11345   3.692   3.393   4.614
 2829SOL    HW211346   3.661   3.307   4.585
 2829SOL    HW311347   3.787   3.386   4.613
 2829SOL    MW411348   3.700   3.381   4.610
 2830SOL     OW11349   3.611   4.220   4.642
 2830SOL    HW211350   3.702   4.244   4.624
 2830SOL    HW311351   3.602   4.131   4.607
 2830SOL    MW411352   3.622   4.211   4.635
 2831SOL     OW11353   3.038   0.435   4.569
 2831SOL    HW211354   2.990   0.437   4.487
 2831SOL    HW311355   3.020   0.348   4.606
 2831SOL    MW411356   3.030   0.424   4.563
 2832SOL     OW11357   2.992   0.149   4.638
 2832SOL    HW211358   3.010   0.066   4.593
 2832SOL    HW311359   2.897   0.148   4.653
 2832SOL    MW411360   2.982   0.138   4.634
 2833SOL     OW11361   3.444   4.418   4.516
 2833SOL    HW211362   3.502   4.346   4.544
 2833SOL    HW311363   3.486   4.497   4.550
 2833SOL    MW411364   3.457   4.419   4.524
 2834SOL     OW11365   3.573   3.977   4.529
 2834SOL    HW211366   3.638   3.946   4.592
 2834SOL    HW311367   3.499   3.919   4.541
 2834SOL    MW411368   3.572   3.965   4.539
 2835SOL     OW11369   3.588   0.004   4.566
 2835SOL    HW211370   3.512   0.039   4.613
 2835SOL    HW311371   3.585   0.047   4.481
 2835SOL    MW411372   3.578   0.014   4.561
 2836SOL     OW11373   3.374   0.894   4.670
 2836SOL    HW211374   3.308   0.962   4.665
 2836SOL    HW311375   3.455   0.936   4.641
 2836SOL    MW411376   3.376   0.908   4.666
 2837SOL     OW11377   2.250   4.660   4.760
 2837SOL    HW211378   2.209   4.703   4.685
 2837SOL    HW311379   2.311   4.598   4.721
 2837SOL    MW411380   2.253   4.658   4.745
 2838SOL     OW11381   4.388   1.707   4.631
 2838SOL    HW211382   4.385   1.615   4.603
 2838SOL    HW311383   4.466   1.743   4.589
 2838SOL    MW411384   4.398   1.700   4.621
 2839SOL     OW11385   3.795   0.793   4.565
 2839SOL    HW211386   3.795   0.763   4.474
 2839SOL    HW311387   3.880   0.834   4.576
 2839SOL    MW411388   3.806   0.795   4.554
 2840SOL     OW11389   0.025   0.905   4.576
 2840SOL    HW211390   0.038   0.885   4.483
 2840SOL    HW311391   0.110   0.886   4.617
 2840SOL    MW411392   0.038   0.900   4.569
 2841SOL     OW11393   4.223   0.516   4.501
 2841SOL    HW211394   4.233   0.519   4.406
 2841SOL    HW311395   4.140   0.470   4.515
 2841SOL    MW411396   4.213   0.511   4.490
 2842SOL     OW11397   3.612   1.701   4.190
 2842SOL    HW211398   3.675   1.637   4.156
 2842SOL    HW311399   3.527   1.655   4.186
 2842SOL    MW411400   3.609   1.686   4.185
 2843SOL     OW11401   4.009   1.658   4.166
 2843SOL    HW211402   4.102   1.643   4.149
 2843SOL    HW311403   4.001   1.658   4.261
 2843SOL    MW411404   4.021   1.656   4.176
 2844SOL     OW11405   3.620   2.412   4.472
 2844SOL    HW211406   3.538   2.397   4.518
 2844SOL    HW311407   3.667   2.329   4.480
 2844SOL    MW411408   3.616   2.399   4.479
 2845SOL     OW11409   3.591   1.899   4.599
 2845SOL    HW211410   3.598   1.900   4.695
 2845SOL    HW311411   3.499   1.881   4.582
 2845SOL    MW411412   3.580   1.897   4.610
 2846SOL     OW11413   0.161   2.097   4.488
 2846SOL    HW211414   0.235   2.142   4.528
 2846SOL    HW311415   0.085   2.150   4.512
 2846SOL    MW411416   0.161   2.110   4.496
 2847SOL     OW11417   3.742   2.153   4.510
 2847SOL    HW211418   3.827   2.117   4.534
 2847SOL    HW311419   3.678   2.095   4.551
 2847SOL    MW411420   3.745   2.141   4.518
 2848SOL     OW11421   3.798   2.591   4.585
 2848SOL    HW211422   3.738   2.532   4.540
 2848SOL    HW311423   3.763   2.597   4.674
 2848SOL    MW411424   3.785   2.584   4.591
 2849SOL     OW11425   4.078   2.583   4.495
 2849SOL    HW211426   3.988   2.576   4.527
 2849SOL    HW311427   4.099   2.676   4.502
 2849SOL    MW411428   4.069   2.595   4.500
 2850SOL     OW11429   4.396   2.975   4.543
 2850SOL    HW211430   4.412   3.069   4.549
 2850SOL    HW311431   4.480   2.935   4.566
 2850SOL    MW411432   4.409   2.982   4.547
 2851SOL     OW11433   3.096   3.236   4.662
 2851SOL    HW211434   3.055   3.213   4.579
 2851SOL    HW311435   3.190   3.225   4.647
 2851SOL    MW411436   3.103   3.232   4.649
 2852SOL     OW11437   3.410   3.650   4.767
 2852SOL    HW211438   3.332   3.594   4.760
 2852SOL    HW311439   3.461   3.630   4.688
 2852SOL    MW411440   3.406   3.640   4.756
 2853SOL     OW11441   3.120   3.537   4.612
 2853SOL    HW211442   3.052   3.567   4.552
 2853SOL    HW311443   3.077   3.467   4.662
 2853SOL    MW411444   3.105   3.531   4.611
 2854SOL     OW11445   4.205   3.382   4.438
 2854SOL    HW211446   4.249   3.448   4.384
 2854SOL    HW311447   4.181   3.313   4.376
 2854SOL    MW411448   4.208   3.381   4.422
 2855SOL     OW11449   0.318   3.143   4.741
 2855SOL    HW211450   0.406   3.134   4.704
 2855SOL    HW311451   0.279   3.215   4.692
 2855SOL    MW411452   0.325   3.151   4.730
 2856SOL     OW11453   4.284   3.772   4.545
 2856SOL    HW211454   4.213   3.835   4.556
 2856SOL    HW311455   4.250   3.709   4.482
 2856SOL    MW411456   4.270   3.772   4.538
 2857SOL     OW11457   3.870   4.320   4.546
 2857SOL    HW211458   3.871   4.332   4.451
 2857SOL    HW311459   3.864   4.409   4.582
 2857SOL    MW411460   3.870   4.333   4.538
 2858SOL     OW11461   3.368   0.139   4.661
 2858SOL    HW211462   3.288   0.123   4.712
 2858SOL    HW311463   3.352   0.223   4.618
 2858SOL    MW411464   3.355   0.148   4.662
 2859SOL     OW11465   3.634   1.011   4.630
 2859SOL    HW211466   3.694   1.084   4.614
 2859SOL    HW311467   3.681   0.934   4.600
 2859SOL    MW411468   3.648   1.011   4.624
 2860SOL     OW11469   3.250   0.689   4.521
 2860SOL    HW211470   3.279   0.601   4.547
 2860SOL    HW311471   3.281   0.745   4.592
 2860SOL    MW411472   3.258   0.684   4.534
 2861SOL     OW11473   0.187   0.390   4.558
 2861SOL    HW211474   0.234   0.470   4.536
 2861SOL    HW311475   0.149   0.407   4.644
 2861SOL    MW411476   0.188   0.403   4.566
 2862SOL     OW11477   0.361   0.617   4.483
 2862SOL    HW211478   0.452   0.588   4.481
 2862SOL    HW311479   0.326   0.595   4.397
 2862SOL    MW411480   0.368   0.610   4.472
 2863SOL     OW11481   3.942   0.391   4.521
 2863SOL    HW211482   3.882   0.426   4.587
 2863SOL    HW311483   3.964   0.303   4.552
 2863SOL    MW411484   3.937   0.384   4.533
 2864SOL     OW11485   3.784   1.251   4.534
 2864SOL    HW211486   3.709   1.310   4.524
 2864SOL    HW311487   3.855   1.307   4.565
 2864SOL    MW411488   3.784   1.266   4.536
 2865SOL     OW11489   0.012   1.204   4.572
 2865SOL    HW211490   0.099   1.223   4.537
 2865SOL    HW311491   0.006   1.108   4.570
 2865SOL    MW411492   0.023   1.194   4.567
 2866SOL     OW11493   4.357   1.442   4.547
 2866SOL    HW211494   4.335   1.404   4.462
 2866SOL    HW311495   4.412   1.376   4.589
 2866SOL    MW411496   4.361   1.428   4.541
 2867SOL     OW11497   4.016   1.409   4.576
 2867SOL    HW211498   4.063   1.460   4.642
 2867SOL    HW311499   4.074   1.336   4.557
 2867SOL    MW411500   4.030   1.406   4.582
 2868SOL     OW11501   3.259   2.840   4.490
 2868SOL    HW211502   3.258   2.754   4.532
 2868SOL    HW311503   3.273   2.821   4.397
 2868SOL    MW411504   3.261   2.826   4.483
 2869SOL     OW11505   4.103   2.118   4.276
 2869SOL    HW211506   4.050   2.056   4.226
 2869SOL    HW311507   4.186   2.073   4.289
 2869SOL    MW411508   4.107   2.104   4.271
 2870SOL     OW11509   4.424   2.241   4.503
 2870SOL    HW211510   4.355   2.257   4.568
 2870SOL    HW311511   4.465   2.326   4.490
 2870SOL    MW411512   4.420   2.254   4.510
 2871SOL     OW11513   4.000   2.074   4.522
 2871SOL    HW211514   4.054   1.999   4.546
 2871SOL    HW311515   4.030   2.097   4.434
 2871SOL    MW411516   4.011   2.067   4.513
 2872SOL     OW11517   3.392   2.373   4.580
 2872SOL    HW211518   3.331   2.442   4.554
 2872SOL    HW311519   3.348   2.292   4.554
 2872SOL    MW411520   3.378   2.371   4.573
 2873SOL     OW11521   0.481   2.691   4.613
 2873SOL    HW211522   0.442   2.621   4.560
 2873SOL    HW311523   0.406   2.741   4.645
 2873SOL    MW411524   0.466   2.688   4.610
 2874SOL     OW11525   4.129   2.879   4.463
 2874SOL    HW211526   4.204   2.925   4.502
 2874SOL    HW311527   4.156   2.861   4.373
 2874SOL    MW411528   4.143   2.882   4.456
 2875SOL     OW11529   0.116   2.765   4.496
 2875SOL    HW211530   0.152   2.807   4.417
 2875SOL    HW311531   0.167   2.802   4.568
 2875SOL    MW411532   0.128   2.775   4.495
 2876SOL     OW11533   0.262   3.657   4.500
 2876SOL    HW211534   0.348   3.698   4.494
 2876SOL    HW311535   0.243   3.629   4.410
 2876SOL    MW411536   0.271   3.659   4.487
 2877SOL     OW11537   3.841   4.614   4.627
 2877SOL    HW211538   3.858   4.632   4.719
 2877SOL    HW311539   3.751   4.642   4.613
 2877SOL    MW411540   3.832   4.620   4.637
 2878SOL     OW11541   4.241   4.287   4.554
 2878SOL    HW211542   4.161   4.323   4.592
 2878SOL    HW311543   4.227   4.192   4.553
 2878SOL    MW411544   4.229   4.279   4.559
 2879SOL     OW11545   3.958   3.457   4.572
 2879SOL    HW211546   3.964   3.548   4.543
 2879SOL    HW311547   4.027   3.412   4.523
 2879SOL    MW411548   3.968   3.463   4.562
 2880SOL     OW11549   2.454   0.567   4.552
 2880SOL    HW211550   2.529   0.515   4.579
 2880SOL    HW311551   2.442   0.547   4.459
 2880SOL    MW411552   2.462   0.558   4.543
 2881SOL     OW11553   4.287   4.402   4.295
 2881SOL    HW211554   4.350   4.344   4.253
 2881SOL    HW311555   4.275   4.365   4.383
 2881SOL    MW411556   4.294   4.389   4.301
 2882NA      NA11557   2.724   4.252   0.672
 2883NA      NA11558   0.752   2.016   0.429
   4.49070   4.66690  10.00000
