Gromacs Runs On Most of All Computer Systems in water t= 720.00000 step= 720000
11558
    1RG35     P    1   2.181   2.903   4.463
    1RG35   O1P    2   2.156   2.818   4.343
    1RG35   O2P    3   2.125   3.036   4.457
    1RG35   O5'    4   2.094   2.842   4.574
    1RG35   C5'    5   1.955   2.839   4.567
    1RG35  H5'1    6   1.924   2.848   4.462
    1RG35  H5'2    7   1.910   2.925   4.615
    1RG35   C4'    8   1.913   2.708   4.634
    1RG35   H4'    9   1.807   2.718   4.654
    1RG35   O4'   10   1.926   2.589   4.551
    1RG35   C1'   11   1.958   2.480   4.635
    1RG35   H1'   12   1.866   2.444   4.683
    1RG35    N9   13   2.013   2.371   4.550
    1RG35    C8   14   2.101   2.379   4.440
    1RG35    H8   15   2.159   2.466   4.413
    1RG35    N7   16   2.104   2.266   4.374
    1RG35    C5   17   2.021   2.179   4.445
    1RG35    C6   18   1.996   2.041   4.425
    1RG35    O6   19   2.030   1.970   4.335
    1RG35    N1   20   1.906   1.989   4.514
    1RG35    H1   21   1.895   1.889   4.513
    1RG35    C2   22   1.844   2.060   4.604
    1RG35    N2   23   1.756   1.998   4.674
    1RG35   H21   24   1.743   1.898   4.664
    1RG35   H22   25   1.706   2.049   4.746
    1RG35    N3   26   1.862   2.190   4.631
    1RG35    C4   27   1.958   2.245   4.548
    1RG35   C3'   28   1.982   2.671   4.766
    1RG35   H3'   29   2.045   2.758   4.789
    1RG35   C2'   30   2.055   2.542   4.728
    1RG35  H2'1   31   2.143   2.574   4.673
    1RG35   O2'   32   2.099   2.479   4.845
    1RG35  HO'2   33   2.161   2.536   4.891
    1RG35   O3'   34   1.888   2.640   4.862
    1RG35   H3T   35   1.930   2.567   4.907
    1RG35   O3P   36   2.320   2.903   4.511
    2SOL     OW   37   0.498   0.096   0.463
    2SOL    HW2   38   0.493   0.006   0.430
    2SOL    HW3   39   0.565   0.138   0.409
    2SOL    MW4   40   0.506   0.090   0.452
    3SOL     OW   41   3.946   0.263   0.501
    3SOL    HW2   42   4.002   0.225   0.433
    3SOL    HW3   43   3.960   0.357   0.494
    3SOL    MW4   44   3.955   0.270   0.491
    4SOL     OW   45   3.741   0.604   0.440
    4SOL    HW2   46   3.651   0.615   0.470
    4SOL    HW3   47   3.789   0.576   0.518
    4SOL    MW4   48   3.735   0.602   0.455
    5SOL     OW   49   0.434   1.705   0.327
    5SOL    HW2   50   0.523   1.680   0.353
    5SOL    HW3   51   0.377   1.645   0.376
    5SOL    MW4   52   0.438   1.694   0.337
    6SOL     OW   53   1.453   0.801   0.431
    6SOL    HW2   54   1.407   0.803   0.515
    6SOL    HW3   55   1.546   0.802   0.453
    6SOL    MW4   56   1.459   0.802   0.445
    7SOL     OW   57   0.253   0.479   0.445
    7SOL    HW2   58   0.213   0.469   0.531
    7SOL    HW3   59   0.264   0.390   0.413
    7SOL    MW4   60   0.249   0.466   0.452
    8SOL     OW   61   0.550   0.870   0.435
    8SOL    HW2   62   0.510   0.886   0.521
    8SOL    HW3   63   0.532   0.777   0.418
    8SOL    MW4   64   0.542   0.860   0.444
    9SOL     OW   65   0.811   0.787   0.445
    9SOL    HW2   66   0.844   0.791   0.535
    9SOL    HW3   67   0.723   0.824   0.449
    9SOL    MW4   68   0.804   0.792   0.457
   10SOL     OW   69   0.496   1.100   0.297
   10SOL    HW2   70   0.532   1.083   0.210
   10SOL    HW3   71   0.513   1.020   0.346
   10SOL    MW4   72   0.503   1.087   0.292
   11SOL     OW   73   4.255   1.473   0.319
   11SOL    HW2   74   4.193   1.519   0.376
   11SOL    HW3   75   4.219   1.483   0.231
   11SOL    MW4   76   4.242   1.481   0.315
   12SOL     OW   77   4.080   2.379   0.614
   12SOL    HW2   78   3.988   2.355   0.610
   12SOL    HW3   79   4.082   2.470   0.584
   12SOL    MW4   80   4.068   2.388   0.610
   13SOL     OW   81   0.007   1.576   0.435
   13SOL    HW2   82  -0.021   1.577   0.527
   13SOL    HW3   83  -0.061   1.527   0.390
   13SOL    MW4   84  -0.006   1.570   0.441
   14SOL     OW   85   0.643   2.308   0.418
   14SOL    HW2   86   0.656   2.281   0.509
   14SOL    HW3   87   0.704   2.381   0.406
   14SOL    MW4   88   0.653   2.314   0.429
   15SOL     OW   89   0.167   2.772   0.461
   15SOL    HW2   90   0.164   2.865   0.442
   15SOL    HW3   91   0.250   2.742   0.422
   15SOL    MW4   92   0.178   2.780   0.453
   16SOL     OW   93   4.130   3.362   0.392
   16SOL    HW2   94   4.174   3.290   0.347
   16SOL    HW3   95   4.119   3.331   0.482
   16SOL    MW4   96   4.134   3.349   0.398
   17SOL     OW   97   0.212   3.026   0.382
   17SOL    HW2   98   0.271   3.058   0.450
   17SOL    HW3   99   0.157   3.101   0.360
   17SOL    MW4  100   0.212   3.040   0.388
   18SOL     OW  101   0.631   3.249   0.345
   18SOL    HW2  102   0.717   3.255   0.387
   18SOL    HW3  103   0.608   3.339   0.323
   18SOL    MW4  104   0.639   3.262   0.347
   19SOL     OW  105   0.709   3.778   0.327
   19SOL    HW2  106   0.771   3.823   0.270
   19SOL    HW3  107   0.682   3.844   0.391
   19SOL    MW4  108   0.714   3.792   0.328
   20SOL     OW  109   4.196   3.860   0.450
   20SOL    HW2  110   4.226   3.916   0.522
   20SOL    HW3  111   4.238   3.776   0.465
   20SOL    MW4  112   4.206   3.857   0.461
   21SOL     OW  113   0.129   3.778   0.173
   21SOL    HW2  114   0.207   3.787   0.228
   21SOL    HW3  115   0.159   3.804   0.086
   21SOL    MW4  116   0.144   3.783   0.169
   22SOL     OW  117   4.463   4.416   0.462
   22SOL    HW2  118   4.407   4.373   0.397
   22SOL    HW3  119   4.409   4.422   0.540
   22SOL    MW4  120   4.448   4.411   0.464
   23SOL     OW  121   4.298   4.239   0.308
   23SOL    HW2  122   4.335   4.155   0.283
   23SOL    HW3  123   4.214   4.217   0.348
   23SOL    MW4  124   4.292   4.225   0.310
   24SOL     OW  125   4.415   3.960   0.312
   24SOL    HW2  126   4.339   3.922   0.355
   24SOL    HW3  127   4.449   3.890   0.256
   24SOL    MW4  128   4.410   3.946   0.310
   25SOL     OW  129   0.458   3.116   0.517
   25SOL    HW2  130   0.476   3.154   0.603
   25SOL    HW3  131   0.509   3.169   0.456
   25SOL    MW4  132   0.467   3.128   0.520
   26SOL     OW  133   0.407   4.525   0.388
   26SOL    HW2  134   0.335   4.468   0.413
   26SOL    HW3  135   0.421   4.506   0.295
   26SOL    MW4  136   0.399   4.515   0.379
   27SOL     OW  137   0.234   0.200   0.375
   27SOL    HW2  138   0.164   0.135   0.382
   27SOL    HW3  139   0.313   0.151   0.398
   27SOL    MW4  140   0.235   0.185   0.379
   28SOL     OW  141   4.488   0.519   0.359
   28SOL    HW2  142   4.577   0.516   0.395
   28SOL    HW3  143   4.501   0.521   0.264
   28SOL    MW4  144   4.502   0.519   0.352
   29SOL     OW  145   1.180   4.540   0.396
   29SOL    HW2  146   1.160   4.450   0.424
   29SOL    HW3  147   1.229   4.529   0.314
   29SOL    MW4  148   1.184   4.527   0.389
   30SOL     OW  149   1.141   1.201   0.430
   30SOL    HW2  150   1.057   1.159   0.413
   30SOL    HW3  151   1.146   1.272   0.366
   30SOL    MW4  152   1.130   1.205   0.419
   31SOL     OW  153   0.686   0.425   0.488
   31SOL    HW2  154   0.768   0.471   0.471
   31SOL    HW3  155   0.696   0.341   0.444
   31SOL    MW4  156   0.698   0.420   0.480
   32SOL     OW  157   0.287   1.200   0.453
   32SOL    HW2  158   0.364   1.162   0.412
   32SOL    HW3  159   0.215   1.142   0.426
   32SOL    MW4  160   0.288   1.187   0.444
   33SOL     OW  161   0.089   2.064   0.493
   33SOL    HW2  162   0.023   2.133   0.484
   33SOL    HW3  163   0.045   1.984   0.464
   33SOL    MW4  164   0.074   2.062   0.488
   34SOL     OW  165   0.511   1.963   0.362
   34SOL    HW2  166   0.445   2.029   0.342
   34SOL    HW3  167   0.471   1.880   0.335
   34SOL    MW4  168   0.497   1.961   0.356
   35SOL     OW  169   0.455   2.994   0.191
   35SOL    HW2  170   0.372   3.009   0.236
   35SOL    HW3  171   0.506   3.073   0.209
   35SOL    MW4  172   0.451   3.007   0.199
   36SOL     OW  173   0.512   2.736   0.089
   36SOL    HW2  174   0.479   2.818   0.126
   36SOL    HW3  175   0.483   2.738  -0.002
   36SOL    MW4  176   0.504   2.747   0.082
   37SOL     OW  177   3.897   2.231   0.233
   37SOL    HW2  178   3.922   2.216   0.141
   37SOL    HW3  179   3.979   2.227   0.281
   37SOL    MW4  180   3.911   2.229   0.227
   38SOL     OW  181   1.146   2.088   0.514
   38SOL    HW2  182   1.145   2.047   0.601
   38SOL    HW3  183   1.239   2.097   0.493
   38SOL    MW4  184   1.159   2.084   0.523
   39SOL     OW  185   0.396   2.395   0.432
   39SOL    HW2  186   0.393   2.487   0.405
   39SOL    HW3  187   0.487   2.369   0.417
   39SOL    MW4  188   0.407   2.403   0.426
   40SOL     OW  189   4.265   3.165   0.270
   40SOL    HW2  190   4.222   3.093   0.317
   40SOL    HW3  191   4.234   3.157   0.180
   40SOL    MW4  192   4.255   3.154   0.264
   41SOL     OW  193   0.424   2.667   0.365
   41SOL    HW2  194   0.430   2.676   0.270
   41SOL    HW3  195   0.464   2.748   0.399
   41SOL    MW4  196   0.430   2.679   0.357
   42SOL     OW  197   0.875   0.349   0.158
   42SOL    HW2  198   0.876   0.395   0.074
   42SOL    HW3  199   0.889   0.418   0.223
   42SOL    MW4  200   0.877   0.364   0.156
   43SOL     OW  201   0.327   3.579   0.446
   43SOL    HW2  202   0.331   3.670   0.415
   43SOL    HW3  203   0.402   3.536   0.405
   43SOL    MW4  204   0.337   3.585   0.437
   44SOL     OW  205   0.557   3.510   0.307
   44SOL    HW2  206   0.562   3.508   0.211
   44SOL    HW3  207   0.612   3.584   0.332
   44SOL    MW4  208   0.565   3.520   0.297
   45SOL     OW  209   1.116   3.668   0.519
   45SOL    HW2  210   1.035   3.621   0.496
   45SOL    HW3  211   1.186   3.610   0.490
   45SOL    MW4  212   1.114   3.654   0.512
   46SOL     OW  213   0.242   4.320   0.449
   46SOL    HW2  214   0.151   4.348   0.458
   46SOL    HW3  215   0.237   4.226   0.429
   46SOL    MW4  216   0.229   4.311   0.448
   47SOL     OW  217   0.847   3.574   0.482
   47SOL    HW2  218   0.810   3.641   0.424
   47SOL    HW3  219   0.824   3.603   0.570
   47SOL    MW4  220   0.839   3.587   0.486
   48SOL     OW  221   0.592   4.296   0.420
   48SOL    HW2  222   0.526   4.365   0.420
   48SOL    HW3  223   0.656   4.324   0.485
   48SOL    MW4  224   0.592   4.309   0.429
   49SOL     OW  225   0.710   0.200   0.323
   49SOL    HW2  226   0.785   0.145   0.343
   49SOL    HW3  227   0.736   0.251   0.247
   49SOL    MW4  228   0.723   0.200   0.316
   50SOL     OW  229   0.910   0.548   0.333
   50SOL    HW2  230   0.883   0.637   0.354
   50SOL    HW3  231   0.997   0.540   0.372
   50SOL    MW4  232   0.918   0.559   0.341
   51SOL     OW  233   0.504   0.597   0.389
   51SOL    HW2  234   0.421   0.555   0.408
   51SOL    HW3  235   0.570   0.532   0.411
   51SOL    MW4  236   0.502   0.583   0.394
   52SOL     OW  237   1.483   0.517   0.379
   52SOL    HW2  238   1.569   0.490   0.410
   52SOL    HW3  239   1.485   0.613   0.382
   52SOL    MW4  240   1.494   0.526   0.383
   53SOL     OW  241   2.008   0.774   0.382
   53SOL    HW2  242   1.919   0.800   0.406
   53SOL    HW3  243   2.010   0.780   0.287
   53SOL    MW4  244   1.997   0.778   0.373
   54SOL     OW  245   1.517   4.637   0.163
   54SOL    HW2  246   1.591   4.611   0.219
   54SOL    HW3  247   1.506   4.731   0.181
   54SOL    MW4  248   1.525   4.646   0.173
   55SOL     OW  249   0.681   1.581   0.376
   55SOL    HW2  250   0.655   1.490   0.370
   55SOL    HW3  251   0.776   1.578   0.392
   55SOL    MW4  252   0.690   1.569   0.377
   56SOL     OW  253   0.687   1.286   0.347
   56SOL    HW2  254   0.602   1.246   0.326
   56SOL    HW3  255   0.743   1.212   0.371
   56SOL    MW4  256   0.683   1.271   0.348
   57SOL     OW  257   1.417   1.357   0.216
   57SOL    HW2  258   1.425   1.285   0.279
   57SOL    HW3  259   1.325   1.384   0.223
   57SOL    MW4  260   1.406   1.351   0.226
   58SOL     OW  261   0.891   1.072   0.431
   58SOL    HW2  262   0.878   0.980   0.412
   58SOL    HW3  263   0.891   1.077   0.527
   58SOL    MW4  264   0.890   1.061   0.441
   59SOL     OW  265   1.169   1.469   0.316
   59SOL    HW2  266   1.233   1.539   0.328
   59SOL    HW3  267   1.092   1.498   0.365
   59SOL    MW4  268   1.168   1.482   0.324
   60SOL     OW  269   4.432   2.279   0.384
   60SOL    HW2  270   4.446   2.366   0.422
   60SOL    HW3  271   4.475   2.284   0.298
   60SOL    MW4  272   4.440   2.291   0.377
   61SOL     OW  273   4.467   1.846   0.358
   61SOL    HW2  274   4.475   1.755   0.385
   61SOL    HW3  275   4.495   1.847   0.266
   61SOL    MW4  276   4.472   1.834   0.349
   62SOL     OW  277   0.863   2.090   0.528
   62SOL    HW2  278   0.953   2.093   0.497
   62SOL    HW3  279   0.870   2.072   0.621
   62SOL    MW4  280   0.876   2.088   0.536
   63SOL     OW  281   0.803   1.860   0.320
   63SOL    HW2  282   0.764   1.774   0.305
   63SOL    HW3  283   0.896   1.843   0.334
   63SOL    MW4  284   0.810   1.846   0.320
   64SOL     OW  285   0.836   2.199   0.182
   64SOL    HW2  286   0.840   2.295   0.189
   64SOL    HW3  287   0.921   2.175   0.145
   64SOL    MW4  288   0.848   2.209   0.178
   65SOL     OW  289   0.772   2.713   0.268
   65SOL    HW2  290   0.719   2.735   0.191
   65SOL    HW3  291   0.739   2.772   0.337
   65SOL    MW4  292   0.761   2.724   0.267
   66SOL     OW  293   0.575   2.864   0.481
   66SOL    HW2  294   0.536   2.951   0.490
   66SOL    HW3  295   0.590   2.835   0.571
   66SOL    MW4  296   0.572   2.872   0.494
   67SOL     OW  297   0.883   3.252   0.457
   67SOL    HW2  298   0.855   3.249   0.548
   67SOL    HW3  299   0.910   3.343   0.443
   67SOL    MW4  300   0.883   3.263   0.467
   68SOL     OW  301   1.993   3.104   0.340
   68SOL    HW2  302   2.074   3.124   0.386
   68SOL    HW3  303   2.003   3.146   0.254
   68SOL    MW4  304   2.005   3.112   0.334
   69SOL     OW  305   0.885   4.075   0.524
   69SOL    HW2  306   0.795   4.050   0.501
   69SOL    HW3  307   0.885   4.075   0.620
   69SOL    MW4  308   0.873   4.071   0.533
   70SOL     OW  309   0.612   4.000   0.480
   70SOL    HW2  310   0.566   3.992   0.564
   70SOL    HW3  311   0.591   4.089   0.451
   70SOL    MW4  312   0.603   4.011   0.487
   71SOL     OW  313   1.110   4.260   0.457
   71SOL    HW2  314   1.028   4.212   0.456
   71SOL    HW3  315   1.112   4.305   0.542
   71SOL    MW4  316   1.100   4.260   0.468
   72SOL     OW  317   1.195   0.494   0.448
   72SOL    HW2  318   1.163   0.414   0.405
   72SOL    HW3  319   1.289   0.494   0.429
   72SOL    MW4  320   1.203   0.483   0.440
   73SOL     OW  321   0.967   0.069   0.446
   73SOL    HW2  322   1.020  -0.008   0.425
   73SOL    HW3  323   0.933   0.052   0.533
   73SOL    MW4  324   0.970   0.057   0.454
   74SOL     OW  325   1.366   0.226   0.291
   74SOL    HW2  326   1.272   0.240   0.285
   74SOL    HW3  327   1.403   0.314   0.301
   74SOL    MW4  328   1.359   0.239   0.292
   75SOL     OW  329   2.007   4.524   0.371
   75SOL    HW2  330   2.007   4.429   0.358
   75SOL    HW3  331   1.915   4.548   0.363
   75SOL    MW4  332   1.995   4.514   0.368
   76SOL     OW  333   1.090   0.259   0.306
   76SOL    HW2  334   1.050   0.194   0.364
   76SOL    HW3  335   1.035   0.257   0.228
   76SOL    MW4  336   1.077   0.250   0.303
   77SOL     OW  337   2.163   0.289   0.347
   77SOL    HW2  338   2.118   0.347   0.409
   77SOL    HW3  339   2.123   0.308   0.263
   77SOL    MW4  340   2.152   0.299   0.344
   78SOL     OW  341   2.428   1.051   0.324
   78SOL    HW2  342   2.414   1.064   0.230
   78SOL    HW3  343   2.341   1.033   0.359
   78SOL    MW4  344   2.415   1.050   0.316
   79SOL     OW  345   1.609   1.130   0.459
   79SOL    HW2  346   1.521   1.124   0.422
   79SOL    HW3  347   1.656   1.189   0.400
   79SOL    MW4  348   1.604   1.137   0.446
   80SOL     OW  349   1.731   0.877   0.488
   80SOL    HW2  350   1.751   0.876   0.582
   80SOL    HW3  351   1.702   0.966   0.471
   80SOL    MW4  352   1.730   0.889   0.498
   81SOL     OW  353   1.371   1.075   0.338
   81SOL    HW2  354   1.284   1.109   0.359
   81SOL    HW3  355   1.360   0.980   0.338
   81SOL    MW4  356   1.358   1.067   0.341
   82SOL     OW  357   1.838   1.913   0.469
   82SOL    HW2  358   1.810   1.900   0.559
   82SOL    HW3  359   1.875   2.002   0.468
   82SOL    MW4  360   1.839   1.923   0.480
   83SOL     OW  361   1.082   2.541   0.487
   83SOL    HW2  362   1.175   2.521   0.473
   83SOL    HW3  363   1.074   2.556   0.581
   83SOL    MW4  364   1.093   2.540   0.497
   84SOL     OW  365   1.357   2.504   0.488
   84SOL    HW2  366   1.364   2.591   0.448
   84SOL    HW3  367   1.407   2.447   0.430
   84SOL    MW4  368   1.364   2.508   0.475
   85SOL     OW  369   2.263   1.997   0.439
   85SOL    HW2  370   2.349   1.968   0.408
   85SOL    HW3  371   2.266   2.093   0.434
   85SOL    MW4  372   2.275   2.006   0.435
   86SOL     OW  373   1.503   2.330   0.313
   86SOL    HW2  374   1.593   2.329   0.344
   86SOL    HW3  375   1.509   2.361   0.223
   86SOL    MW4  376   1.516   2.334   0.305
   87SOL     OW  377   0.932   1.593   0.479
   87SOL    HW2  378   0.891   1.586   0.565
   87SOL    HW3  379   0.986   1.672   0.485
   87SOL    MW4  380   0.934   1.603   0.491
   88SOL     OW  381   0.829   2.977   0.417
   88SOL    HW2  382   0.735   2.977   0.433
   88SOL    HW3  383   0.852   3.070   0.414
   88SOL    MW4  384   0.820   2.990   0.419
   89SOL     OW  385   1.937   2.172   0.505
   89SOL    HW2  386   1.957   2.139   0.592
   89SOL    HW3  387   2.022   2.180   0.462
   89SOL    MW4  388   1.951   2.169   0.511
   90SOL     OW  389   1.979   0.507   0.514
   90SOL    HW2  390   1.970   0.594   0.477
   90SOL    HW3  391   1.890   0.472   0.517
   90SOL    MW4  392   1.966   0.514   0.510
   91SOL     OW  393   1.070   3.909   0.388
   91SOL    HW2  394   1.083   3.819   0.418
   91SOL    HW3  395   1.024   3.952   0.460
   91SOL    MW4  396   1.066   3.903   0.401
   92SOL     OW  397   1.996   2.540   0.365
   92SOL    HW2  398   1.977   2.627   0.400
   92SOL    HW3  399   2.020   2.488   0.442
   92SOL    MW4  400   1.996   2.544   0.380
   93SOL     OW  401   1.360   3.976   0.441
   93SOL    HW2  402   1.268   3.958   0.422
   93SOL    HW3  403   1.381   4.052   0.388
   93SOL    MW4  404   1.350   3.983   0.432
   94SOL     OW  405   1.682   2.859   0.449
   94SOL    HW2  406   1.772   2.829   0.447
   94SOL    HW3  407   1.649   2.829   0.534
   94SOL    MW4  408   1.689   2.851   0.460
   95SOL     OW  409   2.202   3.998   0.480
   95SOL    HW2  410   2.156   3.914   0.471
   95SOL    HW3  411   2.274   3.992   0.417
   95SOL    MW4  412   2.206   3.986   0.471
   96SOL     OW  413   0.877   3.955   0.180
   96SOL    HW2  414   0.907   3.951   0.089
   96SOL    HW3  415   0.957   3.964   0.231
   96SOL    MW4  416   0.892   3.956   0.175
   97SOL     OW  417   1.728   4.556   0.335
   97SOL    HW2  418   1.712   4.607   0.414
   97SOL    HW3  419   1.693   4.469   0.354
   97SOL    MW4  420   1.722   4.551   0.348
   98SOL     OW  421   1.990   4.628   0.755
   98SOL    HW2  422   1.978   4.539   0.723
   98SOL    HW3  423   2.021   4.677   0.678
   98SOL    MW4  424   1.993   4.623   0.740
   99SOL     OW  425   2.586   4.422   0.314
   99SOL    HW2  426   2.635   4.441   0.394
   99SOL    HW3  427   2.605   4.496   0.256
   99SOL    MW4  428   2.595   4.434   0.317
  100SOL     OW  429   1.355   4.246   0.367
  100SOL    HW2  430   1.265   4.245   0.400
  100SOL    HW3  431   1.349   4.292   0.283
  100SOL    MW4  432   1.342   4.252   0.360
  101SOL     OW  433   2.402   0.394   0.426
  101SOL    HW2  434   2.317   0.363   0.391
  101SOL    HW3  435   2.436   0.451   0.357
  101SOL    MW4  436   2.395   0.397   0.412
  102SOL     OW  437   1.614   1.812   0.310
  102SOL    HW2  438   1.703   1.848   0.313
  102SOL    HW3  439   1.628   1.717   0.302
  102SOL    MW4  440   1.628   1.804   0.309
  103SOL     OW  441   1.989   1.177   0.400
  103SOL    HW2  442   1.903   1.212   0.374
  103SOL    HW3  443   2.043   1.255   0.413
  103SOL    MW4  444   1.985   1.192   0.398
  104SOL     OW  445   2.548   1.244   0.492
  104SOL    HW2  446   2.642   1.231   0.488
  104SOL    HW3  447   2.512   1.185   0.426
  104SOL    MW4  448   2.555   1.234   0.483
  105SOL     OW  449   2.632   1.692   0.322
  105SOL    HW2  450   2.567   1.638   0.366
  105SOL    HW3  451   2.716   1.652   0.345
  105SOL    MW4  452   2.634   1.680   0.331
  106SOL     OW  453   1.616   1.541   0.326
  106SOL    HW2  454   1.549   1.485   0.286
  106SOL    HW3  455   1.587   1.552   0.416
  106SOL    MW4  456   1.604   1.535   0.332
  107SOL     OW  457   1.335   1.704   0.372
  107SOL    HW2  458   1.420   1.724   0.332
  107SOL    HW3  459   1.351   1.709   0.466
  107SOL    MW4  460   1.348   1.707   0.379
  108SOL     OW  461   2.199   2.267   0.441
  108SOL    HW2  462   2.260   2.322   0.392
  108SOL    HW3  463   2.212   2.292   0.532
  108SOL    MW4  464   2.209   2.278   0.446
  109SOL     OW  465   1.732   3.125   0.479
  109SOL    HW2  466   1.708   3.033   0.474
  109SOL    HW3  467   1.816   3.130   0.434
  109SOL    MW4  468   1.740   3.114   0.472
  110SOL     OW  469   1.079   2.823   0.475
  110SOL    HW2  470   1.072   2.730   0.452
  110SOL    HW3  471   0.994   2.860   0.449
  110SOL    MW4  472   1.067   2.816   0.468
  111SOL     OW  473   1.449   3.218   0.515
  111SOL    HW2  474   1.543   3.206   0.503
  111SOL    HW3  475   1.408   3.146   0.466
  111SOL    MW4  476   1.456   3.207   0.507
  112SOL     OW  477   1.075   1.836   0.406
  112SOL    HW2  478   1.149   1.808   0.351
  112SOL    HW3  479   1.102   1.920   0.442
  112SOL    MW4  480   1.088   1.843   0.403
  113SOL     OW  481   3.716   1.450   0.324
  113SOL    HW2  482   3.633   1.490   0.353
  113SOL    HW3  483   3.770   1.524   0.296
  113SOL    MW4  484   3.712   1.465   0.324
  114SOL     OW  485   1.775   2.361   0.401
  114SOL    HW2  486   1.827   2.287   0.431
  114SOL    HW3  487   1.831   2.406   0.338
  114SOL    MW4  488   1.789   2.358   0.397
  115SOL     OW  489   1.472   2.048   0.418
  115SOL    HW2  490   1.472   2.115   0.350
  115SOL    HW3  491   1.509   1.971   0.375
  115SOL    MW4  492   1.477   2.047   0.403
  116SOL     OW  493   1.348   3.504   0.458
  116SOL    HW2  494   1.427   3.548   0.427
  116SOL    HW3  495   1.380   3.426   0.503
  116SOL    MW4  496   1.363   3.500   0.460
  117SOL     OW  497   2.539   3.501   0.320
  117SOL    HW2  498   2.523   3.436   0.252
  117SOL    HW3  499   2.452   3.520   0.355
  117SOL    MW4  500   2.525   3.495   0.316
  118SOL     OW  501   1.627   4.322   0.453
  118SOL    HW2  502   1.615   4.336   0.547
  118SOL    HW3  503   1.540   4.302   0.420
  118SOL    MW4  504   1.614   4.321   0.461
  119SOL     OW  505   1.527   3.739   0.425
  119SOL    HW2  506   1.460   3.807   0.433
  119SOL    HW3  507   1.607   3.787   0.404
  119SOL    MW4  508   1.528   3.755   0.423
  120SOL     OW  509   1.321   4.445   0.149
  120SOL    HW2  510   1.388   4.511   0.168
  120SOL    HW3  511   1.323   4.437   0.053
  120SOL    MW4  512   1.330   4.453   0.139
  121SOL     OW  513   1.369   0.052   0.497
  121SOL    HW2  514   1.375   0.099   0.414
  121SOL    HW3  515   1.307  -0.018   0.481
  121SOL    MW4  516   1.362   0.049   0.484
  122SOL     OW  517   2.356   4.599   0.618
  122SOL    HW2  518   2.413   4.659   0.571
  122SOL    HW3  519   2.267   4.630   0.599
  122SOL    MW4  520   2.352   4.611   0.609
  123SOL     OW  521   2.125   0.059   0.516
  123SOL    HW2  522   2.148   0.128   0.453
  123SOL    HW3  523   2.095  -0.014   0.461
  123SOL    MW4  524   2.124   0.059   0.500
  124SOL     OW  525   2.439   1.496   0.479
  124SOL    HW2  526   2.481   1.410   0.482
  124SOL    HW3  527   2.449   1.530   0.568
  124SOL    MW4  528   2.446   1.489   0.491
  125SOL     OW  529   2.807   0.450   0.355
  125SOL    HW2  530   2.853   0.386   0.301
  125SOL    HW3  531   2.876   0.508   0.387
  125SOL    MW4  532   2.822   0.449   0.352
  126SOL     OW  533   2.161   0.986   0.449
  126SOL    HW2  534   2.096   1.056   0.450
  126SOL    HW3  535   2.110   0.907   0.431
  126SOL    MW4  536   2.145   0.985   0.447
  127SOL     OW  537   2.851   1.271   0.498
  127SOL    HW2  538   2.918   1.221   0.452
  127SOL    HW3  539   2.886   1.284   0.586
  127SOL    MW4  540   2.864   1.266   0.504
  128SOL     OW  541   2.834   1.576   0.472
  128SOL    HW2  542   2.842   1.483   0.447
  128SOL    HW3  543   2.788   1.574   0.556
  128SOL    MW4  544   2.829   1.563   0.480
  129SOL     OW  545   3.251   2.122   0.386
  129SOL    HW2  546   3.192   2.061   0.431
  129SOL    HW3  547   3.331   2.072   0.372
  129SOL    MW4  548   3.253   2.107   0.390
  130SOL     OW  549   2.927   4.596   0.374
  130SOL    HW2  550   2.983   4.673   0.386
  130SOL    HW3  551   2.988   4.522   0.376
  130SOL    MW4  552   2.943   4.596   0.376
  131SOL     OW  553   2.090   1.786   0.506
  131SOL    HW2  554   2.004   1.827   0.490
  131SOL    HW3  555   2.152   1.847   0.467
  131SOL    MW4  556   2.087   1.800   0.499
  132SOL     OW  557   1.572   1.521   0.612
  132SOL    HW2  558   1.610   1.566   0.687
  132SOL    HW3  559   1.486   1.562   0.600
  132SOL    MW4  560   1.566   1.532   0.620
  133SOL     OW  561   2.526   1.961   0.359
  133SOL    HW2  562   2.575   1.884   0.333
  133SOL    HW3  563   2.590   2.032   0.358
  133SOL    MW4  564   2.541   1.960   0.355
  134SOL     OW  565   2.736   2.165   0.391
  134SOL    HW2  566   2.814   2.172   0.335
  134SOL    HW3  567   2.769   2.130   0.474
  134SOL    MW4  568   2.751   2.161   0.394
  135SOL     OW  569   2.523   2.620   0.462
  135SOL    HW2  570   2.586   2.551   0.438
  135SOL    HW3  571   2.437   2.579   0.449
  135SOL    MW4  572   2.520   2.605   0.457
  136SOL     OW  573   1.422   2.733   0.364
  136SOL    HW2  574   1.504   2.766   0.398
  136SOL    HW3  575   1.368   2.811   0.350
  136SOL    MW4  576   1.426   2.748   0.367
  137SOL     OW  577   1.267   3.015   0.374
  137SOL    HW2  578   1.190   2.982   0.422
  137SOL    HW3  579   1.230   3.060   0.298
  137SOL    MW4  580   1.252   3.016   0.370
  138SOL     OW  581   2.090   3.746   0.470
  138SOL    HW2  582   2.125   3.686   0.405
  138SOL    HW3  583   2.092   3.696   0.552
  138SOL    MW4  584   2.095   3.731   0.472
  139SOL     OW  585   2.483   3.979   0.356
  139SOL    HW2  586   2.539   3.902   0.367
  139SOL    HW3  587   2.535   4.040   0.304
  139SOL    MW4  588   2.497   3.977   0.351
  140SOL     OW  589   1.824   3.867   0.496
  140SOL    HW2  590   1.815   3.960   0.473
  140SOL    HW3  591   1.910   3.843   0.461
  140SOL    MW4  592   1.835   3.876   0.488
  141SOL     OW  593   2.264   3.497   0.408
  141SOL    HW2  594   2.269   3.503   0.504
  141SOL    HW3  595   2.252   3.404   0.391
  141SOL    MW4  596   2.263   3.486   0.419
  142SOL     OW  597   2.371   4.355   0.478
  142SOL    HW2  598   2.440   4.365   0.412
  142SOL    HW3  599   2.368   4.439   0.523
  142SOL    MW4  600   2.380   4.367   0.475
  143SOL     OW  601   2.110   4.268   0.424
  143SOL    HW2  602   2.127   4.174   0.430
  143SOL    HW3  603   2.197   4.308   0.428
  143SOL    MW4  604   2.124   4.261   0.425
  144SOL     OW  605   3.054   0.124   0.529
  144SOL    HW2  606   2.968   0.166   0.527
  144SOL    HW3  607   3.066   0.097   0.620
  144SOL    MW4  608   3.044   0.126   0.541
  145SOL     OW  609   2.583   3.739   0.438
  145SOL    HW2  610   2.548   3.709   0.522
  145SOL    HW3  611   2.582   3.662   0.382
  145SOL    MW4  612   2.578   3.725   0.442
  146SOL     OW  613   2.583   4.175   0.538
  146SOL    HW2  614   2.510   4.236   0.550
  146SOL    HW3  615   2.543   4.096   0.503
  146SOL    MW4  616   2.568   4.173   0.535
  147SOL     OW  617   2.519   0.138   0.476
  147SOL    HW2  618   2.477   0.223   0.467
  147SOL    HW3  619   2.609   0.157   0.502
  147SOL    MW4  620   2.525   0.151   0.478
  148SOL     OW  621   1.725   0.371   0.514
  148SOL    HW2  622   1.695   0.280   0.506
  148SOL    HW3  623   1.672   0.407   0.585
  148SOL    MW4  624   1.714   0.364   0.522
  149SOL     OW  625   3.035   0.566   0.482
  149SOL    HW2  626   3.055   0.657   0.506
  149SOL    HW3  627   3.110   0.538   0.429
  149SOL    MW4  628   3.047   0.575   0.478
  150SOL     OW  629   2.162   1.442   0.472
  150SOL    HW2  630   2.255   1.457   0.458
  150SOL    HW3  631   2.120   1.524   0.443
  150SOL    MW4  632   2.169   1.455   0.466
  151SOL     OW  633   2.569   0.560   0.248
  151SOL    HW2  634   2.588   0.653   0.262
  151SOL    HW3  635   2.638   0.514   0.296
  151SOL    MW4  636   2.580   0.566   0.256
  152SOL     OW  637   3.094   1.674   0.463
  152SOL    HW2  638   3.004   1.642   0.461
  152SOL    HW3  639   3.086   1.766   0.489
  152SOL    MW4  640   3.081   1.682   0.466
  153SOL     OW  641   3.402   0.901   0.562
  153SOL    HW2  642   3.430   0.969   0.501
  153SOL    HW3  643   3.456   0.915   0.640
  153SOL    MW4  644   3.413   0.912   0.564
  154SOL     OW  645   3.789   1.961   0.336
  154SOL    HW2  646   3.822   2.043   0.299
  154SOL    HW3  647   3.802   1.971   0.431
  154SOL    MW4  648   3.795   1.973   0.344
  155SOL     OW  649   2.789   0.215   0.552
  155SOL    HW2  650   2.797   0.303   0.513
  155SOL    HW3  651   2.764   0.232   0.643
  155SOL    MW4  652   2.786   0.229   0.559
  156SOL     OW  653   3.090   1.944   0.550
  156SOL    HW2  654   3.001   1.973   0.569
  156SOL    HW3  655   3.134   1.945   0.635
  156SOL    MW4  656   3.084   1.948   0.564
  157SOL     OW  657   2.727   2.424   0.468
  157SOL    HW2  658   2.819   2.441   0.452
  157SOL    HW3  659   2.713   2.335   0.435
  157SOL    MW4  660   2.737   2.414   0.461
  158SOL     OW  661   3.019   2.180   0.240
  158SOL    HW2  662   3.021   2.163   0.146
  158SOL    HW3  663   3.108   2.163   0.269
  158SOL    MW4  664   3.031   2.176   0.231
  159SOL     OW  665   2.292   2.522   0.317
  159SOL    HW2  666   2.197   2.528   0.314
  159SOL    HW3  667   2.320   2.548   0.229
  159SOL    MW4  668   2.283   2.527   0.305
  160SOL     OW  669   2.646   2.882   0.472
  160SOL    HW2  670   2.625   2.800   0.427
  160SOL    HW3  671   2.617   2.868   0.562
  160SOL    MW4  672   2.640   2.869   0.478
  161SOL     OW  673   3.211   3.211   0.474
  161SOL    HW2  674   3.209   3.122   0.439
  161SOL    HW3  675   3.184   3.200   0.566
  161SOL    MW4  676   3.207   3.198   0.482
  162SOL     OW  677   3.470   3.265   0.565
  162SOL    HW2  678   3.436   3.213   0.637
  162SOL    HW3  679   3.399   3.268   0.501
  162SOL    MW4  680   3.456   3.259   0.566
  163SOL     OW  681   2.219   3.231   0.431
  163SOL    HW2  682   2.302   3.186   0.418
  163SOL    HW3  683   2.216   3.249   0.525
  163SOL    MW4  684   2.229   3.227   0.442
  164SOL     OW  685   1.833   4.145   0.418
  164SOL    HW2  686   1.763   4.211   0.420
  164SOL    HW3  687   1.914   4.196   0.408
  164SOL    MW4  688   1.834   4.161   0.417
  165SOL     OW  689   3.404   4.125   0.414
  165SOL    HW2  690   3.335   4.118   0.348
  165SOL    HW3  691   3.380   4.060   0.480
  165SOL    MW4  692   3.392   4.115   0.414
  166SOL     OW  693   3.013   3.400   0.434
  166SOL    HW2  694   2.930   3.359   0.410
  166SOL    HW3  695   3.076   3.328   0.434
  166SOL    MW4  696   3.011   3.385   0.431
  167SOL     OW  697   2.755   3.300   0.433
  167SOL    HW2  698   2.751   3.292   0.528
  167SOL    HW3  699   2.717   3.386   0.414
  167SOL    MW4  700   2.749   3.310   0.443
  168SOL     OW  701   3.782   4.194   0.661
  168SOL    HW2  702   3.843   4.121   0.649
  168SOL    HW3  703   3.733   4.199   0.579
  168SOL    MW4  704   3.784   4.185   0.649
  169SOL     OW  705   3.196   4.165   0.238
  169SOL    HW2  706   3.181   4.253   0.274
  169SOL    HW3  707   3.109   4.125   0.236
  169SOL    MW4  708   3.182   4.171   0.243
  170SOL     OW  709   3.302   0.296   0.522
  170SOL    HW2  710   3.221   0.245   0.522
  170SOL    HW3  711   3.368   0.237   0.487
  170SOL    MW4  712   3.300   0.282   0.518
  171SOL     OW  713   2.675   0.024   0.238
  171SOL    HW2  714   2.608   0.047   0.303
  171SOL    HW3  715   2.748  -0.010   0.290
  171SOL    MW4  716   2.676   0.023   0.253
  172SOL     OW  717   2.912   4.077   0.331
  172SOL    HW2  718   2.927   3.985   0.353
  172SOL    HW3  719   2.826   4.077   0.288
  172SOL    MW4  720   2.902   4.065   0.328
  173SOL     OW  721   2.835   0.229   0.137
  173SOL    HW2  722   2.799   0.149   0.176
  173SOL    HW3  723   2.761   0.270   0.094
  173SOL    MW4  724   2.821   0.224   0.136
  174SOL     OW  725   2.792   0.976   0.613
  174SOL    HW2  726   2.854   1.035   0.569
  174SOL    HW3  727   2.753   1.029   0.682
  174SOL    MW4  728   2.795   0.991   0.616
  175SOL     OW  729   3.476   1.483   0.453
  175SOL    HW2  730   3.507   1.499   0.542
  175SOL    HW3  731   3.428   1.400   0.459
  175SOL    MW4  732   3.474   1.474   0.466
  176SOL     OW  733   3.461   0.602   0.478
  176SOL    HW2  734   3.410   0.595   0.397
  176SOL    HW3  735   3.454   0.695   0.502
  176SOL    MW4  736   3.453   0.613   0.471
  177SOL     OW  737   3.112   0.833   0.552
  177SOL    HW2  738   3.082   0.852   0.641
  177SOL    HW3  739   3.207   0.830   0.559
  177SOL    MW4  740   3.121   0.835   0.564
  178SOL     OW  741   3.598   1.866   0.631
  178SOL    HW2  742   3.547   1.899   0.557
  178SOL    HW3  743   3.545   1.888   0.708
  178SOL    MW4  744   3.584   1.873   0.631
  179SOL     OW  745   3.482   1.950   0.370
  179SOL    HW2  746   3.433   1.870   0.352
  179SOL    HW3  747   3.565   1.938   0.324
  179SOL    MW4  748   3.487   1.938   0.362
  180SOL     OW  749   3.340   1.215   0.465
  180SOL    HW2  750   3.416   1.163   0.439
  180SOL    HW3  751   3.341   1.214   0.561
  180SOL    MW4  752   3.350   1.208   0.474
  181SOL     OW  753   3.885   1.706   0.258
  181SOL    HW2  754   3.873   1.700   0.163
  181SOL    HW3  755   3.862   1.797   0.279
  181SOL    MW4  756   3.880   1.717   0.248
  182SOL     OW  757   3.293   2.315   0.594
  182SOL    HW2  758   3.250   2.244   0.547
  182SOL    HW3  759   3.358   2.271   0.649
  182SOL    MW4  760   3.296   2.300   0.595
  183SOL     OW  761   3.527   2.690   0.605
  183SOL    HW2  762   3.554   2.655   0.690
  183SOL    HW3  763   3.494   2.614   0.557
  183SOL    MW4  764   3.527   2.675   0.610
  184SOL     OW  765   1.951   2.796   0.451
  184SOL    HW2  766   1.982   2.806   0.541
  184SOL    HW3  767   1.989   2.871   0.404
  184SOL    MW4  768   1.960   2.808   0.456
  185SOL     OW  769   3.217   2.591   0.307
  185SOL    HW2  770   3.301   2.568   0.346
  185SOL    HW3  771   3.221   2.557   0.218
  185SOL    MW4  772   3.229   2.584   0.301
  186SOL     OW  773   2.924   2.819   0.750
  186SOL    HW2  774   2.929   2.805   0.656
  186SOL    HW3  775   2.998   2.770   0.786
  186SOL    MW4  776   2.934   2.811   0.742
  187SOL     OW  777   2.597   0.838   0.418
  187SOL    HW2  778   2.660   0.872   0.482
  187SOL    HW3  779   2.559   0.917   0.378
  187SOL    MW4  780   2.600   0.853   0.421
  188SOL     OW  781   2.962   4.226   0.558
  188SOL    HW2  782   2.930   4.185   0.478
  188SOL    HW3  783   3.017   4.159   0.599
  188SOL    MW4  784   2.965   4.212   0.553
  189SOL     OW  785   3.358   3.665   0.423
  189SOL    HW2  786   3.430   3.690   0.365
  189SOL    HW3  787   3.402   3.621   0.496
  189SOL    MW4  788   3.373   3.662   0.425
  190SOL     OW  789   3.855   3.447   0.415
  190SOL    HW2  790   3.946   3.441   0.386
  190SOL    HW3  791   3.858   3.506   0.491
  190SOL    MW4  792   3.867   3.454   0.421
  191SOL     OW  793   3.793   3.287   0.735
  191SOL    HW2  794   3.883   3.318   0.724
  191SOL    HW3  795   3.768   3.257   0.647
  191SOL    MW4  796   3.802   3.287   0.722
  192SOL     OW  797   2.848   3.834   0.486
  192SOL    HW2  798   2.920   3.770   0.478
  192SOL    HW3  799   2.769   3.782   0.472
  192SOL    MW4  800   2.847   3.819   0.483
  193SOL     OW  801   2.494   3.141   0.397
  193SOL    HW2  802   2.521   3.050   0.398
  193SOL    HW3  803   2.576   3.191   0.399
  193SOL    MW4  804   2.508   3.136   0.398
  194SOL     OW  805   4.236   0.122   0.427
  194SOL    HW2  806   4.330   0.102   0.427
  194SOL    HW3  807   4.193   0.037   0.439
  194SOL    MW4  808   4.243   0.108   0.428
  195SOL     OW  809   3.694   0.327   0.376
  195SOL    HW2  810   3.763   0.307   0.439
  195SOL    HW3  811   3.690   0.422   0.375
  195SOL    MW4  812   3.703   0.337   0.384
  196SOL     OW  813   3.138   0.285   0.154
  196SOL    HW2  814   3.176   0.308   0.069
  196SOL    HW3  815   3.047   0.262   0.134
  196SOL    MW4  816   3.131   0.285   0.140
  197SOL     OW  817   3.240   0.488   0.324
  197SOL    HW2  818   3.263   0.423   0.389
  197SOL    HW3  819   3.210   0.437   0.248
  197SOL    MW4  820   3.239   0.473   0.322
  198SOL     OW  821   4.038   0.545   0.475
  198SOL    HW2  822   4.018   0.538   0.569
  198SOL    HW3  823   4.122   0.500   0.465
  198SOL    MW4  824   4.046   0.538   0.486
  199SOL     OW  825   4.455   0.809   0.443
  199SOL    HW2  826   4.360   0.810   0.427
  199SOL    HW3  827   4.485   0.729   0.399
  199SOL    MW4  828   4.446   0.798   0.435
  200SOL     OW  829   3.759   0.850   0.335
  200SOL    HW2  830   3.848   0.882   0.347
  200SOL    HW3  831   3.762   0.759   0.363
  200SOL    MW4  832   3.771   0.842   0.340
  201SOL     OW  833   4.029   1.031   0.416
  201SOL    HW2  834   4.109   1.084   0.423
  201SOL    HW3  835   3.961   1.094   0.394
  201SOL    MW4  836   4.031   1.046   0.414
  202SOL     OW  837   3.784   1.202   0.421
  202SOL    HW2  838   3.722   1.141   0.381
  202SOL    HW3  839   3.758   1.288   0.387
  202SOL    MW4  840   3.773   1.206   0.411
  203SOL     OW  841   3.346   1.709   0.320
  203SOL    HW2  842   3.253   1.686   0.319
  203SOL    HW3  843   3.388   1.636   0.367
  203SOL    MW4  844   3.340   1.696   0.326
  204SOL     OW  845   3.073   1.113   0.466
  204SOL    HW2  846   3.163   1.142   0.455
  204SOL    HW3  847   3.079   1.019   0.485
  204SOL    MW4  848   3.085   1.104   0.467
  205SOL     OW  849   3.730   2.440   0.367
  205SOL    HW2  850   3.765   2.384   0.298
  205SOL    HW3  851   3.753   2.394   0.448
  205SOL    MW4  852   3.737   2.426   0.368
  206SOL     OW  853   4.123   2.983   0.438
  206SOL    HW2  854   4.178   2.907   0.458
  206SOL    HW3  855   4.037   2.960   0.472
  206SOL    MW4  856   4.119   2.970   0.445
  207SOL     OW  857   2.983   2.529   0.458
  207SOL    HW2  858   3.019   2.489   0.538
  207SOL    HW3  859   3.060   2.544   0.403
  207SOL    MW4  860   2.998   2.525   0.462
  208SOL     OW  861   3.076   3.668   0.453
  208SOL    HW2  862   3.166   3.686   0.424
  208SOL    HW3  863   3.065   3.575   0.437
  208SOL    MW4  864   3.087   3.658   0.447
  209SOL     OW  865   3.170   2.938   0.421
  209SOL    HW2  866   3.212   2.870   0.368
  209SOL    HW3  867   3.077   2.916   0.418
  209SOL    MW4  868   3.163   2.926   0.413
  210SOL     OW  869   3.866   2.960   0.512
  210SOL    HW2  870   3.815   2.894   0.464
  210SOL    HW3  871   3.830   3.044   0.483
  210SOL    MW4  872   3.854   2.962   0.502
  211SOL     OW  873   3.754   2.709   0.445
  211SOL    HW2  874   3.753   2.620   0.410
  211SOL    HW3  875   3.682   2.711   0.508
  211SOL    MW4  876   3.744   2.697   0.449
  212SOL     OW  877   3.863   4.061   0.289
  212SOL    HW2  878   3.847   3.987   0.348
  212SOL    HW3  879   3.866   4.021   0.202
  212SOL    MW4  880   3.862   4.046   0.285
  213SOL     OW  881   3.441   2.488   0.437
  213SOL    HW2  882   3.403   2.414   0.485
  213SOL    HW3  883   3.518   2.451   0.394
  213SOL    MW4  884   3.446   2.474   0.438
  214SOL     OW  885   3.359   3.894   0.593
  214SOL    HW2  886   3.404   3.878   0.676
  214SOL    HW3  887   3.359   3.809   0.549
  214SOL    MW4  888   3.365   3.881   0.599
  215SOL     OW  889   4.287   3.974   0.691
  215SOL    HW2  890   4.247   3.923   0.760
  215SOL    HW3  891   4.239   4.057   0.692
  215SOL    MW4  892   4.275   3.979   0.700
  216SOL     OW  893   3.675   4.220   0.404
  216SOL    HW2  894   3.738   4.168   0.355
  216SOL    HW3  895   3.589   4.192   0.371
  216SOL    MW4  896   3.672   4.209   0.393
  217SOL     OW  897   3.655   4.488   0.488
  217SOL    HW2  898   3.668   4.399   0.454
  217SOL    HW3  899   3.730   4.502   0.546
  217SOL    MW4  900   3.667   4.478   0.491
  218SOL     OW  901   0.009   0.027   0.455
  218SOL    HW2  902  -0.001  -0.067   0.441
  218SOL    HW3  903   0.014   0.037   0.550
  218SOL    MW4  904   0.008   0.016   0.465
  219SOL     OW  905   4.173   0.802   0.478
  219SOL    HW2  906   4.125   0.720   0.468
  219SOL    HW3  907   4.111   0.869   0.448
  219SOL    MW4  908   4.158   0.800   0.472
  220SOL     OW  909   0.312   2.149   0.333
  220SOL    HW2  910   0.342   2.240   0.341
  220SOL    HW3  911   0.243   2.141   0.399
  220SOL    MW4  912   0.307   2.160   0.343
  221SOL     OW  913   4.258   0.402   0.461
  221SOL    HW2  914   4.256   0.309   0.439
  221SOL    HW3  915   4.342   0.433   0.428
  221SOL    MW4  916   4.269   0.394   0.454
  222SOL     OW  917   4.248   1.208   0.450
  222SOL    HW2  918   4.256   1.296   0.411
  222SOL    HW3  919   4.250   1.223   0.544
  222SOL    MW4  920   4.249   1.222   0.457
  223SOL     OW  921   3.511   0.119   0.452
  223SOL    HW2  922   3.527   0.046   0.392
  223SOL    HW3  923   3.569   0.189   0.420
  223SOL    MW4  924   3.521   0.119   0.440
  224SOL     OW  925   3.543   1.029   0.349
  224SOL    HW2  926   3.615   0.967   0.342
  224SOL    HW3  927   3.501   1.026   0.263
  224SOL    MW4  928   3.547   1.021   0.337
  225SOL     OW  929   0.038   1.083   0.421
  225SOL    HW2  930  -0.050   1.119   0.435
  225SOL    HW3  931   0.027   0.989   0.434
  225SOL    MW4  932   0.025   1.076   0.424
  226SOL     OW  933   4.147   2.243   0.379
  226SOL    HW2  934   4.118   2.289   0.458
  226SOL    HW3  935   4.240   2.265   0.371
  226SOL    MW4  936   4.156   2.252   0.388
  227SOL     OW  937   0.281   1.510   0.477
  227SOL    HW2  938   0.284   1.415   0.462
  227SOL    HW3  939   0.188   1.533   0.465
  227SOL    MW4  940   0.269   1.500   0.473
  228SOL     OW  941   0.881   2.461   0.299
  228SOL    HW2  942   0.949   2.470   0.366
  228SOL    HW3  943   0.847   2.550   0.287
  228SOL    MW4  944   0.885   2.474   0.306
  229SOL     OW  945   4.218   1.910   0.461
  229SOL    HW2  946   4.301   1.898   0.415
  229SOL    HW3  947   4.176   1.983   0.415
  229SOL    MW4  948   4.223   1.918   0.449
  230SOL     OW  949   4.474   2.539   0.484
  230SOL    HW2  950   4.537   2.611   0.468
  230SOL    HW3  951   4.480   2.522   0.578
  230SOL    MW4  952   4.483   2.546   0.494
  231SOL     OW  953   4.284   3.587   0.424
  231SOL    HW2  954   4.372   3.568   0.391
  231SOL    HW3  955   4.231   3.511   0.400
  231SOL    MW4  956   4.289   3.575   0.417
  232SOL     OW  957   4.267   2.730   0.467
  232SOL    HW2  958   4.184   2.684   0.481
  232SOL    HW3  959   4.334   2.662   0.475
  232SOL    MW4  960   4.265   2.715   0.470
  233SOL     OW  961   0.344   3.840   0.339
  233SOL    HW2  962   0.286   3.906   0.376
  233SOL    HW3  963   0.430   3.880   0.338
  233SOL    MW4  964   0.348   3.854   0.343
  234SOL     OW  965   0.061   3.531   0.342
  234SOL    HW2  966   0.083   3.603   0.283
  234SOL    HW3  967   0.126   3.536   0.412
  234SOL    MW4  968   0.072   3.541   0.343
  235SOL     OW  969   0.021   3.250   0.381
  235SOL    HW2  970  -0.055   3.206   0.342
  235SOL    HW3  971   0.015   3.341   0.350
  235SOL    MW4  972   0.011   3.256   0.372
  236SOL     OW  973   3.916   3.816   0.446
  236SOL    HW2  974   3.909   3.740   0.503
  236SOL    HW3  975   4.010   3.835   0.444
  236SOL    MW4  976   3.928   3.808   0.453
  237SOL     OW  977   3.724   3.190   0.455
  237SOL    HW2  978   3.761   3.276   0.435
  237SOL    HW3  979   3.630   3.206   0.466
  237SOL    MW4  980   3.716   3.204   0.454
  238SOL     OW  981   0.179   4.054   0.404
  238SOL    HW2  982   0.138   4.044   0.490
  238SOL    HW3  983   0.108   4.039   0.342
  238SOL    MW4  984   0.164   4.051   0.408
  239SOL     OW  985   4.045   4.213   0.430
  239SOL    HW2  986   4.003   4.147   0.375
  239SOL    HW3  987   4.000   4.295   0.406
  239SOL    MW4  988   4.033   4.215   0.419
  240SOL     OW  989   4.127   4.203   0.700
  240SOL    HW2  990   4.168   4.287   0.720
  240SOL    HW3  991   4.095   4.212   0.610
  240SOL    MW4  992   4.128   4.215   0.691
  241SOL     OW  993   4.120   4.538   0.471
  241SOL    HW2  994   4.184   4.508   0.535
  241SOL    HW3  995   4.035   4.517   0.510
  241SOL    MW4  996   4.118   4.531   0.485
  242SOL     OW  997   0.234   4.644   0.818
  242SOL    HW2  998   0.234   4.555   0.783
  242SOL    HW3  999   0.142   4.672   0.815
  242SOL    MW4 1000   0.222   4.636   0.813
  243SOL     OW 1001   4.467   0.067   0.740
  243SOL    HW2 1002   4.387   0.033   0.781
  243SOL    HW3 1003   4.469   0.160   0.764
  243SOL    MW4 1004   4.456   0.075   0.749
  244SOL     OW 1005   0.002   0.352   0.832
  244SOL    HW2 1006   0.004   0.364   0.927
  244SOL    HW3 1007   0.080   0.398   0.800
  244SOL    MW4 1008   0.013   0.360   0.840
  245SOL     OW 1009   0.221   0.504   0.728
  245SOL    HW2 1010   0.303   0.458   0.748
  245SOL    HW3 1011   0.235   0.593   0.759
  245SOL    MW4 1012   0.234   0.509   0.735
  246SOL     OW 1013   0.256   0.754   0.849
  246SOL    HW2 1014   0.250   0.745   0.944
  246SOL    HW3 1015   0.166   0.775   0.821
  246SOL    MW4 1016   0.243   0.755   0.858
  247SOL     OW 1017   0.004   0.849   0.731
  247SOL    HW2 1018  -0.064   0.801   0.779
  247SOL    HW3 1019  -0.007   0.822   0.640
  247SOL    MW4 1020  -0.007   0.839   0.726
  248SOL     OW 1021   0.043   1.107   0.836
  248SOL    HW2 1022   0.044   1.109   0.932
  248SOL    HW3 1023   0.047   1.014   0.814
  248SOL    MW4 1024   0.044   1.095   0.846
  249SOL     OW 1025   0.245   1.262   0.724
  249SOL    HW2 1026   0.175   1.205   0.756
  249SOL    HW3 1027   0.256   1.236   0.632
  249SOL    MW4 1028   0.237   1.251   0.716
  250SOL     OW 1029   0.233   1.513   0.828
  250SOL    HW2 1030   0.307   1.552   0.781
  250SOL    HW3 1031   0.230   1.423   0.796
  250SOL    MW4 1032   0.243   1.507   0.818
  251SOL     OW 1033   4.482   1.621   0.711
  251SOL    HW2 1034   4.416   1.584   0.770
  251SOL    HW3 1035   4.564   1.580   0.738
  251SOL    MW4 1036   4.484   1.611   0.723
  252SOL     OW 1037   0.018   1.894   0.832
  252SOL    HW2 1038   0.089   1.937   0.784
  252SOL    HW3 1039   0.008   1.809   0.790
  252SOL    MW4 1040   0.026   1.888   0.820
  253SOL     OW 1041   0.258   2.015   0.704
  253SOL    HW2 1042   0.258   2.095   0.758
  253SOL    HW3 1043   0.209   2.039   0.625
  253SOL    MW4 1044   0.252   2.029   0.701
  254SOL     OW 1045   0.207   2.307   0.829
  254SOL    HW2 1046   0.224   2.306   0.923
  254SOL    HW3 1047   0.272   2.368   0.794
  254SOL    MW4 1048   0.218   2.315   0.837
  255SOL     OW 1049   4.469   2.452   0.782
  255SOL    HW2 1050   4.394   2.400   0.812
  255SOL    HW3 1051   4.545   2.395   0.796
  255SOL    MW4 1052   4.469   2.437   0.788
  256SOL     OW 1053   4.472   2.721   0.861
  256SOL    HW2 1054   4.494   2.717   0.955
  256SOL    HW3 1055   4.453   2.630   0.838
  256SOL    MW4 1056   4.472   2.708   0.871
  257SOL     OW 1057   0.212   2.830   0.744
  257SOL    HW2 1058   0.131   2.796   0.782
  257SOL    HW3 1059   0.205   2.809   0.651
  257SOL    MW4 1060   0.201   2.823   0.737
  258SOL     OW 1061   0.216   3.092   0.811
  258SOL    HW2 1062   0.211   3.093   0.906
  258SOL    HW3 1063   0.218   2.999   0.788
  258SOL    MW4 1064   0.216   3.080   0.820
  259SOL     OW 1065   0.018   3.210   0.666
  259SOL    HW2 1066   0.101   3.182   0.704
  259SOL    HW3 1067   0.039   3.233   0.576
  259SOL    MW4 1068   0.032   3.209   0.660
  260SOL     OW 1069   0.016   3.463   0.784
  260SOL    HW2 1070  -0.062   3.511   0.755
  260SOL    HW3 1071   0.006   3.375   0.747
  260SOL    MW4 1072   0.004   3.457   0.775
  261SOL     OW 1073   0.263   3.575   0.704
  261SOL    HW2 1074   0.184   3.524   0.723
  261SOL    HW3 1075   0.273   3.567   0.609
  261SOL    MW4 1076   0.254   3.567   0.694
  262SOL     OW 1077   0.250   3.872   0.788
  262SOL    HW2 1078   0.220   3.859   0.878
  262SOL    HW3 1079   0.280   3.786   0.760
  262SOL    MW4 1080   0.250   3.859   0.796
  263SOL     OW 1081   0.063   4.055   0.663
  263SOL    HW2 1082  -0.020   4.010   0.678
  263SOL    HW3 1083   0.127   4.003   0.712
  263SOL    MW4 1084   0.061   4.042   0.671
  264SOL     OW 1085   0.017   4.303   0.821
  264SOL    HW2 1086  -0.009   4.266   0.905
  264SOL    HW3 1087   0.042   4.227   0.768
  264SOL    MW4 1088   0.017   4.288   0.825
  265SOL     OW 1089   0.262   4.394   0.717
  265SOL    HW2 1090   0.195   4.352   0.770
  265SOL    HW3 1091   0.235   4.378   0.627
  265SOL    MW4 1092   0.250   4.387   0.712
  266SOL     OW 1093   0.686   4.605   0.835
  266SOL    HW2 1094   0.687   4.611   0.931
  266SOL    HW3 1095   0.617   4.666   0.808
  266SOL    MW4 1096   0.677   4.613   0.844
  267SOL     OW 1097   0.488   0.095   0.745
  267SOL    HW2 1098   0.410   0.041   0.759
  267SOL    HW3 1099   0.498   0.099   0.650
  267SOL    MW4 1100   0.479   0.088   0.734
  268SOL     OW 1101   0.419   0.355   0.828
  268SOL    HW2 1102   0.505   0.389   0.807
  268SOL    HW3 1103   0.426   0.260   0.812
  268SOL    MW4 1104   0.431   0.347   0.823
  269SOL     OW 1105   0.662   0.459   0.761
  269SOL    HW2 1106   0.737   0.405   0.786
  269SOL    HW3 1107   0.669   0.469   0.667
  269SOL    MW4 1108   0.673   0.453   0.752
  270SOL     OW 1109   0.663   0.748   0.800
  270SOL    HW2 1110   0.585   0.782   0.755
  270SOL    HW3 1111   0.659   0.653   0.786
  270SOL    MW4 1112   0.652   0.740   0.792
  271SOL     OW 1113   0.439   0.883   0.701
  271SOL    HW2 1114   0.433   0.968   0.745
  271SOL    HW3 1115   0.375   0.828   0.747
  271SOL    MW4 1116   0.430   0.887   0.713
  272SOL     OW 1117   0.478   1.140   0.816
  272SOL    HW2 1118   0.548   1.189   0.772
  272SOL    HW3 1119   0.398   1.189   0.795
  272SOL    MW4 1120   0.476   1.153   0.807
  273SOL     OW 1121   0.708   1.235   0.655
  273SOL    HW2 1122   0.696   1.311   0.711
  273SOL    HW3 1123   0.698   1.268   0.566
  273SOL    MW4 1124   0.705   1.249   0.650
  274SOL     OW 1125   0.671   1.472   0.779
  274SOL    HW2 1126   0.674   1.498   0.871
  274SOL    HW3 1127   0.595   1.519   0.743
  274SOL    MW4 1128   0.661   1.482   0.786
  275SOL     OW 1129   0.452   1.601   0.674
  275SOL    HW2 1130   0.463   1.693   0.650
  275SOL    HW3 1131   0.397   1.565   0.604
  275SOL    MW4 1132   0.446   1.608   0.661
  276SOL     OW 1133   0.485   1.858   0.616
  276SOL    HW2 1134   0.400   1.897   0.638
  276SOL    HW3 1135   0.502   1.888   0.527
  276SOL    MW4 1136   0.476   1.867   0.607
  277SOL     OW 1137   0.591   2.029   0.840
  277SOL    HW2 1138   0.565   2.009   0.930
  277SOL    HW3 1139   0.532   1.977   0.786
  277SOL    MW4 1140   0.580   2.020   0.844
  278SOL     OW 1141   0.648   2.265   0.703
  278SOL    HW2 1142   0.708   2.316   0.758
  278SOL    HW3 1143   0.632   2.185   0.752
  278SOL    MW4 1144   0.654   2.261   0.717
  279SOL     OW 1145   0.422   2.450   0.720
  279SOL    HW2 1146   0.497   2.390   0.720
  279SOL    HW3 1147   0.399   2.460   0.627
  279SOL    MW4 1148   0.429   2.444   0.708
  280SOL     OW 1149   0.420   2.693   0.865
  280SOL    HW2 1150   0.419   2.598   0.851
  280SOL    HW3 1151   0.347   2.726   0.811
  280SOL    MW4 1152   0.410   2.685   0.856
  281SOL     OW 1153   0.648   2.798   0.744
  281SOL    HW2 1154   0.734   2.759   0.762
  281SOL    HW3 1155   0.588   2.753   0.804
  281SOL    MW4 1156   0.651   2.787   0.754
  282SOL     OW 1157   0.661   3.065   0.911
  282SOL    HW2 1158   0.586   3.110   0.873
  282SOL    HW3 1159   0.663   2.980   0.869
  282SOL    MW4 1160   0.651   3.060   0.901
  283SOL     OW 1161   0.476   3.218   0.772
  283SOL    HW2 1162   0.484   3.313   0.767
  283SOL    HW3 1163   0.385   3.202   0.796
  283SOL    MW4 1164   0.465   3.228   0.774
  284SOL     OW 1165   0.494   3.488   0.814
  284SOL    HW2 1166   0.487   3.507   0.907
  284SOL    HW3 1167   0.410   3.516   0.777
  284SOL    MW4 1168   0.482   3.494   0.821
  285SOL     OW 1169   0.716   3.642   0.735
  285SOL    HW2 1170   0.638   3.593   0.760
  285SOL    HW3 1171   0.710   3.724   0.784
  285SOL    MW4 1172   0.705   3.647   0.745
  286SOL     OW 1173   0.688   3.872   0.882
  286SOL    HW2 1174   0.759   3.931   0.856
  286SOL    HW3 1175   0.609   3.911   0.843
  286SOL    MW4 1176   0.687   3.885   0.873
  287SOL     OW 1177   0.503   4.008   0.752
  287SOL    HW2 1178   0.493   4.096   0.788
  287SOL    HW3 1179   0.419   3.965   0.770
  287SOL    MW4 1180   0.491   4.014   0.760
  288SOL     OW 1181   0.474   4.251   0.869
  288SOL    HW2 1182   0.441   4.258   0.958
  288SOL    HW3 1183   0.420   4.313   0.819
  288SOL    MW4 1184   0.462   4.260   0.874
  289SOL     OW 1185   0.685   4.366   0.700
  289SOL    HW2 1186   0.631   4.313   0.759
  289SOL    HW3 1187   0.687   4.453   0.740
  289SOL    MW4 1188   0.678   4.370   0.713
  290SOL     OW 1189   1.134   4.605   0.819
  290SOL    HW2 1190   1.213   4.656   0.800
  290SOL    HW3 1191   1.062   4.661   0.790
  290SOL    MW4 1192   1.135   4.619   0.813
  291SOL     OW 1193   0.908   0.070   0.719
  291SOL    HW2 1194   0.896   0.159   0.751
  291SOL    HW3 1195   0.834   0.021   0.754
  291SOL    MW4 1196   0.897   0.076   0.728
  292SOL     OW 1197   0.897   0.329   0.828
  292SOL    HW2 1198   0.909   0.337   0.923
  292SOL    HW3 1199   0.973   0.374   0.791
  292SOL    MW4 1200   0.909   0.336   0.836
  293SOL     OW 1201   1.132   0.478   0.718
  293SOL    HW2 1202   1.200   0.431   0.767
  293SOL    HW3 1203   1.171   0.493   0.632
  293SOL    MW4 1204   1.146   0.473   0.713
  294SOL     OW 1205   1.129   0.730   0.819
  294SOL    HW2 1206   1.115   0.744   0.913
  294SOL    HW3 1207   1.128   0.635   0.808
  294SOL    MW4 1208   1.127   0.720   0.830
  295SOL     OW 1209   0.917   0.870   0.687
  295SOL    HW2 1210   0.991   0.823   0.727
  295SOL    HW3 1211   0.841   0.840   0.735
  295SOL    MW4 1212   0.917   0.860   0.698
  296SOL     OW 1213   0.950   1.120   0.796
  296SOL    HW2 1214   0.951   1.035   0.751
  296SOL    HW3 1215   0.875   1.166   0.760
  296SOL    MW4 1216   0.941   1.115   0.786
  297SOL     OW 1217   1.201   1.249   0.720
  297SOL    HW2 1218   1.134   1.198   0.766
  297SOL    HW3 1219   1.180   1.237   0.627
  297SOL    MW4 1220   1.189   1.241   0.714
  298SOL     OW 1221   1.157   1.525   0.781
  298SOL    HW2 1222   1.064   1.540   0.762
  298SOL    HW3 1223   1.171   1.432   0.762
  298SOL    MW4 1224   1.147   1.515   0.776
  299SOL     OW 1225   0.898   1.631   0.773
  299SOL    HW2 1226   0.877   1.724   0.785
  299SOL    HW3 1227   0.813   1.587   0.774
  299SOL    MW4 1228   0.884   1.638   0.775
  300SOL     OW 1229   0.836   1.912   0.838
  300SOL    HW2 1230   0.859   1.897   0.929
  300SOL    HW3 1231   0.746   1.946   0.841
  300SOL    MW4 1232   0.827   1.915   0.850
  301SOL     OW 1233   1.100   1.988   0.767
  301SOL    HW2 1234   1.097   2.078   0.800
  301SOL    HW3 1235   1.017   1.950   0.793
  301SOL    MW4 1236   1.089   1.995   0.774
  302SOL     OW 1237   1.083   2.247   0.858
  302SOL    HW2 1238   1.091   2.270   0.950
  302SOL    HW3 1239   1.143   2.307   0.813
  302SOL    MW4 1240   1.092   2.258   0.864
  303SOL     OW 1241   0.844   2.393   0.843
  303SOL    HW2 1242   0.923   2.340   0.853
  303SOL    HW3 1243   0.801   2.388   0.928
  303SOL    MW4 1244   0.849   2.385   0.856
  304SOL     OW 1245   0.884   2.672   0.825
  304SOL    HW2 1246   0.905   2.672   0.919
  304SOL    HW3 1247   0.854   2.583   0.808
  304SOL    MW4 1248   0.883   2.660   0.835
  305SOL     OW 1249   1.108   2.845   0.750
  305SOL    HW2 1250   1.033   2.789   0.770
  305SOL    HW3 1251   1.109   2.851   0.654
  305SOL    MW4 1252   1.098   2.838   0.740
  306SOL     OW 1253   1.089   3.142   0.832
  306SOL    HW2 1254   1.007   3.180   0.802
  306SOL    HW3 1255   1.088   3.052   0.798
  306SOL    MW4 1256   1.078   3.135   0.824
  307SOL     OW 1257   0.846   3.230   0.731
  307SOL    HW2 1258   0.872   3.314   0.769
  307SOL    HW3 1259   0.771   3.202   0.783
  307SOL    MW4 1260   0.839   3.237   0.743
  308SOL     OW 1261   0.911   3.461   0.844
  308SOL    HW2 1262   0.992   3.510   0.828
  308SOL    HW3 1263   0.841   3.519   0.813
  308SOL    MW4 1264   0.913   3.475   0.838
  309SOL     OW 1265   1.141   3.608   0.789
  309SOL    HW2 1266   1.232   3.595   0.814
  309SOL    HW3 1267   1.145   3.633   0.696
  309SOL    MW4 1268   1.153   3.609   0.780
  310SOL     OW 1269   1.171   3.886   0.851
  310SOL    HW2 1270   1.154   3.893   0.945
  310SOL    HW3 1271   1.160   3.793   0.831
  310SOL    MW4 1272   1.167   3.874   0.861
  311SOL     OW 1273   0.912   4.003   0.795
  311SOL    HW2 1274   0.909   4.097   0.817
  311SOL    HW3 1275   0.996   3.973   0.828
  311SOL    MW4 1276   0.923   4.012   0.802
  312SOL     OW 1277   0.915   4.273   0.854
  312SOL    HW2 1278   0.996   4.280   0.803
  312SOL    HW3 1279   0.847   4.306   0.796
  312SOL    MW4 1280   0.917   4.278   0.839
  313SOL     OW 1281   1.142   4.354   0.709
  313SOL    HW2 1282   1.223   4.324   0.751
  313SOL    HW3 1283   1.117   4.433   0.757
  313SOL    MW4 1284   1.149   4.360   0.721
  314SOL     OW 1285   1.585   4.619   0.888
  314SOL    HW2 1286   1.572   4.608   0.982
  314SOL    HW3 1287   1.507   4.665   0.858
  314SOL    MW4 1288   1.573   4.623   0.897
  315SOL     OW 1289   1.366   0.071   0.780
  315SOL    HW2 1290   1.357   0.165   0.790
  315SOL    HW3 1291   1.376   0.057   0.686
  315SOL    MW4 1292   1.366   0.081   0.769
  316SOL     OW 1293   1.348   0.338   0.832
  316SOL    HW2 1294   1.352   0.347   0.928
  316SOL    HW3 1295   1.428   0.381   0.801
  316SOL    MW4 1296   1.359   0.345   0.841
  317SOL     OW 1297   1.556   0.482   0.744
  317SOL    HW2 1298   1.534   0.568   0.780
  317SOL    HW3 1299   1.633   0.455   0.795
  317SOL    MW4 1300   1.563   0.490   0.755
  318SOL     OW 1301   1.562   0.746   0.834
  318SOL    HW2 1302   1.643   0.793   0.813
  318SOL    HW3 1303   1.494   0.791   0.783
  318SOL    MW4 1304   1.563   0.758   0.824
  319SOL     OW 1305   1.348   0.862   0.706
  319SOL    HW2 1306   1.346   0.949   0.745
  319SOL    HW3 1307   1.278   0.814   0.751
  319SOL    MW4 1308   1.339   0.867   0.717
  320SOL     OW 1309   1.406   1.105   0.827
  320SOL    HW2 1310   1.487   1.151   0.806
  320SOL    HW3 1311   1.337   1.163   0.796
  320SOL    MW4 1312   1.408   1.118   0.820
  321SOL     OW 1313   1.603   1.257   0.707
  321SOL    HW2 1314   1.567   1.341   0.679
  321SOL    HW3 1315   1.614   1.207   0.626
  321SOL    MW4 1316   1.600   1.262   0.693
  322SOL     OW 1317   1.696   1.658   0.831
  322SOL    HW2 1318   1.663   1.621   0.912
  322SOL    HW3 1319   1.785   1.623   0.823
  322SOL    MW4 1320   1.704   1.648   0.840
  323SOL     OW 1321   1.335   1.683   0.642
  323SOL    HW2 1322   1.365   1.754   0.698
  323SOL    HW3 1323   1.273   1.634   0.697
  323SOL    MW4 1324   1.331   1.686   0.656
  324SOL     OW 1325   1.359   1.916   0.803
  324SOL    HW2 1326   1.366   1.906   0.898
  324SOL    HW3 1327   1.266   1.934   0.787
  324SOL    MW4 1328   1.347   1.917   0.814
  325SOL     OW 1329   1.545   2.063   0.677
  325SOL    HW2 1330   1.474   2.018   0.724
  325SOL    HW3 1331   1.523   2.050   0.584
  325SOL    MW4 1332   1.532   2.055   0.671
  326SOL     OW 1333   1.518   2.333   0.770
  326SOL    HW2 1334   1.428   2.362   0.762
  326SOL    HW3 1335   1.518   2.245   0.730
  326SOL    MW4 1336   1.506   2.325   0.763
  327SOL     OW 1337   1.275   2.449   0.740
  327SOL    HW2 1338   1.301   2.529   0.784
  327SOL    HW3 1339   1.299   2.462   0.648
  327SOL    MW4 1340   1.281   2.461   0.734
  328SOL     OW 1341   1.329   2.718   0.833
  328SOL    HW2 1342   1.335   2.734   0.927
  328SOL    HW3 1343   1.261   2.778   0.802
  328SOL    MW4 1344   1.321   2.728   0.841
  329SOL     OW 1345   1.568   2.822   0.714
  329SOL    HW2 1346   1.567   2.909   0.754
  329SOL    HW3 1347   1.493   2.776   0.752
  329SOL    MW4 1348   1.558   2.827   0.724
  330SOL     OW 1349   1.562   3.081   0.866
  330SOL    HW2 1350   1.558   3.077   0.961
  330SOL    HW3 1351   1.481   3.126   0.840
  330SOL    MW4 1352   1.551   3.086   0.875
  331SOL     OW 1353   1.343   3.243   0.775
  331SOL    HW2 1354   1.261   3.194   0.782
  331SOL    HW3 1355   1.364   3.240   0.681
  331SOL    MW4 1356   1.335   3.236   0.763
  332SOL     OW 1357   1.392   3.530   0.840
  332SOL    HW2 1358   1.462   3.559   0.782
  332SOL    HW3 1359   1.380   3.438   0.819
  332SOL    MW4 1360   1.399   3.522   0.829
  333SOL     OW 1361   1.604   3.643   0.684
  333SOL    HW2 1362   1.687   3.596   0.690
  333SOL    HW3 1363   1.593   3.659   0.590
  333SOL    MW4 1364   1.614   3.639   0.672
  334SOL     OW 1365   1.594   3.887   0.832
  334SOL    HW2 1366   1.525   3.933   0.782
  334SOL    HW3 1367   1.594   3.798   0.796
  334SOL    MW4 1368   1.585   3.881   0.821
  335SOL     OW 1369   1.372   4.003   0.701
  335SOL    HW2 1370   1.294   3.963   0.740
  335SOL    HW3 1371   1.354   4.003   0.607
  335SOL    MW4 1372   1.359   3.998   0.694
  336SOL     OW 1373   1.378   4.253   0.830
  336SOL    HW2 1374   1.453   4.299   0.794
  336SOL    HW3 1375   1.372   4.172   0.779
  336SOL    MW4 1376   1.387   4.248   0.818
  337SOL     OW 1377   1.614   4.368   0.727
  337SOL    HW2 1378   1.695   4.322   0.749
  337SOL    HW3 1379   1.616   4.447   0.781
  337SOL    MW4 1380   1.625   4.372   0.737
  338SOL     OW 1381   1.765   0.136   0.767
  338SOL    HW2 1382   1.847   0.087   0.775
  338SOL    HW3 1383   1.700   0.081   0.812
  338SOL    MW4 1384   1.768   0.122   0.774
  339SOL     OW 1385   1.650   0.081   0.510
  339SOL    HW2 1386   1.556   0.069   0.526
  339SOL    HW3 1387   1.689   0.084   0.598
  339SOL    MW4 1388   1.643   0.080   0.524
  340SOL     OW 1389   1.777   0.385   0.880
  340SOL    HW2 1390   1.785   0.303   0.833
  340SOL    HW3 1391   1.853   0.437   0.853
  340SOL    MW4 1392   1.788   0.381   0.871
  341SOL     OW 1393   2.014   0.519   0.784
  341SOL    HW2 1394   2.011   0.498   0.691
  341SOL    HW3 1395   2.096   0.481   0.815
  341SOL    MW4 1396   2.024   0.511   0.776
  342SOL     OW 1397   2.041   0.794   0.839
  342SOL    HW2 1398   2.114   0.835   0.792
  342SOL    HW3 1399   2.044   0.702   0.813
  342SOL    MW4 1400   2.051   0.787   0.830
  343SOL     OW 1401   1.800   0.923   0.749
  343SOL    HW2 1402   1.804   1.013   0.779
  343SOL    HW3 1403   1.887   0.887   0.769
  343SOL    MW4 1404   1.812   0.930   0.756
  344SOL     OW 1405   1.842   1.190   0.812
  344SOL    HW2 1406   1.917   1.221   0.762
  344SOL    HW3 1407   1.772   1.252   0.790
  344SOL    MW4 1408   1.843   1.202   0.803
  345SOL     OW 1409   2.085   1.347   0.734
  345SOL    HW2 1410   2.146   1.295   0.786
  345SOL    HW3 1411   2.133   1.367   0.653
  345SOL    MW4 1412   2.100   1.343   0.730
  346SOL     OW 1413   1.963   1.566   0.820
  346SOL    HW2 1414   2.026   1.632   0.792
  346SOL    HW3 1415   1.997   1.484   0.784
  346SOL    MW4 1416   1.976   1.564   0.812
  347SOL     OW 1417   1.756   1.304   0.295
  347SOL    HW2 1418   1.788   1.314   0.205
  347SOL    HW3 1419   1.717   1.388   0.316
  347SOL    MW4 1420   1.755   1.316   0.286
  348SOL     OW 1421   1.726   1.928   0.844
  348SOL    HW2 1422   1.708   1.834   0.835
  348SOL    HW3 1423   1.657   1.970   0.793
  348SOL    MW4 1424   1.715   1.921   0.836
  349SOL     OW 1425   1.958   2.058   0.756
  349SOL    HW2 1426   1.966   2.149   0.787
  349SOL    HW3 1427   1.875   2.028   0.791
  349SOL    MW4 1428   1.948   2.066   0.765
  350SOL     OW 1429   1.980   2.332   0.797
  350SOL    HW2 1430   1.972   2.347   0.891
  350SOL    HW3 1431   1.915   2.390   0.758
  350SOL    MW4 1432   1.971   2.342   0.804
  351SOL     OW 1433   1.741   2.472   0.659
  351SOL    HW2 1434   1.664   2.435   0.701
  351SOL    HW3 1435   1.750   2.423   0.577
  351SOL    MW4 1436   1.732   2.460   0.654
  352SOL     OW 1437   1.774   2.691   0.841
  352SOL    HW2 1438   1.779   2.605   0.798
  352SOL    HW3 1439   1.725   2.745   0.779
  352SOL    MW4 1440   1.768   2.687   0.827
  353SOL     OW 1441   2.025   2.809   0.730
  353SOL    HW2 1442   2.093   2.742   0.739
  353SOL    HW3 1443   1.955   2.780   0.789
  353SOL    MW4 1444   2.025   2.796   0.739
  354SOL     OW 1445   2.033   3.107   0.823
  354SOL    HW2 1446   1.950   3.135   0.786
  354SOL    HW3 1447   2.043   3.016   0.794
  354SOL    MW4 1448   2.024   3.099   0.814
  355SOL     OW 1449   1.779   3.199   0.751
  355SOL    HW2 1450   1.701   3.165   0.794
  355SOL    HW3 1451   1.768   3.176   0.659
  355SOL    MW4 1452   1.767   3.192   0.745
  356SOL     OW 1453   1.793   3.472   0.796
  356SOL    HW2 1454   1.803   3.484   0.890
  356SOL    HW3 1455   1.791   3.377   0.784
  356SOL    MW4 1456   1.794   3.461   0.807
  357SOL     OW 1457   2.024   3.615   0.683
  357SOL    HW2 1458   2.015   3.697   0.730
  357SOL    HW3 1459   1.953   3.560   0.716
  357SOL    MW4 1460   2.014   3.618   0.694
  358SOL     OW 1461   2.065   3.845   0.815
  358SOL    HW2 1462   2.060   3.825   0.908
  358SOL    HW3 1463   1.988   3.899   0.797
  358SOL    MW4 1464   2.054   3.849   0.825
  359SOL     OW 1465   1.852   3.986   0.737
  359SOL    HW2 1466   1.766   3.982   0.779
  359SOL    HW3 1467   1.837   3.950   0.649
  359SOL    MW4 1468   1.839   3.981   0.731
  360SOL     OW 1469   1.856   4.249   0.800
  360SOL    HW2 1470   1.863   4.233   0.895
  360SOL    HW3 1471   1.858   4.161   0.762
  360SOL    MW4 1472   1.857   4.235   0.808
  361SOL     OW 1473   2.064   4.366   0.686
  361SOL    HW2 1474   1.995   4.307   0.718
  361SOL    HW3 1475   2.078   4.338   0.595
  361SOL    MW4 1476   2.057   4.354   0.678
  362SOL     OW 1477   2.627   4.649   0.753
  362SOL    HW2 1478   2.592   4.562   0.772
  362SOL    HW3 1479   2.557   4.709   0.780
  362SOL    MW4 1480   2.613   4.645   0.759
  363SOL     OW 1481   2.361   0.104   0.835
  363SOL    HW2 1482   2.390   0.065   0.917
  363SOL    HW3 1483   2.324   0.031   0.785
  363SOL    MW4 1484   2.360   0.089   0.839
  364SOL     OW 1485   2.270   0.376   0.852
  364SOL    HW2 1486   2.347   0.417   0.811
  364SOL    HW3 1487   2.269   0.287   0.816
  364SOL    MW4 1488   2.280   0.370   0.842
  365SOL     OW 1489   2.493   0.471   0.709
  365SOL    HW2 1490   2.474   0.444   0.619
  365SOL    HW3 1491   2.571   0.421   0.733
  365SOL    MW4 1492   2.501   0.461   0.700
  366SOL     OW 1493   2.492   0.749   0.666
  366SOL    HW2 1494   2.514   0.762   0.574
  366SOL    HW3 1495   2.511   0.656   0.682
  366SOL    MW4 1496   2.497   0.738   0.656
  367SOL     OW 1497   2.259   0.890   0.707
  367SOL    HW2 1498   2.331   0.829   0.689
  367SOL    HW3 1499   2.238   0.927   0.621
  367SOL    MW4 1500   2.266   0.887   0.693
  368SOL     OW 1501   2.274   1.169   0.858
  368SOL    HW2 1502   2.262   1.184   0.951
  368SOL    HW3 1503   2.245   1.078   0.845
  368SOL    MW4 1504   2.268   1.159   0.868
  369SOL     OW 1505   2.492   1.287   0.757
  369SOL    HW2 1506   2.412   1.245   0.786
  369SOL    HW3 1507   2.505   1.257   0.667
  369SOL    MW4 1508   2.483   1.278   0.749
  370SOL     OW 1509   2.439   1.558   0.754
  370SOL    HW2 1510   2.530   1.588   0.749
  370SOL    HW3 1511   2.445   1.463   0.764
  370SOL    MW4 1512   2.452   1.550   0.755
  371SOL     OW 1513   2.185   1.716   0.767
  371SOL    HW2 1514   2.269   1.670   0.767
  371SOL    HW3 1515   2.166   1.732   0.675
  371SOL    MW4 1516   2.193   1.712   0.755
  372SOL     OW 1517   2.200   1.975   0.842
  372SOL    HW2 1518   2.197   1.881   0.823
  372SOL    HW3 1519   2.116   2.008   0.812
  372SOL    MW4 1520   2.189   1.967   0.836
  373SOL     OW 1521   2.433   2.063   0.725
  373SOL    HW2 1522   2.357   2.033   0.774
  373SOL    HW3 1523   2.414   2.039   0.634
  373SOL    MW4 1524   2.420   2.056   0.719
  374SOL     OW 1525   2.450   2.306   0.857
  374SOL    HW2 1526   2.518   2.360   0.817
  374SOL    HW3 1527   2.471   2.217   0.829
  374SOL    MW4 1528   2.461   2.301   0.848
  375SOL     OW 1529   2.236   2.368   0.691
  375SOL    HW2 1530   2.319   2.350   0.736
  375SOL    HW3 1531   2.171   2.318   0.741
  375SOL    MW4 1532   2.239   2.359   0.703
  376SOL     OW 1533   2.266   2.633   0.778
  376SOL    HW2 1534   2.256   2.632   0.873
  376SOL    HW3 1535   2.275   2.541   0.753
  376SOL    MW4 1536   2.266   2.621   0.787
  377SOL     OW 1537   2.479   2.850   0.715
  377SOL    HW2 1538   2.545   2.800   0.762
  377SOL    HW3 1539   2.397   2.803   0.729
  377SOL    MW4 1540   2.477   2.838   0.723
  378SOL     OW 1541   2.462   3.123   0.800
  378SOL    HW2 1542   2.469   3.102   0.893
  378SOL    HW3 1543   2.451   3.037   0.758
  378SOL    MW4 1544   2.462   3.109   0.807
  379SOL     OW 1545   2.241   3.264   0.702
  379SOL    HW2 1546   2.167   3.214   0.736
  379SOL    HW3 1547   2.318   3.215   0.732
  379SOL    MW4 1548   2.241   3.251   0.711
  380SOL     OW 1549   2.287   3.529   0.720
  380SOL    HW2 1550   2.266   3.435   0.718
  380SOL    HW3 1551   2.202   3.572   0.725
  380SOL    MW4 1552   2.273   3.522   0.721
  381SOL     OW 1553   2.535   3.656   0.687
  381SOL    HW2 1554   2.603   3.590   0.706
  381SOL    HW3 1555   2.453   3.608   0.692
  381SOL    MW4 1556   2.533   3.641   0.690
  382SOL     OW 1557   2.523   3.917   0.815
  382SOL    HW2 1558   2.451   3.975   0.792
  382SOL    HW3 1559   2.504   3.835   0.770
  382SOL    MW4 1560   2.511   3.914   0.806
  383SOL     OW 1561   2.284   4.033   0.742
  383SOL    HW2 1562   2.207   4.003   0.790
  383SOL    HW3 1563   2.264   4.011   0.650
  383SOL    MW4 1564   2.271   4.026   0.736
  384SOL     OW 1565   2.291   4.310   0.815
  384SOL    HW2 1566   2.287   4.220   0.783
  384SOL    HW3 1567   2.210   4.350   0.784
  384SOL    MW4 1568   2.280   4.303   0.807
  385SOL     OW 1569   2.557   4.376   0.771
  385SOL    HW2 1570   2.574   4.342   0.859
  385SOL    HW3 1571   2.462   4.371   0.761
  385SOL    MW4 1572   2.547   4.371   0.782
  386SOL     OW 1573   2.883   4.627   0.865
  386SOL    HW2 1574   2.884   4.533   0.850
  386SOL    HW3 1575   2.796   4.656   0.837
  386SOL    MW4 1576   2.872   4.618   0.860
  387SOL     OW 1577   2.739   4.479   0.558
  387SOL    HW2 1578   2.812   4.520   0.512
  387SOL    HW3 1579   2.700   4.550   0.609
  387SOL    MW4 1580   2.743   4.494   0.558
  388SOL     OW 1581   2.690   0.311   0.807
  388SOL    HW2 1582   2.675   0.318   0.901
  388SOL    HW3 1583   2.759   0.375   0.789
  388SOL    MW4 1584   2.697   0.320   0.817
  389SOL     OW 1585   2.897   0.499   0.730
  389SOL    HW2 1586   2.973   0.465   0.778
  389SOL    HW3 1587   2.933   0.532   0.648
  389SOL    MW4 1588   2.912   0.499   0.726
  390SOL     OW 1589   2.813   0.753   0.866
  390SOL    HW2 1590   2.848   0.731   0.952
  390SOL    HW3 1591   2.820   0.671   0.816
  390SOL    MW4 1592   2.818   0.739   0.871
  391SOL     OW 1593   2.579   0.871   0.914
  391SOL    HW2 1594   2.661   0.824   0.898
  391SOL    HW3 1595   2.523   0.846   0.840
  391SOL    MW4 1596   2.582   0.861   0.902
  392SOL     OW 1597   2.687   1.116   0.850
  392SOL    HW2 1598   2.647   1.031   0.867
  392SOL    HW3 1599   2.614   1.175   0.831
  392SOL    MW4 1600   2.672   1.113   0.850
  393SOL     OW 1601   2.908   1.251   0.757
  393SOL    HW2 1602   2.989   1.207   0.784
  393SOL    HW3 1603   2.838   1.193   0.790
  393SOL    MW4 1604   2.909   1.237   0.765
  394SOL     OW 1605   2.897   1.496   0.874
  394SOL    HW2 1606   2.980   1.528   0.839
  394SOL    HW3 1607   2.887   1.409   0.836
  394SOL    MW4 1608   2.906   1.489   0.864
  395SOL     OW 1609   2.703   1.625   0.727
  395SOL    HW2 1610   2.700   1.720   0.740
  395SOL    HW3 1611   2.768   1.594   0.790
  395SOL    MW4 1612   2.711   1.633   0.737
  396SOL     OW 1613   2.664   1.906   0.780
  396SOL    HW2 1614   2.672   1.921   0.875
  396SOL    HW3 1615   2.585   1.954   0.755
  396SOL    MW4 1616   2.655   1.914   0.790
  397SOL     OW 1617   2.848   2.055   0.612
  397SOL    HW2 1618   2.877   2.130   0.664
  397SOL    HW3 1619   2.794   2.004   0.673
  397SOL    MW4 1620   2.845   2.058   0.627
  398SOL     OW 1621   2.907   2.266   0.796
  398SOL    HW2 1622   2.922   2.259   0.890
  398SOL    HW3 1623   2.826   2.317   0.788
  398SOL    MW4 1624   2.899   2.272   0.807
  399SOL     OW 1625   2.679   2.425   0.744
  399SOL    HW2 1626   2.675   2.428   0.649
  399SOL    HW3 1627   2.690   2.516   0.771
  399SOL    MW4 1628   2.680   2.438   0.735
  400SOL     OW 1629   2.693   2.690   0.811
  400SOL    HW2 1630   2.682   2.686   0.906
  400SOL    HW3 1631   2.784   2.718   0.798
  400SOL    MW4 1632   2.703   2.693   0.822
  401SOL     OW 1633   2.911   2.816   0.472
  401SOL    HW2 1634   2.911   2.720   0.469
  401SOL    HW3 1635   2.819   2.841   0.468
  401SOL    MW4 1636   2.899   2.807   0.471
  402SOL     OW 1637   2.927   3.089   0.808
  402SOL    HW2 1638   2.841   3.122   0.780
  402SOL    HW3 1639   2.929   2.999   0.775
  402SOL    MW4 1640   2.916   3.082   0.800
  403SOL     OW 1641   2.711   3.242   0.709
  403SOL    HW2 1642   2.717   3.329   0.748
  403SOL    HW3 1643   2.631   3.205   0.745
  403SOL    MW4 1644   2.701   3.249   0.719
  404SOL     OW 1645   2.756   3.498   0.785
  404SOL    HW2 1646   2.758   3.499   0.881
  404SOL    HW3 1647   2.843   3.527   0.758
  404SOL    MW4 1648   2.768   3.502   0.794
  405SOL     OW 1649   2.997   3.599   0.711
  405SOL    HW2 1650   2.998   3.682   0.759
  405SOL    HW3 1651   3.032   3.621   0.624
  405SOL    MW4 1652   3.002   3.613   0.706
  406SOL     OW 1653   2.979   3.866   0.839
  406SOL    HW2 1654   2.983   3.897   0.929
  406SOL    HW3 1655   2.900   3.908   0.803
  406SOL    MW4 1656   2.969   3.876   0.846
  407SOL     OW 1657   2.771   4.019   0.724
  407SOL    HW2 1658   2.680   4.000   0.744
  407SOL    HW3 1659   2.790   3.967   0.646
  407SOL    MW4 1660   2.762   4.009   0.717
  408SOL     OW 1661   2.875   4.347   0.833
  408SOL    HW2 1662   2.825   4.316   0.908
  408SOL    HW3 1663   2.963   4.311   0.845
  408SOL    MW4 1664   2.880   4.338   0.844
  409SOL     OW 1665   3.099   4.379   0.400
  409SOL    HW2 1666   3.186   4.407   0.428
  409SOL    HW3 1667   3.066   4.327   0.473
  409SOL    MW4 1668   3.106   4.376   0.413
  410SOL     OW 1669   3.398   4.615   0.838
  410SOL    HW2 1670   3.406   4.631   0.932
  410SOL    HW3 1671   3.318   4.660   0.812
  410SOL    MW4 1672   3.389   4.623   0.847
  411SOL     OW 1673   3.136   0.051   0.790
  411SOL    HW2 1674   3.131   0.146   0.794
  411SOL    HW3 1675   3.054   0.020   0.829
  411SOL    MW4 1676   3.124   0.059   0.796
  412SOL     OW 1677   3.115   0.354   0.845
  412SOL    HW2 1678   3.126   0.354   0.940
  412SOL    HW3 1679   3.200   0.381   0.811
  412SOL    MW4 1680   3.127   0.358   0.853
  413SOL     OW 1681   3.389   0.454   0.748
  413SOL    HW2 1682   3.478   0.423   0.768
  413SOL    HW3 1683   3.390   0.468   0.653
  413SOL    MW4 1684   3.401   0.452   0.738
  414SOL     OW 1685   3.330   0.707   0.875
  414SOL    HW2 1686   3.246   0.751   0.861
  414SOL    HW3 1687   3.323   0.626   0.825
  414SOL    MW4 1688   3.318   0.702   0.867
  415SOL     OW 1689   3.080   0.851   0.830
  415SOL    HW2 1690   3.094   0.944   0.850
  415SOL    HW3 1691   2.989   0.835   0.854
  415SOL    MW4 1692   3.070   0.861   0.836
  416SOL     OW 1693   3.126   1.120   0.855
  416SOL    HW2 1694   3.146   1.128   0.948
  416SOL    HW3 1695   3.200   1.162   0.811
  416SOL    MW4 1696   3.138   1.126   0.861
  417SOL     OW 1697   3.367   1.251   0.751
  417SOL    HW2 1698   3.455   1.217   0.771
  417SOL    HW3 1699   3.368   1.339   0.787
  417SOL    MW4 1700   3.379   1.258   0.758
  418SOL     OW 1701   3.367   1.511   0.848
  418SOL    HW2 1702   3.388   1.503   0.942
  418SOL    HW3 1703   3.445   1.551   0.810
  418SOL    MW4 1704   3.380   1.515   0.856
  419SOL     OW 1705   3.114   1.620   0.752
  419SOL    HW2 1706   3.199   1.581   0.772
  419SOL    HW3 1707   3.113   1.628   0.656
  419SOL    MW4 1708   3.125   1.616   0.742
  420SOL     OW 1709   3.171   1.897   0.807
  420SOL    HW2 1710   3.150   1.922   0.897
  420SOL    HW3 1711   3.138   1.807   0.799
  420SOL    MW4 1712   3.164   1.888   0.818
  421SOL     OW 1713   3.471   1.947   0.881
  421SOL    HW2 1714   3.489   2.038   0.859
  421SOL    HW3 1715   3.379   1.934   0.857
  421SOL    MW4 1716   3.461   1.957   0.875
  422SOL     OW 1717   3.480   2.216   0.836
  422SOL    HW2 1718   3.421   2.258   0.899
  422SOL    HW3 1719   3.564   2.260   0.850
  422SOL    MW4 1720   3.483   2.228   0.846
  423SOL     OW 1721   3.113   2.473   0.711
  423SOL    HW2 1722   3.185   2.415   0.685
  423SOL    HW3 1723   3.050   2.415   0.754
  423SOL    MW4 1724   3.114   2.458   0.713
  424SOL     OW 1725   3.172   2.709   0.838
  424SOL    HW2 1726   3.171   2.624   0.794
  424SOL    HW3 1727   3.242   2.757   0.794
  424SOL    MW4 1728   3.181   2.704   0.826
  425SOL     OW 1729   3.316   2.861   0.667
  425SOL    HW2 1730   3.253   2.887   0.600
  425SOL    HW3 1731   3.387   2.818   0.618
  425SOL    MW4 1732   3.317   2.859   0.652
  426SOL     OW 1733   3.396   3.065   0.826
  426SOL    HW2 1734   3.370   3.045   0.916
  426SOL    HW3 1735   3.380   2.983   0.778
  426SOL    MW4 1736   3.390   3.051   0.832
  427SOL     OW 1737   3.168   3.198   0.740
  427SOL    HW2 1738   3.233   3.139   0.778
  427SOL    HW3 1739   3.084   3.156   0.759
  427SOL    MW4 1740   3.166   3.185   0.747
  428SOL     OW 1741   3.218   3.465   0.779
  428SOL    HW2 1742   3.197   3.373   0.767
  428SOL    HW3 1743   3.143   3.512   0.743
  428SOL    MW4 1744   3.205   3.459   0.773
  429SOL     OW 1745   3.373   4.395   0.480
  429SOL    HW2 1746   3.393   4.304   0.457
  429SOL    HW3 1747   3.458   4.437   0.488
  429SOL    MW4 1748   3.387   4.388   0.478
  430SOL     OW 1749   3.511   3.944   0.832
  430SOL    HW2 1750   3.524   4.037   0.853
  430SOL    HW3 1751   3.458   3.910   0.903
  430SOL    MW4 1752   3.506   3.952   0.844
  431SOL     OW 1753   3.123   4.025   0.680
  431SOL    HW2 1754   3.194   3.969   0.647
  431SOL    HW3 1755   3.075   3.969   0.741
  431SOL    MW4 1756   3.126   4.010   0.684
  432SOL     OW 1757   3.132   4.232   0.865
  432SOL    HW2 1758   3.204   4.295   0.858
  432SOL    HW3 1759   3.153   4.164   0.801
  432SOL    MW4 1760   3.144   4.232   0.856
  433SOL     OW 1761   3.353   4.361   0.753
  433SOL    HW2 1762   3.352   4.451   0.788
  433SOL    HW3 1763   3.340   4.373   0.659
  433SOL    MW4 1764   3.351   4.375   0.745
  434SOL     OW 1765   3.832   0.005   0.819
  434SOL    HW2 1766   3.893   0.077   0.805
  434SOL    HW3 1767   3.752   0.031   0.773
  434SOL    MW4 1768   3.829   0.018   0.811
  435SOL     OW 1769   3.598   0.104   0.712
  435SOL    HW2 1770   3.534   0.048   0.758
  435SOL    HW3 1771   3.564   0.111   0.623
  435SOL    MW4 1772   3.585   0.097   0.706
  436SOL     OW 1773   3.657   0.366   0.814
  436SOL    HW2 1774   3.640   0.366   0.908
  436SOL    HW3 1775   3.634   0.277   0.785
  436SOL    MW4 1776   3.652   0.354   0.822
  437SOL     OW 1777   3.839   0.544   0.714
  437SOL    HW2 1778   3.826   0.625   0.764
  437SOL    HW3 1779   3.773   0.484   0.749
  437SOL    MW4 1780   3.828   0.547   0.726
  438SOL     OW 1781   3.829   0.748   0.885
  438SOL    HW2 1782   3.842   0.745   0.980
  438SOL    HW3 1783   3.901   0.801   0.852
  438SOL    MW4 1784   3.840   0.754   0.893
  439SOL     OW 1785   3.564   0.837   0.786
  439SOL    HW2 1786   3.636   0.783   0.819
  439SOL    HW3 1787   3.485   0.795   0.823
  439SOL    MW4 1788   3.563   0.824   0.796
  440SOL     OW 1789   3.606   1.116   0.855
  440SOL    HW2 1790   3.572   1.125   0.944
  440SOL    HW3 1791   3.597   1.023   0.835
  440SOL    MW4 1792   3.601   1.105   0.864
  441SOL     OW 1793   3.829   1.229   0.713
  441SOL    HW2 1794   3.769   1.177   0.765
  441SOL    HW3 1795   3.802   1.213   0.622
  441SOL    MW4 1796   3.817   1.220   0.708
  442SOL     OW 1797   3.833   1.500   0.800
  442SOL    HW2 1798   3.913   1.543   0.770
  442SOL    HW3 1799   3.835   1.415   0.757
  442SOL    MW4 1800   3.844   1.495   0.790
  443SOL     OW 1801   3.594   1.592   0.700
  443SOL    HW2 1802   3.611   1.681   0.668
  443SOL    HW3 1803   3.676   1.566   0.743
  443SOL    MW4 1804   3.607   1.600   0.702
  444SOL     OW 1805   3.842   1.996   0.601
  444SOL    HW2 1806   3.906   1.964   0.665
  444SOL    HW3 1807   3.761   1.949   0.621
  444SOL    MW4 1808   3.840   1.986   0.612
  445SOL     OW 1809   3.819   2.278   0.607
  445SOL    HW2 1810   3.780   2.301   0.691
  445SOL    HW3 1811   3.833   2.183   0.611
  445SOL    MW4 1812   3.816   2.269   0.618
  446SOL     OW 1813   4.089   1.643   0.457
  446SOL    HW2 1814   4.017   1.663   0.396
  446SOL    HW3 1815   4.144   1.722   0.455
  446SOL    MW4 1816   4.087   1.656   0.449
  447SOL     OW 1817   3.717   2.361   0.866
  447SOL    HW2 1818   3.713   2.455   0.847
  447SOL    HW3 1819   3.750   2.356   0.955
  447SOL    MW4 1820   3.721   2.373   0.875
  448SOL     OW 1821   3.662   2.640   0.825
  448SOL    HW2 1822   3.653   2.644   0.921
  448SOL    HW3 1823   3.714   2.718   0.803
  448SOL    MW4 1824   3.668   2.651   0.835
  449SOL     OW 1825   3.790   2.870   0.770
  449SOL    HW2 1826   3.751   2.947   0.812
  449SOL    HW3 1827   3.807   2.898   0.680
  449SOL    MW4 1828   3.787   2.884   0.764
  450SOL     OW 1829   3.665   3.085   0.904
  450SOL    HW2 1830   3.695   3.167   0.863
  450SOL    HW3 1831   3.569   3.090   0.899
  450SOL    MW4 1832   3.656   3.096   0.898
  451SOL     OW 1833   3.449   3.534   0.646
  451SOL    HW2 1834   3.460   3.446   0.609
  451SOL    HW3 1835   3.369   3.528   0.698
  451SOL    MW4 1836   3.440   3.521   0.648
  452SOL     OW 1837   3.659   3.545   0.842
  452SOL    HW2 1838   3.704   3.470   0.803
  452SOL    HW3 1839   3.574   3.547   0.798
  452SOL    MW4 1840   3.654   3.535   0.831
  453SOL     OW 1841   3.827   3.616   0.633
  453SOL    HW2 1842   3.743   3.626   0.678
  453SOL    HW3 1843   3.892   3.616   0.703
  453SOL    MW4 1844   3.825   3.618   0.648
  454SOL     OW 1845   3.745   3.800   0.889
  454SOL    HW2 1846   3.657   3.838   0.882
  454SOL    HW3 1847   3.730   3.705   0.887
  454SOL    MW4 1848   3.731   3.792   0.888
  455SOL     OW 1849   2.641   4.170   0.214
  455SOL    HW2 1850   2.605   4.184   0.127
  455SOL    HW3 1851   2.634   4.255   0.257
  455SOL    MW4 1852   2.635   4.183   0.208
  456SOL     OW 1853   3.582   4.210   0.858
  456SOL    HW2 1854   3.648   4.219   0.790
  456SOL    HW3 1855   3.510   4.267   0.829
  456SOL    MW4 1856   3.581   4.219   0.846
  457SOL     OW 1857   3.914   4.448   0.652
  457SOL    HW2 1858   3.879   4.361   0.672
  457SOL    HW3 1859   3.882   4.503   0.723
  457SOL    MW4 1860   3.905   4.444   0.664
  458SOL     OW 1861   4.222   4.652   0.838
  458SOL    HW2 1862   4.238   4.646   0.932
  458SOL    HW3 1863   4.163   4.726   0.828
  458SOL    MW4 1864   4.216   4.661   0.849
  459SOL     OW 1865   4.018   0.184   0.787
  459SOL    HW2 1866   4.006   0.274   0.817
  459SOL    HW3 1867   4.020   0.190   0.691
  459SOL    MW4 1868   4.016   0.196   0.778
  460SOL     OW 1869   4.028   0.440   0.876
  460SOL    HW2 1870   4.113   0.447   0.832
  460SOL    HW3 1871   3.967   0.484   0.818
  460SOL    MW4 1872   4.031   0.446   0.863
  461SOL     OW 1873   4.271   0.458   0.746
  461SOL    HW2 1874   4.357   0.434   0.778
  461SOL    HW3 1875   4.271   0.433   0.654
  461SOL    MW4 1876   4.282   0.452   0.738
  462SOL     OW 1877   4.271   0.740   0.853
  462SOL    HW2 1878   4.194   0.784   0.816
  462SOL    HW3 1879   4.268   0.652   0.817
  462SOL    MW4 1880   4.261   0.735   0.843
  463SOL     OW 1881   4.046   0.872   0.744
  463SOL    HW2 1882   4.051   0.961   0.778
  463SOL    HW3 1883   4.110   0.870   0.673
  463SOL    MW4 1884   4.055   0.884   0.739
  464SOL     OW 1885   4.064   1.113   0.847
  464SOL    HW2 1886   4.075   1.118   0.942
  464SOL    HW3 1887   3.986   1.167   0.830
  464SOL    MW4 1888   4.055   1.121   0.858
  465SOL     OW 1889   4.295   1.232   0.744
  465SOL    HW2 1890   4.228   1.175   0.782
  465SOL    HW3 1891   4.378   1.193   0.773
  465SOL    MW4 1892   4.297   1.219   0.753
  466SOL     OW 1893   4.285   1.498   0.848
  466SOL    HW2 1894   4.299   1.481   0.941
  466SOL    HW3 1895   4.293   1.412   0.807
  466SOL    MW4 1896   4.288   1.485   0.855
  467SOL     OW 1897   4.066   1.638   0.757
  467SOL    HW2 1898   4.137   1.583   0.790
  467SOL    HW3 1899   4.071   1.630   0.662
  467SOL    MW4 1900   4.076   1.630   0.749
  468SOL     OW 1901   3.999   1.906   0.806
  468SOL    HW2 1902   4.014   1.813   0.789
  468SOL    HW3 1903   4.086   1.946   0.802
  468SOL    MW4 1904   4.012   1.899   0.803
  469SOL     OW 1905   4.262   2.014   0.742
  469SOL    HW2 1906   4.351   1.993   0.769
  469SOL    HW3 1907   4.259   1.989   0.649
  469SOL    MW4 1908   4.273   2.008   0.733
  470SOL     OW 1909   4.256   2.287   0.845
  470SOL    HW2 1910   4.201   2.326   0.777
  470SOL    HW3 1911   4.271   2.198   0.816
  470SOL    MW4 1912   4.251   2.281   0.832
  471SOL     OW 1913   4.016   2.633   0.544
  471SOL    HW2 1914   4.015   2.662   0.635
  471SOL    HW3 1915   3.925   2.640   0.515
  471SOL    MW4 1916   4.004   2.638   0.552
  472SOL     OW 1917   4.019   2.721   0.818
  472SOL    HW2 1918   4.087   2.786   0.798
  472SOL    HW3 1919   3.938   2.772   0.824
  472SOL    MW4 1920   4.018   2.736   0.816
  473SOL     OW 1921   4.260   2.852   0.734
  473SOL    HW2 1922   4.341   2.830   0.781
  473SOL    HW3 1923   4.269   2.809   0.649
  473SOL    MW4 1924   4.272   2.844   0.729
  474SOL     OW 1925   4.263   3.125   0.773
  474SOL    HW2 1926   4.256   3.031   0.755
  474SOL    HW3 1927   4.331   3.156   0.714
  474SOL    MW4 1928   4.271   3.116   0.763
  475SOL     OW 1929   4.077   3.307   0.658
  475SOL    HW2 1930   4.137   3.373   0.690
  475SOL    HW3 1931   4.125   3.225   0.663
  475SOL    MW4 1932   4.091   3.305   0.662
  476SOL     OW 1933   4.033   3.612   0.830
  476SOL    HW2 1934   4.039   3.564   0.912
  476SOL    HW3 1935   4.057   3.702   0.853
  476SOL    MW4 1936   4.037   3.617   0.844
  477SOL     OW 1937   4.249   3.547   0.691
  477SOL    HW2 1938   4.166   3.577   0.728
  477SOL    HW3 1939   4.248   3.579   0.600
  477SOL    MW4 1940   4.238   3.555   0.684
  478SOL     OW 1941   4.125   3.867   0.901
  478SOL    HW2 1942   4.166   3.880   0.987
  478SOL    HW3 1943   4.065   3.940   0.891
  478SOL    MW4 1944   4.122   3.878   0.911
  479SOL     OW 1945   3.891   3.938   0.695
  479SOL    HW2 1946   3.841   3.885   0.757
  479SOL    HW3 1947   3.877   3.896   0.610
  479SOL    MW4 1948   3.882   3.926   0.692
  480SOL     OW 1949   3.969   4.123   0.917
  480SOL    HW2 1950   4.019   4.171   0.851
  480SOL    HW3 1951   3.884   4.107   0.876
  480SOL    MW4 1952   3.964   4.127   0.903
  481SOL     OW 1953   4.289   4.437   0.672
  481SOL    HW2 1954   4.244   4.504   0.723
  481SOL    HW3 1955   4.341   4.389   0.736
  481SOL    MW4 1956   4.290   4.439   0.687
  482SOL     OW 1957   0.210   4.664   1.092
  482SOL    HW2 1958   0.296   4.691   1.123
  482SOL    HW3 1959   0.218   4.656   0.997
  482SOL    MW4 1960   0.222   4.666   1.084
  483SOL     OW 1961   4.481   0.105   1.208
  483SOL    HW2 1962   4.414   0.040   1.185
  483SOL    HW3 1963   4.558   0.081   1.156
  483SOL    MW4 1964   4.482   0.094   1.198
  484SOL     OW 1965   0.017   0.379   1.110
  484SOL    HW2 1966  -0.049   0.422   1.164
  484SOL    HW3 1967   0.007   0.286   1.131
  484SOL    MW4 1968   0.007   0.372   1.120
  485SOL     OW 1969   0.237   0.483   1.225
  485SOL    HW2 1970   0.253   0.565   1.178
  485SOL    HW3 1971   0.160   0.445   1.183
  485SOL    MW4 1972   0.229   0.489   1.214
  486SOL     OW 1973   0.260   0.737   1.132
  486SOL    HW2 1974   0.337   0.789   1.152
  486SOL    HW3 1975   0.186   0.792   1.158
  486SOL    MW4 1976   0.260   0.751   1.138
  487SOL     OW 1977   0.033   0.877   1.197
  487SOL    HW2 1978   0.047   0.882   1.291
  487SOL    HW3 1979  -0.054   0.836   1.188
  487SOL    MW4 1980   0.023   0.872   1.208
  488SOL     OW 1981   0.058   1.146   1.113
  488SOL    HW2 1982  -0.021   1.187   1.149
  488SOL    HW3 1983   0.051   1.054   1.139
  488SOL    MW4 1984   0.047   1.139   1.121
  489SOL     OW 1985   0.263   1.296   1.199
  489SOL    HW2 1986   0.348   1.256   1.179
  489SOL    HW3 1987   0.199   1.235   1.164
  489SOL    MW4 1988   0.266   1.283   1.192
  490SOL     OW 1989   0.244   1.563   1.093
  490SOL    HW2 1990   0.238   1.473   1.125
  490SOL    HW3 1991   0.250   1.555   0.998
  490SOL    MW4 1992   0.244   1.550   1.085
  491SOL     OW 1993   0.043   1.684   1.205
  491SOL    HW2 1994   0.049   1.773   1.171
  491SOL    HW3 1995   0.116   1.638   1.164
  491SOL    MW4 1996   0.053   1.690   1.195
  492SOL     OW 1997   0.051   1.954   1.103
  492SOL    HW2 1998  -0.034   1.989   1.131
  492SOL    HW3 1999   0.037   1.929   1.012
  492SOL    MW4 2000   0.038   1.955   1.095
  493SOL     OW 2001   0.263   2.113   1.170
  493SOL    HW2 2002   0.257   2.204   1.142
  493SOL    HW3 2003   0.189   2.070   1.128
  493SOL    MW4 2004   0.252   2.119   1.161
  494SOL     OW 2005   0.230   2.385   1.118
  494SOL    HW2 2006   0.300   2.430   1.165
  494SOL    HW3 2007   0.149   2.416   1.159
  494SOL    MW4 2008   0.228   2.395   1.129
  495SOL     OW 2009   4.476   2.460   1.211
  495SOL    HW2 2010   4.457   2.470   1.304
  495SOL    HW3 2011   4.406   2.403   1.179
  495SOL    MW4 2012   4.464   2.454   1.219
  496SOL     OW 2013   0.008   2.726   1.143
  496SOL    HW2 2014  -0.077   2.762   1.172
  496SOL    HW3 2015   0.015   2.642   1.190
  496SOL    MW4 2016  -0.003   2.720   1.153
  497SOL     OW 2017   0.211   2.875   1.247
  497SOL    HW2 2018   0.208   2.878   1.343
  497SOL    HW3 2019   0.130   2.830   1.223
  497SOL    MW4 2020   0.200   2.869   1.257
  498SOL     OW 2021   0.236   3.111   1.094
  498SOL    HW2 2022   0.296   3.170   1.141
  498SOL    HW3 2023   0.229   3.034   1.150
  498SOL    MW4 2024   0.243   3.109   1.107
  499SOL     OW 2025   0.001   3.251   1.161
  499SOL    HW2 2026  -0.072   3.201   1.125
  499SOL    HW3 2027   0.079   3.200   1.137
  499SOL    MW4 2028   0.002   3.238   1.153
  500SOL     OW 2029   4.474   3.502   1.059
  500SOL    HW2 2030   4.463   3.412   1.092
  500SOL    HW3 2031   4.483   3.492   0.965
  500SOL    MW4 2032   4.474   3.488   1.051
  501SOL     OW 2033   0.216   3.614   1.177
  501SOL    HW2 2034   0.223   3.619   1.272
  501SOL    HW3 2035   0.127   3.584   1.161
  501SOL    MW4 2036   0.205   3.611   1.188
  502SOL     OW 2037   0.210   3.873   1.084
  502SOL    HW2 2038   0.141   3.902   1.143
  502SOL    HW3 2039   0.219   3.779   1.100
  502SOL    MW4 2040   0.202   3.865   1.094
  503SOL     OW 2041   4.485   3.994   1.226
  503SOL    HW2 2042   4.480   3.994   1.321
  503SOL    HW3 2043   4.398   3.965   1.197
  503SOL    MW4 2044   4.473   3.990   1.235
  504SOL     OW 2045   4.448   4.262   1.099
  504SOL    HW2 2046   4.516   4.321   1.131
  504SOL    HW3 2047   4.479   4.174   1.123
  504SOL    MW4 2048   4.461   4.258   1.106
  505SOL     OW 2049   0.158   4.423   1.196
  505SOL    HW2 2050   0.164   4.443   1.290
  505SOL    HW3 2051   0.193   4.501   1.153
  505SOL    MW4 2052   0.163   4.436   1.203
  506SOL     OW 2053   0.688   4.608   1.112
  506SOL    HW2 2054   0.769   4.656   1.128
  506SOL    HW3 2055   0.696   4.530   1.167
  506SOL    MW4 2056   0.700   4.604   1.122
  507SOL     OW 2057   0.456   0.096   1.195
  507SOL    HW2 2058   0.477   0.184   1.164
  507SOL    HW3 2059   0.523   0.040   1.154
  507SOL    MW4 2060   0.467   0.100   1.185
  508SOL     OW 2061   0.437   0.352   1.105
  508SOL    HW2 2062   0.361   0.396   1.144
  508SOL    HW3 2063   0.431   0.371   1.012
  508SOL    MW4 2064   0.426   0.360   1.098
  509SOL     OW 2065   0.680   0.484   1.192
  509SOL    HW2 2066   0.691   0.575   1.165
  509SOL    HW3 2067   0.598   0.457   1.151
  509SOL    MW4 2068   0.671   0.493   1.183
  510SOL     OW 2069   0.707   0.756   1.098
  510SOL    HW2 2070   0.621   0.796   1.111
  510SOL    HW3 2071   0.718   0.754   1.003
  510SOL    MW4 2072   0.697   0.761   1.087
  511SOL     OW 2073   0.487   0.881   1.185
  511SOL    HW2 2074   0.491   0.881   1.281
  511SOL    HW3 2075   0.475   0.972   1.162
  511SOL    MW4 2076   0.486   0.893   1.195
  512SOL     OW 2077   0.506   1.186   1.096
  512SOL    HW2 2078   0.597   1.204   1.120
  512SOL    HW3 2079   0.509   1.169   1.002
  512SOL    MW4 2080   0.519   1.186   1.087
  513SOL     OW 2081   0.746   1.309   1.216
  513SOL    HW2 2082   0.815   1.252   1.181
  513SOL    HW3 2083   0.742   1.382   1.153
  513SOL    MW4 2084   0.755   1.311   1.203
  514SOL     OW 2085   0.688   1.551   1.045
  514SOL    HW2 2086   0.768   1.598   1.068
  514SOL    HW3 2087   0.619   1.593   1.097
  514SOL    MW4 2088   0.690   1.563   1.055
  515SOL     OW 2089   0.471   1.687   1.179
  515SOL    HW2 2090   0.477   1.668   1.273
  515SOL    HW3 2091   0.381   1.663   1.156
  515SOL    MW4 2092   0.460   1.682   1.189
  516SOL     OW 2093   0.500   1.969   1.094
  516SOL    HW2 2094   0.497   1.880   1.129
  516SOL    HW3 2095   0.415   2.006   1.116
  516SOL    MW4 2096   0.489   1.962   1.101
  517SOL     OW 2097   0.721   2.103   1.206
  517SOL    HW2 2098   0.727   2.084   1.300
  517SOL    HW3 2099   0.640   2.058   1.178
  517SOL    MW4 2100   0.711   2.094   1.215
  518SOL     OW 2101   0.697   2.358   1.088
  518SOL    HW2 2102   0.615   2.399   1.117
  518SOL    HW3 2103   0.702   2.277   1.139
  518SOL    MW4 2104   0.687   2.353   1.099
  519SOL     OW 2105   0.462   2.463   1.227
  519SOL    HW2 2106   0.447   2.455   1.321
  519SOL    HW3 2107   0.453   2.557   1.209
  519SOL    MW4 2108   0.459   2.474   1.237
  520SOL     OW 2109   0.419   2.734   1.154
  520SOL    HW2 2110   0.351   2.794   1.184
  520SOL    HW3 2111   0.401   2.721   1.061
  520SOL    MW4 2112   0.408   2.740   1.145
  521SOL     OW 2113   0.683   2.831   1.200
  521SOL    HW2 2114   0.675   2.925   1.187
  521SOL    HW3 2115   0.596   2.796   1.179
  521SOL    MW4 2116   0.671   2.839   1.196
  522SOL     OW 2117   0.650   3.111   1.175
  522SOL    HW2 2118   0.717   3.173   1.201
  522SOL    HW3 2119   0.669   3.094   1.082
  522SOL    MW4 2120   0.662   3.117   1.166
  523SOL     OW 2121   0.425   3.261   1.227
  523SOL    HW2 2122   0.414   3.343   1.180
  523SOL    HW3 2123   0.495   3.215   1.180
  523SOL    MW4 2124   0.433   3.266   1.215
  524SOL     OW 2125   0.459   3.506   1.091
  524SOL    HW2 2126   0.527   3.544   1.147
  524SOL    HW3 2127   0.377   3.541   1.126
  524SOL    MW4 2128   0.457   3.515   1.103
  525SOL     OW 2129   0.669   3.606   1.241
  525SOL    HW2 2130   0.655   3.602   1.336
  525SOL    HW3 2131   0.668   3.699   1.220
  525SOL    MW4 2132   0.667   3.617   1.251
  526SOL     OW 2133   0.667   3.873   1.168
  526SOL    HW2 2134   0.591   3.927   1.188
  526SOL    HW3 2135   0.669   3.869   1.073
  526SOL    MW4 2136   0.657   3.880   1.158
  527SOL     OW 2137   0.420   4.002   1.215
  527SOL    HW2 2138   0.422   4.097   1.206
  527SOL    HW3 2139   0.356   3.973   1.150
  527SOL    MW4 2140   0.412   4.010   1.205
  528SOL     OW 2141   0.403   4.267   1.166
  528SOL    HW2 2142   0.483   4.304   1.202
  528SOL    HW3 2143   0.335   4.332   1.186
  528SOL    MW4 2144   0.404   4.280   1.174
  529SOL     OW 2145   0.649   4.360   1.248
  529SOL    HW2 2146   0.659   4.373   1.343
  529SOL    HW3 2147   0.734   4.329   1.219
  529SOL    MW4 2148   0.661   4.358   1.257
  530SOL     OW 2149   1.161   4.623   1.089
  530SOL    HW2 2150   1.182   4.540   1.131
  530SOL    HW3 2151   1.153   4.602   0.996
  530SOL    MW4 2152   1.163   4.610   1.082
  531SOL     OW 2153   0.922   0.096   1.190
  531SOL    HW2 2154   0.931   0.093   1.285
  531SOL    HW3 2155   0.987   0.033   1.158
  531SOL    MW4 2156   0.931   0.087   1.198
  532SOL     OW 2157   0.909   0.373   1.108
  532SOL    HW2 2158   0.902   0.282   1.139
  532SOL    HW3 2159   0.829   0.415   1.137
  532SOL    MW4 2160   0.898   0.366   1.116
  533SOL     OW 2161   1.154   0.519   1.177
  533SOL    HW2 2162   1.160   0.507   1.271
  533SOL    HW3 2163   1.078   0.468   1.150
  533SOL    MW4 2164   1.145   0.511   1.186
  534SOL     OW 2165   1.106   0.776   1.092
  534SOL    HW2 2166   1.024   0.803   1.135
  534SOL    HW3 2167   1.125   0.690   1.130
  534SOL    MW4 2168   1.097   0.768   1.103
  535SOL     OW 2169   0.898   0.903   1.258
  535SOL    HW2 2170   0.923   0.979   1.205
  535SOL    HW3 2171   0.820   0.868   1.214
  535SOL    MW4 2172   0.891   0.909   1.245
  536SOL     OW 2173   0.932   1.128   1.103
  536SOL    HW2 2174   1.005   1.178   1.139
  536SOL    HW3 2175   0.958   1.110   1.013
  536SOL    MW4 2176   0.945   1.132   1.096
  537SOL     OW 2177   1.158   1.276   1.178
  537SOL    HW2 2178   1.173   1.299   1.269
  537SOL    HW3 2179   1.243   1.247   1.145
  537SOL    MW4 2180   1.171   1.275   1.186
  538SOL     OW 2181   1.166   1.534   1.056
  538SOL    HW2 2182   1.143   1.444   1.081
  538SOL    HW3 2183   1.176   1.531   0.961
  538SOL    MW4 2184   1.164   1.522   1.047
  539SOL     OW 2185   0.943   1.636   1.192
  539SOL    HW2 2186   0.931   1.728   1.169
  539SOL    HW3 2187   1.023   1.610   1.145
  539SOL    MW4 2188   0.952   1.645   1.182
  540SOL     OW 2189   0.890   1.914   1.117
  540SOL    HW2 2190   0.974   1.950   1.144
  540SOL    HW3 2191   0.825   1.978   1.146
  540SOL    MW4 2192   0.892   1.927   1.124
  541SOL     OW 2193   1.140   2.034   1.206
  541SOL    HW2 2194   1.132   2.047   1.300
  541SOL    HW3 2195   1.133   2.122   1.169
  541SOL    MW4 2196   1.138   2.048   1.213
  542SOL     OW 2197   1.110   2.299   1.127
  542SOL    HW2 2198   1.191   2.350   1.126
  542SOL    HW3 2199   1.043   2.362   1.152
  542SOL    MW4 2200   1.112   2.314   1.131
  543SOL     OW 2201   0.920   2.470   1.214
  543SOL    HW2 2202   0.929   2.445   1.306
  543SOL    HW3 2203   0.832   2.440   1.190
  543SOL    MW4 2204   0.909   2.463   1.223
  544SOL     OW 2205   0.905   2.726   1.103
  544SOL    HW2 2206   0.925   2.644   1.147
  544SOL    HW3 2207   0.821   2.753   1.139
  544SOL    MW4 2208   0.897   2.719   1.113
  545SOL     OW 2209   1.136   2.840   1.210
  545SOL    HW2 2210   1.133   2.832   1.306
  545SOL    HW3 2211   1.056   2.797   1.180
  545SOL    MW4 2212   1.125   2.834   1.219
  546SOL     OW 2213   1.072   3.098   1.140
  546SOL    HW2 2214   1.088   3.006   1.159
  546SOL    HW3 2215   1.076   3.105   1.045
  546SOL    MW4 2216   1.075   3.087   1.130
  547SOL     OW 2217   0.898   3.280   1.249
  547SOL    HW2 2218   0.915   3.369   1.218
  547SOL    HW3 2219   0.970   3.228   1.212
  547SOL    MW4 2220   0.910   3.285   1.240
  548SOL     OW 2221   0.910   3.531   1.135
  548SOL    HW2 2222   0.827   3.570   1.162
  548SOL    HW3 2223   0.893   3.496   1.047
  548SOL    MW4 2224   0.897   3.531   1.127
  549SOL     OW 2225   1.138   3.643   1.245
  549SOL    HW2 2226   1.211   3.596   1.206
  549SOL    HW3 2227   1.060   3.604   1.203
  549SOL    MW4 2228   1.137   3.631   1.234
  550SOL     OW 2229   1.109   3.900   1.122
  550SOL    HW2 2230   1.042   3.946   1.174
  550SOL    HW3 2231   1.115   3.813   1.162
  550SOL    MW4 2232   1.101   3.895   1.134
  551SOL     OW 2233   0.880   4.030   1.243
  551SOL    HW2 2234   0.887   4.031   1.338
  551SOL    HW3 2235   0.804   3.976   1.224
  551SOL    MW4 2236   0.871   4.023   1.253
  552SOL     OW 2237   0.915   4.293   1.146
  552SOL    HW2 2238   0.888   4.202   1.159
  552SOL    HW3 2239   0.898   4.310   1.053
  552SOL    MW4 2240   0.909   4.283   1.135
  553SOL     OW 2241   1.172   4.396   1.222
  553SOL    HW2 2242   1.175   4.382   1.317
  553SOL    HW3 2243   1.085   4.366   1.196
  553SOL    MW4 2244   1.161   4.390   1.231
  554SOL     OW 2245   1.559   4.580   1.160
  554SOL    HW2 2246   1.637   4.630   1.182
  554SOL    HW3 2247   1.575   4.493   1.198
  554SOL    MW4 2248   1.571   4.575   1.168
  555SOL     OW 2249   1.360   0.121   1.184
  555SOL    HW2 2250   1.423   0.049   1.176
  555SOL    HW3 2251   1.281   0.089   1.141
  555SOL    MW4 2252   1.358   0.107   1.177
  556SOL     OW 2253   1.386   0.387   1.105
  556SOL    HW2 2254   1.391   0.299   1.144
  556SOL    HW3 2255   1.314   0.430   1.151
  556SOL    MW4 2256   1.377   0.381   1.116
  557SOL     OW 2257   1.586   0.523   1.245
  557SOL    HW2 2258   1.567   0.606   1.202
  557SOL    HW3 2259   1.522   0.461   1.209
  557SOL    MW4 2260   1.575   0.526   1.235
  558SOL     OW 2261   1.561   0.766   1.129
  558SOL    HW2 2262   1.632   0.830   1.134
  558SOL    HW3 2263   1.557   0.742   1.036
  558SOL    MW4 2264   1.570   0.771   1.117
  559SOL     OW 2265   1.338   0.917   1.185
  559SOL    HW2 2266   1.414   0.860   1.173
  559SOL    HW3 2267   1.268   0.873   1.138
  559SOL    MW4 2268   1.339   0.904   1.177
  560SOL     OW 2269   1.403   1.168   1.100
  560SOL    HW2 2270   1.384   1.088   1.150
  560SOL    HW3 2271   1.415   1.137   1.010
  560SOL    MW4 2272   1.402   1.153   1.095
  561SOL     OW 2273   1.612   1.313   1.191
  561SOL    HW2 2274   1.686   1.272   1.147
  561SOL    HW3 2275   1.536   1.260   1.166
  561SOL    MW4 2276   1.612   1.301   1.182
  562SOL     OW 2277   1.599   1.551   1.066
  562SOL    HW2 2278   1.663   1.598   1.120
  562SOL    HW3 2279   1.590   1.466   1.110
  562SOL    MW4 2280   1.606   1.546   1.079
  563SOL     OW 2281   1.384   1.645   1.207
  563SOL    HW2 2282   1.456   1.598   1.164
  563SOL    HW3 2283   1.306   1.613   1.163
  563SOL    MW4 2284   1.384   1.635   1.195
  564SOL     OW 2285   1.360   1.899   1.101
  564SOL    HW2 2286   1.366   1.814   1.146
  564SOL    HW3 2287   1.281   1.939   1.136
  564SOL    MW4 2288   1.351   1.893   1.112
  565SOL     OW 2289   1.574   2.102   1.205
  565SOL    HW2 2290   1.554   2.180   1.153
  565SOL    HW3 2291   1.506   2.039   1.180
  565SOL    MW4 2292   1.562   2.104   1.195
  566SOL     OW 2293   1.531   2.355   1.065
  566SOL    HW2 2294   1.456   2.392   1.111
  566SOL    HW3 2295   1.504   2.353   0.973
  566SOL    MW4 2296   1.518   2.360   1.059
  567SOL     OW 2297   1.324   2.480   1.204
  567SOL    HW2 2298   1.341   2.473   1.298
  567SOL    HW3 2299   1.328   2.574   1.185
  567SOL    MW4 2300   1.327   2.491   1.214
  568SOL     OW 2301   1.375   2.736   1.111
  568SOL    HW2 2302   1.451   2.759   1.164
  568SOL    HW3 2303   1.303   2.787   1.148
  568SOL    MW4 2304   1.375   2.746   1.123
  569SOL     OW 2305   1.576   2.821   1.274
  569SOL    HW2 2306   1.650   2.774   1.235
  569SOL    HW3 2307   1.574   2.905   1.228
  569SOL    MW4 2308   1.586   2.826   1.263
  570SOL     OW 2309   1.546   3.061   1.141
  570SOL    HW2 2310   1.626   3.109   1.161
  570SOL    HW3 2311   1.475   3.117   1.171
  570SOL    MW4 2312   1.547   3.074   1.147
  571SOL     OW 2313   1.333   3.211   1.209
  571SOL    HW2 2314   1.333   3.214   1.304
  571SOL    HW3 2315   1.246   3.180   1.185
  571SOL    MW4 2316   1.322   3.207   1.218
  572SOL     OW 2317   1.356   3.490   1.111
  572SOL    HW2 2318   1.349   3.395   1.113
  572SOL    HW3 2319   1.368   3.512   1.019
  572SOL    MW4 2320   1.356   3.480   1.099
  573SOL     OW 2321   1.578   3.610   1.240
  573SOL    HW2 2322   1.562   3.692   1.192
  573SOL    HW3 2323   1.507   3.552   1.211
  573SOL    MW4 2324   1.566   3.613   1.230
  574SOL     OW 2325   1.577   3.871   1.108
  574SOL    HW2 2326   1.502   3.922   1.140
  574SOL    HW3 2327   1.583   3.893   1.015
  574SOL    MW4 2328   1.568   3.881   1.100
  575SOL     OW 2329   1.347   3.985   1.217
  575SOL    HW2 2330   1.343   4.072   1.177
  575SOL    HW3 2331   1.265   3.943   1.193
  575SOL    MW4 2332   1.336   3.991   1.209
  576SOL     OW 2333   1.379   4.243   1.115
  576SOL    HW2 2334   1.302   4.289   1.150
  576SOL    HW3 2335   1.375   4.259   1.020
  576SOL    MW4 2336   1.368   4.251   1.107
  577SOL     OW 2337   1.623   4.308   1.205
  577SOL    HW2 2338   1.619   4.283   1.297
  577SOL    HW3 2339   1.538   4.283   1.170
  577SOL    MW4 2340   1.611   4.301   1.212
  578SOL     OW 2341   1.997   4.653   1.067
  578SOL    HW2 2342   2.007   4.565   1.101
  578SOL    HW3 2343   2.008   4.644   0.972
  578SOL    MW4 2344   2.000   4.640   1.059
  579SOL     OW 2345   1.776   0.075   1.217
  579SOL    HW2 2346   1.768   0.161   1.176
  579SOL    HW3 2347   1.854   0.037   1.176
  579SOL    MW4 2348   1.786   0.081   1.206
  580SOL     OW 2349   1.771   0.344   1.145
  580SOL    HW2 2350   1.711   0.409   1.182
  580SOL    HW3 2351   1.759   0.351   1.050
  580SOL    MW4 2352   1.762   0.354   1.137
  581SOL     OW 2353   1.994   0.491   1.170
  581SOL    HW2 2354   1.991   0.501   1.265
  581SOL    HW3 2355   1.915   0.441   1.148
  581SOL    MW4 2356   1.984   0.486   1.180
  582SOL     OW 2357   2.004   0.774   1.119
  582SOL    HW2 2358   1.984   0.681   1.129
  582SOL    HW3 2359   2.030   0.783   1.027
  582SOL    MW4 2360   2.005   0.763   1.108
  583SOL     OW 2361   1.786   0.935   1.152
  583SOL    HW2 2362   1.787   0.935   1.248
  583SOL    HW3 2363   1.862   0.881   1.128
  583SOL    MW4 2364   1.796   0.928   1.161
  584SOL     OW 2365   1.830   1.201   1.080
  584SOL    HW2 2366   1.798   1.112   1.097
  584SOL    HW3 2367   1.845   1.203   0.986
  584SOL    MW4 2368   1.828   1.189   1.070
  585SOL     OW 2369   2.037   1.331   1.192
  585SOL    HW2 2370   2.113   1.278   1.165
  585SOL    HW3 2371   1.962   1.284   1.158
  585SOL    MW4 2372   2.037   1.318   1.184
  586SOL     OW 2373   2.109   1.555   1.063
  586SOL    HW2 2374   2.086   1.479   1.116
  586SOL    HW3 2375   2.067   1.539   0.979
  586SOL    MW4 2376   2.101   1.543   1.059
  587SOL     OW 2377   1.834   1.680   1.203
  587SOL    HW2 2378   1.815   1.770   1.178
  587SOL    HW3 2379   1.916   1.660   1.157
  587SOL    MW4 2380   1.842   1.689   1.194
  588SOL     OW 2381   1.779   1.943   1.118
  588SOL    HW2 2382   1.709   1.999   1.153
  588SOL    HW3 2383   1.756   1.930   1.026
  588SOL    MW4 2384   1.766   1.949   1.111
  589SOL     OW 2385   2.007   2.087   1.213
  589SOL    HW2 2386   2.000   2.093   1.308
  589SOL    HW3 2387   1.928   2.041   1.186
  589SOL    MW4 2388   1.996   2.082   1.222
  590SOL     OW 2389   1.997   2.325   1.064
  590SOL    HW2 2390   2.071   2.378   1.092
  590SOL    HW3 2391   2.008   2.241   1.109
  590SOL    MW4 2392   2.008   2.321   1.074
  591SOL     OW 2393   1.780   2.423   1.203
  591SOL    HW2 2394   1.847   2.388   1.145
  591SOL    HW3 2395   1.698   2.404   1.158
  591SOL    MW4 2396   1.778   2.416   1.189
  592SOL     OW 2397   1.790   2.695   1.145
  592SOL    HW2 2398   1.785   2.601   1.165
  592SOL    HW3 2399   1.777   2.699   1.050
  592SOL    MW4 2400   1.788   2.683   1.135
  593SOL     OW 2401   2.043   2.818   1.179
  593SOL    HW2 2402   2.032   2.912   1.166
  593SOL    HW3 2403   1.955   2.782   1.170
  593SOL    MW4 2404   2.030   2.826   1.176
  594SOL     OW 2405   2.003   3.070   1.100
  594SOL    HW2 2406   1.931   3.124   1.133
  594SOL    HW3 2407   2.003   3.086   1.006
  594SOL    MW4 2408   1.994   3.079   1.092
  595SOL     OW 2409   1.798   3.226   1.187
  595SOL    HW2 2410   1.785   3.237   1.281
  595SOL    HW3 2411   1.785   3.313   1.151
  595SOL    MW4 2412   1.794   3.239   1.195
  596SOL     OW 2413   1.799   3.488   1.087
  596SOL    HW2 2414   1.889   3.520   1.098
  596SOL    HW3 2415   1.746   3.547   1.141
  596SOL    MW4 2416   1.804   3.500   1.096
  597SOL     OW 2417   2.046   3.607   1.162
  597SOL    HW2 2418   2.040   3.602   1.257
  597SOL    HW3 2419   2.136   3.581   1.143
  597SOL    MW4 2420   2.057   3.603   1.172
  598SOL     OW 2421   2.087   3.861   1.087
  598SOL    HW2 2422   2.003   3.897   1.117
  598SOL    HW3 2423   2.085   3.770   1.116
  598SOL    MW4 2424   2.076   3.854   1.095
  599SOL     OW 2425   1.840   3.979   1.165
  599SOL    HW2 2426   1.845   3.985   1.261
  599SOL    HW3 2427   1.749   3.957   1.146
  599SOL    MW4 2428   1.829   3.977   1.175
  600SOL     OW 2429   1.865   4.241   1.079
  600SOL    HW2 2430   1.866   4.147   1.098
  600SOL    HW3 2431   1.780   4.271   1.113
  600SOL    MW4 2432   1.854   4.232   1.086
  601SOL     OW 2433   2.036   4.418   1.178
  601SOL    HW2 2434   2.036   4.416   1.274
  601SOL    HW3 2435   1.965   4.359   1.153
  601SOL    MW4 2436   2.026   4.410   1.188
  602SOL     OW 2437   2.462   4.645   1.100
  602SOL    HW2 2438   2.531   4.676   1.159
  602SOL    HW3 2439   2.381   4.677   1.140
  602SOL    MW4 2440   2.461   4.653   1.113
  603SOL     OW 2441   2.221   0.088   1.191
  603SOL    HW2 2442   2.221   0.183   1.179
  603SOL    HW3 2443   2.143   0.057   1.144
  603SOL    MW4 2444   2.211   0.096   1.184
  604SOL     OW 2445   2.241   0.353   1.124
  604SOL    HW2 2446   2.155   0.396   1.126
  604SOL    HW3 2447   2.267   0.355   1.032
  604SOL    MW4 2448   2.233   0.359   1.112
  605SOL     OW 2449   2.453   0.507   1.219
  605SOL    HW2 2450   2.472   0.510   1.313
  605SOL    HW3 2451   2.372   0.457   1.212
  605SOL    MW4 2452   2.445   0.501   1.230
  606SOL     OW 2453   2.455   0.765   1.150
  606SOL    HW2 2454   2.449   0.670   1.149
  606SOL    HW3 2455   2.494   0.788   1.065
  606SOL    MW4 2456   2.460   0.755   1.139
  607SOL     OW 2457   2.229   0.911   1.210
  607SOL    HW2 2458   2.299   0.846   1.199
  607SOL    HW3 2459   2.148   0.864   1.190
  607SOL    MW4 2460   2.228   0.896   1.206
  608SOL     OW 2461   2.240   1.182   1.120
  608SOL    HW2 2462   2.326   1.208   1.154
  608SOL    HW3 2463   2.232   1.090   1.144
  608SOL    MW4 2464   2.250   1.173   1.128
  609SOL     OW 2465   2.465   1.296   1.204
  609SOL    HW2 2466   2.537   1.234   1.190
  609SOL    HW3 2467   2.473   1.359   1.133
  609SOL    MW4 2468   2.476   1.296   1.193
  610SOL     OW 2469   2.491   1.532   1.041
  610SOL    HW2 2470   2.435   1.578   1.105
  610SOL    HW3 2471   2.452   1.554   0.956
  610SOL    MW4 2472   2.478   1.541   1.039
  611SOL     OW 2473   2.311   1.687   1.209
  611SOL    HW2 2474   2.301   1.781   1.194
  611SOL    HW3 2475   2.249   1.646   1.149
  611SOL    MW4 2476   2.302   1.694   1.199
  612SOL     OW 2477   2.241   1.951   1.115
  612SOL    HW2 2478   2.164   1.994   1.153
  612SOL    HW3 2479   2.227   1.955   1.020
  612SOL    MW4 2480   2.229   1.957   1.107
  613SOL     OW 2481   2.468   2.046   1.212
  613SOL    HW2 2482   2.538   2.012   1.157
  613SOL    HW3 2483   2.388   2.006   1.177
  613SOL    MW4 2484   2.466   2.036   1.200
  614SOL     OW 2485   2.476   2.324   1.140
  614SOL    HW2 2486   2.469   2.231   1.158
  614SOL    HW3 2487   2.467   2.331   1.045
  614SOL    MW4 2488   2.474   2.313   1.130
  615SOL     OW 2489   2.233   2.441   1.181
  615SOL    HW2 2490   2.220   2.444   1.276
  615SOL    HW3 2491   2.320   2.402   1.170
  615SOL    MW4 2492   2.242   2.436   1.192
  616SOL     OW 2493   2.261   2.692   1.049
  616SOL    HW2 2494   2.261   2.604   1.087
  616SOL    HW3 2495   2.192   2.738   1.096
  616SOL    MW4 2496   2.252   2.686   1.060
  617SOL     OW 2497   2.480   2.839   1.154
  617SOL    HW2 2498   2.458   2.832   1.247
  617SOL    HW3 2499   2.416   2.784   1.110
  617SOL    MW4 2500   2.469   2.831   1.161
  618SOL     OW 2501   2.488   3.115   1.071
  618SOL    HW2 2502   2.403   3.152   1.098
  618SOL    HW3 2503   2.487   3.025   1.105
  618SOL    MW4 2504   2.476   3.108   1.079
  619SOL     OW 2505   2.227   3.202   1.171
  619SOL    HW2 2506   2.206   3.292   1.146
  619SOL    HW3 2507   2.147   3.152   1.151
  619SOL    MW4 2508   2.214   3.207   1.165
  620SOL     OW 2509   2.285   3.506   1.038
  620SOL    HW2 2510   2.359   3.550   1.079
  620SOL    HW3 2511   2.297   3.520   0.944
  620SOL    MW4 2512   2.296   3.513   1.031
  621SOL     OW 2513   2.546   3.628   1.173
  621SOL    HW2 2514   2.528   3.626   1.267
  621SOL    HW3 2515   2.551   3.721   1.152
  621SOL    MW4 2516   2.544   3.640   1.182
  622SOL     OW 2517   2.549   3.885   1.097
  622SOL    HW2 2518   2.465   3.913   1.134
  622SOL    HW3 2519   2.534   3.881   1.003
  622SOL    MW4 2520   2.536   3.888   1.090
  623SOL     OW 2521   2.310   4.003   1.165
  623SOL    HW2 2522   2.286   4.093   1.141
  623SOL    HW3 2523   2.242   3.949   1.125
  623SOL    MW4 2524   2.298   4.008   1.157
  624SOL     OW 2525   2.249   4.267   1.078
  624SOL    HW2 2526   2.166   4.305   1.105
  624SOL    HW3 2527   2.250   4.277   0.983
  624SOL    MW4 2528   2.238   4.273   1.069
  625SOL     OW 2529   2.484   4.376   1.164
  625SOL    HW2 2530   2.400   4.337   1.139
  625SOL    HW3 2531   2.477   4.468   1.137
  625SOL    MW4 2532   2.472   4.383   1.157
  626SOL     OW 2533   2.909   4.650   1.127
  626SOL    HW2 2534   2.898   4.560   1.159
  626SOL    HW3 2535   2.893   4.644   1.033
  626SOL    MW4 2536   2.905   4.637   1.119
  627SOL     OW 2537   2.672   0.092   1.219
  627SOL    HW2 2538   2.665   0.084   1.315
  627SOL    HW3 2539   2.760   0.060   1.199
  627SOL    MW4 2540   2.683   0.086   1.229
  628SOL     OW 2541   2.667   0.356   1.110
  628SOL    HW2 2542   2.644   0.269   1.142
  628SOL    HW3 2543   2.596   0.413   1.141
  628SOL    MW4 2544   2.654   0.352   1.118
  629SOL     OW 2545   2.907   0.449   1.253
  629SOL    HW2 2546   2.909   0.543   1.239
  629SOL    HW3 2547   2.842   0.416   1.192
  629SOL    MW4 2548   2.899   0.457   1.243
  630SOL     OW 2549   2.924   0.719   1.153
  630SOL    HW2 2550   3.009   0.756   1.176
  630SOL    HW3 2551   2.861   0.765   1.207
  630SOL    MW4 2552   2.927   0.730   1.163
  631SOL     OW 2553   2.684   0.865   1.241
  631SOL    HW2 2554   2.672   0.956   1.213
  631SOL    HW3 2555   2.600   0.823   1.220
  631SOL    MW4 2556   2.671   0.871   1.235
  632SOL     OW 2557   2.668   1.129   1.139
  632SOL    HW2 2558   2.734   1.176   1.191
  632SOL    HW3 2559   2.703   1.130   1.050
  632SOL    MW4 2560   2.681   1.135   1.134
  633SOL     OW 2561   2.898   1.216   1.257
  633SOL    HW2 2562   2.921   1.213   1.350
  633SOL    HW3 2563   2.920   1.305   1.230
  633SOL    MW4 2564   2.904   1.228   1.266
  634SOL     OW 2565   2.948   1.476   1.149
  634SOL    HW2 2566   3.016   1.534   1.182
  634SOL    HW3 2567   2.950   1.487   1.054
  634SOL    MW4 2568   2.957   1.485   1.141
  635SOL     OW 2569   2.722   1.642   1.151
  635SOL    HW2 2570   2.795   1.581   1.141
  635SOL    HW3 2571   2.649   1.599   1.107
  635SOL    MW4 2572   2.722   1.628   1.144
  636SOL     OW 2573   2.680   1.917   1.061
  636SOL    HW2 2574   2.740   1.970   1.114
  636SOL    HW3 2575   2.703   1.827   1.082
  636SOL    MW4 2576   2.691   1.912   1.071
  637SOL     OW 2577   2.870   2.056   1.214
  637SOL    HW2 2578   2.888   2.049   1.307
  637SOL    HW3 2579   2.890   2.147   1.192
  637SOL    MW4 2580   2.875   2.067   1.223
  638SOL     OW 2581   2.921   2.306   1.080
  638SOL    HW2 2582   2.995   2.353   1.117
  638SOL    HW3 2583   2.844   2.350   1.117
  638SOL    MW4 2584   2.920   2.318   1.090
  639SOL     OW 2585   2.712   2.452   1.204
  639SOL    HW2 2586   2.729   2.452   1.298
  639SOL    HW3 2587   2.629   2.405   1.194
  639SOL    MW4 2588   2.703   2.445   1.215
  640SOL     OW 2589   2.744   2.721   1.091
  640SOL    HW2 2590   2.753   2.637   1.137
  640SOL    HW3 2591   2.662   2.758   1.125
  640SOL    MW4 2592   2.734   2.715   1.101
  641SOL     OW 2593   2.956   2.863   1.183
  641SOL    HW2 2594   2.929   2.858   1.275
  641SOL    HW3 2595   2.887   2.817   1.135
  641SOL    MW4 2596   2.944   2.856   1.189
  642SOL     OW 2597   2.973   3.118   1.083
  642SOL    HW2 2598   2.982   3.029   1.115
  642SOL    HW3 2599   2.967   3.110   0.988
  642SOL    MW4 2600   2.973   3.105   1.075
  643SOL     OW 2601   2.704   3.248   1.181
  643SOL    HW2 2602   2.781   3.194   1.164
  643SOL    HW3 2603   2.634   3.206   1.132
  643SOL    MW4 2604   2.705   3.235   1.172
  644SOL     OW 2605   2.759   3.501   1.065
  644SOL    HW2 2606   2.751   3.413   1.101
  644SOL    HW3 2607   2.687   3.550   1.106
  644SOL    MW4 2608   2.748   3.496   1.075
  645SOL     OW 2609   2.986   3.612   1.150
  645SOL    HW2 2610   3.064   3.575   1.107
  645SOL    HW3 2611   2.913   3.572   1.103
  645SOL    MW4 2612   2.987   3.602   1.138
  646SOL     OW 2613   3.009   3.904   1.105
  646SOL    HW2 2614   3.092   3.937   1.140
  646SOL    HW3 2615   3.002   3.815   1.140
  646SOL    MW4 2616   3.019   3.897   1.114
  647SOL     OW 2617   2.773   4.042   1.164
  647SOL    HW2 2618   2.856   3.994   1.156
  647SOL    HW3 2619   2.707   3.981   1.130
  647SOL    MW4 2620   2.775   4.028   1.158
  648SOL     OW 2621   2.679   4.249   0.988
  648SOL    HW2 2622   2.697   4.158   1.012
  648SOL    HW3 2623   2.626   4.283   1.061
  648SOL    MW4 2624   2.674   4.241   1.001
  649SOL     OW 2625   2.896   4.351   1.185
  649SOL    HW2 2626   2.970   4.291   1.176
  649SOL    HW3 2627   2.822   4.306   1.146
  649SOL    MW4 2628   2.896   4.337   1.179
  650SOL     OW 2629   3.412   4.637   1.107
  650SOL    HW2 2630   3.479   4.693   1.146
  650SOL    HW3 2631   3.330   4.668   1.147
  650SOL    MW4 2632   3.410   4.649   1.117
  651SOL     OW 2633   3.164   0.098   1.207
  651SOL    HW2 2634   3.165   0.080   1.301
  651SOL    HW3 2635   3.079   0.067   1.177
  651SOL    MW4 2636   3.153   0.092   1.216
  652SOL     OW 2637   3.143   0.374   1.127
  652SOL    HW2 2638   3.172   0.291   1.166
  652SOL    HW3 2639   3.064   0.397   1.176
  652SOL    MW4 2640   3.137   0.366   1.139
  653SOL     OW 2641   3.380   0.480   1.210
  653SOL    HW2 2642   3.370   0.568   1.174
  653SOL    HW3 2643   3.296   0.437   1.192
  653SOL    MW4 2644   3.368   0.486   1.203
  654SOL     OW 2645   3.423   0.745   1.148
  654SOL    HW2 2646   3.344   0.779   1.189
  654SOL    HW3 2647   3.410   0.757   1.054
  654SOL    MW4 2648   3.411   0.751   1.141
  655SOL     OW 2649   3.169   0.851   1.220
  655SOL    HW2 2650   3.168   0.876   1.312
  655SOL    HW3 2651   3.145   0.931   1.173
  655SOL    MW4 2652   3.166   0.865   1.226
  656SOL     OW 2653   3.139   1.097   1.136
  656SOL    HW2 2654   3.204   1.154   1.176
  656SOL    HW3 2655   3.055   1.136   1.159
  656SOL    MW4 2656   3.136   1.109   1.144
  657SOL     OW 2657   3.307   1.259   1.239
  657SOL    HW2 2658   3.332   1.254   1.331
  657SOL    HW3 2659   3.314   1.351   1.217
  657SOL    MW4 2660   3.311   1.270   1.248
  658SOL     OW 2661   3.352   1.507   1.144
  658SOL    HW2 2662   3.432   1.557   1.160
  658SOL    HW3 2663   3.282   1.566   1.171
  658SOL    MW4 2664   3.353   1.522   1.150
  659SOL     OW 2665   3.146   1.681   1.218
  659SOL    HW2 2666   3.140   1.697   1.312
  659SOL    HW3 2667   3.130   1.767   1.178
  659SOL    MW4 2668   3.143   1.695   1.225
  660SOL     OW 2669   3.108   1.945   1.081
  660SOL    HW2 2670   3.169   1.991   1.139
  660SOL    HW3 2671   3.022   1.980   1.105
  660SOL    MW4 2672   3.105   1.956   1.092
  661SOL     OW 2673   3.339   2.065   1.192
  661SOL    HW2 2674   3.416   2.014   1.166
  661SOL    HW3 2675   3.356   2.152   1.157
  661SOL    MW4 2676   3.352   2.070   1.184
  662SOL     OW 2677   3.336   2.312   1.051
  662SOL    HW2 2678   3.410   2.366   1.076
  662SOL    HW3 2679   3.260   2.352   1.093
  662SOL    MW4 2680   3.336   2.324   1.060
  663SOL     OW 2681   3.139   2.410   1.208
  663SOL    HW2 2682   3.146   2.397   1.303
  663SOL    HW3 2683   3.153   2.504   1.196
  663SOL    MW4 2684   3.142   2.421   1.219
  664SOL     OW 2685   3.151   2.675   1.125
  664SOL    HW2 2686   3.079   2.730   1.158
  664SOL    HW3 2687   3.149   2.687   1.030
  664SOL    MW4 2688   3.141   2.684   1.117
  665SOL     OW 2689   3.354   2.819   1.217
  665SOL    HW2 2690   3.351   2.901   1.169
  665SOL    HW3 2691   3.283   2.766   1.179
  665SOL    MW4 2692   3.344   2.823   1.205
  666SOL     OW 2693   3.366   3.070   1.097
  666SOL    HW2 2694   3.446   3.095   1.142
  666SOL    HW3 2695   3.299   3.128   1.134
  666SOL    MW4 2696   3.368   3.081   1.108
  667SOL     OW 2697   3.184   3.245   1.208
  667SOL    HW2 2698   3.199   3.327   1.161
  667SOL    HW3 2699   3.111   3.204   1.162
  667SOL    MW4 2700   3.177   3.250   1.195
  668SOL     OW 2701   3.220   3.490   1.076
  668SOL    HW2 2702   3.295   3.539   1.111
  668SOL    HW3 2703   3.237   3.485   0.981
  668SOL    MW4 2704   3.232   3.496   1.068
  669SOL     OW 2705   3.422   3.621   1.208
  669SOL    HW2 2706   3.389   3.630   1.298
  669SOL    HW3 2707   3.495   3.560   1.215
  669SOL    MW4 2708   3.427   3.614   1.221
  670SOL     OW 2709   3.393   3.843   1.052
  670SOL    HW2 2710   3.328   3.888   1.106
  670SOL    HW3 2711   3.418   3.765   1.102
  670SOL    MW4 2712   3.388   3.839   1.065
  671SOL     OW 2713   3.234   3.978   1.243
  671SOL    HW2 2714   3.207   3.970   1.335
  671SOL    HW3 2715   3.212   4.068   1.220
  671SOL    MW4 2716   3.228   3.989   1.252
  672SOL     OW 2717   3.133   4.218   1.145
  672SOL    HW2 2718   3.196   4.284   1.173
  672SOL    HW3 2719   3.136   4.221   1.050
  672SOL    MW4 2720   3.142   4.227   1.136
  673SOL     OW 2721   3.364   4.370   1.207
  673SOL    HW2 2722   3.452   4.333   1.209
  673SOL    HW3 2723   3.376   4.462   1.183
  673SOL    MW4 2724   3.377   4.377   1.204
  674SOL     OW 2725   3.804   4.667   1.100
  674SOL    HW2 2726   3.799   4.576   1.129
  674SOL    HW3 2727   3.809   4.661   1.004
  674SOL    MW4 2728   3.804   4.654   1.091
  675SOL     OW 2729   3.614   0.130   1.241
  675SOL    HW2 2730   3.637   0.215   1.204
  675SOL    HW3 2731   3.676   0.069   1.201
  675SOL    MW4 2732   3.625   0.133   1.231
  676SOL     OW 2733   3.634   0.383   1.105
  676SOL    HW2 2734   3.690   0.445   1.151
  676SOL    HW3 2735   3.546   0.403   1.135
  676SOL    MW4 2736   3.630   0.394   1.115
  677SOL     OW 2737   3.845   0.508   1.239
  677SOL    HW2 2738   3.930   0.474   1.211
  677SOL    HW3 2739   3.852   0.602   1.224
  677SOL    MW4 2740   3.857   0.516   1.233
  678SOL     OW 2741   3.867   0.774   1.164
  678SOL    HW2 2742   3.951   0.810   1.193
  678SOL    HW3 2743   3.802   0.837   1.195
  678SOL    MW4 2744   3.869   0.787   1.172
  679SOL     OW 2745   3.631   0.907   1.232
  679SOL    HW2 2746   3.613   0.997   1.205
  679SOL    HW3 2747   3.563   0.854   1.192
  679SOL    MW4 2748   3.620   0.912   1.223
  680SOL     OW 2749   3.585   1.159   1.130
  680SOL    HW2 2750   3.660   1.208   1.163
  680SOL    HW3 2751   3.509   1.200   1.172
  680SOL    MW4 2752   3.585   1.171   1.140
  681SOL     OW 2753   3.823   1.279   1.216
  681SOL    HW2 2754   3.838   1.279   1.310
  681SOL    HW3 2755   3.839   1.370   1.189
  681SOL    MW4 2756   3.827   1.291   1.225
  682SOL     OW 2757   3.821   1.525   1.089
  682SOL    HW2 2758   3.897   1.576   1.116
  682SOL    HW3 2759   3.820   1.533   0.993
  682SOL    MW4 2760   3.830   1.532   1.080
  683SOL     OW 2761   3.584   1.635   1.194
  683SOL    HW2 2762   3.602   1.726   1.170
  683SOL    HW3 2763   3.657   1.586   1.157
  683SOL    MW4 2764   3.596   1.641   1.186
  684SOL     OW 2765   3.574   1.927   1.138
  684SOL    HW2 2766   3.654   1.976   1.154
  684SOL    HW3 2767   3.554   1.941   1.046
  684SOL    MW4 2768   3.582   1.935   1.128
  685SOL     OW 2769   3.819   2.060   1.205
  685SOL    HW2 2770   3.824   2.045   1.299
  685SOL    HW3 2771   3.893   2.010   1.169
  685SOL    MW4 2772   3.830   2.051   1.212
  686SOL     OW 2773   3.783   2.320   1.129
  686SOL    HW2 2774   3.871   2.347   1.156
  686SOL    HW3 2775   3.774   2.230   1.161
  686SOL    MW4 2776   3.794   2.312   1.137
  687SOL     OW 2777   3.533   2.427   1.198
  687SOL    HW2 2778   3.548   2.441   1.291
  687SOL    HW3 2779   3.618   2.398   1.164
  687SOL    MW4 2780   3.546   2.425   1.206
  688SOL     OW 2781   3.575   2.672   1.112
  688SOL    HW2 2782   3.548   2.586   1.144
  688SOL    HW3 2783   3.507   2.731   1.143
  688SOL    MW4 2784   3.563   2.668   1.120
  689SOL     OW 2785   3.821   2.758   1.222
  689SOL    HW2 2786   3.830   2.755   1.318
  689SOL    HW3 2787   3.735   2.720   1.205
  689SOL    MW4 2788   3.811   2.752   1.233
  690SOL     OW 2789   3.815   3.052   1.138
  690SOL    HW2 2790   3.818   2.962   1.171
  690SOL    HW3 2791   3.754   3.048   1.064
  690SOL    MW4 2792   3.807   3.040   1.132
  691SOL     OW 2793   3.577   3.176   1.231
  691SOL    HW2 2794   3.593   3.266   1.204
  691SOL    HW3 2795   3.658   3.130   1.209
  691SOL    MW4 2796   3.590   3.182   1.225
  692SOL     OW 2797   3.633   3.447   1.160
  692SOL    HW2 2798   3.706   3.496   1.197
  692SOL    HW3 2799   3.641   3.458   1.066
  692SOL    MW4 2800   3.644   3.455   1.153
  693SOL     OW 2801   3.867   3.587   1.230
  693SOL    HW2 2802   3.878   3.588   1.325
  693SOL    HW3 2803   3.854   3.679   1.207
  693SOL    MW4 2804   3.867   3.599   1.240
  694SOL     OW 2805   3.839   3.857   1.150
  694SOL    HW2 2806   3.761   3.900   1.185
  694SOL    HW3 2807   3.824   3.854   1.055
  694SOL    MW4 2808   3.827   3.862   1.142
  695SOL     OW 2809   3.603   3.981   1.226
  695SOL    HW2 2810   3.592   3.984   1.321
  695SOL    HW3 2811   3.518   3.953   1.194
  695SOL    MW4 2812   3.590   3.978   1.235
  696SOL     OW 2813   3.613   4.247   1.140
  696SOL    HW2 2814   3.609   4.157   1.171
  696SOL    HW3 2815   3.606   4.239   1.044
  696SOL    MW4 2816   3.612   4.234   1.131
  697SOL     OW 2817   3.804   4.423   1.220
  697SOL    HW2 2818   3.808   4.419   1.316
  697SOL    HW3 2819   3.737   4.358   1.196
  697SOL    MW4 2820   3.795   4.413   1.230
  698SOL     OW 2821   4.272   4.614   1.101
  698SOL    HW2 2822   4.268   4.537   1.158
  698SOL    HW3 2823   4.199   4.669   1.129
  698SOL    MW4 2824   4.262   4.611   1.112
  699SOL     OW 2825   4.064   0.119   1.188
  699SOL    HW2 2826   4.057   0.134   1.283
  699SOL    HW3 2827   3.979   0.085   1.163
  699SOL    MW4 2828   4.052   0.116   1.198
  700SOL     OW 2829   4.067   0.390   1.139
  700SOL    HW2 2830   4.056   0.294   1.138
  700SOL    HW3 2831   4.054   0.416   1.048
  700SOL    MW4 2832   4.064   0.381   1.127
  701SOL     OW 2833   4.297   0.501   1.225
  701SOL    HW2 2834   4.296   0.495   1.321
  701SOL    HW3 2835   4.226   0.443   1.196
  701SOL    MW4 2836   4.287   0.493   1.234
  702SOL     OW 2837   4.277   0.762   1.132
  702SOL    HW2 2838   4.289   0.674   1.167
  702SOL    HW3 2839   4.275   0.750   1.037
  702SOL    MW4 2840   4.278   0.749   1.124
  703SOL     OW 2841   4.085   0.915   1.256
  703SOL    HW2 2842   4.093   0.906   1.351
  703SOL    HW3 2843   4.145   0.849   1.220
  703SOL    MW4 2844   4.094   0.905   1.264
  704SOL     OW 2845   4.079   1.158   1.134
  704SOL    HW2 2846   4.088   1.077   1.184
  704SOL    HW3 2847   3.993   1.192   1.158
  704SOL    MW4 2848   4.069   1.152   1.144
  705SOL     OW 2849   4.310   1.273   1.235
  705SOL    HW2 2850   4.303   1.276   1.330
  705SOL    HW3 2851   4.228   1.231   1.206
  705SOL    MW4 2852   4.298   1.268   1.243
  706SOL     OW 2853   4.314   1.556   1.138
  706SOL    HW2 2854   4.313   1.468   1.177
  706SOL    HW3 2855   4.402   1.589   1.155
  706SOL    MW4 2856   4.326   1.549   1.146
  707SOL     OW 2857   4.069   1.656   1.175
  707SOL    HW2 2858   4.062   1.675   1.269
  707SOL    HW3 2859   4.159   1.624   1.164
  707SOL    MW4 2860   4.080   1.654   1.186
  708SOL     OW 2861   4.023   1.924   1.080
  708SOL    HW2 2862   4.044   1.832   1.098
  708SOL    HW3 2863   3.994   1.923   0.989
  708SOL    MW4 2864   4.022   1.912   1.070
  709SOL     OW 2865   4.269   2.044   1.192
  709SOL    HW2 2866   4.265   2.134   1.159
  709SOL    HW3 2867   4.180   2.010   1.180
  709SOL    MW4 2868   4.257   2.051   1.186
  710SOL     OW 2869   4.265   2.308   1.109
  710SOL    HW2 2870   4.179   2.336   1.138
  710SOL    HW3 2871   4.257   2.301   1.014
  710SOL    MW4 2872   4.253   2.311   1.100
  711SOL     OW 2873   4.019   2.421   1.205
  711SOL    HW2 2874   4.056   2.427   1.294
  711SOL    HW3 2875   4.031   2.509   1.169
  711SOL    MW4 2876   4.026   2.433   1.212
  712SOL     OW 2877   4.071   2.680   1.106
  712SOL    HW2 2878   3.985   2.706   1.140
  712SOL    HW3 2879   4.058   2.675   1.011
  712SOL    MW4 2880   4.058   2.683   1.098
  713SOL     OW 2881   4.253   2.855   1.200
  713SOL    HW2 2882   4.267   2.921   1.132
  713SOL    HW3 2883   4.186   2.798   1.165
  713SOL    MW4 2884   4.246   2.856   1.187
  714SOL     OW 2885   4.274   3.095   1.056
  714SOL    HW2 2886   4.208   3.142   1.106
  714SOL    HW3 2887   4.251   3.111   0.965
  714SOL    MW4 2888   4.262   3.103   1.051
  715SOL     OW 2889   4.056   3.203   1.189
  715SOL    HW2 2890   4.043   3.218   1.283
  715SOL    HW3 2891   3.977   3.157   1.161
  715SOL    MW4 2892   4.044   3.199   1.198
  716SOL     OW 2893   4.053   3.461   1.071
  716SOL    HW2 2894   4.055   3.373   1.109
  716SOL    HW3 2895   3.992   3.510   1.127
  716SOL    MW4 2896   4.045   3.456   1.084
  717SOL     OW 2897   4.261   3.604   1.217
  717SOL    HW2 2898   4.206   3.559   1.152
  717SOL    HW3 2899   4.350   3.593   1.184
  717SOL    MW4 2900   4.265   3.597   1.204
  718SOL     OW 2901   4.243   3.874   1.154
  718SOL    HW2 2902   4.167   3.911   1.200
  718SOL    HW3 2903   4.242   3.781   1.177
  718SOL    MW4 2904   4.233   3.867   1.163
  719SOL     OW 2905   4.033   4.000   1.289
  719SOL    HW2 2906   4.022   4.087   1.251
  719SOL    HW3 2907   3.967   3.946   1.245
  719SOL    MW4 2908   4.023   4.004   1.278
  720SOL     OW 2909   4.022   4.254   1.169
  720SOL    HW2 2910   3.948   4.307   1.199
  720SOL    HW3 2911   4.001   4.235   1.077
  720SOL    MW4 2912   4.009   4.259   1.161
  721SOL     OW 2913   4.265   4.380   1.270
  721SOL    HW2 2914   4.181   4.342   1.246
  721SOL    HW3 2915   4.327   4.343   1.207
  721SOL    MW4 2916   4.262   4.370   1.259
  722SOL     OW 2917   0.227   4.657   1.638
  722SOL    HW2 2918   0.302   4.689   1.589
  722SOL    HW3 2919   0.151   4.695   1.594
  722SOL    MW4 2920   0.227   4.666   1.626
  723SOL     OW 2921   0.024   0.097   1.495
  723SOL    HW2 2922  -0.069   0.078   1.511
  723SOL    HW3 2923   0.034   0.087   1.400
  723SOL    MW4 2924   0.013   0.093   1.484
  724SOL     OW 2925   0.043   0.362   1.620
  724SOL    HW2 2926   0.032   0.356   1.715
  724SOL    HW3 2927   0.055   0.272   1.591
  724SOL    MW4 2928   0.043   0.350   1.629
  725SOL     OW 2929   0.267   0.484   1.509
  725SOL    HW2 2930   0.192   0.449   1.557
  725SOL    HW3 2931   0.237   0.490   1.418
  725SOL    MW4 2932   0.253   0.481   1.503
  726SOL     OW 2933   0.283   0.781   1.584
  726SOL    HW2 2934   0.341   0.839   1.534
  726SOL    HW3 2935   0.292   0.696   1.541
  726SOL    MW4 2936   0.292   0.777   1.572
  727SOL     OW 2937   0.048   0.885   1.475
  727SOL    HW2 2938   0.046   0.971   1.517
  727SOL    HW3 2939   0.126   0.843   1.510
  727SOL    MW4 2940   0.058   0.891   1.485
  728SOL     OW 2941   0.047   1.126   1.598
  728SOL    HW2 2942   0.048   1.144   1.691
  728SOL    HW3 2943   0.111   1.187   1.560
  728SOL    MW4 2944   0.056   1.136   1.605
  729SOL     OW 2945   0.251   1.284   1.479
  729SOL    HW2 2946   0.268   1.371   1.515
  729SOL    HW3 2947   0.266   1.293   1.385
  729SOL    MW4 2948   0.255   1.297   1.472
  730SOL     OW 2949   0.276   1.528   1.581
  730SOL    HW2 2950   0.270   1.521   1.676
  730SOL    HW3 2951   0.195   1.572   1.554
  730SOL    MW4 2952   0.265   1.533   1.590
  731SOL     OW 2953   0.065   1.676   1.484
  731SOL    HW2 2954   0.080   1.768   1.506
  731SOL    HW3 2955   0.055   1.676   1.388
  731SOL    MW4 2956   0.066   1.688   1.474
  732SOL     OW 2957   0.059   1.958   1.560
  732SOL    HW2 2958   0.062   1.943   1.655
  732SOL    HW3 2959  -0.027   1.997   1.544
  732SOL    MW4 2960   0.048   1.961   1.571
  733SOL     OW 2961   0.258   2.106   1.443
  733SOL    HW2 2962   0.179   2.056   1.466
  733SOL    HW3 2963   0.265   2.097   1.348
  733SOL    MW4 2964   0.248   2.098   1.433
  734SOL     OW 2965   0.212   2.381   1.580
  734SOL    HW2 2966   0.200   2.356   1.671
  734SOL    HW3 2967   0.240   2.300   1.537
  734SOL    MW4 2968   0.214   2.367   1.586
  735SOL     OW 2969   4.474   2.498   1.475
  735SOL    HW2 2970   4.412   2.449   1.529
  735SOL    HW3 2971   4.560   2.471   1.505
  735SOL    MW4 2972   4.477   2.488   1.486
  736SOL     OW 2973   4.442   2.755   1.568
  736SOL    HW2 2974   4.364   2.798   1.535
  736SOL    HW3 2975   4.444   2.670   1.524
  736SOL    MW4 2976   4.432   2.749   1.558
  737SOL     OW 2977   0.202   2.872   1.521
  737SOL    HW2 2978   0.261   2.801   1.548
  737SOL    HW3 2979   0.114   2.840   1.545
  737SOL    MW4 2980   0.198   2.858   1.528
  738SOL     OW 2981   0.205   3.136   1.647
  738SOL    HW2 2982   0.152   3.192   1.589
  738SOL    HW3 2983   0.206   3.051   1.603
  738SOL    MW4 2984   0.198   3.132   1.633
  739SOL     OW 2985   0.035   3.233   1.458
  739SOL    HW2 2986   0.025   3.324   1.485
  739SOL    HW3 2987   0.015   3.235   1.364
  739SOL    MW4 2988   0.031   3.245   1.449
  740SOL     OW 2989   0.016   3.481   1.557
  740SOL    HW2 2990   0.002   3.485   1.652
  740SOL    HW3 2991  -0.052   3.536   1.520
  740SOL    MW4 2992   0.005   3.489   1.565
  741SOL     OW 2993   0.256   3.613   1.462
  741SOL    HW2 2994   0.248   3.684   1.525
  741SOL    HW3 2995   0.181   3.556   1.480
  741SOL    MW4 2996   0.245   3.615   1.473
  742SOL     OW 2997   0.228   3.848   1.614
  742SOL    HW2 2998   0.224   3.857   1.709
  742SOL    HW3 2999   0.304   3.900   1.588
  742SOL    MW4 3000   0.238   3.856   1.623
  743SOL     OW 3001   4.461   3.977   1.524
  743SOL    HW2 3002   4.463   4.067   1.556
  743SOL    HW3 3003   4.546   3.940   1.547
  743SOL    MW4 3004   4.472   3.984   1.531
  744SOL     OW 3005   0.006   4.263   1.589
  744SOL    HW2 3006   0.022   4.259   1.683
  744SOL    HW3 3007  -0.084   4.297   1.580
  744SOL    MW4 3008  -0.004   4.267   1.600
  745SOL     OW 3009   0.195   4.429   1.484
  745SOL    HW2 3010   0.117   4.384   1.516
  745SOL    HW3 3011   0.213   4.495   1.551
  745SOL    MW4 3012   0.187   4.431   1.497
  746SOL     OW 3013   0.697   0.002   1.636
  746SOL    HW2 3014   0.767   0.018   1.573
  746SOL    HW3 3015   0.617   0.029   1.591
  746SOL    MW4 3016   0.696   0.008   1.622
  747SOL     OW 3017   0.463   0.082   1.489
  747SOL    HW2 3018   0.463   0.168   1.530
  747SOL    HW3 3019   0.452   0.099   1.395
  747SOL    MW4 3020   0.461   0.095   1.482
  748SOL     OW 3021   0.482   0.338   1.589
  748SOL    HW2 3022   0.554   0.391   1.553
  748SOL    HW3 3023   0.403   0.388   1.569
  748SOL    MW4 3024   0.481   0.351   1.581
  749SOL     OW 3025   0.684   0.468   1.464
  749SOL    HW2 3026   0.696   0.559   1.490
  749SOL    HW3 3027   0.683   0.470   1.369
  749SOL    MW4 3028   0.686   0.480   1.455
  750SOL     OW 3029   0.727   0.730   1.566
  750SOL    HW2 3030   0.718   0.733   1.661
  750SOL    HW3 3031   0.790   0.799   1.545
  750SOL    MW4 3032   0.734   0.740   1.576
  751SOL     OW 3033   0.499   0.900   1.465
  751SOL    HW2 3034   0.496   0.987   1.505
  751SOL    HW3 3035   0.575   0.858   1.504
  751SOL    MW4 3036   0.508   0.906   1.475
  752SOL     OW 3037   0.489   1.150   1.589
  752SOL    HW2 3038   0.567   1.193   1.556
  752SOL    HW3 3039   0.416   1.199   1.553
  752SOL    MW4 3040   0.489   1.162   1.580
  753SOL     OW 3041   0.700   1.299   1.490
  753SOL    HW2 3042   0.688   1.389   1.522
  753SOL    HW3 3043   0.705   1.309   1.395
  753SOL    MW4 3044   0.699   1.312   1.482
  754SOL     OW 3045   0.691   1.555   1.593
  754SOL    HW2 3046   0.774   1.585   1.556
  754SOL    HW3 3047   0.626   1.617   1.559
  754SOL    MW4 3048   0.693   1.567   1.583
  755SOL     OW 3049   0.483   1.662   1.461
  755SOL    HW2 3050   0.472   1.754   1.485
  755SOL    HW3 3051   0.404   1.618   1.493
  755SOL    MW4 3052   0.471   1.668   1.468
  756SOL     OW 3053   0.451   1.947   1.587
  756SOL    HW2 3054   0.437   1.966   1.679
  756SOL    HW3 3055   0.382   1.995   1.541
  756SOL    MW4 3056   0.440   1.956   1.593
  757SOL     OW 3057   0.687   2.030   1.484
  757SOL    HW2 3058   0.758   1.998   1.541
  757SOL    HW3 3059   0.607   1.997   1.525
  757SOL    MW4 3060   0.686   2.021   1.497
  758SOL     OW 3061   0.668   2.288   1.591
  758SOL    HW2 3062   0.591   2.321   1.545
  758SOL    HW3 3063   0.678   2.198   1.559
  758SOL    MW4 3064   0.659   2.280   1.581
  759SOL     OW 3065   0.463   2.453   1.505
  759SOL    HW2 3066   0.469   2.547   1.523
  759SOL    HW3 3067   0.377   2.428   1.540
  759SOL    MW4 3068   0.452   2.462   1.512
  760SOL     OW 3069   0.441   2.713   1.578
  760SOL    HW2 3070   0.442   2.704   1.673
  760SOL    HW3 3071   0.527   2.747   1.556
  760SOL    MW4 3072   0.452   2.716   1.588
  761SOL     OW 3073   0.704   2.808   1.507
  761SOL    HW2 3074   0.684   2.899   1.528
  761SOL    HW3 3075   0.696   2.803   1.412
  761SOL    MW4 3076   0.701   2.819   1.498
  762SOL     OW 3077   0.699   3.078   1.590
  762SOL    HW2 3078   0.768   3.144   1.589
  762SOL    HW3 3079   0.618   3.127   1.578
  762SOL    MW4 3080   0.698   3.093   1.588
  763SOL     OW 3081   0.448   3.216   1.509
  763SOL    HW2 3082   0.363   3.197   1.549
  763SOL    HW3 3083   0.431   3.212   1.415
  763SOL    MW4 3084   0.435   3.213   1.502
  764SOL     OW 3085   0.460   3.483   1.592
  764SOL    HW2 3086   0.460   3.393   1.559
  764SOL    HW3 3087   0.390   3.527   1.544
  764SOL    MW4 3088   0.451   3.477   1.581
  765SOL     OW 3089   0.664   3.645   1.507
  765SOL    HW2 3090   0.739   3.604   1.549
  765SOL    HW3 3091   0.589   3.593   1.537
  765SOL    MW4 3092   0.664   3.633   1.517
  766SOL     OW 3093   0.673   3.905   1.581
  766SOL    HW2 3094   0.750   3.947   1.542
  766SOL    HW3 3095   0.681   3.813   1.556
  766SOL    MW4 3096   0.684   3.899   1.573
  767SOL     OW 3097   0.412   4.002   1.508
  767SOL    HW2 3098   0.499   3.970   1.532
  767SOL    HW3 3099   0.410   3.999   1.413
  767SOL    MW4 3100   0.423   3.997   1.499
  768SOL     OW 3101   0.403   4.288   1.605
  768SOL    HW2 3102   0.403   4.194   1.584
  768SOL    HW3 3103   0.346   4.327   1.539
  768SOL    MW4 3104   0.395   4.280   1.594
  769SOL     OW 3105   0.652   4.401   1.525
  769SOL    HW2 3106   0.570   4.369   1.563
  769SOL    HW3 3107   0.659   4.491   1.555
  769SOL    MW4 3108   0.642   4.408   1.534
  770SOL     OW 3109   1.125   4.617   1.614
  770SOL    HW2 3110   1.133   4.606   1.709
  770SOL    HW3 3111   1.186   4.688   1.593
  770SOL    MW4 3112   1.134   4.625   1.624
  771SOL     OW 3113   0.918   0.079   1.473
  771SOL    HW2 3114   0.915   0.169   1.508
  771SOL    HW3 3115   0.986   0.036   1.525
  771SOL    MW4 3116   0.927   0.085   1.485
  772SOL     OW 3117   0.909   0.351   1.567
  772SOL    HW2 3118   0.917   0.362   1.662
  772SOL    HW3 3119   0.828   0.397   1.545
  772SOL    MW4 3120   0.899   0.359   1.577
  773SOL     OW 3121   1.137   0.481   1.463
  773SOL    HW2 3122   1.144   0.567   1.503
  773SOL    HW3 3123   1.054   0.446   1.494
  773SOL    MW4 3124   1.127   0.488   1.472
  774SOL     OW 3125   1.167   0.741   1.562
  774SOL    HW2 3126   1.167   0.766   1.654
  774SOL    HW3 3127   1.209   0.814   1.517
  774SOL    MW4 3128   1.172   0.754   1.568
  775SOL     OW 3129   0.933   0.920   1.537
  775SOL    HW2 3130   1.007   0.867   1.566
  775SOL    HW3 3131   0.934   0.913   1.442
  775SOL    MW4 3132   0.942   0.912   1.528
  776SOL     OW 3133   0.946   1.194   1.591
  776SOL    HW2 3134   0.947   1.101   1.571
  776SOL    HW3 3135   0.867   1.227   1.549
  776SOL    MW4 3136   0.936   1.186   1.583
  777SOL     OW 3137   1.170   1.322   1.462
  777SOL    HW2 3138   1.243   1.286   1.512
  777SOL    HW3 3139   1.092   1.283   1.501
  777SOL    MW4 3140   1.169   1.312   1.474
  778SOL     OW 3141   1.151   1.580   1.540
  778SOL    HW2 3142   1.236   1.623   1.538
  778SOL    HW3 3143   1.168   1.491   1.509
  778SOL    MW4 3144   1.164   1.574   1.535
  779SOL     OW 3145   0.909   1.663   1.467
  779SOL    HW2 3146   0.994   1.635   1.500
  779SOL    HW3 3147   0.910   1.639   1.374
  779SOL    MW4 3148   0.920   1.656   1.459
  780SOL     OW 3149   0.913   1.896   1.608
  780SOL    HW2 3150   0.987   1.945   1.574
  780SOL    HW3 3151   0.906   1.820   1.551
  780SOL    MW4 3152   0.921   1.893   1.596
  781SOL     OW 3153   1.145   2.024   1.494
  781SOL    HW2 3154   1.234   1.992   1.509
  781SOL    HW3 3155   1.142   2.108   1.540
  781SOL    MW4 3156   1.156   2.031   1.502
  782SOL     OW 3157   1.156   2.290   1.565
  782SOL    HW2 3158   1.228   2.344   1.532
  782SOL    HW3 3159   1.077   2.340   1.544
  782SOL    MW4 3160   1.155   2.304   1.558
  783SOL     OW 3161   0.908   2.421   1.481
  783SOL    HW2 3162   0.911   2.501   1.533
  783SOL    HW3 3163   0.830   2.375   1.511
  783SOL    MW4 3164   0.898   2.425   1.492
  784SOL     OW 3165   0.935   2.676   1.596
  784SOL    HW2 3166   0.927   2.699   1.689
  784SOL    HW3 3167   0.866   2.727   1.553
  784SOL    MW4 3168   0.925   2.686   1.603
  785SOL     OW 3169   1.144   2.812   1.493
  785SOL    HW2 3170   1.143   2.905   1.516
  785SOL    HW3 3171   1.067   2.775   1.536
  785SOL    MW4 3172   1.134   2.819   1.501
  786SOL     OW 3173   1.152   3.076   1.569
  786SOL    HW2 3174   1.139   3.076   1.664
  786SOL    HW3 3175   1.214   3.147   1.553
  786SOL    MW4 3176   1.158   3.085   1.580
  787SOL     OW 3177   0.909   3.264   1.529
  787SOL    HW2 3178   0.989   3.213   1.545
  787SOL    HW3 3179   0.894   3.255   1.435
  787SOL    MW4 3180   0.918   3.256   1.518
  788SOL     OW 3181   0.871   3.522   1.636
  788SOL    HW2 3182   0.945   3.580   1.619
  788SOL    HW3 3183   0.892   3.442   1.589
  788SOL    MW4 3184   0.883   3.519   1.628
  789SOL     OW 3185   1.117   3.633   1.530
  789SOL    HW2 3186   1.208   3.621   1.557
  789SOL    HW3 3187   1.122   3.646   1.435
  789SOL    MW4 3188   1.130   3.633   1.521
  790SOL     OW 3189   1.134   3.908   1.602
  790SOL    HW2 3190   1.219   3.928   1.563
  790SOL    HW3 3191   1.115   3.819   1.574
  790SOL    MW4 3192   1.142   3.899   1.593
  791SOL     OW 3193   0.900   4.047   1.508
  791SOL    HW2 3194   0.901   4.137   1.538
  791SOL    HW3 3195   0.982   4.010   1.540
  791SOL    MW4 3196   0.911   4.054   1.516
  792SOL     OW 3197   0.903   4.307   1.583
  792SOL    HW2 3198   0.897   4.308   1.679
  792SOL    HW3 3199   0.816   4.331   1.553
  792SOL    MW4 3200   0.891   4.311   1.592
  793SOL     OW 3201   1.150   4.378   1.497
  793SOL    HW2 3202   1.065   4.336   1.507
  793SOL    HW3 3203   1.140   4.464   1.540
  793SOL    MW4 3204   1.138   4.384   1.504
  794SOL     OW 3205   1.567   4.587   1.574
  794SOL    HW2 3206   1.587   4.596   1.667
  794SOL    HW3 3207   1.485   4.634   1.562
  794SOL    MW4 3208   1.559   4.594   1.585
  795SOL     OW 3209   1.356   0.065   1.479
  795SOL    HW2 3210   1.359   0.158   1.504
  795SOL    HW3 3211   1.375   0.065   1.385
  795SOL    MW4 3212   1.359   0.077   1.470
  796SOL     OW 3213   1.348   0.330   1.578
  796SOL    HW2 3214   1.423   0.389   1.566
  796SOL    HW3 3215   1.275   0.377   1.538
  796SOL    MW4 3216   1.348   0.344   1.571
  797SOL     OW 3217   1.562   0.511   1.537
  797SOL    HW2 3218   1.638   0.466   1.572
  797SOL    HW3 3219   1.575   0.512   1.442
  797SOL    MW4 3220   1.573   0.505   1.529
  798SOL     OW 3221   1.606   0.785   1.573
  798SOL    HW2 3222   1.603   0.804   1.667
  798SOL    HW3 3223   1.601   0.689   1.568
  798SOL    MW4 3224   1.605   0.775   1.585
  799SOL     OW 3225   1.334   0.933   1.472
  799SOL    HW2 3226   1.402   0.882   1.514
  799SOL    HW3 3227   1.351   0.924   1.378
  799SOL    MW4 3228   1.345   0.925   1.465
  800SOL     OW 3229   1.394   1.195   1.548
  800SOL    HW2 3230   1.381   1.187   1.642
  800SOL    HW3 3231   1.378   1.107   1.514
  800SOL    MW4 3232   1.390   1.182   1.556
  801SOL     OW 3233   1.637   1.297   1.481
  801SOL    HW2 3234   1.561   1.248   1.511
  801SOL    HW3 3235   1.626   1.305   1.386
  801SOL    MW4 3236   1.626   1.292   1.473
  802SOL     OW 3237   1.630   1.561   1.592
  802SOL    HW2 3238   1.640   1.563   1.688
  802SOL    HW3 3239   1.645   1.469   1.568
  802SOL    MW4 3240   1.634   1.549   1.602
  803SOL     OW 3241   1.393   1.683   1.492
  803SOL    HW2 3242   1.464   1.628   1.525
  803SOL    HW3 3243   1.398   1.672   1.397
  803SOL    MW4 3244   1.403   1.674   1.483
  804SOL     OW 3245   1.417   1.956   1.561
  804SOL    HW2 3246   1.385   1.949   1.651
  804SOL    HW3 3247   1.407   1.868   1.524
  804SOL    MW4 3248   1.412   1.943   1.568
  805SOL     OW 3249   1.629   2.096   1.488
  805SOL    HW2 3250   1.545   2.064   1.522
  805SOL    HW3 3251   1.612   2.110   1.395
  805SOL    MW4 3252   1.615   2.093   1.480
  806SOL     OW 3253   1.640   2.367   1.575
  806SOL    HW2 3254   1.713   2.410   1.531
  806SOL    HW3 3255   1.650   2.274   1.554
  806SOL    MW4 3256   1.651   2.361   1.566
  807SOL     OW 3257   1.376   2.440   1.471
  807SOL    HW2 3258   1.375   2.524   1.516
  807SOL    HW3 3259   1.459   2.400   1.496
  807SOL    MW4 3260   1.387   2.446   1.480
  808SOL     OW 3261   1.344   2.687   1.622
  808SOL    HW2 3262   1.410   2.749   1.593
  808SOL    HW3 3263   1.263   2.716   1.581
  808SOL    MW4 3264   1.342   2.699   1.613
  809SOL     OW 3265   1.559   2.850   1.552
  809SOL    HW2 3266   1.641   2.806   1.576
  809SOL    HW3 3267   1.557   2.847   1.456
  809SOL    MW4 3268   1.570   2.843   1.543
  810SOL     OW 3269   1.571   3.117   1.626
  810SOL    HW2 3270   1.633   3.168   1.575
  810SOL    HW3 3271   1.583   3.027   1.596
  810SOL    MW4 3272   1.580   3.112   1.616
  811SOL     OW 3273   1.354   3.244   1.482
  811SOL    HW2 3274   1.359   3.335   1.511
  811SOL    HW3 3275   1.433   3.203   1.517
  811SOL    MW4 3276   1.365   3.251   1.490
  812SOL     OW 3277   1.375   3.517   1.561
  812SOL    HW2 3278   1.370   3.496   1.655
  812SOL    HW3 3279   1.461   3.558   1.550
  812SOL    MW4 3280   1.386   3.520   1.572
  813SOL     OW 3281   1.625   3.645   1.517
  813SOL    HW2 3282   1.620   3.737   1.541
  813SOL    HW3 3283   1.609   3.644   1.423
  813SOL    MW4 3284   1.623   3.657   1.508
  814SOL     OW 3285   1.635   3.908   1.584
  814SOL    HW2 3286   1.623   3.890   1.677
  814SOL    HW3 3287   1.552   3.949   1.557
  814SOL    MW4 3288   1.622   3.911   1.592
  815SOL     OW 3289   1.385   3.988   1.501
  815SOL    HW2 3290   1.370   4.074   1.542
  815SOL    HW3 3291   1.369   4.003   1.407
  815SOL    MW4 3292   1.381   4.002   1.494
  816SOL     OW 3293   1.328   4.229   1.620
  816SOL    HW2 3294   1.408   4.251   1.572
  816SOL    HW3 3295   1.258   4.274   1.572
  816SOL    MW4 3296   1.329   4.238   1.607
  817SOL     OW 3297   1.596   4.313   1.518
  817SOL    HW2 3298   1.678   4.281   1.556
  817SOL    HW3 3299   1.593   4.406   1.542
  817SOL    MW4 3300   1.606   4.321   1.526
  818SOL     OW 3301   1.994   4.621   1.580
  818SOL    HW2 3302   2.012   4.617   1.674
  818SOL    HW3 3303   1.912   4.669   1.573
  818SOL    MW4 3304   1.985   4.627   1.592
  819SOL     OW 3305   1.771   0.109   1.497
  819SOL    HW2 3306   1.698   0.055   1.528
  819SOL    HW3 3307   1.773   0.094   1.403
  819SOL    MW4 3308   1.761   0.100   1.489
  820SOL     OW 3309   1.792   0.367   1.592
  820SOL    HW2 3310   1.862   0.407   1.540
  820SOL    HW3 3311   1.792   0.275   1.564
  820SOL    MW4 3312   1.801   0.360   1.581
  821SOL     OW 3313   2.002   0.506   1.457
  821SOL    HW2 3314   2.081   0.457   1.482
  821SOL    HW3 3315   2.009   0.589   1.504
  821SOL    MW4 3316   2.013   0.510   1.466
  822SOL     OW 3317   2.004   0.761   1.594
  822SOL    HW2 3318   2.085   0.797   1.559
  822SOL    HW3 3319   1.935   0.809   1.548
  822SOL    MW4 3320   2.005   0.772   1.584
  823SOL     OW 3321   1.797   0.927   1.420
  823SOL    HW2 3322   1.805   1.003   1.478
  823SOL    HW3 3323   1.733   0.870   1.463
  823SOL    MW4 3324   1.790   0.929   1.433
  824SOL     OW 3325   1.847   1.155   1.569
  824SOL    HW2 3326   1.925   1.202   1.538
  824SOL    HW3 3327   1.774   1.203   1.531
  824SOL    MW4 3328   1.848   1.168   1.560
  825SOL     OW 3329   2.047   1.293   1.476
  825SOL    HW2 3330   2.042   1.383   1.509
  825SOL    HW3 3331   2.040   1.301   1.381
  825SOL    MW4 3332   2.045   1.306   1.468
  826SOL     OW 3333   2.022   1.537   1.606
  826SOL    HW2 3334   2.095   1.579   1.560
  826SOL    HW3 3335   1.944   1.581   1.573
  826SOL    MW4 3336   2.021   1.548   1.595
  827SOL     OW 3337   1.834   1.710   1.477
  827SOL    HW2 3338   1.752   1.669   1.502
  827SOL    HW3 3339   1.841   1.695   1.383
  827SOL    MW4 3340   1.824   1.703   1.468
  828SOL     OW 3341   1.813   1.940   1.616
  828SOL    HW2 3342   1.831   1.866   1.558
  828SOL    HW3 3343   1.729   1.975   1.585
  828SOL    MW4 3344   1.804   1.935   1.605
  829SOL     OW 3345   2.012   2.085   1.486
  829SOL    HW2 3346   2.090   2.030   1.489
  829SOL    HW3 3347   1.944   2.033   1.530
  829SOL    MW4 3348   2.013   2.071   1.492
  830SOL     OW 3349   2.035   2.322   1.609
  830SOL    HW2 3350   2.048   2.309   1.703
  830SOL    HW3 3351   2.039   2.234   1.572
  830SOL    MW4 3352   2.037   2.308   1.617
  831SOL     OW 3353   1.870   2.489   1.450
  831SOL    HW2 3354   1.931   2.427   1.490
  831SOL    HW3 3355   1.858   2.457   1.361
  831SOL    MW4 3356   1.877   2.477   1.444
  832SOL     OW 3357   1.790   2.727   1.606
  832SOL    HW2 3358   1.858   2.769   1.552
  832SOL    HW3 3359   1.776   2.643   1.563
  832SOL    MW4 3360   1.797   2.722   1.593
  833SOL     OW 3361   2.018   2.818   1.463
  833SOL    HW2 3362   2.017   2.913   1.475
  833SOL    HW3 3363   2.017   2.806   1.368
  833SOL    MW4 3364   2.018   2.829   1.452
  834SOL     OW 3365   1.977   3.075   1.528
  834SOL    HW2 3366   1.975   3.073   1.623
  834SOL    HW3 3367   2.054   3.127   1.506
  834SOL    MW4 3368   1.987   3.082   1.537
  835SOL     OW 3369   1.775   3.245   1.464
  835SOL    HW2 3370   1.792   3.333   1.497
  835SOL    HW3 3371   1.850   3.194   1.491
  835SOL    MW4 3372   1.787   3.250   1.472
  836SOL     OW 3373   1.869   3.492   1.560
  836SOL    HW2 3374   1.872   3.480   1.655
  836SOL    HW3 3375   1.796   3.552   1.545
  836SOL    MW4 3376   1.860   3.498   1.570
  837SOL     OW 3377   2.092   3.584   1.433
  837SOL    HW2 3378   2.171   3.538   1.463
  837SOL    HW3 3379   2.020   3.539   1.477
  837SOL    MW4 3380   2.093   3.572   1.443
  838SOL     OW 3381   2.066   3.835   1.556
  838SOL    HW2 3382   2.143   3.883   1.527
  838SOL    HW3 3383   2.073   3.750   1.512
  838SOL    MW4 3384   2.077   3.830   1.546
  839SOL     OW 3385   1.870   3.977   1.442
  839SOL    HW2 3386   1.942   3.923   1.473
  839SOL    HW3 3387   1.792   3.938   1.483
  839SOL    MW4 3388   1.869   3.964   1.452
  840SOL     OW 3389   1.855   4.230   1.560
  840SOL    HW2 3390   1.924   4.285   1.522
  840SOL    HW3 3391   1.861   4.147   1.513
  840SOL    MW4 3392   1.865   4.227   1.549
  841SOL     OW 3393   2.067   4.390   1.456
  841SOL    HW2 3394   2.132   4.347   1.512
  841SOL    HW3 3395   2.057   4.478   1.493
  841SOL    MW4 3396   2.074   4.396   1.468
  842SOL     OW 3397   2.472   4.630   1.553
  842SOL    HW2 3398   2.451   4.617   1.646
  842SOL    HW3 3399   2.394   4.672   1.516
  842SOL    MW4 3400   2.459   4.634   1.560
  843SOL     OW 3401   2.222   0.077   1.470
  843SOL    HW2 3402   2.138   0.048   1.506
  843SOL    HW3 3403   2.206   0.086   1.376
  843SOL    MW4 3404   2.209   0.074   1.462
  844SOL     OW 3405   2.233   0.354   1.534
  844SOL    HW2 3406   2.221   0.357   1.629
  844SOL    HW3 3407   2.240   0.260   1.514
  844SOL    MW4 3408   2.232   0.342   1.544
  845SOL     OW 3409   2.474   0.502   1.524
  845SOL    HW2 3410   2.537   0.437   1.555
  845SOL    HW3 3411   2.389   0.462   1.541
  845SOL    MW4 3412   2.471   0.488   1.531
  846SOL     OW 3413   2.437   0.744   1.626
  846SOL    HW2 3414   2.372   0.783   1.568
  846SOL    HW3 3415   2.456   0.658   1.587
  846SOL    MW4 3416   2.431   0.738   1.613
  847SOL     OW 3417   2.237   0.862   1.479
  847SOL    HW2 3418   2.246   0.945   1.526
  847SOL    HW3 3419   2.225   0.888   1.387
  847SOL    MW4 3420   2.237   0.876   1.473
  848SOL     OW 3421   2.247   1.124   1.573
  848SOL    HW2 3422   2.229   1.117   1.666
  848SOL    HW3 3423   2.179   1.183   1.540
  848SOL    MW4 3424   2.236   1.131   1.581
  849SOL     OW 3425   2.481   1.265   1.503
  849SOL    HW2 3426   2.405   1.214   1.531
  849SOL    HW3 3427   2.465   1.283   1.410
  849SOL    MW4 3428   2.469   1.260   1.494
  850SOL     OW 3429   2.490   1.542   1.555
  850SOL    HW2 3430   2.570   1.578   1.517
  850SOL    HW3 3431   2.495   1.448   1.539
  850SOL    MW4 3432   2.501   1.534   1.548
  851SOL     OW 3433   2.250   1.645   1.493
  851SOL    HW2 3434   2.328   1.610   1.534
  851SOL    HW3 3435   2.266   1.636   1.399
  851SOL    MW4 3436   2.262   1.639   1.486
  852SOL     OW 3437   2.225   1.924   1.556
  852SOL    HW2 3438   2.230   1.914   1.651
  852SOL    HW3 3439   2.237   1.835   1.522
  852SOL    MW4 3440   2.227   1.911   1.564
  853SOL     OW 3441   2.474   2.030   1.483
  853SOL    HW2 3442   2.390   1.995   1.513
  853SOL    HW3 3443   2.463   2.041   1.388
  853SOL    MW4 3444   2.462   2.027   1.474
  854SOL     OW 3445   2.515   2.286   1.568
  854SOL    HW2 3446   2.531   2.275   1.661
  854SOL    HW3 3447   2.499   2.196   1.536
  854SOL    MW4 3448   2.515   2.272   1.576
  855SOL     OW 3449   2.241   2.442   1.467
  855SOL    HW2 3450   2.320   2.390   1.485
  855SOL    HW3 3451   2.171   2.396   1.511
  855SOL    MW4 3452   2.242   2.429   1.475
  856SOL     OW 3453   2.225   2.696   1.584
  856SOL    HW2 3454   2.248   2.609   1.551
  856SOL    HW3 3455   2.140   2.715   1.543
  856SOL    MW4 3456   2.216   2.687   1.574
  857SOL     OW 3457   2.422   2.831   1.426
  857SOL    HW2 3458   2.439   2.916   1.467
  857SOL    HW3 3459   2.346   2.796   1.472
  857SOL    MW4 3460   2.414   2.838   1.437
  858SOL     OW 3461   2.457   3.089   1.550
  858SOL    HW2 3462   2.531   3.141   1.521
  858SOL    HW3 3463   2.381   3.129   1.507
  858SOL    MW4 3464   2.457   3.101   1.541
  859SOL     OW 3465   2.224   3.185   1.439
  859SOL    HW2 3466   2.255   3.267   1.478
  859SOL    HW3 3467   2.228   3.200   1.345
  859SOL    MW4 3468   2.229   3.198   1.432
  860SOL     OW 3469   2.315   3.433   1.543
  860SOL    HW2 3470   2.313   3.456   1.636
  860SOL    HW3 3471   2.398   3.467   1.511
  860SOL    MW4 3472   2.326   3.441   1.551
  861SOL     OW 3473   2.501   3.601   1.442
  861SOL    HW2 3474   2.584   3.568   1.477
  861SOL    HW3 3475   2.481   3.678   1.496
  861SOL    MW4 3476   2.510   3.607   1.454
  862SOL     OW 3477   2.496   3.842   1.558
  862SOL    HW2 3478   2.510   3.846   1.652
  862SOL    HW3 3479   2.557   3.906   1.521
  862SOL    MW4 3480   2.506   3.851   1.565
  863SOL     OW 3481   2.267   3.993   1.469
  863SOL    HW2 3482   2.338   3.935   1.496
  863SOL    HW3 3483   2.273   3.996   1.374
  863SOL    MW4 3484   2.277   3.986   1.460
  864SOL     OW 3485   2.286   4.262   1.558
  864SOL    HW2 3486   2.372   4.298   1.535
  864SOL    HW3 3487   2.285   4.175   1.518
  864SOL    MW4 3488   2.297   4.255   1.549
  865SOL     OW 3489   2.504   4.388   1.436
  865SOL    HW2 3490   2.494   4.481   1.456
  865SOL    HW3 3491   2.483   4.381   1.343
  865SOL    MW4 3492   2.500   4.399   1.426
  866SOL     OW 3493   2.944   4.651   1.587
  866SOL    HW2 3494   2.940   4.656   1.683
  866SOL    HW3 3495   2.866   4.698   1.557
  866SOL    MW4 3496   2.933   4.658   1.596
  867SOL     OW 3497   2.693   0.099   1.506
  867SOL    HW2 3498   2.687   0.185   1.547
  867SOL    HW3 3499   2.614   0.053   1.536
  867SOL    MW4 3500   2.682   0.104   1.515
  868SOL     OW 3501   2.680   0.335   1.650
  868SOL    HW2 3502   2.673   0.341   1.746
  868SOL    HW3 3503   2.762   0.379   1.630
  868SOL    MW4 3504   2.690   0.342   1.660
  869SOL     OW 3505   2.907   0.455   1.525
  869SOL    HW2 3506   2.915   0.550   1.529
  869SOL    HW3 3507   2.887   0.436   1.434
  869SOL    MW4 3508   2.906   0.465   1.514
  870SOL     OW 3509   2.930   0.716   1.600
  870SOL    HW2 3510   2.940   0.732   1.694
  870SOL    HW3 3511   2.844   0.750   1.579
  870SOL    MW4 3512   2.920   0.723   1.610
  871SOL     OW 3513   2.690   0.844   1.520
  871SOL    HW2 3514   2.607   0.802   1.544
  871SOL    HW3 3515   2.686   0.851   1.425
  871SOL    MW4 3516   2.679   0.839   1.511
  872SOL     OW 3517   2.700   1.140   1.645
  872SOL    HW2 3518   2.681   1.051   1.615
  872SOL    HW3 3519   2.642   1.195   1.593
  872SOL    MW4 3520   2.690   1.135   1.634
  873SOL     OW 3521   2.913   1.264   1.525
  873SOL    HW2 3522   2.988   1.217   1.562
  873SOL    HW3 3523   2.837   1.221   1.563
  873SOL    MW4 3524   2.913   1.252   1.535
  874SOL     OW 3525   2.927   1.555   1.559
  874SOL    HW2 3526   2.859   1.598   1.508
  874SOL    HW3 3527   2.922   1.463   1.534
  874SOL    MW4 3528   2.917   1.548   1.549
  875SOL     OW 3529   2.711   1.664   1.433
  875SOL    HW2 3530   2.714   1.757   1.456
  875SOL    HW3 3531   2.688   1.663   1.340
  875SOL    MW4 3532   2.709   1.677   1.424
  876SOL     OW 3533   2.701   1.907   1.584
  876SOL    HW2 3534   2.701   1.938   1.675
  876SOL    HW3 3535   2.625   1.949   1.545
  876SOL    MW4 3536   2.691   1.916   1.591
  877SOL     OW 3537   2.937   2.047   1.488
  877SOL    HW2 3538   2.925   2.135   1.523
  877SOL    HW3 3539   2.863   1.997   1.523
  877SOL    MW4 3540   2.926   2.052   1.498
  878SOL     OW 3541   2.922   2.288   1.601
  878SOL    HW2 3542   2.920   2.328   1.688
  878SOL    HW3 3543   2.859   2.340   1.550
  878SOL    MW4 3544   2.913   2.300   1.605
  879SOL     OW 3545   2.729   2.451   1.480
  879SOL    HW2 3546   2.708   2.534   1.523
  879SOL    HW3 3547   2.654   2.394   1.498
  879SOL    MW4 3548   2.716   2.454   1.488
  880SOL     OW 3549   2.682   2.717   1.577
  880SOL    HW2 3550   2.729   2.769   1.511
  880SOL    HW3 3551   2.596   2.758   1.582
  880SOL    MW4 3552   2.677   2.730   1.569
  881SOL     OW 3553   2.882   2.844   1.449
  881SOL    HW2 3554   2.948   2.798   1.502
  881SOL    HW3 3555   2.869   2.927   1.495
  881SOL    MW4 3556   2.889   2.849   1.462
  882SOL     OW 3557   2.879   3.088   1.568
  882SOL    HW2 3558   2.873   3.094   1.663
  882SOL    HW3 3559   2.961   3.130   1.546
  882SOL    MW4 3560   2.889   3.094   1.578
  883SOL     OW 3561   2.681   3.219   1.457
  883SOL    HW2 3562   2.758   3.168   1.483
  883SOL    HW3 3563   2.690   3.230   1.362
  883SOL    MW4 3564   2.692   3.214   1.448
  884SOL     OW 3565   2.725   3.499   1.565
  884SOL    HW2 3566   2.702   3.494   1.658
  884SOL    HW3 3567   2.736   3.408   1.538
  884SOL    MW4 3568   2.724   3.486   1.574
  885SOL     OW 3569   2.951   3.625   1.442
  885SOL    HW2 3570   2.866   3.593   1.470
  885SOL    HW3 3571   2.950   3.617   1.347
  885SOL    MW4 3572   2.940   3.620   1.433
  886SOL     OW 3573   2.874   3.863   1.567
  886SOL    HW2 3574   2.793   3.892   1.524
  886SOL    HW3 3575   2.904   3.790   1.513
  886SOL    MW4 3576   2.867   3.857   1.554
  887SOL     OW 3577   2.676   4.036   1.447
  887SOL    HW2 3578   2.694   4.113   1.501
  887SOL    HW3 3579   2.721   4.054   1.364
  887SOL    MW4 3580   2.684   4.049   1.443
  888SOL     OW 3581   2.714   4.270   1.581
  888SOL    HW2 3582   2.789   4.318   1.547
  888SOL    HW3 3583   2.638   4.316   1.547
  888SOL    MW4 3584   2.714   4.282   1.572
  889SOL     OW 3585   2.944   4.394   1.474
  889SOL    HW2 3586   2.939   4.481   1.514
  889SOL    HW3 3587   2.937   4.410   1.380
  889SOL    MW4 3588   2.943   4.408   1.467
  890SOL     OW 3589   3.356   4.615   1.618
  890SOL    HW2 3590   3.441   4.659   1.609
  890SOL    HW3 3591   3.366   4.533   1.570
  890SOL    MW4 3592   3.369   4.610   1.611
  891SOL     OW 3593   3.169   0.082   1.475
  891SOL    HW2 3594   3.232   0.032   1.527
  891SOL    HW3 3595   3.084   0.062   1.515
  891SOL    MW4 3596   3.166   0.073   1.487
  892SOL     OW 3597   3.188   0.356   1.585
  892SOL    HW2 3598   3.187   0.274   1.535
  892SOL    HW3 3599   3.101   0.394   1.571
  892SOL    MW4 3600   3.176   0.351   1.576
  893SOL     OW 3601   3.400   0.529   1.509
  893SOL    HW2 3602   3.329   0.472   1.538
  893SOL    HW3 3603   3.403   0.518   1.414
  893SOL    MW4 3604   3.391   0.520   1.500
  894SOL     OW 3605   3.393   0.783   1.624
  894SOL    HW2 3606   3.395   0.763   1.717
  894SOL    HW3 3607   3.406   0.698   1.581
  894SOL    MW4 3608   3.395   0.769   1.631
  895SOL     OW 3609   3.156   0.865   1.520
  895SOL    HW2 3610   3.231   0.825   1.563
  895SOL    HW3 3611   3.082   0.809   1.544
  895SOL    MW4 3612   3.156   0.852   1.529
  896SOL     OW 3613   3.137   1.134   1.604
  896SOL    HW2 3614   3.146   1.137   1.700
  896SOL    HW3 3615   3.126   1.042   1.584
  896SOL    MW4 3616   3.136   1.123   1.614
  897SOL     OW 3617   3.372   1.256   1.506
  897SOL    HW2 3618   3.446   1.206   1.538
  897SOL    HW3 3619   3.295   1.213   1.544
  897SOL    MW4 3620   3.372   1.244   1.515
  898SOL     OW 3621   3.393   1.536   1.592
  898SOL    HW2 3622   3.406   1.532   1.687
  898SOL    HW3 3623   3.377   1.445   1.566
  898SOL    MW4 3624   3.393   1.523   1.601
  899SOL     OW 3625   3.164   1.675   1.501
  899SOL    HW2 3626   3.236   1.611   1.505
  899SOL    HW3 3627   3.086   1.624   1.519
  899SOL    MW4 3628   3.163   1.660   1.504
  900SOL     OW 3629   3.180   1.946   1.584
  900SOL    HW2 3630   3.180   1.850   1.583
  900SOL    HW3 3631   3.093   1.971   1.553
  900SOL    MW4 3632   3.169   1.936   1.579
  901SOL     OW 3633   3.399   2.053   1.472
  901SOL    HW2 3634   3.315   2.027   1.509
  901SOL    HW3 3635   3.390   2.038   1.378
  901SOL    MW4 3636   3.387   2.047   1.464
  902SOL     OW 3637   3.383   2.305   1.589
  902SOL    HW2 3638   3.436   2.368   1.540
  902SOL    HW3 3639   3.416   2.220   1.563
  902SOL    MW4 3640   3.394   2.302   1.579
  903SOL     OW 3641   3.133   2.422   1.486
  903SOL    HW2 3642   3.205   2.382   1.535
  903SOL    HW3 3643   3.054   2.385   1.525
  903SOL    MW4 3644   3.132   2.412   1.498
  904SOL     OW 3645   3.071   2.708   1.594
  904SOL    HW2 3646   3.147   2.752   1.557
  904SOL    HW3 3647   3.091   2.615   1.586
  904SOL    MW4 3648   3.084   2.701   1.588
  905SOL     OW 3649   3.298   2.829   1.505
  905SOL    HW2 3650   3.319   2.915   1.543
  905SOL    HW3 3651   3.305   2.843   1.410
  905SOL    MW4 3652   3.302   2.843   1.497
  906SOL     OW 3653   3.327   3.102   1.607
  906SOL    HW2 3654   3.326   3.105   1.703
  906SOL    HW3 3655   3.403   3.154   1.582
  906SOL    MW4 3656   3.337   3.109   1.617
  907SOL     OW 3657   3.106   3.217   1.490
  907SOL    HW2 3658   3.178   3.187   1.545
  907SOL    HW3 3659   3.143   3.218   1.401
  907SOL    MW4 3660   3.120   3.213   1.485
  908SOL     OW 3661   3.139   3.463   1.602
  908SOL    HW2 3662   3.121   3.376   1.567
  908SOL    HW3 3663   3.069   3.518   1.566
  908SOL    MW4 3664   3.128   3.459   1.592
  909SOL     OW 3665   3.349   3.613   1.485
  909SOL    HW2 3666   3.420   3.563   1.526
  909SOL    HW3 3667   3.269   3.570   1.516
  909SOL    MW4 3668   3.348   3.601   1.495
  910SOL     OW 3669   3.353   3.883   1.584
  910SOL    HW2 3670   3.267   3.917   1.560
  910SOL    HW3 3671   3.346   3.788   1.574
  910SOL    MW4 3672   3.341   3.875   1.579
  911SOL     OW 3673   3.114   3.984   1.504
  911SOL    HW2 3674   3.109   4.071   1.543
  911SOL    HW3 3675   3.025   3.951   1.507
  911SOL    MW4 3676   3.102   3.991   1.510
  912SOL     OW 3677   3.127   4.247   1.600
  912SOL    HW2 3678   3.130   4.267   1.694
  912SOL    HW3 3679   3.056   4.303   1.567
  912SOL    MW4 3680   3.118   4.257   1.608
  913SOL     OW 3681   3.354   4.376   1.490
  913SOL    HW2 3682   3.294   4.320   1.540
  913SOL    HW3 3683   3.330   4.361   1.399
  913SOL    MW4 3684   3.343   4.367   1.485
  914SOL     OW 3685   3.825   0.043   1.549
  914SOL    HW2 3686   3.835   0.028   1.643
  914SOL    HW3 3687   3.896   0.102   1.526
  914SOL    MW4 3688   3.836   0.048   1.558
  915SOL     OW 3689   3.566   0.120   1.543
  915SOL    HW2 3690   3.657   0.089   1.545
  915SOL    HW3 3691   3.550   0.141   1.452
  915SOL    MW4 3692   3.576   0.119   1.532
  916SOL     OW 3693   3.616   0.387   1.645
  916SOL    HW2 3694   3.587   0.296   1.637
  916SOL    HW3 3695   3.544   0.438   1.607
  916SOL    MW4 3696   3.602   0.382   1.639
  917SOL     OW 3697   3.846   0.469   1.529
  917SOL    HW2 3698   3.770   0.432   1.573
  917SOL    HW3 3699   3.821   0.474   1.437
  917SOL    MW4 3700   3.833   0.465   1.522
  918SOL     OW 3701   3.851   0.729   1.640
  918SOL    HW2 3702   3.770   0.771   1.612
  918SOL    HW3 3703   3.845   0.640   1.607
  918SOL    MW4 3704   3.840   0.723   1.632
  919SOL     OW 3705   3.635   0.877   1.508
  919SOL    HW2 3706   3.549   0.840   1.530
  919SOL    HW3 3707   3.632   0.890   1.413
  919SOL    MW4 3708   3.623   0.874   1.498
  920SOL     OW 3709   3.626   1.157   1.588
  920SOL    HW2 3710   3.703   1.202   1.552
  920SOL    HW3 3711   3.639   1.066   1.564
  920SOL    MW4 3712   3.638   1.151   1.580
  921SOL     OW 3713   3.874   1.265   1.488
  921SOL    HW2 3714   3.956   1.230   1.521
  921SOL    HW3 3715   3.876   1.358   1.511
  921SOL    MW4 3716   3.885   1.273   1.495
  922SOL     OW 3717   3.885   1.519   1.566
  922SOL    HW2 3718   3.870   1.503   1.659
  922SOL    HW3 3719   3.800   1.545   1.532
  922SOL    MW4 3720   3.872   1.521   1.574
  923SOL     OW 3721   3.650   1.639   1.477
  923SOL    HW2 3722   3.576   1.597   1.522
  923SOL    HW3 3723   3.630   1.629   1.384
  923SOL    MW4 3724   3.637   1.633   1.471
  924SOL     OW 3725   3.614   1.910   1.617
  924SOL    HW2 3726   3.609   1.820   1.584
  924SOL    HW3 3727   3.543   1.956   1.571
  924SOL    MW4 3728   3.604   1.904   1.607
  925SOL     OW 3729   3.846   2.035   1.474
  925SOL    HW2 3730   3.842   2.126   1.503
  925SOL    HW3 3731   3.784   1.989   1.530
  925SOL    MW4 3732   3.838   2.041   1.485
  926SOL     OW 3733   3.843   2.315   1.514
  926SOL    HW2 3734   3.836   2.337   1.607
  926SOL    HW3 3735   3.922   2.360   1.484
  926SOL    MW4 3736   3.852   2.324   1.523
  927SOL     OW 3737   3.576   2.469   1.449
  927SOL    HW2 3738   3.588   2.556   1.488
  927SOL    HW3 3739   3.656   2.421   1.471
  927SOL    MW4 3740   3.588   2.474   1.457
  928SOL     OW 3741   3.569   2.723   1.571
  928SOL    HW2 3742   3.568   2.712   1.666
  928SOL    HW3 3743   3.477   2.730   1.547
  928SOL    MW4 3744   3.557   2.723   1.580
  929SOL     OW 3745   3.820   2.830   1.484
  929SOL    HW2 3746   3.877   2.793   1.551
  929SOL    HW3 3747   3.731   2.815   1.518
  929SOL    MW4 3748   3.816   2.823   1.497
  930SOL     OW 3749   3.816   3.118   1.603
  930SOL    HW2 3750   3.884   3.167   1.556
  930SOL    HW3 3751   3.826   3.028   1.572
  930SOL    MW4 3752   3.827   3.113   1.593
  931SOL     OW 3753   3.573   3.219   1.519
  931SOL    HW2 3754   3.655   3.179   1.545
  931SOL    HW3 3755   3.571   3.209   1.423
  931SOL    MW4 3756   3.583   3.212   1.510
  932SOL     OW 3757   3.586   3.491   1.587
  932SOL    HW2 3758   3.670   3.527   1.557
  932SOL    HW3 3759   3.588   3.400   1.560
  932SOL    MW4 3760   3.597   3.484   1.579
  933SOL     OW 3761   3.834   3.602   1.504
  933SOL    HW2 3762   3.905   3.555   1.548
  933SOL    HW3 3763   3.832   3.688   1.545
  933SOL    MW4 3764   3.843   3.607   1.515
  934SOL     OW 3765   3.817   3.852   1.631
  934SOL    HW2 3766   3.897   3.899   1.605
  934SOL    HW3 3767   3.746   3.910   1.604
  934SOL    MW4 3768   3.818   3.866   1.624
  935SOL     OW 3769   3.616   4.004   1.512
  935SOL    HW2 3770   3.617   4.099   1.524
  935SOL    HW3 3771   3.532   3.976   1.547
  935SOL    MW4 3772   3.605   4.013   1.519
  936SOL     OW 3773   3.591   4.264   1.596
  936SOL    HW2 3774   3.583   4.286   1.689
  936SOL    HW3 3775   3.508   4.292   1.558
  936SOL    MW4 3776   3.579   4.271   1.603
  937SOL     OW 3777   3.801   4.441   1.499
  937SOL    HW2 3778   3.722   4.405   1.539
  937SOL    HW3 3779   3.806   4.531   1.532
  937SOL    MW4 3780   3.791   4.448   1.509
  938SOL     OW 3781   4.276   0.016   1.596
  938SOL    HW2 3782   4.275   0.017   1.692
  938SOL    HW3 3783   4.273  -0.077   1.573
  938SOL    MW4 3784   4.276   0.004   1.606
  939SOL     OW 3785   4.069   0.161   1.466
  939SOL    HW2 3786   4.093   0.242   1.510
  939SOL    HW3 3787   4.130   0.096   1.501
  939SOL    MW4 3788   4.081   0.163   1.477
  940SOL     OW 3789   4.094   0.390   1.623
  940SOL    HW2 3790   4.094   0.394   1.719
  940SOL    HW3 3791   4.006   0.418   1.598
  940SOL    MW4 3792   4.082   0.394   1.633
  941SOL     OW 3793   4.316   0.485   1.502
  941SOL    HW2 3794   4.244   0.448   1.552
  941SOL    HW3 3795   4.394   0.441   1.536
  941SOL    MW4 3796   4.317   0.475   1.513
  942SOL     OW 3797   4.318   0.753   1.599
  942SOL    HW2 3798   4.317   0.660   1.575
  942SOL    HW3 3799   4.400   0.786   1.561
  942SOL    MW4 3800   4.329   0.745   1.591
  943SOL     OW 3801   4.079   0.892   1.553
  943SOL    HW2 3802   4.160   0.843   1.556
  943SOL    HW3 3803   4.012   0.831   1.584
  943SOL    MW4 3804   4.081   0.878   1.558
  944SOL     OW 3805   4.082   1.151   1.614
  944SOL    HW2 3806   4.075   1.160   1.709
  944SOL    HW3 3807   4.081   1.057   1.598
  944SOL    MW4 3808   4.081   1.140   1.624
  945SOL     OW 3809   4.301   1.285   1.511
  945SOL    HW2 3810   4.227   1.245   1.558
  945SOL    HW3 3811   4.379   1.244   1.548
  945SOL    MW4 3812   4.301   1.274   1.522
  946SOL     OW 3813   4.317   1.567   1.596
  946SOL    HW2 3814   4.326   1.477   1.564
  946SOL    HW3 3815   4.393   1.613   1.561
  946SOL    MW4 3816   4.328   1.561   1.587
  947SOL     OW 3817   4.096   1.663   1.463
  947SOL    HW2 3818   4.163   1.628   1.523
  947SOL    HW3 3819   4.015   1.620   1.491
  947SOL    MW4 3820   4.094   1.652   1.475
  948SOL     OW 3821   4.089   1.909   1.575
  948SOL    HW2 3822   4.093   1.823   1.534
  948SOL    HW3 3823   4.004   1.945   1.547
  948SOL    MW4 3824   4.078   1.903   1.566
  949SOL     OW 3825   4.301   2.070   1.472
  949SOL    HW2 3826   4.238   2.006   1.505
  949SOL    HW3 3827   4.289   2.070   1.377
  949SOL    MW4 3828   4.291   2.062   1.464
  950SOL     OW 3829   4.293   2.324   1.598
  950SOL    HW2 3830   4.308   2.317   1.692
  950SOL    HW3 3831   4.288   2.233   1.567
  950SOL    MW4 3832   4.294   2.311   1.606
  951SOL     OW 3833   4.075   2.471   1.457
  951SOL    HW2 3834   4.047   2.553   1.497
  951SOL    HW3 3835   4.136   2.433   1.521
  951SOL    MW4 3836   4.080   2.477   1.471
  952SOL     OW 3837   4.030   2.705   1.594
  952SOL    HW2 3838   4.052   2.697   1.687
  952SOL    HW3 3839   4.093   2.768   1.559
  952SOL    MW4 3840   4.041   2.713   1.602
  953SOL     OW 3841   4.216   2.880   1.476
  953SOL    HW2 3842   4.233   2.974   1.489
  953SOL    HW3 3843   4.223   2.867   1.382
  953SOL    MW4 3844   4.219   2.891   1.465
  954SOL     OW 3845   4.272   3.127   1.578
  954SOL    HW2 3846   4.291   3.131   1.672
  954SOL    HW3 3847   4.354   3.152   1.536
  954SOL    MW4 3848   4.285   3.131   1.585
  955SOL     OW 3849   4.025   3.220   1.480
  955SOL    HW2 3850   4.016   3.302   1.528
  955SOL    HW3 3851   4.107   3.182   1.513
  955SOL    MW4 3852   4.035   3.226   1.491
  956SOL     OW 3853   4.038   3.455   1.600
  956SOL    HW2 3854   4.030   3.456   1.695
  956SOL    HW3 3855   4.123   3.496   1.583
  956SOL    MW4 3856   4.048   3.461   1.610
  957SOL     OW 3857   4.263   3.603   1.489
  957SOL    HW2 3858   4.265   3.690   1.530
  957SOL    HW3 3859   4.235   3.619   1.399
  957SOL    MW4 3860   4.260   3.616   1.483
  958SOL     OW 3861   4.270   3.841   1.647
  958SOL    HW2 3862   4.190   3.892   1.631
  958SOL    HW3 3863   4.338   3.887   1.598
  958SOL    MW4 3864   4.268   3.854   1.639
  959SOL     OW 3865   4.055   3.992   1.575
  959SOL    HW2 3866   4.060   4.081   1.609
  959SOL    HW3 3867   4.034   4.002   1.483
  959SOL    MW4 3868   4.053   4.005   1.568
  960SOL     OW 3869   4.024   4.282   1.613
  960SOL    HW2 3870   4.027   4.309   1.705
  960SOL    HW3 3871   3.949   4.328   1.577
  960SOL    MW4 3872   4.015   4.292   1.621
  961SOL     OW 3873   4.263   4.408   1.540
  961SOL    HW2 3874   4.183   4.370   1.577
  961SOL    HW3 3875   4.257   4.391   1.446
  961SOL    MW4 3876   4.252   4.401   1.533
  962SOL     OW 3877   0.257   4.649   1.920
  962SOL    HW2 3878   0.342   4.678   1.953
  962SOL    HW3 3879   0.268   4.646   1.825
  962SOL    MW4 3880   0.270   4.652   1.912
  963SOL     OW 3881   0.010   0.116   2.006
  963SOL    HW2 3882   0.014   0.208   1.981
  963SOL    HW3 3883   0.096   0.080   1.983
  963SOL    MW4 3884   0.022   0.123   2.000
  964SOL     OW 3885   0.034   0.364   1.906
  964SOL    HW2 3886  -0.038   0.419   1.937
  964SOL    HW3 3887   0.113   0.407   1.938
  964SOL    MW4 3888   0.035   0.377   1.914
  965SOL     OW 3889   0.246   0.524   1.954
  965SOL    HW2 3890   0.324   0.478   1.924
  965SOL    HW3 3891   0.257   0.614   1.923
  965SOL    MW4 3892   0.258   0.530   1.946
  966SOL     OW 3893   0.249   0.807   1.886
  966SOL    HW2 3894   0.342   0.820   1.908
  966SOL    HW3 3895   0.243   0.829   1.793
  966SOL    MW4 3896   0.261   0.811   1.877
  967SOL     OW 3897   0.013   0.948   2.010
  967SOL    HW2 3898  -0.047   0.877   1.987
  967SOL    HW3 3899   0.101   0.911   1.997
  967SOL    MW4 3900   0.017   0.934   2.005
  968SOL     OW 3901   0.023   1.179   1.865
  968SOL    HW2 3902  -0.044   1.237   1.902
  968SOL    HW3 3903   0.008   1.095   1.910
  968SOL    MW4 3904   0.012   1.175   1.876
  969SOL     OW 3905   0.246   1.271   1.979
  969SOL    HW2 3906   0.252   1.357   1.935
  969SOL    HW3 3907   0.165   1.233   1.946
  969SOL    MW4 3908   0.236   1.277   1.969
  970SOL     OW 3909   0.252   1.526   1.855
  970SOL    HW2 3910   0.329   1.560   1.900
  970SOL    HW3 3911   0.179   1.573   1.894
  970SOL    MW4 3912   0.253   1.537   1.866
  971SOL     OW 3913   0.023   1.678   1.995
  971SOL    HW2 3914   0.005   1.677   2.089
  971SOL    HW3 3915  -0.060   1.653   1.954
  971SOL    MW4 3916   0.010   1.674   2.002
  972SOL     OW 3917   0.025   1.889   1.819
  972SOL    HW2 3918  -0.046   1.941   1.855
  972SOL    HW3 3919   0.024   1.808   1.871
  972SOL    MW4 3920   0.016   1.885   1.831
  973SOL     OW 3921   0.194   2.042   1.982
  973SOL    HW2 3922   0.189   2.132   1.949
  973SOL    HW3 3923   0.132   1.994   1.928
  973SOL    MW4 3924   0.185   2.048   1.971
  974SOL     OW 3925   0.244   2.311   1.841
  974SOL    HW2 3926   0.325   2.347   1.876
  974SOL    HW3 3927   0.175   2.368   1.875
  974SOL    MW4 3928   0.245   2.323   1.850
  975SOL     OW 3929   0.048   2.469   1.968
  975SOL    HW2 3930   0.032   2.460   2.062
  975SOL    HW3 3931   0.013   2.556   1.947
  975SOL    MW4 3932   0.042   2.479   1.978
  976SOL     OW 3933   4.476   2.718   1.873
  976SOL    HW2 3934   4.407   2.765   1.920
  976SOL    HW3 3935   4.459   2.735   1.781
  976SOL    MW4 3936   4.465   2.726   1.867
  977SOL     OW 3937   0.200   2.832   1.990
  977SOL    HW2 3938   0.201   2.926   1.974
  977SOL    HW3 3939   0.123   2.800   1.941
  977SOL    MW4 3940   0.190   2.840   1.981
  978SOL     OW 3941   0.203   3.106   1.917
  978SOL    HW2 3942   0.278   3.156   1.950
  978SOL    HW3 3943   0.205   3.118   1.822
  978SOL    MW4 3944   0.213   3.114   1.909
  979SOL     OW 3945   4.466   3.279   1.985
  979SOL    HW2 3946   4.404   3.211   1.958
  979SOL    HW3 3947   4.552   3.241   1.967
  979SOL    MW4 3948   4.469   3.265   1.979
  980SOL     OW 3949   4.454   3.516   1.843
  980SOL    HW2 3950   4.537   3.557   1.865
  980SOL    HW3 3951   4.461   3.427   1.878
  980SOL    MW4 3952   4.466   3.510   1.850
  981SOL     OW 3953   0.197   3.614   1.953
  981SOL    HW2 3954   0.192   3.605   2.048
  981SOL    HW3 3955   0.277   3.568   1.928
  981SOL    MW4 3956   0.207   3.607   1.962
  982SOL     OW 3957   0.246   3.885   1.888
  982SOL    HW2 3958   0.326   3.919   1.927
  982SOL    HW3 3959   0.235   3.799   1.928
  982SOL    MW4 3960   0.255   3.878   1.898
  983SOL     OW 3961   0.024   4.005   1.997
  983SOL    HW2 3962   0.017   4.095   1.964
  983SOL    HW3 3963   0.100   3.969   1.950
  983SOL    MW4 3964   0.033   4.012   1.986
  984SOL     OW 3965   0.006   4.257   1.917
  984SOL    HW2 3966  -0.073   4.301   1.948
  984SOL    HW3 3967   0.077   4.293   1.970
  984SOL    MW4 3968   0.005   4.267   1.928
  985SOL     OW 3969   0.220   4.393   2.043
  985SOL    HW2 3970   0.205   4.388   2.138
  985SOL    HW3 3971   0.205   4.485   2.022
  985SOL    MW4 3972   0.216   4.405   2.053
  986SOL     OW 3973   0.708   0.030   1.915
  986SOL    HW2 3974   0.708  -0.061   1.944
  986SOL    HW3 3975   0.706   0.025   1.819
  986SOL    MW4 3976   0.708   0.017   1.906
  987SOL     OW 3977   0.474   0.141   2.013
  987SOL    HW2 3978   0.452   0.215   1.956
  987SOL    HW3 3979   0.550   0.100   1.971
  987SOL    MW4 3980   0.481   0.145   2.000
  988SOL     OW 3981   0.447   0.374   1.864
  988SOL    HW2 3982   0.535   0.398   1.894
  988SOL    HW3 3983   0.457   0.358   1.770
  988SOL    MW4 3984   0.460   0.375   1.856
  989SOL     OW 3985   0.675   0.491   1.977
  989SOL    HW2 3986   0.679   0.479   2.072
  989SOL    HW3 3987   0.749   0.440   1.944
  989SOL    MW4 3988   0.685   0.482   1.986
  990SOL     OW 3989   0.733   0.741   1.851
  990SOL    HW2 3990   0.805   0.782   1.899
  990SOL    HW3 3991   0.726   0.653   1.889
  990SOL    MW4 3992   0.741   0.735   1.863
  991SOL     OW 3993   0.504   0.869   1.955
  991SOL    HW2 3994   0.509   0.962   1.931
  991SOL    HW3 3995   0.587   0.833   1.925
  991SOL    MW4 3996   0.516   0.877   1.948
  992SOL     OW 3997   0.477   1.133   1.894
  992SOL    HW2 3998   0.398   1.178   1.924
  992SOL    HW3 3999   0.474   1.140   1.798
  992SOL    MW4 4000   0.467   1.140   1.885
  993SOL     OW 4001   0.683   1.303   1.965
  993SOL    HW2 4002   0.693   1.295   2.059
  993SOL    HW3 4003   0.610   1.244   1.943
  993SOL    MW4 4004   0.675   1.294   1.974
  994SOL     OW 4005   0.686   1.560   1.876
  994SOL    HW2 4006   0.713   1.469   1.879
  994SOL    HW3 4007   0.691   1.584   1.784
  994SOL    MW4 4008   0.690   1.551   1.865
  995SOL     OW 4009   0.467   1.651   1.981
  995SOL    HW2 4010   0.485   1.655   2.075
  995SOL    HW3 4011   0.549   1.618   1.943
  995SOL    MW4 4012   0.480   1.647   1.988
  996SOL     OW 4013   0.438   1.912   1.869
  996SOL    HW2 4014   0.444   1.827   1.912
  996SOL    HW3 4015   0.369   1.958   1.916
  996SOL    MW4 4016   0.430   1.907   1.881
  997SOL     OW 4017   0.681   2.040   1.951
  997SOL    HW2 4018   0.678   2.050   2.046
  997SOL    HW3 4019   0.598   1.997   1.928
  997SOL    MW4 4020   0.669   2.035   1.960
  998SOL     OW 4021   0.692   2.311   1.854
  998SOL    HW2 4022   0.679   2.223   1.889
  998SOL    HW3 4023   0.678   2.302   1.760
  998SOL    MW4 4024   0.688   2.298   1.846
  999SOL     OW 4025   0.445   2.468   1.976
  999SOL    HW2 4026   0.422   2.444   2.066
  999SOL    HW3 4027   0.520   2.412   1.955
  999SOL    MW4 4028   0.452   2.457   1.985
 1000SOL     OW 4029   0.451   2.731   1.887
 1000SOL    HW2 4030   0.438   2.639   1.909
 1000SOL    HW3 4031   0.370   2.774   1.914
 1000SOL    MW4 4032   0.439   2.724   1.893
 1001SOL     OW 4033   0.687   2.830   2.008
 1001SOL    HW2 4034   0.681   2.834   2.103
 1001SOL    HW3 4035   0.616   2.770   1.983
 1001SOL    MW4 4036   0.677   2.822   2.017
 1002SOL     OW 4037   0.691   3.094   1.871
 1002SOL    HW2 4038   0.687   3.004   1.905
 1002SOL    HW3 4039   0.695   3.083   1.776
 1002SOL    MW4 4040   0.691   3.080   1.863
 1003SOL     OW 4041   0.435   3.246   1.991
 1003SOL    HW2 4042   0.435   3.326   1.940
 1003SOL    HW3 4043   0.516   3.201   1.966
 1003SOL    MW4 4044   0.446   3.251   1.981
 1004SOL     OW 4045   0.438   3.501   1.867
 1004SOL    HW2 4046   0.510   3.553   1.902
 1004SOL    HW3 4047   0.455   3.497   1.772
 1004SOL    MW4 4048   0.450   3.507   1.859
 1005SOL     OW 4049   0.649   3.648   1.987
 1005SOL    HW2 4050   0.737   3.611   1.983
 1005SOL    HW3 4051   0.658   3.736   1.948
 1005SOL    MW4 4052   0.662   3.655   1.981
 1006SOL     OW 4053   0.666   3.902   1.848
 1006SOL    HW2 4054   0.745   3.940   1.887
 1006SOL    HW3 4055   0.672   3.921   1.755
 1006SOL    MW4 4056   0.677   3.909   1.841
 1007SOL     OW 4057   0.463   3.997   2.012
 1007SOL    HW2 4058   0.457   4.089   1.985
 1007SOL    HW3 4059   0.540   3.963   1.966
 1007SOL    MW4 4060   0.472   4.005   2.002
 1008SOL     OW 4061   0.442   4.284   1.901
 1008SOL    HW2 4062   0.364   4.324   1.939
 1008SOL    HW3 4063   0.423   4.275   1.808
 1008SOL    MW4 4064   0.429   4.288   1.894
 1009SOL     OW 4065   0.660   4.428   1.972
 1009SOL    HW2 4066   0.723   4.379   1.918
 1009SOL    HW3 4067   0.577   4.384   1.957
 1009SOL    MW4 4068   0.658   4.416   1.963
 1010SOL     OW 4069   1.135   4.652   1.904
 1010SOL    HW2 4070   1.223   4.684   1.921
 1010SOL    HW3 4071   1.134   4.562   1.936
 1010SOL    MW4 4072   1.146   4.645   1.910
 1011SOL     OW 4073   0.943   0.161   2.001
 1011SOL    HW2 4074   1.020   0.109   1.980
 1011SOL    HW3 4075   0.869   0.109   1.970
 1011SOL    MW4 4076   0.943   0.148   1.994
 1012SOL     OW 4077   0.914   0.403   1.843
 1012SOL    HW2 4078   0.978   0.464   1.880
 1012SOL    HW3 4079   0.931   0.320   1.888
 1012SOL    MW4 4080   0.924   0.400   1.854
 1013SOL     OW 4081   1.146   0.503   1.973
 1013SOL    HW2 4082   1.220   0.455   1.936
 1013SOL    HW3 4083   1.139   0.581   1.918
 1013SOL    MW4 4084   1.155   0.507   1.961
 1014SOL     OW 4085   1.135   0.762   1.839
 1014SOL    HW2 4086   1.215   0.781   1.887
 1014SOL    HW3 4087   1.066   0.805   1.890
 1014SOL    MW4 4088   1.136   0.770   1.852
 1015SOL     OW 4089   0.920   0.905   1.978
 1015SOL    HW2 4090   0.904   0.898   2.072
 1015SOL    HW3 4091   0.920   0.999   1.960
 1015SOL    MW4 4092   0.918   0.916   1.988
 1016SOL     OW 4093   0.930   1.183   1.875
 1016SOL    HW2 4094   0.844   1.215   1.903
 1016SOL    HW3 4095   0.919   1.167   1.781
 1016SOL    MW4 4096   0.917   1.185   1.866
 1017SOL     OW 4097   1.154   1.304   1.940
 1017SOL    HW2 4098   1.155   1.396   1.912
 1017SOL    HW3 4099   1.069   1.271   1.912
 1017SOL    MW4 4100   1.143   1.312   1.933
 1018SOL     OW 4101   1.147   1.562   1.845
 1018SOL    HW2 4102   1.066   1.597   1.883
 1018SOL    HW3 4103   1.136   1.576   1.751
 1018SOL    MW4 4104   1.135   1.569   1.837
 1019SOL     OW 4105   0.918   1.662   1.987
 1019SOL    HW2 4106   0.923   1.754   1.962
 1019SOL    HW3 4107   0.829   1.635   1.964
 1019SOL    MW4 4108   0.907   1.670   1.981
 1020SOL     OW 4109   0.921   1.922   1.890
 1020SOL    HW2 4110   0.842   1.970   1.915
 1020SOL    HW3 4111   0.907   1.899   1.798
 1020SOL    MW4 4112   0.909   1.925   1.881
 1021SOL     OW 4113   1.173   2.049   1.971
 1021SOL    HW2 4114   1.157   2.140   1.944
 1021SOL    HW3 4115   1.094   2.002   1.942
 1021SOL    MW4 4116   1.160   2.055   1.963
 1022SOL     OW 4117   1.145   2.291   1.868
 1022SOL    HW2 4118   1.217   2.328   1.918
 1022SOL    HW3 4119   1.173   2.295   1.777
 1022SOL    MW4 4120   1.158   2.296   1.863
 1023SOL     OW 4121   0.925   2.427   1.961
 1023SOL    HW2 4122   0.997   2.371   1.933
 1023SOL    HW3 4123   0.846   2.382   1.932
 1023SOL    MW4 4124   0.924   2.414   1.954
 1024SOL     OW 4125   0.902   2.714   1.884
 1024SOL    HW2 4126   0.917   2.632   1.932
 1024SOL    HW3 4127   0.828   2.755   1.930
 1024SOL    MW4 4128   0.894   2.709   1.896
 1025SOL     OW 4129   1.136   2.863   1.961
 1025SOL    HW2 4130   1.114   2.852   2.053
 1025SOL    HW3 4131   1.074   2.805   1.915
 1025SOL    MW4 4132   1.125   2.854   1.967
 1026SOL     OW 4133   1.114   3.137   1.853
 1026SOL    HW2 4134   1.045   3.185   1.898
 1026SOL    HW3 4135   1.119   3.053   1.900
 1026SOL    MW4 4136   1.105   3.132   1.865
 1027SOL     OW 4137   0.898   3.231   1.997
 1027SOL    HW2 4138   0.896   3.218   2.092
 1027SOL    HW3 4139   0.824   3.180   1.965
 1027SOL    MW4 4140   0.888   3.223   2.005
 1028SOL     OW 4141   0.895   3.503   1.936
 1028SOL    HW2 4142   0.900   3.409   1.952
 1028SOL    HW3 4143   0.892   3.510   1.840
 1028SOL    MW4 4144   0.895   3.491   1.925
 1029SOL     OW 4145   1.138   3.632   1.975
 1029SOL    HW2 4146   1.147   3.639   2.070
 1029SOL    HW3 4147   1.051   3.595   1.961
 1029SOL    MW4 4148   1.128   3.628   1.985
 1030SOL     OW 4149   1.096   3.904   1.890
 1030SOL    HW2 4150   1.087   3.811   1.912
 1030SOL    HW3 4151   1.119   3.904   1.797
 1030SOL    MW4 4152   1.098   3.892   1.880
 1031SOL     OW 4153   0.878   4.042   1.967
 1031SOL    HW2 4154   0.875   4.026   2.061
 1031SOL    HW3 4155   0.962   4.005   1.939
 1031SOL    MW4 4156   0.889   4.035   1.975
 1032SOL     OW 4157   0.869   4.286   1.861
 1032SOL    HW2 4158   0.933   4.341   1.907
 1032SOL    HW3 4159   0.871   4.202   1.908
 1032SOL    MW4 4160   0.878   4.282   1.874
 1033SOL     OW 4161   1.117   4.380   1.963
 1033SOL    HW2 4162   1.127   4.390   2.058
 1033SOL    HW3 4163   1.193   4.328   1.936
 1033SOL    MW4 4164   1.128   4.374   1.972
 1034SOL     OW 4165   1.614   4.623   1.847
 1034SOL    HW2 4166   1.689   4.668   1.886
 1034SOL    HW3 4167   1.611   4.538   1.890
 1034SOL    MW4 4168   1.624   4.618   1.858
 1035SOL     OW 4169   1.377   0.101   1.958
 1035SOL    HW2 4170   1.374   0.089   2.053
 1035SOL    HW3 4171   1.458   0.057   1.931
 1035SOL    MW4 4172   1.387   0.093   1.967
 1036SOL     OW 4173   1.351   0.361   1.855
 1036SOL    HW2 4174   1.367   0.279   1.902
 1036SOL    HW3 4175   1.342   0.336   1.764
 1036SOL    MW4 4176   1.352   0.347   1.849
 1037SOL     OW 4177   1.556   0.529   1.947
 1037SOL    HW2 4178   1.644   0.497   1.930
 1037SOL    HW3 4179   1.499   0.471   1.897
 1037SOL    MW4 4180   1.560   0.517   1.939
 1038SOL     OW 4181   1.619   0.800   1.857
 1038SOL    HW2 4182   1.704   0.816   1.896
 1038SOL    HW3 4183   1.585   0.724   1.905
 1038SOL    MW4 4184   1.625   0.792   1.868
 1039SOL     OW 4185   1.352   0.903   1.909
 1039SOL    HW2 4186   1.352   0.921   2.003
 1039SOL    HW3 4187   1.442   0.879   1.889
 1039SOL    MW4 4188   1.364   0.902   1.919
 1040SOL     OW 4189   1.361   1.174   1.818
 1040SOL    HW2 4190   1.350   1.085   1.852
 1040SOL    HW3 4191   1.283   1.221   1.848
 1040SOL    MW4 4192   1.349   1.169   1.826
 1041SOL     OW 4193   1.574   1.286   1.958
 1041SOL    HW2 4194   1.583   1.375   1.925
 1041SOL    HW3 4195   1.496   1.252   1.913
 1041SOL    MW4 4196   1.565   1.293   1.948
 1042SOL     OW 4197   1.625   1.533   1.864
 1042SOL    HW2 4198   1.704   1.579   1.892
 1042SOL    HW3 4199   1.554   1.578   1.910
 1042SOL    MW4 4200   1.626   1.545   1.873
 1043SOL     OW 4201   1.389   1.664   1.939
 1043SOL    HW2 4202   1.382   1.692   2.030
 1043SOL    HW3 4203   1.304   1.626   1.919
 1043SOL    MW4 4204   1.377   1.663   1.949
 1044SOL     OW 4205   1.374   1.906   1.836
 1044SOL    HW2 4206   1.362   1.815   1.862
 1044SOL    HW3 4207   1.309   1.954   1.886
 1044SOL    MW4 4208   1.364   1.900   1.846
 1045SOL     OW 4209   1.595   2.037   1.966
 1045SOL    HW2 4210   1.599   2.128   1.936
 1045SOL    HW3 4211   1.521   1.999   1.919
 1045SOL    MW4 4212   1.586   2.044   1.956
 1046SOL     OW 4213   1.615   2.316   1.870
 1046SOL    HW2 4214   1.687   2.363   1.911
 1046SOL    HW3 4215   1.624   2.336   1.776
 1046SOL    MW4 4216   1.626   2.325   1.863
 1047SOL     OW 4217   1.380   2.419   1.987
 1047SOL    HW2 4218   1.355   2.498   1.938
 1047SOL    HW3 4219   1.459   2.389   1.943
 1047SOL    MW4 4220   1.387   2.426   1.975
 1048SOL     OW 4221   1.328   2.676   1.899
 1048SOL    HW2 4222   1.262   2.742   1.922
 1048SOL    HW3 4223   1.322   2.670   1.803
 1048SOL    MW4 4224   1.318   2.684   1.889
 1049SOL     OW 4225   1.537   2.859   1.999
 1049SOL    HW2 4226   1.617   2.819   1.963
 1049SOL    HW3 4227   1.466   2.801   1.968
 1049SOL    MW4 4228   1.538   2.846   1.990
 1050SOL     OW 4229   1.568   3.115   1.903
 1050SOL    HW2 4230   1.549   3.029   1.940
 1050SOL    HW3 4231   1.564   3.102   1.808
 1050SOL    MW4 4232   1.565   3.102   1.895
 1051SOL     OW 4233   1.346   3.224   2.004
 1051SOL    HW2 4234   1.418   3.216   1.941
 1051SOL    HW3 4235   1.268   3.199   1.955
 1051SOL    MW4 4236   1.345   3.220   1.989
 1052SOL     OW 4237   1.323   3.482   1.840
 1052SOL    HW2 4238   1.349   3.424   1.911
 1052SOL    HW3 4239   1.255   3.538   1.877
 1052SOL    MW4 4240   1.318   3.482   1.854
 1053SOL     OW 4241   1.558   3.599   1.914
 1053SOL    HW2 4242   1.550   3.609   2.009
 1053SOL    HW3 4243   1.472   3.570   1.886
 1053SOL    MW4 4244   1.546   3.597   1.923
 1054SOL     OW 4245   1.581   3.858   1.851
 1054SOL    HW2 4246   1.660   3.875   1.902
 1054SOL    HW3 4247   1.558   3.767   1.871
 1054SOL    MW4 4248   1.588   3.848   1.860
 1055SOL     OW 4249   1.371   3.961   1.994
 1055SOL    HW2 4250   1.446   3.937   1.938
 1055SOL    HW3 4251   1.295   3.926   1.948
 1055SOL    MW4 4252   1.371   3.953   1.980
 1056SOL     OW 4253   1.361   4.225   1.903
 1056SOL    HW2 4254   1.359   4.136   1.937
 1056SOL    HW3 4255   1.335   4.217   1.812
 1056SOL    MW4 4256   1.357   4.212   1.896
 1057SOL     OW 4257   1.586   4.367   1.951
 1057SOL    HW2 4258   1.577   4.367   2.047
 1057SOL    HW3 4259   1.504   4.330   1.919
 1057SOL    MW4 4260   1.574   4.362   1.960
 1058SOL     OW 4261   2.007   4.621   1.880
 1058SOL    HW2 4262   2.081   4.672   1.913
 1058SOL    HW3 4263   2.020   4.533   1.916
 1058SOL    MW4 4264   2.019   4.616   1.889
 1059SOL     OW 4265   1.802   0.115   1.979
 1059SOL    HW2 4266   1.810   0.105   2.074
 1059SOL    HW3 4267   1.883   0.080   1.944
 1059SOL    MW4 4268   1.814   0.109   1.987
 1060SOL     OW 4269   1.776   0.383   1.876
 1060SOL    HW2 4270   1.787   0.291   1.902
 1060SOL    HW3 4271   1.789   0.383   1.782
 1060SOL    MW4 4272   1.779   0.371   1.867
 1061SOL     OW 4273   2.013   0.469   1.971
 1061SOL    HW2 4274   2.014   0.558   1.934
 1061SOL    HW3 4275   1.939   0.427   1.928
 1061SOL    MW4 4276   2.003   0.475   1.960
 1062SOL     OW 4277   2.016   0.721   1.868
 1062SOL    HW2 4278   2.091   0.772   1.900
 1062SOL    HW3 4279   2.017   0.734   1.773
 1062SOL    MW4 4280   2.026   0.730   1.859
 1063SOL     OW 4281   1.843   0.893   2.003
 1063SOL    HW2 4282   1.842   0.974   1.953
 1063SOL    HW3 4283   1.905   0.837   1.958
 1063SOL    MW4 4284   1.851   0.897   1.991
 1064SOL     OW 4285   1.821   1.141   1.851
 1064SOL    HW2 4286   1.742   1.191   1.872
 1064SOL    HW3 4287   1.827   1.143   1.756
 1064SOL    MW4 4288   1.812   1.148   1.841
 1065SOL     OW 4289   2.027   1.260   1.970
 1065SOL    HW2 4290   2.110   1.220   1.943
 1065SOL    HW3 4291   1.960   1.213   1.920
 1065SOL    MW4 4292   2.029   1.249   1.960
 1066SOL     OW 4293   2.094   1.522   1.869
 1066SOL    HW2 4294   2.083   1.439   1.916
 1066SOL    HW3 4295   2.063   1.504   1.781
 1066SOL    MW4 4296   2.088   1.509   1.864
 1067SOL     OW 4297   1.864   1.647   1.955
 1067SOL    HW2 4298   1.865   1.739   1.929
 1067SOL    HW3 4299   1.946   1.611   1.920
 1067SOL    MW4 4300   1.875   1.654   1.947
 1068SOL     OW 4301   1.846   1.908   1.887
 1068SOL    HW2 4302   1.770   1.955   1.922
 1068SOL    HW3 4303   1.831   1.904   1.793
 1068SOL    MW4 4304   1.834   1.914   1.879
 1069SOL     OW 4305   2.053   2.063   1.996
 1069SOL    HW2 4306   2.137   2.043   1.954
 1069SOL    HW3 4307   1.990   2.007   1.951
 1069SOL    MW4 4308   2.056   2.053   1.985
 1070SOL     OW 4309   2.073   2.308   1.888
 1070SOL    HW2 4310   2.155   2.344   1.923
 1070SOL    HW3 4311   2.061   2.225   1.933
 1070SOL    MW4 4312   2.082   2.302   1.898
 1071SOL     OW 4313   1.838   2.454   1.948
 1071SOL    HW2 4314   1.848   2.435   2.042
 1071SOL    HW3 4315   1.918   2.418   1.908
 1071SOL    MW4 4316   1.850   2.447   1.955
 1072SOL     OW 4317   1.741   2.715   1.889
 1072SOL    HW2 4318   1.776   2.631   1.920
 1072SOL    HW3 4319   1.762   2.717   1.796
 1072SOL    MW4 4320   1.748   2.704   1.881
 1073SOL     OW 4321   1.982   2.823   1.991
 1073SOL    HW2 4322   1.989   2.859   2.079
 1073SOL    HW3 4323   1.890   2.797   1.983
 1073SOL    MW4 4324   1.971   2.824   2.002
 1074SOL     OW 4325   1.972   3.043   1.823
 1074SOL    HW2 4326   1.918   3.104   1.874
 1074SOL    HW3 4327   1.975   2.963   1.875
 1074SOL    MW4 4328   1.965   3.041   1.836
 1075SOL     OW 4329   1.821   3.209   1.983
 1075SOL    HW2 4330   1.820   3.221   2.078
 1075SOL    HW3 4331   1.736   3.169   1.963
 1075SOL    MW4 4332   1.810   3.205   1.993
 1076SOL     OW 4333   1.804   3.449   1.851
 1076SOL    HW2 4334   1.806   3.361   1.888
 1076SOL    HW3 4335   1.720   3.485   1.879
 1076SOL    MW4 4336   1.793   3.442   1.860
 1077SOL     OW 4337   2.009   3.593   1.958
 1077SOL    HW2 4338   2.005   3.674   1.907
 1077SOL    HW3 4339   1.930   3.545   1.933
 1077SOL    MW4 4340   1.998   3.597   1.948
 1078SOL     OW 4341   2.022   3.833   1.822
 1078SOL    HW2 4342   2.093   3.883   1.863
 1078SOL    HW3 4343   2.044   3.832   1.729
 1078SOL    MW4 4344   2.034   3.840   1.815
 1079SOL     OW 4345   1.797   3.948   1.982
 1079SOL    HW2 4346   1.784   4.041   1.961
 1079SOL    HW3 4347   1.880   3.925   1.940
 1079SOL    MW4 4348   1.806   3.957   1.974
 1080SOL     OW 4349   1.836   4.207   1.866
 1080SOL    HW2 4350   1.748   4.244   1.876
 1080SOL    HW3 4351   1.857   4.222   1.774
 1080SOL    MW4 4352   1.827   4.214   1.855
 1081SOL     OW 4353   2.061   4.352   1.967
 1081SOL    HW2 4354   2.120   4.300   1.912
 1081SOL    HW3 4355   1.976   4.309   1.957
 1081SOL    MW4 4356   2.057   4.339   1.959
 1082SOL     OW 4357   2.453   4.605   1.839
 1082SOL    HW2 4358   2.529   4.650   1.876
 1082SOL    HW3 4359   2.437   4.531   1.897
 1082SOL    MW4 4360   2.461   4.602   1.851
 1083SOL     OW 4361   2.238   0.116   1.949
 1083SOL    HW2 4362   2.236   0.107   2.045
 1083SOL    HW3 4363   2.316   0.067   1.923
 1083SOL    MW4 4364   2.248   0.108   1.958
 1084SOL     OW 4365   2.263   0.379   1.822
 1084SOL    HW2 4366   2.270   0.294   1.867
 1084SOL    HW3 4367   2.185   0.419   1.859
 1084SOL    MW4 4368   2.254   0.373   1.833
 1085SOL     OW 4369   2.442   0.499   1.993
 1085SOL    HW2 4370   2.524   0.450   1.990
 1085SOL    HW3 4371   2.388   0.458   1.925
 1085SOL    MW4 4372   2.445   0.487   1.983
 1086SOL     OW 4373   2.476   0.755   1.922
 1086SOL    HW2 4374   2.453   0.664   1.943
 1086SOL    HW3 4375   2.459   0.763   1.828
 1086SOL    MW4 4376   2.470   0.744   1.912
 1087SOL     OW 4377   2.232   0.874   1.949
 1087SOL    HW2 4378   2.210   0.885   2.042
 1087SOL    HW3 4379   2.312   0.822   1.949
 1087SOL    MW4 4380   2.240   0.869   1.961
 1088SOL     OW 4381   2.239   1.135   1.850
 1088SOL    HW2 4382   2.318   1.177   1.885
 1088SOL    HW3 4383   2.249   1.042   1.872
 1088SOL    MW4 4384   2.251   1.128   1.858
 1089SOL     OW 4385   2.445   1.290   1.961
 1089SOL    HW2 4386   2.433   1.298   2.055
 1089SOL    HW3 4387   2.453   1.380   1.930
 1089SOL    MW4 4388   2.444   1.303   1.969
 1090SOL     OW 4389   2.491   1.552   1.870
 1090SOL    HW2 4390   2.418   1.605   1.900
 1090SOL    HW3 4391   2.480   1.546   1.775
 1090SOL    MW4 4392   2.480   1.558   1.862
 1091SOL     OW 4393   2.292   1.700   1.962
 1091SOL    HW2 4394   2.284   1.711   2.057
 1091SOL    HW3 4395   2.225   1.635   1.940
 1091SOL    MW4 4396   2.282   1.693   1.972
 1092SOL     OW 4397   2.271   1.938   1.842
 1092SOL    HW2 4398   2.341   1.989   1.883
 1092SOL    HW3 4399   2.273   1.854   1.888
 1092SOL    MW4 4400   2.281   1.934   1.853
 1093SOL     OW 4401   2.485   2.086   1.952
 1093SOL    HW2 4402   2.564   2.040   1.925
 1093SOL    HW3 4403   2.502   2.178   1.930
 1093SOL    MW4 4404   2.498   2.092   1.946
 1094SOL     OW 4405   2.541   2.335   1.855
 1094SOL    HW2 4406   2.614   2.379   1.900
 1094SOL    HW3 4407   2.463   2.383   1.883
 1094SOL    MW4 4408   2.541   2.347   1.865
 1095SOL     OW 4409   2.306   2.440   1.966
 1095SOL    HW2 4410   2.289   2.462   2.058
 1095SOL    HW3 4411   2.285   2.520   1.918
 1095SOL    MW4 4412   2.301   2.453   1.972
 1096SOL     OW 4413   2.218   2.691   1.873
 1096SOL    HW2 4414   2.131   2.722   1.896
 1096SOL    HW3 4415   2.216   2.682   1.777
 1096SOL    MW4 4416   2.207   2.694   1.863
 1097SOL     OW 4417   2.466   2.805   1.941
 1097SOL    HW2 4418   2.457   2.895   1.909
 1097SOL    HW3 4419   2.381   2.764   1.922
 1097SOL    MW4 4420   2.453   2.811   1.935
 1098SOL     OW 4421   2.450   3.064   1.838
 1098SOL    HW2 4422   2.359   3.083   1.862
 1098SOL    HW3 4423   2.451   3.071   1.743
 1098SOL    MW4 4424   2.438   3.068   1.829
 1099SOL     OW 4425   2.202   3.157   1.934
 1099SOL    HW2 4426   2.191   3.169   2.028
 1099SOL    HW3 4427   2.124   3.109   1.907
 1099SOL    MW4 4428   2.190   3.152   1.943
 1100SOL     OW 4429   2.211   3.426   1.821
 1100SOL    HW2 4430   2.195   3.336   1.851
 1100SOL    HW3 4431   2.145   3.479   1.867
 1100SOL    MW4 4432   2.200   3.421   1.831
 1101SOL     OW 4433   2.448   3.589   1.927
 1101SOL    HW2 4434   2.461   3.575   2.020
 1101SOL    HW3 4435   2.366   3.544   1.907
 1101SOL    MW4 4436   2.439   3.581   1.936
 1102SOL     OW 4437   2.494   3.850   1.828
 1102SOL    HW2 4438   2.405   3.881   1.843
 1102SOL    HW3 4439   2.499   3.766   1.872
 1102SOL    MW4 4440   2.483   3.843   1.836
 1103SOL     OW 4441   2.254   3.954   1.916
 1103SOL    HW2 4442   2.281   3.965   2.007
 1103SOL    HW3 4443   2.253   4.043   1.881
 1103SOL    MW4 4444   2.257   3.968   1.923
 1104SOL     OW 4445   2.245   4.203   1.818
 1104SOL    HW2 4446   2.317   4.254   1.856
 1104SOL    HW3 4447   2.259   4.210   1.724
 1104SOL    MW4 4448   2.256   4.211   1.811
 1105SOL     OW 4449   2.451   4.360   1.944
 1105SOL    HW2 4450   2.459   4.368   2.039
 1105SOL    HW3 4451   2.533   4.320   1.916
 1105SOL    MW4 4452   2.463   4.356   1.953
 1106SOL     OW 4453   2.917   4.644   1.881
 1106SOL    HW2 4454   2.987   4.693   1.925
 1106SOL    HW3 4455   2.926   4.555   1.915
 1106SOL    MW4 4456   2.928   4.639   1.892
 1107SOL     OW 4457   2.671   0.067   1.981
 1107SOL    HW2 4458   2.689   0.065   2.075
 1107SOL    HW3 4459   2.755   0.047   1.940
 1107SOL    MW4 4460   2.684   0.064   1.988
 1108SOL     OW 4461   2.661   0.344   1.929
 1108SOL    HW2 4462   2.742   0.388   1.956
 1108SOL    HW3 4463   2.668   0.256   1.966
 1108SOL    MW4 4464   2.673   0.339   1.938
 1109SOL     OW 4465   2.925   0.481   2.002
 1109SOL    HW2 4466   3.003   0.448   1.957
 1109SOL    HW3 4467   2.920   0.573   1.976
 1109SOL    MW4 4468   2.935   0.489   1.993
 1110SOL     OW 4469   2.944   0.749   1.887
 1110SOL    HW2 4470   3.029   0.785   1.912
 1110SOL    HW3 4471   2.881   0.816   1.916
 1110SOL    MW4 4472   2.947   0.763   1.894
 1111SOL     OW 4473   2.713   0.878   1.967
 1111SOL    HW2 4474   2.697   0.973   1.961
 1111SOL    HW3 4475   2.628   0.838   1.949
 1111SOL    MW4 4476   2.700   0.886   1.964
 1112SOL     OW 4477   2.681   1.156   1.912
 1112SOL    HW2 4478   2.604   1.204   1.943
 1112SOL    HW3 4479   2.672   1.155   1.817
 1112SOL    MW4 4480   2.670   1.162   1.904
 1113SOL     OW 4481   2.927   1.289   1.977
 1113SOL    HW2 4482   2.918   1.357   1.910
 1113SOL    HW3 4483   2.847   1.236   1.969
 1113SOL    MW4 4484   2.915   1.291   1.967
 1114SOL     OW 4485   2.923   1.542   1.834
 1114SOL    HW2 4486   3.002   1.592   1.855
 1114SOL    HW3 4487   2.913   1.553   1.739
 1114SOL    MW4 4488   2.932   1.550   1.824
 1115SOL     OW 4489   2.716   1.682   1.957
 1115SOL    HW2 4490   2.781   1.621   1.922
 1115SOL    HW3 4491   2.632   1.636   1.946
 1115SOL    MW4 4492   2.713   1.668   1.951
 1116SOL     OW 4493   2.750   1.961   1.861
 1116SOL    HW2 4494   2.810   2.006   1.920
 1116SOL    HW3 4495   2.753   1.869   1.889
 1116SOL    MW4 4496   2.759   1.955   1.873
 1117SOL     OW 4497   2.932   2.133   1.994
 1117SOL    HW2 4498   2.939   2.119   2.088
 1117SOL    HW3 4499   3.000   2.077   1.956
 1117SOL    MW4 4500   2.942   2.124   2.002
 1118SOL     OW 4501   2.990   2.388   1.839
 1118SOL    HW2 4502   3.073   2.421   1.873
 1118SOL    HW3 4503   2.981   2.301   1.877
 1118SOL    MW4 4504   3.000   2.381   1.848
 1119SOL     OW 4505   2.766   2.453   1.975
 1119SOL    HW2 4506   2.744   2.542   1.948
 1119SOL    HW3 4507   2.850   2.435   1.933
 1119SOL    MW4 4508   2.774   2.462   1.966
 1120SOL     OW 4509   2.714   2.703   1.870
 1120SOL    HW2 4510   2.632   2.742   1.898
 1120SOL    HW3 4511   2.702   2.688   1.776
 1120SOL    MW4 4512   2.701   2.706   1.861
 1121SOL     OW 4513   2.879   2.894   1.961
 1121SOL    HW2 4514   2.876   2.985   1.931
 1121SOL    HW3 4515   2.814   2.849   1.907
 1121SOL    MW4 4516   2.870   2.900   1.950
 1122SOL     OW 4517   2.877   3.148   1.851
 1122SOL    HW2 4518   2.959   3.180   1.888
 1122SOL    HW3 4519   2.810   3.174   1.914
 1122SOL    MW4 4520   2.879   3.156   1.864
 1123SOL     OW 4521   2.649   3.204   1.991
 1123SOL    HW2 4522   2.648   3.292   1.952
 1123SOL    HW3 4523   2.578   3.157   1.947
 1123SOL    MW4 4524   2.639   3.210   1.980
 1124SOL     OW 4525   2.686   3.454   1.837
 1124SOL    HW2 4526   2.757   3.499   1.882
 1124SOL    HW3 4527   2.608   3.507   1.854
 1124SOL    MW4 4528   2.685   3.467   1.845
 1125SOL     OW 4529   2.888   3.601   1.944
 1125SOL    HW2 4530   2.896   3.612   2.039
 1125SOL    HW3 4531   2.973   3.567   1.917
 1125SOL    MW4 4532   2.900   3.598   1.953
 1126SOL     OW 4533   2.925   3.856   1.864
 1126SOL    HW2 4534   2.900   3.771   1.901
 1126SOL    HW3 4535   2.919   3.845   1.770
 1126SOL    MW4 4536   2.921   3.843   1.857
 1127SOL     OW 4537   2.714   4.008   1.961
 1127SOL    HW2 4538   2.793   3.958   1.942
 1127SOL    HW3 4539   2.646   3.964   1.910
 1127SOL    MW4 4540   2.715   3.995   1.952
 1128SOL     OW 4541   2.714   4.264   1.862
 1128SOL    HW2 4542   2.732   4.173   1.885
 1128SOL    HW3 4543   2.709   4.264   1.766
 1128SOL    MW4 4544   2.716   4.252   1.852
 1129SOL     OW 4545   2.940   4.400   1.974
 1129SOL    HW2 4546   2.943   4.397   2.070
 1129SOL    HW3 4547   2.861   4.351   1.951
 1129SOL    MW4 4548   2.930   4.393   1.984
 1130SOL     OW 4549   3.352   0.012   1.890
 1130SOL    HW2 4550   3.355  -0.071   1.936
 1130SOL    HW3 4551   3.327  -0.011   1.801
 1130SOL    MW4 4552   3.349  -0.002   1.884
 1131SOL     OW 4553   3.113   0.106   2.003
 1131SOL    HW2 4554   3.121   0.109   2.098
 1131SOL    HW3 4555   3.203   0.094   1.972
 1131SOL    MW4 4556   3.126   0.105   2.011
 1132SOL     OW 4557   3.162   0.370   1.892
 1132SOL    HW2 4558   3.156   0.282   1.930
 1132SOL    HW3 4559   3.154   0.355   1.797
 1132SOL    MW4 4560   3.160   0.356   1.884
 1133SOL     OW 4561   3.374   0.480   2.015
 1133SOL    HW2 4562   3.455   0.452   1.972
 1133SOL    HW3 4563   3.305   0.428   1.973
 1133SOL    MW4 4564   3.375   0.469   2.004
 1134SOL     OW 4565   3.407   0.735   1.896
 1134SOL    HW2 4566   3.341   0.784   1.945
 1134SOL    HW3 4567   3.416   0.652   1.943
 1134SOL    MW4 4568   3.400   0.731   1.909
 1135SOL     OW 4569   3.173   0.861   1.980
 1135SOL    HW2 4570   3.144   0.858   2.071
 1135SOL    HW3 4571   3.182   0.955   1.961
 1135SOL    MW4 4572   3.170   0.873   1.989
 1136SOL     OW 4573   3.167   1.132   1.898
 1136SOL    HW2 4574   3.249   1.178   1.917
 1136SOL    HW3 4575   3.099   1.189   1.934
 1136SOL    MW4 4576   3.169   1.146   1.905
 1137SOL     OW 4577   3.384   1.284   1.968
 1137SOL    HW2 4578   3.388   1.270   2.063
 1137SOL    HW3 4579   3.409   1.376   1.957
 1137SOL    MW4 4580   3.388   1.295   1.979
 1138SOL     OW 4581   3.395   1.543   1.870
 1138SOL    HW2 4582   3.457   1.602   1.912
 1138SOL    HW3 4583   3.309   1.571   1.902
 1138SOL    MW4 4584   3.392   1.555   1.880
 1139SOL     OW 4585   3.155   1.690   1.916
 1139SOL    HW2 4586   3.167   1.674   2.010
 1139SOL    HW3 4587   3.144   1.785   1.909
 1139SOL    MW4 4588   3.155   1.700   1.928
 1140SOL     OW 4589   3.133   1.997   1.876
 1140SOL    HW2 4590   3.215   2.028   1.912
 1140SOL    HW3 4591   3.143   2.005   1.781
 1140SOL    MW4 4592   3.145   2.002   1.868
 1141SOL     OW 4593   3.388   2.070   1.938
 1141SOL    HW2 4594   3.473   2.033   1.915
 1141SOL    HW3 4595   3.399   2.164   1.929
 1141SOL    MW4 4596   3.400   2.077   1.934
 1142SOL     OW 4597   3.410   2.325   1.872
 1142SOL    HW2 4598   3.344   2.382   1.912
 1142SOL    HW3 4599   3.392   2.329   1.778
 1142SOL    MW4 4600   3.399   2.333   1.865
 1143SOL     OW 4601   3.203   2.501   1.963
 1143SOL    HW2 4602   3.198   2.483   2.057
 1143SOL    HW3 4603   3.168   2.589   1.953
 1143SOL    MW4 4604   3.198   2.510   1.974
 1144SOL     OW 4605   3.125   2.748   1.869
 1144SOL    HW2 4606   3.056   2.803   1.907
 1144SOL    HW3 4607   3.099   2.737   1.778
 1144SOL    MW4 4608   3.112   2.753   1.862
 1145SOL     OW 4609   3.395   2.820   1.966
 1145SOL    HW2 4610   3.395   2.805   2.061
 1145SOL    HW3 4611   3.305   2.802   1.939
 1145SOL    MW4 4612   3.383   2.816   1.975
 1146SOL     OW 4613   3.361   3.095   1.897
 1146SOL    HW2 4614   3.434   3.141   1.939
 1146SOL    HW3 4615   3.377   3.003   1.917
 1146SOL    MW4 4616   3.373   3.089   1.905
 1147SOL     OW 4617   3.121   3.225   1.971
 1147SOL    HW2 4618   3.139   3.315   1.944
 1147SOL    HW3 4619   3.200   3.177   1.947
 1147SOL    MW4 4620   3.134   3.231   1.964
 1148SOL     OW 4621   3.137   3.483   1.876
 1148SOL    HW2 4622   3.214   3.536   1.899
 1148SOL    HW3 4623   3.142   3.472   1.781
 1148SOL    MW4 4624   3.148   3.489   1.867
 1149SOL     OW 4625   3.360   3.645   1.991
 1149SOL    HW2 4626   3.435   3.608   1.945
 1149SOL    HW3 4627   3.345   3.730   1.948
 1149SOL    MW4 4628   3.368   3.652   1.979
 1150SOL     OW 4629   3.363   3.888   1.864
 1150SOL    HW2 4630   3.287   3.928   1.907
 1150SOL    HW3 4631   3.347   3.901   1.771
 1150SOL    MW4 4632   3.350   3.895   1.858
 1151SOL     OW 4633   3.134   4.023   1.935
 1151SOL    HW2 4634   3.135   4.010   2.030
 1151SOL    HW3 4635   3.059   3.972   1.904
 1151SOL    MW4 4636   3.125   4.015   1.943
 1152SOL     OW 4637   3.168   4.289   1.870
 1152SOL    HW2 4638   3.168   4.200   1.905
 1152SOL    HW3 4639   3.086   4.327   1.901
 1152SOL    MW4 4640   3.157   4.282   1.879
 1153SOL     OW 4641   3.365   4.429   1.984
 1153SOL    HW2 4642   3.447   4.399   1.947
 1153SOL    HW3 4643   3.297   4.386   1.932
 1153SOL    MW4 4644   3.367   4.420   1.972
 1154SOL     OW 4645   3.834   0.008   1.832
 1154SOL    HW2 4646   3.836  -0.081   1.870
 1154SOL    HW3 4647   3.744   0.038   1.848
 1154SOL    MW4 4648   3.822   0.000   1.839
 1155SOL     OW 4649   3.601   0.119   1.944
 1155SOL    HW2 4650   3.607   0.097   2.037
 1155SOL    HW3 4651   3.514   0.089   1.918
 1155SOL    MW4 4652   3.590   0.112   1.953
 1156SOL     OW 4653   3.596   0.399   1.919
 1156SOL    HW2 4654   3.597   0.303   1.917
 1156SOL    HW3 4655   3.598   0.424   1.827
 1156SOL    MW4 4656   3.596   0.390   1.907
 1157SOL     OW 4657   3.821   0.520   2.005
 1157SOL    HW2 4658   3.816   0.609   1.972
 1157SOL    HW3 4659   3.735   0.483   1.988
 1157SOL    MW4 4660   3.809   0.527   1.999
 1158SOL     OW 4661   3.851   0.789   1.913
 1158SOL    HW2 4662   3.772   0.842   1.907
 1158SOL    HW3 4663   3.864   0.755   1.824
 1158SOL    MW4 4664   3.842   0.792   1.900
 1159SOL     OW 4665   3.613   0.889   2.006
 1159SOL    HW2 4666   3.606   0.974   1.963
 1159SOL    HW3 4667   3.540   0.838   1.970
 1159SOL    MW4 4668   3.602   0.894   1.996
 1160SOL     OW 4669   3.613   1.142   1.877
 1160SOL    HW2 4670   3.543   1.201   1.903
 1160SOL    HW3 4671   3.626   1.160   1.784
 1160SOL    MW4 4672   3.605   1.152   1.868
 1161SOL     OW 4673   3.863   1.258   1.949
 1161SOL    HW2 4674   3.854   1.250   2.044
 1161SOL    HW3 4675   3.777   1.236   1.914
 1161SOL    MW4 4676   3.851   1.254   1.957
 1162SOL     OW 4677   3.824   1.526   1.853
 1162SOL    HW2 4678   3.893   1.588   1.878
 1162SOL    HW3 4679   3.844   1.446   1.903
 1162SOL    MW4 4680   3.836   1.524   1.863
 1163SOL     OW 4681   3.619   1.655   1.997
 1163SOL    HW2 4682   3.613   1.745   1.966
 1163SOL    HW3 4683   3.687   1.616   1.943
 1163SOL    MW4 4684   3.627   1.662   1.986
 1164SOL     OW 4685   3.621   1.935   1.885
 1164SOL    HW2 4686   3.702   1.982   1.907
 1164SOL    HW3 4687   3.623   1.928   1.789
 1164SOL    MW4 4688   3.632   1.940   1.875
 1165SOL     OW 4689   3.868   2.100   1.962
 1165SOL    HW2 4690   3.947   2.062   1.925
 1165SOL    HW3 4691   3.862   2.187   1.922
 1165SOL    MW4 4692   3.878   2.106   1.952
 1166SOL     OW 4693   3.829   2.321   1.800
 1166SOL    HW2 4694   3.904   2.379   1.815
 1166SOL    HW3 4695   3.759   2.355   1.855
 1166SOL    MW4 4696   3.830   2.333   1.809
 1167SOL     OW 4697   3.640   2.445   1.953
 1167SOL    HW2 4698   3.635   2.534   1.918
 1167SOL    HW3 4699   3.563   2.401   1.917
 1167SOL    MW4 4700   3.629   2.451   1.943
 1168SOL     OW 4701   3.592   2.692   1.838
 1168SOL    HW2 4702   3.668   2.744   1.864
 1168SOL    HW3 4703   3.518   2.732   1.884
 1168SOL    MW4 4704   3.592   2.704   1.847
 1169SOL     OW 4705   3.820   2.813   1.923
 1169SOL    HW2 4706   3.821   2.806   2.019
 1169SOL    HW3 4707   3.801   2.905   1.907
 1169SOL    MW4 4708   3.818   2.824   1.934
 1170SOL     OW 4709   3.820   3.098   1.895
 1170SOL    HW2 4710   3.743   3.141   1.931
 1170SOL    HW3 4711   3.813   3.111   1.800
 1170SOL    MW4 4712   3.809   3.105   1.887
 1171SOL     OW 4713   3.568   3.236   2.002
 1171SOL    HW2 4714   3.583   3.230   2.096
 1171SOL    HW3 4715   3.579   3.329   1.982
 1171SOL    MW4 4716   3.571   3.247   2.011
 1172SOL     OW 4717   3.581   3.503   1.869
 1172SOL    HW2 4718   3.660   3.550   1.896
 1172SOL    HW3 4719   3.577   3.517   1.774
 1172SOL    MW4 4720   3.591   3.511   1.860
 1173SOL     OW 4721   3.815   3.627   1.947
 1173SOL    HW2 4722   3.902   3.592   1.929
 1173SOL    HW3 4723   3.819   3.717   1.916
 1173SOL    MW4 4724   3.827   3.634   1.940
 1174SOL     OW 4725   3.828   3.892   1.910
 1174SOL    HW2 4726   3.745   3.922   1.947
 1174SOL    HW3 4727   3.820   3.912   1.816
 1174SOL    MW4 4728   3.816   3.899   1.902
 1175SOL     OW 4729   3.590   4.045   1.958
 1175SOL    HW2 4730   3.577   4.035   2.052
 1175SOL    HW3 4731   3.520   3.993   1.918
 1175SOL    MW4 4732   3.579   4.037   1.965
 1176SOL     OW 4733   3.595   4.315   1.858
 1176SOL    HW2 4734   3.683   4.351   1.865
 1176SOL    HW3 4735   3.605   4.222   1.880
 1176SOL    MW4 4736   3.608   4.307   1.862
 1177SOL     OW 4737   3.834   4.416   1.949
 1177SOL    HW2 4738   3.816   4.404   2.042
 1177SOL    HW3 4739   3.917   4.370   1.935
 1177SOL    MW4 4740   3.843   4.408   1.960
 1178SOL     OW 4741   4.261   4.655   1.899
 1178SOL    HW2 4742   4.191   4.711   1.931
 1178SOL    HW3 4743   4.341   4.692   1.937
 1178SOL    MW4 4744   4.262   4.667   1.908
 1179SOL     OW 4745   4.035   0.144   1.963
 1179SOL    HW2 4746   4.022   0.145   2.058
 1179SOL    HW3 4747   3.957   0.100   1.929
 1179SOL    MW4 4748   4.023   0.138   1.971
 1180SOL     OW 4749   4.043   0.417   1.890
 1180SOL    HW2 4750   4.039   0.324   1.912
 1180SOL    HW3 4751   3.967   0.455   1.933
 1180SOL    MW4 4752   4.032   0.410   1.898
 1181SOL     OW 4753   4.289   0.532   1.973
 1181SOL    HW2 4754   4.272   0.557   2.064
 1181SOL    HW3 4755   4.214   0.479   1.948
 1181SOL    MW4 4756   4.277   0.529   1.982
 1182SOL     OW 4757   4.328   0.775   1.880
 1182SOL    HW2 4758   4.327   0.685   1.913
 1182SOL    HW3 4759   4.327   0.766   1.785
 1182SOL    MW4 4760   4.328   0.762   1.872
 1183SOL     OW 4761   4.105   0.889   1.989
 1183SOL    HW2 4762   4.179   0.834   1.965
 1183SOL    HW3 4763   4.028   0.833   1.975
 1183SOL    MW4 4764   4.104   0.874   1.984
 1184SOL     OW 4765   4.097   1.144   1.883
 1184SOL    HW2 4766   4.100   1.053   1.911
 1184SOL    HW3 4767   4.012   1.177   1.914
 1184SOL    MW4 4768   4.086   1.137   1.891
 1185SOL     OW 4769   4.307   1.334   1.977
 1185SOL    HW2 4770   4.283   1.333   2.070
 1185SOL    HW3 4771   4.232   1.296   1.932
 1185SOL    MW4 4772   4.294   1.329   1.984
 1186SOL     OW 4773   4.277   1.608   1.880
 1186SOL    HW2 4774   4.274   1.519   1.915
 1186SOL    HW3 4775   4.291   1.596   1.786
 1186SOL    MW4 4776   4.278   1.594   1.872
 1187SOL     OW 4777   4.020   1.712   1.933
 1187SOL    HW2 4778   4.012   1.706   2.029
 1187SOL    HW3 4779   4.103   1.669   1.914
 1187SOL    MW4 4780   4.030   1.706   1.943
 1188SOL     OW 4781   4.082   1.972   1.862
 1188SOL    HW2 4782   4.061   1.883   1.889
 1188SOL    HW3 4783   4.095   1.966   1.767
 1188SOL    MW4 4784   4.081   1.960   1.853
 1189SOL     OW 4785   4.326   2.014   1.956
 1189SOL    HW2 4786   4.317   2.015   2.052
 1189SOL    HW3 4787   4.236   2.021   1.924
 1189SOL    MW4 4788   4.313   2.015   1.965
 1190SOL     OW 4789   4.329   2.297   1.894
 1190SOL    HW2 4790   4.353   2.208   1.922
 1190SOL    HW3 4791   4.397   2.353   1.932
 1190SOL    MW4 4792   4.342   2.293   1.903
 1191SOL     OW 4793   4.068   2.410   1.925
 1191SOL    HW2 4794   4.065   2.409   2.021
 1191SOL    HW3 4795   4.154   2.373   1.904
 1191SOL    MW4 4796   4.079   2.405   1.935
 1192SOL     OW 4797   4.068   2.694   1.869
 1192SOL    HW2 4798   4.060   2.600   1.884
 1192SOL    HW3 4799   3.983   2.730   1.895
 1192SOL    MW4 4800   4.056   2.686   1.875
 1193SOL     OW 4801   4.264   2.852   1.980
 1193SOL    HW2 4802   4.278   2.841   2.074
 1193SOL    HW3 4803   4.183   2.804   1.962
 1193SOL    MW4 4804   4.255   2.844   1.990
 1194SOL     OW 4805   4.285   3.116   1.860
 1194SOL    HW2 4806   4.198   3.150   1.882
 1194SOL    HW3 4807   4.286   3.027   1.895
 1194SOL    MW4 4808   4.274   3.109   1.867
 1195SOL     OW 4809   4.056   3.219   1.978
 1195SOL    HW2 4810   4.070   3.209   2.072
 1195SOL    HW3 4811   3.975   3.172   1.960
 1195SOL    MW4 4812   4.047   3.211   1.988
 1196SOL     OW 4813   4.046   3.483   1.873
 1196SOL    HW2 4814   4.123   3.538   1.886
 1196SOL    HW3 4815   4.056   3.411   1.935
 1196SOL    MW4 4816   4.057   3.481   1.883
 1197SOL     OW 4817   4.250   3.634   1.981
 1197SOL    HW2 4818   4.246   3.727   1.963
 1197SOL    HW3 4819   4.326   3.603   1.931
 1197SOL    MW4 4820   4.259   3.642   1.972
 1198SOL     OW 4821   4.273   3.889   1.924
 1198SOL    HW2 4822   4.355   3.938   1.938
 1198SOL    HW3 4823   4.273   3.868   1.831
 1198SOL    MW4 4824   4.284   3.893   1.914
 1199SOL     OW 4825   4.055   4.037   1.968
 1199SOL    HW2 4826   4.134   3.984   1.961
 1199SOL    HW3 4827   3.983   3.974   1.958
 1199SOL    MW4 4828   4.056   4.022   1.966
 1200SOL     OW 4829   4.074   4.292   1.879
 1200SOL    HW2 4830   4.132   4.345   1.933
 1200SOL    HW3 4831   4.076   4.205   1.919
 1200SOL    MW4 4832   4.082   4.287   1.891
 1201SOL     OW 4833   4.289   4.403   2.007
 1201SOL    HW2 4834   4.274   4.403   2.102
 1201SOL    HW3 4835   4.289   4.496   1.984
 1201SOL    MW4 4836   4.287   4.416   2.016
 1202SOL     OW 4837   0.238   4.638   2.327
 1202SOL    HW2 4838   0.233   4.630   2.422
 1202SOL    HW3 4839   0.322   4.680   2.310
 1202SOL    MW4 4840   0.248   4.642   2.337
 1203SOL     OW 4841   4.483   0.100   2.276
 1203SOL    HW2 4842   4.561   0.059   2.314
 1203SOL    HW3 4843   4.502   0.106   2.183
 1203SOL    MW4 4844   4.496   0.095   2.269
 1204SOL     OW 4845   0.003   0.395   2.353
 1204SOL    HW2 4846   0.087   0.408   2.310
 1204SOL    HW3 4847  -0.014   0.301   2.347
 1204SOL    MW4 4848   0.012   0.384   2.347
 1205SOL     OW 4849   0.233   0.486   2.236
 1205SOL    HW2 4850   0.321   0.458   2.263
 1205SOL    HW3 4851   0.241   0.501   2.142
 1205SOL    MW4 4852   0.246   0.484   2.227
 1206SOL     OW 4853   0.203   0.756   2.308
 1206SOL    HW2 4854   0.213   0.759   2.403
 1206SOL    HW3 4855   0.200   0.662   2.288
 1206SOL    MW4 4856   0.204   0.744   2.318
 1207SOL     OW 4857   4.471   0.911   2.267
 1207SOL    HW2 4858   4.545   0.851   2.274
 1207SOL    HW3 4859   4.464   0.931   2.173
 1207SOL    MW4 4860   4.480   0.906   2.255
 1208SOL     OW 4861   0.004   1.164   2.363
 1208SOL    HW2 4862  -0.018   1.159   2.456
 1208SOL    HW3 4863  -0.017   1.077   2.328
 1208SOL    MW4 4864  -0.002   1.152   2.370
 1209SOL     OW 4865   0.230   1.270   2.254
 1209SOL    HW2 4866   0.145   1.243   2.288
 1209SOL    HW3 4867   0.218   1.274   2.159
 1209SOL    MW4 4868   0.217   1.267   2.246
 1210SOL     OW 4869   0.237   1.520   2.362
 1210SOL    HW2 4870   0.233   1.497   2.455
 1210SOL    HW3 4871   0.246   1.436   2.317
 1210SOL    MW4 4872   0.238   1.506   2.368
 1211SOL     OW 4873   4.479   1.662   2.285
 1211SOL    HW2 4874   4.488   1.748   2.325
 1211SOL    HW3 4875   4.566   1.622   2.293
 1211SOL    MW4 4876   4.492   1.668   2.292
 1212SOL     OW 4877   4.463   1.911   2.405
 1212SOL    HW2 4878   4.386   1.932   2.352
 1212SOL    HW3 4879   4.536   1.952   2.359
 1212SOL    MW4 4880   4.463   1.919   2.392
 1213SOL     OW 4881   0.219   2.017   2.269
 1213SOL    HW2 4882   0.304   1.977   2.288
 1213SOL    HW3 4883   0.213   2.018   2.174
 1213SOL    MW4 4884   0.229   2.012   2.259
 1214SOL     OW 4885   0.173   2.290   2.322
 1214SOL    HW2 4886   0.154   2.285   2.415
 1214SOL    HW3 4887   0.180   2.199   2.293
 1214SOL    MW4 4888   0.172   2.277   2.330
 1215SOL     OW 4889   4.462   2.435   2.231
 1215SOL    HW2 4890   4.488   2.518   2.271
 1215SOL    HW3 4891   4.536   2.376   2.247
 1215SOL    MW4 4892   4.475   2.438   2.238
 1216SOL     OW 4893   0.009   2.674   2.374
 1216SOL    HW2 4894  -0.002   2.673   2.469
 1216SOL    HW3 4895   0.079   2.736   2.358
 1216SOL    MW4 4896   0.017   2.682   2.384
 1217SOL     OW 4897   0.234   2.822   2.282
 1217SOL    HW2 4898   0.315   2.785   2.317
 1217SOL    HW3 4899   0.242   2.812   2.187
 1217SOL    MW4 4900   0.246   2.816   2.274
 1218SOL     OW 4901   0.227   3.105   2.331
 1218SOL    HW2 4902   0.141   3.127   2.296
 1218SOL    HW3 4903   0.240   3.013   2.307
 1218SOL    MW4 4904   0.218   3.095   2.323
 1219SOL     OW 4905   4.471   3.214   2.259
 1219SOL    HW2 4906   4.466   3.302   2.297
 1219SOL    HW3 4907   4.449   3.227   2.166
 1219SOL    MW4 4908   4.468   3.228   2.251
 1220SOL     OW 4909   4.467   3.478   2.390
 1220SOL    HW2 4910   4.470   3.483   2.485
 1220SOL    HW3 4911   4.382   3.515   2.366
 1220SOL    MW4 4912   4.456   3.483   2.399
 1221SOL     OW 4913   0.168   3.596   2.240
 1221SOL    HW2 4914   0.236   3.545   2.283
 1221SOL    HW3 4915   0.087   3.570   2.284
 1221SOL    MW4 4916   0.166   3.586   2.251
 1222SOL     OW 4917   0.243   3.861   2.352
 1222SOL    HW2 4918   0.173   3.925   2.340
 1222SOL    HW3 4919   0.209   3.780   2.312
 1222SOL    MW4 4920   0.229   3.858   2.345
 1223SOL     OW 4921   0.054   4.037   2.276
 1223SOL    HW2 4922   0.023   4.123   2.302
 1223SOL    HW3 4923   0.053   4.039   2.180
 1223SOL    MW4 4924   0.050   4.048   2.267
 1224SOL     OW 4925   0.001   4.293   2.372
 1224SOL    HW2 4926   0.011   4.289   2.467
 1224SOL    HW3 4927   0.091   4.297   2.338
 1224SOL    MW4 4928   0.015   4.293   2.380
 1225SOL     OW 4929   0.271   4.351   2.301
 1225SOL    HW2 4930   0.353   4.304   2.316
 1225SOL    HW3 4931   0.287   4.438   2.337
 1225SOL    MW4 4932   0.284   4.356   2.308
 1226SOL     OW 4933   0.687   4.625   2.366
 1226SOL    HW2 4934   0.672   4.615   2.460
 1226SOL    HW3 4935   0.745   4.701   2.358
 1226SOL    MW4 4936   0.693   4.633   2.377
 1227SOL     OW 4937   0.477   0.110   2.298
 1227SOL    HW2 4938   0.547   0.050   2.325
 1227SOL    HW3 4939   0.478   0.107   2.202
 1227SOL    MW4 4940   0.486   0.102   2.289
 1228SOL     OW 4941   0.474   0.385   2.332
 1228SOL    HW2 4942   0.427   0.389   2.416
 1228SOL    HW3 4943   0.478   0.291   2.312
 1228SOL    MW4 4944   0.469   0.373   2.341
 1229SOL     OW 4945   0.683   0.544   2.254
 1229SOL    HW2 4946   0.691   0.626   2.304
 1229SOL    HW3 4947   0.607   0.501   2.292
 1229SOL    MW4 4948   0.674   0.549   2.266
 1230SOL     OW 4949   0.672   0.805   2.376
 1230SOL    HW2 4950   0.654   0.810   2.470
 1230SOL    HW3 4951   0.593   0.839   2.335
 1230SOL    MW4 4952   0.659   0.810   2.383
 1231SOL     OW 4953   0.442   0.895   2.236
 1231SOL    HW2 4954   0.374   0.830   2.255
 1231SOL    HW3 4955   0.461   0.883   2.143
 1231SOL    MW4 4956   0.435   0.884   2.226
 1232SOL     OW 4957   0.454   1.153   2.359
 1232SOL    HW2 4958   0.458   1.067   2.317
 1232SOL    HW3 4959   0.372   1.192   2.327
 1232SOL    MW4 4960   0.444   1.147   2.349
 1233SOL     OW 4961   0.665   1.274   2.235
 1233SOL    HW2 4962   0.662   1.366   2.262
 1233SOL    HW3 4963   0.594   1.232   2.285
 1233SOL    MW4 4964   0.655   1.281   2.245
 1234SOL     OW 4965   0.700   1.540   2.367
 1234SOL    HW2 4966   0.693   1.540   2.462
 1234SOL    HW3 4967   0.770   1.602   2.347
 1234SOL    MW4 4968   0.708   1.548   2.377
 1235SOL     OW 4969   0.469   1.656   2.252
 1235SOL    HW2 4970   0.547   1.616   2.292
 1235SOL    HW3 4971   0.396   1.608   2.289
 1235SOL    MW4 4972   0.470   1.645   2.262
 1236SOL     OW 4973   0.473   1.919   2.338
 1236SOL    HW2 4974   0.540   1.966   2.288
 1236SOL    HW3 4975   0.487   1.827   2.317
 1236SOL    MW4 4976   0.484   1.913   2.329
 1237SOL     OW 4977   0.674   2.073   2.236
 1237SOL    HW2 4978   0.756   2.042   2.276
 1237SOL    HW3 4979   0.666   2.163   2.267
 1237SOL    MW4 4980   0.684   2.081   2.246
 1238SOL     OW 4981   0.658   2.342   2.368
 1238SOL    HW2 4982   0.669   2.331   2.463
 1238SOL    HW3 4983   0.744   2.371   2.337
 1238SOL    MW4 4984   0.671   2.344   2.377
 1239SOL     OW 4985   0.410   2.418   2.261
 1239SOL    HW2 4986   0.490   2.382   2.299
 1239SOL    HW3 4987   0.340   2.361   2.294
 1239SOL    MW4 4988   0.411   2.406   2.270
 1240SOL     OW 4989   0.446   2.671   2.369
 1240SOL    HW2 4990   0.444   2.665   2.464
 1240SOL    HW3 4991   0.448   2.580   2.339
 1240SOL    MW4 4992   0.446   2.659   2.378
 1241SOL     OW 4993   0.668   2.823   2.284
 1241SOL    HW2 4994   0.740   2.771   2.320
 1241SOL    HW3 4995   0.589   2.777   2.313
 1241SOL    MW4 4996   0.667   2.810   2.293
 1242SOL     OW 4997   0.674   3.091   2.397
 1242SOL    HW2 4998   0.608   3.142   2.350
 1242SOL    HW3 4999   0.668   3.003   2.358
 1242SOL    MW4 5000   0.664   3.086   2.386
 1243SOL     OW 5001   0.468   3.229   2.276
 1243SOL    HW2 5002   0.384   3.186   2.290
 1243SOL    HW3 5003   0.468   3.252   2.183
 1243SOL    MW4 5004   0.457   3.226   2.266
 1244SOL     OW 5005   0.401   3.485   2.377
 1244SOL    HW2 5006   0.476   3.531   2.340
 1244SOL    HW3 5007   0.412   3.394   2.348
 1244SOL    MW4 5008   0.412   3.479   2.368
 1245SOL     OW 5009   0.631   3.586   2.259
 1245SOL    HW2 5010   0.663   3.666   2.300
 1245SOL    HW3 5011   0.610   3.611   2.169
 1245SOL    MW4 5012   0.632   3.600   2.253
 1246SOL     OW 5013   0.725   3.830   2.389
 1246SOL    HW2 5014   0.713   3.841   2.483
 1246SOL    HW3 5015   0.645   3.865   2.349
 1246SOL    MW4 5016   0.713   3.836   2.396
 1247SOL     OW 5017   0.506   3.942   2.270
 1247SOL    HW2 5018   0.422   3.910   2.303
 1247SOL    HW3 5019   0.488   3.972   2.181
 1247SOL    MW4 5020   0.493   3.942   2.263
 1248SOL     OW 5021   0.495   4.226   2.352
 1248SOL    HW2 5022   0.568   4.272   2.311
 1248SOL    HW3 5023   0.504   4.135   2.323
 1248SOL    MW4 5024   0.506   4.220   2.343
 1249SOL     OW 5025   0.701   4.372   2.238
 1249SOL    HW2 5026   0.704   4.455   2.285
 1249SOL    HW3 5027   0.693   4.396   2.146
 1249SOL    MW4 5028   0.700   4.386   2.232
 1250SOL     OW 5029   1.128   4.651   2.337
 1250SOL    HW2 5030   1.134   4.651   2.432
 1250SOL    HW3 5031   1.049   4.702   2.317
 1250SOL    MW4 5032   1.118   4.658   2.347
 1251SOL     OW 5033   0.904   0.139   2.283
 1251SOL    HW2 5034   0.904   0.219   2.335
 1251SOL    HW3 5035   0.922   0.169   2.194
 1251SOL    MW4 5036   0.906   0.154   2.278
 1252SOL     OW 5037   0.896   0.405   2.356
 1252SOL    HW2 5038   0.963   0.463   2.318
 1252SOL    HW3 5039   0.813   0.442   2.326
 1252SOL    MW4 5040   0.894   0.418   2.347
 1253SOL     OW 5041   1.127   0.549   2.243
 1253SOL    HW2 5042   1.191   0.487   2.279
 1253SOL    HW3 5043   1.121   0.526   2.150
 1253SOL    MW4 5044   1.135   0.538   2.235
 1254SOL     OW 5045   1.131   0.807   2.343
 1254SOL    HW2 5046   1.046   0.848   2.325
 1254SOL    HW3 5047   1.126   0.723   2.297
 1254SOL    MW4 5048   1.119   0.801   2.334
 1255SOL     OW 5049   0.898   0.910   2.249
 1255SOL    HW2 5050   0.900   1.003   2.270
 1255SOL    HW3 5051   0.820   0.877   2.294
 1255SOL    MW4 5052   0.888   0.918   2.258
 1256SOL     OW 5053   0.901   1.172   2.354
 1256SOL    HW2 5054   0.973   1.203   2.299
 1256SOL    HW3 5055   0.824   1.214   2.318
 1256SOL    MW4 5056   0.901   1.181   2.342
 1257SOL     OW 5057   1.139   1.292   2.215
 1257SOL    HW2 5058   1.216   1.242   2.241
 1257SOL    HW3 5059   1.148   1.303   2.120
 1257SOL    MW4 5060   1.150   1.287   2.206
 1258SOL     OW 5061   1.146   1.557   2.384
 1258SOL    HW2 5062   1.069   1.605   2.354
 1258SOL    HW3 5063   1.148   1.478   2.329
 1258SOL    MW4 5064   1.136   1.553   2.373
 1259SOL     OW 5065   0.934   1.680   2.262
 1259SOL    HW2 5066   0.943   1.774   2.279
 1259SOL    HW3 5067   0.918   1.675   2.168
 1259SOL    MW4 5068   0.933   1.692   2.252
 1260SOL     OW 5069   0.903   1.969   2.339
 1260SOL    HW2 5070   0.904   1.968   2.435
 1260SOL    HW3 5071   0.988   2.005   2.314
 1260SOL    MW4 5072   0.914   1.973   2.349
 1261SOL     OW 5073   1.158   2.052   2.260
 1261SOL    HW2 5074   1.224   2.005   2.311
 1261SOL    HW3 5075   1.187   2.043   2.169
 1261SOL    MW4 5076   1.170   2.045   2.255
 1262SOL     OW 5077   1.129   2.315   2.338
 1262SOL    HW2 5078   1.200   2.375   2.319
 1262SOL    HW3 5079   1.163   2.229   2.314
 1262SOL    MW4 5080   1.143   2.311   2.333
 1263SOL     OW 5081   0.893   2.437   2.248
 1263SOL    HW2 5082   0.966   2.384   2.279
 1263SOL    HW3 5083   0.900   2.434   2.152
 1263SOL    MW4 5084   0.903   2.430   2.239
 1264SOL     OW 5085   0.897   2.689   2.368
 1264SOL    HW2 5086   0.891   2.674   2.463
 1264SOL    HW3 5087   0.890   2.601   2.330
 1264SOL    MW4 5088   0.895   2.675   2.376
 1265SOL     OW 5089   1.092   2.836   2.235
 1265SOL    HW2 5090   1.176   2.804   2.269
 1265SOL    HW3 5091   1.026   2.785   2.283
 1265SOL    MW4 5092   1.094   2.825   2.246
 1266SOL     OW 5093   1.145   3.139   2.363
 1266SOL    HW2 5094   1.064   3.186   2.348
 1266SOL    HW3 5095   1.128   3.051   2.330
 1266SOL    MW4 5096   1.132   3.133   2.357
 1267SOL     OW 5097   0.889   3.234   2.298
 1267SOL    HW2 5098   0.875   3.327   2.312
 1267SOL    HW3 5099   0.807   3.193   2.325
 1267SOL    MW4 5100   0.876   3.241   2.304
 1268SOL     OW 5101   0.899   3.512   2.335
 1268SOL    HW2 5102   0.892   3.492   2.428
 1268SOL    HW3 5103   0.810   3.534   2.308
 1268SOL    MW4 5104   0.886   3.512   2.343
 1269SOL     OW 5105   1.141   3.639   2.252
 1269SOL    HW2 5106   1.222   3.612   2.294
 1269SOL    HW3 5107   1.078   3.571   2.276
 1269SOL    MW4 5108   1.143   3.626   2.261
 1270SOL     OW 5109   1.131   3.898   2.363
 1270SOL    HW2 5110   1.217   3.935   2.347
 1270SOL    HW3 5111   1.133   3.812   2.323
 1270SOL    MW4 5112   1.142   3.892   2.356
 1271SOL     OW 5113   0.897   3.998   2.258
 1271SOL    HW2 5114   0.979   3.955   2.280
 1271SOL    HW3 5115   0.829   3.938   2.290
 1271SOL    MW4 5116   0.899   3.984   2.265
 1272SOL     OW 5117   0.926   4.263   2.359
 1272SOL    HW2 5118   0.923   4.172   2.330
 1272SOL    HW3 5119   0.844   4.301   2.325
 1272SOL    MW4 5120   0.915   4.256   2.350
 1273SOL     OW 5121   1.151   4.372   2.246
 1273SOL    HW2 5122   1.070   4.337   2.283
 1273SOL    HW3 5123   1.153   4.464   2.274
 1273SOL    MW4 5124   1.141   4.380   2.255
 1274SOL     OW 5125   1.554   4.642   2.339
 1274SOL    HW2 5126   1.626   4.696   2.306
 1274SOL    HW3 5127   1.476   4.680   2.298
 1274SOL    MW4 5128   1.553   4.654   2.329
 1275SOL     OW 5129   1.342   0.130   2.252
 1275SOL    HW2 5130   1.348   0.217   2.292
 1275SOL    HW3 5131   1.260   0.094   2.287
 1275SOL    MW4 5132   1.332   0.137   2.262
 1276SOL     OW 5133   1.332   0.389   2.342
 1276SOL    HW2 5134   1.347   0.382   2.436
 1276SOL    HW3 5135   1.413   0.425   2.307
 1276SOL    MW4 5136   1.344   0.393   2.350
 1277SOL     OW 5137   1.548   0.490   2.237
 1277SOL    HW2 5138   1.631   0.449   2.263
 1277SOL    HW3 5139   1.555   0.500   2.142
 1277SOL    MW4 5140   1.560   0.486   2.228
 1278SOL     OW 5141   1.544   0.756   2.358
 1278SOL    HW2 5142   1.632   0.785   2.335
 1278SOL    HW3 5143   1.543   0.663   2.335
 1278SOL    MW4 5144   1.555   0.748   2.352
 1279SOL     OW 5145   1.371   0.876   2.203
 1279SOL    HW2 5146   1.436   0.829   2.256
 1279SOL    HW3 5147   1.287   0.857   2.246
 1279SOL    MW4 5148   1.368   0.867   2.216
 1280SOL     OW 5149   1.349   1.143   2.319
 1280SOL    HW2 5150   1.339   1.151   2.414
 1280SOL    HW3 5151   1.358   1.049   2.303
 1280SOL    MW4 5152   1.349   1.132   2.330
 1281SOL     OW 5153   1.589   1.291   2.260
 1281SOL    HW2 5154   1.501   1.255   2.269
 1281SOL    HW3 5155   1.611   1.279   2.168
 1281SOL    MW4 5156   1.580   1.285   2.249
 1282SOL     OW 5157   1.589   1.551   2.358
 1282SOL    HW2 5158   1.655   1.592   2.301
 1282SOL    HW3 5159   1.586   1.460   2.329
 1282SOL    MW4 5160   1.597   1.544   2.346
 1283SOL     OW 5161   1.357   1.659   2.238
 1283SOL    HW2 5162   1.433   1.611   2.272
 1283SOL    HW3 5163   1.285   1.633   2.295
 1283SOL    MW4 5164   1.358   1.649   2.250
 1284SOL     OW 5165   1.379   1.912   2.354
 1284SOL    HW2 5166   1.460   1.948   2.321
 1284SOL    HW3 5167   1.375   1.823   2.319
 1284SOL    MW4 5168   1.389   1.905   2.345
 1285SOL     OW 5169   1.587   2.059   2.240
 1285SOL    HW2 5170   1.667   2.015   2.271
 1285SOL    HW3 5171   1.588   2.045   2.146
 1285SOL    MW4 5172   1.598   2.051   2.232
 1286SOL     OW 5173   1.572   2.308   2.326
 1286SOL    HW2 5174   1.558   2.307   2.421
 1286SOL    HW3 5175   1.576   2.216   2.302
 1286SOL    MW4 5176   1.571   2.296   2.336
 1287SOL     OW 5177   1.343   2.466   2.270
 1287SOL    HW2 5178   1.418   2.415   2.302
 1287SOL    HW3 5179   1.336   2.443   2.177
 1287SOL    MW4 5180   1.352   2.456   2.262
 1288SOL     OW 5181   1.321   2.741   2.343
 1288SOL    HW2 5182   1.405   2.785   2.332
 1288SOL    HW3 5183   1.332   2.656   2.301
 1288SOL    MW4 5184   1.334   2.735   2.336
 1289SOL     OW 5185   1.578   2.836   2.264
 1289SOL    HW2 5186   1.587   2.927   2.293
 1289SOL    HW3 5187   1.565   2.842   2.169
 1289SOL    MW4 5188   1.577   2.849   2.255
 1290SOL     OW 5189   1.604   3.088   2.376
 1290SOL    HW2 5190   1.587   3.087   2.470
 1290SOL    HW3 5191   1.532   3.139   2.339
 1290SOL    MW4 5192   1.592   3.095   2.383
 1291SOL     OW 5193   1.415   3.238   2.277
 1291SOL    HW2 5194   1.338   3.196   2.316
 1291SOL    HW3 5195   1.405   3.223   2.183
 1291SOL    MW4 5196   1.403   3.231   2.270
 1292SOL     OW 5197   1.378   3.505   2.362
 1292SOL    HW2 5198   1.368   3.487   2.455
 1292SOL    HW3 5199   1.380   3.419   2.320
 1292SOL    MW4 5200   1.377   3.492   2.369
 1293SOL     OW 5201   1.565   3.638   2.198
 1293SOL    HW2 5202   1.581   3.727   2.230
 1293SOL    HW3 5203   1.505   3.600   2.262
 1293SOL    MW4 5204   1.559   3.645   2.211
 1294SOL     OW 5205   1.618   3.873   2.338
 1294SOL    HW2 5206   1.607   3.867   2.433
 1294SOL    HW3 5207   1.698   3.924   2.325
 1294SOL    MW4 5208   1.627   3.879   2.348
 1295SOL     OW 5209   1.374   3.960   2.273
 1295SOL    HW2 5210   1.461   3.924   2.288
 1295SOL    HW3 5211   1.359   3.949   2.179
 1295SOL    MW4 5212   1.383   3.954   2.263
 1296SOL     OW 5213   1.379   4.226   2.342
 1296SOL    HW2 5214   1.379   4.134   2.316
 1296SOL    HW3 5215   1.295   4.260   2.311
 1296SOL    MW4 5216   1.368   4.218   2.335
 1297SOL     OW 5217   1.585   4.377   2.232
 1297SOL    HW2 5218   1.508   4.320   2.243
 1297SOL    HW3 5219   1.556   4.462   2.265
 1297SOL    MW4 5220   1.571   4.381   2.238
 1298SOL     OW 5221   2.003   4.628   2.361
 1298SOL    HW2 5222   2.069   4.685   2.321
 1298SOL    HW3 5223   2.017   4.543   2.319
 1298SOL    MW4 5224   2.014   4.625   2.350
 1299SOL     OW 5225   1.777   0.092   2.247
 1299SOL    HW2 5226   1.783   0.183   2.274
 1299SOL    HW3 5227   1.847   0.048   2.294
 1299SOL    MW4 5228   1.787   0.098   2.257
 1300SOL     OW 5229   1.780   0.367   2.325
 1300SOL    HW2 5230   1.776   0.376   2.420
 1300SOL    HW3 5231   1.851   0.425   2.298
 1300SOL    MW4 5232   1.789   0.376   2.334
 1301SOL     OW 5233   2.014   0.489   2.247
 1301SOL    HW2 5234   2.011   0.582   2.270
 1301SOL    HW3 5235   2.012   0.488   2.151
 1301SOL    MW4 5236   2.014   0.501   2.237
 1302SOL     OW 5237   2.009   0.756   2.314
 1302SOL    HW2 5238   2.083   0.814   2.300
 1302SOL    HW3 5239   1.934   0.805   2.281
 1302SOL    MW4 5240   2.009   0.770   2.308
 1303SOL     OW 5241   1.767   0.870   2.251
 1303SOL    HW2 5242   1.770   0.961   2.278
 1303SOL    HW3 5243   1.781   0.873   2.156
 1303SOL    MW4 5244   1.769   0.882   2.242
 1304SOL     OW 5245   1.810   1.138   2.347
 1304SOL    HW2 5246   1.878   1.193   2.308
 1304SOL    HW3 5247   1.728   1.173   2.313
 1304SOL    MW4 5248   1.808   1.150   2.338
 1305SOL     OW 5249   2.027   1.274   2.244
 1305SOL    HW2 5250   2.042   1.365   2.270
 1305SOL    HW3 5251   2.012   1.278   2.150
 1305SOL    MW4 5252   2.027   1.286   2.235
 1306SOL     OW 5253   2.038   1.556   2.320
 1306SOL    HW2 5254   2.037   1.579   2.413
 1306SOL    HW3 5255   1.965   1.605   2.282
 1306SOL    MW4 5256   2.029   1.566   2.327
 1307SOL     OW 5257   1.803   1.676   2.221
 1307SOL    HW2 5258   1.822   1.768   2.239
 1307SOL    HW3 5259   1.825   1.665   2.128
 1307SOL    MW4 5260   1.808   1.687   2.211
 1308SOL     OW 5261   1.828   1.965   2.319
 1308SOL    HW2 5262   1.815   1.963   2.414
 1308SOL    HW3 5263   1.907   2.017   2.307
 1308SOL    MW4 5264   1.836   1.972   2.330
 1309SOL     OW 5265   2.048   2.120   2.272
 1309SOL    HW2 5266   2.128   2.075   2.300
 1309SOL    HW3 5267   2.048   2.110   2.176
 1309SOL    MW4 5268   2.059   2.112   2.263
 1310SOL     OW 5269   2.039   2.376   2.391
 1310SOL    HW2 5270   2.111   2.426   2.353
 1310SOL    HW3 5271   2.046   2.289   2.351
 1310SOL    MW4 5272   2.050   2.371   2.381
 1311SOL     OW 5273   1.819   2.455   2.230
 1311SOL    HW2 5274   1.896   2.425   2.279
 1311SOL    HW3 5275   1.747   2.402   2.264
 1311SOL    MW4 5276   1.820   2.444   2.241
 1312SOL     OW 5277   1.794   2.694   2.360
 1312SOL    HW2 5278   1.804   2.610   2.313
 1312SOL    HW3 5279   1.719   2.736   2.317
 1312SOL    MW4 5280   1.786   2.688   2.348
 1313SOL     OW 5281   1.977   2.879   2.278
 1313SOL    HW2 5282   2.058   2.838   2.308
 1313SOL    HW3 5283   1.908   2.824   2.314
 1313SOL    MW4 5284   1.978   2.867   2.287
 1314SOL     OW 5285   2.001   3.134   2.396
 1314SOL    HW2 5286   2.088   3.161   2.367
 1314SOL    HW3 5287   1.987   3.050   2.352
 1314SOL    MW4 5288   2.011   3.126   2.386
 1315SOL     OW 5289   1.809   3.263   2.251
 1315SOL    HW2 5290   1.890   3.219   2.279
 1315SOL    HW3 5291   1.739   3.206   2.281
 1315SOL    MW4 5292   1.811   3.249   2.258
 1316SOL     OW 5293   1.801   3.517   2.340
 1316SOL    HW2 5294   1.807   3.430   2.300
 1316SOL    HW3 5295   1.723   3.556   2.300
 1316SOL    MW4 5296   1.792   3.510   2.329
 1317SOL     OW 5297   2.026   3.619   2.241
 1317SOL    HW2 5298   1.940   3.590   2.271
 1317SOL    HW3 5299   2.021   3.615   2.145
 1317SOL    MW4 5300   2.014   3.614   2.232
 1318SOL     OW 5301   2.057   3.870   2.330
 1318SOL    HW2 5302   2.047   3.873   2.425
 1318SOL    HW3 5303   2.065   3.777   2.309
 1318SOL    MW4 5304   2.057   3.858   2.340
 1319SOL     OW 5305   1.841   4.008   2.251
 1319SOL    HW2 5306   1.919   3.960   2.279
 1319SOL    HW3 5307   1.823   3.976   2.163
 1319SOL    MW4 5308   1.849   3.998   2.243
 1320SOL     OW 5309   1.815   4.265   2.354
 1320SOL    HW2 5310   1.820   4.176   2.319
 1320SOL    HW3 5311   1.737   4.302   2.313
 1320SOL    MW4 5312   1.805   4.258   2.344
 1321SOL     OW 5313   2.040   4.379   2.241
 1321SOL    HW2 5314   1.963   4.328   2.266
 1321SOL    HW3 5315   2.055   4.357   2.149
 1321SOL    MW4 5316   2.032   4.370   2.232
 1322SOL     OW 5317   2.451   4.634   2.309
 1322SOL    HW2 5318   2.536   4.672   2.286
 1322SOL    HW3 5319   2.455   4.545   2.273
 1322SOL    MW4 5320   2.463   4.627   2.301
 1323SOL     OW 5321   2.214   0.091   2.225
 1323SOL    HW2 5322   2.225   0.180   2.257
 1323SOL    HW3 5323   2.291   0.044   2.258
 1323SOL    MW4 5324   2.226   0.096   2.234
 1324SOL     OW 5325   2.227   0.342   2.353
 1324SOL    HW2 5326   2.296   0.406   2.337
 1324SOL    HW3 5327   2.147   0.383   2.322
 1324SOL    MW4 5328   2.225   0.356   2.347
 1325SOL     OW 5329   2.429   0.517   2.269
 1325SOL    HW2 5330   2.504   0.459   2.284
 1325SOL    HW3 5331   2.418   0.517   2.174
 1325SOL    MW4 5332   2.437   0.509   2.258
 1326SOL     OW 5333   2.454   0.775   2.355
 1326SOL    HW2 5334   2.541   0.805   2.332
 1326SOL    HW3 5335   2.442   0.694   2.305
 1326SOL    MW4 5336   2.464   0.768   2.345
 1327SOL     OW 5337   2.230   0.881   2.223
 1327SOL    HW2 5338   2.220   0.967   2.263
 1327SOL    HW3 5339   2.305   0.842   2.268
 1327SOL    MW4 5340   2.238   0.887   2.234
 1328SOL     OW 5341   2.209   1.120   2.396
 1328SOL    HW2 5342   2.293   1.160   2.377
 1328SOL    HW3 5343   2.144   1.180   2.359
 1328SOL    MW4 5344   2.211   1.133   2.389
 1329SOL     OW 5345   2.444   1.268   2.257
 1329SOL    HW2 5346   2.514   1.220   2.301
 1329SOL    HW3 5347   2.448   1.356   2.293
 1329SOL    MW4 5348   2.454   1.273   2.267
 1330SOL     OW 5349   2.497   1.552   2.320
 1330SOL    HW2 5350   2.516   1.565   2.413
 1330SOL    HW3 5351   2.575   1.587   2.275
 1330SOL    MW4 5352   2.510   1.558   2.326
 1331SOL     OW 5353   2.260   1.683   2.233
 1331SOL    HW2 5354   2.340   1.646   2.272
 1331SOL    HW3 5355   2.189   1.629   2.269
 1331SOL    MW4 5356   2.261   1.671   2.243
 1332SOL     OW 5357   2.248   1.948   2.335
 1332SOL    HW2 5358   2.331   1.989   2.309
 1332SOL    HW3 5359   2.255   1.858   2.305
 1332SOL    MW4 5360   2.260   1.941   2.328
 1333SOL     OW 5361   2.455   2.092   2.236
 1333SOL    HW2 5362   2.535   2.054   2.272
 1333SOL    HW3 5363   2.464   2.079   2.141
 1333SOL    MW4 5364   2.467   2.085   2.228
 1334SOL     OW 5365   2.464   2.341   2.342
 1334SOL    HW2 5366   2.556   2.359   2.322
 1334SOL    HW3 5367   2.449   2.253   2.307
 1334SOL    MW4 5368   2.474   2.332   2.335
 1335SOL     OW 5369   2.248   2.505   2.237
 1335SOL    HW2 5370   2.252   2.596   2.264
 1335SOL    HW3 5371   2.326   2.464   2.274
 1335SOL    MW4 5372   2.259   2.511   2.245
 1336SOL     OW 5373   2.221   2.763   2.338
 1336SOL    HW2 5374   2.233   2.734   2.428
 1336SOL    HW3 5375   2.306   2.797   2.312
 1336SOL    MW4 5376   2.234   2.764   2.346
 1337SOL     OW 5377   2.473   2.864   2.212
 1337SOL    HW2 5378   2.533   2.795   2.241
 1337SOL    HW3 5379   2.458   2.845   2.120
 1337SOL    MW4 5380   2.479   2.852   2.204
 1338SOL     OW 5381   2.414   3.109   2.328
 1338SOL    HW2 5382   2.500   3.150   2.327
 1338SOL    HW3 5383   2.429   3.022   2.291
 1338SOL    MW4 5384   2.427   3.103   2.323
 1339SOL     OW 5385   2.196   3.254   2.212
 1339SOL    HW2 5386   2.201   3.341   2.251
 1339SOL    HW3 5387   2.276   3.210   2.240
 1339SOL    MW4 5388   2.207   3.260   2.221
 1340SOL     OW 5389   2.257   3.498   2.332
 1340SOL    HW2 5390   2.231   3.479   2.422
 1340SOL    HW3 5391   2.193   3.562   2.302
 1340SOL    MW4 5392   2.245   3.504   2.339
 1341SOL     OW 5393   2.480   3.591   2.201
 1341SOL    HW2 5394   2.493   3.674   2.247
 1341SOL    HW3 5395   2.405   3.551   2.244
 1341SOL    MW4 5396   2.472   3.597   2.213
 1342SOL     OW 5397   2.485   3.849   2.326
 1342SOL    HW2 5398   2.486   3.843   2.421
 1342SOL    HW3 5399   2.411   3.906   2.305
 1342SOL    MW4 5400   2.476   3.856   2.336
 1343SOL     OW 5401   2.276   4.000   2.203
 1343SOL    HW2 5402   2.281   4.090   2.235
 1343SOL    HW3 5403   2.204   3.961   2.251
 1343SOL    MW4 5404   2.267   4.007   2.213
 1344SOL     OW 5405   2.259   4.253   2.345
 1344SOL    HW2 5406   2.265   4.264   2.440
 1344SOL    HW3 5407   2.177   4.298   2.321
 1344SOL    MW4 5408   2.249   4.261   2.354
 1345SOL     OW 5409   2.460   4.385   2.229
 1345SOL    HW2 5410   2.538   4.340   2.264
 1345SOL    HW3 5411   2.387   4.344   2.275
 1345SOL    MW4 5412   2.461   4.373   2.240
 1346SOL     OW 5413   2.927   4.635   2.368
 1346SOL    HW2 5414   3.008   4.677   2.338
 1346SOL    HW3 5415   2.923   4.553   2.319
 1346SOL    MW4 5416   2.937   4.629   2.358
 1347SOL     OW 5417   2.694   0.079   2.259
 1347SOL    HW2 5418   2.676   0.170   2.282
 1347SOL    HW3 5419   2.770   0.055   2.312
 1347SOL    MW4 5420   2.702   0.087   2.269
 1348SOL     OW 5421   2.649   0.340   2.342
 1348SOL    HW2 5422   2.642   0.335   2.437
 1348SOL    HW3 5423   2.739   0.370   2.326
 1348SOL    MW4 5424   2.660   0.344   2.352
 1349SOL     OW 5425   2.898   0.438   2.272
 1349SOL    HW2 5426   2.897   0.528   2.305
 1349SOL    HW3 5427   2.899   0.447   2.177
 1349SOL    MW4 5428   2.898   0.451   2.264
 1350SOL     OW 5429   2.926   0.691   2.352
 1350SOL    HW2 5430   2.915   0.711   2.444
 1350SOL    HW3 5431   2.856   0.738   2.308
 1350SOL    MW4 5432   2.916   0.700   2.358
 1351SOL     OW 5433   2.712   0.831   2.248
 1351SOL    HW2 5434   2.716   0.923   2.275
 1351SOL    HW3 5435   2.718   0.834   2.153
 1351SOL    MW4 5436   2.713   0.844   2.239
 1352SOL     OW 5437   2.668   1.086   2.352
 1352SOL    HW2 5438   2.653   1.095   2.447
 1352SOL    HW3 5439   2.742   1.145   2.335
 1352SOL    MW4 5440   2.676   1.095   2.363
 1353SOL     OW 5441   2.896   1.262   2.261
 1353SOL    HW2 5442   2.974   1.221   2.298
 1353SOL    HW3 5443   2.918   1.278   2.170
 1353SOL    MW4 5444   2.909   1.259   2.254
 1354SOL     OW 5445   2.944   1.528   2.318
 1354SOL    HW2 5446   2.939   1.525   2.414
 1354SOL    HW3 5447   2.919   1.441   2.290
 1354SOL    MW4 5448   2.940   1.516   2.327
 1355SOL     OW 5449   2.711   1.686   2.236
 1355SOL    HW2 5450   2.794   1.655   2.270
 1355SOL    HW3 5451   2.720   1.680   2.140
 1355SOL    MW4 5452   2.723   1.681   2.228
 1356SOL     OW 5453   2.685   1.952   2.323
 1356SOL    HW2 5454   2.688   1.936   2.418
 1356SOL    HW3 5455   2.684   1.865   2.284
 1356SOL    MW4 5456   2.685   1.939   2.331
 1357SOL     OW 5457   2.934   2.051   2.261
 1357SOL    HW2 5458   2.998   1.987   2.293
 1357SOL    HW3 5459   2.849   2.010   2.275
 1357SOL    MW4 5460   2.931   2.037   2.267
 1358SOL     OW 5461   2.973   2.316   2.344
 1358SOL    HW2 5462   2.963   2.329   2.439
 1358SOL    HW3 5463   2.954   2.223   2.331
 1358SOL    MW4 5464   2.969   2.305   2.355
 1359SOL     OW 5465   2.741   2.440   2.236
 1359SOL    HW2 5466   2.818   2.405   2.281
 1359SOL    HW3 5467   2.768   2.446   2.144
 1359SOL    MW4 5468   2.755   2.436   2.229
 1360SOL     OW 5469   2.661   2.687   2.342
 1360SOL    HW2 5470   2.736   2.740   2.315
 1360SOL    HW3 5471   2.671   2.605   2.295
 1360SOL    MW4 5472   2.672   2.683   2.332
 1361SOL     OW 5473   2.875   2.829   2.241
 1361SOL    HW2 5474   2.894   2.915   2.278
 1361SOL    HW3 5475   2.883   2.841   2.146
 1361SOL    MW4 5476   2.879   2.842   2.233
 1362SOL     OW 5477   2.914   3.067   2.372
 1362SOL    HW2 5478   2.977   3.122   2.325
 1362SOL    HW3 5479   2.828   3.096   2.340
 1362SOL    MW4 5480   2.911   3.078   2.361
 1363SOL     OW 5481   2.676   3.180   2.283
 1363SOL    HW2 5482   2.676   3.270   2.315
 1363SOL    HW3 5483   2.678   3.189   2.188
 1363SOL    MW4 5484   2.677   3.193   2.275
 1364SOL     OW 5485   2.702   3.466   2.316
 1364SOL    HW2 5486   2.771   3.520   2.277
 1364SOL    HW3 5487   2.621   3.501   2.278
 1364SOL    MW4 5488   2.700   3.478   2.306
 1365SOL     OW 5489   2.915   3.594   2.211
 1365SOL    HW2 5490   2.995   3.555   2.246
 1365SOL    HW3 5491   2.908   3.679   2.254
 1365SOL    MW4 5492   2.924   3.600   2.221
 1366SOL     OW 5493   2.888   3.859   2.307
 1366SOL    HW2 5494   2.881   3.852   2.402
 1366SOL    HW3 5495   2.808   3.906   2.281
 1366SOL    MW4 5496   2.877   3.864   2.316
 1367SOL     OW 5497   2.674   4.028   2.234
 1367SOL    HW2 5498   2.605   3.962   2.246
 1367SOL    HW3 5499   2.698   4.020   2.141
 1367SOL    MW4 5500   2.668   4.018   2.223
 1368SOL     OW 5501   2.684   4.273   2.357
 1368SOL    HW2 5502   2.683   4.261   2.451
 1368SOL    HW3 5503   2.678   4.185   2.321
 1368SOL    MW4 5504   2.683   4.260   2.364
 1369SOL     OW 5505   2.907   4.377   2.240
 1369SOL    HW2 5506   2.977   4.329   2.286
 1369SOL    HW3 5507   2.826   4.344   2.280
 1369SOL    MW4 5508   2.906   4.366   2.252
 1370SOL     OW 5509   3.409   4.641   2.322
 1370SOL    HW2 5510   3.407   4.667   2.414
 1370SOL    HW3 5511   3.491   4.676   2.289
 1370SOL    MW4 5512   3.419   4.649   2.330
 1371SOL     OW 5513   3.161   0.079   2.270
 1371SOL    HW2 5514   3.167   0.159   2.322
 1371SOL    HW3 5515   3.241   0.031   2.289
 1371SOL    MW4 5516   3.172   0.083   2.279
 1372SOL     OW 5517   3.132   0.328   2.387
 1372SOL    HW2 5518   3.209   0.363   2.342
 1372SOL    HW3 5519   3.058   0.371   2.346
 1372SOL    MW4 5520   3.133   0.339   2.376
 1373SOL     OW 5521   3.367   0.424   2.280
 1373SOL    HW2 5522   3.448   0.377   2.297
 1373SOL    HW3 5523   3.368   0.441   2.186
 1373SOL    MW4 5524   3.378   0.420   2.270
 1374SOL     OW 5525   3.333   0.697   2.371
 1374SOL    HW2 5526   3.409   0.741   2.333
 1374SOL    HW3 5527   3.348   0.604   2.353
 1374SOL    MW4 5528   3.345   0.691   2.364
 1375SOL     OW 5529   3.140   0.856   2.258
 1375SOL    HW2 5530   3.212   0.811   2.302
 1375SOL    HW3 5531   3.061   0.815   2.292
 1375SOL    MW4 5532   3.139   0.845   2.268
 1376SOL     OW 5533   3.138   1.119   2.342
 1376SOL    HW2 5534   3.211   1.160   2.295
 1376SOL    HW3 5535   3.141   1.027   2.315
 1376SOL    MW4 5536   3.148   1.112   2.332
 1377SOL     OW 5537   3.376   1.211   2.242
 1377SOL    HW2 5538   3.462   1.171   2.255
 1377SOL    HW3 5539   3.382   1.296   2.286
 1377SOL    MW4 5540   3.388   1.217   2.250
 1378SOL     OW 5541   3.391   1.495   2.318
 1378SOL    HW2 5542   3.401   1.520   2.410
 1378SOL    HW3 5543   3.324   1.554   2.284
 1378SOL    MW4 5544   3.384   1.506   2.325
 1379SOL     OW 5545   3.198   1.648   2.185
 1379SOL    HW2 5546   3.208   1.727   2.239
 1379SOL    HW3 5547   3.126   1.600   2.226
 1379SOL    MW4 5548   3.190   1.652   2.198
 1380SOL     OW 5549   3.164   1.896   2.340
 1380SOL    HW2 5550   3.143   1.897   2.433
 1380SOL    HW3 5551   3.247   1.944   2.334
 1380SOL    MW4 5552   3.173   1.903   2.351
 1381SOL     OW 5553   3.382   2.054   2.199
 1381SOL    HW2 5554   3.449   1.991   2.224
 1381SOL    HW3 5555   3.382   2.052   2.104
 1381SOL    MW4 5556   3.390   2.046   2.190
 1382SOL     OW 5557   3.396   2.301   2.345
 1382SOL    HW2 5558   3.315   2.351   2.336
 1382SOL    HW3 5559   3.379   2.218   2.299
 1382SOL    MW4 5560   3.383   2.296   2.338
 1383SOL     OW 5561   3.193   2.467   2.235
 1383SOL    HW2 5562   3.172   2.543   2.288
 1383SOL    HW3 5563   3.131   2.400   2.263
 1383SOL    MW4 5564   3.182   2.468   2.245
 1384SOL     OW 5565   3.115   2.725   2.345
 1384SOL    HW2 5566   3.105   2.724   2.441
 1384SOL    HW3 5567   3.031   2.757   2.313
 1384SOL    MW4 5568   3.102   2.729   2.354
 1385SOL     OW 5569   3.364   2.810   2.245
 1385SOL    HW2 5570   3.353   2.902   2.267
 1385SOL    HW3 5571   3.284   2.768   2.275
 1385SOL    MW4 5572   3.352   2.816   2.252
 1386SOL     OW 5573   3.342   3.084   2.344
 1386SOL    HW2 5574   3.407   3.151   2.323
 1386SOL    HW3 5575   3.259   3.120   2.313
 1386SOL    MW4 5576   3.340   3.097   2.337
 1387SOL     OW 5577   3.109   3.208   2.256
 1387SOL    HW2 5578   3.104   3.299   2.286
 1387SOL    HW3 5579   3.119   3.215   2.161
 1387SOL    MW4 5580   3.110   3.221   2.247
 1388SOL     OW 5581   3.116   3.476   2.339
 1388SOL    HW2 5582   3.103   3.462   2.433
 1388SOL    HW3 5583   3.203   3.516   2.333
 1388SOL    MW4 5584   3.126   3.479   2.351
 1389SOL     OW 5585   3.361   3.587   2.287
 1389SOL    HW2 5586   3.452   3.573   2.314
 1389SOL    HW3 5587   3.365   3.591   2.191
 1389SOL    MW4 5588   3.374   3.586   2.278
 1390SOL     OW 5589   3.331   3.852   2.355
 1390SOL    HW2 5590   3.401   3.896   2.307
 1390SOL    HW3 5591   3.346   3.759   2.338
 1390SOL    MW4 5592   3.342   3.846   2.346
 1391SOL     OW 5593   3.139   3.968   2.197
 1391SOL    HW2 5594   3.206   3.918   2.243
 1391SOL    HW3 5595   3.056   3.936   2.232
 1391SOL    MW4 5596   3.137   3.957   2.208
 1392SOL     OW 5597   3.122   4.219   2.358
 1392SOL    HW2 5598   3.196   4.266   2.320
 1392SOL    HW3 5599   3.130   4.130   2.324
 1392SOL    MW4 5600   3.133   4.213   2.349
 1393SOL     OW 5601   3.355   4.365   2.282
 1393SOL    HW2 5602   3.375   4.454   2.311
 1393SOL    HW3 5603   3.365   4.369   2.186
 1393SOL    MW4 5604   3.359   4.377   2.273
 1394SOL     OW 5605   3.836   4.636   2.338
 1394SOL    HW2 5606   3.837   4.636   2.434
 1394SOL    HW3 5607   3.915   4.685   2.314
 1394SOL    MW4 5608   3.847   4.642   2.348
 1395SOL     OW 5609   3.642   0.090   2.206
 1395SOL    HW2 5610   3.641   0.176   2.249
 1395SOL    HW3 5611   3.715   0.044   2.246
 1395SOL    MW4 5612   3.651   0.095   2.217
 1396SOL     OW 5613   3.609   0.326   2.362
 1396SOL    HW2 5614   3.613   0.315   2.457
 1396SOL    HW3 5615   3.655   0.408   2.346
 1396SOL    MW4 5616   3.615   0.336   2.372
 1397SOL     OW 5617   3.803   0.521   2.276
 1397SOL    HW2 5618   3.808   0.610   2.311
 1397SOL    HW3 5619   3.808   0.533   2.181
 1397SOL    MW4 5620   3.805   0.534   2.268
 1398SOL     OW 5621   3.816   0.776   2.384
 1398SOL    HW2 5622   3.830   0.775   2.479
 1398SOL    HW3 5623   3.893   0.821   2.349
 1398SOL    MW4 5624   3.828   0.782   2.392
 1399SOL     OW 5625   3.549   0.834   2.280
 1399SOL    HW2 5626   3.632   0.820   2.326
 1399SOL    HW3 5627   3.575   0.844   2.188
 1399SOL    MW4 5628   3.564   0.833   2.274
 1400SOL     OW 5629   3.611   1.086   2.327
 1400SOL    HW2 5630   3.601   1.097   2.422
 1400SOL    HW3 5631   3.587   0.995   2.311
 1400SOL    MW4 5632   3.607   1.075   2.338
 1401SOL     OW 5633   3.841   1.213   2.217
 1401SOL    HW2 5634   3.827   1.294   2.266
 1401SOL    HW3 5635   3.774   1.153   2.252
 1401SOL    MW4 5636   3.830   1.215   2.228
 1402SOL     OW 5637   3.833   1.466   2.345
 1402SOL    HW2 5638   3.858   1.481   2.436
 1402SOL    HW3 5639   3.757   1.524   2.332
 1402SOL    MW4 5640   3.826   1.476   2.356
 1403SOL     OW 5641   3.610   1.643   2.263
 1403SOL    HW2 5642   3.534   1.591   2.286
 1403SOL    HW3 5643   3.609   1.647   2.167
 1403SOL    MW4 5644   3.600   1.637   2.253
 1404SOL     OW 5645   3.577   1.910   2.320
 1404SOL    HW2 5646   3.653   1.962   2.295
 1404SOL    HW3 5647   3.602   1.820   2.299
 1404SOL    MW4 5648   3.590   1.905   2.314
 1405SOL     OW 5649   3.823   2.035   2.228
 1405SOL    HW2 5650   3.902   1.987   2.253
 1405SOL    HW3 5651   3.838   2.062   2.137
 1405SOL    MW4 5652   3.835   2.032   2.219
 1406SOL     OW 5653   3.851   2.302   2.320
 1406SOL    HW2 5654   3.769   2.343   2.296
 1406SOL    HW3 5655   3.842   2.211   2.289
 1406SOL    MW4 5656   3.839   2.295   2.313
 1407SOL     OW 5657   3.606   2.434   2.237
 1407SOL    HW2 5658   3.529   2.382   2.259
 1407SOL    HW3 5659   3.604   2.442   2.142
 1407SOL    MW4 5660   3.596   2.428   2.227
 1408SOL     OW 5661   3.603   2.688   2.347
 1408SOL    HW2 5662   3.601   2.605   2.300
 1408SOL    HW3 5663   3.520   2.730   2.325
 1408SOL    MW4 5664   3.592   2.682   2.338
 1409SOL     OW 5665   3.818   2.855   2.205
 1409SOL    HW2 5666   3.810   2.924   2.270
 1409SOL    HW3 5667   3.765   2.783   2.239
 1409SOL    MW4 5668   3.810   2.855   2.218
 1410SOL     OW 5669   3.843   3.101   2.342
 1410SOL    HW2 5670   3.850   3.116   2.437
 1410SOL    HW3 5671   3.920   3.146   2.306
 1410SOL    MW4 5672   3.854   3.109   2.350
 1411SOL     OW 5673   3.587   3.232   2.303
 1411SOL    HW2 5674   3.592   3.325   2.326
 1411SOL    HW3 5675   3.672   3.196   2.330
 1411SOL    MW4 5676   3.598   3.239   2.310
 1412SOL     OW 5677   3.609   3.530   2.370
 1412SOL    HW2 5678   3.621   3.526   2.465
 1412SOL    HW3 5679   3.692   3.562   2.336
 1412SOL    MW4 5680   3.622   3.533   2.378
 1413SOL     OW 5681   3.849   3.632   2.234
 1413SOL    HW2 5682   3.838   3.724   2.255
 1413SOL    HW3 5683   3.848   3.629   2.138
 1413SOL    MW4 5684   3.848   3.644   2.224
 1414SOL     OW 5685   3.788   3.883   2.327
 1414SOL    HW2 5686   3.778   3.842   2.413
 1414SOL    HW3 5687   3.864   3.941   2.338
 1414SOL    MW4 5688   3.797   3.885   2.340
 1415SOL     OW 5689   3.541   3.988   2.227
 1415SOL    HW2 5690   3.535   4.076   2.264
 1415SOL    HW3 5691   3.616   3.948   2.271
 1415SOL    MW4 5692   3.550   3.994   2.237
 1416SOL     OW 5693   3.590   4.242   2.373
 1416SOL    HW2 5694   3.668   4.290   2.343
 1416SOL    HW3 5695   3.517   4.298   2.346
 1416SOL    MW4 5696   3.591   4.256   2.365
 1417SOL     OW 5697   3.795   4.377   2.224
 1417SOL    HW2 5698   3.878   4.337   2.249
 1417SOL    HW3 5699   3.792   4.460   2.271
 1417SOL    MW4 5700   3.806   4.383   2.233
 1418SOL     OW 5701   4.227   0.003   2.357
 1418SOL    HW2 5702   4.209  -0.001   2.451
 1418SOL    HW3 5703   4.317   0.035   2.351
 1418SOL    MW4 5704   4.237   0.006   2.369
 1419SOL     OW 5705   4.028   0.154   2.247
 1419SOL    HW2 5706   4.021   0.238   2.291
 1419SOL    HW3 5707   4.109   0.116   2.280
 1419SOL    MW4 5708   4.038   0.160   2.257
 1420SOL     OW 5709   4.030   0.407   2.367
 1420SOL    HW2 5710   4.097   0.461   2.326
 1420SOL    HW3 5711   3.947   0.445   2.338
 1420SOL    MW4 5712   4.028   0.419   2.358
 1421SOL     OW 5713   4.253   0.544   2.253
 1421SOL    HW2 5714   4.260   0.625   2.303
 1421SOL    HW3 5715   4.332   0.495   2.276
 1421SOL    MW4 5716   4.265   0.548   2.262
 1422SOL     OW 5717   4.249   0.780   2.395
 1422SOL    HW2 5718   4.170   0.805   2.347
 1422SOL    HW3 5719   4.317   0.840   2.363
 1422SOL    MW4 5720   4.248   0.791   2.385
 1423SOL     OW 5721   4.031   0.886   2.255
 1423SOL    HW2 5722   4.059   0.971   2.290
 1423SOL    HW3 5723   4.038   0.896   2.160
 1423SOL    MW4 5724   4.036   0.899   2.247
 1424SOL     OW 5725   4.063   1.128   2.370
 1424SOL    HW2 5726   4.058   1.157   2.461
 1424SOL    HW3 5727   3.981   1.158   2.330
 1424SOL    MW4 5728   4.052   1.136   2.377
 1425SOL     OW 5729   4.254   1.301   2.246
 1425SOL    HW2 5730   4.180   1.248   2.278
 1425SOL    HW3 5731   4.331   1.246   2.260
 1425SOL    MW4 5732   4.254   1.287   2.252
 1426SOL     OW 5733   4.237   1.557   2.366
 1426SOL    HW2 5734   4.246   1.473   2.321
 1426SOL    HW3 5735   4.313   1.608   2.339
 1426SOL    MW4 5736   4.248   1.553   2.357
 1427SOL     OW 5737   4.023   1.629   2.204
 1427SOL    HW2 5738   4.102   1.607   2.252
 1427SOL    HW3 5739   3.953   1.581   2.248
 1427SOL    MW4 5740   4.024   1.620   2.216
 1428SOL     OW 5741   4.049   1.902   2.297
 1428SOL    HW2 5742   4.054   1.892   2.392
 1428SOL    HW3 5743   4.055   1.812   2.264
 1428SOL    MW4 5744   4.050   1.889   2.305
 1429SOL     OW 5745   4.276   2.041   2.230
 1429SOL    HW2 5746   4.245   2.125   2.263
 1429SOL    HW3 5747   4.199   1.983   2.235
 1429SOL    MW4 5748   4.261   2.044   2.235
 1430SOL     OW 5749   4.244   2.309   2.325
 1430SOL    HW2 5750   4.176   2.363   2.286
 1430SOL    HW3 5751   4.326   2.355   2.305
 1430SOL    MW4 5752   4.246   2.322   2.317
 1431SOL     OW 5753   4.062   2.466   2.216
 1431SOL    HW2 5754   4.040   2.550   2.256
 1431SOL    HW3 5755   3.992   2.407   2.244
 1431SOL    MW4 5756   4.050   2.470   2.225
 1432SOL     OW 5757   4.039   2.723   2.330
 1432SOL    HW2 5758   4.028   2.722   2.425
 1432SOL    HW3 5759   3.967   2.777   2.298
 1432SOL    MW4 5760   4.028   2.730   2.338
 1433SOL     OW 5761   4.294   2.819   2.253
 1433SOL    HW2 5762   4.205   2.784   2.264
 1433SOL    HW3 5763   4.350   2.755   2.296
 1433SOL    MW4 5764   4.290   2.806   2.260
 1434SOL     OW 5765   4.272   3.073   2.395
 1434SOL    HW2 5766   4.276   2.984   2.360
 1434SOL    HW3 5767   4.341   3.120   2.348
 1434SOL    MW4 5768   4.282   3.068   2.384
 1435SOL     OW 5769   4.072   3.234   2.263
 1435SOL    HW2 5770   4.094   3.326   2.282
 1435SOL    HW3 5771   4.149   3.185   2.291
 1435SOL    MW4 5772   4.085   3.240   2.269
 1436SOL     OW 5773   4.075   3.499   2.367
 1436SOL    HW2 5774   4.155   3.548   2.348
 1436SOL    HW3 5775   4.011   3.533   2.304
 1436SOL    MW4 5776   4.077   3.510   2.356
 1437SOL     OW 5777   4.277   3.638   2.263
 1437SOL    HW2 5778   4.272   3.729   2.290
 1437SOL    HW3 5779   4.260   3.639   2.169
 1437SOL    MW4 5780   4.274   3.650   2.254
 1438SOL     OW 5781   4.281   3.905   2.320
 1438SOL    HW2 5782   4.289   3.894   2.415
 1438SOL    HW3 5783   4.363   3.947   2.294
 1438SOL    MW4 5784   4.293   3.909   2.329
 1439SOL     OW 5785   4.044   4.023   2.248
 1439SOL    HW2 5786   4.124   3.972   2.258
 1439SOL    HW3 5787   4.042   4.045   2.154
 1439SOL    MW4 5788   4.054   4.019   2.237
 1440SOL     OW 5789   4.021   4.282   2.345
 1440SOL    HW2 5790   4.103   4.317   2.310
 1440SOL    HW3 5791   4.025   4.188   2.326
 1440SOL    MW4 5792   4.032   4.274   2.338
 1441SOL     OW 5793   4.266   4.408   2.286
 1441SOL    HW2 5794   4.257   4.499   2.313
 1441SOL    HW3 5795   4.348   4.379   2.325
 1441SOL    MW4 5796   4.275   4.416   2.295
 1442SOL     OW 5797   0.226   4.652   2.612
 1442SOL    HW2 5798   0.241   4.571   2.660
 1442SOL    HW3 5799   0.141   4.683   2.644
 1442SOL    MW4 5800   0.217   4.645   2.622
 1443SOL     OW 5801   4.463   0.103   2.717
 1443SOL    HW2 5802   4.480   0.120   2.810
 1443SOL    HW3 5803   4.487   0.185   2.674
 1443SOL    MW4 5804   4.469   0.116   2.724
 1444SOL     OW 5805   0.036   0.357   2.632
 1444SOL    HW2 5806   0.109   0.402   2.674
 1444SOL    HW3 5807   0.038   0.387   2.541
 1444SOL    MW4 5808   0.046   0.367   2.626
 1445SOL     OW 5809   0.222   0.524   2.727
 1445SOL    HW2 5810   0.245   0.531   2.820
 1445SOL    HW3 5811   0.297   0.482   2.686
 1445SOL    MW4 5812   0.235   0.519   2.734
 1446SOL     OW 5813   0.195   0.756   2.586
 1446SOL    HW2 5814   0.277   0.797   2.616
 1446SOL    HW3 5815   0.189   0.675   2.636
 1446SOL    MW4 5816   0.205   0.751   2.596
 1447SOL     OW 5817   4.485   0.852   2.765
 1447SOL    HW2 5818   4.404   0.809   2.738
 1447SOL    HW3 5819   4.550   0.822   2.701
 1447SOL    MW4 5820   4.483   0.842   2.753
 1448SOL     OW 5821   4.454   1.101   2.634
 1448SOL    HW2 5822   4.527   1.152   2.670
 1448SOL    HW3 5823   4.461   1.016   2.677
 1448SOL    MW4 5824   4.465   1.096   2.645
 1449SOL     OW 5825   0.212   1.262   2.736
 1449SOL    HW2 5826   0.286   1.212   2.701
 1449SOL    HW3 5827   0.229   1.352   2.708
 1449SOL    MW4 5828   0.224   1.267   2.727
 1450SOL     OW 5829   0.256   1.534   2.648
 1450SOL    HW2 5830   0.334   1.588   2.652
 1450SOL    HW3 5831   0.188   1.585   2.691
 1450SOL    MW4 5832   0.257   1.548   2.654
 1451SOL     OW 5833   0.041   1.671   2.761
 1451SOL    HW2 5834   0.028   1.684   2.854
 1451SOL    HW3 5835   0.019   1.755   2.721
 1451SOL    MW4 5836   0.037   1.684   2.768
 1452SOL     OW 5837   4.479   1.924   2.677
 1452SOL    HW2 5838   4.548   1.980   2.713
 1452SOL    HW3 5839   4.505   1.912   2.585
 1452SOL    MW4 5840   4.492   1.930   2.669
 1453SOL     OW 5841   0.215   2.053   2.784
 1453SOL    HW2 5842   0.271   1.995   2.733
 1453SOL    HW3 5843   0.210   2.134   2.732
 1453SOL    MW4 5844   0.222   2.056   2.771
 1454SOL     OW 5845   0.187   2.247   2.619
 1454SOL    HW2 5846   0.271   2.285   2.645
 1454SOL    HW3 5847   0.122   2.314   2.642
 1454SOL    MW4 5848   0.190   2.261   2.625
 1455SOL     OW 5849   4.479   2.439   2.675
 1455SOL    HW2 5850   4.463   2.433   2.769
 1455SOL    HW3 5851   4.408   2.387   2.635
 1455SOL    MW4 5852   4.468   2.431   2.682
 1456SOL     OW 5853   4.482   2.716   2.636
 1456SOL    HW2 5854   4.395   2.742   2.666
 1456SOL    HW3 5855   4.482   2.621   2.643
 1456SOL    MW4 5856   4.471   2.707   2.641
 1457SOL     OW 5857   0.227   2.797   2.734
 1457SOL    HW2 5858   0.230   2.884   2.695
 1457SOL    HW3 5859   0.145   2.759   2.702
 1457SOL    MW4 5860   0.217   2.803   2.725
 1458SOL     OW 5861   0.214   3.065   2.631
 1458SOL    HW2 5862   0.300   3.089   2.664
 1458SOL    HW3 5863   0.217   3.086   2.537
 1458SOL    MW4 5864   0.226   3.071   2.623
 1459SOL     OW 5865   0.032   3.194   2.803
 1459SOL    HW2 5866  -0.045   3.145   2.774
 1459SOL    HW3 5867   0.106   3.148   2.764
 1459SOL    MW4 5868   0.032   3.181   2.794
 1460SOL     OW 5869   4.486   3.457   2.664
 1460SOL    HW2 5870   4.576   3.485   2.681
 1460SOL    HW3 5871   4.485   3.364   2.685
 1460SOL    MW4 5872   4.498   3.448   2.669
 1461SOL     OW 5873   0.210   3.583   2.736
 1461SOL    HW2 5874   0.198   3.598   2.829
 1461SOL    HW3 5875   0.297   3.542   2.728
 1461SOL    MW4 5876   0.220   3.580   2.747
 1462SOL     OW 5877   0.246   3.840   2.639
 1462SOL    HW2 5878   0.232   3.752   2.673
 1462SOL    HW3 5879   0.240   3.831   2.544
 1462SOL    MW4 5880   0.243   3.828   2.631
 1463SOL     OW 5881   0.028   3.981   2.720
 1463SOL    HW2 5882   0.036   4.071   2.690
 1463SOL    HW3 5883   0.110   3.939   2.692
 1463SOL    MW4 5884   0.040   3.987   2.712
 1464SOL     OW 5885   0.017   4.262   2.649
 1464SOL    HW2 5886  -0.062   4.304   2.683
 1464SOL    HW3 5887   0.090   4.313   2.685
 1464SOL    MW4 5888   0.016   4.274   2.658
 1465SOL     OW 5889   0.245   4.403   2.741
 1465SOL    HW2 5890   0.251   4.375   2.832
 1465SOL    HW3 5891   0.301   4.342   2.693
 1465SOL    MW4 5892   0.253   4.391   2.747
 1466SOL     OW 5893   0.640   4.618   2.644
 1466SOL    HW2 5894   0.721   4.665   2.664
 1466SOL    HW3 5895   0.571   4.682   2.661
 1466SOL    MW4 5896   0.641   4.632   2.649
 1467SOL     OW 5897   0.438   0.119   2.705
 1467SOL    HW2 5898   0.423   0.119   2.800
 1467SOL    HW3 5899   0.362   0.074   2.669
 1467SOL    MW4 5900   0.426   0.113   2.713
 1468SOL     OW 5901   0.422   0.374   2.614
 1468SOL    HW2 5902   0.496   0.422   2.649
 1468SOL    HW3 5903   0.424   0.289   2.659
 1468SOL    MW4 5904   0.432   0.369   2.625
 1469SOL     OW 5905   0.641   0.504   2.729
 1469SOL    HW2 5906   0.653   0.498   2.824
 1469SOL    HW3 5907   0.720   0.463   2.693
 1469SOL    MW4 5908   0.653   0.498   2.737
 1470SOL     OW 5909   0.671   0.769   2.655
 1470SOL    HW2 5910   0.759   0.790   2.687
 1470SOL    HW3 5911   0.657   0.678   2.681
 1470SOL    MW4 5912   0.680   0.760   2.662
 1471SOL     OW 5913   0.424   0.895   2.690
 1471SOL    HW2 5914   0.443   0.988   2.674
 1471SOL    HW3 5915   0.509   0.852   2.681
 1471SOL    MW4 5916   0.438   0.902   2.687
 1472SOL     OW 5917   0.445   1.153   2.630
 1472SOL    HW2 5918   0.510   1.199   2.684
 1472SOL    HW3 5919   0.470   1.173   2.540
 1472SOL    MW4 5920   0.457   1.162   2.626
 1473SOL     OW 5921   0.674   1.266   2.750
 1473SOL    HW2 5922   0.671   1.255   2.845
 1473SOL    HW3 5923   0.753   1.218   2.724
 1473SOL    MW4 5924   0.684   1.258   2.759
 1474SOL     OW 5925   0.680   1.521   2.647
 1474SOL    HW2 5926   0.600   1.564   2.679
 1474SOL    HW3 5927   0.676   1.433   2.683
 1474SOL    MW4 5928   0.669   1.515   2.656
 1475SOL     OW 5929   0.474   1.680   2.719
 1475SOL    HW2 5930   0.467   1.693   2.813
 1475SOL    HW3 5931   0.473   1.769   2.682
 1475SOL    MW4 5932   0.473   1.693   2.726
 1476SOL     OW 5933   0.426   1.942   2.625
 1476SOL    HW2 5934   0.507   1.982   2.659
 1476SOL    HW3 5935   0.437   1.942   2.530
 1476SOL    MW4 5936   0.438   1.947   2.617
 1477SOL     OW 5937   0.674   2.048   2.721
 1477SOL    HW2 5938   0.668   2.041   2.816
 1477SOL    HW3 5939   0.741   1.985   2.696
 1477SOL    MW4 5940   0.682   2.039   2.730
 1478SOL     OW 5941   0.669   2.297   2.636
 1478SOL    HW2 5942   0.741   2.331   2.689
 1478SOL    HW3 5943   0.661   2.205   2.661
 1478SOL    MW4 5944   0.677   2.290   2.646
 1479SOL     OW 5945   0.425   2.414   2.720
 1479SOL    HW2 5946   0.433   2.497   2.674
 1479SOL    HW3 5947   0.510   2.371   2.705
 1479SOL    MW4 5948   0.438   2.419   2.712
 1480SOL     OW 5949   0.445   2.661   2.624
 1480SOL    HW2 5950   0.518   2.691   2.679
 1480SOL    HW3 5951   0.367   2.698   2.667
 1480SOL    MW4 5952   0.444   2.670   2.637
 1481SOL     OW 5953   0.659   2.765   2.756
 1481SOL    HW2 5954   0.672   2.775   2.851
 1481SOL    HW3 5955   0.662   2.854   2.722
 1481SOL    MW4 5956   0.661   2.778   2.764
 1482SOL     OW 5957   0.685   3.025   2.660
 1482SOL    HW2 5958   0.768   3.064   2.689
 1482SOL    HW3 5959   0.675   3.055   2.570
 1482SOL    MW4 5960   0.695   3.034   2.652
 1483SOL     OW 5961   0.456   3.147   2.744
 1483SOL    HW2 5962   0.458   3.151   2.839
 1483SOL    HW3 5963   0.536   3.099   2.721
 1483SOL    MW4 5964   0.467   3.141   2.753
 1484SOL     OW 5965   0.455   3.431   2.636
 1484SOL    HW2 5966   0.466   3.338   2.651
 1484SOL    HW3 5967   0.439   3.439   2.542
 1484SOL    MW4 5968   0.454   3.420   2.626
 1485SOL     OW 5969   0.669   3.590   2.720
 1485SOL    HW2 5970   0.670   3.583   2.816
 1485SOL    HW3 5971   0.597   3.532   2.693
 1485SOL    MW4 5972   0.659   3.581   2.729
 1486SOL     OW 5973   0.671   3.860   2.652
 1486SOL    HW2 5974   0.590   3.887   2.696
 1486SOL    HW3 5975   0.684   3.769   2.680
 1486SOL    MW4 5976   0.662   3.851   2.662
 1487SOL     OW 5977   0.452   3.989   2.763
 1487SOL    HW2 5978   0.435   4.077   2.731
 1487SOL    HW3 5979   0.382   3.935   2.726
 1487SOL    MW4 5980   0.441   3.993   2.754
 1488SOL     OW 5981   0.431   4.238   2.645
 1488SOL    HW2 5982   0.505   4.283   2.685
 1488SOL    HW3 5983   0.458   4.222   2.555
 1488SOL    MW4 5984   0.444   4.242   2.638
 1489SOL     OW 5985   0.664   4.368   2.764
 1489SOL    HW2 5986   0.744   4.338   2.721
 1489SOL    HW3 5987   0.646   4.453   2.723
 1489SOL    MW4 5988   0.672   4.375   2.753
 1490SOL     OW 5989   1.091   4.632   2.610
 1490SOL    HW2 5990   1.166   4.672   2.653
 1490SOL    HW3 5991   1.095   4.540   2.634
 1490SOL    MW4 5992   1.101   4.625   2.619
 1491SOL     OW 5993   0.864   0.102   2.691
 1491SOL    HW2 5994   0.885   0.122   2.783
 1491SOL    HW3 5995   0.939   0.049   2.662
 1491SOL    MW4 5996   0.877   0.097   2.700
 1492SOL     OW 5997   0.875   0.391   2.638
 1492SOL    HW2 5998   0.862   0.297   2.652
 1492SOL    HW3 5999   0.891   0.398   2.544
 1492SOL    MW4 6000   0.875   0.379   2.627
 1493SOL     OW 6001   1.132   0.492   2.723
 1493SOL    HW2 6002   1.125   0.574   2.674
 1493SOL    HW3 6003   1.043   0.456   2.723
 1493SOL    MW4 6004   1.119   0.498   2.717
 1494SOL     OW 6005   1.156   0.747   2.617
 1494SOL    HW2 6006   1.219   0.808   2.657
 1494SOL    HW3 6007   1.154   0.771   2.525
 1494SOL    MW4 6008   1.164   0.758   2.610
 1495SOL     OW 6009   0.912   0.873   2.726
 1495SOL    HW2 6010   0.887   0.851   2.815
 1495SOL    HW3 6011   0.983   0.812   2.705
 1495SOL    MW4 6012   0.918   0.862   2.735
 1496SOL     OW 6013   0.898   1.153   2.639
 1496SOL    HW2 6014   0.910   1.059   2.648
 1496SOL    HW3 6015   0.888   1.168   2.545
 1496SOL    MW4 6016   0.898   1.143   2.628
 1497SOL     OW 6017   1.124   1.292   2.716
 1497SOL    HW2 6018   1.127   1.382   2.683
 1497SOL    HW3 6019   1.035   1.263   2.698
 1497SOL    MW4 6020   1.113   1.300   2.709
 1498SOL     OW 6021   1.170   1.539   2.639
 1498SOL    HW2 6022   1.089   1.580   2.669
 1498SOL    HW3 6023   1.165   1.544   2.543
 1498SOL    MW4 6024   1.159   1.545   2.630
 1499SOL     OW 6025   0.917   1.643   2.732
 1499SOL    HW2 6026   0.904   1.654   2.826
 1499SOL    HW3 6027   0.840   1.594   2.703
 1499SOL    MW4 6028   0.905   1.638   2.741
 1500SOL     OW 6029   0.896   1.930   2.621
 1500SOL    HW2 6030   0.964   1.980   2.667
 1500SOL    HW3 6031   0.913   1.839   2.647
 1500SOL    MW4 6032   0.907   1.924   2.630
 1501SOL     OW 6033   1.119   2.037   2.734
 1501SOL    HW2 6034   1.197   1.999   2.692
 1501SOL    HW3 6035   1.116   2.127   2.703
 1501SOL    MW4 6036   1.129   2.044   2.724
 1502SOL     OW 6037   1.125   2.298   2.630
 1502SOL    HW2 6038   1.192   2.356   2.666
 1502SOL    HW3 6039   1.132   2.309   2.535
 1502SOL    MW4 6040   1.135   2.307   2.622
 1503SOL     OW 6041   0.901   2.386   2.759
 1503SOL    HW2 6042   0.899   2.475   2.723
 1503SOL    HW3 6043   0.975   2.344   2.715
 1503SOL    MW4 6044   0.911   2.392   2.748
 1504SOL     OW 6045   0.882   2.630   2.631
 1504SOL    HW2 6046   0.939   2.695   2.671
 1504SOL    HW3 6047   0.798   2.641   2.675
 1504SOL    MW4 6048   0.878   2.640   2.642
 1505SOL     OW 6049   1.083   2.832   2.716
 1505SOL    HW2 6050   1.106   2.825   2.808
 1505SOL    HW3 6051   1.159   2.795   2.670
 1505SOL    MW4 6052   1.096   2.826   2.722
 1506SOL     OW 6053   1.148   3.096   2.642
 1506SOL    HW2 6054   1.122   3.007   2.665
 1506SOL    HW3 6055   1.136   3.101   2.547
 1506SOL    MW4 6056   1.143   3.085   2.632
 1507SOL     OW 6057   0.919   3.208   2.740
 1507SOL    HW2 6058   0.903   3.286   2.688
 1507SOL    HW3 6059   1.006   3.179   2.712
 1507SOL    MW4 6060   0.928   3.215   2.730
 1508SOL     OW 6061   0.887   3.462   2.625
 1508SOL    HW2 6062   0.961   3.508   2.666
 1508SOL    HW3 6063   0.810   3.512   2.654
 1508SOL    MW4 6064   0.887   3.475   2.634
 1509SOL     OW 6065   1.102   3.599   2.736
 1509SOL    HW2 6066   1.101   3.626   2.828
 1509SOL    HW3 6067   1.100   3.681   2.687
 1509SOL    MW4 6068   1.102   3.613   2.742
 1510SOL     OW 6069   1.098   3.851   2.633
 1510SOL    HW2 6070   1.178   3.889   2.670
 1510SOL    HW3 6071   1.110   3.859   2.538
 1510SOL    MW4 6072   1.110   3.857   2.625
 1511SOL     OW 6073   0.893   4.008   2.748
 1511SOL    HW2 6074   0.958   3.963   2.693
 1511SOL    HW3 6075   0.809   3.970   2.721
 1511SOL    MW4 6076   0.890   3.997   2.737
 1512SOL     OW 6077   0.888   4.266   2.651
 1512SOL    HW2 6078   0.892   4.174   2.676
 1512SOL    HW3 6079   0.884   4.265   2.556
 1512SOL    MW4 6080   0.888   4.254   2.642
 1513SOL     OW 6081   1.144   4.351   2.707
 1513SOL    HW2 6082   1.137   4.378   2.798
 1513SOL    HW3 6083   1.055   4.327   2.682
 1513SOL    MW4 6084   1.131   4.351   2.715
 1514SOL     OW 6085   1.504   4.642   2.631
 1514SOL    HW2 6086   1.518   4.555   2.668
 1514SOL    HW3 6087   1.521   4.631   2.537
 1514SOL    MW4 6088   1.508   4.629   2.624
 1515SOL     OW 6089   1.287   0.106   2.719
 1515SOL    HW2 6090   1.310   0.193   2.686
 1515SOL    HW3 6091   1.358   0.049   2.689
 1515SOL    MW4 6092   1.300   0.110   2.711
 1516SOL     OW 6093   1.342   0.370   2.621
 1516SOL    HW2 6094   1.408   0.410   2.678
 1516SOL    HW3 6095   1.261   0.417   2.640
 1516SOL    MW4 6096   1.340   0.381   2.631
 1517SOL     OW 6097   1.549   0.511   2.761
 1517SOL    HW2 6098   1.605   0.461   2.701
 1517SOL    HW3 6099   1.539   0.596   2.719
 1517SOL    MW4 6100   1.555   0.515   2.747
 1518SOL     OW 6101   1.562   0.761   2.644
 1518SOL    HW2 6102   1.497   0.827   2.670
 1518SOL    HW3 6103   1.558   0.761   2.548
 1518SOL    MW4 6104   1.553   0.769   2.634
 1519SOL     OW 6105   1.373   0.943   2.739
 1519SOL    HW2 6106   1.365   0.944   2.835
 1519SOL    HW3 6107   1.346   1.031   2.712
 1519SOL    MW4 6108   1.368   0.955   2.748
 1520SOL     OW 6109   1.347   1.189   2.599
 1520SOL    HW2 6110   1.416   1.247   2.629
 1520SOL    HW3 6111   1.266   1.231   2.628
 1520SOL    MW4 6112   1.346   1.202   2.607
 1521SOL     OW 6113   1.568   1.307   2.731
 1521SOL    HW2 6114   1.573   1.281   2.823
 1521SOL    HW3 6115   1.634   1.254   2.687
 1521SOL    MW4 6116   1.577   1.297   2.737
 1522SOL     OW 6117   1.603   1.573   2.638
 1522SOL    HW2 6118   1.576   1.491   2.680
 1522SOL    HW3 6119   1.595   1.557   2.545
 1522SOL    MW4 6120   1.598   1.560   2.632
 1523SOL     OW 6121   1.379   1.689   2.755
 1523SOL    HW2 6122   1.462   1.654   2.720
 1523SOL    HW3 6123   1.311   1.638   2.712
 1523SOL    MW4 6124   1.381   1.678   2.745
 1524SOL     OW 6125   1.367   1.923   2.616
 1524SOL    HW2 6126   1.349   1.837   2.654
 1524SOL    HW3 6127   1.360   1.909   2.522
 1524SOL    MW4 6128   1.363   1.910   2.609
 1525SOL     OW 6129   1.572   2.059   2.734
 1525SOL    HW2 6130   1.653   2.048   2.685
 1525SOL    HW3 6131   1.507   2.009   2.684
 1525SOL    MW4 6132   1.574   2.051   2.721
 1526SOL     OW 6133   1.524   2.307   2.595
 1526SOL    HW2 6134   1.597   2.364   2.620
 1526SOL    HW3 6135   1.533   2.231   2.651
 1526SOL    MW4 6136   1.535   2.304   2.605
 1527SOL     OW 6137   1.321   2.444   2.751
 1527SOL    HW2 6138   1.310   2.536   2.725
 1527SOL    HW3 6139   1.388   2.410   2.692
 1527SOL    MW4 6140   1.328   2.452   2.740
 1528SOL     OW 6141   1.308   2.693   2.639
 1528SOL    HW2 6142   1.385   2.741   2.668
 1528SOL    HW3 6143   1.307   2.704   2.544
 1528SOL    MW4 6144   1.318   2.701   2.630
 1529SOL     OW 6145   1.541   2.824   2.727
 1529SOL    HW2 6146   1.557   2.822   2.821
 1529SOL    HW3 6147   1.621   2.787   2.689
 1529SOL    MW4 6148   1.554   2.819   2.734
 1530SOL     OW 6149   1.532   3.082   2.650
 1530SOL    HW2 6150   1.618   3.114   2.676
 1530SOL    HW3 6151   1.536   2.987   2.667
 1530SOL    MW4 6152   1.544   3.073   2.656
 1531SOL     OW 6153   1.345   3.241   2.777
 1531SOL    HW2 6154   1.419   3.194   2.741
 1531SOL    HW3 6155   1.268   3.198   2.739
 1531SOL    MW4 6156   1.344   3.229   2.767
 1532SOL     OW 6157   1.336   3.466   2.641
 1532SOL    HW2 6158   1.341   3.385   2.691
 1532SOL    HW3 6159   1.263   3.514   2.680
 1532SOL    MW4 6160   1.327   3.462   2.653
 1533SOL     OW 6161   1.565   3.604   2.710
 1533SOL    HW2 6162   1.631   3.540   2.682
 1533SOL    HW3 6163   1.481   3.562   2.690
 1533SOL    MW4 6164   1.563   3.590   2.703
 1534SOL     OW 6165   1.595   3.864   2.623
 1534SOL    HW2 6166   1.519   3.909   2.661
 1534SOL    HW3 6167   1.582   3.772   2.647
 1534SOL    MW4 6168   1.583   3.858   2.631
 1535SOL     OW 6169   1.349   3.956   2.706
 1535SOL    HW2 6170   1.326   3.966   2.798
 1535SOL    HW3 6171   1.358   4.046   2.674
 1535SOL    MW4 6172   1.347   3.969   2.714
 1536SOL     OW 6173   1.382   4.205   2.614
 1536SOL    HW2 6174   1.301   4.252   2.638
 1536SOL    HW3 6175   1.389   4.218   2.520
 1536SOL    MW4 6176   1.372   4.213   2.605
 1537SOL     OW 6177   1.557   4.379   2.721
 1537SOL    HW2 6178   1.539   4.385   2.815
 1537SOL    HW3 6179   1.506   4.304   2.692
 1537SOL    MW4 6180   1.548   4.370   2.730
 1538SOL     OW 6181   1.968   4.663   2.656
 1538SOL    HW2 6182   2.059   4.682   2.680
 1538SOL    HW3 6183   1.969   4.659   2.560
 1538SOL    MW4 6184   1.980   4.665   2.646
 1539SOL     OW 6185   1.736   0.117   2.697
 1539SOL    HW2 6186   1.814   0.065   2.679
 1539SOL    HW3 6187   1.663   0.056   2.685
 1539SOL    MW4 6188   1.736   0.102   2.693
 1540SOL     OW 6189   1.743   0.379   2.600
 1540SOL    HW2 6190   1.811   0.428   2.647
 1540SOL    HW3 6191   1.753   0.289   2.631
 1540SOL    MW4 6192   1.754   0.374   2.610
 1541SOL     OW 6193   1.967   0.500   2.708
 1541SOL    HW2 6194   2.035   0.443   2.671
 1541SOL    HW3 6195   1.982   0.585   2.666
 1541SOL    MW4 6196   1.978   0.504   2.697
 1542SOL     OW 6197   2.021   0.739   2.590
 1542SOL    HW2 6198   1.954   0.798   2.625
 1542SOL    HW3 6199   2.009   0.741   2.495
 1542SOL    MW4 6200   2.010   0.747   2.582
 1543SOL     OW 6201   1.817   0.885   2.710
 1543SOL    HW2 6202   1.824   0.980   2.694
 1543SOL    HW3 6203   1.726   0.864   2.689
 1543SOL    MW4 6204   1.806   0.895   2.705
 1544SOL     OW 6205   1.803   1.137   2.630
 1544SOL    HW2 6206   1.875   1.196   2.651
 1544SOL    HW3 6207   1.782   1.155   2.538
 1544SOL    MW4 6208   1.809   1.147   2.621
 1545SOL     OW 6209   2.007   1.320   2.673
 1545SOL    HW2 6210   2.006   1.311   2.769
 1545SOL    HW3 6211   2.093   1.287   2.647
 1545SOL    MW4 6212   2.018   1.314   2.683
 1546SOL     OW 6213   2.052   1.585   2.583
 1546SOL    HW2 6214   1.989   1.650   2.614
 1546SOL    HW3 6215   2.016   1.501   2.611
 1546SOL    MW4 6216   2.039   1.582   2.590
 1547SOL     OW 6217   1.845   1.691   2.700
 1547SOL    HW2 6218   1.858   1.677   2.794
 1547SOL    HW3 6219   1.764   1.644   2.680
 1547SOL    MW4 6220   1.836   1.683   2.710
 1548SOL     OW 6221   1.794   1.954   2.588
 1548SOL    HW2 6222   1.879   1.986   2.619
 1548SOL    HW3 6223   1.785   1.867   2.629
 1548SOL    MW4 6224   1.804   1.947   2.597
 1549SOL     OW 6225   1.994   2.124   2.718
 1549SOL    HW2 6226   1.987   2.103   2.811
 1549SOL    HW3 6227   2.004   2.219   2.716
 1549SOL    MW4 6228   1.994   2.134   2.730
 1550SOL     OW 6229   2.021   2.380   2.671
 1550SOL    HW2 6230   2.103   2.417   2.703
 1550SOL    HW3 6231   2.030   2.379   2.576
 1550SOL    MW4 6232   2.033   2.385   2.663
 1551SOL     OW 6233   1.755   2.430   2.702
 1551SOL    HW2 6234   1.745   2.442   2.796
 1551SOL    HW3 6235   1.849   2.419   2.689
 1551SOL    MW4 6236   1.766   2.430   2.713
 1552SOL     OW 6237   1.775   2.707   2.638
 1552SOL    HW2 6238   1.775   2.616   2.668
 1552SOL    HW3 6239   1.786   2.701   2.544
 1552SOL    MW4 6240   1.777   2.694   2.630
 1553SOL     OW 6241   2.030   2.802   2.747
 1553SOL    HW2 6242   2.098   2.760   2.694
 1553SOL    HW3 6243   1.949   2.763   2.717
 1553SOL    MW4 6244   2.029   2.791   2.736
 1554SOL     OW 6245   2.023   3.130   2.652
 1554SOL    HW2 6246   2.007   3.038   2.669
 1554SOL    HW3 6247   2.012   3.140   2.558
 1554SOL    MW4 6248   2.020   3.119   2.642
 1555SOL     OW 6249   1.780   3.233   2.753
 1555SOL    HW2 6250   1.776   3.305   2.691
 1555SOL    HW3 6251   1.868   3.198   2.745
 1555SOL    MW4 6252   1.791   3.238   2.744
 1556SOL     OW 6253   1.786   3.466   2.627
 1556SOL    HW2 6254   1.869   3.507   2.651
 1556SOL    HW3 6255   1.785   3.469   2.531
 1556SOL    MW4 6256   1.797   3.472   2.618
 1557SOL     OW 6257   2.022   3.581   2.714
 1557SOL    HW2 6258   2.026   3.584   2.810
 1557SOL    HW3 6259   2.097   3.528   2.688
 1557SOL    MW4 6260   2.032   3.575   2.723
 1558SOL     OW 6261   2.034   3.835   2.626
 1558SOL    HW2 6262   1.960   3.881   2.665
 1558SOL    HW3 6263   2.029   3.746   2.663
 1558SOL    MW4 6264   2.023   3.829   2.636
 1559SOL     OW 6265   1.827   4.005   2.732
 1559SOL    HW2 6266   1.823   4.093   2.693
 1559SOL    HW3 6267   1.753   3.958   2.694
 1559SOL    MW4 6268   1.817   4.011   2.722
 1560SOL     OW 6269   1.793   4.271   2.641
 1560SOL    HW2 6270   1.710   4.306   2.672
 1560SOL    HW3 6271   1.795   4.293   2.548
 1560SOL    MW4 6272   1.782   4.279   2.633
 1561SOL     OW 6273   2.014   4.403   2.718
 1561SOL    HW2 6274   1.933   4.356   2.697
 1561SOL    HW3 6275   1.999   4.492   2.684
 1561SOL    MW4 6276   2.001   4.409   2.710
 1562SOL     OW 6277   2.468   4.639   2.597
 1562SOL    HW2 6278   2.549   4.684   2.623
 1562SOL    HW3 6279   2.467   4.645   2.502
 1562SOL    MW4 6280   2.479   4.646   2.588
 1563SOL     OW 6281   2.231   0.063   2.727
 1563SOL    HW2 6282   2.246   0.064   2.821
 1563SOL    HW3 6283   2.312   0.030   2.689
 1563SOL    MW4 6284   2.243   0.059   2.734
 1564SOL     OW 6285   2.168   0.328   2.630
 1564SOL    HW2 6286   2.198   0.243   2.663
 1564SOL    HW3 6287   2.186   0.325   2.536
 1564SOL    MW4 6288   2.174   0.316   2.622
 1565SOL     OW 6289   2.433   0.481   2.746
 1565SOL    HW2 6290   2.434   0.569   2.708
 1565SOL    HW3 6291   2.349   0.444   2.718
 1565SOL    MW4 6292   2.422   0.488   2.737
 1566SOL     OW 6293   2.450   0.746   2.635
 1566SOL    HW2 6294   2.371   0.794   2.658
 1566SOL    HW3 6295   2.448   0.741   2.539
 1566SOL    MW4 6296   2.439   0.752   2.625
 1567SOL     OW 6297   2.223   0.868   2.730
 1567SOL    HW2 6298   2.217   0.864   2.826
 1567SOL    HW3 6299   2.150   0.816   2.699
 1567SOL    MW4 6300   2.213   0.861   2.739
 1568SOL     OW 6301   2.264   1.135   2.672
 1568SOL    HW2 6302   2.275   1.042   2.693
 1568SOL    HW3 6303   2.240   1.135   2.579
 1568SOL    MW4 6304   2.262   1.123   2.662
 1569SOL     OW 6305   2.472   1.293   2.724
 1569SOL    HW2 6306   2.538   1.234   2.688
 1569SOL    HW3 6307   2.390   1.244   2.717
 1569SOL    MW4 6308   2.470   1.279   2.718
 1570SOL     OW 6309   2.491   1.553   2.612
 1570SOL    HW2 6310   2.411   1.599   2.639
 1570SOL    HW3 6311   2.484   1.467   2.651
 1570SOL    MW4 6312   2.479   1.548   2.621
 1571SOL     OW 6313   2.280   1.686   2.721
 1571SOL    HW2 6314   2.268   1.779   2.702
 1571SOL    HW3 6315   2.204   1.643   2.681
 1571SOL    MW4 6316   2.268   1.693   2.714
 1572SOL     OW 6317   2.232   1.952   2.613
 1572SOL    HW2 6318   2.169   2.016   2.646
 1572SOL    HW3 6319   2.219   1.950   2.518
 1572SOL    MW4 6320   2.222   1.960   2.605
 1573SOL     OW 6321   2.450   2.039   2.734
 1573SOL    HW2 6322   2.453   2.131   2.708
 1573SOL    HW3 6323   2.376   2.003   2.686
 1573SOL    MW4 6324   2.441   2.046   2.724
 1574SOL     OW 6325   2.470   2.308   2.617
 1574SOL    HW2 6326   2.546   2.362   2.638
 1574SOL    HW3 6327   2.463   2.312   2.522
 1574SOL    MW4 6328   2.479   2.316   2.607
 1575SOL     OW 6329   2.268   2.470   2.738
 1575SOL    HW2 6330   2.263   2.438   2.828
 1575SOL    HW3 6331   2.341   2.422   2.699
 1575SOL    MW4 6332   2.277   2.459   2.744
 1576SOL     OW 6333   2.243   2.703   2.594
 1576SOL    HW2 6334   2.317   2.751   2.629
 1576SOL    HW3 6335   2.250   2.616   2.634
 1576SOL    MW4 6336   2.253   2.698   2.604
 1577SOL     OW 6337   2.445   2.842   2.699
 1577SOL    HW2 6338   2.516   2.785   2.670
 1577SOL    HW3 6339   2.463   2.926   2.658
 1577SOL    MW4 6340   2.457   2.845   2.690
 1578SOL     OW 6341   2.467   3.099   2.591
 1578SOL    HW2 6342   2.403   3.126   2.657
 1578SOL    HW3 6343   2.424   3.113   2.507
 1578SOL    MW4 6344   2.453   3.105   2.589
 1579SOL     OW 6345   2.264   3.198   2.753
 1579SOL    HW2 6346   2.259   3.220   2.846
 1579SOL    HW3 6347   2.175   3.168   2.731
 1579SOL    MW4 6348   2.251   3.197   2.762
 1580SOL     OW 6349   2.245   3.431   2.603
 1580SOL    HW2 6350   2.314   3.479   2.649
 1580SOL    HW3 6351   2.243   3.346   2.646
 1580SOL    MW4 6352   2.254   3.426   2.615
 1581SOL     OW 6353   2.458   3.575   2.717
 1581SOL    HW2 6354   2.445   3.592   2.810
 1581SOL    HW3 6355   2.458   3.662   2.677
 1581SOL    MW4 6356   2.456   3.589   2.724
 1582SOL     OW 6357   2.449   3.835   2.612
 1582SOL    HW2 6358   2.518   3.891   2.647
 1582SOL    HW3 6359   2.369   3.886   2.623
 1582SOL    MW4 6360   2.447   3.849   2.618
 1583SOL     OW 6361   2.237   3.995   2.699
 1583SOL    HW2 6362   2.244   3.992   2.794
 1583SOL    HW3 6363   2.151   3.959   2.679
 1583SOL    MW4 6364   2.227   3.990   2.709
 1584SOL     OW 6365   2.246   4.261   2.626
 1584SOL    HW2 6366   2.237   4.166   2.634
 1584SOL    HW3 6367   2.159   4.295   2.647
 1584SOL    MW4 6368   2.233   4.252   2.630
 1585SOL     OW 6369   2.447   4.401   2.718
 1585SOL    HW2 6370   2.368   4.364   2.679
 1585SOL    HW3 6371   2.448   4.492   2.688
 1585SOL    MW4 6372   2.436   4.408   2.709
 1586SOL     OW 6373   2.923   4.643   2.641
 1586SOL    HW2 6374   3.006   4.683   2.668
 1586SOL    HW3 6375   2.927   4.644   2.545
 1586SOL    MW4 6376   2.935   4.648   2.632
 1587SOL     OW 6377   2.676   0.087   2.700
 1587SOL    HW2 6378   2.679   0.103   2.794
 1587SOL    HW3 6379   2.766   0.064   2.676
 1587SOL    MW4 6380   2.689   0.086   2.709
 1588SOL     OW 6381   2.662   0.362   2.622
 1588SOL    HW2 6382   2.664   0.276   2.663
 1588SOL    HW3 6383   2.595   0.410   2.671
 1588SOL    MW4 6384   2.653   0.357   2.634
 1589SOL     OW 6385   2.884   0.490   2.754
 1589SOL    HW2 6386   2.893   0.578   2.717
 1589SOL    HW3 6387   2.811   0.451   2.705
 1589SOL    MW4 6388   2.876   0.497   2.743
 1590SOL     OW 6389   2.940   0.744   2.649
 1590SOL    HW2 6390   3.016   0.799   2.665
 1590SOL    HW3 6391   2.866   0.793   2.684
 1590SOL    MW4 6392   2.940   0.757   2.656
 1591SOL     OW 6393   2.703   0.857   2.727
 1591SOL    HW2 6394   2.689   0.862   2.821
 1591SOL    HW3 6395   2.627   0.810   2.693
 1591SOL    MW4 6396   2.691   0.852   2.735
 1592SOL     OW 6397   2.672   1.130   2.628
 1592SOL    HW2 6398   2.758   1.172   2.635
 1592SOL    HW3 6399   2.681   1.050   2.679
 1592SOL    MW4 6400   2.685   1.125   2.635
 1593SOL     OW 6401   2.922   1.242   2.666
 1593SOL    HW2 6402   2.909   1.238   2.761
 1593SOL    HW3 6403   3.011   1.211   2.653
 1593SOL    MW4 6404   2.932   1.237   2.677
 1594SOL     OW 6405   2.939   1.516   2.591
 1594SOL    HW2 6406   2.869   1.569   2.627
 1594SOL    HW3 6407   2.922   1.428   2.625
 1594SOL    MW4 6408   2.928   1.511   2.600
 1595SOL     OW 6409   2.720   1.681   2.715
 1595SOL    HW2 6410   2.711   1.673   2.809
 1595SOL    HW3 6411   2.640   1.643   2.679
 1595SOL    MW4 6412   2.708   1.675   2.722
 1596SOL     OW 6413   2.680   1.926   2.590
 1596SOL    HW2 6414   2.694   1.842   2.634
 1596SOL    HW3 6415   2.597   1.957   2.626
 1596SOL    MW4 6416   2.671   1.919   2.600
 1597SOL     OW 6417   2.901   2.043   2.705
 1597SOL    HW2 6418   2.912   2.136   2.683
 1597SOL    HW3 6419   2.827   2.015   2.650
 1597SOL    MW4 6420   2.893   2.052   2.695
 1598SOL     OW 6421   2.949   2.301   2.627
 1598SOL    HW2 6422   3.024   2.346   2.667
 1598SOL    HW3 6423   2.873   2.351   2.657
 1598SOL    MW4 6424   2.949   2.314   2.637
 1599SOL     OW 6425   2.706   2.430   2.719
 1599SOL    HW2 6426   2.703   2.433   2.815
 1599SOL    HW3 6427   2.683   2.518   2.691
 1599SOL    MW4 6428   2.702   2.442   2.728
 1600SOL     OW 6429   2.657   2.683   2.612
 1600SOL    HW2 6430   2.718   2.739   2.659
 1600SOL    HW3 6431   2.674   2.700   2.520
 1600SOL    MW4 6432   2.667   2.692   2.606
 1601SOL     OW 6433   2.893   2.819   2.746
 1601SOL    HW2 6434   2.900   2.822   2.842
 1601SOL    HW3 6435   2.896   2.911   2.719
 1601SOL    MW4 6436   2.894   2.831   2.755
 1602SOL     OW 6437   2.936   3.070   2.648
 1602SOL    HW2 6438   2.864   3.126   2.680
 1602SOL    HW3 6439   2.921   3.064   2.554
 1602SOL    MW4 6440   2.924   3.077   2.640
 1603SOL     OW 6441   2.698   3.217   2.724
 1603SOL    HW2 6442   2.689   3.298   2.673
 1603SOL    HW3 6443   2.631   3.159   2.690
 1603SOL    MW4 6444   2.688   3.220   2.713
 1604SOL     OW 6445   2.693   3.458   2.602
 1604SOL    HW2 6446   2.607   3.478   2.637
 1604SOL    HW3 6447   2.688   3.480   2.509
 1604SOL    MW4 6448   2.681   3.464   2.594
 1605SOL     OW 6449   2.909   3.617   2.701
 1605SOL    HW2 6450   2.903   3.629   2.795
 1605SOL    HW3 6451   2.830   3.568   2.678
 1605SOL    MW4 6452   2.898   3.612   2.710
 1606SOL     OW 6453   2.897   3.875   2.593
 1606SOL    HW2 6454   2.957   3.930   2.644
 1606SOL    HW3 6455   2.893   3.793   2.643
 1606SOL    MW4 6456   2.905   3.871   2.606
 1607SOL     OW 6457   2.660   3.990   2.719
 1607SOL    HW2 6458   2.642   4.082   2.699
 1607SOL    HW3 6459   2.742   3.972   2.672
 1607SOL    MW4 6460   2.669   4.000   2.710
 1608SOL     OW 6461   2.667   4.243   2.634
 1608SOL    HW2 6462   2.738   4.293   2.675
 1608SOL    HW3 6463   2.587   4.290   2.659
 1608SOL    MW4 6464   2.666   4.256   2.643
 1609SOL     OW 6465   2.879   4.374   2.718
 1609SOL    HW2 6466   2.896   4.383   2.812
 1609SOL    HW3 6467   2.886   4.464   2.684
 1609SOL    MW4 6468   2.882   4.387   2.726
 1610SOL     OW 6469   3.346   4.665   2.598
 1610SOL    HW2 6470   3.367   4.578   2.631
 1610SOL    HW3 6471   3.278   4.697   2.657
 1610SOL    MW4 6472   3.340   4.658   2.610
 1611SOL     OW 6473   3.152   0.103   2.771
 1611SOL    HW2 6474   3.136   0.093   2.865
 1611SOL    HW3 6475   3.144   0.197   2.755
 1611SOL    MW4 6476   3.149   0.114   2.781
 1612SOL     OW 6477   3.125   0.369   2.692
 1612SOL    HW2 6478   3.047   0.416   2.720
 1612SOL    HW3 6479   3.110   0.351   2.599
 1612SOL    MW4 6480   3.113   0.373   2.683
 1613SOL     OW 6481   3.375   0.480   2.725
 1613SOL    HW2 6482   3.369   0.573   2.703
 1613SOL    HW3 6483   3.288   0.445   2.707
 1613SOL    MW4 6484   3.363   0.488   2.720
 1614SOL     OW 6485   3.387   0.752   2.665
 1614SOL    HW2 6486   3.463   0.810   2.671
 1614SOL    HW3 6487   3.383   0.729   2.572
 1614SOL    MW4 6488   3.397   0.757   2.653
 1615SOL     OW 6489   3.145   0.911   2.747
 1615SOL    HW2 6490   3.129   0.913   2.841
 1615SOL    HW3 6491   3.225   0.859   2.738
 1615SOL    MW4 6492   3.153   0.904   2.758
 1616SOL     OW 6493   3.189   1.147   2.615
 1616SOL    HW2 6494   3.165   1.062   2.653
 1616SOL    HW3 6495   3.169   1.137   2.522
 1616SOL    MW4 6496   3.183   1.134   2.608
 1617SOL     OW 6497   3.407   1.267   2.724
 1617SOL    HW2 6498   3.380   1.277   2.816
 1617SOL    HW3 6499   3.334   1.221   2.683
 1617SOL    MW4 6500   3.393   1.262   2.731
 1618SOL     OW 6501   3.365   1.515   2.622
 1618SOL    HW2 6502   3.286   1.557   2.656
 1618SOL    HW3 6503   3.361   1.426   2.655
 1618SOL    MW4 6504   3.354   1.509   2.631
 1619SOL     OW 6505   3.132   1.662   2.738
 1619SOL    HW2 6506   3.129   1.751   2.702
 1619SOL    HW3 6507   3.056   1.618   2.700
 1619SOL    MW4 6508   3.122   1.668   2.728
 1620SOL     OW 6509   3.137   1.934   2.616
 1620SOL    HW2 6510   3.215   1.975   2.653
 1620SOL    HW3 6511   3.063   1.980   2.656
 1620SOL    MW4 6512   3.137   1.946   2.626
 1621SOL     OW 6513   3.374   2.048   2.723
 1621SOL    HW2 6514   3.386   2.048   2.818
 1621SOL    HW3 6515   3.374   2.140   2.699
 1621SOL    MW4 6516   3.376   2.060   2.733
 1622SOL     OW 6517   3.351   2.295   2.618
 1622SOL    HW2 6518   3.427   2.344   2.651
 1622SOL    HW3 6519   3.373   2.276   2.527
 1622SOL    MW4 6520   3.364   2.299   2.611
 1623SOL     OW 6521   3.171   2.462   2.748
 1623SOL    HW2 6522   3.163   2.543   2.697
 1623SOL    HW3 6523   3.241   2.413   2.706
 1623SOL    MW4 6524   3.179   2.467   2.736
 1624SOL     OW 6525   3.113   2.700   2.634
 1624SOL    HW2 6526   3.189   2.742   2.674
 1624SOL    HW3 6527   3.038   2.737   2.680
 1624SOL    MW4 6528   3.113   2.710   2.645
 1625SOL     OW 6529   3.365   2.812   2.718
 1625SOL    HW2 6530   3.373   2.819   2.813
 1625SOL    HW3 6531   3.443   2.764   2.691
 1625SOL    MW4 6532   3.377   2.807   2.727
 1626SOL     OW 6533   3.372   3.093   2.613
 1626SOL    HW2 6534   3.385   2.999   2.630
 1626SOL    HW3 6535   3.358   3.098   2.518
 1626SOL    MW4 6536   3.372   3.081   2.603
 1627SOL     OW 6537   3.165   3.216   2.757
 1627SOL    HW2 6538   3.239   3.169   2.721
 1627SOL    HW3 6539   3.088   3.164   2.731
 1627SOL    MW4 6540   3.164   3.203   2.749
 1628SOL     OW 6541   3.158   3.485   2.644
 1628SOL    HW2 6542   3.159   3.398   2.684
 1628SOL    HW3 6543   3.073   3.522   2.669
 1628SOL    MW4 6544   3.147   3.478   2.652
 1629SOL     OW 6545   3.347   3.647   2.766
 1629SOL    HW2 6546   3.323   3.639   2.858
 1629SOL    HW3 6547   3.281   3.595   2.720
 1629SOL    MW4 6548   3.335   3.639   2.772
 1630SOL     OW 6549   3.326   3.877   2.632
 1630SOL    HW2 6550   3.336   3.786   2.659
 1630SOL    HW3 6551   3.346   3.876   2.538
 1630SOL    MW4 6552   3.330   3.865   2.623
 1631SOL     OW 6553   3.117   4.026   2.718
 1631SOL    HW2 6554   3.134   4.117   2.698
 1631SOL    HW3 6555   3.190   3.978   2.679
 1631SOL    MW4 6556   3.129   4.031   2.710
 1632SOL     OW 6557   3.145   4.292   2.629
 1632SOL    HW2 6558   3.060   4.327   2.654
 1632SOL    HW3 6559   3.132   4.256   2.542
 1632SOL    MW4 6560   3.132   4.292   2.621
 1633SOL     OW 6561   3.374   4.410   2.704
 1633SOL    HW2 6562   3.367   4.412   2.799
 1633SOL    HW3 6563   3.294   4.365   2.675
 1633SOL    MW4 6564   3.362   4.404   2.713
 1634SOL     OW 6565   3.792   4.651   2.623
 1634SOL    HW2 6566   3.808   4.566   2.665
 1634SOL    HW3 6567   3.715   4.686   2.667
 1634SOL    MW4 6568   3.784   4.644   2.634
 1635SOL     OW 6569   3.565   0.115   2.744
 1635SOL    HW2 6570   3.579   0.204   2.712
 1635SOL    HW3 6571   3.487   0.085   2.697
 1635SOL    MW4 6572   3.556   0.123   2.733
 1636SOL     OW 6573   3.611   0.353   2.638
 1636SOL    HW2 6574   3.690   0.391   2.677
 1636SOL    HW3 6575   3.540   0.410   2.667
 1636SOL    MW4 6576   3.612   0.366   2.647
 1637SOL     OW 6577   3.836   0.484   2.755
 1637SOL    HW2 6578   3.831   0.474   2.850
 1637SOL    HW3 6579   3.926   0.463   2.733
 1637SOL    MW4 6580   3.847   0.480   2.764
 1638SOL     OW 6581   3.840   0.741   2.659
 1638SOL    HW2 6582   3.756   0.779   2.685
 1638SOL    HW3 6583   3.841   0.655   2.701
 1638SOL    MW4 6584   3.829   0.735   2.668
 1639SOL     OW 6585   3.607   0.896   2.704
 1639SOL    HW2 6586   3.593   0.904   2.798
 1639SOL    HW3 6587   3.601   0.986   2.671
 1639SOL    MW4 6588   3.605   0.909   2.712
 1640SOL     OW 6589   3.626   1.144   2.604
 1640SOL    HW2 6590   3.696   1.178   2.660
 1640SOL    HW3 6591   3.546   1.165   2.652
 1640SOL    MW4 6592   3.625   1.151   2.618
 1641SOL     OW 6593   3.812   1.305   2.770
 1641SOL    HW2 6594   3.883   1.247   2.743
 1641SOL    HW3 6595   3.824   1.384   2.717
 1641SOL    MW4 6596   3.823   1.308   2.760
 1642SOL     OW 6597   3.856   1.543   2.621
 1642SOL    HW2 6598   3.922   1.597   2.665
 1642SOL    HW3 6599   3.773   1.573   2.658
 1642SOL    MW4 6600   3.854   1.554   2.632
 1643SOL     OW 6601   3.603   1.657   2.682
 1643SOL    HW2 6602   3.583   1.745   2.651
 1643SOL    HW3 6603   3.526   1.605   2.658
 1643SOL    MW4 6604   3.590   1.662   2.674
 1644SOL     OW 6605   3.587   1.912   2.603
 1644SOL    HW2 6606   3.516   1.968   2.632
 1644SOL    HW3 6607   3.580   1.911   2.508
 1644SOL    MW4 6608   3.577   1.919   2.595
 1645SOL     OW 6609   3.818   2.020   2.697
 1645SOL    HW2 6610   3.875   1.954   2.657
 1645SOL    HW3 6611   3.732   2.004   2.658
 1645SOL    MW4 6612   3.814   2.009   2.686
 1646SOL     OW 6613   3.791   2.297   2.641
 1646SOL    HW2 6614   3.805   2.204   2.660
 1646SOL    HW3 6615   3.846   2.313   2.564
 1646SOL    MW4 6616   3.800   2.286   2.633
 1647SOL     OW 6617   3.558   2.429   2.737
 1647SOL    HW2 6618   3.573   2.433   2.831
 1647SOL    HW3 6619   3.635   2.383   2.703
 1647SOL    MW4 6620   3.570   2.424   2.745
 1648SOL     OW 6621   3.595   2.695   2.630
 1648SOL    HW2 6622   3.605   2.609   2.671
 1648SOL    HW3 6623   3.613   2.678   2.537
 1648SOL    MW4 6624   3.599   2.681   2.623
 1649SOL     OW 6625   3.787   2.857   2.738
 1649SOL    HW2 6626   3.859   2.802   2.706
 1649SOL    HW3 6627   3.710   2.824   2.692
 1649SOL    MW4 6628   3.787   2.845   2.728
 1650SOL     OW 6629   3.822   3.113   2.627
 1650SOL    HW2 6630   3.745   3.162   2.657
 1650SOL    HW3 6631   3.822   3.034   2.680
 1650SOL    MW4 6632   3.812   3.109   2.638
 1651SOL     OW 6633   3.587   3.226   2.741
 1651SOL    HW2 6634   3.596   3.313   2.702
 1651SOL    HW3 6635   3.516   3.184   2.693
 1651SOL    MW4 6636   3.579   3.232   2.730
 1652SOL     OW 6637   3.589   3.514   2.666
 1652SOL    HW2 6638   3.669   3.555   2.699
 1652SOL    HW3 6639   3.519   3.553   2.719
 1652SOL    MW4 6640   3.590   3.524   2.678
 1653SOL     OW 6641   3.821   3.639   2.736
 1653SOL    HW2 6642   3.900   3.588   2.716
 1653SOL    HW3 6643   3.827   3.715   2.678
 1653SOL    MW4 6644   3.833   3.642   2.726
 1654SOL     OW 6645   3.809   3.870   2.597
 1654SOL    HW2 6646   3.890   3.913   2.627
 1654SOL    HW3 6647   3.739   3.918   2.641
 1654SOL    MW4 6648   3.811   3.882   2.607
 1655SOL     OW 6649   3.573   3.980   2.720
 1655SOL    HW2 6650   3.572   4.075   2.708
 1655SOL    HW3 6651   3.486   3.951   2.691
 1655SOL    MW4 6652   3.561   3.988   2.715
 1656SOL     OW 6653   3.575   4.243   2.650
 1656SOL    HW2 6654   3.504   4.305   2.666
 1656SOL    HW3 6655   3.574   4.229   2.555
 1656SOL    MW4 6656   3.565   4.250   2.640
 1657SOL     OW 6657   3.807   4.381   2.724
 1657SOL    HW2 6658   3.885   4.341   2.689
 1657SOL    HW3 6659   3.735   4.328   2.692
 1657SOL    MW4 6660   3.807   4.369   2.715
 1658SOL     OW 6661   4.220   0.005   2.626
 1658SOL    HW2 6662   4.148   0.059   2.659
 1658SOL    HW3 6663   4.299   0.048   2.658
 1658SOL    MW4 6664   4.221   0.018   2.635
 1659SOL     OW 6665   3.995   0.120   2.719
 1659SOL    HW2 6666   4.013   0.106   2.812
 1659SOL    HW3 6667   3.920   0.063   2.701
 1659SOL    MW4 6668   3.988   0.110   2.729
 1660SOL     OW 6669   4.070   0.371   2.639
 1660SOL    HW2 6670   4.049   0.284   2.672
 1660SOL    HW3 6671   4.064   0.364   2.544
 1660SOL    MW4 6672   4.066   0.359   2.631
 1661SOL     OW 6673   4.302   0.461   2.765
 1661SOL    HW2 6674   4.229   0.411   2.728
 1661SOL    HW3 6675   4.379   0.433   2.716
 1661SOL    MW4 6676   4.302   0.451   2.754
 1662SOL     OW 6677   4.267   0.741   2.685
 1662SOL    HW2 6678   4.283   0.647   2.696
 1662SOL    HW3 6679   4.253   0.752   2.591
 1662SOL    MW4 6680   4.267   0.730   2.674
 1663SOL     OW 6681   4.048   0.885   2.765
 1663SOL    HW2 6682   4.133   0.842   2.756
 1663SOL    HW3 6683   3.989   0.834   2.709
 1663SOL    MW4 6684   4.051   0.873   2.756
 1664SOL     OW 6685   4.028   1.174   2.645
 1664SOL    HW2 6686   4.109   1.217   2.673
 1664SOL    HW3 6687   4.033   1.086   2.683
 1664SOL    MW4 6688   4.040   1.168   2.654
 1665SOL     OW 6689   4.255   1.273   2.766
 1665SOL    HW2 6690   4.292   1.359   2.745
 1665SOL    HW3 6691   4.311   1.210   2.721
 1665SOL    MW4 6692   4.267   1.276   2.758
 1666SOL     OW 6693   4.312   1.514   2.658
 1666SOL    HW2 6694   4.388   1.559   2.694
 1666SOL    HW3 6695   4.302   1.551   2.571
 1666SOL    MW4 6696   4.321   1.524   2.651
 1667SOL     OW 6697   4.087   1.645   2.732
 1667SOL    HW2 6698   4.081   1.649   2.828
 1667SOL    HW3 6699   4.165   1.591   2.715
 1667SOL    MW4 6700   4.096   1.638   2.742
 1668SOL     OW 6701   4.041   1.878   2.576
 1668SOL    HW2 6702   4.101   1.935   2.625
 1668SOL    HW3 6703   4.055   1.791   2.613
 1668SOL    MW4 6704   4.051   1.874   2.587
 1669SOL     OW 6705   4.232   2.040   2.700
 1669SOL    HW2 6706   4.250   2.126   2.663
 1669SOL    HW3 6707   4.314   1.991   2.688
 1669SOL    MW4 6708   4.245   2.045   2.693
 1670SOL     OW 6709   4.269   2.307   2.602
 1670SOL    HW2 6710   4.199   2.348   2.652
 1670SOL    HW3 6711   4.248   2.327   2.511
 1670SOL    MW4 6712   4.257   2.315   2.597
 1671SOL     OW 6713   4.024   2.424   2.700
 1671SOL    HW2 6714   4.053   2.436   2.790
 1671SOL    HW3 6715   3.942   2.374   2.707
 1671SOL    MW4 6716   4.017   2.419   2.713
 1672SOL     OW 6717   4.006   2.706   2.623
 1672SOL    HW2 6718   4.076   2.748   2.673
 1672SOL    HW3 6719   4.009   2.614   2.651
 1672SOL    MW4 6720   4.016   2.699   2.633
 1673SOL     OW 6721   4.231   2.827   2.741
 1673SOL    HW2 6722   4.236   2.812   2.836
 1673SOL    HW3 6723   4.241   2.922   2.732
 1673SOL    MW4 6724   4.233   2.838   2.753
 1674SOL     OW 6725   4.303   3.108   2.678
 1674SOL    HW2 6726   4.218   3.150   2.669
 1674SOL    HW3 6727   4.331   3.091   2.588
 1674SOL    MW4 6728   4.296   3.111   2.665
 1675SOL     OW 6729   4.035   3.240   2.736
 1675SOL    HW2 6730   4.032   3.334   2.721
 1675SOL    HW3 6731   3.956   3.206   2.694
 1675SOL    MW4 6732   4.025   3.248   2.729
 1676SOL     OW 6733   4.039   3.504   2.672
 1676SOL    HW2 6734   4.119   3.547   2.699
 1676SOL    HW3 6735   4.049   3.491   2.577
 1676SOL    MW4 6736   4.051   3.508   2.663
 1677SOL     OW 6737   4.276   3.631   2.739
 1677SOL    HW2 6738   4.262   3.626   2.833
 1677SOL    HW3 6739   4.356   3.582   2.723
 1677SOL    MW4 6740   4.285   3.624   2.749
 1678SOL     OW 6741   4.271   3.885   2.615
 1678SOL    HW2 6742   4.276   3.799   2.656
 1678SOL    HW3 6743   4.346   3.933   2.649
 1678SOL    MW4 6744   4.281   3.880   2.625
 1679SOL     OW 6745   4.042   3.994   2.699
 1679SOL    HW2 6746   4.044   3.990   2.795
 1679SOL    HW3 6747   4.127   3.959   2.671
 1679SOL    MW4 6748   4.053   3.989   2.708
 1680SOL     OW 6749   4.044   4.262   2.627
 1680SOL    HW2 6750   4.024   4.170   2.639
 1680SOL    HW3 6751   4.046   4.275   2.532
 1680SOL    MW4 6752   4.042   4.252   2.616
 1681SOL     OW 6753   4.280   4.395   2.744
 1681SOL    HW2 6754   4.203   4.348   2.710
 1681SOL    HW3 6755   4.263   4.487   2.723
 1681SOL    MW4 6756   4.267   4.401   2.737
 1682SOL     OW 6757   0.220   4.621   3.126
 1682SOL    HW2 6758   0.196   4.630   3.218
 1682SOL    HW3 6759   0.151   4.668   3.079
 1682SOL    MW4 6760   0.208   4.629   3.132
 1683SOL     OW 6761   0.038   0.096   2.992
 1683SOL    HW2 6762  -0.047   0.058   3.013
 1683SOL    HW3 6763   0.033   0.185   3.028
 1683SOL    MW4 6764   0.026   0.103   3.000
 1684SOL     OW 6765   0.042   0.365   3.100
 1684SOL    HW2 6766   0.047   0.357   3.195
 1684SOL    HW3 6767  -0.047   0.397   3.084
 1684SOL    MW4 6768   0.031   0.368   3.110
 1685SOL     OW 6769   0.266   0.526   3.004
 1685SOL    HW2 6770   0.339   0.471   3.031
 1685SOL    HW3 6771   0.188   0.477   3.030
 1685SOL    MW4 6772   0.265   0.512   3.011
 1686SOL     OW 6773   0.259   0.792   3.100
 1686SOL    HW2 6774   0.269   0.784   3.195
 1686SOL    HW3 6775   0.257   0.702   3.068
 1686SOL    MW4 6776   0.260   0.779   3.108
 1687SOL     OW 6777   0.002   0.856   3.043
 1687SOL    HW2 6778   0.092   0.833   3.066
 1687SOL    HW3 6779   0.001   0.856   2.947
 1687SOL    MW4 6780   0.014   0.853   3.033
 1688SOL     OW 6781   0.009   1.126   3.144
 1688SOL    HW2 6782  -0.072   1.174   3.128
 1688SOL    HW3 6783  -0.008   1.038   3.109
 1688SOL    MW4 6784  -0.004   1.120   3.137
 1689SOL     OW 6785   0.229   1.287   3.013
 1689SOL    HW2 6786   0.150   1.246   3.049
 1689SOL    HW3 6787   0.226   1.267   2.919
 1689SOL    MW4 6788   0.218   1.279   3.005
 1690SOL     OW 6789   0.230   1.579   3.072
 1690SOL    HW2 6790   0.138   1.601   3.063
 1690SOL    HW3 6791   0.234   1.486   3.050
 1690SOL    MW4 6792   0.218   1.570   3.068
 1691SOL     OW 6793   4.459   1.666   3.043
 1691SOL    HW2 6794   4.372   1.629   3.063
 1691SOL    HW3 6795   4.457   1.753   3.082
 1691SOL    MW4 6796   4.447   1.673   3.051
 1692SOL     OW 6797   4.451   1.918   3.153
 1692SOL    HW2 6798   4.372   1.957   3.114
 1692SOL    HW3 6799   4.524   1.969   3.116
 1692SOL    MW4 6800   4.450   1.930   3.143
 1693SOL     OW 6801   0.184   2.031   3.059
 1693SOL    HW2 6802   0.189   2.118   3.098
 1693SOL    HW3 6803   0.208   2.044   2.967
 1693SOL    MW4 6804   0.188   2.044   3.052
 1694SOL     OW 6805   0.196   2.313   3.108
 1694SOL    HW2 6806   0.182   2.311   3.203
 1694SOL    HW3 6807   0.281   2.356   3.097
 1694SOL    MW4 6808   0.205   2.318   3.119
 1695SOL     OW 6809   0.009   2.448   2.950
 1695SOL    HW2 6810  -0.015   2.510   3.019
 1695SOL    HW3 6811   0.074   2.390   2.991
 1695SOL    MW4 6812   0.014   2.448   2.965
 1696SOL     OW 6813   4.447   2.661   3.128
 1696SOL    HW2 6814   4.455   2.683   3.220
 1696SOL    HW3 6815   4.512   2.716   3.084
 1696SOL    MW4 6816   4.457   2.671   3.134
 1697SOL     OW 6817   0.193   2.798   3.003
 1697SOL    HW2 6818   0.279   2.784   3.043
 1697SOL    HW3 6819   0.209   2.795   2.908
 1697SOL    MW4 6820   0.206   2.795   2.995
 1698SOL     OW 6821   0.243   3.048   3.128
 1698SOL    HW2 6822   0.173   3.111   3.112
 1698SOL    HW3 6823   0.219   2.972   3.076
 1698SOL    MW4 6824   0.230   3.047   3.119
 1699SOL     OW 6825   0.025   3.217   3.088
 1699SOL    HW2 6826  -0.045   3.156   3.111
 1699SOL    HW3 6827   0.023   3.220   2.993
 1699SOL    MW4 6828   0.016   3.209   3.079
 1700SOL     OW 6829   0.002   3.490   3.143
 1700SOL    HW2 6830  -0.073   3.529   3.098
 1700SOL    HW3 6831  -0.008   3.396   3.129
 1700SOL    MW4 6832  -0.009   3.483   3.135
 1701SOL     OW 6833   0.217   3.588   3.014
 1701SOL    HW2 6834   0.212   3.666   3.070
 1701SOL    HW3 6835   0.148   3.530   3.047
 1701SOL    MW4 6836   0.207   3.591   3.026
 1702SOL     OW 6837   0.242   3.845   3.110
 1702SOL    HW2 6838   0.242   3.824   3.203
 1702SOL    HW3 6839   0.324   3.893   3.097
 1702SOL    MW4 6840   0.253   3.848   3.120
 1703SOL     OW 6841   0.012   3.946   3.014
 1703SOL    HW2 6842   0.093   3.900   3.033
 1703SOL    HW3 6843   0.009   3.952   2.919
 1703SOL    MW4 6844   0.022   3.941   3.004
 1704SOL     OW 6845   0.008   4.217   3.106
 1704SOL    HW2 6846   0.004   4.221   3.202
 1704SOL    HW3 6847   0.017   4.124   3.087
 1704SOL    MW4 6848   0.009   4.205   3.116
 1705SOL     OW 6849   0.249   4.347   3.027
 1705SOL    HW2 6850   0.171   4.302   3.060
 1705SOL    HW3 6851   0.243   4.435   3.063
 1705SOL    MW4 6852   0.238   4.353   3.036
 1706SOL     OW 6853   0.659   4.662   3.085
 1706SOL    HW2 6854   0.655   4.569   3.064
 1706SOL    HW3 6855   0.585   4.700   3.037
 1706SOL    MW4 6856   0.649   4.655   3.076
 1707SOL     OW 6857   0.427   0.109   2.999
 1707SOL    HW2 6858   0.435   0.194   3.043
 1707SOL    HW3 6859   0.365   0.060   3.052
 1707SOL    MW4 6860   0.420   0.114   3.012
 1708SOL     OW 6861   0.440   0.346   3.109
 1708SOL    HW2 6862   0.435   0.345   3.205
 1708SOL    HW3 6863   0.527   0.382   3.091
 1708SOL    MW4 6864   0.451   0.351   3.119
 1709SOL     OW 6865   0.650   0.489   3.025
 1709SOL    HW2 6866   0.738   0.457   3.043
 1709SOL    HW3 6867   0.655   0.584   3.040
 1709SOL    MW4 6868   0.662   0.497   3.029
 1710SOL     OW 6869   0.649   0.773   3.092
 1710SOL    HW2 6870   0.630   0.783   3.186
 1710SOL    HW3 6871   0.578   0.821   3.049
 1710SOL    MW4 6872   0.637   0.781   3.099
 1711SOL     OW 6873   0.447   0.923   2.961
 1711SOL    HW2 6874   0.374   0.885   3.009
 1711SOL    HW3 6875   0.430   0.902   2.870
 1711SOL    MW4 6876   0.435   0.915   2.956
 1712SOL     OW 6877   0.446   1.155   3.101
 1712SOL    HW2 6878   0.435   1.074   3.051
 1712SOL    HW3 6879   0.371   1.209   3.076
 1712SOL    MW4 6880   0.435   1.151   3.091
 1713SOL     OW 6881   0.701   1.259   3.029
 1713SOL    HW2 6882   0.768   1.204   3.070
 1713SOL    HW3 6883   0.618   1.217   3.054
 1713SOL    MW4 6884   0.699   1.246   3.038
 1714SOL     OW 6885   0.688   1.532   3.109
 1714SOL    HW2 6886   0.687   1.533   3.204
 1714SOL    HW3 6887   0.691   1.439   3.086
 1714SOL    MW4 6888   0.688   1.520   3.118
 1715SOL     OW 6889   0.466   1.701   2.996
 1715SOL    HW2 6890   0.540   1.666   3.045
 1715SOL    HW3 6891   0.392   1.645   3.019
 1715SOL    MW4 6892   0.466   1.689   3.005
 1716SOL     OW 6893   0.438   1.916   3.153
 1716SOL    HW2 6894   0.436   1.829   3.112
 1716SOL    HW3 6895   0.358   1.958   3.123
 1716SOL    MW4 6896   0.427   1.910   3.144
 1717SOL     OW 6897   0.673   1.996   2.995
 1717SOL    HW2 6898   0.755   1.963   3.031
 1717SOL    HW3 6899   0.606   1.964   3.056
 1717SOL    MW4 6900   0.675   1.987   3.008
 1718SOL     OW 6901   0.663   2.263   3.110
 1718SOL    HW2 6902   0.654   2.267   3.205
 1718SOL    HW3 6903   0.684   2.172   3.091
 1718SOL    MW4 6904   0.664   2.252   3.120
 1719SOL     OW 6905   0.450   2.426   3.023
 1719SOL    HW2 6906   0.531   2.377   3.036
 1719SOL    HW3 6907   0.425   2.407   2.932
 1719SOL    MW4 6908   0.457   2.417   3.012
 1720SOL     OW 6909   0.435   2.697   3.133
 1720SOL    HW2 6910   0.518   2.731   3.100
 1720SOL    HW3 6911   0.431   2.608   3.100
 1720SOL    MW4 6912   0.445   2.690   3.125
 1721SOL     OW 6913   0.679   2.796   3.039
 1721SOL    HW2 6914   0.762   2.749   3.054
 1721SOL    HW3 6915   0.696   2.884   3.073
 1721SOL    MW4 6916   0.692   2.801   3.046
 1722SOL     OW 6917   0.692   3.085   3.157
 1722SOL    HW2 6918   0.676   3.085   3.251
 1722SOL    HW3 6919   0.613   3.123   3.119
 1722SOL    MW4 6920   0.679   3.090   3.164
 1723SOL     OW 6921   0.497   3.215   3.020
 1723SOL    HW2 6922   0.491   3.310   3.023
 1723SOL    HW3 6923   0.418   3.185   3.066
 1723SOL    MW4 6924   0.486   3.223   3.027
 1724SOL     OW 6925   0.450   3.483   3.107
 1724SOL    HW2 6926   0.443   3.482   3.203
 1724SOL    HW3 6927   0.369   3.525   3.077
 1724SOL    MW4 6928   0.438   3.488   3.116
 1725SOL     OW 6929   0.687   3.623   3.029
 1725SOL    HW2 6930   0.752   3.553   3.032
 1725SOL    HW3 6931   0.606   3.583   3.059
 1725SOL    MW4 6932   0.685   3.609   3.033
 1726SOL     OW 6933   0.705   3.889   3.138
 1726SOL    HW2 6934   0.679   3.875   3.229
 1726SOL    HW3 6935   0.719   3.800   3.104
 1726SOL    MW4 6936   0.703   3.875   3.146
 1727SOL     OW 6937   0.464   3.985   3.051
 1727SOL    HW2 6938   0.551   3.947   3.065
 1727SOL    HW3 6939   0.451   3.979   2.956
 1727SOL    MW4 6940   0.473   3.979   3.040
 1728SOL     OW 6941   0.462   4.244   3.151
 1728SOL    HW2 6942   0.462   4.151   3.125
 1728SOL    HW3 6943   0.391   4.282   3.100
 1728SOL    MW4 6944   0.453   4.237   3.141
 1729SOL     OW 6945   0.663   4.395   3.038
 1729SOL    HW2 6946   0.605   4.329   3.076
 1729SOL    HW3 6947   0.658   4.381   2.944
 1729SOL    MW4 6948   0.655   4.385   3.031
 1730SOL     OW 6949   1.142   0.014   3.106
 1730SOL    HW2 6950   1.212   0.054   3.054
 1730SOL    HW3 6951   1.062   0.047   3.067
 1730SOL    MW4 6952   1.141   0.024   3.094
 1731SOL     OW 6953   0.889   0.105   2.971
 1731SOL    HW2 6954   0.887   0.191   3.012
 1731SOL    HW3 6955   0.820   0.055   3.014
 1731SOL    MW4 6956   0.880   0.110   2.982
 1732SOL     OW 6957   0.881   0.372   3.097
 1732SOL    HW2 6958   0.879   0.372   3.193
 1732SOL    HW3 6959   0.971   0.397   3.075
 1732SOL    MW4 6960   0.893   0.375   3.107
 1733SOL     OW 6961   1.142   0.483   3.012
 1733SOL    HW2 6962   1.231   0.454   3.034
 1733SOL    HW3 6963   1.146   0.502   2.918
 1733SOL    MW4 6964   1.154   0.482   3.003
 1734SOL     OW 6965   1.121   0.748   3.102
 1734SOL    HW2 6966   1.107   0.766   3.195
 1734SOL    HW3 6967   1.139   0.655   3.097
 1734SOL    MW4 6968   1.122   0.738   3.114
 1735SOL     OW 6969   0.896   0.857   3.001
 1735SOL    HW2 6970   0.965   0.806   3.043
 1735SOL    HW3 6971   0.816   0.830   3.046
 1735SOL    MW4 6972   0.894   0.847   3.012
 1736SOL     OW 6973   0.917   1.119   3.118
 1736SOL    HW2 6974   0.977   1.181   3.075
 1736SOL    HW3 6975   0.919   1.041   3.063
 1736SOL    MW4 6976   0.925   1.117   3.105
 1737SOL     OW 6977   1.104   1.300   3.007
 1737SOL    HW2 6978   1.180   1.260   3.049
 1737SOL    HW3 6979   1.123   1.297   2.913
 1737SOL    MW4 6980   1.117   1.294   3.000
 1738SOL     OW 6981   1.128   1.555   3.142
 1738SOL    HW2 6982   1.209   1.587   3.103
 1738SOL    HW3 6983   1.118   1.467   3.107
 1738SOL    MW4 6984   1.138   1.548   3.132
 1739SOL     OW 6985   0.912   1.653   3.005
 1739SOL    HW2 6986   0.983   1.617   3.058
 1739SOL    HW3 6987   0.835   1.602   3.031
 1739SOL    MW4 6988   0.911   1.642   3.016
 1740SOL     OW 6989   0.917   1.904   3.119
 1740SOL    HW2 6990   0.915   1.876   3.210
 1740SOL    HW3 6991   0.913   1.823   3.069
 1740SOL    MW4 6992   0.917   1.890   3.124
 1741SOL     OW 6993   1.132   2.015   3.018
 1741SOL    HW2 6994   1.048   1.974   3.038
 1741SOL    HW3 6995   1.133   2.023   2.923
 1741SOL    MW4 6996   1.121   2.011   3.008
 1742SOL     OW 6997   1.135   2.271   3.155
 1742SOL    HW2 6998   1.043   2.290   3.139
 1742SOL    HW3 6999   1.147   2.181   3.124
 1742SOL    MW4 7000   1.125   2.262   3.149
 1743SOL     OW 7001   0.878   2.409   3.058
 1743SOL    HW2 7002   0.798   2.370   3.095
 1743SOL    HW3 7003   0.874   2.389   2.965
 1743SOL    MW4 7004   0.867   2.401   3.051
 1744SOL     OW 7005   0.923   2.674   3.074
 1744SOL    HW2 7006   0.920   2.698   3.166
 1744SOL    HW3 7007   0.926   2.578   3.074
 1744SOL    MW4 7008   0.923   2.664   3.086
 1745SOL     OW 7009   1.123   2.817   2.989
 1745SOL    HW2 7010   1.120   2.890   3.050
 1745SOL    HW3 7011   1.055   2.756   3.020
 1745SOL    MW4 7012   1.113   2.818   3.001
 1746SOL     OW 7013   1.164   3.034   3.155
 1746SOL    HW2 7014   1.232   3.092   3.121
 1746SOL    HW3 7015   1.082   3.081   3.138
 1746SOL    MW4 7016   1.162   3.048   3.148
 1747SOL     OW 7017   0.928   3.163   3.042
 1747SOL    HW2 7018   0.848   3.140   3.089
 1747SOL    HW3 7019   0.902   3.162   2.949
 1747SOL    MW4 7020   0.914   3.160   3.036
 1748SOL     OW 7021   0.882   3.439   3.084
 1748SOL    HW2 7022   0.941   3.494   3.033
 1748SOL    HW3 7023   0.923   3.353   3.085
 1748SOL    MW4 7024   0.895   3.435   3.078
 1749SOL     OW 7025   1.107   3.626   3.010
 1749SOL    HW2 7026   1.193   3.596   3.040
 1749SOL    HW3 7027   1.104   3.719   3.031
 1749SOL    MW4 7028   1.118   3.634   3.017
 1750SOL     OW 7029   1.117   3.894   3.073
 1750SOL    HW2 7030   1.112   3.873   3.167
 1750SOL    HW3 7031   1.047   3.957   3.058
 1750SOL    MW4 7032   1.107   3.899   3.084
 1751SOL     OW 7033   0.906   4.046   3.021
 1751SOL    HW2 7034   0.851   3.976   3.056
 1751SOL    HW3 7035   0.902   4.035   2.926
 1751SOL    MW4 7036   0.898   4.035   3.013
 1752SOL     OW 7037   0.902   4.298   3.131
 1752SOL    HW2 7038   0.899   4.211   3.090
 1752SOL    HW3 7039   0.824   4.342   3.100
 1752SOL    MW4 7040   0.891   4.292   3.122
 1753SOL     OW 7041   1.138   4.413   2.979
 1753SOL    HW2 7042   1.057   4.379   3.016
 1753SOL    HW3 7043   1.155   4.494   3.029
 1753SOL    MW4 7044   1.130   4.419   2.990
 1754SOL     OW 7045   1.608   4.622   3.119
 1754SOL    HW2 7046   1.604   4.614   3.214
 1754SOL    HW3 7047   1.527   4.665   3.094
 1754SOL    MW4 7048   1.597   4.626   3.128
 1755SOL     OW 7049   1.380   0.093   2.980
 1755SOL    HW2 7050   1.390   0.181   3.018
 1755SOL    HW3 7051   1.356   0.109   2.889
 1755SOL    MW4 7052   1.379   0.107   2.973
 1756SOL     OW 7053   1.369   0.355   3.097
 1756SOL    HW2 7054   1.349   0.336   3.188
 1756SOL    HW3 7055   1.445   0.413   3.101
 1756SOL    MW4 7056   1.377   0.360   3.109
 1757SOL     OW 7057   1.584   0.529   3.039
 1757SOL    HW2 7058   1.606   0.622   3.049
 1757SOL    HW3 7059   1.561   0.519   2.947
 1757SOL    MW4 7060   1.584   0.540   3.028
 1758SOL     OW 7061   1.588   0.808   3.078
 1758SOL    HW2 7062   1.563   0.796   3.170
 1758SOL    HW3 7063   1.506   0.832   3.034
 1758SOL    MW4 7064   1.574   0.809   3.085
 1759SOL     OW 7065   1.337   0.894   3.005
 1759SOL    HW2 7066   1.336   0.980   3.047
 1759SOL    HW3 7067   1.259   0.850   3.040
 1759SOL    MW4 7068   1.326   0.900   3.015
 1760SOL     OW 7069   1.325   1.148   3.119
 1760SOL    HW2 7070   1.340   1.141   3.213
 1760SOL    HW3 7071   1.401   1.195   3.085
 1760SOL    MW4 7072   1.337   1.153   3.127
 1761SOL     OW 7073   1.553   1.269   2.996
 1761SOL    HW2 7074   1.634   1.220   3.013
 1761SOL    HW3 7075   1.571   1.356   3.032
 1761SOL    MW4 7076   1.566   1.274   3.003
 1762SOL     OW 7077   1.613   1.528   3.081
 1762SOL    HW2 7078   1.684   1.576   3.040
 1762SOL    HW3 7079   1.533   1.567   3.046
 1762SOL    MW4 7080   1.612   1.539   3.071
 1763SOL     OW 7081   1.376   1.643   3.025
 1763SOL    HW2 7082   1.389   1.730   3.064
 1763SOL    HW3 7083   1.382   1.658   2.931
 1763SOL    MW4 7084   1.378   1.657   3.018
 1764SOL     OW 7085   1.379   1.912   3.139
 1764SOL    HW2 7086   1.374   1.931   3.232
 1764SOL    HW3 7087   1.299   1.949   3.102
 1764SOL    MW4 7088   1.368   1.919   3.146
 1765SOL     OW 7089   1.562   2.100   3.013
 1765SOL    HW2 7090   1.486   2.051   3.046
 1765SOL    HW3 7091   1.556   2.092   2.918
 1765SOL    MW4 7092   1.551   2.092   3.005
 1766SOL     OW 7093   1.559   2.364   3.101
 1766SOL    HW2 7094   1.468   2.376   3.076
 1766SOL    HW3 7095   1.583   2.278   3.066
 1766SOL    MW4 7096   1.550   2.354   3.093
 1767SOL     OW 7097   1.312   2.453   3.022
 1767SOL    HW2 7098   1.232   2.408   3.051
 1767SOL    HW3 7099   1.306   2.453   2.927
 1767SOL    MW4 7100   1.300   2.447   3.013
 1768SOL     OW 7101   1.368   2.700   3.141
 1768SOL    HW2 7102   1.351   2.623   3.086
 1768SOL    HW3 7103   1.304   2.765   3.111
 1768SOL    MW4 7104   1.357   2.698   3.130
 1769SOL     OW 7105   1.562   2.843   3.003
 1769SOL    HW2 7106   1.647   2.815   3.038
 1769SOL    HW3 7107   1.498   2.802   3.062
 1769SOL    MW4 7108   1.565   2.834   3.015
 1770SOL     OW 7109   1.585   3.106   3.101
 1770SOL    HW2 7110   1.571   3.086   3.194
 1770SOL    HW3 7111   1.591   3.020   3.059
 1770SOL    MW4 7112   1.584   3.092   3.108
 1771SOL     OW 7113   1.341   3.250   3.065
 1771SOL    HW2 7114   1.422   3.203   3.083
 1771SOL    HW3 7115   1.327   3.240   2.971
 1771SOL    MW4 7116   1.350   3.243   3.055
 1772SOL     OW 7117   1.354   3.525   3.080
 1772SOL    HW2 7118   1.369   3.543   3.173
 1772SOL    HW3 7119   1.352   3.429   3.074
 1772SOL    MW4 7120   1.356   3.515   3.091
 1773SOL     OW 7121   1.583   3.637   2.990
 1773SOL    HW2 7122   1.506   3.593   3.025
 1773SOL    HW3 7123   1.571   3.635   2.895
 1773SOL    MW4 7124   1.571   3.631   2.982
 1774SOL     OW 7125   1.543   3.889   3.118
 1774SOL    HW2 7126   1.619   3.932   3.079
 1774SOL    HW3 7127   1.542   3.801   3.079
 1774SOL    MW4 7128   1.553   3.883   3.108
 1775SOL     OW 7129   1.329   4.010   2.966
 1775SOL    HW2 7130   1.404   3.972   3.011
 1775SOL    HW3 7131   1.253   3.969   3.007
 1775SOL    MW4 7132   1.329   4.000   2.978
 1776SOL     OW 7133   1.356   4.266   3.074
 1776SOL    HW2 7134   1.350   4.182   3.029
 1776SOL    HW3 7135   1.282   4.317   3.040
 1776SOL    MW4 7136   1.345   4.261   3.064
 1777SOL     OW 7137   1.590   4.384   2.993
 1777SOL    HW2 7138   1.506   4.349   3.022
 1777SOL    HW3 7139   1.601   4.464   3.044
 1777SOL    MW4 7140   1.580   4.390   3.004
 1778SOL     OW 7141   2.007   4.622   3.100
 1778SOL    HW2 7142   2.001   4.620   3.196
 1778SOL    HW3 7143   1.936   4.680   3.073
 1778SOL    MW4 7144   1.997   4.629   3.109
 1779SOL     OW 7145   1.800   0.099   2.986
 1779SOL    HW2 7146   1.731   0.050   3.031
 1779SOL    HW3 7147   1.778   0.092   2.893
 1779SOL    MW4 7148   1.788   0.092   2.979
 1780SOL     OW 7149   1.804   0.366   3.095
 1780SOL    HW2 7150   1.795   0.281   3.051
 1780SOL    HW3 7151   1.723   0.413   3.072
 1780SOL    MW4 7152   1.792   0.361   3.086
 1781SOL     OW 7153   2.037   0.485   2.987
 1781SOL    HW2 7154   1.958   0.449   3.027
 1781SOL    HW3 7155   2.022   0.476   2.893
 1781SOL    MW4 7156   2.025   0.479   2.980
 1782SOL     OW 7157   2.041   0.754   3.103
 1782SOL    HW2 7158   1.972   0.805   3.059
 1782SOL    HW3 7159   2.056   0.680   3.045
 1782SOL    MW4 7160   2.034   0.751   3.089
 1783SOL     OW 7161   1.845   0.889   2.981
 1783SOL    HW2 7162   1.762   0.855   3.012
 1783SOL    HW3 7163   1.837   0.890   2.885
 1783SOL    MW4 7164   1.833   0.885   2.972
 1784SOL     OW 7165   1.800   1.144   3.064
 1784SOL    HW2 7166   1.806   1.153   3.159
 1784SOL    HW3 7167   1.819   1.052   3.047
 1784SOL    MW4 7168   1.804   1.133   3.074
 1785SOL     OW 7169   2.016   1.289   2.943
 1785SOL    HW2 7170   2.096   1.257   2.984
 1785SOL    HW3 7171   1.945   1.241   2.986
 1785SOL    MW4 7172   2.017   1.279   2.954
 1786SOL     OW 7173   2.038   1.548   3.117
 1786SOL    HW2 7174   2.016   1.564   3.209
 1786SOL    HW3 7175   2.022   1.454   3.104
 1786SOL    MW4 7176   2.033   1.537   3.127
 1787SOL     OW 7177   1.830   1.669   2.981
 1787SOL    HW2 7178   1.814   1.748   3.033
 1787SOL    HW3 7179   1.894   1.620   3.032
 1787SOL    MW4 7180   1.837   1.673   2.994
 1788SOL     OW 7181   1.766   1.931   3.112
 1788SOL    HW2 7182   1.842   1.981   3.081
 1788SOL    HW3 7183   1.693   1.993   3.104
 1788SOL    MW4 7184   1.766   1.946   3.107
 1789SOL     OW 7185   1.983   2.063   3.006
 1789SOL    HW2 7186   2.067   2.026   3.032
 1789SOL    HW3 7187   1.986   2.154   3.037
 1789SOL    MW4 7188   1.994   2.070   3.014
 1790SOL     OW 7189   1.987   2.319   3.101
 1790SOL    HW2 7190   2.073   2.362   3.094
 1790SOL    HW3 7191   1.930   2.370   3.045
 1790SOL    MW4 7192   1.991   2.331   3.093
 1791SOL     OW 7193   1.790   2.497   2.986
 1791SOL    HW2 7194   1.788   2.587   3.019
 1791SOL    HW3 7195   1.719   2.453   3.032
 1791SOL    MW4 7196   1.780   2.503   2.996
 1792SOL     OW 7197   1.803   2.744   3.094
 1792SOL    HW2 7198   1.814   2.737   3.189
 1792SOL    HW3 7199   1.891   2.760   3.061
 1792SOL    MW4 7200   1.816   2.745   3.102
 1793SOL     OW 7201   2.060   2.845   3.027
 1793SOL    HW2 7202   2.048   2.939   3.043
 1793SOL    HW3 7203   2.061   2.837   2.932
 1793SOL    MW4 7204   2.059   2.857   3.017
 1794SOL     OW 7205   2.026   3.124   3.094
 1794SOL    HW2 7206   2.039   3.106   3.187
 1794SOL    HW3 7207   1.948   3.179   3.091
 1794SOL    MW4 7208   2.018   3.129   3.106
 1795SOL     OW 7209   1.775   3.278   3.024
 1795SOL    HW2 7210   1.706   3.218   3.052
 1795SOL    HW3 7211   1.775   3.272   2.928
 1795SOL    MW4 7212   1.766   3.269   3.015
 1796SOL     OW 7213   1.806   3.537   3.095
 1796SOL    HW2 7214   1.795   3.443   3.084
 1796SOL    HW3 7215   1.720   3.574   3.073
 1796SOL    MW4 7216   1.793   3.530   3.090
 1797SOL     OW 7217   2.030   3.628   2.992
 1797SOL    HW2 7218   2.057   3.714   3.023
 1797SOL    HW3 7219   1.945   3.612   3.033
 1797SOL    MW4 7220   2.023   3.637   3.002
 1798SOL     OW 7221   2.067   3.883   3.101
 1798SOL    HW2 7222   2.082   3.877   3.196
 1798SOL    HW3 7223   1.975   3.911   3.094
 1798SOL    MW4 7224   2.057   3.886   3.113
 1799SOL     OW 7225   1.790   3.987   3.017
 1799SOL    HW2 7226   1.809   4.076   3.047
 1799SOL    HW3 7227   1.803   3.990   2.922
 1799SOL    MW4 7228   1.794   3.999   3.008
 1800SOL     OW 7229   1.819   4.246   3.093
 1800SOL    HW2 7230   1.899   4.287   3.060
 1800SOL    HW3 7231   1.748   4.300   3.059
 1800SOL    MW4 7232   1.820   4.259   3.084
 1801SOL     OW 7233   2.048   4.364   2.994
 1801SOL    HW2 7234   2.054   4.453   3.028
 1801SOL    HW3 7235   2.066   4.372   2.901
 1801SOL    MW4 7236   2.051   4.377   2.987
 1802SOL     OW 7237   2.456   4.656   3.104
 1802SOL    HW2 7238   2.469   4.567   3.073
 1802SOL    HW3 7239   2.370   4.681   3.072
 1802SOL    MW4 7240   2.446   4.648   3.096
 1803SOL     OW 7241   2.223   0.094   2.998
 1803SOL    HW2 7242   2.228   0.188   3.012
 1803SOL    HW3 7243   2.138   0.069   3.036
 1803SOL    MW4 7244   2.212   0.103   3.005
 1804SOL     OW 7245   2.257   0.354   3.083
 1804SOL    HW2 7246   2.264   0.347   3.178
 1804SOL    HW3 7247   2.174   0.400   3.068
 1804SOL    MW4 7248   2.247   0.359   3.093
 1805SOL     OW 7249   2.471   0.499   3.021
 1805SOL    HW2 7250   2.393   0.459   3.060
 1805SOL    HW3 7251   2.456   0.493   2.927
 1805SOL    MW4 7252   2.459   0.493   3.014
 1806SOL     OW 7253   2.484   0.759   3.119
 1806SOL    HW2 7254   2.556   0.792   3.065
 1806SOL    HW3 7255   2.470   0.670   3.087
 1806SOL    MW4 7256   2.492   0.752   3.107
 1807SOL     OW 7257   2.247   0.897   3.004
 1807SOL    HW2 7258   2.326   0.855   3.038
 1807SOL    HW3 7259   2.176   0.855   3.051
 1807SOL    MW4 7260   2.248   0.886   3.015
 1808SOL     OW 7261   2.230   1.167   3.068
 1808SOL    HW2 7262   2.242   1.157   3.163
 1808SOL    HW3 7263   2.262   1.085   3.031
 1808SOL    MW4 7264   2.236   1.155   3.076
 1809SOL     OW 7265   2.479   1.277   2.990
 1809SOL    HW2 7266   2.392   1.242   3.005
 1809SOL    HW3 7267   2.483   1.293   2.896
 1809SOL    MW4 7268   2.468   1.275   2.979
 1810SOL     OW 7269   2.498   1.533   3.107
 1810SOL    HW2 7270   2.427   1.589   3.076
 1810SOL    HW3 7271   2.474   1.446   3.076
 1810SOL    MW4 7272   2.485   1.529   3.099
 1811SOL     OW 7273   2.270   1.671   2.992
 1811SOL    HW2 7274   2.186   1.630   3.013
 1811SOL    HW3 7275   2.267   1.683   2.897
 1811SOL    MW4 7276   2.258   1.667   2.982
 1812SOL     OW 7277   2.229   1.931   3.066
 1812SOL    HW2 7278   2.315   1.971   3.055
 1812SOL    HW3 7279   2.241   1.840   3.038
 1812SOL    MW4 7280   2.242   1.924   3.061
 1813SOL     OW 7281   2.487   2.036   3.005
 1813SOL    HW2 7282   2.580   2.018   3.019
 1813SOL    HW3 7283   2.473   2.021   2.912
 1813SOL    MW4 7284   2.497   2.031   2.995
 1814SOL     OW 7285   2.462   2.306   3.096
 1814SOL    HW2 7286   2.480   2.292   3.189
 1814SOL    HW3 7287   2.465   2.219   3.057
 1814SOL    MW4 7288   2.465   2.293   3.103
 1815SOL     OW 7289   2.239   2.419   3.025
 1815SOL    HW2 7290   2.257   2.510   3.048
 1815SOL    HW3 7291   2.309   2.369   3.069
 1815SOL    MW4 7292   2.251   2.424   3.034
 1816SOL     OW 7293   2.290   2.683   3.083
 1816SOL    HW2 7294   2.365   2.732   3.049
 1816SOL    HW3 7295   2.216   2.743   3.073
 1816SOL    MW4 7296   2.290   2.698   3.077
 1817SOL     OW 7297   2.501   2.817   2.967
 1817SOL    HW2 7298   2.515   2.904   3.005
 1817SOL    HW3 7299   2.488   2.834   2.874
 1817SOL    MW4 7300   2.501   2.831   2.960
 1818SOL     OW 7301   2.497   3.069   3.105
 1818SOL    HW2 7302   2.572   3.127   3.088
 1818SOL    HW3 7303   2.421   3.122   3.082
 1818SOL    MW4 7304   2.497   3.084   3.099
 1819SOL     OW 7305   2.284   3.242   3.052
 1819SOL    HW2 7306   2.273   3.335   3.073
 1819SOL    HW3 7307   2.195   3.206   3.059
 1819SOL    MW4 7308   2.271   3.249   3.056
 1820SOL     OW 7309   2.231   3.505   3.134
 1820SOL    HW2 7310   2.305   3.545   3.088
 1820SOL    HW3 7311   2.154   3.535   3.085
 1820SOL    MW4 7312   2.231   3.514   3.121
 1821SOL     OW 7313   2.418   3.627   2.987
 1821SOL    HW2 7314   2.495   3.580   3.020
 1821SOL    HW3 7315   2.428   3.716   3.023
 1821SOL    MW4 7316   2.430   3.633   2.997
 1822SOL     OW 7317   2.465   3.871   3.089
 1822SOL    HW2 7318   2.473   3.871   3.184
 1822SOL    HW3 7319   2.552   3.896   3.057
 1822SOL    MW4 7320   2.478   3.874   3.097
 1823SOL     OW 7321   2.264   4.023   2.974
 1823SOL    HW2 7322   2.344   3.980   3.002
 1823SOL    HW3 7323   2.194   3.967   3.007
 1823SOL    MW4 7324   2.265   4.010   2.982
 1824SOL     OW 7325   2.251   4.244   3.126
 1824SOL    HW2 7326   2.275   4.169   3.072
 1824SOL    HW3 7327   2.182   4.289   3.077
 1824SOL    MW4 7328   2.245   4.240   3.113
 1825SOL     OW 7329   2.458   4.398   3.005
 1825SOL    HW2 7330   2.366   4.394   3.033
 1825SOL    HW3 7331   2.455   4.384   2.910
 1825SOL    MW4 7332   2.445   4.396   2.996
 1826SOL     OW 7333   2.914   4.644   3.136
 1826SOL    HW2 7334   2.997   4.685   3.110
 1826SOL    HW3 7335   2.913   4.560   3.090
 1826SOL    MW4 7336   2.925   4.639   3.127
 1827SOL     OW 7337   2.698   0.104   2.986
 1827SOL    HW2 7338   2.768   0.062   3.036
 1827SOL    HW3 7339   2.617   0.065   3.020
 1827SOL    MW4 7340   2.697   0.093   2.997
 1828SOL     OW 7341   2.695   0.347   3.127
 1828SOL    HW2 7342   2.702   0.267   3.076
 1828SOL    HW3 7343   2.618   0.392   3.092
 1828SOL    MW4 7344   2.686   0.343   3.116
 1829SOL     OW 7345   2.914   0.503   3.033
 1829SOL    HW2 7346   2.843   0.462   3.083
 1829SOL    HW3 7347   2.886   0.497   2.942
 1829SOL    MW4 7348   2.901   0.497   3.028
 1830SOL     OW 7349   2.903   0.773   3.140
 1830SOL    HW2 7350   2.902   0.776   3.236
 1830SOL    HW3 7351   2.916   0.681   3.119
 1830SOL    MW4 7352   2.905   0.761   3.150
 1831SOL     OW 7353   2.708   0.916   3.008
 1831SOL    HW2 7354   2.691   0.999   3.053
 1831SOL    HW3 7355   2.773   0.872   3.063
 1831SOL    MW4 7356   2.715   0.921   3.021
 1832SOL     OW 7357   2.697   1.168   3.114
 1832SOL    HW2 7358   2.776   1.199   3.069
 1832SOL    HW3 7359   2.625   1.216   3.072
 1832SOL    MW4 7360   2.698   1.179   3.103
 1833SOL     OW 7361   2.912   1.261   2.951
 1833SOL    HW2 7362   2.986   1.211   2.985
 1833SOL    HW3 7363   2.913   1.342   3.002
 1833SOL    MW4 7364   2.922   1.265   2.962
 1834SOL     OW 7365   2.917   1.495   3.073
 1834SOL    HW2 7366   2.917   1.506   3.168
 1834SOL    HW3 7367   2.995   1.544   3.044
 1834SOL    MW4 7368   2.928   1.503   3.081
 1835SOL     OW 7369   2.716   1.657   2.992
 1835SOL    HW2 7370   2.792   1.602   3.011
 1835SOL    HW3 7371   2.645   1.618   3.042
 1835SOL    MW4 7372   2.717   1.645   3.001
 1836SOL     OW 7373   2.746   1.937   3.094
 1836SOL    HW2 7374   2.834   1.962   3.066
 1836SOL    HW3 7375   2.731   1.851   3.056
 1836SOL    MW4 7376   2.755   1.929   3.086
 1837SOL     OW 7377   2.981   2.029   2.967
 1837SOL    HW2 7378   2.963   2.114   3.006
 1837SOL    HW3 7379   2.942   2.033   2.880
 1837SOL    MW4 7380   2.974   2.041   2.960
 1838SOL     OW 7381   2.905   2.271   3.067
 1838SOL    HW2 7382   2.976   2.327   3.037
 1838SOL    HW3 7383   2.826   2.324   3.056
 1838SOL    MW4 7384   2.904   2.285   3.061
 1839SOL     OW 7385   2.689   2.428   2.995
 1839SOL    HW2 7386   2.694   2.508   3.048
 1839SOL    HW3 7387   2.605   2.390   3.017
 1839SOL    MW4 7388   2.679   2.434   3.005
 1840SOL     OW 7389   2.723   2.709   3.100
 1840SOL    HW2 7390   2.706   2.715   3.194
 1840SOL    HW3 7391   2.644   2.747   3.059
 1840SOL    MW4 7392   2.710   2.715   3.107
 1841SOL     OW 7393   2.953   2.851   3.018
 1841SOL    HW2 7394   3.027   2.808   3.062
 1841SOL    HW3 7395   2.876   2.806   3.052
 1841SOL    MW4 7396   2.953   2.839   3.028
 1842SOL     OW 7397   2.938   3.107   3.104
 1842SOL    HW2 7398   2.865   3.146   3.057
 1842SOL    HW3 7399   2.940   3.016   3.074
 1842SOL    MW4 7400   2.929   3.100   3.094
 1843SOL     OW 7401   2.698   3.226   3.006
 1843SOL    HW2 7402   2.684   3.319   3.025
 1843SOL    HW3 7403   2.691   3.220   2.911
 1843SOL    MW4 7404   2.695   3.238   2.996
 1844SOL     OW 7405   2.659   3.490   3.082
 1844SOL    HW2 7406   2.651   3.500   3.176
 1844SOL    HW3 7407   2.749   3.517   3.062
 1844SOL    MW4 7408   2.670   3.495   3.091
 1845SOL     OW 7409   2.900   3.593   2.993
 1845SOL    HW2 7410   2.975   3.548   3.030
 1845SOL    HW3 7411   2.909   3.683   3.024
 1845SOL    MW4 7412   2.911   3.599   3.002
 1846SOL     OW 7413   2.930   3.852   3.091
 1846SOL    HW2 7414   2.920   3.837   3.185
 1846SOL    HW3 7415   2.850   3.897   3.064
 1846SOL    MW4 7416   2.918   3.856   3.100
 1847SOL     OW 7417   2.699   3.984   2.988
 1847SOL    HW2 7418   2.690   4.077   3.009
 1847SOL    HW3 7419   2.670   3.977   2.897
 1847SOL    MW4 7420   2.694   3.995   2.979
 1848SOL     OW 7421   2.688   4.239   3.084
 1848SOL    HW2 7422   2.696   4.221   3.178
 1848SOL    HW3 7423   2.610   4.294   3.077
 1848SOL    MW4 7424   2.679   4.244   3.095
 1849SOL     OW 7425   2.892   4.396   2.993
 1849SOL    HW2 7426   2.965   4.350   3.036
 1849SOL    HW3 7427   2.814   4.346   3.019
 1849SOL    MW4 7428   2.891   4.383   3.002
 1850SOL     OW 7429   3.362   4.637   3.127
 1850SOL    HW2 7430   3.439   4.686   3.100
 1850SOL    HW3 7431   3.369   4.554   3.080
 1850SOL    MW4 7432   3.373   4.632   3.117
 1851SOL     OW 7433   3.137   0.122   3.071
 1851SOL    HW2 7434   3.147   0.211   3.104
 1851SOL    HW3 7435   3.220   0.079   3.091
 1851SOL    MW4 7436   3.149   0.128   3.078
 1852SOL     OW 7437   3.145   0.386   3.138
 1852SOL    HW2 7438   3.214   0.427   3.085
 1852SOL    HW3 7439   3.063   0.419   3.101
 1852SOL    MW4 7440   3.144   0.396   3.126
 1853SOL     OW 7441   3.360   0.464   2.993
 1853SOL    HW2 7442   3.443   0.436   3.032
 1853SOL    HW3 7443   3.375   0.458   2.898
 1853SOL    MW4 7444   3.373   0.459   2.986
 1854SOL     OW 7445   3.350   0.741   3.076
 1854SOL    HW2 7446   3.369   0.737   3.170
 1854SOL    HW3 7447   3.353   0.650   3.047
 1854SOL    MW4 7448   3.353   0.729   3.084
 1855SOL     OW 7449   3.123   0.879   3.018
 1855SOL    HW2 7450   3.195   0.818   3.030
 1855SOL    HW3 7451   3.050   0.840   3.066
 1855SOL    MW4 7452   3.123   0.866   3.026
 1856SOL     OW 7453   3.123   1.139   3.088
 1856SOL    HW2 7454   3.210   1.166   3.059
 1856SOL    HW3 7455   3.125   1.043   3.081
 1856SOL    MW4 7456   3.135   1.130   3.083
 1857SOL     OW 7457   3.350   1.245   2.998
 1857SOL    HW2 7458   3.433   1.213   3.034
 1857SOL    HW3 7459   3.331   1.324   3.049
 1857SOL    MW4 7460   3.359   1.251   3.010
 1858SOL     OW 7461   3.339   1.518   3.107
 1858SOL    HW2 7462   3.352   1.519   3.202
 1858SOL    HW3 7463   3.421   1.550   3.071
 1858SOL    MW4 7464   3.351   1.523   3.115
 1859SOL     OW 7465   3.129   1.653   3.013
 1859SOL    HW2 7466   3.205   1.604   3.044
 1859SOL    HW3 7467   3.144   1.662   2.919
 1859SOL    MW4 7468   3.141   1.648   3.005
 1860SOL     OW 7469   3.148   1.904   3.130
 1860SOL    HW2 7470   3.136   1.816   3.096
 1860SOL    HW3 7471   3.092   1.959   3.076
 1860SOL    MW4 7472   3.139   1.900   3.119
 1861SOL     OW 7473   3.359   2.041   2.998
 1861SOL    HW2 7474   3.437   1.996   3.030
 1861SOL    HW3 7475   3.286   1.995   3.040
 1861SOL    MW4 7476   3.360   2.029   3.008
 1862SOL     OW 7477   3.359   2.293   3.139
 1862SOL    HW2 7478   3.363   2.296   3.235
 1862SOL    HW3 7479   3.347   2.200   3.118
 1862SOL    MW4 7480   3.358   2.281   3.149
 1863SOL     OW 7481   3.130   2.431   3.024
 1863SOL    HW2 7482   3.214   2.396   3.053
 1863SOL    HW3 7483   3.139   2.440   2.929
 1863SOL    MW4 7484   3.142   2.428   3.015
 1864SOL     OW 7485   3.168   2.694   3.118
 1864SOL    HW2 7486   3.186   2.685   3.212
 1864SOL    HW3 7487   3.148   2.604   3.089
 1864SOL    MW4 7488   3.168   2.681   3.126
 1865SOL     OW 7489   3.397   2.838   3.004
 1865SOL    HW2 7490   3.416   2.922   3.046
 1865SOL    HW3 7491   3.327   2.800   3.057
 1865SOL    MW4 7492   3.390   2.844   3.016
 1866SOL     OW 7493   3.377   3.089   3.126
 1866SOL    HW2 7494   3.377   3.070   3.219
 1866SOL    HW3 7495   3.307   3.153   3.114
 1866SOL    MW4 7496   3.368   3.095   3.136
 1867SOL     OW 7497   3.165   3.255   3.044
 1867SOL    HW2 7498   3.096   3.196   3.075
 1867SOL    HW3 7499   3.164   3.246   2.949
 1867SOL    MW4 7500   3.156   3.246   3.036
 1868SOL     OW 7501   3.119   3.513   3.128
 1868SOL    HW2 7502   3.200   3.555   3.101
 1868SOL    HW3 7503   3.125   3.424   3.095
 1868SOL    MW4 7504   3.130   3.507   3.120
 1869SOL     OW 7505   3.349   3.637   3.050
 1869SOL    HW2 7506   3.429   3.599   3.085
 1869SOL    HW3 7507   3.365   3.731   3.049
 1869SOL    MW4 7508   3.361   3.644   3.055
 1870SOL     OW 7509   3.417   3.907   3.091
 1870SOL    HW2 7510   3.413   3.869   3.178
 1870SOL    HW3 7511   3.331   3.945   3.076
 1870SOL    MW4 7512   3.405   3.907   3.100
 1871SOL     OW 7513   3.149   3.985   2.999
 1871SOL    HW2 7514   3.068   3.944   3.028
 1871SOL    HW3 7515   3.149   3.973   2.904
 1871SOL    MW4 7516   3.138   3.978   2.990
 1872SOL     OW 7517   3.128   4.264   3.083
 1872SOL    HW2 7518   3.144   4.247   3.176
 1872SOL    HW3 7519   3.136   4.178   3.042
 1872SOL    MW4 7520   3.131   4.250   3.090
 1873SOL     OW 7521   3.339   4.402   2.976
 1873SOL    HW2 7522   3.412   4.349   3.008
 1873SOL    HW3 7523   3.262   4.359   3.012
 1873SOL    MW4 7524   3.339   4.389   2.985
 1874SOL     OW 7525   3.802   0.011   3.087
 1874SOL    HW2 7526   3.796  -0.085   3.078
 1874SOL    HW3 7527   3.715   0.042   3.061
 1874SOL    MW4 7528   3.790   0.002   3.083
 1875SOL     OW 7529   3.567   0.112   3.018
 1875SOL    HW2 7530   3.564   0.205   3.041
 1875SOL    HW3 7531   3.570   0.111   2.922
 1875SOL    MW4 7532   3.567   0.124   3.008
 1876SOL     OW 7533   3.593   0.372   3.123
 1876SOL    HW2 7534   3.585   0.344   3.215
 1876SOL    HW3 7535   3.683   0.403   3.116
 1876SOL    MW4 7536   3.604   0.372   3.134
 1877SOL     OW 7537   3.827   0.494   3.035
 1877SOL    HW2 7538   3.917   0.466   3.052
 1877SOL    HW3 7539   3.827   0.588   3.053
 1877SOL    MW4 7540   3.839   0.503   3.040
 1878SOL     OW 7541   3.794   0.772   3.108
 1878SOL    HW2 7542   3.800   0.768   3.204
 1878SOL    HW3 7543   3.879   0.806   3.080
 1878SOL    MW4 7544   3.806   0.776   3.117
 1879SOL     OW 7545   3.582   0.909   2.977
 1879SOL    HW2 7546   3.652   0.867   3.026
 1879SOL    HW3 7547   3.504   0.859   2.999
 1879SOL    MW4 7548   3.581   0.897   2.986
 1880SOL     OW 7549   3.580   1.152   3.107
 1880SOL    HW2 7550   3.664   1.197   3.104
 1880SOL    HW3 7551   3.594   1.071   3.058
 1880SOL    MW4 7552   3.593   1.147   3.100
 1881SOL     OW 7553   3.812   1.296   3.039
 1881SOL    HW2 7554   3.831   1.385   3.067
 1881SOL    HW3 7555   3.799   1.303   2.944
 1881SOL    MW4 7556   3.813   1.309   3.030
 1882SOL     OW 7557   3.802   1.568   3.097
 1882SOL    HW2 7558   3.780   1.554   3.189
 1882SOL    HW3 7559   3.718   1.576   3.052
 1882SOL    MW4 7560   3.788   1.567   3.103
 1883SOL     OW 7561   3.554   1.621   2.967
 1883SOL    HW2 7562   3.556   1.709   3.005
 1883SOL    HW3 7563   3.567   1.635   2.874
 1883SOL    MW4 7564   3.556   1.635   2.960
 1884SOL     OW 7565   3.607   1.864   3.073
 1884SOL    HW2 7566   3.589   1.897   3.161
 1884SOL    HW3 7567   3.692   1.902   3.050
 1884SOL    MW4 7568   3.616   1.873   3.082
 1885SOL     OW 7569   3.811   2.032   2.986
 1885SOL    HW2 7570   3.805   2.121   3.021
 1885SOL    HW3 7571   3.802   2.042   2.892
 1885SOL    MW4 7572   3.809   2.045   2.978
 1886SOL     OW 7573   3.814   2.305   3.065
 1886SOL    HW2 7574   3.820   2.320   3.160
 1886SOL    HW3 7575   3.725   2.332   3.042
 1886SOL    MW4 7576   3.803   2.311   3.075
 1887SOL     OW 7577   3.575   2.426   3.009
 1887SOL    HW2 7578   3.584   2.513   3.048
 1887SOL    HW3 7579   3.514   2.381   3.068
 1887SOL    MW4 7580   3.568   2.432   3.022
 1888SOL     OW 7581   3.605   2.687   3.117
 1888SOL    HW2 7582   3.682   2.736   3.089
 1888SOL    HW3 7583   3.533   2.723   3.065
 1888SOL    MW4 7584   3.605   2.698   3.107
 1889SOL     OW 7585   3.823   2.825   3.002
 1889SOL    HW2 7586   3.816   2.917   3.027
 1889SOL    HW3 7587   3.792   2.822   2.911
 1889SOL    MW4 7588   3.818   2.837   2.993
 1890SOL     OW 7589   3.836   3.086   3.120
 1890SOL    HW2 7590   3.909   3.123   3.071
 1890SOL    HW3 7591   3.761   3.142   3.097
 1890SOL    MW4 7592   3.835   3.098   3.110
 1891SOL     OW 7593   3.599   3.241   3.047
 1891SOL    HW2 7594   3.518   3.199   3.075
 1891SOL    HW3 7595   3.593   3.246   2.952
 1891SOL    MW4 7596   3.588   3.236   3.038
 1892SOL     OW 7597   3.590   3.493   3.153
 1892SOL    HW2 7598   3.653   3.541   3.098
 1892SOL    HW3 7599   3.588   3.405   3.116
 1892SOL    MW4 7600   3.598   3.488   3.140
 1893SOL     OW 7601   3.795   3.615   3.004
 1893SOL    HW2 7602   3.809   3.706   3.031
 1893SOL    HW3 7603   3.801   3.617   2.908
 1893SOL    MW4 7604   3.797   3.627   2.995
 1894SOL     OW 7605   3.833   3.874   3.102
 1894SOL    HW2 7606   3.824   3.875   3.198
 1894SOL    HW3 7607   3.757   3.923   3.071
 1894SOL    MW4 7608   3.822   3.881   3.111
 1895SOL     OW 7609   3.637   4.008   2.987
 1895SOL    HW2 7610   3.558   3.971   3.025
 1895SOL    HW3 7611   3.630   3.990   2.893
 1895SOL    MW4 7612   3.626   4.001   2.980
 1896SOL     OW 7613   3.560   4.269   3.076
 1896SOL    HW2 7614   3.640   4.316   3.050
 1896SOL    HW3 7615   3.584   4.176   3.071
 1896SOL    MW4 7616   3.574   4.263   3.072
 1897SOL     OW 7617   3.792   4.406   3.018
 1897SOL    HW2 7618   3.856   4.350   3.062
 1897SOL    HW3 7619   3.812   4.396   2.925
 1897SOL    MW4 7620   3.803   4.397   3.012
 1898SOL     OW 7621   4.278   0.001   3.101
 1898SOL    HW2 7622   4.256   0.006   3.195
 1898SOL    HW3 7623   4.298  -0.091   3.086
 1898SOL    MW4 7624   4.278  -0.010   3.112
 1899SOL     OW 7625   4.046   0.090   2.982
 1899SOL    HW2 7626   4.111   0.026   3.010
 1899SOL    HW3 7627   3.981   0.090   3.052
 1899SOL    MW4 7628   4.046   0.082   2.995
 1900SOL     OW 7629   4.045   0.349   3.115
 1900SOL    HW2 7630   4.125   0.400   3.103
 1900SOL    HW3 7631   4.059   0.270   3.062
 1900SOL    MW4 7632   4.057   0.345   3.106
 1901SOL     OW 7633   4.289   0.461   3.054
 1901SOL    HW2 7634   4.288   0.553   3.083
 1901SOL    HW3 7635   4.257   0.465   2.964
 1901SOL    MW4 7636   4.284   0.474   3.046
 1902SOL     OW 7637   4.266   0.721   3.151
 1902SOL    HW2 7638   4.193   0.771   3.115
 1902SOL    HW3 7639   4.344   0.761   3.114
 1902SOL    MW4 7640   4.266   0.733   3.142
 1903SOL     OW 7641   4.038   0.881   3.046
 1903SOL    HW2 7642   4.022   0.968   3.082
 1903SOL    HW3 7643   4.047   0.896   2.952
 1903SOL    MW4 7644   4.037   0.894   3.038
 1904SOL     OW 7645   4.011   1.137   3.134
 1904SOL    HW2 7646   4.021   1.151   3.228
 1904SOL    HW3 7647   3.948   1.204   3.106
 1904SOL    MW4 7648   4.004   1.148   3.143
 1905SOL     OW 7649   4.259   1.244   3.074
 1905SOL    HW2 7650   4.178   1.198   3.095
 1905SOL    HW3 7651   4.256   1.257   2.979
 1905SOL    MW4 7652   4.248   1.240   3.064
 1906SOL     OW 7653   4.238   1.517   3.135
 1906SOL    HW2 7654   4.167   1.545   3.077
 1906SOL    HW3 7655   4.238   1.421   3.127
 1906SOL    MW4 7656   4.228   1.508   3.126
 1907SOL     OW 7657   4.036   1.635   3.000
 1907SOL    HW2 7658   4.024   1.729   3.012
 1907SOL    HW3 7659   3.956   1.596   3.035
 1907SOL    MW4 7660   4.024   1.642   3.006
 1908SOL     OW 7661   4.038   1.903   3.076
 1908SOL    HW2 7662   4.110   1.962   3.052
 1908SOL    HW3 7663   3.959   1.948   3.047
 1908SOL    MW4 7664   4.037   1.917   3.069
 1909SOL     OW 7665   4.246   2.062   2.982
 1909SOL    HW2 7666   4.265   2.156   2.986
 1909SOL    HW3 7667   4.238   2.043   2.889
 1909SOL    MW4 7668   4.247   2.072   2.970
 1910SOL     OW 7669   4.312   2.309   3.082
 1910SOL    HW2 7670   4.231   2.352   3.057
 1910SOL    HW3 7671   4.380   2.351   3.029
 1910SOL    MW4 7672   4.310   2.320   3.072
 1911SOL     OW 7673   4.079   2.408   2.963
 1911SOL    HW2 7674   4.065   2.490   3.011
 1911SOL    HW3 7675   4.001   2.356   2.982
 1911SOL    MW4 7676   4.067   2.412   2.972
 1912SOL     OW 7677   4.018   2.645   3.099
 1912SOL    HW2 7678   4.014   2.677   3.190
 1912SOL    HW3 7679   3.944   2.687   3.055
 1912SOL    MW4 7680   4.007   2.654   3.106
 1913SOL     OW 7681   4.227   2.791   3.022
 1913SOL    HW2 7682   4.151   2.749   3.061
 1913SOL    HW3 7683   4.302   2.742   3.056
 1913SOL    MW4 7684   4.227   2.779   3.032
 1914SOL     OW 7685   4.259   3.047   3.136
 1914SOL    HW2 7686   4.187   3.082   3.083
 1914SOL    HW3 7687   4.267   2.956   3.108
 1914SOL    MW4 7688   4.250   3.039   3.125
 1915SOL     OW 7689   4.051   3.201   3.007
 1915SOL    HW2 7690   4.043   3.287   3.047
 1915SOL    HW3 7691   4.043   3.218   2.913
 1915SOL    MW4 7692   4.049   3.214   3.000
 1916SOL     OW 7693   4.021   3.467   3.098
 1916SOL    HW2 7694   4.039   3.455   3.191
 1916SOL    HW3 7695   3.941   3.520   3.096
 1916SOL    MW4 7696   4.012   3.472   3.110
 1917SOL     OW 7697   4.265   3.587   3.021
 1917SOL    HW2 7698   4.247   3.678   3.044
 1917SOL    HW3 7699   4.184   3.540   3.040
 1917SOL    MW4 7700   4.252   3.593   3.027
 1918SOL     OW 7701   4.258   3.853   3.099
 1918SOL    HW2 7702   4.189   3.902   3.055
 1918SOL    HW3 7703   4.339   3.898   3.073
 1918SOL    MW4 7704   4.260   3.866   3.089
 1919SOL     OW 7705   4.040   4.013   2.994
 1919SOL    HW2 7706   4.043   4.100   3.034
 1919SOL    HW3 7707   3.968   3.968   3.040
 1919SOL    MW4 7708   4.031   4.018   3.005
 1920SOL     OW 7709   4.033   4.271   3.104
 1920SOL    HW2 7710   4.051   4.276   3.198
 1920SOL    HW3 7711   4.105   4.320   3.064
 1920SOL    MW4 7712   4.045   4.278   3.111
 1921SOL     OW 7713   4.280   4.392   3.023
 1921SOL    HW2 7714   4.359   4.349   3.056
 1921SOL    HW3 7715   4.284   4.381   2.928
 1921SOL    MW4 7716   4.291   4.385   3.015
 1922SOL     OW 7717   0.191   4.642   3.397
 1922SOL    HW2 7718   0.279   4.666   3.426
 1922SOL    HW3 7719   0.178   4.554   3.433
 1922SOL    MW4 7720   0.201   4.633   3.406
 1923SOL     OW 7721   4.468   0.127   3.499
 1923SOL    HW2 7722   4.469   0.215   3.461
 1923SOL    HW3 7723   4.549   0.086   3.468
 1923SOL    MW4 7724   4.478   0.133   3.490
 1924SOL     OW 7725   0.013   0.383   3.373
 1924SOL    HW2 7726  -0.056   0.435   3.414
 1924SOL    HW3 7727   0.091   0.403   3.424
 1924SOL    MW4 7728   0.014   0.393   3.385
 1925SOL     OW 7729   0.218   0.495   3.504
 1925SOL    HW2 7730   0.304   0.463   3.474
 1925SOL    HW3 7731   0.211   0.583   3.465
 1925SOL    MW4 7732   0.229   0.502   3.495
 1926SOL     OW 7733   0.239   0.761   3.375
 1926SOL    HW2 7734   0.301   0.802   3.436
 1926SOL    HW3 7735   0.153   0.789   3.406
 1926SOL    MW4 7736   0.236   0.770   3.387
 1927SOL     OW 7737   0.024   0.885   3.486
 1927SOL    HW2 7738   0.012   0.897   3.580
 1927SOL    HW3 7739   0.023   0.974   3.450
 1927SOL    MW4 7740   0.022   0.898   3.493
 1928SOL     OW 7741   0.007   1.153   3.433
 1928SOL    HW2 7742   0.086   1.202   3.458
 1928SOL    HW3 7743   0.006   1.156   3.338
 1928SOL    MW4 7744   0.018   1.160   3.424
 1929SOL     OW 7745   0.231   1.289   3.522
 1929SOL    HW2 7746   0.302   1.238   3.482
 1929SOL    HW3 7747   0.227   1.369   3.470
 1929SOL    MW4 7748   0.240   1.293   3.510
 1930SOL     OW 7749   0.233   1.533   3.378
 1930SOL    HW2 7750   0.307   1.571   3.426
 1930SOL    HW3 7751   0.248   1.560   3.287
 1930SOL    MW4 7752   0.245   1.542   3.373
 1931SOL     OW 7753   0.002   1.644   3.496
 1931SOL    HW2 7754  -0.078   1.608   3.456
 1931SOL    HW3 7755   0.073   1.596   3.454
 1931SOL    MW4 7756   0.001   1.633   3.485
 1932SOL     OW 7757   0.016   1.903   3.409
 1932SOL    HW2 7758   0.032   1.809   3.422
 1932SOL    HW3 7759   0.001   1.912   3.315
 1932SOL    MW4 7760   0.016   1.892   3.398
 1933SOL     OW 7761   0.223   2.054   3.513
 1933SOL    HW2 7762   0.242   2.039   3.606
 1933SOL    HW3 7763   0.139   2.010   3.499
 1933SOL    MW4 7764   0.214   2.046   3.524
 1934SOL     OW 7765   0.187   2.297   3.377
 1934SOL    HW2 7766   0.122   2.352   3.420
 1934SOL    HW3 7767   0.187   2.216   3.428
 1934SOL    MW4 7768   0.178   2.294   3.389
 1935SOL     OW 7769   4.483   2.455   3.471
 1935SOL    HW2 7770   4.470   2.459   3.566
 1935SOL    HW3 7771   4.416   2.395   3.440
 1935SOL    MW4 7772   4.473   2.447   3.479
 1936SOL     OW 7773   4.467   2.714   3.407
 1936SOL    HW2 7774   4.553   2.745   3.435
 1936SOL    HW3 7775   4.469   2.620   3.422
 1936SOL    MW4 7776   4.478   2.706   3.412
 1937SOL     OW 7777   0.215   2.821   3.516
 1937SOL    HW2 7778   0.285   2.769   3.475
 1937SOL    HW3 7779   0.222   2.907   3.475
 1937SOL    MW4 7780   0.225   2.825   3.505
 1938SOL     OW 7781   0.237   3.079   3.401
 1938SOL    HW2 7782   0.167   3.132   3.438
 1938SOL    HW3 7783   0.223   3.082   3.307
 1938SOL    MW4 7784   0.226   3.086   3.394
 1939SOL     OW 7785   0.034   3.220   3.529
 1939SOL    HW2 7786  -0.043   3.184   3.484
 1939SOL    HW3 7787   0.045   3.307   3.490
 1939SOL    MW4 7788   0.025   3.227   3.518
 1940SOL     OW 7789   0.029   3.497   3.425
 1940SOL    HW2 7790  -0.056   3.526   3.459
 1940SOL    HW3 7791   0.018   3.495   3.330
 1940SOL    MW4 7792   0.017   3.501   3.417
 1941SOL     OW 7793   0.243   3.614   3.544
 1941SOL    HW2 7794   0.238   3.595   3.638
 1941SOL    HW3 7795   0.161   3.579   3.508
 1941SOL    MW4 7796   0.231   3.607   3.551
 1942SOL     OW 7797   0.224   3.838   3.390
 1942SOL    HW2 7798   0.144   3.883   3.416
 1942SOL    HW3 7799   0.223   3.757   3.441
 1942SOL    MW4 7800   0.214   3.833   3.401
 1943SOL     OW 7801   4.479   3.945   3.496
 1943SOL    HW2 7802   4.474   3.949   3.591
 1943SOL    HW3 7803   4.475   4.036   3.467
 1943SOL    MW4 7804   4.478   3.958   3.505
 1944SOL     OW 7805   0.006   4.212   3.388
 1944SOL    HW2 7806  -0.060   4.275   3.417
 1944SOL    HW3 7807   0.088   4.245   3.424
 1944SOL    MW4 7808   0.008   4.225   3.397
 1945SOL     OW 7809   0.206   4.378   3.523
 1945SOL    HW2 7810   0.216   4.385   3.618
 1945SOL    HW3 7811   0.284   4.331   3.494
 1945SOL    MW4 7812   0.218   4.373   3.532
 1946SOL     OW 7813   0.645   0.004   3.369
 1946SOL    HW2 7814   0.729   0.043   3.393
 1946SOL    HW3 7815   0.647  -0.002   3.274
 1946SOL    MW4 7816   0.656   0.008   3.360
 1947SOL     OW 7817   0.422   0.129   3.501
 1947SOL    HW2 7818   0.440   0.123   3.595
 1947SOL    HW3 7819   0.486   0.071   3.460
 1947SOL    MW4 7820   0.433   0.120   3.508
 1948SOL     OW 7821   0.452   0.386   3.396
 1948SOL    HW2 7822   0.527   0.431   3.436
 1948SOL    HW3 7823   0.454   0.298   3.433
 1948SOL    MW4 7824   0.462   0.381   3.406
 1949SOL     OW 7825   0.649   0.541   3.486
 1949SOL    HW2 7826   0.666   0.528   3.580
 1949SOL    HW3 7827   0.729   0.510   3.443
 1949SOL    MW4 7828   0.662   0.535   3.493
 1950SOL     OW 7829   0.610   0.791   3.373
 1950SOL    HW2 7830   0.547   0.832   3.433
 1950SOL    HW3 7831   0.630   0.706   3.412
 1950SOL    MW4 7832   0.604   0.786   3.386
 1951SOL     OW 7833   0.423   0.922   3.518
 1951SOL    HW2 7834   0.432   0.923   3.613
 1951SOL    HW3 7835   0.432   1.014   3.493
 1951SOL    MW4 7836   0.425   0.935   3.527
 1952SOL     OW 7837   0.454   1.172   3.403
 1952SOL    HW2 7838   0.539   1.205   3.433
 1952SOL    HW3 7839   0.466   1.158   3.309
 1952SOL    MW4 7840   0.467   1.174   3.394
 1953SOL     OW 7841   0.684   1.278   3.516
 1953SOL    HW2 7842   0.759   1.235   3.475
 1953SOL    HW3 7843   0.687   1.368   3.483
 1953SOL    MW4 7844   0.694   1.285   3.507
 1954SOL     OW 7845   0.673   1.524   3.417
 1954SOL    HW2 7846   0.735   1.592   3.442
 1954SOL    HW3 7847   0.588   1.555   3.448
 1954SOL    MW4 7848   0.670   1.537   3.424
 1955SOL     OW 7849   0.438   1.667   3.481
 1955SOL    HW2 7850   0.447   1.671   3.576
 1955SOL    HW3 7851   0.439   1.759   3.453
 1955SOL    MW4 7852   0.439   1.680   3.490
 1956SOL     OW 7853   0.448   1.936   3.431
 1956SOL    HW2 7854   0.365   1.977   3.458
 1956SOL    HW3 7855   0.453   1.952   3.337
 1956SOL    MW4 7856   0.438   1.944   3.423
 1957SOL     OW 7857   0.689   2.037   3.504
 1957SOL    HW2 7858   0.698   2.048   3.599
 1957SOL    HW3 7859   0.600   2.003   3.492
 1957SOL    MW4 7860   0.678   2.034   3.515
 1958SOL     OW 7861   0.643   2.294   3.386
 1958SOL    HW2 7862   0.719   2.342   3.421
 1958SOL    HW3 7863   0.650   2.207   3.424
 1958SOL    MW4 7864   0.654   2.289   3.395
 1959SOL     OW 7865   0.410   2.416   3.481
 1959SOL    HW2 7866   0.471   2.350   3.448
 1959SOL    HW3 7867   0.323   2.385   3.454
 1959SOL    MW4 7868   0.407   2.403   3.473
 1960SOL     OW 7869   0.461   2.704   3.422
 1960SOL    HW2 7870   0.447   2.610   3.431
 1960SOL    HW3 7871   0.463   2.719   3.327
 1960SOL    MW4 7872   0.459   2.694   3.411
 1961SOL     OW 7873   0.699   2.793   3.523
 1961SOL    HW2 7874   0.771   2.756   3.472
 1961SOL    HW3 7875   0.621   2.753   3.485
 1961SOL    MW4 7876   0.698   2.783   3.511
 1962SOL     OW 7877   0.679   3.088   3.462
 1962SOL    HW2 7878   0.595   3.124   3.491
 1962SOL    HW3 7879   0.671   2.994   3.478
 1962SOL    MW4 7880   0.667   3.081   3.468
 1963SOL     OW 7881   0.447   3.223   3.533
 1963SOL    HW2 7882   0.439   3.224   3.628
 1963SOL    HW3 7883   0.373   3.171   3.503
 1963SOL    MW4 7884   0.436   3.216   3.541
 1964SOL     OW 7885   0.423   3.473   3.409
 1964SOL    HW2 7886   0.423   3.386   3.449
 1964SOL    HW3 7887   0.356   3.522   3.457
 1964SOL    MW4 7888   0.414   3.468   3.421
 1965SOL     OW 7889   0.658   3.587   3.529
 1965SOL    HW2 7890   0.723   3.544   3.474
 1965SOL    HW3 7891   0.575   3.570   3.485
 1965SOL    MW4 7892   0.656   3.579   3.516
 1966SOL     OW 7893   0.641   3.853   3.395
 1966SOL    HW2 7894   0.567   3.896   3.437
 1966SOL    HW3 7895   0.648   3.769   3.441
 1966SOL    MW4 7896   0.632   3.847   3.407
 1967SOL     OW 7897   0.427   3.978   3.518
 1967SOL    HW2 7898   0.426   4.071   3.495
 1967SOL    HW3 7899   0.356   3.940   3.466
 1967SOL    MW4 7900   0.418   3.985   3.508
 1968SOL     OW 7901   0.429   4.257   3.424
 1968SOL    HW2 7902   0.508   4.292   3.465
 1968SOL    HW3 7903   0.443   4.269   3.330
 1968SOL    MW4 7904   0.441   4.263   3.417
 1969SOL     OW 7905   0.644   4.418   3.480
 1969SOL    HW2 7906   0.722   4.381   3.438
 1969SOL    HW3 7907   0.633   4.503   3.437
 1969SOL    MW4 7908   0.653   4.425   3.468
 1970SOL     OW 7909   1.118   0.011   3.385
 1970SOL    HW2 7910   1.208   0.029   3.414
 1970SOL    HW3 7911   1.125   0.000   3.290
 1970SOL    MW4 7912   1.131   0.012   3.377
 1971SOL     OW 7913   0.892   0.113   3.478
 1971SOL    HW2 7914   0.896   0.112   3.574
 1971SOL    HW3 7915   0.982   0.094   3.450
 1971SOL    MW4 7916   0.905   0.111   3.487
 1972SOL     OW 7917   0.859   0.388   3.377
 1972SOL    HW2 7918   0.935   0.436   3.411
 1972SOL    HW3 7919   0.863   0.303   3.420
 1972SOL    MW4 7920   0.869   0.383   3.387
 1973SOL     OW 7921   1.088   0.497   3.473
 1973SOL    HW2 7922   1.120   0.485   3.562
 1973SOL    HW3 7923   1.105   0.590   3.454
 1973SOL    MW4 7924   1.095   0.508   3.482
 1974SOL     OW 7925   1.115   0.761   3.384
 1974SOL    HW2 7926   1.184   0.803   3.436
 1974SOL    HW3 7927   1.034   0.800   3.416
 1974SOL    MW4 7928   1.114   0.772   3.395
 1975SOL     OW 7929   0.867   0.880   3.470
 1975SOL    HW2 7930   0.883   0.974   3.464
 1975SOL    HW3 7931   0.776   0.869   3.440
 1975SOL    MW4 7932   0.857   0.891   3.465
 1976SOL     OW 7933   0.903   1.149   3.406
 1976SOL    HW2 7934   0.983   1.195   3.433
 1976SOL    HW3 7935   0.919   1.124   3.315
 1976SOL    MW4 7936   0.916   1.152   3.398
 1977SOL     OW 7937   1.122   1.281   3.504
 1977SOL    HW2 7938   1.116   1.275   3.599
 1977SOL    HW3 7939   1.113   1.375   3.486
 1977SOL    MW4 7940   1.120   1.293   3.514
 1978SOL     OW 7941   1.125   1.547   3.425
 1978SOL    HW2 7942   1.199   1.592   3.467
 1978SOL    HW3 7943   1.135   1.566   3.332
 1978SOL    MW4 7944   1.136   1.555   3.418
 1979SOL     OW 7945   0.895   1.670   3.518
 1979SOL    HW2 7946   0.894   1.746   3.461
 1979SOL    HW3 7947   0.973   1.621   3.492
 1979SOL    MW4 7948   0.905   1.673   3.507
 1980SOL     OW 7949   0.906   1.908   3.390
 1980SOL    HW2 7950   0.980   1.949   3.434
 1980SOL    HW3 7951   0.830   1.963   3.412
 1980SOL    MW4 7952   0.905   1.920   3.399
 1981SOL     OW 7953   1.116   2.071   3.520
 1981SOL    HW2 7954   1.193   2.041   3.472
 1981SOL    HW3 7955   1.102   2.161   3.489
 1981SOL    MW4 7956   1.125   2.079   3.510
 1982SOL     OW 7957   1.095   2.332   3.433
 1982SOL    HW2 7958   1.175   2.379   3.457
 1982SOL    HW3 7959   1.113   2.297   3.346
 1982SOL    MW4 7960   1.108   2.334   3.425
 1983SOL     OW 7961   0.847   2.447   3.469
 1983SOL    HW2 7962   0.843   2.453   3.564
 1983SOL    HW3 7963   0.933   2.408   3.450
 1983SOL    MW4 7964   0.858   2.442   3.479
 1984SOL     OW 7965   0.898   2.684   3.358
 1984SOL    HW2 7966   0.972   2.724   3.404
 1984SOL    HW3 7967   0.889   2.597   3.397
 1984SOL    MW4 7968   0.906   2.678   3.369
 1985SOL     OW 7969   1.116   2.805   3.490
 1985SOL    HW2 7970   1.121   2.801   3.585
 1985SOL    HW3 7971   1.191   2.752   3.460
 1985SOL    MW4 7972   1.127   2.797   3.498
 1986SOL     OW 7973   1.140   3.077   3.426
 1986SOL    HW2 7974   1.118   2.993   3.467
 1986SOL    HW3 7975   1.136   3.059   3.332
 1986SOL    MW4 7976   1.136   3.063   3.419
 1987SOL     OW 7977   0.911   3.236   3.521
 1987SOL    HW2 7978   0.985   3.185   3.487
 1987SOL    HW3 7979   0.837   3.176   3.517
 1987SOL    MW4 7980   0.911   3.221   3.516
 1988SOL     OW 7981   0.872   3.475   3.373
 1988SOL    HW2 7982   0.883   3.390   3.416
 1988SOL    HW3 7983   0.862   3.454   3.281
 1988SOL    MW4 7984   0.872   3.461   3.367
 1989SOL     OW 7985   1.113   3.619   3.431
 1989SOL    HW2 7986   1.127   3.619   3.526
 1989SOL    HW3 7987   1.023   3.585   3.421
 1989SOL    MW4 7988   1.103   3.614   3.442
 1990SOL     OW 7989   1.079   3.885   3.343
 1990SOL    HW2 7990   1.161   3.930   3.362
 1990SOL    HW3 7991   1.088   3.799   3.385
 1990SOL    MW4 7992   1.091   3.879   3.351
 1991SOL     OW 7993   0.856   4.020   3.442
 1991SOL    HW2 7994   0.929   3.977   3.398
 1991SOL    HW3 7995   0.785   3.956   3.439
 1991SOL    MW4 7996   0.857   4.006   3.436
 1992SOL     OW 7997   0.882   4.292   3.404
 1992SOL    HW2 7998   0.871   4.200   3.431
 1992SOL    HW3 7999   0.907   4.286   3.311
 1992SOL    MW4 8000   0.884   4.279   3.395
 1993SOL     OW 8001   1.150   4.410   3.450
 1993SOL    HW2 8002   1.071   4.367   3.419
 1993SOL    HW3 8003   1.134   4.503   3.438
 1993SOL    MW4 8004   1.138   4.417   3.444
 1994SOL     OW 8005   1.610   4.643   3.395
 1994SOL    HW2 8006   1.602   4.551   3.419
 1994SOL    HW3 8007   1.531   4.685   3.428
 1994SOL    MW4 8008   1.599   4.637   3.402
 1995SOL     OW 8009   1.371   0.095   3.467
 1995SOL    HW2 8010   1.362   0.097   3.562
 1995SOL    HW3 8011   1.355   0.185   3.439
 1995SOL    MW4 8012   1.368   0.107   3.476
 1996SOL     OW 8013   1.320   0.365   3.371
 1996SOL    HW2 8014   1.389   0.425   3.402
 1996SOL    HW3 8015   1.239   0.414   3.383
 1996SOL    MW4 8016   1.319   0.380   3.376
 1997SOL     OW 8017   1.545   0.525   3.478
 1997SOL    HW2 8018   1.572   0.519   3.570
 1997SOL    HW3 8019   1.621   0.495   3.429
 1997SOL    MW4 8020   1.558   0.520   3.484
 1998SOL     OW 8021   1.556   0.813   3.383
 1998SOL    HW2 8022   1.489   0.860   3.433
 1998SOL    HW3 8023   1.548   0.722   3.413
 1998SOL    MW4 8024   1.546   0.807   3.394
 1999SOL     OW 8025   1.329   0.919   3.478
 1999SOL    HW2 8026   1.318   0.922   3.573
 1999SOL    HW3 8027   1.346   1.009   3.453
 1999SOL    MW4 8028   1.330   0.931   3.487
 2000SOL     OW 8029   1.350   1.165   3.400
 2000SOL    HW2 8030   1.431   1.208   3.429
 2000SOL    HW3 8031   1.280   1.226   3.424
 2000SOL    MW4 8032   1.352   1.179   3.407
 2001SOL     OW 8033   1.594   1.285   3.446
 2001SOL    HW2 8034   1.601   1.282   3.541
 2001SOL    HW3 8035   1.679   1.252   3.415
 2001SOL    MW4 8036   1.606   1.280   3.454
 2002SOL     OW 8037   1.595   1.558   3.362
 2002SOL    HW2 8038   1.592   1.463   3.373
 2002SOL    HW3 8039   1.615   1.570   3.269
 2002SOL    MW4 8040   1.597   1.547   3.351
 2003SOL     OW 8041   1.372   1.707   3.477
 2003SOL    HW2 8042   1.384   1.688   3.570
 2003SOL    HW3 8043   1.446   1.664   3.434
 2003SOL    MW4 8044   1.383   1.699   3.483
 2004SOL     OW 8045   1.341   1.959   3.398
 2004SOL    HW2 8046   1.415   2.011   3.427
 2004SOL    HW3 8047   1.364   1.869   3.421
 2004SOL    MW4 8048   1.354   1.954   3.405
 2005SOL     OW 8049   1.539   2.094   3.511
 2005SOL    HW2 8050   1.611   2.044   3.472
 2005SOL    HW3 8051   1.539   2.177   3.464
 2005SOL    MW4 8052   1.549   2.099   3.500
 2006SOL     OW 8053   1.543   2.334   3.373
 2006SOL    HW2 8054   1.469   2.370   3.422
 2006SOL    HW3 8055   1.523   2.353   3.282
 2006SOL    MW4 8056   1.531   2.342   3.368
 2007SOL     OW 8057   1.339   2.424   3.528
 2007SOL    HW2 8058   1.350   2.432   3.623
 2007SOL    HW3 8059   1.325   2.514   3.498
 2007SOL    MW4 8060   1.339   2.437   3.537
 2008SOL     OW 8061   1.354   2.698   3.424
 2008SOL    HW2 8062   1.424   2.757   3.452
 2008SOL    HW3 8063   1.363   2.693   3.329
 2008SOL    MW4 8064   1.364   2.705   3.415
 2009SOL     OW 8065   1.578   2.858   3.486
 2009SOL    HW2 8066   1.655   2.814   3.451
 2009SOL    HW3 8067   1.574   2.941   3.439
 2009SOL    MW4 8068   1.588   2.863   3.475
 2010SOL     OW 8069   1.580   3.096   3.379
 2010SOL    HW2 8070   1.656   3.143   3.414
 2010SOL    HW3 8071   1.504   3.141   3.416
 2010SOL    MW4 8072   1.580   3.108   3.388
 2011SOL     OW 8073   1.327   3.242   3.494
 2011SOL    HW2 8074   1.338   3.231   3.588
 2011SOL    HW3 8075   1.249   3.191   3.472
 2011SOL    MW4 8076   1.319   3.234   3.503
 2012SOL     OW 8077   1.350   3.503   3.367
 2012SOL    HW2 8078   1.347   3.410   3.393
 2012SOL    HW3 8079   1.263   3.536   3.388
 2012SOL    MW4 8080   1.338   3.495   3.373
 2013SOL     OW 8081   1.578   3.619   3.488
 2013SOL    HW2 8082   1.580   3.603   3.582
 2013SOL    HW3 8083   1.508   3.562   3.455
 2013SOL    MW4 8084   1.569   3.610   3.496
 2014SOL     OW 8085   1.563   3.891   3.411
 2014SOL    HW2 8086   1.563   3.799   3.439
 2014SOL    HW3 8087   1.546   3.887   3.317
 2014SOL    MW4 8088   1.561   3.878   3.402
 2015SOL     OW 8089   1.309   3.998   3.463
 2015SOL    HW2 8090   1.336   4.085   3.434
 2015SOL    HW3 8091   1.388   3.944   3.459
 2015SOL    MW4 8092   1.323   4.002   3.459
 2016SOL     OW 8093   1.371   4.246   3.345
 2016SOL    HW2 8094   1.316   4.314   3.385
 2016SOL    HW3 8095   1.363   4.261   3.251
 2016SOL    MW4 8096   1.362   4.257   3.338
 2017SOL     OW 8097   1.585   4.372   3.487
 2017SOL    HW2 8098   1.662   4.329   3.449
 2017SOL    HW3 8099   1.511   4.321   3.454
 2017SOL    MW4 8100   1.585   4.359   3.478
 2018SOL     OW 8101   2.000   4.661   3.378
 2018SOL    HW2 8102   2.070   4.718   3.410
 2018SOL    HW3 8103   1.926   4.680   3.436
 2018SOL    MW4 8104   1.999   4.671   3.390
 2019SOL     OW 8105   1.784   0.150   3.490
 2019SOL    HW2 8106   1.801   0.120   3.579
 2019SOL    HW3 8107   1.713   0.093   3.459
 2019SOL    MW4 8108   1.777   0.138   3.497
 2020SOL     OW 8109   1.766   0.409   3.366
 2020SOL    HW2 8110   1.762   0.323   3.408
 2020SOL    HW3 8111   1.759   0.390   3.272
 2020SOL    MW4 8112   1.765   0.395   3.359
 2021SOL     OW 8113   2.013   0.480   3.454
 2021SOL    HW2 8114   2.024   0.574   3.440
 2021SOL    HW3 8115   1.925   0.462   3.422
 2021SOL    MW4 8116   2.003   0.490   3.448
 2022SOL     OW 8117   2.035   0.738   3.400
 2022SOL    HW2 8118   2.101   0.800   3.431
 2022SOL    HW3 8119   2.033   0.752   3.305
 2022SOL    MW4 8120   2.044   0.748   3.391
 2023SOL     OW 8121   1.794   0.917   3.476
 2023SOL    HW2 8122   1.856   0.848   3.451
 2023SOL    HW3 8123   1.710   0.885   3.444
 2023SOL    MW4 8124   1.791   0.904   3.469
 2024SOL     OW 8125   1.822   1.199   3.355
 2024SOL    HW2 8126   1.888   1.250   3.402
 2024SOL    HW3 8127   1.811   1.119   3.407
 2024SOL    MW4 8128   1.829   1.195   3.368
 2025SOL     OW 8129   2.038   1.317   3.485
 2025SOL    HW2 8130   2.040   1.309   3.581
 2025SOL    HW3 8131   2.060   1.408   3.468
 2025SOL    MW4 8132   2.041   1.328   3.496
 2026SOL     OW 8133   2.008   1.577   3.396
 2026SOL    HW2 8134   2.081   1.629   3.431
 2026SOL    HW3 8135   1.930   1.620   3.431
 2026SOL    MW4 8136   2.007   1.589   3.406
 2027SOL     OW 8137   1.791   1.712   3.479
 2027SOL    HW2 8138   1.782   1.806   3.462
 2027SOL    HW3 8139   1.710   1.674   3.446
 2027SOL    MW4 8140   1.779   1.719   3.472
 2028SOL     OW 8141   1.744   1.968   3.395
 2028SOL    HW2 8142   1.812   2.020   3.439
 2028SOL    HW3 8143   1.773   1.963   3.304
 2028SOL    MW4 8144   1.757   1.974   3.389
 2029SOL     OW 8145   1.988   2.082   3.468
 2029SOL    HW2 8146   2.056   2.034   3.421
 2029SOL    HW3 8147   1.986   2.169   3.428
 2029SOL    MW4 8148   1.996   2.087   3.456
 2030SOL     OW 8149   1.975   2.367   3.374
 2030SOL    HW2 8150   2.064   2.398   3.393
 2030SOL    HW3 8151   1.971   2.363   3.279
 2030SOL    MW4 8152   1.986   2.371   3.364
 2031SOL     OW 8153   1.758   2.478   3.496
 2031SOL    HW2 8154   1.831   2.437   3.449
 2031SOL    HW3 8155   1.680   2.437   3.458
 2031SOL    MW4 8156   1.757   2.467   3.485
 2032SOL     OW 8157   1.798   2.718   3.364
 2032SOL    HW2 8158   1.888   2.738   3.391
 2032SOL    HW3 8159   1.774   2.644   3.420
 2032SOL    MW4 8160   1.807   2.711   3.375
 2033SOL     OW 8161   2.042   2.814   3.434
 2033SOL    HW2 8162   2.041   2.810   3.530
 2033SOL    HW3 8163   2.039   2.907   3.413
 2033SOL    MW4 8164   2.042   2.826   3.444
 2034SOL     OW 8165   2.028   3.082   3.379
 2034SOL    HW2 8166   2.103   3.106   3.433
 2034SOL    HW3 8167   1.953   3.125   3.421
 2034SOL    MW4 8168   2.028   3.091   3.392
 2035SOL     OW 8169   1.787   3.227   3.476
 2035SOL    HW2 8170   1.788   3.243   3.571
 2035SOL    HW3 8171   1.796   3.313   3.437
 2035SOL    MW4 8172   1.789   3.240   3.484
 2036SOL     OW 8173   1.806   3.493   3.371
 2036SOL    HW2 8174   1.738   3.550   3.408
 2036SOL    HW3 8175   1.814   3.522   3.280
 2036SOL    MW4 8176   1.798   3.505   3.364
 2037SOL     OW 8177   2.004   3.609   3.540
 2037SOL    HW2 8178   2.085   3.562   3.518
 2037SOL    HW3 8179   1.935   3.559   3.497
 2037SOL    MW4 8180   2.006   3.596   3.531
 2038SOL     OW 8181   2.032   3.854   3.404
 2038SOL    HW2 8182   1.965   3.919   3.425
 2038SOL    HW3 8183   2.004   3.775   3.449
 2038SOL    MW4 8184   2.020   3.852   3.413
 2039SOL     OW 8185   1.818   4.011   3.483
 2039SOL    HW2 8186   1.815   4.013   3.579
 2039SOL    HW3 8187   1.734   3.975   3.457
 2039SOL    MW4 8188   1.807   4.006   3.492
 2040SOL     OW 8189   1.825   4.272   3.373
 2040SOL    HW2 8190   1.834   4.181   3.403
 2040SOL    HW3 8191   1.831   4.266   3.278
 2040SOL    MW4 8192   1.827   4.259   3.365
 2041SOL     OW 8193   2.032   4.401   3.501
 2041SOL    HW2 8194   1.953   4.368   3.459
 2041SOL    HW3 8195   2.041   4.491   3.468
 2041SOL    MW4 8196   2.023   4.409   3.491
 2042SOL     OW 8197   2.456   4.654   3.383
 2042SOL    HW2 8198   2.454   4.561   3.405
 2042SOL    HW3 8199   2.452   4.656   3.287
 2042SOL    MW4 8200   2.455   4.642   3.373
 2043SOL     OW 8201   2.227   0.133   3.455
 2043SOL    HW2 8202   2.223   0.220   3.416
 2043SOL    HW3 8203   2.313   0.099   3.430
 2043SOL    MW4 8204   2.238   0.140   3.446
 2044SOL     OW 8205   2.233   0.379   3.348
 2044SOL    HW2 8206   2.298   0.436   3.390
 2044SOL    HW3 8207   2.149   0.408   3.385
 2044SOL    MW4 8208   2.230   0.391   3.359
 2045SOL     OW 8209   2.460   0.495   3.485
 2045SOL    HW2 8210   2.541   0.461   3.446
 2045SOL    HW3 8211   2.454   0.585   3.451
 2045SOL    MW4 8212   2.470   0.503   3.475
 2046SOL     OW 8213   2.449   0.763   3.418
 2046SOL    HW2 8214   2.527   0.808   3.450
 2046SOL    HW3 8215   2.460   0.760   3.323
 2046SOL    MW4 8216   2.461   0.768   3.409
 2047SOL     OW 8217   2.228   0.917   3.450
 2047SOL    HW2 8218   2.226   1.000   3.403
 2047SOL    HW3 8219   2.316   0.882   3.432
 2047SOL    MW4 8220   2.240   0.923   3.442
 2048SOL     OW 8221   2.228   1.168   3.344
 2048SOL    HW2 8222   2.314   1.191   3.379
 2048SOL    HW3 8223   2.167   1.223   3.393
 2048SOL    MW4 8224   2.231   1.178   3.355
 2049SOL     OW 8225   2.444   1.270   3.463
 2049SOL    HW2 8226   2.459   1.260   3.557
 2049SOL    HW3 8227   2.519   1.227   3.422
 2049SOL    MW4 8228   2.456   1.263   3.470
 2050SOL     OW 8229   2.415   1.534   3.381
 2050SOL    HW2 8230   2.433   1.449   3.420
 2050SOL    HW3 8231   2.436   1.524   3.288
 2050SOL    MW4 8232   2.420   1.522   3.374
 2051SOL     OW 8233   2.221   1.702   3.499
 2051SOL    HW2 8234   2.204   1.703   3.593
 2051SOL    HW3 8235   2.286   1.632   3.487
 2051SOL    MW4 8236   2.228   1.693   3.510
 2052SOL     OW 8237   2.187   1.941   3.349
 2052SOL    HW2 8238   2.201   1.855   3.389
 2052SOL    HW3 8239   2.184   1.923   3.255
 2052SOL    MW4 8240   2.189   1.927   3.341
 2053SOL     OW 8241   2.450   2.009   3.459
 2053SOL    HW2 8242   2.447   2.011   3.554
 2053SOL    HW3 8243   2.361   1.986   3.432
 2053SOL    MW4 8244   2.438   2.006   3.468
 2054SOL     OW 8245   2.464   2.300   3.378
 2054SOL    HW2 8246   2.545   2.348   3.399
 2054SOL    HW3 8247   2.476   2.215   3.419
 2054SOL    MW4 8248   2.477   2.295   3.386
 2055SOL     OW 8249   2.236   2.458   3.431
 2055SOL    HW2 8250   2.262   2.543   3.394
 2055SOL    HW3 8251   2.309   2.400   3.411
 2055SOL    MW4 8252   2.249   2.462   3.423
 2056SOL     OW 8253   2.304   2.722   3.361
 2056SOL    HW2 8254   2.212   2.750   3.363
 2056SOL    HW3 8255   2.330   2.729   3.269
 2056SOL    MW4 8256   2.295   2.726   3.349
 2057SOL     OW 8257   2.515   2.811   3.524
 2057SOL    HW2 8258   2.523   2.902   3.493
 2057SOL    HW3 8259   2.433   2.780   3.487
 2057SOL    MW4 8260   2.505   2.819   3.515
 2058SOL     OW 8261   2.525   3.077   3.414
 2058SOL    HW2 8262   2.606   3.114   3.448
 2058SOL    HW3 8263   2.536   3.076   3.319
 2058SOL    MW4 8264   2.537   3.082   3.406
 2059SOL     OW 8265   2.264   3.203   3.482
 2059SOL    HW2 8266   2.272   3.205   3.577
 2059SOL    HW3 8267   2.345   3.162   3.453
 2059SOL    MW4 8268   2.276   3.198   3.491
 2060SOL     OW 8269   2.201   3.471   3.405
 2060SOL    HW2 8270   2.210   3.378   3.428
 2060SOL    HW3 8271   2.209   3.472   3.309
 2060SOL    MW4 8272   2.203   3.459   3.395
 2061SOL     OW 8273   2.434   3.607   3.504
 2061SOL    HW2 8274   2.442   3.694   3.464
 2061SOL    HW3 8275   2.345   3.579   3.482
 2061SOL    MW4 8276   2.423   3.615   3.496
 2062SOL     OW 8277   2.476   3.892   3.378
 2062SOL    HW2 8278   2.552   3.939   3.413
 2062SOL    HW3 8279   2.401   3.932   3.423
 2062SOL    MW4 8280   2.476   3.904   3.388
 2063SOL     OW 8281   2.263   3.991   3.512
 2063SOL    HW2 8282   2.256   4.082   3.484
 2063SOL    HW3 8283   2.191   3.947   3.466
 2063SOL    MW4 8284   2.252   3.997   3.502
 2064SOL     OW 8285   2.241   4.249   3.398
 2064SOL    HW2 8286   2.162   4.295   3.428
 2064SOL    HW3 8287   2.234   4.249   3.303
 2064SOL    MW4 8288   2.229   4.255   3.389
 2065SOL     OW 8289   2.478   4.376   3.453
 2065SOL    HW2 8290   2.483   4.384   3.549
 2065SOL    HW3 8291   2.403   4.319   3.438
 2065SOL    MW4 8292   2.469   4.369   3.464
 2066SOL     OW 8293   2.921   4.663   3.415
 2066SOL    HW2 8294   2.842   4.698   3.456
 2066SOL    HW3 8295   2.899   4.657   3.322
 2066SOL    MW4 8296   2.907   4.666   3.408
 2067SOL     OW 8297   2.671   0.105   3.502
 2067SOL    HW2 8298   2.670   0.194   3.468
 2067SOL    HW3 8299   2.602   0.060   3.453
 2067SOL    MW4 8300   2.662   0.111   3.491
 2068SOL     OW 8301   2.706   0.366   3.400
 2068SOL    HW2 8302   2.785   0.407   3.436
 2068SOL    HW3 8303   2.720   0.367   3.305
 2068SOL    MW4 8304   2.718   0.371   3.392
 2069SOL     OW 8305   2.917   0.525   3.497
 2069SOL    HW2 8306   2.909   0.537   3.591
 2069SOL    HW3 8307   2.919   0.614   3.461
 2069SOL    MW4 8308   2.916   0.538   3.504
 2070SOL     OW 8309   2.922   0.793   3.418
 2070SOL    HW2 8310   3.005   0.817   3.460
 2070SOL    HW3 8311   2.855   0.838   3.469
 2070SOL    MW4 8312   2.924   0.802   3.430
 2071SOL     OW 8313   2.667   0.896   3.518
 2071SOL    HW2 8314   2.674   0.911   3.612
 2071SOL    HW3 8315   2.668   0.984   3.480
 2071SOL    MW4 8316   2.668   0.910   3.525
 2072SOL     OW 8317   2.665   1.134   3.387
 2072SOL    HW2 8318   2.752   1.161   3.417
 2072SOL    HW3 8319   2.670   1.139   3.291
 2072SOL    MW4 8320   2.677   1.139   3.378
 2073SOL     OW 8321   2.917   1.247   3.456
 2073SOL    HW2 8322   2.939   1.254   3.549
 2073SOL    HW3 8323   2.995   1.211   3.415
 2073SOL    MW4 8324   2.930   1.243   3.463
 2074SOL     OW 8325   2.922   1.508   3.353
 2074SOL    HW2 8326   2.840   1.556   3.368
 2074SOL    HW3 8327   2.903   1.420   3.385
 2074SOL    MW4 8328   2.909   1.502   3.359
 2075SOL     OW 8329   2.675   1.630   3.424
 2075SOL    HW2 8330   2.673   1.721   3.396
 2075SOL    HW3 8331   2.585   1.599   3.411
 2075SOL    MW4 8332   2.663   1.638   3.419
 2076SOL     OW 8333   2.692   1.912   3.378
 2076SOL    HW2 8334   2.603   1.940   3.400
 2076SOL    HW3 8335   2.692   1.905   3.283
 2076SOL    MW4 8336   2.680   1.915   3.368
 2077SOL     OW 8337   2.902   2.075   3.439
 2077SOL    HW2 8338   2.886   2.085   3.533
 2077SOL    HW3 8339   2.833   2.015   3.410
 2077SOL    MW4 8340   2.890   2.068   3.448
 2078SOL     OW 8341   2.937   2.314   3.330
 2078SOL    HW2 8342   2.928   2.225   3.364
 2078SOL    HW3 8343   2.921   2.305   3.236
 2078SOL    MW4 8344   2.934   2.301   3.322
 2079SOL     OW 8345   2.716   2.427   3.456
 2079SOL    HW2 8346   2.727   2.415   3.550
 2079SOL    HW3 8347   2.795   2.389   3.417
 2079SOL    MW4 8348   2.728   2.420   3.463
 2080SOL     OW 8349   2.737   2.707   3.381
 2080SOL    HW2 8350   2.738   2.611   3.377
 2080SOL    HW3 8351   2.658   2.728   3.431
 2080SOL    MW4 8352   2.727   2.697   3.387
 2081SOL     OW 8353   2.951   2.833   3.481
 2081SOL    HW2 8354   2.924   2.851   3.571
 2081SOL    HW3 8355   2.878   2.786   3.442
 2081SOL    MW4 8356   2.938   2.829   3.488
 2082SOL     OW 8357   2.931   3.108   3.374
 2082SOL    HW2 8358   2.928   3.018   3.407
 2082SOL    HW3 8359   2.931   3.098   3.279
 2082SOL    MW4 8360   2.930   3.095   3.366
 2083SOL     OW 8361   2.735   3.251   3.508
 2083SOL    HW2 8362   2.743   3.222   3.599
 2083SOL    HW3 8363   2.817   3.225   3.467
 2083SOL    MW4 8364   2.747   3.244   3.515
 2084SOL     OW 8365   2.625   3.466   3.360
 2084SOL    HW2 8366   2.655   3.385   3.402
 2084SOL    HW3 8367   2.544   3.488   3.406
 2084SOL    MW4 8368   2.618   3.458   3.371
 2085SOL     OW 8369   2.865   3.580   3.489
 2085SOL    HW2 8370   2.869   3.668   3.453
 2085SOL    HW3 8371   2.802   3.534   3.435
 2085SOL    MW4 8372   2.857   3.586   3.477
 2086SOL     OW 8373   2.904   3.836   3.374
 2086SOL    HW2 8374   2.981   3.885   3.402
 2086SOL    HW3 8375   2.830   3.893   3.398
 2086SOL    MW4 8376   2.904   3.850   3.381
 2087SOL     OW 8377   2.726   4.024   3.469
 2087SOL    HW2 8378   2.711   4.028   3.563
 2087SOL    HW3 8379   2.723   4.115   3.440
 2087SOL    MW4 8380   2.723   4.037   3.478
 2088SOL     OW 8381   2.730   4.281   3.360
 2088SOL    HW2 8382   2.808   4.317   3.403
 2088SOL    HW3 8383   2.657   4.334   3.393
 2088SOL    MW4 8384   2.731   4.293   3.370
 2089SOL     OW 8385   2.943   4.401   3.488
 2089SOL    HW2 8386   2.919   4.407   3.581
 2089SOL    HW3 8387   2.927   4.489   3.454
 2089SOL    MW4 8388   2.937   4.413   3.496
 2090SOL     OW 8389   3.406   4.648   3.405
 2090SOL    HW2 8390   3.325   4.673   3.450
 2090SOL    HW3 8391   3.385   4.654   3.312
 2090SOL    MW4 8392   3.393   4.652   3.399
 2091SOL     OW 8393   3.160   0.096   3.480
 2091SOL    HW2 8394   3.153   0.188   3.455
 2091SOL    HW3 8395   3.076   0.059   3.456
 2091SOL    MW4 8396   3.148   0.103   3.473
 2092SOL     OW 8397   3.128   0.368   3.417
 2092SOL    HW2 8398   3.058   0.426   3.446
 2092SOL    HW3 8399   3.129   0.379   3.322
 2092SOL    MW4 8400   3.119   0.377   3.408
 2093SOL     OW 8401   3.375   0.493   3.489
 2093SOL    HW2 8402   3.382   0.484   3.584
 2093SOL    HW3 8403   3.287   0.461   3.469
 2093SOL    MW4 8404   3.364   0.487   3.499
 2094SOL     OW 8405   3.416   0.752   3.347
 2094SOL    HW2 8406   3.472   0.806   3.402
 2094SOL    HW3 8407   3.417   0.666   3.389
 2094SOL    MW4 8408   3.424   0.748   3.360
 2095SOL     OW 8409   3.178   0.880   3.473
 2095SOL    HW2 8410   3.167   0.962   3.426
 2095SOL    HW3 8411   3.260   0.843   3.438
 2095SOL    MW4 8412   3.188   0.886   3.462
 2096SOL     OW 8413   3.149   1.129   3.349
 2096SOL    HW2 8414   3.232   1.170   3.374
 2096SOL    HW3 8415   3.144   1.143   3.254
 2096SOL    MW4 8416   3.159   1.136   3.339
 2097SOL     OW 8417   3.371   1.238   3.465
 2097SOL    HW2 8418   3.455   1.199   3.443
 2097SOL    HW3 8419   3.376   1.327   3.432
 2097SOL    MW4 8420   3.382   1.244   3.458
 2098SOL     OW 8421   3.370   1.525   3.388
 2098SOL    HW2 8422   3.446   1.574   3.421
 2098SOL    HW3 8423   3.298   1.552   3.445
 2098SOL    MW4 8424   3.371   1.535   3.399
 2099SOL     OW 8425   3.145   1.658   3.487
 2099SOL    HW2 8426   3.129   1.747   3.456
 2099SOL    HW3 8427   3.073   1.606   3.450
 2099SOL    MW4 8428   3.134   1.663   3.478
 2100SOL     OW 8429   3.124   1.921   3.402
 2100SOL    HW2 8430   3.052   1.981   3.422
 2100SOL    HW3 8431   3.121   1.911   3.307
 2100SOL    MW4 8432   3.114   1.927   3.392
 2101SOL     OW 8433   3.360   2.031   3.485
 2101SOL    HW2 8434   3.363   2.121   3.452
 2101SOL    HW3 8435   3.274   1.998   3.457
 2101SOL    MW4 8436   3.349   2.038   3.477
 2102SOL     OW 8437   3.342   2.293   3.410
 2102SOL    HW2 8438   3.425   2.338   3.426
 2102SOL    HW3 8439   3.275   2.356   3.438
 2102SOL    MW4 8440   3.344   2.308   3.416
 2103SOL     OW 8441   3.131   2.437   3.500
 2103SOL    HW2 8442   3.144   2.530   3.482
 2103SOL    HW3 8443   3.058   2.412   3.443
 2103SOL    MW4 8444   3.123   2.446   3.490
 2104SOL     OW 8445   3.165   2.699   3.404
 2104SOL    HW2 8446   3.240   2.744   3.442
 2104SOL    HW3 8447   3.089   2.743   3.442
 2104SOL    MW4 8448   3.165   2.711   3.414
 2105SOL     OW 8449   3.377   2.832   3.531
 2105SOL    HW2 8450   3.456   2.788   3.498
 2105SOL    HW3 8451   3.371   2.912   3.479
 2105SOL    MW4 8452   3.387   2.836   3.520
 2106SOL     OW 8453   3.335   3.054   3.397
 2106SOL    HW2 8454   3.407   3.106   3.434
 2106SOL    HW3 8455   3.256   3.097   3.429
 2106SOL    MW4 8456   3.334   3.067   3.406
 2107SOL     OW 8457   3.149   3.206   3.502
 2107SOL    HW2 8458   3.153   3.300   3.483
 2107SOL    HW3 8459   3.073   3.175   3.452
 2107SOL    MW4 8460   3.139   3.215   3.493
 2108SOL     OW 8461   3.118   3.470   3.400
 2108SOL    HW2 8462   3.030   3.497   3.428
 2108SOL    HW3 8463   3.121   3.491   3.307
 2108SOL    MW4 8464   3.107   3.477   3.392
 2109SOL     OW 8465   3.334   3.631   3.491
 2109SOL    HW2 8466   3.338   3.707   3.433
 2109SOL    HW3 8467   3.262   3.578   3.457
 2109SOL    MW4 8468   3.325   3.634   3.479
 2110SOL     OW 8469   3.367   3.870   3.359
 2110SOL    HW2 8470   3.430   3.915   3.416
 2110SOL    HW3 8471   3.285   3.917   3.373
 2110SOL    MW4 8472   3.365   3.882   3.368
 2111SOL     OW 8473   3.128   4.007   3.447
 2111SOL    HW2 8474   3.142   4.011   3.542
 2111SOL    HW3 8475   3.119   4.099   3.421
 2111SOL    MW4 8476   3.129   4.020   3.456
 2112SOL     OW 8477   3.173   4.293   3.371
 2112SOL    HW2 8478   3.253   4.334   3.405
 2112SOL    HW3 8479   3.103   4.333   3.422
 2112SOL    MW4 8480   3.174   4.304   3.382
 2113SOL     OW 8481   3.411   4.398   3.481
 2113SOL    HW2 8482   3.385   4.391   3.573
 2113SOL    HW3 8483   3.408   4.492   3.462
 2113SOL    MW4 8484   3.407   4.410   3.490
 2114SOL     OW 8485   3.821   0.015   3.375
 2114SOL    HW2 8486   3.736   0.027   3.419
 2114SOL    HW3 8487   3.800   0.018   3.281
 2114SOL    MW4 8488   3.807   0.017   3.368
 2115SOL     OW 8489   3.622   0.106   3.536
 2115SOL    HW2 8490   3.617   0.190   3.491
 2115SOL    HW3 8491   3.545   0.058   3.505
 2115SOL    MW4 8492   3.611   0.110   3.526
 2116SOL     OW 8493   3.586   0.347   3.393
 2116SOL    HW2 8494   3.663   0.400   3.416
 2116SOL    HW3 8495   3.512   0.396   3.429
 2116SOL    MW4 8496   3.586   0.361   3.401
 2117SOL     OW 8497   3.815   0.489   3.480
 2117SOL    HW2 8498   3.833   0.510   3.571
 2117SOL    HW3 8499   3.895   0.448   3.448
 2117SOL    MW4 8500   3.828   0.486   3.488
 2118SOL     OW 8501   3.843   0.761   3.376
 2118SOL    HW2 8502   3.914   0.797   3.429
 2118SOL    HW3 8503   3.841   0.669   3.399
 2118SOL    MW4 8504   3.852   0.754   3.386
 2119SOL     OW 8505   3.595   0.869   3.519
 2119SOL    HW2 8506   3.601   0.882   3.614
 2119SOL    HW3 8507   3.673   0.818   3.497
 2119SOL    MW4 8508   3.606   0.864   3.529
 2120SOL     OW 8509   3.607   1.119   3.378
 2120SOL    HW2 8510   3.600   1.026   3.401
 2120SOL    HW3 8511   3.597   1.121   3.283
 2120SOL    MW4 8512   3.604   1.107   3.369
 2121SOL     OW 8513   3.817   1.301   3.468
 2121SOL    HW2 8514   3.835   1.308   3.561
 2121SOL    HW3 8515   3.746   1.237   3.461
 2121SOL    MW4 8516   3.810   1.294   3.479
 2122SOL     OW 8517   3.803   1.562   3.381
 2122SOL    HW2 8518   3.884   1.603   3.412
 2122SOL    HW3 8519   3.810   1.471   3.410
 2122SOL    MW4 8520   3.815   1.555   3.389
 2123SOL     OW 8521   3.580   1.689   3.483
 2123SOL    HW2 8522   3.587   1.769   3.430
 2123SOL    HW3 8523   3.654   1.636   3.456
 2123SOL    MW4 8524   3.591   1.693   3.473
 2124SOL     OW 8525   3.565   1.929   3.336
 2124SOL    HW2 8526   3.636   1.977   3.378
 2124SOL    HW3 8527   3.485   1.967   3.372
 2124SOL    MW4 8528   3.564   1.940   3.346
 2125SOL     OW 8529   3.800   2.054   3.405
 2125SOL    HW2 8530   3.794   2.059   3.501
 2125SOL    HW3 8531   3.882   2.009   3.388
 2125SOL    MW4 8532   3.810   2.049   3.416
 2126SOL     OW 8533   3.798   2.320   3.343
 2126SOL    HW2 8534   3.887   2.351   3.360
 2126SOL    HW3 8535   3.800   2.227   3.367
 2126SOL    MW4 8536   3.810   2.311   3.349
 2127SOL     OW 8537   3.581   2.431   3.469
 2127SOL    HW2 8538   3.589   2.524   3.451
 2127SOL    HW3 8539   3.651   2.390   3.417
 2127SOL    MW4 8540   3.592   2.438   3.460
 2128SOL     OW 8541   3.576   2.697   3.406
 2128SOL    HW2 8542   3.657   2.727   3.448
 2128SOL    HW3 8543   3.594   2.704   3.312
 2128SOL    MW4 8544   3.589   2.702   3.399
 2129SOL     OW 8545   3.828   2.820   3.488
 2129SOL    HW2 8546   3.824   2.823   3.584
 2129SOL    HW3 8547   3.828   2.912   3.462
 2129SOL    MW4 8548   3.827   2.833   3.497
 2130SOL     OW 8549   3.805   3.105   3.385
 2130SOL    HW2 8550   3.889   3.140   3.414
 2130SOL    HW3 8551   3.817   3.089   3.292
 2130SOL    MW4 8552   3.818   3.108   3.377
 2131SOL     OW 8553   3.561   3.233   3.451
 2131SOL    HW2 8554   3.570   3.328   3.451
 2131SOL    HW3 8555   3.647   3.201   3.427
 2131SOL    MW4 8556   3.573   3.241   3.448
 2132SOL     OW 8557   3.574   3.521   3.423
 2132SOL    HW2 8558   3.485   3.553   3.433
 2132SOL    HW3 8559   3.590   3.523   3.328
 2132SOL    MW4 8560   3.565   3.526   3.412
 2133SOL     OW 8561   3.806   3.637   3.524
 2133SOL    HW2 8562   3.811   3.619   3.618
 2133SOL    HW3 8563   3.722   3.600   3.498
 2133SOL    MW4 8564   3.796   3.630   3.533
 2134SOL     OW 8565   3.824   3.878   3.394
 2134SOL    HW2 8566   3.754   3.934   3.428
 2134SOL    HW3 8567   3.818   3.798   3.445
 2134SOL    MW4 8568   3.814   3.875   3.405
 2135SOL     OW 8569   3.583   3.998   3.478
 2135SOL    HW2 8570   3.586   3.999   3.574
 2135SOL    HW3 8571   3.593   4.090   3.453
 2135SOL    MW4 8572   3.585   4.010   3.488
 2136SOL     OW 8573   3.613   4.246   3.350
 2136SOL    HW2 8574   3.534   4.282   3.388
 2136SOL    HW3 8575   3.597   4.244   3.256
 2136SOL    MW4 8576   3.601   4.250   3.342
 2137SOL     OW 8577   3.825   4.402   3.471
 2137SOL    HW2 8578   3.755   4.342   3.444
 2137SOL    HW3 8579   3.802   4.485   3.429
 2137SOL    MW4 8580   3.813   4.405   3.462
 2138SOL     OW 8581   4.277   4.641   3.379
 2138SOL    HW2 8582   4.290   4.559   3.428
 2138SOL    HW3 8583   4.334   4.704   3.423
 2138SOL    MW4 8584   4.287   4.638   3.392
 2139SOL     OW 8585   4.045   0.102   3.514
 2139SOL    HW2 8586   4.124   0.070   3.471
 2139SOL    HW3 8587   3.974   0.053   3.474
 2139SOL    MW4 8588   4.046   0.091   3.503
 2140SOL     OW 8589   4.059   0.374   3.409
 2140SOL    HW2 8590   4.037   0.286   3.440
 2140SOL    HW3 8591   4.034   0.374   3.317
 2140SOL    MW4 8592   4.052   0.363   3.401
 2141SOL     OW 8593   4.286   0.519   3.493
 2141SOL    HW2 8594   4.273   0.611   3.470
 2141SOL    HW3 8595   4.212   0.474   3.453
 2141SOL    MW4 8596   4.275   0.525   3.485
 2142SOL     OW 8597   4.279   0.775   3.412
 2142SOL    HW2 8598   4.369   0.805   3.419
 2142SOL    HW3 8599   4.267   0.756   3.318
 2142SOL    MW4 8600   4.289   0.776   3.400
 2143SOL     OW 8601   4.044   0.906   3.506
 2143SOL    HW2 8602   4.049   0.999   3.484
 2143SOL    HW3 8603   4.131   0.871   3.487
 2143SOL    MW4 8604   4.056   0.913   3.501
 2144SOL     OW 8605   4.058   1.158   3.399
 2144SOL    HW2 8606   4.133   1.201   3.442
 2144SOL    HW3 8607   3.983   1.213   3.422
 2144SOL    MW4 8608   4.058   1.171   3.408
 2145SOL     OW 8609   4.279   1.287   3.532
 2145SOL    HW2 8610   4.279   1.369   3.483
 2145SOL    HW3 8611   4.359   1.242   3.503
 2145SOL    MW4 8612   4.290   1.292   3.522
 2146SOL     OW 8613   4.283   1.523   3.397
 2146SOL    HW2 8614   4.204   1.559   3.437
 2146SOL    HW3 8615   4.265   1.522   3.303
 2146SOL    MW4 8616   4.270   1.528   3.390
 2147SOL     OW 8617   4.048   1.659   3.486
 2147SOL    HW2 8618   4.048   1.672   3.581
 2147SOL    HW3 8619   4.052   1.748   3.450
 2147SOL    MW4 8620   4.048   1.672   3.494
 2148SOL     OW 8621   4.029   1.904   3.362
 2148SOL    HW2 8622   4.120   1.930   3.380
 2148SOL    HW3 8623   4.026   1.894   3.267
 2148SOL    MW4 8624   4.041   1.906   3.352
 2149SOL     OW 8625   4.273   2.032   3.456
 2149SOL    HW2 8626   4.282   2.123   3.426
 2149SOL    HW3 8627   4.361   1.996   3.449
 2149SOL    MW4 8628   4.286   2.040   3.451
 2150SOL     OW 8629   4.285   2.294   3.368
 2150SOL    HW2 8630   4.208   2.348   3.387
 2150SOL    HW3 8631   4.296   2.301   3.274
 2150SOL    MW4 8632   4.276   2.302   3.358
 2151SOL     OW 8633   4.052   2.440   3.423
 2151SOL    HW2 8634   4.038   2.432   3.517
 2151SOL    HW3 8635   4.059   2.534   3.407
 2151SOL    MW4 8636   4.051   2.451   3.433
 2152SOL     OW 8637   4.054   2.714   3.388
 2152SOL    HW2 8638   4.128   2.763   3.424
 2152SOL    HW3 8639   3.977   2.752   3.431
 2152SOL    MW4 8640   4.053   2.726   3.399
 2153SOL     OW 8641   4.260   2.848   3.520
 2153SOL    HW2 8642   4.263   2.843   3.616
 2153SOL    HW3 8643   4.336   2.797   3.491
 2153SOL    MW4 8644   4.271   2.841   3.529
 2154SOL     OW 8645   4.298   3.111   3.419
 2154SOL    HW2 8646   4.291   3.034   3.476
 2154SOL    HW3 8647   4.277   3.078   3.332
 2154SOL    MW4 8648   4.294   3.097   3.415
 2155SOL     OW 8649   4.048   3.217   3.495
 2155SOL    HW2 8650   4.050   3.310   3.471
 2155SOL    HW3 8651   4.129   3.181   3.458
 2155SOL    MW4 8652   4.059   3.225   3.487
 2156SOL     OW 8653   4.045   3.476   3.422
 2156SOL    HW2 8654   4.115   3.538   3.441
 2156SOL    HW3 8655   3.965   3.520   3.450
 2156SOL    MW4 8656   4.043   3.490   3.429
 2157SOL     OW 8657   4.283   3.620   3.486
 2157SOL    HW2 8658   4.258   3.656   3.570
 2157SOL    HW3 8659   4.293   3.696   3.429
 2157SOL    MW4 8660   4.281   3.635   3.489
 2158SOL     OW 8661   4.242   3.860   3.376
 2158SOL    HW2 8662   4.322   3.894   3.416
 2158SOL    HW3 8663   4.257   3.869   3.282
 2158SOL    MW4 8664   4.255   3.866   3.369
 2159SOL     OW 8665   4.056   4.032   3.468
 2159SOL    HW2 8666   4.124   3.970   3.444
 2159SOL    HW3 8667   3.974   3.988   3.445
 2159SOL    MW4 8668   4.054   4.018   3.461
 2160SOL     OW 8669   4.067   4.298   3.385
 2160SOL    HW2 8670   4.065   4.215   3.433
 2160SOL    HW3 8671   3.986   4.342   3.408
 2160SOL    MW4 8672   4.056   4.293   3.394
 2161SOL     OW 8673   4.300   4.396   3.489
 2161SOL    HW2 8674   4.309   4.385   3.584
 2161SOL    HW3 8675   4.215   4.358   3.468
 2161SOL    MW4 8676   4.290   4.389   3.499
 2162SOL     OW 8677   0.232   4.664   3.880
 2162SOL    HW2 8678   0.220   4.649   3.974
 2162SOL    HW3 8679   0.145   4.688   3.849
 2162SOL    MW4 8680   0.219   4.665   3.889
 2163SOL     OW 8681   4.487   0.089   3.776
 2163SOL    HW2 8682   4.506   0.176   3.811
 2163SOL    HW3 8683   4.482   0.102   3.681
 2163SOL    MW4 8684   4.489   0.102   3.768
 2164SOL     OW 8685   0.022   0.333   3.865
 2164SOL    HW2 8686  -0.049   0.385   3.826
 2164SOL    HW3 8687   0.101   0.384   3.848
 2164SOL    MW4 8688   0.023   0.347   3.858
 2165SOL     OW 8689   0.217   0.497   3.781
 2165SOL    HW2 8690   0.242   0.587   3.798
 2165SOL    HW3 8691   0.198   0.494   3.687
 2165SOL    MW4 8692   0.218   0.508   3.771
 2166SOL     OW 8693   0.224   0.764   3.875
 2166SOL    HW2 8694   0.208   0.741   3.967
 2166SOL    HW3 8695   0.143   0.807   3.847
 2166SOL    MW4 8696   0.211   0.767   3.884
 2167SOL     OW 8697   4.470   0.882   3.783
 2167SOL    HW2 8698   4.387   0.844   3.812
 2167SOL    HW3 8699   4.478   0.963   3.832
 2167SOL    MW4 8700   4.460   0.888   3.793
 2168SOL     OW 8701   0.029   1.125   3.912
 2168SOL    HW2 8702  -0.046   1.163   3.866
 2168SOL    HW3 8703   0.102   1.184   3.892
 2168SOL    MW4 8704   0.029   1.138   3.903
 2169SOL     OW 8705   0.220   1.297   3.800
 2169SOL    HW2 8706   0.238   1.387   3.826
 2169SOL    HW3 8707   0.230   1.297   3.704
 2169SOL    MW4 8708   0.224   1.309   3.791
 2170SOL     OW 8709   0.234   1.570   3.847
 2170SOL    HW2 8710   0.211   1.559   3.939
 2170SOL    HW3 8711   0.152   1.593   3.803
 2170SOL    MW4 8712   0.220   1.572   3.853
 2171SOL     OW 8713   4.470   1.643   3.770
 2171SOL    HW2 8714   4.473   1.734   3.799
 2171SOL    HW3 8715   4.476   1.648   3.675
 2171SOL    MW4 8716   4.471   1.656   3.762
 2172SOL     OW 8717   4.486   1.910   3.853
 2172SOL    HW2 8718   4.458   1.907   3.945
 2172SOL    HW3 8719   4.416   1.958   3.809
 2172SOL    MW4 8720   4.473   1.916   3.860
 2173SOL     OW 8721   0.252   2.023   3.785
 2173SOL    HW2 8722   0.259   2.113   3.817
 2173SOL    HW3 8723   0.171   1.990   3.822
 2173SOL    MW4 8724   0.242   2.031   3.794
 2174SOL     OW 8725   0.233   2.301   3.833
 2174SOL    HW2 8726   0.225   2.313   3.928
 2174SOL    HW3 8727   0.155   2.344   3.798
 2174SOL    MW4 8728   0.221   2.309   3.841
 2175SOL     OW 8729   0.015   2.433   3.744
 2175SOL    HW2 8730  -0.069   2.390   3.763
 2175SOL    HW3 8731   0.015   2.511   3.799
 2175SOL    MW4 8732   0.004   2.437   3.754
 2176SOL     OW 8733   0.011   2.684   3.869
 2176SOL    HW2 8734  -0.004   2.689   3.963
 2176SOL    HW3 8735   0.094   2.729   3.855
 2176SOL    MW4 8736   0.020   2.691   3.879
 2177SOL     OW 8737   0.248   2.798   3.801
 2177SOL    HW2 8738   0.337   2.764   3.815
 2177SOL    HW3 8739   0.242   2.810   3.706
 2177SOL    MW4 8740   0.259   2.795   3.790
 2178SOL     OW 8741   0.218   3.067   3.868
 2178SOL    HW2 8742   0.206   3.059   3.963
 2178SOL    HW3 8743   0.225   2.976   3.838
 2178SOL    MW4 8744   0.217   3.054   3.877
 2179SOL     OW 8745   4.489   3.240   3.801
 2179SOL    HW2 8746   4.560   3.187   3.838
 2179SOL    HW3 8747   4.501   3.234   3.707
 2179SOL    MW4 8748   4.500   3.232   3.794
 2180SOL     OW 8749   4.462   3.489   3.905
 2180SOL    HW2 8750   4.549   3.528   3.893
 2180SOL    HW3 8751   4.470   3.400   3.870
 2180SOL    MW4 8752   4.474   3.482   3.899
 2181SOL     OW 8753   0.228   3.604   3.821
 2181SOL    HW2 8754   0.302   3.565   3.867
 2181SOL    HW3 8755   0.220   3.692   3.858
 2181SOL    MW4 8756   0.236   3.611   3.832
 2182SOL     OW 8757   0.202   3.855   3.901
 2182SOL    HW2 8758   0.174   3.904   3.979
 2182SOL    HW3 8759   0.279   3.902   3.870
 2182SOL    MW4 8760   0.209   3.868   3.907
 2183SOL     OW 8761   0.002   3.992   3.767
 2183SOL    HW2 8762  -0.074   3.959   3.815
 2183SOL    HW3 8763   0.077   3.951   3.810
 2183SOL    MW4 8764   0.002   3.982   3.779
 2184SOL     OW 8765   4.486   4.239   3.880
 2184SOL    HW2 8766   4.560   4.289   3.845
 2184SOL    HW3 8767   4.492   4.154   3.837
 2184SOL    MW4 8768   4.497   4.235   3.870
 2185SOL     OW 8769   0.230   4.399   3.813
 2185SOL    HW2 8770   0.312   4.353   3.831
 2185SOL    HW3 8771   0.245   4.488   3.845
 2185SOL    MW4 8772   0.243   4.405   3.819
 2186SOL     OW 8773   0.711   4.641   3.805
 2186SOL    HW2 8774   0.687   4.552   3.780
 2186SOL    HW3 8775   0.630   4.691   3.801
 2186SOL    MW4 8776   0.697   4.636   3.801
 2187SOL     OW 8777   0.470   0.085   3.777
 2187SOL    HW2 8778   0.487   0.169   3.821
 2187SOL    HW3 8779   0.387   0.054   3.815
 2187SOL    MW4 8780   0.461   0.092   3.788
 2188SOL     OW 8781   0.457   0.355   3.846
 2188SOL    HW2 8782   0.530   0.410   3.818
 2188SOL    HW3 8783   0.379   0.406   3.821
 2188SOL    MW4 8784   0.456   0.369   3.839
 2189SOL     OW 8785   0.678   0.536   3.776
 2189SOL    HW2 8786   0.760   0.488   3.788
 2189SOL    HW3 8787   0.702   0.628   3.789
 2189SOL    MW4 8788   0.692   0.542   3.779
 2190SOL     OW 8789   0.692   0.807   3.893
 2190SOL    HW2 8790   0.765   0.860   3.862
 2190SOL    HW3 8791   0.616   0.841   3.848
 2190SOL    MW4 8792   0.692   0.818   3.883
 2191SOL     OW 8793   0.459   0.919   3.801
 2191SOL    HW2 8794   0.470   1.004   3.844
 2191SOL    HW3 8795   0.380   0.882   3.840
 2191SOL    MW4 8796   0.450   0.925   3.812
 2192SOL     OW 8797   0.454   1.163   3.918
 2192SOL    HW2 8798   0.528   1.217   3.891
 2192SOL    HW3 8799   0.380   1.196   3.866
 2192SOL    MW4 8800   0.454   1.175   3.907
 2193SOL     OW 8801   0.645   1.300   3.788
 2193SOL    HW2 8802   0.725   1.268   3.830
 2193SOL    HW3 8803   0.659   1.285   3.694
 2193SOL    MW4 8804   0.658   1.294   3.781
 2194SOL     OW 8805   0.667   1.559   3.880
 2194SOL    HW2 8806   0.743   1.595   3.834
 2194SOL    HW3 8807   0.651   1.475   3.837
 2194SOL    MW4 8808   0.675   1.553   3.868
 2195SOL     OW 8809   0.469   1.674   3.754
 2195SOL    HW2 8810   0.548   1.626   3.778
 2195SOL    HW3 8811   0.397   1.625   3.794
 2195SOL    MW4 8812   0.470   1.662   3.762
 2196SOL     OW 8813   0.476   1.903   3.913
 2196SOL    HW2 8814   0.480   1.817   3.872
 2196SOL    HW3 8815   0.424   1.956   3.853
 2196SOL    MW4 8816   0.470   1.899   3.900
 2197SOL     OW 8817   0.698   2.047   3.784
 2197SOL    HW2 8818   0.671   2.130   3.822
 2197SOL    HW3 8819   0.629   1.985   3.809
 2197SOL    MW4 8820   0.685   2.050   3.792
 2198SOL     OW 8821   0.670   2.299   3.867
 2198SOL    HW2 8822   0.748   2.349   3.847
 2198SOL    HW3 8823   0.598   2.353   3.835
 2198SOL    MW4 8824   0.670   2.313   3.860
 2199SOL     OW 8825   0.453   2.454   3.761
 2199SOL    HW2 8826   0.378   2.401   3.789
 2199SOL    HW3 8827   0.444   2.461   3.666
 2199SOL    MW4 8828   0.442   2.448   3.752
 2200SOL     OW 8829   0.480   2.683   3.904
 2200SOL    HW2 8830   0.555   2.729   3.866
 2200SOL    HW3 8831   0.480   2.598   3.861
 2200SOL    MW4 8832   0.490   2.678   3.893
 2201SOL     OW 8833   0.699   2.819   3.801
 2201SOL    HW2 8834   0.778   2.777   3.835
 2201SOL    HW3 8835   0.705   2.808   3.706
 2201SOL    MW4 8836   0.710   2.812   3.793
 2202SOL     OW 8837   0.672   3.101   3.867
 2202SOL    HW2 8838   0.660   3.098   3.962
 2202SOL    HW3 8839   0.686   3.010   3.841
 2202SOL    MW4 8840   0.672   3.089   3.876
 2203SOL     OW 8841   0.430   3.229   3.810
 2203SOL    HW2 8842   0.516   3.190   3.830
 2203SOL    HW3 8843   0.367   3.163   3.839
 2203SOL    MW4 8844   0.433   3.215   3.817
 2204SOL     OW 8845   0.450   3.479   3.916
 2204SOL    HW2 8846   0.532   3.516   3.883
 2204SOL    HW3 8847   0.442   3.394   3.872
 2204SOL    MW4 8848   0.460   3.473   3.906
 2205SOL     OW 8849   0.683   3.611   3.800
 2205SOL    HW2 8850   0.680   3.705   3.817
 2205SOL    HW3 8851   0.660   3.603   3.707
 2205SOL    MW4 8852   0.679   3.622   3.790
 2206SOL     OW 8853   0.681   3.872   3.893
 2206SOL    HW2 8854   0.704   3.888   3.984
 2206SOL    HW3 8855   0.745   3.921   3.842
 2206SOL    MW4 8856   0.692   3.880   3.898
 2207SOL     OW 8857   0.428   3.989   3.796
 2207SOL    HW2 8858   0.506   3.942   3.825
 2207SOL    HW3 8859   0.429   3.982   3.700
 2207SOL    MW4 8860   0.438   3.982   3.787
 2208SOL     OW 8861   0.460   4.247   3.913
 2208SOL    HW2 8862   0.518   4.294   3.853
 2208SOL    HW3 8863   0.458   4.158   3.880
 2208SOL    MW4 8864   0.467   4.242   3.901
 2209SOL     OW 8865   0.639   4.377   3.759
 2209SOL    HW2 8866   0.728   4.349   3.779
 2209SOL    HW3 8867   0.639   4.394   3.665
 2209SOL    MW4 8868   0.650   4.376   3.749
 2210SOL     OW 8869   1.123   4.661   3.838
 2210SOL    HW2 8870   1.207   4.686   3.800
 2210SOL    HW3 8871   1.103   4.577   3.798
 2210SOL    MW4 8872   1.131   4.653   3.828
 2211SOL     OW 8873   0.908   0.141   3.762
 2211SOL    HW2 8874   0.984   0.099   3.803
 2211SOL    HW3 8875   0.837   0.078   3.772
 2211SOL    MW4 8876   0.909   0.127   3.769
 2212SOL     OW 8877   0.911   0.405   3.843
 2212SOL    HW2 8878   0.891   0.385   3.934
 2212SOL    HW3 8879   0.913   0.320   3.800
 2212SOL    MW4 8880   0.908   0.391   3.849
 2213SOL     OW 8881   1.142   0.521   3.741
 2213SOL    HW2 8882   1.224   0.475   3.758
 2213SOL    HW3 8883   1.077   0.477   3.795
 2213SOL    MW4 8884   1.144   0.509   3.750
 2214SOL     OW 8885   1.106   0.780   3.847
 2214SOL    HW2 8886   1.093   0.773   3.942
 2214SOL    HW3 8887   1.129   0.691   3.820
 2214SOL    MW4 8888   1.107   0.767   3.856
 2215SOL     OW 8889   0.904   0.936   3.751
 2215SOL    HW2 8890   0.972   0.878   3.785
 2215SOL    HW3 8891   0.884   0.900   3.665
 2215SOL    MW4 8892   0.911   0.923   3.744
 2216SOL     OW 8893   0.901   1.180   3.882
 2216SOL    HW2 8894   0.918   1.157   3.974
 2216SOL    HW3 8895   0.893   1.096   3.837
 2216SOL    MW4 8896   0.902   1.166   3.888
 2217SOL     OW 8897   1.140   1.264   3.782
 2217SOL    HW2 8898   1.153   1.343   3.833
 2217SOL    HW3 8899   1.064   1.221   3.822
 2217SOL    MW4 8900   1.131   1.269   3.794
 2218SOL     OW 8901   1.149   1.520   3.901
 2218SOL    HW2 8902   1.155   1.537   3.995
 2218SOL    HW3 8903   1.219   1.573   3.863
 2218SOL    MW4 8904   1.159   1.529   3.909
 2219SOL     OW 8905   0.913   1.669   3.802
 2219SOL    HW2 8906   0.993   1.637   3.843
 2219SOL    HW3 8907   0.931   1.670   3.708
 2219SOL    MW4 8908   0.926   1.665   3.795
 2220SOL     OW 8909   0.916   1.913   3.905
 2220SOL    HW2 8910   0.913   1.826   3.864
 2220SOL    HW3 8911   0.839   1.958   3.871
 2220SOL    MW4 8912   0.906   1.907   3.895
 2221SOL     OW 8913   1.144   2.032   3.810
 2221SOL    HW2 8914   1.061   1.991   3.834
 2221SOL    HW3 8915   1.143   2.035   3.715
 2221SOL    MW4 8916   1.133   2.027   3.801
 2222SOL     OW 8917   1.099   2.332   3.845
 2222SOL    HW2 8918   1.072   2.337   3.937
 2222SOL    HW3 8919   1.128   2.241   3.834
 2222SOL    MW4 8920   1.099   2.320   3.856
 2223SOL     OW 8921   0.867   2.455   3.740
 2223SOL    HW2 8922   0.882   2.541   3.777
 2223SOL    HW3 8923   0.945   2.404   3.763
 2223SOL    MW4 8924   0.879   2.459   3.748
 2224SOL     OW 8925   0.916   2.702   3.905
 2224SOL    HW2 8926   0.927   2.705   4.000
 2224SOL    HW3 8927   0.996   2.741   3.870
 2224SOL    MW4 8928   0.928   2.707   3.913
 2225SOL     OW 8929   1.119   2.798   3.763
 2225SOL    HW2 8930   1.205   2.775   3.800
 2225SOL    HW3 8931   1.104   2.888   3.790
 2225SOL    MW4 8932   1.129   2.807   3.771
 2226SOL     OW 8933   1.108   3.048   3.860
 2226SOL    HW2 8934   1.190   3.092   3.838
 2226SOL    HW3 8935   1.040   3.107   3.829
 2226SOL    MW4 8936   1.110   3.061   3.853
 2227SOL     OW 8937   0.905   3.230   3.803
 2227SOL    HW2 8938   0.824   3.198   3.842
 2227SOL    HW3 8939   0.886   3.238   3.710
 2227SOL    MW4 8940   0.892   3.227   3.796
 2228SOL     OW 8941   0.937   3.506   3.844
 2228SOL    HW2 8942   0.935   3.411   3.841
 2228SOL    HW3 8943   0.847   3.532   3.824
 2228SOL    MW4 8944   0.925   3.497   3.841
 2229SOL     OW 8945   1.134   3.636   3.716
 2229SOL    HW2 8946   1.119   3.725   3.747
 2229SOL    HW3 8947   1.070   3.583   3.763
 2229SOL    MW4 8948   1.124   3.641   3.726
 2230SOL     OW 8949   1.098   3.889   3.846
 2230SOL    HW2 8950   1.103   3.864   3.938
 2230SOL    HW3 8951   1.178   3.938   3.830
 2230SOL    MW4 8952   1.109   3.892   3.856
 2231SOL     OW 8953   0.866   3.991   3.736
 2231SOL    HW2 8954   0.942   3.951   3.777
 2231SOL    HW3 8955   0.886   3.989   3.642
 2231SOL    MW4 8956   0.879   3.985   3.729
 2232SOL     OW 8957   0.895   4.259   3.802
 2232SOL    HW2 8958   0.935   4.252   3.888
 2232SOL    HW3 8959   0.881   4.168   3.775
 2232SOL    MW4 8960   0.898   4.246   3.810
 2233SOL     OW 8961   1.115   4.410   3.712
 2233SOL    HW2 8962   1.043   4.350   3.734
 2233SOL    HW3 8963   1.120   4.407   3.617
 2233SOL    MW4 8964   1.106   4.402   3.702
 2234SOL     OW 8965   1.593   0.024   3.871
 2234SOL    HW2 8966   1.589   0.037   3.966
 2234SOL    HW3 8967   1.567  -0.067   3.858
 2234SOL    MW4 8968   1.589   0.014   3.882
 2235SOL     OW 8969   1.371   0.108   3.748
 2235SOL    HW2 8970   1.360   0.202   3.763
 2235SOL    HW3 8971   1.452   0.085   3.795
 2235SOL    MW4 8972   1.380   0.117   3.756
 2236SOL     OW 8973   1.361   0.379   3.831
 2236SOL    HW2 8974   1.365   0.354   3.923
 2236SOL    HW3 8975   1.447   0.416   3.812
 2236SOL    MW4 8976   1.373   0.381   3.840
 2237SOL     OW 8977   1.602   0.497   3.747
 2237SOL    HW2 8978   1.681   0.456   3.781
 2237SOL    HW3 8979   1.599   0.582   3.791
 2237SOL    MW4 8980   1.612   0.503   3.758
 2238SOL     OW 8981   1.569   0.742   3.861
 2238SOL    HW2 8982   1.648   0.790   3.837
 2238SOL    HW3 8983   1.500   0.782   3.807
 2238SOL    MW4 8984   1.570   0.753   3.850
 2239SOL     OW 8985   1.348   0.884   3.747
 2239SOL    HW2 8986   1.361   0.972   3.782
 2239SOL    HW3 8987   1.266   0.855   3.786
 2239SOL    MW4 8988   1.339   0.891   3.757
 2240SOL     OW 8989   1.384   1.149   3.838
 2240SOL    HW2 8990   1.454   1.195   3.792
 2240SOL    HW3 8991   1.307   1.204   3.826
 2240SOL    MW4 8992   1.383   1.162   3.830
 2241SOL     OW 8993   1.594   1.284   3.719
 2241SOL    HW2 8994   1.662   1.242   3.772
 2241SOL    HW3 8995   1.589   1.373   3.754
 2241SOL    MW4 8996   1.602   1.290   3.731
 2242SOL     OW 8997   1.594   1.532   3.866
 2242SOL    HW2 8998   1.608   1.522   3.960
 2242SOL    HW3 8999   1.665   1.590   3.837
 2242SOL    MW4 9000   1.605   1.538   3.874
 2243SOL     OW 9001   1.369   1.667   3.755
 2243SOL    HW2 9002   1.388   1.749   3.799
 2243SOL    HW3 9003   1.440   1.608   3.781
 2243SOL    MW4 9004   1.381   1.670   3.764
 2244SOL     OW 9005   1.383   1.913   3.881
 2244SOL    HW2 9006   1.376   1.900   3.975
 2244SOL    HW3 9007   1.303   1.959   3.856
 2244SOL    MW4 9008   1.372   1.917   3.890
 2245SOL     OW 9009   1.579   2.077   3.782
 2245SOL    HW2 9010   1.510   2.018   3.814
 2245SOL    HW3 9011   1.563   2.083   3.688
 2245SOL    MW4 9012   1.568   2.070   3.774
 2246SOL     OW 9013   1.563   2.327   3.899
 2246SOL    HW2 9014   1.634   2.366   3.848
 2246SOL    HW3 9015   1.564   2.235   3.876
 2246SOL    MW4 9016   1.572   2.320   3.889
 2247SOL     OW 9017   1.340   2.446   3.807
 2247SOL    HW2 9018   1.407   2.393   3.851
 2247SOL    HW3 9019   1.257   2.407   3.834
 2247SOL    MW4 9020   1.338   2.434   3.817
 2248SOL     OW 9021   1.375   2.732   3.881
 2248SOL    HW2 9022   1.367   2.740   3.976
 2248SOL    HW3 9023   1.371   2.638   3.865
 2248SOL    MW4 9024   1.373   2.721   3.892
 2249SOL     OW 9025   1.569   2.879   3.765
 2249SOL    HW2 9026   1.498   2.822   3.793
 2249SOL    HW3 9027   1.564   2.878   3.669
 2249SOL    MW4 9028   1.559   2.871   3.756
 2250SOL     OW 9029   1.578   3.145   3.882
 2250SOL    HW2 9030   1.568   3.139   3.977
 2250SOL    HW3 9031   1.580   3.055   3.852
 2250SOL    MW4 9032   1.577   3.133   3.891
 2251SOL     OW 9033   1.317   3.208   3.775
 2251SOL    HW2 9034   1.307   3.296   3.811
 2251SOL    HW3 9035   1.399   3.176   3.813
 2251SOL    MW4 9036   1.327   3.215   3.785
 2252SOL     OW 9037   1.322   3.483   3.826
 2252SOL    HW2 9038   1.411   3.509   3.802
 2252SOL    HW3 9039   1.265   3.545   3.782
 2252SOL    MW4 9040   1.326   3.494   3.817
 2253SOL     OW 9041   1.566   3.605   3.758
 2253SOL    HW2 9042   1.628   3.558   3.814
 2253SOL    HW3 9043   1.559   3.692   3.798
 2253SOL    MW4 9044   1.573   3.611   3.771
 2254SOL     OW 9045   1.542   3.886   3.813
 2254SOL    HW2 9046   1.547   3.897   3.908
 2254SOL    HW3 9047   1.462   3.932   3.788
 2254SOL    MW4 9048   1.532   3.894   3.822
 2255SOL     OW 9049   1.312   4.022   3.746
 2255SOL    HW2 9050   1.316   4.116   3.763
 2255SOL    HW3 9051   1.301   4.016   3.651
 2255SOL    MW4 9052   1.311   4.034   3.735
 2256SOL     OW 9053   1.333   4.284   3.796
 2256SOL    HW2 9054   1.412   4.337   3.782
 2256SOL    HW3 9055   1.261   4.343   3.771
 2256SOL    MW4 9056   1.334   4.299   3.791
 2257SOL     OW 9057   1.565   4.426   3.758
 2257SOL    HW2 9058   1.638   4.377   3.794
 2257SOL    HW3 9059   1.571   4.412   3.663
 2257SOL    MW4 9060   1.575   4.418   3.750
 2258SOL     OW 9061   2.037   4.643   3.926
 2258SOL    HW2 9062   2.110   4.687   3.881
 2258SOL    HW3 9063   2.037   4.554   3.889
 2258SOL    MW4 9064   2.047   4.637   3.915
 2259SOL     OW 9065   1.848   0.064   3.750
 2259SOL    HW2 9066   1.914   0.038   3.813
 2259SOL    HW3 9067   1.766   0.031   3.786
 2259SOL    MW4 9068   1.846   0.056   3.763
 2260SOL     OW 9069   1.811   0.341   3.849
 2260SOL    HW2 9070   1.792   0.343   3.943
 2260SOL    HW3 9071   1.817   0.247   3.828
 2260SOL    MW4 9072   1.809   0.329   3.859
 2261SOL     OW 9073   2.022   0.467   3.728
 2261SOL    HW2 9074   1.951   0.421   3.772
 2261SOL    HW3 9075   2.015   0.442   3.636
 2261SOL    MW4 9076   2.012   0.458   3.722
 2262SOL     OW 9077   2.026   0.742   3.793
 2262SOL    HW2 9078   2.024   0.742   3.888
 2262SOL    HW3 9079   2.036   0.649   3.769
 2262SOL    MW4 9080   2.027   0.729   3.802
 2263SOL     OW 9081   1.785   0.900   3.764
 2263SOL    HW2 9082   1.865   0.850   3.780
 2263SOL    HW3 9083   1.776   0.902   3.669
 2263SOL    MW4 9084   1.794   0.893   3.754
 2264SOL     OW 9085   1.793   1.160   3.886
 2264SOL    HW2 9086   1.809   1.150   3.980
 2264SOL    HW3 9087   1.764   1.073   3.858
 2264SOL    MW4 9088   1.791   1.147   3.895
 2265SOL     OW 9089   2.019   1.294   3.762
 2265SOL    HW2 9090   2.095   1.242   3.787
 2265SOL    HW3 9091   1.944   1.235   3.777
 2265SOL    MW4 9092   2.019   1.279   3.768
 2266SOL     OW 9093   2.002   1.556   3.884
 2266SOL    HW2 9094   1.923   1.579   3.834
 2266SOL    HW3 9095   2.007   1.461   3.877
 2266SOL    MW4 9096   1.992   1.547   3.876
 2267SOL     OW 9097   1.801   1.691   3.763
 2267SOL    HW2 9098   1.807   1.781   3.795
 2267SOL    HW3 9099   1.793   1.701   3.668
 2267SOL    MW4 9100   1.801   1.704   3.754
 2268SOL     OW 9101   1.814   1.956   3.854
 2268SOL    HW2 9102   1.815   1.941   3.949
 2268SOL    HW3 9103   1.726   1.987   3.836
 2268SOL    MW4 9104   1.803   1.958   3.864
 2269SOL     OW 9105   2.024   2.111   3.746
 2269SOL    HW2 9106   1.958   2.055   3.786
 2269SOL    HW3 9107   2.004   2.110   3.653
 2269SOL    MW4 9108   2.013   2.104   3.739
 2270SOL     OW 9109   2.044   2.387   3.810
 2270SOL    HW2 9110   1.960   2.425   3.785
 2270SOL    HW3 9111   2.033   2.293   3.795
 2270SOL    MW4 9112   2.032   2.379   3.805
 2271SOL     OW 9113   1.767   2.465   3.763
 2271SOL    HW2 9114   1.762   2.558   3.786
 2271SOL    HW3 9115   1.761   2.463   3.668
 2271SOL    MW4 9116   1.765   2.477   3.754
 2272SOL     OW 9117   1.785   2.725   3.798
 2272SOL    HW2 9118   1.798   2.716   3.893
 2272SOL    HW3 9119   1.705   2.776   3.789
 2272SOL    MW4 9120   1.776   2.730   3.810
 2273SOL     OW 9121   2.035   2.816   3.716
 2273SOL    HW2 9122   2.103   2.781   3.773
 2273SOL    HW3 9123   1.954   2.778   3.750
 2273SOL    MW4 9124   2.033   2.807   3.728
 2274SOL     OW 9125   2.007   3.087   3.808
 2274SOL    HW2 9126   2.013   2.998   3.773
 2274SOL    HW3 9127   2.090   3.128   3.784
 2274SOL    MW4 9128   2.019   3.080   3.800
 2275SOL     OW 9129   1.794   3.255   3.760
 2275SOL    HW2 9130   1.864   3.195   3.786
 2275SOL    HW3 9131   1.716   3.223   3.806
 2275SOL    MW4 9132   1.793   3.243   3.769
 2276SOL     OW 9133   1.745   3.476   3.922
 2276SOL    HW2 9134   1.822   3.531   3.912
 2276SOL    HW3 9135   1.766   3.396   3.873
 2276SOL    MW4 9136   1.758   3.472   3.914
 2277SOL     OW 9137   1.975   3.603   3.821
 2277SOL    HW2 9138   2.045   3.540   3.839
 2277SOL    HW3 9139   1.977   3.615   3.726
 2277SOL    MW4 9140   1.984   3.596   3.811
 2278SOL     OW 9141   1.975   3.866   3.892
 2278SOL    HW2 9142   2.063   3.894   3.867
 2278SOL    HW3 9143   1.977   3.771   3.881
 2278SOL    MW4 9144   1.987   3.857   3.888
 2279SOL     OW 9145   1.777   4.010   3.751
 2279SOL    HW2 9146   1.841   3.967   3.808
 2279SOL    HW3 9147   1.704   3.949   3.745
 2279SOL    MW4 9148   1.776   3.996   3.757
 2280SOL     OW 9149   1.768   4.282   3.855
 2280SOL    HW2 9150   1.846   4.334   3.834
 2280SOL    HW3 9151   1.790   4.194   3.823
 2280SOL    MW4 9152   1.781   4.277   3.848
 2281SOL     OW 9153   2.012   4.411   3.785
 2281SOL    HW2 9154   2.083   4.351   3.809
 2281SOL    HW3 9155   2.018   4.419   3.690
 2281SOL    MW4 9156   2.022   4.404   3.776
 2282SOL     OW 9157   2.461   4.655   3.844
 2282SOL    HW2 9158   2.463   4.659   3.940
 2282SOL    HW3 9159   2.545   4.691   3.816
 2282SOL    MW4 9160   2.472   4.660   3.853
 2283SOL     OW 9161   2.220   0.087   3.731
 2283SOL    HW2 9162   2.301   0.039   3.749
 2283SOL    HW3 9163   2.226   0.110   3.638
 2283SOL    MW4 9164   2.231   0.084   3.721
 2284SOL     OW 9165   2.226   0.337   3.874
 2284SOL    HW2 9166   2.219   0.256   3.824
 2284SOL    HW3 9167   2.141   0.380   3.863
 2284SOL    MW4 9168   2.214   0.332   3.866
 2285SOL     OW 9169   2.450   0.494   3.766
 2285SOL    HW2 9170   2.398   0.422   3.803
 2285SOL    HW3 9171   2.452   0.476   3.672
 2285SOL    MW4 9172   2.443   0.482   3.759
 2286SOL     OW 9173   2.447   0.747   3.862
 2286SOL    HW2 9174   2.380   0.789   3.809
 2286SOL    HW3 9175   2.451   0.657   3.828
 2286SOL    MW4 9176   2.439   0.740   3.851
 2287SOL     OW 9177   2.243   0.895   3.726
 2287SOL    HW2 9178   2.168   0.841   3.750
 2287SOL    HW3 9179   2.241   0.899   3.630
 2287SOL    MW4 9180   2.233   0.889   3.716
 2288SOL     OW 9181   2.249   1.154   3.820
 2288SOL    HW2 9182   2.262   1.153   3.915
 2288SOL    HW3 9183   2.255   1.061   3.795
 2288SOL    MW4 9184   2.252   1.141   3.829
 2289SOL     OW 9185   2.470   1.305   3.744
 2289SOL    HW2 9186   2.440   1.391   3.774
 2289SOL    HW3 9187   2.398   1.246   3.766
 2289SOL    MW4 9188   2.456   1.308   3.751
 2290SOL     OW 9189   2.442   1.546   3.854
 2290SOL    HW2 9190   2.515   1.584   3.804
 2290SOL    HW3 9191   2.366   1.598   3.828
 2290SOL    MW4 9192   2.442   1.558   3.844
 2291SOL     OW 9193   2.210   1.680   3.769
 2291SOL    HW2 9194   2.191   1.770   3.794
 2291SOL    HW3 9195   2.146   1.627   3.817
 2291SOL    MW4 9196   2.199   1.685   3.779
 2292SOL     OW 9197   2.235   1.952   3.848
 2292SOL    HW2 9198   2.248   1.946   3.943
 2292SOL    HW3 9199   2.171   2.023   3.837
 2292SOL    MW4 9200   2.228   1.961   3.859
 2293SOL     OW 9201   2.479   2.038   3.732
 2293SOL    HW2 9202   2.497   2.122   3.773
 2293SOL    HW3 9203   2.403   2.004   3.778
 2293SOL    MW4 9204   2.471   2.044   3.743
 2294SOL     OW 9205   2.518   2.298   3.844
 2294SOL    HW2 9206   2.580   2.359   3.804
 2294SOL    HW3 9207   2.435   2.317   3.800
 2294SOL    MW4 9208   2.515   2.309   3.833
 2295SOL     OW 9209   2.299   2.404   3.703
 2295SOL    HW2 9210   2.214   2.404   3.746
 2295SOL    HW3 9211   2.282   2.432   3.613
 2295SOL    MW4 9212   2.286   2.407   3.697
 2296SOL     OW 9213   2.227   2.754   3.905
 2296SOL    HW2 9214   2.206   2.822   3.969
 2296SOL    HW3 9215   2.201   2.672   3.948
 2296SOL    MW4 9216   2.221   2.752   3.919
 2297SOL     OW 9217   2.491   2.782   3.806
 2297SOL    HW2 9218   2.406   2.755   3.840
 2297SOL    HW3 9219   2.476   2.798   3.713
 2297SOL    MW4 9220   2.478   2.780   3.798
 2298SOL     OW 9221   2.482   3.078   3.874
 2298SOL    HW2 9222   2.458   3.091   3.966
 2298SOL    HW3 9223   2.476   2.983   3.862
 2298SOL    MW4 9224   2.478   3.067   3.885
 2299SOL     OW 9225   2.247   3.198   3.797
 2299SOL    HW2 9226   2.238   3.283   3.842
 2299SOL    HW3 9227   2.322   3.157   3.839
 2299SOL    MW4 9228   2.255   3.204   3.809
 2300SOL     OW 9229   2.213   3.465   3.904
 2300SOL    HW2 9230   2.215   3.473   4.000
 2300SOL    HW3 9231   2.297   3.503   3.876
 2300SOL    MW4 9232   2.225   3.471   3.913
 2301SOL     OW 9233   2.438   3.594   3.785
 2301SOL    HW2 9234   2.519   3.546   3.801
 2301SOL    HW3 9235   2.428   3.592   3.689
 2301SOL    MW4 9236   2.447   3.587   3.774
 2302SOL     OW 9237   2.439   3.849   3.914
 2302SOL    HW2 9238   2.500   3.903   3.862
 2302SOL    HW3 9239   2.430   3.768   3.863
 2302SOL    MW4 9240   2.446   3.846   3.900
 2303SOL     OW 9241   2.215   3.982   3.799
 2303SOL    HW2 9242   2.285   3.945   3.852
 2303SOL    HW3 9243   2.244   3.970   3.709
 2303SOL    MW4 9244   2.228   3.976   3.794
 2304SOL     OW 9245   2.262   4.242   3.859
 2304SOL    HW2 9246   2.255   4.251   3.954
 2304SOL    HW3 9247   2.227   4.155   3.840
 2304SOL    MW4 9248   2.256   4.232   3.869
 2305SOL     OW 9249   2.461   4.399   3.745
 2305SOL    HW2 9250   2.388   4.349   3.781
 2305SOL    HW3 9251   2.448   4.488   3.777
 2305SOL    MW4 9252   2.450   4.404   3.754
 2306SOL     OW 9253   2.919   4.666   3.826
 2306SOL    HW2 9254   2.935   4.645   3.918
 2306SOL    HW3 9255   2.995   4.718   3.800
 2306SOL    MW4 9256   2.931   4.670   3.835
 2307SOL     OW 9257   2.669   0.138   3.783
 2307SOL    HW2 9258   2.747   0.091   3.811
 2307SOL    HW3 9259   2.667   0.126   3.688
 2307SOL    MW4 9260   2.679   0.130   3.774
 2308SOL     OW 9261   2.716   0.398   3.858
 2308SOL    HW2 9262   2.707   0.314   3.813
 2308SOL    HW3 9263   2.632   0.441   3.844
 2308SOL    MW4 9264   2.704   0.393   3.850
 2309SOL     OW 9265   2.932   0.536   3.772
 2309SOL    HW2 9266   3.012   0.484   3.783
 2309SOL    HW3 9267   2.865   0.487   3.819
 2309SOL    MW4 9268   2.934   0.523   3.780
 2310SOL     OW 9269   2.929   0.795   3.863
 2310SOL    HW2 9270   2.997   0.835   3.809
 2310SOL    HW3 9271   2.927   0.703   3.834
 2310SOL    MW4 9272   2.938   0.788   3.852
 2311SOL     OW 9273   2.662   0.902   3.796
 2311SOL    HW2 9274   2.746   0.867   3.827
 2311SOL    HW3 9275   2.597   0.839   3.827
 2311SOL    MW4 9276   2.664   0.889   3.804
 2312SOL     OW 9277   2.689   1.192   3.843
 2312SOL    HW2 9278   2.654   1.105   3.820
 2312SOL    HW3 9279   2.622   1.253   3.812
 2312SOL    MW4 9280   2.675   1.188   3.836
 2313SOL     OW 9281   2.947   1.286   3.752
 2313SOL    HW2 9282   2.945   1.379   3.772
 2313SOL    HW3 9283   2.866   1.251   3.789
 2313SOL    MW4 9284   2.936   1.294   3.760
 2314SOL     OW 9285   2.915   1.572   3.819
 2314SOL    HW2 9286   2.917   1.559   3.914
 2314SOL    HW3 9287   2.987   1.632   3.802
 2314SOL    MW4 9288   2.925   1.578   3.830
 2315SOL     OW 9289   2.668   1.628   3.700
 2315SOL    HW2 9290   2.756   1.608   3.732
 2315SOL    HW3 9291   2.678   1.637   3.605
 2315SOL    MW4 9292   2.681   1.627   3.691
 2316SOL     OW 9293   2.712   1.884   3.782
 2316SOL    HW2 9294   2.686   1.799   3.748
 2316SOL    HW3 9295   2.645   1.944   3.749
 2316SOL    MW4 9296   2.699   1.881   3.774
 2317SOL     OW 9297   2.887   2.079   3.713
 2317SOL    HW2 9298   2.895   2.135   3.790
 2317SOL    HW3 9299   2.837   2.004   3.743
 2317SOL    MW4 9300   2.882   2.077   3.727
 2318SOL     OW 9301   2.936   2.272   3.901
 2318SOL    HW2 9302   2.922   2.313   3.986
 2318SOL    HW3 9303   3.005   2.323   3.860
 2318SOL    MW4 9304   2.943   2.284   3.907
 2319SOL     OW 9305   2.756   2.402   3.741
 2319SOL    HW2 9306   2.761   2.486   3.788
 2319SOL    HW3 9307   2.804   2.341   3.797
 2319SOL    MW4 9308   2.763   2.405   3.755
 2320SOL     OW 9309   2.719   2.635   3.900
 2320SOL    HW2 9310   2.701   2.617   3.992
 2320SOL    HW3 9311   2.634   2.657   3.862
 2320SOL    MW4 9312   2.706   2.635   3.907
 2321SOL     OW 9313   2.872   2.844   3.758
 2321SOL    HW2 9314   2.885   2.921   3.813
 2321SOL    HW3 9315   2.804   2.793   3.803
 2321SOL    MW4 9316   2.865   2.847   3.771
 2322SOL     OW 9317   2.928   3.061   3.927
 2322SOL    HW2 9318   3.007   3.114   3.927
 2322SOL    HW3 9319   2.859   3.121   3.899
 2322SOL    MW4 9320   2.929   3.076   3.923
 2323SOL     OW 9321   2.744   3.196   3.780
 2323SOL    HW2 9322   2.740   3.288   3.805
 2323SOL    HW3 9323   2.656   3.163   3.795
 2323SOL    MW4 9324   2.732   3.203   3.786
 2324SOL     OW 9325   2.674   3.465   3.875
 2324SOL    HW2 9326   2.677   3.490   3.968
 2324SOL    HW3 9327   2.743   3.518   3.834
 2324SOL    MW4 9328   2.684   3.475   3.882
 2325SOL     OW 9329   2.903   3.620   3.776
 2325SOL    HW2 9330   2.987   3.578   3.796
 2325SOL    HW3 9331   2.889   3.602   3.683
 2325SOL    MW4 9332   2.912   3.612   3.766
 2326SOL     OW 9333   2.897   3.878   3.838
 2326SOL    HW2 9334   2.915   3.869   3.932
 2326SOL    HW3 9335   2.883   3.789   3.808
 2326SOL    MW4 9336   2.898   3.865   3.847
 2327SOL     OW 9337   2.665   4.015   3.756
 2327SOL    HW2 9338   2.662   4.085   3.820
 2327SOL    HW3 9339   2.744   3.965   3.778
 2327SOL    MW4 9340   2.675   4.018   3.767
 2328SOL     OW 9341   2.639   4.263   3.910
 2328SOL    HW2 9342   2.711   4.315   3.874
 2328SOL    HW3 9343   2.561   4.296   3.867
 2328SOL    MW4 9344   2.638   4.274   3.900
 2329SOL     OW 9345   2.883   4.401   3.749
 2329SOL    HW2 9346   2.966   4.358   3.769
 2329SOL    HW3 9347   2.897   4.492   3.776
 2329SOL    MW4 9348   2.896   4.407   3.755
 2330SOL     OW 9349   3.354   4.657   3.848
 2330SOL    HW2 9350   3.340   4.653   3.943
 2330SOL    HW3 9351   3.420   4.725   3.836
 2330SOL    MW4 9352   3.361   4.665   3.859
 2331SOL     OW 9353   3.155   0.130   3.753
 2331SOL    HW2 9354   3.227   0.075   3.785
 2331SOL    HW3 9355   3.160   0.121   3.657
 2331SOL    MW4 9356   3.165   0.121   3.744
 2332SOL     OW 9357   3.143   0.375   3.851
 2332SOL    HW2 9358   3.148   0.355   3.945
 2332SOL    HW3 9359   3.145   0.290   3.808
 2332SOL    MW4 9360   3.144   0.362   3.858
 2333SOL     OW 9361   3.405   0.495   3.780
 2333SOL    HW2 9362   3.489   0.476   3.823
 2333SOL    HW3 9363   3.341   0.445   3.829
 2333SOL    MW4 9364   3.408   0.486   3.792
 2334SOL     OW 9365   3.323   0.746   3.855
 2334SOL    HW2 9366   3.305   0.738   3.948
 2334SOL    HW3 9367   3.346   0.657   3.827
 2334SOL    MW4 9368   3.324   0.733   3.863
 2335SOL     OW 9369   3.136   0.923   3.752
 2335SOL    HW2 9370   3.186   0.852   3.792
 2335SOL    HW3 9371   3.144   0.909   3.658
 2335SOL    MW4 9372   3.144   0.912   3.745
 2336SOL     OW 9373   3.160   1.154   3.908
 2336SOL    HW2 9374   3.169   1.075   3.855
 2336SOL    HW3 9375   3.086   1.201   3.870
 2336SOL    MW4 9376   3.152   1.150   3.896
 2337SOL     OW 9377   3.378   1.290   3.766
 2337SOL    HW2 9378   3.302   1.243   3.802
 2337SOL    HW3 9379   3.362   1.291   3.672
 2337SOL    MW4 9380   3.366   1.284   3.758
 2338SOL     OW 9381   3.373   1.564   3.854
 2338SOL    HW2 9382   3.302   1.613   3.812
 2338SOL    HW3 9383   3.353   1.473   3.834
 2338SOL    MW4 9384   3.361   1.559   3.846
 2339SOL     OW 9385   3.168   1.705   3.753
 2339SOL    HW2 9386   3.165   1.799   3.771
 2339SOL    HW3 9387   3.152   1.699   3.658
 2339SOL    MW4 9388   3.165   1.717   3.743
 2340SOL     OW 9389   3.137   1.959   3.838
 2340SOL    HW2 9390   3.107   1.958   3.929
 2340SOL    HW3 9391   3.064   1.997   3.789
 2340SOL    MW4 9392   3.123   1.964   3.843
 2341SOL     OW 9393   3.350   2.087   3.750
 2341SOL    HW2 9394   3.273   2.055   3.797
 2341SOL    HW3 9395   3.334   2.064   3.658
 2341SOL    MW4 9396   3.338   2.080   3.744
 2342SOL     OW 9397   3.393   2.338   3.870
 2342SOL    HW2 9398   3.317   2.386   3.837
 2342SOL    HW3 9399   3.387   2.252   3.829
 2342SOL    MW4 9400   3.382   2.333   3.860
 2343SOL     OW 9401   3.128   2.421   3.781
 2343SOL    HW2 9402   3.112   2.514   3.799
 2343SOL    HW3 9403   3.132   2.416   3.686
 2343SOL    MW4 9404   3.126   2.433   3.771
 2344SOL     OW 9405   3.133   2.688   3.837
 2344SOL    HW2 9406   3.109   2.687   3.930
 2344SOL    HW3 9407   3.057   2.727   3.793
 2344SOL    MW4 9408   3.120   2.693   3.844
 2345SOL     OW 9409   3.371   2.845   3.799
 2345SOL    HW2 9410   3.291   2.798   3.819
 2345SOL    HW3 9411   3.380   2.838   3.704
 2345SOL    MW4 9412   3.362   2.838   3.789
 2346SOL     OW 9413   3.374   3.107   3.902
 2346SOL    HW2 9414   3.450   3.147   3.859
 2346SOL    HW3 9415   3.380   3.015   3.879
 2346SOL    MW4 9416   3.385   3.100   3.893
 2347SOL     OW 9417   3.143   3.204   3.789
 2347SOL    HW2 9418   3.225   3.167   3.824
 2347SOL    HW3 9419   3.148   3.188   3.695
 2347SOL    MW4 9420   3.155   3.197   3.781
 2348SOL     OW 9421   3.118   3.476   3.847
 2348SOL    HW2 9422   3.196   3.521   3.814
 2348SOL    HW3 9423   3.137   3.383   3.835
 2348SOL    MW4 9424   3.131   3.469   3.841
 2349SOL     OW 9425   3.345   3.636   3.778
 2349SOL    HW2 9426   3.335   3.728   3.799
 2349SOL    HW3 9427   3.341   3.632   3.682
 2349SOL    MW4 9428   3.343   3.647   3.768
 2350SOL     OW 9429   3.312   3.907   3.862
 2350SOL    HW2 9430   3.396   3.946   3.837
 2350SOL    HW3 9431   3.247   3.953   3.808
 2350SOL    MW4 9432   3.314   3.918   3.851
 2351SOL     OW 9433   3.090   4.035   3.715
 2351SOL    HW2 9434   3.084   4.114   3.768
 2351SOL    HW3 9435   3.025   3.975   3.753
 2351SOL    MW4 9436   3.080   4.037   3.727
 2352SOL     OW 9437   3.116   4.283   3.836
 2352SOL    HW2 9438   3.124   4.305   3.929
 2352SOL    HW3 9439   3.196   4.318   3.796
 2352SOL    MW4 9440   3.128   4.291   3.843
 2353SOL     OW 9441   3.338   4.396   3.740
 2353SOL    HW2 9442   3.413   4.357   3.784
 2353SOL    HW3 9443   3.334   4.485   3.774
 2353SOL    MW4 9444   3.347   4.403   3.750
 2354SOL     OW 9445   3.783   0.010   3.872
 2354SOL    HW2 9446   3.853   0.066   3.837
 2354SOL    HW3 9447   3.790  -0.072   3.823
 2354SOL    MW4 9448   3.793   0.007   3.861
 2355SOL     OW 9449   3.564   0.175   3.798
 2355SOL    HW2 9450   3.627   0.114   3.837
 2355SOL    HW3 9451   3.588   0.175   3.705
 2355SOL    MW4 9452   3.576   0.167   3.791
 2356SOL     OW 9453   3.648   0.422   3.905
 2356SOL    HW2 9454   3.728   0.428   3.853
 2356SOL    HW3 9455   3.616   0.333   3.889
 2356SOL    MW4 9456   3.654   0.411   3.896
 2357SOL     OW 9457   3.870   0.528   3.755
 2357SOL    HW2 9458   3.946   0.499   3.805
 2357SOL    HW3 9459   3.843   0.609   3.797
 2357SOL    MW4 9460   3.876   0.534   3.767
 2358SOL     OW 9461   3.814   0.749   3.904
 2358SOL    HW2 9462   3.888   0.799   3.870
 2358SOL    HW3 9463   3.736   0.798   3.876
 2358SOL    MW4 9464   3.813   0.762   3.896
 2359SOL     OW 9465   3.571   0.895   3.817
 2359SOL    HW2 9466   3.567   0.986   3.848
 2359SOL    HW3 9467   3.486   0.858   3.841
 2359SOL    MW4 9468   3.559   0.902   3.824
 2360SOL     OW 9469   3.607   1.183   3.919
 2360SOL    HW2 9470   3.684   1.205   3.867
 2360SOL    HW3 9471   3.539   1.242   3.887
 2360SOL    MW4 9472   3.608   1.194   3.908
 2361SOL     OW 9473   3.807   1.295   3.761
 2361SOL    HW2 9474   3.890   1.257   3.787
 2361SOL    HW3 9475   3.813   1.387   3.785
 2361SOL    MW4 9476   3.819   1.302   3.768
 2362SOL     OW 9477   3.821   1.560   3.840
 2362SOL    HW2 9478   3.834   1.541   3.933
 2362SOL    HW3 9479   3.737   1.604   3.836
 2362SOL    MW4 9480   3.812   1.563   3.852
 2363SOL     OW 9481   3.599   1.704   3.772
 2363SOL    HW2 9482   3.527   1.647   3.800
 2363SOL    HW3 9483   3.594   1.702   3.676
 2363SOL    MW4 9484   3.589   1.696   3.763
 2364SOL     OW 9485   3.570   1.971   3.861
 2364SOL    HW2 9486   3.574   1.876   3.852
 2364SOL    HW3 9487   3.488   1.996   3.818
 2364SOL    MW4 9488   3.560   1.962   3.854
 2365SOL     OW 9489   3.775   2.049   3.678
 2365SOL    HW2 9490   3.852   2.010   3.719
 2365SOL    HW3 9491   3.701   2.017   3.731
 2365SOL    MW4 9492   3.775   2.040   3.691
 2366SOL     OW 9493   3.828   2.295   3.807
 2366SOL    HW2 9494   3.747   2.346   3.800
 2366SOL    HW3 9495   3.812   2.217   3.753
 2366SOL    MW4 9496   3.815   2.291   3.799
 2367SOL     OW 9497   3.610   2.453   3.757
 2367SOL    HW2 9498   3.526   2.418   3.787
 2367SOL    HW3 9499   3.615   2.427   3.665
 2367SOL    MW4 9500   3.599   2.445   3.749
 2368SOL     OW 9501   3.612   2.696   3.876
 2368SOL    HW2 9502   3.606   2.604   3.851
 2368SOL    HW3 9503   3.529   2.734   3.847
 2368SOL    MW4 9504   3.601   2.689   3.869
 2369SOL     OW 9505   3.834   2.829   3.760
 2369SOL    HW2 9506   3.906   2.784   3.805
 2369SOL    HW3 9507   3.756   2.781   3.786
 2369SOL    MW4 9508   3.833   2.817   3.770
 2370SOL     OW 9509   3.814   3.103   3.835
 2370SOL    HW2 9510   3.731   3.139   3.804
 2370SOL    HW3 9511   3.815   3.013   3.803
 2370SOL    MW4 9512   3.804   3.096   3.827
 2371SOL     OW 9513   3.579   3.222   3.738
 2371SOL    HW2 9514   3.597   3.316   3.748
 2371SOL    HW3 9515   3.569   3.211   3.643
 2371SOL    MW4 9516   3.580   3.233   3.727
 2372SOL     OW 9517   3.587   3.484   3.841
 2372SOL    HW2 9518   3.582   3.444   3.928
 2372SOL    HW3 9519   3.504   3.530   3.831
 2372SOL    MW4 9520   3.576   3.484   3.851
 2373SOL     OW 9521   3.843   3.571   3.788
 2373SOL    HW2 9522   3.836   3.663   3.814
 2373SOL    HW3 9523   3.757   3.534   3.807
 2373SOL    MW4 9524   3.831   3.578   3.794
 2374SOL     OW 9525   3.814   3.847   3.837
 2374SOL    HW2 9526   3.811   3.865   3.931
 2374SOL    HW3 9527   3.881   3.907   3.803
 2374SOL    MW4 9528   3.822   3.858   3.845
 2375SOL     OW 9529   3.600   3.999   3.748
 2375SOL    HW2 9530   3.610   4.083   3.792
 2375SOL    HW3 9531   3.669   3.943   3.786
 2375SOL    MW4 9532   3.610   4.003   3.759
 2376SOL     OW 9533   3.579   4.268   3.847
 2376SOL    HW2 9534   3.581   4.278   3.942
 2376SOL    HW3 9535   3.645   4.330   3.815
 2376SOL    MW4 9536   3.588   4.278   3.855
 2377SOL     OW 9537   3.793   4.431   3.746
 2377SOL    HW2 9538   3.874   4.385   3.767
 2377SOL    HW3 9539   3.791   4.435   3.650
 2377SOL    MW4 9540   3.803   4.425   3.736
 2378SOL     OW 9541   4.254   4.622   3.866
 2378SOL    HW2 9542   4.265   4.632   3.960
 2378SOL    HW3 9543   4.325   4.673   3.827
 2378SOL    MW4 9544   4.265   4.630   3.873
 2379SOL     OW 9545   4.046   0.101   3.787
 2379SOL    HW2 9546   4.107   0.030   3.808
 2379SOL    HW3 9547   4.047   0.105   3.692
 2379SOL    MW4 9548   4.054   0.092   3.778
 2380SOL     OW 9549   4.065   0.386   3.883
 2380SOL    HW2 9550   4.066   0.396   3.978
 2380SOL    HW3 9551   4.052   0.292   3.868
 2380SOL    MW4 9552   4.063   0.375   3.893
 2381SOL     OW 9553   4.283   0.486   3.767
 2381SOL    HW2 9554   4.205   0.442   3.800
 2381SOL    HW3 9555   4.280   0.472   3.672
 2381SOL    MW4 9556   4.272   0.478   3.759
 2382SOL     OW 9557   4.263   0.739   3.887
 2382SOL    HW2 9558   4.192   0.792   3.850
 2382SOL    HW3 9559   4.250   0.652   3.849
 2382SOL    MW4 9560   4.252   0.734   3.877
 2383SOL     OW 9561   4.046   0.884   3.792
 2383SOL    HW2 9562   4.038   0.976   3.818
 2383SOL    HW3 9563   4.036   0.885   3.697
 2383SOL    MW4 9564   4.044   0.896   3.783
 2384SOL     OW 9565   4.046   1.151   3.861
 2384SOL    HW2 9566   4.036   1.130   3.954
 2384SOL    HW3 9567   4.138   1.175   3.851
 2384SOL    MW4 9568   4.057   1.152   3.872
 2385SOL     OW 9569   4.302   1.247   3.813
 2385SOL    HW2 9570   4.291   1.335   3.848
 2385SOL    HW3 9571   4.304   1.259   3.718
 2385SOL    MW4 9572   4.301   1.260   3.805
 2386SOL     OW 9573   4.257   1.505   3.889
 2386SOL    HW2 9574   4.183   1.559   3.863
 2386SOL    HW3 9575   4.333   1.548   3.850
 2386SOL    MW4 9576   4.258   1.518   3.880
 2387SOL     OW 9577   4.050   1.667   3.763
 2387SOL    HW2 9578   4.049   1.760   3.784
 2387SOL    HW3 9579   3.965   1.635   3.791
 2387SOL    MW4 9580   4.039   1.675   3.769
 2388SOL     OW 9581   4.004   1.935   3.802
 2388SOL    HW2 9582   3.995   1.933   3.897
 2388SOL    HW3 9583   4.084   1.985   3.787
 2388SOL    MW4 9584   4.013   1.941   3.813
 2389SOL     OW 9585   4.257   2.031   3.735
 2389SOL    HW2 9586   4.273   2.124   3.753
 2389SOL    HW3 9587   4.274   2.021   3.642
 2389SOL    MW4 9588   4.261   2.042   3.725
 2390SOL     OW 9589   4.276   2.307   3.788
 2390SOL    HW2 9590   4.260   2.307   3.882
 2390SOL    HW3 9591   4.197   2.344   3.750
 2390SOL    MW4 9592   4.264   2.312   3.795
 2391SOL     OW 9593   4.039   2.431   3.694
 2391SOL    HW2 9594   4.048   2.516   3.739
 2391SOL    HW3 9595   3.963   2.390   3.735
 2391SOL    MW4 9596   4.030   2.437   3.705
 2392SOL     OW 9597   4.056   2.708   3.861
 2392SOL    HW2 9598   4.053   2.705   3.957
 2392SOL    HW3 9599   4.139   2.751   3.841
 2392SOL    MW4 9600   4.067   2.713   3.871
 2393SOL     OW 9601   4.287   2.831   3.787
 2393SOL    HW2 9602   4.281   2.912   3.838
 2393SOL    HW3 9603   4.357   2.782   3.828
 2393SOL    MW4 9604   4.295   2.835   3.799
 2394SOL     OW 9605   4.270   3.079   3.895
 2394SOL    HW2 9606   4.201   3.126   3.849
 2394SOL    HW3 9607   4.351   3.124   3.870
 2394SOL    MW4 9608   4.271   3.091   3.886
 2395SOL     OW 9609   4.048   3.210   3.767
 2395SOL    HW2 9610   3.973   3.158   3.796
 2395SOL    HW3 9611   4.042   3.209   3.671
 2395SOL    MW4 9612   4.037   3.203   3.758
 2396SOL     OW 9613   4.071   3.459   3.882
 2396SOL    HW2 9614   4.060   3.369   3.853
 2396SOL    HW3 9615   3.993   3.504   3.850
 2396SOL    MW4 9616   4.059   3.453   3.874
 2397SOL     OW 9617   4.246   3.640   3.773
 2397SOL    HW2 9618   4.181   3.571   3.792
 2397SOL    HW3 9619   4.326   3.610   3.817
 2397SOL    MW4 9620   4.248   3.627   3.781
 2398SOL     OW 9621   4.251   3.897   3.874
 2398SOL    HW2 9622   4.169   3.945   3.864
 2398SOL    HW3 9623   4.233   3.810   3.838
 2398SOL    MW4 9624   4.238   3.892   3.868
 2399SOL     OW 9625   4.010   4.023   3.750
 2399SOL    HW2 9626   3.989   4.113   3.777
 2399SOL    HW3 9627   4.016   4.028   3.655
 2399SOL    MW4 9628   4.008   4.036   3.741
 2400SOL     OW 9629   4.007   4.288   3.838
 2400SOL    HW2 9630   4.023   4.282   3.932
 2400SOL    HW3 9631   4.084   4.332   3.803
 2400SOL    MW4 9632   4.019   4.293   3.846
 2401SOL     OW 9633   4.262   4.366   3.762
 2401SOL    HW2 9634   4.250   4.458   3.786
 2401SOL    HW3 9635   4.341   4.339   3.809
 2401SOL    MW4 9636   4.271   4.374   3.771
 2402SOL     OW 9637   0.193   0.003   4.173
 2402SOL    HW2 9638   0.281   0.042   4.179
 2402SOL    HW3 9639   0.206  -0.089   4.198
 2402SOL    MW4 9640   0.207  -0.004   4.177
 2403SOL     OW 9641   4.455   0.092   4.276
 2403SOL    HW2 9642   4.462   0.067   4.368
 2403SOL    HW3 9643   4.537   0.061   4.237
 2403SOL    MW4 9644   4.467   0.085   4.283
 2404SOL     OW 9645   0.037   0.360   4.169
 2404SOL    HW2 9646   0.010   0.278   4.210
 2404SOL    HW3 9647   0.014   0.348   4.076
 2404SOL    MW4 9648   0.030   0.347   4.162
 2405SOL     OW 9649   0.247   0.494   4.268
 2405SOL    HW2 9650   0.308   0.438   4.220
 2405SOL    HW3 9651   0.162   0.450   4.258
 2405SOL    MW4 9652   0.244   0.481   4.260
 2406SOL     OW 9653   0.213   0.742   4.151
 2406SOL    HW2 9654   0.145   0.796   4.191
 2406SOL    HW3 9655   0.200   0.655   4.190
 2406SOL    MW4 9656   0.202   0.737   4.162
 2407SOL     OW 9657   0.021   0.902   4.271
 2407SOL    HW2 9658  -0.061   0.874   4.229
 2407SOL    HW3 9659   0.035   0.991   4.237
 2407SOL    MW4 9660   0.012   0.910   4.261
 2408SOL     OW 9661   0.068   1.155   4.181
 2408SOL    HW2 9662   0.141   1.215   4.189
 2408SOL    HW3 9663   0.065   1.133   4.087
 2408SOL    MW4 9664   0.077   1.160   4.170
 2409SOL     OW 9665   0.296   1.340   4.227
 2409SOL    HW2 9666   0.279   1.317   4.318
 2409SOL    HW3 9667   0.369   1.283   4.202
 2409SOL    MW4 9668   0.303   1.330   4.236
 2410SOL     OW 9669   0.475   1.717   4.753
 2410SOL    HW2 9670   0.435   1.804   4.751
 2410SOL    HW3 9671   0.434   1.670   4.680
 2410SOL    MW4 9672   0.464   1.722   4.743
 2411SOL     OW 9673   4.463   1.650   4.241
 2411SOL    HW2 9674   4.399   1.593   4.198
 2411SOL    HW3 9675   4.446   1.737   4.204
 2411SOL    MW4 9676   4.452   1.654   4.230
 2412SOL     OW 9677   0.176   2.055   4.209
 2412SOL    HW2 9678   0.157   2.079   4.299
 2412SOL    HW3 9679   0.266   2.023   4.211
 2412SOL    MW4 9680   0.185   2.054   4.221
 2413SOL     OW 9681   0.449   1.367   4.649
 2413SOL    HW2 9682   0.420   1.449   4.609
 2413SOL    HW3 9683   0.447   1.383   4.743
 2413SOL    MW4 9684   0.445   1.380   4.656
 2414SOL     OW 9685   0.205   2.319   4.113
 2414SOL    HW2 9686   0.274   2.347   4.174
 2414SOL    HW3 9687   0.198   2.225   4.126
 2414SOL    MW4 9688   0.213   2.311   4.122
 2415SOL     OW 9689   4.442   2.436   4.176
 2415SOL    HW2 9690   4.373   2.382   4.136
 2415SOL    HW3 9691   4.524   2.390   4.155
 2415SOL    MW4 9692   4.444   2.423   4.168
 2416SOL     OW 9693   4.445   2.704   4.133
 2416SOL    HW2 9694   4.527   2.737   4.169
 2416SOL    HW3 9695   4.440   2.613   4.162
 2416SOL    MW4 9696   4.455   2.697   4.141
 2417SOL     OW 9697   0.207   2.792   4.238
 2417SOL    HW2 9698   0.296   2.761   4.222
 2417SOL    HW3 9699   0.208   2.883   4.209
 2417SOL    MW4 9700   0.219   2.800   4.232
 2418SOL     OW 9701   0.216   3.049   4.141
 2418SOL    HW2 9702   0.292   3.096   4.175
 2418SOL    HW3 9703   0.141   3.098   4.174
 2418SOL    MW4 9704   0.216   3.062   4.150
 2419SOL     OW 9705   0.011   3.192   4.253
 2419SOL    HW2 9706  -0.079   3.159   4.249
 2419SOL    HW3 9707   0.004   3.284   4.228
 2419SOL    MW4 9708  -0.002   3.200   4.249
 2420SOL     OW 9709   0.001   3.462   4.180
 2420SOL    HW2 9710  -0.077   3.493   4.226
 2420SOL    HW3 9711  -0.018   3.480   4.088
 2420SOL    MW4 9712  -0.012   3.469   4.174
 2421SOL     OW 9713   0.236   3.580   4.280
 2421SOL    HW2 9714   0.316   3.531   4.263
 2421SOL    HW3 9715   0.165   3.522   4.250
 2421SOL    MW4 9716   0.237   3.566   4.274
 2422SOL     OW 9717   0.089   3.968   4.121
 2422SOL    HW2 9718  -0.004   3.957   4.139
 2422SOL    HW3 9719   0.133   3.935   4.199
 2422SOL    MW4 9720   0.083   3.962   4.134
 2423SOL     OW 9721   0.067   3.879   4.531
 2423SOL    HW2 9722   0.092   3.795   4.569
 2423SOL    HW3 9723  -0.018   3.862   4.490
 2423SOL    MW4 9724   0.059   3.865   4.530
 2424SOL     OW 9725   0.008   4.250   4.152
 2424SOL    HW2 9726   0.033   4.158   4.165
 2424SOL    HW3 9727   0.006   4.260   4.057
 2424SOL    MW4 9728   0.011   4.239   4.141
 2425SOL     OW 9729   0.229   4.390   4.261
 2425SOL    HW2 9730   0.216   4.391   4.356
 2425SOL    HW3 9731   0.150   4.349   4.226
 2425SOL    MW4 9732   0.217   4.385   4.269
 2426SOL     OW 9733   0.696   4.605   4.093
 2426SOL    HW2 9734   0.612   4.646   4.114
 2426SOL    HW3 9735   0.714   4.633   4.003
 2426SOL    MW4 9736   0.687   4.614   4.084
 2427SOL     OW 9737   0.467   0.070   4.177
 2427SOL    HW2 9738   0.461   0.049   4.270
 2427SOL    HW3 9739   0.473   0.166   4.175
 2427SOL    MW4 9740   0.467   0.080   4.189
 2428SOL     OW 9741   0.455   0.353   4.119
 2428SOL    HW2 9742   0.537   0.393   4.148
 2428SOL    HW3 9743   0.453   0.367   4.025
 2428SOL    MW4 9744   0.466   0.360   4.110
 2429SOL     OW 9745   0.692   0.459   4.219
 2429SOL    HW2 9746   0.777   0.424   4.193
 2429SOL    HW3 9747   0.690   0.547   4.182
 2429SOL    MW4 9748   0.703   0.466   4.211
 2430SOL     OW 9749   0.697   0.743   4.172
 2430SOL    HW2 9750   0.622   0.786   4.212
 2430SOL    HW3 9751   0.696   0.772   4.080
 2430SOL    MW4 9752   0.687   0.753   4.165
 2431SOL     OW 9753   0.467   0.852   4.292
 2431SOL    HW2 9754   0.460   0.941   4.258
 2431SOL    HW3 9755   0.407   0.801   4.237
 2431SOL    MW4 9756   0.458   0.857   4.280
 2432SOL     OW 9757   0.506   1.139   4.202
 2432SOL    HW2 9758   0.586   1.187   4.220
 2432SOL    HW3 9759   0.492   1.150   4.108
 2432SOL    MW4 9760   0.514   1.147   4.192
 2433SOL     OW 9761   0.737   1.296   4.269
 2433SOL    HW2 9762   0.763   1.313   4.359
 2433SOL    HW3 9763   0.719   1.383   4.233
 2433SOL    MW4 9764   0.738   1.310   4.276
 2434SOL     OW 9765   0.675   1.539   4.150
 2434SOL    HW2 9766   0.743   1.598   4.182
 2434SOL    HW3 9767   0.677   1.550   4.055
 2434SOL    MW4 9768   0.684   1.548   4.142
 2435SOL     OW 9769   0.198   1.556   4.110
 2435SOL    HW2 9770   0.225   1.478   4.159
 2435SOL    HW3 9771   0.124   1.592   4.160
 2435SOL    MW4 9772   0.192   1.551   4.123
 2436SOL     OW 9773   0.416   1.923   4.183
 2436SOL    HW2 9774   0.406   1.833   4.214
 2436SOL    HW3 9775   0.439   1.913   4.091
 2436SOL    MW4 9776   0.418   1.910   4.175
 2437SOL     OW 9777   0.648   2.068   4.283
 2437SOL    HW2 9778   0.650   2.085   4.378
 2437SOL    HW3 9779   0.569   2.015   4.271
 2437SOL    MW4 9780   0.638   2.063   4.294
 2438SOL     OW 9781   0.644   2.306   4.152
 2438SOL    HW2 9782   0.643   2.217   4.185
 2438SOL    HW3 9783   0.654   2.297   4.057
 2438SOL    MW4 9784   0.646   2.293   4.144
 2439SOL     OW 9785   0.418   2.421   4.261
 2439SOL    HW2 9786   0.418   2.513   4.234
 2439SOL    HW3 9787   0.498   2.385   4.225
 2439SOL    MW4 9788   0.428   2.429   4.253
 2440SOL     OW 9789   0.455   2.701   4.175
 2440SOL    HW2 9790   0.539   2.730   4.209
 2440SOL    HW3 9791   0.470   2.690   4.081
 2440SOL    MW4 9792   0.468   2.703   4.167
 2441SOL     OW 9793   0.700   2.805   4.247
 2441SOL    HW2 9794   0.712   2.809   4.342
 2441SOL    HW3 9795   0.694   2.896   4.220
 2441SOL    MW4 9796   0.701   2.817   4.256
 2442SOL     OW 9797   0.665   3.077   4.142
 2442SOL    HW2 9798   0.733   3.135   4.176
 2442SOL    HW3 9799   0.587   3.100   4.193
 2442SOL    MW4 9800   0.663   3.088   4.153
 2443SOL     OW 9801   0.453   3.180   4.286
 2443SOL    HW2 9802   0.462   3.203   4.378
 2443SOL    HW3 9803   0.460   3.264   4.239
 2443SOL    MW4 9804   0.455   3.194   4.292
 2444SOL     OW 9805   0.457   3.441   4.193
 2444SOL    HW2 9806   0.522   3.502   4.228
 2444SOL    HW3 9807   0.458   3.458   4.098
 2444SOL    MW4 9808   0.466   3.451   4.185
 2445SOL     OW 9809   0.711   3.614   4.277
 2445SOL    HW2 9810   0.707   3.570   4.361
 2445SOL    HW3 9811   0.794   3.585   4.239
 2445SOL    MW4 9812   0.722   3.604   4.283
 2446SOL     OW 9813   0.693   3.857   4.165
 2446SOL    HW2 9814   0.632   3.912   4.215
 2446SOL    HW3 9815   0.693   3.774   4.212
 2446SOL    MW4 9816   0.685   3.853   4.178
 2447SOL     OW 9817   0.509   3.981   4.319
 2447SOL    HW2 9818   0.505   4.076   4.308
 2447SOL    HW3 9819   0.422   3.951   4.295
 2447SOL    MW4 9820   0.497   3.990   4.315
 2448SOL     OW 9821   0.458   4.246   4.201
 2448SOL    HW2 9822   0.388   4.310   4.214
 2448SOL    HW3 9823   0.462   4.234   4.106
 2448SOL    MW4 9824   0.449   4.253   4.190
 2449SOL     OW 9825   0.722   4.364   4.243
 2449SOL    HW2 9826   0.634   4.327   4.232
 2449SOL    HW3 9827   0.726   4.435   4.179
 2449SOL    MW4 9828   0.711   4.368   4.233
 2450SOL     OW 9829   1.101   4.650   4.147
 2450SOL    HW2 9830   1.101   4.565   4.192
 2450SOL    HW3 9831   1.098   4.628   4.054
 2450SOL    MW4 9832   1.100   4.636   4.141
 2451SOL     OW 9833   0.867   0.097   4.235
 2451SOL    HW2 9834   0.944   0.062   4.191
 2451SOL    HW3 9835   0.794   0.051   4.194
 2451SOL    MW4 9836   0.867   0.087   4.224
 2452SOL     OW 9837   0.909   0.352   4.114
 2452SOL    HW2 9838   0.993   0.392   4.137
 2452SOL    HW3 9839   0.910   0.267   4.159
 2452SOL    MW4 9840   0.920   0.346   4.123
 2453SOL     OW 9841   1.126   0.505   4.201
 2453SOL    HW2 9842   1.109   0.497   4.295
 2453SOL    HW3 9843   1.200   0.447   4.186
 2453SOL    MW4 9844   1.133   0.496   4.212
 2454SOL     OW 9845   1.089   0.772   4.114
 2454SOL    HW2 9846   1.163   0.816   4.155
 2454SOL    HW3 9847   1.097   0.681   4.143
 2454SOL    MW4 9848   1.100   0.766   4.123
 2455SOL     OW 9849   0.920   0.889   4.304
 2455SOL    HW2 9850   0.987   0.854   4.246
 2455SOL    HW3 9851   0.840   0.843   4.280
 2455SOL    MW4 9852   0.918   0.878   4.293
 2456SOL     OW 9853   0.922   1.124   4.152
 2456SOL    HW2 9854   0.906   1.037   4.189
 2456SOL    HW3 9855   0.858   1.180   4.195
 2456SOL    MW4 9856   0.911   1.120   4.162
 2457SOL     OW 9857   1.162   1.271   4.196
 2457SOL    HW2 9858   1.171   1.276   4.291
 2457SOL    HW3 9859   1.082   1.220   4.183
 2457SOL    MW4 9860   1.152   1.265   4.207
 2458SOL     OW 9861   1.107   1.566   4.167
 2458SOL    HW2 9862   1.025   1.610   4.190
 2458SOL    HW3 9863   1.094   1.475   4.195
 2458SOL    MW4 9864   1.094   1.560   4.174
 2459SOL     OW 9865   0.885   1.701   4.252
 2459SOL    HW2 9866   0.866   1.681   4.344
 2459SOL    HW3 9867   0.895   1.796   4.249
 2459SOL    MW4 9868   0.884   1.711   4.264
 2460SOL     OW 9869   0.902   1.989   4.190
 2460SOL    HW2 9870   0.823   2.038   4.213
 2460SOL    HW3 9871   0.888   1.964   4.098
 2460SOL    MW4 9872   0.889   1.992   4.181
 2461SOL     OW 9873   1.157   2.074   4.259
 2461SOL    HW2 9874   1.174   2.050   4.350
 2461SOL    HW3 9875   1.072   2.035   4.240
 2461SOL    MW4 9876   1.148   2.066   4.269
 2462SOL     OW 9877   1.088   2.335   4.148
 2462SOL    HW2 9878   1.154   2.398   4.177
 2462SOL    HW3 9879   1.115   2.252   4.186
 2462SOL    MW4 9880   1.100   2.332   4.157
 2463SOL     OW 9881   0.866   2.435   4.304
 2463SOL    HW2 9882   0.939   2.397   4.255
 2463SOL    HW3 9883   0.788   2.403   4.258
 2463SOL    MW4 9884   0.865   2.426   4.291
 2464SOL     OW 9885   0.936   2.696   4.191
 2464SOL    HW2 9886   0.927   2.605   4.218
 2464SOL    HW3 9887   0.852   2.736   4.214
 2464SOL    MW4 9888   0.924   2.689   4.197
 2465SOL     OW 9889   1.132   2.873   4.274
 2465SOL    HW2 9890   1.118   2.954   4.226
 2465SOL    HW3 9891   1.057   2.818   4.252
 2465SOL    MW4 9892   1.120   2.876   4.265
 2466SOL     OW 9893   1.066   3.097   4.130
 2466SOL    HW2 9894   1.136   3.160   4.146
 2466SOL    HW3 9895   1.079   3.070   4.039
 2466SOL    MW4 9896   1.077   3.102   4.120
 2467SOL     OW 9897   0.869   3.274   4.212
 2467SOL    HW2 9898   0.881   3.244   4.302
 2467SOL    HW3 9899   0.929   3.219   4.161
 2467SOL    MW4 9900   0.879   3.263   4.217
 2468SOL     OW 9901   0.944   3.541   4.130
 2468SOL    HW2 9902   0.912   3.453   4.148
 2468SOL    HW3 9903   0.939   3.549   4.035
 2468SOL    MW4 9904   0.939   3.531   4.120
 2469SOL     OW 9905   1.049   3.670   4.408
 2469SOL    HW2 9906   1.002   3.750   4.383
 2469SOL    HW3 9907   1.044   3.614   4.330
 2469SOL    MW4 9908   1.042   3.674   4.394
 2470SOL     OW 9909   1.158   3.796   4.095
 2470SOL    HW2 9910   1.217   3.872   4.093
 2470SOL    HW3 9911   1.088   3.821   4.155
 2470SOL    MW4 9912   1.157   3.809   4.103
 2471SOL     OW 9913   0.944   3.900   4.281
 2471SOL    HW2 9914   0.943   3.988   4.320
 2471SOL    HW3 9915   0.859   3.893   4.237
 2471SOL    MW4 9916   0.932   3.911   4.280
 2472SOL     OW 9917   1.005   4.253   4.045
 2472SOL    HW2 9918   1.100   4.263   4.051
 2472SOL    HW3 9919   0.979   4.214   4.129
 2472SOL    MW4 9920   1.014   4.249   4.057
 2473SOL     OW 9921   1.149   4.398   4.280
 2473SOL    HW2 9922   1.201   4.434   4.352
 2473SOL    HW3 9923   1.214   4.366   4.218
 2473SOL    MW4 9924   1.164   4.399   4.281
 2474SOL     OW 9925   1.578   0.009   4.151
 2474SOL    HW2 9926   1.658   0.046   4.186
 2474SOL    HW3 9927   1.508   0.057   4.195
 2474SOL    MW4 9928   1.579   0.020   4.161
 2475SOL     OW 9929   1.330   0.103   4.249
 2475SOL    HW2 9930   1.320   0.109   4.344
 2475SOL    HW3 9931   1.249   0.063   4.218
 2475SOL    MW4 9932   1.318   0.099   4.257
 2476SOL     OW 9933   1.344   0.358   4.125
 2476SOL    HW2 9934   1.419   0.399   4.167
 2476SOL    HW3 9935   1.329   0.277   4.174
 2476SOL    MW4 9936   1.352   0.353   4.137
 2477SOL     OW 9937   1.537   0.513   4.236
 2477SOL    HW2 9938   1.548   0.503   4.331
 2477SOL    HW3 9939   1.538   0.608   4.222
 2477SOL    MW4 9940   1.538   0.524   4.247
 2478SOL     OW 9941   1.559   0.777   4.158
 2478SOL    HW2 9942   1.626   0.836   4.193
 2478SOL    HW3 9943   1.579   0.770   4.065
 2478SOL    MW4 9944   1.571   0.784   4.150
 2479SOL     OW 9945   1.312   0.885   4.228
 2479SOL    HW2 9946   1.324   0.968   4.183
 2479SOL    HW3 9947   1.395   0.838   4.215
 2479SOL    MW4 9948   1.324   0.889   4.220
 2480SOL     OW 9949   1.393   1.138   4.119
 2480SOL    HW2 9950   1.308   1.176   4.142
 2480SOL    HW3 9951   1.394   1.137   4.024
 2480SOL    MW4 9952   1.382   1.143   4.110
 2481SOL     OW 9953   1.607   1.290   4.247
 2481SOL    HW2 9954   1.589   1.298   4.340
 2481SOL    HW3 9955   1.541   1.228   4.215
 2481SOL    MW4 9956   1.596   1.283   4.255
 2482SOL     OW 9957   1.564   1.542   4.147
 2482SOL    HW2 9958   1.482   1.572   4.184
 2482SOL    HW3 9959   1.575   1.453   4.180
 2482SOL    MW4 9960   1.555   1.534   4.156
 2483SOL     OW 9961   1.324   1.675   4.278
 2483SOL    HW2 9962   1.347   1.759   4.240
 2483SOL    HW3 9963   1.241   1.651   4.235
 2483SOL    MW4 9964   1.316   1.683   4.267
 2484SOL     OW 9965   1.377   1.925   4.166
 2484SOL    HW2 9966   1.442   1.995   4.173
 2484SOL    HW3 9967   1.293   1.969   4.168
 2484SOL    MW4 9968   1.375   1.940   4.168
 2485SOL     OW 9969   1.588   2.086   4.245
 2485SOL    HW2 9970   1.661   2.056   4.192
 2485SOL    HW3 9971   1.577   2.178   4.221
 2485SOL    MW4 9972   1.596   2.094   4.235
 2486SOL     OW 9973   1.542   2.354   4.179
 2486SOL    HW2 9974   1.603   2.414   4.220
 2486SOL    HW3 9975   1.563   2.359   4.085
 2486SOL    MW4 9976   1.553   2.362   4.172
 2487SOL     OW 9977   1.581   2.877   4.202
 2487SOL    HW2 9978   1.600   2.865   4.295
 2487SOL    HW3 9979   1.636   2.812   4.158
 2487SOL    MW4 9980   1.590   2.867   4.208
 2488SOL     OW 9981   1.348   2.751   4.166
 2488SOL    HW2 9982   1.424   2.808   4.182
 2488SOL    HW3 9983   1.276   2.794   4.212
 2488SOL    MW4 9984   1.349   2.764   4.174
 2489SOL     OW 9985   1.623   2.341   4.558
 2489SOL    HW2 9986   1.612   2.399   4.634
 2489SOL    HW3 9987   1.708   2.299   4.572
 2489SOL    MW4 9988   1.633   2.343   4.570
 2490SOL     OW 9989   1.523   3.143   4.158
 2490SOL    HW2 9990   1.562   3.186   4.234
 2490SOL    HW3 9991   1.540   3.050   4.171
 2490SOL    MW4 9992   1.531   3.136   4.170
 2491SOL     OW 9993   1.263   3.252   4.224
 2491SOL    HW2 9994   1.343   3.205   4.200
 2491SOL    HW3 9995   1.269   3.336   4.178
 2491SOL    MW4 9996   1.275   3.257   4.215
 2492SOL     OW 9997   1.278   3.512   4.090
 2492SOL    HW2 9998   1.239   3.598   4.106
 2492SOL    HW3 9999   1.285   3.506   3.994
 2492SOL    MW410000   1.274   3.522   4.079
 2493SOL     OW10001   1.482   3.628   4.254
 2493SOL    HW210002   1.435   3.652   4.334
 2493SOL    HW310003   1.419   3.575   4.204
 2493SOL    MW410004   1.467   3.624   4.258
 2494SOL     OW10005   1.549   3.851   4.098
 2494SOL    HW210006   1.470   3.906   4.102
 2494SOL    HW310007   1.533   3.782   4.161
 2494SOL    MW410008   1.536   3.849   4.107
 2495SOL     OW10009   1.337   4.013   4.138
 2495SOL    HW210010   1.370   4.014   4.228
 2495SOL    HW310011   1.328   4.106   4.115
 2495SOL    MW410012   1.340   4.025   4.147
 2496SOL     OW10013   1.326   4.283   4.086
 2496SOL    HW210014   1.399   4.326   4.132
 2496SOL    HW310015   1.349   4.291   3.993
 2496SOL    MW410016   1.339   4.290   4.080
 2497SOL     OW10017   1.555   4.413   4.228
 2497SOL    HW210018   1.565   4.496   4.182
 2497SOL    HW310019   1.621   4.356   4.190
 2497SOL    MW410020   1.565   4.416   4.217
 2498SOL     OW10021   2.048   4.648   4.199
 2498SOL    HW210022   1.977   4.700   4.237
 2498SOL    HW310023   2.033   4.653   4.104
 2498SOL    MW410024   2.036   4.655   4.191
 2499SOL     OW10025   1.804   0.110   4.231
 2499SOL    HW210026   1.788   0.102   4.325
 2499SOL    HW310027   1.778   0.199   4.210
 2499SOL    MW410028   1.798   0.120   4.241
 2500SOL     OW10029   1.756   0.372   4.133
 2500SOL    HW210030   1.829   0.417   4.176
 2500SOL    HW310031   1.678   0.418   4.165
 2500SOL    MW410032   1.755   0.384   4.143
 2501SOL     OW10033   1.985   0.487   4.231
 2501SOL    HW210034   1.976   0.466   4.325
 2501SOL    HW310035   2.066   0.444   4.205
 2501SOL    MW410036   1.994   0.478   4.240
 2502SOL     OW10037   2.014   0.754   4.066
 2502SOL    HW210038   2.062   0.814   4.123
 2502SOL    HW310039   2.002   0.675   4.118
 2502SOL    MW410040   2.019   0.751   4.080
 2503SOL     OW10041   1.801   0.888   4.223
 2503SOL    HW210042   1.805   0.981   4.202
 2503SOL    HW310043   1.862   0.847   4.162
 2503SOL    MW410044   1.809   0.895   4.212
 2504SOL     OW10045   1.829   1.148   4.156
 2504SOL    HW210046   1.901   1.185   4.207
 2504SOL    HW310047   1.750   1.188   4.193
 2504SOL    MW410048   1.828   1.158   4.168
 2505SOL     OW10049   2.065   1.288   4.260
 2505SOL    HW210050   2.135   1.247   4.209
 2505SOL    HW310051   2.057   1.376   4.224
 2505SOL    MW410052   2.073   1.294   4.248
 2506SOL     OW10053   2.011   1.543   4.167
 2506SOL    HW210054   2.093   1.591   4.183
 2506SOL    HW310055   1.998   1.551   4.072
 2506SOL    MW410056   2.020   1.551   4.156
 2507SOL     OW10057   1.785   1.687   4.261
 2507SOL    HW210058   1.863   1.643   4.229
 2507SOL    HW310059   1.712   1.639   4.223
 2507SOL    MW410060   1.786   1.675   4.252
 2508SOL     OW10061   1.837   1.951   4.128
 2508SOL    HW210062   1.810   1.875   4.180
 2508SOL    HW310063   1.912   1.986   4.176
 2508SOL    MW410064   1.844   1.946   4.141
 2509SOL     OW10065   1.732   2.520   4.329
 2509SOL    HW210066   1.731   2.459   4.403
 2509SOL    HW310067   1.824   2.543   4.317
 2509SOL    MW410068   1.744   2.515   4.337
 2510SOL     OW10069   2.429   2.407   4.070
 2510SOL    HW210070   2.443   2.358   3.989
 2510SOL    HW310071   2.410   2.340   4.135
 2510SOL    MW410072   2.429   2.392   4.068
 2511SOL     OW10073   1.661   2.989   4.543
 2511SOL    HW210074   1.637   2.899   4.523
 2511SOL    HW310075   1.735   3.008   4.485
 2511SOL    MW410076   1.668   2.980   4.533
 2512SOL     OW10077   1.796   2.755   4.088
 2512SOL    HW210078   1.855   2.717   4.153
 2512SOL    HW310079   1.825   2.846   4.080
 2512SOL    MW410080   1.808   2.762   4.095
 2513SOL     OW10081   1.873   3.086   4.365
 2513SOL    HW210082   1.960   3.055   4.389
 2513SOL    HW310083   1.867   3.070   4.270
 2513SOL    MW410084   1.884   3.080   4.355
 2514SOL     OW10085   2.194   2.931   4.114
 2514SOL    HW210086   2.256   3.001   4.132
 2514SOL    HW310087   2.185   2.885   4.197
 2514SOL    MW410088   2.201   2.935   4.127
 2515SOL     OW10089   1.645   3.256   4.365
 2515SOL    HW210090   1.683   3.328   4.316
 2515SOL    HW310091   1.720   3.206   4.396
 2515SOL    MW410092   1.660   3.259   4.363
 2516SOL     OW10093   1.730   3.459   4.195
 2516SOL    HW210094   1.654   3.516   4.208
 2516SOL    HW310095   1.736   3.450   4.100
 2516SOL    MW410096   1.720   3.466   4.184
 2517SOL     OW10097   1.997   3.608   4.260
 2517SOL    HW210098   1.974   3.697   4.234
 2517SOL    HW310099   1.915   3.559   4.252
 2517SOL    MW410100   1.983   3.613   4.255
 2518SOL     OW10101   1.959   3.872   4.161
 2518SOL    HW210102   1.876   3.911   4.190
 2518SOL    HW310103   1.950   3.864   4.066
 2518SOL    MW410104   1.947   3.876   4.153
 2519SOL     OW10105   1.744   4.001   4.242
 2519SOL    HW210106   1.747   4.085   4.197
 2519SOL    HW310107   1.673   3.954   4.199
 2519SOL    MW410108   1.735   4.006   4.230
 2520SOL     OW10109   1.752   4.256   4.127
 2520SOL    HW210110   1.823   4.311   4.158
 2520SOL    HW310111   1.753   4.267   4.032
 2520SOL    MW410112   1.761   4.264   4.119
 2521SOL     OW10113   1.983   4.376   4.263
 2521SOL    HW210114   1.962   4.355   4.354
 2521SOL    HW310115   2.012   4.467   4.265
 2521SOL    MW410116   1.984   4.385   4.275
 2522SOL     OW10117   2.451   4.628   4.146
 2522SOL    HW210118   2.538   4.668   4.157
 2522SOL    HW310119   2.462   4.538   4.178
 2522SOL    MW410120   2.464   4.622   4.152
 2523SOL     OW10121   2.265   0.127   4.266
 2523SOL    HW210122   2.340   0.090   4.220
 2523SOL    HW310123   2.190   0.076   4.235
 2523SOL    MW410124   2.265   0.116   4.256
 2524SOL     OW10125   2.221   0.376   4.145
 2524SOL    HW210126   2.234   0.296   4.196
 2524SOL    HW310127   2.256   0.356   4.058
 2524SOL    MW410128   2.227   0.363   4.140
 2525SOL     OW10129   2.401   0.565   4.268
 2525SOL    HW210130   2.369   0.567   4.358
 2525SOL    HW310131   2.346   0.498   4.226
 2525SOL    MW410132   2.389   0.556   4.274
 2526SOL     OW10133   2.448   0.800   4.124
 2526SOL    HW210134   2.449   0.714   4.167
 2526SOL    HW310135   2.443   0.779   4.031
 2526SOL    MW410136   2.447   0.786   4.117
 2527SOL     OW10137   2.191   0.901   4.198
 2527SOL    HW210138   2.183   0.911   4.293
 2527SOL    HW310139   2.278   0.864   4.185
 2527SOL    MW410140   2.202   0.898   4.209
 2528SOL     OW10141   2.248   1.166   4.105
 2528SOL    HW210142   2.323   1.195   4.157
 2528SOL    HW310143   2.235   1.075   4.130
 2528SOL    MW410144   2.256   1.158   4.115
 2529SOL     OW10145   2.461   1.293   4.204
 2529SOL    HW210146   2.447   1.285   4.298
 2529SOL    HW310147   2.552   1.268   4.190
 2529SOL    MW410148   2.471   1.289   4.214
 2530SOL     OW10149   2.432   1.552   4.125
 2530SOL    HW210150   2.447   1.463   4.156
 2530SOL    HW310151   2.440   1.546   4.030
 2530SOL    MW410152   2.435   1.539   4.117
 2531SOL     OW10153   2.232   1.696   4.233
 2531SOL    HW210154   2.299   1.637   4.197
 2531SOL    HW310155   2.248   1.780   4.190
 2531SOL    MW410156   2.243   1.699   4.222
 2532SOL     OW10157   2.321   1.941   4.099
 2532SOL    HW210158   2.415   1.927   4.091
 2532SOL    HW310159   2.314   2.025   4.145
 2532SOL    MW410160   2.332   1.951   4.104
 2533SOL     OW10161   2.327   2.193   4.229
 2533SOL    HW210162   2.240   2.220   4.259
 2533SOL    HW310163   2.379   2.187   4.309
 2533SOL    MW410164   2.322   2.196   4.244
 2534SOL     OW10165   2.674   2.500   4.166
 2534SOL    HW210166   2.585   2.466   4.159
 2534SOL    HW310167   2.686   2.517   4.259
 2534SOL    MW410168   2.664   2.498   4.177
 2535SOL     OW10169   2.426   2.503   4.520
 2535SOL    HW210170   2.375   2.526   4.443
 2535SOL    HW310171   2.442   2.586   4.564
 2535SOL    MW410172   2.421   2.517   4.516
 2536SOL     OW10173   1.973   2.632   4.247
 2536SOL    HW210174   2.022   2.695   4.300
 2536SOL    HW310175   2.038   2.593   4.189
 2536SOL    MW410176   1.988   2.635   4.247
 2537SOL     OW10177   2.485   2.868   4.307
 2537SOL    HW210178   2.450   2.788   4.267
 2537SOL    HW310179   2.423   2.889   4.377
 2537SOL    MW410180   2.472   2.860   4.311
 2538SOL     OW10181   2.259   3.248   4.335
 2538SOL    HW210182   2.204   3.178   4.371
 2538SOL    HW310183   2.317   3.272   4.407
 2538SOL    MW410184   2.259   3.242   4.349
 2539SOL     OW10185   1.924   3.012   4.078
 2539SOL    HW210186   1.937   3.056   3.994
 2539SOL    HW310187   2.013   2.986   4.104
 2539SOL    MW410188   1.938   3.014   4.070
 2540SOL     OW10189   2.240   3.482   4.187
 2540SOL    HW210190   2.229   3.405   4.242
 2540SOL    HW310191   2.158   3.530   4.196
 2540SOL    MW410192   2.228   3.478   4.195
 2541SOL     OW10193   2.466   3.586   4.313
 2541SOL    HW210194   2.384   3.551   4.278
 2541SOL    HW310195   2.470   3.676   4.279
 2541SOL    MW410196   2.456   3.593   4.304
 2542SOL     OW10197   2.455   3.839   4.189
 2542SOL    HW210198   2.540   3.877   4.211
 2542SOL    HW310199   2.459   3.825   4.094
 2542SOL    MW410200   2.467   3.842   4.179
 2543SOL     OW10201   2.209   3.980   4.237
 2543SOL    HW210202   2.283   3.923   4.216
 2543SOL    HW310203   2.131   3.928   4.219
 2543SOL    MW410204   2.209   3.966   4.232
 2544SOL     OW10205   2.229   4.241   4.137
 2544SOL    HW210206   2.212   4.152   4.165
 2544SOL    HW310207   2.152   4.291   4.166
 2544SOL    MW410208   2.217   4.236   4.144
 2545SOL     OW10209   2.431   4.361   4.282
 2545SOL    HW210210   2.507   4.315   4.246
 2545SOL    HW310211   2.356   4.325   4.234
 2545SOL    MW410212   2.431   4.350   4.271
 2546SOL     OW10213   2.926   4.585   4.086
 2546SOL    HW210214   2.984   4.638   4.141
 2546SOL    HW310215   2.967   4.499   4.085
 2546SOL    MW410216   2.939   4.581   4.093
 2547SOL     OW10217   2.706   0.051   4.203
 2547SOL    HW210218   2.715   0.144   4.182
 2547SOL    HW310219   2.777   0.008   4.157
 2547SOL    MW410220   2.716   0.057   4.194
 2548SOL     OW10221   2.699   0.310   4.128
 2548SOL    HW210222   2.699   0.344   4.039
 2548SOL    HW310223   2.683   0.387   4.183
 2548SOL    MW410224   2.697   0.324   4.124
 2549SOL     OW10225   3.259   0.646   4.114
 2549SOL    HW210226   3.314   0.688   4.180
 2549SOL    HW310227   3.174   0.689   4.123
 2549SOL    MW410228   3.255   0.657   4.124
 2550SOL     OW10229   3.018   0.784   4.117
 2550SOL    HW210230   3.024   0.877   4.137
 2550SOL    HW310231   2.984   0.780   4.028
 2550SOL    MW410232   3.014   0.795   4.108
 2551SOL     OW10233   2.646   0.937   4.262
 2551SOL    HW210234   2.704   0.862   4.278
 2551SOL    HW310235   2.567   0.898   4.225
 2551SOL    MW410236   2.643   0.922   4.260
 2552SOL     OW10237   2.700   1.183   4.129
 2552SOL    HW210238   2.687   1.090   4.145
 2552SOL    HW310239   2.685   1.194   4.035
 2552SOL    MW410240   2.696   1.172   4.118
 2553SOL     OW10241   2.945   1.289   4.200
 2553SOL    HW210242   3.011   1.226   4.171
 2553SOL    HW310243   2.862   1.251   4.173
 2553SOL    MW410244   2.943   1.276   4.193
 2554SOL     OW10245   2.913   1.547   4.091
 2554SOL    HW210246   2.990   1.595   4.121
 2554SOL    HW310247   2.924   1.459   4.128
 2554SOL    MW410248   2.925   1.542   4.100
 2555SOL     OW10249   2.676   1.669   4.178
 2555SOL    HW210250   2.749   1.615   4.149
 2555SOL    HW310251   2.598   1.620   4.149
 2555SOL    MW410252   2.675   1.655   4.170
 2556SOL     OW10253   2.594   1.902   4.041
 2556SOL    HW210254   2.627   1.828   4.092
 2556SOL    HW310255   2.623   1.885   3.952
 2556SOL    MW410256   2.603   1.890   4.036
 2557SOL     OW10257   2.801   2.037   4.166
 2557SOL    HW210258   2.813   2.130   4.148
 2557SOL    HW310259   2.724   2.013   4.114
 2557SOL    MW410260   2.792   2.046   4.156
 2558SOL     OW10261   2.874   2.315   4.158
 2558SOL    HW210262   2.942   2.380   4.178
 2558SOL    HW310263   2.795   2.367   4.143
 2558SOL    MW410264   2.873   2.330   4.158
 2559SOL     OW10265   2.761   3.172   4.391
 2559SOL    HW210266   2.744   3.260   4.424
 2559SOL    HW310267   2.703   3.115   4.441
 2559SOL    MW410268   2.751   3.176   4.402
 2560SOL     OW10269   2.410   3.105   4.155
 2560SOL    HW210270   2.443   3.032   4.207
 2560SOL    HW310271   2.364   3.161   4.218
 2560SOL    MW410272   2.408   3.103   4.170
 2561SOL     OW10273   2.920   2.923   4.177
 2561SOL    HW210274   2.968   2.989   4.227
 2561SOL    HW310275   2.905   2.964   4.092
 2561SOL    MW410276   2.924   2.937   4.173
 2562SOL     OW10277   3.029   3.130   4.342
 2562SOL    HW210278   3.049   3.100   4.431
 2562SOL    HW310279   2.940   3.166   4.349
 2562SOL    MW410280   3.020   3.131   4.355
 2563SOL     OW10281   2.651   3.230   4.131
 2563SOL    HW210282   2.565   3.190   4.126
 2563SOL    HW310283   2.688   3.197   4.213
 2563SOL    MW410284   2.645   3.220   4.141
 2564SOL     OW10285   2.666   3.507   4.146
 2564SOL    HW210286   2.675   3.411   4.144
 2564SOL    HW310287   2.584   3.522   4.192
 2564SOL    MW410288   2.657   3.496   4.152
 2565SOL     OW10289   2.924   3.631   4.200
 2565SOL    HW210290   2.914   3.655   4.292
 2565SOL    HW310291   2.838   3.596   4.175
 2565SOL    MW410292   2.911   3.629   4.209
 2566SOL     OW10293   2.969   3.887   4.116
 2566SOL    HW210294   3.037   3.929   4.169
 2566SOL    HW310295   2.958   3.801   4.156
 2566SOL    MW410296   2.977   3.881   4.128
 2567SOL     OW10297   2.708   3.960   4.251
 2567SOL    HW210298   2.678   4.051   4.243
 2567SOL    HW310299   2.785   3.955   4.195
 2567SOL    MW410300   2.714   3.972   4.243
 2568SOL     OW10301   2.643   4.231   4.185
 2568SOL    HW210302   2.731   4.267   4.201
 2568SOL    HW310303   2.637   4.225   4.090
 2568SOL    MW410304   2.654   4.235   4.175
 2569SOL     OW10305   2.897   4.314   4.323
 2569SOL    HW210306   2.851   4.383   4.371
 2569SOL    HW310307   2.942   4.263   4.390
 2569SOL    MW410308   2.897   4.317   4.338
 2570SOL     OW10309   3.312   4.613   4.109
 2570SOL    HW210310   3.378   4.661   4.160
 2570SOL    HW310311   3.324   4.521   4.135
 2570SOL    MW410312   3.322   4.607   4.119
 2571SOL     OW10313   3.096   0.061   4.245
 2571SOL    HW210314   3.102   0.067   4.341
 2571SOL    HW310315   3.170   0.007   4.220
 2571SOL    MW410316   3.106   0.055   4.254
 2572SOL     OW10317   3.175   0.283   4.111
 2572SOL    HW210318   3.254   0.301   4.163
 2572SOL    HW310319   3.136   0.207   4.154
 2572SOL    MW410320   3.180   0.275   4.124
 2573SOL     OW10321   3.404   0.415   4.237
 2573SOL    HW210322   3.498   0.401   4.223
 2573SOL    HW310323   3.388   0.503   4.203
 2573SOL    MW410324   3.414   0.425   4.230
 2574SOL     OW10325   3.436   0.750   4.319
 2574SOL    HW210326   3.483   0.832   4.334
 2574SOL    HW310327   3.370   0.746   4.389
 2574SOL    MW410328   3.434   0.760   4.330
 2575SOL     OW10329   3.155   1.090   4.620
 2575SOL    HW210330   3.184   1.026   4.686
 2575SOL    HW310331   3.060   1.088   4.626
 2575SOL    MW410332   3.146   1.081   4.630
 2576SOL     OW10333   3.083   1.057   4.155
 2576SOL    HW210334   3.160   1.052   4.212
 2576SOL    HW310335   3.114   1.098   4.075
 2576SOL    MW410336   3.097   1.062   4.152
 2577SOL     OW10337   3.543   0.992   4.395
 2577SOL    HW210338   3.577   0.988   4.484
 2577SOL    HW310339   3.456   1.029   4.404
 2577SOL    MW410340   3.536   0.996   4.408
 2578SOL     OW10341   3.328   1.335   4.293
 2578SOL    HW210342   3.348   1.396   4.222
 2578SOL    HW310343   3.390   1.358   4.362
 2578SOL    MW410344   3.339   1.346   4.292
 2579SOL     OW10345   3.120   1.700   4.191
 2579SOL    HW210346   3.108   1.708   4.286
 2579SOL    HW310347   3.107   1.789   4.158
 2579SOL    MW410348   3.117   1.713   4.199
 2580SOL     OW10349   3.043   1.965   4.091
 2580SOL    HW210350   3.110   2.013   4.139
 2580SOL    HW310351   2.965   1.972   4.145
 2580SOL    MW410352   3.042   1.972   4.104
 2581SOL     OW10353   3.262   2.082   4.183
 2581SOL    HW210354   3.344   2.033   4.174
 2581SOL    HW310355   3.278   2.165   4.139
 2581SOL    MW410356   3.275   2.086   4.176
 2582SOL     OW10357   3.336   2.361   4.133
 2582SOL    HW210358   3.419   2.392   4.169
 2582SOL    HW310359   3.352   2.351   4.039
 2582SOL    MW410360   3.349   2.364   4.125
 2583SOL     OW10361   3.121   2.478   4.214
 2583SOL    HW210362   3.101   2.560   4.168
 2583SOL    HW310363   3.190   2.438   4.162
 2583SOL    MW410364   3.127   2.484   4.201
 2584SOL     OW10365   3.104   2.716   4.116
 2584SOL    HW210366   3.173   2.739   4.178
 2584SOL    HW310367   3.031   2.774   4.138
 2584SOL    MW410368   3.104   2.727   4.127
 2585SOL     OW10369   3.344   2.827   4.245
 2585SOL    HW210370   3.341   2.922   4.253
 2585SOL    HW310371   3.432   2.809   4.210
 2585SOL    MW410372   3.355   2.837   4.241
 2586SOL     OW10373   3.378   3.105   4.195
 2586SOL    HW210374   3.320   3.176   4.223
 2586SOL    HW310375   3.370   3.104   4.099
 2586SOL    MW410376   3.369   3.115   4.186
 2587SOL     OW10377   3.215   3.306   4.275
 2587SOL    HW210378   3.186   3.369   4.209
 2587SOL    HW310379   3.137   3.253   4.292
 2587SOL    MW410380   3.201   3.307   4.269
 2588SOL     OW10381   3.147   3.501   4.107
 2588SOL    HW210382   3.070   3.554   4.125
 2588SOL    HW310383   3.140   3.480   4.014
 2588SOL    MW410384   3.136   3.505   4.097
 2589SOL     OW10385   3.381   3.609   4.204
 2589SOL    HW210386   3.376   3.610   4.299
 2589SOL    HW310387   3.306   3.556   4.176
 2589SOL    MW410388   3.371   3.602   4.213
 2590SOL     OW10389   3.357   3.876   4.139
 2590SOL    HW210390   3.383   3.785   4.155
 2590SOL    HW310391   3.320   3.876   4.051
 2590SOL    MW410392   3.356   3.864   4.130
 2591SOL     OW10393   3.166   3.950   4.332
 2591SOL    HW210394   3.202   3.921   4.416
 2591SOL    HW310395   3.241   3.946   4.272
 2591SOL    MW410396   3.181   3.946   4.335
 2592SOL     OW10397   3.068   4.342   4.112
 2592SOL    HW210398   3.152   4.359   4.154
 2592SOL    HW310399   3.011   4.311   4.183
 2592SOL    MW410400   3.071   4.340   4.127
 2593SOL     OW10401   3.317   4.353   4.206
 2593SOL    HW210402   3.322   4.367   4.301
 2593SOL    HW310403   3.405   4.322   4.182
 2593SOL    MW410404   3.329   4.351   4.216
 2594SOL     OW10405   3.785   4.656   4.161
 2594SOL    HW210406   3.857   4.714   4.185
 2594SOL    HW310407   3.775   4.670   4.067
 2594SOL    MW410408   3.793   4.665   4.152
 2595SOL     OW10409   3.542   0.071   4.248
 2595SOL    HW210410   3.552   0.163   4.225
 2595SOL    HW310411   3.628   0.033   4.232
 2595SOL    MW410412   3.555   0.078   4.243
 2596SOL     OW10413   3.651   0.338   4.185
 2596SOL    HW210414   3.725   0.362   4.241
 2596SOL    HW310415   3.676   0.370   4.098
 2596SOL    MW410416   3.664   0.345   4.181
 2597SOL     OW10417   3.871   0.455   4.309
 2597SOL    HW210418   3.912   0.416   4.386
 2597SOL    HW310419   3.835   0.538   4.340
 2597SOL    MW410420   3.871   0.461   4.323
 2598SOL     OW10421   3.748   0.797   4.168
 2598SOL    HW210422   3.715   0.887   4.171
 2598SOL    HW310423   3.765   0.780   4.075
 2598SOL    MW410424   3.746   0.807   4.156
 2599SOL     OW10425   3.699   0.666   4.402
 2599SOL    HW210426   3.608   0.673   4.430
 2599SOL    HW310427   3.701   0.705   4.315
 2599SOL    MW410428   3.687   0.672   4.395
 2600SOL     OW10429   3.700   1.086   4.171
 2600SOL    HW210430   3.640   1.084   4.246
 2600SOL    HW310431   3.649   1.125   4.100
 2600SOL    MW410432   3.685   1.091   4.171
 2601SOL     OW10433   3.897   1.295   4.204
 2601SOL    HW210434   3.826   1.233   4.222
 2601SOL    HW310435   3.937   1.311   4.290
 2601SOL    MW410436   3.893   1.289   4.218
 2602SOL     OW10437   3.839   1.543   4.115
 2602SOL    HW210438   3.862   1.452   4.132
 2602SOL    HW310439   3.883   1.592   4.185
 2602SOL    MW410440   3.848   1.537   4.127
 2603SOL     OW10441   3.514   1.973   4.131
 2603SOL    HW210442   3.535   1.983   4.038
 2603SOL    HW310443   3.548   1.886   4.154
 2603SOL    MW410444   3.521   1.963   4.121
 2604SOL     OW10445   3.370   1.563   4.144
 2604SOL    HW210446   3.369   1.549   4.049
 2604SOL    HW310447   3.290   1.613   4.161
 2604SOL    MW410448   3.359   1.568   4.134
 2605SOL     OW10449   3.782   2.077   4.155
 2605SOL    HW210450   3.798   2.084   4.249
 2605SOL    HW310451   3.694   2.041   4.149
 2605SOL    MW410452   3.773   2.073   4.167
 2606SOL     OW10453   3.855   2.326   4.100
 2606SOL    HW210454   3.830   2.235   4.114
 2606SOL    HW310455   3.869   2.333   4.006
 2606SOL    MW410456   3.853   2.315   4.089
 2607SOL     OW10457   3.582   2.449   4.208
 2607SOL    HW210458   3.588   2.423   4.300
 2607SOL    HW310459   3.668   2.425   4.172
 2607SOL    MW410460   3.594   2.442   4.215
 2608SOL     OW10461   3.591   2.722   4.165
 2608SOL    HW210462   3.583   2.631   4.192
 2608SOL    HW310463   3.603   2.718   4.070
 2608SOL    MW410464   3.592   2.710   4.156
 2609SOL     OW10465   3.833   2.875   4.234
 2609SOL    HW210466   3.832   2.905   4.325
 2609SOL    HW310467   3.743   2.846   4.218
 2609SOL    MW410468   3.821   2.875   4.244
 2610SOL     OW10469   3.806   3.116   4.125
 2610SOL    HW210470   3.840   3.037   4.167
 2610SOL    HW310471   3.821   3.101   4.032
 2610SOL    MW410472   3.812   3.103   4.119
 2611SOL     OW10473   3.607   3.237   4.292
 2611SOL    HW210474   3.685   3.207   4.246
 2611SOL    HW310475   3.536   3.185   4.255
 2611SOL    MW410476   3.608   3.226   4.281
 2612SOL     OW10477   3.604   3.453   4.121
 2612SOL    HW210478   3.599   3.375   4.176
 2612SOL    HW310479   3.524   3.501   4.140
 2612SOL    MW410480   3.593   3.449   4.131
 2613SOL     OW10481   3.842   3.649   4.189
 2613SOL    HW210482   3.922   3.599   4.172
 2613SOL    HW310483   3.772   3.585   4.178
 2613SOL    MW410484   3.844   3.634   4.185
 2614SOL     OW10485   3.848   3.903   4.106
 2614SOL    HW210486   3.769   3.933   4.151
 2614SOL    HW310487   3.850   3.809   4.123
 2614SOL    MW410488   3.838   3.895   4.114
 2615SOL     OW10489   3.605   4.000   4.229
 2615SOL    HW210490   3.590   3.985   4.322
 2615SOL    HW310491   3.533   3.956   4.185
 2615SOL    MW410492   3.594   3.992   4.235
 2616SOL     OW10493   3.578   4.268   4.139
 2616SOL    HW210494   3.660   4.308   4.168
 2616SOL    HW310495   3.584   4.177   4.168
 2616SOL    MW410496   3.590   4.261   4.147
 2617SOL     OW10497   3.816   4.385   4.222
 2617SOL    HW210498   3.882   4.346   4.164
 2617SOL    HW310499   3.810   4.477   4.193
 2617SOL    MW410500   3.824   4.392   4.210
 2618SOL     OW10501   4.251   4.632   4.147
 2618SOL    HW210502   4.252   4.545   4.187
 2618SOL    HW310503   4.311   4.684   4.201
 2618SOL    MW410504   4.259   4.627   4.159
 2619SOL     OW10505   4.030   0.109   4.213
 2619SOL    HW210506   4.069   0.195   4.194
 2619SOL    HW310507   4.099   0.046   4.190
 2619SOL    MW410508   4.044   0.112   4.207
 2620SOL     OW10509   4.095   0.406   4.167
 2620SOL    HW210510   4.166   0.461   4.201
 2620SOL    HW310511   4.022   0.422   4.227
 2620SOL    MW410512   4.095   0.416   4.180
 2621SOL     OW10513   4.317   0.530   4.249
 2621SOL    HW210514   4.318   0.614   4.204
 2621SOL    HW310515   4.380   0.476   4.200
 2621SOL    MW410516   4.326   0.534   4.237
 2622SOL     OW10517   4.290   0.799   4.148
 2622SOL    HW210518   4.200   0.806   4.180
 2622SOL    HW310519   4.280   0.770   4.057
 2622SOL    MW410520   4.277   0.796   4.140
 2623SOL     OW10521   4.025   0.857   4.256
 2623SOL    HW210522   4.032   0.937   4.205
 2623SOL    HW310523   3.950   0.811   4.219
 2623SOL    MW410524   4.016   0.861   4.245
 2624SOL     OW10525   4.055   1.099   4.120
 2624SOL    HW210526   4.136   1.128   4.161
 2624SOL    HW310527   3.993   1.171   4.135
 2624SOL    MW410528   4.057   1.112   4.127
 2625SOL     OW10529   4.275   1.187   4.233
 2625SOL    HW210530   4.257   1.180   4.326
 2625SOL    HW310531   4.369   1.170   4.225
 2625SOL    MW410532   4.285   1.184   4.244
 2626SOL     OW10533   4.272   1.455   4.172
 2626SOL    HW210534   4.280   1.362   4.193
 2626SOL    HW310535   4.259   1.458   4.077
 2626SOL    MW410536   4.271   1.443   4.162
 2627SOL     OW10537   4.220   1.829   4.516
 2627SOL    HW210538   4.233   1.796   4.605
 2627SOL    HW310539   4.194   1.751   4.465
 2627SOL    MW410540   4.218   1.814   4.521
 2628SOL     OW10541   3.970   1.891   4.085
 2628SOL    HW210542   3.972   1.825   4.155
 2628SOL    HW310543   3.895   1.946   4.107
 2628SOL    MW410544   3.960   1.890   4.097
 2629SOL     OW10545   4.424   1.891   4.121
 2629SOL    HW210546   4.490   1.953   4.151
 2629SOL    HW310547   4.341   1.938   4.133
 2629SOL    MW410548   4.421   1.905   4.127
 2630SOL     OW10549   4.223   2.307   4.053
 2630SOL    HW210550   4.167   2.361   4.110
 2630SOL    HW310551   4.204   2.218   4.081
 2630SOL    MW410552   4.213   2.303   4.064
 2631SOL     OW10553   4.055   2.433   4.234
 2631SOL    HW210554   4.048   2.459   4.325
 2631SOL    HW310555   3.970   2.394   4.213
 2631SOL    MW410556   4.043   2.431   4.243
 2632SOL     OW10557   4.034   2.692   4.144
 2632SOL    HW210558   4.033   2.601   4.174
 2632SOL    HW310559   3.954   2.730   4.181
 2632SOL    MW410560   4.023   2.685   4.153
 2633SOL     OW10561   4.248   2.840   4.277
 2633SOL    HW210562   4.167   2.795   4.253
 2633SOL    HW310563   4.316   2.795   4.228
 2633SOL    MW410564   4.246   2.828   4.268
 2634SOL     OW10565   4.242   3.116   4.177
 2634SOL    HW210566   4.252   3.028   4.214
 2634SOL    HW310567   4.236   3.103   4.083
 2634SOL    MW410568   4.243   3.103   4.170
 2635SOL     OW10569   4.018   3.240   4.281
 2635SOL    HW210570   4.097   3.196   4.250
 2635SOL    HW310571   3.947   3.200   4.230
 2635SOL    MW410572   4.019   3.229   4.271
 2636SOL     OW10573   4.071   3.499   4.169
 2636SOL    HW210574   4.051   3.413   4.205
 2636SOL    HW310575   4.105   3.481   4.081
 2636SOL    MW410576   4.073   3.486   4.162
 2637SOL     OW10577   4.280   3.550   4.347
 2637SOL    HW210578   4.296   3.631   4.396
 2637SOL    HW310579   4.197   3.565   4.303
 2637SOL    MW410580   4.271   3.563   4.348
 2638SOL     OW10581   4.311   3.932   4.175
 2638SOL    HW210582   4.231   3.978   4.201
 2638SOL    HW310583   4.290   3.894   4.090
 2638SOL    MW410584   4.298   3.933   4.168
 2639SOL     OW10585   4.061   4.036   4.232
 2639SOL    HW210586   4.050   4.023   4.326
 2639SOL    HW310587   3.993   3.982   4.192
 2639SOL    MW410588   4.050   4.027   4.239
 2640SOL     OW10589   4.067   4.280   4.114
 2640SOL    HW210590   4.152   4.312   4.145
 2640SOL    HW310591   4.063   4.189   4.143
 2640SOL    MW410592   4.077   4.273   4.122
 2641SOL     OW10593   4.243   4.319   4.545
 2641SOL    HW210594   4.165   4.276   4.580
 2641SOL    HW310595   4.232   4.412   4.567
 2641SOL    MW410596   4.231   4.326   4.552
 2642SOL     OW10597   3.992   4.242   4.674
 2642SOL    HW210598   3.931   4.182   4.717
 2642SOL    HW310599   3.937   4.290   4.612
 2642SOL    MW410600   3.976   4.240   4.671
 2643SOL     OW10601   4.212   4.578   4.627
 2643SOL    HW210602   4.177   4.552   4.712
 2643SOL    HW310603   4.143   4.633   4.589
 2643SOL    MW410604   4.198   4.582   4.633
 2644SOL     OW10605   4.010   0.076   4.507
 2644SOL    HW210606   3.925   0.040   4.532
 2644SOL    HW310607   4.002   0.091   4.413
 2644SOL    MW410608   3.998   0.073   4.498
 2645SOL     OW10609   4.234   1.677   4.771
 2645SOL    HW210610   4.284   1.605   4.733
 2645SOL    HW310611   4.281   1.699   4.851
 2645SOL    MW410612   4.247   1.670   4.777
 2646SOL     OW10613   0.472   0.041   4.458
 2646SOL    HW210614   0.422  -0.015   4.518
 2646SOL    HW310615   0.519   0.101   4.515
 2646SOL    MW410616   0.471   0.042   4.473
 2647SOL     OW10617   0.222   0.746   4.649
 2647SOL    HW210618   0.303   0.742   4.701
 2647SOL    HW310619   0.210   0.656   4.618
 2647SOL    MW410620   0.231   0.734   4.652
 2648SOL     OW10621   4.261   0.719   4.577
 2648SOL    HW210622   4.286   0.629   4.559
 2648SOL    HW310623   4.343   0.763   4.598
 2648SOL    MW410624   4.275   0.713   4.577
 2649SOL     OW10625   0.727   1.382   4.546
 2649SOL    HW210626   0.745   1.476   4.547
 2649SOL    HW310627   0.640   1.374   4.584
 2649SOL    MW410628   0.718   1.393   4.551
 2650SOL     OW10629   1.190   1.977   4.525
 2650SOL    HW210630   1.282   1.952   4.520
 2650SOL    HW310631   1.182   2.027   4.606
 2650SOL    MW410632   1.201   1.980   4.535
 2651SOL     OW10633   4.197   1.194   4.501
 2651SOL    HW210634   4.164   1.106   4.514
 2651SOL    HW310635   4.288   1.190   4.531
 2651SOL    MW410636   4.205   1.182   4.506
 2652SOL     OW10637   0.077   1.655   4.510
 2652SOL    HW210638   0.062   1.660   4.415
 2652SOL    HW310639   0.078   1.746   4.539
 2652SOL    MW410640   0.075   1.668   4.501
 2653SOL     OW10641   0.435   1.651   4.252
 2653SOL    HW210642   0.376   1.603   4.193
 2653SOL    HW310643   0.521   1.610   4.239
 2653SOL    MW410644   0.439   1.639   4.243
 2654SOL     OW10645   0.032   1.911   4.574
 2654SOL    HW210646   0.059   1.999   4.549
 2654SOL    HW310647  -0.060   1.906   4.548
 2654SOL    MW410648   0.023   1.922   4.567
 2655SOL     OW10649   4.230   2.321   4.581
 2655SOL    HW210650   4.314   2.362   4.562
 2655SOL    HW310651   4.168   2.394   4.586
 2655SOL    MW410652   4.233   2.336   4.579
 2656SOL     OW10653   0.688   2.966   4.717
 2656SOL    HW210654   0.707   2.938   4.628
 2656SOL    HW310655   0.697   2.887   4.769
 2656SOL    MW410656   0.692   2.952   4.712
 2657SOL     OW10657   0.210   2.821   4.761
 2657SOL    HW210658   0.262   2.837   4.840
 2657SOL    HW310659   0.267   2.848   4.689
 2657SOL    MW410660   0.224   2.827   4.762
 2658SOL     OW10661   4.483   2.399   4.462
 2658SOL    HW210662   4.455   2.410   4.371
 2658SOL    HW310663   4.518   2.484   4.487
 2658SOL    MW410664   4.484   2.411   4.454
 2659SOL     OW10665   3.771   3.267   4.536
 2659SOL    HW210666   3.725   3.285   4.454
 2659SOL    HW310667   3.702   3.256   4.601
 2659SOL    MW410668   3.756   3.268   4.534
 2660SOL     OW10669   0.474   3.221   4.568
 2660SOL    HW210670   0.388   3.250   4.597
 2660SOL    HW310671   0.531   3.235   4.643
 2660SOL    MW410672   0.471   3.227   4.581
 2661SOL     OW10673   4.080   3.998   4.513
 2661SOL    HW210674   4.025   3.920   4.515
 2661SOL    HW310675   4.041   4.056   4.578
 2661SOL    MW410676   4.068   3.995   4.522
 2662SOL     OW10677   0.003   4.648   4.516
 2662SOL    HW210678  -0.078   4.624   4.561
 2662SOL    HW310679   0.029   4.731   4.556
 2662SOL    MW410680  -0.004   4.655   4.527
 2663SOL     OW10681   3.287   0.465   4.521
 2663SOL    HW210682   3.327   0.455   4.435
 2663SOL    HW310683   3.194   0.448   4.507
 2663SOL    MW410684   3.280   0.462   4.508
 2664SOL     OW10685   3.793   4.068   4.768
 2664SOL    HW210686   3.787   3.973   4.761
 2664SOL    HW310687   3.705   4.096   4.793
 2664SOL    MW410688   3.781   4.059   4.771
 2665SOL     OW10689   3.789   3.824   4.664
 2665SOL    HW210690   3.819   3.786   4.582
 2665SOL    HW310691   3.812   3.760   4.731
 2665SOL    MW410692   3.796   3.811   4.662
 2666SOL     OW10693   0.545   4.663   4.860
 2666SOL    HW210694   0.491   4.654   4.939
 2666SOL    HW310695   0.494   4.621   4.791
 2666SOL    MW410696   0.531   4.656   4.861
 2667SOL     OW10697   4.020   0.608   4.690
 2667SOL    HW210698   4.106   0.632   4.655
 2667SOL    HW310699   3.963   0.681   4.668
 2667SOL    MW410700   4.024   0.621   4.682
 2668SOL     OW10701   1.099   0.718   4.659
 2668SOL    HW210702   1.035   0.786   4.638
 2668SOL    HW310703   1.071   0.642   4.608
 2668SOL    MW410704   1.087   0.717   4.649
 2669SOL     OW10705   0.598   0.191   4.634
 2669SOL    HW210706   0.686   0.192   4.597
 2669SOL    HW310707   0.603   0.129   4.707
 2669SOL    MW410708   0.610   0.183   4.639
 2670SOL     OW10709   0.909   0.955   4.584
 2670SOL    HW210710   0.925   0.942   4.490
 2670SOL    HW310711   0.814   0.959   4.591
 2670SOL    MW410712   0.899   0.954   4.572
 2671SOL     OW10713   0.282   0.974   4.493
 2671SOL    HW210714   0.333   0.928   4.426
 2671SOL    HW310715   0.244   0.904   4.546
 2671SOL    MW410716   0.284   0.958   4.491
 2672SOL     OW10717   2.164   1.235   4.507
 2672SOL    HW210718   2.127   1.275   4.428
 2672SOL    HW310719   2.258   1.236   4.493
 2672SOL    MW410720   2.171   1.240   4.495
 2673SOL     OW10721   0.348   1.600   4.522
 2673SOL    HW210722   0.254   1.620   4.530
 2673SOL    HW310723   0.369   1.620   4.431
 2673SOL    MW410724   0.338   1.605   4.511
 2674SOL     OW10725   1.340   1.040   4.472
 2674SOL    HW210726   1.322   0.993   4.391
 2674SOL    HW310727   1.282   1.115   4.470
 2674SOL    MW410728   1.330   1.043   4.461
 2675SOL     OW10729   0.826   1.662   4.515
 2675SOL    HW210730   0.782   1.735   4.559
 2675SOL    HW310731   0.918   1.670   4.541
 2675SOL    MW410732   0.832   1.672   4.525
 2676SOL     OW10733   0.644   2.106   4.555
 2676SOL    HW210734   0.706   2.178   4.559
 2676SOL    HW310735   0.691   2.032   4.593
 2676SOL    MW410736   0.658   2.106   4.561
 2677SOL     OW10737   1.088   1.711   4.589
 2677SOL    HW210738   1.160   1.647   4.589
 2677SOL    HW310739   1.129   1.793   4.560
 2677SOL    MW410740   1.103   1.714   4.585
 2678SOL     OW10741   0.386   2.183   4.607
 2678SOL    HW210742   0.481   2.168   4.603
 2678SOL    HW310743   0.378   2.279   4.608
 2678SOL    MW410744   0.398   2.194   4.607
 2679SOL     OW10745   1.090   2.623   4.726
 2679SOL    HW210746   0.997   2.639   4.711
 2679SOL    HW310747   1.127   2.710   4.742
 2679SOL    MW410748   1.082   2.637   4.726
 2680SOL     OW10749   0.817   2.626   4.627
 2680SOL    HW210750   0.723   2.630   4.643
 2680SOL    HW310751   0.836   2.533   4.616
 2680SOL    MW410752   0.807   2.614   4.627
 2681SOL     OW10753   0.985   3.239   4.488
 2681SOL    HW210754   1.073   3.272   4.504
 2681SOL    HW310755   0.930   3.290   4.548
 2681SOL    MW410756   0.989   3.250   4.498
 2682SOL     OW10757   0.840   3.384   4.668
 2682SOL    HW210758   0.786   3.443   4.615
 2682SOL    HW310759   0.904   3.441   4.709
 2682SOL    MW410760   0.841   3.399   4.666
 2683SOL     OW10761   1.269   4.495   4.500
 2683SOL    HW210762   1.359   4.465   4.515
 2683SOL    HW310763   1.276   4.591   4.499
 2683SOL    MW410764   1.282   4.504   4.502
 2684SOL     OW10765   0.377   2.475   4.553
 2684SOL    HW210766   0.392   2.463   4.459
 2684SOL    HW310767   0.295   2.523   4.558
 2684SOL    MW410768   0.369   2.480   4.541
 2685SOL     OW10769   4.461   3.207   4.552
 2685SOL    HW210770   4.377   3.254   4.546
 2685SOL    HW310771   4.492   3.203   4.461
 2685SOL    MW410772   4.454   3.213   4.539
 2686SOL     OW10773   1.345   3.499   4.658
 2686SOL    HW210774   1.438   3.473   4.662
 2686SOL    HW310775   1.302   3.428   4.611
 2686SOL    MW410776   1.352   3.486   4.653
 2687SOL     OW10777   0.022   4.212   4.556
 2687SOL    HW210778   0.033   4.118   4.546
 2687SOL    HW310779  -0.071   4.223   4.578
 2687SOL    MW410780   0.011   4.201   4.557
 2688SOL     OW10781   0.242   3.852   4.311
 2688SOL    HW210782   0.234   3.757   4.303
 2688SOL    HW310783   0.188   3.874   4.387
 2688SOL    MW410784   0.234   3.843   4.320
 2689SOL     OW10785   0.183   4.436   4.527
 2689SOL    HW210786   0.114   4.502   4.516
 2689SOL    HW310787   0.135   4.355   4.549
 2689SOL    MW410788   0.168   4.434   4.528
 2690SOL     OW10789   0.503   0.458   4.592
 2690SOL    HW210790   0.579   0.496   4.549
 2690SOL    HW310791   0.531   0.369   4.616
 2690SOL    MW410792   0.517   0.451   4.590
 2691SOL     OW10793   0.417   4.517   4.654
 2691SOL    HW210794   0.481   4.447   4.643
 2691SOL    HW310795   0.335   4.479   4.624
 2691SOL    MW410796   0.415   4.503   4.649
 2692SOL     OW10797   0.495   0.678   4.761
 2692SOL    HW210798   0.567   0.672   4.824
 2692SOL    HW310799   0.497   0.594   4.714
 2692SOL    MW410800   0.505   0.666   4.763
 2693SOL     OW10801   1.370   0.738   4.582
 2693SOL    HW210802   1.378   0.833   4.578
 2693SOL    HW310803   1.280   0.723   4.612
 2693SOL    MW410804   1.359   0.749   4.585
 2694SOL     OW10805   1.753   1.027   4.661
 2694SOL    HW210806   1.748   0.987   4.747
 2694SOL    HW310807   1.811   1.103   4.672
 2694SOL    MW410808   1.760   1.032   4.674
 2695SOL     OW10809   0.239   1.247   4.493
 2695SOL    HW210810   0.255   1.153   4.488
 2695SOL    HW310811   0.313   1.282   4.542
 2695SOL    MW410812   0.251   1.240   4.499
 2696SOL     OW10813   0.950   1.945   4.844
 2696SOL    HW210814   1.005   1.870   4.869
 2696SOL    HW310815   1.013   2.012   4.818
 2696SOL    MW410816   0.966   1.944   4.844
 2697SOL     OW10817   0.958   1.220   4.561
 2697SOL    HW210818   0.879   1.269   4.585
 2697SOL    HW310819   0.950   1.137   4.607
 2697SOL    MW410820   0.947   1.216   4.570
 2698SOL     OW10821   1.932   1.262   4.669
 2698SOL    HW210822   2.014   1.255   4.621
 2698SOL    HW310823   1.920   1.356   4.684
 2698SOL    MW410824   1.941   1.273   4.665
 2699SOL     OW10825   1.208   1.298   4.463
 2699SOL    HW210826   1.126   1.276   4.507
 2699SOL    HW310827   1.227   1.388   4.491
 2699SOL    MW410828   1.200   1.307   4.473
 2700SOL     OW10829   1.105   2.365   4.613
 2700SOL    HW210830   1.101   2.440   4.672
 2700SOL    HW310831   1.177   2.386   4.553
 2700SOL    MW410832   1.114   2.378   4.613
 2701SOL     OW10833   1.639   2.544   4.752
 2701SOL    HW210834   1.690   2.606   4.804
 2701SOL    HW310835   1.566   2.596   4.717
 2701SOL    MW410836   1.636   2.559   4.754
 2702SOL     OW10837   1.415   3.095   4.667
 2702SOL    HW210838   1.477   3.036   4.624
 2702SOL    HW310839   1.469   3.158   4.714
 2702SOL    MW410840   1.430   3.096   4.667
 2703SOL     OW10841   1.586   3.346   4.620
 2703SOL    HW210842   1.644   3.289   4.670
 2703SOL    HW310843   1.595   3.316   4.529
 2703SOL    MW410844   1.595   3.334   4.614
 2704SOL     OW10845   0.803   2.857   4.485
 2704SOL    HW210846   0.889   2.899   4.487
 2704SOL    HW310847   0.816   2.773   4.529
 2704SOL    MW410848   0.816   2.851   4.491
 2705SOL     OW10849   0.679   4.503   4.489
 2705SOL    HW210850   0.701   4.456   4.409
 2705SOL    HW310851   0.603   4.556   4.466
 2705SOL    MW410852   0.672   4.504   4.476
 2706SOL     OW10853   1.240   2.872   4.700
 2706SOL    HW210854   1.169   2.912   4.650
 2706SOL    HW310855   1.303   2.943   4.713
 2706SOL    MW410856   1.239   2.887   4.695
 2707SOL     OW10857   1.041   2.959   4.524
 2707SOL    HW210858   1.028   3.054   4.522
 2707SOL    HW310859   1.073   2.937   4.436
 2707SOL    MW410860   1.044   2.969   4.512
 2708SOL     OW10861   1.809   3.535   4.552
 2708SOL    HW210862   1.882   3.475   4.561
 2708SOL    HW310863   1.731   3.481   4.567
 2708SOL    MW410864   1.808   3.520   4.555
 2709SOL     OW10865   0.469   3.718   4.510
 2709SOL    HW210866   0.549   3.763   4.536
 2709SOL    HW310867   0.430   3.774   4.443
 2709SOL    MW410868   0.474   3.731   4.504
 2710SOL     OW10869   0.210   3.333   4.640
 2710SOL    HW210870   0.188   3.426   4.637
 2710SOL    HW310871   0.126   3.288   4.633
 2710SOL    MW410872   0.196   3.340   4.639
 2711SOL     OW10873   0.848   0.093   4.513
 2711SOL    HW210874   0.849   0.089   4.417
 2711SOL    HW310875   0.800   0.015   4.540
 2711SOL    MW410876   0.842   0.083   4.504
 2712SOL     OW10877   0.944   4.178   4.297
 2712SOL    HW210878   1.018   4.237   4.312
 2712SOL    HW310879   0.869   4.236   4.286
 2712SOL    MW410880   0.944   4.194   4.298
 2713SOL     OW10881   2.296   3.948   4.520
 2713SOL    HW210882   2.290   3.967   4.427
 2713SOL    HW310883   2.262   3.859   4.529
 2713SOL    MW410884   2.290   3.939   4.509
 2714SOL     OW10885   1.766   4.523   4.573
 2714SOL    HW210886   1.814   4.443   4.552
 2714SOL    HW310887   1.674   4.499   4.565
 2714SOL    MW410888   1.761   4.509   4.569
 2715SOL     OW10889   1.530   4.402   4.515
 2715SOL    HW210890   1.524   4.311   4.544
 2715SOL    HW310891   1.543   4.396   4.420
 2715SOL    MW410892   1.531   4.389   4.506
 2716SOL     OW10893   0.752   0.583   4.492
 2716SOL    HW210894   0.764   0.678   4.492
 2716SOL    HW310895   0.748   0.559   4.400
 2716SOL    MW410896   0.753   0.592   4.480
 2717SOL     OW10897   1.763   0.123   4.506
 2717SOL    HW210898   1.766   0.039   4.553
 2717SOL    HW310899   1.682   0.164   4.536
 2717SOL    MW410900   1.753   0.117   4.516
 2718SOL     OW10901   1.022   0.493   4.474
 2718SOL    HW210902   0.927   0.485   4.469
 2718SOL    HW310903   1.050   0.416   4.523
 2718SOL    MW410904   1.013   0.482   4.480
 2719SOL     OW10905   1.639   1.726   4.486
 2719SOL    HW210906   1.638   1.633   4.512
 2719SOL    HW310907   1.686   1.726   4.403
 2719SOL    MW410908   1.645   1.714   4.479
 2720SOL     OW10909   0.651   0.849   4.522
 2720SOL    HW210910   0.590   0.854   4.447
 2720SOL    HW310911   0.596   0.819   4.595
 2720SOL    MW410912   0.636   0.845   4.521
 2721SOL     OW10913   1.510   0.243   4.618
 2721SOL    HW210914   1.519   0.333   4.587
 2721SOL    HW310915   1.505   0.250   4.713
 2721SOL    MW410916   1.510   0.256   4.626
 2722SOL     OW10917   1.559   1.195   4.507
 2722SOL    HW210918   1.480   1.141   4.509
 2722SOL    HW310919   1.617   1.156   4.572
 2722SOL    MW410920   1.556   1.183   4.516
 2723SOL     OW10921   1.313   1.564   4.539
 2723SOL    HW210922   1.399   1.532   4.566
 2723SOL    HW310923   1.324   1.588   4.447
 2723SOL    MW410924   1.326   1.563   4.530
 2724SOL     OW10925   1.415   2.629   4.601
 2724SOL    HW210926   1.335   2.674   4.628
 2724SOL    HW310927   1.384   2.549   4.559
 2724SOL    MW410928   1.401   2.624   4.599
 2725SOL     OW10929   2.312   2.627   4.269
 2725SOL    HW210930   2.282   2.600   4.182
 2725SOL    HW310931   2.255   2.700   4.292
 2725SOL    MW410932   2.301   2.633   4.260
 2726SOL     OW10933   0.815   2.325   4.561
 2726SOL    HW210934   0.910   2.316   4.570
 2726SOL    HW310935   0.803   2.365   4.474
 2726SOL    MW410936   0.826   2.329   4.550
 2727SOL     OW10937   1.406   3.983   4.398
 2727SOL    HW210938   1.449   4.031   4.469
 2727SOL    HW310939   1.378   3.901   4.437
 2727SOL    MW410940   1.408   3.979   4.412
 2728SOL     OW10941   1.293   2.488   4.229
 2728SOL    HW210942   1.312   2.581   4.219
 2728SOL    HW310943   1.373   2.443   4.202
 2728SOL    MW410944   1.306   2.494   4.224
 2729SOL     OW10945   1.343   2.389   4.480
 2729SOL    HW210946   1.333   2.416   4.389
 2729SOL    HW310947   1.436   2.367   4.488
 2729SOL    MW410948   1.354   2.390   4.469
 2730SOL     OW10949   1.254   3.281   4.511
 2730SOL    HW210950   1.314   3.220   4.555
 2730SOL    HW310951   1.287   3.287   4.422
 2730SOL    MW410952   1.267   3.274   4.505
 2731SOL     OW10953   0.623   3.237   4.793
 2731SOL    HW210954   0.705   3.279   4.767
 2731SOL    HW310955   0.647   3.145   4.807
 2731SOL    MW410956   0.637   3.231   4.791
 2732SOL     OW10957   0.639   3.485   4.512
 2732SOL    HW210958   0.585   3.406   4.511
 2732SOL    HW310959   0.577   3.557   4.520
 2732SOL    MW410960   0.624   3.484   4.513
 2733SOL     OW10961   2.278   3.425   4.634
 2733SOL    HW210962   2.320   3.342   4.658
 2733SOL    HW310963   2.197   3.399   4.590
 2733SOL    MW410964   2.273   3.410   4.631
 2734SOL     OW10965   2.039   3.357   4.548
 2734SOL    HW210966   2.035   3.289   4.615
 2734SOL    HW310967   2.051   3.309   4.466
 2734SOL    MW410968   2.040   3.342   4.546
 2735SOL     OW10969   2.366   3.141   4.652
 2735SOL    HW210970   2.324   3.068   4.606
 2735SOL    HW310971   2.460   3.129   4.635
 2735SOL    MW410972   2.373   3.130   4.643
 2736SOL     OW10973   1.056   3.563   4.689
 2736SOL    HW210974   1.031   3.627   4.622
 2736SOL    HW310975   1.148   3.581   4.706
 2736SOL    MW410976   1.064   3.574   4.683
 2737SOL     OW10977   1.814   4.031   4.509
 2737SOL    HW210978   1.805   4.017   4.415
 2737SOL    HW310979   1.835   3.944   4.544
 2737SOL    MW410980   1.815   4.018   4.501
 2738SOL     OW10981   1.922   0.364   4.469
 2738SOL    HW210982   1.886   0.276   4.483
 2738SOL    HW310983   2.017   0.352   4.479
 2738SOL    MW410984   1.930   0.351   4.472
 2739SOL     OW10985   1.071   0.242   4.609
 2739SOL    HW210986   1.000   0.198   4.560
 2739SOL    HW310987   1.056   0.216   4.700
 2739SOL    MW410988   1.059   0.232   4.615
 2740SOL     OW10989   1.296   0.103   4.514
 2740SOL    HW210990   1.370   0.137   4.564
 2740SOL    HW310991   1.223   0.159   4.538
 2740SOL    MW410992   1.296   0.115   4.523
 2741SOL     OW10993   2.311   0.081   4.529
 2741SOL    HW210994   2.278  -0.008   4.541
 2741SOL    HW310995   2.302   0.098   4.436
 2741SOL    MW410996   2.306   0.072   4.518
 2742SOL     OW10997   1.902   0.835   4.467
 2742SOL    HW210998   1.861   0.897   4.527
 2742SOL    HW310999   1.849   0.839   4.388
 2742SOL    MW411000   1.890   0.844   4.465
 2743SOL     OW11001   1.551   0.509   4.525
 2743SOL    HW211002   1.487   0.578   4.542
 2743SOL    HW311003   1.634   0.545   4.555
 2743SOL    MW411004   1.554   0.523   4.531
 2744SOL     OW11005   1.989   1.708   4.519
 2744SOL    HW211006   2.078   1.735   4.542
 2744SOL    HW311007   1.996   1.681   4.427
 2744SOL    MW411008   2.002   1.708   4.510
 2745SOL     OW11009   0.742   1.875   4.683
 2745SOL    HW211010   0.814   1.904   4.740
 2745SOL    HW311011   0.681   1.831   4.742
 2745SOL    MW411012   0.744   1.873   4.699
 2746SOL     OW11013   1.579   1.472   4.579
 2746SOL    HW211014   1.559   1.382   4.554
 2746SOL    HW311015   1.654   1.464   4.639
 2746SOL    MW411016   1.586   1.459   4.584
 2747SOL     OW11017   1.190   2.128   4.750
 2747SOL    HW211018   1.286   2.129   4.757
 2747SOL    HW311019   1.168   2.216   4.720
 2747SOL    MW411020   1.200   2.140   4.747
 2748SOL     OW11021   1.462   1.955   4.471
 2748SOL    HW211022   1.494   1.989   4.388
 2748SOL    HW311023   1.511   1.874   4.484
 2748SOL    MW411024   1.472   1.949   4.462
 2749SOL     OW11025   2.176   2.515   4.047
 2749SOL    HW211026   2.138   2.453   3.984
 2749SOL    HW311027   2.258   2.473   4.075
 2749SOL    MW411028   2.182   2.501   4.042
 2750SOL     OW11029   1.474   2.120   4.694
 2750SOL    HW211030   1.447   2.063   4.622
 2750SOL    HW311031   1.522   2.192   4.652
 2750SOL    MW411032   1.477   2.122   4.679
 2751SOL     OW11033   3.076   3.222   4.692
 2751SOL    HW211034   3.155   3.266   4.661
 2751SOL    HW311035   3.080   3.135   4.652
 2751SOL    MW411036   3.087   3.216   4.683
 2752SOL     OW11037   1.757   3.167   4.739
 2752SOL    HW211038   1.727   3.093   4.685
 2752SOL    HW311039   1.853   3.157   4.742
 2752SOL    MW411040   1.766   3.156   4.733
 2753SOL     OW11041   1.920   3.794   4.601
 2753SOL    HW211042   1.863   3.717   4.596
 2753SOL    HW311043   2.009   3.760   4.592
 2753SOL    MW411044   1.924   3.779   4.599
 2754SOL     OW11045   2.676   2.844   4.761
 2754SOL    HW211046   2.591   2.811   4.731
 2754SOL    HW311047   2.740   2.795   4.710
 2754SOL    MW411048   2.673   2.833   4.750
 2755SOL     OW11049   2.317   2.705   4.910
 2755SOL    HW211050   2.373   2.713   4.987
 2755SOL    HW311051   2.281   2.792   4.896
 2755SOL    MW411052   2.320   2.717   4.918
 2756SOL     OW11053   2.799   3.900   4.516
 2756SOL    HW211054   2.777   3.916   4.425
 2756SOL    HW311055   2.716   3.908   4.563
 2756SOL    MW411056   2.785   3.903   4.510
 2757SOL     OW11057   2.542   3.861   4.643
 2757SOL    HW211058   2.554   3.766   4.636
 2757SOL    HW311059   2.460   3.878   4.597
 2757SOL    MW411060   2.533   3.851   4.636
 2758SOL     OW11061   2.499   3.595   4.583
 2758SOL    HW211062   2.421   3.549   4.613
 2758SOL    HW311063   2.495   3.590   4.487
 2758SOL    MW411064   2.488   3.589   4.574
 2759SOL     OW11065   2.174   3.668   4.522
 2759SOL    HW211066   2.183   3.581   4.562
 2759SOL    HW311067   2.114   3.654   4.448
 2759SOL    MW411068   2.167   3.655   4.517
 2760SOL     OW11069   1.940   4.283   4.524
 2760SOL    HW211070   1.900   4.196   4.521
 2760SOL    HW311071   2.016   4.272   4.580
 2760SOL    MW411072   1.944   4.270   4.531
 2761SOL     OW11073   1.334   3.702   4.480
 2761SOL    HW211074   1.241   3.702   4.458
 2761SOL    HW311075   1.342   3.639   4.551
 2761SOL    MW411076   1.323   3.694   4.486
 2762SOL     OW11077   2.196   0.345   4.485
 2762SOL    HW211078   2.234   0.258   4.493
 2762SOL    HW311079   2.263   0.404   4.521
 2762SOL    MW411080   2.210   0.342   4.491
 2763SOL     OW11081   2.385   0.818   4.602
 2763SOL    HW211082   2.353   0.855   4.684
 2763SOL    HW311083   2.323   0.847   4.536
 2763SOL    MW411084   2.373   0.827   4.604
 2764SOL     OW11085   1.824   1.542   4.698
 2764SOL    HW211086   1.874   1.590   4.632
 2764SOL    HW311087   1.850   1.581   4.781
 2764SOL    MW411088   1.834   1.554   4.700
 2765SOL     OW11089   2.667   0.501   4.324
 2765SOL    HW211090   2.581   0.535   4.301
 2765SOL    HW311091   2.724   0.578   4.327
 2765SOL    MW411092   2.663   0.515   4.322
 2766SOL     OW11093   2.841   0.726   4.321
 2766SOL    HW211094   2.899   0.745   4.394
 2766SOL    HW311095   2.897   0.731   4.244
 2766SOL    MW411096   2.856   0.729   4.321
 2767SOL     OW11097   3.282   1.077   4.363
 2767SOL    HW211098   3.239   1.082   4.449
 2767SOL    HW311099   3.295   1.168   4.337
 2767SOL    MW411100   3.278   1.090   4.371
 2768SOL     OW11101   2.153   0.947   4.474
 2768SOL    HW211102   2.132   1.040   4.473
 2768SOL    HW311103   2.068   0.904   4.483
 2768SOL    MW411104   2.139   0.953   4.475
 2769SOL     OW11105   2.597   1.420   4.600
 2769SOL    HW211106   2.623   1.444   4.689
 2769SOL    HW311107   2.679   1.398   4.555
 2769SOL    MW411108   2.611   1.420   4.606
 2770SOL     OW11109   2.542   1.704   4.549
 2770SOL    HW211110   2.613   1.730   4.490
 2770SOL    HW311111   2.554   1.609   4.560
 2770SOL    MW411112   2.553   1.695   4.543
 2771SOL     OW11113   2.284   1.813   4.519
 2771SOL    HW211114   2.368   1.774   4.543
 2771SOL    HW311115   2.274   1.792   4.426
 2771SOL    MW411116   2.294   1.805   4.509
 2772SOL     OW11117   2.208   2.203   4.859
 2772SOL    HW211118   2.262   2.267   4.906
 2772SOL    HW311119   2.135   2.254   4.824
 2772SOL    MW411120   2.205   2.218   4.861
 2773SOL     OW11121   2.315   2.081   4.641
 2773SOL    HW211122   2.269   1.998   4.626
 2773SOL    HW311123   2.282   2.112   4.726
 2773SOL    MW411124   2.305   2.074   4.650
 2774SOL     OW11125   2.681   2.542   4.433
 2774SOL    HW211126   2.595   2.528   4.474
 2774SOL    HW311127   2.687   2.638   4.424
 2774SOL    MW411128   2.670   2.553   4.437
 2775SOL     OW11129   1.619   2.745   4.446
 2775SOL    HW211130   1.667   2.667   4.418
 2775SOL    HW311131   1.544   2.711   4.495
 2775SOL    MW411132   1.615   2.730   4.449
 2776SOL     OW11133   2.217   2.939   4.805
 2776SOL    HW211134   2.274   3.012   4.783
 2776SOL    HW311135   2.193   2.901   4.720
 2776SOL    MW411136   2.221   2.943   4.791
 2777SOL     OW11137   2.721   3.422   4.550
 2777SOL    HW211138   2.728   3.385   4.638
 2777SOL    HW311139   2.641   3.475   4.552
 2777SOL    MW411140   2.711   3.424   4.562
 2778SOL     OW11141   2.640   3.086   4.631
 2778SOL    HW211142   2.678   3.146   4.696
 2778SOL    HW311143   2.649   2.999   4.670
 2778SOL    MW411144   2.646   3.082   4.645
 2779SOL     OW11145   1.564   4.129   4.560
 2779SOL    HW211146   1.570   4.098   4.650
 2779SOL    HW311147   1.645   4.099   4.519
 2779SOL    MW411148   1.575   4.121   4.566
 2780SOL     OW11149   2.991   4.111   4.493
 2780SOL    HW211150   2.921   4.048   4.510
 2780SOL    HW311151   3.052   4.064   4.436
 2780SOL    MW411152   2.990   4.096   4.488
 2781SOL     OW11153   2.024   3.113   4.699
 2781SOL    HW211154   2.055   3.077   4.616
 2781SOL    HW311155   2.063   3.056   4.766
 2781SOL    MW411156   2.033   3.100   4.697
 2782SOL     OW11157   3.310   3.876   4.553
 2782SOL    HW211158   3.276   3.920   4.631
 2782SOL    HW311159   3.281   3.785   4.563
 2782SOL    MW411160   3.302   3.870   4.565
 2783SOL     OW11161   3.285   4.058   4.769
 2783SOL    HW211162   3.248   4.135   4.726
 2783SOL    HW311163   3.241   4.055   4.854
 2783SOL    MW411164   3.274   4.068   4.775
 2784SOL     OW11165   2.220   4.192   4.632
 2784SOL    HW211166   2.255   4.114   4.588
 2784SOL    HW311167   2.248   4.182   4.723
 2784SOL    MW411168   2.228   4.180   4.639
 2785SOL     OW11169   2.365   4.422   4.543
 2785SOL    HW211170   2.322   4.341   4.570
 2785SOL    HW311171   2.395   4.405   4.454
 2785SOL    MW411172   2.363   4.409   4.535
 2786SOL     OW11173   2.964   0.430   4.229
 2786SOL    HW211174   3.030   0.375   4.186
 2786SOL    HW311175   2.880   0.389   4.207
 2786SOL    MW411176   2.962   0.417   4.220
 2787SOL     OW11177   3.013   4.496   4.708
 2787SOL    HW211178   3.056   4.411   4.700
 2787SOL    HW311179   2.941   4.493   4.645
 2787SOL    MW411180   3.010   4.485   4.698
 2788SOL     OW11181   2.584   4.532   4.695
 2788SOL    HW211182   2.514   4.499   4.639
 2788SOL    HW311183   2.565   4.497   4.781
 2788SOL    MW411184   2.572   4.523   4.699
 2789SOL     OW11185   2.864   1.058   4.614
 2789SOL    HW211186   2.897   0.977   4.576
 2789SOL    HW311187   2.769   1.053   4.602
 2789SOL    MW411188   2.855   1.046   4.608
 2790SOL     OW11189   2.995   0.309   4.880
 2790SOL    HW211190   2.992   0.367   4.804
 2790SOL    HW311191   2.980   0.367   4.955
 2790SOL    MW411192   2.993   0.324   4.880
 2791SOL     OW11193   1.806   0.590   4.577
 2791SOL    HW211194   1.849   0.509   4.548
 2791SOL    HW311195   1.851   0.659   4.529
 2791SOL    MW411196   1.818   0.588   4.567
 2792SOL     OW11197   2.594   1.017   4.529
 2792SOL    HW211198   2.561   0.932   4.556
 2792SOL    HW311199   2.638   1.001   4.446
 2792SOL    MW411200   2.596   1.004   4.522
 2793SOL     OW11201   3.051   1.458   4.452
 2793SOL    HW211202   2.970   1.407   4.456
 2793SOL    HW311203   3.096   1.427   4.374
 2793SOL    MW411204   3.046   1.447   4.442
 2794SOL     OW11205   3.041   1.740   4.473
 2794SOL    HW211206   2.947   1.757   4.479
 2794SOL    HW311207   3.049   1.646   4.490
 2794SOL    MW411208   3.030   1.730   4.476
 2795SOL     OW11209   2.783   1.773   4.412
 2795SOL    HW211210   2.760   1.866   4.414
 2795SOL    HW311211   2.755   1.742   4.326
 2795SOL    MW411212   2.776   1.781   4.401
 2796SOL     OW11213   2.492   2.192   4.462
 2796SOL    HW211214   2.482   2.283   4.492
 2796SOL    HW311215   2.434   2.141   4.518
 2796SOL    MW411216   2.483   2.197   4.474
 2797SOL     OW11217   2.734   2.041   4.436
 2797SOL    HW211218   2.645   2.075   4.440
 2797SOL    HW311219   2.752   2.035   4.342
 2797SOL    MW411220   2.725   2.045   4.424
 2798SOL     OW11221   2.957   2.210   4.434
 2798SOL    HW211222   2.897   2.140   4.460
 2798SOL    HW311223   2.916   2.250   4.358
 2798SOL    MW411224   2.944   2.206   4.428
 2799SOL     OW11225   2.456   2.736   4.664
 2799SOL    HW211226   2.399   2.703   4.734
 2799SOL    HW311227   2.403   2.802   4.619
 2799SOL    MW411228   2.441   2.741   4.667
 2800SOL     OW11229   3.843   3.577   4.807
 2800SOL    HW211230   3.849   3.513   4.879
 2800SOL    HW311231   3.873   3.529   4.730
 2800SOL    MW411232   3.848   3.562   4.807
 2801SOL     OW11233   2.749   2.824   4.382
 2801SOL    HW211234   2.808   2.851   4.311
 2801SOL    HW311235   2.664   2.858   4.357
 2801SOL    MW411236   2.746   2.832   4.369
 2802SOL     OW11237   2.806   3.274   4.789
 2802SOL    HW211238   2.895   3.261   4.756
 2802SOL    HW311239   2.818   3.292   4.882
 2802SOL    MW411240   2.820   3.274   4.797
 2803SOL     OW11241   3.086   2.965   4.574
 2803SOL    HW211242   3.164   2.914   4.550
 2803SOL    HW311243   3.027   2.901   4.614
 2803SOL    MW411244   3.089   2.950   4.576
 2804SOL     OW11245   2.653   0.410   4.587
 2804SOL    HW211246   2.666   0.415   4.492
 2804SOL    HW311247   2.632   0.318   4.603
 2804SOL    MW411248   2.652   0.398   4.576
 2805SOL     OW11249   3.547   4.168   4.815
 2805SOL    HW211250   3.461   4.126   4.804
 2805SOL    HW311251   3.562   4.214   4.733
 2805SOL    MW411252   3.538   4.168   4.803
 2806SOL     OW11253   3.947   3.740   4.444
 2806SOL    HW211254   3.896   3.719   4.365
 2806SOL    HW311255   3.969   3.655   4.481
 2806SOL    MW411256   3.943   3.726   4.439
 2807SOL     OW11257   2.915   3.615   4.484
 2807SOL    HW211258   2.861   3.546   4.521
 2807SOL    HW311259   2.867   3.696   4.501
 2807SOL    MW411260   2.902   3.617   4.491
 2808SOL     OW11261   3.161   4.275   4.638
 2808SOL    HW211262   3.094   4.231   4.587
 2808SOL    HW311263   3.210   4.326   4.574
 2808SOL    MW411264   3.159   4.276   4.623
 2809SOL     OW11265   3.022   0.419   4.496
 2809SOL    HW211266   2.989   0.429   4.407
 2809SOL    HW311267   3.039   0.325   4.505
 2809SOL    MW411268   3.020   0.408   4.485
 2810SOL     OW11269   2.990   0.791   4.542
 2810SOL    HW211270   3.085   0.782   4.544
 2810SOL    HW311271   2.958   0.721   4.598
 2810SOL    MW411272   2.998   0.781   4.549
 2811SOL     OW11273   2.391   0.541   4.552
 2811SOL    HW211274   2.482   0.513   4.568
 2811SOL    HW311275   2.384   0.625   4.597
 2811SOL    MW411276   2.402   0.548   4.560
 2812SOL     OW11277   2.428   1.231   4.464
 2812SOL    HW211278   2.483   1.156   4.488
 2812SOL    HW311279   2.467   1.305   4.511
 2812SOL    MW411280   2.441   1.231   4.473
 2813SOL     OW11281   2.806   4.484   4.530
 2813SOL    HW211282   2.731   4.479   4.589
 2813SOL    HW311283   2.811   4.576   4.506
 2813SOL    MW411284   2.796   4.495   4.535
 2814SOL     OW11285   2.796   0.092   4.459
 2814SOL    HW211286   2.760   0.074   4.372
 2814SOL    HW311287   2.720   0.113   4.513
 2814SOL    MW411288   2.781   0.092   4.455
 2815SOL     OW11289   3.258   1.363   4.640
 2815SOL    HW211290   3.246   1.269   4.643
 2815SOL    HW311291   3.191   1.395   4.580
 2815SOL    MW411292   3.248   1.355   4.633
 2816SOL     OW11293   2.822   1.306   4.463
 2816SOL    HW211294   2.841   1.218   4.496
 2816SOL    HW311295   2.836   1.299   4.368
 2816SOL    MW411296   2.827   1.293   4.455
 2817SOL     OW11297   4.089   0.934   4.503
 2817SOL    HW211298   4.071   0.914   4.411
 2817SOL    HW311299   4.163   0.877   4.526
 2817SOL    MW411300   4.097   0.924   4.494
 2818SOL     OW11301   3.494   1.407   4.497
 2818SOL    HW211302   3.504   1.502   4.491
 2818SOL    HW311303   3.422   1.395   4.560
 2818SOL    MW411304   3.486   1.418   4.505
 2819SOL     OW11305   3.281   1.882   4.500
 2819SOL    HW211306   3.273   1.977   4.500
 2819SOL    HW311307   3.190   1.850   4.497
 2819SOL    MW411308   3.268   1.890   4.500
 2820SOL     OW11309   3.251   2.154   4.470
 2820SOL    HW211310   3.155   2.160   4.470
 2820SOL    HW311311   3.273   2.121   4.383
 2820SOL    MW411312   3.241   2.151   4.458
 2821SOL     OW11313   3.543   1.685   4.472
 2821SOL    HW211314   3.469   1.745   4.486
 2821SOL    HW311315   3.573   1.705   4.383
 2821SOL    MW411316   3.537   1.696   4.462
 2822SOL     OW11317   2.929   2.747   4.607
 2822SOL    HW211318   2.881   2.768   4.527
 2822SOL    HW311319   2.951   2.654   4.599
 2822SOL    MW411320   2.926   2.738   4.596
 2823SOL     OW11321   3.216   2.525   4.472
 2823SOL    HW211322   3.148   2.487   4.528
 2823SOL    HW311323   3.187   2.504   4.383
 2823SOL    MW411324   3.203   2.517   4.468
 2824SOL     OW11325   2.920   2.474   4.560
 2824SOL    HW211326   2.831   2.483   4.527
 2824SOL    HW311327   2.944   2.383   4.541
 2824SOL    MW411328   2.912   2.463   4.553
 2825SOL     OW11329   3.818   3.005   4.470
 2825SOL    HW211330   3.818   3.096   4.498
 2825SOL    HW311331   3.877   2.961   4.531
 2825SOL    MW411332   3.826   3.011   4.482
 2826SOL     OW11333   3.438   3.114   4.590
 2826SOL    HW211334   3.467   3.128   4.680
 2826SOL    HW311335   3.408   3.022   4.590
 2826SOL    MW411336   3.438   3.103   4.602
 2827SOL     OW11337   3.612   2.811   4.552
 2827SOL    HW211338   3.524   2.818   4.515
 2827SOL    HW311339   3.659   2.886   4.516
 2827SOL    MW411340   3.606   2.822   4.542
 2828SOL     OW11341   3.929   2.823   4.649
 2828SOL    HW211342   3.883   2.746   4.618
 2828SOL    HW311343   4.022   2.804   4.633
 2828SOL    MW411344   3.936   2.811   4.643
 2829SOL     OW11345   3.729   2.926   4.828
 2829SOL    HW211346   3.693   2.885   4.749
 2829SOL    HW311347   3.820   2.898   4.830
 2829SOL    MW411348   3.736   2.917   4.818
 2830SOL     OW11349   3.551   4.265   4.526
 2830SOL    HW211350   3.640   4.300   4.514
 2830SOL    HW311351   3.563   4.170   4.526
 2830SOL    MW411352   3.565   4.257   4.525
 2831SOL     OW11353   3.071   0.161   4.482
 2831SOL    HW211354   2.977   0.142   4.481
 2831SOL    HW311355   3.100   0.130   4.568
 2831SOL    MW411356   3.062   0.155   4.493
 2832SOL     OW11357   3.139   0.097   4.740
 2832SOL    HW211358   3.103   0.008   4.736
 2832SOL    HW311359   3.079   0.146   4.796
 2832SOL    MW411360   3.127   0.091   4.747
 2833SOL     OW11361   3.334   4.417   4.478
 2833SOL    HW211362   3.409   4.360   4.499
 2833SOL    HW311363   3.369   4.506   4.483
 2833SOL    MW411364   3.349   4.421   4.481
 2834SOL     OW11365   3.558   3.981   4.517
 2834SOL    HW211366   3.623   3.940   4.574
 2834SOL    HW311367   3.474   3.944   4.545
 2834SOL    MW411368   3.556   3.970   4.528
 2835SOL     OW11369   3.496   4.647   4.497
 2835SOL    HW211370   3.460   4.711   4.558
 2835SOL    HW311371   3.508   4.696   4.415
 2835SOL    MW411372   3.492   4.662   4.494
 2836SOL     OW11373   3.366   0.911   4.743
 2836SOL    HW211374   3.448   0.921   4.694
 2836SOL    HW311375   3.386   0.942   4.831
 2836SOL    MW411376   3.380   0.917   4.748
 2837SOL     OW11377   2.565   0.140   4.629
 2837SOL    HW211378   2.477   0.143   4.593
 2837SOL    HW311379   2.564   0.067   4.691
 2837SOL    MW411380   2.553   0.131   4.632
 2838SOL     OW11381   4.170   1.561   4.413
 2838SOL    HW211382   4.232   1.543   4.483
 2838SOL    HW311383   4.206   1.516   4.336
 2838SOL    MW411384   4.183   1.552   4.412
 2839SOL     OW11385   3.847   0.840   4.582
 2839SOL    HW211386   3.812   0.779   4.517
 2839SOL    HW311387   3.922   0.880   4.539
 2839SOL    MW411388   3.852   0.837   4.568
 2840SOL     OW11389   4.454   0.903   4.540
 2840SOL    HW211390   4.489   0.915   4.452
 2840SOL    HW311391   4.522   0.854   4.587
 2840SOL    MW411392   4.468   0.898   4.535
 2841SOL     OW11393   4.329   0.454   4.508
 2841SOL    HW211394   4.325   0.486   4.418
 2841SOL    HW311395   4.250   0.401   4.518
 2841SOL    MW411396   4.318   0.451   4.497
 2842SOL     OW11397   3.611   1.709   4.193
 2842SOL    HW211398   3.682   1.655   4.158
 2842SOL    HW311399   3.531   1.659   4.174
 2842SOL    MW411400   3.610   1.695   4.186
 2843SOL     OW11401   3.956   1.731   4.319
 2843SOL    HW211402   4.025   1.683   4.365
 2843SOL    HW311403   3.897   1.760   4.389
 2843SOL    MW411404   3.958   1.729   4.335
 2844SOL     OW11405   3.720   2.360   4.465
 2844SOL    HW211406   3.634   2.353   4.508
 2844SOL    HW311407   3.757   2.272   4.473
 2844SOL    MW411408   3.713   2.347   4.472
 2845SOL     OW11409   3.771   1.825   4.556
 2845SOL    HW211410   3.693   1.772   4.538
 2845SOL    HW311411   3.787   1.813   4.650
 2845SOL    MW411412   3.762   1.817   4.566
 2846SOL     OW11413   0.313   1.945   4.721
 2846SOL    HW211414   0.333   2.035   4.695
 2846SOL    HW311415   0.218   1.937   4.707
 2846SOL    MW411416   0.303   1.956   4.716
 2847SOL     OW11417   3.848   2.112   4.461
 2847SOL    HW211418   3.939   2.097   4.435
 2847SOL    HW311419   3.828   2.039   4.520
 2847SOL    MW411420   3.857   2.101   4.466
 2848SOL     OW11421   3.799   2.606   4.532
 2848SOL    HW211422   3.779   2.513   4.521
 2848SOL    HW311423   3.716   2.651   4.515
 2848SOL    MW411424   3.786   2.600   4.528
 2849SOL     OW11425   4.062   2.543   4.489
 2849SOL    HW211426   3.967   2.546   4.493
 2849SOL    HW311427   4.090   2.631   4.514
 2849SOL    MW411428   4.053   2.555   4.493
 2850SOL     OW11429   4.461   2.937   4.593
 2850SOL    HW211430   4.446   3.032   4.584
 2850SOL    HW311431   4.521   2.930   4.668
 2850SOL    MW411432   4.467   2.949   4.602
 2851SOL     OW11433   3.308   3.349   4.530
 2851SOL    HW211434   3.264   3.330   4.447
 2851SOL    HW311435   3.348   3.265   4.555
 2851SOL    MW411436   3.308   3.335   4.522
 2852SOL     OW11437   3.625   3.175   4.818
 2852SOL    HW211438   3.665   3.088   4.826
 2852SOL    HW311439   3.654   3.221   4.897
 2852SOL    MW411440   3.634   3.169   4.830
 2853SOL     OW11441   3.201   3.624   4.509
 2853SOL    HW211442   3.107   3.610   4.496
 2853SOL    HW311443   3.237   3.535   4.515
 2853SOL    MW411444   3.193   3.610   4.508
 2854SOL     OW11445   4.226   3.337   4.538
 2854SOL    HW211446   4.225   3.418   4.487
 2854SOL    HW311447   4.187   3.272   4.480
 2854SOL    MW411448   4.221   3.339   4.523
 2855SOL     OW11449   0.377   2.933   4.548
 2855SOL    HW211450   0.334   2.939   4.463
 2855SOL    HW311451   0.413   3.020   4.563
 2855SOL    MW411452   0.376   2.945   4.539
 2856SOL     OW11453   4.307   3.827   4.437
 2856SOL    HW211454   4.242   3.875   4.488
 2856SOL    HW311455   4.296   3.858   4.347
 2856SOL    MW411456   4.297   3.837   4.432
 2857SOL     OW11457   3.811   4.367   4.492
 2857SOL    HW211458   3.833   4.349   4.401
 2857SOL    HW311459   3.809   4.462   4.498
 2857SOL    MW411460   3.814   4.377   4.481
 2858SOL     OW11461   3.375   0.202   4.615
 2858SOL    HW211462   3.300   0.165   4.662
 2858SOL    HW311463   3.345   0.288   4.588
 2858SOL    MW411464   3.361   0.208   4.618
 2859SOL     OW11465   3.632   0.974   4.656
 2859SOL    HW211466   3.648   1.068   4.646
 2859SOL    HW311467   3.711   0.932   4.621
 2859SOL    MW411468   3.645   0.981   4.650
 2860SOL     OW11469   3.256   0.748   4.535
 2860SOL    HW211470   3.270   0.654   4.544
 2860SOL    HW311471   3.303   0.786   4.609
 2860SOL    MW411472   3.264   0.741   4.546
 2861SOL     OW11473   0.041   0.251   4.590
 2861SOL    HW211474   0.114   0.311   4.577
 2861SOL    HW311475  -0.034   0.295   4.550
 2861SOL    MW411476   0.041   0.264   4.583
 2862SOL     OW11477   0.233   0.478   4.535
 2862SOL    HW211478   0.319   0.450   4.567
 2862SOL    HW311479   0.240   0.472   4.440
 2862SOL    MW411480   0.245   0.474   4.527
 2863SOL     OW11481   4.029   0.364   4.503
 2863SOL    HW211482   4.012   0.416   4.581
 2863SOL    HW311483   4.015   0.273   4.530
 2863SOL    MW411484   4.025   0.359   4.517
 2864SOL     OW11485   3.713   1.235   4.587
 2864SOL    HW211486   3.650   1.297   4.551
 2864SOL    HW311487   3.797   1.281   4.581
 2864SOL    MW411488   3.716   1.250   4.581
 2865SOL     OW11489   4.475   1.222   4.575
 2865SOL    HW211490   4.564   1.244   4.547
 2865SOL    HW311491   4.478   1.128   4.594
 2865SOL    MW411492   4.487   1.212   4.574
 2866SOL     OW11493   4.350   1.487   4.597
 2866SOL    HW211494   4.424   1.537   4.563
 2866SOL    HW311495   4.379   1.395   4.592
 2866SOL    MW411496   4.364   1.481   4.592
 2867SOL     OW11497   3.980   1.361   4.488
 2867SOL    HW211498   4.028   1.444   4.485
 2867SOL    HW311499   4.042   1.299   4.528
 2867SOL    MW411500   3.995   1.363   4.493
 2868SOL     OW11501   3.335   2.835   4.517
 2868SOL    HW211502   3.321   2.755   4.567
 2868SOL    HW311503   3.330   2.808   4.426
 2868SOL    MW411504   3.333   2.821   4.512
 2869SOL     OW11505   4.191   2.041   4.168
 2869SOL    HW211506   4.123   1.976   4.150
 2869SOL    HW311507   4.177   2.067   4.259
 2869SOL    MW411508   4.180   2.036   4.178
 2870SOL     OW11509   0.138   2.140   4.477
 2870SOL    HW211510   0.224   2.162   4.513
 2870SOL    HW311511   0.096   2.225   4.460
 2870SOL    MW411512   0.144   2.154   4.479
 2871SOL     OW11513   4.149   2.081   4.435
 2871SOL    HW211514   4.180   2.000   4.476
 2871SOL    HW311515   4.179   2.150   4.494
 2871SOL    MW411516   4.157   2.079   4.448
 2872SOL     OW11517   3.440   2.371   4.514
 2872SOL    HW211518   3.373   2.434   4.489
 2872SOL    HW311519   3.395   2.287   4.516
 2872SOL    MW411520   3.426   2.368   4.511
 2873SOL     OW11521   0.532   2.695   4.618
 2873SOL    HW211522   0.464   2.634   4.589
 2873SOL    HW311523   0.500   2.781   4.590
 2873SOL    MW411524   0.518   2.699   4.611
 2874SOL     OW11525   4.199   2.788   4.554
 2874SOL    HW211526   4.283   2.818   4.589
 2874SOL    HW311527   4.197   2.824   4.465
 2874SOL    MW411528   4.210   2.797   4.547
 2875SOL     OW11529   0.147   2.632   4.564
 2875SOL    HW211530   0.136   2.670   4.651
 2875SOL    HW311531   0.137   2.706   4.504
 2875SOL    MW411532   0.144   2.647   4.567
 2876SOL     OW11533   0.206   3.603   4.548
 2876SOL    HW211534   0.297   3.627   4.560
 2876SOL    HW311535   0.198   3.580   4.455
 2876SOL    MW411536   0.217   3.603   4.537
 2877SOL     OW11537   3.771   4.633   4.606
 2877SOL    HW211538   3.754   4.620   4.700
 2877SOL    HW311539   3.684   4.641   4.567
 2877SOL    MW411540   3.757   4.632   4.613
 2878SOL     OW11541   4.055   4.467   4.844
 2878SOL    HW211542   4.018   4.398   4.789
 2878SOL    HW311543   4.063   4.426   4.931
 2878SOL    MW411544   4.052   4.453   4.848
 2879SOL     OW11545   3.981   3.459   4.597
 2879SOL    HW211546   3.920   3.388   4.578
 2879SOL    HW311547   4.068   3.418   4.594
 2879SOL    MW411548   3.985   3.444   4.594
 2880SOL     OW11549   2.888   0.541   4.703
 2880SOL    HW211550   2.794   0.529   4.692
 2880SOL    HW311551   2.927   0.492   4.630
 2880SOL    MW411552   2.881   0.533   4.692
 2881SOL     OW11553   4.290   4.382   4.267
 2881SOL    HW211554   4.371   4.338   4.241
 2881SOL    HW311555   4.275   4.352   4.357
 2881SOL    MW411556   4.299   4.372   4.275
 2882NA      NA11557   2.768   4.252   0.656
 2883NA      NA11558   0.710   2.081   0.335
   4.49070   4.66690  10.00000
