Gromacs Runs On Most of All Computer Systems in water t= 390.00000 step= 390000
11558
    1RG35     P    1   2.110   2.839   4.507
    1RG35   O1P    2   2.118   2.750   4.392
    1RG35   O2P    3   2.006   2.943   4.492
    1RG35   O5'    4   2.057   2.746   4.622
    1RG35   C5'    5   1.957   2.779   4.724
    1RG35  H5'1    6   1.863   2.807   4.677
    1RG35  H5'2    7   1.988   2.864   4.785
    1RG35   C4'    8   1.931   2.661   4.811
    1RG35   H4'    9   1.847   2.675   4.880
    1RG35   O4'   10   1.892   2.552   4.731
    1RG35   C1'   11   1.967   2.442   4.763
    1RG35   H1'   12   1.909   2.385   4.836
    1RG35    N9   13   1.984   2.361   4.639
    1RG35    C8   14   2.054   2.400   4.530
    1RG35    H8   15   2.103   2.496   4.522
    1RG35    N7   16   2.054   2.315   4.435
    1RG35    C5   17   1.977   2.205   4.482
    1RG35    C6   18   1.947   2.078   4.426
    1RG35    O6   19   1.975   2.028   4.321
    1RG35    N1   20   1.864   1.999   4.511
    1RG35    H1   21   1.846   1.901   4.494
    1RG35    C2   22   1.826   2.043   4.629
    1RG35    N2   23   1.769   1.960   4.713
    1RG35   H21   24   1.731   1.875   4.675
    1RG35   H22   25   1.738   2.003   4.799
    1RG35    N3   26   1.862   2.155   4.691
    1RG35    C4   27   1.934   2.237   4.610
    1RG35   C3'   28   2.057   2.620   4.892
    1RG35   H3'   29   2.129   2.700   4.882
    1RG35   C2'   30   2.100   2.486   4.833
    1RG35  H2'1   31   2.180   2.503   4.761
    1RG35   O2'   32   2.146   2.398   4.933
    1RG35  HO'2   33   2.196   2.327   4.891
    1RG35   O3'   34   2.024   2.597   5.033
    1RG35   H3T   35   2.081   2.524   5.061
    1RG35   O3P   36   2.244   2.882   4.550
    2SOL     OW   37   0.470   0.147   0.491
    2SOL    HW2   38   0.482   0.054   0.472
    2SOL    HW3   39   0.552   0.188   0.463
    2SOL    MW4   40   0.483   0.140   0.484
    3SOL     OW   41   4.015   0.042   0.462
    3SOL    HW2   42   4.104   0.045   0.425
    3SOL    HW3   43   3.985  -0.048   0.444
    3SOL    MW4   44   4.023   0.030   0.455
    4SOL     OW   45   3.842   0.444   0.475
    4SOL    HW2   46   3.777   0.501   0.435
    4SOL    HW3   47   3.818   0.440   0.567
    4SOL    MW4   48   3.830   0.451   0.481
    5SOL     OW   49   0.363   1.520   0.429
    5SOL    HW2   50   0.340   1.427   0.421
    5SOL    HW3   51   0.282   1.567   0.410
    5SOL    MW4   52   0.349   1.514   0.426
    6SOL     OW   53   1.501   0.855   0.509
    6SOL    HW2   54   1.528   0.943   0.485
    6SOL    HW3   55   1.411   0.864   0.538
    6SOL    MW4   56   1.493   0.868   0.509
    7SOL     OW   57   0.241   0.566   0.508
    7SOL    HW2   58   0.235   0.552   0.602
    7SOL    HW3   59   0.245   0.478   0.471
    7SOL    MW4   60   0.241   0.553   0.516
    8SOL     OW   61   0.463   0.970   0.455
    8SOL    HW2   62   0.466   0.961   0.550
    8SOL    HW3   63   0.439   0.883   0.423
    8SOL    MW4   64   0.460   0.957   0.463
    9SOL     OW   65   0.900   0.872   0.445
    9SOL    HW2   66   0.892   0.883   0.540
    9SOL    HW3   67   0.831   0.927   0.408
    9SOL    MW4   68   0.890   0.880   0.453
   10SOL     OW   69   0.717   1.066   0.332
   10SOL    HW2   70   0.715   1.055   0.237
   10SOL    HW3   71   0.638   1.023   0.363
   10SOL    MW4   72   0.707   1.059   0.324
   11SOL     OW   73   0.227   1.870   0.377
   11SOL    HW2   74   0.178   1.789   0.363
   11SOL    HW3   75   0.305   1.861   0.322
   11SOL    MW4   76   0.231   1.858   0.368
   12SOL     OW   77   4.076   2.219   0.547
   12SOL    HW2   78   3.986   2.222   0.580
   12SOL    HW3   79   4.116   2.146   0.595
   12SOL    MW4   80   4.069   2.210   0.558
   13SOL     OW   81   0.113   1.609   0.297
   13SOL    HW2   82   0.091   1.522   0.264
   13SOL    HW3   83   0.040   1.631   0.356
   13SOL    MW4   84   0.100   1.601   0.301
   14SOL     OW   85   0.454   2.382   0.252
   14SOL    HW2   86   0.467   2.475   0.233
   14SOL    HW3   87   0.367   2.378   0.291
   14SOL    MW4   88   0.444   2.394   0.255
   15SOL     OW   89   0.202   2.793   0.460
   15SOL    HW2   90   0.285   2.758   0.429
   15SOL    HW3   91   0.182   2.864   0.399
   15SOL    MW4   92   0.210   2.798   0.448
   16SOL     OW   93   4.179   3.267   0.454
   16SOL    HW2   94   4.160   3.266   0.548
   16SOL    HW3   95   4.259   3.214   0.446
   16SOL    MW4   96   4.187   3.259   0.465
   17SOL     OW   97   0.116   3.011   0.303
   17SOL    HW2   98   0.080   2.999   0.215
   17SOL    HW3   99   0.160   3.096   0.299
   17SOL    MW4  100   0.117   3.020   0.291
   18SOL     OW  101   0.429   3.378   0.415
   18SOL    HW2  102   0.459   3.287   0.413
   18SOL    HW3  103   0.509   3.429   0.424
   18SOL    MW4  104   0.443   3.373   0.416
   19SOL     OW  105   0.640   3.812   0.374
   19SOL    HW2  106   0.693   3.824   0.294
   19SOL    HW3  107   0.672   3.880   0.434
   19SOL    MW4  108   0.651   3.823   0.371
   20SOL     OW  109   4.204   3.798   0.416
   20SOL    HW2  110   4.265   3.848   0.471
   20SOL    HW3  111   4.227   3.707   0.433
   20SOL    MW4  112   4.215   3.793   0.425
   21SOL     OW  113   0.088   3.780   0.212
   21SOL    HW2  114   0.180   3.797   0.233
   21SOL    HW3  115   0.064   3.849   0.150
   21SOL    MW4  116   0.097   3.791   0.207
   22SOL     OW  117   4.435   4.439   0.446
   22SOL    HW2  118   4.391   4.373   0.393
   22SOL    HW3  119   4.386   4.441   0.528
   22SOL    MW4  120   4.423   4.431   0.450
   23SOL     OW  121   4.353   4.231   0.280
   23SOL    HW2  122   4.386   4.150   0.317
   23SOL    HW3  123   4.258   4.223   0.284
   23SOL    MW4  124   4.345   4.220   0.285
   24SOL     OW  125   4.479   4.000   0.397
   24SOL    HW2  126   4.438   3.968   0.477
   24SOL    HW3  127   4.510   3.921   0.353
   24SOL    MW4  128   4.478   3.985   0.402
   25SOL     OW  129   0.545   3.151   0.497
   25SOL    HW2  130   0.524   3.191   0.581
   25SOL    HW3  131   0.634   3.181   0.478
   25SOL    MW4  132   0.554   3.160   0.505
   26SOL     OW  133   0.485   4.543   0.425
   26SOL    HW2  134   0.403   4.499   0.445
   26SOL    HW3  135   0.487   4.550   0.330
   26SOL    MW4  136   0.475   4.538   0.415
   27SOL     OW  137   0.209   0.305   0.389
   27SOL    HW2  138   0.130   0.252   0.402
   27SOL    HW3  139   0.278   0.258   0.436
   27SOL    MW4  140   0.208   0.292   0.397
   28SOL     OW  141   0.004   0.655   0.357
   28SOL    HW2  142   0.016   0.641   0.263
   28SOL    HW3  143   0.089   0.630   0.395
   28SOL    MW4  144   0.017   0.649   0.349
   29SOL     OW  145   0.934   4.445   0.476
   29SOL    HW2  146   0.998   4.441   0.547
   29SOL    HW3  147   0.857   4.399   0.510
   29SOL    MW4  148   0.932   4.438   0.490
   30SOL     OW  149   1.120   1.047   0.454
   30SOL    HW2  150   1.052   0.982   0.437
   30SOL    HW3  151   1.161   1.018   0.535
   30SOL    MW4  152   1.117   1.035   0.462
   31SOL     OW  153   0.686   0.544   0.452
   31SOL    HW2  154   0.760   0.577   0.403
   31SOL    HW3  155   0.653   0.471   0.400
   31SOL    MW4  156   0.691   0.539   0.439
   32SOL     OW  157   0.290   1.236   0.459
   32SOL    HW2  158   0.335   1.153   0.443
   32SOL    HW3  159   0.198   1.216   0.445
   32SOL    MW4  160   0.284   1.222   0.455
   33SOL     OW  161   0.097   2.117   0.415
   33SOL    HW2  162   0.019   2.113   0.360
   33SOL    HW3  163   0.149   2.041   0.388
   33SOL    MW4  164   0.094   2.107   0.404
   34SOL     OW  165   0.665   2.092   0.241
   34SOL    HW2  166   0.657   2.090   0.145
   34SOL    HW3  167   0.748   2.049   0.259
   34SOL    MW4  168   0.675   2.086   0.231
   35SOL     OW  169   0.831   2.692   0.175
   35SOL    HW2  170   0.875   2.770   0.208
   35SOL    HW3  171   0.825   2.634   0.251
   35SOL    MW4  172   0.836   2.694   0.190
   36SOL     OW  173   0.574   2.647   0.178
   36SOL    HW2  174   0.534   2.679   0.098
   36SOL    HW3  175   0.663   2.684   0.177
   36SOL    MW4  176   0.581   2.656   0.167
   37SOL     OW  177   3.948   2.204   0.294
   37SOL    HW2  178   3.975   2.187   0.385
   37SOL    HW3  179   4.022   2.248   0.255
   37SOL    MW4  180   3.961   2.207   0.301
   38SOL     OW  181   1.387   2.443   0.479
   38SOL    HW2  182   1.345   2.370   0.433
   38SOL    HW3  183   1.368   2.520   0.425
   38SOL    MW4  184   1.379   2.444   0.466
   39SOL     OW  185   0.632   2.491   0.516
   39SOL    HW2  186   0.577   2.565   0.489
   39SOL    HW3  187   0.720   2.528   0.519
   39SOL    MW4  188   0.636   2.506   0.513
   40SOL     OW  189   4.425   3.108   0.491
   40SOL    HW2  190   4.490   3.091   0.423
   40SOL    HW3  191   4.382   3.024   0.505
   40SOL    MW4  192   4.428   3.095   0.484
   41SOL     OW  193   0.463   2.708   0.428
   41SOL    HW2  194   0.483   2.689   0.336
   41SOL    HW3  195   0.529   2.772   0.454
   41SOL    MW4  196   0.474   2.714   0.419
   42SOL     OW  197   0.900   0.350   0.204
   42SOL    HW2  198   0.929   0.374   0.116
   42SOL    HW3  199   0.893   0.434   0.250
   42SOL    MW4  200   0.903   0.364   0.199
   43SOL     OW  201   0.289   3.592   0.509
   43SOL    HW2  202   0.317   3.670   0.462
   43SOL    HW3  203   0.334   3.520   0.464
   43SOL    MW4  204   0.298   3.592   0.497
   44SOL     OW  205   0.650   3.564   0.466
   44SOL    HW2  206   0.629   3.642   0.416
   44SOL    HW3  207   0.641   3.592   0.558
   44SOL    MW4  208   0.646   3.578   0.472
   45SOL     OW  209   1.153   3.560   0.472
   45SOL    HW2  210   1.071   3.525   0.437
   45SOL    HW3  211   1.213   3.485   0.472
   45SOL    MW4  212   1.150   3.545   0.468
   46SOL     OW  213   0.238   4.385   0.462
   46SOL    HW2  214   0.143   4.395   0.453
   46SOL    HW3  215   0.254   4.292   0.445
   46SOL    MW4  216   0.228   4.374   0.459
   47SOL     OW  217   0.895   3.473   0.374
   47SOL    HW2  218   0.900   3.531   0.298
   47SOL    HW3  219   0.820   3.506   0.424
   47SOL    MW4  220   0.886   3.485   0.371
   48SOL     OW  221   0.677   4.348   0.508
   48SOL    HW2  222   0.629   4.425   0.476
   48SOL    HW3  223   0.666   4.352   0.603
   48SOL    MW4  224   0.669   4.359   0.516
   49SOL     OW  225   0.714   0.249   0.381
   49SOL    HW2  226   0.767   0.174   0.407
   49SOL    HW3  227   0.747   0.273   0.295
   49SOL    MW4  228   0.726   0.242   0.373
   50SOL     OW  229   0.932   0.631   0.295
   50SOL    HW2  230   0.921   0.717   0.337
   50SOL    HW3  231   1.020   0.604   0.320
   50SOL    MW4  232   0.942   0.639   0.304
   51SOL     OW  233   0.460   0.698   0.387
   51SOL    HW2  234   0.394   0.667   0.450
   51SOL    HW3  235   0.542   0.658   0.418
   51SOL    MW4  236   0.462   0.688   0.400
   52SOL     OW  237   1.434   0.545   0.484
   52SOL    HW2  238   1.478   0.624   0.454
   52SOL    HW3  239   1.480   0.520   0.564
   52SOL    MW4  240   1.446   0.552   0.491
   53SOL     OW  241   1.948   0.840   0.524
   53SOL    HW2  242   1.867   0.809   0.483
   53SOL    HW3  243   1.922   0.864   0.612
   53SOL    MW4  244   1.934   0.839   0.530
   54SOL     OW  245   1.715   0.699   0.430
   54SOL    HW2  246   1.644   0.755   0.464
   54SOL    HW3  247   1.692   0.686   0.338
   54SOL    MW4  248   1.702   0.705   0.422
   55SOL     OW  249   0.870   1.696   0.467
   55SOL    HW2  250   0.788   1.650   0.452
   55SOL    HW3  251   0.880   1.695   0.562
   55SOL    MW4  252   0.861   1.690   0.478
   56SOL     OW  253   0.736   1.305   0.476
   56SOL    HW2  254   0.716   1.221   0.434
   56SOL    HW3  255   0.831   1.309   0.478
   56SOL    MW4  256   0.746   1.294   0.471
   57SOL     OW  257   1.305   1.455   0.310
   57SOL    HW2  258   1.287   1.465   0.216
   57SOL    HW3  259   1.256   1.526   0.351
   57SOL    MW4  260   1.296   1.466   0.303
   58SOL     OW  261   1.025   1.317   0.453
   58SOL    HW2  262   1.058   1.233   0.422
   58SOL    HW3  263   1.080   1.382   0.408
   58SOL    MW4  264   1.037   1.315   0.443
   59SOL     OW  265   1.109   1.635   0.364
   59SOL    HW2  266   1.175   1.695   0.400
   59SOL    HW3  267   1.026   1.666   0.400
   59SOL    MW4  268   1.107   1.647   0.374
   60SOL     OW  269   4.365   2.118   0.270
   60SOL    HW2  270   4.323   2.202   0.285
   60SOL    HW3  271   4.381   2.115   0.176
   60SOL    MW4  272   4.362   2.129   0.260
   61SOL     OW  273   0.524   1.863   0.365
   61SOL    HW2  274   0.556   1.786   0.318
   61SOL    HW3  275   0.580   1.935   0.334
   61SOL    MW4  276   0.536   1.862   0.355
   62SOL     OW  277   0.790   2.204   0.528
   62SOL    HW2  278   0.765   2.249   0.608
   62SOL    HW3  279   0.866   2.151   0.552
   62SOL    MW4  280   0.797   2.203   0.541
   63SOL     OW  281   0.450   2.200   0.512
   63SOL    HW2  282   0.446   2.117   0.559
   63SOL    HW3  283   0.359   2.232   0.513
   63SOL    MW4  284   0.437   2.193   0.518
   64SOL     OW  285   0.940   2.531   0.519
   64SOL    HW2  286   0.993   2.500   0.446
   64SOL    HW3  287   0.955   2.467   0.589
   64SOL    MW4  288   0.949   2.518   0.519
   65SOL     OW  289   0.801   2.392   0.222
   65SOL    HW2  290   0.896   2.381   0.222
   65SOL    HW3  291   0.781   2.424   0.134
   65SOL    MW4  292   0.811   2.395   0.210
   66SOL     OW  293   0.649   2.892   0.507
   66SOL    HW2  294   0.609   2.978   0.503
   66SOL    HW3  295   0.663   2.875   0.600
   66SOL    MW4  296   0.646   2.901   0.519
   67SOL     OW  297   0.815   3.212   0.443
   67SOL    HW2  298   0.844   3.214   0.535
   67SOL    HW3  299   0.849   3.293   0.405
   67SOL    MW4  300   0.823   3.223   0.450
   68SOL     OW  301   2.072   3.606   0.475
   68SOL    HW2  302   2.045   3.609   0.567
   68SOL    HW3  303   2.023   3.531   0.438
   68SOL    MW4  304   2.062   3.596   0.482
   69SOL     OW  305   0.945   3.969   0.535
   69SOL    HW2  306   0.853   3.990   0.524
   69SOL    HW3  307   0.962   3.984   0.628
   69SOL    MW4  308   0.935   3.974   0.546
   70SOL     OW  309   0.675   4.042   0.521
   70SOL    HW2  310   0.611   4.049   0.592
   70SOL    HW3  311   0.687   4.132   0.490
   70SOL    MW4  312   0.668   4.055   0.526
   71SOL     OW  313   1.109   4.185   0.393
   71SOL    HW2  314   1.053   4.122   0.439
   71SOL    HW3  315   1.050   4.257   0.370
   71SOL    MW4  316   1.094   4.186   0.396
   72SOL     OW  317   1.155   0.507   0.431
   72SOL    HW2  318   1.144   0.412   0.422
   72SOL    HW3  319   1.247   0.519   0.451
   72SOL    MW4  320   1.165   0.496   0.433
   73SOL     OW  321   0.882   0.052   0.482
   73SOL    HW2  322   0.917  -0.037   0.485
   73SOL    HW3  323   0.893   0.086   0.571
   73SOL    MW4  324   0.888   0.045   0.494
   74SOL     OW  325   1.378   0.233   0.443
   74SOL    HW2  326   1.290   0.217   0.409
   74SOL    HW3  327   1.399   0.322   0.416
   74SOL    MW4  328   1.369   0.242   0.435
   75SOL     OW  329   2.044   0.211   0.324
   75SOL    HW2  330   1.999   0.281   0.371
   75SOL    HW3  331   1.982   0.138   0.323
   75SOL    MW4  332   2.030   0.211   0.330
   76SOL     OW  333   1.089   0.217   0.364
   76SOL    HW2  334   1.047   0.137   0.396
   76SOL    HW3  335   1.026   0.256   0.304
   76SOL    MW4  336   1.075   0.212   0.360
   77SOL     OW  337   2.377   0.565   0.512
   77SOL    HW2  338   2.286   0.595   0.503
   77SOL    HW3  339   2.371   0.470   0.499
   77SOL    MW4  340   2.364   0.556   0.509
   78SOL     OW  341   2.439   0.925   0.469
   78SOL    HW2  342   2.486   0.897   0.390
   78SOL    HW3  343   2.355   0.957   0.436
   78SOL    MW4  344   2.434   0.925   0.454
   79SOL     OW  345   1.737   1.317   0.376
   79SOL    HW2  346   1.828   1.340   0.396
   79SOL    HW3  347   1.692   1.401   0.369
   79SOL    MW4  348   1.743   1.331   0.377
   80SOL     OW  349   1.603   1.105   0.485
   80SOL    HW2  350   1.660   1.164   0.435
   80SOL    HW3  351   1.514   1.135   0.464
   80SOL    MW4  352   1.599   1.117   0.475
   81SOL     OW  353   1.358   1.181   0.409
   81SOL    HW2  354   1.273   1.138   0.420
   81SOL    HW3  355   1.340   1.259   0.357
   81SOL    MW4  356   1.345   1.186   0.404
   82SOL     OW  357   1.562   1.829   0.412
   82SOL    HW2  358   1.638   1.865   0.367
   82SOL    HW3  359   1.573   1.734   0.406
   82SOL    MW4  360   1.573   1.821   0.405
   83SOL     OW  361   1.095   2.446   0.299
   83SOL    HW2  362   1.140   2.367   0.328
   83SOL    HW3  363   1.163   2.499   0.257
   83SOL    MW4  364   1.110   2.443   0.297
   84SOL     OW  365   1.315   2.667   0.321
   84SOL    HW2  366   1.252   2.691   0.389
   84SOL    HW3  367   1.398   2.702   0.352
   84SOL    MW4  368   1.318   2.675   0.334
   85SOL     OW  369   1.903   2.208   0.187
   85SOL    HW2  370   1.949   2.244   0.263
   85SOL    HW3  371   1.821   2.257   0.183
   85SOL    MW4  372   1.899   2.219   0.197
   86SOL     OW  373   1.512   2.137   0.445
   86SOL    HW2  374   1.578   2.203   0.425
   86SOL    HW3  375   1.548   2.055   0.409
   86SOL    MW4  376   1.525   2.135   0.437
   87SOL     OW  377   0.883   1.954   0.315
   87SOL    HW2  378   0.963   1.973   0.364
   87SOL    HW3  379   0.856   1.867   0.345
   87SOL    MW4  380   0.890   1.945   0.326
   88SOL     OW  381   0.872   2.909   0.337
   88SOL    HW2  382   0.906   2.996   0.359
   88SOL    HW3  383   0.790   2.902   0.387
   88SOL    MW4  384   0.866   2.920   0.347
   89SOL     OW  385   2.058   2.279   0.412
   89SOL    HW2  386   2.055   2.185   0.429
   89SOL    HW3  387   2.151   2.301   0.412
   89SOL    MW4  388   2.070   2.269   0.414
   90SOL     OW  389   2.096   0.609   0.526
   90SOL    HW2  390   2.046   0.690   0.522
   90SOL    HW3  391   2.041   0.545   0.481
   90SOL    MW4  392   2.082   0.611   0.520
   91SOL     OW  393   1.127   3.827   0.384
   91SOL    HW2  394   1.150   3.747   0.431
   91SOL    HW3  395   1.071   3.875   0.445
   91SOL    MW4  396   1.123   3.823   0.398
   92SOL     OW  397   1.825   2.675   0.400
   92SOL    HW2  398   1.886   2.748   0.406
   92SOL    HW3  399   1.832   2.646   0.309
   92SOL    MW4  400   1.834   2.681   0.389
   93SOL     OW  401   1.400   3.925   0.446
   93SOL    HW2  402   1.312   3.904   0.416
   93SOL    HW3  403   1.416   4.014   0.414
   93SOL    MW4  404   1.391   3.934   0.438
   94SOL     OW  405   1.700   3.014   0.387
   94SOL    HW2  406   1.780   2.968   0.412
   94SOL    HW3  407   1.631   2.948   0.395
   94SOL    MW4  408   1.701   2.999   0.391
   95SOL     OW  409   2.251   3.813   0.473
   95SOL    HW2  410   2.205   3.730   0.476
   95SOL    HW3  411   2.329   3.796   0.420
   95SOL    MW4  412   2.256   3.800   0.466
   96SOL     OW  413   0.961   3.671   0.185
   96SOL    HW2  414   1.023   3.662   0.112
   96SOL    HW3  415   1.007   3.726   0.249
   96SOL    MW4  416   0.975   3.677   0.184
   97SOL     OW  417   1.853   0.032   0.425
   97SOL    HW2  418   1.778   0.079   0.462
   97SOL    HW3  419   1.816  -0.052   0.396
   97SOL    MW4  420   1.838   0.027   0.426
   98SOL     OW  421   2.009   4.654   0.666
   98SOL    HW2  422   2.012   4.559   0.683
   98SOL    HW3  423   1.976   4.661   0.576
   98SOL    MW4  424   2.005   4.642   0.656
   99SOL     OW  425   2.279   0.067   0.324
   99SOL    HW2  426   2.304   0.060   0.232
   99SOL    HW3  427   2.204   0.126   0.323
   99SOL    MW4  428   2.273   0.074   0.311
  100SOL     OW  429   1.385   4.234   0.338
  100SOL    HW2  430   1.290   4.224   0.348
  100SOL    HW3  431   1.406   4.310   0.392
  100SOL    MW4  432   1.375   4.243   0.347
  101SOL     OW  433   2.659   0.684   0.507
  101SOL    HW2  434   2.565   0.678   0.523
  101SOL    HW3  435   2.667   0.731   0.425
  101SOL    MW4  436   2.648   0.690   0.499
  102SOL     OW  437   1.778   2.002   0.333
  102SOL    HW2  438   1.856   1.980   0.383
  102SOL    HW3  439   1.809   2.053   0.259
  102SOL    MW4  440   1.792   2.006   0.330
  103SOL     OW  441   2.041   1.304   0.412
  103SOL    HW2  442   2.127   1.344   0.398
  103SOL    HW3  443   2.024   1.255   0.332
  103SOL    MW4  444   2.050   1.303   0.400
  104SOL     OW  445   2.506   1.188   0.490
  104SOL    HW2  446   2.594   1.198   0.454
  104SOL    HW3  447   2.486   1.096   0.479
  104SOL    MW4  448   2.515   1.177   0.484
  105SOL     OW  449   2.255   1.859   0.484
  105SOL    HW2  450   2.306   1.940   0.479
  105SOL    HW3  451   2.321   1.789   0.479
  105SOL    MW4  452   2.271   1.860   0.483
  106SOL     OW  453   1.571   1.551   0.390
  106SOL    HW2  454   1.488   1.524   0.351
  106SOL    HW3  455   1.566   1.522   0.481
  106SOL    MW4  456   1.560   1.544   0.397
  107SOL     OW  457   1.295   1.811   0.477
  107SOL    HW2  458   1.382   1.833   0.441
  107SOL    HW3  459   1.311   1.796   0.570
  107SOL    MW4  460   1.309   1.812   0.484
  108SOL     OW  461   2.327   2.323   0.501
  108SOL    HW2  462   2.373   2.393   0.454
  108SOL    HW3  463   2.286   2.366   0.576
  108SOL    MW4  464   2.328   2.338   0.505
  109SOL     OW  465   1.738   3.280   0.500
  109SOL    HW2  466   1.707   3.207   0.448
  109SOL    HW3  467   1.812   3.315   0.451
  109SOL    MW4  468   1.744   3.275   0.487
  110SOL     OW  469   1.085   2.768   0.468
  110SOL    HW2  470   1.028   2.824   0.414
  110SOL    HW3  471   1.028   2.696   0.495
  110SOL    MW4  472   1.070   2.766   0.464
  111SOL     OW  473   1.536   3.474   0.526
  111SOL    HW2  474   1.612   3.416   0.519
  111SOL    HW3  475   1.561   3.552   0.476
  111SOL    MW4  476   1.549   3.477   0.519
  112SOL     OW  477   1.099   2.006   0.481
  112SOL    HW2  478   1.080   2.012   0.574
  112SOL    HW3  479   1.166   1.938   0.474
  112SOL    MW4  480   1.105   1.998   0.492
  113SOL     OW  481   4.011   1.637   0.365
  113SOL    HW2  482   3.994   1.731   0.356
  113SOL    HW3  483   3.925   1.597   0.352
  113SOL    MW4  484   3.997   1.644   0.362
  114SOL     OW  485   1.875   2.444   0.534
  114SOL    HW2  486   1.944   2.389   0.496
  114SOL    HW3  487   1.877   2.523   0.480
  114SOL    MW4  488   1.885   2.447   0.522
  115SOL     OW  489   1.250   2.222   0.374
  115SOL    HW2  490   1.336   2.180   0.377
  115SOL    HW3  491   1.191   2.156   0.411
  115SOL    MW4  492   1.254   2.208   0.380
  116SOL     OW  493   1.297   3.328   0.497
  116SOL    HW2  494   1.382   3.369   0.508
  116SOL    HW3  495   1.315   3.249   0.445
  116SOL    MW4  496   1.311   3.323   0.492
  117SOL     OW  497   2.333   3.460   0.437
  117SOL    HW2  498   2.238   3.472   0.440
  117SOL    HW3  499   2.363   3.489   0.523
  117SOL    MW4  500   2.324   3.466   0.449
  118SOL     OW  501   1.766   4.429   0.345
  118SOL    HW2  502   1.721   4.374   0.281
  118SOL    HW3  503   1.850   4.385   0.359
  118SOL    MW4  504   1.771   4.416   0.339
  119SOL     OW  505   1.623   3.742   0.445
  119SOL    HW2  506   1.544   3.796   0.449
  119SOL    HW3  507   1.695   3.804   0.453
  119SOL    MW4  508   1.622   3.757   0.447
  120SOL     OW  509   1.543   4.430   0.508
  120SOL    HW2  510   1.556   4.433   0.603
  120SOL    HW3  511   1.632   4.431   0.472
  120SOL    MW4  512   1.556   4.430   0.516
  121SOL     OW  513   1.584   0.034   0.529
  121SOL    HW2  514   1.524   0.088   0.477
  121SOL    HW3  515   1.548  -0.055   0.522
  121SOL    MW4  516   1.571   0.029   0.521
  122SOL     OW  517   2.403   4.446   0.690
  122SOL    HW2  518   2.415   4.520   0.749
  122SOL    HW3  519   2.365   4.377   0.745
  122SOL    MW4  520   2.400   4.446   0.705
  123SOL     OW  521   2.361   0.274   0.503
  123SOL    HW2  522   2.332   0.225   0.580
  123SOL    HW3  523   2.325   0.225   0.428
  123SOL    MW4  524   2.352   0.261   0.503
  124SOL     OW  525   2.908   1.522   0.450
  124SOL    HW2  526   2.832   1.579   0.455
  124SOL    HW3  527   2.873   1.436   0.428
  124SOL    MW4  528   2.894   1.518   0.448
  125SOL     OW  529   2.920   0.428   0.520
  125SOL    HW2  530   2.835   0.437   0.476
  125SOL    HW3  531   2.971   0.503   0.491
  125SOL    MW4  532   2.915   0.439   0.510
  126SOL     OW  533   2.166   1.018   0.426
  126SOL    HW2  534   2.133   1.105   0.445
  126SOL    HW3  535   2.104   0.959   0.469
  126SOL    MW4  536   2.154   1.021   0.434
  127SOL     OW  537   2.778   1.241   0.457
  127SOL    HW2  538   2.814   1.159   0.421
  127SOL    HW3  539   2.817   1.248   0.544
  127SOL    MW4  540   2.788   1.231   0.464
  128SOL     OW  541   2.708   1.712   0.452
  128SOL    HW2  542   2.771   1.779   0.423
  128SOL    HW3  543   2.728   1.699   0.545
  128SOL    MW4  544   2.719   1.719   0.460
  129SOL     OW  545   3.151   1.876   0.423
  129SOL    HW2  546   3.155   1.940   0.494
  129SOL    HW3  547   3.242   1.866   0.395
  129SOL    MW4  548   3.164   1.883   0.429
  130SOL     OW  549   2.938   4.580   0.448
  130SOL    HW2  550   2.973   4.670   0.443
  130SOL    HW3  551   2.964   4.549   0.535
  130SOL    MW4  552   2.946   4.588   0.459
  131SOL     OW  553   2.016   2.007   0.481
  131SOL    HW2  554   1.996   2.023   0.573
  131SOL    HW3  555   2.089   1.945   0.483
  131SOL    MW4  556   2.023   2.001   0.493
  132SOL     OW  557   1.529   1.515   0.663
  132SOL    HW2  558   1.604   1.551   0.711
  132SOL    HW3  559   1.456   1.573   0.684
  132SOL    MW4  560   1.529   1.527   0.672
  133SOL     OW  561   2.446   2.080   0.472
  133SOL    HW2  562   2.400   2.163   0.459
  133SOL    HW3  563   2.538   2.100   0.455
  133SOL    MW4  564   2.452   2.093   0.468
  134SOL     OW  565   2.721   2.133   0.439
  134SOL    HW2  566   2.756   2.068   0.378
  134SOL    HW3  567   2.788   2.141   0.507
  134SOL    MW4  568   2.735   2.126   0.440
  135SOL     OW  569   2.474   2.522   0.362
  135SOL    HW2  570   2.557   2.474   0.363
  135SOL    HW3  571   2.499   2.614   0.370
  135SOL    MW4  572   2.488   2.528   0.363
  136SOL     OW  573   1.667   2.380   0.367
  136SOL    HW2  574   1.594   2.428   0.406
  136SOL    HW3  575   1.739   2.391   0.430
  136SOL    MW4  576   1.667   2.388   0.380
  137SOL     OW  577   1.574   2.766   0.456
  137SOL    HW2  578   1.582   2.777   0.550
  137SOL    HW3  579   1.656   2.725   0.429
  137SOL    MW4  580   1.586   2.762   0.465
  138SOL     OW  581   2.133   4.076   0.426
  138SOL    HW2  582   2.207   4.115   0.380
  138SOL    HW3  583   2.147   3.982   0.419
  138SOL    MW4  584   2.144   4.069   0.419
  139SOL     OW  585   2.373   4.228   0.343
  139SOL    HW2  586   2.456   4.231   0.296
  139SOL    HW3  587   2.350   4.320   0.356
  139SOL    MW4  588   2.381   4.241   0.339
  140SOL     OW  589   1.835   4.001   0.432
  140SOL    HW2  590   1.781   4.047   0.368
  140SOL    HW3  591   1.925   4.030   0.414
  140SOL    MW4  592   1.840   4.011   0.421
  141SOL     OW  593   1.966   3.387   0.344
  141SOL    HW2  594   1.997   3.297   0.355
  141SOL    HW3  595   1.982   3.407   0.252
  141SOL    MW4  596   1.972   3.377   0.333
  142SOL     OW  597   2.280   4.482   0.431
  142SOL    HW2  598   2.299   4.487   0.524
  142SOL    HW3  599   2.282   4.572   0.400
  142SOL    MW4  600   2.283   4.494   0.439
  143SOL     OW  601   2.034   4.334   0.429
  143SOL    HW2  602   2.055   4.241   0.437
  143SOL    HW3  603   2.118   4.376   0.413
  143SOL    MW4  604   2.047   4.327   0.428
  144SOL     OW  605   3.054   0.179   0.467
  144SOL    HW2  606   3.018   0.267   0.473
  144SOL    HW3  607   3.073   0.154   0.557
  144SOL    MW4  608   3.052   0.187   0.480
  145SOL     OW  609   2.455   3.671   0.331
  145SOL    HW2  610   2.428   3.592   0.378
  145SOL    HW3  611   2.449   3.647   0.238
  145SOL    MW4  612   2.451   3.657   0.325
  146SOL     OW  613   2.476   4.081   0.557
  146SOL    HW2  614   2.400   4.087   0.615
  146SOL    HW3  615   2.446   4.122   0.475
  146SOL    MW4  616   2.462   4.087   0.554
  147SOL     OW  617   2.607   0.151   0.457
  147SOL    HW2  618   2.655   0.221   0.413
  147SOL    HW3  619   2.528   0.193   0.490
  147SOL    MW4  620   2.603   0.166   0.455
  148SOL     OW  621   1.836   0.434   0.417
  148SOL    HW2  622   1.760   0.390   0.455
  148SOL    HW3  623   1.815   0.527   0.423
  148SOL    MW4  624   1.823   0.440   0.423
  149SOL     OW  625   3.068   0.634   0.414
  149SOL    HW2  626   3.091   0.726   0.424
  149SOL    HW3  627   3.151   0.587   0.427
  149SOL    MW4  628   3.082   0.640   0.417
  150SOL     OW  629   2.437   1.645   0.473
  150SOL    HW2  630   2.520   1.651   0.427
  150SOL    HW3  631   2.453   1.583   0.545
  150SOL    MW4  632   2.450   1.638   0.477
  151SOL     OW  633   2.694   0.815   0.281
  151SOL    HW2  634   2.752   0.888   0.301
  151SOL    HW3  635   2.748   0.752   0.233
  151SOL    MW4  636   2.709   0.816   0.277
  152SOL     OW  637   3.172   1.605   0.482
  152SOL    HW2  638   3.092   1.569   0.443
  152SOL    HW3  639   3.170   1.697   0.456
  152SOL    MW4  640   3.161   1.613   0.474
  153SOL     OW  641   3.504   1.292   0.394
  153SOL    HW2  642   3.512   1.249   0.479
  153SOL    HW3  643   3.478   1.221   0.334
  153SOL    MW4  644   3.501   1.277   0.397
  154SOL     OW  645   3.708   1.546   0.413
  154SOL    HW2  646   3.638   1.512   0.357
  154SOL    HW3  647   3.668   1.558   0.499
  154SOL    MW4  648   3.694   1.543   0.417
  155SOL     OW  649   2.664   0.110   0.716
  155SOL    HW2  650   2.691   0.189   0.763
  155SOL    HW3  651   2.656   0.137   0.625
  155SOL    MW4  652   2.667   0.124   0.710
  156SOL     OW  653   3.129   2.067   0.627
  156SOL    HW2  654   3.042   2.094   0.655
  156SOL    HW3  655   3.154   1.998   0.688
  156SOL    MW4  656   3.121   2.061   0.638
  157SOL     OW  657   2.718   2.433   0.442
  157SOL    HW2  658   2.798   2.476   0.411
  157SOL    HW3  659   2.733   2.340   0.427
  157SOL    MW4  660   2.730   2.426   0.436
  158SOL     OW  661   2.884   1.904   0.342
  158SOL    HW2  662   2.895   1.869   0.254
  158SOL    HW3  663   2.973   1.910   0.377
  158SOL    MW4  664   2.897   1.900   0.335
  159SOL     OW  665   2.515   2.819   0.450
  159SOL    HW2  666   2.448   2.877   0.413
  159SOL    HW3  667   2.507   2.830   0.544
  159SOL    MW4  668   2.505   2.828   0.457
  160SOL     OW  669   2.716   2.979   0.333
  160SOL    HW2  670   2.726   3.062   0.380
  160SOL    HW3  671   2.643   2.935   0.378
  160SOL    MW4  672   2.708   2.984   0.345
  161SOL     OW  673   2.972   3.365   0.321
  161SOL    HW2  674   3.032   3.302   0.361
  161SOL    HW3  675   2.928   3.316   0.252
  161SOL    MW4  676   2.974   3.350   0.317
  162SOL     OW  677   3.162   3.165   0.453
  162SOL    HW2  678   3.175   3.073   0.433
  162SOL    HW3  679   3.133   3.166   0.545
  162SOL    MW4  680   3.160   3.153   0.463
  163SOL     OW  681   2.123   3.145   0.412
  163SOL    HW2  682   2.157   3.165   0.499
  163SOL    HW3  683   2.195   3.099   0.369
  163SOL    MW4  684   2.137   3.142   0.418
  164SOL     OW  685   1.644   4.150   0.274
  164SOL    HW2  686   1.607   4.090   0.209
  164SOL    HW3  687   1.568   4.194   0.312
  164SOL    MW4  688   1.629   4.148   0.270
  165SOL     OW  689   3.340   4.051   0.351
  165SOL    HW2  690   3.245   4.056   0.359
  165SOL    HW3  691   3.366   3.986   0.416
  165SOL    MW4  692   3.331   4.043   0.360
  166SOL     OW  693   2.748   3.242   0.451
  166SOL    HW2  694   2.735   3.241   0.546
  166SOL    HW3  695   2.833   3.284   0.439
  166SOL    MW4  696   2.758   3.247   0.462
  167SOL     OW  697   2.492   3.248   0.320
  167SOL    HW2  698   2.577   3.281   0.350
  167SOL    HW3  699   2.428   3.302   0.368
  167SOL    MW4  700   2.495   3.260   0.331
  168SOL     OW  701   3.575   4.067   0.207
  168SOL    HW2  702   3.578   4.146   0.153
  168SOL    HW3  703   3.485   4.063   0.239
  168SOL    MW4  704   3.564   4.077   0.205
  169SOL     OW  705   3.127   4.346   0.341
  169SOL    HW2  706   3.080   4.271   0.378
  169SOL    HW3  707   3.079   4.422   0.374
  169SOL    MW4  708   3.114   4.346   0.350
  170SOL     OW  709   3.342   0.235   0.427
  170SOL    HW2  710   3.257   0.191   0.430
  170SOL    HW3  711   3.406   0.164   0.431
  170SOL    MW4  712   3.339   0.220   0.428
  171SOL     OW  713   2.677   4.549   0.338
  171SOL    HW2  714   2.650   4.641   0.349
  171SOL    HW3  715   2.772   4.552   0.343
  171SOL    MW4  716   2.686   4.562   0.340
  172SOL     OW  717   2.752   4.100   0.423
  172SOL    HW2  718   2.719   4.011   0.410
  172SOL    HW3  719   2.709   4.152   0.355
  172SOL    MW4  720   2.742   4.095   0.412
  173SOL     OW  721   2.673   0.431   0.373
  173SOL    HW2  722   2.657   0.509   0.426
  173SOL    HW3  723   2.730   0.462   0.302
  173SOL    MW4  724   2.678   0.445   0.371
  174SOL     OW  725   3.136   0.888   0.469
  174SOL    HW2  726   3.129   0.877   0.563
  174SOL    HW3  727   3.217   0.938   0.457
  174SOL    MW4  728   3.146   0.894   0.480
  175SOL     OW  729   3.347   0.523   0.466
  175SOL    HW2  730   3.352   0.430   0.445
  175SOL    HW3  731   3.433   0.558   0.443
  175SOL    MW4  732   3.359   0.515   0.460
  176SOL     OW  733   3.642   0.862   0.494
  176SOL    HW2  734   3.630   0.782   0.444
  176SOL    HW3  735   3.642   0.834   0.585
  176SOL    MW4  736   3.641   0.848   0.499
  177SOL     OW  737   3.556   0.344   0.239
  177SOL    HW2  738   3.476   0.318   0.285
  177SOL    HW3  739   3.621   0.279   0.264
  177SOL    MW4  740   3.554   0.332   0.248
  178SOL     OW  741   3.458   1.827   0.673
  178SOL    HW2  742   3.459   1.855   0.581
  178SOL    HW3  743   3.369   1.846   0.702
  178SOL    MW4  744   3.446   1.833   0.664
  179SOL     OW  745   3.425   1.832   0.395
  179SOL    HW2  746   3.425   1.739   0.375
  179SOL    HW3  747   3.514   1.861   0.378
  179SOL    MW4  748   3.437   1.824   0.390
  180SOL     OW  749   3.388   1.008   0.512
  180SOL    HW2  750   3.388   1.074   0.582
  180SOL    HW3  751   3.473   0.966   0.518
  180SOL    MW4  752   3.399   1.011   0.522
  181SOL     OW  753   3.974   1.910   0.338
  181SOL    HW2  754   3.879   1.905   0.352
  181SOL    HW3  755   3.983   1.959   0.256
  181SOL    MW4  756   3.963   1.916   0.329
  182SOL     OW  757   3.301   2.281   0.676
  182SOL    HW2  758   3.245   2.208   0.651
  182SOL    HW3  759   3.357   2.245   0.745
  182SOL    MW4  760   3.301   2.266   0.682
  183SOL     OW  761   3.539   2.666   0.621
  183SOL    HW2  762   3.578   2.642   0.705
  183SOL    HW3  763   3.477   2.596   0.603
  183SOL    MW4  764   3.536   2.654   0.630
  184SOL     OW  765   1.945   2.928   0.472
  184SOL    HW2  766   1.962   2.912   0.564
  184SOL    HW3  767   2.002   3.001   0.449
  184SOL    MW4  768   1.954   2.935   0.481
  185SOL     OW  769   3.269   2.635   0.321
  185SOL    HW2  770   3.306   2.619   0.234
  185SOL    HW3  771   3.312   2.572   0.377
  185SOL    MW4  772   3.280   2.625   0.317
  186SOL     OW  773   2.916   2.853   0.745
  186SOL    HW2  774   2.919   2.844   0.650
  186SOL    HW3  775   2.997   2.811   0.776
  186SOL    MW4  776   2.927   2.846   0.737
  187SOL     OW  777   2.853   0.595   0.218
  187SOL    HW2  778   2.927   0.624   0.272
  187SOL    HW3  779   2.893   0.557   0.140
  187SOL    MW4  780   2.868   0.594   0.215
  188SOL     OW  781   3.037   4.123   0.465
  188SOL    HW2  782   2.941   4.123   0.458
  188SOL    HW3  783   3.056   4.063   0.537
  188SOL    MW4  784   3.026   4.116   0.474
  189SOL     OW  785   3.361   3.597   0.657
  189SOL    HW2  786   3.378   3.520   0.603
  189SOL    HW3  787   3.284   3.573   0.710
  189SOL    MW4  788   3.353   3.584   0.657
  190SOL     OW  789   3.687   3.320   0.518
  190SOL    HW2  790   3.717   3.406   0.548
  190SOL    HW3  791   3.594   3.333   0.500
  190SOL    MW4  792   3.679   3.333   0.520
  191SOL     OW  793   3.404   3.335   0.540
  191SOL    HW2  794   3.425   3.270   0.607
  191SOL    HW3  795   3.337   3.293   0.486
  191SOL    MW4  796   3.398   3.321   0.542
  192SOL     OW  797   2.708   3.808   0.438
  192SOL    HW2  798   2.784   3.750   0.437
  192SOL    HW3  799   2.636   3.753   0.405
  192SOL    MW4  800   2.708   3.793   0.433
  193SOL     OW  801   2.334   3.010   0.275
  193SOL    HW2  802   2.382   2.977   0.199
  193SOL    HW3  803   2.373   3.095   0.294
  193SOL    MW4  804   2.345   3.017   0.267
  194SOL     OW  805   4.283   4.631   0.302
  194SOL    HW2  806   4.260   4.587   0.220
  194SOL    HW3  807   4.349   4.573   0.342
  194SOL    MW4  808   4.289   4.617   0.297
  195SOL     OW  809   3.770   0.191   0.377
  195SOL    HW2  810   3.792   0.277   0.414
  195SOL    HW3  811   3.848   0.138   0.390
  195SOL    MW4  812   3.783   0.196   0.383
  196SOL     OW  813   3.623   0.591   0.355
  196SOL    HW2  814   3.583   0.533   0.290
  196SOL    HW3  815   3.682   0.647   0.304
  196SOL    MW4  816   3.625   0.591   0.340
  197SOL     OW  817   3.842   0.735   0.269
  197SOL    HW2  818   3.866   0.822   0.301
  197SOL    HW3  819   3.916   0.680   0.294
  197SOL    MW4  820   3.855   0.739   0.277
  198SOL     OW  821   4.060   0.602   0.433
  198SOL    HW2  822   4.143   0.556   0.443
  198SOL    HW3  823   3.993   0.538   0.457
  198SOL    MW4  824   4.062   0.588   0.437
  199SOL     OW  825   4.417   0.876   0.498
  199SOL    HW2  826   4.322   0.878   0.488
  199SOL    HW3  827   4.447   0.817   0.429
  199SOL    MW4  828   4.408   0.869   0.487
  200SOL     OW  829   3.890   0.975   0.428
  200SOL    HW2  830   3.904   1.069   0.439
  200SOL    HW3  831   3.798   0.962   0.449
  200SOL    MW4  832   3.880   0.986   0.432
  201SOL     OW  833   4.240   1.490   0.321
  201SOL    HW2  834   4.161   1.539   0.299
  201SOL    HW3  835   4.299   1.556   0.358
  201SOL    MW4  836   4.237   1.505   0.323
  202SOL     OW  837   3.836   1.249   0.480
  202SOL    HW2  838   3.930   1.268   0.487
  202SOL    HW3  839   3.799   1.325   0.435
  202SOL    MW4  840   3.844   1.262   0.475
  203SOL     OW  841   3.408   1.548   0.357
  203SOL    HW2  842   3.330   1.558   0.412
  203SOL    HW3  843   3.437   1.458   0.375
  203SOL    MW4  844   3.401   1.537   0.366
  204SOL     OW  845   2.870   0.987   0.427
  204SOL    HW2  846   2.836   0.962   0.513
  204SOL    HW3  847   2.964   0.970   0.433
  204SOL    MW4  848   2.878   0.982   0.439
  205SOL     OW  849   3.718   2.354   0.406
  205SOL    HW2  850   3.779   2.322   0.340
  205SOL    HW3  851   3.741   2.305   0.485
  205SOL    MW4  852   3.729   2.344   0.408
  206SOL     OW  853   4.269   2.854   0.528
  206SOL    HW2  854   4.276   2.772   0.479
  206SOL    HW3  855   4.175   2.874   0.527
  206SOL    MW4  856   4.257   2.846   0.522
  207SOL     OW  857   3.013   2.557   0.400
  207SOL    HW2  858   3.045   2.524   0.484
  207SOL    HW3  859   3.090   2.594   0.358
  207SOL    MW4  860   3.027   2.557   0.405
  208SOL     OW  861   2.920   3.614   0.420
  208SOL    HW2  862   3.002   3.664   0.416
  208SOL    HW3  863   2.940   3.532   0.374
  208SOL    MW4  864   2.933   3.610   0.413
  209SOL     OW  865   3.191   2.883   0.434
  209SOL    HW2  866   3.225   2.801   0.400
  209SOL    HW3  867   3.099   2.866   0.452
  209SOL    MW4  868   3.184   2.870   0.432
  210SOL     OW  869   3.969   2.868   0.562
  210SOL    HW2  870   3.933   2.786   0.527
  210SOL    HW3  871   3.945   2.934   0.497
  210SOL    MW4  872   3.961   2.866   0.548
  211SOL     OW  873   3.816   2.625   0.530
  211SOL    HW2  874   3.803   2.544   0.481
  211SOL    HW3  875   3.730   2.647   0.564
  211SOL    MW4  876   3.803   2.617   0.528
  212SOL     OW  877   3.824   4.047   0.380
  212SOL    HW2  878   3.840   3.960   0.418
  212SOL    HW3  879   3.756   4.031   0.314
  212SOL    MW4  880   3.817   4.033   0.376
  213SOL     OW  881   3.401   2.459   0.492
  213SOL    HW2  882   3.372   2.387   0.548
  213SOL    HW3  883   3.479   2.426   0.447
  213SOL    MW4  884   3.407   2.446   0.494
  214SOL     OW  885   3.377   3.880   0.602
  214SOL    HW2  886   3.439   3.914   0.666
  214SOL    HW3  887   3.371   3.786   0.622
  214SOL    MW4  888   3.385   3.872   0.613
  215SOL     OW  889   4.329   3.921   0.625
  215SOL    HW2  890   4.278   3.882   0.696
  215SOL    HW3  891   4.306   4.014   0.628
  215SOL    MW4  892   4.319   3.928   0.635
  216SOL     OW  893   3.403   4.303   0.440
  216SOL    HW2  894   3.327   4.335   0.392
  216SOL    HW3  895   3.397   4.208   0.435
  216SOL    MW4  896   3.392   4.295   0.433
  217SOL     OW  897   3.639   4.450   0.445
  217SOL    HW2  898   3.571   4.404   0.397
  217SOL    HW3  899   3.627   4.422   0.536
  217SOL    MW4  900   3.629   4.440   0.451
  218SOL     OW  901   4.433   0.210   0.451
  218SOL    HW2  902   4.375   0.164   0.389
  218SOL    HW3  903   4.424   0.161   0.533
  218SOL    MW4  904   4.424   0.197   0.453
  219SOL     OW  905   4.136   0.866   0.484
  219SOL    HW2  906   4.051   0.907   0.470
  219SOL    HW3  907   4.122   0.774   0.462
  219SOL    MW4  908   4.123   0.859   0.479
  220SOL     OW  909   0.625   1.546   0.393
  220SOL    HW2  910   0.530   1.536   0.406
  220SOL    HW3  911   0.662   1.462   0.419
  220SOL    MW4  912   0.617   1.534   0.398
  221SOL     OW  913   4.305   0.469   0.478
  221SOL    HW2  914   4.333   0.378   0.465
  221SOL    HW3  915   4.379   0.521   0.447
  221SOL    MW4  916   4.318   0.464   0.472
  222SOL     OW  917   0.016   1.147   0.474
  222SOL    HW2  918  -0.003   1.053   0.476
  222SOL    HW3  919  -0.030   1.182   0.550
  222SOL    MW4  920   0.008   1.139   0.484
  223SOL     OW  921   3.562   0.040   0.462
  223SOL    HW2  922   3.584  -0.053   0.460
  223SOL    HW3  923   3.634   0.082   0.415
  223SOL    MW4  924   3.574   0.034   0.456
  224SOL     OW  925   4.109   1.315   0.507
  224SOL    HW2  926   4.162   1.365   0.445
  224SOL    HW3  927   4.169   1.298   0.581
  224SOL    MW4  928   4.124   1.319   0.509
  225SOL     OW  929   4.484   1.342   0.247
  225SOL    HW2  930   4.403   1.393   0.255
  225SOL    HW3  931   4.473   1.270   0.309
  225SOL    MW4  932   4.472   1.339   0.256
  226SOL     OW  933   4.216   2.337   0.318
  226SOL    HW2  934   4.177   2.307   0.400
  226SOL    HW3  935   4.208   2.433   0.321
  226SOL    MW4  936   4.210   2.346   0.329
  227SOL     OW  937   4.393   1.670   0.468
  227SOL    HW2  938   4.358   1.759   0.456
  227SOL    HW3  939   4.416   1.667   0.561
  227SOL    MW4  940   4.391   1.681   0.479
  228SOL     OW  941   0.212   2.369   0.388
  228SOL    HW2  942   0.163   2.288   0.376
  228SOL    HW3  943   0.144   2.437   0.391
  228SOL    MW4  944   0.196   2.368   0.386
  229SOL     OW  945   4.257   1.918   0.457
  229SOL    HW2  946   4.177   1.894   0.410
  229SOL    HW3  947   4.298   1.985   0.402
  229SOL    MW4  948   4.252   1.924   0.444
  230SOL     OW  949   0.029   2.573   0.473
  230SOL    HW2  950   0.086   2.649   0.477
  230SOL    HW3  951   0.051   2.522   0.551
  230SOL    MW4  952   0.040   2.576   0.484
  231SOL     OW  953   4.278   3.525   0.479
  231SOL    HW2  954   4.371   3.519   0.457
  231SOL    HW3  955   4.242   3.440   0.456
  231SOL    MW4  956   4.285   3.513   0.473
  232SOL     OW  957   4.225   2.591   0.433
  232SOL    HW2  958   4.179   2.581   0.516
  232SOL    HW3  959   4.315   2.567   0.452
  232SOL    MW4  960   4.231   2.587   0.447
  233SOL     OW  961   0.337   3.845   0.374
  233SOL    HW2  962   0.318   3.930   0.415
  233SOL    HW3  963   0.433   3.838   0.379
  233SOL    MW4  964   0.347   3.856   0.380
  234SOL     OW  965   0.044   3.500   0.371
  234SOL    HW2  966   0.033   3.575   0.313
  234SOL    HW3  967   0.104   3.531   0.438
  234SOL    MW4  968   0.050   3.514   0.372
  235SOL     OW  969   0.209   3.268   0.288
  235SOL    HW2  970   0.143   3.334   0.309
  235SOL    HW3  971   0.292   3.305   0.320
  235SOL    MW4  972   0.212   3.282   0.295
  236SOL     OW  973   3.939   3.807   0.481
  236SOL    HW2  974   3.922   3.713   0.487
  236SOL    HW3  975   4.027   3.813   0.444
  236SOL    MW4  976   3.949   3.796   0.477
  237SOL     OW  977   3.952   3.112   0.411
  237SOL    HW2  978   4.032   3.166   0.419
  237SOL    HW3  979   3.881   3.171   0.438
  237SOL    MW4  980   3.953   3.127   0.415
  238SOL     OW  981   0.242   4.095   0.440
  238SOL    HW2  982   0.229   4.067   0.531
  238SOL    HW3  983   0.157   4.077   0.398
  238SOL    MW4  984   0.229   4.089   0.447
  239SOL     OW  985   4.056   4.213   0.373
  239SOL    HW2  986   3.993   4.151   0.339
  239SOL    HW3  987   4.013   4.298   0.365
  239SOL    MW4  988   4.042   4.216   0.368
  240SOL     OW  989   4.220   4.166   0.600
  240SOL    HW2  990   4.258   4.254   0.606
  240SOL    HW3  991   4.157   4.172   0.528
  240SOL    MW4  992   4.217   4.179   0.591
  241SOL     OW  993   3.904   4.447   0.453
  241SOL    HW2  994   3.904   4.425   0.546
  241SOL    HW3  995   3.811   4.456   0.430
  241SOL    MW4  996   3.892   4.445   0.462
  242SOL     OW  997   0.230   4.663   0.814
  242SOL    HW2  998   0.231   4.569   0.796
  242SOL    HW3  999   0.160   4.697   0.759
  242SOL    MW4 1000   0.221   4.655   0.805
  243SOL     OW 1001   4.453   0.082   0.715
  243SOL    HW2 1002   4.376   0.048   0.762
  243SOL    HW3 1003   4.472   0.166   0.757
  243SOL    MW4 1004   4.445   0.088   0.727
  244SOL     OW 1005   0.018   0.318   0.836
  244SOL    HW2 1006   0.024   0.315   0.932
  244SOL    HW3 1007   0.081   0.385   0.810
  244SOL    MW4 1008   0.027   0.326   0.845
  245SOL     OW 1009   0.221   0.493   0.771
  245SOL    HW2 1010   0.309   0.460   0.788
  245SOL    HW3 1011   0.218   0.576   0.818
  245SOL    MW4 1012   0.233   0.500   0.779
  246SOL     OW 1013   0.226   0.753   0.869
  246SOL    HW2 1014   0.197   0.743   0.960
  246SOL    HW3 1015   0.148   0.780   0.821
  246SOL    MW4 1016   0.212   0.755   0.875
  247SOL     OW 1017   4.471   0.833   0.761
  247SOL    HW2 1018   4.389   0.800   0.799
  247SOL    HW3 1019   4.447   0.859   0.672
  247SOL    MW4 1020   4.457   0.832   0.755
  248SOL     OW 1021   0.029   1.120   0.831
  248SOL    HW2 1022   0.004   1.112   0.923
  248SOL    HW3 1023   0.028   1.030   0.799
  248SOL    MW4 1024   0.026   1.107   0.839
  249SOL     OW 1025   0.261   1.260   0.752
  249SOL    HW2 1026   0.188   1.198   0.757
  249SOL    HW3 1027   0.272   1.278   0.659
  249SOL    MW4 1028   0.253   1.254   0.741
  250SOL     OW 1029   0.194   1.529   0.841
  250SOL    HW2 1030   0.265   1.583   0.805
  250SOL    HW3 1031   0.216   1.440   0.814
  250SOL    MW4 1032   0.207   1.524   0.833
  251SOL     OW 1033   4.459   1.646   0.719
  251SOL    HW2 1034   4.388   1.595   0.758
  251SOL    HW3 1035   4.539   1.608   0.757
  251SOL    MW4 1036   4.460   1.634   0.729
  252SOL     OW 1037   4.477   1.919   0.821
  252SOL    HW2 1038   4.547   1.957   0.767
  252SOL    HW3 1039   4.476   1.826   0.796
  252SOL    MW4 1040   4.486   1.912   0.811
  253SOL     OW 1041   0.191   2.030   0.659
  253SOL    HW2 1042   0.215   2.114   0.698
  253SOL    HW3 1043   0.145   2.053   0.579
  253SOL    MW4 1044   0.188   2.044   0.653
  254SOL     OW 1045   0.242   2.293   0.799
  254SOL    HW2 1046   0.230   2.298   0.894
  254SOL    HW3 1047   0.313   2.354   0.780
  254SOL    MW4 1048   0.249   2.302   0.809
  255SOL     OW 1049   0.027   2.460   0.718
  255SOL    HW2 1050  -0.049   2.403   0.733
  255SOL    HW3 1051   0.103   2.403   0.733
  255SOL    MW4 1052   0.027   2.445   0.722
  256SOL     OW 1053   0.041   2.705   0.846
  256SOL    HW2 1054   0.038   2.698   0.942
  256SOL    HW3 1055   0.021   2.617   0.815
  256SOL    MW4 1056   0.038   2.692   0.855
  257SOL     OW 1057   0.247   2.855   0.727
  257SOL    HW2 1058   0.179   2.797   0.762
  257SOL    HW3 1059   0.229   2.860   0.634
  257SOL    MW4 1060   0.236   2.848   0.720
  258SOL     OW 1061   0.291   3.112   0.862
  258SOL    HW2 1062   0.273   3.118   0.956
  258SOL    HW3 1063   0.271   3.021   0.840
  258SOL    MW4 1064   0.286   3.101   0.871
  259SOL     OW 1065   0.033   3.189   0.765
  259SOL    HW2 1066   0.115   3.150   0.796
  259SOL    HW3 1067   0.017   3.146   0.680
  259SOL    MW4 1068   0.041   3.178   0.758
  260SOL     OW 1069   0.007   3.456   0.811
  260SOL    HW2 1070  -0.083   3.475   0.784
  260SOL    HW3 1071   0.023   3.367   0.781
  260SOL    MW4 1072  -0.003   3.447   0.803
  261SOL     OW 1073   0.253   3.587   0.761
  261SOL    HW2 1074   0.172   3.536   0.768
  261SOL    HW3 1075   0.266   3.598   0.667
  261SOL    MW4 1076   0.244   3.582   0.749
  262SOL     OW 1077   0.283   3.859   0.840
  262SOL    HW2 1078   0.261   3.860   0.934
  262SOL    HW3 1079   0.273   3.767   0.815
  262SOL    MW4 1080   0.279   3.847   0.849
  263SOL     OW 1081   0.111   4.017   0.696
  263SOL    HW2 1082   0.025   3.975   0.692
  263SOL    HW3 1083   0.162   3.960   0.753
  263SOL    MW4 1084   0.106   4.004   0.703
  264SOL     OW 1085   0.044   4.239   0.863
  264SOL    HW2 1086   0.028   4.228   0.957
  264SOL    HW3 1087   0.083   4.156   0.835
  264SOL    MW4 1088   0.047   4.226   0.871
  265SOL     OW 1089   0.241   4.400   0.733
  265SOL    HW2 1090   0.168   4.344   0.759
  265SOL    HW3 1091   0.237   4.401   0.638
  265SOL    MW4 1092   0.231   4.393   0.724
  266SOL     OW 1093   0.689   4.654   0.844
  266SOL    HW2 1094   0.683   4.647   0.939
  266SOL    HW3 1095   0.614   4.707   0.818
  266SOL    MW4 1096   0.679   4.660   0.853
  267SOL     OW 1097   0.471   0.113   0.761
  267SOL    HW2 1098   0.384   0.075   0.773
  267SOL    HW3 1099   0.477   0.132   0.667
  267SOL    MW4 1100   0.461   0.111   0.750
  268SOL     OW 1101   0.484   0.399   0.821
  268SOL    HW2 1102   0.565   0.442   0.792
  268SOL    HW3 1103   0.499   0.306   0.805
  268SOL    MW4 1104   0.497   0.393   0.815
  269SOL     OW 1105   0.728   0.530   0.745
  269SOL    HW2 1106   0.797   0.473   0.779
  269SOL    HW3 1107   0.729   0.515   0.650
  269SOL    MW4 1108   0.737   0.520   0.737
  270SOL     OW 1109   0.702   0.790   0.861
  270SOL    HW2 1110   0.621   0.827   0.824
  270SOL    HW3 1111   0.711   0.706   0.817
  270SOL    MW4 1112   0.692   0.784   0.850
  271SOL     OW 1113   0.467   0.885   0.748
  271SOL    HW2 1114   0.457   0.966   0.798
  271SOL    HW3 1115   0.390   0.833   0.772
  271SOL    MW4 1116   0.455   0.889   0.758
  272SOL     OW 1117   0.457   1.120   0.866
  272SOL    HW2 1118   0.536   1.168   0.842
  272SOL    HW3 1119   0.387   1.163   0.817
  272SOL    MW4 1120   0.458   1.132   0.856
  273SOL     OW 1121   0.675   1.271   0.751
  273SOL    HW2 1122   0.695   1.361   0.775
  273SOL    HW3 1123   0.699   1.265   0.658
  273SOL    MW4 1124   0.681   1.282   0.742
  274SOL     OW 1125   0.644   1.546   0.828
  274SOL    HW2 1126   0.646   1.545   0.924
  274SOL    HW3 1127   0.555   1.572   0.806
  274SOL    MW4 1128   0.633   1.549   0.838
  275SOL     OW 1129   0.419   1.626   0.681
  275SOL    HW2 1130   0.438   1.718   0.660
  275SOL    HW3 1131   0.405   1.584   0.596
  275SOL    MW4 1132   0.420   1.633   0.667
  276SOL     OW 1133   0.441   1.929   0.608
  276SOL    HW2 1134   0.347   1.939   0.593
  276SOL    HW3 1135   0.475   1.901   0.523
  276SOL    MW4 1136   0.433   1.927   0.595
  277SOL     OW 1137   0.549   2.030   0.854
  277SOL    HW2 1138   0.508   2.000   0.935
  277SOL    HW3 1139   0.500   1.988   0.785
  277SOL    MW4 1140   0.537   2.021   0.856
  278SOL     OW 1141   0.700   2.286   0.845
  278SOL    HW2 1142   0.699   2.293   0.941
  278SOL    HW3 1143   0.662   2.200   0.827
  278SOL    MW4 1144   0.695   2.276   0.856
  279SOL     OW 1145   0.471   2.441   0.748
  279SOL    HW2 1146   0.536   2.388   0.793
  279SOL    HW3 1147   0.508   2.456   0.661
  279SOL    MW4 1148   0.484   2.436   0.742
  280SOL     OW 1149   0.466   2.710   0.834
  280SOL    HW2 1150   0.461   2.620   0.802
  280SOL    HW3 1151   0.394   2.755   0.790
  280SOL    MW4 1152   0.456   2.704   0.824
  281SOL     OW 1153   0.701   2.829   0.772
  281SOL    HW2 1154   0.767   2.765   0.798
  281SOL    HW3 1155   0.618   2.790   0.802
  281SOL    MW4 1156   0.699   2.815   0.780
  282SOL     OW 1157   0.709   3.079   0.879
  282SOL    HW2 1158   0.631   3.116   0.837
  282SOL    HW3 1159   0.723   2.995   0.834
  282SOL    MW4 1160   0.700   3.072   0.867
  283SOL     OW 1161   0.504   3.222   0.753
  283SOL    HW2 1162   0.500   3.315   0.773
  283SOL    HW3 1163   0.426   3.185   0.796
  283SOL    MW4 1164   0.493   3.229   0.761
  284SOL     OW 1165   0.478   3.498   0.868
  284SOL    HW2 1166   0.472   3.486   0.963
  284SOL    HW3 1167   0.390   3.523   0.841
  284SOL    MW4 1168   0.466   3.499   0.877
  285SOL     OW 1169   0.655   3.675   0.736
  285SOL    HW2 1170   0.603   3.620   0.794
  285SOL    HW3 1171   0.681   3.750   0.790
  285SOL    MW4 1172   0.652   3.678   0.751
  286SOL     OW 1173   0.725   3.874   0.895
  286SOL    HW2 1174   0.802   3.921   0.863
  286SOL    HW3 1175   0.651   3.916   0.851
  286SOL    MW4 1176   0.726   3.886   0.885
  287SOL     OW 1177   0.513   4.017   0.765
  287SOL    HW2 1178   0.488   4.095   0.815
  287SOL    HW3 1179   0.442   3.954   0.781
  287SOL    MW4 1180   0.500   4.019   0.773
  288SOL     OW 1181   0.463   4.273   0.847
  288SOL    HW2 1182   0.437   4.270   0.939
  288SOL    HW3 1183   0.396   4.328   0.806
  288SOL    MW4 1184   0.450   4.280   0.854
  289SOL     OW 1185   0.689   4.386   0.781
  289SOL    HW2 1186   0.598   4.359   0.798
  289SOL    HW3 1187   0.690   4.480   0.801
  289SOL    MW4 1188   0.677   4.395   0.786
  290SOL     OW 1189   1.138   4.664   0.853
  290SOL    HW2 1190   1.199   4.710   0.796
  290SOL    HW3 1191   1.055   4.709   0.841
  290SOL    MW4 1192   1.135   4.676   0.844
  291SOL     OW 1193   0.908   0.116   0.749
  291SOL    HW2 1194   0.903   0.203   0.789
  291SOL    HW3 1195   0.831   0.070   0.782
  291SOL    MW4 1196   0.897   0.121   0.759
  292SOL     OW 1197   0.907   0.369   0.859
  292SOL    HW2 1198   0.907   0.386   0.953
  292SOL    HW3 1199   0.986   0.412   0.827
  292SOL    MW4 1200   0.917   0.377   0.867
  293SOL     OW 1201   1.140   0.491   0.744
  293SOL    HW2 1202   1.225   0.462   0.777
  293SOL    HW3 1203   1.150   0.491   0.649
  293SOL    MW4 1204   1.152   0.488   0.736
  294SOL     OW 1205   1.140   0.767   0.785
  294SOL    HW2 1206   1.147   0.757   0.880
  294SOL    HW3 1207   1.135   0.677   0.753
  294SOL    MW4 1208   1.140   0.754   0.793
  295SOL     OW 1209   0.905   0.904   0.731
  295SOL    HW2 1210   0.986   0.855   0.744
  295SOL    HW3 1211   0.845   0.869   0.797
  295SOL    MW4 1212   0.908   0.893   0.742
  296SOL     OW 1213   0.910   1.164   0.837
  296SOL    HW2 1214   0.924   1.077   0.800
  296SOL    HW3 1215   0.820   1.186   0.814
  296SOL    MW4 1216   0.900   1.155   0.829
  297SOL     OW 1217   1.117   1.310   0.737
  297SOL    HW2 1218   1.043   1.261   0.773
  297SOL    HW3 1219   1.098   1.318   0.644
  297SOL    MW4 1220   1.105   1.304   0.730
  298SOL     OW 1221   1.124   1.562   0.830
  298SOL    HW2 1222   1.041   1.604   0.811
  298SOL    HW3 1223   1.120   1.477   0.786
  298SOL    MW4 1224   1.113   1.557   0.822
  299SOL     OW 1225   0.865   1.676   0.756
  299SOL    HW2 1226   0.842   1.759   0.796
  299SOL    HW3 1227   0.784   1.626   0.755
  299SOL    MW4 1228   0.852   1.680   0.761
  300SOL     OW 1229   0.800   1.927   0.847
  300SOL    HW2 1230   0.824   1.930   0.939
  300SOL    HW3 1231   0.712   1.965   0.844
  300SOL    MW4 1232   0.791   1.932   0.859
  301SOL     OW 1233   0.980   2.085   0.731
  301SOL    HW2 1234   1.024   2.129   0.804
  301SOL    HW3 1235   0.913   2.031   0.773
  301SOL    MW4 1236   0.977   2.084   0.746
  302SOL     OW 1237   1.170   2.239   0.868
  302SOL    HW2 1238   1.153   2.255   0.961
  302SOL    HW3 1239   1.238   2.301   0.844
  302SOL    MW4 1240   1.176   2.249   0.877
  303SOL     OW 1241   0.949   2.397   0.770
  303SOL    HW2 1242   1.014   2.333   0.798
  303SOL    HW3 1243   0.866   2.362   0.803
  303SOL    MW4 1244   0.947   2.384   0.778
  304SOL     OW 1245   0.929   2.658   0.850
  304SOL    HW2 1246   0.918   2.656   0.945
  304SOL    HW3 1247   0.952   2.568   0.827
  304SOL    MW4 1248   0.931   2.646   0.860
  305SOL     OW 1249   1.117   2.832   0.735
  305SOL    HW2 1250   1.050   2.772   0.769
  305SOL    HW3 1251   1.109   2.825   0.640
  305SOL    MW4 1252   1.107   2.823   0.727
  306SOL     OW 1253   1.060   3.079   0.837
  306SOL    HW2 1254   0.989   3.116   0.784
  306SOL    HW3 1255   1.062   2.986   0.812
  306SOL    MW4 1256   1.051   3.072   0.827
  307SOL     OW 1257   0.872   3.215   0.713
  307SOL    HW2 1258   0.888   3.305   0.742
  307SOL    HW3 1259   0.814   3.178   0.779
  307SOL    MW4 1260   0.866   3.222   0.726
  308SOL     OW 1261   0.861   3.479   0.840
  308SOL    HW2 1262   0.949   3.505   0.813
  308SOL    HW3 1263   0.808   3.558   0.829
  308SOL    MW4 1264   0.866   3.493   0.835
  309SOL     OW 1265   1.116   3.544   0.762
  309SOL    HW2 1266   1.197   3.501   0.790
  309SOL    HW3 1267   1.110   3.524   0.668
  309SOL    MW4 1268   1.126   3.535   0.753
  310SOL     OW 1269   1.177   3.821   0.835
  310SOL    HW2 1270   1.189   3.820   0.930
  310SOL    HW3 1271   1.164   3.729   0.812
  310SOL    MW4 1272   1.177   3.809   0.844
  311SOL     OW 1273   0.952   4.007   0.810
  311SOL    HW2 1274   0.968   4.099   0.833
  311SOL    HW3 1275   1.025   3.959   0.849
  311SOL    MW4 1276   0.964   4.013   0.818
  312SOL     OW 1277   0.924   4.297   0.887
  312SOL    HW2 1278   0.985   4.341   0.828
  312SOL    HW3 1279   0.838   4.313   0.848
  312SOL    MW4 1280   0.921   4.305   0.874
  313SOL     OW 1281   1.110   4.441   0.688
  313SOL    HW2 1282   1.187   4.389   0.714
  313SOL    HW3 1283   1.118   4.521   0.739
  313SOL    MW4 1284   1.122   4.444   0.698
  314SOL     OW 1285   1.577   0.011   0.856
  314SOL    HW2 1286   1.548   0.018   0.946
  314SOL    HW3 1287   1.506   0.050   0.805
  314SOL    MW4 1288   1.564   0.017   0.861
  315SOL     OW 1289   1.364   0.136   0.707
  315SOL    HW2 1290   1.372   0.221   0.751
  315SOL    HW3 1291   1.360   0.159   0.614
  315SOL    MW4 1292   1.365   0.151   0.700
  316SOL     OW 1293   1.382   0.380   0.854
  316SOL    HW2 1294   1.389   0.386   0.949
  316SOL    HW3 1295   1.467   0.409   0.821
  316SOL    MW4 1296   1.394   0.384   0.862
  317SOL     OW 1297   1.570   0.546   0.734
  317SOL    HW2 1298   1.573   0.637   0.765
  317SOL    HW3 1299   1.660   0.514   0.746
  317SOL    MW4 1300   1.582   0.554   0.740
  318SOL     OW 1301   1.624   0.804   0.803
  318SOL    HW2 1302   1.714   0.833   0.819
  318SOL    HW3 1303   1.596   0.855   0.727
  318SOL    MW4 1304   1.632   0.814   0.795
  319SOL     OW 1305   1.280   0.953   0.662
  319SOL    HW2 1306   1.325   1.009   0.724
  319SOL    HW3 1307   1.235   0.888   0.716
  319SOL    MW4 1308   1.280   0.952   0.677
  320SOL     OW 1309   1.310   1.158   0.833
  320SOL    HW2 1310   1.393   1.187   0.797
  320SOL    HW3 1311   1.245   1.217   0.795
  320SOL    MW4 1312   1.312   1.170   0.823
  321SOL     OW 1313   1.558   1.246   0.737
  321SOL    HW2 1314   1.555   1.342   0.729
  321SOL    HW3 1315   1.590   1.217   0.652
  321SOL    MW4 1316   1.562   1.255   0.725
  322SOL     OW 1317   1.716   1.597   0.830
  322SOL    HW2 1318   1.688   1.573   0.918
  322SOL    HW3 1319   1.810   1.579   0.828
  322SOL    MW4 1320   1.725   1.591   0.842
  323SOL     OW 1321   1.334   1.708   0.730
  323SOL    HW2 1322   1.338   1.792   0.776
  323SOL    HW3 1323   1.254   1.667   0.762
  323SOL    MW4 1324   1.324   1.714   0.741
  324SOL     OW 1325   1.323   1.970   0.845
  324SOL    HW2 1326   1.347   1.954   0.936
  324SOL    HW3 1327   1.275   2.053   0.847
  324SOL    MW4 1328   1.320   1.979   0.857
  325SOL     OW 1329   1.546   2.067   0.713
  325SOL    HW2 1330   1.471   2.030   0.760
  325SOL    HW3 1331   1.516   2.073   0.622
  325SOL    MW4 1332   1.532   2.063   0.707
  326SOL     OW 1333   1.572   2.282   0.880
  326SOL    HW2 1334   1.489   2.325   0.858
  326SOL    HW3 1335   1.582   2.214   0.813
  326SOL    MW4 1336   1.563   2.279   0.868
  327SOL     OW 1337   1.369   2.412   0.753
  327SOL    HW2 1338   1.350   2.505   0.769
  327SOL    HW3 1339   1.374   2.406   0.657
  327SOL    MW4 1340   1.367   2.424   0.742
  328SOL     OW 1341   1.349   2.707   0.838
  328SOL    HW2 1342   1.345   2.708   0.934
  328SOL    HW3 1343   1.268   2.751   0.810
  328SOL    MW4 1344   1.338   2.713   0.847
  329SOL     OW 1345   1.593   2.796   0.728
  329SOL    HW2 1346   1.587   2.887   0.757
  329SOL    HW3 1347   1.524   2.751   0.777
  329SOL    MW4 1348   1.583   2.802   0.739
  330SOL     OW 1349   1.562   3.043   0.807
  330SOL    HW2 1350   1.566   3.046   0.903
  330SOL    HW3 1351   1.476   3.080   0.785
  330SOL    MW4 1352   1.551   3.048   0.817
  331SOL     OW 1353   1.313   3.166   0.729
  331SOL    HW2 1354   1.227   3.133   0.757
  331SOL    HW3 1355   1.295   3.211   0.647
  331SOL    MW4 1356   1.299   3.167   0.722
  332SOL     OW 1357   1.345   3.405   0.872
  332SOL    HW2 1358   1.432   3.438   0.850
  332SOL    HW3 1359   1.349   3.311   0.850
  332SOL    MW4 1360   1.357   3.397   0.866
  333SOL     OW 1361   1.537   3.591   0.777
  333SOL    HW2 1362   1.619   3.557   0.815
  333SOL    HW3 1363   1.533   3.550   0.690
  333SOL    MW4 1364   1.548   3.581   0.770
  334SOL     OW 1365   1.601   3.850   0.821
  334SOL    HW2 1366   1.533   3.910   0.791
  334SOL    HW3 1367   1.571   3.764   0.790
  334SOL    MW4 1368   1.588   3.846   0.813
  335SOL     OW 1369   1.382   3.967   0.721
  335SOL    HW2 1370   1.307   3.916   0.751
  335SOL    HW3 1371   1.389   3.948   0.628
  335SOL    MW4 1372   1.373   3.958   0.713
  336SOL     OW 1373   1.309   4.252   0.806
  336SOL    HW2 1374   1.384   4.311   0.797
  336SOL    HW3 1375   1.337   4.171   0.764
  336SOL    MW4 1376   1.322   4.249   0.799
  337SOL     OW 1377   1.553   4.412   0.797
  337SOL    HW2 1378   1.638   4.374   0.821
  337SOL    HW3 1379   1.561   4.505   0.821
  337SOL    MW4 1380   1.566   4.419   0.804
  338SOL     OW 1381   1.852   0.107   0.871
  338SOL    HW2 1382   1.906   0.063   0.806
  338SOL    HW3 1383   1.762   0.079   0.851
  338SOL    MW4 1384   1.847   0.098   0.860
  339SOL     OW 1385   1.685   0.287   0.618
  339SOL    HW2 1386   1.649   0.199   0.631
  339SOL    HW3 1387   1.718   0.312   0.704
  339SOL    MW4 1388   1.684   0.279   0.631
  340SOL     OW 1389   1.802   0.379   0.851
  340SOL    HW2 1390   1.849   0.295   0.852
  340SOL    HW3 1391   1.871   0.444   0.836
  340SOL    MW4 1392   1.817   0.377   0.849
  341SOL     OW 1393   2.019   0.533   0.774
  341SOL    HW2 1394   2.053   0.549   0.687
  341SOL    HW3 1395   2.087   0.480   0.817
  341SOL    MW4 1396   2.033   0.528   0.769
  342SOL     OW 1397   2.128   0.785   0.882
  342SOL    HW2 1398   2.205   0.803   0.828
  342SOL    HW3 1399   2.093   0.703   0.849
  342SOL    MW4 1400   2.133   0.777   0.871
  343SOL     OW 1401   1.896   0.921   0.770
  343SOL    HW2 1402   1.860   0.998   0.813
  343SOL    HW3 1403   1.952   0.880   0.837
  343SOL    MW4 1404   1.899   0.926   0.785
  344SOL     OW 1405   1.800   1.167   0.847
  344SOL    HW2 1406   1.870   1.212   0.801
  344SOL    HW3 1407   1.720   1.207   0.815
  344SOL    MW4 1408   1.799   1.178   0.837
  345SOL     OW 1409   2.017   1.291   0.702
  345SOL    HW2 1410   2.089   1.236   0.733
  345SOL    HW3 1411   2.020   1.282   0.606
  345SOL    MW4 1412   2.027   1.282   0.693
  346SOL     OW 1413   1.982   1.532   0.802
  346SOL    HW2 1414   2.038   1.598   0.761
  346SOL    HW3 1415   2.008   1.449   0.760
  346SOL    MW4 1416   1.993   1.530   0.791
  347SOL     OW 1417   2.318   1.385   0.452
  347SOL    HW2 1418   2.355   1.469   0.427
  347SOL    HW3 1419   2.394   1.328   0.466
  347SOL    MW4 1420   2.333   1.389   0.450
  348SOL     OW 1421   1.739   1.889   0.857
  348SOL    HW2 1422   1.719   1.798   0.832
  348SOL    HW3 1423   1.677   1.942   0.807
  348SOL    MW4 1424   1.728   1.884   0.847
  349SOL     OW 1425   1.992   2.038   0.760
  349SOL    HW2 1426   1.983   2.133   0.760
  349SOL    HW3 1427   1.905   2.005   0.782
  349SOL    MW4 1428   1.979   2.046   0.763
  350SOL     OW 1429   1.997   2.307   0.818
  350SOL    HW2 1430   2.006   2.321   0.912
  350SOL    HW3 1431   1.912   2.346   0.796
  350SOL    MW4 1432   1.987   2.314   0.827
  351SOL     OW 1433   1.759   2.461   0.781
  351SOL    HW2 1434   1.684   2.405   0.802
  351SOL    HW3 1435   1.772   2.448   0.687
  351SOL    MW4 1436   1.751   2.452   0.771
  352SOL     OW 1437   1.821   2.719   0.870
  352SOL    HW2 1438   1.826   2.635   0.824
  352SOL    HW3 1439   1.736   2.754   0.846
  352SOL    MW4 1440   1.811   2.713   0.861
  353SOL     OW 1441   1.994   2.883   0.740
  353SOL    HW2 1442   2.074   2.832   0.750
  353SOL    HW3 1443   1.929   2.836   0.793
  353SOL    MW4 1444   1.996   2.870   0.749
  354SOL     OW 1445   2.025   3.130   0.836
  354SOL    HW2 1446   1.943   3.167   0.801
  354SOL    HW3 1447   2.027   3.041   0.803
  354SOL    MW4 1448   2.014   3.123   0.827
  355SOL     OW 1449   1.771   3.240   0.785
  355SOL    HW2 1450   1.705   3.172   0.800
  355SOL    HW3 1451   1.781   3.243   0.690
  355SOL    MW4 1452   1.764   3.231   0.774
  356SOL     OW 1453   1.772   3.490   0.878
  356SOL    HW2 1454   1.783   3.483   0.973
  356SOL    HW3 1455   1.772   3.399   0.847
  356SOL    MW4 1456   1.774   3.477   0.886
  357SOL     OW 1457   2.013   3.599   0.774
  357SOL    HW2 1458   2.022   3.692   0.795
  357SOL    HW3 1459   1.926   3.576   0.806
  357SOL    MW4 1460   2.003   3.608   0.781
  358SOL     OW 1461   2.027   3.882   0.839
  358SOL    HW2 1462   2.007   3.902   0.931
  358SOL    HW3 1463   1.950   3.913   0.791
  358SOL    MW4 1464   2.014   3.888   0.845
  359SOL     OW 1465   1.820   4.003   0.705
  359SOL    HW2 1466   1.739   3.954   0.719
  359SOL    HW3 1467   1.835   3.997   0.610
  359SOL    MW4 1468   1.811   3.996   0.694
  360SOL     OW 1469   1.807   4.286   0.795
  360SOL    HW2 1470   1.810   4.272   0.890
  360SOL    HW3 1471   1.809   4.198   0.758
  360SOL    MW4 1472   1.808   4.273   0.803
  361SOL     OW 1473   2.036   4.379   0.703
  361SOL    HW2 1474   1.953   4.352   0.743
  361SOL    HW3 1475   2.023   4.363   0.610
  361SOL    MW4 1476   2.023   4.374   0.696
  362SOL     OW 1477   2.424   0.005   0.839
  362SOL    HW2 1478   2.449  -0.031   0.924
  362SOL    HW3 1479   2.505   0.042   0.803
  362SOL    MW4 1480   2.438   0.005   0.845
  363SOL     OW 1481   2.231   0.147   0.723
  363SOL    HW2 1482   2.286   0.088   0.774
  363SOL    HW3 1483   2.150   0.097   0.707
  363SOL    MW4 1484   2.227   0.132   0.727
  364SOL     OW 1485   2.230   0.397   0.862
  364SOL    HW2 1486   2.307   0.442   0.828
  364SOL    HW3 1487   2.237   0.308   0.828
  364SOL    MW4 1488   2.241   0.391   0.853
  365SOL     OW 1489   2.453   0.534   0.766
  365SOL    HW2 1490   2.444   0.524   0.672
  365SOL    HW3 1491   2.532   0.484   0.788
  365SOL    MW4 1492   2.462   0.526   0.757
  366SOL     OW 1493   2.549   0.767   0.898
  366SOL    HW2 1494   2.634   0.785   0.857
  366SOL    HW3 1495   2.523   0.682   0.862
  366SOL    MW4 1496   2.557   0.758   0.888
  367SOL     OW 1497   2.350   0.901   0.740
  367SOL    HW2 1498   2.432   0.879   0.783
  367SOL    HW3 1499   2.367   0.888   0.646
  367SOL    MW4 1500   2.363   0.896   0.733
  368SOL     OW 1501   2.225   1.144   0.805
  368SOL    HW2 1502   2.233   1.139   0.900
  368SOL    HW3 1503   2.262   1.062   0.774
  368SOL    MW4 1504   2.231   1.133   0.814
  369SOL     OW 1505   2.497   1.261   0.757
  369SOL    HW2 1506   2.406   1.230   0.757
  369SOL    HW3 1507   2.525   1.255   0.666
  369SOL    MW4 1508   2.489   1.256   0.745
  370SOL     OW 1509   2.469   1.557   0.755
  370SOL    HW2 1510   2.557   1.593   0.748
  370SOL    HW3 1511   2.482   1.464   0.774
  370SOL    MW4 1512   2.482   1.550   0.757
  371SOL     OW 1513   2.197   1.702   0.699
  371SOL    HW2 1514   2.269   1.639   0.700
  371SOL    HW3 1515   2.216   1.759   0.625
  371SOL    MW4 1516   2.209   1.701   0.689
  372SOL     OW 1517   2.239   1.928   0.845
  372SOL    HW2 1518   2.219   1.839   0.815
  372SOL    HW3 1519   2.166   1.981   0.815
  372SOL    MW4 1520   2.227   1.923   0.837
  373SOL     OW 1521   2.457   2.072   0.756
  373SOL    HW2 1522   2.385   2.016   0.783
  373SOL    HW3 1523   2.450   2.076   0.660
  373SOL    MW4 1524   2.447   2.065   0.747
  374SOL     OW 1525   2.445   2.352   0.838
  374SOL    HW2 1526   2.517   2.391   0.789
  374SOL    HW3 1527   2.447   2.259   0.814
  374SOL    MW4 1528   2.455   2.345   0.829
  375SOL     OW 1529   2.217   2.458   0.733
  375SOL    HW2 1530   2.287   2.421   0.788
  375SOL    HW3 1531   2.137   2.416   0.765
  375SOL    MW4 1532   2.215   2.447   0.745
  376SOL     OW 1533   2.220   2.730   0.794
  376SOL    HW2 1534   2.220   2.735   0.889
  376SOL    HW3 1535   2.221   2.636   0.775
  376SOL    MW4 1536   2.220   2.718   0.804
  377SOL     OW 1537   2.454   2.842   0.728
  377SOL    HW2 1538   2.528   2.793   0.764
  377SOL    HW3 1539   2.377   2.789   0.751
  377SOL    MW4 1540   2.454   2.828   0.736
  378SOL     OW 1541   2.454   3.111   0.796
  378SOL    HW2 1542   2.460   3.113   0.892
  378SOL    HW3 1543   2.454   3.018   0.774
  378SOL    MW4 1544   2.455   3.099   0.806
  379SOL     OW 1545   2.207   3.238   0.667
  379SOL    HW2 1546   2.142   3.205   0.728
  379SOL    HW3 1547   2.290   3.205   0.701
  379SOL    MW4 1548   2.210   3.230   0.680
  380SOL     OW 1549   2.234   3.443   0.857
  380SOL    HW2 1550   2.211   3.357   0.822
  380SOL    HW3 1551   2.164   3.500   0.826
  380SOL    MW4 1552   2.222   3.439   0.848
  381SOL     OW 1553   2.424   3.559   0.695
  381SOL    HW2 1554   2.506   3.529   0.732
  381SOL    HW3 1555   2.357   3.505   0.738
  381SOL    MW4 1556   2.426   3.548   0.705
  382SOL     OW 1557   2.459   3.810   0.817
  382SOL    HW2 1558   2.385   3.850   0.771
  382SOL    HW3 1559   2.459   3.719   0.789
  382SOL    MW4 1560   2.449   3.803   0.807
  383SOL     OW 1561   2.248   3.969   0.700
  383SOL    HW2 1562   2.182   3.928   0.755
  383SOL    HW3 1563   2.242   3.923   0.616
  383SOL    MW4 1564   2.238   3.958   0.696
  384SOL     OW 1565   2.236   4.230   0.818
  384SOL    HW2 1566   2.215   4.144   0.782
  384SOL    HW3 1567   2.171   4.289   0.780
  384SOL    MW4 1568   2.225   4.226   0.808
  385SOL     OW 1569   2.524   4.172   0.851
  385SOL    HW2 1570   2.562   4.182   0.938
  385SOL    HW3 1571   2.431   4.189   0.863
  385SOL    MW4 1572   2.517   4.175   0.864
  386SOL     OW 1573   2.907   4.653   0.852
  386SOL    HW2 1574   2.932   4.562   0.835
  386SOL    HW3 1575   2.828   4.667   0.799
  386SOL    MW4 1576   2.900   4.643   0.843
  387SOL     OW 1577   2.637   4.350   0.600
  387SOL    HW2 1578   2.553   4.379   0.636
  387SOL    HW3 1579   2.646   4.400   0.519
  387SOL    MW4 1580   2.627   4.360   0.594
  388SOL     OW 1581   2.654   0.352   0.846
  388SOL    HW2 1582   2.660   0.348   0.942
  388SOL    HW3 1583   2.734   0.398   0.819
  388SOL    MW4 1584   2.665   0.358   0.855
  389SOL     OW 1585   2.909   0.486   0.783
  389SOL    HW2 1586   2.983   0.437   0.817
  389SOL    HW3 1587   2.907   0.464   0.689
  389SOL    MW4 1588   2.918   0.476   0.775
  390SOL     OW 1589   2.867   0.746   0.852
  390SOL    HW2 1590   2.886   0.744   0.946
  390SOL    HW3 1591   2.888   0.658   0.820
  390SOL    MW4 1592   2.872   0.734   0.860
  391SOL     OW 1593   2.758   0.906   0.665
  391SOL    HW2 1594   2.822   0.862   0.721
  391SOL    HW3 1595   2.709   0.835   0.623
  391SOL    MW4 1596   2.760   0.891   0.667
  392SOL     OW 1597   2.703   1.125   0.865
  392SOL    HW2 1598   2.699   1.039   0.823
  392SOL    HW3 1599   2.623   1.169   0.837
  392SOL    MW4 1600   2.692   1.119   0.856
  393SOL     OW 1601   2.914   1.238   0.704
  393SOL    HW2 1602   3.002   1.208   0.727
  393SOL    HW3 1603   2.858   1.206   0.775
  393SOL    MW4 1604   2.918   1.230   0.717
  394SOL     OW 1605   2.940   1.515   0.828
  394SOL    HW2 1606   3.027   1.545   0.803
  394SOL    HW3 1607   2.938   1.423   0.801
  394SOL    MW4 1608   2.951   1.507   0.821
  395SOL     OW 1609   2.710   1.665   0.735
  395SOL    HW2 1610   2.724   1.756   0.763
  395SOL    HW3 1611   2.782   1.617   0.776
  395SOL    MW4 1612   2.722   1.671   0.744
  396SOL     OW 1613   2.700   1.945   0.795
  396SOL    HW2 1614   2.723   1.944   0.888
  396SOL    HW3 1615   2.617   1.992   0.790
  396SOL    MW4 1616   2.692   1.951   0.806
  397SOL     OW 1617   2.881   2.127   0.679
  397SOL    HW2 1618   2.879   2.210   0.726
  397SOL    HW3 1619   2.814   2.073   0.722
  397SOL    MW4 1620   2.872   2.131   0.691
  398SOL     OW 1621   2.903   2.374   0.812
  398SOL    HW2 1622   2.909   2.356   0.906
  398SOL    HW3 1623   2.809   2.380   0.795
  398SOL    MW4 1624   2.892   2.373   0.822
  399SOL     OW 1625   2.661   2.445   0.705
  399SOL    HW2 1626   2.673   2.432   0.611
  399SOL    HW3 1627   2.678   2.538   0.719
  399SOL    MW4 1628   2.665   2.455   0.694
  400SOL     OW 1629   2.687   2.704   0.784
  400SOL    HW2 1630   2.683   2.699   0.880
  400SOL    HW3 1631   2.762   2.761   0.767
  400SOL    MW4 1632   2.697   2.711   0.795
  401SOL     OW 1633   2.926   2.815   0.476
  401SOL    HW2 1634   2.936   2.728   0.437
  401SOL    HW3 1635   2.862   2.859   0.420
  401SOL    MW4 1636   2.919   2.809   0.464
  402SOL     OW 1637   2.903   3.119   0.859
  402SOL    HW2 1638   2.830   3.167   0.820
  402SOL    HW3 1639   2.900   3.032   0.818
  402SOL    MW4 1640   2.893   3.114   0.848
  403SOL     OW 1641   2.706   3.240   0.713
  403SOL    HW2 1642   2.693   3.326   0.753
  403SOL    HW3 1643   2.628   3.190   0.737
  403SOL    MW4 1644   2.694   3.244   0.722
  404SOL     OW 1645   2.654   3.490   0.831
  404SOL    HW2 1646   2.672   3.462   0.921
  404SOL    HW3 1647   2.738   3.520   0.798
  404SOL    MW4 1648   2.667   3.490   0.839
  405SOL     OW 1649   2.887   3.581   0.685
  405SOL    HW2 1650   2.917   3.663   0.723
  405SOL    HW3 1651   2.899   3.592   0.591
  405SOL    MW4 1652   2.892   3.593   0.678
  406SOL     OW 1653   2.937   3.806   0.825
  406SOL    HW2 1654   2.928   3.800   0.920
  406SOL    HW3 1655   2.853   3.839   0.794
  406SOL    MW4 1656   2.925   3.810   0.833
  407SOL     OW 1657   2.701   3.897   0.699
  407SOL    HW2 1658   2.620   3.858   0.733
  407SOL    HW3 1659   2.708   3.864   0.609
  407SOL    MW4 1660   2.691   3.888   0.692
  408SOL     OW 1661   2.840   4.221   0.820
  408SOL    HW2 1662   2.927   4.193   0.849
  408SOL    HW3 1663   2.790   4.233   0.900
  408SOL    MW4 1664   2.845   4.219   0.834
  409SOL     OW 1665   2.987   4.428   0.703
  409SOL    HW2 1666   3.066   4.387   0.667
  409SOL    HW3 1667   2.922   4.357   0.704
  409SOL    MW4 1668   2.989   4.413   0.699
  410SOL     OW 1669   3.315   4.577   0.802
  410SOL    HW2 1670   3.341   4.602   0.890
  410SOL    HW3 1671   3.262   4.650   0.771
  410SOL    MW4 1672   3.312   4.590   0.809
  411SOL     OW 1673   3.125   0.097   0.711
  411SOL    HW2 1674   3.140   0.188   0.738
  411SOL    HW3 1675   3.056   0.066   0.770
  411SOL    MW4 1676   3.118   0.105   0.722
  412SOL     OW 1677   3.134   0.345   0.838
  412SOL    HW2 1678   3.136   0.344   0.933
  412SOL    HW3 1679   3.211   0.394   0.812
  412SOL    MW4 1680   3.144   0.351   0.847
  413SOL     OW 1681   3.366   0.480   0.740
  413SOL    HW2 1682   3.433   0.414   0.757
  413SOL    HW3 1683   3.351   0.474   0.645
  413SOL    MW4 1684   3.373   0.470   0.729
  414SOL     OW 1685   3.322   0.733   0.858
  414SOL    HW2 1686   3.251   0.779   0.814
  414SOL    HW3 1687   3.317   0.643   0.823
  414SOL    MW4 1688   3.312   0.727   0.847
  415SOL     OW 1689   3.101   0.888   0.750
  415SOL    HW2 1690   3.099   0.982   0.765
  415SOL    HW3 1691   3.022   0.855   0.793
  415SOL    MW4 1692   3.091   0.896   0.758
  416SOL     OW 1693   3.149   1.154   0.805
  416SOL    HW2 1694   3.142   1.162   0.900
  416SOL    HW3 1695   3.243   1.161   0.787
  416SOL    MW4 1696   3.160   1.156   0.815
  417SOL     OW 1697   3.411   1.184   0.722
  417SOL    HW2 1698   3.484   1.145   0.770
  417SOL    HW3 1699   3.414   1.276   0.745
  417SOL    MW4 1700   3.421   1.191   0.731
  418SOL     OW 1701   3.378   1.439   0.806
  418SOL    HW2 1702   3.395   1.459   0.898
  418SOL    HW3 1703   3.444   1.489   0.758
  418SOL    MW4 1704   3.389   1.448   0.812
  419SOL     OW 1705   3.190   1.634   0.757
  419SOL    HW2 1706   3.258   1.570   0.778
  419SOL    HW3 1707   3.174   1.623   0.663
  419SOL    MW4 1708   3.197   1.624   0.747
  420SOL     OW 1709   3.225   1.897   0.816
  420SOL    HW2 1710   3.229   1.913   0.911
  420SOL    HW3 1711   3.207   1.803   0.809
  420SOL    MW4 1712   3.223   1.887   0.828
  421SOL     OW 1713   3.601   1.966   0.881
  421SOL    HW2 1714   3.562   2.053   0.890
  421SOL    HW3 1715   3.545   1.919   0.820
  421SOL    MW4 1716   3.589   1.971   0.874
  422SOL     OW 1717   3.486   2.214   0.875
  422SOL    HW2 1718   3.447   2.250   0.955
  422SOL    HW3 1719   3.566   2.264   0.863
  422SOL    MW4 1720   3.491   2.226   0.884
  423SOL     OW 1721   3.094   2.512   0.664
  423SOL    HW2 1722   3.149   2.435   0.678
  423SOL    HW3 1723   3.010   2.489   0.704
  423SOL    MW4 1724   3.090   2.498   0.671
  424SOL     OW 1725   3.149   2.735   0.818
  424SOL    HW2 1726   3.126   2.656   0.769
  424SOL    HW3 1727   3.218   2.776   0.766
  424SOL    MW4 1728   3.155   2.730   0.805
  425SOL     OW 1729   3.344   2.865   0.666
  425SOL    HW2 1730   3.297   2.871   0.582
  425SOL    HW3 1731   3.419   2.810   0.648
  425SOL    MW4 1732   3.347   2.859   0.653
  426SOL     OW 1733   3.396   3.127   0.782
  426SOL    HW2 1734   3.398   3.121   0.877
  426SOL    HW3 1735   3.394   3.036   0.752
  426SOL    MW4 1736   3.396   3.114   0.791
  427SOL     OW 1737   3.134   3.219   0.714
  427SOL    HW2 1738   3.213   3.186   0.758
  427SOL    HW3 1739   3.062   3.190   0.769
  427SOL    MW4 1740   3.135   3.211   0.727
  428SOL     OW 1741   3.127   3.500   0.793
  428SOL    HW2 1742   3.123   3.404   0.789
  428SOL    HW3 1743   3.037   3.528   0.777
  428SOL    MW4 1744   3.115   3.491   0.790
  429SOL     OW 1745   3.685   4.180   0.612
  429SOL    HW2 1746   3.724   4.127   0.542
  429SOL    HW3 1747   3.754   4.243   0.635
  429SOL    MW4 1748   3.700   4.182   0.606
  430SOL     OW 1749   3.506   3.947   0.847
  430SOL    HW2 1750   3.501   4.041   0.832
  430SOL    HW3 1751   3.446   3.931   0.920
  430SOL    MW4 1752   3.497   3.957   0.855
  431SOL     OW 1753   3.100   3.940   0.659
  431SOL    HW2 1754   3.192   3.912   0.655
  431SOL    HW3 1755   3.058   3.877   0.717
  431SOL    MW4 1756   3.107   3.928   0.666
  432SOL     OW 1757   3.116   4.152   0.855
  432SOL    HW2 1758   3.182   4.203   0.809
  432SOL    HW3 1759   3.118   4.066   0.812
  432SOL    MW4 1760   3.125   4.147   0.844
  433SOL     OW 1761   3.263   4.332   0.694
  433SOL    HW2 1762   3.275   4.422   0.724
  433SOL    HW3 1763   3.310   4.328   0.610
  433SOL    MW4 1764   3.271   4.343   0.687
  434SOL     OW 1765   3.777   4.584   0.843
  434SOL    HW2 1766   3.844   4.634   0.797
  434SOL    HW3 1767   3.694   4.619   0.810
  434SOL    MW4 1768   3.775   4.595   0.832
  435SOL     OW 1769   3.559   0.014   0.739
  435SOL    HW2 1770   3.476  -0.021   0.771
  435SOL    HW3 1771   3.548   0.018   0.644
  435SOL    MW4 1772   3.547   0.010   0.731
  436SOL     OW 1773   3.551   0.284   0.826
  436SOL    HW2 1774   3.554   0.286   0.921
  436SOL    HW3 1775   3.566   0.192   0.803
  436SOL    MW4 1776   3.554   0.272   0.835
  437SOL     OW 1777   3.776   0.449   0.751
  437SOL    HW2 1778   3.747   0.531   0.789
  437SOL    HW3 1779   3.704   0.388   0.766
  437SOL    MW4 1780   3.763   0.451   0.758
  438SOL     OW 1781   3.790   0.711   0.859
  438SOL    HW2 1782   3.822   0.698   0.948
  438SOL    HW3 1783   3.864   0.750   0.812
  438SOL    MW4 1784   3.804   0.715   0.865
  439SOL     OW 1785   3.570   0.833   0.755
  439SOL    HW2 1786   3.643   0.779   0.785
  439SOL    HW3 1787   3.492   0.781   0.778
  439SOL    MW4 1788   3.569   0.819   0.762
  440SOL     OW 1789   3.618   1.085   0.865
  440SOL    HW2 1790   3.605   1.090   0.959
  440SOL    HW3 1791   3.601   0.994   0.843
  440SOL    MW4 1792   3.614   1.074   0.874
  441SOL     OW 1793   3.779   1.280   0.752
  441SOL    HW2 1794   3.718   1.221   0.797
  441SOL    HW3 1795   3.789   1.241   0.665
  441SOL    MW4 1796   3.772   1.267   0.746
  442SOL     OW 1797   3.841   1.558   0.806
  442SOL    HW2 1798   3.913   1.587   0.752
  442SOL    HW3 1799   3.830   1.465   0.784
  442SOL    MW4 1800   3.849   1.549   0.796
  443SOL     OW 1801   3.584   1.579   0.671
  443SOL    HW2 1802   3.544   1.666   0.666
  443SOL    HW3 1803   3.657   1.589   0.732
  443SOL    MW4 1804   3.589   1.592   0.679
  444SOL     OW 1805   3.780   1.915   0.685
  444SOL    HW2 1806   3.863   1.893   0.728
  444SOL    HW3 1807   3.716   1.916   0.756
  444SOL    MW4 1808   3.782   1.912   0.700
  445SOL     OW 1809   3.818   2.197   0.636
  445SOL    HW2 1810   3.791   2.241   0.717
  445SOL    HW3 1811   3.813   2.104   0.657
  445SOL    MW4 1812   3.814   2.191   0.649
  446SOL     OW 1813   3.708   1.821   0.435
  446SOL    HW2 1814   3.730   1.835   0.527
  446SOL    HW3 1815   3.685   1.728   0.430
  446SOL    MW4 1816   3.708   1.810   0.446
  447SOL     OW 1817   3.737   2.341   0.860
  447SOL    HW2 1818   3.748   2.434   0.843
  447SOL    HW3 1819   3.769   2.329   0.950
  447SOL    MW4 1820   3.743   2.351   0.870
  448SOL     OW 1821   3.682   2.633   0.850
  448SOL    HW2 1822   3.636   2.657   0.931
  448SOL    HW3 1823   3.744   2.705   0.836
  448SOL    MW4 1824   3.684   2.646   0.859
  449SOL     OW 1825   3.865   2.859   0.817
  449SOL    HW2 1826   3.872   2.950   0.847
  449SOL    HW3 1827   3.908   2.859   0.731
  449SOL    MW4 1828   3.872   2.871   0.810
  450SOL     OW 1829   3.890   3.163   0.857
  450SOL    HW2 1830   3.959   3.209   0.809
  450SOL    HW3 1831   3.813   3.219   0.847
  450SOL    MW4 1832   3.889   3.176   0.849
  451SOL     OW 1833   3.627   3.291   0.785
  451SOL    HW2 1834   3.555   3.230   0.796
  451SOL    HW3 1835   3.668   3.266   0.702
  451SOL    MW4 1836   3.623   3.280   0.776
  452SOL     OW 1837   3.557   3.551   0.869
  452SOL    HW2 1838   3.582   3.460   0.849
  452SOL    HW3 1839   3.480   3.567   0.815
  452SOL    MW4 1840   3.550   3.541   0.859
  453SOL     OW 1841   3.792   3.580   0.621
  453SOL    HW2 1842   3.757   3.669   0.624
  453SOL    HW3 1843   3.821   3.562   0.710
  453SOL    MW4 1844   3.791   3.589   0.633
  454SOL     OW 1845   3.733   3.787   0.850
  454SOL    HW2 1846   3.657   3.845   0.851
  454SOL    HW3 1847   3.696   3.699   0.855
  454SOL    MW4 1848   3.718   3.783   0.851
  455SOL     OW 1849   2.624   4.276   0.244
  455SOL    HW2 1850   2.626   4.371   0.248
  455SOL    HW3 1851   2.653   4.255   0.155
  455SOL    MW4 1852   2.628   4.286   0.233
  456SOL     OW 1853   3.485   4.222   0.807
  456SOL    HW2 1854   3.546   4.199   0.738
  456SOL    HW3 1855   3.409   4.258   0.761
  456SOL    MW4 1856   3.483   4.224   0.792
  457SOL     OW 1857   3.885   4.352   0.696
  457SOL    HW2 1858   3.934   4.284   0.740
  457SOL    HW3 1859   3.861   4.414   0.765
  457SOL    MW4 1860   3.889   4.351   0.711
  458SOL     OW 1861   4.215   4.656   0.830
  458SOL    HW2 1862   4.209   4.658   0.926
  458SOL    HW3 1863   4.141   4.710   0.801
  458SOL    MW4 1864   4.204   4.664   0.839
  459SOL     OW 1865   3.960   0.087   0.729
  459SOL    HW2 1866   3.990   0.177   0.736
  459SOL    HW3 1867   3.976   0.063   0.638
  459SOL    MW4 1868   3.966   0.095   0.718
  460SOL     OW 1869   4.008   0.336   0.845
  460SOL    HW2 1870   4.078   0.391   0.810
  460SOL    HW3 1871   3.928   0.383   0.822
  460SOL    MW4 1872   4.007   0.350   0.838
  461SOL     OW 1873   4.285   0.473   0.764
  461SOL    HW2 1874   4.367   0.437   0.798
  461SOL    HW3 1875   4.292   0.465   0.669
  461SOL    MW4 1876   4.297   0.467   0.756
  462SOL     OW 1877   4.265   0.711   0.904
  462SOL    HW2 1878   4.198   0.774   0.877
  462SOL    HW3 1879   4.252   0.636   0.846
  462SOL    MW4 1880   4.255   0.709   0.893
  463SOL     OW 1881   4.032   0.862   0.780
  463SOL    HW2 1882   4.019   0.956   0.790
  463SOL    HW3 1883   4.059   0.851   0.689
  463SOL    MW4 1884   4.034   0.873   0.769
  464SOL     OW 1885   4.051   1.143   0.821
  464SOL    HW2 1886   4.054   1.137   0.917
  464SOL    HW3 1887   3.981   1.205   0.803
  464SOL    MW4 1888   4.042   1.150   0.831
  465SOL     OW 1889   4.292   1.244   0.729
  465SOL    HW2 1890   4.220   1.196   0.771
  465SOL    HW3 1891   4.370   1.213   0.774
  465SOL    MW4 1892   4.292   1.234   0.740
  466SOL     OW 1893   4.248   1.502   0.810
  466SOL    HW2 1894   4.242   1.496   0.906
  466SOL    HW3 1895   4.269   1.413   0.782
  466SOL    MW4 1896   4.250   1.490   0.819
  467SOL     OW 1897   4.074   1.641   0.662
  467SOL    HW2 1898   4.132   1.581   0.709
  467SOL    HW3 1899   4.058   1.599   0.578
  467SOL    MW4 1900   4.080   1.628   0.657
  468SOL     OW 1901   4.031   1.870   0.811
  468SOL    HW2 1902   4.040   1.783   0.773
  468SOL    HW3 1903   4.104   1.920   0.773
  468SOL    MW4 1904   4.042   1.865   0.801
  469SOL     OW 1905   4.244   2.038   0.691
  469SOL    HW2 1906   4.306   2.011   0.758
  469SOL    HW3 1907   4.257   1.976   0.619
  469SOL    MW4 1908   4.254   2.027   0.690
  470SOL     OW 1909   4.219   2.327   0.796
  470SOL    HW2 1910   4.154   2.367   0.738
  470SOL    HW3 1911   4.243   2.246   0.751
  470SOL    MW4 1912   4.213   2.321   0.782
  471SOL     OW 1913   4.056   2.533   0.658
  471SOL    HW2 1914   4.078   2.580   0.739
  471SOL    HW3 1915   3.974   2.572   0.629
  471SOL    MW4 1916   4.048   2.545   0.665
  472SOL     OW 1917   4.072   2.687   0.888
  472SOL    HW2 1918   4.145   2.745   0.868
  472SOL    HW3 1919   3.994   2.740   0.872
  472SOL    MW4 1920   4.071   2.702   0.884
  473SOL     OW 1921   4.284   2.817   0.809
  473SOL    HW2 1922   4.369   2.775   0.819
  473SOL    HW3 1923   4.277   2.834   0.715
  473SOL    MW4 1924   4.294   2.814   0.798
  474SOL     OW 1925   4.270   3.089   0.849
  474SOL    HW2 1926   4.264   2.995   0.830
  474SOL    HW3 1927   4.360   3.112   0.824
  474SOL    MW4 1928   4.281   3.079   0.843
  475SOL     OW 1929   4.113   3.278   0.721
  475SOL    HW2 1930   4.149   3.364   0.742
  475SOL    HW3 1931   4.165   3.216   0.772
  475SOL    MW4 1932   4.125   3.281   0.730
  476SOL     OW 1933   3.903   3.521   0.886
  476SOL    HW2 1934   3.930   3.500   0.976
  476SOL    HW3 1935   3.985   3.518   0.836
  476SOL    MW4 1936   3.918   3.518   0.892
  477SOL     OW 1937   4.198   3.526   0.745
  477SOL    HW2 1938   4.200   3.612   0.786
  477SOL    HW3 1939   4.233   3.541   0.657
  477SOL    MW4 1940   4.203   3.539   0.739
  478SOL     OW 1941   4.197   3.797   0.838
  478SOL    HW2 1942   4.212   3.828   0.927
  478SOL    HW3 1943   4.105   3.819   0.821
  478SOL    MW4 1944   4.187   3.804   0.847
  479SOL     OW 1945   3.973   3.888   0.739
  479SOL    HW2 1946   3.891   3.849   0.771
  479SOL    HW3 1947   3.973   3.871   0.645
  479SOL    MW4 1948   3.962   3.881   0.731
  480SOL     OW 1949   4.035   4.153   0.818
  480SOL    HW2 1950   4.096   4.157   0.743
  480SOL    HW3 1951   3.983   4.074   0.801
  480SOL    MW4 1952   4.037   4.143   0.806
  481SOL     OW 1953   4.314   4.421   0.715
  481SOL    HW2 1954   4.284   4.501   0.759
  481SOL    HW3 1955   4.378   4.383   0.775
  481SOL    MW4 1956   4.318   4.427   0.729
  482SOL     OW 1957   0.207   4.653   1.100
  482SOL    HW2 1958   0.283   4.693   1.144
  482SOL    HW3 1959   0.222   4.668   1.007
  482SOL    MW4 1960   0.219   4.660   1.094
  483SOL     OW 1961   4.477   0.066   1.216
  483SOL    HW2 1962   4.403   0.023   1.173
  483SOL    HW3 1963   4.555   0.031   1.172
  483SOL    MW4 1964   4.478   0.056   1.204
  484SOL     OW 1965   0.016   0.327   1.120
  484SOL    HW2 1966  -0.052   0.378   1.165
  484SOL    HW3 1967   0.013   0.241   1.161
  484SOL    MW4 1968   0.007   0.323   1.131
  485SOL     OW 1969   0.206   0.489   1.219
  485SOL    HW2 1970   0.190   0.569   1.169
  485SOL    HW3 1971   0.141   0.427   1.186
  485SOL    MW4 1972   0.195   0.492   1.208
  486SOL     OW 1973   0.179   0.742   1.135
  486SOL    HW2 1974   0.255   0.781   1.177
  486SOL    HW3 1975   0.104   0.791   1.168
  486SOL    MW4 1976   0.179   0.753   1.145
  487SOL     OW 1977   4.464   0.897   1.242
  487SOL    HW2 1978   4.479   0.897   1.336
  487SOL    HW3 1979   4.401   0.826   1.228
  487SOL    MW4 1980   4.458   0.887   1.252
  488SOL     OW 1981   4.490   1.134   1.108
  488SOL    HW2 1982   4.406   1.170   1.135
  488SOL    HW3 1983   4.494   1.048   1.152
  488SOL    MW4 1984   4.479   1.127   1.118
  489SOL     OW 1985   0.209   1.279   1.209
  489SOL    HW2 1986   0.276   1.215   1.188
  489SOL    HW3 1987   0.128   1.241   1.175
  489SOL    MW4 1988   0.207   1.266   1.202
  490SOL     OW 1989   0.204   1.534   1.119
  490SOL    HW2 1990   0.219   1.442   1.140
  490SOL    HW3 1991   0.210   1.538   1.024
  490SOL    MW4 1992   0.207   1.522   1.110
  491SOL     OW 1993   4.442   1.652   1.229
  491SOL    HW2 1994   4.447   1.742   1.197
  491SOL    HW3 1995   4.531   1.617   1.215
  491SOL    MW4 1996   4.455   1.659   1.223
  492SOL     OW 1997   4.426   1.908   1.107
  492SOL    HW2 1998   4.346   1.957   1.123
  492SOL    HW3 1999   4.433   1.902   1.012
  492SOL    MW4 2000   4.416   1.913   1.097
  493SOL     OW 2001   0.185   2.033   1.190
  493SOL    HW2 2002   0.178   2.117   1.147
  493SOL    HW3 2003   0.105   1.986   1.167
  493SOL    MW4 2004   0.174   2.038   1.182
  494SOL     OW 2005   0.174   2.283   1.072
  494SOL    HW2 2006   0.251   2.326   1.108
  494SOL    HW3 2007   0.100   2.332   1.110
  494SOL    MW4 2008   0.174   2.295   1.082
  495SOL     OW 2009   4.453   2.430   1.170
  495SOL    HW2 2010   4.457   2.424   1.265
  495SOL    HW3 2011   4.371   2.387   1.147
  495SOL    MW4 2012   4.443   2.423   1.179
  496SOL     OW 2013   4.474   2.698   1.121
  496SOL    HW2 2014   4.414   2.735   1.186
  496SOL    HW3 2015   4.467   2.604   1.133
  496SOL    MW4 2016   4.465   2.691   1.131
  497SOL     OW 2017   0.204   2.844   1.184
  497SOL    HW2 2018   0.221   2.823   1.276
  497SOL    HW3 2019   0.123   2.798   1.163
  497SOL    MW4 2020   0.196   2.835   1.193
  498SOL     OW 2021   0.233   3.124   1.137
  498SOL    HW2 2022   0.312   3.160   1.177
  498SOL    HW3 2023   0.226   3.035   1.172
  498SOL    MW4 2024   0.242   3.117   1.147
  499SOL     OW 2025   4.472   3.224   1.207
  499SOL    HW2 2026   4.404   3.171   1.167
  499SOL    HW3 2027   4.554   3.181   1.182
  499SOL    MW4 2028   4.474   3.212   1.198
  500SOL     OW 2029   0.014   3.481   1.100
  500SOL    HW2 2030   0.007   3.389   1.125
  500SOL    HW3 2031   0.011   3.480   1.005
  500SOL    MW4 2032   0.013   3.469   1.091
  501SOL     OW 2033   0.234   3.613   1.201
  501SOL    HW2 2034   0.224   3.590   1.293
  501SOL    HW3 2035   0.158   3.575   1.158
  501SOL    MW4 2036   0.223   3.605   1.207
  502SOL     OW 2037   0.237   3.868   1.107
  502SOL    HW2 2038   0.156   3.903   1.144
  502SOL    HW3 2039   0.242   3.779   1.143
  502SOL    MW4 2040   0.227   3.861   1.117
  503SOL     OW 2041   0.018   3.962   1.218
  503SOL    HW2 2042   0.009   3.942   1.312
  503SOL    HW3 2043  -0.065   3.933   1.180
  503SOL    MW4 2044   0.006   3.955   1.226
  504SOL     OW 2045   4.471   4.221   1.130
  504SOL    HW2 2046   4.538   4.280   1.168
  504SOL    HW3 2047   4.489   4.136   1.170
  504SOL    MW4 2048   4.482   4.218   1.141
  505SOL     OW 2049   0.194   4.377   1.237
  505SOL    HW2 2050   0.182   4.402   1.328
  505SOL    HW3 2051   0.205   4.460   1.190
  505SOL    MW4 2052   0.194   4.391   1.243
  506SOL     OW 2053   0.668   4.645   1.112
  506SOL    HW2 2054   0.736   4.702   1.147
  506SOL    HW3 2055   0.678   4.563   1.160
  506SOL    MW4 2056   0.679   4.642   1.123
  507SOL     OW 2057   0.437   0.114   1.217
  507SOL    HW2 2058   0.430   0.200   1.176
  507SOL    HW3 2059   0.512   0.073   1.173
  507SOL    MW4 2060   0.446   0.120   1.206
  508SOL     OW 2061   0.442   0.381   1.108
  508SOL    HW2 2062   0.377   0.445   1.138
  508SOL    HW3 2063   0.448   0.394   1.014
  508SOL    MW4 2064   0.434   0.391   1.099
  509SOL     OW 2065   0.680   0.511   1.243
  509SOL    HW2 2066   0.669   0.602   1.216
  509SOL    HW3 2067   0.601   0.467   1.213
  509SOL    MW4 2068   0.668   0.517   1.236
  510SOL     OW 2069   0.655   0.785   1.158
  510SOL    HW2 2070   0.568   0.820   1.174
  510SOL    HW3 2071   0.674   0.808   1.067
  510SOL    MW4 2072   0.646   0.793   1.148
  511SOL     OW 2073   0.399   0.899   1.221
  511SOL    HW2 2074   0.401   0.901   1.317
  511SOL    HW3 2075   0.416   0.989   1.194
  511SOL    MW4 2076   0.402   0.911   1.230
  512SOL     OW 2077   0.438   1.156   1.144
  512SOL    HW2 2078   0.529   1.182   1.161
  512SOL    HW3 2079   0.430   1.157   1.049
  512SOL    MW4 2080   0.449   1.159   1.134
  513SOL     OW 2081   0.676   1.274   1.203
  513SOL    HW2 2082   0.764   1.243   1.178
  513SOL    HW3 2083   0.673   1.364   1.173
  513SOL    MW4 2084   0.687   1.282   1.196
  514SOL     OW 2085   0.651   1.538   1.115
  514SOL    HW2 2086   0.724   1.579   1.161
  514SOL    HW3 2087   0.573   1.583   1.147
  514SOL    MW4 2088   0.650   1.549   1.125
  515SOL     OW 2089   0.419   1.678   1.182
  515SOL    HW2 2090   0.421   1.678   1.278
  515SOL    HW3 2091   0.342   1.626   1.160
  515SOL    MW4 2092   0.409   1.671   1.192
  516SOL     OW 2093   0.436   1.932   1.115
  516SOL    HW2 2094   0.422   1.840   1.139
  516SOL    HW3 2095   0.354   1.975   1.141
  516SOL    MW4 2096   0.423   1.926   1.122
  517SOL     OW 2097   0.668   2.066   1.221
  517SOL    HW2 2098   0.676   2.074   1.316
  517SOL    HW3 2099   0.591   2.011   1.208
  517SOL    MW4 2100   0.659   2.060   1.232
  518SOL     OW 2101   0.693   2.321   1.110
  518SOL    HW2 2102   0.601   2.348   1.119
  518SOL    HW3 2103   0.695   2.231   1.143
  518SOL    MW4 2104   0.681   2.313   1.116
  519SOL     OW 2105   0.429   2.391   1.169
  519SOL    HW2 2106   0.429   2.391   1.264
  519SOL    HW3 2107   0.434   2.484   1.145
  519SOL    MW4 2108   0.430   2.403   1.178
  520SOL     OW 2109   0.442   2.669   1.123
  520SOL    HW2 2110   0.373   2.735   1.133
  520SOL    HW3 2111   0.469   2.676   1.032
  520SOL    MW4 2112   0.437   2.679   1.113
  521SOL     OW 2113   0.656   2.823   1.234
  521SOL    HW2 2114   0.645   2.913   1.204
  521SOL    HW3 2115   0.590   2.773   1.186
  521SOL    MW4 2116   0.646   2.828   1.224
  522SOL     OW 2117   0.653   3.076   1.150
  522SOL    HW2 2118   0.728   3.118   1.191
  522SOL    HW3 2119   0.672   3.078   1.056
  522SOL    MW4 2120   0.665   3.082   1.143
  523SOL     OW 2121   0.453   3.229   1.264
  523SOL    HW2 2122   0.460   3.315   1.223
  523SOL    HW3 2123   0.527   3.180   1.229
  523SOL    MW4 2124   0.463   3.234   1.254
  524SOL     OW 2125   0.467   3.466   1.129
  524SOL    HW2 2126   0.538   3.521   1.164
  524SOL    HW3 2127   0.387   3.516   1.148
  524SOL    MW4 2128   0.465   3.480   1.136
  525SOL     OW 2129   0.661   3.621   1.242
  525SOL    HW2 2130   0.655   3.622   1.337
  525SOL    HW3 2131   0.681   3.711   1.218
  525SOL    MW4 2132   0.663   3.633   1.251
  526SOL     OW 2133   0.696   3.883   1.168
  526SOL    HW2 2134   0.620   3.931   1.200
  526SOL    HW3 2135   0.685   3.882   1.073
  526SOL    MW4 2136   0.685   3.889   1.160
  527SOL     OW 2137   0.462   3.998   1.227
  527SOL    HW2 2138   0.467   4.085   1.189
  527SOL    HW3 2139   0.381   3.961   1.191
  527SOL    MW4 2140   0.452   4.004   1.217
  528SOL     OW 2141   0.428   4.254   1.130
  528SOL    HW2 2142   0.488   4.325   1.153
  528SOL    HW3 2143   0.344   4.281   1.167
  528SOL    MW4 2144   0.424   4.267   1.138
  529SOL     OW 2145   0.665   4.403   1.248
  529SOL    HW2 2146   0.672   4.406   1.344
  529SOL    HW3 2147   0.740   4.350   1.221
  529SOL    MW4 2148   0.676   4.397   1.257
  530SOL     OW 2149   1.141   4.632   1.135
  530SOL    HW2 2150   1.133   4.537   1.140
  530SOL    HW3 2151   1.137   4.651   1.041
  530SOL    MW4 2152   1.139   4.622   1.123
  531SOL     OW 2153   0.896   0.132   1.216
  531SOL    HW2 2154   0.861   0.133   1.305
  531SOL    HW3 2155   0.964   0.066   1.218
  531SOL    MW4 2156   0.900   0.124   1.228
  532SOL     OW 2157   0.929   0.406   1.145
  532SOL    HW2 2158   0.916   0.312   1.161
  532SOL    HW3 2159   0.843   0.445   1.164
  532SOL    MW4 2160   0.916   0.399   1.150
  533SOL     OW 2161   1.166   0.522   1.219
  533SOL    HW2 2162   1.163   0.521   1.315
  533SOL    HW3 2163   1.089   0.473   1.192
  533SOL    MW4 2164   1.156   0.515   1.228
  534SOL     OW 2165   1.159   0.766   1.097
  534SOL    HW2 2166   1.083   0.813   1.132
  534SOL    HW3 2167   1.154   0.679   1.137
  534SOL    MW4 2168   1.148   0.761   1.107
  535SOL     OW 2169   0.906   0.888   1.190
  535SOL    HW2 2170   0.891   0.983   1.183
  535SOL    HW3 2171   0.818   0.850   1.189
  535SOL    MW4 2172   0.892   0.896   1.189
  536SOL     OW 2173   0.904   1.152   1.127
  536SOL    HW2 2174   0.987   1.189   1.158
  536SOL    HW3 2175   0.918   1.137   1.034
  536SOL    MW4 2176   0.917   1.155   1.119
  537SOL     OW 2177   1.150   1.285   1.215
  537SOL    HW2 2178   1.149   1.278   1.310
  537SOL    HW3 2179   1.229   1.238   1.188
  537SOL    MW4 2180   1.160   1.278   1.224
  538SOL     OW 2181   1.165   1.550   1.112
  538SOL    HW2 2182   1.161   1.459   1.140
  538SOL    HW3 2183   1.141   1.547   1.019
  538SOL    MW4 2184   1.161   1.538   1.103
  539SOL     OW 2185   0.903   1.659   1.207
  539SOL    HW2 2186   0.905   1.752   1.183
  539SOL    HW3 2187   0.989   1.625   1.181
  539SOL    MW4 2188   0.915   1.667   1.200
  540SOL     OW 2189   0.892   1.914   1.111
  540SOL    HW2 2190   0.965   1.957   1.155
  540SOL    HW3 2191   0.814   1.963   1.139
  540SOL    MW4 2192   0.891   1.926   1.120
  541SOL     OW 2193   1.123   2.053   1.211
  541SOL    HW2 2194   1.136   2.039   1.305
  541SOL    HW3 2195   1.109   2.147   1.202
  541SOL    MW4 2196   1.123   2.064   1.223
  542SOL     OW 2197   1.125   2.334   1.157
  542SOL    HW2 2198   1.197   2.394   1.170
  542SOL    HW3 2199   1.048   2.381   1.190
  542SOL    MW4 2200   1.124   2.348   1.163
  543SOL     OW 2201   0.891   2.474   1.250
  543SOL    HW2 2202   0.889   2.449   1.343
  543SOL    HW3 2203   0.813   2.433   1.213
  543SOL    MW4 2204   0.880   2.465   1.258
  544SOL     OW 2205   0.900   2.719   1.142
  544SOL    HW2 2206   0.916   2.639   1.192
  544SOL    HW3 2207   0.810   2.743   1.164
  544SOL    MW4 2208   0.890   2.711   1.151
  545SOL     OW 2209   1.112   2.885   1.204
  545SOL    HW2 2210   1.110   2.880   1.299
  545SOL    HW3 2211   1.040   2.829   1.175
  545SOL    MW4 2212   1.103   2.877   1.212
  546SOL     OW 2213   1.101   3.129   1.112
  546SOL    HW2 2214   1.100   3.040   1.147
  546SOL    HW3 2215   1.065   3.120   1.023
  546SOL    MW4 2216   1.096   3.116   1.105
  547SOL     OW 2217   0.875   3.202   1.248
  547SOL    HW2 2218   0.859   3.290   1.213
  547SOL    HW3 2219   0.962   3.178   1.216
  547SOL    MW4 2220   0.884   3.210   1.239
  548SOL     OW 2221   0.867   3.460   1.127
  548SOL    HW2 2222   0.802   3.521   1.163
  548SOL    HW3 2223   0.847   3.457   1.033
  548SOL    MW4 2224   0.856   3.468   1.119
  549SOL     OW 2225   1.122   3.591   1.235
  549SOL    HW2 2226   1.206   3.548   1.218
  549SOL    HW3 2227   1.059   3.543   1.182
  549SOL    MW4 2228   1.125   3.579   1.226
  550SOL     OW 2229   1.152   3.850   1.114
  550SOL    HW2 2230   1.079   3.904   1.143
  550SOL    HW3 2231   1.133   3.763   1.150
  550SOL    MW4 2232   1.140   3.845   1.123
  551SOL     OW 2233   0.934   4.006   1.208
  551SOL    HW2 2234   0.942   4.014   1.303
  551SOL    HW3 2235   0.847   3.967   1.195
  551SOL    MW4 2236   0.924   4.002   1.219
  552SOL     OW 2237   0.882   4.276   1.169
  552SOL    HW2 2238   0.881   4.180   1.179
  552SOL    HW3 2239   0.881   4.290   1.074
  552SOL    MW4 2240   0.882   4.265   1.158
  553SOL     OW 2241   1.145   4.365   1.225
  553SOL    HW2 2242   1.150   4.379   1.319
  553SOL    HW3 2243   1.056   4.335   1.209
  553SOL    MW4 2244   1.134   4.363   1.235
  554SOL     OW 2245   1.560   4.649   1.133
  554SOL    HW2 2246   1.630   4.700   1.173
  554SOL    HW3 2247   1.585   4.558   1.150
  554SOL    MW4 2248   1.573   4.643   1.140
  555SOL     OW 2249   1.334   0.099   1.250
  555SOL    HW2 2250   1.409   0.050   1.217
  555SOL    HW3 2251   1.260   0.039   1.242
  555SOL    MW4 2252   1.334   0.085   1.245
  556SOL     OW 2253   1.372   0.364   1.130
  556SOL    HW2 2254   1.378   0.289   1.190
  556SOL    HW3 2255   1.299   0.415   1.164
  556SOL    MW4 2256   1.363   0.361   1.143
  557SOL     OW 2257   1.534   0.581   1.250
  557SOL    HW2 2258   1.515   0.650   1.187
  557SOL    HW3 2259   1.478   0.508   1.224
  557SOL    MW4 2260   1.524   0.580   1.238
  558SOL     OW 2261   1.572   0.806   1.096
  558SOL    HW2 2262   1.650   0.859   1.109
  558SOL    HW3 2263   1.570   0.788   1.002
  558SOL    MW4 2264   1.582   0.810   1.085
  559SOL     OW 2265   1.358   0.897   1.232
  559SOL    HW2 2266   1.429   0.869   1.175
  559SOL    HW3 2267   1.282   0.846   1.201
  559SOL    MW4 2268   1.357   0.886   1.220
  560SOL     OW 2269   1.373   1.152   1.112
  560SOL    HW2 2270   1.359   1.066   1.153
  560SOL    HW3 2271   1.350   1.138   1.020
  560SOL    MW4 2272   1.368   1.139   1.106
  561SOL     OW 2273   1.552   1.329   1.199
  561SOL    HW2 2274   1.632   1.282   1.173
  561SOL    HW3 2275   1.482   1.284   1.153
  561SOL    MW4 2276   1.554   1.317   1.190
  562SOL     OW 2277   1.615   1.560   1.075
  562SOL    HW2 2278   1.676   1.609   1.130
  562SOL    HW3 2279   1.595   1.481   1.126
  562SOL    MW4 2280   1.621   1.556   1.089
  563SOL     OW 2281   1.405   1.674   1.224
  563SOL    HW2 2282   1.473   1.636   1.169
  563SOL    HW3 2283   1.327   1.622   1.206
  563SOL    MW4 2284   1.404   1.662   1.215
  564SOL     OW 2285   1.367   1.947   1.121
  564SOL    HW2 2286   1.369   1.859   1.158
  564SOL    HW3 2287   1.287   1.986   1.156
  564SOL    MW4 2288   1.357   1.941   1.131
  565SOL     OW 2289   1.598   2.059   1.226
  565SOL    HW2 2290   1.597   2.153   1.206
  565SOL    HW3 2291   1.515   2.026   1.191
  565SOL    MW4 2292   1.587   2.067   1.219
  566SOL     OW 2293   1.617   2.327   1.147
  566SOL    HW2 2294   1.538   2.378   1.164
  566SOL    HW3 2295   1.612   2.306   1.054
  566SOL    MW4 2296   1.606   2.331   1.137
  567SOL     OW 2297   1.373   2.470   1.197
  567SOL    HW2 2298   1.376   2.471   1.293
  567SOL    HW3 2299   1.377   2.562   1.172
  567SOL    MW4 2300   1.374   2.482   1.207
  568SOL     OW 2301   1.338   2.732   1.127
  568SOL    HW2 2302   1.409   2.772   1.176
  568SOL    HW3 2303   1.264   2.791   1.140
  568SOL    MW4 2304   1.338   2.745   1.135
  569SOL     OW 2305   1.580   2.875   1.228
  569SOL    HW2 2306   1.652   2.821   1.197
  569SOL    HW3 2307   1.600   2.963   1.195
  569SOL    MW4 2308   1.592   2.880   1.220
  570SOL     OW 2309   1.569   3.122   1.078
  570SOL    HW2 2310   1.643   3.157   1.127
  570SOL    HW3 2311   1.492   3.149   1.128
  570SOL    MW4 2312   1.569   3.130   1.091
  571SOL     OW 2313   1.354   3.202   1.218
  571SOL    HW2 2314   1.337   3.191   1.311
  571SOL    HW3 2315   1.270   3.186   1.175
  571SOL    MW4 2316   1.341   3.199   1.224
  572SOL     OW 2317   1.350   3.467   1.154
  572SOL    HW2 2318   1.360   3.382   1.195
  572SOL    HW3 2319   1.337   3.447   1.061
  572SOL    MW4 2320   1.350   3.453   1.147
  573SOL     OW 2321   1.554   3.632   1.236
  573SOL    HW2 2322   1.539   3.708   1.180
  573SOL    HW3 2323   1.494   3.565   1.202
  573SOL    MW4 2324   1.544   3.633   1.224
  574SOL     OW 2325   1.588   3.873   1.088
  574SOL    HW2 2326   1.507   3.923   1.097
  574SOL    HW3 2327   1.588   3.843   0.998
  574SOL    MW4 2328   1.577   3.876   1.078
  575SOL     OW 2329   1.361   3.989   1.204
  575SOL    HW2 2330   1.332   4.073   1.171
  575SOL    HW3 2331   1.288   3.929   1.188
  575SOL    MW4 2332   1.348   3.992   1.198
  576SOL     OW 2333   1.365   4.245   1.096
  576SOL    HW2 2334   1.304   4.307   1.136
  576SOL    HW3 2335   1.357   4.260   1.002
  576SOL    MW4 2336   1.356   4.255   1.089
  577SOL     OW 2337   1.600   4.366   1.171
  577SOL    HW2 2338   1.600   4.368   1.267
  577SOL    HW3 2339   1.530   4.306   1.148
  577SOL    MW4 2340   1.591   4.358   1.181
  578SOL     OW 2341   1.983   0.028   1.129
  578SOL    HW2 2342   2.001  -0.064   1.150
  578SOL    HW3 2343   1.943   0.025   1.042
  578SOL    MW4 2344   1.980   0.016   1.120
  579SOL     OW 2345   1.754   0.140   1.258
  579SOL    HW2 2346   1.761   0.225   1.215
  579SOL    HW3 2347   1.834   0.094   1.231
  579SOL    MW4 2348   1.766   0.145   1.249
  580SOL     OW 2349   1.750   0.412   1.132
  580SOL    HW2 2350   1.696   0.481   1.173
  580SOL    HW3 2351   1.725   0.414   1.040
  580SOL    MW4 2352   1.739   0.422   1.126
  581SOL     OW 2353   2.000   0.535   1.223
  581SOL    HW2 2354   2.002   0.528   1.318
  581SOL    HW3 2355   1.912   0.507   1.198
  581SOL    MW4 2356   1.989   0.530   1.232
  582SOL     OW 2357   2.015   0.809   1.128
  582SOL    HW2 2358   2.005   0.717   1.154
  582SOL    HW3 2359   2.062   0.805   1.045
  582SOL    MW4 2360   2.020   0.796   1.120
  583SOL     OW 2361   1.789   0.955   1.222
  583SOL    HW2 2362   1.784   0.947   1.317
  583SOL    HW3 2363   1.863   0.900   1.197
  583SOL    MW4 2364   1.798   0.947   1.231
  584SOL     OW 2365   1.797   1.227   1.125
  584SOL    HW2 2366   1.809   1.139   1.162
  584SOL    HW3 2367   1.797   1.212   1.030
  584SOL    MW4 2368   1.798   1.213   1.117
  585SOL     OW 2369   2.047   1.308   1.194
  585SOL    HW2 2370   2.107   1.240   1.162
  585SOL    HW3 2371   1.960   1.277   1.169
  585SOL    MW4 2372   2.044   1.295   1.187
  586SOL     OW 2373   2.034   1.549   1.091
  586SOL    HW2 2374   2.040   1.456   1.114
  586SOL    HW3 2375   2.017   1.550   0.997
  586SOL    MW4 2376   2.033   1.537   1.082
  587SOL     OW 2377   1.807   1.678   1.240
  587SOL    HW2 2378   1.817   1.766   1.204
  587SOL    HW3 2379   1.885   1.631   1.211
  587SOL    MW4 2380   1.819   1.683   1.231
  588SOL     OW 2381   1.825   1.948   1.129
  588SOL    HW2 2382   1.752   1.997   1.167
  588SOL    HW3 2383   1.793   1.921   1.043
  588SOL    MW4 2384   1.811   1.951   1.122
  589SOL     OW 2385   2.046   2.072   1.195
  589SOL    HW2 2386   2.030   2.083   1.289
  589SOL    HW3 2387   1.971   2.022   1.163
  589SOL    MW4 2388   2.034   2.067   1.203
  590SOL     OW 2389   2.047   2.345   1.104
  590SOL    HW2 2390   2.133   2.381   1.127
  590SOL    HW3 2391   2.055   2.251   1.122
  590SOL    MW4 2392   2.060   2.337   1.110
  591SOL     OW 2393   1.839   2.474   1.234
  591SOL    HW2 2394   1.909   2.433   1.184
  591SOL    HW3 2395   1.761   2.422   1.215
  591SOL    MW4 2396   1.838   2.462   1.225
  592SOL     OW 2397   1.794   2.735   1.146
  592SOL    HW2 2398   1.802   2.645   1.177
  592SOL    HW3 2399   1.812   2.730   1.052
  592SOL    MW4 2400   1.798   2.722   1.138
  593SOL     OW 2401   2.023   2.847   1.239
  593SOL    HW2 2402   2.031   2.933   1.196
  593SOL    HW3 2403   1.943   2.809   1.203
  593SOL    MW4 2404   2.013   2.854   1.229
  594SOL     OW 2405   1.999   3.099   1.125
  594SOL    HW2 2406   1.927   3.146   1.167
  594SOL    HW3 2407   1.992   3.124   1.032
  594SOL    MW4 2408   1.988   3.109   1.118
  595SOL     OW 2409   1.782   3.224   1.228
  595SOL    HW2 2410   1.775   3.234   1.323
  595SOL    HW3 2411   1.754   3.309   1.194
  595SOL    MW4 2412   1.777   3.237   1.236
  596SOL     OW 2413   1.789   3.499   1.157
  596SOL    HW2 2414   1.867   3.542   1.194
  596SOL    HW3 2415   1.715   3.551   1.190
  596SOL    MW4 2416   1.790   3.512   1.166
  597SOL     OW 2417   2.027   3.625   1.242
  597SOL    HW2 2418   2.029   3.633   1.338
  597SOL    HW3 2419   2.105   3.573   1.221
  597SOL    MW4 2420   2.038   3.619   1.252
  598SOL     OW 2421   1.999   3.888   1.108
  598SOL    HW2 2422   1.928   3.938   1.148
  598SOL    HW3 2423   1.993   3.802   1.149
  598SOL    MW4 2424   1.989   3.884   1.119
  599SOL     OW 2425   1.793   4.023   1.207
  599SOL    HW2 2426   1.791   4.004   1.300
  599SOL    HW3 2427   1.721   3.970   1.170
  599SOL    MW4 2428   1.783   4.013   1.214
  600SOL     OW 2429   1.823   4.257   1.062
  600SOL    HW2 2430   1.814   4.171   1.103
  600SOL    HW3 2431   1.747   4.306   1.092
  600SOL    MW4 2432   1.812   4.252   1.071
  601SOL     OW 2433   2.035   4.405   1.199
  601SOL    HW2 2434   2.030   4.398   1.294
  601SOL    HW3 2435   1.972   4.340   1.167
  601SOL    MW4 2436   2.026   4.395   1.207
  602SOL     OW 2437   2.458   4.622   1.123
  602SOL    HW2 2438   2.528   4.673   1.162
  602SOL    HW3 2439   2.378   4.671   1.142
  602SOL    MW4 2440   2.457   4.635   1.130
  603SOL     OW 2441   2.243   0.128   1.207
  603SOL    HW2 2442   2.239   0.220   1.178
  603SOL    HW3 2443   2.160   0.090   1.178
  603SOL    MW4 2444   2.232   0.135   1.199
  604SOL     OW 2445   2.220   0.396   1.147
  604SOL    HW2 2446   2.139   0.434   1.181
  604SOL    HW3 2447   2.202   0.381   1.054
  604SOL    MW4 2448   2.207   0.399   1.139
  605SOL     OW 2449   2.457   0.504   1.220
  605SOL    HW2 2450   2.457   0.505   1.316
  605SOL    HW3 2451   2.370   0.471   1.196
  605SOL    MW4 2452   2.446   0.500   1.229
  606SOL     OW 2453   2.465   0.775   1.175
  606SOL    HW2 2454   2.448   0.681   1.185
  606SOL    HW3 2455   2.491   0.786   1.084
  606SOL    MW4 2456   2.466   0.764   1.165
  607SOL     OW 2457   2.242   0.913   1.246
  607SOL    HW2 2458   2.319   0.869   1.208
  607SOL    HW3 2459   2.167   0.864   1.212
  607SOL    MW4 2460   2.243   0.901   1.236
  608SOL     OW 2461   2.241   1.145   1.080
  608SOL    HW2 2462   2.322   1.190   1.102
  608SOL    HW3 2463   2.236   1.073   1.142
  608SOL    MW4 2464   2.251   1.142   1.091
  609SOL     OW 2465   2.479   1.287   1.164
  609SOL    HW2 2466   2.564   1.248   1.146
  609SOL    HW3 2467   2.481   1.372   1.119
  609SOL    MW4 2468   2.490   1.293   1.155
  610SOL     OW 2469   2.490   1.542   1.065
  610SOL    HW2 2470   2.416   1.585   1.108
  610SOL    HW3 2471   2.487   1.574   0.975
  610SOL    MW4 2472   2.480   1.552   1.059
  611SOL     OW 2473   2.271   1.662   1.192
  611SOL    HW2 2474   2.255   1.751   1.160
  611SOL    HW3 2475   2.202   1.609   1.152
  611SOL    MW4 2476   2.260   1.667   1.182
  612SOL     OW 2477   2.280   1.925   1.122
  612SOL    HW2 2478   2.201   1.970   1.153
  612SOL    HW3 2479   2.275   1.930   1.027
  612SOL    MW4 2480   2.269   1.931   1.113
  613SOL     OW 2481   2.514   2.047   1.176
  613SOL    HW2 2482   2.591   2.000   1.145
  613SOL    HW3 2483   2.441   1.990   1.152
  613SOL    MW4 2484   2.514   2.033   1.169
  614SOL     OW 2485   2.466   2.323   1.124
  614SOL    HW2 2486   2.481   2.230   1.143
  614SOL    HW3 2487   2.465   2.328   1.029
  614SOL    MW4 2488   2.468   2.311   1.114
  615SOL     OW 2489   2.266   2.491   1.192
  615SOL    HW2 2490   2.266   2.503   1.286
  615SOL    HW3 2491   2.340   2.432   1.175
  615SOL    MW4 2492   2.276   2.485   1.202
  616SOL     OW 2493   2.240   2.746   1.078
  616SOL    HW2 2494   2.250   2.654   1.101
  616SOL    HW3 2495   2.165   2.776   1.128
  616SOL    MW4 2496   2.232   2.738   1.087
  617SOL     OW 2497   2.491   2.850   1.196
  617SOL    HW2 2498   2.480   2.845   1.291
  617SOL    HW3 2499   2.410   2.815   1.160
  617SOL    MW4 2500   2.479   2.845   1.204
  618SOL     OW 2501   2.460   3.118   1.093
  618SOL    HW2 2502   2.383   3.160   1.130
  618SOL    HW3 2503   2.462   3.031   1.134
  618SOL    MW4 2504   2.450   3.112   1.103
  619SOL     OW 2505   2.226   3.222   1.215
  619SOL    HW2 2506   2.222   3.309   1.176
  619SOL    HW3 2507   2.145   3.179   1.186
  619SOL    MW4 2508   2.215   3.227   1.206
  620SOL     OW 2509   2.243   3.481   1.131
  620SOL    HW2 2510   2.326   3.514   1.164
  620SOL    HW3 2511   2.256   3.476   1.036
  620SOL    MW4 2512   2.255   3.485   1.122
  621SOL     OW 2513   2.487   3.593   1.217
  621SOL    HW2 2514   2.471   3.600   1.311
  621SOL    HW3 2515   2.470   3.681   1.184
  621SOL    MW4 2516   2.483   3.606   1.225
  622SOL     OW 2517   2.456   3.840   1.091
  622SOL    HW2 2518   2.379   3.891   1.112
  622SOL    HW3 2519   2.457   3.837   0.995
  622SOL    MW4 2520   2.446   3.846   1.081
  623SOL     OW 2521   2.249   3.998   1.183
  623SOL    HW2 2522   2.231   4.085   1.148
  623SOL    HW3 2523   2.169   3.948   1.164
  623SOL    MW4 2524   2.236   4.003   1.176
  624SOL     OW 2525   2.261   4.259   1.079
  624SOL    HW2 2526   2.179   4.299   1.110
  624SOL    HW3 2527   2.251   4.256   0.984
  624SOL    MW4 2528   2.249   4.264   1.070
  625SOL     OW 2529   2.469   4.375   1.246
  625SOL    HW2 2530   2.386   4.353   1.203
  625SOL    HW3 2531   2.496   4.457   1.203
  625SOL    MW4 2532   2.461   4.383   1.234
  626SOL     OW 2533   2.903   4.663   1.126
  626SOL    HW2 2534   2.883   4.574   1.153
  626SOL    HW3 2535   2.896   4.662   1.030
  626SOL    MW4 2536   2.899   4.651   1.117
  627SOL     OW 2537   2.663   0.088   1.243
  627SOL    HW2 2538   2.673   0.102   1.337
  627SOL    HW3 2539   2.751   0.062   1.214
  627SOL    MW4 2540   2.676   0.087   1.252
  628SOL     OW 2541   2.661   0.342   1.132
  628SOL    HW2 2542   2.662   0.255   1.172
  628SOL    HW3 2543   2.588   0.387   1.175
  628SOL    MW4 2544   2.651   0.336   1.143
  629SOL     OW 2545   2.910   0.471   1.235
  629SOL    HW2 2546   2.931   0.561   1.209
  629SOL    HW3 2547   2.841   0.445   1.175
  629SOL    MW4 2548   2.904   0.480   1.224
  630SOL     OW 2549   2.943   0.730   1.124
  630SOL    HW2 2550   3.008   0.800   1.137
  630SOL    HW3 2551   2.864   0.763   1.167
  630SOL    MW4 2552   2.941   0.744   1.131
  631SOL     OW 2553   2.720   0.885   1.249
  631SOL    HW2 2554   2.716   0.969   1.205
  631SOL    HW3 2555   2.632   0.848   1.238
  631SOL    MW4 2556   2.707   0.891   1.241
  632SOL     OW 2557   2.728   1.133   1.140
  632SOL    HW2 2558   2.806   1.183   1.162
  632SOL    HW3 2559   2.725   1.134   1.044
  632SOL    MW4 2560   2.738   1.140   1.130
  633SOL     OW 2561   2.937   1.308   1.236
  633SOL    HW2 2562   2.962   1.313   1.328
  633SOL    HW3 2563   2.928   1.400   1.208
  633SOL    MW4 2564   2.939   1.321   1.244
  634SOL     OW 2565   2.925   1.568   1.120
  634SOL    HW2 2566   3.008   1.611   1.141
  634SOL    HW3 2567   2.929   1.553   1.025
  634SOL    MW4 2568   2.937   1.572   1.110
  635SOL     OW 2569   2.687   1.667   1.217
  635SOL    HW2 2570   2.771   1.626   1.195
  635SOL    HW3 2571   2.622   1.607   1.181
  635SOL    MW4 2572   2.690   1.654   1.209
  636SOL     OW 2573   2.726   1.908   1.065
  636SOL    HW2 2574   2.817   1.929   1.085
  636SOL    HW3 2575   2.712   1.822   1.104
  636SOL    MW4 2576   2.736   1.899   1.073
  637SOL     OW 2577   2.969   2.041   1.155
  637SOL    HW2 2578   2.964   2.026   1.250
  637SOL    HW3 2579   2.948   2.134   1.145
  637SOL    MW4 2580   2.966   2.051   1.166
  638SOL     OW 2581   2.932   2.308   1.092
  638SOL    HW2 2582   3.011   2.351   1.123
  638SOL    HW3 2583   2.861   2.352   1.138
  638SOL    MW4 2584   2.933   2.319   1.102
  639SOL     OW 2585   2.703   2.444   1.194
  639SOL    HW2 2586   2.704   2.474   1.285
  639SOL    HW3 2587   2.620   2.396   1.186
  639SOL    MW4 2588   2.692   2.441   1.205
  640SOL     OW 2589   2.698   2.695   1.067
  640SOL    HW2 2590   2.678   2.608   1.103
  640SOL    HW3 2591   2.622   2.748   1.090
  640SOL    MW4 2592   2.685   2.691   1.075
  641SOL     OW 2593   2.896   2.836   1.228
  641SOL    HW2 2594   2.902   2.805   1.319
  641SOL    HW3 2595   2.817   2.794   1.194
  641SOL    MW4 2596   2.887   2.826   1.236
  642SOL     OW 2597   2.924   3.100   1.145
  642SOL    HW2 2598   2.926   3.006   1.162
  642SOL    HW3 2599   2.914   3.108   1.051
  642SOL    MW4 2600   2.923   3.089   1.135
  643SOL     OW 2601   2.687   3.232   1.236
  643SOL    HW2 2602   2.761   3.174   1.218
  643SOL    HW3 2603   2.617   3.201   1.178
  643SOL    MW4 2604   2.687   3.220   1.226
  644SOL     OW 2605   2.702   3.471   1.103
  644SOL    HW2 2606   2.696   3.389   1.152
  644SOL    HW3 2607   2.628   3.523   1.134
  644SOL    MW4 2608   2.691   3.467   1.113
  645SOL     OW 2609   2.897   3.616   1.223
  645SOL    HW2 2610   2.969   3.591   1.166
  645SOL    HW3 2611   2.822   3.565   1.192
  645SOL    MW4 2612   2.896   3.606   1.212
  646SOL     OW 2613   2.914   3.872   1.116
  646SOL    HW2 2614   2.996   3.917   1.136
  646SOL    HW3 2615   2.908   3.802   1.180
  646SOL    MW4 2616   2.924   3.869   1.127
  647SOL     OW 2617   2.678   3.982   1.213
  647SOL    HW2 2618   2.754   3.936   1.175
  647SOL    HW3 2619   2.604   3.925   1.193
  647SOL    MW4 2620   2.679   3.968   1.205
  648SOL     OW 2621   2.652   4.218   1.096
  648SOL    HW2 2622   2.668   4.131   1.131
  648SOL    HW3 2623   2.572   4.247   1.139
  648SOL    MW4 2624   2.643   4.211   1.106
  649SOL     OW 2625   2.855   4.379   1.191
  649SOL    HW2 2626   2.932   4.335   1.157
  649SOL    HW3 2627   2.781   4.326   1.160
  649SOL    MW4 2628   2.855   4.366   1.183
  650SOL     OW 2629   3.342   4.663   1.093
  650SOL    HW2 2630   3.412   4.676   1.157
  650SOL    HW3 2631   3.267   4.710   1.129
  650SOL    MW4 2632   3.341   4.671   1.106
  651SOL     OW 2633   3.127   0.099   1.261
  651SOL    HW2 2634   3.127   0.102   1.357
  651SOL    HW3 2635   3.046   0.053   1.239
  651SOL    MW4 2636   3.116   0.093   1.271
  652SOL     OW 2637   3.128   0.336   1.129
  652SOL    HW2 2638   3.133   0.250   1.171
  652SOL    HW3 2639   3.060   0.383   1.177
  652SOL    MW4 2640   3.120   0.331   1.141
  653SOL     OW 2641   3.361   0.464   1.206
  653SOL    HW2 2642   3.356   0.559   1.194
  653SOL    HW3 2643   3.278   0.431   1.171
  653SOL    MW4 2644   3.350   0.472   1.199
  654SOL     OW 2645   3.352   0.762   1.147
  654SOL    HW2 2646   3.286   0.829   1.162
  654SOL    HW3 2647   3.367   0.764   1.052
  654SOL    MW4 2648   3.345   0.771   1.136
  655SOL     OW 2649   3.136   0.914   1.202
  655SOL    HW2 2650   3.129   0.910   1.297
  655SOL    HW3 2651   3.128   1.007   1.181
  655SOL    MW4 2652   3.134   0.925   1.212
  656SOL     OW 2653   3.129   1.158   1.084
  656SOL    HW2 2654   3.209   1.195   1.120
  656SOL    HW3 2655   3.059   1.207   1.126
  656SOL    MW4 2656   3.130   1.169   1.095
  657SOL     OW 2657   3.360   1.267   1.183
  657SOL    HW2 2658   3.379   1.278   1.276
  657SOL    HW3 2659   3.369   1.355   1.146
  657SOL    MW4 2660   3.364   1.280   1.190
  658SOL     OW 2661   3.399   1.530   1.063
  658SOL    HW2 2662   3.472   1.580   1.097
  658SOL    HW3 2663   3.321   1.577   1.093
  658SOL    MW4 2664   3.398   1.543   1.072
  659SOL     OW 2665   3.183   1.672   1.164
  659SOL    HW2 2666   3.195   1.666   1.259
  659SOL    HW3 2667   3.188   1.766   1.145
  659SOL    MW4 2668   3.185   1.684   1.174
  660SOL     OW 2669   3.201   1.932   1.087
  660SOL    HW2 2670   3.263   1.963   1.153
  660SOL    HW3 2671   3.121   1.980   1.105
  660SOL    MW4 2672   3.199   1.942   1.098
  661SOL     OW 2673   3.394   2.055   1.263
  661SOL    HW2 2674   3.467   2.003   1.229
  661SOL    HW3 2675   3.399   2.138   1.216
  661SOL    MW4 2676   3.404   2.059   1.253
  662SOL     OW 2677   3.391   2.309   1.108
  662SOL    HW2 2678   3.457   2.373   1.133
  662SOL    HW3 2679   3.308   2.357   1.112
  662SOL    MW4 2680   3.389   2.323   1.112
  663SOL     OW 2681   3.150   2.453   1.170
  663SOL    HW2 2682   3.154   2.462   1.266
  663SOL    HW3 2683   3.137   2.542   1.138
  663SOL    MW4 2684   3.149   2.466   1.179
  664SOL     OW 2685   3.125   2.723   1.099
  664SOL    HW2 2686   3.043   2.749   1.140
  664SOL    HW3 2687   3.113   2.741   1.006
  664SOL    MW4 2688   3.113   2.729   1.093
  665SOL     OW 2689   3.360   2.844   1.191
  665SOL    HW2 2690   3.348   2.930   1.151
  665SOL    HW3 2691   3.281   2.796   1.169
  665SOL    MW4 2692   3.348   2.849   1.183
  666SOL     OW 2693   3.358   3.091   1.072
  666SOL    HW2 2694   3.434   3.134   1.110
  666SOL    HW3 2695   3.283   3.141   1.105
  666SOL    MW4 2696   3.358   3.103   1.081
  667SOL     OW 2697   3.146   3.252   1.187
  667SOL    HW2 2698   3.137   3.337   1.143
  667SOL    HW3 2699   3.062   3.208   1.171
  667SOL    MW4 2700   3.134   3.257   1.179
  668SOL     OW 2701   3.101   3.495   1.068
  668SOL    HW2 2702   3.179   3.536   1.106
  668SOL    HW3 2703   3.116   3.497   0.974
  668SOL    MW4 2704   3.113   3.500   1.061
  669SOL     OW 2705   3.340   3.593   1.189
  669SOL    HW2 2706   3.321   3.610   1.282
  669SOL    HW3 2707   3.426   3.551   1.190
  669SOL    MW4 2708   3.349   3.590   1.202
  670SOL     OW 2709   3.366   3.873   1.084
  670SOL    HW2 2710   3.288   3.917   1.118
  670SOL    HW3 2711   3.360   3.784   1.120
  670SOL    MW4 2712   3.355   3.867   1.094
  671SOL     OW 2713   3.146   3.991   1.205
  671SOL    HW2 2714   3.142   4.001   1.300
  671SOL    HW3 2715   3.123   4.078   1.172
  671SOL    MW4 2716   3.143   4.004   1.213
  672SOL     OW 2717   3.083   4.261   1.117
  672SOL    HW2 2718   3.147   4.329   1.138
  672SOL    HW3 2719   3.105   4.234   1.028
  672SOL    MW4 2720   3.094   4.266   1.108
  673SOL     OW 2721   3.294   4.411   1.190
  673SOL    HW2 2722   3.367   4.368   1.145
  673SOL    HW3 2723   3.301   4.503   1.162
  673SOL    MW4 2724   3.305   4.417   1.180
  674SOL     OW 2725   3.792   4.611   1.115
  674SOL    HW2 2726   3.797   4.518   1.138
  674SOL    HW3 2727   3.785   4.612   1.020
  674SOL    MW4 2728   3.791   4.599   1.106
  675SOL     OW 2729   3.581   0.067   1.242
  675SOL    HW2 2730   3.567   0.145   1.188
  675SOL    HW3 2731   3.660   0.027   1.206
  675SOL    MW4 2732   3.590   0.072   1.230
  676SOL     OW 2733   3.559   0.309   1.095
  676SOL    HW2 2734   3.645   0.345   1.120
  676SOL    HW3 2735   3.496   0.371   1.131
  676SOL    MW4 2736   3.562   0.322   1.103
  677SOL     OW 2737   3.810   0.428   1.194
  677SOL    HW2 2738   3.894   0.393   1.164
  677SOL    HW3 2739   3.820   0.523   1.188
  677SOL    MW4 2740   3.823   0.436   1.189
  678SOL     OW 2741   3.825   0.695   1.120
  678SOL    HW2 2742   3.901   0.740   1.158
  678SOL    HW3 2743   3.750   0.745   1.152
  678SOL    MW4 2744   3.825   0.708   1.130
  679SOL     OW 2745   3.602   0.864   1.227
  679SOL    HW2 2746   3.588   0.949   1.185
  679SOL    HW3 2747   3.526   0.812   1.203
  679SOL    MW4 2748   3.590   0.868   1.219
  680SOL     OW 2749   3.585   1.120   1.127
  680SOL    HW2 2750   3.657   1.182   1.138
  680SOL    HW3 2751   3.506   1.172   1.137
  680SOL    MW4 2752   3.584   1.135   1.130
  681SOL     OW 2753   3.811   1.273   1.182
  681SOL    HW2 2754   3.823   1.286   1.276
  681SOL    HW3 2755   3.838   1.355   1.142
  681SOL    MW4 2756   3.816   1.285   1.189
  682SOL     OW 2757   3.866   1.535   1.088
  682SOL    HW2 2758   3.924   1.589   1.141
  682SOL    HW3 2759   3.877   1.567   0.999
  682SOL    MW4 2760   3.875   1.546   1.083
  683SOL     OW 2761   3.628   1.632   1.181
  683SOL    HW2 2762   3.645   1.725   1.166
  683SOL    HW3 2763   3.698   1.588   1.132
  683SOL    MW4 2764   3.640   1.639   1.173
  684SOL     OW 2765   3.596   1.909   1.150
  684SOL    HW2 2766   3.669   1.960   1.184
  684SOL    HW3 2767   3.600   1.922   1.055
  684SOL    MW4 2768   3.606   1.918   1.142
  685SOL     OW 2769   3.809   2.056   1.260
  685SOL    HW2 2770   3.822   2.035   1.352
  685SOL    HW3 2771   3.875   2.003   1.214
  685SOL    MW4 2772   3.819   2.046   1.266
  686SOL     OW 2773   3.834   2.286   1.113
  686SOL    HW2 2774   3.895   2.344   1.159
  686SOL    HW3 2775   3.829   2.207   1.167
  686SOL    MW4 2776   3.841   2.284   1.126
  687SOL     OW 2777   3.616   2.463   1.201
  687SOL    HW2 2778   3.606   2.448   1.295
  687SOL    HW3 2779   3.691   2.409   1.176
  687SOL    MW4 2780   3.625   2.454   1.210
  688SOL     OW 2781   3.600   2.726   1.096
  688SOL    HW2 2782   3.601   2.653   1.159
  688SOL    HW3 2783   3.511   2.762   1.103
  688SOL    MW4 2784   3.588   2.721   1.105
  689SOL     OW 2785   3.821   2.859   1.174
  689SOL    HW2 2786   3.813   2.861   1.270
  689SOL    HW3 2787   3.744   2.810   1.145
  689SOL    MW4 2788   3.810   2.853   1.183
  690SOL     OW 2789   3.824   3.138   1.134
  690SOL    HW2 2790   3.811   3.045   1.150
  690SOL    HW3 2791   3.854   3.143   1.043
  690SOL    MW4 2792   3.826   3.126   1.124
  691SOL     OW 2793   3.561   3.203   1.211
  691SOL    HW2 2794   3.574   3.297   1.197
  691SOL    HW3 2795   3.647   3.164   1.194
  691SOL    MW4 2796   3.574   3.210   1.207
  692SOL     OW 2797   3.570   3.472   1.129
  692SOL    HW2 2798   3.653   3.514   1.153
  692SOL    HW3 2799   3.548   3.509   1.043
  692SOL    MW4 2800   3.578   3.483   1.121
  693SOL     OW 2801   3.780   3.601   1.245
  693SOL    HW2 2802   3.807   3.590   1.335
  693SOL    HW3 2803   3.789   3.695   1.228
  693SOL    MW4 2804   3.785   3.612   1.254
  694SOL     OW 2805   3.829   3.852   1.109
  694SOL    HW2 2806   3.750   3.905   1.119
  694SOL    HW3 2807   3.818   3.808   1.025
  694SOL    MW4 2808   3.817   3.853   1.099
  695SOL     OW 2809   3.605   4.003   1.158
  695SOL    HW2 2810   3.603   3.984   1.252
  695SOL    HW3 2811   3.534   3.950   1.121
  695SOL    MW4 2812   3.595   3.994   1.165
  696SOL     OW 2813   3.521   4.298   1.071
  696SOL    HW2 2814   3.548   4.211   1.099
  696SOL    HW3 2815   3.529   4.296   0.976
  696SOL    MW4 2816   3.526   4.286   1.062
  697SOL     OW 2817   3.762   4.324   1.191
  697SOL    HW2 2818   3.753   4.322   1.287
  697SOL    HW3 2819   3.672   4.325   1.158
  697SOL    MW4 2820   3.749   4.324   1.200
  698SOL     OW 2821   4.253   4.645   1.101
  698SOL    HW2 2822   4.259   4.558   1.141
  698SOL    HW3 2823   4.178   4.686   1.143
  698SOL    MW4 2824   4.244   4.639   1.112
  699SOL     OW 2825   4.014   0.081   1.214
  699SOL    HW2 2826   3.991   0.087   1.307
  699SOL    HW3 2827   3.947   0.024   1.177
  699SOL    MW4 2828   4.002   0.075   1.221
  700SOL     OW 2829   4.074   0.334   1.114
  700SOL    HW2 2830   4.060   0.241   1.136
  700SOL    HW3 2831   4.064   0.337   1.019
  700SOL    MW4 2832   4.071   0.322   1.105
  701SOL     OW 2833   4.312   0.458   1.269
  701SOL    HW2 2834   4.297   0.464   1.364
  701SOL    HW3 2835   4.231   0.419   1.235
  701SOL    MW4 2836   4.299   0.453   1.277
  702SOL     OW 2837   4.290   0.702   1.185
  702SOL    HW2 2838   4.308   0.613   1.214
  702SOL    HW3 2839   4.266   0.693   1.093
  702SOL    MW4 2840   4.289   0.689   1.177
  703SOL     OW 2841   4.046   0.849   1.192
  703SOL    HW2 2842   4.017   0.867   1.282
  703SOL    HW3 2843   4.121   0.791   1.203
  703SOL    MW4 2844   4.052   0.844   1.206
  704SOL     OW 2845   4.003   1.093   1.087
  704SOL    HW2 2846   4.013   1.012   1.137
  704SOL    HW3 2847   3.933   1.140   1.132
  704SOL    MW4 2848   3.995   1.089   1.100
  705SOL     OW 2849   4.233   1.232   1.151
  705SOL    HW2 2850   4.221   1.239   1.246
  705SOL    HW3 2851   4.160   1.178   1.121
  705SOL    MW4 2852   4.222   1.225   1.159
  706SOL     OW 2853   4.244   1.514   1.085
  706SOL    HW2 2854   4.251   1.420   1.104
  706SOL    HW3 2855   4.308   1.555   1.143
  706SOL    MW4 2856   4.253   1.507   1.095
  707SOL     OW 2857   4.084   1.694   1.211
  707SOL    HW2 2858   4.086   1.665   1.302
  707SOL    HW3 2859   4.139   1.630   1.164
  707SOL    MW4 2860   4.091   1.682   1.217
  708SOL     OW 2861   3.968   1.915   1.080
  708SOL    HW2 2862   4.013   1.841   1.122
  708SOL    HW3 2863   3.991   1.908   0.988
  708SOL    MW4 2864   3.977   1.904   1.073
  709SOL     OW 2865   4.201   2.036   1.158
  709SOL    HW2 2866   4.196   2.127   1.127
  709SOL    HW3 2867   4.116   1.999   1.137
  709SOL    MW4 2868   4.189   2.043   1.151
  710SOL     OW 2869   4.213   2.311   1.104
  710SOL    HW2 2870   4.141   2.341   1.158
  710SOL    HW3 2871   4.184   2.326   1.014
  710SOL    MW4 2872   4.200   2.317   1.099
  711SOL     OW 2873   4.015   2.448   1.260
  711SOL    HW2 2874   4.001   2.453   1.355
  711SOL    HW3 2875   4.026   2.539   1.233
  711SOL    MW4 2876   4.014   2.460   1.269
  712SOL     OW 2877   4.049   2.716   1.176
  712SOL    HW2 2878   3.969   2.769   1.168
  712SOL    HW3 2879   4.077   2.701   1.086
  712SOL    MW4 2880   4.042   2.721   1.163
  713SOL     OW 2881   4.284   2.829   1.259
  713SOL    HW2 2882   4.283   2.909   1.206
  713SOL    HW3 2883   4.195   2.795   1.254
  713SOL    MW4 2884   4.272   2.835   1.251
  714SOL     OW 2885   4.252   3.076   1.128
  714SOL    HW2 2886   4.182   3.135   1.154
  714SOL    HW3 2887   4.249   3.076   1.032
  714SOL    MW4 2888   4.242   3.084   1.118
  715SOL     OW 2889   4.051   3.242   1.236
  715SOL    HW2 2890   4.055   3.203   1.324
  715SOL    HW3 2891   3.975   3.199   1.195
  715SOL    MW4 2892   4.042   3.231   1.242
  716SOL     OW 2893   4.030   3.516   1.172
  716SOL    HW2 2894   4.031   3.428   1.208
  716SOL    HW3 2895   3.944   3.550   1.196
  716SOL    MW4 2896   4.019   3.509   1.180
  717SOL     OW 2897   4.284   3.609   1.238
  717SOL    HW2 2898   4.201   3.564   1.222
  717SOL    HW3 2899   4.350   3.552   1.200
  717SOL    MW4 2900   4.282   3.596   1.231
  718SOL     OW 2901   4.274   3.864   1.108
  718SOL    HW2 2902   4.208   3.922   1.146
  718SOL    HW3 2903   4.264   3.782   1.156
  718SOL    MW4 2904   4.264   3.861   1.120
  719SOL     OW 2905   4.052   4.014   1.187
  719SOL    HW2 2906   4.031   4.103   1.159
  719SOL    HW3 2907   3.985   3.960   1.146
  719SOL    MW4 2908   4.041   4.019   1.178
  720SOL     OW 2909   4.015   4.273   1.086
  720SOL    HW2 2910   3.926   4.290   1.114
  720SOL    HW3 2911   4.005   4.229   1.001
  720SOL    MW4 2912   4.002   4.269   1.078
  721SOL     OW 2913   4.241   4.386   1.199
  721SOL    HW2 2914   4.166   4.351   1.150
  721SOL    HW3 2915   4.312   4.325   1.181
  721SOL    MW4 2916   4.240   4.374   1.190
  722SOL     OW 2917   0.193   4.660   1.627
  722SOL    HW2 2918   0.270   4.700   1.587
  722SOL    HW3 2919   0.119   4.712   1.595
  722SOL    MW4 2920   0.193   4.672   1.617
  723SOL     OW 2921   4.467   0.104   1.492
  723SOL    HW2 2922   4.388   0.052   1.506
  723SOL    HW3 2923   4.490   0.088   1.400
  723SOL    MW4 2924   4.459   0.095   1.481
  724SOL     OW 2925   0.006   0.358   1.637
  724SOL    HW2 2926  -0.009   0.355   1.731
  724SOL    HW3 2927   0.001   0.267   1.609
  724SOL    MW4 2928   0.004   0.346   1.645
  725SOL     OW 2929   0.214   0.491   1.507
  725SOL    HW2 2930   0.140   0.441   1.543
  725SOL    HW3 2931   0.200   0.490   1.412
  725SOL    MW4 2932   0.202   0.484   1.499
  726SOL     OW 2933   0.208   0.751   1.624
  726SOL    HW2 2934   0.282   0.797   1.585
  726SOL    HW3 2935   0.203   0.669   1.575
  726SOL    MW4 2936   0.217   0.746   1.612
  727SOL     OW 2937   0.004   0.910   1.514
  727SOL    HW2 2938   0.020   0.997   1.551
  727SOL    HW3 2939   0.074   0.855   1.549
  727SOL    MW4 2940   0.015   0.914   1.524
  728SOL     OW 2941   4.461   1.175   1.569
  728SOL    HW2 2942   4.442   1.178   1.662
  728SOL    HW3 2943   4.537   1.233   1.558
  728SOL    MW4 2944   4.469   1.183   1.580
  729SOL     OW 2945   0.215   1.320   1.501
  729SOL    HW2 2946   0.203   1.411   1.527
  729SOL    HW3 2947   0.214   1.323   1.405
  729SOL    MW4 2948   0.213   1.332   1.492
  730SOL     OW 2949   0.193   1.575   1.572
  730SOL    HW2 2950   0.194   1.561   1.666
  730SOL    HW3 2951   0.109   1.617   1.555
  730SOL    MW4 2952   0.182   1.579   1.582
  731SOL     OW 2953   4.433   1.674   1.510
  731SOL    HW2 2954   4.433   1.768   1.528
  731SOL    HW3 2955   4.436   1.668   1.414
  731SOL    MW4 2956   4.433   1.686   1.500
  732SOL     OW 2957   4.448   1.943   1.556
  732SOL    HW2 2958   4.448   1.958   1.650
  732SOL    HW3 2959   4.382   2.003   1.521
  732SOL    MW4 2960   4.440   1.953   1.564
  733SOL     OW 2961   0.195   2.035   1.461
  733SOL    HW2 2962   0.118   1.998   1.504
  733SOL    HW3 2963   0.180   2.020   1.367
  733SOL    MW4 2964   0.183   2.028   1.454
  734SOL     OW 2965   0.182   2.299   1.568
  734SOL    HW2 2966   0.200   2.288   1.662
  734SOL    HW3 2967   0.188   2.210   1.533
  734SOL    MW4 2968   0.185   2.286   1.576
  735SOL     OW 2969   4.470   2.438   1.443
  735SOL    HW2 2970   4.398   2.417   1.502
  735SOL    HW3 2971   4.546   2.393   1.481
  735SOL    MW4 2972   4.471   2.429   1.456
  736SOL     OW 2973   0.040   2.670   1.553
  736SOL    HW2 2974  -0.035   2.728   1.545
  736SOL    HW3 2975   0.015   2.591   1.505
  736SOL    MW4 2976   0.027   2.667   1.546
  737SOL     OW 2977   0.245   2.802   1.441
  737SOL    HW2 2978   0.327   2.771   1.480
  737SOL    HW3 2979   0.177   2.751   1.484
  737SOL    MW4 2980   0.247   2.791   1.452
  738SOL     OW 2981   0.264   3.042   1.569
  738SOL    HW2 2982   0.187   3.089   1.538
  738SOL    HW3 2983   0.254   2.954   1.532
  738SOL    MW4 2984   0.252   3.036   1.560
  739SOL     OW 2985   0.051   3.228   1.505
  739SOL    HW2 2986   0.011   3.297   1.557
  739SOL    HW3 2987   0.037   3.256   1.414
  739SOL    MW4 2988   0.044   3.241   1.500
  740SOL     OW 2989   4.478   3.473   1.627
  740SOL    HW2 2990   4.486   3.496   1.720
  740SOL    HW3 2991   4.397   3.515   1.599
  740SOL    MW4 2992   4.468   3.482   1.636
  741SOL     OW 2993   0.224   3.585   1.476
  741SOL    HW2 2994   0.231   3.675   1.507
  741SOL    HW3 2995   0.144   3.551   1.517
  741SOL    MW4 2996   0.214   3.592   1.486
  742SOL     OW 2997   0.215   3.856   1.589
  742SOL    HW2 2998   0.220   3.873   1.683
  742SOL    HW3 2999   0.292   3.900   1.552
  742SOL    MW4 3000   0.226   3.864   1.596
  743SOL     OW 3001   4.466   3.970   1.493
  743SOL    HW2 3002   4.447   4.061   1.517
  743SOL    HW3 3003   4.549   3.950   1.537
  743SOL    MW4 3004   4.475   3.979   1.502
  744SOL     OW 3005   4.460   4.236   1.589
  744SOL    HW2 3006   4.460   4.252   1.683
  744SOL    HW3 3007   4.383   4.284   1.557
  744SOL    MW4 3008   4.450   4.245   1.597
  745SOL     OW 3009   0.185   4.396   1.506
  745SOL    HW2 3010   0.106   4.348   1.531
  745SOL    HW3 3011   0.183   4.475   1.561
  745SOL    MW4 3012   0.174   4.400   1.517
  746SOL     OW 3013   0.639   4.662   1.633
  746SOL    HW2 3014   0.715   4.708   1.595
  746SOL    HW3 3015   0.564   4.704   1.592
  746SOL    MW4 3016   0.639   4.674   1.623
  747SOL     OW 3017   0.411   0.111   1.515
  747SOL    HW2 3018   0.416   0.203   1.540
  747SOL    HW3 3019   0.393   0.113   1.421
  747SOL    MW4 3020   0.409   0.123   1.506
  748SOL     OW 3021   0.436   0.356   1.635
  748SOL    HW2 3022   0.517   0.394   1.602
  748SOL    HW3 3023   0.367   0.395   1.581
  748SOL    MW4 3024   0.437   0.366   1.623
  749SOL     OW 3025   0.679   0.467   1.527
  749SOL    HW2 3026   0.679   0.558   1.556
  749SOL    HW3 3027   0.674   0.473   1.431
  749SOL    MW4 3028   0.679   0.479   1.518
  750SOL     OW 3029   0.644   0.738   1.603
  750SOL    HW2 3030   0.658   0.747   1.697
  750SOL    HW3 3031   0.724   0.772   1.564
  750SOL    MW4 3032   0.657   0.744   1.610
  751SOL     OW 3033   0.427   0.888   1.501
  751SOL    HW2 3034   0.426   0.975   1.540
  751SOL    HW3 3035   0.495   0.841   1.550
  751SOL    MW4 3036   0.436   0.893   1.512
  752SOL     OW 3037   0.417   1.154   1.612
  752SOL    HW2 3038   0.500   1.200   1.606
  752SOL    HW3 3039   0.353   1.213   1.572
  752SOL    MW4 3040   0.420   1.168   1.606
  753SOL     OW 3041   0.668   1.224   1.506
  753SOL    HW2 3042   0.660   1.316   1.532
  753SOL    HW3 3043   0.656   1.225   1.411
  753SOL    MW4 3044   0.665   1.236   1.497
  754SOL     OW 3045   0.648   1.500   1.538
  754SOL    HW2 3046   0.725   1.555   1.526
  754SOL    HW3 3047   0.576   1.551   1.501
  754SOL    MW4 3048   0.648   1.514   1.532
  755SOL     OW 3049   0.439   1.671   1.456
  755SOL    HW2 3050   0.445   1.756   1.499
  755SOL    HW3 3051   0.360   1.631   1.492
  755SOL    MW4 3052   0.430   1.677   1.466
  756SOL     OW 3053   0.413   1.929   1.600
  756SOL    HW2 3054   0.401   1.961   1.689
  756SOL    HW3 3055   0.353   1.981   1.547
  756SOL    MW4 3056   0.404   1.940   1.605
  757SOL     OW 3057   0.652   2.055   1.513
  757SOL    HW2 3058   0.727   2.010   1.551
  757SOL    HW3 3059   0.576   2.014   1.553
  757SOL    MW4 3060   0.652   2.043   1.523
  758SOL     OW 3061   0.668   2.344   1.578
  758SOL    HW2 3062   0.583   2.371   1.543
  758SOL    HW3 3063   0.675   2.251   1.557
  758SOL    MW4 3064   0.658   2.335   1.571
  759SOL     OW 3065   0.410   2.426   1.465
  759SOL    HW2 3066   0.412   2.507   1.516
  759SOL    HW3 3067   0.324   2.388   1.482
  759SOL    MW4 3068   0.399   2.432   1.474
  760SOL     OW 3069   0.450   2.666   1.598
  760SOL    HW2 3070   0.448   2.696   1.689
  760SOL    HW3 3071   0.532   2.700   1.563
  760SOL    MW4 3072   0.461   2.675   1.605
  761SOL     OW 3073   0.666   2.805   1.520
  761SOL    HW2 3074   0.686   2.892   1.554
  761SOL    HW3 3075   0.666   2.815   1.425
  761SOL    MW4 3076   0.668   2.818   1.512
  762SOL     OW 3077   0.691   3.072   1.626
  762SOL    HW2 3078   0.774   3.108   1.596
  762SOL    HW3 3079   0.625   3.132   1.591
  762SOL    MW4 3080   0.693   3.085   1.617
  763SOL     OW 3081   0.467   3.227   1.536
  763SOL    HW2 3082   0.387   3.175   1.550
  763SOL    HW3 3083   0.473   3.236   1.441
  763SOL    MW4 3084   0.457   3.221   1.526
  764SOL     OW 3085   0.431   3.492   1.629
  764SOL    HW2 3086   0.441   3.399   1.606
  764SOL    HW3 3087   0.358   3.522   1.575
  764SOL    MW4 3088   0.423   3.483   1.619
  765SOL     OW 3089   0.676   3.627   1.525
  765SOL    HW2 3090   0.755   3.577   1.542
  765SOL    HW3 3091   0.607   3.579   1.571
  765SOL    MW4 3092   0.677   3.614   1.533
  766SOL     OW 3093   0.674   3.903   1.595
  766SOL    HW2 3094   0.753   3.927   1.548
  766SOL    HW3 3095   0.664   3.809   1.579
  766SOL    MW4 3096   0.683   3.894   1.587
  767SOL     OW 3097   0.427   4.027   1.497
  767SOL    HW2 3098   0.509   3.992   1.532
  767SOL    HW3 3099   0.435   4.015   1.402
  767SOL    MW4 3100   0.439   4.021   1.489
  768SOL     OW 3101   0.434   4.274   1.612
  768SOL    HW2 3102   0.439   4.184   1.580
  768SOL    HW3 3103   0.356   4.311   1.572
  768SOL    MW4 3104   0.425   4.267   1.603
  769SOL     OW 3105   0.701   4.427   1.518
  769SOL    HW2 3106   0.630   4.377   1.559
  769SOL    HW3 3107   0.691   4.516   1.553
  769SOL    MW4 3108   0.690   4.432   1.528
  770SOL     OW 3109   1.092   4.655   1.584
  770SOL    HW2 3110   1.080   4.647   1.679
  770SOL    HW3 3111   1.167   4.713   1.573
  770SOL    MW4 3112   1.100   4.661   1.595
  771SOL     OW 3113   0.860   0.108   1.509
  771SOL    HW2 3114   0.888   0.195   1.538
  771SOL    HW3 3115   0.924   0.048   1.548
  771SOL    MW4 3116   0.872   0.112   1.518
  772SOL     OW 3117   0.915   0.367   1.621
  772SOL    HW2 3118   0.907   0.360   1.716
  772SOL    HW3 3119   0.834   0.411   1.594
  772SOL    MW4 3120   0.903   0.372   1.630
  773SOL     OW 3121   1.126   0.504   1.503
  773SOL    HW2 3122   1.133   0.589   1.546
  773SOL    HW3 3123   1.049   0.463   1.542
  773SOL    MW4 3124   1.117   0.510   1.514
  774SOL     OW 3125   1.125   0.760   1.633
  774SOL    HW2 3126   1.130   0.765   1.729
  774SOL    HW3 3127   1.206   0.800   1.602
  774SOL    MW4 3128   1.136   0.766   1.642
  775SOL     OW 3129   0.894   0.843   1.478
  775SOL    HW2 3130   0.965   0.818   1.536
  775SOL    HW3 3131   0.936   0.863   1.395
  775SOL    MW4 3132   0.909   0.842   1.475
  776SOL     OW 3133   0.890   1.101   1.595
  776SOL    HW2 3134   0.868   1.013   1.564
  776SOL    HW3 3135   0.812   1.153   1.574
  776SOL    MW4 3136   0.876   1.096   1.588
  777SOL     OW 3137   1.096   1.251   1.484
  777SOL    HW2 3138   1.177   1.216   1.521
  777SOL    HW3 3139   1.030   1.184   1.504
  777SOL    MW4 3140   1.098   1.237   1.491
  778SOL     OW 3141   1.105   1.513   1.564
  778SOL    HW2 3142   1.184   1.560   1.537
  778SOL    HW3 3143   1.109   1.430   1.516
  778SOL    MW4 3144   1.116   1.508   1.554
  779SOL     OW 3145   0.875   1.655   1.496
  779SOL    HW2 3146   0.959   1.616   1.521
  779SOL    HW3 3147   0.876   1.655   1.400
  779SOL    MW4 3148   0.886   1.650   1.487
  780SOL     OW 3149   0.882   1.913   1.580
  780SOL    HW2 3150   0.967   1.931   1.539
  780SOL    HW3 3151   0.862   1.823   1.555
  780SOL    MW4 3152   0.891   1.903   1.571
  781SOL     OW 3153   1.143   2.015   1.497
  781SOL    HW2 3154   1.224   1.985   1.539
  781SOL    HW3 3155   1.137   2.107   1.521
  781SOL    MW4 3156   1.153   2.023   1.506
  782SOL     OW 3157   1.141   2.287   1.569
  782SOL    HW2 3158   1.222   2.332   1.544
  782SOL    HW3 3159   1.075   2.355   1.570
  782SOL    MW4 3160   1.143   2.302   1.566
  783SOL     OW 3161   0.914   2.440   1.517
  783SOL    HW2 3162   0.916   2.532   1.544
  783SOL    HW3 3163   0.831   2.407   1.549
  783SOL    MW4 3164   0.903   2.448   1.525
  784SOL     OW 3165   0.910   2.692   1.622
  784SOL    HW2 3166   0.911   2.693   1.717
  784SOL    HW3 3167   0.830   2.740   1.598
  784SOL    MW4 3168   0.900   2.699   1.631
  785SOL     OW 3169   1.109   2.848   1.477
  785SOL    HW2 3170   1.139   2.919   1.533
  785SOL    HW3 3171   1.034   2.810   1.524
  785SOL    MW4 3172   1.103   2.852   1.491
  786SOL     OW 3173   1.172   3.052   1.638
  786SOL    HW2 3174   1.159   3.076   1.730
  786SOL    HW3 3175   1.234   3.116   1.605
  786SOL    MW4 3176   1.178   3.064   1.645
  787SOL     OW 3177   0.924   3.183   1.541
  787SOL    HW2 3178   1.014   3.158   1.562
  787SOL    HW3 3179   0.913   3.158   1.449
  787SOL    MW4 3180   0.934   3.177   1.532
  788SOL     OW 3181   0.898   3.461   1.573
  788SOL    HW2 3182   0.975   3.501   1.533
  788SOL    HW3 3183   0.913   3.367   1.565
  788SOL    MW4 3184   0.910   3.454   1.567
  789SOL     OW 3185   1.116   3.627   1.513
  789SOL    HW2 3186   1.189   3.573   1.543
  789SOL    HW3 3187   1.111   3.612   1.419
  789SOL    MW4 3188   1.125   3.618   1.505
  790SOL     OW 3189   1.141   3.888   1.583
  790SOL    HW2 3190   1.220   3.913   1.536
  790SOL    HW3 3191   1.131   3.794   1.566
  790SOL    MW4 3192   1.150   3.879   1.575
  791SOL     OW 3193   0.900   3.988   1.490
  791SOL    HW2 3194   0.896   4.078   1.523
  791SOL    HW3 3195   0.986   3.956   1.519
  791SOL    MW4 3196   0.911   3.996   1.498
  792SOL     OW 3197   0.906   4.258   1.610
  792SOL    HW2 3198   0.893   4.252   1.704
  792SOL    HW3 3199   0.841   4.321   1.580
  792SOL    MW4 3200   0.896   4.265   1.618
  793SOL     OW 3201   1.141   4.398   1.505
  793SOL    HW2 3202   1.054   4.362   1.522
  793SOL    HW3 3203   1.131   4.492   1.516
  793SOL    MW4 3204   1.128   4.406   1.509
  794SOL     OW 3205   1.562   4.618   1.602
  794SOL    HW2 3206   1.556   4.607   1.697
  794SOL    HW3 3207   1.496   4.685   1.581
  794SOL    MW4 3208   1.553   4.626   1.611
  795SOL     OW 3209   1.357   0.118   1.534
  795SOL    HW2 3210   1.356   0.205   1.573
  795SOL    HW3 3211   1.367   0.134   1.440
  795SOL    MW4 3212   1.358   0.132   1.526
  796SOL     OW 3213   1.347   0.372   1.616
  796SOL    HW2 3214   1.420   0.422   1.579
  796SOL    HW3 3215   1.269   0.414   1.579
  796SOL    MW4 3216   1.346   0.384   1.606
  797SOL     OW 3217   1.566   0.542   1.535
  797SOL    HW2 3218   1.639   0.482   1.543
  797SOL    HW3 3219   1.550   0.548   1.441
  797SOL    MW4 3220   1.573   0.535   1.524
  798SOL     OW 3221   1.573   0.782   1.664
  798SOL    HW2 3222   1.596   0.775   1.757
  798SOL    HW3 3223   1.569   0.691   1.634
  798SOL    MW4 3224   1.575   0.769   1.672
  799SOL     OW 3225   1.352   0.869   1.494
  799SOL    HW2 3226   1.436   0.843   1.532
  799SOL    HW3 3227   1.367   0.869   1.400
  799SOL    MW4 3228   1.365   0.866   1.487
  800SOL     OW 3229   1.348   1.145   1.540
  800SOL    HW2 3230   1.344   1.147   1.636
  800SOL    HW3 3231   1.343   1.053   1.518
  800SOL    MW4 3232   1.347   1.133   1.550
  801SOL     OW 3233   1.565   1.278   1.470
  801SOL    HW2 3234   1.488   1.227   1.493
  801SOL    HW3 3235   1.560   1.286   1.374
  801SOL    MW4 3236   1.554   1.273   1.460
  802SOL     OW 3237   1.580   1.533   1.626
  802SOL    HW2 3238   1.577   1.505   1.718
  802SOL    HW3 3239   1.583   1.450   1.577
  802SOL    MW4 3240   1.580   1.518   1.632
  803SOL     OW 3241   1.334   1.645   1.505
  803SOL    HW2 3242   1.408   1.604   1.549
  803SOL    HW3 3243   1.360   1.649   1.413
  803SOL    MW4 3244   1.347   1.640   1.498
  804SOL     OW 3245   1.362   1.915   1.612
  804SOL    HW2 3246   1.356   1.908   1.708
  804SOL    HW3 3247   1.369   1.824   1.583
  804SOL    MW4 3248   1.362   1.902   1.621
  805SOL     OW 3249   1.510   2.123   1.513
  805SOL    HW2 3250   1.449   2.057   1.545
  805SOL    HW3 3251   1.551   2.083   1.436
  805SOL    MW4 3252   1.507   2.109   1.507
  806SOL     OW 3253   1.584   2.346   1.636
  806SOL    HW2 3254   1.671   2.360   1.600
  806SOL    HW3 3255   1.555   2.264   1.596
  806SOL    MW4 3256   1.591   2.337   1.626
  807SOL     OW 3257   1.368   2.427   1.496
  807SOL    HW2 3258   1.363   2.521   1.517
  807SOL    HW3 3259   1.446   2.396   1.542
  807SOL    MW4 3260   1.377   2.436   1.505
  808SOL     OW 3261   1.328   2.689   1.561
  808SOL    HW2 3262   1.399   2.749   1.541
  808SOL    HW3 3263   1.253   2.724   1.513
  808SOL    MW4 3264   1.328   2.701   1.552
  809SOL     OW 3265   1.561   2.836   1.510
  809SOL    HW2 3266   1.641   2.792   1.537
  809SOL    HW3 3267   1.567   2.841   1.414
  809SOL    MW4 3268   1.572   2.831   1.501
  810SOL     OW 3269   1.558   3.093   1.606
  810SOL    HW2 3270   1.631   3.142   1.568
  810SOL    HW3 3271   1.574   3.002   1.578
  810SOL    MW4 3272   1.570   3.087   1.597
  811SOL     OW 3273   1.335   3.222   1.505
  811SOL    HW2 3274   1.321   3.311   1.536
  811SOL    HW3 3275   1.420   3.197   1.540
  811SOL    MW4 3276   1.344   3.230   1.513
  812SOL     OW 3277   1.324   3.474   1.608
  812SOL    HW2 3278   1.319   3.477   1.703
  812SOL    HW3 3279   1.404   3.522   1.586
  812SOL    MW4 3280   1.334   3.481   1.617
  813SOL     OW 3281   1.546   3.607   1.513
  813SOL    HW2 3282   1.550   3.692   1.557
  813SOL    HW3 3283   1.522   3.628   1.423
  813SOL    MW4 3284   1.543   3.621   1.507
  814SOL     OW 3285   1.611   3.835   1.621
  814SOL    HW2 3286   1.606   3.849   1.716
  814SOL    HW3 3287   1.537   3.883   1.586
  814SOL    MW4 3288   1.601   3.843   1.629
  815SOL     OW 3289   1.404   3.974   1.492
  815SOL    HW2 3290   1.385   4.066   1.512
  815SOL    HW3 3291   1.410   3.972   1.396
  815SOL    MW4 3292   1.402   3.986   1.482
  816SOL     OW 3293   1.365   4.254   1.566
  816SOL    HW2 3294   1.445   4.301   1.540
  816SOL    HW3 3295   1.296   4.319   1.558
  816SOL    MW4 3296   1.367   4.269   1.561
  817SOL     OW 3297   1.589   4.391   1.463
  817SOL    HW2 3298   1.641   4.330   1.515
  817SOL    HW3 3299   1.599   4.475   1.508
  817SOL    MW4 3300   1.597   4.394   1.476
  818SOL     OW 3301   2.042   0.003   1.603
  818SOL    HW2 3302   2.053   0.002   1.698
  818SOL    HW3 3303   1.952   0.032   1.589
  818SOL    MW4 3304   2.032   0.006   1.613
  819SOL     OW 3305   1.790   0.092   1.524
  819SOL    HW2 3306   1.706   0.063   1.558
  819SOL    HW3 3307   1.775   0.103   1.430
  819SOL    MW4 3308   1.777   0.090   1.516
  820SOL     OW 3309   1.776   0.361   1.603
  820SOL    HW2 3310   1.862   0.393   1.580
  820SOL    HW3 3311   1.775   0.270   1.573
  820SOL    MW4 3312   1.787   0.353   1.596
  821SOL     OW 3313   1.993   0.511   1.488
  821SOL    HW2 3314   2.077   0.474   1.515
  821SOL    HW3 3315   1.994   0.601   1.522
  821SOL    MW4 3316   2.004   0.518   1.496
  822SOL     OW 3317   1.998   0.786   1.584
  822SOL    HW2 3318   2.075   0.833   1.551
  822SOL    HW3 3319   1.923   0.838   1.553
  822SOL    MW4 3320   1.998   0.799   1.575
  823SOL     OW 3321   1.780   0.942   1.503
  823SOL    HW2 3322   1.806   1.020   1.552
  823SOL    HW3 3323   1.716   0.899   1.559
  823SOL    MW4 3324   1.775   0.947   1.516
  824SOL     OW 3325   1.806   1.209   1.615
  824SOL    HW2 3326   1.874   1.267   1.581
  824SOL    HW3 3327   1.728   1.231   1.563
  824SOL    MW4 3328   1.804   1.220   1.603
  825SOL     OW 3329   2.052   1.312   1.502
  825SOL    HW2 3330   2.060   1.398   1.542
  825SOL    HW3 3331   2.068   1.327   1.409
  825SOL    MW4 3332   2.055   1.325   1.495
  826SOL     OW 3333   2.032   1.585   1.595
  826SOL    HW2 3334   2.084   1.634   1.531
  826SOL    HW3 3335   1.944   1.622   1.587
  826SOL    MW4 3336   2.027   1.596   1.585
  827SOL     OW 3337   1.783   1.703   1.531
  827SOL    HW2 3338   1.708   1.649   1.557
  827SOL    HW3 3339   1.781   1.702   1.436
  827SOL    MW4 3340   1.773   1.696   1.522
  828SOL     OW 3341   1.780   1.970   1.597
  828SOL    HW2 3342   1.763   1.881   1.566
  828SOL    HW3 3343   1.696   2.015   1.589
  828SOL    MW4 3344   1.767   1.964   1.592
  829SOL     OW 3345   2.012   2.073   1.480
  829SOL    HW2 3346   2.086   2.030   1.523
  829SOL    HW3 3347   1.935   2.028   1.514
  829SOL    MW4 3348   2.011   2.061   1.490
  830SOL     OW 3349   2.058   2.323   1.618
  830SOL    HW2 3350   2.080   2.312   1.711
  830SOL    HW3 3351   2.059   2.234   1.582
  830SOL    MW4 3352   2.061   2.310   1.626
  831SOL     OW 3353   1.827   2.460   1.534
  831SOL    HW2 3354   1.906   2.426   1.576
  831SOL    HW3 3355   1.851   2.470   1.442
  831SOL    MW4 3356   1.841   2.457   1.528
  832SOL     OW 3357   1.787   2.715   1.642
  832SOL    HW2 3358   1.866   2.753   1.604
  832SOL    HW3 3359   1.789   2.623   1.616
  832SOL    MW4 3360   1.798   2.708   1.634
  833SOL     OW 3361   2.028   2.823   1.519
  833SOL    HW2 3362   2.000   2.913   1.539
  833SOL    HW3 3363   2.047   2.824   1.425
  833SOL    MW4 3364   2.027   2.835   1.509
  834SOL     OW 3365   1.969   3.101   1.593
  834SOL    HW2 3366   1.997   3.064   1.676
  834SOL    HW3 3367   2.048   3.136   1.553
  834SOL    MW4 3368   1.983   3.101   1.599
  835SOL     OW 3369   1.759   3.240   1.497
  835SOL    HW2 3370   1.771   3.327   1.536
  835SOL    HW3 3371   1.836   3.190   1.524
  835SOL    MW4 3372   1.771   3.245   1.506
  836SOL     OW 3373   1.780   3.501   1.600
  836SOL    HW2 3374   1.774   3.511   1.695
  836SOL    HW3 3375   1.711   3.556   1.565
  836SOL    MW4 3376   1.770   3.509   1.608
  837SOL     OW 3377   2.040   3.634   1.525
  837SOL    HW2 3378   2.107   3.566   1.529
  837SOL    HW3 3379   1.960   3.591   1.557
  837SOL    MW4 3380   2.038   3.619   1.530
  838SOL     OW 3381   2.030   3.903   1.577
  838SOL    HW2 3382   2.113   3.947   1.562
  838SOL    HW3 3383   2.040   3.817   1.537
  838SOL    MW4 3384   2.042   3.898   1.569
  839SOL     OW 3385   1.787   3.992   1.486
  839SOL    HW2 3386   1.868   3.946   1.505
  839SOL    HW3 3387   1.718   3.935   1.521
  839SOL    MW4 3388   1.788   3.978   1.493
  840SOL     OW 3389   1.791   4.246   1.592
  840SOL    HW2 3390   1.863   4.299   1.558
  840SOL    HW3 3391   1.810   4.157   1.562
  840SOL    MW4 3392   1.803   4.241   1.584
  841SOL     OW 3393   2.022   4.427   1.479
  841SOL    HW2 3394   2.109   4.390   1.494
  841SOL    HW3 3395   2.025   4.513   1.522
  841SOL    MW4 3396   2.034   4.433   1.487
  842SOL     OW 3397   2.441   4.649   1.581
  842SOL    HW2 3398   2.462   4.650   1.674
  842SOL    HW3 3399   2.377   4.719   1.569
  842SOL    MW4 3400   2.436   4.658   1.592
  843SOL     OW 3401   2.239   0.152   1.500
  843SOL    HW2 3402   2.167   0.103   1.541
  843SOL    HW3 3403   2.222   0.144   1.406
  843SOL    MW4 3404   2.227   0.144   1.493
  844SOL     OW 3405   2.235   0.412   1.588
  844SOL    HW2 3406   2.255   0.404   1.681
  844SOL    HW3 3407   2.238   0.322   1.555
  844SOL    MW4 3408   2.238   0.399   1.596
  845SOL     OW 3409   2.478   0.521   1.491
  845SOL    HW2 3410   2.560   0.479   1.517
  845SOL    HW3 3411   2.410   0.462   1.524
  845SOL    MW4 3412   2.479   0.507   1.499
  846SOL     OW 3413   2.475   0.783   1.613
  846SOL    HW2 3414   2.394   0.821   1.580
  846SOL    HW3 3415   2.474   0.693   1.580
  846SOL    MW4 3416   2.464   0.776   1.604
  847SOL     OW 3417   2.250   0.887   1.530
  847SOL    HW2 3418   2.246   0.979   1.556
  847SOL    HW3 3419   2.240   0.889   1.435
  847SOL    MW4 3420   2.248   0.900   1.521
  848SOL     OW 3421   2.265   1.155   1.551
  848SOL    HW2 3422   2.261   1.143   1.646
  848SOL    HW3 3423   2.181   1.194   1.528
  848SOL    MW4 3424   2.253   1.159   1.560
  849SOL     OW 3425   2.483   1.286   1.437
  849SOL    HW2 3426   2.413   1.234   1.475
  849SOL    HW3 3427   2.468   1.284   1.343
  849SOL    MW4 3428   2.472   1.279   1.430
  850SOL     OW 3429   2.450   1.528   1.579
  850SOL    HW2 3430   2.528   1.580   1.562
  850SOL    HW3 3431   2.463   1.447   1.529
  850SOL    MW4 3432   2.462   1.524   1.570
  851SOL     OW 3433   2.273   1.713   1.474
  851SOL    HW2 3434   2.335   1.643   1.497
  851SOL    HW3 3435   2.268   1.709   1.378
  851SOL    MW4 3436   2.281   1.703   1.464
  852SOL     OW 3437   2.253   1.955   1.582
  852SOL    HW2 3438   2.272   1.968   1.675
  852SOL    HW3 3439   2.282   1.866   1.564
  852SOL    MW4 3440   2.259   1.945   1.592
  853SOL     OW 3441   2.478   2.071   1.459
  853SOL    HW2 3442   2.389   2.038   1.470
  853SOL    HW3 3443   2.493   2.069   1.365
  853SOL    MW4 3444   2.469   2.067   1.448
  854SOL     OW 3445   2.493   2.334   1.543
  854SOL    HW2 3446   2.500   2.339   1.638
  854SOL    HW3 3447   2.485   2.240   1.524
  854SOL    MW4 3448   2.493   2.322   1.553
  855SOL     OW 3449   2.257   2.471   1.476
  855SOL    HW2 3450   2.333   2.415   1.490
  855SOL    HW3 3451   2.183   2.419   1.509
  855SOL    MW4 3452   2.257   2.457   1.482
  856SOL     OW 3453   2.264   2.729   1.621
  856SOL    HW2 3454   2.275   2.642   1.584
  856SOL    HW3 3455   2.177   2.757   1.590
  856SOL    MW4 3456   2.254   2.721   1.612
  857SOL     OW 3457   2.462   2.845   1.477
  857SOL    HW2 3458   2.447   2.937   1.502
  857SOL    HW3 3459   2.403   2.795   1.533
  857SOL    MW4 3460   2.452   2.851   1.488
  858SOL     OW 3461   2.424   3.095   1.563
  858SOL    HW2 3462   2.508   3.142   1.556
  858SOL    HW3 3463   2.360   3.155   1.527
  858SOL    MW4 3464   2.427   3.109   1.557
  859SOL     OW 3465   2.195   3.229   1.469
  859SOL    HW2 3466   2.217   3.320   1.492
  859SOL    HW3 3467   2.213   3.223   1.375
  859SOL    MW4 3468   2.201   3.240   1.460
  860SOL     OW 3469   2.258   3.468   1.564
  860SOL    HW2 3470   2.263   3.463   1.660
  860SOL    HW3 3471   2.332   3.523   1.539
  860SOL    MW4 3472   2.269   3.474   1.574
  861SOL     OW 3473   2.457   3.635   1.479
  861SOL    HW2 3474   2.518   3.579   1.528
  861SOL    HW3 3475   2.468   3.722   1.518
  861SOL    MW4 3476   2.467   3.639   1.491
  862SOL     OW 3477   2.486   3.879   1.590
  862SOL    HW2 3478   2.483   3.864   1.684
  862SOL    HW3 3479   2.575   3.910   1.573
  862SOL    MW4 3480   2.497   3.881   1.600
  863SOL     OW 3481   2.256   4.024   1.480
  863SOL    HW2 3482   2.336   3.991   1.521
  863SOL    HW3 3483   2.264   4.000   1.388
  863SOL    MW4 3484   2.267   4.017   1.473
  864SOL     OW 3485   2.238   4.292   1.556
  864SOL    HW2 3486   2.326   4.327   1.544
  864SOL    HW3 3487   2.245   4.199   1.535
  864SOL    MW4 3488   2.250   4.285   1.552
  865SOL     OW 3489   2.505   4.391   1.514
  865SOL    HW2 3490   2.478   4.482   1.529
  865SOL    HW3 3491   2.514   4.384   1.419
  865SOL    MW4 3492   2.502   4.402   1.503
  866SOL     OW 3493   2.914   4.571   1.619
  866SOL    HW2 3494   2.930   4.559   1.712
  866SOL    HW3 3495   2.830   4.616   1.614
  866SOL    MW4 3496   2.905   4.576   1.631
  867SOL     OW 3497   2.711   0.087   1.505
  867SOL    HW2 3498   2.716   0.177   1.537
  867SOL    HW3 3499   2.620   0.061   1.520
  867SOL    MW4 3500   2.700   0.096   1.511
  868SOL     OW 3501   2.692   0.364   1.593
  868SOL    HW2 3502   2.689   0.359   1.688
  868SOL    HW3 3503   2.781   0.393   1.573
  868SOL    MW4 3504   2.703   0.367   1.603
  869SOL     OW 3505   2.929   0.480   1.535
  869SOL    HW2 3506   2.899   0.566   1.565
  869SOL    HW3 3507   2.921   0.484   1.439
  869SOL    MW4 3508   2.924   0.492   1.526
  870SOL     OW 3509   2.912   0.760   1.575
  870SOL    HW2 3510   2.924   0.769   1.670
  870SOL    HW3 3511   2.842   0.821   1.554
  870SOL    MW4 3512   2.905   0.769   1.585
  871SOL     OW 3513   2.715   0.961   1.506
  871SOL    HW2 3514   2.635   0.920   1.539
  871SOL    HW3 3515   2.725   0.927   1.417
  871SOL    MW4 3516   2.705   0.951   1.499
  872SOL     OW 3517   2.684   1.201   1.607
  872SOL    HW2 3518   2.713   1.119   1.567
  872SOL    HW3 3519   2.620   1.236   1.545
  872SOL    MW4 3520   2.680   1.195   1.593
  873SOL     OW 3521   2.938   1.297   1.515
  873SOL    HW2 3522   3.017   1.252   1.544
  873SOL    HW3 3523   2.868   1.264   1.572
  873SOL    MW4 3524   2.939   1.287   1.527
  874SOL     OW 3525   2.929   1.570   1.559
  874SOL    HW2 3526   2.840   1.597   1.535
  874SOL    HW3 3527   2.935   1.479   1.531
  874SOL    MW4 3528   2.918   1.562   1.552
  875SOL     OW 3529   2.673   1.685   1.501
  875SOL    HW2 3530   2.678   1.778   1.525
  875SOL    HW3 3531   2.668   1.685   1.406
  875SOL    MW4 3532   2.673   1.697   1.492
  876SOL     OW 3533   2.713   1.957   1.559
  876SOL    HW2 3534   2.708   1.938   1.652
  876SOL    HW3 3535   2.629   1.999   1.539
  876SOL    MW4 3536   2.701   1.960   1.569
  877SOL     OW 3537   2.942   2.052   1.419
  877SOL    HW2 3538   2.938   2.143   1.449
  877SOL    HW3 3539   2.866   2.010   1.460
  877SOL    MW4 3540   2.931   2.059   1.429
  878SOL     OW 3541   2.926   2.318   1.545
  878SOL    HW2 3542   2.924   2.322   1.640
  878SOL    HW3 3543   2.864   2.385   1.516
  878SOL    MW4 3544   2.918   2.327   1.554
  879SOL     OW 3545   2.724   2.484   1.461
  879SOL    HW2 3546   2.710   2.569   1.505
  879SOL    HW3 3547   2.646   2.433   1.483
  879SOL    MW4 3548   2.712   2.489   1.470
  880SOL     OW 3549   2.678   2.736   1.616
  880SOL    HW2 3550   2.764   2.765   1.585
  880SOL    HW3 3551   2.616   2.791   1.569
  880SOL    MW4 3552   2.682   2.747   1.605
  881SOL     OW 3553   2.911   2.789   1.484
  881SOL    HW2 3554   2.994   2.747   1.508
  881SOL    HW3 3555   2.920   2.878   1.516
  881SOL    MW4 3556   2.923   2.795   1.492
  882SOL     OW 3557   2.915   3.056   1.574
  882SOL    HW2 3558   2.898   3.067   1.668
  882SOL    HW3 3559   2.993   3.109   1.557
  882SOL    MW4 3560   2.923   3.064   1.584
  883SOL     OW 3561   2.695   3.225   1.512
  883SOL    HW2 3562   2.772   3.169   1.527
  883SOL    HW3 3563   2.685   3.226   1.417
  883SOL    MW4 3564   2.704   3.218   1.502
  884SOL     OW 3565   2.666   3.494   1.579
  884SOL    HW2 3566   2.666   3.483   1.674
  884SOL    HW3 3567   2.670   3.405   1.544
  884SOL    MW4 3568   2.666   3.481   1.587
  885SOL     OW 3569   2.908   3.604   1.503
  885SOL    HW2 3570   2.822   3.570   1.530
  885SOL    HW3 3571   2.900   3.620   1.410
  885SOL    MW4 3572   2.896   3.601   1.495
  886SOL     OW 3573   2.948   3.865   1.635
  886SOL    HW2 3574   2.876   3.905   1.585
  886SOL    HW3 3575   2.956   3.777   1.599
  886SOL    MW4 3576   2.940   3.859   1.624
  887SOL     OW 3577   2.732   3.977   1.499
  887SOL    HW2 3578   2.716   4.069   1.522
  887SOL    HW3 3579   2.715   3.973   1.405
  887SOL    MW4 3580   2.728   3.989   1.490
  888SOL     OW 3581   2.712   4.224   1.613
  888SOL    HW2 3582   2.794   4.269   1.594
  888SOL    HW3 3583   2.644   4.285   1.584
  888SOL    MW4 3584   2.714   4.238   1.607
  889SOL     OW 3585   2.934   4.344   1.480
  889SOL    HW2 3586   2.934   4.426   1.529
  889SOL    HW3 3587   2.896   4.367   1.395
  889SOL    MW4 3588   2.929   4.358   1.475
  890SOL     OW 3589   3.362   4.615   1.645
  890SOL    HW2 3590   3.428   4.671   1.605
  890SOL    HW3 3591   3.349   4.544   1.582
  890SOL    MW4 3592   3.369   4.613   1.632
  891SOL     OW 3593   3.124   0.088   1.527
  891SOL    HW2 3594   3.207   0.057   1.562
  891SOL    HW3 3595   3.058   0.029   1.564
  891SOL    MW4 3596   3.126   0.076   1.536
  892SOL     OW 3597   3.166   0.351   1.587
  892SOL    HW2 3598   3.127   0.268   1.562
  892SOL    HW3 3599   3.096   0.415   1.576
  892SOL    MW4 3600   3.152   0.349   1.582
  893SOL     OW 3601   3.377   0.491   1.500
  893SOL    HW2 3602   3.303   0.446   1.539
  893SOL    HW3 3603   3.373   0.470   1.407
  893SOL    MW4 3604   3.367   0.483   1.493
  894SOL     OW 3605   3.337   0.758   1.569
  894SOL    HW2 3606   3.323   0.750   1.663
  894SOL    HW3 3607   3.350   0.668   1.539
  894SOL    MW4 3608   3.337   0.745   1.578
  895SOL     OW 3609   3.137   0.911   1.479
  895SOL    HW2 3610   3.215   0.861   1.503
  895SOL    HW3 3611   3.064   0.853   1.498
  895SOL    MW4 3612   3.137   0.897   1.484
  896SOL     OW 3613   3.178   1.170   1.572
  896SOL    HW2 3614   3.171   1.170   1.668
  896SOL    HW3 3615   3.168   1.078   1.547
  896SOL    MW4 3616   3.176   1.158   1.581
  897SOL     OW 3617   3.390   1.301   1.461
  897SOL    HW2 3618   3.464   1.253   1.498
  897SOL    HW3 3619   3.313   1.263   1.503
  897SOL    MW4 3620   3.389   1.290   1.472
  898SOL     OW 3621   3.371   1.545   1.577
  898SOL    HW2 3622   3.372   1.521   1.670
  898SOL    HW3 3623   3.368   1.462   1.531
  898SOL    MW4 3624   3.371   1.531   1.583
  899SOL     OW 3625   3.166   1.677   1.460
  899SOL    HW2 3626   3.239   1.639   1.509
  899SOL    HW3 3627   3.088   1.640   1.501
  899SOL    MW4 3628   3.165   1.667   1.472
  900SOL     OW 3629   3.140   1.927   1.587
  900SOL    HW2 3630   3.155   1.839   1.553
  900SOL    HW3 3631   3.080   1.967   1.524
  900SOL    MW4 3632   3.134   1.920   1.574
  901SOL     OW 3633   3.363   2.074   1.543
  901SOL    HW2 3634   3.294   2.019   1.580
  901SOL    HW3 3635   3.365   2.051   1.450
  901SOL    MW4 3636   3.354   2.064   1.536
  902SOL     OW 3637   3.364   2.346   1.597
  902SOL    HW2 3638   3.444   2.358   1.545
  902SOL    HW3 3639   3.343   2.253   1.588
  902SOL    MW4 3640   3.371   2.335   1.589
  903SOL     OW 3641   3.155   2.441   1.438
  903SOL    HW2 3642   3.233   2.412   1.486
  903SOL    HW3 3643   3.082   2.400   1.484
  903SOL    MW4 3644   3.156   2.431   1.450
  904SOL     OW 3645   3.142   2.670   1.597
  904SOL    HW2 3646   3.198   2.737   1.556
  904SOL    HW3 3647   3.140   2.598   1.534
  904SOL    MW4 3648   3.149   2.670   1.583
  905SOL     OW 3649   3.337   2.808   1.460
  905SOL    HW2 3650   3.350   2.896   1.496
  905SOL    HW3 3651   3.344   2.820   1.365
  905SOL    MW4 3652   3.340   2.821   1.452
  906SOL     OW 3653   3.365   3.060   1.570
  906SOL    HW2 3654   3.373   3.071   1.665
  906SOL    HW3 3655   3.442   3.103   1.534
  906SOL    MW4 3656   3.376   3.067   1.578
  907SOL     OW 3657   3.138   3.198   1.453
  907SOL    HW2 3658   3.213   3.142   1.472
  907SOL    HW3 3659   3.155   3.230   1.365
  907SOL    MW4 3660   3.150   3.195   1.444
  908SOL     OW 3661   3.105   3.447   1.606
  908SOL    HW2 3662   3.116   3.367   1.553
  908SOL    HW3 3663   3.034   3.495   1.562
  908SOL    MW4 3664   3.097   3.442   1.593
  909SOL     OW 3665   3.302   3.581   1.475
  909SOL    HW2 3666   3.388   3.563   1.512
  909SOL    HW3 3667   3.241   3.536   1.533
  909SOL    MW4 3668   3.305   3.573   1.488
  910SOL     OW 3669   3.347   3.852   1.587
  910SOL    HW2 3670   3.274   3.903   1.553
  910SOL    HW3 3671   3.326   3.761   1.563
  910SOL    MW4 3672   3.335   3.846   1.579
  911SOL     OW 3673   3.135   4.016   1.487
  911SOL    HW2 3674   3.154   4.104   1.521
  911SOL    HW3 3675   3.085   3.974   1.557
  911SOL    MW4 3676   3.131   4.022   1.501
  912SOL     OW 3677   3.164   4.249   1.603
  912SOL    HW2 3678   3.147   4.242   1.697
  912SOL    HW3 3679   3.079   4.273   1.566
  912SOL    MW4 3680   3.151   4.251   1.611
  913SOL     OW 3681   3.350   4.407   1.468
  913SOL    HW2 3682   3.301   4.342   1.518
  913SOL    HW3 3683   3.329   4.389   1.377
  913SOL    MW4 3684   3.341   4.396   1.463
  914SOL     OW 3685   3.758   4.602   1.635
  914SOL    HW2 3686   3.776   4.604   1.729
  914SOL    HW3 3687   3.843   4.618   1.594
  914SOL    MW4 3688   3.771   4.604   1.642
  915SOL     OW 3689   3.575   0.108   1.526
  915SOL    HW2 3690   3.638   0.047   1.564
  915SOL    HW3 3691   3.573   0.086   1.433
  915SOL    MW4 3692   3.583   0.097   1.519
  916SOL     OW 3693   3.616   0.376   1.602
  916SOL    HW2 3694   3.602   0.285   1.576
  916SOL    HW3 3695   3.540   0.422   1.567
  916SOL    MW4 3696   3.604   0.370   1.594
  917SOL     OW 3697   3.844   0.476   1.485
  917SOL    HW2 3698   3.769   0.439   1.531
  917SOL    HW3 3699   3.818   0.475   1.392
  917SOL    MW4 3700   3.830   0.471   1.479
  918SOL     OW 3701   3.800   0.744   1.588
  918SOL    HW2 3702   3.730   0.797   1.551
  918SOL    HW3 3703   3.801   0.665   1.535
  918SOL    MW4 3704   3.791   0.741   1.576
  919SOL     OW 3705   3.607   0.912   1.502
  919SOL    HW2 3706   3.527   0.865   1.524
  919SOL    HW3 3707   3.618   0.898   1.408
  919SOL    MW4 3708   3.598   0.904   1.492
  920SOL     OW 3709   3.593   1.170   1.591
  920SOL    HW2 3710   3.677   1.212   1.571
  920SOL    HW3 3711   3.601   1.082   1.556
  920SOL    MW4 3712   3.605   1.164   1.584
  921SOL     OW 3713   3.820   1.312   1.465
  921SOL    HW2 3714   3.908   1.282   1.490
  921SOL    HW3 3715   3.807   1.393   1.515
  921SOL    MW4 3716   3.830   1.319   1.475
  922SOL     OW 3717   3.797   1.556   1.582
  922SOL    HW2 3718   3.785   1.566   1.677
  922SOL    HW3 3719   3.718   1.594   1.545
  922SOL    MW4 3720   3.785   1.563   1.590
  923SOL     OW 3721   3.590   1.698   1.455
  923SOL    HW2 3722   3.517   1.642   1.481
  923SOL    HW3 3723   3.600   1.682   1.361
  923SOL    MW4 3724   3.582   1.688   1.446
  924SOL     OW 3725   3.606   1.920   1.609
  924SOL    HW2 3726   3.584   1.849   1.549
  924SOL    HW3 3727   3.533   1.982   1.599
  924SOL    MW4 3728   3.593   1.919   1.600
  925SOL     OW 3729   3.844   2.021   1.526
  925SOL    HW2 3730   3.836   2.116   1.527
  925SOL    HW3 3731   3.763   1.990   1.567
  925SOL    MW4 3732   3.832   2.029   1.532
  926SOL     OW 3733   3.815   2.290   1.575
  926SOL    HW2 3734   3.829   2.293   1.670
  926SOL    HW3 3735   3.869   2.361   1.540
  926SOL    MW4 3736   3.824   2.299   1.583
  927SOL     OW 3737   3.602   2.414   1.480
  927SOL    HW2 3738   3.605   2.504   1.511
  927SOL    HW3 3739   3.681   2.373   1.516
  927SOL    MW4 3740   3.613   2.420   1.488
  928SOL     OW 3741   3.580   2.704   1.565
  928SOL    HW2 3742   3.566   2.690   1.659
  928SOL    HW3 3743   3.494   2.731   1.532
  928SOL    MW4 3744   3.567   2.706   1.573
  929SOL     OW 3745   3.795   2.839   1.451
  929SOL    HW2 3746   3.871   2.795   1.490
  929SOL    HW3 3747   3.719   2.794   1.490
  929SOL    MW4 3748   3.795   2.827   1.461
  930SOL     OW 3749   3.819   3.075   1.583
  930SOL    HW2 3750   3.902   3.116   1.557
  930SOL    HW3 3751   3.822   2.988   1.543
  930SOL    MW4 3752   3.831   3.069   1.575
  931SOL     OW 3753   3.586   3.207   1.493
  931SOL    HW2 3754   3.667   3.159   1.506
  931SOL    HW3 3755   3.575   3.213   1.398
  931SOL    MW4 3756   3.595   3.202   1.482
  932SOL     OW 3757   3.572   3.480   1.556
  932SOL    HW2 3758   3.657   3.517   1.531
  932SOL    HW3 3759   3.576   3.389   1.528
  932SOL    MW4 3760   3.584   3.473   1.549
  933SOL     OW 3761   3.828   3.587   1.512
  933SOL    HW2 3762   3.892   3.542   1.567
  933SOL    HW3 3763   3.827   3.677   1.544
  933SOL    MW4 3764   3.836   3.593   1.523
  934SOL     OW 3765   3.818   3.846   1.600
  934SOL    HW2 3766   3.894   3.899   1.578
  934SOL    HW3 3767   3.752   3.871   1.536
  934SOL    MW4 3768   3.819   3.856   1.589
  935SOL     OW 3769   3.603   3.947   1.460
  935SOL    HW2 3770   3.600   4.036   1.496
  935SOL    HW3 3771   3.531   3.902   1.504
  935SOL    MW4 3772   3.593   3.953   1.471
  936SOL     OW 3773   3.589   4.213   1.590
  936SOL    HW2 3774   3.589   4.203   1.685
  936SOL    HW3 3775   3.536   4.292   1.575
  936SOL    MW4 3776   3.582   4.222   1.601
  937SOL     OW 3777   3.763   4.378   1.470
  937SOL    HW2 3778   3.714   4.307   1.512
  937SOL    HW3 3779   3.752   4.453   1.528
  937SOL    MW4 3780   3.755   4.379   1.483
  938SOL     OW 3781   4.224   4.620   1.601
  938SOL    HW2 3782   4.243   4.620   1.695
  938SOL    HW3 3783   4.233   4.529   1.574
  938SOL    MW4 3784   4.228   4.608   1.610
  939SOL     OW 3785   4.000   0.077   1.508
  939SOL    HW2 3786   4.012   0.169   1.535
  939SOL    HW3 3787   4.080   0.033   1.536
  939SOL    MW4 3788   4.012   0.084   1.515
  940SOL     OW 3789   4.068   0.327   1.593
  940SOL    HW2 3790   4.060   0.333   1.688
  940SOL    HW3 3791   4.010   0.396   1.560
  940SOL    MW4 3792   4.059   0.337   1.601
  941SOL     OW 3793   4.265   0.493   1.527
  941SOL    HW2 3794   4.202   0.421   1.537
  941SOL    HW3 3795   4.338   0.469   1.584
  941SOL    MW4 3796   4.266   0.480   1.536
  942SOL     OW 3797   4.256   0.793   1.580
  942SOL    HW2 3798   4.257   0.705   1.542
  942SOL    HW3 3799   4.339   0.832   1.552
  942SOL    MW4 3800   4.267   0.787   1.571
  943SOL     OW 3801   4.009   0.901   1.479
  943SOL    HW2 3802   4.089   0.871   1.521
  943SOL    HW3 3803   3.940   0.847   1.517
  943SOL    MW4 3804   4.010   0.890   1.489
  944SOL     OW 3805   4.022   1.170   1.555
  944SOL    HW2 3806   4.037   1.170   1.649
  944SOL    HW3 3807   4.032   1.078   1.529
  944SOL    MW4 3808   4.025   1.158   1.564
  945SOL     OW 3809   4.243   1.293   1.422
  945SOL    HW2 3810   4.167   1.254   1.465
  945SOL    HW3 3811   4.318   1.242   1.455
  945SOL    MW4 3812   4.243   1.281   1.432
  946SOL     OW 3813   4.246   1.504   1.606
  946SOL    HW2 3814   4.253   1.434   1.541
  946SOL    HW3 3815   4.321   1.561   1.588
  946SOL    MW4 3816   4.257   1.502   1.595
  947SOL     OW 3817   4.044   1.633   1.484
  947SOL    HW2 3818   4.104   1.578   1.535
  947SOL    HW3 3819   3.957   1.604   1.510
  947SOL    MW4 3820   4.041   1.622   1.494
  948SOL     OW 3821   4.101   1.903   1.561
  948SOL    HW2 3822   4.096   1.811   1.539
  948SOL    HW3 3823   4.010   1.934   1.560
  948SOL    MW4 3824   4.088   1.895   1.558
  949SOL     OW 3825   4.243   2.098   1.439
  949SOL    HW2 3826   4.195   2.024   1.476
  949SOL    HW3 3827   4.245   2.080   1.345
  949SOL    MW4 3828   4.237   2.086   1.431
  950SOL     OW 3829   4.261   2.344   1.597
  950SOL    HW2 3830   4.272   2.315   1.688
  950SOL    HW3 3831   4.245   2.264   1.548
  950SOL    MW4 3832   4.260   2.330   1.603
  951SOL     OW 3833   4.006   2.473   1.537
  951SOL    HW2 3834   4.022   2.566   1.551
  951SOL    HW3 3835   4.088   2.430   1.563
  951SOL    MW4 3836   4.019   2.479   1.542
  952SOL     OW 3837   4.018   2.749   1.595
  952SOL    HW2 3838   4.010   2.728   1.688
  952SOL    HW3 3839   4.109   2.779   1.586
  952SOL    MW4 3840   4.029   2.750   1.606
  953SOL     OW 3841   4.304   2.841   1.523
  953SOL    HW2 3842   4.318   2.932   1.551
  953SOL    HW3 3843   4.307   2.845   1.428
  953SOL    MW4 3844   4.306   2.854   1.514
  954SOL     OW 3845   4.312   3.099   1.589
  954SOL    HW2 3846   4.314   3.077   1.682
  954SOL    HW3 3847   4.397   3.139   1.571
  954SOL    MW4 3848   4.323   3.101   1.599
  955SOL     OW 3849   4.060   3.183   1.507
  955SOL    HW2 3850   4.058   3.275   1.533
  955SOL    HW3 3851   4.136   3.147   1.552
  955SOL    MW4 3852   4.069   3.191   1.516
  956SOL     OW 3853   4.042   3.433   1.633
  956SOL    HW2 3854   4.046   3.451   1.727
  956SOL    HW3 3855   4.108   3.490   1.595
  956SOL    MW4 3856   4.051   3.443   1.641
  957SOL     OW 3857   4.262   3.571   1.506
  957SOL    HW2 3858   4.255   3.662   1.535
  957SOL    HW3 3859   4.278   3.578   1.412
  957SOL    MW4 3860   4.263   3.584   1.497
  958SOL     OW 3861   4.253   3.826   1.599
  958SOL    HW2 3862   4.172   3.868   1.568
  958SOL    HW3 3863   4.323   3.874   1.556
  958SOL    MW4 3864   4.252   3.838   1.589
  959SOL     OW 3865   4.045   4.004   1.492
  959SOL    HW2 3866   4.025   4.089   1.533
  959SOL    HW3 3867   4.044   4.022   1.398
  959SOL    MW4 3868   4.042   4.018   1.485
  960SOL     OW 3869   3.992   4.261   1.583
  960SOL    HW2 3870   3.989   4.265   1.678
  960SOL    HW3 3871   3.923   4.321   1.555
  960SOL    MW4 3872   3.982   4.270   1.592
  961SOL     OW 3873   4.228   4.357   1.486
  961SOL    HW2 3874   4.143   4.318   1.508
  961SOL    HW3 3875   4.230   4.358   1.391
  961SOL    MW4 3876   4.217   4.352   1.477
  962SOL     OW 3877   0.215   4.661   1.904
  962SOL    HW2 3878   0.278   4.729   1.930
  962SOL    HW3 3879   0.213   4.666   1.808
  962SOL    MW4 3880   0.223   4.671   1.895
  963SOL     OW 3881   4.469   0.085   1.994
  963SOL    HW2 3882   4.464   0.177   1.967
  963SOL    HW3 3883   4.558   0.058   1.970
  963SOL    MW4 3884   4.480   0.094   1.988
  964SOL     OW 3885   4.462   0.339   1.915
  964SOL    HW2 3886   4.385   0.373   1.960
  964SOL    HW3 3887   4.536   0.386   1.954
  964SOL    MW4 3888   4.462   0.349   1.926
  965SOL     OW 3889   0.179   0.495   2.030
  965SOL    HW2 3890   0.255   0.453   1.990
  965SOL    HW3 3891   0.171   0.579   1.986
  965SOL    MW4 3892   0.188   0.500   2.019
  966SOL     OW 3893   0.219   0.733   1.901
  966SOL    HW2 3894   0.304   0.766   1.928
  966SOL    HW3 3895   0.222   0.734   1.805
  966SOL    MW4 3896   0.230   0.737   1.892
  967SOL     OW 3897   4.487   0.919   1.997
  967SOL    HW2 3898   4.413   0.858   1.996
  967SOL    HW3 3899   4.564   0.863   1.984
  967SOL    MW4 3900   4.487   0.903   1.995
  968SOL     OW 3901   4.444   1.155   1.846
  968SOL    HW2 3902   4.369   1.200   1.884
  968SOL    HW3 3903   4.449   1.072   1.894
  968SOL    MW4 3904   4.435   1.150   1.857
  969SOL     OW 3905   0.178   1.278   1.946
  969SOL    HW2 3906   0.165   1.367   1.913
  969SOL    HW3 3907   0.104   1.228   1.910
  969SOL    MW4 3908   0.166   1.283   1.937
  970SOL     OW 3909   0.191   1.543   1.856
  970SOL    HW2 3910   0.270   1.589   1.884
  970SOL    HW3 3911   0.119   1.594   1.893
  970SOL    MW4 3912   0.192   1.556   1.864
  971SOL     OW 3913   4.476   1.689   1.949
  971SOL    HW2 3914   4.477   1.696   2.044
  971SOL    HW3 3915   4.407   1.625   1.930
  971SOL    MW4 3916   4.467   1.681   1.959
  972SOL     OW 3917   4.466   1.941   1.834
  972SOL    HW2 3918   4.399   1.970   1.896
  972SOL    HW3 3919   4.472   1.846   1.848
  972SOL    MW4 3920   4.458   1.932   1.844
  973SOL     OW 3921   0.195   2.037   1.966
  973SOL    HW2 3922   0.206   2.121   1.922
  973SOL    HW3 3923   0.112   2.003   1.933
  973SOL    MW4 3924   0.185   2.044   1.956
  974SOL     OW 3925   0.236   2.269   1.842
  974SOL    HW2 3926   0.314   2.313   1.877
  974SOL    HW3 3927   0.163   2.305   1.892
  974SOL    MW4 3928   0.237   2.279   1.853
  975SOL     OW 3929   0.039   2.410   1.966
  975SOL    HW2 3930   0.063   2.430   2.056
  975SOL    HW3 3931   0.051   2.492   1.919
  975SOL    MW4 3932   0.044   2.423   1.972
  976SOL     OW 3933   0.076   2.678   1.853
  976SOL    HW2 3934  -0.004   2.726   1.874
  976SOL    HW3 3935   0.078   2.676   1.757
  976SOL    MW4 3936   0.066   2.684   1.843
  977SOL     OW 3937   0.237   2.840   1.996
  977SOL    HW2 3938   0.228   2.924   1.951
  977SOL    HW3 3939   0.197   2.776   1.937
  977SOL    MW4 3940   0.230   2.843   1.982
  978SOL     OW 3941   0.231   3.098   1.860
  978SOL    HW2 3942   0.310   3.142   1.890
  978SOL    HW3 3943   0.246   3.083   1.767
  978SOL    MW4 3944   0.243   3.102   1.852
  979SOL     OW 3945   0.003   3.223   2.003
  979SOL    HW2 3946  -0.071   3.190   1.951
  979SOL    HW3 3947   0.079   3.173   1.971
  979SOL    MW4 3948   0.003   3.212   1.992
  980SOL     OW 3949   4.471   3.495   1.916
  980SOL    HW2 3950   4.553   3.539   1.936
  980SOL    HW3 3951   4.484   3.406   1.949
  980SOL    MW4 3952   4.483   3.489   1.923
  981SOL     OW 3953   0.202   3.638   1.984
  981SOL    HW2 3954   0.199   3.642   2.080
  981SOL    HW3 3955   0.279   3.583   1.965
  981SOL    MW4 3956   0.212   3.631   1.994
  982SOL     OW 3957   0.233   3.896   1.850
  982SOL    HW2 3958   0.305   3.937   1.898
  982SOL    HW3 3959   0.222   3.810   1.891
  982SOL    MW4 3960   0.241   3.890   1.862
  983SOL     OW 3961   4.486   4.037   1.970
  983SOL    HW2 3962   4.489   4.127   1.938
  983SOL    HW3 3963   4.549   3.989   1.916
  983SOL    MW4 3964   4.495   4.042   1.959
  984SOL     OW 3965   4.469   4.299   1.861
  984SOL    HW2 3966   4.395   4.324   1.916
  984SOL    HW3 3967   4.546   4.328   1.911
  984SOL    MW4 3968   4.470   4.306   1.875
  985SOL     OW 3969   0.202   4.390   1.995
  985SOL    HW2 3970   0.195   4.382   2.091
  985SOL    HW3 3971   0.249   4.472   1.981
  985SOL    MW4 3972   0.207   4.400   2.006
  986SOL     OW 3973   0.633   4.633   1.910
  986SOL    HW2 3974   0.610   4.543   1.930
  986SOL    HW3 3975   0.625   4.639   1.814
  986SOL    MW4 3976   0.629   4.622   1.900
  987SOL     OW 3977   0.408   0.158   1.988
  987SOL    HW2 3978   0.419   0.248   1.957
  987SOL    HW3 3979   0.484   0.111   1.954
  987SOL    MW4 3980   0.419   0.164   1.980
  988SOL     OW 3981   0.425   0.413   1.900
  988SOL    HW2 3982   0.508   0.453   1.927
  988SOL    HW3 3983   0.437   0.393   1.807
  988SOL    MW4 3984   0.437   0.416   1.891
  989SOL     OW 3985   0.654   0.496   1.991
  989SOL    HW2 3986   0.654   0.486   2.086
  989SOL    HW3 3987   0.730   0.446   1.961
  989SOL    MW4 3988   0.664   0.488   2.000
  990SOL     OW 3989   0.686   0.737   1.873
  990SOL    HW2 3990   0.752   0.783   1.924
  990SOL    HW3 3991   0.669   0.657   1.923
  990SOL    MW4 3992   0.692   0.732   1.887
  991SOL     OW 3993   0.443   0.854   1.962
  991SOL    HW2 3994   0.445   0.948   1.945
  991SOL    HW3 3995   0.529   0.823   1.932
  991SOL    MW4 3996   0.455   0.862   1.955
  992SOL     OW 3997   0.403   1.144   1.886
  992SOL    HW2 3998   0.329   1.196   1.916
  992SOL    HW3 3999   0.394   1.142   1.790
  992SOL    MW4 4000   0.392   1.150   1.877
  993SOL     OW 4001   0.636   1.290   1.940
  993SOL    HW2 4002   0.627   1.288   2.035
  993SOL    HW3 4003   0.547   1.277   1.907
  993SOL    MW4 4004   0.623   1.288   1.948
  994SOL     OW 4005   0.679   1.537   1.832
  994SOL    HW2 4006   0.685   1.448   1.865
  994SOL    HW3 4007   0.665   1.527   1.737
  994SOL    MW4 4008   0.678   1.524   1.824
  995SOL     OW 4009   0.431   1.651   1.954
  995SOL    HW2 4010   0.426   1.644   2.050
  995SOL    HW3 4011   0.516   1.611   1.932
  995SOL    MW4 4012   0.442   1.645   1.964
  996SOL     OW 4013   0.430   1.917   1.891
  996SOL    HW2 4014   0.435   1.822   1.900
  996SOL    HW3 4015   0.346   1.940   1.931
  996SOL    MW4 4016   0.419   1.907   1.897
  997SOL     OW 4017   0.646   2.062   1.926
  997SOL    HW2 4018   0.666   2.070   2.020
  997SOL    HW3 4019   0.568   2.007   1.923
  997SOL    MW4 4020   0.639   2.056   1.938
  998SOL     OW 4021   0.693   2.349   1.861
  998SOL    HW2 4022   0.680   2.254   1.865
  998SOL    HW3 4023   0.671   2.372   1.770
  998SOL    MW4 4024   0.688   2.340   1.849
  999SOL     OW 4025   0.452   2.438   1.956
  999SOL    HW2 4026   0.462   2.433   2.051
  999SOL    HW3 4027   0.539   2.417   1.922
  999SOL    MW4 4028   0.464   2.435   1.964
 1000SOL     OW 4029   0.448   2.698   1.889
 1000SOL    HW2 4030   0.436   2.607   1.917
 1000SOL    HW3 4031   0.382   2.747   1.937
 1000SOL    MW4 4032   0.438   2.693   1.899
 1001SOL     OW 4033   0.684   2.825   1.961
 1001SOL    HW2 4034   0.668   2.836   2.055
 1001SOL    HW3 4035   0.609   2.774   1.931
 1001SOL    MW4 4036   0.672   2.820   1.970
 1002SOL     OW 4037   0.659   3.090   1.900
 1002SOL    HW2 4038   0.677   3.001   1.930
 1002SOL    HW3 4039   0.668   3.085   1.805
 1002SOL    MW4 4040   0.662   3.077   1.891
 1003SOL     OW 4041   0.423   3.225   1.988
 1003SOL    HW2 4042   0.422   3.317   1.961
 1003SOL    HW3 4043   0.508   3.193   1.960
 1003SOL    MW4 4044   0.434   3.233   1.981
 1004SOL     OW 4045   0.422   3.489   1.909
 1004SOL    HW2 4046   0.501   3.531   1.942
 1004SOL    HW3 4047   0.428   3.499   1.814
 1004SOL    MW4 4048   0.433   3.496   1.900
 1005SOL     OW 4049   0.650   3.620   1.972
 1005SOL    HW2 4050   0.731   3.578   1.942
 1005SOL    HW3 4051   0.655   3.709   1.937
 1005SOL    MW4 4052   0.661   3.626   1.963
 1006SOL     OW 4053   0.673   3.879   1.870
 1006SOL    HW2 4054   0.756   3.911   1.904
 1006SOL    HW3 4055   0.675   3.902   1.777
 1006SOL    MW4 4056   0.684   3.886   1.862
 1007SOL     OW 4057   0.462   3.971   2.018
 1007SOL    HW2 4058   0.442   4.054   1.975
 1007SOL    HW3 4059   0.545   3.943   1.978
 1007SOL    MW4 4060   0.470   3.978   2.007
 1008SOL     OW 4061   0.392   4.221   1.900
 1008SOL    HW2 4062   0.330   4.280   1.942
 1008SOL    HW3 4063   0.401   4.255   1.811
 1008SOL    MW4 4064   0.385   4.234   1.894
 1009SOL     OW 4065   0.632   4.345   1.993
 1009SOL    HW2 4066   0.711   4.308   1.955
 1009SOL    HW3 4067   0.561   4.288   1.962
 1009SOL    MW4 4068   0.633   4.333   1.984
 1010SOL     OW 4069   1.079   4.634   1.858
 1010SOL    HW2 4070   1.158   4.676   1.894
 1010SOL    HW3 4071   1.084   4.543   1.889
 1010SOL    MW4 4072   1.090   4.627   1.867
 1011SOL     OW 4073   0.871   0.095   1.976
 1011SOL    HW2 4074   0.934   0.036   1.935
 1011SOL    HW3 4075   0.786   0.063   1.947
 1011SOL    MW4 4076   0.868   0.083   1.967
 1012SOL     OW 4077   0.864   0.364   1.901
 1012SOL    HW2 4078   0.949   0.401   1.927
 1012SOL    HW3 4079   0.862   0.277   1.941
 1012SOL    MW4 4080   0.875   0.357   1.909
 1013SOL     OW 4081   1.097   0.483   1.972
 1013SOL    HW2 4082   1.185   0.453   1.949
 1013SOL    HW3 4083   1.096   0.575   1.946
 1013SOL    MW4 4084   1.109   0.491   1.966
 1014SOL     OW 4085   1.133   0.749   1.927
 1014SOL    HW2 4086   1.202   0.811   1.949
 1014SOL    HW3 4087   1.052   0.796   1.947
 1014SOL    MW4 4088   1.131   0.764   1.933
 1015SOL     OW 4089   0.899   0.885   1.997
 1015SOL    HW2 4090   0.911   0.887   2.092
 1015SOL    HW3 4091   0.890   0.978   1.973
 1015SOL    MW4 4092   0.899   0.898   2.006
 1016SOL     OW 4093   0.852   1.117   1.871
 1016SOL    HW2 4094   0.769   1.160   1.891
 1016SOL    HW3 4095   0.847   1.098   1.777
 1016SOL    MW4 4096   0.840   1.120   1.861
 1017SOL     OW 4097   1.086   1.248   1.947
 1017SOL    HW2 4098   1.084   1.340   1.920
 1017SOL    HW3 4099   1.018   1.207   1.894
 1017SOL    MW4 4100   1.076   1.255   1.936
 1018SOL     OW 4101   1.124   1.522   1.855
 1018SOL    HW2 4102   1.048   1.579   1.867
 1018SOL    HW3 4103   1.124   1.502   1.761
 1018SOL    MW4 4104   1.114   1.527   1.844
 1019SOL     OW 4105   0.890   1.683   1.939
 1019SOL    HW2 4106   0.885   1.775   1.911
 1019SOL    HW3 4107   0.806   1.646   1.913
 1019SOL    MW4 4108   0.878   1.690   1.932
 1020SOL     OW 4109   0.901   1.972   1.856
 1020SOL    HW2 4110   0.810   1.993   1.878
 1020SOL    HW3 4111   0.897   1.945   1.764
 1020SOL    MW4 4112   0.888   1.971   1.847
 1021SOL     OW 4113   1.133   2.067   1.998
 1021SOL    HW2 4114   1.137   2.155   1.961
 1021SOL    HW3 4115   1.055   2.028   1.958
 1021SOL    MW4 4116   1.123   2.073   1.987
 1022SOL     OW 4117   1.148   2.308   1.856
 1022SOL    HW2 4118   1.227   2.351   1.889
 1022SOL    HW3 4119   1.156   2.313   1.761
 1022SOL    MW4 4120   1.159   2.314   1.848
 1023SOL     OW 4121   0.920   2.435   1.995
 1023SOL    HW2 4122   0.996   2.393   1.956
 1023SOL    HW3 4123   0.846   2.404   1.943
 1023SOL    MW4 4124   0.920   2.425   1.983
 1024SOL     OW 4125   0.913   2.677   1.899
 1024SOL    HW2 4126   0.909   2.587   1.930
 1024SOL    HW3 4127   0.841   2.721   1.946
 1024SOL    MW4 4128   0.903   2.671   1.910
 1025SOL     OW 4129   1.108   2.844   2.003
 1025SOL    HW2 4130   1.099   2.842   2.098
 1025SOL    HW3 4131   1.036   2.791   1.970
 1025SOL    MW4 4132   1.098   2.836   2.011
 1026SOL     OW 4133   1.110   3.084   1.892
 1026SOL    HW2 4134   1.026   3.123   1.918
 1026SOL    HW3 4135   1.112   3.000   1.938
 1026SOL    MW4 4136   1.099   3.078   1.901
 1027SOL     OW 4137   0.886   3.209   1.978
 1027SOL    HW2 4138   0.901   3.188   2.070
 1027SOL    HW3 4139   0.804   3.164   1.957
 1027SOL    MW4 4140   0.877   3.200   1.988
 1028SOL     OW 4141   0.884   3.497   1.888
 1028SOL    HW2 4142   0.881   3.405   1.914
 1028SOL    HW3 4143   0.887   3.494   1.793
 1028SOL    MW4 4144   0.884   3.484   1.879
 1029SOL     OW 4145   1.116   3.639   1.971
 1029SOL    HW2 4146   1.112   3.637   2.067
 1029SOL    HW3 4147   1.035   3.595   1.943
 1029SOL    MW4 4148   1.105   3.633   1.980
 1030SOL     OW 4149   1.143   3.876   1.848
 1030SOL    HW2 4150   1.135   3.789   1.886
 1030SOL    HW3 4151   1.137   3.862   1.754
 1030SOL    MW4 4152   1.141   3.863   1.841
 1031SOL     OW 4153   0.908   3.966   1.960
 1031SOL    HW2 4154   0.921   3.969   2.055
 1031SOL    HW3 4155   0.996   3.957   1.924
 1031SOL    MW4 4156   0.921   3.965   1.968
 1032SOL     OW 4157   0.849   4.226   1.877
 1032SOL    HW2 4158   0.917   4.274   1.923
 1032SOL    HW3 4159   0.866   4.134   1.897
 1032SOL    MW4 4160   0.860   4.220   1.886
 1033SOL     OW 4161   1.074   4.375   1.960
 1033SOL    HW2 4162   1.074   4.362   2.055
 1033SOL    HW3 4163   1.160   4.346   1.931
 1033SOL    MW4 4164   1.085   4.370   1.969
 1034SOL     OW 4165   1.546   4.663   1.892
 1034SOL    HW2 4166   1.635   4.692   1.913
 1034SOL    HW3 4167   1.546   4.569   1.914
 1034SOL    MW4 4168   1.558   4.654   1.898
 1035SOL     OW 4169   1.294   0.103   1.951
 1035SOL    HW2 4170   1.305   0.108   2.046
 1035SOL    HW3 4171   1.377   0.066   1.919
 1035SOL    MW4 4172   1.306   0.099   1.959
 1036SOL     OW 4173   1.348   0.374   1.882
 1036SOL    HW2 4174   1.340   0.278   1.883
 1036SOL    HW3 4175   1.341   0.398   1.790
 1036SOL    MW4 4176   1.346   0.364   1.870
 1037SOL     OW 4177   1.565   0.500   2.000
 1037SOL    HW2 4178   1.636   0.461   1.950
 1037SOL    HW3 4179   1.486   0.457   1.966
 1037SOL    MW4 4180   1.564   0.489   1.989
 1038SOL     OW 4181   1.560   0.771   1.954
 1038SOL    HW2 4182   1.648   0.798   1.979
 1038SOL    HW3 4183   1.553   0.680   1.984
 1038SOL    MW4 4184   1.570   0.763   1.961
 1039SOL     OW 4185   1.328   0.915   2.036
 1039SOL    HW2 4186   1.325   0.918   2.131
 1039SOL    HW3 4187   1.408   0.867   2.016
 1039SOL    MW4 4188   1.338   0.909   2.046
 1040SOL     OW 4189   1.319   1.114   1.837
 1040SOL    HW2 4190   1.330   1.043   1.900
 1040SOL    HW3 4191   1.235   1.154   1.859
 1040SOL    MW4 4192   1.309   1.110   1.848
 1041SOL     OW 4193   1.540   1.226   1.968
 1041SOL    HW2 4194   1.545   1.321   1.968
 1041SOL    HW3 4195   1.466   1.206   1.911
 1041SOL    MW4 4196   1.531   1.236   1.960
 1042SOL     OW 4197   1.550   1.504   1.905
 1042SOL    HW2 4198   1.612   1.571   1.933
 1042SOL    HW3 4199   1.464   1.545   1.912
 1042SOL    MW4 4200   1.547   1.518   1.910
 1043SOL     OW 4201   1.333   1.661   1.958
 1043SOL    HW2 4202   1.314   1.652   2.051
 1043SOL    HW3 4203   1.271   1.602   1.915
 1043SOL    MW4 4204   1.323   1.652   1.965
 1044SOL     OW 4205   1.351   1.922   1.896
 1044SOL    HW2 4206   1.331   1.836   1.934
 1044SOL    HW3 4207   1.289   1.981   1.939
 1044SOL    MW4 4208   1.340   1.918   1.907
 1045SOL     OW 4209   1.595   2.058   1.946
 1045SOL    HW2 4210   1.573   2.151   1.941
 1045SOL    HW3 4211   1.512   2.014   1.928
 1045SOL    MW4 4212   1.581   2.064   1.943
 1046SOL     OW 4213   1.584   2.340   1.913
 1046SOL    HW2 4214   1.666   2.385   1.936
 1046SOL    HW3 4215   1.584   2.339   1.817
 1046SOL    MW4 4216   1.595   2.346   1.903
 1047SOL     OW 4217   1.340   2.458   1.982
 1047SOL    HW2 4218   1.332   2.544   1.941
 1047SOL    HW3 4219   1.426   2.426   1.955
 1047SOL    MW4 4220   1.350   2.465   1.973
 1048SOL     OW 4221   1.330   2.715   1.855
 1048SOL    HW2 4222   1.241   2.736   1.884
 1048SOL    HW3 4223   1.323   2.711   1.759
 1048SOL    MW4 4224   1.317   2.717   1.846
 1049SOL     OW 4225   1.558   2.869   1.949
 1049SOL    HW2 4226   1.640   2.826   1.927
 1049SOL    HW3 4227   1.492   2.800   1.940
 1049SOL    MW4 4228   1.560   2.854   1.945
 1050SOL     OW 4229   1.543   3.130   1.877
 1050SOL    HW2 4230   1.543   3.039   1.905
 1050SOL    HW3 4231   1.529   3.126   1.782
 1050SOL    MW4 4232   1.541   3.118   1.868
 1051SOL     OW 4233   1.313   3.246   1.966
 1051SOL    HW2 4234   1.396   3.206   1.940
 1051SOL    HW3 4235   1.247   3.182   1.939
 1051SOL    MW4 4236   1.315   3.232   1.959
 1052SOL     OW 4237   1.341   3.510   1.887
 1052SOL    HW2 4238   1.326   3.423   1.924
 1052SOL    HW3 4239   1.264   3.561   1.912
 1052SOL    MW4 4240   1.329   3.506   1.895
 1053SOL     OW 4241   1.548   3.643   2.003
 1053SOL    HW2 4242   1.546   3.624   2.096
 1053SOL    HW3 4243   1.472   3.596   1.967
 1053SOL    MW4 4244   1.538   3.634   2.010
 1054SOL     OW 4245   1.599   3.903   1.893
 1054SOL    HW2 4246   1.682   3.940   1.921
 1054SOL    HW3 4247   1.587   3.826   1.949
 1054SOL    MW4 4248   1.608   3.897   1.904
 1055SOL     OW 4249   1.353   4.022   1.956
 1055SOL    HW2 4250   1.434   3.975   1.935
 1055SOL    HW3 4251   1.283   3.963   1.927
 1055SOL    MW4 4252   1.355   4.008   1.949
 1056SOL     OW 4253   1.304   4.276   1.852
 1056SOL    HW2 4254   1.315   4.187   1.885
 1056SOL    HW3 4255   1.313   4.268   1.757
 1056SOL    MW4 4256   1.306   4.263   1.844
 1057SOL     OW 4257   1.528   4.393   1.945
 1057SOL    HW2 4258   1.519   4.376   2.039
 1057SOL    HW3 4259   1.458   4.344   1.904
 1057SOL    MW4 4260   1.518   4.384   1.952
 1058SOL     OW 4261   2.036   4.666   1.877
 1058SOL    HW2 4262   2.120   4.691   1.917
 1058SOL    HW3 4263   2.020   4.577   1.908
 1058SOL    MW4 4264   2.045   4.658   1.886
 1059SOL     OW 4265   1.788   0.089   1.943
 1059SOL    HW2 4266   1.779   0.082   2.038
 1059SOL    HW3 4267   1.881   0.073   1.926
 1059SOL    MW4 4268   1.799   0.086   1.954
 1060SOL     OW 4269   1.793   0.376   1.876
 1060SOL    HW2 4270   1.768   0.288   1.902
 1060SOL    HW3 4271   1.776   0.379   1.782
 1060SOL    MW4 4272   1.788   0.365   1.867
 1061SOL     OW 4273   2.037   0.492   1.938
 1061SOL    HW2 4274   2.012   0.582   1.920
 1061SOL    HW3 4275   1.960   0.440   1.914
 1061SOL    MW4 4276   2.023   0.497   1.933
 1062SOL     OW 4277   2.010   0.760   1.852
 1062SOL    HW2 4278   2.095   0.796   1.878
 1062SOL    HW3 4279   2.004   0.777   1.758
 1062SOL    MW4 4280   2.020   0.767   1.843
 1063SOL     OW 4281   1.809   0.909   1.986
 1063SOL    HW2 4282   1.807   0.998   1.950
 1063SOL    HW3 4283   1.884   0.867   1.942
 1063SOL    MW4 4284   1.819   0.915   1.975
 1064SOL     OW 4285   1.797   1.170   1.888
 1064SOL    HW2 4286   1.707   1.180   1.918
 1064SOL    HW3 4287   1.795   1.194   1.795
 1064SOL    MW4 4288   1.785   1.174   1.880
 1065SOL     OW 4289   2.043   1.274   1.965
 1065SOL    HW2 4290   2.118   1.235   1.919
 1065SOL    HW3 4291   1.967   1.233   1.924
 1065SOL    MW4 4292   2.043   1.263   1.953
 1066SOL     OW 4293   2.035   1.550   1.894
 1066SOL    HW2 4294   2.038   1.455   1.910
 1066SOL    HW3 4295   2.037   1.558   1.799
 1066SOL    MW4 4296   2.036   1.538   1.884
 1067SOL     OW 4297   1.796   1.682   1.967
 1067SOL    HW2 4298   1.810   1.766   1.923
 1067SOL    HW3 4299   1.877   1.633   1.951
 1067SOL    MW4 4300   1.809   1.687   1.959
 1068SOL     OW 4301   1.837   1.935   1.863
 1068SOL    HW2 4302   1.764   1.976   1.910
 1068SOL    HW3 4303   1.818   1.951   1.771
 1068SOL    MW4 4304   1.825   1.942   1.857
 1069SOL     OW 4305   2.057   2.057   1.999
 1069SOL    HW2 4306   2.130   2.049   1.937
 1069SOL    HW3 4307   1.985   2.010   1.957
 1069SOL    MW4 4308   2.057   2.050   1.985
 1070SOL     OW 4309   2.079   2.338   1.890
 1070SOL    HW2 4310   2.164   2.374   1.917
 1070SOL    HW3 4311   2.082   2.247   1.921
 1070SOL    MW4 4312   2.091   2.331   1.898
 1071SOL     OW 4313   1.836   2.448   1.967
 1071SOL    HW2 4314   1.835   2.452   2.063
 1071SOL    HW3 4315   1.919   2.405   1.946
 1071SOL    MW4 4316   1.847   2.443   1.977
 1072SOL     OW 4317   1.786   2.720   1.913
 1072SOL    HW2 4318   1.806   2.628   1.932
 1072SOL    HW3 4319   1.777   2.723   1.817
 1072SOL    MW4 4320   1.788   2.708   1.903
 1073SOL     OW 4321   2.027   2.797   2.020
 1073SOL    HW2 4322   2.008   2.796   2.114
 1073SOL    HW3 4323   1.944   2.774   1.978
 1073SOL    MW4 4324   2.013   2.794   2.027
 1074SOL     OW 4325   1.987   3.047   1.877
 1074SOL    HW2 4326   1.911   3.090   1.916
 1074SOL    HW3 4327   2.009   2.977   1.939
 1074SOL    MW4 4328   1.980   3.043   1.890
 1075SOL     OW 4329   1.792   3.229   1.960
 1075SOL    HW2 4330   1.802   3.233   2.055
 1075SOL    HW3 4331   1.701   3.201   1.946
 1075SOL    MW4 4332   1.781   3.226   1.971
 1076SOL     OW 4333   1.769   3.518   1.865
 1076SOL    HW2 4334   1.761   3.424   1.883
 1076SOL    HW3 4335   1.703   3.559   1.920
 1076SOL    MW4 4336   1.760   3.511   1.874
 1077SOL     OW 4337   2.028   3.608   1.948
 1077SOL    HW2 4338   2.028   3.696   1.911
 1077SOL    HW3 4339   1.938   3.577   1.935
 1077SOL    MW4 4340   2.016   3.615   1.941
 1078SOL     OW 4341   2.034   3.852   1.847
 1078SOL    HW2 4342   2.118   3.890   1.875
 1078SOL    HW3 4343   2.029   3.872   1.754
 1078SOL    MW4 4344   2.045   3.860   1.838
 1079SOL     OW 4345   1.839   4.009   1.982
 1079SOL    HW2 4346   1.805   4.090   1.945
 1079SOL    HW3 4347   1.901   3.976   1.917
 1079SOL    MW4 4348   1.843   4.015   1.969
 1080SOL     OW 4349   1.758   4.255   1.871
 1080SOL    HW2 4350   1.673   4.295   1.892
 1080SOL    HW3 4351   1.768   4.268   1.777
 1080SOL    MW4 4352   1.748   4.262   1.862
 1081SOL     OW 4353   1.999   4.400   1.949
 1081SOL    HW2 4354   2.062   4.351   1.896
 1081SOL    HW3 4355   1.915   4.358   1.931
 1081SOL    MW4 4356   1.996   4.388   1.939
 1082SOL     OW 4357   2.512   4.648   1.840
 1082SOL    HW2 4358   2.579   4.684   1.898
 1082SOL    HW3 4359   2.491   4.563   1.878
 1082SOL    MW4 4360   2.518   4.642   1.853
 1083SOL     OW 4361   2.284   0.091   1.938
 1083SOL    HW2 4362   2.283   0.100   2.034
 1083SOL    HW3 4363   2.370   0.052   1.920
 1083SOL    MW4 4364   2.295   0.087   1.948
 1084SOL     OW 4365   2.267   0.362   1.866
 1084SOL    HW2 4366   2.271   0.272   1.898
 1084SOL    HW3 4367   2.182   0.395   1.896
 1084SOL    MW4 4368   2.257   0.355   1.874
 1085SOL     OW 4369   2.480   0.518   1.941
 1085SOL    HW2 4370   2.550   0.459   1.913
 1085SOL    HW3 4371   2.399   0.474   1.915
 1085SOL    MW4 4372   2.479   0.505   1.934
 1086SOL     OW 4373   2.468   0.789   1.896
 1086SOL    HW2 4374   2.474   0.695   1.910
 1086SOL    HW3 4375   2.460   0.799   1.801
 1086SOL    MW4 4376   2.468   0.778   1.886
 1087SOL     OW 4377   2.215   0.896   1.966
 1087SOL    HW2 4378   2.209   0.891   2.061
 1087SOL    HW3 4379   2.303   0.864   1.945
 1087SOL    MW4 4380   2.226   0.891   1.976
 1088SOL     OW 4381   2.236   1.134   1.830
 1088SOL    HW2 4382   2.307   1.188   1.864
 1088SOL    HW3 4383   2.236   1.056   1.886
 1088SOL    MW4 4384   2.246   1.131   1.842
 1089SOL     OW 4385   2.425   1.288   1.974
 1089SOL    HW2 4386   2.420   1.300   2.069
 1089SOL    HW3 4387   2.415   1.376   1.938
 1089SOL    MW4 4388   2.423   1.301   1.982
 1090SOL     OW 4389   2.442   1.545   1.869
 1090SOL    HW2 4390   2.382   1.610   1.904
 1090SOL    HW3 4391   2.417   1.537   1.777
 1090SOL    MW4 4392   2.431   1.552   1.861
 1091SOL     OW 4393   2.250   1.707   1.948
 1091SOL    HW2 4394   2.254   1.718   2.043
 1091SOL    HW3 4395   2.179   1.644   1.934
 1091SOL    MW4 4396   2.241   1.700   1.959
 1092SOL     OW 4397   2.295   1.967   1.856
 1092SOL    HW2 4398   2.375   2.004   1.894
 1092SOL    HW3 4399   2.286   1.882   1.898
 1092SOL    MW4 4400   2.304   1.961   1.867
 1093SOL     OW 4401   2.525   2.102   1.962
 1093SOL    HW2 4402   2.603   2.058   1.926
 1093SOL    HW3 4403   2.521   2.186   1.916
 1093SOL    MW4 4404   2.535   2.107   1.951
 1094SOL     OW 4405   2.506   2.355   1.833
 1094SOL    HW2 4406   2.577   2.390   1.887
 1094SOL    HW3 4407   2.426   2.381   1.877
 1094SOL    MW4 4408   2.505   2.363   1.846
 1095SOL     OW 4409   2.308   2.437   1.992
 1095SOL    HW2 4410   2.311   2.442   2.087
 1095SOL    HW3 4411   2.286   2.525   1.963
 1095SOL    MW4 4412   2.306   2.449   2.001
 1096SOL     OW 4413   2.251   2.685   1.881
 1096SOL    HW2 4414   2.170   2.722   1.917
 1096SOL    HW3 4415   2.249   2.708   1.788
 1096SOL    MW4 4416   2.240   2.693   1.873
 1097SOL     OW 4417   2.479   2.826   1.996
 1097SOL    HW2 4418   2.470   2.911   1.953
 1097SOL    HW3 4419   2.404   2.775   1.966
 1097SOL    MW4 4420   2.468   2.830   1.987
 1098SOL     OW 4421   2.463   3.083   1.831
 1098SOL    HW2 4422   2.375   3.109   1.859
 1098SOL    HW3 4423   2.460   3.084   1.736
 1098SOL    MW4 4424   2.451   3.086   1.823
 1099SOL     OW 4425   2.229   3.196   1.919
 1099SOL    HW2 4426   2.238   3.204   2.014
 1099SOL    HW3 4427   2.143   3.155   1.906
 1099SOL    MW4 4428   2.219   3.192   1.930
 1100SOL     OW 4429   2.247   3.456   1.838
 1100SOL    HW2 4430   2.247   3.379   1.895
 1100SOL    HW3 4431   2.167   3.503   1.860
 1100SOL    MW4 4432   2.237   3.452   1.848
 1101SOL     OW 4433   2.453   3.605   1.947
 1101SOL    HW2 4434   2.449   3.599   2.042
 1101SOL    HW3 4435   2.377   3.556   1.916
 1101SOL    MW4 4436   2.442   3.598   1.956
 1102SOL     OW 4437   2.479   3.864   1.854
 1102SOL    HW2 4438   2.409   3.920   1.888
 1102SOL    HW3 4439   2.469   3.781   1.902
 1102SOL    MW4 4440   2.468   3.860   1.865
 1103SOL     OW 4441   2.258   4.010   1.947
 1103SOL    HW2 4442   2.255   4.019   2.043
 1103SOL    HW3 4443   2.235   4.097   1.914
 1103SOL    MW4 4444   2.254   4.022   1.955
 1104SOL     OW 4445   2.220   4.261   1.834
 1104SOL    HW2 4446   2.289   4.317   1.869
 1104SOL    HW3 4447   2.226   4.273   1.739
 1104SOL    MW4 4448   2.230   4.270   1.826
 1105SOL     OW 4449   2.420   4.394   1.976
 1105SOL    HW2 4450   2.413   4.389   2.072
 1105SOL    HW3 4451   2.507   4.359   1.957
 1105SOL    MW4 4452   2.431   4.389   1.986
 1106SOL     OW 4453   2.916   4.599   1.891
 1106SOL    HW2 4454   3.000   4.636   1.918
 1106SOL    HW3 4455   2.917   4.510   1.925
 1106SOL    MW4 4456   2.927   4.593   1.899
 1107SOL     OW 4457   2.707   0.108   2.001
 1107SOL    HW2 4458   2.699   0.113   2.096
 1107SOL    HW3 4459   2.775   0.043   1.986
 1107SOL    MW4 4460   2.715   0.100   2.011
 1108SOL     OW 4461   2.710   0.363   1.878
 1108SOL    HW2 4462   2.782   0.413   1.916
 1108SOL    HW3 4463   2.718   0.276   1.916
 1108SOL    MW4 4464   2.720   0.358   1.888
 1109SOL     OW 4465   2.920   0.514   1.995
 1109SOL    HW2 4466   2.993   0.464   1.957
 1109SOL    HW3 4467   2.926   0.600   1.953
 1109SOL    MW4 4468   2.931   0.519   1.984
 1110SOL     OW 4469   2.922   0.753   1.867
 1110SOL    HW2 4470   2.990   0.797   1.918
 1110SOL    HW3 4471   2.842   0.801   1.888
 1110SOL    MW4 4472   2.921   0.765   1.877
 1111SOL     OW 4473   2.699   0.913   1.982
 1111SOL    HW2 4474   2.692   1.003   1.950
 1111SOL    HW3 4475   2.610   0.878   1.975
 1111SOL    MW4 4476   2.686   0.920   1.977
 1112SOL     OW 4477   2.676   1.181   1.886
 1112SOL    HW2 4478   2.613   1.241   1.924
 1112SOL    HW3 4479   2.664   1.190   1.791
 1112SOL    MW4 4480   2.666   1.190   1.878
 1113SOL     OW 4481   2.926   1.270   1.929
 1113SOL    HW2 4482   2.929   1.363   1.908
 1113SOL    HW3 4483   2.839   1.242   1.902
 1113SOL    MW4 4484   2.915   1.279   1.922
 1114SOL     OW 4485   2.899   1.554   1.850
 1114SOL    HW2 4486   2.982   1.584   1.887
 1114SOL    HW3 4487   2.906   1.575   1.757
 1114SOL    MW4 4488   2.911   1.561   1.843
 1115SOL     OW 4489   2.661   1.679   1.969
 1115SOL    HW2 4490   2.742   1.639   1.936
 1115SOL    HW3 4491   2.591   1.627   1.930
 1115SOL    MW4 4492   2.662   1.667   1.959
 1116SOL     OW 4493   2.704   1.907   1.824
 1116SOL    HW2 4494   2.780   1.951   1.862
 1116SOL    HW3 4495   2.684   1.836   1.885
 1116SOL    MW4 4496   2.712   1.904   1.837
 1117SOL     OW 4497   2.890   2.072   1.940
 1117SOL    HW2 4498   2.913   2.053   2.031
 1117SOL    HW3 4499   2.958   2.029   1.888
 1117SOL    MW4 4500   2.902   2.064   1.945
 1118SOL     OW 4501   2.916   2.310   1.821
 1118SOL    HW2 4502   2.982   2.358   1.871
 1118SOL    HW3 4503   2.897   2.233   1.874
 1118SOL    MW4 4504   2.922   2.306   1.834
 1119SOL     OW 4505   2.723   2.421   1.989
 1119SOL    HW2 4506   2.720   2.511   1.957
 1119SOL    HW3 4507   2.789   2.378   1.935
 1119SOL    MW4 4508   2.731   2.427   1.978
 1120SOL     OW 4509   2.698   2.686   1.899
 1120SOL    HW2 4510   2.625   2.734   1.938
 1120SOL    HW3 4511   2.682   2.688   1.805
 1120SOL    MW4 4512   2.686   2.692   1.892
 1121SOL     OW 4513   2.950   2.810   1.960
 1121SOL    HW2 4514   2.938   2.900   1.931
 1121SOL    HW3 4515   2.868   2.766   1.937
 1121SOL    MW4 4516   2.938   2.816   1.953
 1122SOL     OW 4517   2.901   3.065   1.872
 1122SOL    HW2 4518   2.977   3.115   1.901
 1122SOL    HW3 4519   2.828   3.101   1.923
 1122SOL    MW4 4520   2.901   3.076   1.882
 1123SOL     OW 4521   2.674   3.214   1.949
 1123SOL    HW2 4522   2.684   3.304   1.918
 1123SOL    HW3 4523   2.592   3.184   1.910
 1123SOL    MW4 4524   2.665   3.221   1.940
 1124SOL     OW 4525   2.679   3.481   1.861
 1124SOL    HW2 4526   2.748   3.524   1.912
 1124SOL    HW3 4527   2.597   3.518   1.894
 1124SOL    MW4 4528   2.677   3.492   1.872
 1125SOL     OW 4529   2.888   3.624   1.996
 1125SOL    HW2 4530   2.879   3.621   2.091
 1125SOL    HW3 4531   2.970   3.577   1.978
 1125SOL    MW4 4532   2.898   3.617   2.006
 1126SOL     OW 4533   2.902   3.897   1.917
 1126SOL    HW2 4534   2.901   3.811   1.959
 1126SOL    HW3 4535   2.922   3.879   1.825
 1126SOL    MW4 4536   2.905   3.884   1.910
 1127SOL     OW 4537   2.668   4.028   1.979
 1127SOL    HW2 4538   2.748   3.979   1.958
 1127SOL    HW3 4539   2.598   3.979   1.936
 1127SOL    MW4 4540   2.669   4.015   1.971
 1128SOL     OW 4541   2.666   4.276   1.881
 1128SOL    HW2 4542   2.666   4.184   1.908
 1128SOL    HW3 4543   2.670   4.273   1.785
 1128SOL    MW4 4544   2.666   4.263   1.872
 1129SOL     OW 4545   2.898   4.346   2.008
 1129SOL    HW2 4546   2.872   4.374   2.096
 1129SOL    HW3 4547   2.816   4.322   1.966
 1129SOL    MW4 4548   2.884   4.347   2.014
 1130SOL     OW 4549   3.385   4.633   1.918
 1130SOL    HW2 4550   3.387   4.540   1.941
 1130SOL    HW3 4551   3.381   4.634   1.822
 1130SOL    MW4 4552   3.385   4.621   1.908
 1131SOL     OW 4553   3.128   0.086   1.968
 1131SOL    HW2 4554   3.120   0.108   2.061
 1131SOL    HW3 4555   3.207   0.032   1.963
 1131SOL    MW4 4556   3.137   0.082   1.980
 1132SOL     OW 4557   3.128   0.336   1.866
 1132SOL    HW2 4558   3.129   0.248   1.903
 1132SOL    HW3 4559   3.122   0.323   1.772
 1132SOL    MW4 4560   3.127   0.323   1.859
 1133SOL     OW 4561   3.326   0.504   1.993
 1133SOL    HW2 4562   3.404   0.462   1.956
 1133SOL    HW3 4563   3.252   0.459   1.953
 1133SOL    MW4 4564   3.327   0.493   1.983
 1134SOL     OW 4565   3.332   0.727   1.845
 1134SOL    HW2 4566   3.266   0.789   1.875
 1134SOL    HW3 4567   3.322   0.652   1.904
 1134SOL    MW4 4568   3.322   0.725   1.857
 1135SOL     OW 4569   3.153   0.885   1.970
 1135SOL    HW2 4570   3.134   0.898   2.062
 1135SOL    HW3 4571   3.150   0.972   1.932
 1135SOL    MW4 4572   3.150   0.898   1.977
 1136SOL     OW 4573   3.172   1.126   1.841
 1136SOL    HW2 4574   3.245   1.149   1.898
 1136SOL    HW3 4575   3.097   1.174   1.876
 1136SOL    MW4 4576   3.172   1.135   1.853
 1137SOL     OW 4577   3.364   1.253   1.980
 1137SOL    HW2 4578   3.363   1.253   2.076
 1137SOL    HW3 4579   3.352   1.344   1.955
 1137SOL    MW4 4580   3.362   1.265   1.990
 1138SOL     OW 4581   3.339   1.524   1.871
 1138SOL    HW2 4582   3.417   1.562   1.913
 1138SOL    HW3 4583   3.266   1.576   1.904
 1138SOL    MW4 4584   3.340   1.536   1.881
 1139SOL     OW 4585   3.121   1.668   1.967
 1139SOL    HW2 4586   3.128   1.666   2.062
 1139SOL    HW3 4587   3.135   1.760   1.943
 1139SOL    MW4 4588   3.123   1.680   1.976
 1140SOL     OW 4589   3.124   1.931   1.861
 1140SOL    HW2 4590   3.204   1.972   1.894
 1140SOL    HW3 4591   3.136   1.925   1.767
 1140SOL    MW4 4592   3.136   1.935   1.853
 1141SOL     OW 4593   3.352   2.070   1.969
 1141SOL    HW2 4594   3.435   2.027   1.946
 1141SOL    HW3 4595   3.360   2.158   1.934
 1141SOL    MW4 4596   3.364   2.076   1.961
 1142SOL     OW 4597   3.392   2.342   1.875
 1142SOL    HW2 4598   3.306   2.376   1.901
 1142SOL    HW3 4599   3.384   2.326   1.781
 1142SOL    MW4 4600   3.379   2.344   1.866
 1143SOL     OW 4601   3.123   2.419   1.961
 1143SOL    HW2 4602   3.116   2.431   2.056
 1143SOL    HW3 4603   3.114   2.508   1.925
 1143SOL    MW4 4604   3.121   2.433   1.969
 1144SOL     OW 4605   3.164   2.668   1.867
 1144SOL    HW2 4606   3.092   2.725   1.894
 1144SOL    HW3 4607   3.157   2.663   1.772
 1144SOL    MW4 4608   3.154   2.675   1.858
 1145SOL     OW 4609   3.384   2.816   1.964
 1145SOL    HW2 4610   3.382   2.810   2.060
 1145SOL    HW3 4611   3.305   2.770   1.936
 1145SOL    MW4 4612   3.373   2.809   1.973
 1146SOL     OW 4613   3.350   3.087   1.853
 1146SOL    HW2 4614   3.432   3.131   1.876
 1146SOL    HW3 4615   3.354   3.003   1.899
 1146SOL    MW4 4616   3.361   3.082   1.862
 1147SOL     OW 4617   3.114   3.216   1.989
 1147SOL    HW2 4618   3.110   3.309   1.966
 1147SOL    HW3 4619   3.202   3.188   1.962
 1147SOL    MW4 4620   3.125   3.224   1.982
 1148SOL     OW 4621   3.115   3.479   1.903
 1148SOL    HW2 4622   3.203   3.504   1.932
 1148SOL    HW3 4623   3.123   3.468   1.808
 1148SOL    MW4 4624   3.128   3.481   1.894
 1149SOL     OW 4625   3.364   3.577   1.979
 1149SOL    HW2 4626   3.441   3.547   1.932
 1149SOL    HW3 4627   3.349   3.667   1.948
 1149SOL    MW4 4628   3.372   3.585   1.969
 1150SOL     OW 4629   3.313   3.831   1.869
 1150SOL    HW2 4630   3.246   3.881   1.916
 1150SOL    HW3 4631   3.315   3.869   1.781
 1150SOL    MW4 4632   3.304   3.843   1.864
 1151SOL     OW 4633   3.129   4.001   2.007
 1151SOL    HW2 4634   3.133   4.013   2.102
 1151SOL    HW3 4635   3.040   3.970   1.990
 1151SOL    MW4 4636   3.118   3.998   2.017
 1152SOL     OW 4637   3.122   4.239   1.868
 1152SOL    HW2 4638   3.136   4.157   1.916
 1152SOL    HW3 4639   3.050   4.282   1.913
 1152SOL    MW4 4640   3.115   4.234   1.880
 1153SOL     OW 4641   3.351   4.355   1.949
 1153SOL    HW2 4642   3.427   4.299   1.934
 1153SOL    HW3 4643   3.278   4.308   1.907
 1153SOL    MW4 4644   3.351   4.341   1.941
 1154SOL     OW 4645   3.805   4.630   1.930
 1154SOL    HW2 4646   3.775   4.543   1.955
 1154SOL    HW3 4647   3.734   4.689   1.957
 1154SOL    MW4 4648   3.792   4.626   1.936
 1155SOL     OW 4649   3.587   0.143   1.988
 1155SOL    HW2 4650   3.593   0.144   2.084
 1155SOL    HW3 4651   3.512   0.086   1.969
 1155SOL    MW4 4652   3.578   0.135   1.998
 1156SOL     OW 4653   3.560   0.398   1.879
 1156SOL    HW2 4654   3.558   0.309   1.913
 1156SOL    HW3 4655   3.583   0.387   1.786
 1156SOL    MW4 4656   3.563   0.385   1.871
 1157SOL     OW 4657   3.811   0.482   1.952
 1157SOL    HW2 4658   3.802   0.577   1.939
 1157SOL    HW3 4659   3.729   0.446   1.919
 1157SOL    MW4 4660   3.799   0.490   1.946
 1158SOL     OW 4661   3.800   0.751   1.885
 1158SOL    HW2 4662   3.711   0.769   1.916
 1158SOL    HW3 4663   3.790   0.733   1.792
 1158SOL    MW4 4664   3.787   0.751   1.877
 1159SOL     OW 4665   3.554   0.859   1.956
 1159SOL    HW2 4666   3.558   0.942   1.910
 1159SOL    HW3 4667   3.479   0.813   1.917
 1159SOL    MW4 4668   3.544   0.864   1.945
 1160SOL     OW 4669   3.563   1.110   1.860
 1160SOL    HW2 4670   3.492   1.156   1.904
 1160SOL    HW3 4671   3.557   1.139   1.769
 1160SOL    MW4 4672   3.553   1.120   1.854
 1161SOL     OW 4673   3.796   1.270   1.945
 1161SOL    HW2 4674   3.783   1.280   2.039
 1161SOL    HW3 4675   3.725   1.213   1.916
 1161SOL    MW4 4676   3.785   1.264   1.953
 1162SOL     OW 4677   3.786   1.528   1.871
 1162SOL    HW2 4678   3.863   1.572   1.907
 1162SOL    HW3 4679   3.796   1.437   1.899
 1162SOL    MW4 4680   3.798   1.522   1.879
 1163SOL     OW 4681   3.565   1.650   1.981
 1163SOL    HW2 4682   3.570   1.740   1.947
 1163SOL    HW3 4683   3.647   1.610   1.953
 1163SOL    MW4 4684   3.577   1.657   1.973
 1164SOL     OW 4685   3.624   1.919   1.884
 1164SOL    HW2 4686   3.709   1.957   1.907
 1164SOL    HW3 4687   3.626   1.912   1.789
 1164SOL    MW4 4688   3.636   1.923   1.875
 1165SOL     OW 4689   3.863   2.035   1.991
 1165SOL    HW2 4690   3.938   1.989   1.953
 1165SOL    HW3 4691   3.868   2.123   1.953
 1165SOL    MW4 4692   3.874   2.040   1.981
 1166SOL     OW 4693   3.816   2.303   1.881
 1166SOL    HW2 4694   3.895   2.340   1.920
 1166SOL    HW3 4695   3.747   2.365   1.902
 1166SOL    MW4 4696   3.817   2.316   1.889
 1167SOL     OW 4697   3.625   2.471   1.980
 1167SOL    HW2 4698   3.612   2.561   1.950
 1167SOL    HW3 4699   3.543   2.426   1.957
 1167SOL    MW4 4700   3.612   2.477   1.973
 1168SOL     OW 4701   3.597   2.719   1.844
 1168SOL    HW2 4702   3.666   2.768   1.886
 1168SOL    HW3 4703   3.516   2.757   1.878
 1168SOL    MW4 4704   3.595   2.730   1.854
 1169SOL     OW 4705   3.810   2.825   1.969
 1169SOL    HW2 4706   3.826   2.836   2.062
 1169SOL    HW3 4707   3.819   2.914   1.932
 1169SOL    MW4 4708   3.813   2.839   1.976
 1170SOL     OW 4709   3.826   3.082   1.864
 1170SOL    HW2 4710   3.748   3.129   1.894
 1170SOL    HW3 4711   3.810   3.067   1.771
 1170SOL    MW4 4712   3.813   3.086   1.856
 1171SOL     OW 4713   3.593   3.236   1.927
 1171SOL    HW2 4714   3.597   3.248   2.022
 1171SOL    HW3 4715   3.601   3.324   1.891
 1171SOL    MW4 4716   3.595   3.249   1.935
 1172SOL     OW 4717   3.595   3.496   1.838
 1172SOL    HW2 4718   3.673   3.543   1.864
 1172SOL    HW3 4719   3.589   3.509   1.743
 1172SOL    MW4 4720   3.604   3.504   1.829
 1173SOL     OW 4721   3.822   3.605   1.966
 1173SOL    HW2 4722   3.902   3.558   1.942
 1173SOL    HW3 4723   3.843   3.697   1.949
 1173SOL    MW4 4724   3.836   3.611   1.961
 1174SOL     OW 4725   3.814   3.863   1.871
 1174SOL    HW2 4726   3.731   3.892   1.909
 1174SOL    HW3 4727   3.796   3.859   1.777
 1174SOL    MW4 4728   3.801   3.866   1.863
 1175SOL     OW 4729   3.560   3.939   1.969
 1175SOL    HW2 4730   3.549   3.963   2.061
 1175SOL    HW3 4731   3.477   3.897   1.945
 1175SOL    MW4 4732   3.547   3.937   1.978
 1176SOL     OW 4733   3.578   4.197   1.865
 1176SOL    HW2 4734   3.631   4.253   1.922
 1176SOL    HW3 4735   3.583   4.110   1.905
 1176SOL    MW4 4736   3.586   4.193   1.878
 1177SOL     OW 4737   3.755   4.343   2.003
 1177SOL    HW2 4738   3.763   4.352   2.098
 1177SOL    HW3 4739   3.844   4.325   1.973
 1177SOL    MW4 4740   3.768   4.342   2.012
 1178SOL     OW 4741   4.244   4.646   1.881
 1178SOL    HW2 4742   4.175   4.702   1.914
 1178SOL    HW3 4743   4.324   4.681   1.919
 1178SOL    MW4 4744   4.246   4.658   1.890
 1179SOL     OW 4745   4.028   0.117   1.993
 1179SOL    HW2 4746   4.040   0.110   2.087
 1179SOL    HW3 4747   3.951   0.064   1.973
 1179SOL    MW4 4748   4.020   0.109   2.002
 1180SOL     OW 4749   4.053   0.358   1.871
 1180SOL    HW2 4750   4.058   0.280   1.928
 1180SOL    HW3 4751   3.976   0.405   1.902
 1180SOL    MW4 4752   4.043   0.354   1.883
 1181SOL     OW 4753   4.243   0.497   2.011
 1181SOL    HW2 4754   4.216   0.493   2.103
 1181SOL    HW3 4755   4.170   0.457   1.963
 1181SOL    MW4 4756   4.230   0.492   2.017
 1182SOL     OW 4757   4.243   0.761   1.887
 1182SOL    HW2 4758   4.256   0.674   1.925
 1182SOL    HW3 4759   4.261   0.749   1.793
 1182SOL    MW4 4760   4.247   0.748   1.879
 1183SOL     OW 4761   4.020   0.915   1.928
 1183SOL    HW2 4762   4.101   0.864   1.929
 1183SOL    HW3 4763   3.953   0.853   1.899
 1183SOL    MW4 4764   4.022   0.900   1.925
 1184SOL     OW 4765   4.018   1.169   1.831
 1184SOL    HW2 4766   4.011   1.077   1.859
 1184SOL    HW3 4767   3.941   1.211   1.869
 1184SOL    MW4 4768   4.007   1.162   1.840
 1185SOL     OW 4769   4.239   1.256   1.981
 1185SOL    HW2 4770   4.218   1.249   2.074
 1185SOL    HW3 4771   4.163   1.221   1.936
 1185SOL    MW4 4772   4.226   1.251   1.987
 1186SOL     OW 4773   4.262   1.518   1.884
 1186SOL    HW2 4774   4.256   1.429   1.919
 1186SOL    HW3 4775   4.243   1.508   1.790
 1186SOL    MW4 4776   4.259   1.505   1.876
 1187SOL     OW 4777   4.026   1.629   1.963
 1187SOL    HW2 4778   4.044   1.651   2.054
 1187SOL    HW3 4779   4.108   1.592   1.930
 1187SOL    MW4 4780   4.039   1.627   1.970
 1188SOL     OW 4781   4.083   1.895   1.872
 1188SOL    HW2 4782   4.077   1.803   1.898
 1188SOL    HW3 4783   4.093   1.892   1.777
 1188SOL    MW4 4784   4.083   1.882   1.863
 1189SOL     OW 4785   4.270   2.046   2.002
 1189SOL    HW2 4786   4.267   2.039   2.097
 1189SOL    HW3 4787   4.196   1.993   1.971
 1189SOL    MW4 4788   4.260   2.038   2.010
 1190SOL     OW 4789   4.294   2.307   1.891
 1190SOL    HW2 4790   4.283   2.216   1.919
 1190SOL    HW3 4791   4.376   2.334   1.932
 1190SOL    MW4 4792   4.304   2.298   1.900
 1191SOL     OW 4793   4.057   2.431   1.974
 1191SOL    HW2 4794   4.064   2.429   2.070
 1191SOL    HW3 4795   4.140   2.397   1.943
 1191SOL    MW4 4796   4.069   2.426   1.983
 1192SOL     OW 4797   4.072   2.700   1.881
 1192SOL    HW2 4798   4.071   2.618   1.931
 1192SOL    HW3 4799   3.996   2.749   1.912
 1192SOL    MW4 4800   4.062   2.695   1.891
 1193SOL     OW 4801   4.344   2.802   1.949
 1193SOL    HW2 4802   4.329   2.799   2.044
 1193SOL    HW3 4803   4.265   2.763   1.911
 1193SOL    MW4 4804   4.332   2.796   1.957
 1194SOL     OW 4805   4.306   3.079   1.871
 1194SOL    HW2 4806   4.225   3.095   1.920
 1194SOL    HW3 4807   4.336   2.994   1.904
 1194SOL    MW4 4808   4.299   3.070   1.882
 1195SOL     OW 4809   4.056   3.182   1.972
 1195SOL    HW2 4810   4.037   3.183   2.066
 1195SOL    HW3 4811   3.972   3.156   1.932
 1195SOL    MW4 4812   4.042   3.179   1.979
 1196SOL     OW 4813   4.058   3.460   1.902
 1196SOL    HW2 4814   4.128   3.509   1.946
 1196SOL    HW3 4815   4.062   3.373   1.942
 1196SOL    MW4 4816   4.068   3.455   1.913
 1197SOL     OW 4817   4.258   3.633   2.004
 1197SOL    HW2 4818   4.253   3.718   1.960
 1197SOL    HW3 4819   4.330   3.587   1.961
 1197SOL    MW4 4820   4.267   3.639   1.993
 1198SOL     OW 4821   4.255   3.890   1.874
 1198SOL    HW2 4822   4.334   3.938   1.897
 1198SOL    HW3 4823   4.268   3.865   1.782
 1198SOL    MW4 4824   4.267   3.893   1.865
 1199SOL     OW 4825   4.006   4.001   1.973
 1199SOL    HW2 4826   4.088   3.967   1.939
 1199SOL    HW3 4827   3.938   3.952   1.925
 1199SOL    MW4 4828   4.008   3.990   1.962
 1200SOL     OW 4829   3.993   4.276   1.876
 1200SOL    HW2 4830   4.073   4.315   1.913
 1200SOL    HW3 4831   3.997   4.184   1.903
 1200SOL    MW4 4832   4.004   4.269   1.885
 1201SOL     OW 4833   4.248   4.378   1.987
 1201SOL    HW2 4834   4.251   4.377   2.082
 1201SOL    HW3 4835   4.243   4.471   1.964
 1201SOL    MW4 4836   4.248   4.390   1.996
 1202SOL     OW 4837   0.180   4.659   2.361
 1202SOL    HW2 4838   0.180   4.669   2.456
 1202SOL    HW3 4839   0.268   4.686   2.335
 1202SOL    MW4 4840   0.192   4.664   2.370
 1203SOL     OW 4841   4.468   0.135   2.269
 1203SOL    HW2 4842   4.541   0.079   2.295
 1203SOL    HW3 4843   4.450   0.111   2.178
 1203SOL    MW4 4844   4.475   0.124   2.261
 1204SOL     OW 4845   0.024   0.378   2.388
 1204SOL    HW2 4846   0.105   0.415   2.353
 1204SOL    HW3 4847   0.014   0.295   2.341
 1204SOL    MW4 4848   0.033   0.372   2.377
 1205SOL     OW 4849   0.238   0.550   2.298
 1205SOL    HW2 4850   0.305   0.493   2.334
 1205SOL    HW3 4851   0.236   0.529   2.205
 1205SOL    MW4 4852   0.246   0.540   2.291
 1206SOL     OW 4853   0.210   0.803   2.386
 1206SOL    HW2 4854   0.211   0.793   2.482
 1206SOL    HW3 4855   0.195   0.715   2.353
 1206SOL    MW4 4856   0.208   0.790   2.395
 1207SOL     OW 4857   4.474   0.907   2.279
 1207SOL    HW2 4858   4.563   0.883   2.305
 1207SOL    HW3 4859   4.482   0.933   2.187
 1207SOL    MW4 4860   4.487   0.907   2.271
 1208SOL     OW 4861   4.448   1.164   2.359
 1208SOL    HW2 4862   4.441   1.178   2.453
 1208SOL    HW3 4863   4.447   1.069   2.349
 1208SOL    MW4 4864   4.447   1.153   2.370
 1209SOL     OW 4865   0.179   1.249   2.227
 1209SOL    HW2 4866   0.099   1.217   2.268
 1209SOL    HW3 4867   0.153   1.275   2.138
 1209SOL    MW4 4868   0.165   1.249   2.220
 1210SOL     OW 4869   0.235   1.516   2.350
 1210SOL    HW2 4870   0.218   1.506   2.444
 1210SOL    HW3 4871   0.246   1.427   2.318
 1210SOL    MW4 4872   0.234   1.503   2.359
 1211SOL     OW 4873   0.010   1.665   2.245
 1211SOL    HW2 4874   0.015   1.754   2.279
 1211SOL    HW3 4875   0.087   1.621   2.282
 1211SOL    MW4 4876   0.021   1.671   2.254
 1212SOL     OW 4877   0.017   1.905   2.371
 1212SOL    HW2 4878  -0.061   1.945   2.332
 1212SOL    HW3 4879   0.090   1.957   2.336
 1212SOL    MW4 4880   0.016   1.917   2.361
 1213SOL     OW 4881   0.224   2.019   2.229
 1213SOL    HW2 4882   0.305   1.970   2.242
 1213SOL    HW3 4883   0.220   2.033   2.134
 1213SOL    MW4 4884   0.234   2.014   2.218
 1214SOL     OW 4885   0.266   2.277   2.359
 1214SOL    HW2 4886   0.260   2.263   2.453
 1214SOL    HW3 4887   0.254   2.190   2.320
 1214SOL    MW4 4888   0.264   2.264   2.366
 1215SOL     OW 4889   0.064   2.449   2.230
 1215SOL    HW2 4890   0.049   2.535   2.269
 1215SOL    HW3 4891   0.139   2.414   2.277
 1215SOL    MW4 4892   0.072   2.456   2.241
 1216SOL     OW 4893   0.002   2.678   2.348
 1216SOL    HW2 4894   0.003   2.668   2.444
 1216SOL    HW3 4895   0.070   2.743   2.330
 1216SOL    MW4 4896   0.011   2.685   2.359
 1217SOL     OW 4897   0.211   2.849   2.267
 1217SOL    HW2 4898   0.285   2.797   2.297
 1217SOL    HW3 4899   0.219   2.849   2.171
 1217SOL    MW4 4900   0.222   2.842   2.258
 1218SOL     OW 4901   0.246   3.094   2.383
 1218SOL    HW2 4902   0.163   3.141   2.382
 1218SOL    HW3 4903   0.224   3.005   2.358
 1218SOL    MW4 4904   0.232   3.089   2.380
 1219SOL     OW 4905   4.479   3.230   2.275
 1219SOL    HW2 4906   4.471   3.321   2.302
 1219SOL    HW3 4907   4.489   3.234   2.180
 1219SOL    MW4 4908   4.479   3.242   2.266
 1220SOL     OW 4909   0.001   3.485   2.378
 1220SOL    HW2 4910  -0.001   3.481   2.473
 1220SOL    HW3 4911  -0.084   3.523   2.354
 1220SOL    MW4 4912  -0.011   3.489   2.387
 1221SOL     OW 4913   0.219   3.604   2.257
 1221SOL    HW2 4914   0.294   3.547   2.274
 1221SOL    HW3 4915   0.145   3.560   2.299
 1221SOL    MW4 4916   0.219   3.591   2.265
 1222SOL     OW 4917   0.209   3.850   2.386
 1222SOL    HW2 4918   0.139   3.903   2.350
 1222SOL    HW3 4919   0.210   3.771   2.331
 1222SOL    MW4 4920   0.200   3.846   2.374
 1223SOL     OW 4921   4.464   3.998   2.253
 1223SOL    HW2 4922   4.472   4.087   2.289
 1223SOL    HW3 4923   4.467   4.011   2.158
 1223SOL    MW4 4924   4.465   4.012   2.245
 1224SOL     OW 4925   0.011   4.260   2.374
 1224SOL    HW2 4926   0.026   4.254   2.468
 1224SOL    HW3 4927   0.091   4.300   2.339
 1224SOL    MW4 4928   0.024   4.264   2.382
 1225SOL     OW 4929   0.226   4.392   2.268
 1225SOL    HW2 4930   0.297   4.348   2.316
 1225SOL    HW3 4931   0.211   4.473   2.317
 1225SOL    MW4 4932   0.233   4.397   2.281
 1226SOL     OW 4933   0.639   4.596   2.345
 1226SOL    HW2 4934   0.648   4.608   2.440
 1226SOL    HW3 4935   0.708   4.651   2.308
 1226SOL    MW4 4936   0.649   4.605   2.353
 1227SOL     OW 4937   0.418   0.087   2.268
 1227SOL    HW2 4938   0.488   0.023   2.281
 1227SOL    HW3 4939   0.412   0.097   2.173
 1227SOL    MW4 4940   0.426   0.080   2.257
 1228SOL     OW 4941   0.424   0.355   2.332
 1228SOL    HW2 4942   0.419   0.352   2.427
 1228SOL    HW3 4943   0.425   0.264   2.304
 1228SOL    MW4 4944   0.423   0.343   2.341
 1229SOL     OW 4945   0.672   0.475   2.261
 1229SOL    HW2 4946   0.668   0.561   2.301
 1229SOL    HW3 4947   0.593   0.430   2.291
 1229SOL    MW4 4948   0.661   0.480   2.270
 1230SOL     OW 4949   0.666   0.737   2.342
 1230SOL    HW2 4950   0.651   0.763   2.432
 1230SOL    HW3 4951   0.594   0.776   2.293
 1230SOL    MW4 4952   0.654   0.745   2.347
 1231SOL     OW 4953   0.431   0.863   2.242
 1231SOL    HW2 4954   0.355   0.824   2.287
 1231SOL    HW3 4955   0.430   0.823   2.155
 1231SOL    MW4 4956   0.421   0.853   2.236
 1232SOL     OW 4957   0.416   1.126   2.321
 1232SOL    HW2 4958   0.401   1.034   2.296
 1232SOL    HW3 4959   0.336   1.171   2.294
 1232SOL    MW4 4960   0.403   1.120   2.314
 1233SOL     OW 4961   0.656   1.232   2.210
 1233SOL    HW2 4962   0.683   1.310   2.259
 1233SOL    HW3 4963   0.580   1.199   2.258
 1233SOL    MW4 4964   0.650   1.238   2.223
 1234SOL     OW 4965   0.676   1.464   2.357
 1234SOL    HW2 4966   0.686   1.472   2.452
 1234SOL    HW3 4967   0.745   1.519   2.321
 1234SOL    MW4 4968   0.686   1.472   2.365
 1235SOL     OW 4969   0.492   1.616   2.222
 1235SOL    HW2 4970   0.554   1.562   2.271
 1235SOL    HW3 4971   0.408   1.602   2.267
 1235SOL    MW4 4972   0.489   1.607   2.235
 1236SOL     OW 4973   0.466   1.872   2.315
 1236SOL    HW2 4974   0.537   1.927   2.282
 1236SOL    HW3 4975   0.480   1.788   2.273
 1236SOL    MW4 4976   0.477   1.868   2.305
 1237SOL     OW 4977   0.699   2.041   2.199
 1237SOL    HW2 4978   0.756   1.990   2.255
 1237SOL    HW3 4979   0.700   2.129   2.238
 1237SOL    MW4 4980   0.707   2.046   2.212
 1238SOL     OW 4981   0.710   2.275   2.337
 1238SOL    HW2 4982   0.701   2.260   2.432
 1238SOL    HW3 4983   0.783   2.336   2.330
 1238SOL    MW4 4984   0.719   2.281   2.349
 1239SOL     OW 4985   0.471   2.413   2.238
 1239SOL    HW2 4986   0.554   2.377   2.268
 1239SOL    HW3 4987   0.405   2.373   2.294
 1239SOL    MW4 4988   0.473   2.403   2.249
 1240SOL     OW 4989   0.419   2.682   2.344
 1240SOL    HW2 4990   0.424   2.661   2.438
 1240SOL    HW3 4991   0.447   2.603   2.300
 1240SOL    MW4 4992   0.423   2.669   2.351
 1241SOL     OW 4993   0.673   2.805   2.243
 1241SOL    HW2 4994   0.752   2.771   2.285
 1241SOL    HW3 4995   0.601   2.762   2.290
 1241SOL    MW4 4996   0.674   2.795   2.255
 1242SOL     OW 4997   0.721   3.072   2.369
 1242SOL    HW2 4998   0.656   3.126   2.325
 1242SOL    HW3 4999   0.717   2.987   2.325
 1242SOL    MW4 5000   0.712   3.068   2.358
 1243SOL     OW 5001   0.474   3.223   2.255
 1243SOL    HW2 5002   0.400   3.191   2.308
 1243SOL    HW3 5003   0.447   3.209   2.165
 1243SOL    MW4 5004   0.461   3.217   2.250
 1244SOL     OW 5005   0.439   3.476   2.362
 1244SOL    HW2 5006   0.514   3.533   2.347
 1244SOL    HW3 5007   0.471   3.388   2.340
 1244SOL    MW4 5008   0.453   3.472   2.357
 1245SOL     OW 5009   0.695   3.634   2.257
 1245SOL    HW2 5010   0.707   3.719   2.301
 1245SOL    HW3 5011   0.673   3.656   2.167
 1245SOL    MW4 5012   0.694   3.648   2.251
 1246SOL     OW 5013   0.682   3.917   2.367
 1246SOL    HW2 5014   0.676   3.917   2.462
 1246SOL    HW3 5015   0.597   3.952   2.338
 1246SOL    MW4 5016   0.670   3.922   2.375
 1247SOL     OW 5017   0.432   3.992   2.280
 1247SOL    HW2 5018   0.360   3.937   2.310
 1247SOL    HW3 5019   0.433   3.981   2.185
 1247SOL    MW4 5020   0.423   3.983   2.272
 1248SOL     OW 5021   0.432   4.252   2.383
 1248SOL    HW2 5022   0.507   4.289   2.337
 1248SOL    HW3 5023   0.428   4.161   2.353
 1248SOL    MW4 5024   0.441   4.245   2.373
 1249SOL     OW 5025   0.662   4.335   2.257
 1249SOL    HW2 5026   0.674   4.426   2.284
 1249SOL    HW3 5027   0.653   4.339   2.162
 1249SOL    MW4 5028   0.663   4.347   2.248
 1250SOL     OW 5029   1.094   4.626   2.347
 1250SOL    HW2 5030   1.079   4.620   2.441
 1250SOL    HW3 5031   1.012   4.662   2.312
 1250SOL    MW4 5032   1.081   4.630   2.355
 1251SOL     OW 5033   0.853   0.080   2.269
 1251SOL    HW2 5034   0.860   0.172   2.291
 1251SOL    HW3 5035   0.878   0.075   2.177
 1251SOL    MW4 5036   0.857   0.091   2.259
 1252SOL     OW 5037   0.871   0.317   2.348
 1252SOL    HW2 5038   0.944   0.377   2.332
 1252SOL    HW3 5039   0.794   0.363   2.314
 1252SOL    MW4 5040   0.871   0.331   2.341
 1253SOL     OW 5041   1.081   0.490   2.260
 1253SOL    HW2 5042   1.158   0.439   2.284
 1253SOL    HW3 5043   1.080   0.487   2.164
 1253SOL    MW4 5044   1.091   0.483   2.250
 1254SOL     OW 5045   1.122   0.731   2.367
 1254SOL    HW2 5046   1.050   0.780   2.327
 1254SOL    HW3 5047   1.120   0.646   2.325
 1254SOL    MW4 5048   1.113   0.726   2.356
 1255SOL     OW 5049   0.902   0.871   2.273
 1255SOL    HW2 5050   0.891   0.962   2.303
 1255SOL    HW3 5051   0.820   0.829   2.297
 1255SOL    MW4 5052   0.890   0.878   2.280
 1256SOL     OW 5053   0.864   1.119   2.346
 1256SOL    HW2 5054   0.940   1.159   2.304
 1256SOL    HW3 5055   0.789   1.151   2.295
 1256SOL    MW4 5056   0.864   1.129   2.333
 1257SOL     OW 5057   1.068   1.252   2.223
 1257SOL    HW2 5058   1.156   1.223   2.249
 1257SOL    HW3 5059   1.073   1.260   2.128
 1257SOL    MW4 5060   1.081   1.249   2.214
 1258SOL     OW 5061   1.090   1.532   2.328
 1258SOL    HW2 5062   1.016   1.584   2.296
 1258SOL    HW3 5063   1.068   1.442   2.302
 1258SOL    MW4 5064   1.077   1.527   2.320
 1259SOL     OW 5065   0.847   1.649   2.219
 1259SOL    HW2 5066   0.860   1.735   2.259
 1259SOL    HW3 5067   0.857   1.665   2.125
 1259SOL    MW4 5068   0.850   1.663   2.212
 1260SOL     OW 5069   0.880   1.876   2.355
 1260SOL    HW2 5070   0.889   1.873   2.450
 1260SOL    HW3 5071   0.956   1.925   2.325
 1260SOL    MW4 5072   0.891   1.882   2.363
 1261SOL     OW 5073   1.109   2.019   2.267
 1261SOL    HW2 5074   1.202   2.002   2.283
 1261SOL    HW3 5075   1.103   2.031   2.172
 1261SOL    MW4 5076   1.121   2.019   2.257
 1262SOL     OW 5077   1.139   2.285   2.406
 1262SOL    HW2 5078   1.214   2.328   2.365
 1262SOL    HW3 5079   1.130   2.202   2.358
 1262SOL    MW4 5080   1.148   2.280   2.394
 1263SOL     OW 5081   0.932   2.447   2.286
 1263SOL    HW2 5082   1.003   2.387   2.310
 1263SOL    HW3 5083   0.938   2.454   2.191
 1263SOL    MW4 5084   0.942   2.440   2.277
 1264SOL     OW 5085   0.889   2.720   2.393
 1264SOL    HW2 5086   0.905   2.701   2.486
 1264SOL    HW3 5087   0.890   2.634   2.350
 1264SOL    MW4 5088   0.891   2.706   2.400
 1265SOL     OW 5089   1.108   2.837   2.294
 1265SOL    HW2 5090   1.178   2.776   2.317
 1265SOL    HW3 5091   1.029   2.796   2.328
 1265SOL    MW4 5092   1.107   2.823   2.301
 1266SOL     OW 5093   1.156   3.098   2.353
 1266SOL    HW2 5094   1.075   3.138   2.320
 1266SOL    HW3 5095   1.148   3.006   2.331
 1266SOL    MW4 5096   1.144   3.091   2.346
 1267SOL     OW 5097   0.924   3.190   2.251
 1267SOL    HW2 5098   0.914   3.279   2.287
 1267SOL    HW3 5099   0.849   3.142   2.285
 1267SOL    MW4 5100   0.913   3.196   2.260
 1268SOL     OW 5101   0.884   3.437   2.332
 1268SOL    HW2 5102   0.891   3.448   2.427
 1268SOL    HW3 5103   0.813   3.495   2.306
 1268SOL    MW4 5104   0.876   3.446   2.341
 1269SOL     OW 5105   1.081   3.621   2.257
 1269SOL    HW2 5106   1.162   3.580   2.286
 1269SOL    HW3 5107   1.012   3.561   2.287
 1269SOL    MW4 5108   1.083   3.608   2.265
 1270SOL     OW 5109   1.125   3.866   2.337
 1270SOL    HW2 5110   1.206   3.899   2.297
 1270SOL    HW3 5111   1.116   3.777   2.300
 1270SOL    MW4 5112   1.135   3.858   2.327
 1271SOL     OW 5113   0.912   3.999   2.239
 1271SOL    HW2 5114   0.982   3.946   2.276
 1271SOL    HW3 5115   0.834   3.975   2.289
 1271SOL    MW4 5116   0.911   3.989   2.250
 1272SOL     OW 5117   0.892   4.228   2.362
 1272SOL    HW2 5118   0.901   4.143   2.319
 1272SOL    HW3 5119   0.819   4.270   2.316
 1272SOL    MW4 5120   0.883   4.222   2.350
 1273SOL     OW 5121   1.099   4.368   2.240
 1273SOL    HW2 5122   1.025   4.326   2.283
 1273SOL    HW3 5123   1.108   4.452   2.286
 1273SOL    MW4 5124   1.091   4.374   2.252
 1274SOL     OW 5125   1.538   4.632   2.337
 1274SOL    HW2 5126   1.612   4.669   2.288
 1274SOL    HW3 5127   1.463   4.683   2.309
 1274SOL    MW4 5128   1.538   4.643   2.327
 1275SOL     OW 5129   1.320   0.098   2.229
 1275SOL    HW2 5130   1.324   0.179   2.280
 1275SOL    HW3 5131   1.242   0.053   2.262
 1275SOL    MW4 5132   1.310   0.103   2.240
 1276SOL     OW 5133   1.321   0.356   2.344
 1276SOL    HW2 5134   1.329   0.367   2.439
 1276SOL    HW3 5135   1.396   0.403   2.308
 1276SOL    MW4 5136   1.332   0.364   2.352
 1277SOL     OW 5137   1.554   0.501   2.276
 1277SOL    HW2 5138   1.631   0.451   2.302
 1277SOL    HW3 5139   1.550   0.492   2.181
 1277SOL    MW4 5140   1.564   0.493   2.267
 1278SOL     OW 5141   1.586   0.778   2.359
 1278SOL    HW2 5142   1.672   0.806   2.328
 1278SOL    HW3 5143   1.578   0.687   2.331
 1278SOL    MW4 5144   1.596   0.770   2.351
 1279SOL     OW 5145   1.334   0.886   2.308
 1279SOL    HW2 5146   1.419   0.845   2.320
 1279SOL    HW3 5147   1.272   0.826   2.351
 1279SOL    MW4 5148   1.337   0.873   2.315
 1280SOL     OW 5149   1.304   1.156   2.323
 1280SOL    HW2 5150   1.308   1.172   2.418
 1280SOL    HW3 5151   1.306   1.060   2.315
 1280SOL    MW4 5152   1.304   1.145   2.335
 1281SOL     OW 5153   1.565   1.234   2.240
 1281SOL    HW2 5154   1.483   1.193   2.269
 1281SOL    HW3 5155   1.566   1.220   2.145
 1281SOL    MW4 5156   1.554   1.227   2.231
 1282SOL     OW 5157   1.555   1.517   2.338
 1282SOL    HW2 5158   1.626   1.573   2.307
 1282SOL    HW3 5159   1.561   1.438   2.284
 1282SOL    MW4 5160   1.565   1.514   2.327
 1283SOL     OW 5161   1.325   1.659   2.236
 1283SOL    HW2 5162   1.398   1.604   2.263
 1283SOL    HW3 5163   1.248   1.618   2.275
 1283SOL    MW4 5164   1.324   1.646   2.244
 1284SOL     OW 5165   1.374   1.906   2.358
 1284SOL    HW2 5166   1.455   1.936   2.318
 1284SOL    HW3 5167   1.366   1.815   2.331
 1284SOL    MW4 5168   1.383   1.898   2.349
 1285SOL     OW 5169   1.592   2.015   2.229
 1285SOL    HW2 5170   1.687   2.012   2.237
 1285SOL    HW3 5171   1.575   2.027   2.136
 1285SOL    MW4 5172   1.602   2.016   2.218
 1286SOL     OW 5173   1.583   2.284   2.336
 1286SOL    HW2 5174   1.559   2.281   2.429
 1286SOL    HW3 5175   1.592   2.192   2.311
 1286SOL    MW4 5176   1.581   2.271   2.345
 1287SOL     OW 5177   1.349   2.406   2.271
 1287SOL    HW2 5178   1.441   2.379   2.279
 1287SOL    HW3 5179   1.333   2.409   2.177
 1287SOL    MW4 5180   1.359   2.403   2.260
 1288SOL     OW 5181   1.355   2.709   2.343
 1288SOL    HW2 5182   1.424   2.764   2.307
 1288SOL    HW3 5183   1.377   2.620   2.312
 1288SOL    MW4 5184   1.367   2.704   2.334
 1289SOL     OW 5185   1.553   2.863   2.241
 1289SOL    HW2 5186   1.559   2.957   2.260
 1289SOL    HW3 5187   1.557   2.857   2.146
 1289SOL    MW4 5188   1.554   2.875   2.231
 1290SOL     OW 5189   1.605   3.131   2.340
 1290SOL    HW2 5190   1.603   3.131   2.435
 1290SOL    HW3 5191   1.531   3.186   2.314
 1290SOL    MW4 5192   1.595   3.138   2.349
 1291SOL     OW 5193   1.364   3.250   2.238
 1291SOL    HW2 5194   1.297   3.193   2.277
 1291SOL    HW3 5195   1.348   3.245   2.144
 1291SOL    MW4 5196   1.353   3.242   2.231
 1292SOL     OW 5197   1.327   3.514   2.338
 1292SOL    HW2 5198   1.321   3.495   2.432
 1292SOL    HW3 5199   1.333   3.428   2.296
 1292SOL    MW4 5200   1.327   3.500   2.345
 1293SOL     OW 5201   1.563   3.623   2.273
 1293SOL    HW2 5202   1.557   3.715   2.297
 1293SOL    HW3 5203   1.477   3.587   2.296
 1293SOL    MW4 5204   1.551   3.630   2.279
 1294SOL     OW 5205   1.574   3.894   2.362
 1294SOL    HW2 5206   1.589   3.882   2.456
 1294SOL    HW3 5207   1.654   3.935   2.330
 1294SOL    MW4 5208   1.586   3.898   2.370
 1295SOL     OW 5209   1.336   4.000   2.233
 1295SOL    HW2 5210   1.412   3.953   2.269
 1295SOL    HW3 5211   1.357   4.010   2.140
 1295SOL    MW4 5212   1.349   3.995   2.226
 1296SOL     OW 5213   1.337   4.261   2.327
 1296SOL    HW2 5214   1.332   4.167   2.309
 1296SOL    HW3 5215   1.250   4.294   2.302
 1296SOL    MW4 5216   1.325   4.253   2.321
 1297SOL     OW 5217   1.571   4.378   2.230
 1297SOL    HW2 5218   1.501   4.325   2.268
 1297SOL    HW3 5219   1.560   4.465   2.270
 1297SOL    MW4 5220   1.560   4.383   2.240
 1298SOL     OW 5221   2.040   4.663   2.302
 1298SOL    HW2 5222   2.113   4.705   2.257
 1298SOL    HW3 5223   2.036   4.574   2.266
 1298SOL    MW4 5224   2.049   4.656   2.292
 1299SOL     OW 5225   1.774   0.085   2.215
 1299SOL    HW2 5226   1.764   0.173   2.252
 1299SOL    HW3 5227   1.859   0.055   2.248
 1299SOL    MW4 5228   1.784   0.093   2.225
 1300SOL     OW 5229   1.782   0.342   2.338
 1300SOL    HW2 5230   1.779   0.354   2.433
 1300SOL    HW3 5231   1.862   0.388   2.311
 1300SOL    MW4 5232   1.792   0.350   2.347
 1301SOL     OW 5233   2.008   0.466   2.214
 1301SOL    HW2 5234   1.999   0.551   2.257
 1301SOL    HW3 5235   2.006   0.486   2.120
 1301SOL    MW4 5236   2.007   0.480   2.207
 1302SOL     OW 5237   2.024   0.718   2.349
 1302SOL    HW2 5238   2.111   0.746   2.321
 1302SOL    HW3 5239   1.964   0.783   2.313
 1302SOL    MW4 5240   2.028   0.730   2.341
 1303SOL     OW 5241   1.813   0.893   2.282
 1303SOL    HW2 5242   1.821   0.978   2.326
 1303SOL    HW3 5243   1.802   0.914   2.190
 1303SOL    MW4 5244   1.813   0.907   2.276
 1304SOL     OW 5245   1.801   1.163   2.373
 1304SOL    HW2 5246   1.874   1.211   2.334
 1304SOL    HW3 5247   1.723   1.204   2.334
 1304SOL    MW4 5248   1.800   1.175   2.363
 1305SOL     OW 5249   2.005   1.296   2.235
 1305SOL    HW2 5250   2.017   1.389   2.257
 1305SOL    HW3 5251   2.016   1.293   2.139
 1305SOL    MW4 5252   2.008   1.308   2.225
 1306SOL     OW 5253   2.023   1.550   2.335
 1306SOL    HW2 5254   2.035   1.544   2.430
 1306SOL    HW3 5255   1.933   1.578   2.324
 1306SOL    MW4 5256   2.013   1.553   2.346
 1307SOL     OW 5257   1.774   1.678   2.250
 1307SOL    HW2 5258   1.815   1.755   2.291
 1307SOL    HW3 5259   1.790   1.689   2.157
 1307SOL    MW4 5260   1.782   1.690   2.243
 1308SOL     OW 5261   1.847   1.936   2.344
 1308SOL    HW2 5262   1.833   1.940   2.439
 1308SOL    HW3 5263   1.917   1.999   2.327
 1308SOL    MW4 5264   1.854   1.945   2.354
 1309SOL     OW 5265   2.058   2.106   2.262
 1309SOL    HW2 5266   2.129   2.054   2.302
 1309SOL    HW3 5267   2.077   2.104   2.168
 1309SOL    MW4 5268   2.070   2.099   2.255
 1310SOL     OW 5269   2.023   2.374   2.350
 1310SOL    HW2 5270   2.096   2.429   2.324
 1310SOL    HW3 5271   2.042   2.288   2.312
 1310SOL    MW4 5272   2.035   2.370   2.342
 1311SOL     OW 5273   1.785   2.457   2.236
 1311SOL    HW2 5274   1.866   2.419   2.270
 1311SOL    HW3 5275   1.715   2.406   2.276
 1311SOL    MW4 5276   1.787   2.445   2.245
 1312SOL     OW 5277   1.732   2.697   2.380
 1312SOL    HW2 5278   1.739   2.630   2.312
 1312SOL    HW3 5279   1.671   2.761   2.344
 1312SOL    MW4 5280   1.725   2.697   2.366
 1313SOL     OW 5281   1.974   2.800   2.292
 1313SOL    HW2 5282   2.047   2.748   2.326
 1313SOL    HW3 5283   1.897   2.763   2.335
 1313SOL    MW4 5284   1.973   2.788   2.302
 1314SOL     OW 5285   2.026   3.085   2.326
 1314SOL    HW2 5286   2.108   3.112   2.284
 1314SOL    HW3 5287   2.035   2.990   2.338
 1314SOL    MW4 5288   2.038   3.076   2.322
 1315SOL     OW 5289   1.833   3.252   2.230
 1315SOL    HW2 5290   1.902   3.193   2.260
 1315SOL    HW3 5291   1.753   3.216   2.269
 1315SOL    MW4 5292   1.832   3.239   2.239
 1316SOL     OW 5293   1.820   3.521   2.314
 1316SOL    HW2 5294   1.809   3.437   2.269
 1316SOL    HW3 5295   1.733   3.559   2.316
 1316SOL    MW4 5296   1.807   3.515   2.308
 1317SOL     OW 5297   2.053   3.640   2.210
 1317SOL    HW2 5298   1.973   3.601   2.245
 1317SOL    HW3 5299   2.047   3.625   2.115
 1317SOL    MW4 5300   2.042   3.633   2.202
 1318SOL     OW 5301   2.004   3.877   2.343
 1318SOL    HW2 5302   2.032   3.852   2.431
 1318SOL    HW3 5303   2.022   3.800   2.290
 1318SOL    MW4 5304   2.010   3.864   2.348
 1319SOL     OW 5305   1.791   4.012   2.246
 1319SOL    HW2 5306   1.850   3.948   2.286
 1319SOL    HW3 5307   1.814   4.011   2.153
 1319SOL    MW4 5308   1.802   4.004   2.239
 1320SOL     OW 5309   1.801   4.264   2.348
 1320SOL    HW2 5310   1.805   4.176   2.310
 1320SOL    HW3 5311   1.735   4.310   2.295
 1320SOL    MW4 5312   1.793   4.259   2.336
 1321SOL     OW 5313   2.015   4.388   2.229
 1321SOL    HW2 5314   1.939   4.339   2.261
 1321SOL    HW3 5315   2.002   4.391   2.134
 1321SOL    MW4 5316   2.003   4.382   2.221
 1322SOL     OW 5317   2.449   4.619   2.391
 1322SOL    HW2 5318   2.511   4.682   2.354
 1322SOL    HW3 5319   2.477   4.535   2.356
 1322SOL    MW4 5320   2.461   4.616   2.382
 1323SOL     OW 5321   2.296   0.089   2.211
 1323SOL    HW2 5322   2.276   0.167   2.264
 1323SOL    HW3 5323   2.340   0.030   2.271
 1323SOL    MW4 5324   2.299   0.092   2.226
 1324SOL     OW 5325   2.232   0.354   2.334
 1324SOL    HW2 5326   2.302   0.407   2.295
 1324SOL    HW3 5327   2.151   0.392   2.300
 1324SOL    MW4 5328   2.231   0.366   2.324
 1325SOL     OW 5329   2.441   0.502   2.231
 1325SOL    HW2 5330   2.513   0.454   2.271
 1325SOL    HW3 5331   2.463   0.505   2.138
 1325SOL    MW4 5332   2.453   0.496   2.224
 1326SOL     OW 5333   2.454   0.751   2.370
 1326SOL    HW2 5334   2.522   0.808   2.333
 1326SOL    HW3 5335   2.474   0.665   2.335
 1326SOL    MW4 5336   2.466   0.747   2.361
 1327SOL     OW 5337   2.241   0.861   2.240
 1327SOL    HW2 5338   2.243   0.949   2.276
 1327SOL    HW3 5339   2.312   0.814   2.283
 1327SOL    MW4 5340   2.250   0.866   2.250
 1328SOL     OW 5341   2.238   1.147   2.320
 1328SOL    HW2 5342   2.312   1.204   2.298
 1328SOL    HW3 5343   2.163   1.191   2.280
 1328SOL    MW4 5344   2.238   1.161   2.311
 1329SOL     OW 5345   2.431   1.311   2.237
 1329SOL    HW2 5346   2.516   1.277   2.263
 1329SOL    HW3 5347   2.426   1.397   2.279
 1329SOL    MW4 5348   2.442   1.318   2.246
 1330SOL     OW 5349   2.438   1.583   2.334
 1330SOL    HW2 5350   2.433   1.572   2.429
 1330SOL    HW3 5351   2.529   1.608   2.317
 1330SOL    MW4 5352   2.449   1.585   2.344
 1331SOL     OW 5353   2.217   1.716   2.216
 1331SOL    HW2 5354   2.292   1.667   2.249
 1331SOL    HW3 5355   2.141   1.670   2.252
 1331SOL    MW4 5356   2.217   1.703   2.225
 1332SOL     OW 5357   2.248   1.936   2.378
 1332SOL    HW2 5358   2.303   1.983   2.314
 1332SOL    HW3 5359   2.218   1.858   2.332
 1332SOL    MW4 5360   2.251   1.932   2.363
 1333SOL     OW 5361   2.463   2.070   2.227
 1333SOL    HW2 5362   2.532   2.011   2.255
 1333SOL    HW3 5363   2.476   2.080   2.133
 1333SOL    MW4 5364   2.474   2.064   2.218
 1334SOL     OW 5365   2.469   2.312   2.387
 1334SOL    HW2 5366   2.545   2.354   2.347
 1334SOL    HW3 5367   2.464   2.226   2.346
 1334SOL    MW4 5368   2.478   2.306   2.377
 1335SOL     OW 5369   2.273   2.461   2.271
 1335SOL    HW2 5370   2.270   2.552   2.299
 1335SOL    HW3 5371   2.354   2.427   2.308
 1335SOL    MW4 5372   2.283   2.468   2.279
 1336SOL     OW 5373   2.246   2.723   2.351
 1336SOL    HW2 5374   2.242   2.718   2.447
 1336SOL    HW3 5375   2.324   2.776   2.333
 1336SOL    MW4 5376   2.256   2.729   2.361
 1337SOL     OW 5377   2.485   2.834   2.268
 1337SOL    HW2 5378   2.572   2.799   2.290
 1337SOL    HW3 5379   2.479   2.824   2.173
 1337SOL    MW4 5380   2.496   2.828   2.258
 1338SOL     OW 5381   2.492   3.107   2.352
 1338SOL    HW2 5382   2.560   3.143   2.295
 1338SOL    HW3 5383   2.499   3.012   2.339
 1338SOL    MW4 5384   2.502   3.099   2.342
 1339SOL     OW 5385   2.255   3.199   2.223
 1339SOL    HW2 5386   2.229   3.280   2.268
 1339SOL    HW3 5387   2.333   3.170   2.270
 1339SOL    MW4 5388   2.261   3.206   2.235
 1340SOL     OW 5389   2.214   3.451   2.328
 1340SOL    HW2 5390   2.210   3.458   2.424
 1340SOL    HW3 5391   2.168   3.528   2.296
 1340SOL    MW4 5392   2.207   3.462   2.337
 1341SOL     OW 5393   2.429   3.594   2.231
 1341SOL    HW2 5394   2.435   3.686   2.260
 1341SOL    HW3 5395   2.360   3.557   2.286
 1341SOL    MW4 5396   2.420   3.602   2.242
 1342SOL     OW 5397   2.439   3.863   2.320
 1342SOL    HW2 5398   2.438   3.866   2.415
 1342SOL    HW3 5399   2.375   3.929   2.293
 1342SOL    MW4 5400   2.430   3.872   2.329
 1343SOL     OW 5401   2.226   4.002   2.218
 1343SOL    HW2 5402   2.215   4.089   2.257
 1343SOL    HW3 5403   2.155   3.950   2.255
 1343SOL    MW4 5404   2.215   4.007   2.228
 1344SOL     OW 5405   2.233   4.238   2.335
 1344SOL    HW2 5406   2.243   4.239   2.430
 1344SOL    HW3 5407   2.162   4.300   2.317
 1344SOL    MW4 5408   2.225   4.246   2.345
 1345SOL     OW 5409   2.451   4.380   2.259
 1345SOL    HW2 5410   2.529   4.326   2.274
 1345SOL    HW3 5411   2.378   4.324   2.282
 1345SOL    MW4 5412   2.452   4.366   2.264
 1346SOL     OW 5413   2.898   0.017   2.369
 1346SOL    HW2 5414   2.986   0.040   2.340
 1346SOL    HW3 5415   2.889  -0.076   2.346
 1346SOL    MW4 5416   2.908   0.008   2.362
 1347SOL     OW 5417   2.656   0.098   2.267
 1347SOL    HW2 5418   2.650   0.191   2.286
 1347SOL    HW3 5419   2.739   0.071   2.307
 1347SOL    MW4 5420   2.666   0.106   2.275
 1348SOL     OW 5421   2.665   0.363   2.356
 1348SOL    HW2 5422   2.669   0.348   2.450
 1348SOL    HW3 5423   2.746   0.409   2.335
 1348SOL    MW4 5424   2.676   0.367   2.366
 1349SOL     OW 5425   2.902   0.514   2.272
 1349SOL    HW2 5426   2.911   0.602   2.309
 1349SOL    HW3 5427   2.895   0.529   2.178
 1349SOL    MW4 5428   2.903   0.528   2.265
 1350SOL     OW 5429   2.905   0.788   2.335
 1350SOL    HW2 5430   2.912   0.793   2.431
 1350SOL    HW3 5431   2.826   0.838   2.314
 1350SOL    MW4 5432   2.896   0.795   2.345
 1351SOL     OW 5433   2.659   0.907   2.264
 1351SOL    HW2 5434   2.639   0.997   2.289
 1351SOL    HW3 5435   2.680   0.912   2.171
 1351SOL    MW4 5436   2.659   0.920   2.255
 1352SOL     OW 5437   2.660   1.191   2.338
 1352SOL    HW2 5438   2.678   1.201   2.431
 1352SOL    HW3 5439   2.733   1.234   2.294
 1352SOL    MW4 5440   2.672   1.198   2.345
 1353SOL     OW 5441   2.900   1.282   2.227
 1353SOL    HW2 5442   2.973   1.232   2.261
 1353SOL    HW3 5443   2.901   1.265   2.132
 1353SOL    MW4 5444   2.909   1.273   2.219
 1354SOL     OW 5445   2.925   1.525   2.336
 1354SOL    HW2 5446   2.923   1.510   2.430
 1354SOL    HW3 5447   2.929   1.438   2.297
 1354SOL    MW4 5448   2.925   1.512   2.343
 1355SOL     OW 5449   2.705   1.686   2.249
 1355SOL    HW2 5450   2.778   1.629   2.272
 1355SOL    HW3 5451   2.692   1.672   2.155
 1355SOL    MW4 5452   2.713   1.677   2.240
 1356SOL     OW 5453   2.697   1.945   2.346
 1356SOL    HW2 5454   2.701   1.926   2.439
 1356SOL    HW3 5455   2.716   1.862   2.303
 1356SOL    MW4 5456   2.700   1.932   2.352
 1357SOL     OW 5457   2.897   2.073   2.243
 1357SOL    HW2 5458   2.973   2.035   2.286
 1357SOL    HW3 5459   2.823   2.021   2.275
 1357SOL    MW4 5460   2.897   2.061   2.253
 1358SOL     OW 5461   2.902   2.329   2.339
 1358SOL    HW2 5462   2.889   2.305   2.431
 1358SOL    HW3 5463   2.891   2.246   2.291
 1358SOL    MW4 5464   2.899   2.315   2.345
 1359SOL     OW 5465   2.676   2.451   2.251
 1359SOL    HW2 5466   2.758   2.428   2.293
 1359SOL    HW3 5467   2.690   2.433   2.158
 1359SOL    MW4 5468   2.688   2.446   2.244
 1360SOL     OW 5469   2.706   2.710   2.364
 1360SOL    HW2 5470   2.784   2.756   2.333
 1360SOL    HW3 5471   2.710   2.624   2.322
 1360SOL    MW4 5472   2.717   2.705   2.354
 1361SOL     OW 5473   2.947   2.808   2.264
 1361SOL    HW2 5474   2.941   2.901   2.286
 1361SOL    HW3 5475   2.959   2.807   2.169
 1361SOL    MW4 5476   2.948   2.820   2.254
 1362SOL     OW 5477   2.957   3.092   2.364
 1362SOL    HW2 5478   3.030   3.141   2.326
 1362SOL    HW3 5479   2.879   3.136   2.330
 1362SOL    MW4 5480   2.956   3.104   2.355
 1363SOL     OW 5481   2.752   3.200   2.205
 1363SOL    HW2 5482   2.713   3.279   2.241
 1363SOL    HW3 5483   2.715   3.194   2.116
 1363SOL    MW4 5484   2.742   3.210   2.198
 1364SOL     OW 5485   2.680   3.435   2.309
 1364SOL    HW2 5486   2.751   3.496   2.292
 1364SOL    HW3 5487   2.600   3.485   2.291
 1364SOL    MW4 5488   2.679   3.449   2.304
 1365SOL     OW 5489   2.897   3.600   2.271
 1365SOL    HW2 5490   2.984   3.568   2.291
 1365SOL    HW3 5491   2.895   3.690   2.305
 1365SOL    MW4 5492   2.908   3.608   2.278
 1366SOL     OW 5493   2.914   3.859   2.360
 1366SOL    HW2 5494   2.897   3.861   2.454
 1366SOL    HW3 5495   2.837   3.898   2.320
 1366SOL    MW4 5496   2.902   3.864   2.367
 1367SOL     OW 5497   2.687   3.975   2.245
 1367SOL    HW2 5498   2.608   3.921   2.257
 1367SOL    HW3 5499   2.681   4.005   2.155
 1367SOL    MW4 5500   2.676   3.972   2.235
 1368SOL     OW 5501   2.689   4.233   2.362
 1368SOL    HW2 5502   2.682   4.240   2.458
 1368SOL    HW3 5503   2.673   4.140   2.344
 1368SOL    MW4 5504   2.686   4.222   2.373
 1369SOL     OW 5505   2.869   4.428   2.277
 1369SOL    HW2 5506   2.941   4.374   2.309
 1369SOL    HW3 5507   2.791   4.374   2.289
 1369SOL    MW4 5508   2.868   4.413   2.283
 1370SOL     OW 5509   3.342   4.616   2.354
 1370SOL    HW2 5510   3.366   4.618   2.446
 1370SOL    HW3 5511   3.401   4.679   2.312
 1370SOL    MW4 5512   3.353   4.624   2.360
 1371SOL     OW 5513   3.134   0.116   2.247
 1371SOL    HW2 5514   3.141   0.206   2.278
 1371SOL    HW3 5515   3.204   0.069   2.294
 1371SOL    MW4 5516   3.144   0.122   2.258
 1372SOL     OW 5517   3.131   0.370   2.344
 1372SOL    HW2 5518   3.198   0.424   2.301
 1372SOL    HW3 5519   3.048   0.409   2.317
 1372SOL    MW4 5520   3.129   0.382   2.335
 1373SOL     OW 5521   3.331   0.540   2.261
 1373SOL    HW2 5522   3.414   0.497   2.282
 1373SOL    HW3 5523   3.326   0.538   2.166
 1373SOL    MW4 5524   3.341   0.534   2.251
 1374SOL     OW 5525   3.356   0.780   2.382
 1374SOL    HW2 5526   3.424   0.805   2.320
 1374SOL    HW3 5527   3.326   0.694   2.353
 1374SOL    MW4 5528   3.361   0.772   2.370
 1375SOL     OW 5529   3.135   0.916   2.239
 1375SOL    HW2 5530   3.206   0.889   2.297
 1375SOL    HW3 5531   3.057   0.875   2.277
 1375SOL    MW4 5532   3.134   0.907   2.252
 1376SOL     OW 5533   3.099   1.154   2.358
 1376SOL    HW2 5534   3.177   1.206   2.336
 1376SOL    HW3 5535   3.118   1.066   2.324
 1376SOL    MW4 5536   3.112   1.149   2.351
 1377SOL     OW 5537   3.331   1.295   2.263
 1377SOL    HW2 5538   3.407   1.241   2.286
 1377SOL    HW3 5539   3.355   1.383   2.292
 1377SOL    MW4 5540   3.344   1.300   2.270
 1378SOL     OW 5541   3.345   1.560   2.361
 1378SOL    HW2 5542   3.348   1.556   2.457
 1378SOL    HW3 5543   3.259   1.598   2.342
 1378SOL    MW4 5544   3.334   1.564   2.371
 1379SOL     OW 5545   3.131   1.680   2.251
 1379SOL    HW2 5546   3.113   1.766   2.287
 1379SOL    HW3 5547   3.060   1.625   2.284
 1379SOL    MW4 5548   3.119   1.684   2.260
 1380SOL     OW 5549   3.117   1.944   2.353
 1380SOL    HW2 5550   3.135   1.942   2.447
 1380SOL    HW3 5551   3.201   1.968   2.314
 1380SOL    MW4 5552   3.131   1.947   2.360
 1381SOL     OW 5553   3.334   2.074   2.244
 1381SOL    HW2 5554   3.420   2.035   2.257
 1381SOL    HW3 5555   3.324   2.080   2.149
 1381SOL    MW4 5556   3.344   2.070   2.233
 1382SOL     OW 5557   3.336   2.336   2.360
 1382SOL    HW2 5558   3.270   2.390   2.318
 1382SOL    HW3 5559   3.341   2.258   2.305
 1382SOL    MW4 5560   3.328   2.333   2.347
 1383SOL     OW 5561   3.120   2.472   2.253
 1383SOL    HW2 5562   3.139   2.548   2.308
 1383SOL    HW3 5563   3.050   2.426   2.298
 1383SOL    MW4 5564   3.113   2.476   2.266
 1384SOL     OW 5565   3.180   2.719   2.369
 1384SOL    HW2 5566   3.187   2.713   2.464
 1384SOL    HW3 5567   3.089   2.744   2.353
 1384SOL    MW4 5568   3.169   2.721   2.379
 1385SOL     OW 5569   3.405   2.835   2.246
 1385SOL    HW2 5570   3.415   2.922   2.285
 1385SOL    HW3 5571   3.334   2.795   2.295
 1385SOL    MW4 5572   3.397   2.842   2.258
 1386SOL     OW 5573   3.430   3.091   2.352
 1386SOL    HW2 5574   3.500   3.134   2.303
 1386SOL    HW3 5575   3.350   3.135   2.324
 1386SOL    MW4 5576   3.429   3.103   2.342
 1387SOL     OW 5577   3.182   3.220   2.261
 1387SOL    HW2 5578   3.152   3.301   2.304
 1387SOL    HW3 5579   3.169   3.237   2.168
 1387SOL    MW4 5580   3.176   3.233   2.255
 1388SOL     OW 5581   3.137   3.490   2.363
 1388SOL    HW2 5582   3.167   3.480   2.453
 1388SOL    HW3 5583   3.214   3.519   2.315
 1388SOL    MW4 5584   3.151   3.492   2.368
 1389SOL     OW 5585   3.386   3.602   2.252
 1389SOL    HW2 5586   3.455   3.551   2.293
 1389SOL    HW3 5587   3.392   3.582   2.159
 1389SOL    MW4 5588   3.396   3.593   2.245
 1390SOL     OW 5589   3.371   3.872   2.376
 1390SOL    HW2 5590   3.450   3.902   2.331
 1390SOL    HW3 5591   3.350   3.787   2.337
 1390SOL    MW4 5592   3.378   3.865   2.365
 1391SOL     OW 5593   3.144   4.015   2.284
 1391SOL    HW2 5594   3.222   3.984   2.330
 1391SOL    HW3 5595   3.074   3.955   2.310
 1391SOL    MW4 5596   3.145   4.003   2.294
 1392SOL     OW 5597   3.094   4.283   2.351
 1392SOL    HW2 5598   3.174   4.314   2.311
 1392SOL    HW3 5599   3.091   4.190   2.329
 1392SOL    MW4 5600   3.104   4.275   2.343
 1393SOL     OW 5601   3.355   4.372   2.223
 1393SOL    HW2 5602   3.353   4.461   2.257
 1393SOL    HW3 5603   3.348   4.381   2.128
 1393SOL    MW4 5604   3.354   4.385   2.215
 1394SOL     OW 5605   3.793   4.666   2.346
 1394SOL    HW2 5606   3.805   4.644   2.439
 1394SOL    HW3 5607   3.880   4.692   2.316
 1394SOL    MW4 5608   3.806   4.666   2.354
 1395SOL     OW 5609   3.548   0.132   2.287
 1395SOL    HW2 5610   3.554   0.226   2.307
 1395SOL    HW3 5611   3.632   0.096   2.316
 1395SOL    MW4 5612   3.560   0.140   2.294
 1396SOL     OW 5613   3.563   0.392   2.368
 1396SOL    HW2 5614   3.577   0.379   2.462
 1396SOL    HW3 5615   3.650   0.414   2.334
 1396SOL    MW4 5616   3.577   0.393   2.376
 1397SOL     OW 5617   3.809   0.485   2.248
 1397SOL    HW2 5618   3.808   0.578   2.270
 1397SOL    HW3 5619   3.815   0.483   2.152
 1397SOL    MW4 5620   3.809   0.497   2.238
 1398SOL     OW 5621   3.794   0.750   2.315
 1398SOL    HW2 5622   3.799   0.762   2.409
 1398SOL    HW3 5623   3.867   0.802   2.280
 1398SOL    MW4 5624   3.804   0.758   2.323
 1399SOL     OW 5625   3.557   0.904   2.220
 1399SOL    HW2 5626   3.628   0.849   2.253
 1399SOL    HW3 5627   3.562   0.893   2.125
 1399SOL    MW4 5628   3.567   0.895   2.211
 1400SOL     OW 5629   3.562   1.179   2.326
 1400SOL    HW2 5630   3.587   1.173   2.418
 1400SOL    HW3 5631   3.551   1.089   2.298
 1400SOL    MW4 5632   3.564   1.166   2.334
 1401SOL     OW 5633   3.799   1.285   2.227
 1401SOL    HW2 5634   3.802   1.370   2.271
 1401SOL    HW3 5635   3.714   1.248   2.252
 1401SOL    MW4 5636   3.788   1.291   2.236
 1402SOL     OW 5637   3.812   1.559   2.343
 1402SOL    HW2 5638   3.798   1.540   2.436
 1402SOL    HW3 5639   3.727   1.591   2.312
 1402SOL    MW4 5640   3.799   1.561   2.351
 1403SOL     OW 5641   3.571   1.663   2.248
 1403SOL    HW2 5642   3.490   1.638   2.293
 1403SOL    HW3 5643   3.545   1.671   2.156
 1403SOL    MW4 5644   3.557   1.661   2.241
 1404SOL     OW 5645   3.573   1.945   2.341
 1404SOL    HW2 5646   3.661   1.980   2.332
 1404SOL    HW3 5647   3.580   1.855   2.308
 1404SOL    MW4 5648   3.586   1.938   2.335
 1405SOL     OW 5649   3.819   2.044   2.274
 1405SOL    HW2 5650   3.897   2.003   2.312
 1405SOL    HW3 5651   3.830   2.035   2.179
 1405SOL    MW4 5652   3.831   2.037   2.267
 1406SOL     OW 5653   3.843   2.320   2.326
 1406SOL    HW2 5654   3.752   2.348   2.312
 1406SOL    HW3 5655   3.840   2.225   2.314
 1406SOL    MW4 5656   3.831   2.311   2.323
 1407SOL     OW 5657   3.595   2.431   2.300
 1407SOL    HW2 5658   3.513   2.402   2.341
 1407SOL    HW3 5659   3.573   2.439   2.207
 1407SOL    MW4 5660   3.581   2.428   2.293
 1408SOL     OW 5661   3.624   2.702   2.385
 1408SOL    HW2 5662   3.613   2.612   2.352
 1408SOL    HW3 5663   3.556   2.752   2.339
 1408SOL    MW4 5664   3.613   2.697   2.375
 1409SOL     OW 5665   3.827   2.839   2.256
 1409SOL    HW2 5666   3.832   2.927   2.292
 1409SOL    HW3 5667   3.764   2.794   2.312
 1409SOL    MW4 5668   3.819   2.844   2.268
 1410SOL     OW 5669   3.815   3.111   2.332
 1410SOL    HW2 5670   3.801   3.124   2.426
 1410SOL    HW3 5671   3.896   3.160   2.314
 1410SOL    MW4 5672   3.824   3.119   2.342
 1411SOL     OW 5673   3.619   3.249   2.198
 1411SOL    HW2 5674   3.586   3.321   2.252
 1411SOL    HW3 5675   3.692   3.213   2.247
 1411SOL    MW4 5676   3.624   3.254   2.211
 1412SOL     OW 5677   3.591   3.476   2.356
 1412SOL    HW2 5678   3.598   3.466   2.451
 1412SOL    HW3 5679   3.678   3.505   2.329
 1412SOL    MW4 5680   3.603   3.478   2.365
 1413SOL     OW 5681   3.806   3.609   2.247
 1413SOL    HW2 5682   3.795   3.698   2.280
 1413SOL    HW3 5683   3.797   3.617   2.152
 1413SOL    MW4 5684   3.803   3.622   2.239
 1414SOL     OW 5685   3.777   3.876   2.350
 1414SOL    HW2 5686   3.778   3.896   2.444
 1414SOL    HW3 5687   3.854   3.923   2.316
 1414SOL    MW4 5688   3.788   3.885   2.358
 1415SOL     OW 5689   3.562   3.997   2.235
 1415SOL    HW2 5690   3.560   4.076   2.288
 1415SOL    HW3 5691   3.632   3.944   2.274
 1415SOL    MW4 5692   3.571   4.001   2.247
 1416SOL     OW 5693   3.552   4.241   2.366
 1416SOL    HW2 5694   3.626   4.299   2.349
 1416SOL    HW3 5695   3.482   4.275   2.310
 1416SOL    MW4 5696   3.552   4.253   2.356
 1417SOL     OW 5697   3.772   4.383   2.274
 1417SOL    HW2 5698   3.864   4.359   2.283
 1417SOL    HW3 5699   3.770   4.477   2.291
 1417SOL    MW4 5700   3.784   4.392   2.278
 1418SOL     OW 5701   4.268   4.639   2.360
 1418SOL    HW2 5702   4.270   4.643   2.456
 1418SOL    HW3 5703   4.343   4.692   2.333
 1418SOL    MW4 5704   4.278   4.647   2.369
 1419SOL     OW 5705   4.042   0.106   2.276
 1419SOL    HW2 5706   4.039   0.194   2.312
 1419SOL    HW3 5707   4.117   0.065   2.319
 1419SOL    MW4 5708   4.051   0.112   2.286
 1420SOL     OW 5709   4.029   0.352   2.382
 1420SOL    HW2 5710   4.111   0.399   2.378
 1420SOL    HW3 5711   3.967   0.406   2.333
 1420SOL    MW4 5712   4.031   0.365   2.375
 1421SOL     OW 5713   4.272   0.485   2.313
 1421SOL    HW2 5714   4.278   0.577   2.340
 1421SOL    HW3 5715   4.354   0.446   2.343
 1421SOL    MW4 5716   4.284   0.492   2.320
 1422SOL     OW 5717   4.270   0.740   2.380
 1422SOL    HW2 5718   4.198   0.791   2.344
 1422SOL    HW3 5719   4.349   0.780   2.343
 1422SOL    MW4 5720   4.271   0.752   2.371
 1423SOL     OW 5721   4.060   0.874   2.213
 1423SOL    HW2 5722   4.039   0.958   2.252
 1423SOL    HW3 5723   4.042   0.886   2.119
 1423SOL    MW4 5724   4.055   0.886   2.206
 1424SOL     OW 5725   4.018   1.133   2.299
 1424SOL    HW2 5726   4.017   1.140   2.394
 1424SOL    HW3 5727   3.934   1.171   2.272
 1424SOL    MW4 5728   4.007   1.139   2.308
 1425SOL     OW 5729   4.235   1.303   2.245
 1425SOL    HW2 5730   4.154   1.258   2.270
 1425SOL    HW3 5731   4.305   1.250   2.284
 1425SOL    MW4 5732   4.234   1.290   2.254
 1426SOL     OW 5733   4.251   1.549   2.353
 1426SOL    HW2 5734   4.248   1.462   2.313
 1426SOL    HW3 5735   4.334   1.586   2.324
 1426SOL    MW4 5736   4.261   1.543   2.344
 1427SOL     OW 5737   4.020   1.693   2.241
 1427SOL    HW2 5738   4.087   1.644   2.290
 1427SOL    HW3 5739   3.939   1.646   2.259
 1427SOL    MW4 5740   4.018   1.680   2.250
 1428SOL     OW 5741   4.056   1.948   2.382
 1428SOL    HW2 5742   4.043   1.939   2.477
 1428SOL    HW3 5743   4.063   1.858   2.351
 1428SOL    MW4 5744   4.055   1.935   2.391
 1429SOL     OW 5745   4.291   2.038   2.275
 1429SOL    HW2 5746   4.317   2.128   2.294
 1429SOL    HW3 5747   4.211   2.024   2.326
 1429SOL    MW4 5748   4.284   2.048   2.284
 1430SOL     OW 5749   4.329   2.306   2.323
 1430SOL    HW2 5750   4.248   2.355   2.309
 1430SOL    HW3 5751   4.397   2.358   2.282
 1430SOL    MW4 5752   4.327   2.319   2.316
 1431SOL     OW 5753   4.079   2.435   2.248
 1431SOL    HW2 5754   4.058   2.527   2.264
 1431SOL    HW3 5755   4.004   2.387   2.282
 1431SOL    MW4 5756   4.066   2.441   2.255
 1432SOL     OW 5757   4.053   2.707   2.292
 1432SOL    HW2 5758   4.055   2.697   2.388
 1432SOL    HW3 5759   3.967   2.744   2.274
 1432SOL    MW4 5760   4.042   2.710   2.302
 1433SOL     OW 5761   4.285   2.816   2.226
 1433SOL    HW2 5762   4.205   2.769   2.252
 1433SOL    HW3 5763   4.355   2.774   2.277
 1433SOL    MW4 5764   4.284   2.804   2.236
 1434SOL     OW 5765   4.264   3.072   2.336
 1434SOL    HW2 5766   4.270   2.981   2.307
 1434SOL    HW3 5767   4.348   3.111   2.312
 1434SOL    MW4 5768   4.276   3.065   2.329
 1435SOL     OW 5769   4.051   3.230   2.241
 1435SOL    HW2 5770   4.069   3.313   2.285
 1435SOL    HW3 5771   4.133   3.181   2.247
 1435SOL    MW4 5772   4.064   3.235   2.247
 1436SOL     OW 5773   4.049   3.478   2.342
 1436SOL    HW2 5774   4.123   3.535   2.321
 1436SOL    HW3 5775   3.972   3.532   2.328
 1436SOL    MW4 5776   4.049   3.493   2.337
 1437SOL     OW 5777   4.285   3.635   2.291
 1437SOL    HW2 5778   4.272   3.725   2.322
 1437SOL    HW3 5779   4.283   3.642   2.196
 1437SOL    MW4 5780   4.283   3.648   2.283
 1438SOL     OW 5781   4.222   3.890   2.364
 1438SOL    HW2 5782   4.224   3.877   2.459
 1438SOL    HW3 5783   4.306   3.932   2.344
 1438SOL    MW4 5784   4.234   3.894   2.374
 1439SOL     OW 5785   4.003   4.019   2.252
 1439SOL    HW2 5786   4.077   3.977   2.296
 1439SOL    HW3 5787   4.011   3.993   2.161
 1439SOL    MW4 5788   4.014   4.010   2.246
 1440SOL     OW 5789   4.030   4.288   2.344
 1440SOL    HW2 5790   4.116   4.326   2.323
 1440SOL    HW3 5791   4.038   4.196   2.319
 1440SOL    MW4 5792   4.042   4.281   2.338
 1441SOL     OW 5793   4.279   4.396   2.269
 1441SOL    HW2 5794   4.279   4.485   2.304
 1441SOL    HW3 5795   4.356   4.355   2.309
 1441SOL    MW4 5796   4.289   4.402   2.279
 1442SOL     OW 5797   0.218   4.655   2.624
 1442SOL    HW2 5798   0.211   4.573   2.674
 1442SOL    HW3 5799   0.154   4.713   2.665
 1442SOL    MW4 5800   0.209   4.652   2.636
 1443SOL     OW 5801   4.486   0.104   2.746
 1443SOL    HW2 5802   4.485   0.104   2.841
 1443SOL    HW3 5803   4.475   0.195   2.721
 1443SOL    MW4 5804   4.485   0.116   2.755
 1444SOL     OW 5805   4.471   0.384   2.652
 1444SOL    HW2 5806   4.544   0.435   2.687
 1444SOL    HW3 5807   4.482   0.389   2.557
 1444SOL    MW4 5808   4.482   0.391   2.644
 1445SOL     OW 5809   0.210   0.523   2.735
 1445SOL    HW2 5810   0.219   0.521   2.830
 1445SOL    HW3 5811   0.267   0.453   2.704
 1445SOL    MW4 5812   0.219   0.514   2.744
 1446SOL     OW 5813   0.199   0.779   2.658
 1446SOL    HW2 5814   0.274   0.826   2.695
 1446SOL    HW3 5815   0.211   0.689   2.688
 1446SOL    MW4 5816   0.211   0.773   2.667
 1447SOL     OW 5817   4.471   0.902   2.781
 1447SOL    HW2 5818   4.399   0.850   2.743
 1447SOL    HW3 5819   4.549   0.872   2.735
 1447SOL    MW4 5820   4.472   0.891   2.770
 1448SOL     OW 5821   4.461   1.168   2.652
 1448SOL    HW2 5822   4.539   1.218   2.680
 1448SOL    HW3 5823   4.469   1.084   2.698
 1448SOL    MW4 5824   4.472   1.164   2.662
 1449SOL     OW 5825   0.209   1.260   2.743
 1449SOL    HW2 5826   0.271   1.214   2.687
 1449SOL    HW3 5827   0.198   1.346   2.702
 1449SOL    MW4 5828   0.216   1.265   2.730
 1450SOL     OW 5829   0.217   1.522   2.643
 1450SOL    HW2 5830   0.297   1.537   2.693
 1450SOL    HW3 5831   0.149   1.567   2.692
 1450SOL    MW4 5832   0.219   1.530   2.656
 1451SOL     OW 5833   4.477   1.622   2.733
 1451SOL    HW2 5834   4.477   1.613   2.828
 1451SOL    HW3 5835   4.460   1.714   2.717
 1451SOL    MW4 5836   4.475   1.633   2.743
 1452SOL     OW 5837   4.474   1.893   2.645
 1452SOL    HW2 5838   4.554   1.939   2.674
 1452SOL    HW3 5839   4.487   1.881   2.551
 1452SOL    MW4 5840   4.487   1.898   2.637
 1453SOL     OW 5841   0.216   2.022   2.738
 1453SOL    HW2 5842   0.289   1.970   2.703
 1453SOL    HW3 5843   0.231   2.110   2.704
 1453SOL    MW4 5844   0.228   2.026   2.729
 1454SOL     OW 5845   0.243   2.286   2.635
 1454SOL    HW2 5846   0.318   2.329   2.676
 1454SOL    HW3 5847   0.169   2.343   2.655
 1454SOL    MW4 5848   0.243   2.299   2.643
 1455SOL     OW 5849   0.020   2.428   2.733
 1455SOL    HW2 5850  -0.005   2.436   2.825
 1455SOL    HW3 5851  -0.043   2.366   2.697
 1455SOL    MW4 5852   0.009   2.421   2.741
 1456SOL     OW 5853   4.489   2.691   2.626
 1456SOL    HW2 5854   4.405   2.733   2.641
 1456SOL    HW3 5855   4.483   2.608   2.673
 1456SOL    MW4 5856   4.477   2.685   2.634
 1457SOL     OW 5857   0.233   2.800   2.725
 1457SOL    HW2 5858   0.230   2.896   2.714
 1457SOL    HW3 5859   0.153   2.769   2.682
 1457SOL    MW4 5860   0.222   2.809   2.718
 1458SOL     OW 5861   0.225   3.058   2.656
 1458SOL    HW2 5862   0.290   3.120   2.688
 1458SOL    HW3 5863   0.232   3.062   2.561
 1458SOL    MW4 5864   0.234   3.067   2.648
 1459SOL     OW 5865   4.481   3.216   2.720
 1459SOL    HW2 5866   4.406   3.165   2.689
 1459SOL    HW3 5867   4.558   3.165   2.695
 1459SOL    MW4 5868   4.481   3.203   2.713
 1460SOL     OW 5869   4.490   3.480   2.642
 1460SOL    HW2 5870   4.560   3.521   2.693
 1460SOL    HW3 5871   4.487   3.390   2.674
 1460SOL    MW4 5872   4.499   3.474   2.653
 1461SOL     OW 5873   0.225   3.613   2.749
 1461SOL    HW2 5874   0.248   3.607   2.842
 1461SOL    HW3 5875   0.292   3.562   2.704
 1461SOL    MW4 5876   0.237   3.606   2.755
 1462SOL     OW 5877   0.198   3.871   2.667
 1462SOL    HW2 5878   0.194   3.782   2.701
 1462SOL    HW3 5879   0.195   3.860   2.572
 1462SOL    MW4 5880   0.197   3.858   2.659
 1463SOL     OW 5881   4.462   4.011   2.741
 1463SOL    HW2 5882   4.485   4.098   2.708
 1463SOL    HW3 5883   4.541   3.959   2.726
 1463SOL    MW4 5884   4.476   4.016   2.735
 1464SOL     OW 5885   0.035   4.276   2.648
 1464SOL    HW2 5886  -0.054   4.306   2.665
 1464SOL    HW3 5887   0.091   4.340   2.691
 1464SOL    MW4 5888   0.031   4.288   2.656
 1465SOL     OW 5889   0.225   4.413   2.770
 1465SOL    HW2 5890   0.230   4.391   2.863
 1465SOL    HW3 5891   0.300   4.369   2.731
 1465SOL    MW4 5892   0.236   4.404   2.777
 1466SOL     OW 5893   0.654   4.598   2.634
 1466SOL    HW2 5894   0.734   4.645   2.656
 1466SOL    HW3 5895   0.583   4.657   2.658
 1466SOL    MW4 5896   0.655   4.612   2.640
 1467SOL     OW 5897   0.453   0.104   2.692
 1467SOL    HW2 5898   0.456   0.089   2.787
 1467SOL    HW3 5899   0.370   0.064   2.664
 1467SOL    MW4 5900   0.442   0.097   2.701
 1468SOL     OW 5901   0.408   0.369   2.620
 1468SOL    HW2 5902   0.489   0.407   2.654
 1468SOL    HW3 5903   0.416   0.275   2.640
 1468SOL    MW4 5904   0.420   0.361   2.627
 1469SOL     OW 5905   0.641   0.487   2.718
 1469SOL    HW2 5906   0.634   0.473   2.812
 1469SOL    HW3 5907   0.709   0.426   2.689
 1469SOL    MW4 5908   0.649   0.477   2.726
 1470SOL     OW 5909   0.590   0.749   2.620
 1470SOL    HW2 5910   0.672   0.790   2.647
 1470SOL    HW3 5911   0.597   0.659   2.654
 1470SOL    MW4 5912   0.602   0.742   2.628
 1471SOL     OW 5913   0.416   0.909   2.773
 1471SOL    HW2 5914   0.415   0.992   2.726
 1471SOL    HW3 5915   0.484   0.858   2.728
 1471SOL    MW4 5916   0.425   0.913   2.761
 1472SOL     OW 5917   0.404   1.139   2.599
 1472SOL    HW2 5918   0.489   1.172   2.629
 1472SOL    HW3 5919   0.415   1.128   2.504
 1472SOL    MW4 5920   0.417   1.142   2.590
 1473SOL     OW 5921   0.641   1.227   2.706
 1473SOL    HW2 5922   0.648   1.253   2.798
 1473SOL    HW3 5923   0.723   1.183   2.687
 1473SOL    MW4 5924   0.653   1.225   2.716
 1474SOL     OW 5925   0.680   1.495   2.654
 1474SOL    HW2 5926   0.603   1.535   2.694
 1474SOL    HW3 5927   0.671   1.401   2.673
 1474SOL    MW4 5928   0.668   1.488   2.661
 1475SOL     OW 5929   0.465   1.627   2.752
 1475SOL    HW2 5930   0.470   1.633   2.848
 1475SOL    HW3 5931   0.464   1.718   2.723
 1475SOL    MW4 5932   0.466   1.640   2.761
 1476SOL     OW 5933   0.446   1.884   2.640
 1476SOL    HW2 5934   0.535   1.913   2.658
 1476SOL    HW3 5935   0.439   1.885   2.545
 1476SOL    MW4 5936   0.457   1.888   2.630
 1477SOL     OW 5937   0.678   2.006   2.719
 1477SOL    HW2 5938   0.682   2.019   2.814
 1477SOL    HW3 5939   0.766   1.976   2.695
 1477SOL    MW4 5940   0.690   2.004   2.728
 1478SOL     OW 5941   0.691   2.259   2.605
 1478SOL    HW2 5942   0.760   2.297   2.659
 1478SOL    HW3 5943   0.679   2.170   2.639
 1478SOL    MW4 5944   0.698   2.252   2.616
 1479SOL     OW 5945   0.489   2.389   2.736
 1479SOL    HW2 5946   0.469   2.464   2.680
 1479SOL    HW3 5947   0.551   2.336   2.685
 1479SOL    MW4 5948   0.494   2.392   2.722
 1480SOL     OW 5949   0.426   2.635   2.614
 1480SOL    HW2 5950   0.495   2.690   2.651
 1480SOL    HW3 5951   0.345   2.668   2.652
 1480SOL    MW4 5952   0.424   2.646   2.624
 1481SOL     OW 5953   0.644   2.785   2.704
 1481SOL    HW2 5954   0.658   2.789   2.798
 1481SOL    HW3 5955   0.655   2.875   2.674
 1481SOL    MW4 5956   0.648   2.797   2.712
 1482SOL     OW 5957   0.687   3.051   2.636
 1482SOL    HW2 5958   0.764   3.097   2.669
 1482SOL    HW3 5959   0.698   3.052   2.541
 1482SOL    MW4 5960   0.698   3.057   2.628
 1483SOL     OW 5961   0.468   3.196   2.715
 1483SOL    HW2 5962   0.466   3.188   2.811
 1483SOL    HW3 5963   0.546   3.146   2.689
 1483SOL    MW4 5964   0.478   3.188   2.724
 1484SOL     OW 5965   0.480   3.454   2.642
 1484SOL    HW2 5966   0.476   3.364   2.674
 1484SOL    HW3 5967   0.448   3.449   2.551
 1484SOL    MW4 5968   0.475   3.441   2.634
 1485SOL     OW 5969   0.685   3.619   2.729
 1485SOL    HW2 5970   0.698   3.613   2.824
 1485SOL    HW3 5971   0.609   3.563   2.712
 1485SOL    MW4 5972   0.677   3.611   2.740
 1486SOL     OW 5973   0.682   3.884   2.645
 1486SOL    HW2 5974   0.603   3.916   2.689
 1486SOL    HW3 5975   0.688   3.792   2.672
 1486SOL    MW4 5976   0.672   3.876   2.655
 1487SOL     OW 5977   0.437   3.974   2.754
 1487SOL    HW2 5978   0.431   4.068   2.735
 1487SOL    HW3 5979   0.351   3.939   2.729
 1487SOL    MW4 5980   0.425   3.982   2.748
 1488SOL     OW 5981   0.426   4.251   2.679
 1488SOL    HW2 5982   0.511   4.276   2.716
 1488SOL    HW3 5983   0.444   4.243   2.585
 1488SOL    MW4 5984   0.440   4.253   2.671
 1489SOL     OW 5985   0.647   4.359   2.776
 1489SOL    HW2 5986   0.732   4.327   2.743
 1489SOL    HW3 5987   0.636   4.444   2.733
 1489SOL    MW4 5988   0.657   4.366   2.766
 1490SOL     OW 5989   1.121   4.594   2.618
 1490SOL    HW2 5990   1.186   4.655   2.651
 1490SOL    HW3 5991   1.128   4.518   2.675
 1490SOL    MW4 5992   1.130   4.592   2.630
 1491SOL     OW 5993   0.886   0.048   2.732
 1491SOL    HW2 5994   0.895   0.056   2.827
 1491SOL    HW3 5995   0.964   0.000   2.704
 1491SOL    MW4 5996   0.898   0.043   2.741
 1492SOL     OW 5997   0.871   0.305   2.642
 1492SOL    HW2 5998   0.900   0.219   2.672
 1492SOL    HW3 5999   0.859   0.295   2.548
 1492SOL    MW4 6000   0.873   0.292   2.634
 1493SOL     OW 6001   1.084   0.447   2.750
 1493SOL    HW2 6002   1.083   0.538   2.720
 1493SOL    HW3 6003   1.013   0.405   2.702
 1493SOL    MW4 6004   1.075   0.454   2.740
 1494SOL     OW 6005   1.077   0.695   2.641
 1494SOL    HW2 6006   1.142   0.751   2.683
 1494SOL    HW3 6007   1.100   0.697   2.548
 1494SOL    MW4 6008   1.088   0.703   2.634
 1495SOL     OW 6009   0.857   0.846   2.710
 1495SOL    HW2 6010   0.861   0.857   2.805
 1495SOL    HW3 6011   0.932   0.791   2.689
 1495SOL    MW4 6012   0.867   0.840   2.720
 1496SOL     OW 6013   0.875   1.113   2.624
 1496SOL    HW2 6014   0.885   1.019   2.642
 1496SOL    HW3 6015   0.871   1.118   2.528
 1496SOL    MW4 6016   0.876   1.101   2.614
 1497SOL     OW 6017   1.103   1.215   2.731
 1497SOL    HW2 6018   1.106   1.305   2.699
 1497SOL    HW3 6019   1.015   1.185   2.709
 1497SOL    MW4 6020   1.092   1.223   2.724
 1498SOL     OW 6021   1.111   1.510   2.620
 1498SOL    HW2 6022   1.038   1.567   2.643
 1498SOL    HW3 6023   1.114   1.511   2.525
 1498SOL    MW4 6024   1.102   1.518   2.611
 1499SOL     OW 6025   0.901   1.645   2.716
 1499SOL    HW2 6026   0.913   1.631   2.810
 1499SOL    HW3 6027   0.835   1.581   2.690
 1499SOL    MW4 6028   0.894   1.634   2.725
 1500SOL     OW 6029   0.914   1.905   2.631
 1500SOL    HW2 6030   0.979   1.943   2.689
 1500SOL    HW3 6031   0.910   1.813   2.656
 1500SOL    MW4 6032   0.922   1.898   2.642
 1501SOL     OW 6033   1.117   2.037   2.761
 1501SOL    HW2 6034   1.194   1.988   2.734
 1501SOL    HW3 6035   1.129   2.125   2.725
 1501SOL    MW4 6036   1.129   2.042   2.753
 1502SOL     OW 6037   1.151   2.301   2.683
 1502SOL    HW2 6038   1.215   2.364   2.717
 1502SOL    HW3 6039   1.163   2.303   2.588
 1502SOL    MW4 6040   1.161   2.310   2.675
 1503SOL     OW 6041   0.886   2.384   2.748
 1503SOL    HW2 6042   0.885   2.477   2.724
 1503SOL    HW3 6043   0.970   2.352   2.715
 1503SOL    MW4 6044   0.897   2.392   2.740
 1504SOL     OW 6045   0.884   2.640   2.660
 1504SOL    HW2 6046   0.949   2.700   2.696
 1504SOL    HW3 6047   0.800   2.681   2.680
 1504SOL    MW4 6048   0.882   2.654   2.667
 1505SOL     OW 6049   1.083   2.832   2.722
 1505SOL    HW2 6050   1.106   2.825   2.815
 1505SOL    HW3 6051   1.159   2.795   2.676
 1505SOL    MW4 6052   1.096   2.826   2.728
 1506SOL     OW 6053   1.148   3.096   2.631
 1506SOL    HW2 6054   1.122   3.007   2.654
 1506SOL    HW3 6055   1.136   3.101   2.536
 1506SOL    MW4 6056   1.143   3.085   2.621
 1507SOL     OW 6057   0.919   3.208   2.733
 1507SOL    HW2 6058   0.903   3.286   2.680
 1507SOL    HW3 6059   1.006   3.179   2.705
 1507SOL    MW4 6060   0.928   3.215   2.722
 1508SOL     OW 6061   0.887   3.462   2.622
 1508SOL    HW2 6062   0.961   3.508   2.663
 1508SOL    HW3 6063   0.810   3.512   2.651
 1508SOL    MW4 6064   0.887   3.475   2.631
 1509SOL     OW 6065   1.102   3.599   2.735
 1509SOL    HW2 6066   1.101   3.626   2.827
 1509SOL    HW3 6067   1.100   3.681   2.686
 1509SOL    MW4 6068   1.102   3.613   2.741
 1510SOL     OW 6069   1.098   3.851   2.612
 1510SOL    HW2 6070   1.178   3.889   2.650
 1510SOL    HW3 6071   1.110   3.859   2.518
 1510SOL    MW4 6072   1.110   3.857   2.605
 1511SOL     OW 6073   0.893   4.008   2.743
 1511SOL    HW2 6074   0.958   3.963   2.689
 1511SOL    HW3 6075   0.809   3.970   2.716
 1511SOL    MW4 6076   0.890   3.997   2.733
 1512SOL     OW 6077   0.888   4.266   2.658
 1512SOL    HW2 6078   0.892   4.174   2.683
 1512SOL    HW3 6079   0.884   4.265   2.562
 1512SOL    MW4 6080   0.888   4.254   2.649
 1513SOL     OW 6081   1.144   4.351   2.726
 1513SOL    HW2 6082   1.137   4.378   2.818
 1513SOL    HW3 6083   1.055   4.327   2.701
 1513SOL    MW4 6084   1.131   4.351   2.735
 1514SOL     OW 6085   1.544   4.633   2.627
 1514SOL    HW2 6086   1.557   4.541   2.649
 1514SOL    HW3 6087   1.554   4.637   2.532
 1514SOL    MW4 6088   1.547   4.622   2.618
 1515SOL     OW 6089   1.317   0.108   2.721
 1515SOL    HW2 6090   1.337   0.198   2.697
 1515SOL    HW3 6091   1.395   0.059   2.697
 1515SOL    MW4 6092   1.330   0.113   2.715
 1516SOL     OW 6093   1.323   0.374   2.622
 1516SOL    HW2 6094   1.388   0.434   2.660
 1516SOL    HW3 6095   1.239   0.403   2.659
 1516SOL    MW4 6096   1.321   0.386   2.632
 1517SOL     OW 6097   1.547   0.518   2.738
 1517SOL    HW2 6098   1.624   0.476   2.698
 1517SOL    HW3 6099   1.550   0.608   2.705
 1517SOL    MW4 6100   1.558   0.524   2.728
 1518SOL     OW 6101   1.545   0.770   2.640
 1518SOL    HW2 6102   1.468   0.816   2.675
 1518SOL    HW3 6103   1.534   0.776   2.545
 1518SOL    MW4 6104   1.533   0.777   2.632
 1519SOL     OW 6105   1.305   0.856   2.741
 1519SOL    HW2 6106   1.308   0.863   2.836
 1519SOL    HW3 6107   1.315   0.946   2.710
 1519SOL    MW4 6108   1.307   0.869   2.750
 1520SOL     OW 6109   1.335   1.135   2.612
 1520SOL    HW2 6110   1.403   1.188   2.651
 1520SOL    HW3 6111   1.253   1.168   2.650
 1520SOL    MW4 6112   1.333   1.146   2.622
 1521SOL     OW 6113   1.552   1.282   2.746
 1521SOL    HW2 6114   1.545   1.296   2.841
 1521SOL    HW3 6115   1.635   1.236   2.735
 1521SOL    MW4 6116   1.562   1.278   2.757
 1522SOL     OW 6117   1.568   1.518   2.616
 1522SOL    HW2 6118   1.563   1.429   2.651
 1522SOL    HW3 6119   1.585   1.505   2.523
 1522SOL    MW4 6120   1.570   1.505   2.608
 1523SOL     OW 6121   1.322   1.639   2.753
 1523SOL    HW2 6122   1.392   1.590   2.710
 1523SOL    HW3 6123   1.242   1.611   2.709
 1523SOL    MW4 6124   1.321   1.629   2.742
 1524SOL     OW 6125   1.345   1.910   2.632
 1524SOL    HW2 6126   1.352   1.818   2.657
 1524SOL    HW3 6127   1.353   1.910   2.537
 1524SOL    MW4 6128   1.347   1.898   2.623
 1525SOL     OW 6129   1.536   2.062   2.737
 1525SOL    HW2 6130   1.618   2.030   2.700
 1525SOL    HW3 6131   1.468   2.011   2.693
 1525SOL    MW4 6132   1.538   2.051   2.726
 1526SOL     OW 6133   1.534   2.309   2.609
 1526SOL    HW2 6134   1.602   2.364   2.649
 1526SOL    HW3 6135   1.536   2.227   2.659
 1526SOL    MW4 6136   1.543   2.305   2.621
 1527SOL     OW 6137   1.344   2.467   2.770
 1527SOL    HW2 6138   1.343   2.539   2.706
 1527SOL    HW3 6139   1.418   2.413   2.744
 1527SOL    MW4 6140   1.354   2.469   2.758
 1528SOL     OW 6141   1.341   2.720   2.632
 1528SOL    HW2 6142   1.406   2.779   2.670
 1528SOL    HW3 6143   1.362   2.718   2.538
 1528SOL    MW4 6144   1.352   2.727   2.625
 1529SOL     OW 6145   1.552   2.863   2.752
 1529SOL    HW2 6146   1.558   2.858   2.848
 1529SOL    HW3 6147   1.619   2.803   2.720
 1529SOL    MW4 6148   1.561   2.855   2.761
 1530SOL     OW 6149   1.570   3.121   2.615
 1530SOL    HW2 6150   1.647   3.167   2.648
 1530SOL    HW3 6151   1.569   3.038   2.663
 1530SOL    MW4 6152   1.580   3.116   2.626
 1531SOL     OW 6153   1.358   3.250   2.758
 1531SOL    HW2 6154   1.435   3.216   2.713
 1531SOL    HW3 6155   1.286   3.196   2.726
 1531SOL    MW4 6156   1.359   3.239   2.748
 1532SOL     OW 6157   1.325   3.488   2.604
 1532SOL    HW2 6158   1.351   3.409   2.651
 1532SOL    HW3 6159   1.253   3.524   2.657
 1532SOL    MW4 6160   1.319   3.482   2.618
 1533SOL     OW 6161   1.565   3.612   2.708
 1533SOL    HW2 6162   1.637   3.570   2.662
 1533SOL    HW3 6163   1.486   3.574   2.669
 1533SOL    MW4 6164   1.564   3.601   2.697
 1534SOL     OW 6165   1.584   3.882   2.650
 1534SOL    HW2 6166   1.495   3.911   2.667
 1534SOL    HW3 6167   1.587   3.793   2.685
 1534SOL    MW4 6168   1.573   3.874   2.657
 1535SOL     OW 6169   1.330   3.992   2.703
 1535SOL    HW2 6170   1.329   4.009   2.798
 1535SOL    HW3 6171   1.346   4.077   2.664
 1535SOL    MW4 6172   1.332   4.005   2.711
 1536SOL     OW 6173   1.363   4.259   2.594
 1536SOL    HW2 6174   1.283   4.289   2.636
 1536SOL    HW3 6175   1.344   4.264   2.500
 1536SOL    MW4 6176   1.350   4.264   2.587
 1537SOL     OW 6177   1.576   4.386   2.706
 1537SOL    HW2 6178   1.555   4.389   2.799
 1537SOL    HW3 6179   1.500   4.344   2.666
 1537SOL    MW4 6180   1.563   4.381   2.713
 1538SOL     OW 6181   2.026   4.624   2.611
 1538SOL    HW2 6182   2.099   4.672   2.651
 1538SOL    HW3 6183   2.037   4.639   2.517
 1538SOL    MW4 6184   2.037   4.633   2.604
 1539SOL     OW 6185   1.774   0.098   2.714
 1539SOL    HW2 6186   1.851   0.041   2.704
 1539SOL    HW3 6187   1.702   0.047   2.677
 1539SOL    MW4 6188   1.775   0.084   2.708
 1540SOL     OW 6189   1.763   0.383   2.614
 1540SOL    HW2 6190   1.846   0.421   2.644
 1540SOL    HW3 6191   1.757   0.300   2.662
 1540SOL    MW4 6192   1.773   0.377   2.624
 1541SOL     OW 6193   1.996   0.482   2.725
 1541SOL    HW2 6194   2.072   0.443   2.682
 1541SOL    HW3 6195   1.989   0.570   2.689
 1541SOL    MW4 6196   2.005   0.488   2.715
 1542SOL     OW 6197   1.955   0.734   2.615
 1542SOL    HW2 6198   1.876   0.784   2.635
 1542SOL    HW3 6199   1.956   0.728   2.519
 1542SOL    MW4 6200   1.945   0.739   2.605
 1543SOL     OW 6201   1.768   0.904   2.722
 1543SOL    HW2 6202   1.759   0.997   2.697
 1543SOL    HW3 6203   1.682   0.866   2.702
 1543SOL    MW4 6204   1.755   0.911   2.716
 1544SOL     OW 6205   1.772   1.180   2.645
 1544SOL    HW2 6206   1.854   1.221   2.673
 1544SOL    HW3 6207   1.775   1.181   2.549
 1544SOL    MW4 6208   1.783   1.186   2.636
 1545SOL     OW 6209   2.002   1.307   2.703
 1545SOL    HW2 6210   2.023   1.298   2.796
 1545SOL    HW3 6211   2.067   1.253   2.659
 1545SOL    MW4 6212   2.013   1.298   2.710
 1546SOL     OW 6213   2.013   1.561   2.605
 1546SOL    HW2 6214   1.925   1.591   2.626
 1546SOL    HW3 6215   2.021   1.477   2.650
 1546SOL    MW4 6216   2.003   1.554   2.614
 1547SOL     OW 6217   1.771   1.688   2.704
 1547SOL    HW2 6218   1.760   1.676   2.798
 1547SOL    HW3 6219   1.699   1.638   2.665
 1547SOL    MW4 6220   1.760   1.680   2.711
 1548SOL     OW 6221   1.782   1.967   2.628
 1548SOL    HW2 6222   1.865   1.999   2.663
 1548SOL    HW3 6223   1.778   1.876   2.657
 1548SOL    MW4 6224   1.792   1.959   2.637
 1549SOL     OW 6225   2.030   2.064   2.736
 1549SOL    HW2 6226   2.013   2.077   2.829
 1549SOL    HW3 6227   2.024   2.151   2.698
 1549SOL    MW4 6228   2.027   2.077   2.744
 1550SOL     OW 6229   2.021   2.323   2.619
 1550SOL    HW2 6230   2.093   2.370   2.661
 1550SOL    HW3 6231   2.035   2.336   2.525
 1550SOL    MW4 6232   2.032   2.331   2.612
 1551SOL     OW 6233   1.744   2.416   2.743
 1551SOL    HW2 6234   1.767   2.417   2.836
 1551SOL    HW3 6235   1.820   2.376   2.700
 1551SOL    MW4 6236   1.757   2.411   2.750
 1552SOL     OW 6237   1.736   2.681   2.670
 1552SOL    HW2 6238   1.737   2.590   2.700
 1552SOL    HW3 6239   1.722   2.676   2.575
 1552SOL    MW4 6240   1.734   2.669   2.661
 1553SOL     OW 6241   1.974   2.855   2.697
 1553SOL    HW2 6242   2.051   2.807   2.666
 1553SOL    HW3 6243   1.902   2.793   2.690
 1553SOL    MW4 6244   1.975   2.841   2.692
 1554SOL     OW 6245   2.004   3.110   2.620
 1554SOL    HW2 6246   1.979   3.022   2.650
 1554SOL    HW3 6247   1.999   3.105   2.525
 1554SOL    MW4 6248   2.000   3.098   2.612
 1555SOL     OW 6249   1.791   3.230   2.740
 1555SOL    HW2 6250   1.794   3.319   2.706
 1555SOL    HW3 6251   1.864   3.185   2.697
 1555SOL    MW4 6252   1.801   3.236   2.730
 1556SOL     OW 6253   1.773   3.462   2.581
 1556SOL    HW2 6254   1.836   3.508   2.635
 1556SOL    HW3 6255   1.800   3.478   2.491
 1556SOL    MW4 6256   1.785   3.470   2.576
 1557SOL     OW 6257   1.980   3.562   2.731
 1557SOL    HW2 6258   2.001   3.561   2.824
 1557SOL    HW3 6259   2.061   3.533   2.688
 1557SOL    MW4 6260   1.994   3.558   2.737
 1558SOL     OW 6261   2.046   3.826   2.619
 1558SOL    HW2 6262   1.985   3.888   2.658
 1558SOL    HW3 6263   2.022   3.742   2.658
 1558SOL    MW4 6264   2.034   3.823   2.629
 1559SOL     OW 6265   1.836   3.989   2.710
 1559SOL    HW2 6266   1.836   4.076   2.669
 1559SOL    HW3 6267   1.753   3.950   2.684
 1559SOL    MW4 6268   1.825   3.996   2.701
 1560SOL     OW 6269   1.841   4.276   2.631
 1560SOL    HW2 6270   1.758   4.307   2.668
 1560SOL    HW3 6271   1.829   4.284   2.536
 1560SOL    MW4 6272   1.828   4.281   2.624
 1561SOL     OW 6273   2.074   4.391   2.740
 1561SOL    HW2 6274   2.010   4.327   2.707
 1561SOL    HW3 6275   2.052   4.472   2.694
 1561SOL    MW4 6276   2.062   4.393   2.730
 1562SOL     OW 6277   2.454   0.004   2.661
 1562SOL    HW2 6278   2.538   0.048   2.671
 1562SOL    HW3 6279   2.447  -0.013   2.567
 1562SOL    MW4 6280   2.464   0.008   2.650
 1563SOL     OW 6281   2.208   0.104   2.738
 1563SOL    HW2 6282   2.195   0.090   2.831
 1563SOL    HW3 6283   2.296   0.070   2.720
 1563SOL    MW4 6284   2.218   0.098   2.748
 1564SOL     OW 6285   2.253   0.360   2.621
 1564SOL    HW2 6286   2.227   0.277   2.662
 1564SOL    HW3 6287   2.260   0.341   2.528
 1564SOL    MW4 6288   2.251   0.347   2.614
 1565SOL     OW 6289   2.464   0.505   2.738
 1565SOL    HW2 6290   2.447   0.595   2.709
 1565SOL    HW3 6291   2.386   0.456   2.712
 1565SOL    MW4 6292   2.451   0.510   2.731
 1566SOL     OW 6293   2.452   0.775   2.646
 1566SOL    HW2 6294   2.368   0.810   2.677
 1566SOL    HW3 6295   2.442   0.769   2.551
 1566SOL    MW4 6296   2.439   0.779   2.637
 1567SOL     OW 6297   2.202   0.903   2.694
 1567SOL    HW2 6298   2.197   0.893   2.789
 1567SOL    HW3 6299   2.123   0.861   2.661
 1567SOL    MW4 6300   2.191   0.896   2.702
 1568SOL     OW 6301   2.240   1.166   2.619
 1568SOL    HW2 6302   2.225   1.077   2.650
 1568SOL    HW3 6303   2.257   1.157   2.525
 1568SOL    MW4 6304   2.240   1.153   2.611
 1569SOL     OW 6305   2.466   1.303   2.728
 1569SOL    HW2 6306   2.539   1.253   2.691
 1569SOL    HW3 6307   2.389   1.266   2.687
 1569SOL    MW4 6308   2.466   1.291   2.718
 1570SOL     OW 6309   2.451   1.544   2.605
 1570SOL    HW2 6310   2.381   1.594   2.648
 1570SOL    HW3 6311   2.454   1.462   2.653
 1570SOL    MW4 6312   2.442   1.540   2.617
 1571SOL     OW 6313   2.233   1.690   2.700
 1571SOL    HW2 6314   2.235   1.784   2.684
 1571SOL    HW3 6315   2.154   1.660   2.656
 1571SOL    MW4 6316   2.223   1.699   2.692
 1572SOL     OW 6317   2.268   1.945   2.654
 1572SOL    HW2 6318   2.185   1.986   2.677
 1572SOL    HW3 6319   2.269   1.943   2.559
 1572SOL    MW4 6320   2.257   1.950   2.645
 1573SOL     OW 6321   2.523   2.042   2.732
 1573SOL    HW2 6322   2.484   2.126   2.707
 1573SOL    HW3 6323   2.456   1.977   2.712
 1573SOL    MW4 6324   2.509   2.045   2.726
 1574SOL     OW 6325   2.439   2.298   2.662
 1574SOL    HW2 6326   2.517   2.335   2.702
 1574SOL    HW3 6327   2.456   2.302   2.567
 1574SOL    MW4 6328   2.452   2.303   2.654
 1575SOL     OW 6329   2.233   2.453   2.717
 1575SOL    HW2 6330   2.235   2.449   2.813
 1575SOL    HW3 6331   2.305   2.397   2.688
 1575SOL    MW4 6332   2.242   2.445   2.726
 1576SOL     OW 6333   2.220   2.714   2.628
 1576SOL    HW2 6334   2.299   2.755   2.664
 1576SOL    HW3 6335   2.227   2.622   2.654
 1576SOL    MW4 6336   2.231   2.708   2.636
 1577SOL     OW 6337   2.450   2.828   2.719
 1577SOL    HW2 6338   2.525   2.779   2.684
 1577SOL    HW3 6339   2.460   2.916   2.683
 1577SOL    MW4 6340   2.461   2.833   2.710
 1578SOL     OW 6341   2.475   3.087   2.635
 1578SOL    HW2 6342   2.397   3.138   2.658
 1578SOL    HW3 6343   2.490   3.108   2.543
 1578SOL    MW4 6344   2.466   3.097   2.625
 1579SOL     OW 6345   2.248   3.227   2.690
 1579SOL    HW2 6346   2.252   3.219   2.786
 1579SOL    HW3 6347   2.178   3.168   2.664
 1579SOL    MW4 6348   2.239   3.218   2.699
 1580SOL     OW 6349   2.216   3.485   2.607
 1580SOL    HW2 6350   2.295   3.534   2.631
 1580SOL    HW3 6351   2.233   3.396   2.639
 1580SOL    MW4 6352   2.229   3.480   2.614
 1581SOL     OW 6353   2.464   3.591   2.682
 1581SOL    HW2 6354   2.471   3.595   2.778
 1581SOL    HW3 6355   2.474   3.681   2.654
 1581SOL    MW4 6356   2.466   3.603   2.691
 1582SOL     OW 6357   2.472   3.877   2.591
 1582SOL    HW2 6358   2.555   3.894   2.636
 1582SOL    HW3 6359   2.407   3.923   2.644
 1582SOL    MW4 6360   2.475   3.885   2.604
 1583SOL     OW 6361   2.259   3.988   2.726
 1583SOL    HW2 6362   2.245   3.986   2.820
 1583SOL    HW3 6363   2.203   3.919   2.691
 1583SOL    MW4 6364   2.250   3.979   2.734
 1584SOL     OW 6365   2.277   4.239   2.610
 1584SOL    HW2 6366   2.292   4.163   2.666
 1584SOL    HW3 6367   2.217   4.294   2.661
 1584SOL    MW4 6368   2.271   4.236   2.624
 1585SOL     OW 6369   2.476   4.407   2.752
 1585SOL    HW2 6370   2.413   4.354   2.703
 1585SOL    HW3 6371   2.460   4.496   2.721
 1585SOL    MW4 6372   2.465   4.411   2.741
 1586SOL     OW 6373   2.941   4.609   2.630
 1586SOL    HW2 6374   3.001   4.674   2.667
 1586SOL    HW3 6375   2.929   4.636   2.539
 1586SOL    MW4 6376   2.947   4.621   2.623
 1587SOL     OW 6377   2.719   0.093   2.709
 1587SOL    HW2 6378   2.719   0.100   2.805
 1587SOL    HW3 6379   2.784   0.026   2.690
 1587SOL    MW4 6380   2.727   0.085   2.719
 1588SOL     OW 6381   2.683   0.359   2.631
 1588SOL    HW2 6382   2.707   0.270   2.658
 1588SOL    HW3 6383   2.602   0.377   2.678
 1588SOL    MW4 6384   2.676   0.350   2.641
 1589SOL     OW 6385   2.912   0.494   2.709
 1589SOL    HW2 6386   2.902   0.584   2.678
 1589SOL    HW3 6387   2.824   0.456   2.702
 1589SOL    MW4 6388   2.899   0.501   2.704
 1590SOL     OW 6389   2.936   0.755   2.615
 1590SOL    HW2 6390   3.009   0.793   2.665
 1590SOL    HW3 6391   2.858   0.791   2.656
 1590SOL    MW4 6392   2.936   0.765   2.627
 1591SOL     OW 6393   2.691   0.889   2.722
 1591SOL    HW2 6394   2.700   0.890   2.817
 1591SOL    HW3 6395   2.605   0.849   2.707
 1591SOL    MW4 6396   2.681   0.884   2.733
 1592SOL     OW 6397   2.685   1.163   2.613
 1592SOL    HW2 6398   2.762   1.189   2.663
 1592SOL    HW3 6399   2.674   1.070   2.632
 1592SOL    MW4 6400   2.694   1.154   2.622
 1593SOL     OW 6401   2.905   1.238   2.776
 1593SOL    HW2 6402   2.899   1.238   2.871
 1593SOL    HW3 6403   2.977   1.179   2.756
 1593SOL    MW4 6404   2.914   1.230   2.786
 1594SOL     OW 6405   2.916   1.496   2.609
 1594SOL    HW2 6406   2.839   1.540   2.647
 1594SOL    HW3 6407   2.919   1.411   2.654
 1594SOL    MW4 6408   2.906   1.491   2.620
 1595SOL     OW 6409   2.698   1.626   2.706
 1595SOL    HW2 6410   2.681   1.636   2.800
 1595SOL    HW3 6411   2.615   1.595   2.670
 1595SOL    MW4 6412   2.684   1.623   2.714
 1596SOL     OW 6413   2.742   1.887   2.630
 1596SOL    HW2 6414   2.724   1.798   2.658
 1596SOL    HW3 6415   2.674   1.940   2.672
 1596SOL    MW4 6416   2.731   1.883   2.639
 1597SOL     OW 6417   2.944   2.034   2.728
 1597SOL    HW2 6418   2.929   2.119   2.686
 1597SOL    HW3 6419   2.873   1.979   2.695
 1597SOL    MW4 6420   2.933   2.038   2.718
 1598SOL     OW 6421   2.880   2.298   2.618
 1598SOL    HW2 6422   2.958   2.346   2.644
 1598SOL    HW3 6423   2.808   2.340   2.665
 1598SOL    MW4 6424   2.880   2.309   2.628
 1599SOL     OW 6425   2.669   2.433   2.745
 1599SOL    HW2 6426   2.684   2.435   2.840
 1599SOL    HW3 6427   2.670   2.525   2.718
 1599SOL    MW4 6428   2.671   2.445   2.754
 1600SOL     OW 6429   2.684   2.694   2.644
 1600SOL    HW2 6430   2.768   2.728   2.674
 1600SOL    HW3 6431   2.688   2.704   2.549
 1600SOL    MW4 6432   2.696   2.700   2.635
 1601SOL     OW 6433   2.932   2.809   2.733
 1601SOL    HW2 6434   2.935   2.818   2.828
 1601SOL    HW3 6435   2.939   2.899   2.700
 1601SOL    MW4 6436   2.933   2.822   2.741
 1602SOL     OW 6437   2.932   3.080   2.630
 1602SOL    HW2 6438   2.850   3.122   2.655
 1602SOL    HW3 6439   2.927   3.071   2.535
 1602SOL    MW4 6440   2.921   3.084   2.621
 1603SOL     OW 6441   2.709   3.206   2.721
 1603SOL    HW2 6442   2.714   3.292   2.680
 1603SOL    HW3 6443   2.619   3.177   2.704
 1603SOL    MW4 6444   2.697   3.213   2.713
 1604SOL     OW 6445   2.710   3.465   2.615
 1604SOL    HW2 6446   2.632   3.517   2.637
 1604SOL    HW3 6447   2.711   3.464   2.519
 1604SOL    MW4 6448   2.700   3.472   2.605
 1605SOL     OW 6449   2.942   3.575   2.740
 1605SOL    HW2 6450   2.928   3.567   2.835
 1605SOL    HW3 6451   2.862   3.539   2.702
 1605SOL    MW4 6452   2.929   3.569   2.748
 1606SOL     OW 6453   2.916   3.836   2.635
 1606SOL    HW2 6454   2.996   3.872   2.673
 1606SOL    HW3 6455   2.918   3.743   2.658
 1606SOL    MW4 6456   2.927   3.828   2.643
 1607SOL     OW 6457   2.690   3.974   2.741
 1607SOL    HW2 6458   2.682   4.055   2.689
 1607SOL    HW3 6459   2.777   3.941   2.720
 1607SOL    MW4 6460   2.700   3.980   2.731
 1608SOL     OW 6461   2.673   4.244   2.646
 1608SOL    HW2 6462   2.752   4.278   2.689
 1608SOL    HW3 6463   2.601   4.295   2.684
 1608SOL    MW4 6464   2.674   4.255   2.657
 1609SOL     OW 6465   2.893   4.349   2.741
 1609SOL    HW2 6466   2.893   4.371   2.834
 1609SOL    HW3 6467   2.910   4.433   2.696
 1609SOL    MW4 6468   2.895   4.363   2.747
 1610SOL     OW 6469   3.368   4.609   2.640
 1610SOL    HW2 6470   3.381   4.535   2.700
 1610SOL    HW3 6471   3.279   4.639   2.659
 1610SOL    MW4 6472   3.358   4.603   2.651
 1611SOL     OW 6473   3.140   0.086   2.720
 1611SOL    HW2 6474   3.149   0.086   2.815
 1611SOL    HW3 6475   3.149   0.178   2.695
 1611SOL    MW4 6476   3.142   0.098   2.729
 1612SOL     OW 6477   3.139   0.350   2.612
 1612SOL    HW2 6478   3.060   0.399   2.634
 1612SOL    HW3 6479   3.144   0.354   2.516
 1612SOL    MW4 6480   3.130   0.357   2.602
 1613SOL     OW 6481   3.369   0.428   2.744
 1613SOL    HW2 6482   3.377   0.517   2.708
 1613SOL    HW3 6483   3.288   0.394   2.706
 1613SOL    MW4 6484   3.360   0.435   2.734
 1614SOL     OW 6485   3.364   0.693   2.657
 1614SOL    HW2 6486   3.437   0.755   2.668
 1614SOL    HW3 6487   3.346   0.695   2.564
 1614SOL    MW4 6488   3.372   0.702   2.646
 1615SOL     OW 6489   3.152   0.856   2.744
 1615SOL    HW2 6490   3.138   0.877   2.836
 1615SOL    HW3 6491   3.231   0.803   2.742
 1615SOL    MW4 6492   3.160   0.852   2.756
 1616SOL     OW 6493   3.153   1.131   2.665
 1616SOL    HW2 6494   3.162   1.035   2.670
 1616SOL    HW3 6495   3.096   1.146   2.589
 1616SOL    MW4 6496   3.146   1.120   2.656
 1617SOL     OW 6497   3.380   1.285   2.731
 1617SOL    HW2 6498   3.372   1.258   2.822
 1617SOL    HW3 6499   3.314   1.234   2.685
 1617SOL    MW4 6500   3.370   1.275   2.737
 1618SOL     OW 6501   3.364   1.551   2.637
 1618SOL    HW2 6502   3.287   1.589   2.678
 1618SOL    HW3 6503   3.360   1.458   2.659
 1618SOL    MW4 6504   3.354   1.543   2.645
 1619SOL     OW 6505   3.121   1.645   2.736
 1619SOL    HW2 6506   3.122   1.727   2.687
 1619SOL    HW3 6507   3.044   1.598   2.704
 1619SOL    MW4 6508   3.111   1.649   2.725
 1620SOL     OW 6509   3.160   1.893   2.623
 1620SOL    HW2 6510   3.239   1.942   2.647
 1620SOL    HW3 6511   3.089   1.940   2.666
 1620SOL    MW4 6512   3.161   1.906   2.632
 1621SOL     OW 6513   3.374   2.049   2.731
 1621SOL    HW2 6514   3.360   2.060   2.825
 1621SOL    HW3 6515   3.374   2.139   2.697
 1621SOL    MW4 6516   3.372   2.062   2.739
 1622SOL     OW 6517   3.350   2.311   2.661
 1622SOL    HW2 6518   3.415   2.375   2.691
 1622SOL    HW3 6519   3.371   2.298   2.569
 1622SOL    MW4 6520   3.361   2.318   2.653
 1623SOL     OW 6521   3.093   2.411   2.735
 1623SOL    HW2 6522   3.103   2.502   2.709
 1623SOL    HW3 6523   3.173   2.368   2.704
 1623SOL    MW4 6524   3.105   2.417   2.728
 1624SOL     OW 6525   3.153   2.687   2.649
 1624SOL    HW2 6526   3.218   2.752   2.676
 1624SOL    HW3 6527   3.068   2.728   2.668
 1624SOL    MW4 6528   3.150   2.701   2.655
 1625SOL     OW 6529   3.380   2.831   2.697
 1625SOL    HW2 6530   3.376   2.860   2.788
 1625SOL    HW3 6531   3.458   2.776   2.692
 1625SOL    MW4 6532   3.390   2.828   2.708
 1626SOL     OW 6533   3.363   3.099   2.629
 1626SOL    HW2 6534   3.374   3.006   2.643
 1626SOL    HW3 6535   3.386   3.113   2.537
 1626SOL    MW4 6536   3.367   3.089   2.619
 1627SOL     OW 6537   3.143   3.213   2.735
 1627SOL    HW2 6538   3.221   3.167   2.702
 1627SOL    HW3 6539   3.069   3.165   2.697
 1627SOL    MW4 6540   3.144   3.201   2.725
 1628SOL     OW 6541   3.189   3.492   2.646
 1628SOL    HW2 6542   3.178   3.403   2.681
 1628SOL    HW3 6543   3.102   3.532   2.656
 1628SOL    MW4 6544   3.176   3.486   2.652
 1629SOL     OW 6545   3.420   3.591   2.736
 1629SOL    HW2 6546   3.424   3.586   2.831
 1629SOL    HW3 6547   3.332   3.559   2.714
 1629SOL    MW4 6548   3.409   3.586   2.746
 1630SOL     OW 6549   3.359   3.850   2.638
 1630SOL    HW2 6550   3.400   3.766   2.662
 1630SOL    HW3 6551   3.348   3.845   2.543
 1630SOL    MW4 6552   3.363   3.838   2.629
 1631SOL     OW 6553   3.141   3.965   2.765
 1631SOL    HW2 6554   3.161   4.056   2.746
 1631SOL    HW3 6555   3.210   3.915   2.722
 1631SOL    MW4 6556   3.153   3.970   2.757
 1632SOL     OW 6557   3.140   4.255   2.644
 1632SOL    HW2 6558   3.059   4.278   2.688
 1632SOL    HW3 6559   3.128   4.285   2.554
 1632SOL    MW4 6560   3.128   4.262   2.638
 1633SOL     OW 6561   3.379   4.320   2.760
 1633SOL    HW2 6562   3.357   4.339   2.851
 1633SOL    HW3 6563   3.304   4.272   2.727
 1633SOL    MW4 6564   3.366   4.316   2.768
 1634SOL     OW 6565   3.817   4.640   2.631
 1634SOL    HW2 6566   3.824   4.555   2.674
 1634SOL    HW3 6567   3.732   4.675   2.657
 1634SOL    MW4 6568   3.807   4.634   2.640
 1635SOL     OW 6569   3.583   0.091   2.746
 1635SOL    HW2 6570   3.599   0.176   2.705
 1635SOL    HW3 6571   3.513   0.052   2.693
 1635SOL    MW4 6572   3.576   0.097   2.734
 1636SOL     OW 6573   3.607   0.328   2.621
 1636SOL    HW2 6574   3.674   0.389   2.653
 1636SOL    HW3 6575   3.526   0.358   2.664
 1636SOL    MW4 6576   3.605   0.340   2.631
 1637SOL     OW 6577   3.780   0.500   2.721
 1637SOL    HW2 6578   3.778   0.512   2.816
 1637SOL    HW3 6579   3.857   0.446   2.705
 1637SOL    MW4 6580   3.790   0.495   2.732
 1638SOL     OW 6581   3.801   0.767   2.598
 1638SOL    HW2 6582   3.729   0.820   2.633
 1638SOL    HW3 6583   3.782   0.678   2.627
 1638SOL    MW4 6584   3.789   0.762   2.607
 1639SOL     OW 6585   3.587   0.918   2.708
 1639SOL    HW2 6586   3.591   0.932   2.803
 1639SOL    HW3 6587   3.596   1.006   2.670
 1639SOL    MW4 6588   3.589   0.931   2.716
 1640SOL     OW 6589   3.616   1.174   2.611
 1640SOL    HW2 6590   3.682   1.216   2.667
 1640SOL    HW3 6591   3.533   1.203   2.647
 1640SOL    MW4 6592   3.614   1.184   2.623
 1641SOL     OW 6593   3.844   1.275   2.743
 1641SOL    HW2 6594   3.900   1.240   2.674
 1641SOL    HW3 6595   3.837   1.368   2.724
 1641SOL    MW4 6596   3.850   1.283   2.732
 1642SOL     OW 6597   3.823   1.530   2.657
 1642SOL    HW2 6598   3.902   1.581   2.676
 1642SOL    HW3 6599   3.751   1.591   2.674
 1642SOL    MW4 6600   3.824   1.545   2.662
 1643SOL     OW 6601   3.610   1.694   2.697
 1643SOL    HW2 6602   3.593   1.784   2.669
 1643SOL    HW3 6603   3.533   1.645   2.670
 1643SOL    MW4 6604   3.598   1.699   2.690
 1644SOL     OW 6605   3.595   1.964   2.624
 1644SOL    HW2 6606   3.509   1.985   2.661
 1644SOL    HW3 6607   3.579   1.960   2.529
 1644SOL    MW4 6608   3.581   1.966   2.616
 1645SOL     OW 6609   3.814   2.067   2.744
 1645SOL    HW2 6610   3.890   2.029   2.702
 1645SOL    HW3 6611   3.740   2.019   2.707
 1645SOL    MW4 6612   3.814   2.056   2.733
 1646SOL     OW 6613   3.842   2.317   2.627
 1646SOL    HW2 6614   3.839   2.225   2.651
 1646SOL    HW3 6615   3.870   2.317   2.535
 1646SOL    MW4 6616   3.845   2.305   2.618
 1647SOL     OW 6617   3.611   2.422   2.738
 1647SOL    HW2 6618   3.601   2.426   2.833
 1647SOL    HW3 6619   3.693   2.374   2.726
 1647SOL    MW4 6620   3.621   2.416   2.749
 1648SOL     OW 6621   3.616   2.691   2.662
 1648SOL    HW2 6622   3.635   2.604   2.698
 1648SOL    HW3 6623   3.627   2.681   2.568
 1648SOL    MW4 6624   3.620   2.678   2.655
 1649SOL     OW 6625   3.859   2.841   2.707
 1649SOL    HW2 6626   3.909   2.769   2.669
 1649SOL    HW3 6627   3.768   2.812   2.701
 1649SOL    MW4 6628   3.853   2.828   2.701
 1650SOL     OW 6629   3.786   3.111   2.608
 1650SOL    HW2 6630   3.705   3.144   2.647
 1650SOL    HW3 6631   3.794   3.022   2.643
 1650SOL    MW4 6632   3.776   3.103   2.618
 1651SOL     OW 6633   3.571   3.230   2.745
 1651SOL    HW2 6634   3.570   3.318   2.708
 1651SOL    HW3 6635   3.490   3.190   2.713
 1651SOL    MW4 6636   3.560   3.236   2.736
 1652SOL     OW 6637   3.641   3.475   2.639
 1652SOL    HW2 6638   3.703   3.523   2.693
 1652SOL    HW3 6639   3.555   3.503   2.671
 1652SOL    MW4 6640   3.638   3.485   2.650
 1653SOL     OW 6641   3.842   3.634   2.770
 1653SOL    HW2 6642   3.902   3.580   2.719
 1653SOL    HW3 6643   3.834   3.715   2.719
 1653SOL    MW4 6644   3.849   3.638   2.756
 1654SOL     OW 6645   3.801   3.862   2.609
 1654SOL    HW2 6646   3.878   3.917   2.625
 1654SOL    HW3 6647   3.735   3.894   2.671
 1654SOL    MW4 6648   3.803   3.873   2.620
 1655SOL     OW 6649   3.586   3.970   2.742
 1655SOL    HW2 6650   3.577   4.061   2.715
 1655SOL    HW3 6651   3.512   3.925   2.699
 1655SOL    MW4 6652   3.575   3.976   2.733
 1656SOL     OW 6653   3.620   4.237   2.652
 1656SOL    HW2 6654   3.536   4.259   2.692
 1656SOL    HW3 6655   3.605   4.247   2.558
 1656SOL    MW4 6656   3.607   4.241   2.645
 1657SOL     OW 6657   3.829   4.381   2.765
 1657SOL    HW2 6658   3.908   4.345   2.725
 1657SOL    HW3 6659   3.757   4.329   2.731
 1657SOL    MW4 6660   3.830   4.370   2.756
 1658SOL     OW 6661   4.270   4.642   2.638
 1658SOL    HW2 6662   4.194   4.676   2.685
 1658SOL    HW3 6663   4.344   4.692   2.673
 1658SOL    MW4 6664   4.270   4.653   2.649
 1659SOL     OW 6665   4.031   0.097   2.753
 1659SOL    HW2 6666   4.022   0.098   2.848
 1659SOL    HW3 6667   3.947   0.064   2.721
 1659SOL    MW4 6668   4.019   0.093   2.761
 1660SOL     OW 6669   4.008   0.352   2.671
 1660SOL    HW2 6670   4.008   0.260   2.699
 1660SOL    HW3 6671   3.985   0.349   2.578
 1660SOL    MW4 6672   4.005   0.339   2.663
 1661SOL     OW 6673   4.226   0.507   2.757
 1661SOL    HW2 6674   4.149   0.454   2.735
 1661SOL    HW3 6675   4.297   0.468   2.708
 1661SOL    MW4 6676   4.225   0.495   2.748
 1662SOL     OW 6677   4.252   0.766   2.676
 1662SOL    HW2 6678   4.227   0.675   2.693
 1662SOL    HW3 6679   4.267   0.770   2.582
 1662SOL    MW4 6680   4.250   0.755   2.666
 1663SOL     OW 6681   4.028   0.918   2.712
 1663SOL    HW2 6682   4.113   0.875   2.702
 1663SOL    HW3 6683   3.965   0.857   2.673
 1663SOL    MW4 6684   4.031   0.904   2.706
 1664SOL     OW 6685   4.044   1.148   2.580
 1664SOL    HW2 6686   4.112   1.191   2.632
 1664SOL    HW3 6687   4.023   1.068   2.628
 1664SOL    MW4 6688   4.050   1.143   2.593
 1665SOL     OW 6689   4.236   1.274   2.741
 1665SOL    HW2 6690   4.244   1.367   2.720
 1665SOL    HW3 6691   4.316   1.234   2.707
 1665SOL    MW4 6692   4.247   1.281   2.734
 1666SOL     OW 6693   4.246   1.526   2.627
 1666SOL    HW2 6694   4.333   1.559   2.651
 1666SOL    HW3 6695   4.242   1.535   2.532
 1666SOL    MW4 6696   4.257   1.532   2.618
 1667SOL     OW 6697   4.050   1.677   2.738
 1667SOL    HW2 6698   4.058   1.666   2.832
 1667SOL    HW3 6699   4.122   1.626   2.702
 1667SOL    MW4 6700   4.060   1.669   2.745
 1668SOL     OW 6701   4.025   1.935   2.659
 1668SOL    HW2 6702   4.110   1.963   2.693
 1668SOL    HW3 6703   4.018   1.843   2.685
 1668SOL    MW4 6704   4.036   1.927   2.667
 1669SOL     OW 6705   4.271   2.045   2.726
 1669SOL    HW2 6706   4.288   2.132   2.689
 1669SOL    HW3 6707   4.347   1.993   2.702
 1669SOL    MW4 6708   4.283   2.050   2.718
 1670SOL     OW 6709   4.316   2.285   2.606
 1670SOL    HW2 6710   4.237   2.334   2.633
 1670SOL    HW3 6711   4.319   2.296   2.511
 1670SOL    MW4 6712   4.306   2.293   2.597
 1671SOL     OW 6713   4.093   2.424   2.672
 1671SOL    HW2 6714   4.097   2.436   2.767
 1671SOL    HW3 6715   4.006   2.389   2.655
 1671SOL    MW4 6716   4.082   2.421   2.682
 1672SOL     OW 6717   4.061   2.686   2.570
 1672SOL    HW2 6718   4.130   2.735   2.615
 1672SOL    HW3 6719   4.076   2.595   2.596
 1672SOL    MW4 6720   4.072   2.680   2.579
 1673SOL     OW 6721   4.262   2.817   2.706
 1673SOL    HW2 6722   4.242   2.836   2.798
 1673SOL    HW3 6723   4.266   2.903   2.664
 1673SOL    MW4 6724   4.260   2.831   2.713
 1674SOL     OW 6725   4.264   3.084   2.620
 1674SOL    HW2 6726   4.195   3.150   2.633
 1674SOL    HW3 6727   4.261   3.064   2.527
 1674SOL    MW4 6728   4.255   3.090   2.610
 1675SOL     OW 6729   4.024   3.236   2.701
 1675SOL    HW2 6730   4.035   3.329   2.680
 1675SOL    HW3 6731   3.936   3.214   2.669
 1675SOL    MW4 6732   4.014   3.245   2.694
 1676SOL     OW 6733   4.035   3.492   2.622
 1676SOL    HW2 6734   4.115   3.536   2.650
 1676SOL    HW3 6735   4.037   3.496   2.526
 1676SOL    MW4 6736   4.046   3.498   2.613
 1677SOL     OW 6737   4.247   3.612   2.748
 1677SOL    HW2 6738   4.258   3.598   2.842
 1677SOL    HW3 6739   4.311   3.554   2.707
 1677SOL    MW4 6740   4.257   3.603   2.755
 1678SOL     OW 6741   4.259   3.868   2.638
 1678SOL    HW2 6742   4.254   3.781   2.678
 1678SOL    HW3 6743   4.327   3.914   2.687
 1678SOL    MW4 6744   4.267   3.863   2.650
 1679SOL     OW 6745   4.025   3.999   2.705
 1679SOL    HW2 6746   3.999   4.011   2.796
 1679SOL    HW3 6747   4.107   3.950   2.709
 1679SOL    MW4 6748   4.033   3.994   2.717
 1680SOL     OW 6749   4.040   4.263   2.622
 1680SOL    HW2 6750   4.049   4.168   2.632
 1680SOL    HW3 6751   4.028   4.276   2.528
 1680SOL    MW4 6752   4.040   4.252   2.611
 1681SOL     OW 6753   4.266   4.374   2.711
 1681SOL    HW2 6754   4.183   4.335   2.686
 1681SOL    HW3 6755   4.262   4.463   2.676
 1681SOL    MW4 6756   4.255   4.381   2.703
 1682SOL     OW 6757   0.237   4.622   3.084
 1682SOL    HW2 6758   0.254   4.617   3.178
 1682SOL    HW3 6759   0.154   4.669   3.078
 1682SOL    MW4 6760   0.228   4.628   3.096
 1683SOL     OW 6761   0.001   0.106   3.018
 1683SOL    HW2 6762  -0.080   0.070   3.054
 1683SOL    HW3 6763   0.005   0.195   3.051
 1683SOL    MW4 6764  -0.009   0.113   3.027
 1684SOL     OW 6765   4.484   0.377   3.121
 1684SOL    HW2 6766   4.477   0.382   3.217
 1684SOL    HW3 6767   4.407   0.424   3.089
 1684SOL    MW4 6768   4.473   0.384   3.130
 1685SOL     OW 6769   0.206   0.522   3.015
 1685SOL    HW2 6770   0.283   0.471   3.043
 1685SOL    HW3 6771   0.132   0.475   3.052
 1685SOL    MW4 6772   0.207   0.509   3.023
 1686SOL     OW 6773   0.209   0.777   3.130
 1686SOL    HW2 6774   0.211   0.760   3.224
 1686SOL    HW3 6775   0.204   0.690   3.090
 1686SOL    MW4 6776   0.208   0.763   3.137
 1687SOL     OW 6777   4.459   0.907   3.054
 1687SOL    HW2 6778   4.534   0.867   3.098
 1687SOL    HW3 6779   4.469   0.883   2.962
 1687SOL    MW4 6780   4.470   0.899   3.048
 1688SOL     OW 6781   0.034   1.173   3.123
 1688SOL    HW2 6782  -0.039   1.225   3.089
 1688SOL    HW3 6783   0.015   1.084   3.093
 1688SOL    MW4 6784   0.021   1.168   3.114
 1689SOL     OW 6785   0.257   1.274   3.015
 1689SOL    HW2 6786   0.185   1.247   3.072
 1689SOL    HW3 6787   0.225   1.256   2.926
 1689SOL    MW4 6788   0.243   1.268   3.011
 1690SOL     OW 6789   0.219   1.543   3.091
 1690SOL    HW2 6790   0.136   1.585   3.066
 1690SOL    HW3 6791   0.213   1.455   3.055
 1690SOL    MW4 6792   0.207   1.537   3.083
 1691SOL     OW 6793   4.459   1.648   3.011
 1691SOL    HW2 6794   4.397   1.589   3.056
 1691SOL    HW3 6795   4.460   1.727   3.065
 1691SOL    MW4 6796   4.451   1.650   3.024
 1692SOL     OW 6797   4.471   1.897   3.116
 1692SOL    HW2 6798   4.394   1.935   3.075
 1692SOL    HW3 6799   4.545   1.940   3.073
 1692SOL    MW4 6800   4.471   1.908   3.105
 1693SOL     OW 6801   0.216   2.013   3.017
 1693SOL    HW2 6802   0.236   2.104   3.042
 1693SOL    HW3 6803   0.201   2.017   2.923
 1693SOL    MW4 6804   0.217   2.026   3.008
 1694SOL     OW 6805   0.225   2.280   3.122
 1694SOL    HW2 6806   0.236   2.309   3.212
 1694SOL    HW3 6807   0.307   2.304   3.079
 1694SOL    MW4 6808   0.237   2.287   3.128
 1695SOL     OW 6809   0.003   2.433   3.017
 1695SOL    HW2 6810  -0.005   2.519   3.058
 1695SOL    HW3 6811   0.077   2.391   3.062
 1695SOL    MW4 6812   0.012   2.439   3.028
 1696SOL     OW 6813   4.473   2.689   3.119
 1696SOL    HW2 6814   4.482   2.706   3.213
 1696SOL    HW3 6815   4.549   2.733   3.080
 1696SOL    MW4 6816   4.485   2.697   3.126
 1697SOL     OW 6817   0.205   2.815   3.013
 1697SOL    HW2 6818   0.287   2.768   3.031
 1697SOL    HW3 6819   0.193   2.807   2.918
 1697SOL    MW4 6820   0.214   2.808   3.003
 1698SOL     OW 6821   0.238   3.074   3.140
 1698SOL    HW2 6822   0.163   3.121   3.105
 1698SOL    HW3 6823   0.229   2.984   3.107
 1698SOL    MW4 6824   0.227   3.068   3.131
 1699SOL     OW 6825   0.018   3.206   3.032
 1699SOL    HW2 6826  -0.065   3.167   3.063
 1699SOL    HW3 6827   0.016   3.195   2.937
 1699SOL    MW4 6828   0.007   3.199   3.024
 1700SOL     OW 6829   0.025   3.483   3.116
 1700SOL    HW2 6830  -0.053   3.534   3.095
 1700SOL    HW3 6831  -0.006   3.392   3.116
 1700SOL    MW4 6832   0.011   3.477   3.113
 1701SOL     OW 6833   0.280   3.601   3.026
 1701SOL    HW2 6834   0.247   3.689   3.039
 1701SOL    HW3 6835   0.228   3.547   3.086
 1701SOL    MW4 6836   0.269   3.605   3.036
 1702SOL     OW 6837   0.206   3.872   3.108
 1702SOL    HW2 6838   0.201   3.872   3.203
 1702SOL    HW3 6839   0.284   3.925   3.088
 1702SOL    MW4 6840   0.216   3.879   3.118
 1703SOL     OW 6841   4.462   4.007   3.021
 1703SOL    HW2 6842   4.542   3.958   3.037
 1703SOL    HW3 6843   4.459   4.018   2.926
 1703SOL    MW4 6844   4.472   4.002   3.010
 1704SOL     OW 6845   4.410   4.255   3.136
 1704SOL    HW2 6846   4.405   4.251   3.232
 1704SOL    HW3 6847   4.441   4.168   3.110
 1704SOL    MW4 6848   4.413   4.243   3.145
 1705SOL     OW 6849   0.202   4.355   3.052
 1705SOL    HW2 6850   0.110   4.341   3.074
 1705SOL    HW3 6851   0.214   4.449   3.054
 1705SOL    MW4 6852   0.191   4.365   3.055
 1706SOL     OW 6853   0.664   0.012   3.119
 1706SOL    HW2 6854   0.672  -0.082   3.102
 1706SOL    HW3 6855   0.587   0.039   3.068
 1706SOL    MW4 6856   0.655   0.003   3.110
 1707SOL     OW 6857   0.453   0.090   2.983
 1707SOL    HW2 6858   0.435   0.177   3.018
 1707SOL    HW3 6859   0.380   0.036   3.012
 1707SOL    MW4 6860   0.441   0.094   2.992
 1708SOL     OW 6861   0.441   0.352   3.085
 1708SOL    HW2 6862   0.447   0.358   3.181
 1708SOL    HW3 6863   0.517   0.400   3.053
 1708SOL    MW4 6864   0.452   0.359   3.094
 1709SOL     OW 6865   0.661   0.486   2.993
 1709SOL    HW2 6866   0.727   0.446   3.049
 1709SOL    HW3 6867   0.661   0.578   3.018
 1709SOL    MW4 6868   0.669   0.493   3.003
 1710SOL     OW 6869   0.690   0.743   3.105
 1710SOL    HW2 6870   0.689   0.780   3.193
 1710SOL    HW3 6871   0.604   0.763   3.069
 1710SOL    MW4 6872   0.679   0.750   3.112
 1711SOL     OW 6873   0.454   0.855   3.045
 1711SOL    HW2 6874   0.368   0.829   3.077
 1711SOL    HW3 6875   0.447   0.853   2.949
 1711SOL    MW4 6876   0.442   0.851   3.036
 1712SOL     OW 6877   0.474   1.121   3.120
 1712SOL    HW2 6878   0.466   1.027   3.103
 1712SOL    HW3 6879   0.393   1.159   3.085
 1712SOL    MW4 6880   0.462   1.114   3.113
 1713SOL     OW 6881   0.672   1.261   2.963
 1713SOL    HW2 6882   0.759   1.233   2.993
 1713SOL    HW3 6883   0.611   1.215   3.021
 1713SOL    MW4 6884   0.676   1.251   2.975
 1714SOL     OW 6885   0.686   1.520   3.140
 1714SOL    HW2 6886   0.682   1.511   3.235
 1714SOL    HW3 6887   0.704   1.431   3.108
 1714SOL    MW4 6888   0.688   1.507   3.148
 1715SOL     OW 6889   0.464   1.649   3.022
 1715SOL    HW2 6890   0.529   1.597   3.069
 1715SOL    HW3 6891   0.381   1.606   3.039
 1715SOL    MW4 6892   0.462   1.637   3.031
 1716SOL     OW 6893   0.450   1.908   3.125
 1716SOL    HW2 6894   0.453   1.819   3.091
 1716SOL    HW3 6895   0.368   1.945   3.090
 1716SOL    MW4 6896   0.439   1.901   3.116
 1717SOL     OW 6897   0.668   2.017   2.993
 1717SOL    HW2 6898   0.751   1.974   3.014
 1717SOL    HW3 6899   0.603   1.971   3.046
 1717SOL    MW4 6900   0.670   2.006   3.003
 1718SOL     OW 6901   0.739   2.269   3.110
 1718SOL    HW2 6902   0.711   2.261   3.201
 1718SOL    HW3 6903   0.729   2.182   3.073
 1718SOL    MW4 6904   0.734   2.257   3.117
 1719SOL     OW 6905   0.464   2.366   3.016
 1719SOL    HW2 6906   0.556   2.350   3.036
 1719SOL    HW3 6907   0.462   2.379   2.921
 1719SOL    MW4 6908   0.476   2.366   3.006
 1720SOL     OW 6909   0.441   2.646   3.099
 1720SOL    HW2 6910   0.507   2.690   3.046
 1720SOL    HW3 6911   0.453   2.553   3.080
 1720SOL    MW4 6912   0.451   2.639   3.090
 1721SOL     OW 6913   0.677   2.785   2.967
 1721SOL    HW2 6914   0.756   2.745   3.006
 1721SOL    HW3 6915   0.673   2.872   3.006
 1721SOL    MW4 6916   0.687   2.791   2.978
 1722SOL     OW 6917   0.672   3.049   3.070
 1722SOL    HW2 6918   0.684   3.064   3.164
 1722SOL    HW3 6919   0.603   3.111   3.044
 1722SOL    MW4 6920   0.664   3.059   3.079
 1723SOL     OW 6921   0.442   3.192   2.985
 1723SOL    HW2 6922   0.444   3.279   3.025
 1723SOL    HW3 6923   0.368   3.149   3.027
 1723SOL    MW4 6924   0.432   3.198   2.996
 1724SOL     OW 6925   0.499   3.443   3.108
 1724SOL    HW2 6926   0.500   3.452   3.203
 1724SOL    HW3 6927   0.436   3.508   3.078
 1724SOL    MW4 6928   0.491   3.453   3.116
 1725SOL     OW 6929   0.728   3.581   3.005
 1725SOL    HW2 6930   0.808   3.541   3.039
 1725SOL    HW3 6931   0.658   3.522   3.032
 1725SOL    MW4 6932   0.729   3.568   3.013
 1726SOL     OW 6933   0.670   3.842   3.100
 1726SOL    HW2 6934   0.654   3.818   3.191
 1726SOL    HW3 6935   0.687   3.758   3.056
 1726SOL    MW4 6936   0.670   3.828   3.106
 1727SOL     OW 6937   0.442   3.992   3.036
 1727SOL    HW2 6938   0.511   3.937   3.074
 1727SOL    HW3 6939   0.442   3.969   2.943
 1727SOL    MW4 6940   0.451   3.982   3.029
 1728SOL     OW 6941   0.446   4.234   3.160
 1728SOL    HW2 6942   0.451   4.146   3.123
 1728SOL    HW3 6943   0.355   4.260   3.146
 1728SOL    MW4 6944   0.435   4.226   3.153
 1729SOL     OW 6945   0.665   4.412   3.038
 1729SOL    HW2 6946   0.604   4.355   3.084
 1729SOL    HW3 6947   0.663   4.382   2.947
 1729SOL    MW4 6948   0.657   4.401   3.032
 1730SOL     OW 6949   1.114   4.666   3.132
 1730SOL    HW2 6950   1.185   4.721   3.098
 1730SOL    HW3 6951   1.035   4.699   3.089
 1730SOL    MW4 6952   1.113   4.678   3.122
 1731SOL     OW 6953   0.898   0.102   2.999
 1731SOL    HW2 6954   0.880   0.192   3.026
 1731SOL    HW3 6955   0.822   0.052   3.029
 1731SOL    MW4 6956   0.886   0.108   3.006
 1732SOL     OW 6957   0.861   0.351   3.132
 1732SOL    HW2 6958   0.870   0.359   3.227
 1732SOL    HW3 6959   0.927   0.411   3.096
 1732SOL    MW4 6960   0.871   0.360   3.140
 1733SOL     OW 6961   1.069   0.517   3.021
 1733SOL    HW2 6962   1.161   0.497   3.041
 1733SOL    HW3 6963   1.059   0.497   2.928
 1733SOL    MW4 6964   1.080   0.512   3.012
 1734SOL     OW 6965   1.120   0.781   3.123
 1734SOL    HW2 6966   1.114   0.770   3.217
 1734SOL    HW3 6967   1.095   0.696   3.087
 1734SOL    MW4 6968   1.116   0.768   3.130
 1735SOL     OW 6969   0.892   0.877   2.988
 1735SOL    HW2 6970   0.967   0.863   3.047
 1735SOL    HW3 6971   0.820   0.831   3.030
 1735SOL    MW4 6972   0.893   0.869   3.001
 1736SOL     OW 6973   0.891   1.133   3.097
 1736SOL    HW2 6974   0.963   1.174   3.050
 1736SOL    HW3 6975   0.878   1.049   3.052
 1736SOL    MW4 6976   0.899   1.127   3.085
 1737SOL     OW 6977   1.112   1.275   2.999
 1737SOL    HW2 6978   1.175   1.223   3.048
 1737SOL    HW3 6979   1.123   1.247   2.908
 1737SOL    MW4 6980   1.121   1.264   2.994
 1738SOL     OW 6981   1.095   1.528   3.155
 1738SOL    HW2 6982   1.167   1.579   3.120
 1738SOL    HW3 6983   1.090   1.451   3.097
 1738SOL    MW4 6984   1.104   1.524   3.142
 1739SOL     OW 6985   0.908   1.624   2.998
 1739SOL    HW2 6986   0.979   1.599   3.057
 1739SOL    HW3 6987   0.829   1.588   3.039
 1739SOL    MW4 6988   0.907   1.616   3.011
 1740SOL     OW 6989   0.898   1.899   3.096
 1740SOL    HW2 6990   0.899   1.889   3.191
 1740SOL    HW3 6991   0.910   1.811   3.062
 1740SOL    MW4 6992   0.900   1.886   3.104
 1741SOL     OW 6993   1.105   2.100   3.031
 1741SOL    HW2 6994   1.034   2.042   3.059
 1741SOL    HW3 6995   1.109   2.088   2.936
 1741SOL    MW4 6996   1.096   2.091   3.022
 1742SOL     OW 6997   1.167   2.345   3.155
 1742SOL    HW2 6998   1.103   2.410   3.125
 1742SOL    HW3 6999   1.138   2.263   3.115
 1742SOL    MW4 7000   1.155   2.343   3.146
 1743SOL     OW 7001   0.935   2.458   3.028
 1743SOL    HW2 7002   0.865   2.412   3.074
 1743SOL    HW3 7003   0.932   2.423   2.939
 1743SOL    MW4 7004   0.925   2.447   3.023
 1744SOL     OW 7005   0.904   2.724   3.126
 1744SOL    HW2 7006   0.907   2.719   3.221
 1744SOL    HW3 7007   0.919   2.634   3.097
 1744SOL    MW4 7008   0.906   2.711   3.135
 1745SOL     OW 7009   1.099   2.840   2.999
 1745SOL    HW2 7010   1.116   2.923   3.043
 1745SOL    HW3 7011   1.020   2.806   3.040
 1745SOL    MW4 7012   1.091   2.847   3.010
 1746SOL     OW 7013   1.142   3.114   3.139
 1746SOL    HW2 7014   1.212   3.172   3.110
 1746SOL    HW3 7015   1.063   3.150   3.098
 1746SOL    MW4 7016   1.141   3.126   3.130
 1747SOL     OW 7017   0.891   3.214   3.017
 1747SOL    HW2 7018   0.816   3.156   3.036
 1747SOL    HW3 7019   0.887   3.225   2.922
 1747SOL    MW4 7020   0.880   3.208   3.007
 1748SOL     OW 7021   0.949   3.471   3.132
 1748SOL    HW2 7022   1.026   3.506   3.088
 1748SOL    HW3 7023   0.940   3.381   3.099
 1748SOL    MW4 7024   0.958   3.463   3.122
 1749SOL     OW 7025   1.116   3.651   3.002
 1749SOL    HW2 7026   1.193   3.623   3.050
 1749SOL    HW3 7027   1.090   3.733   3.044
 1749SOL    MW4 7028   1.123   3.658   3.014
 1750SOL     OW 7029   1.117   3.894   3.131
 1750SOL    HW2 7030   1.120   3.877   3.225
 1750SOL    HW3 7031   1.034   3.940   3.118
 1750SOL    MW4 7032   1.106   3.898   3.142
 1751SOL     OW 7033   0.875   4.025   3.027
 1751SOL    HW2 7034   0.801   3.971   3.056
 1751SOL    HW3 7035   0.879   4.009   2.932
 1751SOL    MW4 7036   0.866   4.015   3.018
 1752SOL     OW 7037   0.907   4.278   3.126
 1752SOL    HW2 7038   0.915   4.186   3.099
 1752SOL    HW3 7039   0.828   4.309   3.082
 1752SOL    MW4 7040   0.897   4.270   3.117
 1753SOL     OW 7041   1.111   4.426   2.995
 1753SOL    HW2 7042   1.029   4.392   3.032
 1753SOL    HW3 7043   1.124   4.510   3.039
 1753SOL    MW4 7044   1.101   4.432   3.006
 1754SOL     OW 7045   1.548   0.002   3.121
 1754SOL    HW2 7046   1.549   0.011   3.217
 1754SOL    HW3 7047   1.470   0.050   3.093
 1754SOL    MW4 7048   1.538   0.010   3.130
 1755SOL     OW 7049   1.321   0.148   3.026
 1755SOL    HW2 7050   1.317   0.241   3.049
 1755SOL    HW3 7051   1.329   0.148   2.931
 1755SOL    MW4 7052   1.321   0.160   3.016
 1756SOL     OW 7053   1.314   0.416   3.078
 1756SOL    HW2 7054   1.306   0.422   3.173
 1756SOL    HW3 7055   1.399   0.455   3.058
 1756SOL    MW4 7056   1.324   0.422   3.088
 1757SOL     OW 7057   1.572   0.519   3.019
 1757SOL    HW2 7058   1.592   0.610   3.037
 1757SOL    HW3 7059   1.580   0.511   2.924
 1757SOL    MW4 7060   1.576   0.530   3.009
 1758SOL     OW 7061   1.592   0.779   3.098
 1758SOL    HW2 7062   1.580   0.774   3.193
 1758SOL    HW3 7063   1.513   0.823   3.066
 1758SOL    MW4 7064   1.580   0.784   3.106
 1759SOL     OW 7065   1.341   0.903   3.005
 1759SOL    HW2 7066   1.340   0.988   3.050
 1759SOL    HW3 7067   1.267   0.856   3.043
 1759SOL    MW4 7068   1.331   0.908   3.016
 1760SOL     OW 7069   1.316   1.147   3.133
 1760SOL    HW2 7070   1.324   1.146   3.228
 1760SOL    HW3 7071   1.391   1.199   3.103
 1760SOL    MW4 7072   1.327   1.154   3.141
 1761SOL     OW 7073   1.538   1.289   3.022
 1761SOL    HW2 7074   1.622   1.255   3.052
 1761SOL    HW3 7075   1.539   1.382   3.048
 1761SOL    MW4 7076   1.549   1.297   3.030
 1762SOL     OW 7077   1.523   1.550   3.095
 1762SOL    HW2 7078   1.580   1.625   3.080
 1762SOL    HW3 7079   1.436   1.579   3.067
 1762SOL    MW4 7080   1.519   1.564   3.090
 1763SOL     OW 7081   1.279   1.684   3.032
 1763SOL    HW2 7082   1.300   1.776   3.048
 1763SOL    HW3 7083   1.292   1.673   2.938
 1763SOL    MW4 7084   1.284   1.695   3.022
 1764SOL     OW 7085   1.321   1.952   3.095
 1764SOL    HW2 7086   1.323   1.931   3.188
 1764SOL    HW3 7087   1.242   2.005   3.084
 1764SOL    MW4 7088   1.311   1.957   3.106
 1765SOL     OW 7089   1.544   2.065   2.995
 1765SOL    HW2 7090   1.468   2.018   3.029
 1765SOL    HW3 7091   1.527   2.074   2.901
 1765SOL    MW4 7092   1.532   2.060   2.987
 1766SOL     OW 7093   1.554   2.310   3.131
 1766SOL    HW2 7094   1.490   2.372   3.098
 1766SOL    HW3 7095   1.532   2.227   3.088
 1766SOL    MW4 7096   1.543   2.307   3.121
 1767SOL     OW 7097   1.369   2.491   3.051
 1767SOL    HW2 7098   1.308   2.422   3.079
 1767SOL    HW3 7099   1.355   2.498   2.957
 1767SOL    MW4 7100   1.359   2.483   3.043
 1768SOL     OW 7101   1.345   2.746   3.103
 1768SOL    HW2 7102   1.354   2.658   3.068
 1768SOL    HW3 7103   1.265   2.780   3.064
 1768SOL    MW4 7104   1.336   2.739   3.093
 1769SOL     OW 7105   1.579   2.867   3.014
 1769SOL    HW2 7106   1.653   2.808   3.025
 1769SOL    HW3 7107   1.505   2.818   3.051
 1769SOL    MW4 7108   1.579   2.852   3.021
 1770SOL     OW 7109   1.603   3.114   3.126
 1770SOL    HW2 7110   1.603   3.091   3.219
 1770SOL    HW3 7111   1.594   3.030   3.081
 1770SOL    MW4 7112   1.602   3.100   3.132
 1771SOL     OW 7113   1.367   3.271   3.042
 1771SOL    HW2 7114   1.435   3.205   3.058
 1771SOL    HW3 7115   1.360   3.274   2.946
 1771SOL    MW4 7116   1.375   3.262   3.031
 1772SOL     OW 7117   1.333   3.513   3.140
 1772SOL    HW2 7118   1.327   3.501   3.235
 1772SOL    HW3 7119   1.349   3.425   3.106
 1772SOL    MW4 7120   1.335   3.500   3.148
 1773SOL     OW 7121   1.539   3.640   3.000
 1773SOL    HW2 7122   1.465   3.593   3.038
 1773SOL    HW3 7123   1.533   3.621   2.906
 1773SOL    MW4 7124   1.529   3.631   2.993
 1774SOL     OW 7125   1.567   3.914   3.106
 1774SOL    HW2 7126   1.651   3.954   3.084
 1774SOL    HW3 7127   1.580   3.820   3.091
 1774SOL    MW4 7128   1.579   3.907   3.101
 1775SOL     OW 7129   1.323   4.027   2.983
 1775SOL    HW2 7130   1.399   4.009   3.038
 1775SOL    HW3 7131   1.254   3.972   3.020
 1775SOL    MW4 7132   1.324   4.017   2.995
 1776SOL     OW 7133   1.334   4.279   3.108
 1776SOL    HW2 7134   1.336   4.190   3.072
 1776SOL    HW3 7135   1.263   4.322   3.061
 1776SOL    MW4 7136   1.325   4.273   3.097
 1777SOL     OW 7137   1.547   4.418   2.983
 1777SOL    HW2 7138   1.470   4.372   3.018
 1777SOL    HW3 7139   1.542   4.505   3.021
 1777SOL    MW4 7140   1.536   4.423   2.993
 1778SOL     OW 7141   1.964   4.640   3.121
 1778SOL    HW2 7142   1.984   4.667   3.211
 1778SOL    HW3 7143   1.893   4.697   3.094
 1778SOL    MW4 7144   1.957   4.651   3.130
 1779SOL     OW 7145   1.757   0.111   2.981
 1779SOL    HW2 7146   1.672   0.089   3.017
 1779SOL    HW3 7147   1.745   0.109   2.886
 1779SOL    MW4 7148   1.744   0.108   2.973
 1780SOL     OW 7149   1.826   0.368   3.079
 1780SOL    HW2 7150   1.811   0.276   3.059
 1780SOL    HW3 7151   1.744   0.411   3.054
 1780SOL    MW4 7152   1.813   0.362   3.073
 1781SOL     OW 7153   2.019   0.533   2.990
 1781SOL    HW2 7154   1.949   0.480   3.029
 1781SOL    HW3 7155   2.004   0.529   2.896
 1781SOL    MW4 7156   2.008   0.526   2.983
 1782SOL     OW 7157   2.059   0.772   3.107
 1782SOL    HW2 7158   1.980   0.821   3.087
 1782SOL    HW3 7159   2.041   0.683   3.078
 1782SOL    MW4 7160   2.046   0.767   3.101
 1783SOL     OW 7161   1.829   0.904   3.031
 1783SOL    HW2 7162   1.746   0.866   3.056
 1783SOL    HW3 7163   1.827   0.904   2.935
 1783SOL    MW4 7164   1.818   0.899   3.021
 1784SOL     OW 7165   1.787   1.163   3.096
 1784SOL    HW2 7166   1.771   1.174   3.190
 1784SOL    HW3 7167   1.801   1.069   3.086
 1784SOL    MW4 7168   1.787   1.152   3.107
 1785SOL     OW 7169   2.032   1.252   2.984
 1785SOL    HW2 7170   2.109   1.212   3.025
 1785SOL    HW3 7171   1.958   1.217   3.034
 1785SOL    MW4 7172   2.032   1.242   2.996
 1786SOL     OW 7173   1.993   1.539   3.059
 1786SOL    HW2 7174   1.994   1.541   3.154
 1786SOL    HW3 7175   2.002   1.446   3.038
 1786SOL    MW4 7176   1.995   1.527   3.069
 1787SOL     OW 7177   1.759   1.679   2.982
 1787SOL    HW2 7178   1.783   1.767   3.010
 1787SOL    HW3 7179   1.834   1.625   3.005
 1787SOL    MW4 7180   1.772   1.683   2.989
 1788SOL     OW 7181   1.795   1.944   3.116
 1788SOL    HW2 7182   1.856   2.008   3.081
 1788SOL    HW3 7183   1.715   1.957   3.066
 1788SOL    MW4 7184   1.793   1.954   3.105
 1789SOL     OW 7185   2.014   2.069   3.008
 1789SOL    HW2 7186   2.067   2.000   3.046
 1789SOL    HW3 7187   2.037   2.148   3.058
 1789SOL    MW4 7188   2.024   2.070   3.019
 1790SOL     OW 7189   2.020   2.312   3.120
 1790SOL    HW2 7190   2.094   2.349   3.072
 1790SOL    HW3 7191   1.943   2.355   3.082
 1790SOL    MW4 7192   2.020   2.323   3.109
 1791SOL     OW 7193   1.785   2.405   3.018
 1791SOL    HW2 7194   1.779   2.497   3.043
 1791SOL    HW3 7195   1.714   2.363   3.065
 1791SOL    MW4 7196   1.775   2.412   3.028
 1792SOL     OW 7197   1.792   2.670   3.087
 1792SOL    HW2 7198   1.785   2.679   3.182
 1792SOL    HW3 7199   1.876   2.711   3.066
 1792SOL    MW4 7200   1.802   2.677   3.097
 1793SOL     OW 7201   2.026   2.824   2.983
 1793SOL    HW2 7202   2.033   2.914   3.014
 1793SOL    HW3 7203   2.010   2.833   2.889
 1793SOL    MW4 7204   2.024   2.837   2.974
 1794SOL     OW 7205   2.024   3.105   3.077
 1794SOL    HW2 7206   2.010   3.098   3.171
 1794SOL    HW3 7207   1.946   3.149   3.044
 1794SOL    MW4 7208   2.012   3.110   3.085
 1795SOL     OW 7209   1.810   3.255   3.029
 1795SOL    HW2 7210   1.744   3.202   3.072
 1795SOL    HW3 7211   1.797   3.239   2.936
 1795SOL    MW4 7212   1.800   3.246   3.022
 1796SOL     OW 7213   1.768   3.504   3.118
 1796SOL    HW2 7214   1.784   3.421   3.072
 1796SOL    HW3 7215   1.697   3.545   3.069
 1796SOL    MW4 7216   1.761   3.499   3.105
 1797SOL     OW 7217   2.018   3.596   3.026
 1797SOL    HW2 7218   2.031   3.686   3.057
 1797SOL    HW3 7219   1.933   3.571   3.061
 1797SOL    MW4 7220   2.008   3.604   3.035
 1798SOL     OW 7221   2.068   3.878   3.111
 1798SOL    HW2 7222   2.064   3.889   3.206
 1798SOL    HW3 7223   1.990   3.921   3.077
 1798SOL    MW4 7224   2.057   3.885   3.119
 1799SOL     OW 7225   1.830   3.979   2.996
 1799SOL    HW2 7226   1.818   4.070   3.025
 1799SOL    HW3 7227   1.843   3.986   2.901
 1799SOL    MW4 7228   1.830   3.992   2.987
 1800SOL     OW 7229   1.781   4.260   3.095
 1800SOL    HW2 7230   1.860   4.302   3.061
 1800SOL    HW3 7231   1.711   4.321   3.074
 1800SOL    MW4 7232   1.782   4.274   3.088
 1801SOL     OW 7233   2.036   4.386   3.028
 1801SOL    HW2 7234   2.018   4.476   3.054
 1801SOL    HW3 7235   2.032   4.387   2.932
 1801SOL    MW4 7236   2.033   4.398   3.019
 1802SOL     OW 7237   2.472   0.021   3.096
 1802SOL    HW2 7238   2.488  -0.072   3.076
 1802SOL    HW3 7239   2.387   0.039   3.057
 1802SOL    MW4 7240   2.463   0.011   3.088
 1803SOL     OW 7241   2.206   0.065   3.002
 1803SOL    HW2 7242   2.205   0.155   3.035
 1803SOL    HW3 7243   2.134   0.022   3.048
 1803SOL    MW4 7244   2.196   0.071   3.013
 1804SOL     OW 7245   2.219   0.336   3.068
 1804SOL    HW2 7246   2.207   0.333   3.162
 1804SOL    HW3 7247   2.144   0.386   3.035
 1804SOL    MW4 7248   2.208   0.342   3.076
 1805SOL     OW 7249   2.454   0.491   3.025
 1805SOL    HW2 7250   2.366   0.457   3.037
 1805SOL    HW3 7251   2.460   0.511   2.932
 1805SOL    MW4 7252   2.443   0.489   3.015
 1806SOL     OW 7253   2.475   0.776   3.083
 1806SOL    HW2 7254   2.553   0.802   3.033
 1806SOL    HW3 7255   2.474   0.680   3.078
 1806SOL    MW4 7256   2.485   0.767   3.076
 1807SOL     OW 7257   2.249   0.870   2.956
 1807SOL    HW2 7258   2.327   0.831   2.996
 1807SOL    HW3 7259   2.175   0.829   3.003
 1807SOL    MW4 7260   2.249   0.859   2.968
 1808SOL     OW 7261   2.251   1.119   3.071
 1808SOL    HW2 7262   2.267   1.106   3.165
 1808SOL    HW3 7263   2.244   1.031   3.035
 1808SOL    MW4 7264   2.252   1.106   3.079
 1809SOL     OW 7265   2.449   1.296   3.000
 1809SOL    HW2 7266   2.391   1.223   3.021
 1809SOL    HW3 7267   2.452   1.297   2.904
 1809SOL    MW4 7268   2.442   1.287   2.990
 1810SOL     OW 7269   2.468   1.545   3.109
 1810SOL    HW2 7270   2.386   1.573   3.068
 1810SOL    HW3 7271   2.476   1.453   3.085
 1810SOL    MW4 7272   2.458   1.537   3.100
 1811SOL     OW 7273   2.219   1.655   2.986
 1811SOL    HW2 7274   2.135   1.613   3.004
 1811SOL    HW3 7275   2.215   1.676   2.893
 1811SOL    MW4 7276   2.207   1.652   2.977
 1812SOL     OW 7277   2.207   1.920   3.108
 1812SOL    HW2 7278   2.292   1.952   3.078
 1812SOL    HW3 7279   2.209   1.826   3.091
 1812SOL    MW4 7280   2.218   1.912   3.102
 1813SOL     OW 7281   2.474   2.032   3.013
 1813SOL    HW2 7282   2.552   1.998   3.057
 1813SOL    HW3 7283   2.493   2.023   2.920
 1813SOL    MW4 7284   2.487   2.026   3.006
 1814SOL     OW 7285   2.481   2.290   3.060
 1814SOL    HW2 7286   2.491   2.295   3.155
 1814SOL    HW3 7287   2.479   2.197   3.041
 1814SOL    MW4 7288   2.482   2.279   3.070
 1815SOL     OW 7289   2.243   2.420   2.983
 1815SOL    HW2 7290   2.252   2.500   3.035
 1815SOL    HW3 7291   2.325   2.372   2.998
 1815SOL    MW4 7292   2.255   2.424   2.992
 1816SOL     OW 7293   2.242   2.693   3.108
 1816SOL    HW2 7294   2.325   2.731   3.080
 1816SOL    HW3 7295   2.175   2.750   3.070
 1816SOL    MW4 7296   2.244   2.705   3.099
 1817SOL     OW 7297   2.467   2.827   3.000
 1817SOL    HW2 7298   2.476   2.920   3.021
 1817SOL    HW3 7299   2.479   2.823   2.905
 1817SOL    MW4 7300   2.470   2.839   2.990
 1818SOL     OW 7301   2.476   3.071   3.107
 1818SOL    HW2 7302   2.547   3.127   3.077
 1818SOL    HW3 7303   2.398   3.107   3.066
 1818SOL    MW4 7304   2.475   3.083   3.098
 1819SOL     OW 7305   2.261   3.215   2.972
 1819SOL    HW2 7306   2.264   3.301   3.012
 1819SOL    HW3 7307   2.180   3.176   3.005
 1819SOL    MW4 7308   2.251   3.221   2.981
 1820SOL     OW 7309   2.255   3.465   3.083
 1820SOL    HW2 7310   2.316   3.526   3.042
 1820SOL    HW3 7311   2.169   3.504   3.068
 1820SOL    MW4 7312   2.252   3.478   3.076
 1821SOL     OW 7313   2.485   3.605   2.970
 1821SOL    HW2 7314   2.557   3.551   3.002
 1821SOL    HW3 7315   2.486   3.682   3.027
 1821SOL    MW4 7316   2.495   3.608   2.981
 1822SOL     OW 7317   2.502   3.842   3.105
 1822SOL    HW2 7318   2.510   3.839   3.201
 1822SOL    HW3 7319   2.581   3.888   3.076
 1822SOL    MW4 7320   2.514   3.848   3.114
 1823SOL     OW 7321   2.294   3.988   3.020
 1823SOL    HW2 7322   2.368   3.939   3.057
 1823SOL    HW3 7323   2.217   3.945   3.058
 1823SOL    MW4 7324   2.294   3.976   3.030
 1824SOL     OW 7325   2.253   4.237   3.107
 1824SOL    HW2 7326   2.270   4.150   3.071
 1824SOL    HW3 7327   2.169   4.262   3.068
 1824SOL    MW4 7328   2.244   4.229   3.097
 1825SOL     OW 7329   2.471   4.420   3.034
 1825SOL    HW2 7330   2.389   4.380   3.063
 1825SOL    HW3 7331   2.475   4.402   2.940
 1825SOL    MW4 7332   2.461   4.413   3.025
 1826SOL     OW 7333   2.896   0.006   3.099
 1826SOL    HW2 7334   2.981   0.043   3.076
 1826SOL    HW3 7335   2.901  -0.085   3.070
 1826SOL    MW4 7336   2.908  -0.001   3.092
 1827SOL     OW 7337   2.690   0.155   2.985
 1827SOL    HW2 7338   2.764   0.107   3.023
 1827SOL    HW3 7339   2.613   0.122   3.032
 1827SOL    MW4 7340   2.690   0.144   2.996
 1828SOL     OW 7341   2.713   0.426   3.063
 1828SOL    HW2 7342   2.711   0.336   3.032
 1828SOL    HW3 7343   2.625   0.459   3.047
 1828SOL    MW4 7344   2.701   0.419   3.057
 1829SOL     OW 7345   2.943   0.547   2.975
 1829SOL    HW2 7346   2.874   0.496   3.017
 1829SOL    HW3 7347   2.941   0.521   2.883
 1829SOL    MW4 7348   2.934   0.537   2.969
 1830SOL     OW 7349   2.885   0.758   3.142
 1830SOL    HW2 7350   2.905   0.730   3.231
 1830SOL    HW3 7351   2.893   0.679   3.089
 1830SOL    MW4 7352   2.889   0.744   3.147
 1831SOL     OW 7353   2.705   0.906   2.989
 1831SOL    HW2 7354   2.674   0.988   3.028
 1831SOL    HW3 7355   2.759   0.866   3.056
 1831SOL    MW4 7356   2.708   0.912   3.003
 1832SOL     OW 7357   2.676   1.156   3.120
 1832SOL    HW2 7358   2.755   1.207   3.105
 1832SOL    HW3 7359   2.604   1.218   3.103
 1832SOL    MW4 7360   2.677   1.171   3.116
 1833SOL     OW 7361   2.911   1.269   3.052
 1833SOL    HW2 7362   3.000   1.243   3.078
 1833SOL    HW3 7363   2.907   1.363   3.068
 1833SOL    MW4 7364   2.922   1.278   3.058
 1834SOL     OW 7365   2.908   1.542   3.091
 1834SOL    HW2 7366   2.921   1.527   3.185
 1834SOL    HW3 7367   2.984   1.593   3.065
 1834SOL    MW4 7368   2.920   1.547   3.100
 1835SOL     OW 7369   2.677   1.670   2.972
 1835SOL    HW2 7370   2.759   1.635   3.008
 1835SOL    HW3 7371   2.608   1.623   3.019
 1835SOL    MW4 7372   2.679   1.659   2.983
 1836SOL     OW 7373   2.701   1.910   3.124
 1836SOL    HW2 7374   2.769   1.965   3.085
 1836SOL    HW3 7375   2.699   1.832   3.068
 1836SOL    MW4 7376   2.709   1.907   3.111
 1837SOL     OW 7377   2.917   2.047   3.006
 1837SOL    HW2 7378   2.937   2.135   3.037
 1837SOL    HW3 7379   2.912   2.056   2.911
 1837SOL    MW4 7380   2.919   2.060   2.998
 1838SOL     OW 7381   2.942   2.302   3.119
 1838SOL    HW2 7382   3.021   2.336   3.077
 1838SOL    HW3 7383   2.871   2.358   3.087
 1838SOL    MW4 7384   2.943   2.314   3.109
 1839SOL     OW 7385   2.713   2.438   3.022
 1839SOL    HW2 7386   2.706   2.526   3.059
 1839SOL    HW3 7387   2.629   2.397   3.043
 1839SOL    MW4 7388   2.701   2.444   3.030
 1840SOL     OW 7389   2.702   2.700   3.096
 1840SOL    HW2 7390   2.705   2.715   3.191
 1840SOL    HW3 7391   2.621   2.742   3.068
 1840SOL    MW4 7392   2.692   2.708   3.105
 1841SOL     OW 7393   2.931   2.817   3.012
 1841SOL    HW2 7394   3.011   2.766   3.028
 1841SOL    HW3 7395   2.861   2.764   3.048
 1841SOL    MW4 7396   2.932   2.804   3.019
 1842SOL     OW 7397   2.942   3.078   3.107
 1842SOL    HW2 7398   2.865   3.130   3.086
 1842SOL    HW3 7399   2.918   2.988   3.085
 1842SOL    MW4 7400   2.929   3.073   3.101
 1843SOL     OW 7401   2.718   3.197   3.012
 1843SOL    HW2 7402   2.719   3.284   3.053
 1843SOL    HW3 7403   2.732   3.215   2.919
 1843SOL    MW4 7404   2.720   3.211   3.005
 1844SOL     OW 7405   2.694   3.474   3.087
 1844SOL    HW2 7406   2.696   3.478   3.182
 1844SOL    HW3 7407   2.780   3.506   3.059
 1844SOL    MW4 7408   2.705   3.479   3.096
 1845SOL     OW 7409   2.938   3.600   3.015
 1845SOL    HW2 7410   3.019   3.562   3.047
 1845SOL    HW3 7411   2.933   3.686   3.057
 1845SOL    MW4 7412   2.948   3.606   3.024
 1846SOL     OW 7413   2.890   3.838   3.138
 1846SOL    HW2 7414   2.895   3.854   3.232
 1846SOL    HW3 7415   2.820   3.896   3.107
 1846SOL    MW4 7416   2.882   3.848   3.146
 1847SOL     OW 7417   2.711   4.027   3.032
 1847SOL    HW2 7418   2.694   4.120   3.045
 1847SOL    HW3 7419   2.711   4.015   2.937
 1847SOL    MW4 7420   2.709   4.037   3.021
 1848SOL     OW 7421   2.683   4.270   3.120
 1848SOL    HW2 7422   2.670   4.256   3.214
 1848SOL    HW3 7423   2.605   4.318   3.092
 1848SOL    MW4 7424   2.671   4.274   3.129
 1849SOL     OW 7425   2.906   4.404   3.010
 1849SOL    HW2 7426   2.987   4.369   3.045
 1849SOL    HW3 7427   2.837   4.356   3.055
 1849SOL    MW4 7428   2.907   4.393   3.020
 1850SOL     OW 7429   3.374   4.647   3.122
 1850SOL    HW2 7430   3.457   4.674   3.083
 1850SOL    HW3 7431   3.359   4.558   3.090
 1850SOL    MW4 7432   3.383   4.639   3.112
 1851SOL     OW 7433   3.140   0.103   3.001
 1851SOL    HW2 7434   3.148   0.192   3.036
 1851SOL    HW3 7435   3.210   0.054   3.043
 1851SOL    MW4 7436   3.150   0.108   3.011
 1852SOL     OW 7437   3.109   0.356   3.105
 1852SOL    HW2 7438   3.194   0.394   3.084
 1852SOL    HW3 7439   3.045   0.415   3.067
 1852SOL    MW4 7440   3.112   0.369   3.097
 1853SOL     OW 7441   3.354   0.450   3.014
 1853SOL    HW2 7442   3.430   0.398   3.041
 1853SOL    HW3 7443   3.351   0.442   2.919
 1853SOL    MW4 7444   3.364   0.442   3.005
 1854SOL     OW 7445   3.341   0.740   3.067
 1854SOL    HW2 7446   3.339   0.759   3.161
 1854SOL    HW3 7447   3.330   0.646   3.061
 1854SOL    MW4 7448   3.339   0.730   3.079
 1855SOL     OW 7449   3.116   0.888   3.020
 1855SOL    HW2 7450   3.192   0.837   3.049
 1855SOL    HW3 7451   3.044   0.856   3.074
 1855SOL    MW4 7452   3.116   0.877   3.031
 1856SOL     OW 7453   3.147   1.139   3.124
 1856SOL    HW2 7454   3.230   1.163   3.083
 1856SOL    HW3 7455   3.125   1.054   3.085
 1856SOL    MW4 7456   3.155   1.131   3.114
 1857SOL     OW 7457   3.399   1.234   3.012
 1857SOL    HW2 7458   3.475   1.203   3.061
 1857SOL    HW3 7459   3.392   1.327   3.035
 1857SOL    MW4 7460   3.408   1.242   3.022
 1858SOL     OW 7461   3.366   1.513   3.093
 1858SOL    HW2 7462   3.372   1.533   3.186
 1858SOL    HW3 7463   3.437   1.562   3.053
 1858SOL    MW4 7464   3.376   1.522   3.100
 1859SOL     OW 7465   3.143   1.666   3.021
 1859SOL    HW2 7466   3.212   1.601   3.035
 1859SOL    HW3 7467   3.126   1.662   2.926
 1859SOL    MW4 7468   3.150   1.657   3.010
 1860SOL     OW 7469   3.152   1.943   3.110
 1860SOL    HW2 7470   3.167   1.850   3.088
 1860SOL    HW3 7471   3.064   1.961   3.077
 1860SOL    MW4 7472   3.142   1.933   3.102
 1861SOL     OW 7473   3.358   2.078   2.995
 1861SOL    HW2 7474   3.436   2.027   3.019
 1861SOL    HW3 7475   3.284   2.022   3.018
 1861SOL    MW4 7476   3.359   2.064   3.001
 1862SOL     OW 7477   3.396   2.335   3.153
 1862SOL    HW2 7478   3.415   2.340   3.247
 1862SOL    HW3 7479   3.390   2.242   3.135
 1862SOL    MW4 7480   3.398   2.324   3.163
 1863SOL     OW 7481   3.165   2.409   3.014
 1863SOL    HW2 7482   3.246   2.367   3.040
 1863SOL    HW3 7483   3.163   2.401   2.919
 1863SOL    MW4 7484   3.175   2.403   3.005
 1864SOL     OW 7485   3.174   2.681   3.100
 1864SOL    HW2 7486   3.158   2.680   3.194
 1864SOL    HW3 7487   3.181   2.588   3.076
 1864SOL    MW4 7488   3.173   2.668   3.109
 1865SOL     OW 7489   3.351   2.886   2.968
 1865SOL    HW2 7490   3.361   2.964   3.022
 1865SOL    HW3 7491   3.288   2.831   3.015
 1865SOL    MW4 7492   3.344   2.889   2.981
 1866SOL     OW 7493   3.394   3.106   3.108
 1866SOL    HW2 7494   3.379   3.106   3.203
 1866SOL    HW3 7495   3.318   3.152   3.072
 1866SOL    MW4 7496   3.382   3.112   3.116
 1867SOL     OW 7497   3.157   3.227   3.019
 1867SOL    HW2 7498   3.088   3.166   3.046
 1867SOL    HW3 7499   3.162   3.218   2.924
 1867SOL    MW4 7500   3.148   3.218   3.010
 1868SOL     OW 7501   3.171   3.482   3.118
 1868SOL    HW2 7502   3.254   3.516   3.086
 1868SOL    HW3 7503   3.166   3.393   3.084
 1868SOL    MW4 7504   3.181   3.475   3.110
 1869SOL     OW 7505   3.432   3.609   3.027
 1869SOL    HW2 7506   3.492   3.559   3.082
 1869SOL    HW3 7507   3.429   3.696   3.067
 1869SOL    MW4 7508   3.440   3.614   3.039
 1870SOL     OW 7509   3.352   3.872   3.104
 1870SOL    HW2 7510   3.359   3.870   3.199
 1870SOL    HW3 7511   3.264   3.908   3.088
 1870SOL    MW4 7512   3.341   3.877   3.114
 1871SOL     OW 7513   3.107   3.979   3.035
 1871SOL    HW2 7514   3.051   3.911   3.071
 1871SOL    HW3 7515   3.106   3.963   2.941
 1871SOL    MW4 7516   3.099   3.968   3.027
 1872SOL     OW 7517   3.120   4.244   3.116
 1872SOL    HW2 7518   3.122   4.241   3.211
 1872SOL    HW3 7519   3.100   4.154   3.089
 1872SOL    MW4 7520   3.118   4.232   3.125
 1873SOL     OW 7521   3.360   4.379   3.046
 1873SOL    HW2 7522   3.426   4.327   3.093
 1873SOL    HW3 7523   3.278   4.332   3.061
 1873SOL    MW4 7524   3.358   4.366   3.054
 1874SOL     OW 7525   3.821   4.609   3.138
 1874SOL    HW2 7526   3.808   4.522   3.099
 1874SOL    HW3 7527   3.757   4.664   3.094
 1874SOL    MW4 7528   3.811   4.604   3.127
 1875SOL     OW 7529   3.615   0.074   3.006
 1875SOL    HW2 7530   3.602   0.167   3.027
 1875SOL    HW3 7531   3.617   0.072   2.910
 1875SOL    MW4 7532   3.614   0.086   2.996
 1876SOL     OW 7533   3.565   0.322   3.123
 1876SOL    HW2 7534   3.577   0.316   3.218
 1876SOL    HW3 7535   3.643   0.367   3.092
 1876SOL    MW4 7536   3.577   0.327   3.132
 1877SOL     OW 7537   3.808   0.476   3.015
 1877SOL    HW2 7538   3.886   0.444   3.062
 1877SOL    HW3 7539   3.801   0.568   3.041
 1877SOL    MW4 7540   3.817   0.484   3.025
 1878SOL     OW 7541   3.795   0.736   3.082
 1878SOL    HW2 7542   3.784   0.731   3.177
 1878SOL    HW3 7543   3.862   0.803   3.069
 1878SOL    MW4 7544   3.802   0.744   3.093
 1879SOL     OW 7545   3.575   0.894   3.014
 1879SOL    HW2 7546   3.643   0.829   3.033
 1879SOL    HW3 7547   3.495   0.842   3.005
 1879SOL    MW4 7548   3.574   0.879   3.016
 1880SOL     OW 7549   3.638   1.131   3.131
 1880SOL    HW2 7550   3.721   1.173   3.109
 1880SOL    HW3 7551   3.628   1.062   3.065
 1880SOL    MW4 7552   3.647   1.128   3.119
 1881SOL     OW 7553   3.868   1.252   3.019
 1881SOL    HW2 7554   3.844   1.341   3.046
 1881SOL    HW3 7555   3.867   1.256   2.924
 1881SOL    MW4 7556   3.865   1.265   3.010
 1882SOL     OW 7557   3.798   1.525   3.097
 1882SOL    HW2 7558   3.797   1.532   3.193
 1882SOL    HW3 7559   3.730   1.585   3.067
 1882SOL    MW4 7560   3.789   1.534   3.106
 1883SOL     OW 7561   3.600   1.673   2.997
 1883SOL    HW2 7562   3.595   1.765   3.024
 1883SOL    HW3 7563   3.603   1.677   2.901
 1883SOL    MW4 7564   3.600   1.686   2.988
 1884SOL     OW 7565   3.581   1.940   3.078
 1884SOL    HW2 7566   3.580   1.923   3.172
 1884SOL    HW3 7567   3.670   1.970   3.060
 1884SOL    MW4 7568   3.593   1.942   3.088
 1885SOL     OW 7569   3.832   2.032   3.009
 1885SOL    HW2 7570   3.832   2.122   3.042
 1885SOL    HW3 7571   3.823   2.041   2.914
 1885SOL    MW4 7572   3.830   2.045   3.001
 1886SOL     OW 7573   3.845   2.304   3.138
 1886SOL    HW2 7574   3.856   2.308   3.233
 1886SOL    HW3 7575   3.770   2.363   3.121
 1886SOL    MW4 7576   3.836   2.313   3.148
 1887SOL     OW 7577   3.610   2.455   3.045
 1887SOL    HW2 7578   3.588   2.544   3.072
 1887SOL    HW3 7579   3.541   2.400   3.083
 1887SOL    MW4 7580   3.598   2.459   3.054
 1888SOL     OW 7581   3.565   2.745   3.073
 1888SOL    HW2 7582   3.647   2.768   3.029
 1888SOL    HW3 7583   3.498   2.793   3.025
 1888SOL    MW4 7584   3.567   2.754   3.060
 1889SOL     OW 7585   3.819   2.820   2.969
 1889SOL    HW2 7586   3.844   2.899   3.017
 1889SOL    HW3 7587   3.838   2.841   2.877
 1889SOL    MW4 7588   3.825   2.834   2.963
 1890SOL     OW 7589   3.858   3.065   3.115
 1890SOL    HW2 7590   3.925   3.123   3.079
 1890SOL    HW3 7591   3.775   3.099   3.082
 1890SOL    MW4 7592   3.856   3.077   3.106
 1891SOL     OW 7593   3.634   3.190   3.001
 1891SOL    HW2 7594   3.555   3.160   3.047
 1891SOL    HW3 7595   3.606   3.196   2.909
 1891SOL    MW4 7596   3.620   3.187   2.995
 1892SOL     OW 7597   3.617   3.440   3.156
 1892SOL    HW2 7598   3.689   3.494   3.121
 1892SOL    HW3 7599   3.620   3.360   3.103
 1892SOL    MW4 7600   3.627   3.437   3.144
 1893SOL     OW 7601   3.798   3.628   3.035
 1893SOL    HW2 7602   3.806   3.719   3.065
 1893SOL    HW3 7603   3.802   3.633   2.940
 1893SOL    MW4 7604   3.799   3.641   3.026
 1894SOL     OW 7605   3.796   3.891   3.129
 1894SOL    HW2 7606   3.789   3.877   3.223
 1894SOL    HW3 7607   3.720   3.945   3.107
 1894SOL    MW4 7608   3.785   3.896   3.138
 1895SOL     OW 7609   3.576   4.014   3.017
 1895SOL    HW2 7610   3.499   3.971   3.053
 1895SOL    HW3 7611   3.579   3.984   2.926
 1895SOL    MW4 7612   3.566   4.004   3.010
 1896SOL     OW 7613   3.565   4.250   3.163
 1896SOL    HW2 7614   3.644   4.297   3.136
 1896SOL    HW3 7615   3.563   4.173   3.107
 1896SOL    MW4 7616   3.575   4.246   3.152
 1897SOL     OW 7617   3.773   4.373   3.029
 1897SOL    HW2 7618   3.854   4.329   3.056
 1897SOL    HW3 7619   3.781   4.381   2.934
 1897SOL    MW4 7620   3.785   4.368   3.020
 1898SOL     OW 7621   4.256   0.001   3.113
 1898SOL    HW2 7622   4.255  -0.016   3.207
 1898SOL    HW3 7623   4.236  -0.084   3.073
 1898SOL    MW4 7624   4.253  -0.012   3.120
 1899SOL     OW 7625   4.022   0.119   3.036
 1899SOL    HW2 7626   4.104   0.092   3.077
 1899SOL    HW3 7627   3.956   0.059   3.072
 1899SOL    MW4 7628   4.024   0.108   3.046
 1900SOL     OW 7629   4.014   0.383   3.143
 1900SOL    HW2 7630   4.089   0.422   3.098
 1900SOL    HW3 7631   4.005   0.296   3.104
 1900SOL    MW4 7632   4.023   0.377   3.132
 1901SOL     OW 7633   4.251   0.496   3.045
 1901SOL    HW2 7634   4.250   0.585   3.082
 1901SOL    HW3 7635   4.249   0.510   2.951
 1901SOL    MW4 7636   4.251   0.510   3.038
 1902SOL     OW 7637   4.239   0.755   3.135
 1902SOL    HW2 7638   4.158   0.795   3.103
 1902SOL    HW3 7639   4.309   0.806   3.096
 1902SOL    MW4 7640   4.237   0.767   3.125
 1903SOL     OW 7641   4.016   0.916   3.026
 1903SOL    HW2 7642   4.031   0.995   3.076
 1903SOL    HW3 7643   4.017   0.944   2.934
 1903SOL    MW4 7644   4.018   0.930   3.020
 1904SOL     OW 7645   4.082   1.152   3.153
 1904SOL    HW2 7646   4.063   1.149   3.247
 1904SOL    HW3 7647   4.012   1.207   3.116
 1904SOL    MW4 7648   4.070   1.159   3.161
 1905SOL     OW 7649   4.289   1.279   3.011
 1905SOL    HW2 7650   4.232   1.219   3.058
 1905SOL    HW3 7651   4.255   1.280   2.922
 1905SOL    MW4 7652   4.277   1.271   3.005
 1906SOL     OW 7653   4.248   1.500   3.150
 1906SOL    HW2 7654   4.180   1.534   3.091
 1906SOL    HW3 7655   4.276   1.419   3.109
 1906SOL    MW4 7656   4.242   1.494   3.137
 1907SOL     OW 7657   4.067   1.604   2.999
 1907SOL    HW2 7658   4.076   1.692   3.036
 1907SOL    HW3 7659   3.977   1.578   3.021
 1907SOL    MW4 7660   4.056   1.612   3.007
 1908SOL     OW 7661   4.059   1.892   3.114
 1908SOL    HW2 7662   4.137   1.942   3.087
 1908SOL    HW3 7663   3.986   1.940   3.075
 1908SOL    MW4 7664   4.060   1.905   3.105
 1909SOL     OW 7665   4.269   2.033   2.992
 1909SOL    HW2 7666   4.266   2.127   3.010
 1909SOL    HW3 7667   4.284   2.027   2.898
 1909SOL    MW4 7668   4.270   2.045   2.982
 1910SOL     OW 7669   4.261   2.294   3.097
 1910SOL    HW2 7670   4.193   2.351   3.062
 1910SOL    HW3 7671   4.342   2.344   3.086
 1910SOL    MW4 7672   4.263   2.308   3.091
 1911SOL     OW 7673   4.043   2.428   2.963
 1911SOL    HW2 7674   4.018   2.512   3.003
 1911SOL    HW3 7675   3.983   2.365   3.002
 1911SOL    MW4 7676   4.032   2.431   2.974
 1912SOL     OW 7677   4.018   2.673   3.091
 1912SOL    HW2 7678   4.016   2.703   3.182
 1912SOL    HW3 7679   3.952   2.725   3.046
 1912SOL    MW4 7680   4.009   2.684   3.097
 1913SOL     OW 7681   4.258   2.827   2.987
 1913SOL    HW2 7682   4.178   2.778   3.005
 1913SOL    HW3 7683   4.324   2.786   3.042
 1913SOL    MW4 7684   4.256   2.815   2.997
 1914SOL     OW 7685   4.261   3.075   3.098
 1914SOL    HW2 7686   4.202   3.141   3.061
 1914SOL    HW3 7687   4.245   2.997   3.046
 1914SOL    MW4 7688   4.251   3.074   3.086
 1915SOL     OW 7689   4.051   3.239   2.993
 1915SOL    HW2 7690   4.030   3.327   3.024
 1915SOL    HW3 7691   4.055   3.248   2.898
 1915SOL    MW4 7692   4.049   3.252   2.985
 1916SOL     OW 7693   4.041   3.507   3.087
 1916SOL    HW2 7694   4.040   3.505   3.183
 1916SOL    HW3 7695   3.969   3.566   3.064
 1916SOL    MW4 7696   4.031   3.515   3.097
 1917SOL     OW 7697   4.271   3.614   3.024
 1917SOL    HW2 7698   4.266   3.708   3.044
 1917SOL    HW3 7699   4.188   3.579   3.056
 1917SOL    MW4 7700   4.259   3.622   3.031
 1918SOL     OW 7701   4.242   3.876   3.115
 1918SOL    HW2 7702   4.169   3.908   3.062
 1918SOL    HW3 7703   4.320   3.912   3.073
 1918SOL    MW4 7704   4.242   3.885   3.102
 1919SOL     OW 7705   4.027   4.022   2.979
 1919SOL    HW2 7706   4.042   4.101   3.031
 1919SOL    HW3 7707   3.951   3.980   3.021
 1919SOL    MW4 7708   4.019   4.026   2.992
 1920SOL     OW 7709   4.026   4.272   3.097
 1920SOL    HW2 7710   4.050   4.276   3.189
 1920SOL    HW3 7711   4.091   4.326   3.052
 1920SOL    MW4 7712   4.038   4.279   3.103
 1921SOL     OW 7713   4.237   4.418   2.983
 1921SOL    HW2 7714   4.297   4.362   3.032
 1921SOL    HW3 7715   4.250   4.393   2.891
 1921SOL    MW4 7716   4.246   4.407   2.977
 1922SOL     OW 7717   0.226   4.665   3.370
 1922SOL    HW2 7718   0.301   4.715   3.403
 1922SOL    HW3 7719   0.238   4.577   3.406
 1922SOL    MW4 7720   0.238   4.660   3.379
 1923SOL     OW 7721   0.007   0.100   3.503
 1923SOL    HW2 7722   0.018   0.192   3.479
 1923SOL    HW3 7723   0.084   0.056   3.466
 1923SOL    MW4 7724   0.019   0.107   3.495
 1924SOL     OW 7725   4.488   0.364   3.396
 1924SOL    HW2 7726   4.418   0.426   3.416
 1924SOL    HW3 7727   4.564   0.398   3.443
 1924SOL    MW4 7728   4.488   0.377   3.405
 1925SOL     OW 7729   0.231   0.474   3.489
 1925SOL    HW2 7730   0.315   0.432   3.469
 1925SOL    HW3 7731   0.236   0.559   3.444
 1925SOL    MW4 7732   0.243   0.480   3.480
 1926SOL     OW 7733   0.219   0.742   3.413
 1926SOL    HW2 7734   0.288   0.795   3.454
 1926SOL    HW3 7735   0.138   0.785   3.437
 1926SOL    MW4 7736   0.218   0.755   3.422
 1927SOL     OW 7737   4.484   0.893   3.481
 1927SOL    HW2 7738   4.491   0.897   3.576
 1927SOL    HW3 7739   4.477   0.984   3.453
 1927SOL    MW4 7740   4.484   0.906   3.490
 1928SOL     OW 7741   4.475   1.140   3.392
 1928SOL    HW2 7742   4.555   1.186   3.420
 1928SOL    HW3 7743   4.472   1.154   3.297
 1928SOL    MW4 7744   4.485   1.148   3.383
 1929SOL     OW 7745   0.209   1.310   3.457
 1929SOL    HW2 7746   0.290   1.267   3.431
 1929SOL    HW3 7747   0.226   1.403   3.444
 1929SOL    MW4 7748   0.222   1.317   3.452
 1930SOL     OW 7749   0.226   1.585   3.380
 1930SOL    HW2 7750   0.305   1.617   3.423
 1930SOL    HW3 7751   0.250   1.581   3.287
 1930SOL    MW4 7752   0.240   1.589   3.373
 1931SOL     OW 7753   4.486   1.700   3.469
 1931SOL    HW2 7754   4.424   1.633   3.439
 1931SOL    HW3 7755   4.572   1.664   3.448
 1931SOL    MW4 7756   4.489   1.686   3.462
 1932SOL     OW 7757   4.476   1.965   3.389
 1932SOL    HW2 7758   4.495   1.879   3.426
 1932SOL    HW3 7759   4.465   1.948   3.295
 1932SOL    MW4 7760   4.477   1.951   3.381
 1933SOL     OW 7761   0.248   2.062   3.488
 1933SOL    HW2 7762   0.249   2.054   3.584
 1933SOL    HW3 7763   0.157   2.041   3.464
 1933SOL    MW4 7764   0.236   2.058   3.498
 1934SOL     OW 7765   0.215   2.327   3.393
 1934SOL    HW2 7766   0.146   2.388   3.418
 1934SOL    HW3 7767   0.195   2.246   3.440
 1934SOL    MW4 7768   0.203   2.324   3.402
 1935SOL     OW 7769   0.008   2.490   3.471
 1935SOL    HW2 7770   0.001   2.470   3.564
 1935SOL    HW3 7771  -0.075   2.459   3.433
 1935SOL    MW4 7772  -0.004   2.483   3.478
 1936SOL     OW 7773   4.473   2.747   3.390
 1936SOL    HW2 7774   4.560   2.770   3.425
 1936SOL    HW3 7775   4.456   2.660   3.425
 1936SOL    MW4 7776   4.482   2.738   3.399
 1937SOL     OW 7777   0.233   2.817   3.481
 1937SOL    HW2 7778   0.304   2.774   3.435
 1937SOL    HW3 7779   0.240   2.909   3.457
 1937SOL    MW4 7780   0.243   2.823   3.472
 1938SOL     OW 7781   0.271   3.077   3.428
 1938SOL    HW2 7782   0.186   3.119   3.437
 1938SOL    HW3 7783   0.283   3.068   3.333
 1938SOL    MW4 7784   0.262   3.081   3.416
 1939SOL     OW 7785   0.016   3.209   3.461
 1939SOL    HW2 7786  -0.069   3.187   3.422
 1939SOL    HW3 7787   0.022   3.304   3.450
 1939SOL    MW4 7788   0.005   3.219   3.454
 1940SOL     OW 7789   0.028   3.478   3.410
 1940SOL    HW2 7790  -0.033   3.546   3.438
 1940SOL    HW3 7791   0.036   3.490   3.315
 1940SOL    MW4 7792   0.021   3.489   3.401
 1941SOL     OW 7793   0.249   3.604   3.491
 1941SOL    HW2 7794   0.247   3.594   3.587
 1941SOL    HW3 7795   0.170   3.560   3.461
 1941SOL    MW4 7796   0.238   3.597   3.500
 1942SOL     OW 7797   0.233   3.865   3.379
 1942SOL    HW2 7798   0.165   3.919   3.420
 1942SOL    HW3 7799   0.229   3.782   3.427
 1942SOL    MW4 7800   0.223   3.861   3.391
 1943SOL     OW 7801   0.031   4.003   3.497
 1943SOL    HW2 7802   0.038   3.996   3.592
 1943SOL    HW3 7803   0.030   4.097   3.480
 1943SOL    MW4 7804   0.032   4.015   3.507
 1944SOL     OW 7805   0.047   4.274   3.415
 1944SOL    HW2 7806  -0.027   4.329   3.443
 1944SOL    HW3 7807   0.125   4.325   3.438
 1944SOL    MW4 7808   0.048   4.288   3.422
 1945SOL     OW 7809   0.256   4.425   3.480
 1945SOL    HW2 7810   0.266   4.434   3.575
 1945SOL    HW3 7811   0.334   4.377   3.453
 1945SOL    MW4 7812   0.268   4.420   3.489
 1946SOL     OW 7813   0.674   4.636   3.391
 1946SOL    HW2 7814   0.742   4.689   3.433
 1946SOL    HW3 7815   0.676   4.663   3.300
 1946SOL    MW4 7816   0.684   4.646   3.385
 1947SOL     OW 7817   0.471   0.134   3.504
 1947SOL    HW2 7818   0.481   0.122   3.599
 1947SOL    HW3 7819   0.535   0.074   3.466
 1947SOL    MW4 7820   0.481   0.124   3.512
 1948SOL     OW 7821   0.473   0.373   3.352
 1948SOL    HW2 7822   0.538   0.432   3.389
 1948SOL    HW3 7823   0.478   0.294   3.406
 1948SOL    MW4 7824   0.482   0.370   3.364
 1949SOL     OW 7825   0.658   0.536   3.483
 1949SOL    HW2 7826   0.647   0.544   3.578
 1949SOL    HW3 7827   0.739   0.487   3.472
 1949SOL    MW4 7828   0.667   0.531   3.494
 1950SOL     OW 7829   0.638   0.791   3.367
 1950SOL    HW2 7830   0.565   0.836   3.410
 1950SOL    HW3 7831   0.635   0.702   3.403
 1950SOL    MW4 7832   0.628   0.785   3.377
 1951SOL     OW 7833   0.425   0.907   3.511
 1951SOL    HW2 7834   0.432   0.922   3.605
 1951SOL    HW3 7835   0.427   0.994   3.472
 1951SOL    MW4 7836   0.426   0.920   3.518
 1952SOL     OW 7837   0.426   1.141   3.384
 1952SOL    HW2 7838   0.501   1.183   3.427
 1952SOL    HW3 7839   0.451   1.137   3.292
 1952SOL    MW4 7840   0.439   1.146   3.378
 1953SOL     OW 7841   0.656   1.246   3.486
 1953SOL    HW2 7842   0.723   1.200   3.436
 1953SOL    HW3 7843   0.672   1.339   3.467
 1953SOL    MW4 7844   0.667   1.252   3.477
 1954SOL     OW 7845   0.687   1.521   3.412
 1954SOL    HW2 7846   0.761   1.569   3.449
 1954SOL    HW3 7847   0.611   1.577   3.426
 1954SOL    MW4 7848   0.687   1.535   3.418
 1955SOL     OW 7849   0.467   1.695   3.451
 1955SOL    HW2 7850   0.446   1.694   3.544
 1955SOL    HW3 7851   0.470   1.788   3.429
 1955SOL    MW4 7852   0.465   1.707   3.460
 1956SOL     OW 7853   0.490   1.962   3.393
 1956SOL    HW2 7854   0.408   2.000   3.426
 1956SOL    HW3 7855   0.481   1.967   3.297
 1956SOL    MW4 7856   0.478   1.968   3.384
 1957SOL     OW 7857   0.732   2.054   3.521
 1957SOL    HW2 7858   0.700   2.056   3.612
 1957SOL    HW3 7859   0.661   2.012   3.472
 1957SOL    MW4 7860   0.718   2.049   3.527
 1958SOL     OW 7861   0.705   2.281   3.382
 1958SOL    HW2 7862   0.770   2.347   3.405
 1958SOL    HW3 7863   0.731   2.203   3.430
 1958SOL    MW4 7864   0.717   2.279   3.391
 1959SOL     OW 7865   0.482   2.408   3.494
 1959SOL    HW2 7866   0.548   2.361   3.444
 1959SOL    HW3 7867   0.399   2.380   3.457
 1959SOL    MW4 7868   0.480   2.398   3.482
 1960SOL     OW 7869   0.454   2.672   3.385
 1960SOL    HW2 7870   0.467   2.587   3.427
 1960SOL    HW3 7871   0.448   2.653   3.292
 1960SOL    MW4 7872   0.455   2.659   3.378
 1961SOL     OW 7873   0.663   2.843   3.454
 1961SOL    HW2 7874   0.742   2.805   3.417
 1961SOL    HW3 7875   0.592   2.788   3.421
 1961SOL    MW4 7876   0.664   2.831   3.445
 1962SOL     OW 7877   0.649   3.093   3.368
 1962SOL    HW2 7878   0.615   3.146   3.441
 1962SOL    HW3 7879   0.649   3.004   3.402
 1962SOL    MW4 7880   0.644   3.089   3.382
 1963SOL     OW 7881   0.476   3.248   3.531
 1963SOL    HW2 7882   0.461   3.241   3.625
 1963SOL    HW3 7883   0.413   3.187   3.492
 1963SOL    MW4 7884   0.466   3.239   3.538
 1964SOL     OW 7885   0.486   3.471   3.382
 1964SOL    HW2 7886   0.484   3.392   3.436
 1964SOL    HW3 7887   0.403   3.514   3.400
 1964SOL    MW4 7888   0.475   3.466   3.392
 1965SOL     OW 7889   0.694   3.606   3.539
 1965SOL    HW2 7890   0.775   3.573   3.499
 1965SOL    HW3 7891   0.627   3.542   3.514
 1965SOL    MW4 7892   0.696   3.593   3.530
 1966SOL     OW 7893   0.651   3.836   3.396
 1966SOL    HW2 7894   0.574   3.880   3.430
 1966SOL    HW3 7895   0.661   3.758   3.450
 1966SOL    MW4 7896   0.642   3.832   3.407
 1967SOL     OW 7897   0.445   3.973   3.519
 1967SOL    HW2 7898   0.456   4.066   3.500
 1967SOL    HW3 7899   0.367   3.949   3.469
 1967SOL    MW4 7900   0.436   3.982   3.510
 1968SOL     OW 7901   0.457   4.252   3.423
 1968SOL    HW2 7902   0.538   4.297   3.449
 1968SOL    HW3 7903   0.462   4.249   3.327
 1968SOL    MW4 7904   0.468   4.258   3.413
 1969SOL     OW 7905   0.673   4.388   3.509
 1969SOL    HW2 7906   0.752   4.345   3.476
 1969SOL    HW3 7907   0.679   4.478   3.478
 1969SOL    MW4 7908   0.684   4.394   3.501
 1970SOL     OW 7909   1.046   4.661   3.410
 1970SOL    HW2 7910   1.132   4.696   3.430
 1970SOL    HW3 7911   1.037   4.672   3.315
 1970SOL    MW4 7912   1.056   4.667   3.400
 1971SOL     OW 7913   0.858   0.166   3.528
 1971SOL    HW2 7914   0.848   0.135   3.618
 1971SOL    HW3 7915   0.939   0.125   3.498
 1971SOL    MW4 7916   0.868   0.156   3.536
 1972SOL     OW 7917   0.900   0.419   3.394
 1972SOL    HW2 7918   0.987   0.445   3.421
 1972SOL    HW3 7919   0.891   0.329   3.425
 1972SOL    MW4 7920   0.910   0.410   3.401
 1973SOL     OW 7921   1.148   0.462   3.522
 1973SOL    HW2 7922   1.134   0.462   3.617
 1973SOL    HW3 7923   1.137   0.554   3.497
 1973SOL    MW4 7924   1.144   0.474   3.531
 1974SOL     OW 7925   1.087   0.710   3.402
 1974SOL    HW2 7926   1.166   0.756   3.431
 1974SOL    HW3 7927   1.015   0.756   3.446
 1974SOL    MW4 7928   1.088   0.722   3.412
 1975SOL     OW 7929   0.885   0.878   3.501
 1975SOL    HW2 7930   0.894   0.963   3.458
 1975SOL    HW3 7931   0.803   0.843   3.465
 1975SOL    MW4 7932   0.875   0.884   3.490
 1976SOL     OW 7933   0.872   1.110   3.367
 1976SOL    HW2 7934   0.939   1.173   3.394
 1976SOL    HW3 7935   0.884   1.101   3.273
 1976SOL    MW4 7936   0.883   1.117   3.358
 1977SOL     OW 7937   1.127   1.273   3.473
 1977SOL    HW2 7938   1.118   1.262   3.568
 1977SOL    HW3 7939   1.140   1.367   3.461
 1977SOL    MW4 7940   1.128   1.284   3.484
 1978SOL     OW 7941   1.104   1.554   3.432
 1978SOL    HW2 7942   1.195   1.585   3.437
 1978SOL    HW3 7943   1.085   1.550   3.339
 1978SOL    MW4 7944   1.113   1.558   3.421
 1979SOL     OW 7945   0.907   1.690   3.524
 1979SOL    HW2 7946   0.920   1.769   3.471
 1979SOL    HW3 7947   0.978   1.632   3.499
 1979SOL    MW4 7948   0.918   1.693   3.514
 1980SOL     OW 7949   0.918   1.915   3.375
 1980SOL    HW2 7950   1.002   1.958   3.391
 1980SOL    HW3 7951   0.856   1.961   3.433
 1980SOL    MW4 7952   0.921   1.927   3.385
 1981SOL     OW 7953   1.145   2.018   3.471
 1981SOL    HW2 7954   1.222   1.972   3.437
 1981SOL    HW3 7955   1.159   2.109   3.447
 1981SOL    MW4 7956   1.157   2.024   3.463
 1982SOL     OW 7957   1.155   2.304   3.431
 1982SOL    HW2 7958   1.240   2.338   3.458
 1982SOL    HW3 7959   1.161   2.296   3.336
 1982SOL    MW4 7960   1.167   2.308   3.422
 1983SOL     OW 7961   0.898   2.461   3.484
 1983SOL    HW2 7962   0.874   2.440   3.574
 1983SOL    HW3 7963   0.987   2.426   3.474
 1983SOL    MW4 7964   0.906   2.453   3.494
 1984SOL     OW 7965   0.906   2.727   3.414
 1984SOL    HW2 7966   0.971   2.776   3.463
 1984SOL    HW3 7967   0.908   2.639   3.452
 1984SOL    MW4 7968   0.915   2.721   3.425
 1985SOL     OW 7969   1.130   2.863   3.507
 1985SOL    HW2 7970   1.141   2.850   3.601
 1985SOL    HW3 7971   1.186   2.795   3.467
 1985SOL    MW4 7972   1.139   2.852   3.514
 1986SOL     OW 7973   1.129   3.117   3.413
 1986SOL    HW2 7974   1.129   3.027   3.444
 1986SOL    HW3 7975   1.148   3.111   3.320
 1986SOL    MW4 7976   1.131   3.105   3.405
 1987SOL     OW 7977   0.883   3.238   3.490
 1987SOL    HW2 7978   0.965   3.191   3.474
 1987SOL    HW3 7979   0.815   3.179   3.461
 1987SOL    MW4 7980   0.885   3.224   3.484
 1988SOL     OW 7981   0.948   3.493   3.448
 1988SOL    HW2 7982   0.926   3.402   3.469
 1988SOL    HW3 7983   0.934   3.500   3.354
 1988SOL    MW4 7984   0.943   3.482   3.439
 1989SOL     OW 7985   1.156   3.641   3.543
 1989SOL    HW2 7986   1.171   3.635   3.637
 1989SOL    HW3 7987   1.078   3.587   3.528
 1989SOL    MW4 7988   1.147   3.633   3.553
 1990SOL     OW 7989   1.086   3.863   3.397
 1990SOL    HW2 7990   1.163   3.916   3.414
 1990SOL    HW3 7991   1.108   3.776   3.431
 1990SOL    MW4 7992   1.099   3.858   3.404
 1991SOL     OW 7993   0.853   3.996   3.489
 1991SOL    HW2 7994   0.937   3.958   3.463
 1991SOL    HW3 7995   0.788   3.947   3.439
 1991SOL    MW4 7996   0.856   3.984   3.479
 1992SOL     OW 7997   0.878   4.256   3.413
 1992SOL    HW2 7998   0.881   4.167   3.448
 1992SOL    HW3 7999   0.874   4.244   3.318
 1992SOL    MW4 8000   0.878   4.243   3.405
 1993SOL     OW 8001   1.100   4.405   3.506
 1993SOL    HW2 8002   1.033   4.350   3.465
 1993SOL    HW3 8003   1.092   4.489   3.462
 1993SOL    MW4 8004   1.090   4.409   3.495
 1994SOL     OW 8005   1.543   4.651   3.390
 1994SOL    HW2 8006   1.550   4.557   3.407
 1994SOL    HW3 8007   1.457   4.675   3.423
 1994SOL    MW4 8008   1.533   4.642   3.396
 1995SOL     OW 8009   1.290   0.112   3.481
 1995SOL    HW2 8010   1.306   0.116   3.575
 1995SOL    HW3 8011   1.292   0.204   3.453
 1995SOL    MW4 8012   1.293   0.125   3.490
 1996SOL     OW 8013   1.334   0.351   3.358
 1996SOL    HW2 8014   1.420   0.381   3.388
 1996SOL    HW3 8015   1.273   0.386   3.424
 1996SOL    MW4 8016   1.337   0.360   3.371
 1997SOL     OW 8017   1.549   0.499   3.470
 1997SOL    HW2 8018   1.542   0.518   3.563
 1997SOL    HW3 8019   1.642   0.483   3.455
 1997SOL    MW4 8020   1.560   0.500   3.480
 1998SOL     OW 8021   1.573   0.782   3.376
 1998SOL    HW2 8022   1.496   0.826   3.413
 1998SOL    HW3 8023   1.562   0.690   3.399
 1998SOL    MW4 8024   1.561   0.775   3.384
 1999SOL     OW 8025   1.326   0.871   3.464
 1999SOL    HW2 8026   1.318   0.870   3.559
 1999SOL    HW3 8027   1.325   0.963   3.440
 1999SOL    MW4 8028   1.325   0.883   3.473
 2000SOL     OW 8029   1.354   1.139   3.407
 2000SOL    HW2 8030   1.430   1.187   3.441
 2000SOL    HW3 8031   1.279   1.183   3.447
 2000SOL    MW4 8032   1.354   1.151   3.417
 2001SOL     OW 8033   1.563   1.289   3.499
 2001SOL    HW2 8034   1.578   1.293   3.593
 2001SOL    HW3 8035   1.638   1.239   3.465
 2001SOL    MW4 8036   1.575   1.283   3.507
 2002SOL     OW 8037   1.606   1.538   3.373
 2002SOL    HW2 8038   1.601   1.447   3.403
 2002SOL    HW3 8039   1.580   1.534   3.281
 2002SOL    MW4 8040   1.602   1.525   3.365
 2003SOL     OW 8041   1.363   1.647   3.478
 2003SOL    HW2 8042   1.374   1.672   3.569
 2003SOL    HW3 8043   1.444   1.600   3.456
 2003SOL    MW4 8044   1.375   1.644   3.487
 2004SOL     OW 8045   1.359   1.899   3.372
 2004SOL    HW2 8046   1.445   1.927   3.402
 2004SOL    HW3 8047   1.351   1.809   3.404
 2004SOL    MW4 8048   1.369   1.891   3.380
 2005SOL     OW 8049   1.587   1.999   3.545
 2005SOL    HW2 8050   1.668   1.952   3.525
 2005SOL    HW3 8051   1.601   2.087   3.510
 2005SOL    MW4 8052   1.600   2.004   3.538
 2006SOL     OW 8053   1.583   2.265   3.418
 2006SOL    HW2 8054   1.507   2.311   3.453
 2006SOL    HW3 8055   1.573   2.270   3.323
 2006SOL    MW4 8056   1.572   2.272   3.410
 2007SOL     OW 8057   1.387   2.431   3.501
 2007SOL    HW2 8058   1.379   2.444   3.595
 2007SOL    HW3 8059   1.358   2.514   3.463
 2007SOL    MW4 8060   1.382   2.444   3.508
 2008SOL     OW 8061   1.313   2.688   3.383
 2008SOL    HW2 8062   1.386   2.734   3.425
 2008SOL    HW3 8063   1.329   2.699   3.289
 2008SOL    MW4 8064   1.325   2.696   3.376
 2009SOL     OW 8065   1.541   2.806   3.461
 2009SOL    HW2 8066   1.619   2.761   3.428
 2009SOL    HW3 8067   1.552   2.897   3.435
 2009SOL    MW4 8068   1.553   2.812   3.453
 2010SOL     OW 8069   1.571   3.082   3.395
 2010SOL    HW2 8070   1.645   3.128   3.433
 2010SOL    HW3 8071   1.494   3.133   3.422
 2010SOL    MW4 8072   1.570   3.095   3.404
 2011SOL     OW 8073   1.358   3.234   3.515
 2011SOL    HW2 8074   1.359   3.230   3.611
 2011SOL    HW3 8075   1.285   3.179   3.489
 2011SOL    MW4 8076   1.349   3.226   3.524
 2012SOL     OW 8077   1.353   3.496   3.425
 2012SOL    HW2 8078   1.339   3.410   3.463
 2012SOL    HW3 8079   1.280   3.549   3.458
 2012SOL    MW4 8080   1.342   3.492   3.434
 2013SOL     OW 8081   1.579   3.639   3.483
 2013SOL    HW2 8082   1.585   3.632   3.578
 2013SOL    HW3 8083   1.495   3.600   3.461
 2013SOL    MW4 8084   1.569   3.633   3.492
 2014SOL     OW 8085   1.568   3.914   3.392
 2014SOL    HW2 8086   1.565   3.827   3.431
 2014SOL    HW3 8087   1.579   3.898   3.298
 2014SOL    MW4 8088   1.569   3.901   3.385
 2015SOL     OW 8089   1.308   4.025   3.484
 2015SOL    HW2 8090   1.317   4.117   3.461
 2015SOL    HW3 8091   1.392   3.985   3.461
 2015SOL    MW4 8092   1.320   4.032   3.478
 2016SOL     OW 8093   1.339   4.291   3.398
 2016SOL    HW2 8094   1.264   4.340   3.434
 2016SOL    HW3 8095   1.325   4.292   3.304
 2016SOL    MW4 8096   1.327   4.298   3.391
 2017SOL     OW 8097   1.577   4.405   3.488
 2017SOL    HW2 8098   1.644   4.361   3.436
 2017SOL    HW3 8099   1.496   4.359   3.465
 2017SOL    MW4 8100   1.575   4.393   3.478
 2018SOL     OW 8101   1.993   0.028   3.383
 2018SOL    HW2 8102   2.074   0.048   3.429
 2018SOL    HW3 8103   1.924   0.062   3.440
 2018SOL    MW4 8104   1.994   0.035   3.396
 2019SOL     OW 8105   1.772   0.133   3.488
 2019SOL    HW2 8106   1.772   0.103   3.578
 2019SOL    HW3 8107   1.695   0.090   3.448
 2019SOL    MW4 8108   1.762   0.124   3.494
 2020SOL     OW 8109   1.779   0.392   3.361
 2020SOL    HW2 8110   1.799   0.303   3.391
 2020SOL    HW3 8111   1.797   0.390   3.267
 2020SOL    MW4 8112   1.784   0.380   3.353
 2021SOL     OW 8113   2.018   0.510   3.453
 2021SOL    HW2 8114   2.035   0.604   3.445
 2021SOL    HW3 8115   1.932   0.498   3.412
 2021SOL    MW4 8116   2.009   0.521   3.447
 2022SOL     OW 8117   2.014   0.782   3.392
 2022SOL    HW2 8118   2.096   0.815   3.430
 2022SOL    HW3 8119   2.031   0.777   3.298
 2022SOL    MW4 8120   2.027   0.785   3.385
 2023SOL     OW 8121   1.794   0.920   3.520
 2023SOL    HW2 8122   1.870   0.885   3.474
 2023SOL    HW3 8123   1.719   0.884   3.472
 2023SOL    MW4 8124   1.794   0.911   3.508
 2024SOL     OW 8125   1.772   1.161   3.389
 2024SOL    HW2 8126   1.862   1.185   3.408
 2024SOL    HW3 8127   1.762   1.073   3.425
 2024SOL    MW4 8128   1.782   1.152   3.396
 2025SOL     OW 8129   2.027   1.267   3.437
 2025SOL    HW2 8130   2.038   1.287   3.530
 2025SOL    HW3 8131   2.023   1.352   3.394
 2025SOL    MW4 8132   2.028   1.281   3.443
 2026SOL     OW 8133   2.046   1.534   3.343
 2026SOL    HW2 8134   2.138   1.556   3.363
 2026SOL    HW3 8135   1.995   1.585   3.406
 2026SOL    MW4 8136   2.052   1.544   3.354
 2027SOL     OW 8137   1.812   1.634   3.515
 2027SOL    HW2 8138   1.829   1.721   3.478
 2027SOL    HW3 8139   1.729   1.607   3.474
 2027SOL    MW4 8140   1.803   1.642   3.505
 2028SOL     OW 8141   1.818   1.880   3.417
 2028SOL    HW2 8142   1.885   1.944   3.443
 2028SOL    HW3 8143   1.813   1.889   3.321
 2028SOL    MW4 8144   1.826   1.890   3.407
 2029SOL     OW 8145   2.010   2.070   3.480
 2029SOL    HW2 8146   2.097   2.033   3.467
 2029SOL    HW3 8147   2.021   2.164   3.463
 2029SOL    MW4 8148   2.023   2.078   3.476
 2030SOL     OW 8149   2.013   2.325   3.401
 2030SOL    HW2 8150   2.104   2.344   3.424
 2030SOL    HW3 8151   2.015   2.308   3.307
 2030SOL    MW4 8152   2.025   2.325   3.392
 2031SOL     OW 8153   1.788   2.469   3.493
 2031SOL    HW2 8154   1.865   2.419   3.468
 2031SOL    HW3 8155   1.714   2.415   3.466
 2031SOL    MW4 8156   1.788   2.456   3.486
 2032SOL     OW 8157   1.774   2.699   3.352
 2032SOL    HW2 8158   1.853   2.745   3.383
 2032SOL    HW3 8159   1.779   2.613   3.393
 2032SOL    MW4 8160   1.785   2.694   3.361
 2033SOL     OW 8161   1.991   2.828   3.442
 2033SOL    HW2 8162   1.999   2.834   3.537
 2033SOL    HW3 8163   2.000   2.918   3.411
 2033SOL    MW4 8164   1.993   2.840   3.450
 2034SOL     OW 8165   2.016   3.083   3.341
 2034SOL    HW2 8166   2.093   3.121   3.383
 2034SOL    HW3 8167   1.942   3.127   3.381
 2034SOL    MW4 8168   2.016   3.094   3.352
 2035SOL     OW 8169   1.778   3.227   3.481
 2035SOL    HW2 8170   1.770   3.235   3.576
 2035SOL    HW3 8171   1.787   3.317   3.451
 2035SOL    MW4 8172   1.778   3.240   3.490
 2036SOL     OW 8173   1.799   3.482   3.397
 2036SOL    HW2 8174   1.715   3.525   3.414
 2036SOL    HW3 8175   1.814   3.494   3.304
 2036SOL    MW4 8176   1.790   3.489   3.387
 2037SOL     OW 8177   2.033   3.632   3.474
 2037SOL    HW2 8178   2.103   3.572   3.448
 2037SOL    HW3 8179   1.953   3.581   3.459
 2037SOL    MW4 8180   2.031   3.617   3.468
 2038SOL     OW 8181   2.031   3.888   3.374
 2038SOL    HW2 8182   1.957   3.939   3.406
 2038SOL    HW3 8183   2.023   3.803   3.417
 2038SOL    MW4 8184   2.020   3.884   3.384
 2039SOL     OW 8185   1.814   4.020   3.483
 2039SOL    HW2 8186   1.819   4.013   3.578
 2039SOL    HW3 8187   1.727   3.985   3.461
 2039SOL    MW4 8188   1.803   4.015   3.492
 2040SOL     OW 8189   1.794   4.272   3.362
 2040SOL    HW2 8190   1.807   4.192   3.414
 2040SOL    HW3 8191   1.802   4.243   3.272
 2040SOL    MW4 8192   1.797   4.257   3.357
 2041SOL     OW 8193   2.015   4.420   3.452
 2041SOL    HW2 8194   1.945   4.373   3.405
 2041SOL    HW3 8195   2.002   4.512   3.428
 2041SOL    MW4 8196   2.004   4.426   3.442
 2042SOL     OW 8197   2.413   4.657   3.374
 2042SOL    HW2 8198   2.431   4.566   3.399
 2042SOL    HW3 8199   2.425   4.659   3.279
 2042SOL    MW4 8200   2.417   4.645   3.365
 2043SOL     OW 8201   2.227   0.118   3.521
 2043SOL    HW2 8202   2.214   0.195   3.465
 2043SOL    HW3 8203   2.300   0.071   3.481
 2043SOL    MW4 8204   2.235   0.122   3.508
 2044SOL     OW 8205   2.218   0.348   3.372
 2044SOL    HW2 8206   2.296   0.388   3.410
 2044SOL    HW3 8207   2.146   0.405   3.399
 2044SOL    MW4 8208   2.219   0.360   3.381
 2045SOL     OW 8209   2.428   0.492   3.478
 2045SOL    HW2 8210   2.508   0.449   3.448
 2045SOL    HW3 8211   2.440   0.584   3.453
 2045SOL    MW4 8212   2.440   0.499   3.471
 2046SOL     OW 8213   2.478   0.749   3.377
 2046SOL    HW2 8214   2.563   0.789   3.391
 2046SOL    HW3 8215   2.467   0.749   3.282
 2046SOL    MW4 8216   2.488   0.754   3.367
 2047SOL     OW 8217   2.257   0.862   3.506
 2047SOL    HW2 8218   2.247   0.946   3.461
 2047SOL    HW3 8219   2.334   0.822   3.467
 2047SOL    MW4 8220   2.266   0.868   3.495
 2048SOL     OW 8221   2.249   1.113   3.376
 2048SOL    HW2 8222   2.322   1.166   3.408
 2048SOL    HW3 8223   2.171   1.162   3.402
 2048SOL    MW4 8224   2.248   1.127   3.384
 2049SOL     OW 8225   2.440   1.292   3.487
 2049SOL    HW2 8226   2.440   1.305   3.582
 2049SOL    HW3 8227   2.518   1.240   3.469
 2049SOL    MW4 8228   2.450   1.287   3.497
 2050SOL     OW 8229   2.526   1.551   3.376
 2050SOL    HW2 8230   2.499   1.465   3.408
 2050SOL    HW3 8231   2.509   1.548   3.282
 2050SOL    MW4 8232   2.520   1.539   3.368
 2051SOL     OW 8233   2.280   1.655   3.436
 2051SOL    HW2 8234   2.270   1.644   3.531
 2051SOL    HW3 8235   2.365   1.616   3.416
 2051SOL    MW4 8236   2.290   1.648   3.446
 2052SOL     OW 8237   2.287   1.940   3.373
 2052SOL    HW2 8238   2.288   1.852   3.411
 2052SOL    HW3 8239   2.264   1.925   3.281
 2052SOL    MW4 8240   2.284   1.926   3.366
 2053SOL     OW 8241   2.532   2.035   3.478
 2053SOL    HW2 8242   2.503   2.030   3.569
 2053SOL    HW3 8243   2.468   1.983   3.429
 2053SOL    MW4 8244   2.519   2.028   3.483
 2054SOL     OW 8245   2.478   2.300   3.365
 2054SOL    HW2 8246   2.558   2.346   3.391
 2054SOL    HW3 8247   2.482   2.217   3.412
 2054SOL    MW4 8248   2.489   2.295   3.375
 2055SOL     OW 8249   2.263   2.407   3.508
 2055SOL    HW2 8250   2.236   2.480   3.453
 2055SOL    HW3 8251   2.347   2.378   3.472
 2055SOL    MW4 8252   2.271   2.413   3.496
 2056SOL     OW 8253   2.212   2.636   3.380
 2056SOL    HW2 8254   2.142   2.679   3.429
 2056SOL    HW3 8255   2.207   2.676   3.293
 2056SOL    MW4 8256   2.202   2.647   3.375
 2057SOL     OW 8257   2.480   2.773   3.456
 2057SOL    HW2 8258   2.478   2.868   3.440
 2057SOL    HW3 8259   2.395   2.742   3.424
 2057SOL    MW4 8260   2.469   2.782   3.450
 2058SOL     OW 8261   2.475   3.067   3.383
 2058SOL    HW2 8262   2.556   3.100   3.423
 2058SOL    HW3 8263   2.485   3.086   3.290
 2058SOL    MW4 8264   2.487   3.074   3.376
 2059SOL     OW 8265   2.242   3.193   3.440
 2059SOL    HW2 8266   2.239   3.196   3.536
 2059SOL    HW3 8267   2.323   3.148   3.420
 2059SOL    MW4 8268   2.252   3.188   3.450
 2060SOL     OW 8269   2.248   3.460   3.362
 2060SOL    HW2 8270   2.232   3.370   3.388
 2060SOL    HW3 8271   2.270   3.456   3.269
 2060SOL    MW4 8272   2.248   3.448   3.353
 2061SOL     OW 8273   2.471   3.593   3.478
 2061SOL    HW2 8274   2.480   3.687   3.460
 2061SOL    HW3 8275   2.395   3.566   3.425
 2061SOL    MW4 8276   2.462   3.602   3.468
 2062SOL     OW 8277   2.507   3.852   3.384
 2062SOL    HW2 8278   2.588   3.887   3.420
 2062SOL    HW3 8279   2.438   3.902   3.427
 2062SOL    MW4 8280   2.509   3.863   3.394
 2063SOL     OW 8281   2.270   3.970   3.470
 2063SOL    HW2 8282   2.261   4.064   3.452
 2063SOL    HW3 8283   2.189   3.932   3.436
 2063SOL    MW4 8284   2.258   3.977   3.463
 2064SOL     OW 8285   2.197   4.221   3.400
 2064SOL    HW2 8286   2.130   4.284   3.425
 2064SOL    HW3 8287   2.214   4.238   3.308
 2064SOL    MW4 8288   2.191   4.231   3.391
 2065SOL     OW 8289   2.431   4.379   3.478
 2065SOL    HW2 8290   2.439   4.386   3.573
 2065SOL    HW3 8291   2.354   4.324   3.464
 2065SOL    MW4 8292   2.422   4.372   3.489
 2066SOL     OW 8293   2.890   0.004   3.382
 2066SOL    HW2 8294   2.811   0.058   3.387
 2066SOL    HW3 8295   2.902  -0.012   3.288
 2066SOL    MW4 8296   2.881   0.009   3.370
 2067SOL     OW 8297   2.644   0.134   3.442
 2067SOL    HW2 8298   2.654   0.224   3.411
 2067SOL    HW3 8299   2.573   0.097   3.389
 2067SOL    MW4 8300   2.636   0.141   3.431
 2068SOL     OW 8301   2.645   0.390   3.335
 2068SOL    HW2 8302   2.720   0.410   3.392
 2068SOL    HW3 8303   2.671   0.425   3.250
 2068SOL    MW4 8304   2.659   0.397   3.332
 2069SOL     OW 8305   2.868   0.464   3.492
 2069SOL    HW2 8306   2.865   0.460   3.587
 2069SOL    HW3 8307   2.853   0.556   3.471
 2069SOL    MW4 8308   2.865   0.476   3.501
 2070SOL     OW 8309   2.934   0.733   3.406
 2070SOL    HW2 8310   3.006   0.775   3.453
 2070SOL    HW3 8311   2.858   0.788   3.424
 2070SOL    MW4 8312   2.933   0.745   3.415
 2071SOL     OW 8313   2.709   0.883   3.441
 2071SOL    HW2 8314   2.690   0.881   3.535
 2071SOL    HW3 8315   2.721   0.976   3.422
 2071SOL    MW4 8316   2.708   0.895   3.451
 2072SOL     OW 8317   2.677   1.148   3.403
 2072SOL    HW2 8318   2.764   1.185   3.418
 2072SOL    HW3 8319   2.668   1.144   3.308
 2072SOL    MW4 8320   2.687   1.152   3.393
 2073SOL     OW 8321   2.925   1.268   3.458
 2073SOL    HW2 8322   2.921   1.271   3.553
 2073SOL    HW3 8323   2.990   1.201   3.438
 2073SOL    MW4 8324   2.933   1.260   3.468
 2074SOL     OW 8325   2.960   1.536   3.363
 2074SOL    HW2 8326   2.891   1.584   3.410
 2074SOL    HW3 8327   2.960   1.450   3.404
 2074SOL    MW4 8328   2.951   1.531   3.375
 2075SOL     OW 8329   2.753   1.666   3.494
 2075SOL    HW2 8330   2.755   1.755   3.458
 2075SOL    HW3 8331   2.670   1.630   3.464
 2075SOL    MW4 8332   2.742   1.673   3.486
 2076SOL     OW 8333   2.777   1.923   3.393
 2076SOL    HW2 8334   2.702   1.968   3.433
 2076SOL    HW3 8335   2.752   1.914   3.301
 2076SOL    MW4 8336   2.764   1.928   3.386
 2077SOL     OW 8337   2.980   2.079   3.497
 2077SOL    HW2 8338   2.984   2.069   3.592
 2077SOL    HW3 8339   2.907   2.025   3.470
 2077SOL    MW4 8340   2.971   2.071   3.506
 2078SOL     OW 8341   2.960   2.342   3.399
 2078SOL    HW2 8342   2.968   2.253   3.433
 2078SOL    HW3 8343   2.945   2.332   3.305
 2078SOL    MW4 8344   2.959   2.329   3.391
 2079SOL     OW 8345   2.711   2.421   3.432
 2079SOL    HW2 8346   2.700   2.410   3.526
 2079SOL    HW3 8347   2.794   2.379   3.412
 2079SOL    MW4 8348   2.721   2.414   3.442
 2080SOL     OW 8349   2.733   2.693   3.375
 2080SOL    HW2 8350   2.719   2.599   3.391
 2080SOL    HW3 8351   2.659   2.736   3.417
 2080SOL    MW4 8352   2.722   2.686   3.383
 2081SOL     OW 8353   2.945   2.815   3.491
 2081SOL    HW2 8354   2.932   2.815   3.586
 2081SOL    HW3 8355   2.870   2.768   3.456
 2081SOL    MW4 8356   2.933   2.809   3.499
 2082SOL     OW 8357   2.948   3.075   3.374
 2082SOL    HW2 8358   2.941   2.982   3.395
 2082SOL    HW3 8359   2.947   3.078   3.278
 2082SOL    MW4 8360   2.947   3.063   3.364
 2083SOL     OW 8361   2.707   3.175   3.497
 2083SOL    HW2 8362   2.701   3.154   3.591
 2083SOL    HW3 8363   2.789   3.135   3.469
 2083SOL    MW4 8364   2.717   3.167   3.506
 2084SOL     OW 8365   2.672   3.433   3.380
 2084SOL    HW2 8366   2.662   3.341   3.406
 2084SOL    HW3 8367   2.605   3.479   3.431
 2084SOL    MW4 8368   2.662   3.427   3.390
 2085SOL     OW 8369   2.934   3.562   3.461
 2085SOL    HW2 8370   2.938   3.655   3.439
 2085SOL    HW3 8371   2.844   3.537   3.440
 2085SOL    MW4 8372   2.922   3.571   3.455
 2086SOL     OW 8373   2.923   3.839   3.407
 2086SOL    HW2 8374   3.001   3.887   3.437
 2086SOL    HW3 8375   2.850   3.882   3.452
 2086SOL    MW4 8376   2.924   3.851   3.417
 2087SOL     OW 8377   2.711   3.977   3.518
 2087SOL    HW2 8378   2.684   3.984   3.610
 2087SOL    HW3 8379   2.700   4.066   3.483
 2087SOL    MW4 8380   2.706   3.990   3.526
 2088SOL     OW 8381   2.663   4.235   3.411
 2088SOL    HW2 8382   2.731   4.300   3.430
 2088SOL    HW3 8383   2.581   4.280   3.429
 2088SOL    MW4 8384   2.661   4.250   3.416
 2089SOL     OW 8385   2.903   4.406   3.461
 2089SOL    HW2 8386   2.906   4.384   3.554
 2089SOL    HW3 8387   2.909   4.502   3.459
 2089SOL    MW4 8388   2.905   4.416   3.473
 2090SOL     OW 8389   3.396   4.627   3.407
 2090SOL    HW2 8390   3.304   4.651   3.419
 2090SOL    HW3 8391   3.410   4.633   3.312
 2090SOL    MW4 8392   3.386   4.631   3.396
 2091SOL     OW 8393   3.157   0.087   3.449
 2091SOL    HW2 8394   3.160   0.176   3.413
 2091SOL    HW3 8395   3.068   0.057   3.433
 2091SOL    MW4 8396   3.146   0.095   3.442
 2092SOL     OW 8397   3.125   0.389   3.389
 2092SOL    HW2 8398   3.041   0.396   3.436
 2092SOL    HW3 8399   3.100   0.373   3.298
 2092SOL    MW4 8400   3.111   0.388   3.384
 2093SOL     OW 8401   3.371   0.499   3.491
 2093SOL    HW2 8402   3.349   0.505   3.584
 2093SOL    HW3 8403   3.291   0.466   3.450
 2093SOL    MW4 8404   3.357   0.495   3.498
 2094SOL     OW 8405   3.381   0.727   3.347
 2094SOL    HW2 8406   3.433   0.789   3.399
 2094SOL    HW3 8407   3.394   0.643   3.390
 2094SOL    MW4 8408   3.390   0.724   3.359
 2095SOL     OW 8409   3.167   0.847   3.500
 2095SOL    HW2 8410   3.166   0.934   3.461
 2095SOL    HW3 8411   3.241   0.803   3.460
 2095SOL    MW4 8412   3.176   0.852   3.490
 2096SOL     OW 8413   3.130   1.090   3.409
 2096SOL    HW2 8414   3.201   1.148   3.437
 2096SOL    HW3 8415   3.127   1.100   3.314
 2096SOL    MW4 8416   3.139   1.099   3.400
 2097SOL     OW 8417   3.351   1.253   3.451
 2097SOL    HW2 8418   3.432   1.210   3.425
 2097SOL    HW3 8419   3.358   1.342   3.418
 2097SOL    MW4 8420   3.362   1.259   3.443
 2098SOL     OW 8421   3.362   1.510   3.385
 2098SOL    HW2 8422   3.439   1.550   3.425
 2098SOL    HW3 8423   3.288   1.552   3.430
 2098SOL    MW4 8424   3.362   1.521   3.396
 2099SOL     OW 8425   3.156   1.681   3.496
 2099SOL    HW2 8426   3.169   1.764   3.450
 2099SOL    HW3 8427   3.099   1.631   3.439
 2099SOL    MW4 8428   3.150   1.686   3.482
 2100SOL     OW 8429   3.198   1.931   3.387
 2100SOL    HW2 8430   3.123   1.986   3.409
 2100SOL    HW3 8431   3.192   1.917   3.293
 2100SOL    MW4 8432   3.188   1.936   3.378
 2101SOL     OW 8433   3.422   2.018   3.516
 2101SOL    HW2 8434   3.436   2.106   3.482
 2101SOL    HW3 8435   3.353   1.981   3.461
 2101SOL    MW4 8436   3.415   2.025   3.504
 2102SOL     OW 8437   3.425   2.296   3.435
 2102SOL    HW2 8438   3.504   2.344   3.461
 2102SOL    HW3 8439   3.353   2.350   3.466
 2102SOL    MW4 8440   3.426   2.309   3.442
 2103SOL     OW 8441   3.204   2.452   3.487
 2103SOL    HW2 8442   3.206   2.543   3.457
 2103SOL    HW3 8443   3.116   2.421   3.465
 2103SOL    MW4 8444   3.193   2.460   3.480
 2104SOL     OW 8445   3.171   2.709   3.370
 2104SOL    HW2 8446   3.242   2.750   3.419
 2104SOL    HW3 8447   3.092   2.749   3.406
 2104SOL    MW4 8448   3.170   2.720   3.381
 2105SOL     OW 8449   3.401   2.812   3.497
 2105SOL    HW2 8450   3.476   2.772   3.452
 2105SOL    HW3 8451   3.382   2.890   3.446
 2105SOL    MW4 8452   3.409   2.817   3.484
 2106SOL     OW 8453   3.389   3.072   3.369
 2106SOL    HW2 8454   3.462   3.127   3.399
 2106SOL    HW3 8455   3.312   3.110   3.411
 2106SOL    MW4 8456   3.388   3.084   3.378
 2107SOL     OW 8457   3.177   3.205   3.497
 2107SOL    HW2 8458   3.176   3.291   3.455
 2107SOL    HW3 8459   3.110   3.155   3.452
 2107SOL    MW4 8460   3.168   3.210   3.486
 2108SOL     OW 8461   3.172   3.463   3.396
 2108SOL    HW2 8462   3.086   3.491   3.426
 2108SOL    HW3 8463   3.168   3.471   3.301
 2108SOL    MW4 8464   3.160   3.467   3.388
 2109SOL     OW 8465   3.375   3.620   3.505
 2109SOL    HW2 8466   3.372   3.710   3.474
 2109SOL    HW3 8467   3.306   3.575   3.457
 2109SOL    MW4 8468   3.365   3.626   3.495
 2110SOL     OW 8469   3.362   3.881   3.367
 2110SOL    HW2 8470   3.442   3.915   3.408
 2110SOL    HW3 8471   3.291   3.923   3.415
 2110SOL    MW4 8472   3.363   3.891   3.379
 2111SOL     OW 8473   3.142   3.993   3.481
 2111SOL    HW2 8474   3.145   3.988   3.576
 2111SOL    HW3 8475   3.136   4.086   3.461
 2111SOL    MW4 8476   3.141   4.005   3.491
 2112SOL     OW 8477   3.120   4.262   3.391
 2112SOL    HW2 8478   3.193   4.316   3.422
 2112SOL    HW3 8479   3.042   4.307   3.420
 2112SOL    MW4 8480   3.119   4.275   3.399
 2113SOL     OW 8481   3.360   4.364   3.480
 2113SOL    HW2 8482   3.353   4.365   3.576
 2113SOL    HW3 8483   3.373   4.455   3.456
 2113SOL    MW4 8484   3.360   4.376   3.490
 2114SOL     OW 8485   3.826   4.608   3.432
 2114SOL    HW2 8486   3.751   4.662   3.459
 2114SOL    HW3 8487   3.823   4.611   3.336
 2114SOL    MW4 8488   3.815   4.616   3.422
 2115SOL     OW 8489   3.606   0.088   3.536
 2115SOL    HW2 8490   3.597   0.161   3.474
 2115SOL    HW3 8491   3.530   0.033   3.518
 2115SOL    MW4 8492   3.595   0.091   3.525
 2116SOL     OW 8493   3.599   0.346   3.418
 2116SOL    HW2 8494   3.673   0.399   3.448
 2116SOL    HW3 8495   3.521   0.394   3.448
 2116SOL    MW4 8496   3.598   0.359   3.426
 2117SOL     OW 8497   3.798   0.505   3.524
 2117SOL    HW2 8498   3.802   0.499   3.619
 2117SOL    HW3 8499   3.874   0.456   3.493
 2117SOL    MW4 8500   3.809   0.498   3.532
 2118SOL     OW 8501   3.793   0.724   3.370
 2118SOL    HW2 8502   3.867   0.773   3.405
 2118SOL    HW3 8503   3.780   0.652   3.431
 2118SOL    MW4 8504   3.801   0.721   3.382
 2119SOL     OW 8505   3.578   0.904   3.468
 2119SOL    HW2 8506   3.592   0.891   3.561
 2119SOL    HW3 8507   3.645   0.850   3.426
 2119SOL    MW4 8508   3.588   0.895   3.474
 2120SOL     OW 8509   3.614   1.169   3.404
 2120SOL    HW2 8510   3.596   1.079   3.430
 2120SOL    HW3 8511   3.623   1.165   3.308
 2120SOL    MW4 8512   3.613   1.157   3.394
 2121SOL     OW 8513   3.835   1.272   3.524
 2121SOL    HW2 8514   3.830   1.296   3.616
 2121SOL    HW3 8515   3.749   1.238   3.502
 2121SOL    MW4 8516   3.823   1.271   3.533
 2122SOL     OW 8517   3.804   1.518   3.390
 2122SOL    HW2 8518   3.877   1.574   3.419
 2122SOL    HW3 8519   3.822   1.433   3.429
 2122SOL    MW4 8520   3.816   1.514   3.399
 2123SOL     OW 8521   3.577   1.646   3.482
 2123SOL    HW2 8522   3.586   1.735   3.447
 2123SOL    HW3 8523   3.650   1.598   3.443
 2123SOL    MW4 8524   3.588   1.652   3.472
 2124SOL     OW 8525   3.600   1.898   3.352
 2124SOL    HW2 8526   3.676   1.946   3.385
 2124SOL    HW3 8527   3.529   1.924   3.411
 2124SOL    MW4 8528   3.601   1.908   3.364
 2125SOL     OW 8529   3.809   2.032   3.474
 2125SOL    HW2 8530   3.820   2.034   3.569
 2125SOL    HW3 8531   3.885   1.984   3.442
 2125SOL    MW4 8532   3.820   2.026   3.482
 2126SOL     OW 8533   3.860   2.341   3.403
 2126SOL    HW2 8534   3.941   2.376   3.440
 2126SOL    HW3 8535   3.851   2.254   3.442
 2126SOL    MW4 8536   3.869   2.334   3.413
 2127SOL     OW 8537   3.637   2.460   3.504
 2127SOL    HW2 8538   3.626   2.547   3.466
 2127SOL    HW3 8539   3.724   2.432   3.475
 2127SOL    MW4 8540   3.647   2.468   3.495
 2128SOL     OW 8541   3.620   2.678   3.348
 2128SOL    HW2 8542   3.688   2.738   3.381
 2128SOL    HW3 8543   3.613   2.699   3.255
 2128SOL    MW4 8544   3.628   2.689   3.340
 2129SOL     OW 8545   3.789   2.888   3.468
 2129SOL    HW2 8546   3.775   2.899   3.562
 2129SOL    HW3 8547   3.799   2.978   3.435
 2129SOL    MW4 8548   3.788   2.902   3.476
 2130SOL     OW 8549   3.816   3.146   3.375
 2130SOL    HW2 8550   3.902   3.182   3.398
 2130SOL    HW3 8551   3.825   3.121   3.283
 2130SOL    MW4 8552   3.829   3.148   3.366
 2131SOL     OW 8553   3.590   3.221   3.490
 2131SOL    HW2 8554   3.592   3.314   3.467
 2131SOL    HW3 8555   3.673   3.186   3.459
 2131SOL    MW4 8556   3.601   3.229   3.483
 2132SOL     OW 8557   3.619   3.490   3.428
 2132SOL    HW2 8558   3.529   3.514   3.451
 2132SOL    HW3 8559   3.618   3.485   3.332
 2132SOL    MW4 8560   3.607   3.492   3.418
 2133SOL     OW 8561   3.866   3.602   3.522
 2133SOL    HW2 8562   3.871   3.619   3.616
 2133SOL    HW3 8563   3.783   3.555   3.510
 2133SOL    MW4 8564   3.855   3.598   3.533
 2134SOL     OW 8565   3.796   3.841   3.399
 2134SOL    HW2 8566   3.724   3.886   3.443
 2134SOL    HW3 8567   3.810   3.762   3.451
 2134SOL    MW4 8568   3.788   3.837   3.412
 2135SOL     OW 8569   3.588   3.961   3.511
 2135SOL    HW2 8570   3.574   3.957   3.606
 2135SOL    HW3 8571   3.598   4.055   3.493
 2135SOL    MW4 8572   3.587   3.973   3.521
 2136SOL     OW 8573   3.593   4.221   3.449
 2136SOL    HW2 8574   3.513   4.269   3.470
 2136SOL    HW3 8575   3.593   4.216   3.354
 2136SOL    MW4 8576   3.582   4.227   3.439
 2137SOL     OW 8577   3.835   4.342   3.521
 2137SOL    HW2 8578   3.748   4.311   3.495
 2137SOL    HW3 8579   3.840   4.432   3.489
 2137SOL    MW4 8580   3.824   4.350   3.513
 2138SOL     OW 8581   4.265   4.649   3.402
 2138SOL    HW2 8582   4.271   4.560   3.438
 2138SOL    HW3 8583   4.342   4.694   3.437
 2138SOL    MW4 8584   4.276   4.643   3.412
 2139SOL     OW 8585   4.033   0.110   3.478
 2139SOL    HW2 8586   4.112   0.065   3.448
 2139SOL    HW3 8587   3.965   0.044   3.473
 2139SOL    MW4 8588   4.035   0.095   3.474
 2140SOL     OW 8589   4.020   0.389   3.409
 2140SOL    HW2 8590   4.034   0.298   3.434
 2140SOL    HW3 8591   4.012   0.387   3.314
 2140SOL    MW4 8592   4.021   0.377   3.400
 2141SOL     OW 8593   4.263   0.481   3.498
 2141SOL    HW2 8594   4.261   0.574   3.472
 2141SOL    HW3 8595   4.181   0.445   3.465
 2141SOL    MW4 8596   4.252   0.489   3.490
 2142SOL     OW 8597   4.251   0.752   3.390
 2142SOL    HW2 8598   4.321   0.809   3.423
 2142SOL    HW3 8599   4.244   0.775   3.297
 2142SOL    MW4 8600   4.260   0.763   3.382
 2143SOL     OW 8601   4.007   0.864   3.477
 2143SOL    HW2 8602   4.015   0.960   3.477
 2143SOL    HW3 8603   4.090   0.833   3.440
 2143SOL    MW4 8604   4.019   0.873   3.472
 2144SOL     OW 8605   4.051   1.140   3.428
 2144SOL    HW2 8606   4.126   1.178   3.474
 2144SOL    HW3 8607   3.975   1.188   3.462
 2144SOL    MW4 8608   4.051   1.152   3.439
 2145SOL     OW 8609   4.276   1.275   3.536
 2145SOL    HW2 8610   4.276   1.363   3.498
 2145SOL    HW3 8611   4.341   1.227   3.485
 2145SOL    MW4 8612   4.285   1.280   3.525
 2146SOL     OW 8613   4.270   1.539   3.416
 2146SOL    HW2 8614   4.194   1.595   3.433
 2146SOL    HW3 8615   4.262   1.514   3.324
 2146SOL    MW4 8616   4.259   1.543   3.406
 2147SOL     OW 8617   4.025   1.660   3.484
 2147SOL    HW2 8618   4.024   1.659   3.579
 2147SOL    HW3 8619   4.024   1.753   3.461
 2147SOL    MW4 8620   4.025   1.672   3.493
 2148SOL     OW 8621   4.030   1.912   3.383
 2148SOL    HW2 8622   4.105   1.968   3.402
 2148SOL    HW3 8623   4.036   1.894   3.289
 2148SOL    MW4 8624   4.041   1.917   3.373
 2149SOL     OW 8625   4.240   2.085   3.464
 2149SOL    HW2 8626   4.245   2.175   3.432
 2149SOL    HW3 8627   4.322   2.044   3.434
 2149SOL    MW4 8628   4.252   2.091   3.456
 2150SOL     OW 8629   4.272   2.338   3.372
 2150SOL    HW2 8630   4.194   2.385   3.402
 2150SOL    HW3 8631   4.262   2.332   3.277
 2150SOL    MW4 8632   4.261   2.343   3.363
 2151SOL     OW 8633   4.079   2.508   3.478
 2151SOL    HW2 8634   4.056   2.520   3.571
 2151SOL    HW3 8635   4.057   2.591   3.436
 2151SOL    MW4 8636   4.073   2.520   3.485
 2152SOL     OW 8637   4.012   2.745   3.364
 2152SOL    HW2 8638   4.084   2.802   3.390
 2152SOL    HW3 8639   3.935   2.785   3.403
 2152SOL    MW4 8640   4.011   2.757   3.372
 2153SOL     OW 8641   4.238   2.869   3.461
 2153SOL    HW2 8642   4.225   2.857   3.555
 2153SOL    HW3 8643   4.317   2.819   3.441
 2153SOL    MW4 8644   4.246   2.861   3.471
 2154SOL     OW 8645   4.255   3.122   3.381
 2154SOL    HW2 8646   4.253   3.037   3.426
 2154SOL    HW3 8647   4.248   3.099   3.288
 2154SOL    MW4 8648   4.254   3.108   3.374
 2155SOL     OW 8649   4.041   3.266   3.462
 2155SOL    HW2 8650   4.046   3.359   3.441
 2155SOL    HW3 8651   4.128   3.232   3.441
 2155SOL    MW4 8652   4.053   3.274   3.457
 2156SOL     OW 8653   4.082   3.511   3.352
 2156SOL    HW2 8654   4.157   3.561   3.384
 2156SOL    HW3 8655   4.008   3.542   3.404
 2156SOL    MW4 8656   4.082   3.522   3.363
 2157SOL     OW 8657   4.305   3.642   3.466
 2157SOL    HW2 8658   4.303   3.634   3.562
 2157SOL    HW3 8659   4.297   3.736   3.450
 2157SOL    MW4 8660   4.304   3.653   3.477
 2158SOL     OW 8661   4.278   3.913   3.429
 2158SOL    HW2 8662   4.364   3.952   3.449
 2158SOL    HW3 8663   4.278   3.905   3.333
 2158SOL    MW4 8664   4.290   3.917   3.419
 2159SOL     OW 8665   4.016   3.998   3.480
 2159SOL    HW2 8666   4.104   3.964   3.464
 2159SOL    HW3 8667   3.958   3.933   3.440
 2159SOL    MW4 8668   4.020   3.985   3.473
 2160SOL     OW 8669   4.053   4.252   3.386
 2160SOL    HW2 8670   4.068   4.164   3.421
 2160SOL    HW3 8671   3.978   4.286   3.436
 2160SOL    MW4 8672   4.045   4.245   3.397
 2161SOL     OW 8673   4.286   4.393   3.487
 2161SOL    HW2 8674   4.288   4.401   3.582
 2161SOL    HW3 8675   4.206   4.343   3.469
 2161SOL    MW4 8676   4.275   4.387   3.497
 2162SOL     OW 8677   0.225   0.019   3.874
 2162SOL    HW2 8678   0.221  -0.016   3.963
 2162SOL    HW3 8679   0.134   0.043   3.854
 2162SOL    MW4 8680   0.212   0.017   3.883
 2163SOL     OW 8681   4.456   0.123   3.783
 2163SOL    HW2 8682   4.483   0.210   3.811
 2163SOL    HW3 8683   4.453   0.128   3.687
 2163SOL    MW4 8684   4.459   0.135   3.774
 2164SOL     OW 8685   0.025   0.393   3.861
 2164SOL    HW2 8686  -0.052   0.444   3.838
 2164SOL    HW3 8687   0.095   0.428   3.805
 2164SOL    MW4 8688   0.024   0.404   3.851
 2165SOL     OW 8689   0.271   0.491   3.766
 2165SOL    HW2 8690   0.265   0.575   3.812
 2165SOL    HW3 8691   0.237   0.508   3.679
 2165SOL    MW4 8692   0.266   0.504   3.761
 2166SOL     OW 8693   0.217   0.734   3.885
 2166SOL    HW2 8694   0.223   0.740   3.980
 2166SOL    HW3 8695   0.141   0.788   3.862
 2166SOL    MW4 8696   0.208   0.742   3.895
 2167SOL     OW 8697   0.008   0.887   3.773
 2167SOL    HW2 8698  -0.078   0.853   3.800
 2167SOL    HW3 8699   0.013   0.975   3.810
 2167SOL    MW4 8700  -0.003   0.894   3.781
 2168SOL     OW 8701   0.034   1.134   3.876
 2168SOL    HW2 8702  -0.053   1.173   3.868
 2168SOL    HW3 8703   0.091   1.189   3.823
 2168SOL    MW4 8704   0.030   1.146   3.868
 2169SOL     OW 8705   0.239   1.283   3.753
 2169SOL    HW2 8706   0.218   1.371   3.785
 2169SOL    HW3 8707   0.223   1.288   3.659
 2169SOL    MW4 8708   0.234   1.296   3.745
 2170SOL     OW 8709   0.196   1.554   3.812
 2170SOL    HW2 8710   0.200   1.564   3.907
 2170SOL    HW3 8711   0.123   1.609   3.786
 2170SOL    MW4 8712   0.187   1.562   3.821
 2171SOL     OW 8713   4.458   1.699   3.742
 2171SOL    HW2 8714   4.462   1.790   3.770
 2171SOL    HW3 8715   4.466   1.703   3.646
 2171SOL    MW4 8716   4.460   1.712   3.733
 2172SOL     OW 8717   0.005   1.955   3.855
 2172SOL    HW2 8718  -0.014   1.954   3.949
 2172SOL    HW3 8719  -0.063   2.011   3.818
 2172SOL    MW4 8720  -0.007   1.962   3.863
 2173SOL     OW 8721   0.246   2.110   3.750
 2173SOL    HW2 8722   0.248   2.203   3.773
 2173SOL    HW3 8723   0.166   2.077   3.792
 2173SOL    MW4 8724   0.236   2.118   3.759
 2174SOL     OW 8725   0.260   2.377   3.857
 2174SOL    HW2 8726   0.239   2.363   3.949
 2174SOL    HW3 8727   0.184   2.423   3.822
 2174SOL    MW4 8728   0.247   2.381   3.864
 2175SOL     OW 8729   0.005   2.451   3.759
 2175SOL    HW2 8730  -0.077   2.410   3.789
 2175SOL    HW3 8731  -0.008   2.544   3.779
 2175SOL    MW4 8732  -0.008   2.458   3.766
 2176SOL     OW 8733   4.489   2.727   3.823
 2176SOL    HW2 8734   4.482   2.720   3.918
 2176SOL    HW3 8735   4.573   2.770   3.809
 2176SOL    MW4 8736   4.499   2.732   3.834
 2177SOL     OW 8737   0.255   2.842   3.764
 2177SOL    HW2 8738   0.324   2.788   3.802
 2177SOL    HW3 8739   0.263   2.828   3.669
 2177SOL    MW4 8740   0.265   2.833   3.756
 2178SOL     OW 8741   0.244   3.094   3.848
 2178SOL    HW2 8742   0.228   3.100   3.942
 2178SOL    HW3 8743   0.254   3.000   3.832
 2178SOL    MW4 8744   0.244   3.082   3.858
 2179SOL     OW 8745   0.004   3.211   3.753
 2179SOL    HW2 8746   0.074   3.150   3.773
 2179SOL    HW3 8747   0.001   3.214   3.657
 2179SOL    MW4 8748   0.013   3.203   3.743
 2180SOL     OW 8749   0.009   3.475   3.846
 2180SOL    HW2 8750   0.098   3.506   3.828
 2180SOL    HW3 8751   0.003   3.392   3.797
 2180SOL    MW4 8752   0.020   3.468   3.837
 2181SOL     OW 8753   0.232   3.614   3.776
 2181SOL    HW2 8754   0.307   3.575   3.820
 2181SOL    HW3 8755   0.223   3.700   3.817
 2181SOL    MW4 8756   0.241   3.620   3.787
 2182SOL     OW 8757   0.191   3.857   3.876
 2182SOL    HW2 8758   0.198   3.850   3.972
 2182SOL    HW3 8759   0.272   3.901   3.850
 2182SOL    MW4 8760   0.203   3.861   3.886
 2183SOL     OW 8761   0.007   4.039   3.776
 2183SOL    HW2 8762  -0.069   3.992   3.810
 2183SOL    HW3 8763   0.082   3.990   3.809
 2183SOL    MW4 8764   0.007   4.026   3.785
 2184SOL     OW 8765   0.052   4.301   3.856
 2184SOL    HW2 8766   0.120   4.345   3.806
 2184SOL    HW3 8767   0.036   4.219   3.808
 2184SOL    MW4 8768   0.059   4.296   3.843
 2185SOL     OW 8769   0.262   4.443   3.761
 2185SOL    HW2 8770   0.338   4.405   3.806
 2185SOL    HW3 8771   0.252   4.530   3.799
 2185SOL    MW4 8772   0.271   4.449   3.772
 2186SOL     OW 8773   0.677   4.644   3.918
 2186SOL    HW2 8774   0.681   4.554   3.886
 2186SOL    HW3 8775   0.594   4.678   3.882
 2186SOL    MW4 8776   0.666   4.637   3.909
 2187SOL     OW 8777   0.477   0.097   3.781
 2187SOL    HW2 8778   0.485   0.191   3.799
 2187SOL    HW3 8779   0.387   0.076   3.804
 2187SOL    MW4 8780   0.466   0.107   3.786
 2188SOL     OW 8781   0.493   0.359   3.882
 2188SOL    HW2 8782   0.572   0.413   3.872
 2188SOL    HW3 8783   0.427   0.404   3.830
 2188SOL    MW4 8784   0.495   0.372   3.874
 2189SOL     OW 8785   0.689   0.538   3.810
 2189SOL    HW2 8786   0.763   0.488   3.846
 2189SOL    HW3 8787   0.685   0.617   3.865
 2189SOL    MW4 8788   0.699   0.542   3.822
 2190SOL     OW 8789   0.661   0.794   3.910
 2190SOL    HW2 8790   0.738   0.845   3.883
 2190SOL    HW3 8791   0.588   0.834   3.864
 2190SOL    MW4 8792   0.662   0.806   3.901
 2191SOL     OW 8793   0.432   0.891   3.782
 2191SOL    HW2 8794   0.426   0.973   3.831
 2191SOL    HW3 8795   0.354   0.842   3.808
 2191SOL    MW4 8796   0.421   0.895   3.792
 2192SOL     OW 8797   0.462   1.151   3.862
 2192SOL    HW2 8798   0.538   1.203   3.836
 2192SOL    HW3 8799   0.387   1.197   3.823
 2192SOL    MW4 8800   0.462   1.164   3.853
 2193SOL     OW 8801   0.665   1.327   3.770
 2193SOL    HW2 8802   0.744   1.286   3.806
 2193SOL    HW3 8803   0.665   1.303   3.678
 2193SOL    MW4 8804   0.676   1.319   3.763
 2194SOL     OW 8805   0.655   1.595   3.857
 2194SOL    HW2 8806   0.735   1.638   3.827
 2194SOL    HW3 8807   0.661   1.506   3.821
 2194SOL    MW4 8808   0.666   1.589   3.849
 2195SOL     OW 8809   0.419   1.704   3.722
 2195SOL    HW2 8810   0.499   1.676   3.768
 2195SOL    HW3 8811   0.348   1.660   3.768
 2195SOL    MW4 8812   0.420   1.695   3.735
 2196SOL     OW 8813   0.411   1.953   3.883
 2196SOL    HW2 8814   0.410   1.872   3.832
 2196SOL    HW3 8815   0.344   2.008   3.842
 2196SOL    MW4 8816   0.402   1.949   3.871
 2197SOL     OW 8817   0.656   2.072   3.786
 2197SOL    HW2 8818   0.663   2.155   3.832
 2197SOL    HW3 8819   0.572   2.036   3.813
 2197SOL    MW4 8820   0.646   2.078   3.796
 2198SOL     OW 8821   0.692   2.319   3.906
 2198SOL    HW2 8822   0.778   2.339   3.870
 2198SOL    HW3 8823   0.631   2.361   3.846
 2198SOL    MW4 8824   0.695   2.327   3.893
 2199SOL     OW 8825   0.501   2.438   3.761
 2199SOL    HW2 8826   0.422   2.407   3.805
 2199SOL    HW3 8827   0.484   2.422   3.668
 2199SOL    MW4 8828   0.489   2.432   3.754
 2200SOL     OW 8829   0.470   2.701   3.847
 2200SOL    HW2 8830   0.546   2.751   3.816
 2200SOL    HW3 8831   0.486   2.612   3.816
 2200SOL    MW4 8832   0.482   2.696   3.839
 2201SOL     OW 8833   0.692   2.834   3.738
 2201SOL    HW2 8834   0.764   2.772   3.747
 2201SOL    HW3 8835   0.672   2.834   3.645
 2201SOL    MW4 8836   0.699   2.826   3.727
 2202SOL     OW 8837   0.683   3.103   3.836
 2202SOL    HW2 8838   0.676   3.086   3.930
 2202SOL    HW3 8839   0.697   3.016   3.797
 2202SOL    MW4 8840   0.684   3.089   3.844
 2203SOL     OW 8841   0.458   3.261   3.818
 2203SOL    HW2 8842   0.532   3.204   3.837
 2203SOL    HW3 8843   0.381   3.208   3.835
 2203SOL    MW4 8844   0.458   3.247   3.823
 2204SOL     OW 8845   0.456   3.517   3.897
 2204SOL    HW2 8846   0.544   3.551   3.880
 2204SOL    HW3 8847   0.459   3.427   3.867
 2204SOL    MW4 8848   0.468   3.510   3.891
 2205SOL     OW 8849   0.691   3.646   3.816
 2205SOL    HW2 8850   0.700   3.739   3.838
 2205SOL    HW3 8851   0.696   3.643   3.721
 2205SOL    MW4 8852   0.693   3.658   3.807
 2206SOL     OW 8853   0.671   3.919   3.935
 2206SOL    HW2 8854   0.692   3.917   4.029
 2206SOL    HW3 8855   0.749   3.956   3.894
 2206SOL    MW4 8856   0.684   3.924   3.942
 2207SOL     OW 8857   0.440   4.009   3.817
 2207SOL    HW2 8858   0.518   3.970   3.856
 2207SOL    HW3 8859   0.450   3.994   3.723
 2207SOL    MW4 8860   0.452   4.002   3.810
 2208SOL     OW 8861   0.456   4.283   3.898
 2208SOL    HW2 8862   0.540   4.315   3.866
 2208SOL    HW3 8863   0.451   4.193   3.865
 2208SOL    MW4 8864   0.466   4.275   3.889
 2209SOL     OW 8865   0.685   4.396   3.785
 2209SOL    HW2 8866   0.757   4.341   3.814
 2209SOL    HW3 8867   0.678   4.379   3.691
 2209SOL    MW4 8868   0.693   4.387   3.777
 2210SOL     OW 8869   1.117   0.032   3.849
 2210SOL    HW2 8870   1.200   0.057   3.808
 2210SOL    HW3 8871   1.107  -0.061   3.828
 2210SOL    MW4 8872   1.127   0.024   3.840
 2211SOL     OW 8873   0.870   0.154   3.805
 2211SOL    HW2 8874   0.950   0.102   3.818
 2211SOL    HW3 8875   0.802   0.108   3.854
 2211SOL    MW4 8876   0.872   0.141   3.813
 2212SOL     OW 8877   0.902   0.406   3.942
 2212SOL    HW2 8878   0.875   0.376   4.029
 2212SOL    HW3 8879   0.911   0.326   3.891
 2212SOL    MW4 8880   0.899   0.391   3.947
 2213SOL     OW 8881   1.119   0.503   3.808
 2213SOL    HW2 8882   1.204   0.475   3.841
 2213SOL    HW3 8883   1.056   0.465   3.869
 2213SOL    MW4 8884   1.122   0.495   3.820
 2214SOL     OW 8885   1.110   0.780   3.902
 2214SOL    HW2 8886   1.136   0.795   3.993
 2214SOL    HW3 8887   1.096   0.686   3.896
 2214SOL    MW4 8888   1.111   0.770   3.913
 2215SOL     OW 8889   0.891   0.927   3.783
 2215SOL    HW2 8890   0.965   0.878   3.819
 2215SOL    HW3 8891   0.890   0.904   3.690
 2215SOL    MW4 8892   0.901   0.918   3.776
 2216SOL     OW 8893   0.876   1.190   3.874
 2216SOL    HW2 8894   0.879   1.199   3.970
 2216SOL    HW3 8895   0.869   1.096   3.859
 2216SOL    MW4 8896   0.875   1.179   3.885
 2217SOL     OW 8897   1.118   1.267   3.770
 2217SOL    HW2 8898   1.125   1.359   3.795
 2217SOL    HW3 8899   1.039   1.236   3.815
 2217SOL    MW4 8900   1.109   1.275   3.780
 2218SOL     OW 8901   1.115   1.540   3.852
 2218SOL    HW2 8902   1.129   1.552   3.946
 2218SOL    HW3 8903   1.184   1.592   3.811
 2218SOL    MW4 8904   1.126   1.548   3.859
 2219SOL     OW 8905   0.904   1.728   3.803
 2219SOL    HW2 8906   0.961   1.662   3.843
 2219SOL    HW3 8907   0.925   1.725   3.710
 2219SOL    MW4 8908   0.914   1.719   3.796
 2220SOL     OW 8909   0.905   1.992   3.870
 2220SOL    HW2 8910   0.911   1.897   3.858
 2220SOL    HW3 8911   0.819   2.014   3.834
 2220SOL    MW4 8912   0.894   1.982   3.864
 2221SOL     OW 8913   1.123   2.066   3.744
 2221SOL    HW2 8914   1.034   2.036   3.765
 2221SOL    HW3 8915   1.128   2.062   3.649
 2221SOL    MW4 8916   1.112   2.062   3.734
 2222SOL     OW 8917   1.155   2.324   3.851
 2222SOL    HW2 8918   1.142   2.307   3.944
 2222SOL    HW3 8919   1.141   2.240   3.809
 2222SOL    MW4 8920   1.151   2.311   3.858
 2223SOL     OW 8921   0.908   2.404   3.745
 2223SOL    HW2 8922   0.914   2.496   3.771
 2223SOL    HW3 8923   0.990   2.365   3.775
 2223SOL    MW4 8924   0.919   2.411   3.752
 2224SOL     OW 8925   0.910   2.667   3.825
 2224SOL    HW2 8926   0.920   2.653   3.919
 2224SOL    HW3 8927   0.983   2.724   3.801
 2224SOL    MW4 8928   0.921   2.673   3.835
 2225SOL     OW 8929   1.116   2.828   3.770
 2225SOL    HW2 8930   1.190   2.784   3.812
 2225SOL    HW3 8931   1.123   2.919   3.799
 2225SOL    MW4 8932   1.127   2.834   3.780
 2226SOL     OW 8933   1.102   3.106   3.896
 2226SOL    HW2 8934   1.188   3.142   3.875
 2226SOL    HW3 8935   1.040   3.158   3.844
 2226SOL    MW4 8936   1.105   3.117   3.886
 2227SOL     OW 8937   0.902   3.229   3.755
 2227SOL    HW2 8938   0.815   3.199   3.780
 2227SOL    HW3 8939   0.901   3.229   3.660
 2227SOL    MW4 8940   0.891   3.225   3.746
 2228SOL     OW 8941   0.918   3.505   3.872
 2228SOL    HW2 8942   0.919   3.433   3.808
 2228SOL    HW3 8943   0.843   3.558   3.846
 2228SOL    MW4 8944   0.908   3.502   3.860
 2229SOL     OW 8945   1.177   3.623   3.850
 2229SOL    HW2 8946   1.154   3.714   3.866
 2229SOL    HW3 8947   1.094   3.576   3.857
 2229SOL    MW4 8948   1.163   3.629   3.853
 2230SOL     OW 8949   1.098   3.888   3.872
 2230SOL    HW2 8950   1.106   3.905   3.966
 2230SOL    HW3 8951   1.174   3.932   3.833
 2230SOL    MW4 8952   1.109   3.896   3.879
 2231SOL     OW 8953   0.869   4.017   3.772
 2231SOL    HW2 8954   0.943   3.964   3.802
 2231SOL    HW3 8955   0.853   3.987   3.682
 2231SOL    MW4 8956   0.876   4.006   3.764
 2232SOL     OW 8957   0.893   4.265   3.897
 2232SOL    HW2 8958   0.898   4.254   3.992
 2232SOL    HW3 8959   0.905   4.177   3.861
 2232SOL    MW4 8960   0.896   4.252   3.905
 2233SOL     OW 8961   1.117   4.409   3.793
 2233SOL    HW2 8962   1.033   4.371   3.820
 2233SOL    HW3 8963   1.111   4.414   3.698
 2233SOL    MW4 8964   1.105   4.404   3.784
 2234SOL     OW 8965   1.567   4.660   3.856
 2234SOL    HW2 8966   1.540   4.656   3.947
 2234SOL    HW3 8967   1.548   4.573   3.821
 2234SOL    MW4 8968   1.561   4.648   3.863
 2235SOL     OW 8969   1.361   0.132   3.747
 2235SOL    HW2 8970   1.363   0.227   3.758
 2235SOL    HW3 8971   1.435   0.101   3.799
 2235SOL    MW4 8972   1.371   0.140   3.756
 2236SOL     OW 8973   1.362   0.385   3.877
 2236SOL    HW2 8974   1.368   0.408   3.969
 2236SOL    HW3 8975   1.436   0.431   3.836
 2236SOL    MW4 8976   1.373   0.394   3.883
 2237SOL     OW 8977   1.552   0.543   3.737
 2237SOL    HW2 8978   1.630   0.493   3.758
 2237SOL    HW3 8979   1.562   0.625   3.786
 2237SOL    MW4 8980   1.563   0.547   3.746
 2238SOL     OW 8981   1.531   0.784   3.884
 2238SOL    HW2 8982   1.616   0.815   3.851
 2238SOL    HW3 8983   1.467   0.824   3.826
 2238SOL    MW4 8984   1.534   0.794   3.872
 2239SOL     OW 8985   1.325   0.879   3.740
 2239SOL    HW2 8986   1.337   0.961   3.789
 2239SOL    HW3 8987   1.246   0.840   3.777
 2239SOL    MW4 8988   1.316   0.885   3.751
 2240SOL     OW 8989   1.354   1.115   3.867
 2240SOL    HW2 8990   1.435   1.158   3.842
 2240SOL    HW3 8991   1.285   1.172   3.834
 2240SOL    MW4 8992   1.355   1.128   3.860
 2241SOL     OW 8993   1.600   1.254   3.768
 2241SOL    HW2 8994   1.691   1.236   3.794
 2241SOL    HW3 8995   1.586   1.345   3.793
 2241SOL    MW4 8996   1.610   1.264   3.775
 2242SOL     OW 8997   1.543   1.524   3.836
 2242SOL    HW2 8998   1.529   1.517   3.931
 2242SOL    HW3 8999   1.627   1.568   3.827
 2242SOL    MW4 9000   1.552   1.529   3.848
 2243SOL     OW 9001   1.332   1.676   3.749
 2243SOL    HW2 9002   1.335   1.753   3.806
 2243SOL    HW3 9003   1.409   1.625   3.773
 2243SOL    MW4 9004   1.343   1.679   3.759
 2244SOL     OW 9005   1.317   1.934   3.898
 2244SOL    HW2 9006   1.334   1.938   3.992
 2244SOL    HW3 9007   1.242   1.993   3.885
 2244SOL    MW4 9008   1.309   1.942   3.909
 2245SOL     OW 9009   1.554   2.036   3.810
 2245SOL    HW2 9010   1.468   2.005   3.841
 2245SOL    HW3 9011   1.556   2.012   3.718
 2245SOL    MW4 9012   1.543   2.029   3.802
 2246SOL     OW 9013   1.591   2.298   3.922
 2246SOL    HW2 9014   1.674   2.331   3.887
 2246SOL    HW3 9015   1.574   2.218   3.874
 2246SOL    MW4 9016   1.600   2.292   3.911
 2247SOL     OW 9017   1.393   2.449   3.785
 2247SOL    HW2 9018   1.472   2.410   3.823
 2247SOL    HW3 9019   1.325   2.384   3.799
 2247SOL    MW4 9020   1.395   2.436   3.792
 2248SOL     OW 9021   1.335   2.705   3.890
 2248SOL    HW2 9022   1.359   2.705   3.983
 2248SOL    HW3 9023   1.339   2.613   3.865
 2248SOL    MW4 9024   1.339   2.693   3.899
 2249SOL     OW 9025   1.550   2.826   3.752
 2249SOL    HW2 9026   1.478   2.784   3.799
 2249SOL    HW3 9027   1.540   2.797   3.662
 2249SOL    MW4 9028   1.539   2.817   3.746
 2250SOL     OW 9029   1.553   3.072   3.885
 2250SOL    HW2 9030   1.528   3.054   3.976
 2250SOL    HW3 9031   1.547   2.987   3.841
 2250SOL    MW4 9032   1.549   3.058   3.891
 2251SOL     OW 9033   1.328   3.230   3.798
 2251SOL    HW2 9034   1.357   3.310   3.842
 2251SOL    HW3 9035   1.396   3.166   3.816
 2251SOL    MW4 9036   1.341   3.232   3.806
 2252SOL     OW 9037   1.406   3.469   3.920
 2252SOL    HW2 9038   1.475   3.521   3.879
 2252SOL    HW3 9039   1.325   3.505   3.884
 2252SOL    MW4 9040   1.404   3.480   3.910
 2253SOL     OW 9041   1.598   3.605   3.751
 2253SOL    HW2 9042   1.663   3.565   3.809
 2253SOL    HW3 9043   1.579   3.689   3.791
 2253SOL    MW4 9044   1.604   3.611   3.764
 2254SOL     OW 9045   1.579   3.880   3.837
 2254SOL    HW2 9046   1.578   3.886   3.932
 2254SOL    HW3 9047   1.490   3.903   3.810
 2254SOL    MW4 9048   1.567   3.884   3.846
 2255SOL     OW 9049   1.331   3.994   3.757
 2255SOL    HW2 9050   1.337   4.085   3.785
 2255SOL    HW3 9051   1.321   3.998   3.662
 2255SOL    MW4 9052   1.330   4.006   3.749
 2256SOL     OW 9053   1.340   4.262   3.843
 2256SOL    HW2 9054   1.414   4.315   3.814
 2256SOL    HW3 9055   1.263   4.316   3.823
 2256SOL    MW4 9056   1.339   4.276   3.837
 2257SOL     OW 9057   1.561   4.396   3.767
 2257SOL    HW2 9058   1.642   4.349   3.785
 2257SOL    HW3 9059   1.566   4.416   3.673
 2257SOL    MW4 9060   1.572   4.393   3.757
 2258SOL     OW 9061   2.003   0.016   3.903
 2258SOL    HW2 9062   2.089   0.055   3.890
 2258SOL    HW3 9063   2.011  -0.073   3.869
 2258SOL    MW4 9064   2.015   0.010   3.897
 2259SOL     OW 9065   1.805   0.125   3.755
 2259SOL    HW2 9066   1.878   0.096   3.810
 2259SOL    HW3 9067   1.728   0.083   3.793
 2259SOL    MW4 9068   1.804   0.116   3.767
 2260SOL     OW 9069   1.767   0.397   3.826
 2260SOL    HW2 9070   1.792   0.392   3.919
 2260SOL    HW3 9071   1.781   0.309   3.793
 2260SOL    MW4 9072   1.772   0.385   3.834
 2261SOL     OW 9073   1.998   0.508   3.738
 2261SOL    HW2 9074   1.909   0.474   3.754
 2261SOL    HW3 9075   2.011   0.498   3.644
 2261SOL    MW4 9076   1.988   0.502   3.728
 2262SOL     OW 9077   2.014   0.752   3.864
 2262SOL    HW2 9078   2.023   0.729   3.957
 2262SOL    HW3 9079   2.021   0.668   3.818
 2262SOL    MW4 9080   2.016   0.738   3.871
 2263SOL     OW 9081   1.773   0.890   3.803
 2263SOL    HW2 9082   1.850   0.839   3.828
 2263SOL    HW3 9083   1.771   0.886   3.708
 2263SOL    MW4 9084   1.783   0.883   3.794
 2264SOL     OW 9085   1.839   1.153   3.837
 2264SOL    HW2 9086   1.838   1.159   3.932
 2264SOL    HW3 9087   1.816   1.062   3.818
 2264SOL    MW4 9088   1.836   1.142   3.847
 2265SOL     OW 9089   2.056   1.296   3.723
 2265SOL    HW2 9090   2.125   1.255   3.775
 2265SOL    HW3 9091   1.976   1.254   3.753
 2265SOL    MW4 9092   2.055   1.285   3.734
 2266SOL     OW 9093   2.026   1.538   3.854
 2266SOL    HW2 9094   1.937   1.563   3.830
 2266SOL    HW3 9095   2.041   1.455   3.809
 2266SOL    MW4 9096   2.017   1.531   3.845
 2267SOL     OW 9097   1.777   1.643   3.782
 2267SOL    HW2 9098   1.800   1.734   3.803
 2267SOL    HW3 9099   1.790   1.638   3.687
 2267SOL    MW4 9100   1.782   1.655   3.772
 2268SOL     OW 9101   1.807   1.919   3.834
 2268SOL    HW2 9102   1.821   1.922   3.929
 2268SOL    HW3 9103   1.721   1.959   3.821
 2268SOL    MW4 9104   1.797   1.924   3.845
 2269SOL     OW 9105   2.023   2.084   3.757
 2269SOL    HW2 9106   1.948   2.045   3.802
 2269SOL    HW3 9107   2.004   2.074   3.664
 2269SOL    MW4 9108   2.011   2.077   3.751
 2270SOL     OW 9109   2.043   2.329   3.859
 2270SOL    HW2 9110   1.964   2.365   3.817
 2270SOL    HW3 9111   2.043   2.237   3.835
 2270SOL    MW4 9112   2.032   2.322   3.850
 2271SOL     OW 9113   1.800   2.423   3.760
 2271SOL    HW2 9114   1.799   2.512   3.795
 2271SOL    HW3 9115   1.792   2.435   3.665
 2271SOL    MW4 9116   1.798   2.436   3.752
 2272SOL     OW 9117   1.771   2.679   3.859
 2272SOL    HW2 9118   1.779   2.694   3.953
 2272SOL    HW3 9119   1.694   2.730   3.834
 2272SOL    MW4 9120   1.762   2.688   3.868
 2273SOL     OW 9121   2.007   2.787   3.717
 2273SOL    HW2 9122   2.093   2.766   3.756
 2273SOL    HW3 9123   1.945   2.734   3.767
 2273SOL    MW4 9124   2.010   2.777   3.729
 2274SOL     OW 9125   1.987   3.039   3.824
 2274SOL    HW2 9126   1.990   2.952   3.785
 2274SOL    HW3 9127   2.069   3.080   3.798
 2274SOL    MW4 9128   1.998   3.033   3.815
 2275SOL     OW 9129   1.780   3.228   3.800
 2275SOL    HW2 9130   1.853   3.166   3.806
 2275SOL    HW3 9131   1.702   3.174   3.814
 2275SOL    MW4 9132   1.779   3.212   3.802
 2276SOL     OW 9133   1.818   3.494   3.891
 2276SOL    HW2 9134   1.880   3.542   3.836
 2276SOL    HW3 9135   1.818   3.405   3.855
 2276SOL    MW4 9136   1.826   3.489   3.879
 2277SOL     OW 9137   2.020   3.603   3.744
 2277SOL    HW2 9138   2.100   3.560   3.774
 2277SOL    HW3 9139   2.033   3.615   3.650
 2277SOL    MW4 9140   2.033   3.599   3.736
 2278SOL     OW 9141   2.027   3.855   3.863
 2278SOL    HW2 9142   2.093   3.907   3.816
 2278SOL    HW3 9143   2.030   3.770   3.820
 2278SOL    MW4 9144   2.036   3.851   3.851
 2279SOL     OW 9145   1.823   3.997   3.764
 2279SOL    HW2 9146   1.900   3.949   3.795
 2279SOL    HW3 9147   1.748   3.952   3.804
 2279SOL    MW4 9148   1.823   3.984   3.773
 2280SOL     OW 9149   1.799   4.280   3.816
 2280SOL    HW2 9150   1.889   4.310   3.804
 2280SOL    HW3 9151   1.803   4.185   3.806
 2280SOL    MW4 9152   1.811   4.271   3.813
 2281SOL     OW 9153   2.042   4.424   3.777
 2281SOL    HW2 9154   2.104   4.368   3.825
 2281SOL    HW3 9155   2.055   4.401   3.685
 2281SOL    MW4 9156   2.052   4.413   3.772
 2282SOL     OW 9157   2.461   4.635   3.870
 2282SOL    HW2 9158   2.466   4.634   3.965
 2282SOL    HW3 9159   2.528   4.699   3.842
 2282SOL    MW4 9160   2.471   4.644   3.879
 2283SOL     OW 9161   2.248   0.124   3.818
 2283SOL    HW2 9162   2.326   0.072   3.841
 2283SOL    HW3 9163   2.240   0.113   3.723
 2283SOL    MW4 9164   2.257   0.115   3.808
 2284SOL     OW 9165   2.232   0.393   3.880
 2284SOL    HW2 9166   2.249   0.306   3.843
 2284SOL    HW3 9167   2.162   0.429   3.825
 2284SOL    MW4 9168   2.225   0.386   3.868
 2285SOL     OW 9169   2.451   0.509   3.758
 2285SOL    HW2 9170   2.380   0.464   3.805
 2285SOL    HW3 9171   2.423   0.509   3.667
 2285SOL    MW4 9172   2.438   0.503   3.752
 2286SOL     OW 9173   2.474   0.746   3.886
 2286SOL    HW2 9174   2.387   0.785   3.879
 2286SOL    HW3 9175   2.467   0.663   3.839
 2286SOL    MW4 9176   2.462   0.740   3.879
 2287SOL     OW 9177   2.253   0.897   3.788
 2287SOL    HW2 9178   2.169   0.853   3.801
 2287SOL    HW3 9179   2.270   0.890   3.694
 2287SOL    MW4 9180   2.244   0.890   3.778
 2288SOL     OW 9181   2.253   1.144   3.862
 2288SOL    HW2 9182   2.224   1.155   3.952
 2288SOL    HW3 9183   2.251   1.049   3.848
 2288SOL    MW4 9184   2.249   1.133   3.872
 2289SOL     OW 9185   2.476   1.290   3.763
 2289SOL    HW2 9186   2.481   1.375   3.806
 2289SOL    HW3 9187   2.401   1.247   3.805
 2289SOL    MW4 9188   2.467   1.295   3.774
 2290SOL     OW 9189   2.459   1.559   3.860
 2290SOL    HW2 9190   2.545   1.583   3.824
 2290SOL    HW3 9191   2.396   1.602   3.802
 2290SOL    MW4 9192   2.462   1.568   3.847
 2291SOL     OW 9193   2.261   1.670   3.727
 2291SOL    HW2 9194   2.255   1.760   3.760
 2291SOL    HW3 9195   2.183   1.627   3.764
 2291SOL    MW4 9196   2.250   1.676   3.736
 2292SOL     OW 9197   2.228   1.925   3.831
 2292SOL    HW2 9198   2.232   1.936   3.926
 2292SOL    HW3 9199   2.161   1.986   3.802
 2292SOL    MW4 9200   2.220   1.934   3.839
 2293SOL     OW 9201   2.478   2.010   3.767
 2293SOL    HW2 9202   2.483   2.101   3.794
 2293SOL    HW3 9203   2.388   1.984   3.787
 2293SOL    MW4 9204   2.467   2.018   3.773
 2294SOL     OW 9205   2.466   2.265   3.835
 2294SOL    HW2 9206   2.545   2.309   3.806
 2294SOL    HW3 9207   2.395   2.327   3.815
 2294SOL    MW4 9208   2.467   2.279   3.828
 2295SOL     OW 9209   2.278   2.441   3.782
 2295SOL    HW2 9210   2.192   2.408   3.806
 2295SOL    HW3 9211   2.280   2.438   3.686
 2295SOL    MW4 9212   2.267   2.437   3.772
 2296SOL     OW 9213   2.223   2.711   3.864
 2296SOL    HW2 9214   2.216   2.734   3.957
 2296SOL    HW3 9215   2.251   2.620   3.864
 2296SOL    MW4 9216   2.226   2.702   3.876
 2297SOL     OW 9217   2.477   2.786   3.744
 2297SOL    HW2 9218   2.389   2.755   3.765
 2297SOL    HW3 9219   2.483   2.777   3.649
 2297SOL    MW4 9220   2.466   2.781   3.734
 2298SOL     OW 9221   2.446   3.076   3.847
 2298SOL    HW2 9222   2.470   3.076   3.940
 2298SOL    HW3 9223   2.465   2.986   3.818
 2298SOL    MW4 9224   2.452   3.064   3.856
 2299SOL     OW 9225   2.205   3.186   3.732
 2299SOL    HW2 9226   2.200   3.278   3.759
 2299SOL    HW3 9227   2.281   3.152   3.778
 2299SOL    MW4 9228   2.214   3.193   3.742
 2300SOL     OW 9229   2.238   3.432   3.829
 2300SOL    HW2 9230   2.258   3.417   3.921
 2300SOL    HW3 9231   2.307   3.491   3.798
 2300SOL    MW4 9232   2.250   3.438   3.837
 2301SOL     OW 9233   2.453   3.609   3.745
 2301SOL    HW2 9234   2.526   3.552   3.770
 2301SOL    HW3 9235   2.447   3.600   3.650
 2301SOL    MW4 9236   2.462   3.600   3.736
 2302SOL     OW 9237   2.443   3.835   3.897
 2302SOL    HW2 9238   2.515   3.893   3.875
 2302SOL    HW3 9239   2.458   3.757   3.844
 2302SOL    MW4 9240   2.455   3.832   3.887
 2303SOL     OW 9241   2.237   3.993   3.773
 2303SOL    HW2 9242   2.294   3.930   3.817
 2303SOL    HW3 9243   2.257   3.981   3.680
 2303SOL    MW4 9244   2.247   3.983   3.766
 2304SOL     OW 9245   2.258   4.247   3.852
 2304SOL    HW2 9246   2.246   4.251   3.947
 2304SOL    HW3 9247   2.266   4.154   3.832
 2304SOL    MW4 9248   2.258   4.236   3.862
 2305SOL     OW 9249   2.471   4.386   3.744
 2305SOL    HW2 9250   2.388   4.348   3.772
 2305SOL    HW3 9251   2.468   4.477   3.774
 2305SOL    MW4 9252   2.460   4.393   3.751
 2306SOL     OW 9253   2.847   4.621   3.798
 2306SOL    HW2 9254   2.853   4.623   3.893
 2306SOL    HW3 9255   2.927   4.664   3.768
 2306SOL    MW4 9256   2.858   4.627   3.806
 2307SOL     OW 9257   2.659   0.140   3.727
 2307SOL    HW2 9258   2.719   0.071   3.755
 2307SOL    HW3 9259   2.648   0.125   3.632
 2307SOL    MW4 9260   2.665   0.129   3.718
 2308SOL     OW 9261   2.687   0.378   3.862
 2308SOL    HW2 9262   2.684   0.297   3.811
 2308SOL    HW3 9263   2.613   0.429   3.829
 2308SOL    MW4 9264   2.677   0.374   3.851
 2309SOL     OW 9265   2.903   0.502   3.762
 2309SOL    HW2 9266   2.980   0.449   3.783
 2309SOL    HW3 9267   2.832   0.463   3.811
 2309SOL    MW4 9268   2.904   0.490   3.771
 2310SOL     OW 9269   2.909   0.774   3.821
 2310SOL    HW2 9270   2.993   0.813   3.799
 2310SOL    HW3 9271   2.920   0.680   3.802
 2310SOL    MW4 9272   2.921   0.766   3.816
 2311SOL     OW 9273   2.674   0.864   3.710
 2311SOL    HW2 9274   2.761   0.837   3.738
 2311SOL    HW3 9275   2.616   0.836   3.781
 2311SOL    MW4 9276   2.678   0.857   3.723
 2312SOL     OW 9277   2.708   1.121   3.834
 2312SOL    HW2 9278   2.695   1.040   3.786
 2312SOL    HW3 9279   2.633   1.176   3.809
 2312SOL    MW4 9280   2.696   1.118   3.825
 2313SOL     OW 9281   2.932   1.258   3.729
 2313SOL    HW2 9282   2.942   1.338   3.780
 2313SOL    HW3 9283   2.855   1.215   3.767
 2313SOL    MW4 9284   2.923   1.263   3.741
 2314SOL     OW 9285   2.944   1.514   3.857
 2314SOL    HW2 9286   2.953   1.506   3.952
 2314SOL    HW3 9287   3.011   1.578   3.832
 2314SOL    MW4 9288   2.954   1.521   3.866
 2315SOL     OW 9289   2.704   1.656   3.772
 2315SOL    HW2 9290   2.786   1.611   3.793
 2315SOL    HW3 9291   2.706   1.666   3.677
 2315SOL    MW4 9292   2.715   1.651   3.762
 2316SOL     OW 9293   2.726   1.908   3.877
 2316SOL    HW2 9294   2.736   1.816   3.855
 2316SOL    HW3 9295   2.650   1.937   3.827
 2316SOL    MW4 9296   2.717   1.900   3.868
 2317SOL     OW 9297   2.956   2.038   3.769
 2317SOL    HW2 9298   2.954   2.123   3.812
 2317SOL    HW3 9299   2.881   1.991   3.805
 2317SOL    MW4 9300   2.946   2.043   3.779
 2318SOL     OW 9301   2.918   2.293   3.880
 2318SOL    HW2 9302   2.921   2.307   3.975
 2318SOL    HW3 9303   2.989   2.348   3.845
 2318SOL    MW4 9304   2.928   2.302   3.888
 2319SOL     OW 9305   2.689   2.378   3.706
 2319SOL    HW2 9306   2.682   2.469   3.734
 2319SOL    HW3 9307   2.768   2.345   3.749
 2319SOL    MW4 9308   2.699   2.386   3.715
 2320SOL     OW 9309   2.697   2.644   3.790
 2320SOL    HW2 9310   2.716   2.650   3.884
 2320SOL    HW3 9311   2.611   2.685   3.780
 2320SOL    MW4 9312   2.688   2.650   3.801
 2321SOL     OW 9313   2.926   2.818   3.771
 2321SOL    HW2 9314   2.921   2.902   3.816
 2321SOL    HW3 9315   2.842   2.776   3.789
 2321SOL    MW4 9316   2.914   2.824   3.779
 2322SOL     OW 9317   2.934   3.052   3.889
 2322SOL    HW2 9318   3.013   3.093   3.853
 2322SOL    HW3 9319   2.862   3.098   3.846
 2322SOL    MW4 9320   2.935   3.063   3.878
 2323SOL     OW 9321   2.694   3.167   3.773
 2323SOL    HW2 9322   2.686   3.260   3.794
 2323SOL    HW3 9323   2.605   3.133   3.776
 2323SOL    MW4 9324   2.681   3.175   3.776
 2324SOL     OW 9325   2.686   3.443   3.807
 2324SOL    HW2 9326   2.682   3.460   3.902
 2324SOL    HW3 9327   2.771   3.479   3.781
 2324SOL    MW4 9328   2.697   3.450   3.816
 2325SOL     OW 9329   2.915   3.577   3.761
 2325SOL    HW2 9330   2.989   3.536   3.804
 2325SOL    HW3 9331   2.929   3.562   3.668
 2325SOL    MW4 9332   2.926   3.570   3.754
 2326SOL     OW 9333   2.901   3.837   3.860
 2326SOL    HW2 9334   2.911   3.840   3.955
 2326SOL    HW3 9335   2.899   3.743   3.840
 2326SOL    MW4 9336   2.902   3.825   3.870
 2327SOL     OW 9337   2.669   3.978   3.798
 2327SOL    HW2 9338   2.669   4.060   3.848
 2327SOL    HW3 9339   2.746   3.931   3.831
 2327SOL    MW4 9340   2.679   3.983   3.809
 2328SOL     OW 9341   2.653   4.236   3.896
 2328SOL    HW2 9342   2.729   4.276   3.854
 2328SOL    HW3 9343   2.578   4.274   3.850
 2328SOL    MW4 9344   2.653   4.246   3.884
 2329SOL     OW 9345   2.860   4.357   3.730
 2329SOL    HW2 9346   2.935   4.317   3.774
 2329SOL    HW3 9347   2.858   4.447   3.762
 2329SOL    MW4 9348   2.870   4.363   3.740
 2330SOL     OW 9349   3.332   4.622   3.875
 2330SOL    HW2 9350   3.298   4.620   3.965
 2330SOL    HW3 9351   3.407   4.682   3.879
 2330SOL    MW4 9352   3.337   4.630   3.888
 2331SOL     OW 9353   3.111   0.085   3.740
 2331SOL    HW2 9354   3.185   0.040   3.779
 2331SOL    HW3 9355   3.118   0.068   3.647
 2331SOL    MW4 9356   3.122   0.077   3.733
 2332SOL     OW 9357   3.137   0.360   3.844
 2332SOL    HW2 9358   3.133   0.355   3.939
 2332SOL    HW3 9359   3.132   0.269   3.814
 2332SOL    MW4 9360   3.136   0.348   3.853
 2333SOL     OW 9361   3.314   0.530   3.739
 2333SOL    HW2 9362   3.390   0.482   3.772
 2333SOL    HW3 9363   3.241   0.470   3.750
 2333SOL    MW4 9364   3.315   0.516   3.745
 2334SOL     OW 9365   3.361   0.724   3.920
 2334SOL    HW2 9366   3.347   0.713   4.014
 2334SOL    HW3 9367   3.319   0.647   3.880
 2334SOL    MW4 9368   3.354   0.713   3.927
 2335SOL     OW 9369   3.158   0.861   3.770
 2335SOL    HW2 9370   3.232   0.817   3.811
 2335SOL    HW3 9371   3.169   0.847   3.676
 2335SOL    MW4 9372   3.169   0.854   3.763
 2336SOL     OW 9373   3.144   1.128   3.871
 2336SOL    HW2 9374   3.138   1.037   3.842
 2336SOL    HW3 9375   3.066   1.170   3.835
 2336SOL    MW4 9376   3.133   1.121   3.862
 2337SOL     OW 9377   3.353   1.267   3.748
 2337SOL    HW2 9378   3.278   1.219   3.784
 2337SOL    HW3 9379   3.338   1.266   3.653
 2337SOL    MW4 9380   3.341   1.261   3.740
 2338SOL     OW 9381   3.386   1.526   3.888
 2338SOL    HW2 9382   3.313   1.583   3.867
 2338SOL    HW3 9383   3.367   1.444   3.843
 2338SOL    MW4 9384   3.374   1.522   3.879
 2339SOL     OW 9385   3.168   1.667   3.804
 2339SOL    HW2 9386   3.174   1.757   3.835
 2339SOL    HW3 9387   3.170   1.674   3.709
 2339SOL    MW4 9388   3.169   1.680   3.796
 2340SOL     OW 9389   3.182   1.924   3.886
 2340SOL    HW2 9390   3.157   1.927   3.978
 2340SOL    HW3 9391   3.115   1.975   3.841
 2340SOL    MW4 9392   3.170   1.931   3.892
 2341SOL     OW 9393   3.418   2.052   3.789
 2341SOL    HW2 9394   3.347   2.001   3.826
 2341SOL    HW3 9395   3.413   2.036   3.695
 2341SOL    MW4 9396   3.408   2.043   3.782
 2342SOL     OW 9397   3.397   2.313   3.866
 2342SOL    HW2 9398   3.313   2.331   3.825
 2342SOL    HW3 9399   3.425   2.230   3.828
 2342SOL    MW4 9400   3.390   2.305   3.856
 2343SOL     OW 9401   3.138   2.418   3.770
 2343SOL    HW2 9402   3.137   2.512   3.787
 2343SOL    HW3 9403   3.147   2.411   3.675
 2343SOL    MW4 9404   3.139   2.429   3.760
 2344SOL     OW 9405   3.184   2.686   3.851
 2344SOL    HW2 9406   3.187   2.690   3.947
 2344SOL    HW3 9407   3.103   2.730   3.827
 2344SOL    MW4 9408   3.174   2.692   3.861
 2345SOL     OW 9409   3.373   2.858   3.775
 2345SOL    HW2 9410   3.297   2.802   3.794
 2345SOL    HW3 9411   3.394   2.841   3.684
 2345SOL    MW4 9412   3.366   2.848   3.766
 2346SOL     OW 9413   3.358   3.103   3.897
 2346SOL    HW2 9414   3.435   3.143   3.857
 2346SOL    HW3 9415   3.348   3.020   3.852
 2346SOL    MW4 9416   3.367   3.097   3.886
 2347SOL     OW 9417   3.143   3.212   3.784
 2347SOL    HW2 9418   3.222   3.176   3.824
 2347SOL    HW3 9419   3.161   3.213   3.690
 2347SOL    MW4 9420   3.156   3.208   3.777
 2348SOL     OW 9421   3.153   3.466   3.860
 2348SOL    HW2 9422   3.237   3.491   3.822
 2348SOL    HW3 9423   3.137   3.378   3.826
 2348SOL    MW4 9424   3.162   3.458   3.850
 2349SOL     OW 9425   3.372   3.601   3.792
 2349SOL    HW2 9426   3.364   3.689   3.828
 2349SOL    HW3 9427   3.362   3.614   3.697
 2349SOL    MW4 9428   3.370   3.615   3.784
 2350SOL     OW 9429   3.340   3.860   3.910
 2350SOL    HW2 9430   3.423   3.903   3.888
 2350SOL    HW3 9431   3.273   3.919   3.875
 2350SOL    MW4 9432   3.342   3.873   3.902
 2351SOL     OW 9433   3.133   3.967   3.765
 2351SOL    HW2 9434   3.104   4.054   3.794
 2351SOL    HW3 9435   3.067   3.907   3.800
 2351SOL    MW4 9436   3.120   3.971   3.773
 2352SOL     OW 9437   3.095   4.239   3.853
 2352SOL    HW2 9438   3.108   4.237   3.948
 2352SOL    HW3 9439   3.179   4.266   3.818
 2352SOL    MW4 9440   3.108   4.242   3.861
 2353SOL     OW 9441   3.335   4.369   3.755
 2353SOL    HW2 9442   3.417   4.332   3.790
 2353SOL    HW3 9443   3.329   4.455   3.796
 2353SOL    MW4 9444   3.345   4.376   3.765
 2354SOL     OW 9445   3.779   4.645   3.886
 2354SOL    HW2 9446   3.845   4.688   3.832
 2354SOL    HW3 9447   3.777   4.554   3.855
 2354SOL    MW4 9448   3.787   4.638   3.875
 2355SOL     OW 9449   3.555   0.127   3.821
 2355SOL    HW2 9450   3.644   0.103   3.845
 2355SOL    HW3 9451   3.553   0.118   3.725
 2355SOL    MW4 9452   3.566   0.122   3.811
 2356SOL     OW 9453   3.528   0.393   3.847
 2356SOL    HW2 9454   3.618   0.424   3.842
 2356SOL    HW3 9455   3.534   0.299   3.830
 2356SOL    MW4 9456   3.540   0.385   3.844
 2357SOL     OW 9457   3.790   0.495   3.816
 2357SOL    HW2 9458   3.875   0.455   3.836
 2357SOL    HW3 9459   3.796   0.583   3.852
 2357SOL    MW4 9460   3.802   0.502   3.823
 2358SOL     OW 9461   3.788   0.756   3.896
 2358SOL    HW2 9462   3.866   0.795   3.857
 2358SOL    HW3 9463   3.715   0.798   3.851
 2358SOL    MW4 9464   3.789   0.767   3.885
 2359SOL     OW 9465   3.582   0.885   3.749
 2359SOL    HW2 9466   3.591   0.975   3.783
 2359SOL    HW3 9467   3.511   0.847   3.801
 2359SOL    MW4 9468   3.574   0.892   3.761
 2360SOL     OW 9469   3.568   1.136   3.866
 2360SOL    HW2 9470   3.646   1.190   3.850
 2360SOL    HW3 9471   3.499   1.178   3.815
 2360SOL    MW4 9472   3.569   1.149   3.857
 2361SOL     OW 9473   3.810   1.285   3.810
 2361SOL    HW2 9474   3.897   1.246   3.799
 2361SOL    HW3 9475   3.826   1.366   3.857
 2361SOL    MW4 9476   3.824   1.290   3.815
 2362SOL     OW 9477   3.843   1.532   3.899
 2362SOL    HW2 9478   3.825   1.534   3.993
 2362SOL    HW3 9479   3.761   1.558   3.858
 2362SOL    MW4 9480   3.830   1.535   3.906
 2363SOL     OW 9481   3.613   1.649   3.769
 2363SOL    HW2 9482   3.541   1.596   3.804
 2363SOL    HW3 9483   3.611   1.633   3.675
 2363SOL    MW4 9484   3.603   1.640   3.761
 2364SOL     OW 9485   3.628   1.889   3.874
 2364SOL    HW2 9486   3.615   1.806   3.828
 2364SOL    HW3 9487   3.555   1.945   3.846
 2364SOL    MW4 9488   3.617   1.886   3.864
 2365SOL     OW 9489   3.819   2.087   3.777
 2365SOL    HW2 9490   3.900   2.047   3.809
 2365SOL    HW3 9491   3.750   2.033   3.814
 2365SOL    MW4 9492   3.821   2.075   3.786
 2366SOL     OW 9493   3.813   2.344   3.897
 2366SOL    HW2 9494   3.738   2.395   3.866
 2366SOL    HW3 9495   3.808   2.261   3.850
 2366SOL    MW4 9496   3.803   2.340   3.887
 2367SOL     OW 9497   3.603   2.461   3.774
 2367SOL    HW2 9498   3.524   2.421   3.811
 2367SOL    HW3 9499   3.594   2.450   3.679
 2367SOL    MW4 9500   3.592   2.454   3.766
 2368SOL     OW 9501   3.590   2.727   3.901
 2368SOL    HW2 9502   3.590   2.648   3.847
 2368SOL    HW3 9503   3.505   2.768   3.884
 2368SOL    MW4 9504   3.578   2.722   3.892
 2369SOL     OW 9505   3.769   2.855   3.740
 2369SOL    HW2 9506   3.856   2.818   3.760
 2369SOL    HW3 9507   3.710   2.812   3.802
 2369SOL    MW4 9508   3.773   2.844   3.751
 2370SOL     OW 9509   3.828   3.106   3.826
 2370SOL    HW2 9510   3.742   3.149   3.819
 2370SOL    HW3 9511   3.812   3.016   3.798
 2370SOL    MW4 9512   3.814   3.100   3.821
 2371SOL     OW 9513   3.582   3.222   3.786
 2371SOL    HW2 9514   3.597   3.314   3.809
 2371SOL    HW3 9515   3.583   3.221   3.691
 2371SOL    MW4 9516   3.584   3.234   3.777
 2372SOL     OW 9517   3.604   3.480   3.878
 2372SOL    HW2 9518   3.604   3.473   3.973
 2372SOL    HW3 9519   3.519   3.518   3.856
 2372SOL    MW4 9520   3.593   3.484   3.888
 2373SOL     OW 9521   3.818   3.616   3.788
 2373SOL    HW2 9522   3.810   3.707   3.819
 2373SOL    HW3 9523   3.742   3.572   3.824
 2373SOL    MW4 9524   3.807   3.622   3.797
 2374SOL     OW 9525   3.811   3.869   3.844
 2374SOL    HW2 9526   3.810   3.871   3.940
 2374SOL    HW3 9527   3.896   3.906   3.820
 2374SOL    MW4 9528   3.822   3.874   3.853
 2375SOL     OW 9529   3.556   3.984   3.799
 2375SOL    HW2 9530   3.565   4.078   3.817
 2375SOL    HW3 9531   3.643   3.948   3.815
 2375SOL    MW4 9532   3.568   3.992   3.803
 2376SOL     OW 9533   3.560   4.243   3.886
 2376SOL    HW2 9534   3.566   4.248   3.981
 2376SOL    HW3 9535   3.641   4.283   3.855
 2376SOL    MW4 9536   3.572   4.249   3.894
 2377SOL     OW 9537   3.792   4.352   3.810
 2377SOL    HW2 9538   3.882   4.343   3.841
 2377SOL    HW3 9539   3.798   4.343   3.715
 2377SOL    MW4 9540   3.805   4.350   3.802
 2378SOL     OW 9541   4.230   4.638   3.898
 2378SOL    HW2 9542   4.217   4.651   3.992
 2378SOL    HW3 9543   4.311   4.685   3.878
 2378SOL    MW4 9544   4.239   4.646   3.908
 2379SOL     OW 9545   3.991   0.118   3.754
 2379SOL    HW2 9546   4.065   0.064   3.782
 2379SOL    HW3 9547   3.995   0.118   3.658
 2379SOL    MW4 9548   4.001   0.111   3.745
 2380SOL     OW 9549   4.040   0.402   3.843
 2380SOL    HW2 9550   4.027   0.403   3.938
 2380SOL    HW3 9551   4.030   0.310   3.818
 2380SOL    MW4 9552   4.037   0.390   3.853
 2381SOL     OW 9553   4.272   0.507   3.756
 2381SOL    HW2 9554   4.194   0.472   3.798
 2381SOL    HW3 9555   4.261   0.487   3.663
 2381SOL    MW4 9556   4.260   0.500   3.749
 2382SOL     OW 9557   4.260   0.766   3.857
 2382SOL    HW2 9558   4.175   0.796   3.824
 2382SOL    HW3 9559   4.272   0.680   3.816
 2382SOL    MW4 9560   4.250   0.758   3.847
 2383SOL     OW 9561   4.017   0.885   3.772
 2383SOL    HW2 9562   4.038   0.976   3.791
 2383SOL    HW3 9563   4.000   0.884   3.678
 2383SOL    MW4 9564   4.018   0.897   3.762
 2384SOL     OW 9565   4.050   1.140   3.836
 2384SOL    HW2 9566   4.027   1.143   3.928
 2384SOL    HW3 9567   4.135   1.183   3.831
 2384SOL    MW4 9568   4.058   1.146   3.847
 2385SOL     OW 9569   4.275   1.265   3.818
 2385SOL    HW2 9570   4.287   1.358   3.841
 2385SOL    HW3 9571   4.267   1.265   3.723
 2385SOL    MW4 9572   4.275   1.278   3.808
 2386SOL     OW 9573   4.268   1.537   3.885
 2386SOL    HW2 9574   4.186   1.580   3.860
 2386SOL    HW3 9575   4.337   1.592   3.847
 2386SOL    MW4 9576   4.267   1.550   3.877
 2387SOL     OW 9577   4.055   1.690   3.774
 2387SOL    HW2 9578   4.052   1.783   3.796
 2387SOL    HW3 9579   3.983   1.651   3.824
 2387SOL    MW4 9580   4.045   1.697   3.783
 2388SOL     OW 9581   4.061   1.950   3.836
 2388SOL    HW2 9582   4.052   1.938   3.930
 2388SOL    HW3 9583   4.148   1.988   3.824
 2388SOL    MW4 9584   4.071   1.954   3.847
 2389SOL     OW 9585   4.293   2.087   3.731
 2389SOL    HW2 9586   4.281   2.179   3.755
 2389SOL    HW3 9587   4.254   2.080   3.644
 2389SOL    MW4 9588   4.286   2.098   3.723
 2390SOL     OW 9589   4.213   2.345   3.809
 2390SOL    HW2 9590   4.200   2.341   3.903
 2390SOL    HW3 9591   4.126   2.367   3.774
 2390SOL    MW4 9592   4.200   2.347   3.817
 2391SOL     OW 9593   3.973   2.476   3.726
 2391SOL    HW2 9594   4.006   2.556   3.768
 2391SOL    HW3 9595   3.922   2.432   3.794
 2391SOL    MW4 9596   3.971   2.481   3.741
 2392SOL     OW 9597   4.013   2.738   3.822
 2392SOL    HW2 9598   4.020   2.727   3.917
 2392SOL    HW3 9599   4.095   2.782   3.798
 2392SOL    MW4 9600   4.025   2.743   3.831
 2393SOL     OW 9601   4.248   2.847   3.742
 2393SOL    HW2 9602   4.256   2.940   3.765
 2393SOL    HW3 9603   4.331   2.809   3.769
 2393SOL    MW4 9604   4.260   2.854   3.748
 2394SOL     OW 9605   4.278   3.112   3.864
 2394SOL    HW2 9606   4.206   3.173   3.848
 2394SOL    HW3 9607   4.355   3.154   3.827
 2394SOL    MW4 9608   4.279   3.125   3.857
 2395SOL     OW 9609   4.064   3.234   3.751
 2395SOL    HW2 9610   3.979   3.199   3.776
 2395SOL    HW3 9611   4.063   3.234   3.655
 2395SOL    MW4 9612   4.053   3.229   3.741
 2396SOL     OW 9613   4.037   3.491   3.879
 2396SOL    HW2 9614   4.038   3.401   3.846
 2396SOL    HW3 9615   3.953   3.527   3.850
 2396SOL    MW4 9616   4.026   3.484   3.871
 2397SOL     OW 9617   4.259   3.608   3.742
 2397SOL    HW2 9618   4.178   3.576   3.782
 2397SOL    HW3 9619   4.329   3.565   3.792
 2397SOL    MW4 9620   4.258   3.598   3.753
 2398SOL     OW 9621   4.259   3.880   3.858
 2398SOL    HW2 9622   4.182   3.913   3.813
 2398SOL    HW3 9623   4.274   3.794   3.820
 2398SOL    MW4 9624   4.251   3.873   3.847
 2399SOL     OW 9625   4.039   4.012   3.769
 2399SOL    HW2 9626   4.060   4.104   3.787
 2399SOL    HW3 9627   4.035   4.006   3.673
 2399SOL    MW4 9628   4.041   4.023   3.759
 2400SOL     OW 9629   4.061   4.270   3.870
 2400SOL    HW2 9630   4.080   4.259   3.963
 2400SOL    HW3 9631   4.134   4.321   3.837
 2400SOL    MW4 9632   4.073   4.275   3.878
 2401SOL     OW 9633   4.278   4.383   3.767
 2401SOL    HW2 9634   4.252   4.470   3.796
 2401SOL    HW3 9635   4.365   4.371   3.805
 2401SOL    MW4 9636   4.286   4.393   3.776
 2402SOL     OW 9637   0.219   4.591   4.136
 2402SOL    HW2 9638   0.279   4.639   4.194
 2402SOL    HW3 9639   0.214   4.504   4.175
 2402SOL    MW4 9640   0.226   4.586   4.149
 2403SOL     OW 9641   0.013   0.076   4.217
 2403SOL    HW2 9642   0.036   0.071   4.310
 2403SOL    HW3 9643   0.086   0.033   4.172
 2403SOL    MW4 9644   0.026   0.070   4.223
 2404SOL     OW 9645   4.457   0.348   4.136
 2404SOL    HW2 9646   4.468   0.254   4.152
 2404SOL    HW3 9647   4.480   0.359   4.044
 2404SOL    MW4 9648   4.461   0.337   4.126
 2405SOL     OW 9649   0.178   0.496   4.249
 2405SOL    HW2 9650   0.258   0.460   4.213
 2405SOL    HW3 9651   0.107   0.449   4.204
 2405SOL    MW4 9652   0.179   0.485   4.239
 2406SOL     OW 9653   0.212   0.754   4.150
 2406SOL    HW2 9654   0.141   0.805   4.189
 2406SOL    HW3 9655   0.203   0.667   4.188
 2406SOL    MW4 9656   0.201   0.749   4.160
 2407SOL     OW 9657   0.011   0.885   4.292
 2407SOL    HW2 9658  -0.080   0.859   4.276
 2407SOL    HW3 9659   0.021   0.966   4.243
 2407SOL    MW4 9660   0.000   0.892   4.283
 2408SOL     OW 9661   0.038   1.128   4.162
 2408SOL    HW2 9662   0.107   1.188   4.191
 2408SOL    HW3 9663   0.038   1.137   4.066
 2408SOL    MW4 9664   0.047   1.137   4.153
 2409SOL     OW 9665   0.244   1.321   4.239
 2409SOL    HW2 9666   0.255   1.318   4.334
 2409SOL    HW3 9667   0.317   1.269   4.205
 2409SOL    MW4 9668   0.255   1.313   4.247
 2410SOL     OW 9669   4.329   2.097   4.800
 2410SOL    HW2 9670   4.272   2.117   4.875
 2410SOL    HW3 9671   4.315   2.170   4.740
 2410SOL    MW4 9672   4.319   2.109   4.802
 2411SOL     OW 9673   0.045   1.670   4.261
 2411SOL    HW2 9674  -0.036   1.623   4.238
 2411SOL    HW3 9675   0.036   1.755   4.217
 2411SOL    MW4 9676   0.033   1.675   4.252
 2412SOL     OW 9677   0.201   2.084   4.212
 2412SOL    HW2 9678   0.200   2.058   4.304
 2412SOL    HW3 9679   0.284   2.050   4.178
 2412SOL    MW4 9680   0.212   2.076   4.219
 2413SOL     OW 9681   0.432   1.450   4.612
 2413SOL    HW2 9682   0.411   1.538   4.583
 2413SOL    HW3 9683   0.415   1.450   4.706
 2413SOL    MW4 9684   0.427   1.462   4.620
 2414SOL     OW 9685   0.226   2.352   4.131
 2414SOL    HW2 9686   0.300   2.395   4.175
 2414SOL    HW3 9687   0.219   2.268   4.175
 2414SOL    MW4 9688   0.235   2.347   4.142
 2415SOL     OW 9689   4.473   2.433   4.211
 2415SOL    HW2 9690   4.407   2.401   4.150
 2415SOL    HW3 9691   4.557   2.403   4.175
 2415SOL    MW4 9692   4.475   2.425   4.198
 2416SOL     OW 9693   0.007   2.697   4.117
 2416SOL    HW2 9694   0.090   2.738   4.142
 2416SOL    HW3 9695   0.009   2.612   4.160
 2416SOL    MW4 9696   0.018   2.692   4.126
 2417SOL     OW 9697   0.232   2.830   4.190
 2417SOL    HW2 9698   0.320   2.807   4.163
 2417SOL    HW3 9699   0.225   2.924   4.172
 2417SOL    MW4 9700   0.242   2.840   4.184
 2418SOL     OW 9701   0.201   3.107   4.133
 2418SOL    HW2 9702   0.280   3.148   4.168
 2418SOL    HW3 9703   0.129   3.146   4.183
 2418SOL    MW4 9704   0.202   3.118   4.144
 2419SOL     OW 9705   0.003   3.238   4.285
 2419SOL    HW2 9706  -0.059   3.176   4.245
 2419SOL    HW3 9707   0.001   3.314   4.228
 2419SOL    MW4 9708  -0.006   3.240   4.272
 2420SOL     OW 9709   0.012   3.469   4.139
 2420SOL    HW2 9710  -0.062   3.521   4.170
 2420SOL    HW3 9711  -0.005   3.458   4.045
 2420SOL    MW4 9712  -0.001   3.475   4.130
 2421SOL     OW 9713   0.244   3.606   4.240
 2421SOL    HW2 9714   0.331   3.566   4.231
 2421SOL    HW3 9715   0.185   3.545   4.198
 2421SOL    MW4 9716   0.248   3.593   4.234
 2422SOL     OW 9717   0.207   3.861   4.146
 2422SOL    HW2 9718   0.127   3.903   4.177
 2422SOL    HW3 9719   0.208   3.776   4.190
 2422SOL    MW4 9720   0.197   3.855   4.156
 2423SOL     OW 9721   0.012   4.054   4.229
 2423SOL    HW2 9722   0.020   4.041   4.323
 2423SOL    HW3 9723  -0.065   4.003   4.203
 2423SOL    MW4 9724   0.003   4.046   4.238
 2424SOL     OW 9725   4.482   4.308   4.126
 2424SOL    HW2 9726   4.500   4.221   4.163
 2424SOL    HW3 9727   4.514   4.302   4.036
 2424SOL    MW4 9728   4.489   4.295   4.119
 2425SOL     OW 9729   0.213   4.362   4.277
 2425SOL    HW2 9730   0.198   4.373   4.371
 2425SOL    HW3 9731   0.126   4.344   4.241
 2425SOL    MW4 9732   0.199   4.361   4.284
 2426SOL     OW 9733   0.640   4.617   4.188
 2426SOL    HW2 9734   0.553   4.651   4.208
 2426SOL    HW3 9735   0.646   4.619   4.093
 2426SOL    MW4 9736   0.629   4.622   4.178
 2427SOL     OW 9737   0.412   0.066   4.263
 2427SOL    HW2 9738   0.443   0.051   4.353
 2427SOL    HW3 9739   0.404   0.161   4.257
 2427SOL    MW4 9740   0.415   0.076   4.274
 2428SOL     OW 9741   0.400   0.346   4.144
 2428SOL    HW2 9742   0.469   0.388   4.197
 2428SOL    HW3 9743   0.429   0.357   4.054
 2428SOL    MW4 9744   0.413   0.353   4.139
 2429SOL     OW 9745   0.604   0.527   4.281
 2429SOL    HW2 9746   0.685   0.476   4.278
 2429SOL    HW3 9747   0.626   0.611   4.241
 2429SOL    MW4 9748   0.617   0.531   4.276
 2430SOL     OW 9749   0.675   0.793   4.182
 2430SOL    HW2 9750   0.602   0.844   4.218
 2430SOL    HW3 9751   0.650   0.774   4.092
 2430SOL    MW4 9752   0.662   0.797   4.175
 2431SOL     OW 9753   0.433   0.891   4.271
 2431SOL    HW2 9754   0.426   0.980   4.236
 2431SOL    HW3 9755   0.368   0.841   4.222
 2431SOL    MW4 9756   0.424   0.896   4.260
 2432SOL     OW 9757   0.425   1.148   4.151
 2432SOL    HW2 9758   0.513   1.182   4.162
 2432SOL    HW3 9759   0.410   1.149   4.056
 2432SOL    MW4 9760   0.435   1.153   4.140
 2433SOL     OW 9761   0.638   1.316   4.223
 2433SOL    HW2 9762   0.641   1.326   4.318
 2433SOL    HW3 9763   0.654   1.404   4.188
 2433SOL    MW4 9764   0.640   1.329   4.231
 2434SOL     OW 9765   0.659   1.600   4.132
 2434SOL    HW2 9766   0.744   1.634   4.159
 2434SOL    HW3 9767   0.661   1.604   4.036
 2434SOL    MW4 9768   0.670   1.605   4.123
 2435SOL     OW 9769   0.219   1.547   4.086
 2435SOL    HW2 9770   0.232   1.458   4.118
 2435SOL    HW3 9771   0.158   1.587   4.148
 2435SOL    MW4 9772   0.213   1.541   4.098
 2436SOL     OW 9773   0.444   1.962   4.146
 2436SOL    HW2 9774   0.434   1.878   4.190
 2436SOL    HW3 9775   0.427   1.943   4.054
 2436SOL    MW4 9776   0.440   1.948   4.140
 2437SOL     OW 9777   0.692   2.060   4.254
 2437SOL    HW2 9778   0.677   2.009   4.333
 2437SOL    HW3 9779   0.616   2.041   4.198
 2437SOL    MW4 9780   0.680   2.051   4.257
 2438SOL     OW 9781   0.645   2.335   4.225
 2438SOL    HW2 9782   0.669   2.246   4.250
 2438SOL    HW3 9783   0.631   2.331   4.130
 2438SOL    MW4 9784   0.646   2.323   4.216
 2439SOL     OW 9785   0.424   2.499   4.263
 2439SOL    HW2 9786   0.445   2.586   4.229
 2439SOL    HW3 9787   0.504   2.448   4.253
 2439SOL    MW4 9788   0.437   2.504   4.257
 2440SOL     OW 9789   0.489   2.712   4.114
 2440SOL    HW2 9790   0.579   2.738   4.130
 2440SOL    HW3 9791   0.482   2.706   4.018
 2440SOL    MW4 9792   0.500   2.715   4.103
 2441SOL     OW 9793   0.733   2.820   4.173
 2441SOL    HW2 9794   0.709   2.811   4.266
 2441SOL    HW3 9795   0.711   2.911   4.152
 2441SOL    MW4 9796   0.727   2.831   4.183
 2442SOL     OW 9797   0.670   3.082   4.111
 2442SOL    HW2 9798   0.737   3.148   4.129
 2442SOL    HW3 9799   0.589   3.121   4.143
 2442SOL    MW4 9800   0.668   3.096   4.117
 2443SOL     OW 9801   0.439   3.199   4.233
 2443SOL    HW2 9802   0.434   3.183   4.327
 2443SOL    HW3 9803   0.464   3.291   4.225
 2443SOL    MW4 9804   0.441   3.209   4.245
 2444SOL     OW 9805   0.471   3.461   4.175
 2444SOL    HW2 9806   0.559   3.497   4.187
 2444SOL    HW3 9807   0.448   3.482   4.085
 2444SOL    MW4 9808   0.480   3.468   4.165
 2445SOL     OW 9809   0.718   3.585   4.253
 2445SOL    HW2 9810   0.719   3.560   4.346
 2445SOL    HW3 9811   0.800   3.552   4.218
 2445SOL    MW4 9812   0.729   3.577   4.261
 2446SOL     OW 9813   0.693   3.875   4.201
 2446SOL    HW2 9814   0.609   3.906   4.237
 2446SOL    HW3 9815   0.708   3.791   4.244
 2446SOL    MW4 9816   0.684   3.868   4.211
 2447SOL     OW 9817   0.435   3.969   4.307
 2447SOL    HW2 9818   0.423   4.053   4.264
 2447SOL    HW3 9819   0.372   3.911   4.265
 2447SOL    MW4 9820   0.425   3.972   4.296
 2448SOL     OW 9821   0.419   4.207   4.172
 2448SOL    HW2 9822   0.351   4.258   4.217
 2448SOL    HW3 9823   0.406   4.226   4.079
 2448SOL    MW4 9824   0.408   4.216   4.166
 2449SOL     OW 9825   0.666   4.334   4.251
 2449SOL    HW2 9826   0.589   4.281   4.232
 2449SOL    HW3 9827   0.638   4.424   4.230
 2449SOL    MW4 9828   0.652   4.339   4.246
 2450SOL     OW 9829   1.089   0.061   4.135
 2450SOL    HW2 9830   1.089  -0.034   4.145
 2450SOL    HW3 9831   1.108   0.075   4.042
 2450SOL    MW4 9832   1.092   0.050   4.124
 2451SOL     OW 9833   0.866   0.068   4.308
 2451SOL    HW2 9834   0.931   0.053   4.240
 2451SOL    HW3 9835   0.783   0.041   4.267
 2451SOL    MW4 9836   0.863   0.062   4.293
 2452SOL     OW 9837   0.833   0.372   4.207
 2452SOL    HW2 9838   0.921   0.411   4.211
 2452SOL    HW3 9839   0.846   0.283   4.240
 2452SOL    MW4 9840   0.846   0.365   4.212
 2453SOL     OW 9841   1.074   0.533   4.220
 2453SOL    HW2 9842   1.088   0.525   4.315
 2453SOL    HW3 9843   1.158   0.509   4.182
 2453SOL    MW4 9844   1.087   0.528   4.228
 2454SOL     OW 9845   1.127   0.811   4.174
 2454SOL    HW2 9846   1.195   0.837   4.236
 2454SOL    HW3 9847   1.103   0.722   4.200
 2454SOL    MW4 9848   1.133   0.803   4.186
 2455SOL     OW 9849   0.901   0.934   4.284
 2455SOL    HW2 9850   0.982   0.895   4.251
 2455SOL    HW3 9851   0.832   0.876   4.253
 2455SOL    MW4 9852   0.903   0.921   4.276
 2456SOL     OW 9853   0.890   1.194   4.156
 2456SOL    HW2 9854   0.893   1.111   4.203
 2456SOL    HW3 9855   0.803   1.228   4.174
 2456SOL    MW4 9856   0.879   1.187   4.165
 2457SOL     OW 9857   1.128   1.317   4.253
 2457SOL    HW2 9858   1.129   1.295   4.347
 2457SOL    HW3 9859   1.044   1.284   4.221
 2457SOL    MW4 9860   1.117   1.310   4.261
 2458SOL     OW 9861   1.145   1.568   4.124
 2458SOL    HW2 9862   1.071   1.623   4.153
 2458SOL    HW3 9863   1.130   1.484   4.167
 2458SOL    MW4 9864   1.133   1.564   4.133
 2459SOL     OW 9865   0.906   1.654   4.227
 2459SOL    HW2 9866   0.892   1.646   4.321
 2459SOL    HW3 9867   0.899   1.748   4.209
 2459SOL    MW4 9868   0.903   1.665   4.237
 2460SOL     OW 9869   0.890   1.914   4.160
 2460SOL    HW2 9870   0.829   1.970   4.208
 2460SOL    HW3 9871   0.886   1.946   4.070
 2460SOL    MW4 9872   0.881   1.925   4.155
 2461SOL     OW 9873   1.125   2.021   4.254
 2461SOL    HW2 9874   1.124   1.995   4.346
 2461SOL    HW3 9875   1.043   1.986   4.219
 2461SOL    MW4 9876   1.114   2.013   4.261
 2462SOL     OW 9877   1.106   2.268   4.135
 2462SOL    HW2 9878   1.168   2.331   4.171
 2462SOL    HW3 9879   1.122   2.188   4.185
 2462SOL    MW4 9880   1.116   2.266   4.147
 2463SOL     OW 9881   0.905   2.420   4.249
 2463SOL    HW2 9882   0.961   2.360   4.199
 2463SOL    HW3 9883   0.816   2.392   4.229
 2463SOL    MW4 9884   0.901   2.408   4.240
 2464SOL     OW 9885   0.941   2.646   4.098
 2464SOL    HW2 9886   0.939   2.577   4.164
 2464SOL    HW3 9887   0.860   2.695   4.114
 2464SOL    MW4 9888   0.930   2.644   4.109
 2465SOL     OW 9889   1.118   2.811   4.236
 2465SOL    HW2 9890   1.085   2.896   4.207
 2465SOL    HW3 9891   1.061   2.747   4.194
 2465SOL    MW4 9892   1.106   2.813   4.227
 2466SOL     OW 9893   1.057   3.067   4.167
 2466SOL    HW2 9894   1.117   3.116   4.223
 2466SOL    HW3 9895   1.089   3.082   4.078
 2466SOL    MW4 9896   1.069   3.075   4.163
 2467SOL     OW 9897   0.866   3.245   4.223
 2467SOL    HW2 9898   0.836   3.219   4.310
 2467SOL    HW3 9899   0.928   3.176   4.198
 2467SOL    MW4 9900   0.870   3.232   4.231
 2468SOL     OW 9901   0.968   3.492   4.169
 2468SOL    HW2 9902   0.943   3.406   4.202
 2468SOL    HW3 9903   0.956   3.486   4.074
 2468SOL    MW4 9904   0.963   3.480   4.161
 2469SOL     OW 9905   1.197   3.635   4.236
 2469SOL    HW2 9906   1.167   3.718   4.200
 2469SOL    HW3 9907   1.126   3.574   4.219
 2469SOL    MW4 9908   1.184   3.638   4.229
 2470SOL     OW 9909   1.132   3.888   4.137
 2470SOL    HW2 9910   1.203   3.945   4.168
 2470SOL    HW3 9911   1.054   3.922   4.181
 2470SOL    MW4 9912   1.131   3.900   4.147
 2471SOL     OW 9913   0.942   4.006   4.310
 2471SOL    HW2 9914   0.927   4.096   4.281
 2471SOL    HW3 9915   0.858   3.962   4.298
 2471SOL    MW4 9916   0.929   4.012   4.305
 2472SOL     OW 9917   0.913   4.262   4.170
 2472SOL    HW2 9918   0.984   4.321   4.196
 2472SOL    HW3 9919   0.836   4.296   4.215
 2472SOL    MW4 9920   0.912   4.274   4.179
 2473SOL     OW 9921   1.090   4.467   4.182
 2473SOL    HW2 9922   1.120   4.476   4.272
 2473SOL    HW3 9923   1.161   4.419   4.138
 2473SOL    MW4 9924   1.103   4.462   4.188
 2474SOL     OW 9925   1.506   0.000   4.133
 2474SOL    HW2 9926   1.578   0.057   4.159
 2474SOL    HW3 9927   1.427   0.048   4.158
 2474SOL    MW4 9928   1.505   0.014   4.139
 2475SOL     OW 9929   1.306   0.209   4.240
 2475SOL    HW2 9930   1.294   0.185   4.332
 2475SOL    HW3 9931   1.230   0.173   4.195
 2475SOL    MW4 9932   1.295   0.201   4.246
 2476SOL     OW 9933   1.334   0.455   4.135
 2476SOL    HW2 9934   1.428   0.470   4.147
 2476SOL    HW3 9935   1.319   0.367   4.169
 2476SOL    MW4 9936   1.344   0.445   4.141
 2477SOL     OW 9937   1.599   0.501   4.193
 2477SOL    HW2 9938   1.609   0.503   4.288
 2477SOL    HW3 9939   1.604   0.593   4.167
 2477SOL    MW4 9940   1.601   0.514   4.202
 2478SOL     OW 9941   1.542   0.775   4.161
 2478SOL    HW2 9942   1.622   0.822   4.186
 2478SOL    HW3 9943   1.533   0.791   4.067
 2478SOL    MW4 9944   1.551   0.783   4.152
 2479SOL     OW 9945   1.342   0.894   4.316
 2479SOL    HW2 9946   1.359   0.986   4.297
 2479SOL    HW3 9947   1.413   0.847   4.272
 2479SOL    MW4 9948   1.354   0.900   4.308
 2480SOL     OW 9949   1.314   1.134   4.158
 2480SOL    HW2 9950   1.252   1.205   4.168
 2480SOL    HW3 9951   1.305   1.106   4.067
 2480SOL    MW4 9952   1.305   1.139   4.147
 2481SOL     OW 9953   1.574   1.269   4.212
 2481SOL    HW2 9954   1.589   1.291   4.304
 2481SOL    HW3 9955   1.496   1.214   4.213
 2481SOL    MW4 9956   1.566   1.264   4.225
 2482SOL     OW 9957   1.545   1.533   4.105
 2482SOL    HW2 9958   1.489   1.579   4.168
 2482SOL    HW3 9959   1.537   1.440   4.128
 2482SOL    MW4 9960   1.537   1.527   4.116
 2483SOL     OW 9961   1.356   1.664   4.269
 2483SOL    HW2 9962   1.366   1.756   4.245
 2483SOL    HW3 9963   1.287   1.632   4.212
 2483SOL    MW4 9964   1.348   1.672   4.258
 2484SOL     OW 9965   1.365   1.917   4.177
 2484SOL    HW2 9966   1.442   1.970   4.200
 2484SOL    HW3 9967   1.291   1.965   4.213
 2484SOL    MW4 9968   1.366   1.930   4.184
 2485SOL     OW 9969   1.607   2.024   4.263
 2485SOL    HW2 9970   1.685   1.995   4.215
 2485SOL    HW3 9971   1.597   2.116   4.240
 2485SOL    MW4 9972   1.616   2.032   4.254
 2486SOL     OW 9973   1.558   2.291   4.206
 2486SOL    HW2 9974   1.628   2.343   4.247
 2486SOL    HW3 9975   1.568   2.307   4.112
 2486SOL    MW4 9976   1.569   2.300   4.199
 2487SOL     OW 9977   1.507   2.876   4.348
 2487SOL    HW2 9978   1.468   2.901   4.432
 2487SOL    HW3 9979   1.601   2.878   4.364
 2487SOL    MW4 9980   1.514   2.879   4.362
 2488SOL     OW 9981   1.373   2.684   4.185
 2488SOL    HW2 9982   1.423   2.723   4.257
 2488SOL    HW3 9983   1.284   2.716   4.197
 2488SOL    MW4 9984   1.368   2.693   4.196
 2489SOL     OW 9985   1.644   2.250   4.870
 2489SOL    HW2 9986   1.619   2.342   4.867
 2489SOL    HW3 9987   1.730   2.247   4.828
 2489SOL    MW4 9988   1.652   2.262   4.864
 2490SOL     OW 9989   1.506   3.061   4.153
 2490SOL    HW2 9990   1.584   3.114   4.169
 2490SOL    HW3 9991   1.511   2.991   4.217
 2490SOL    MW4 9992   1.517   3.059   4.163
 2491SOL     OW 9993   1.286   3.195   4.284
 2491SOL    HW2 9994   1.349   3.143   4.234
 2491SOL    HW3 9995   1.319   3.284   4.280
 2491SOL    MW4 9996   1.298   3.200   4.277
 2492SOL     OW 9997   1.397   3.445   4.201
 2492SOL    HW2 9998   1.333   3.515   4.216
 2492SOL    HW3 9999   1.408   3.442   4.106
 2492SOL    MW410000   1.390   3.454   4.190
 2493SOL     OW10001   1.610   3.645   4.259
 2493SOL    HW210002   1.620   3.663   4.353
 2493SOL    HW310003   1.533   3.588   4.254
 2493SOL    MW410004   1.601   3.640   4.271
 2494SOL     OW10005   1.555   3.877   4.113
 2494SOL    HW210006   1.475   3.921   4.143
 2494SOL    HW310007   1.563   3.801   4.169
 2494SOL    MW410008   1.546   3.873   4.124
 2495SOL     OW10009   1.329   4.053   4.240
 2495SOL    HW210010   1.373   4.051   4.325
 2495SOL    HW310011   1.315   4.146   4.222
 2495SOL    MW410012   1.333   4.065   4.249
 2496SOL     OW10013   1.317   4.310   4.132
 2496SOL    HW210014   1.396   4.346   4.173
 2496SOL    HW310015   1.338   4.306   4.038
 2496SOL    MW410016   1.330   4.314   4.125
 2497SOL     OW10017   1.540   4.400   4.242
 2497SOL    HW210018   1.527   4.490   4.212
 2497SOL    HW310019   1.612   4.367   4.187
 2497SOL    MW410020   1.548   4.407   4.230
 2498SOL     OW10021   1.952   4.666   4.167
 2498SOL    HW210022   1.868   4.708   4.187
 2498SOL    HW310023   1.962   4.676   4.073
 2498SOL    MW410024   1.942   4.673   4.157
 2499SOL     OW10025   1.725   0.151   4.211
 2499SOL    HW210026   1.706   0.178   4.300
 2499SOL    HW310027   1.755   0.231   4.167
 2499SOL    MW410028   1.727   0.165   4.217
 2500SOL     OW10029   1.834   0.382   4.102
 2500SOL    HW210030   1.896   0.407   4.170
 2500SOL    HW310031   1.749   0.410   4.135
 2500SOL    MW410032   1.831   0.389   4.115
 2501SOL     OW10033   1.997   0.465   4.311
 2501SOL    HW210034   1.994   0.408   4.388
 2501SOL    HW310035   2.073   0.435   4.262
 2501SOL    MW410036   2.007   0.454   4.315
 2502SOL     OW10037   2.024   0.728   4.136
 2502SOL    HW210038   2.093   0.786   4.167
 2502SOL    HW310039   2.022   0.657   4.200
 2502SOL    MW410040   2.033   0.727   4.149
 2503SOL     OW10041   1.792   0.886   4.184
 2503SOL    HW210042   1.791   0.976   4.152
 2503SOL    HW310043   1.868   0.845   4.142
 2503SOL    MW410044   1.802   0.892   4.174
 2504SOL     OW10045   1.800   1.171   4.117
 2504SOL    HW210046   1.869   1.201   4.176
 2504SOL    HW310047   1.720   1.209   4.151
 2504SOL    MW410048   1.799   1.180   4.129
 2505SOL     OW10049   2.011   1.304   4.271
 2505SOL    HW210050   2.079   1.246   4.237
 2505SOL    HW310051   2.041   1.392   4.249
 2505SOL    MW410052   2.024   1.308   4.264
 2506SOL     OW10053   2.034   1.574   4.148
 2506SOL    HW210054   2.102   1.636   4.174
 2506SOL    HW310055   2.047   1.564   4.053
 2506SOL    MW410056   2.045   1.581   4.139
 2507SOL     OW10057   1.780   1.639   4.206
 2507SOL    HW210058   1.865   1.604   4.177
 2507SOL    HW310059   1.715   1.583   4.164
 2507SOL    MW410060   1.783   1.627   4.197
 2508SOL     OW10061   1.822   1.897   4.130
 2508SOL    HW210062   1.806   1.805   4.153
 2508SOL    HW310063   1.893   1.924   4.188
 2508SOL    MW410064   1.829   1.888   4.141
 2509SOL     OW10065   1.751   2.430   4.343
 2509SOL    HW210066   1.745   2.504   4.404
 2509SOL    HW310067   1.831   2.446   4.293
 2509SOL    MW410068   1.761   2.442   4.345
 2510SOL     OW10069   2.352   2.239   4.071
 2510SOL    HW210070   2.419   2.254   4.138
 2510SOL    HW310071   2.398   2.245   3.988
 2510SOL    MW410072   2.367   2.242   4.069
 2511SOL     OW10073   1.772   2.870   4.400
 2511SOL    HW210074   1.791   2.832   4.314
 2511SOL    HW310075   1.858   2.889   4.437
 2511SOL    MW410076   1.786   2.868   4.394
 2512SOL     OW10077   1.792   2.761   4.132
 2512SOL    HW210078   1.844   2.692   4.172
 2512SOL    HW310079   1.857   2.826   4.104
 2512SOL    MW410080   1.808   2.761   4.133
 2513SOL     OW10081   1.966   3.109   4.301
 2513SOL    HW210082   1.978   3.048   4.374
 2513SOL    HW310083   1.979   3.055   4.223
 2513SOL    MW410084   1.969   3.094   4.300
 2514SOL     OW10085   2.201   2.793   4.134
 2514SOL    HW210086   2.268   2.858   4.150
 2514SOL    HW310087   2.169   2.768   4.220
 2514SOL    MW410088   2.206   2.798   4.147
 2515SOL     OW10089   1.719   3.219   4.255
 2515SOL    HW210090   1.751   3.304   4.227
 2515SOL    HW310091   1.797   3.163   4.259
 2515SOL    MW410092   1.733   3.223   4.252
 2516SOL     OW10093   1.823   3.452   4.166
 2516SOL    HW210094   1.767   3.527   4.187
 2516SOL    HW310095   1.823   3.449   4.070
 2516SOL    MW410096   1.816   3.461   4.156
 2517SOL     OW10097   2.056   3.583   4.209
 2517SOL    HW210098   2.056   3.676   4.186
 2517SOL    HW310099   1.974   3.550   4.174
 2517SOL    MW410100   2.045   3.591   4.202
 2518SOL     OW10101   1.966   3.819   4.124
 2518SOL    HW210102   1.898   3.881   4.149
 2518SOL    HW310103   1.991   3.844   4.035
 2518SOL    MW410104   1.960   3.830   4.116
 2519SOL     OW10105   1.786   4.019   4.214
 2519SOL    HW210106   1.780   4.108   4.179
 2519SOL    HW310107   1.707   3.975   4.182
 2519SOL    MW410108   1.775   4.025   4.205
 2520SOL     OW10109   1.737   4.284   4.078
 2520SOL    HW210110   1.818   4.310   4.122
 2520SOL    HW310111   1.757   4.291   3.985
 2520SOL    MW410112   1.750   4.288   4.071
 2521SOL     OW10113   1.965   4.388   4.202
 2521SOL    HW210114   1.972   4.375   4.297
 2521SOL    HW310115   1.954   4.483   4.193
 2521SOL    MW410116   1.965   4.399   4.214
 2522SOL     OW10117   2.406   4.661   4.146
 2522SOL    HW210118   2.471   4.723   4.177
 2522SOL    HW310119   2.430   4.578   4.188
 2522SOL    MW410120   2.417   4.658   4.156
 2523SOL     OW10121   2.192   0.127   4.224
 2523SOL    HW210122   2.256   0.067   4.187
 2523SOL    HW310123   2.109   0.079   4.220
 2523SOL    MW410124   2.189   0.113   4.218
 2524SOL     OW10125   2.214   0.396   4.158
 2524SOL    HW210126   2.212   0.301   4.173
 2524SOL    HW310127   2.221   0.405   4.063
 2524SOL    MW410128   2.215   0.384   4.147
 2525SOL     OW10129   2.481   0.477   4.231
 2525SOL    HW210130   2.490   0.458   4.324
 2525SOL    HW310131   2.394   0.444   4.209
 2525SOL    MW410132   2.471   0.470   4.240
 2526SOL     OW10133   2.483   0.748   4.163
 2526SOL    HW210134   2.473   0.653   4.178
 2526SOL    HW310135   2.485   0.756   4.067
 2526SOL    MW410136   2.482   0.736   4.152
 2527SOL     OW10137   2.242   0.875   4.233
 2527SOL    HW210138   2.225   0.852   4.324
 2527SOL    HW310139   2.321   0.824   4.210
 2527SOL    MW410140   2.250   0.865   4.242
 2528SOL     OW10141   2.230   1.159   4.146
 2528SOL    HW210142   2.319   1.194   4.141
 2528SOL    HW310143   2.240   1.073   4.187
 2528SOL    MW410144   2.243   1.152   4.151
 2529SOL     OW10145   2.463   1.317   4.189
 2529SOL    HW210146   2.433   1.308   4.279
 2529SOL    HW310147   2.520   1.242   4.174
 2529SOL    MW410148   2.467   1.306   4.199
 2530SOL     OW10149   2.446   1.602   4.133
 2530SOL    HW210150   2.441   1.514   4.171
 2530SOL    HW310151   2.448   1.587   4.039
 2530SOL    MW410152   2.445   1.588   4.126
 2531SOL     OW10153   2.230   1.762   4.228
 2531SOL    HW210154   2.302   1.711   4.189
 2531SOL    HW310155   2.231   1.845   4.181
 2531SOL    MW410156   2.240   1.766   4.217
 2532SOL     OW10157   2.184   2.006   4.100
 2532SOL    HW210158   2.243   2.081   4.102
 2532SOL    HW310159   2.116   2.027   4.164
 2532SOL    MW410160   2.183   2.019   4.108
 2533SOL     OW10161   2.518   2.131   4.303
 2533SOL    HW210162   2.490   2.081   4.380
 2533SOL    HW310163   2.559   2.066   4.246
 2533SOL    MW410164   2.520   2.116   4.306
 2534SOL     OW10165   2.789   2.519   4.273
 2534SOL    HW210166   2.725   2.464   4.318
 2534SOL    HW310167   2.818   2.582   4.339
 2534SOL    MW410168   2.785   2.520   4.288
 2535SOL     OW10169   2.374   2.441   4.579
 2535SOL    HW210170   2.342   2.481   4.498
 2535SOL    HW310171   2.378   2.514   4.642
 2535SOL    MW410172   2.370   2.456   4.577
 2536SOL     OW10173   1.963   2.580   4.246
 2536SOL    HW210174   2.005   2.632   4.315
 2536SOL    HW310175   2.028   2.513   4.224
 2536SOL    MW410176   1.977   2.578   4.252
 2537SOL     OW10177   2.450   2.791   4.354
 2537SOL    HW210178   2.410   2.707   4.332
 2537SOL    HW310179   2.385   2.835   4.409
 2537SOL    MW410180   2.436   2.785   4.358
 2538SOL     OW10181   2.492   3.155   4.133
 2538SOL    HW210182   2.410   3.165   4.181
 2538SOL    HW310183   2.556   3.204   4.185
 2538SOL    MW410184   2.490   3.163   4.146
 2539SOL     OW10185   1.989   2.943   4.085
 2539SOL    HW210186   2.002   2.981   3.998
 2539SOL    HW310187   2.067   2.891   4.100
 2539SOL    MW410188   2.001   2.941   4.075
 2540SOL     OW10189   2.282   3.441   4.107
 2540SOL    HW210190   2.291   3.355   4.149
 2540SOL    HW310191   2.200   3.476   4.141
 2540SOL    MW410192   2.273   3.434   4.117
 2541SOL     OW10193   2.478   3.588   4.236
 2541SOL    HW210194   2.411   3.532   4.196
 2541SOL    HW310195   2.450   3.677   4.216
 2541SOL    MW410196   2.465   3.593   4.228
 2542SOL     OW10197   2.387   3.849   4.160
 2542SOL    HW210198   2.471   3.879   4.196
 2542SOL    HW310199   2.399   3.851   4.065
 2542SOL    MW410200   2.400   3.853   4.152
 2543SOL     OW10201   2.183   4.014   4.241
 2543SOL    HW210202   2.261   3.962   4.227
 2543SOL    HW310203   2.111   3.952   4.236
 2543SOL    MW410204   2.184   3.999   4.239
 2544SOL     OW10205   2.207   4.258   4.116
 2544SOL    HW210206   2.197   4.172   4.157
 2544SOL    HW310207   2.132   4.308   4.149
 2544SOL    MW410208   2.196   4.253   4.126
 2545SOL     OW10209   2.445   4.392   4.200
 2545SOL    HW210210   2.513   4.325   4.204
 2545SOL    HW310211   2.371   4.348   4.158
 2545SOL    MW410212   2.444   4.377   4.195
 2546SOL     OW10213   2.826   4.658   4.068
 2546SOL    HW210214   2.900   4.705   4.106
 2546SOL    HW310215   2.823   4.575   4.116
 2546SOL    MW410216   2.835   4.653   4.079
 2547SOL     OW10217   2.632   0.175   4.200
 2547SOL    HW210218   2.669   0.254   4.161
 2547SOL    HW310219   2.690   0.105   4.173
 2547SOL    MW410220   2.644   0.176   4.191
 2548SOL     OW10221   2.737   0.418   4.138
 2548SOL    HW210222   2.650   0.450   4.159
 2548SOL    HW310223   2.739   0.412   4.043
 2548SOL    MW410224   2.726   0.421   4.128
 2549SOL     OW10225   3.000   0.515   4.239
 2549SOL    HW210226   2.997   0.603   4.203
 2549SOL    HW310227   2.917   0.475   4.212
 2549SOL    MW410228   2.989   0.521   4.231
 2550SOL     OW10229   2.936   0.767   4.099
 2550SOL    HW210230   2.988   0.844   4.124
 2550SOL    HW310231   2.926   0.775   4.004
 2550SOL    MW410232   2.942   0.778   4.090
 2551SOL     OW10233   2.711   0.874   4.257
 2551SOL    HW210234   2.783   0.830   4.212
 2551SOL    HW310235   2.632   0.831   4.224
 2551SOL    MW410236   2.710   0.862   4.246
 2552SOL     OW10237   2.665   1.116   4.125
 2552SOL    HW210238   2.675   1.032   4.170
 2552SOL    HW310239   2.674   1.095   4.032
 2552SOL    MW410240   2.668   1.103   4.119
 2553SOL     OW10241   2.912   1.229   4.182
 2553SOL    HW210242   2.968   1.169   4.132
 2553SOL    HW310243   2.824   1.189   4.177
 2553SOL    MW410244   2.907   1.216   4.175
 2554SOL     OW10245   2.933   1.516   4.128
 2554SOL    HW210246   2.992   1.578   4.169
 2554SOL    HW310247   2.949   1.434   4.174
 2554SOL    MW410248   2.943   1.513   4.139
 2555SOL     OW10249   2.708   1.670   4.214
 2555SOL    HW210250   2.771   1.612   4.171
 2555SOL    HW310251   2.624   1.646   4.175
 2555SOL    MW410252   2.705   1.659   4.203
 2556SOL     OW10253   2.717   1.941   4.158
 2556SOL    HW210254   2.725   1.850   4.188
 2556SOL    HW310255   2.713   1.934   4.062
 2556SOL    MW410256   2.717   1.928   4.149
 2557SOL     OW10257   2.926   2.074   4.272
 2557SOL    HW210258   2.925   2.163   4.237
 2557SOL    HW310259   2.851   2.031   4.230
 2557SOL    MW410260   2.916   2.080   4.262
 2558SOL     OW10261   2.944   2.319   4.150
 2558SOL    HW210262   3.035   2.338   4.174
 2558SOL    HW310263   2.893   2.385   4.198
 2558SOL    MW410264   2.950   2.330   4.159
 2559SOL     OW10265   2.733   2.709   4.069
 2559SOL    HW210266   2.658   2.767   4.077
 2559SOL    HW310267   2.724   2.647   4.141
 2559SOL    MW410268   2.722   2.708   4.079
 2560SOL     OW10269   2.526   2.880   4.107
 2560SOL    HW210270   2.515   2.838   4.192
 2560SOL    HW310271   2.522   2.974   4.125
 2560SOL    MW410272   2.524   2.887   4.120
 2561SOL     OW10273   2.959   2.860   4.121
 2561SOL    HW210274   2.884   2.809   4.094
 2561SOL    HW310275   2.975   2.920   4.047
 2561SOL    MW410276   2.952   2.861   4.107
 2562SOL     OW10277   2.860   3.092   4.266
 2562SOL    HW210278   2.894   3.048   4.344
 2562SOL    HW310279   2.865   3.026   4.197
 2562SOL    MW410280   2.865   3.078   4.267
 2563SOL     OW10281   2.684   3.300   4.277
 2563SOL    HW210282   2.678   3.329   4.368
 2563SOL    HW310283   2.754   3.234   4.277
 2563SOL    MW410284   2.693   3.295   4.289
 2564SOL     OW10285   2.694   3.506   4.082
 2564SOL    HW210286   2.700   3.421   4.126
 2564SOL    HW310287   2.621   3.550   4.125
 2564SOL    MW410288   2.685   3.500   4.093
 2565SOL     OW10289   2.927   3.595   4.229
 2565SOL    HW210290   2.895   3.605   4.318
 2565SOL    HW310291   2.851   3.565   4.179
 2565SOL    MW410292   2.913   3.593   4.234
 2566SOL     OW10293   2.882   3.838   4.129
 2566SOL    HW210294   2.960   3.879   4.168
 2566SOL    HW310295   2.884   3.748   4.162
 2566SOL    MW410296   2.893   3.831   4.139
 2567SOL     OW10297   2.651   3.932   4.247
 2567SOL    HW210298   2.646   4.025   4.224
 2567SOL    HW310299   2.737   3.905   4.216
 2567SOL    MW410300   2.662   3.941   4.240
 2568SOL     OW10301   2.663   4.194   4.171
 2568SOL    HW210302   2.729   4.254   4.205
 2568SOL    HW310303   2.660   4.213   4.077
 2568SOL    MW410304   2.671   4.205   4.163
 2569SOL     OW10305   2.869   4.409   4.211
 2569SOL    HW210306   2.881   4.420   4.306
 2569SOL    HW310307   2.951   4.370   4.181
 2569SOL    MW410308   2.881   4.405   4.220
 2570SOL     OW10309   3.271   4.605   4.140
 2570SOL    HW210310   3.352   4.654   4.155
 2570SOL    HW310311   3.285   4.520   4.182
 2570SOL    MW410312   3.284   4.600   4.148
 2571SOL     OW10313   3.034   0.078   4.234
 2571SOL    HW210314   3.058   0.111   4.321
 2571SOL    HW310315   3.110   0.027   4.207
 2571SOL    MW410316   3.047   0.075   4.242
 2572SOL     OW10317   3.146   0.320   4.128
 2572SOL    HW210318   3.102   0.244   4.167
 2572SOL    HW310319   3.098   0.395   4.160
 2572SOL    MW410320   3.134   0.320   4.137
 2573SOL     OW10321   3.357   0.394   4.288
 2573SOL    HW210322   3.423   0.358   4.229
 2573SOL    HW310323   3.276   0.350   4.262
 2573SOL    MW410324   3.355   0.384   4.277
 2574SOL     OW10325   3.341   0.645   4.186
 2574SOL    HW210326   3.286   0.678   4.258
 2574SOL    HW310327   3.334   0.549   4.194
 2574SOL    MW410328   3.333   0.636   4.197
 2575SOL     OW10329   3.184   0.731   4.423
 2575SOL    HW210330   3.156   0.645   4.452
 2575SOL    HW310331   3.121   0.791   4.463
 2575SOL    MW410332   3.172   0.728   4.432
 2576SOL     OW10333   3.092   1.001   4.130
 2576SOL    HW210334   3.152   1.031   4.198
 2576SOL    HW310335   3.124   1.041   4.050
 2576SOL    MW410336   3.104   1.010   4.129
 2577SOL     OW10337   3.309   1.100   4.286
 2577SOL    HW210338   3.338   1.057   4.367
 2577SOL    HW310339   3.297   1.192   4.311
 2577SOL    MW410340   3.311   1.107   4.300
 2578SOL     OW10341   3.307   1.368   4.396
 2578SOL    HW210342   3.343   1.408   4.316
 2578SOL    HW310343   3.384   1.329   4.439
 2578SOL    MW410344   3.322   1.368   4.391
 2579SOL     OW10345   3.119   1.684   4.243
 2579SOL    HW210346   3.088   1.693   4.333
 2579SOL    HW310347   3.154   1.770   4.221
 2579SOL    MW410348   3.120   1.697   4.252
 2580SOL     OW10349   3.151   1.944   4.164
 2580SOL    HW210350   3.223   1.975   4.218
 2580SOL    HW310351   3.073   1.977   4.207
 2580SOL    MW410352   3.150   1.952   4.177
 2581SOL     OW10353   3.373   2.033   4.309
 2581SOL    HW210354   3.464   2.004   4.295
 2581SOL    HW310355   3.367   2.117   4.262
 2581SOL    MW410356   3.385   2.040   4.301
 2582SOL     OW10357   3.386   2.282   4.151
 2582SOL    HW210358   3.467   2.331   4.165
 2582SOL    HW310359   3.386   2.261   4.057
 2582SOL    MW410360   3.396   2.286   4.140
 2583SOL     OW10361   3.186   2.436   4.255
 2583SOL    HW210362   3.177   2.516   4.203
 2583SOL    HW310363   3.256   2.387   4.212
 2583SOL    MW410364   3.194   2.440   4.243
 2584SOL     OW10365   3.180   2.690   4.129
 2584SOL    HW210366   3.248   2.732   4.182
 2584SOL    HW310367   3.107   2.752   4.131
 2584SOL    MW410368   3.179   2.704   4.137
 2585SOL     OW10369   3.389   2.871   4.241
 2585SOL    HW210370   3.471   2.830   4.213
 2585SOL    HW310371   3.391   2.958   4.202
 2585SOL    MW410372   3.400   2.877   4.232
 2586SOL     OW10373   3.374   3.154   4.180
 2586SOL    HW210374   3.282   3.162   4.208
 2586SOL    HW310375   3.369   3.151   4.085
 2586SOL    MW410376   3.361   3.155   4.171
 2587SOL     OW10377   3.132   3.206   4.272
 2587SOL    HW210378   3.136   3.298   4.246
 2587SOL    HW310379   3.042   3.179   4.253
 2587SOL    MW410380   3.121   3.214   4.266
 2588SOL     OW10381   3.137   3.449   4.139
 2588SOL    HW210382   3.064   3.506   4.164
 2588SOL    HW310383   3.144   3.459   4.044
 2588SOL    MW410384   3.128   3.458   4.129
 2589SOL     OW10385   3.390   3.601   4.238
 2589SOL    HW210386   3.376   3.601   4.333
 2589SOL    HW310387   3.319   3.548   4.203
 2589SOL    MW410388   3.379   3.594   4.246
 2590SOL     OW10389   3.357   3.885   4.184
 2590SOL    HW210390   3.353   3.795   4.216
 2590SOL    HW310391   3.353   3.877   4.088
 2590SOL    MW410392   3.356   3.872   4.175
 2591SOL     OW10393   3.102   3.983   4.248
 2591SOL    HW210394   3.117   3.990   4.343
 2591SOL    HW310395   3.179   3.939   4.214
 2591SOL    MW410396   3.114   3.978   4.256
 2592SOL     OW10397   3.084   4.268   4.144
 2592SOL    HW210398   3.157   4.309   4.190
 2592SOL    HW310399   3.072   4.184   4.189
 2592SOL    MW410400   3.092   4.262   4.156
 2593SOL     OW10401   3.308   4.371   4.282
 2593SOL    HW210402   3.336   4.384   4.373
 2593SOL    HW310403   3.379   4.322   4.241
 2593SOL    MW410404   3.321   4.367   4.289
 2594SOL     OW10405   3.780   4.664   4.156
 2594SOL    HW210406   3.861   4.709   4.180
 2594SOL    HW310407   3.784   4.659   4.060
 2594SOL    MW410408   3.791   4.670   4.146
 2595SOL     OW10409   3.511   0.071   4.205
 2595SOL    HW210410   3.508   0.161   4.174
 2595SOL    HW310411   3.604   0.046   4.198
 2595SOL    MW410412   3.523   0.080   4.200
 2596SOL     OW10413   3.559   0.332   4.122
 2596SOL    HW210414   3.643   0.366   4.153
 2596SOL    HW310415   3.542   0.380   4.040
 2596SOL    MW410416   3.568   0.343   4.115
 2597SOL     OW10417   3.762   0.459   4.262
 2597SOL    HW210418   3.780   0.437   4.353
 2597SOL    HW310419   3.688   0.520   4.267
 2597SOL    MW410420   3.754   0.464   4.275
 2598SOL     OW10421   3.730   0.851   4.157
 2598SOL    HW210422   3.671   0.925   4.146
 2598SOL    HW310423   3.753   0.825   4.067
 2598SOL    MW410424   3.725   0.857   4.143
 2599SOL     OW10425   3.591   0.675   4.292
 2599SOL    HW210426   3.503   0.672   4.254
 2599SOL    HW310427   3.634   0.749   4.249
 2599SOL    MW410428   3.585   0.684   4.282
 2600SOL     OW10429   3.562   1.059   4.141
 2600SOL    HW210430   3.477   1.064   4.183
 2600SOL    HW310431   3.544   1.075   4.048
 2600SOL    MW410432   3.549   1.062   4.134
 2601SOL     OW10433   3.767   1.225   4.240
 2601SOL    HW210434   3.697   1.169   4.209
 2601SOL    HW310435   3.762   1.220   4.336
 2601SOL    MW410436   3.757   1.217   4.249
 2602SOL     OW10437   3.780   1.505   4.167
 2602SOL    HW210438   3.761   1.415   4.194
 2602SOL    HW310439   3.836   1.540   4.238
 2602SOL    MW410440   3.785   1.498   4.180
 2603SOL     OW10441   3.603   1.917   4.189
 2603SOL    HW210442   3.585   1.904   4.096
 2603SOL    HW310443   3.591   1.831   4.229
 2603SOL    MW410444   3.599   1.904   4.182
 2604SOL     OW10445   3.352   1.517   4.181
 2604SOL    HW210446   3.348   1.499   4.087
 2604SOL    HW310447   3.280   1.578   4.197
 2604SOL    MW410448   3.342   1.522   4.170
 2605SOL     OW10449   3.843   2.038   4.231
 2605SOL    HW210450   3.851   2.061   4.323
 2605SOL    HW310451   3.758   1.993   4.225
 2605SOL    MW410452   3.833   2.035   4.242
 2606SOL     OW10453   3.835   2.312   4.171
 2606SOL    HW210454   3.839   2.218   4.189
 2606SOL    HW310455   3.829   2.318   4.075
 2606SOL    MW410456   3.835   2.300   4.160
 2607SOL     OW10457   3.605   2.436   4.274
 2607SOL    HW210458   3.595   2.443   4.369
 2607SOL    HW310459   3.677   2.375   4.261
 2607SOL    MW410460   3.613   2.429   4.285
 2608SOL     OW10461   3.627   2.699   4.207
 2608SOL    HW210462   3.631   2.612   4.246
 2608SOL    HW310463   3.600   2.683   4.116
 2608SOL    MW410464   3.624   2.685   4.200
 2609SOL     OW10465   3.870   2.818   4.244
 2609SOL    HW210466   3.886   2.843   4.335
 2609SOL    HW310467   3.785   2.775   4.246
 2609SOL    MW410468   3.861   2.816   4.256
 2610SOL     OW10469   3.863   3.096   4.117
 2610SOL    HW210470   3.877   3.004   4.141
 2610SOL    HW310471   3.876   3.097   4.022
 2610SOL    MW410472   3.866   3.084   4.107
 2611SOL     OW10473   3.640   3.229   4.257
 2611SOL    HW210474   3.693   3.165   4.209
 2611SOL    HW310475   3.550   3.199   4.244
 2611SOL    MW410476   3.635   3.216   4.249
 2612SOL     OW10477   3.638   3.496   4.159
 2612SOL    HW210478   3.640   3.410   4.200
 2612SOL    HW310479   3.565   3.542   4.201
 2612SOL    MW410480   3.628   3.491   4.170
 2613SOL     OW10481   3.849   3.648   4.255
 2613SOL    HW210482   3.925   3.593   4.235
 2613SOL    HW310483   3.774   3.595   4.227
 2613SOL    MW410484   3.849   3.633   4.249
 2614SOL     OW10485   3.795   3.878   4.125
 2614SOL    HW210486   3.722   3.923   4.167
 2614SOL    HW310487   3.811   3.801   4.179
 2614SOL    MW410488   3.788   3.874   4.138
 2615SOL     OW10489   3.597   4.014   4.264
 2615SOL    HW210490   3.608   4.004   4.359
 2615SOL    HW310491   3.515   3.968   4.244
 2615SOL    MW410492   3.587   4.007   4.274
 2616SOL     OW10493   3.540   4.278   4.185
 2616SOL    HW210494   3.620   4.330   4.189
 2616SOL    HW310495   3.566   4.191   4.217
 2616SOL    MW410496   3.554   4.273   4.189
 2617SOL     OW10497   3.827   4.397   4.218
 2617SOL    HW210498   3.915   4.375   4.188
 2617SOL    HW310499   3.818   4.491   4.200
 2617SOL    MW410500   3.837   4.406   4.212
 2618SOL     OW10501   4.238   4.652   4.176
 2618SOL    HW210502   4.243   4.560   4.199
 2618SOL    HW310503   4.329   4.682   4.172
 2618SOL    MW410504   4.251   4.644   4.178
 2619SOL     OW10505   4.003   0.127   4.263
 2619SOL    HW210506   4.001   0.209   4.214
 2619SOL    HW310507   4.074   0.077   4.223
 2619SOL    MW410508   4.012   0.132   4.251
 2620SOL     OW10509   3.980   0.375   4.134
 2620SOL    HW210510   4.050   0.434   4.163
 2620SOL    HW310511   3.900   0.412   4.172
 2620SOL    MW410512   3.979   0.388   4.143
 2621SOL     OW10513   4.234   0.514   4.181
 2621SOL    HW210514   4.277   0.599   4.170
 2621SOL    HW310515   4.297   0.451   4.146
 2621SOL    MW410516   4.248   0.517   4.175
 2622SOL     OW10517   4.284   0.775   4.137
 2622SOL    HW210518   4.205   0.823   4.165
 2622SOL    HW310519   4.274   0.765   4.042
 2622SOL    MW410520   4.272   0.780   4.128
 2623SOL     OW10521   4.043   0.910   4.207
 2623SOL    HW210522   4.051   1.004   4.189
 2623SOL    HW310523   3.948   0.895   4.207
 2623SOL    MW410524   4.031   0.921   4.204
 2624SOL     OW10525   4.023   1.170   4.115
 2624SOL    HW210526   4.086   1.230   4.154
 2624SOL    HW310527   3.939   1.196   4.152
 2624SOL    MW410528   4.020   1.181   4.125
 2625SOL     OW10529   4.267   1.265   4.232
 2625SOL    HW210530   4.242   1.245   4.322
 2625SOL    HW310531   4.351   1.221   4.220
 2625SOL    MW410532   4.275   1.257   4.242
 2626SOL     OW10533   4.293   1.539   4.157
 2626SOL    HW210534   4.290   1.450   4.191
 2626SOL    HW310535   4.283   1.528   4.062
 2626SOL    MW410536   4.291   1.526   4.149
 2627SOL     OW10537   4.145   1.721   4.304
 2627SOL    HW210538   4.196   1.760   4.375
 2627SOL    HW310539   4.211   1.679   4.248
 2627SOL    MW410540   4.161   1.720   4.306
 2628SOL     OW10541   4.052   1.901   4.103
 2628SOL    HW210542   4.085   1.840   4.169
 2628SOL    HW310543   3.966   1.926   4.135
 2628SOL    MW410544   4.045   1.896   4.116
 2629SOL     OW10545   4.467   1.922   4.164
 2629SOL    HW210546   4.545   1.969   4.194
 2629SOL    HW310547   4.394   1.979   4.190
 2629SOL    MW410548   4.467   1.936   4.172
 2630SOL     OW10549   4.260   2.308   4.082
 2630SOL    HW210550   4.204   2.370   4.129
 2630SOL    HW310551   4.254   2.227   4.133
 2630SOL    MW410552   4.252   2.305   4.095
 2631SOL     OW10553   4.068   2.449   4.195
 2631SOL    HW210554   4.090   2.463   4.288
 2631SOL    HW310555   3.989   2.397   4.197
 2631SOL    MW410556   4.061   2.444   4.208
 2632SOL     OW10557   4.068   2.707   4.094
 2632SOL    HW210558   4.071   2.612   4.104
 2632SOL    HW310559   3.998   2.735   4.153
 2632SOL    MW410560   4.059   2.698   4.103
 2633SOL     OW10561   4.286   2.854   4.204
 2633SOL    HW210562   4.211   2.815   4.160
 2633SOL    HW310563   4.362   2.819   4.158
 2633SOL    MW410564   4.286   2.845   4.192
 2634SOL     OW10565   4.303   3.107   4.138
 2634SOL    HW210566   4.299   3.019   4.176
 2634SOL    HW310567   4.299   3.092   4.044
 2634SOL    MW410568   4.302   3.093   4.131
 2635SOL     OW10569   4.079   3.231   4.240
 2635SOL    HW210570   4.162   3.203   4.201
 2635SOL    HW310571   4.014   3.171   4.204
 2635SOL    MW410572   4.081   3.219   4.230
 2636SOL     OW10573   4.074   3.513   4.166
 2636SOL    HW210574   4.058   3.423   4.196
 2636SOL    HW310575   4.058   3.510   4.072
 2636SOL    MW410576   4.069   3.501   4.158
 2637SOL     OW10577   4.313   3.626   4.253
 2637SOL    HW210578   4.309   3.720   4.237
 2637SOL    HW310579   4.229   3.592   4.222
 2637SOL    MW410580   4.301   3.634   4.247
 2638SOL     OW10581   4.306   3.880   4.131
 2638SOL    HW210582   4.220   3.894   4.170
 2638SOL    HW310583   4.288   3.870   4.037
 2638SOL    MW410584   4.292   3.880   4.124
 2639SOL     OW10585   4.057   3.957   4.214
 2639SOL    HW210586   4.054   3.946   4.309
 2639SOL    HW310587   3.967   3.942   4.185
 2639SOL    MW410588   4.045   3.953   4.222
 2640SOL     OW10589   4.057   4.228   4.153
 2640SOL    HW210590   4.135   4.267   4.194
 2640SOL    HW310591   4.069   4.134   4.166
 2640SOL    MW410592   4.069   4.221   4.160
 2641SOL     OW10593   4.091   4.253   4.596
 2641SOL    HW210594   4.068   4.225   4.685
 2641SOL    HW310595   4.016   4.304   4.567
 2641SOL    MW410596   4.078   4.256   4.604
 2642SOL     OW10597   4.035   4.182   4.868
 2642SOL    HW210598   3.949   4.224   4.867
 2642SOL    HW310599   4.093   4.247   4.906
 2642SOL    MW410600   4.031   4.196   4.873
 2643SOL     OW10601   4.302   4.412   4.542
 2643SOL    HW210602   4.270   4.499   4.567
 2643SOL    HW310603   4.230   4.353   4.564
 2643SOL    MW410604   4.289   4.416   4.548
 2644SOL     OW10605   4.217   0.002   4.600
 2644SOL    HW210606   4.220   0.074   4.664
 2644SOL    HW310607   4.124  -0.009   4.580
 2644SOL    MW410608   4.205   0.010   4.606
 2645SOL     OW10609   4.264   1.856   4.516
 2645SOL    HW210610   4.360   1.857   4.521
 2645SOL    HW310611   4.237   1.802   4.590
 2645SOL    MW410612   4.273   1.849   4.526
 2646SOL     OW10613   0.525   0.038   4.513
 2646SOL    HW210614   0.454   0.048   4.576
 2646SOL    HW310615   0.550  -0.055   4.520
 2646SOL    MW410616   0.519   0.027   4.522
 2647SOL     OW10617   0.247   0.796   4.644
 2647SOL    HW210618   0.233   0.722   4.585
 2647SOL    HW310619   0.288   0.758   4.721
 2647SOL    MW410620   0.250   0.781   4.646
 2648SOL     OW10621   4.237   0.791   4.581
 2648SOL    HW210622   4.271   0.707   4.549
 2648SOL    HW310623   4.316   0.845   4.592
 2648SOL    MW410624   4.252   0.787   4.578
 2649SOL     OW10625   0.672   1.401   4.491
 2649SOL    HW210626   0.718   1.485   4.495
 2649SOL    HW310627   0.596   1.412   4.547
 2649SOL    MW410628   0.668   1.413   4.499
 2650SOL     OW10629   1.177   1.961   4.542
 2650SOL    HW210630   1.272   1.955   4.537
 2650SOL    HW310631   1.160   2.022   4.613
 2650SOL    MW410632   1.187   1.968   4.550
 2651SOL     OW10633   4.213   1.221   4.495
 2651SOL    HW210634   4.171   1.137   4.518
 2651SOL    HW310635   4.282   1.232   4.560
 2651SOL    MW410636   4.216   1.211   4.507
 2652SOL     OW10637   0.133   1.684   4.533
 2652SOL    HW210638   0.101   1.682   4.443
 2652SOL    HW310639   0.098   1.765   4.570
 2652SOL    MW410640   0.124   1.694   4.526
 2653SOL     OW10641   0.417   1.698   4.238
 2653SOL    HW210642   0.357   1.638   4.193
 2653SOL    HW310643   0.504   1.667   4.215
 2653SOL    MW410644   0.421   1.686   4.229
 2654SOL     OW10645   0.010   1.922   4.659
 2654SOL    HW210646   0.056   1.992   4.613
 2654SOL    HW310647  -0.048   1.968   4.720
 2654SOL    MW410648   0.009   1.937   4.661
 2655SOL     OW10649   4.280   2.304   4.623
 2655SOL    HW210650   4.365   2.332   4.589
 2655SOL    HW310651   4.218   2.368   4.588
 2655SOL    MW410652   4.283   2.316   4.614
 2656SOL     OW10653   0.610   2.979   4.573
 2656SOL    HW210654   0.615   2.892   4.534
 2656SOL    HW310655   0.663   2.974   4.652
 2656SOL    MW410656   0.617   2.967   4.578
 2657SOL     OW10657   0.384   3.108   4.483
 2657SOL    HW210658   0.456   3.049   4.505
 2657SOL    HW310659   0.397   3.184   4.538
 2657SOL    MW410660   0.395   3.110   4.493
 2658SOL     OW10661   0.029   2.340   4.469
 2658SOL    HW210662  -0.006   2.357   4.381
 2658SOL    HW310663   0.087   2.414   4.487
 2658SOL    MW410664   0.032   2.352   4.460
 2659SOL     OW10665   4.053   3.463   4.612
 2659SOL    HW210666   4.063   3.371   4.586
 2659SOL    HW310667   4.023   3.459   4.703
 2659SOL    MW410668   4.050   3.450   4.620
 2660SOL     OW10669   0.423   3.365   4.628
 2660SOL    HW210670   0.447   3.388   4.718
 2660SOL    HW310671   0.361   3.433   4.601
 2660SOL    MW410672   0.418   3.377   4.636
 2661SOL     OW10673   4.279   3.873   4.646
 2661SOL    HW210674   4.219   3.923   4.590
 2661SOL    HW310675   4.286   3.788   4.602
 2661SOL    MW410676   4.272   3.868   4.632
 2662SOL     OW10677   0.019   0.079   4.503
 2662SOL    HW210678  -0.070   0.050   4.523
 2662SOL    HW310679   0.016   0.174   4.513
 2662SOL    MW410680   0.007   0.088   4.507
 2663SOL     OW10681   3.831   0.381   4.532
 2663SOL    HW210682   3.814   0.293   4.566
 2663SOL    HW310683   3.782   0.439   4.591
 2663SOL    MW410684   3.822   0.377   4.544
 2664SOL     OW10685   4.035   3.572   4.889
 2664SOL    HW210686   4.043   3.666   4.907
 2664SOL    HW310687   4.125   3.539   4.896
 2664SOL    MW410688   4.048   3.580   4.892
 2665SOL     OW10689   3.873   3.879   4.663
 2665SOL    HW210690   3.868   3.798   4.611
 2665SOL    HW310691   3.940   3.860   4.730
 2665SOL    MW410692   3.882   3.866   4.665
 2666SOL     OW10693   0.608   4.434   4.520
 2666SOL    HW210694   0.593   4.397   4.433
 2666SOL    HW310695   0.587   4.363   4.581
 2666SOL    MW410696   0.604   4.420   4.517
 2667SOL     OW10697   3.974   0.751   4.724
 2667SOL    HW210698   4.045   0.755   4.660
 2667SOL    HW310699   3.924   0.831   4.710
 2667SOL    MW410700   3.977   0.762   4.714
 2668SOL     OW10701   1.144   0.970   4.670
 2668SOL    HW210702   1.055   0.943   4.651
 2668SOL    HW310703   1.148   1.062   4.644
 2668SOL    MW410704   1.133   0.978   4.664
 2669SOL     OW10705   0.701   0.476   4.681
 2669SOL    HW210706   0.734   0.458   4.769
 2669SOL    HW310707   0.717   0.395   4.633
 2669SOL    MW410708   0.707   0.463   4.686
 2670SOL     OW10709   0.868   0.946   4.567
 2670SOL    HW210710   0.884   0.948   4.473
 2670SOL    HW310711   0.775   0.930   4.576
 2670SOL    MW410712   0.858   0.944   4.556
 2671SOL     OW10713   0.382   1.012   4.516
 2671SOL    HW210714   0.323   0.950   4.560
 2671SOL    HW310715   0.399   0.971   4.431
 2671SOL    MW410716   0.377   0.998   4.510
 2672SOL     OW10717   2.103   1.333   4.633
 2672SOL    HW210718   2.024   1.291   4.601
 2672SOL    HW310719   2.168   1.319   4.564
 2672SOL    MW410720   2.101   1.326   4.620
 2673SOL     OW10721   0.413   1.700   4.515
 2673SOL    HW210722   0.317   1.703   4.520
 2673SOL    HW310723   0.432   1.705   4.421
 2673SOL    MW410724   0.403   1.701   4.503
 2674SOL     OW10725   1.423   1.106   4.575
 2674SOL    HW210726   1.412   1.012   4.589
 2674SOL    HW310727   1.335   1.143   4.583
 2674SOL    MW410728   1.410   1.099   4.578
 2675SOL     OW10729   0.834   1.635   4.502
 2675SOL    HW210730   0.796   1.723   4.501
 2675SOL    HW310731   0.914   1.644   4.553
 2675SOL    MW410732   0.839   1.648   4.508
 2676SOL     OW10733   0.760   2.069   4.580
 2676SOL    HW210734   0.792   2.151   4.541
 2676SOL    HW310735   0.821   2.051   4.651
 2676SOL    MW410736   0.772   2.078   4.584
 2677SOL     OW10737   1.085   1.696   4.642
 2677SOL    HW210738   1.155   1.633   4.628
 2677SOL    HW310739   1.116   1.777   4.601
 2677SOL    MW410740   1.098   1.698   4.635
 2678SOL     OW10741   0.430   2.180   4.540
 2678SOL    HW210742   0.512   2.135   4.559
 2678SOL    HW310743   0.441   2.267   4.578
 2678SOL    MW410744   0.442   2.185   4.547
 2679SOL     OW10745   0.890   2.648   4.745
 2679SOL    HW210746   0.935   2.699   4.678
 2679SOL    HW310747   0.810   2.617   4.702
 2679SOL    MW410748   0.886   2.650   4.730
 2680SOL     OW10749   0.669   2.519   4.605
 2680SOL    HW210750   0.591   2.503   4.658
 2680SOL    HW310751   0.700   2.431   4.582
 2680SOL    MW410752   0.663   2.505   4.609
 2681SOL     OW10753   0.789   3.182   4.483
 2681SOL    HW210754   0.746   3.265   4.502
 2681SOL    HW310755   0.722   3.116   4.499
 2681SOL    MW410756   0.774   3.184   4.488
 2682SOL     OW10757   0.663   3.445   4.509
 2682SOL    HW210758   0.573   3.419   4.530
 2682SOL    HW310759   0.672   3.532   4.548
 2682SOL    MW410760   0.652   3.453   4.517
 2683SOL     OW10761   1.282   0.080   4.490
 2683SOL    HW210762   1.250  -0.010   4.487
 2683SOL    HW310763   1.340   0.082   4.566
 2683SOL    MW410764   1.285   0.068   4.500
 2684SOL     OW10765   0.237   2.524   4.465
 2684SOL    HW210766   0.221   2.617   4.445
 2684SOL    HW310767   0.299   2.496   4.399
 2684SOL    MW410768   0.243   2.533   4.454
 2685SOL     OW10769   0.030   3.419   4.528
 2685SOL    HW210770  -0.049   3.474   4.535
 2685SOL    HW310771   0.014   3.364   4.452
 2685SOL    MW410772   0.017   3.419   4.519
 2686SOL     OW10773   1.412   3.430   4.585
 2686SOL    HW210774   1.498   3.396   4.557
 2686SOL    HW310775   1.357   3.352   4.592
 2686SOL    MW410776   1.416   3.415   4.582
 2687SOL     OW10777   0.080   4.325   4.532
 2687SOL    HW210778   0.062   4.231   4.534
 2687SOL    HW310779  -0.007   4.366   4.537
 2687SOL    MW410780   0.066   4.318   4.533
 2688SOL     OW10781   0.038   4.020   4.527
 2688SOL    HW210782   0.106   3.961   4.560
 2688SOL    HW310783  -0.035   4.008   4.588
 2688SOL    MW410784   0.038   4.011   4.540
 2689SOL     OW10785   0.250   0.027   4.664
 2689SOL    HW210786   0.181   0.030   4.598
 2689SOL    HW310787   0.223   0.090   4.730
 2689SOL    MW410788   0.238   0.036   4.664
 2690SOL     OW10789   0.720   0.261   4.505
 2690SOL    HW210790   0.810   0.230   4.495
 2690SOL    HW310791   0.666   0.181   4.499
 2690SOL    MW410792   0.725   0.246   4.503
 2691SOL     OW10793   1.168   4.498   4.448
 2691SOL    HW210794   1.206   4.411   4.460
 2691SOL    HW310795   1.074   4.485   4.463
 2691SOL    MW410796   1.160   4.485   4.451
 2692SOL     OW10797   0.508   0.600   4.527
 2692SOL    HW210798   0.546   0.560   4.449
 2692SOL    HW310799   0.565   0.573   4.598
 2692SOL    MW410800   0.520   0.591   4.526
 2693SOL     OW10801   1.373   0.821   4.588
 2693SOL    HW210802   1.347   0.841   4.498
 2693SOL    HW310803   1.299   0.851   4.641
 2693SOL    MW410804   1.360   0.828   4.583
 2694SOL     OW10805   1.676   0.781   4.570
 2694SOL    HW210806   1.684   0.690   4.542
 2694SOL    HW310807   1.582   0.796   4.580
 2694SOL    MW410808   1.665   0.771   4.568
 2695SOL     OW10809   0.258   1.260   4.514
 2695SOL    HW210810   0.303   1.177   4.529
 2695SOL    HW310811   0.318   1.327   4.548
 2695SOL    MW410812   0.272   1.258   4.521
 2696SOL     OW10813   0.949   1.952   4.741
 2696SOL    HW210814   1.002   1.877   4.714
 2696SOL    HW310815   1.012   2.021   4.762
 2696SOL    MW410816   0.964   1.952   4.740
 2697SOL     OW10817   0.890   1.233   4.568
 2697SOL    HW210818   0.821   1.290   4.535
 2697SOL    HW310819   0.853   1.144   4.561
 2697SOL    MW410820   0.876   1.228   4.563
 2698SOL     OW10821   1.905   1.199   4.498
 2698SOL    HW210822   1.892   1.107   4.475
 2698SOL    HW310823   1.941   1.238   4.418
 2698SOL    MW410824   1.908   1.192   4.484
 2699SOL     OW10825   1.156   1.236   4.560
 2699SOL    HW210826   1.063   1.247   4.582
 2699SOL    HW310827   1.191   1.325   4.561
 2699SOL    MW410828   1.148   1.249   4.563
 2700SOL     OW10829   1.034   2.419   4.670
 2700SOL    HW210830   0.997   2.498   4.710
 2700SOL    HW310831   1.106   2.451   4.615
 2700SOL    MW410832   1.039   2.434   4.668
 2701SOL     OW10833   1.566   2.511   4.867
 2701SOL    HW210834   1.575   2.552   4.953
 2701SOL    HW310835   1.517   2.575   4.815
 2701SOL    MW410836   1.561   2.525   4.871
 2702SOL     OW10837   1.421   2.943   4.613
 2702SOL    HW210838   1.442   2.853   4.637
 2702SOL    HW310839   1.500   2.993   4.637
 2702SOL    MW410840   1.434   2.938   4.620
 2703SOL     OW10841   1.652   3.306   4.520
 2703SOL    HW210842   1.661   3.220   4.561
 2703SOL    HW310843   1.666   3.290   4.427
 2703SOL    MW410844   1.655   3.293   4.514
 2704SOL     OW10845   0.722   2.748   4.454
 2704SOL    HW210846   0.814   2.767   4.473
 2704SOL    HW310847   0.704   2.668   4.504
 2704SOL    MW410848   0.732   2.740   4.463
 2705SOL     OW10849   0.481   4.265   4.687
 2705SOL    HW210850   0.401   4.316   4.696
 2705SOL    HW310851   0.508   4.247   4.777
 2705SOL    MW410852   0.474   4.269   4.700
 2706SOL     OW10853   0.977   2.808   4.519
 2706SOL    HW210854   1.030   2.801   4.440
 2706SOL    HW310855   0.986   2.899   4.547
 2706SOL    MW410856   0.985   2.819   4.512
 2707SOL     OW10857   0.757   2.916   4.790
 2707SOL    HW210858   0.841   2.961   4.779
 2707SOL    HW310859   0.781   2.824   4.804
 2707SOL    MW410860   0.771   2.910   4.790
 2708SOL     OW10861   1.685   3.599   4.553
 2708SOL    HW210862   1.779   3.610   4.544
 2708SOL    HW310863   1.674   3.511   4.590
 2708SOL    MW410864   1.696   3.589   4.557
 2709SOL     OW10865   0.482   3.967   4.595
 2709SOL    HW210866   0.469   4.061   4.611
 2709SOL    HW310867   0.476   3.958   4.500
 2709SOL    MW410868   0.479   3.978   4.585
 2710SOL     OW10869   0.242   3.841   4.628
 2710SOL    HW210870   0.241   3.747   4.611
 2710SOL    HW310871   0.334   3.861   4.643
 2710SOL    MW410872   0.254   3.831   4.628
 2711SOL     OW10873   0.896   4.498   4.449
 2711SOL    HW210874   0.875   4.574   4.396
 2711SOL    HW310875   0.810   4.466   4.478
 2711SOL    MW410876   0.882   4.504   4.446
 2712SOL     OW10877   0.273   4.426   4.740
 2712SOL    HW210878   0.258   4.520   4.729
 2712SOL    HW310879   0.202   4.384   4.691
 2712SOL    MW410880   0.262   4.433   4.732
 2713SOL     OW10881   2.205   4.006   4.652
 2713SOL    HW210882   2.138   3.940   4.633
 2713SOL    HW310883   2.287   3.957   4.651
 2713SOL    MW410884   2.207   3.990   4.650
 2714SOL     OW10885   1.702   4.495   4.453
 2714SOL    HW210886   1.771   4.436   4.483
 2714SOL    HW310887   1.635   4.438   4.415
 2714SOL    MW410888   1.702   4.480   4.452
 2715SOL     OW10889   1.333   4.287   4.469
 2715SOL    HW210890   1.375   4.219   4.522
 2715SOL    HW310891   1.400   4.311   4.404
 2715SOL    MW410892   1.347   4.281   4.467
 2716SOL     OW10893   0.871   0.659   4.531
 2716SOL    HW210894   0.879   0.749   4.564
 2716SOL    HW310895   0.801   0.620   4.584
 2716SOL    MW410896   0.863   0.666   4.542
 2717SOL     OW10897   1.567   0.021   4.611
 2717SOL    HW210898   1.613  -0.036   4.549
 2717SOL    HW310899   1.587  -0.017   4.697
 2717SOL    MW410900   1.576   0.008   4.614
 2718SOL     OW10901   1.086   0.497   4.488
 2718SOL    HW210902   1.009   0.545   4.516
 2718SOL    HW310903   1.057   0.406   4.481
 2718SOL    MW410904   1.072   0.492   4.491
 2719SOL     OW10905   1.601   1.738   4.643
 2719SOL    HW210906   1.574   1.651   4.671
 2719SOL    HW310907   1.668   1.722   4.576
 2719SOL    MW410908   1.606   1.725   4.637
 2720SOL     OW10909   0.602   0.868   4.585
 2720SOL    HW210910   0.533   0.933   4.572
 2720SOL    HW310911   0.567   0.788   4.546
 2720SOL    MW410912   0.588   0.866   4.578
 2721SOL     OW10913   1.634   0.524   4.460
 2721SOL    HW210914   1.540   0.532   4.479
 2721SOL    HW310915   1.659   0.441   4.499
 2721SOL    MW410916   1.625   0.514   4.467
 2722SOL     OW10917   1.645   1.263   4.485
 2722SOL    HW210918   1.585   1.196   4.519
 2722SOL    HW310919   1.732   1.235   4.514
 2722SOL    MW410920   1.649   1.251   4.493
 2723SOL     OW10921   1.268   1.504   4.541
 2723SOL    HW210922   1.354   1.486   4.579
 2723SOL    HW310923   1.286   1.563   4.468
 2723SOL    MW410924   1.282   1.509   4.536
 2724SOL     OW10925   1.471   2.658   4.655
 2724SOL    HW210926   1.413   2.594   4.613
 2724SOL    HW310927   1.556   2.645   4.613
 2724SOL    MW410928   1.474   2.648   4.644
 2725SOL     OW10929   2.295   2.553   4.338
 2725SOL    HW210930   2.242   2.521   4.265
 2725SOL    HW310931   2.248   2.631   4.369
 2725SOL    MW410932   2.281   2.559   4.333
 2726SOL     OW10933   0.839   2.308   4.504
 2726SOL    HW210934   0.912   2.336   4.559
 2726SOL    HW310935   0.854   2.353   4.420
 2726SOL    MW410936   0.851   2.318   4.500
 2727SOL     OW10937   1.458   3.784   4.623
 2727SOL    HW210938   1.374   3.745   4.598
 2727SOL    HW310939   1.523   3.716   4.606
 2727SOL    MW410940   1.455   3.770   4.618
 2728SOL     OW10941   1.306   2.425   4.245
 2728SOL    HW210942   1.331   2.515   4.224
 2728SOL    HW310943   1.380   2.372   4.215
 2728SOL    MW410944   1.319   2.430   4.239
 2729SOL     OW10945   1.292   2.455   4.546
 2729SOL    HW210946   1.308   2.449   4.452
 2729SOL    HW310947   1.333   2.377   4.583
 2729SOL    MW410948   1.300   2.444   4.539
 2730SOL     OW10949   1.248   3.169   4.572
 2730SOL    HW210950   1.320   3.106   4.578
 2730SOL    HW310951   1.231   3.177   4.478
 2730SOL    MW410952   1.256   3.162   4.560
 2731SOL     OW10953   0.994   3.079   4.653
 2731SOL    HW210954   1.085   3.104   4.643
 2731SOL    HW310955   0.944   3.150   4.614
 2731SOL    MW410956   0.999   3.091   4.647
 2732SOL     OW10957   0.677   3.735   4.554
 2732SOL    HW210958   0.627   3.815   4.570
 2732SOL    HW310959   0.768   3.765   4.545
 2732SOL    MW410960   0.683   3.750   4.555
 2733SOL     OW10961   2.159   3.458   4.578
 2733SOL    HW210962   2.096   3.406   4.529
 2733SOL    HW310963   2.206   3.395   4.632
 2733SOL    MW410964   2.157   3.443   4.578
 2734SOL     OW10965   1.936   3.323   4.515
 2734SOL    HW210966   1.953   3.277   4.432
 2734SOL    HW310967   1.841   3.328   4.520
 2734SOL    MW410968   1.926   3.317   4.504
 2735SOL     OW10969   2.250   3.194   4.257
 2735SOL    HW210970   2.160   3.171   4.282
 2735SOL    HW310971   2.303   3.165   4.332
 2735SOL    MW410972   2.245   3.187   4.270
 2736SOL     OW10973   0.949   3.801   4.541
 2736SOL    HW210974   0.978   3.886   4.508
 2736SOL    HW310975   1.030   3.752   4.556
 2736SOL    MW410976   0.963   3.806   4.539
 2737SOL     OW10977   1.777   4.073   4.470
 2737SOL    HW210978   1.797   4.058   4.378
 2737SOL    HW310979   1.839   4.017   4.517
 2737SOL    MW410980   1.788   4.064   4.464
 2738SOL     OW10981   1.992   0.293   4.594
 2738SOL    HW210982   2.075   0.262   4.559
 2738SOL    HW310983   2.015   0.338   4.676
 2738SOL    MW410984   2.006   0.295   4.600
 2739SOL     OW10985   1.039   0.219   4.482
 2739SOL    HW210986   1.010   0.154   4.417
 2739SOL    HW310987   1.118   0.181   4.521
 2739SOL    MW410988   1.046   0.205   4.478
 2740SOL     OW10989   1.730   0.251   4.485
 2740SOL    HW210990   1.814   0.244   4.531
 2740SOL    HW310991   1.676   0.181   4.523
 2740SOL    MW410992   1.734   0.241   4.496
 2741SOL     OW10993   2.481   0.021   4.607
 2741SOL    HW210994   2.454  -0.069   4.590
 2741SOL    HW310995   2.403   0.073   4.588
 2741SOL    MW410996   2.467   0.016   4.602
 2742SOL     OW10997   1.891   0.924   4.428
 2742SOL    HW210998   1.830   0.877   4.484
 2742SOL    HW310999   1.858   0.911   4.339
 2742SOL    MW411000   1.879   0.916   4.423
 2743SOL     OW11001   1.371   0.531   4.534
 2743SOL    HW211002   1.359   0.620   4.567
 2743SOL    HW311003   1.284   0.505   4.503
 2743SOL    MW411004   1.358   0.539   4.535
 2744SOL     OW11005   1.818   1.706   4.474
 2744SOL    HW211006   1.899   1.667   4.507
 2744SOL    HW311007   1.810   1.674   4.384
 2744SOL    MW411008   1.827   1.697   4.467
 2745SOL     OW11009   0.643   1.851   4.449
 2745SOL    HW211010   0.572   1.804   4.493
 2745SOL    HW311011   0.664   1.923   4.508
 2745SOL    MW411012   0.637   1.854   4.463
 2746SOL     OW11013   1.517   1.446   4.656
 2746SOL    HW211014   1.564   1.402   4.585
 2746SOL    HW311015   1.507   1.379   4.724
 2746SOL    MW411016   1.522   1.431   4.656
 2747SOL     OW11017   1.160   2.159   4.768
 2747SOL    HW211018   1.254   2.175   4.764
 2747SOL    HW311019   1.121   2.245   4.779
 2747SOL    MW411020   1.167   2.172   4.769
 2748SOL     OW11021   1.457   1.984   4.525
 2748SOL    HW211022   1.503   1.990   4.442
 2748SOL    HW311023   1.514   1.930   4.580
 2748SOL    MW411024   1.470   1.977   4.522
 2749SOL     OW11025   2.143   2.409   4.113
 2749SOL    HW211026   2.096   2.377   4.036
 2749SOL    HW311027   2.221   2.354   4.118
 2749SOL    MW411028   2.147   2.398   4.103
 2750SOL     OW11029   1.413   2.230   4.676
 2750SOL    HW211030   1.432   2.164   4.609
 2750SOL    HW311031   1.485   2.222   4.739
 2750SOL    MW411032   1.425   2.220   4.676
 2751SOL     OW11033   2.398   3.084   4.461
 2751SOL    HW211034   2.487   3.052   4.472
 2751SOL    HW311035   2.343   3.010   4.485
 2751SOL    MW411036   2.402   3.070   4.466
 2752SOL     OW11037   1.698   3.050   4.633
 2752SOL    HW211038   1.719   3.002   4.553
 2752SOL    HW311039   1.782   3.084   4.663
 2752SOL    MW411040   1.712   3.048   4.627
 2753SOL     OW11041   1.922   3.889   4.621
 2753SOL    HW211042   1.840   3.875   4.669
 2753SOL    HW311043   1.942   3.805   4.581
 2753SOL    MW411044   1.914   3.876   4.622
 2754SOL     OW11045   2.683   3.009   4.561
 2754SOL    HW211046   2.777   3.023   4.549
 2754SOL    HW311047   2.676   2.917   4.587
 2754SOL    MW411048   2.694   2.999   4.563
 2755SOL     OW11049   2.308   3.244   4.668
 2755SOL    HW211050   2.339   3.191   4.594
 2755SOL    HW311051   2.265   3.180   4.726
 2755SOL    MW411052   2.307   3.228   4.666
 2756SOL     OW11053   2.648   3.995   4.530
 2756SOL    HW211054   2.648   3.978   4.436
 2756SOL    HW311055   2.570   3.950   4.563
 2756SOL    MW411056   2.638   3.987   4.522
 2757SOL     OW11057   2.426   3.841   4.635
 2757SOL    HW211058   2.433   3.757   4.590
 2757SOL    HW311059   2.430   3.820   4.728
 2757SOL    MW411060   2.428   3.827   4.641
 2758SOL     OW11061   2.406   3.595   4.520
 2758SOL    HW211062   2.323   3.555   4.547
 2758SOL    HW311063   2.405   3.591   4.425
 2758SOL    MW411064   2.395   3.589   4.511
 2759SOL     OW11065   1.945   3.645   4.478
 2759SOL    HW211066   2.000   3.591   4.535
 2759SOL    HW311067   1.984   3.635   4.391
 2759SOL    MW411068   1.958   3.637   4.474
 2760SOL     OW11069   1.929   4.316   4.476
 2760SOL    HW211070   1.872   4.238   4.473
 2760SOL    HW311071   2.017   4.280   4.489
 2760SOL    MW411072   1.933   4.301   4.477
 2761SOL     OW11073   1.223   3.652   4.513
 2761SOL    HW211074   1.264   3.567   4.530
 2761SOL    HW311075   1.219   3.658   4.418
 2761SOL    MW411076   1.228   3.642   4.503
 2762SOL     OW11077   2.263   0.183   4.514
 2762SOL    HW211078   2.237   0.155   4.426
 2762SOL    HW311079   2.315   0.262   4.500
 2762SOL    MW411080   2.267   0.189   4.500
 2763SOL     OW11081   2.424   0.697   4.524
 2763SOL    HW211082   2.343   0.747   4.527
 2763SOL    HW311083   2.492   0.761   4.544
 2763SOL    MW411084   2.422   0.712   4.527
 2764SOL     OW11085   2.057   1.606   4.594
 2764SOL    HW211086   2.049   1.638   4.685
 2764SOL    HW311087   2.066   1.511   4.603
 2764SOL    MW411088   2.057   1.598   4.608
 2765SOL     OW11089   2.666   0.161   4.469
 2765SOL    HW211090   2.599   0.113   4.518
 2765SOL    HW311091   2.629   0.172   4.382
 2765SOL    MW411092   2.652   0.156   4.464
 2766SOL     OW11093   2.656   0.899   4.545
 2766SOL    HW211094   2.734   0.851   4.574
 2766SOL    HW311095   2.658   0.891   4.450
 2766SOL    MW411096   2.667   0.891   4.536
 2767SOL     OW11097   3.218   0.987   4.726
 2767SOL    HW211098   3.263   0.903   4.733
 2767SOL    HW311099   3.219   1.023   4.814
 2767SOL    MW411100   3.224   0.980   4.738
 2768SOL     OW11101   2.306   1.303   4.450
 2768SOL    HW211102   2.377   1.260   4.498
 2768SOL    HW311103   2.332   1.396   4.449
 2768SOL    MW411104   2.319   1.310   4.456
 2769SOL     OW11105   2.717   1.326   4.615
 2769SOL    HW211106   2.768   1.404   4.592
 2769SOL    HW311107   2.774   1.253   4.592
 2769SOL    MW411108   2.732   1.327   4.609
 2770SOL     OW11109   2.451   1.536   4.464
 2770SOL    HW211110   2.545   1.531   4.483
 2770SOL    HW311111   2.428   1.628   4.479
 2770SOL    MW411112   2.460   1.548   4.469
 2771SOL     OW11113   2.268   1.789   4.505
 2771SOL    HW211114   2.206   1.728   4.546
 2771SOL    HW311115   2.253   1.779   4.411
 2771SOL    MW411116   2.258   1.779   4.498
 2772SOL     OW11117   2.246   2.201   4.644
 2772SOL    HW211118   2.311   2.272   4.641
 2772SOL    HW311119   2.175   2.232   4.588
 2772SOL    MW411120   2.245   2.215   4.636
 2773SOL     OW11121   2.412   2.016   4.527
 2773SOL    HW211122   2.350   1.945   4.510
 2773SOL    HW311123   2.362   2.081   4.575
 2773SOL    MW411124   2.397   2.015   4.531
 2774SOL     OW11125   2.616   2.358   4.442
 2774SOL    HW211126   2.539   2.389   4.491
 2774SOL    HW311127   2.584   2.284   4.391
 2774SOL    MW411128   2.601   2.352   4.442
 2775SOL     OW11129   1.729   2.631   4.531
 2775SOL    HW211130   1.745   2.721   4.501
 2775SOL    HW311131   1.807   2.609   4.582
 2775SOL    MW411132   1.741   2.640   4.534
 2776SOL     OW11133   2.206   3.006   4.784
 2776SOL    HW211134   2.117   3.040   4.779
 2776SOL    HW311135   2.215   2.951   4.706
 2776SOL    MW411136   2.196   3.003   4.773
 2777SOL     OW11137   2.633   3.435   4.555
 2777SOL    HW211138   2.607   3.370   4.620
 2777SOL    HW311139   2.556   3.492   4.547
 2777SOL    MW411140   2.619   3.434   4.562
 2778SOL     OW11141   2.593   3.206   4.725
 2778SOL    HW211142   2.500   3.197   4.746
 2778SOL    HW311143   2.608   3.141   4.656
 2778SOL    MW411144   2.582   3.196   4.719
 2779SOL     OW11145   1.480   4.045   4.474
 2779SOL    HW211146   1.471   3.962   4.519
 2779SOL    HW311147   1.574   4.061   4.471
 2779SOL    MW411148   1.491   4.036   4.479
 2780SOL     OW11149   2.689   4.284   4.523
 2780SOL    HW211150   2.606   4.328   4.541
 2780SOL    HW311151   2.670   4.191   4.538
 2780SOL    MW411152   2.676   4.277   4.528
 2781SOL     OW11153   1.946   3.110   4.691
 2781SOL    HW211154   1.964   3.040   4.629
 2781SOL    HW311155   1.948   3.190   4.639
 2781SOL    MW411156   1.949   3.111   4.676
 2782SOL     OW11157   3.376   3.872   4.524
 2782SOL    HW211158   3.296   3.924   4.526
 2782SOL    HW311159   3.347   3.782   4.537
 2782SOL    MW411160   3.362   3.867   4.526
 2783SOL     OW11161   3.121   4.032   4.523
 2783SOL    HW211162   3.060   3.970   4.563
 2783SOL    HW311163   3.096   4.117   4.558
 2783SOL    MW411164   3.110   4.035   4.533
 2784SOL     OW11165   2.198   4.193   4.462
 2784SOL    HW211166   2.207   4.137   4.539
 2784SOL    HW311167   2.197   4.133   4.388
 2784SOL    MW411168   2.199   4.178   4.463
 2785SOL     OW11169   2.441   4.384   4.470
 2785SOL    HW211170   2.351   4.355   4.488
 2785SOL    HW311171   2.444   4.393   4.375
 2785SOL    MW411172   2.429   4.381   4.460
 2786SOL     OW11173   2.865   0.668   4.647
 2786SOL    HW211174   2.810   0.597   4.614
 2786SOL    HW311175   2.910   0.630   4.723
 2786SOL    MW411176   2.864   0.654   4.653
 2787SOL     OW11177   2.731   0.411   4.604
 2787SOL    HW211178   2.747   0.346   4.535
 2787SOL    HW311179   2.751   0.365   4.685
 2787SOL    MW411180   2.736   0.397   4.605
 2788SOL     OW11181   2.708   0.128   4.780
 2788SOL    HW211182   2.634   0.084   4.739
 2788SOL    HW311183   2.784   0.078   4.751
 2788SOL    MW411184   2.708   0.116   4.771
 2789SOL     OW11185   3.013   0.893   4.570
 2789SOL    HW211186   3.069   0.928   4.640
 2789SOL    HW311187   2.947   0.842   4.616
 2789SOL    MW411188   3.012   0.891   4.585
 2790SOL     OW11189   3.581   0.330   4.823
 2790SOL    HW211190   3.493   0.367   4.836
 2790SOL    HW311191   3.635   0.406   4.801
 2790SOL    MW411192   3.576   0.345   4.822
 2791SOL     OW11193   2.170   0.851   4.502
 2791SOL    HW211194   2.186   0.928   4.557
 2791SOL    HW311195   2.075   0.851   4.488
 2791SOL    MW411196   2.159   0.861   4.508
 2792SOL     OW11197   2.495   1.150   4.596
 2792SOL    HW211198   2.562   1.219   4.598
 2792SOL    HW311199   2.544   1.072   4.570
 2792SOL    MW411200   2.511   1.149   4.593
 2793SOL     OW11201   3.092   1.379   4.569
 2793SOL    HW211202   3.032   1.305   4.558
 2793SOL    HW311203   3.161   1.362   4.505
 2793SOL    MW411204   3.093   1.367   4.559
 2794SOL     OW11205   3.007   1.633   4.499
 2794SOL    HW211206   2.912   1.638   4.492
 2794SOL    HW311207   3.024   1.544   4.529
 2794SOL    MW411208   2.997   1.622   4.502
 2795SOL     OW11209   2.722   1.600   4.495
 2795SOL    HW211210   2.701   1.690   4.522
 2795SOL    HW311211   2.718   1.603   4.399
 2795SOL    MW411212   2.719   1.612   4.486
 2796SOL     OW11213   2.626   1.844   4.550
 2796SOL    HW211214   2.688   1.914   4.572
 2796SOL    HW311215   2.543   1.888   4.537
 2796SOL    MW411216   2.624   1.859   4.551
 2797SOL     OW11217   2.807   2.121   4.523
 2797SOL    HW211218   2.758   2.203   4.516
 2797SOL    HW311219   2.825   2.096   4.433
 2797SOL    MW411220   2.803   2.129   4.510
 2798SOL     OW11221   3.062   2.177   4.635
 2798SOL    HW211222   3.058   2.158   4.729
 2798SOL    HW311223   2.975   2.154   4.602
 2798SOL    MW411224   3.050   2.172   4.643
 2799SOL     OW11225   2.388   2.712   4.704
 2799SOL    HW211226   2.358   2.753   4.785
 2799SOL    HW311227   2.355   2.768   4.634
 2799SOL    MW411228   2.380   2.725   4.705
 2800SOL     OW11229   3.564   3.272   4.678
 2800SOL    HW211230   3.588   3.195   4.626
 2800SOL    HW311231   3.574   3.243   4.769
 2800SOL    MW411232   3.568   3.258   4.683
 2801SOL     OW11233   2.651   2.717   4.564
 2801SOL    HW211234   2.588   2.677   4.624
 2801SOL    HW311235   2.598   2.753   4.493
 2801SOL    MW411236   2.636   2.716   4.563
 2802SOL     OW11237   2.853   3.601   4.500
 2802SOL    HW211238   2.925   3.555   4.543
 2802SOL    HW311239   2.775   3.552   4.525
 2802SOL    MW411240   2.852   3.589   4.509
 2803SOL     OW11241   2.953   2.971   4.490
 2803SOL    HW211242   3.041   3.003   4.510
 2803SOL    HW311243   2.961   2.875   4.489
 2803SOL    MW411244   2.965   2.962   4.492
 2804SOL     OW11245   3.127   0.196   4.472
 2804SOL    HW211246   3.064   0.146   4.524
 2804SOL    HW311247   3.112   0.287   4.499
 2804SOL    MW411248   3.116   0.202   4.482
 2805SOL     OW11249   4.081   3.887   4.860
 2805SOL    HW211250   4.058   3.978   4.877
 2805SOL    HW311251   4.165   3.891   4.815
 2805SOL    MW411252   4.089   3.899   4.856
 2806SOL     OW11253   3.861   3.638   4.520
 2806SOL    HW211254   3.934   3.581   4.544
 2806SOL    HW311255   3.859   3.636   4.425
 2806SOL    MW411256   3.870   3.630   4.511
 2807SOL     OW11257   2.890   3.862   4.601
 2807SOL    HW211258   2.800   3.895   4.605
 2807SOL    HW311259   2.883   3.777   4.557
 2807SOL    MW411260   2.877   3.855   4.596
 2808SOL     OW11261   2.912   4.440   4.495
 2808SOL    HW211262   2.843   4.381   4.527
 2808SOL    HW311263   2.993   4.403   4.529
 2808SOL    MW411264   2.913   4.428   4.504
 2809SOL     OW11265   3.090   0.465   4.503
 2809SOL    HW211266   3.040   0.518   4.566
 2809SOL    HW311267   3.043   0.475   4.420
 2809SOL    MW411268   3.078   0.473   4.501
 2810SOL     OW11269   3.337   0.740   4.663
 2810SOL    HW211270   3.426   0.769   4.642
 2810SOL    HW311271   3.292   0.740   4.579
 2810SOL    MW411272   3.343   0.744   4.649
 2811SOL     OW11273   2.445   0.415   4.504
 2811SOL    HW211274   2.532   0.410   4.544
 2811SOL    HW311275   2.418   0.506   4.518
 2811SOL    MW411276   2.453   0.426   4.511
 2812SOL     OW11277   2.239   1.063   4.652
 2812SOL    HW211278   2.328   1.096   4.642
 2812SOL    HW311279   2.184   1.141   4.656
 2812SOL    MW411280   2.243   1.077   4.651
 2813SOL     OW11281   2.892   0.042   4.563
 2813SOL    HW211282   2.897  -0.044   4.523
 2813SOL    HW311283   2.815   0.083   4.523
 2813SOL    MW411284   2.883   0.036   4.552
 2814SOL     OW11285   3.043   0.523   4.811
 2814SOL    HW211286   3.135   0.496   4.808
 2814SOL    HW311287   2.998   0.449   4.851
 2814SOL    MW411288   3.050   0.510   4.816
 2815SOL     OW11289   3.304   1.475   4.777
 2815SOL    HW211290   3.224   1.448   4.732
 2815SOL    HW311291   3.305   1.570   4.771
 2815SOL    MW411292   3.293   1.484   4.771
 2816SOL     OW11293   2.912   1.171   4.490
 2816SOL    HW211294   2.920   1.076   4.498
 2816SOL    HW311295   2.895   1.187   4.397
 2816SOL    MW411296   2.910   1.161   4.479
 2817SOL     OW11297   4.075   0.973   4.464
 2817SOL    HW211298   4.071   0.940   4.374
 2817SOL    HW311299   4.140   0.917   4.507
 2817SOL    MW411300   4.083   0.961   4.458
 2818SOL     OW11301   3.518   1.373   4.606
 2818SOL    HW211302   3.553   1.460   4.587
 2818SOL    HW311303   3.455   1.387   4.677
 2818SOL    MW411304   3.515   1.386   4.613
 2819SOL     OW11305   3.278   1.727   4.620
 2819SOL    HW211306   3.288   1.823   4.617
 2819SOL    HW311307   3.197   1.710   4.572
 2819SOL    MW411308   3.269   1.738   4.614
 2820SOL     OW11309   3.293   2.011   4.607
 2820SOL    HW211310   3.235   2.087   4.601
 2820SOL    HW311311   3.327   1.999   4.518
 2820SOL    MW411312   3.290   2.019   4.595
 2821SOL     OW11313   3.570   1.639   4.532
 2821SOL    HW211314   3.483   1.659   4.566
 2821SOL    HW311315   3.559   1.639   4.437
 2821SOL    MW411316   3.557   1.642   4.524
 2822SOL     OW11317   2.923   2.691   4.460
 2822SOL    HW211318   2.844   2.680   4.514
 2822SOL    HW311319   2.981   2.620   4.487
 2822SOL    MW411320   2.920   2.680   4.470
 2823SOL     OW11321   3.405   2.628   4.562
 2823SOL    HW211322   3.311   2.620   4.577
 2823SOL    HW311323   3.420   2.722   4.555
 2823SOL    MW411324   3.395   2.639   4.563
 2824SOL     OW11325   3.131   2.520   4.529
 2824SOL    HW211326   3.173   2.512   4.444
 2824SOL    HW311327   3.132   2.431   4.564
 2824SOL    MW411328   3.137   2.507   4.523
 2825SOL     OW11329   3.910   2.924   4.501
 2825SOL    HW211330   3.953   3.008   4.518
 2825SOL    HW311331   3.972   2.858   4.532
 2825SOL    MW411332   3.923   2.926   4.507
 2826SOL     OW11333   3.197   3.098   4.534
 2826SOL    HW211334   3.199   3.124   4.442
 2826SOL    HW311335   3.277   3.048   4.547
 2826SOL    MW411336   3.208   3.095   4.524
 2827SOL     OW11337   3.647   3.053   4.510
 2827SOL    HW211338   3.725   2.997   4.510
 2827SOL    HW311339   3.669   3.126   4.452
 2827SOL    MW411340   3.660   3.055   4.502
 2828SOL     OW11341   4.095   2.722   4.568
 2828SOL    HW211342   4.179   2.748   4.530
 2828SOL    HW311343   4.103   2.747   4.660
 2828SOL    MW411344   4.107   2.729   4.575
 2829SOL     OW11345   3.601   3.547   4.560
 2829SOL    HW211346   3.689   3.581   4.577
 2829SOL    HW311347   3.599   3.463   4.605
 2829SOL    MW411348   3.612   3.540   4.568
 2830SOL     OW11349   3.597   4.298   4.620
 2830SOL    HW211350   3.682   4.307   4.577
 2830SOL    HW311351   3.573   4.206   4.606
 2830SOL    MW411352   3.605   4.287   4.613
 2831SOL     OW11353   3.131   4.319   4.608
 2831SOL    HW211354   3.117   4.364   4.692
 2831SOL    HW311355   3.215   4.353   4.576
 2831SOL    MW411356   3.140   4.330   4.615
 2832SOL     OW11357   3.381   0.290   4.546
 2832SOL    HW211358   3.292   0.254   4.541
 2832SOL    HW311359   3.393   0.335   4.463
 2832SOL    MW411360   3.371   0.291   4.535
 2833SOL     OW11361   3.369   4.440   4.552
 2833SOL    HW211362   3.443   4.383   4.572
 2833SOL    HW311363   3.408   4.526   4.538
 2833SOL    MW411364   3.384   4.444   4.553
 2834SOL     OW11365   3.612   4.019   4.547
 2834SOL    HW211366   3.681   3.971   4.593
 2834SOL    HW311367   3.535   3.963   4.554
 2834SOL    MW411368   3.611   4.006   4.554
 2835SOL     OW11369   3.701   0.132   4.637
 2835SOL    HW211370   3.649   0.173   4.706
 2835SOL    HW311371   3.635   0.097   4.576
 2835SOL    MW411372   3.685   0.133   4.638
 2836SOL     OW11373   3.451   1.011   4.525
 2836SOL    HW211374   3.500   0.931   4.545
 2836SOL    HW311375   3.405   1.032   4.607
 2836SOL    MW411376   3.451   1.003   4.539
 2837SOL     OW11377   2.876   0.307   4.877
 2837SOL    HW211378   2.866   0.311   4.972
 2837SOL    HW311379   2.817   0.237   4.850
 2837SOL    MW411380   2.867   0.298   4.886
 2838SOL     OW11381   4.196   1.660   4.729
 2838SOL    HW211382   4.255   1.598   4.686
 2838SOL    HW311383   4.228   1.664   4.820
 2838SOL    MW411384   4.208   1.652   4.736
 2839SOL     OW11385   3.819   0.925   4.561
 2839SOL    HW211386   3.804   1.016   4.585
 2839SOL    HW311387   3.904   0.925   4.517
 2839SOL    MW411388   3.828   0.937   4.559
 2840SOL     OW11389   4.475   0.929   4.578
 2840SOL    HW211390   4.479   0.917   4.483
 2840SOL    HW311391   4.562   0.902   4.609
 2840SOL    MW411392   4.487   0.924   4.570
 2841SOL     OW11393   4.298   0.516   4.482
 2841SOL    HW211394   4.270   0.495   4.392
 2841SOL    HW311395   4.237   0.467   4.537
 2841SOL    MW411396   4.286   0.507   4.477
 2842SOL     OW11397   3.556   1.658   4.265
 2842SOL    HW211398   3.641   1.617   4.251
 2842SOL    HW311399   3.493   1.595   4.230
 2842SOL    MW411400   3.559   1.644   4.259
 2843SOL     OW11401   3.915   1.603   4.385
 2843SOL    HW211402   3.996   1.644   4.356
 2843SOL    HW311403   3.878   1.665   4.448
 2843SOL    MW411404   3.921   1.617   4.389
 2844SOL     OW11405   3.497   2.183   4.692
 2844SOL    HW211406   3.429   2.120   4.666
 2844SOL    HW311407   3.565   2.129   4.733
 2844SOL    MW411408   3.497   2.168   4.694
 2845SOL     OW11409   3.787   1.792   4.556
 2845SOL    HW211410   3.710   1.736   4.547
 2845SOL    HW311411   3.842   1.747   4.620
 2845SOL    MW411412   3.784   1.778   4.563
 2846SOL     OW11413   3.929   1.601   4.740
 2846SOL    HW211414   4.018   1.626   4.764
 2846SOL    HW311415   3.940   1.527   4.681
 2846SOL    MW411416   3.942   1.594   4.735
 2847SOL     OW11417   3.829   2.066   4.543
 2847SOL    HW211418   3.923   2.055   4.555
 2847SOL    HW311419   3.796   1.976   4.532
 2847SOL    MW411420   3.837   2.052   4.543
 2848SOL     OW11421   3.884   2.325   4.630
 2848SOL    HW211422   3.863   2.233   4.613
 2848SOL    HW311423   3.805   2.372   4.606
 2848SOL    MW411424   3.871   2.319   4.625
 2849SOL     OW11425   4.095   2.459   4.490
 2849SOL    HW211426   4.023   2.407   4.527
 2849SOL    HW311427   4.095   2.539   4.542
 2849SOL    MW411428   4.085   2.462   4.502
 2850SOL     OW11429   4.316   3.055   4.571
 2850SOL    HW211430   4.404   3.092   4.563
 2850SOL    HW311431   4.324   2.965   4.540
 2850SOL    MW411432   4.328   3.048   4.566
 2851SOL     OW11433   3.279   3.347   4.628
 2851SOL    HW211434   3.363   3.317   4.662
 2851SOL    HW311435   3.234   3.268   4.599
 2851SOL    MW411436   3.284   3.333   4.629
 2852SOL     OW11437   4.063   3.175   4.511
 2852SOL    HW211438   4.152   3.156   4.543
 2852SOL    HW311439   4.075   3.193   4.418
 2852SOL    MW411440   4.077   3.175   4.503
 2853SOL     OW11441   3.338   3.601   4.521
 2853SOL    HW211442   3.299   3.517   4.548
 2853SOL    HW311443   3.432   3.587   4.531
 2853SOL    MW411444   3.345   3.588   4.526
 2854SOL     OW11445   4.296   3.589   4.536
 2854SOL    HW211446   4.310   3.587   4.442
 2854SOL    HW311447   4.213   3.543   4.548
 2854SOL    MW411448   4.287   3.582   4.525
 2855SOL     OW11449   0.123   2.818   4.440
 2855SOL    HW211450   0.160   2.839   4.354
 2855SOL    HW311451   0.106   2.903   4.480
 2855SOL    MW411452   0.125   2.832   4.434
 2856SOL     OW11453   4.071   3.996   4.502
 2856SOL    HW211454   4.080   4.087   4.530
 2856SOL    HW311455   3.996   3.963   4.552
 2856SOL    MW411456   4.062   4.003   4.513
 2857SOL     OW11457   3.861   4.381   4.506
 2857SOL    HW211458   3.833   4.386   4.414
 2857SOL    HW311459   3.869   4.473   4.533
 2857SOL    MW411460   3.858   4.394   4.497
 2858SOL     OW11461   3.490   0.033   4.478
 2858SOL    HW211462   3.484   0.051   4.384
 2858SOL    HW311463   3.446   0.108   4.519
 2858SOL    MW411464   3.483   0.046   4.471
 2859SOL     OW11465   3.595   0.768   4.559
 2859SOL    HW211466   3.672   0.825   4.555
 2859SOL    HW311467   3.596   0.722   4.476
 2859SOL    MW411468   3.605   0.769   4.548
 2860SOL     OW11469   3.726   0.563   4.733
 2860SOL    HW211470   3.800   0.625   4.728
 2860SOL    HW311471   3.653   0.611   4.694
 2860SOL    MW411472   3.726   0.578   4.727
 2861SOL     OW11473   0.010   0.355   4.554
 2861SOL    HW211474   0.082   0.417   4.569
 2861SOL    HW311475  -0.064   0.410   4.528
 2861SOL    MW411476   0.010   0.371   4.553
 2862SOL     OW11477   0.230   0.553   4.524
 2862SOL    HW211478   0.325   0.563   4.521
 2862SOL    HW311479   0.206   0.519   4.438
 2862SOL    MW411480   0.239   0.550   4.512
 2863SOL     OW11481   4.103   0.295   4.513
 2863SOL    HW211482   4.016   0.333   4.501
 2863SOL    HW311483   4.128   0.262   4.427
 2863SOL    MW411484   4.095   0.296   4.500
 2864SOL     OW11485   3.749   1.223   4.519
 2864SOL    HW211486   3.672   1.259   4.564
 2864SOL    HW311487   3.823   1.271   4.556
 2864SOL    MW411488   3.749   1.234   4.530
 2865SOL     OW11489   4.489   1.209   4.613
 2865SOL    HW211490   4.567   1.241   4.567
 2865SOL    HW311491   4.487   1.115   4.592
 2865SOL    MW411492   4.499   1.201   4.604
 2866SOL     OW11493   4.403   1.508   4.645
 2866SOL    HW211494   4.442   1.425   4.671
 2866SOL    HW311495   4.477   1.563   4.620
 2866SOL    MW411496   4.418   1.504   4.645
 2867SOL     OW11497   3.979   1.405   4.562
 2867SOL    HW211498   4.033   1.339   4.517
 2867SOL    HW311499   3.969   1.475   4.497
 2867SOL    MW411500   3.985   1.405   4.547
 2868SOL     OW11501   3.411   2.907   4.528
 2868SOL    HW211502   3.395   2.899   4.434
 2868SOL    HW311503   3.496   2.951   4.534
 2868SOL    MW411504   3.420   2.912   4.516
 2869SOL     OW11505   4.235   2.062   4.249
 2869SOL    HW211506   4.171   2.015   4.196
 2869SOL    HW311507   4.188   2.087   4.328
 2869SOL    MW411508   4.221   2.059   4.252
 2870SOL     OW11509   0.156   2.095   4.494
 2870SOL    HW211510   0.249   2.108   4.513
 2870SOL    HW311511   0.120   2.183   4.490
 2870SOL    MW411512   0.164   2.108   4.496
 2871SOL     OW11513   4.109   2.085   4.526
 2871SOL    HW211514   4.170   2.015   4.547
 2871SOL    HW311515   4.149   2.164   4.564
 2871SOL    MW411516   4.123   2.086   4.534
 2872SOL     OW11517   3.602   2.418   4.550
 2872SOL    HW211518   3.537   2.485   4.570
 2872SOL    HW311519   3.572   2.340   4.596
 2872SOL    MW411520   3.590   2.416   4.558
 2873SOL     OW11521   0.406   2.446   4.665
 2873SOL    HW211522   0.341   2.467   4.598
 2873SOL    HW311523   0.366   2.474   4.747
 2873SOL    MW411524   0.392   2.453   4.667
 2874SOL     OW11525   4.335   2.793   4.466
 2874SOL    HW211526   4.429   2.783   4.480
 2874SOL    HW311527   4.326   2.806   4.371
 2874SOL    MW411528   4.346   2.793   4.455
 2875SOL     OW11529   0.112   3.113   4.550
 2875SOL    HW211530   0.103   3.208   4.554
 2875SOL    HW311531   0.202   3.098   4.522
 2875SOL    MW411532   0.123   3.124   4.547
 2876SOL     OW11533   0.250   3.562   4.521
 2876SOL    HW211534   0.254   3.578   4.427
 2876SOL    HW311535   0.166   3.519   4.535
 2876SOL    MW411536   0.239   3.558   4.511
 2877SOL     OW11537   4.261   0.248   4.725
 2877SOL    HW211538   4.349   0.266   4.691
 2877SOL    HW311539   4.203   0.267   4.651
 2877SOL    MW411540   4.265   0.253   4.710
 2878SOL     OW11541   3.929   4.647   4.534
 2878SOL    HW211542   3.955   4.685   4.450
 2878SOL    HW311543   3.861   4.707   4.567
 2878SOL    MW411544   3.923   4.660   4.527
 2879SOL     OW11545   3.776   4.304   4.863
 2879SOL    HW211546   3.749   4.373   4.924
 2879SOL    HW311547   3.704   4.298   4.801
 2879SOL    MW411548   3.763   4.312   4.863
 2880SOL     OW11549   3.303   0.450   4.782
 2880SOL    HW211550   3.314   0.394   4.706
 2880SOL    HW311551   3.334   0.536   4.754
 2880SOL    MW411552   3.308   0.454   4.768
 2881SOL     OW11553   4.263   4.387   4.262
 2881SOL    HW211554   4.345   4.359   4.222
 2881SOL    HW311555   4.284   4.399   4.355
 2881SOL    MW411556   4.276   4.385   4.269
 2882NA      NA11557   2.671   4.133   0.662
 2883NA      NA11558   0.644   2.300   0.375
   4.49070   4.66690  10.00000
