Gromacs Runs On Most of All Computer Systems in water t= 210.00000 step= 210000
11558
    1RG35     P    1   2.174   2.882   4.500
    1RG35   O1P    2   2.203   2.796   4.379
    1RG35   O2P    3   2.044   2.955   4.488
    1RG35   O5'    4   2.152   2.768   4.613
    1RG35   C5'    5   2.108   2.801   4.740
    1RG35  H5'1    6   2.018   2.860   4.722
    1RG35  H5'2    7   2.183   2.869   4.780
    1RG35   C4'    8   2.072   2.687   4.833
    1RG35   H4'    9   2.019   2.728   4.919
    1RG35   O4'   10   1.987   2.586   4.770
    1RG35   C1'   11   2.056   2.467   4.771
    1RG35   H1'   12   2.028   2.407   4.858
    1RG35    N9   13   2.022   2.403   4.645
    1RG35    C8   14   2.026   2.453   4.519
    1RG35    H8   15   2.059   2.554   4.496
    1RG35    N7   16   1.982   2.371   4.427
    1RG35    C5   17   1.949   2.251   4.493
    1RG35    C6   18   1.912   2.124   4.448
    1RG35    O6   19   1.893   2.090   4.329
    1RG35    N1   20   1.909   2.027   4.552
    1RG35    H1   21   1.884   1.932   4.529
    1RG35    C2   22   1.930   2.057   4.682
    1RG35    N2   23   1.947   1.957   4.765
    1RG35   H21   24   1.959   1.861   4.738
    1RG35   H22   25   1.987   1.990   4.852
    1RG35    N3   26   1.958   2.178   4.722
    1RG35    C4   27   1.979   2.273   4.625
    1RG35   C3'   28   2.200   2.619   4.878
    1RG35   H3'   29   2.290   2.679   4.866
    1RG35   C2'   30   2.207   2.508   4.779
    1RG35  H2'1   31   2.243   2.552   4.686
    1RG35   O2'   32   2.298   2.403   4.821
    1RG35  HO'2   33   2.375   2.410   4.766
    1RG35   O3'   34   2.190   2.560   5.005
    1RG35   H3T   35   2.259   2.493   5.001
    1RG35   O3P   36   2.281   2.972   4.542
    2SOL     OW   37   0.431   0.088   0.452
    2SOL    HW2   38   0.432  -0.004   0.423
    2SOL    HW3   39   0.486   0.133   0.389
    2SOL    MW4   40   0.438   0.082   0.440
    3SOL     OW   41   3.988   0.165   0.504
    3SOL    HW2   42   4.071   0.201   0.471
    3SOL    HW3   43   3.982   0.078   0.464
    3SOL    MW4   44   3.998   0.159   0.494
    4SOL     OW   45   3.698   0.576   0.515
    4SOL    HW2   46   3.608   0.545   0.507
    4SOL    HW3   47   3.717   0.571   0.609
    4SOL    MW4   48   3.689   0.571   0.526
    5SOL     OW   49   4.479   1.624   0.534
    5SOL    HW2   50   4.488   1.653   0.625
    5SOL    HW3   51   4.446   1.535   0.540
    5SOL    MW4   52   4.476   1.616   0.547
    6SOL     OW   53   1.397   0.790   0.477
    6SOL    HW2   54   1.371   0.798   0.569
    6SOL    HW3   55   1.334   0.845   0.429
    6SOL    MW4   56   1.385   0.798   0.483
    7SOL     OW   57   0.195   0.556   0.514
    7SOL    HW2   58   0.211   0.554   0.608
    7SOL    HW3   59   0.195   0.464   0.487
    7SOL    MW4   60   0.197   0.544   0.523
    8SOL     OW   61   0.392   0.875   0.517
    8SOL    HW2   62   0.419   0.857   0.607
    8SOL    HW3   63   0.393   0.790   0.474
    8SOL    MW4   64   0.396   0.862   0.523
    9SOL     OW   65   0.911   0.853   0.472
    9SOL    HW2   66   0.904   0.830   0.565
    9SOL    HW3   67   0.827   0.894   0.452
    9SOL    MW4   68   0.899   0.856   0.482
   10SOL     OW   69   0.637   0.982   0.428
   10SOL    HW2   70   0.624   0.980   0.333
   10SOL    HW3   71   0.556   0.947   0.465
   10SOL    MW4   72   0.625   0.977   0.421
   11SOL     OW   73   0.430   1.746   0.278
   11SOL    HW2   74   0.440   1.668   0.223
   11SOL    HW3   75   0.382   1.715   0.355
   11SOL    MW4   76   0.425   1.731   0.281
   12SOL     OW   77   3.993   2.045   0.351
   12SOL    HW2   78   3.988   1.991   0.272
   12SOL    HW3   79   3.929   2.006   0.410
   12SOL    MW4   80   3.984   2.033   0.348
   13SOL     OW   81   0.103   2.013   0.282
   13SOL    HW2   82   0.050   2.088   0.253
   13SOL    HW3   83   0.040   1.944   0.300
   13SOL    MW4   84   0.088   2.014   0.280
   14SOL     OW   85   0.286   2.432   0.412
   14SOL    HW2   86   0.264   2.521   0.383
   14SOL    HW3   87   0.205   2.399   0.451
   14SOL    MW4   88   0.272   2.440   0.413
   15SOL     OW   89   0.116   2.757   0.463
   15SOL    HW2   90   0.208   2.772   0.440
   15SOL    HW3   91   0.067   2.804   0.396
   15SOL    MW4   92   0.122   2.765   0.451
   16SOL     OW   93   4.147   3.197   0.452
   16SOL    HW2   94   4.116   3.191   0.543
   16SOL    HW3   95   4.238   3.169   0.456
   16SOL    MW4   96   4.155   3.193   0.465
   17SOL     OW   97   4.374   2.858   0.329
   17SOL    HW2   98   4.331   2.846   0.244
   17SOL    HW3   99   4.312   2.822   0.393
   17SOL    MW4  100   4.360   2.852   0.326
   18SOL     OW  101   0.391   3.468   0.413
   18SOL    HW2  102   0.446   3.392   0.428
   18SOL    HW3  103   0.452   3.536   0.383
   18SOL    MW4  104   0.406   3.467   0.411
   19SOL     OW  105   0.569   3.681   0.384
   19SOL    HW2  106   0.632   3.712   0.319
   19SOL    HW3  107   0.541   3.761   0.430
   19SOL    MW4  108   0.573   3.696   0.381
   20SOL     OW  109   3.929   3.551   0.457
   20SOL    HW2  110   3.886   3.584   0.536
   20SOL    HW3  111   4.017   3.527   0.486
   20SOL    MW4  112   3.935   3.552   0.472
   21SOL     OW  113   4.445   3.807   0.280
   21SOL    HW2  114   4.375   3.833   0.341
   21SOL    HW3  115   4.525   3.839   0.321
   21SOL    MW4  116   4.446   3.814   0.294
   22SOL     OW  117   4.420   4.468   0.521
   22SOL    HW2  118   4.356   4.446   0.453
   22SOL    HW3  119   4.396   4.411   0.594
   22SOL    MW4  120   4.408   4.457   0.521
   23SOL     OW  121   4.259   4.349   0.338
   23SOL    HW2  122   4.313   4.271   0.327
   23SOL    HW3  123   4.176   4.326   0.297
   23SOL    MW4  124   4.255   4.335   0.331
   24SOL     OW  125   4.362   4.079   0.330
   24SOL    HW2  126   4.401   4.019   0.267
   24SOL    HW3  127   4.331   4.023   0.401
   24SOL    MW4  128   4.363   4.064   0.331
   25SOL     OW  129   0.585   3.241   0.516
   25SOL    HW2  130   0.533   3.238   0.597
   25SOL    HW3  131   0.635   3.322   0.522
   25SOL    MW4  132   0.584   3.251   0.527
   26SOL     OW  133   0.411   4.389   0.406
   26SOL    HW2  134   0.325   4.381   0.446
   26SOL    HW3  135   0.395   4.373   0.313
   26SOL    MW4  136   0.398   4.386   0.399
   27SOL     OW  137   0.183   0.267   0.470
   27SOL    HW2  138   0.106   0.214   0.491
   27SOL    HW3  139   0.256   0.205   0.472
   27SOL    MW4  140   0.182   0.252   0.473
   28SOL     OW  141   4.453   0.669   0.423
   28SOL    HW2  142   4.484   0.682   0.334
   28SOL    HW3  143   4.526   0.623   0.466
   28SOL    MW4  144   4.467   0.664   0.417
   29SOL     OW  145   0.873   4.454   0.432
   29SOL    HW2  146   0.932   4.380   0.447
   29SOL    HW3  147   0.792   4.429   0.475
   29SOL    MW4  148   0.870   4.441   0.439
   30SOL     OW  149   1.158   0.967   0.508
   30SOL    HW2  150   1.168   0.923   0.592
   30SOL    HW3  151   1.075   0.933   0.473
   30SOL    MW4  152   1.148   0.957   0.515
   31SOL     OW  153   0.668   0.499   0.519
   31SOL    HW2  154   0.740   0.541   0.472
   31SOL    HW3  155   0.662   0.411   0.480
   31SOL    MW4  156   0.677   0.493   0.508
   32SOL     OW  157   0.290   1.132   0.540
   32SOL    HW2  158   0.207   1.144   0.492
   32SOL    HW3  159   0.317   1.043   0.519
   32SOL    MW4  160   0.283   1.122   0.531
   33SOL     OW  161   0.379   1.969   0.495
   33SOL    HW2  162   0.454   1.910   0.495
   33SOL    HW3  163   0.363   1.988   0.402
   33SOL    MW4  164   0.387   1.964   0.483
   34SOL     OW  165   0.358   2.004   0.209
   34SOL    HW2  166   0.379   1.910   0.213
   34SOL    HW3  167   0.263   2.007   0.226
   34SOL    MW4  168   0.348   1.992   0.211
   35SOL     OW  169   0.749   2.699   0.206
   35SOL    HW2  170   0.815   2.630   0.198
   35SOL    HW3  171   0.800   2.780   0.211
   35SOL    MW4  172   0.765   2.701   0.206
   36SOL     OW  173   0.530   2.539   0.204
   36SOL    HW2  174   0.547   2.474   0.135
   36SOL    HW3  175   0.607   2.596   0.202
   36SOL    MW4  176   0.542   2.538   0.194
   37SOL     OW  177   3.931   2.318   0.318
   37SOL    HW2  178   3.927   2.225   0.340
   37SOL    HW3  179   4.002   2.353   0.371
   37SOL    MW4  180   3.940   2.311   0.328
   38SOL     OW  181   1.247   2.554   0.450
   38SOL    HW2  182   1.226   2.488   0.385
   38SOL    HW3  183   1.168   2.608   0.456
   38SOL    MW4  184   1.234   2.553   0.442
   39SOL     OW  185   0.550   2.575   0.513
   39SOL    HW2  186   0.487   2.635   0.472
   39SOL    HW3  187   0.624   2.630   0.537
   39SOL    MW4  188   0.551   2.590   0.511
   40SOL     OW  189   4.442   3.129   0.499
   40SOL    HW2  190   4.508   3.189   0.465
   40SOL    HW3  191   4.437   3.059   0.434
   40SOL    MW4  192   4.450   3.128   0.486
   41SOL     OW  193   0.396   2.746   0.379
   41SOL    HW2  194   0.424   2.732   0.289
   41SOL    HW3  195   0.445   2.823   0.407
   41SOL    MW4  196   0.406   2.754   0.371
   42SOL     OW  197   0.917   0.351   0.190
   42SOL    HW2  198   0.907   0.344   0.095
   42SOL    HW3  199   0.887   0.440   0.210
   42SOL    MW4  200   0.912   0.362   0.180
   43SOL     OW  201   0.190   3.637   0.539
   43SOL    HW2  202   0.197   3.728   0.513
   43SOL    HW3  203   0.269   3.595   0.505
   43SOL    MW4  204   0.201   3.643   0.531
   44SOL     OW  205   0.692   3.493   0.559
   44SOL    HW2  206   0.646   3.566   0.517
   44SOL    HW3  207   0.704   3.521   0.649
   44SOL    MW4  208   0.687   3.506   0.565
   45SOL     OW  209   1.202   3.505   0.533
   45SOL    HW2  210   1.119   3.510   0.486
   45SOL    HW3  211   1.219   3.411   0.541
   45SOL    MW4  212   1.193   3.493   0.528
   46SOL     OW  213   0.169   4.358   0.538
   46SOL    HW2  214   0.091   4.408   0.514
   46SOL    HW3  215   0.142   4.267   0.532
   46SOL    MW4  216   0.155   4.353   0.534
   47SOL     OW  217   0.937   3.493   0.440
   47SOL    HW2  218   0.893   3.539   0.368
   47SOL    HW3  219   0.867   3.471   0.501
   47SOL    MW4  220   0.922   3.496   0.438
   48SOL     OW  221   0.644   4.303   0.546
   48SOL    HW2  222   0.564   4.331   0.501
   48SOL    HW3  223   0.626   4.321   0.639
   48SOL    MW4  224   0.631   4.309   0.553
   49SOL     OW  225   0.681   0.237   0.366
   49SOL    HW2  226   0.748   0.180   0.403
   49SOL    HW3  227   0.727   0.286   0.297
   49SOL    MW4  228   0.696   0.236   0.362
   50SOL     OW  229   0.921   0.591   0.377
   50SOL    HW2  230   0.927   0.683   0.402
   50SOL    HW3  231   1.001   0.551   0.410
   50SOL    MW4  232   0.932   0.598   0.385
   51SOL     OW  233   0.423   0.633   0.371
   51SOL    HW2  234   0.336   0.610   0.403
   51SOL    HW3  235   0.483   0.577   0.420
   51SOL    MW4  236   0.419   0.623   0.382
   52SOL     OW  237   1.435   0.491   0.477
   52SOL    HW2  238   1.445   0.586   0.472
   52SOL    HW3  239   1.467   0.468   0.565
   52SOL    MW4  240   1.441   0.500   0.488
   53SOL     OW  241   1.944   0.750   0.387
   53SOL    HW2  242   1.876   0.816   0.400
   53SOL    HW3  243   2.026   0.799   0.393
   53SOL    MW4  244   1.946   0.765   0.389
   54SOL     OW  245   1.689   0.859   0.484
   54SOL    HW2  246   1.601   0.826   0.465
   54SOL    HW3  247   1.695   0.858   0.580
   54SOL    MW4  248   1.678   0.855   0.494
   55SOL     OW  249   0.412   1.378   0.484
   55SOL    HW2  250   0.500   1.342   0.485
   55SOL    HW3  251   0.355   1.301   0.482
   55SOL    MW4  252   0.416   1.363   0.484
   56SOL     OW  253   0.665   1.262   0.506
   56SOL    HW2  254   0.646   1.170   0.485
   56SOL    HW3  255   0.759   1.270   0.495
   56SOL    MW4  256   0.675   1.251   0.502
   57SOL     OW  257   1.141   1.368   0.330
   57SOL    HW2  258   1.153   1.460   0.353
   57SOL    HW3  259   1.183   1.360   0.244
   57SOL    MW4  260   1.148   1.379   0.321
   58SOL     OW  261   0.947   1.246   0.531
   58SOL    HW2  262   0.998   1.269   0.453
   58SOL    HW3  263   0.945   1.327   0.583
   58SOL    MW4  264   0.953   1.260   0.527
   59SOL     OW  265   0.989   1.517   0.639
   59SOL    HW2  266   1.044   1.552   0.569
   59SOL    HW3  267   0.918   1.580   0.646
   59SOL    MW4  268   0.987   1.530   0.631
   60SOL     OW  269   0.138   2.184   0.499
   60SOL    HW2  270   0.051   2.221   0.480
   60SOL    HW3  271   0.149   2.115   0.433
   60SOL    MW4  272   0.128   2.180   0.488
   61SOL     OW  273   0.632   1.840   0.439
   61SOL    HW2  274   0.575   1.789   0.382
   61SOL    HW3  275   0.687   1.775   0.484
   61SOL    MW4  276   0.632   1.825   0.437
   62SOL     OW  277   0.754   2.358   0.463
   62SOL    HW2  278   0.781   2.268   0.442
   62SOL    HW3  279   0.791   2.375   0.549
   62SOL    MW4  280   0.762   2.348   0.472
   63SOL     OW  281   0.452   2.224   0.547
   63SOL    HW2  282   0.435   2.132   0.529
   63SOL    HW3  283   0.368   2.259   0.576
   63SOL    MW4  284   0.439   2.217   0.548
   64SOL     OW  285   0.939   2.509   0.307
   64SOL    HW2  286   1.014   2.450   0.295
   64SOL    HW3  287   0.877   2.458   0.359
   64SOL    MW4  288   0.941   2.494   0.313
   65SOL     OW  289   0.551   2.212   0.232
   65SOL    HW2  290   0.620   2.154   0.262
   65SOL    HW3  291   0.480   2.154   0.206
   65SOL    MW4  292   0.551   2.197   0.233
   66SOL     OW  293   0.553   2.964   0.464
   66SOL    HW2  294   0.548   3.059   0.471
   66SOL    HW3  295   0.600   2.937   0.543
   66SOL    MW4  296   0.559   2.973   0.476
   67SOL     OW  297   0.968   3.153   0.481
   67SOL    HW2  298   0.978   3.171   0.574
   67SOL    HW3  299   0.984   3.237   0.439
   67SOL    MW4  300   0.972   3.167   0.488
   68SOL     OW  301   1.946   3.633   0.477
   68SOL    HW2  302   1.984   3.626   0.565
   68SOL    HW3  303   1.928   3.542   0.452
   68SOL    MW4  304   1.949   3.620   0.485
   69SOL     OW  305   0.816   4.071   0.545
   69SOL    HW2  306   0.767   4.153   0.552
   69SOL    HW3  307   0.832   4.045   0.636
   69SOL    MW4  308   0.812   4.079   0.558
   70SOL     OW  309   0.467   3.922   0.507
   70SOL    HW2  310   0.429   3.932   0.595
   70SOL    HW3  311   0.541   3.983   0.506
   70SOL    MW4  312   0.472   3.931   0.519
   71SOL     OW  313   1.050   4.231   0.482
   71SOL    HW2  314   0.980   4.169   0.499
   71SOL    HW3  315   1.083   4.255   0.569
   71SOL    MW4  316   1.045   4.226   0.496
   72SOL     OW  317   1.161   0.447   0.465
   72SOL    HW2  318   1.157   0.359   0.428
   72SOL    HW3  319   1.254   0.469   0.465
   72SOL    MW4  320   1.173   0.438   0.460
   73SOL     OW  321   0.899   0.068   0.460
   73SOL    HW2  322   0.887  -0.022   0.432
   73SOL    HW3  323   0.909   0.063   0.555
   73SOL    MW4  324   0.898   0.056   0.468
   74SOL     OW  325   1.364   0.078   0.437
   74SOL    HW2  326   1.276   0.105   0.410
   74SOL    HW3  327   1.421   0.147   0.402
   74SOL    MW4  328   1.360   0.091   0.429
   75SOL     OW  329   1.980   4.631   0.271
   75SOL    HW2  330   1.913   4.663   0.211
   75SOL    HW3  331   1.940   4.555   0.314
   75SOL    MW4  332   1.966   4.625   0.269
   76SOL     OW  333   1.115   0.206   0.342
   76SOL    HW2  334   1.046   0.148   0.373
   76SOL    HW3  335   1.071   0.270   0.286
   76SOL    MW4  336   1.100   0.207   0.339
   77SOL     OW  337   2.022   0.498   0.468
   77SOL    HW2  338   1.977   0.572   0.427
   77SOL    HW3  339   1.978   0.421   0.432
   77SOL    MW4  340   2.010   0.497   0.458
   78SOL     OW  341   2.565   0.562   0.310
   78SOL    HW2  342   2.471   0.578   0.318
   78SOL    HW3  343   2.571   0.484   0.254
   78SOL    MW4  344   2.554   0.554   0.303
   79SOL     OW  345   2.024   1.209   0.457
   79SOL    HW2  346   1.939   1.165   0.455
   79SOL    HW3  347   2.005   1.298   0.428
   79SOL    MW4  348   2.010   1.215   0.453
   80SOL     OW  349   1.754   1.133   0.493
   80SOL    HW2  350   1.712   1.049   0.475
   80SOL    HW3  351   1.683   1.190   0.524
   80SOL    MW4  352   1.739   1.130   0.495
   81SOL     OW  353   1.267   1.229   0.537
   81SOL    HW2  354   1.239   1.138   0.530
   81SOL    HW3  355   1.240   1.269   0.455
   81SOL    MW4  356   1.260   1.222   0.525
   82SOL     OW  357   1.159   1.623   0.448
   82SOL    HW2  358   1.221   1.626   0.521
   82SOL    HW3  359   1.174   1.705   0.401
   82SOL    MW4  360   1.169   1.634   0.451
   83SOL     OW  361   1.164   2.316   0.322
   83SOL    HW2  362   1.253   2.292   0.349
   83SOL    HW3  363   1.115   2.235   0.328
   83SOL    MW4  364   1.169   2.302   0.327
   84SOL     OW  365   1.465   2.773   0.466
   84SOL    HW2  366   1.405   2.706   0.434
   84SOL    HW3  367   1.490   2.742   0.553
   84SOL    MW4  368   1.460   2.760   0.473
   85SOL     OW  369   1.921   2.100   0.439
   85SOL    HW2  370   1.990   2.034   0.445
   85SOL    HW3  371   1.965   2.179   0.407
   85SOL    MW4  372   1.936   2.102   0.435
   86SOL     OW  373   1.452   1.975   0.422
   86SOL    HW2  374   1.454   2.070   0.412
   86SOL    HW3  375   1.542   1.951   0.443
   86SOL    MW4  376   1.464   1.984   0.423
   87SOL     OW  377   0.764   2.084   0.367
   87SOL    HW2  378   0.860   2.077   0.373
   87SOL    HW3  379   0.732   2.003   0.407
   87SOL    MW4  380   0.773   2.072   0.373
   88SOL     OW  381   0.830   2.933   0.362
   88SOL    HW2  382   0.736   2.931   0.377
   88SOL    HW3  383   0.858   3.019   0.394
   88SOL    MW4  384   0.822   2.944   0.368
   89SOL     OW  385   2.066   2.337   0.340
   89SOL    HW2  386   2.061   2.357   0.246
   89SOL    HW3  387   2.156   2.358   0.364
   89SOL    MW4  388   2.077   2.343   0.331
   90SOL     OW  389   1.713   0.053   0.194
   90SOL    HW2  390   1.681   0.142   0.205
   90SOL    HW3  391   1.640  -0.003   0.221
   90SOL    MW4  392   1.699   0.057   0.199
   91SOL     OW  393   1.351   3.723   0.460
   91SOL    HW2  394   1.295   3.645   0.471
   91SOL    HW3  395   1.321   3.783   0.528
   91SOL    MW4  396   1.340   3.720   0.470
   92SOL     OW  397   1.722   2.873   0.400
   92SOL    HW2  398   1.715   2.967   0.417
   92SOL    HW3  399   1.634   2.839   0.416
   92SOL    MW4  400   1.709   2.881   0.404
   93SOL     OW  401   1.442   3.936   0.276
   93SOL    HW2  402   1.413   3.853   0.313
   93SOL    HW3  403   1.386   4.002   0.319
   93SOL    MW4  404   1.431   3.934   0.287
   94SOL     OW  405   1.288   2.981   0.456
   94SOL    HW2  406   1.363   2.922   0.461
   94SOL    HW3  407   1.213   2.923   0.443
   94SOL    MW4  408   1.288   2.966   0.455
   95SOL     OW  409   2.190   3.761   0.377
   95SOL    HW2  410   2.111   3.706   0.382
   95SOL    HW3  411   2.258   3.709   0.419
   95SOL    MW4  412   2.188   3.747   0.383
   96SOL     OW  413   0.839   3.757   0.294
   96SOL    HW2  414   0.896   3.828   0.325
   96SOL    HW3  415   0.874   3.734   0.208
   96SOL    MW4  416   0.851   3.764   0.287
   97SOL     OW  417   1.811   4.459   0.412
   97SOL    HW2  418   1.738   4.516   0.386
   97SOL    HW3  419   1.778   4.370   0.396
   97SOL    MW4  420   1.797   4.455   0.406
   98SOL     OW  421   1.785   4.622   0.665
   98SOL    HW2  422   1.696   4.609   0.697
   98SOL    HW3  423   1.799   4.551   0.602
   98SOL    MW4  424   1.775   4.611   0.661
   99SOL     OW  425   1.974   0.223   0.374
   99SOL    HW2  426   1.894   0.216   0.427
   99SOL    HW3  427   1.985   0.136   0.336
   99SOL    MW4  428   1.964   0.210   0.376
  100SOL     OW  429   1.313   4.123   0.466
  100SOL    HW2  430   1.228   4.167   0.456
  100SOL    HW3  431   1.376   4.194   0.474
  100SOL    MW4  432   1.310   4.138   0.466
  101SOL     OW  433   2.284   0.553   0.357
  101SOL    HW2  434   2.205   0.514   0.393
  101SOL    HW3  435   2.263   0.646   0.348
  101SOL    MW4  436   2.271   0.561   0.360
  102SOL     OW  437   1.708   1.925   0.513
  102SOL    HW2  438   1.757   1.844   0.530
  102SOL    HW3  439   1.776   1.990   0.497
  102SOL    MW4  440   1.724   1.923   0.513
  103SOL     OW  441   2.269   1.057   0.503
  103SOL    HW2  442   2.339   1.122   0.505
  103SOL    HW3  443   2.189   1.108   0.501
  103SOL    MW4  444   2.268   1.072   0.503
  104SOL     OW  445   2.472   1.230   0.501
  104SOL    HW2  446   2.566   1.219   0.486
  104SOL    HW3  447   2.459   1.325   0.502
  104SOL    MW4  448   2.483   1.241   0.499
  105SOL     OW  449   2.189   1.614   0.486
  105SOL    HW2  450   2.180   1.706   0.460
  105SOL    HW3  451   2.103   1.576   0.467
  105SOL    MW4  452   2.176   1.621   0.480
  106SOL     OW  453   1.813   1.649   0.589
  106SOL    HW2  454   1.849   1.625   0.675
  106SOL    HW3  455   1.725   1.610   0.589
  106SOL    MW4  456   1.806   1.640   0.600
  107SOL     OW  457   1.224   1.861   0.311
  107SOL    HW2  458   1.298   1.887   0.366
  107SOL    HW3  459   1.259   1.861   0.222
  107SOL    MW4  460   1.238   1.864   0.306
  108SOL     OW  461   2.344   2.344   0.490
  108SOL    HW2  462   2.425   2.396   0.485
  108SOL    HW3  463   2.311   2.358   0.578
  108SOL    MW4  464   2.351   2.353   0.501
  109SOL     OW  465   1.725   3.161   0.456
  109SOL    HW2  466   1.650   3.218   0.440
  109SOL    HW3  467   1.801   3.219   0.445
  109SOL    MW4  468   1.725   3.176   0.452
  110SOL     OW  469   1.044   2.732   0.454
  110SOL    HW2  470   0.999   2.813   0.431
  110SOL    HW3  471   1.006   2.665   0.397
  110SOL    MW4  472   1.033   2.734   0.443
  111SOL     OW  473   1.513   3.358   0.388
  111SOL    HW2  474   1.516   3.395   0.300
  111SOL    HW3  475   1.560   3.422   0.442
  111SOL    MW4  476   1.520   3.372   0.384
  112SOL     OW  477   1.046   2.071   0.419
  112SOL    HW2  478   1.074   2.077   0.511
  112SOL    HW3  479   1.105   2.007   0.380
  112SOL    MW4  480   1.057   2.063   0.426
  113SOL     OW  481   3.684   1.812   0.302
  113SOL    HW2  482   3.716   1.853   0.382
  113SOL    HW3  483   3.690   1.718   0.318
  113SOL    MW4  484   3.689   1.805   0.315
  114SOL     OW  485   1.847   2.522   0.445
  114SOL    HW2  486   1.925   2.476   0.414
  114SOL    HW3  487   1.871   2.615   0.442
  114SOL    MW4  488   1.860   2.528   0.440
  115SOL     OW  489   1.408   2.252   0.440
  115SOL    HW2  490   1.500   2.279   0.435
  115SOL    HW3  491   1.382   2.269   0.530
  115SOL    MW4  492   1.417   2.258   0.451
  116SOL     OW  493   1.301   3.248   0.533
  116SOL    HW2  494   1.370   3.285   0.478
  116SOL    HW3  495   1.283   3.162   0.494
  116SOL    MW4  496   1.308   3.241   0.520
  117SOL     OW  497   2.187   3.198   0.414
  117SOL    HW2  498   2.191   3.113   0.370
  117SOL    HW3  499   2.212   3.180   0.504
  117SOL    MW4  500   2.190   3.185   0.420
  118SOL     OW  501   1.743   4.170   0.388
  118SOL    HW2  502   1.715   4.105   0.323
  118SOL    HW3  503   1.837   4.156   0.397
  118SOL    MW4  504   1.752   4.159   0.381
  119SOL     OW  505   1.593   3.591   0.512
  119SOL    HW2  506   1.504   3.622   0.496
  119SOL    HW3  507   1.647   3.670   0.510
  119SOL    MW4  508   1.589   3.606   0.510
  120SOL     OW  509   1.524   4.287   0.470
  120SOL    HW2  510   1.546   4.301   0.562
  120SOL    HW3  511   1.601   4.244   0.433
  120SOL    MW4  512   1.537   4.283   0.477
  121SOL     OW  513   1.530   4.538   0.339
  121SOL    HW2  514   1.470   4.601   0.379
  121SOL    HW3  515   1.506   4.454   0.377
  121SOL    MW4  516   1.519   4.535   0.349
  122SOL     OW  517   2.231   4.541   0.579
  122SOL    HW2  518   2.314   4.521   0.623
  122SOL    HW3  519   2.169   4.477   0.615
  122SOL    MW4  520   2.234   4.530   0.590
  123SOL     OW  521   2.190   0.174   0.545
  123SOL    HW2  522   2.208   0.081   0.536
  123SOL    HW3  523   2.114   0.190   0.488
  123SOL    MW4  524   2.182   0.164   0.537
  124SOL     OW  525   2.925   1.489   0.421
  124SOL    HW2  526   2.841   1.534   0.428
  124SOL    HW3  527   2.907   1.399   0.449
  124SOL    MW4  528   2.911   1.483   0.426
  125SOL     OW  529   2.981   0.546   0.458
  125SOL    HW2  530   2.916   0.616   0.466
  125SOL    HW3  531   3.058   0.588   0.421
  125SOL    MW4  532   2.983   0.560   0.454
  126SOL     OW  533   2.226   0.840   0.337
  126SOL    HW2  534   2.259   0.872   0.253
  126SOL    HW3  535   2.242   0.912   0.398
  126SOL    MW4  536   2.233   0.854   0.334
  127SOL     OW  537   2.763   1.157   0.453
  127SOL    HW2  538   2.806   1.077   0.423
  127SOL    HW3  539   2.801   1.175   0.539
  127SOL    MW4  540   2.773   1.149   0.460
  128SOL     OW  541   2.692   1.632   0.501
  128SOL    HW2  542   2.670   1.722   0.476
  128SOL    HW3  543   2.701   1.635   0.597
  128SOL    MW4  544   2.690   1.644   0.511
  129SOL     OW  545   3.139   1.890   0.415
  129SOL    HW2  546   3.152   1.954   0.485
  129SOL    HW3  547   3.227   1.875   0.380
  129SOL    MW4  548   3.152   1.897   0.420
  130SOL     OW  549   2.999   4.488   0.464
  130SOL    HW2  550   3.054   4.567   0.471
  130SOL    HW3  551   2.995   4.455   0.554
  130SOL    MW4  552   3.006   4.494   0.477
  131SOL     OW  553   2.118   1.904   0.517
  131SOL    HW2  554   2.061   1.921   0.592
  131SOL    HW3  555   2.194   1.960   0.532
  131SOL    MW4  556   2.121   1.913   0.529
  132SOL     OW  557   1.571   1.526   0.663
  132SOL    HW2  558   1.598   1.540   0.754
  132SOL    HW3  559   1.481   1.559   0.660
  132SOL    MW4  560   1.563   1.532   0.675
  133SOL     OW  561   2.359   2.066   0.503
  133SOL    HW2  562   2.361   2.161   0.492
  133SOL    HW3  563   2.428   2.033   0.446
  133SOL    MW4  564   2.368   2.074   0.494
  134SOL     OW  565   2.608   1.905   0.416
  134SOL    HW2  566   2.575   1.872   0.332
  134SOL    HW3  567   2.677   1.967   0.392
  134SOL    MW4  568   2.613   1.908   0.402
  135SOL     OW  569   2.604   2.761   0.477
  135SOL    HW2  570   2.596   2.850   0.440
  135SOL    HW3  571   2.569   2.769   0.565
  135SOL    MW4  572   2.598   2.774   0.484
  136SOL     OW  573   1.679   2.273   0.420
  136SOL    HW2  574   1.751   2.211   0.425
  136SOL    HW3  575   1.720   2.359   0.426
  136SOL    MW4  576   1.694   2.276   0.422
  137SOL     OW  577   1.978   2.794   0.397
  137SOL    HW2  578   1.991   2.812   0.491
  137SOL    HW3  579   1.891   2.828   0.378
  137SOL    MW4  580   1.968   2.801   0.407
  138SOL     OW  581   2.220   4.025   0.462
  138SOL    HW2  582   2.300   4.048   0.415
  138SOL    HW3  583   2.195   3.939   0.427
  138SOL    MW4  584   2.227   4.016   0.452
  139SOL     OW  585   2.575   4.142   0.173
  139SOL    HW2  586   2.527   4.061   0.189
  139SOL    HW3  587   2.568   4.155   0.078
  139SOL    MW4  588   2.568   4.133   0.162
  140SOL     OW  589   1.750   3.817   0.513
  140SOL    HW2  590   1.734   3.853   0.426
  140SOL    HW3  591   1.825   3.758   0.501
  140SOL    MW4  592   1.758   3.814   0.500
  141SOL     OW  593   1.947   3.347   0.465
  141SOL    HW2  594   2.024   3.305   0.426
  141SOL    HW3  595   1.958   3.333   0.559
  141SOL    MW4  596   1.958   3.340   0.473
  142SOL     OW  597   2.225   4.437   0.331
  142SOL    HW2  598   2.169   4.501   0.287
  142SOL    HW3  599   2.227   4.465   0.422
  142SOL    MW4  600   2.218   4.449   0.337
  143SOL     OW  601   2.028   4.227   0.437
  143SOL    HW2  602   2.083   4.149   0.447
  143SOL    HW3  603   2.078   4.284   0.377
  143SOL    MW4  604   2.042   4.225   0.430
  144SOL     OW  605   3.104   0.082   0.478
  144SOL    HW2  606   3.027   0.138   0.468
  144SOL    HW3  607   3.128   0.091   0.570
  144SOL    MW4  608   3.097   0.091   0.489
  145SOL     OW  609   2.419   3.910   0.266
  145SOL    HW2  610   2.482   3.845   0.297
  145SOL    HW3  611   2.333   3.869   0.280
  145SOL    MW4  612   2.416   3.896   0.272
  146SOL     OW  613   2.438   4.262   0.412
  146SOL    HW2  614   2.372   4.318   0.369
  146SOL    HW3  615   2.481   4.217   0.339
  146SOL    MW4  616   2.435   4.263   0.396
  147SOL     OW  617   2.427   0.327   0.509
  147SOL    HW2  618   2.404   0.391   0.441
  147SOL    HW3  619   2.344   0.282   0.527
  147SOL    MW4  620   2.413   0.330   0.502
  148SOL     OW  621   1.558   0.256   0.356
  148SOL    HW2  622   1.523   0.341   0.381
  148SOL    HW3  623   1.626   0.238   0.422
  148SOL    MW4  624   1.563   0.265   0.368
  149SOL     OW  625   3.231   0.685   0.386
  149SOL    HW2  626   3.234   0.780   0.400
  149SOL    HW3  627   3.290   0.670   0.312
  149SOL    MW4  628   3.239   0.696   0.378
  150SOL     OW  629   2.447   1.490   0.528
  150SOL    HW2  630   2.368   1.539   0.501
  150SOL    HW3  631   2.517   1.554   0.523
  150SOL    MW4  632   2.446   1.505   0.524
  151SOL     OW  633   2.750   0.739   0.440
  151SOL    HW2  634   2.789   0.793   0.372
  151SOL    HW3  635   2.690   0.681   0.392
  151SOL    MW4  636   2.747   0.738   0.425
  152SOL     OW  637   3.137   1.638   0.531
  152SOL    HW2  638   3.065   1.594   0.486
  152SOL    HW3  639   3.135   1.728   0.498
  152SOL    MW4  640   3.128   1.644   0.521
  153SOL     OW  641   3.501   1.364   0.282
  153SOL    HW2  642   3.475   1.292   0.340
  153SOL    HW3  643   3.425   1.422   0.280
  153SOL    MW4  644   3.487   1.362   0.290
  154SOL     OW  645   3.727   1.547   0.351
  154SOL    HW2  646   3.661   1.501   0.300
  154SOL    HW3  647   3.688   1.557   0.438
  154SOL    MW4  648   3.713   1.543   0.356
  155SOL     OW  649   2.659   0.103   0.770
  155SOL    HW2  650   2.663   0.195   0.795
  155SOL    HW3  651   2.648   0.104   0.675
  155SOL    MW4  652   2.658   0.115   0.760
  156SOL     OW  653   3.182   2.050   0.626
  156SOL    HW2  654   3.092   2.053   0.657
  156SOL    HW3  655   3.225   1.986   0.684
  156SOL    MW4  656   3.176   2.042   0.638
  157SOL     OW  657   2.824   2.324   0.387
  157SOL    HW2  658   2.901   2.380   0.389
  157SOL    HW3  659   2.858   2.235   0.394
  157SOL    MW4  660   2.838   2.320   0.388
  158SOL     OW  661   2.852   2.051   0.404
  158SOL    HW2  662   2.857   2.058   0.500
  158SOL    HW3  663   2.918   1.985   0.382
  158SOL    MW4  664   2.861   2.043   0.414
  159SOL     OW  665   2.592   2.461   0.473
  159SOL    HW2  666   2.606   2.554   0.459
  159SOL    HW3  667   2.674   2.420   0.446
  159SOL    MW4  668   2.605   2.468   0.468
  160SOL     OW  669   2.659   3.243   0.431
  160SOL    HW2  670   2.744   3.284   0.412
  160SOL    HW3  671   2.669   3.209   0.520
  160SOL    MW4  672   2.672   3.244   0.441
  161SOL     OW  673   2.931   3.335   0.321
  161SOL    HW2  674   3.005   3.274   0.316
  161SOL    HW3  675   2.967   3.413   0.365
  161SOL    MW4  676   2.946   3.338   0.326
  162SOL     OW  677   3.178   3.184   0.407
  162SOL    HW2  678   3.176   3.089   0.402
  162SOL    HW3  679   3.151   3.204   0.497
  162SOL    MW4  680   3.174   3.174   0.418
  163SOL     OW  681   2.407   3.384   0.383
  163SOL    HW2  682   2.479   3.321   0.391
  163SOL    HW3  683   2.328   3.331   0.389
  163SOL    MW4  684   2.406   3.369   0.385
  164SOL     OW  685   1.717   3.927   0.254
  164SOL    HW2  686   1.730   3.873   0.176
  164SOL    HW3  687   1.622   3.936   0.261
  164SOL    MW4  688   1.706   3.921   0.245
  165SOL     OW  689   3.576   3.606   0.364
  165SOL    HW2  690   3.655   3.585   0.314
  165SOL    HW3  691   3.539   3.521   0.388
  165SOL    MW4  692   3.582   3.592   0.361
  166SOL     OW  693   2.626   3.720   0.336
  166SOL    HW2  694   2.555   3.684   0.390
  166SOL    HW3  695   2.663   3.644   0.291
  166SOL    MW4  696   2.621   3.706   0.337
  167SOL     OW  697   2.407   3.631   0.491
  167SOL    HW2  698   2.415   3.619   0.586
  167SOL    HW3  699   2.404   3.542   0.456
  167SOL    MW4  700   2.407   3.618   0.499
  168SOL     OW  701   3.488   4.054   0.394
  168SOL    HW2  702   3.408   4.067   0.343
  168SOL    HW3  703   3.456   4.024   0.480
  168SOL    MW4  704   3.473   4.052   0.399
  169SOL     OW  705   3.158   4.376   0.270
  169SOL    HW2  706   3.083   4.384   0.329
  169SOL    HW3  707   3.132   4.423   0.191
  169SOL    MW4  708   3.145   4.383   0.267
  170SOL     OW  709   3.360   0.102   0.361
  170SOL    HW2  710   3.278   0.085   0.408
  170SOL    HW3  711   3.426   0.113   0.430
  170SOL    MW4  712   3.358   0.101   0.376
  171SOL     OW  713   3.369   4.503   0.413
  171SOL    HW2  714   3.292   4.468   0.368
  171SOL    HW3  715   3.372   4.595   0.389
  171SOL    MW4  716   3.359   4.510   0.404
  172SOL     OW  717   2.745   4.191   0.415
  172SOL    HW2  718   2.836   4.163   0.426
  172SOL    HW3  719   2.712   4.139   0.341
  172SOL    MW4  720   2.752   4.180   0.406
  173SOL     OW  721   2.640   0.151   0.499
  173SOL    HW2  722   2.563   0.206   0.485
  173SOL    HW3  723   2.713   0.204   0.469
  173SOL    MW4  724   2.639   0.165   0.493
  174SOL     OW  725   3.154   0.973   0.435
  174SOL    HW2  726   3.139   0.947   0.526
  174SOL    HW3  727   3.232   1.028   0.438
  174SOL    MW4  728   3.163   0.977   0.447
  175SOL     OW  729   3.424   0.464   0.486
  175SOL    HW2  730   3.444   0.432   0.398
  175SOL    HW3  731   3.341   0.511   0.476
  175SOL    MW4  732   3.416   0.466   0.473
  176SOL     OW  733   3.616   1.002   0.504
  176SOL    HW2  734   3.634   0.940   0.433
  176SOL    HW3  735   3.609   0.948   0.582
  176SOL    MW4  736   3.618   0.987   0.505
  177SOL     OW  737   2.894   0.262   0.481
  177SOL    HW2  738   2.919   0.353   0.470
  177SOL    HW3  739   2.857   0.257   0.569
  177SOL    MW4  740   2.892   0.273   0.491
  178SOL     OW  741   3.482   1.878   0.665
  178SOL    HW2  742   3.453   1.878   0.574
  178SOL    HW3  743   3.405   1.852   0.715
  178SOL    MW4  744   3.468   1.875   0.659
  179SOL     OW  745   3.415   1.796   0.394
  179SOL    HW2  746   3.372   1.719   0.358
  179SOL    HW3  747   3.502   1.795   0.354
  179SOL    MW4  748   3.421   1.786   0.384
  180SOL     OW  749   3.384   1.167   0.466
  180SOL    HW2  750   3.380   1.233   0.535
  180SOL    HW3  751   3.463   1.116   0.485
  180SOL    MW4  752   3.394   1.169   0.477
  181SOL     OW  753   3.926   1.815   0.178
  181SOL    HW2  754   3.919   1.806   0.083
  181SOL    HW3  755   3.836   1.805   0.210
  181SOL    MW4  756   3.913   1.812   0.170
  182SOL     OW  757   3.378   2.274   0.603
  182SOL    HW2  758   3.327   2.192   0.604
  182SOL    HW3  759   3.409   2.283   0.693
  182SOL    MW4  760   3.375   2.264   0.615
  183SOL     OW  761   3.517   2.675   0.613
  183SOL    HW2  762   3.514   2.656   0.706
  183SOL    HW3  763   3.485   2.595   0.571
  183SOL    MW4  764   3.512   2.662   0.619
  184SOL     OW  765   2.240   2.912   0.337
  184SOL    HW2  766   2.147   2.888   0.330
  184SOL    HW3  767   2.279   2.843   0.390
  184SOL    MW4  768   2.233   2.900   0.343
  185SOL     OW  769   3.303   2.697   0.297
  185SOL    HW2  770   3.312   2.667   0.206
  185SOL    HW3  771   3.343   2.627   0.348
  185SOL    MW4  772   3.309   2.684   0.291
  186SOL     OW  773   2.916   2.769   0.768
  186SOL    HW2  774   2.917   2.750   0.675
  186SOL    HW3  775   2.993   2.724   0.802
  186SOL    MW4  776   2.926   2.760   0.761
  187SOL     OW  777   3.514   0.335   0.257
  187SOL    HW2  778   3.453   0.266   0.281
  187SOL    HW3  779   3.599   0.305   0.289
  187SOL    MW4  780   3.517   0.322   0.265
  188SOL     OW  781   3.006   4.056   0.425
  188SOL    HW2  782   3.085   4.065   0.372
  188SOL    HW3  783   3.037   4.026   0.511
  188SOL    MW4  784   3.020   4.053   0.430
  189SOL     OW  785   3.390   3.516   0.722
  189SOL    HW2  786   3.394   3.442   0.661
  189SOL    HW3  787   3.311   3.500   0.773
  189SOL    MW4  788   3.380   3.504   0.721
  190SOL     OW  789   3.613   3.146   0.502
  190SOL    HW2  790   3.703   3.172   0.480
  190SOL    HW3  791   3.596   3.069   0.447
  190SOL    MW4  792   3.623   3.139   0.492
  191SOL     OW  793   3.411   3.351   0.468
  191SOL    HW2  794   3.330   3.312   0.436
  191SOL    HW3  795   3.468   3.277   0.488
  191SOL    MW4  796   3.408   3.336   0.466
  192SOL     OW  797   2.881   3.804   0.468
  192SOL    HW2  798   2.904   3.891   0.435
  192SOL    HW3  799   2.795   3.785   0.429
  192SOL    MW4  800   2.873   3.813   0.458
  193SOL     OW  801   2.754   3.484   0.168
  193SOL    HW2  802   2.692   3.413   0.154
  193SOL    HW3  803   2.830   3.442   0.210
  193SOL    MW4  804   2.756   3.469   0.172
  194SOL     OW  805   4.230   0.222   0.402
  194SOL    HW2  806   4.301   0.171   0.441
  194SOL    HW3  807   4.224   0.191   0.312
  194SOL    MW4  808   4.238   0.211   0.395
  195SOL     OW  809   3.748   0.282   0.398
  195SOL    HW2  810   3.744   0.343   0.472
  195SOL    HW3  811   3.829   0.234   0.410
  195SOL    MW4  812   3.758   0.284   0.410
  196SOL     OW  813   3.450   0.621   0.211
  196SOL    HW2  814   3.458   0.525   0.206
  196SOL    HW3  815   3.539   0.651   0.231
  196SOL    MW4  816   3.463   0.612   0.213
  197SOL     OW  817   3.699   0.784   0.324
  197SOL    HW2  818   3.776   0.763   0.272
  197SOL    HW3  819   3.703   0.723   0.398
  197SOL    MW4  820   3.709   0.773   0.327
  198SOL     OW  821   3.981   0.630   0.444
  198SOL    HW2  822   4.047   0.583   0.493
  198SOL    HW3  823   3.898   0.589   0.469
  198SOL    MW4  824   3.979   0.619   0.454
  199SOL     OW  825   4.370   0.936   0.472
  199SOL    HW2  826   4.276   0.917   0.480
  199SOL    HW3  827   4.410   0.850   0.456
  199SOL    MW4  828   4.363   0.922   0.471
  200SOL     OW  829   3.901   1.092   0.515
  200SOL    HW2  830   3.912   1.181   0.480
  200SOL    HW3  831   3.811   1.069   0.495
  200SOL    MW4  832   3.891   1.101   0.508
  201SOL     OW  833   4.113   1.730   0.380
  201SOL    HW2  834   4.048   1.766   0.318
  201SOL    HW3  835   4.193   1.779   0.362
  201SOL    MW4  836   4.115   1.741   0.369
  202SOL     OW  837   3.904   1.365   0.441
  202SOL    HW2  838   3.991   1.372   0.402
  202SOL    HW3  839   3.853   1.434   0.398
  202SOL    MW4  840   3.909   1.375   0.431
  203SOL     OW  841   3.287   1.572   0.301
  203SOL    HW2  842   3.220   1.559   0.234
  203SOL    HW3  843   3.239   1.567   0.384
  203SOL    MW4  844   3.271   1.570   0.303
  204SOL     OW  845   2.894   0.949   0.314
  204SOL    HW2  846   2.893   1.006   0.237
  204SOL    HW3  847   2.976   0.969   0.359
  204SOL    MW4  848   2.904   0.959   0.310
  205SOL     OW  849   3.694   2.439   0.400
  205SOL    HW2  850   3.775   2.407   0.361
  205SOL    HW3  851   3.706   2.427   0.495
  205SOL    MW4  852   3.707   2.433   0.408
  206SOL     OW  853   4.176   2.728   0.493
  206SOL    HW2  854   4.152   2.635   0.491
  206SOL    HW3  855   4.093   2.774   0.480
  206SOL    MW4  856   4.162   2.722   0.491
  207SOL     OW  857   3.041   2.518   0.404
  207SOL    HW2  858   3.079   2.499   0.489
  207SOL    HW3  859   3.113   2.557   0.354
  207SOL    MW4  860   3.055   2.521   0.408
  208SOL     OW  861   3.046   3.564   0.487
  208SOL    HW2  862   3.136   3.588   0.469
  208SOL    HW3  863   2.998   3.648   0.488
  208SOL    MW4  864   3.051   3.578   0.485
  209SOL     OW  865   3.131   2.889   0.421
  209SOL    HW2  866   3.185   2.826   0.372
  209SOL    HW3  867   3.044   2.849   0.424
  209SOL    MW4  868   3.127   2.875   0.415
  210SOL     OW  869   3.928   2.894   0.499
  210SOL    HW2  870   3.840   2.872   0.470
  210SOL    HW3  871   3.944   2.982   0.463
  210SOL    MW4  872   3.918   2.903   0.491
  211SOL     OW  873   3.655   2.830   0.418
  211SOL    HW2  874   3.644   2.772   0.343
  211SOL    HW3  875   3.607   2.787   0.489
  211SOL    MW4  876   3.647   2.817   0.418
  212SOL     OW  877   3.980   3.838   0.506
  212SOL    HW2  878   3.893   3.860   0.473
  212SOL    HW3  879   3.987   3.744   0.494
  212SOL    MW4  880   3.970   3.829   0.500
  213SOL     OW  881   3.439   2.492   0.421
  213SOL    HW2  882   3.403   2.404   0.435
  213SOL    HW3  883   3.529   2.477   0.393
  213SOL    MW4  884   3.446   2.478   0.419
  214SOL     OW  885   3.316   3.664   0.511
  214SOL    HW2  886   3.347   3.633   0.596
  214SOL    HW3  887   3.388   3.645   0.451
  214SOL    MW4  888   3.330   3.657   0.514
  215SOL     OW  889   4.286   3.875   0.532
  215SOL    HW2  890   4.195   3.853   0.511
  215SOL    HW3  891   4.285   3.894   0.626
  215SOL    MW4  892   4.274   3.875   0.542
  216SOL     OW  893   3.527   4.314   0.519
  216SOL    HW2  894   3.468   4.369   0.466
  216SOL    HW3  895   3.523   4.228   0.477
  216SOL    MW4  896   3.518   4.310   0.506
  217SOL     OW  897   3.733   4.514   0.534
  217SOL    HW2  898   3.662   4.454   0.513
  217SOL    HW3  899   3.763   4.487   0.620
  217SOL    MW4  900   3.727   4.503   0.542
  218SOL     OW  901   4.435   0.090   0.526
  218SOL    HW2  902   4.410  -0.003   0.524
  218SOL    HW3  903   4.443   0.110   0.619
  218SOL    MW4  904   4.432   0.080   0.538
  219SOL     OW  905   4.102   0.873   0.504
  219SOL    HW2  906   4.037   0.942   0.500
  219SOL    HW3  907   4.058   0.796   0.468
  219SOL    MW4  908   4.088   0.872   0.499
  220SOL     OW  909   0.309   1.639   0.496
  220SOL    HW2  910   0.346   1.551   0.492
  220SOL    HW3  911   0.214   1.626   0.500
  220SOL    MW4  912   0.301   1.626   0.496
  221SOL     OW  913   4.231   0.489   0.517
  221SOL    HW2  914   4.233   0.413   0.460
  221SOL    HW3  915   4.306   0.542   0.488
  221SOL    MW4  916   4.241   0.486   0.505
  222SOL     OW  917   0.055   1.172   0.424
  222SOL    HW2  918   0.002   1.093   0.416
  222SOL    HW3  919  -0.004   1.238   0.459
  222SOL    MW4  920   0.040   1.171   0.427
  223SOL     OW  921   3.601   0.105   0.559
  223SOL    HW2  922   3.635   0.017   0.543
  223SOL    HW3  923   3.653   0.161   0.500
  223SOL    MW4  924   3.613   0.101   0.549
  224SOL     OW  925   4.181   1.462   0.347
  224SOL    HW2  926   4.157   1.552   0.369
  224SOL    HW3  927   4.239   1.470   0.271
  224SOL    MW4  928   4.186   1.475   0.340
  225SOL     OW  929   4.362   1.358   0.538
  225SOL    HW2  930   4.307   1.321   0.606
  225SOL    HW3  931   4.302   1.377   0.466
  225SOL    MW4  932   4.347   1.355   0.537
  226SOL     OW  933   4.144   2.287   0.140
  226SOL    HW2  934   4.061   2.292   0.187
  226SOL    HW3  935   4.131   2.342   0.063
  226SOL    MW4  936   4.131   2.295   0.136
  227SOL     OW  937   4.395   1.838   0.353
  227SOL    HW2  938   4.337   1.896   0.402
  227SOL    HW3  939   4.429   1.777   0.418
  227SOL    MW4  940   4.392   1.838   0.368
  228SOL     OW  941   4.364   2.246   0.305
  228SOL    HW2  942   4.395   2.337   0.307
  228SOL    HW3  943   4.291   2.247   0.243
  228SOL    MW4  944   4.359   2.258   0.297
  229SOL     OW  945   4.250   2.028   0.477
  229SOL    HW2  946   4.158   2.038   0.453
  229SOL    HW3  947   4.294   2.100   0.433
  229SOL    MW4  948   4.243   2.039   0.468
  230SOL     OW  949   4.480   2.486   0.454
  230SOL    HW2  950   4.495   2.578   0.437
  230SOL    HW3  951   4.473   2.479   0.549
  230SOL    MW4  952   4.481   2.497   0.464
  231SOL     OW  953   4.221   3.511   0.523
  231SOL    HW2  954   4.278   3.536   0.450
  231SOL    HW3  955   4.231   3.416   0.530
  231SOL    MW4  956   4.230   3.502   0.514
  232SOL     OW  957   4.176   2.447   0.482
  232SOL    HW2  958   4.135   2.453   0.568
  232SOL    HW3  959   4.270   2.459   0.500
  232SOL    MW4  960   4.183   2.450   0.496
  233SOL     OW  961   0.192   3.904   0.421
  233SOL    HW2  962   0.159   3.967   0.484
  233SOL    HW3  963   0.287   3.918   0.420
  233SOL    MW4  964   0.200   3.914   0.429
  234SOL     OW  965   4.454   3.542   0.356
  234SOL    HW2  966   4.452   3.624   0.307
  234SOL    HW3  967   4.512   3.559   0.430
  234SOL    MW4  968   4.461   3.555   0.359
  235SOL     OW  969   0.132   3.310   0.383
  235SOL    HW2  970   0.078   3.383   0.356
  235SOL    HW3  971   0.221   3.346   0.388
  235SOL    MW4  972   0.137   3.324   0.380
  236SOL     OW  973   3.706   3.901   0.455
  236SOL    HW2  974   3.630   3.952   0.426
  236SOL    HW3  975   3.674   3.811   0.461
  236SOL    MW4  976   3.692   3.896   0.452
  237SOL     OW  977   3.868   3.249   0.436
  237SOL    HW2  978   3.959   3.248   0.409
  237SOL    HW3  979   3.849   3.340   0.456
  237SOL    MW4  980   3.877   3.261   0.435
  238SOL     OW  981   0.065   4.105   0.549
  238SOL    HW2  982   0.023   4.075   0.630
  238SOL    HW3  983  -0.001   4.094   0.482
  238SOL    MW4  984   0.051   4.099   0.551
  239SOL     OW  985   3.976   4.270   0.292
  239SOL    HW2  986   3.923   4.227   0.226
  239SOL    HW3  987   3.949   4.230   0.375
  239SOL    MW4  988   3.966   4.259   0.294
  240SOL     OW  989   3.854   4.150   0.527
  240SOL    HW2  990   3.788   4.190   0.583
  240SOL    HW3  991   3.813   4.070   0.494
  240SOL    MW4  992   3.840   4.144   0.530
  241SOL     OW  993   3.966   4.579   0.398
  241SOL    HW2  994   3.883   4.551   0.436
  241SOL    HW3  995   4.004   4.499   0.362
  241SOL    MW4  996   3.960   4.565   0.398
  242SOL     OW  997   0.227   0.022   0.870
  242SOL    HW2  998   0.218  -0.069   0.843
  242SOL    HW3  999   0.142   0.062   0.848
  242SOL    MW4 1000   0.214   0.015   0.864
  243SOL     OW 1001   4.446   0.138   0.789
  243SOL    HW2 1002   4.384   0.096   0.848
  243SOL    HW3 1003   4.441   0.231   0.810
  243SOL    MW4 1004   4.437   0.144   0.799
  244SOL     OW 1005   4.461   0.412   0.849
  244SOL    HW2 1006   4.468   0.407   0.945
  244SOL    HW3 1007   4.544   0.451   0.821
  244SOL    MW4 1008   4.473   0.417   0.858
  245SOL     OW 1009   0.211   0.512   0.778
  245SOL    HW2 1010   0.282   0.451   0.800
  245SOL    HW3 1011   0.229   0.591   0.829
  245SOL    MW4 1012   0.223   0.514   0.787
  246SOL     OW 1013   0.222   0.766   0.892
  246SOL    HW2 1014   0.199   0.775   0.984
  246SOL    HW3 1015   0.146   0.798   0.844
  246SOL    MW4 1016   0.209   0.771   0.898
  247SOL     OW 1017   4.483   0.888   0.753
  247SOL    HW2 1018   4.410   0.856   0.806
  247SOL    HW3 1019   4.457   0.873   0.663
  247SOL    MW4 1020   4.470   0.882   0.748
  248SOL     OW 1021   4.460   1.158   0.852
  248SOL    HW2 1022   4.462   1.146   0.947
  248SOL    HW3 1023   4.469   1.070   0.817
  248SOL    MW4 1024   4.461   1.145   0.860
  249SOL     OW 1025   0.236   1.243   0.794
  249SOL    HW2 1026   0.142   1.225   0.805
  249SOL    HW3 1027   0.254   1.217   0.704
  249SOL    MW4 1028   0.226   1.237   0.783
  250SOL     OW 1029   0.219   1.519   0.854
  250SOL    HW2 1030   0.289   1.562   0.806
  250SOL    HW3 1031   0.230   1.426   0.833
  250SOL    MW4 1032   0.230   1.512   0.845
  251SOL     OW 1033   0.012   1.685   0.799
  251SOL    HW2 1034  -0.069   1.636   0.809
  251SOL    HW3 1035   0.081   1.623   0.820
  251SOL    MW4 1036   0.011   1.671   0.803
  252SOL     OW 1037   4.464   1.968   0.839
  252SOL    HW2 1038   4.541   2.019   0.814
  252SOL    HW3 1039   4.484   1.879   0.811
  252SOL    MW4 1040   4.476   1.963   0.832
  253SOL     OW 1041   0.213   2.103   0.754
  253SOL    HW2 1042   0.200   2.190   0.792
  253SOL    HW3 1043   0.195   2.114   0.661
  253SOL    MW4 1044   0.209   2.116   0.747
  254SOL     OW 1045   0.181   2.361   0.856
  254SOL    HW2 1046   0.198   2.351   0.949
  254SOL    HW3 1047   0.252   2.417   0.824
  254SOL    MW4 1048   0.193   2.367   0.864
  255SOL     OW 1049   4.438   2.460   0.741
  255SOL    HW2 1050   4.361   2.412   0.771
  255SOL    HW3 1051   4.513   2.408   0.773
  255SOL    MW4 1052   4.438   2.446   0.749
  256SOL     OW 1053   4.472   2.706   0.847
  256SOL    HW2 1054   4.469   2.697   0.942
  256SOL    HW3 1055   4.478   2.617   0.814
  256SOL    MW4 1056   4.473   2.693   0.855
  257SOL     OW 1057   0.172   2.861   0.728
  257SOL    HW2 1058   0.123   2.802   0.785
  257SOL    HW3 1059   0.159   2.827   0.640
  257SOL    MW4 1060   0.164   2.849   0.724
  258SOL     OW 1061   0.190   3.123   0.849
  258SOL    HW2 1062   0.201   3.103   0.942
  258SOL    HW3 1063   0.179   3.037   0.808
  258SOL    MW4 1064   0.190   3.109   0.856
  259SOL     OW 1065   4.442   3.201   0.757
  259SOL    HW2 1066   4.525   3.179   0.801
  259SOL    HW3 1067   4.453   3.169   0.668
  259SOL    MW4 1068   4.454   3.194   0.751
  260SOL     OW 1069   4.468   3.449   0.876
  260SOL    HW2 1070   4.398   3.501   0.838
  260SOL    HW3 1071   4.469   3.368   0.825
  260SOL    MW4 1072   4.459   3.446   0.864
  261SOL     OW 1073   0.210   3.615   0.805
  261SOL    HW2 1074   0.144   3.551   0.833
  261SOL    HW3 1075   0.195   3.624   0.711
  261SOL    MW4 1076   0.199   3.608   0.796
  262SOL     OW 1077   0.164   3.859   0.898
  262SOL    HW2 1078   0.185   3.850   0.991
  262SOL    HW3 1079   0.170   3.769   0.864
  262SOL    MW4 1080   0.167   3.846   0.906
  263SOL     OW 1081   4.460   4.024   0.797
  263SOL    HW2 1082   4.382   3.976   0.825
  263SOL    HW3 1083   4.533   3.979   0.840
  263SOL    MW4 1084   4.460   4.012   0.807
  264SOL     OW 1085   4.474   4.278   0.932
  264SOL    HW2 1086   4.472   4.268   1.027
  264SOL    HW3 1087   4.480   4.188   0.899
  264SOL    MW4 1088   4.475   4.265   0.940
  265SOL     OW 1089   0.195   4.410   0.802
  265SOL    HW2 1090   0.117   4.378   0.848
  265SOL    HW3 1091   0.172   4.404   0.709
  265SOL    MW4 1092   0.182   4.405   0.796
  266SOL     OW 1093   0.670   4.656   0.856
  266SOL    HW2 1094   0.661   4.672   0.950
  266SOL    HW3 1095   0.604   4.712   0.815
  266SOL    MW4 1096   0.660   4.665   0.863
  267SOL     OW 1097   0.461   0.114   0.731
  267SOL    HW2 1098   0.372   0.091   0.759
  267SOL    HW3 1099   0.463   0.093   0.638
  267SOL    MW4 1100   0.449   0.108   0.722
  268SOL     OW 1101   0.424   0.368   0.855
  268SOL    HW2 1102   0.509   0.405   0.830
  268SOL    HW3 1103   0.426   0.278   0.822
  268SOL    MW4 1104   0.436   0.361   0.847
  269SOL     OW 1105   0.676   0.461   0.799
  269SOL    HW2 1106   0.745   0.395   0.805
  269SOL    HW3 1107   0.675   0.485   0.706
  269SOL    MW4 1108   0.685   0.455   0.787
  270SOL     OW 1109   0.668   0.714   0.894
  270SOL    HW2 1110   0.591   0.762   0.864
  270SOL    HW3 1111   0.653   0.624   0.865
  270SOL    MW4 1112   0.656   0.708   0.886
  271SOL     OW 1113   0.452   0.884   0.800
  271SOL    HW2 1114   0.457   0.974   0.830
  271SOL    HW3 1115   0.380   0.845   0.850
  271SOL    MW4 1116   0.444   0.890   0.810
  272SOL     OW 1117   0.475   1.155   0.891
  272SOL    HW2 1118   0.556   1.197   0.863
  272SOL    HW3 1119   0.406   1.208   0.852
  272SOL    MW4 1120   0.477   1.167   0.883
  273SOL     OW 1121   0.697   1.276   0.787
  273SOL    HW2 1122   0.694   1.370   0.803
  273SOL    HW3 1123   0.686   1.267   0.692
  273SOL    MW4 1124   0.695   1.287   0.776
  274SOL     OW 1125   0.676   1.541   0.843
  274SOL    HW2 1126   0.688   1.572   0.932
  274SOL    HW3 1127   0.589   1.573   0.818
  274SOL    MW4 1128   0.666   1.550   0.851
  275SOL     OW 1129   0.425   1.653   0.738
  275SOL    HW2 1130   0.409   1.738   0.779
  275SOL    HW3 1131   0.394   1.664   0.648
  275SOL    MW4 1132   0.419   1.666   0.732
  276SOL     OW 1133   0.416   1.916   0.819
  276SOL    HW2 1134   0.415   1.921   0.915
  276SOL    HW3 1135   0.344   1.973   0.791
  276SOL    MW4 1136   0.406   1.924   0.828
  277SOL     OW 1137   0.619   2.082   0.733
  277SOL    HW2 1138   0.556   2.014   0.759
  277SOL    HW3 1139   0.575   2.128   0.661
  277SOL    MW4 1140   0.605   2.079   0.727
  278SOL     OW 1141   0.630   2.320   0.871
  278SOL    HW2 1142   0.641   2.313   0.966
  278SOL    HW3 1143   0.629   2.230   0.840
  278SOL    MW4 1144   0.631   2.307   0.879
  279SOL     OW 1145   0.401   2.485   0.757
  279SOL    HW2 1146   0.463   2.433   0.809
  279SOL    HW3 1147   0.446   2.499   0.674
  279SOL    MW4 1148   0.415   2.480   0.753
  280SOL     OW 1149   0.429   2.746   0.812
  280SOL    HW2 1150   0.419   2.653   0.791
  280SOL    HW3 1151   0.346   2.785   0.789
  280SOL    MW4 1152   0.417   2.739   0.806
  281SOL     OW 1153   0.644   2.861   0.701
  281SOL    HW2 1154   0.714   2.803   0.730
  281SOL    HW3 1155   0.564   2.826   0.740
  281SOL    MW4 1156   0.643   2.849   0.710
  282SOL     OW 1157   0.679   3.125   0.830
  282SOL    HW2 1158   0.613   3.190   0.804
  282SOL    HW3 1159   0.647   3.042   0.794
  282SOL    MW4 1160   0.666   3.123   0.822
  283SOL     OW 1161   0.426   3.253   0.762
  283SOL    HW2 1162   0.425   3.338   0.805
  283SOL    HW3 1163   0.348   3.209   0.796
  283SOL    MW4 1164   0.415   3.258   0.772
  284SOL     OW 1165   0.463   3.518   0.856
  284SOL    HW2 1166   0.455   3.512   0.951
  284SOL    HW3 1167   0.379   3.552   0.826
  284SOL    MW4 1168   0.451   3.522   0.864
  285SOL     OW 1169   0.717   3.634   0.800
  285SOL    HW2 1170   0.632   3.595   0.819
  285SOL    HW3 1171   0.704   3.728   0.814
  285SOL    MW4 1172   0.704   3.641   0.804
  286SOL     OW 1173   0.603   3.882   0.867
  286SOL    HW2 1174   0.676   3.937   0.836
  286SOL    HW3 1175   0.528   3.911   0.814
  286SOL    MW4 1176   0.603   3.893   0.856
  287SOL     OW 1177   0.370   3.967   0.756
  287SOL    HW2 1178   0.360   4.058   0.784
  287SOL    HW3 1179   0.302   3.920   0.803
  287SOL    MW4 1180   0.360   3.973   0.766
  288SOL     OW 1181   0.401   4.247   0.854
  288SOL    HW2 1182   0.390   4.212   0.942
  288SOL    HW3 1183   0.333   4.313   0.845
  288SOL    MW4 1184   0.391   4.251   0.864
  289SOL     OW 1185   0.654   4.386   0.817
  289SOL    HW2 1186   0.575   4.344   0.851
  289SOL    HW3 1187   0.644   4.479   0.838
  289SOL    MW4 1188   0.643   4.393   0.824
  290SOL     OW 1189   1.127   4.558   0.817
  290SOL    HW2 1190   1.203   4.609   0.789
  290SOL    HW3 1191   1.051   4.611   0.792
  290SOL    MW4 1192   1.127   4.572   0.810
  291SOL     OW 1193   0.918   0.049   0.741
  291SOL    HW2 1194   0.935   0.138   0.772
  291SOL    HW3 1195   0.833   0.027   0.778
  291SOL    MW4 1196   0.909   0.058   0.750
  292SOL     OW 1197   0.904   0.306   0.824
  292SOL    HW2 1198   0.907   0.317   0.919
  292SOL    HW3 1199   0.964   0.373   0.790
  292SOL    MW4 1200   0.913   0.316   0.832
  293SOL     OW 1201   1.116   0.487   0.749
  293SOL    HW2 1202   1.193   0.437   0.776
  293SOL    HW3 1203   1.114   0.479   0.654
  293SOL    MW4 1204   1.126   0.479   0.740
  294SOL     OW 1205   1.095   0.754   0.867
  294SOL    HW2 1206   1.083   0.754   0.962
  294SOL    HW3 1207   1.107   0.662   0.844
  294SOL    MW4 1208   1.095   0.742   0.877
  295SOL     OW 1209   0.867   0.828   0.740
  295SOL    HW2 1210   0.945   0.806   0.791
  295SOL    HW3 1211   0.795   0.789   0.790
  295SOL    MW4 1212   0.868   0.820   0.753
  296SOL     OW 1213   0.905   1.084   0.882
  296SOL    HW2 1214   0.891   0.996   0.847
  296SOL    HW3 1215   0.840   1.138   0.837
  296SOL    MW4 1216   0.895   1.079   0.871
  297SOL     OW 1217   1.122   1.244   0.780
  297SOL    HW2 1218   1.057   1.175   0.796
  297SOL    HW3 1219   1.131   1.246   0.685
  297SOL    MW4 1220   1.114   1.235   0.770
  298SOL     OW 1221   1.175   1.518   0.836
  298SOL    HW2 1222   1.099   1.543   0.783
  298SOL    HW3 1223   1.171   1.423   0.841
  298SOL    MW4 1224   1.164   1.509   0.829
  299SOL     OW 1225   0.787   1.711   0.667
  299SOL    HW2 1226   0.816   1.794   0.705
  299SOL    HW3 1227   0.754   1.661   0.742
  299SOL    MW4 1228   0.787   1.715   0.682
  300SOL     OW 1229   0.870   1.951   0.771
  300SOL    HW2 1230   0.879   1.938   0.865
  300SOL    HW3 1231   0.790   2.001   0.761
  300SOL    MW4 1232   0.861   1.956   0.782
  301SOL     OW 1233   1.135   2.078   0.696
  301SOL    HW2 1234   1.132   2.159   0.747
  301SOL    HW3 1235   1.052   2.034   0.715
  301SOL    MW4 1236   1.123   2.083   0.705
  302SOL     OW 1237   1.114   2.318   0.806
  302SOL    HW2 1238   1.138   2.315   0.899
  302SOL    HW3 1239   1.185   2.368   0.766
  302SOL    MW4 1240   1.127   2.324   0.813
  303SOL     OW 1241   0.854   2.403   0.726
  303SOL    HW2 1242   0.938   2.362   0.747
  303SOL    HW3 1243   0.795   2.373   0.796
  303SOL    MW4 1244   0.857   2.393   0.738
  304SOL     OW 1245   0.816   2.687   0.840
  304SOL    HW2 1246   0.820   2.677   0.935
  304SOL    HW3 1247   0.821   2.598   0.806
  304SOL    MW4 1248   0.817   2.674   0.848
  305SOL     OW 1249   1.056   2.771   0.748
  305SOL    HW2 1250   0.976   2.728   0.777
  305SOL    HW3 1251   1.051   2.770   0.652
  305SOL    MW4 1252   1.045   2.765   0.739
  306SOL     OW 1253   1.129   3.017   0.850
  306SOL    HW2 1254   1.054   3.067   0.819
  306SOL    HW3 1255   1.112   2.928   0.819
  306SOL    MW4 1256   1.117   3.012   0.842
  307SOL     OW 1257   0.958   3.206   0.748
  307SOL    HW2 1258   0.961   3.293   0.787
  307SOL    HW3 1259   0.867   3.180   0.754
  307SOL    MW4 1260   0.947   3.214   0.754
  308SOL     OW 1261   0.938   3.477   0.844
  308SOL    HW2 1262   1.017   3.531   0.835
  308SOL    HW3 1263   0.866   3.538   0.826
  308SOL    MW4 1264   0.939   3.492   0.841
  309SOL     OW 1265   1.183   3.579   0.815
  309SOL    HW2 1266   1.232   3.525   0.878
  309SOL    HW3 1267   1.217   3.552   0.729
  309SOL    MW4 1268   1.194   3.568   0.812
  310SOL     OW 1269   1.106   3.865   0.841
  310SOL    HW2 1270   1.129   3.884   0.932
  310SOL    HW3 1271   1.116   3.770   0.833
  310SOL    MW4 1272   1.111   3.855   0.852
  311SOL     OW 1273   0.859   3.978   0.798
  311SOL    HW2 1274   0.882   4.057   0.846
  311SOL    HW3 1275   0.936   3.922   0.804
  311SOL    MW4 1276   0.872   3.981   0.805
  312SOL     OW 1277   0.885   4.233   0.886
  312SOL    HW2 1278   0.958   4.260   0.829
  312SOL    HW3 1279   0.810   4.284   0.855
  312SOL    MW4 1280   0.885   4.243   0.874
  313SOL     OW 1281   1.121   4.287   0.754
  313SOL    HW2 1282   1.208   4.260   0.784
  313SOL    HW3 1283   1.120   4.382   0.765
  313SOL    MW4 1284   1.133   4.296   0.759
  314SOL     OW 1285   1.577   4.617   0.857
  314SOL    HW2 1286   1.577   4.622   0.953
  314SOL    HW3 1287   1.487   4.637   0.832
  314SOL    MW4 1288   1.565   4.621   0.866
  315SOL     OW 1289   1.343   0.064   0.733
  315SOL    HW2 1290   1.326   0.150   0.771
  315SOL    HW3 1291   1.349   0.079   0.639
  315SOL    MW4 1292   1.341   0.077   0.726
  316SOL     OW 1293   1.302   0.303   0.837
  316SOL    HW2 1294   1.302   0.309   0.932
  316SOL    HW3 1295   1.382   0.348   0.809
  316SOL    MW4 1296   1.313   0.310   0.846
  317SOL     OW 1297   1.520   0.434   0.737
  317SOL    HW2 1298   1.534   0.526   0.757
  317SOL    HW3 1299   1.599   0.389   0.767
  317SOL    MW4 1300   1.532   0.440   0.743
  318SOL     OW 1301   1.514   0.676   0.881
  318SOL    HW2 1302   1.579   0.739   0.850
  318SOL    HW3 1303   1.430   0.715   0.857
  318SOL    MW4 1304   1.511   0.690   0.874
  319SOL     OW 1305   1.299   0.875   0.740
  319SOL    HW2 1306   1.326   0.954   0.787
  319SOL    HW3 1307   1.222   0.844   0.788
  319SOL    MW4 1308   1.292   0.881   0.753
  320SOL     OW 1309   1.366   1.140   0.855
  320SOL    HW2 1310   1.429   1.195   0.808
  320SOL    HW3 1311   1.280   1.171   0.826
  320SOL    MW4 1312   1.363   1.151   0.845
  321SOL     OW 1313   1.526   1.246   0.644
  321SOL    HW2 1314   1.538   1.340   0.631
  321SOL    HW3 1315   1.441   1.227   0.603
  321SOL    MW4 1316   1.516   1.256   0.637
  322SOL     OW 1317   1.686   1.607   0.900
  322SOL    HW2 1318   1.636   1.563   0.968
  322SOL    HW3 1319   1.774   1.569   0.906
  322SOL    MW4 1320   1.691   1.596   0.909
  323SOL     OW 1321   1.339   1.662   0.686
  323SOL    HW2 1322   1.351   1.742   0.737
  323SOL    HW3 1323   1.288   1.605   0.743
  323SOL    MW4 1324   1.334   1.665   0.700
  324SOL     OW 1325   1.327   1.928   0.817
  324SOL    HW2 1326   1.322   1.944   0.911
  324SOL    HW3 1327   1.268   1.992   0.778
  324SOL    MW4 1328   1.319   1.938   0.824
  325SOL     OW 1329   1.568   2.030   0.765
  325SOL    HW2 1330   1.486   1.986   0.787
  325SOL    HW3 1331   1.600   1.985   0.687
  325SOL    MW4 1332   1.562   2.018   0.758
  326SOL     OW 1333   1.562   2.314   0.791
  326SOL    HW2 1334   1.479   2.353   0.762
  326SOL    HW3 1335   1.550   2.220   0.781
  326SOL    MW4 1336   1.549   2.307   0.786
  327SOL     OW 1337   1.328   2.433   0.691
  327SOL    HW2 1338   1.328   2.506   0.754
  327SOL    HW3 1339   1.300   2.473   0.609
  327SOL    MW4 1340   1.325   2.448   0.689
  328SOL     OW 1341   1.300   2.662   0.819
  328SOL    HW2 1342   1.305   2.650   0.913
  328SOL    HW3 1343   1.220   2.712   0.804
  328SOL    MW4 1344   1.290   2.667   0.829
  329SOL     OW 1345   1.556   2.733   0.745
  329SOL    HW2 1346   1.571   2.813   0.796
  329SOL    HW3 1347   1.467   2.707   0.766
  329SOL    MW4 1348   1.547   2.740   0.755
  330SOL     OW 1349   1.544   2.983   0.875
  330SOL    HW2 1350   1.547   2.981   0.971
  330SOL    HW3 1351   1.480   3.052   0.855
  330SOL    MW4 1352   1.536   2.992   0.885
  331SOL     OW 1353   1.367   3.170   0.796
  331SOL    HW2 1354   1.300   3.102   0.803
  331SOL    HW3 1355   1.367   3.194   0.703
  331SOL    MW4 1356   1.358   3.164   0.785
  332SOL     OW 1357   1.400   3.415   0.929
  332SOL    HW2 1358   1.466   3.457   0.874
  332SOL    HW3 1359   1.400   3.323   0.901
  332SOL    MW4 1360   1.409   3.408   0.918
  333SOL     OW 1361   1.592   3.569   0.789
  333SOL    HW2 1362   1.677   3.530   0.807
  333SOL    HW3 1363   1.587   3.572   0.693
  333SOL    MW4 1364   1.603   3.564   0.779
  334SOL     OW 1365   1.540   3.847   0.852
  334SOL    HW2 1366   1.468   3.882   0.801
  334SOL    HW3 1367   1.552   3.758   0.819
  334SOL    MW4 1368   1.532   3.840   0.841
  335SOL     OW 1369   1.319   3.951   0.690
  335SOL    HW2 1370   1.233   3.939   0.731
  335SOL    HW3 1371   1.304   4.019   0.623
  335SOL    MW4 1372   1.305   3.959   0.686
  336SOL     OW 1373   1.370   4.196   0.831
  336SOL    HW2 1374   1.447   4.236   0.790
  336SOL    HW3 1375   1.359   4.112   0.786
  336SOL    MW4 1376   1.379   4.190   0.820
  337SOL     OW 1377   1.595   4.364   0.728
  337SOL    HW2 1378   1.689   4.347   0.737
  337SOL    HW3 1379   1.578   4.436   0.789
  337SOL    MW4 1380   1.605   4.371   0.737
  338SOL     OW 1381   1.896   0.103   0.870
  338SOL    HW2 1382   1.991   0.107   0.856
  338SOL    HW3 1383   1.865   0.047   0.799
  338SOL    MW4 1384   1.905   0.096   0.858
  339SOL     OW 1385   1.754   0.197   0.557
  339SOL    HW2 1386   1.758   0.105   0.583
  339SOL    HW3 1387   1.753   0.246   0.639
  339SOL    MW4 1388   1.755   0.192   0.571
  340SOL     OW 1389   1.770   0.347   0.818
  340SOL    HW2 1390   1.807   0.262   0.842
  340SOL    HW3 1391   1.845   0.397   0.784
  340SOL    MW4 1392   1.785   0.343   0.817
  341SOL     OW 1393   2.026   0.520   0.761
  341SOL    HW2 1394   2.038   0.498   0.669
  341SOL    HW3 1395   2.105   0.488   0.804
  341SOL    MW4 1396   2.038   0.513   0.755
  342SOL     OW 1397   1.967   0.776   0.834
  342SOL    HW2 1398   2.033   0.834   0.796
  342SOL    HW3 1399   1.969   0.698   0.779
  342SOL    MW4 1400   1.976   0.773   0.822
  343SOL     OW 1401   1.695   0.853   0.770
  343SOL    HW2 1402   1.695   0.948   0.765
  343SOL    HW3 1403   1.767   0.832   0.829
  343SOL    MW4 1404   1.704   0.862   0.777
  344SOL     OW 1405   1.715   1.124   0.818
  344SOL    HW2 1406   1.802   1.139   0.780
  344SOL    HW3 1407   1.655   1.169   0.758
  344SOL    MW4 1408   1.719   1.132   0.805
  345SOL     OW 1409   1.972   1.250   0.727
  345SOL    HW2 1410   2.049   1.208   0.764
  345SOL    HW3 1411   1.982   1.241   0.633
  345SOL    MW4 1412   1.983   1.244   0.720
  346SOL     OW 1413   1.942   1.506   0.807
  346SOL    HW2 1414   2.028   1.546   0.795
  346SOL    HW3 1415   1.954   1.415   0.778
  346SOL    MW4 1416   1.955   1.499   0.801
  347SOL     OW 1417   1.948   1.491   0.410
  347SOL    HW2 1418   1.907   1.495   0.323
  347SOL    HW3 1419   1.885   1.532   0.468
  347SOL    MW4 1420   1.934   1.497   0.406
  348SOL     OW 1421   1.748   1.885   0.893
  348SOL    HW2 1422   1.703   1.801   0.900
  348SOL    HW3 1423   1.681   1.946   0.864
  348SOL    MW4 1424   1.733   1.882   0.890
  349SOL     OW 1425   1.984   1.961   0.756
  349SOL    HW2 1426   1.974   2.056   0.757
  349SOL    HW3 1427   1.907   1.928   0.801
  349SOL    MW4 1428   1.973   1.969   0.762
  350SOL     OW 1429   2.002   2.251   0.830
  350SOL    HW2 1430   1.998   2.278   0.922
  350SOL    HW3 1431   1.931   2.299   0.788
  350SOL    MW4 1432   1.992   2.261   0.837
  351SOL     OW 1433   1.807   2.404   0.707
  351SOL    HW2 1434   1.726   2.356   0.727
  351SOL    HW3 1435   1.793   2.439   0.619
  351SOL    MW4 1436   1.795   2.402   0.698
  352SOL     OW 1437   1.799   2.657   0.806
  352SOL    HW2 1438   1.809   2.570   0.768
  352SOL    HW3 1439   1.714   2.687   0.774
  352SOL    MW4 1440   1.789   2.649   0.797
  353SOL     OW 1441   2.012   2.785   0.676
  353SOL    HW2 1442   2.086   2.728   0.699
  353SOL    HW3 1443   1.937   2.745   0.720
  353SOL    MW4 1444   2.012   2.772   0.685
  354SOL     OW 1445   2.012   3.045   0.782
  354SOL    HW2 1446   1.920   3.069   0.774
  354SOL    HW3 1447   2.018   2.958   0.744
  354SOL    MW4 1448   2.001   3.037   0.776
  355SOL     OW 1449   1.731   3.178   0.749
  355SOL    HW2 1450   1.679   3.107   0.787
  355SOL    HW3 1451   1.719   3.167   0.654
  355SOL    MW4 1452   1.722   3.167   0.741
  356SOL     OW 1453   1.826   3.410   0.853
  356SOL    HW2 1454   1.800   3.425   0.944
  356SOL    HW3 1455   1.788   3.324   0.832
  356SOL    MW4 1456   1.817   3.400   0.863
  357SOL     OW 1457   2.042   3.557   0.742
  357SOL    HW2 1458   2.052   3.646   0.775
  357SOL    HW3 1459   1.966   3.521   0.788
  357SOL    MW4 1460   2.034   3.564   0.752
  358SOL     OW 1461   2.048   3.844   0.817
  358SOL    HW2 1462   2.040   3.839   0.912
  358SOL    HW3 1463   1.965   3.880   0.788
  358SOL    MW4 1464   2.036   3.848   0.826
  359SOL     OW 1465   1.776   3.973   0.751
  359SOL    HW2 1466   1.711   3.930   0.807
  359SOL    HW3 1467   1.771   3.926   0.668
  359SOL    MW4 1468   1.767   3.961   0.748
  360SOL     OW 1469   1.847   4.233   0.799
  360SOL    HW2 1470   1.851   4.235   0.895
  360SOL    HW3 1471   1.817   4.144   0.778
  360SOL    MW4 1472   1.844   4.221   0.809
  361SOL     OW 1473   2.066   4.331   0.676
  361SOL    HW2 1474   1.997   4.292   0.730
  361SOL    HW3 1475   2.052   4.291   0.590
  361SOL    MW4 1476   2.055   4.320   0.672
  362SOL     OW 1477   2.413   4.665   0.849
  362SOL    HW2 1478   2.424   4.673   0.944
  362SOL    HW3 1479   2.489   4.711   0.813
  362SOL    MW4 1480   2.425   4.672   0.857
  363SOL     OW 1481   2.174   0.135   0.815
  363SOL    HW2 1482   2.255   0.084   0.823
  363SOL    HW3 1483   2.157   0.140   0.721
  363SOL    MW4 1484   2.183   0.129   0.804
  364SOL     OW 1485   2.245   0.396   0.881
  364SOL    HW2 1486   2.325   0.419   0.834
  364SOL    HW3 1487   2.222   0.308   0.849
  364SOL    MW4 1488   2.252   0.387   0.871
  365SOL     OW 1489   2.468   0.485   0.740
  365SOL    HW2 1490   2.461   0.444   0.654
  365SOL    HW3 1491   2.552   0.454   0.775
  365SOL    MW4 1492   2.478   0.475   0.734
  366SOL     OW 1493   2.450   0.751   0.789
  366SOL    HW2 1494   2.536   0.766   0.750
  366SOL    HW3 1495   2.431   0.659   0.772
  366SOL    MW4 1496   2.459   0.741   0.782
  367SOL     OW 1497   2.227   0.892   0.760
  367SOL    HW2 1498   2.311   0.846   0.768
  367SOL    HW3 1499   2.230   0.933   0.674
  367SOL    MW4 1500   2.238   0.891   0.750
  368SOL     OW 1501   2.205   1.150   0.848
  368SOL    HW2 1502   2.203   1.162   0.943
  368SOL    HW3 1503   2.226   1.058   0.836
  368SOL    MW4 1504   2.208   1.139   0.859
  369SOL     OW 1505   2.462   1.224   0.784
  369SOL    HW2 1506   2.373   1.201   0.808
  369SOL    HW3 1507   2.460   1.236   0.689
  369SOL    MW4 1508   2.450   1.222   0.775
  370SOL     OW 1509   2.453   1.516   0.865
  370SOL    HW2 1510   2.521   1.575   0.834
  370SOL    HW3 1511   2.478   1.430   0.830
  370SOL    MW4 1512   2.465   1.512   0.856
  371SOL     OW 1513   2.198   1.606   0.766
  371SOL    HW2 1514   2.267   1.544   0.787
  371SOL    HW3 1515   2.207   1.622   0.673
  371SOL    MW4 1516   2.208   1.600   0.757
  372SOL     OW 1517   2.225   1.866   0.857
  372SOL    HW2 1518   2.206   1.775   0.837
  372SOL    HW3 1519   2.145   1.913   0.835
  372SOL    MW4 1520   2.212   1.860   0.851
  373SOL     OW 1521   2.446   1.989   0.752
  373SOL    HW2 1522   2.367   1.942   0.781
  373SOL    HW3 1523   2.429   2.012   0.661
  373SOL    MW4 1524   2.433   1.986   0.744
  374SOL     OW 1525   2.471   2.245   0.862
  374SOL    HW2 1526   2.544   2.274   0.808
  374SOL    HW3 1527   2.457   2.154   0.835
  374SOL    MW4 1528   2.479   2.237   0.851
  375SOL     OW 1529   2.242   2.346   0.742
  375SOL    HW2 1530   2.313   2.310   0.796
  375SOL    HW3 1531   2.162   2.311   0.781
  375SOL    MW4 1532   2.241   2.337   0.754
  376SOL     OW 1533   2.225   2.624   0.765
  376SOL    HW2 1534   2.202   2.637   0.857
  376SOL    HW3 1535   2.215   2.530   0.751
  376SOL    MW4 1536   2.221   2.613   0.775
  377SOL     OW 1537   2.498   2.701   0.711
  377SOL    HW2 1538   2.555   2.668   0.780
  377SOL    HW3 1539   2.414   2.657   0.726
  377SOL    MW4 1540   2.494   2.691   0.722
  378SOL     OW 1541   2.446   2.979   0.808
  378SOL    HW2 1542   2.472   2.992   0.899
  378SOL    HW3 1543   2.441   2.883   0.798
  378SOL    MW4 1544   2.449   2.968   0.819
  379SOL     OW 1545   2.252   3.131   0.692
  379SOL    HW2 1546   2.168   3.095   0.722
  379SOL    HW3 1547   2.317   3.065   0.716
  379SOL    MW4 1548   2.249   3.117   0.699
  380SOL     OW 1549   2.268   3.403   0.816
  380SOL    HW2 1550   2.267   3.322   0.765
  380SOL    HW3 1551   2.185   3.446   0.795
  380SOL    MW4 1552   2.257   3.398   0.807
  381SOL     OW 1553   2.472   3.574   0.751
  381SOL    HW2 1554   2.552   3.523   0.765
  381SOL    HW3 1555   2.403   3.521   0.793
  381SOL    MW4 1556   2.473   3.560   0.759
  382SOL     OW 1557   2.469   3.824   0.855
  382SOL    HW2 1558   2.405   3.879   0.810
  382SOL    HW3 1559   2.460   3.738   0.815
  382SOL    MW4 1560   2.459   3.820   0.844
  383SOL     OW 1561   2.279   3.977   0.724
  383SOL    HW2 1562   2.202   3.930   0.756
  383SOL    HW3 1563   2.262   3.989   0.630
  383SOL    MW4 1564   2.266   3.972   0.715
  384SOL     OW 1565   2.269   4.229   0.822
  384SOL    HW2 1566   2.272   4.140   0.788
  384SOL    HW3 1567   2.199   4.271   0.772
  384SOL    MW4 1568   2.260   4.223   0.811
  385SOL     OW 1569   2.451   4.426   0.710
  385SOL    HW2 1570   2.459   4.501   0.768
  385SOL    HW3 1571   2.404   4.360   0.761
  385SOL    MW4 1572   2.446   4.427   0.724
  386SOL     OW 1573   2.920   4.650   0.845
  386SOL    HW2 1574   2.925   4.566   0.799
  386SOL    HW3 1575   2.831   4.681   0.827
  386SOL    MW4 1576   2.909   4.643   0.836
  387SOL     OW 1577   2.707   4.533   0.501
  387SOL    HW2 1578   2.795   4.533   0.465
  387SOL    HW3 1579   2.676   4.623   0.490
  387SOL    MW4 1580   2.714   4.545   0.495
  388SOL     OW 1581   2.704   0.365   0.848
  388SOL    HW2 1582   2.710   0.374   0.943
  388SOL    HW3 1583   2.777   0.417   0.814
  388SOL    MW4 1584   2.714   0.373   0.856
  389SOL     OW 1585   2.917   0.509   0.726
  389SOL    HW2 1586   2.997   0.472   0.763
  389SOL    HW3 1587   2.934   0.514   0.632
  389SOL    MW4 1588   2.930   0.505   0.719
  390SOL     OW 1589   2.930   0.774   0.818
  390SOL    HW2 1590   2.933   0.787   0.912
  390SOL    HW3 1591   2.912   0.681   0.806
  390SOL    MW4 1592   2.928   0.764   0.829
  391SOL     OW 1593   2.695   0.847   0.679
  391SOL    HW2 1594   2.777   0.833   0.725
  391SOL    HW3 1595   2.708   0.807   0.593
  391SOL    MW4 1596   2.708   0.840   0.673
  392SOL     OW 1597   2.718   1.078   0.820
  392SOL    HW2 1598   2.710   1.004   0.761
  392SOL    HW3 1599   2.632   1.120   0.818
  392SOL    MW4 1600   2.706   1.074   0.812
  393SOL     OW 1601   2.896   1.251   0.700
  393SOL    HW2 1602   2.978   1.206   0.724
  393SOL    HW3 1603   2.829   1.206   0.751
  393SOL    MW4 1604   2.898   1.239   0.710
  394SOL     OW 1605   2.863   1.502   0.861
  394SOL    HW2 1606   2.939   1.556   0.836
  394SOL    HW3 1607   2.876   1.419   0.816
  394SOL    MW4 1608   2.875   1.498   0.852
  395SOL     OW 1609   2.678   1.675   0.785
  395SOL    HW2 1610   2.718   1.761   0.774
  395SOL    HW3 1611   2.739   1.627   0.842
  395SOL    MW4 1612   2.692   1.680   0.791
  396SOL     OW 1613   2.729   1.951   0.836
  396SOL    HW2 1614   2.718   1.929   0.929
  396SOL    HW3 1615   2.639   1.957   0.802
  396SOL    MW4 1616   2.716   1.948   0.844
  397SOL     OW 1617   2.908   2.079   0.685
  397SOL    HW2 1618   2.920   2.169   0.715
  397SOL    HW3 1619   2.853   2.038   0.751
  397SOL    MW4 1620   2.903   2.085   0.697
  398SOL     OW 1621   2.948   2.335   0.782
  398SOL    HW2 1622   2.948   2.342   0.877
  398SOL    HW3 1623   2.859   2.361   0.756
  398SOL    MW4 1624   2.936   2.339   0.791
  399SOL     OW 1625   2.671   2.379   0.716
  399SOL    HW2 1626   2.643   2.413   0.631
  399SOL    HW3 1627   2.661   2.454   0.775
  399SOL    MW4 1628   2.666   2.394   0.713
  400SOL     OW 1629   2.704   2.611   0.884
  400SOL    HW2 1630   2.708   2.639   0.975
  400SOL    HW3 1631   2.779   2.653   0.843
  400SOL    MW4 1632   2.715   2.621   0.891
  401SOL     OW 1633   2.887   2.728   0.492
  401SOL    HW2 1634   2.920   2.647   0.454
  401SOL    HW3 1635   2.793   2.726   0.475
  401SOL    MW4 1636   2.879   2.717   0.485
  402SOL     OW 1637   2.915   3.055   0.810
  402SOL    HW2 1638   2.829   3.086   0.782
  402SOL    HW3 1639   2.911   2.960   0.796
  402SOL    MW4 1640   2.903   3.046   0.804
  403SOL     OW 1641   2.661   3.149   0.698
  403SOL    HW2 1642   2.668   3.232   0.746
  403SOL    HW3 1643   2.582   3.108   0.734
  403SOL    MW4 1644   2.651   3.155   0.709
  404SOL     OW 1645   2.685   3.409   0.809
  404SOL    HW2 1646   2.691   3.407   0.904
  404SOL    HW3 1647   2.771   3.439   0.780
  404SOL    MW4 1648   2.697   3.412   0.818
  405SOL     OW 1649   2.934   3.549   0.734
  405SOL    HW2 1650   2.930   3.640   0.762
  405SOL    HW3 1651   2.962   3.554   0.642
  405SOL    MW4 1652   2.937   3.561   0.725
  406SOL     OW 1653   2.958   3.821   0.846
  406SOL    HW2 1654   2.945   3.811   0.940
  406SOL    HW3 1655   2.877   3.861   0.814
  406SOL    MW4 1656   2.945   3.825   0.854
  407SOL     OW 1657   2.725   3.943   0.759
  407SOL    HW2 1658   2.646   3.914   0.804
  407SOL    HW3 1659   2.711   3.918   0.667
  407SOL    MW4 1660   2.713   3.936   0.753
  408SOL     OW 1661   2.694   4.249   0.759
  408SOL    HW2 1662   2.696   4.278   0.851
  408SOL    HW3 1663   2.725   4.159   0.762
  408SOL    MW4 1664   2.698   4.241   0.772
  409SOL     OW 1665   2.962   4.399   0.733
  409SOL    HW2 1666   3.035   4.354   0.775
  409SOL    HW3 1667   2.885   4.344   0.752
  409SOL    MW4 1668   2.961   4.385   0.741
  410SOL     OW 1669   3.357   4.617   0.828
  410SOL    HW2 1670   3.359   4.620   0.924
  410SOL    HW3 1671   3.286   4.677   0.804
  410SOL    MW4 1672   3.348   4.626   0.838
  411SOL     OW 1673   3.159   0.125   0.754
  411SOL    HW2 1674   3.168   0.212   0.792
  411SOL    HW3 1675   3.074   0.094   0.787
  411SOL    MW4 1676   3.149   0.132   0.763
  412SOL     OW 1677   3.142   0.402   0.831
  412SOL    HW2 1678   3.148   0.415   0.925
  412SOL    HW3 1679   3.230   0.424   0.798
  412SOL    MW4 1680   3.155   0.406   0.839
  413SOL     OW 1681   3.384   0.491   0.760
  413SOL    HW2 1682   3.441   0.426   0.801
  413SOL    HW3 1683   3.412   0.493   0.668
  413SOL    MW4 1684   3.395   0.483   0.753
  414SOL     OW 1685   3.372   0.750   0.850
  414SOL    HW2 1686   3.314   0.783   0.781
  414SOL    HW3 1687   3.379   0.656   0.832
  414SOL    MW4 1688   3.365   0.742   0.838
  415SOL     OW 1689   3.157   0.883   0.705
  415SOL    HW2 1690   3.162   0.971   0.743
  415SOL    HW3 1691   3.087   0.840   0.754
  415SOL    MW4 1692   3.148   0.889   0.717
  416SOL     OW 1693   3.119   1.136   0.812
  416SOL    HW2 1694   3.093   1.107   0.899
  416SOL    HW3 1695   3.157   1.223   0.825
  416SOL    MW4 1696   3.121   1.143   0.825
  417SOL     OW 1697   3.451   1.355   0.669
  417SOL    HW2 1698   3.503   1.293   0.721
  417SOL    HW3 1699   3.511   1.428   0.652
  417SOL    MW4 1700   3.466   1.356   0.673
  418SOL     OW 1701   3.246   1.391   0.854
  418SOL    HW2 1702   3.281   1.426   0.935
  418SOL    HW3 1703   3.323   1.375   0.799
  418SOL    MW4 1704   3.261   1.393   0.857
  419SOL     OW 1705   3.094   1.617   0.793
  419SOL    HW2 1706   3.147   1.539   0.810
  419SOL    HW3 1707   3.083   1.618   0.698
  419SOL    MW4 1708   3.099   1.607   0.783
  420SOL     OW 1709   3.259   1.844   0.827
  420SOL    HW2 1710   3.237   1.887   0.910
  420SOL    HW3 1711   3.203   1.766   0.825
  420SOL    MW4 1712   3.249   1.839   0.838
  421SOL     OW 1713   3.600   2.038   0.868
  421SOL    HW2 1714   3.547   2.117   0.884
  421SOL    HW3 1715   3.554   1.992   0.798
  421SOL    MW4 1716   3.587   2.043   0.861
  422SOL     OW 1717   3.454   2.278   0.858
  422SOL    HW2 1718   3.408   2.277   0.942
  422SOL    HW3 1719   3.534   2.329   0.875
  422SOL    MW4 1720   3.459   2.284   0.872
  423SOL     OW 1721   3.164   2.449   0.668
  423SOL    HW2 1722   3.222   2.377   0.643
  423SOL    HW3 1723   3.084   2.407   0.698
  423SOL    MW4 1724   3.161   2.434   0.669
  424SOL     OW 1725   3.174   2.700   0.850
  424SOL    HW2 1726   3.190   2.608   0.827
  424SOL    HW3 1727   3.224   2.750   0.785
  424SOL    MW4 1728   3.183   2.694   0.838
  425SOL     OW 1729   3.318   2.853   0.664
  425SOL    HW2 1730   3.267   2.880   0.588
  425SOL    HW3 1731   3.395   2.810   0.627
  425SOL    MW4 1732   3.321   2.851   0.649
  426SOL     OW 1733   3.334   3.083   0.849
  426SOL    HW2 1734   3.353   3.089   0.942
  426SOL    HW3 1735   3.342   2.990   0.828
  426SOL    MW4 1736   3.337   3.072   0.858
  427SOL     OW 1737   3.145   3.230   0.701
  427SOL    HW2 1738   3.214   3.182   0.747
  427SOL    HW3 1739   3.068   3.174   0.711
  427SOL    MW4 1740   3.144   3.216   0.709
  428SOL     OW 1741   3.146   3.453   0.862
  428SOL    HW2 1742   3.146   3.370   0.814
  428SOL    HW3 1743   3.068   3.499   0.830
  428SOL    MW4 1744   3.136   3.448   0.851
  429SOL     OW 1745   3.371   3.926   0.615
  429SOL    HW2 1746   3.422   3.908   0.694
  429SOL    HW3 1747   3.348   3.839   0.582
  429SOL    MW4 1748   3.375   3.912   0.621
  430SOL     OW 1749   3.536   3.924   0.829
  430SOL    HW2 1750   3.542   4.017   0.852
  430SOL    HW3 1751   3.485   3.885   0.900
  430SOL    MW4 1752   3.530   3.931   0.841
  431SOL     OW 1753   3.117   4.004   0.692
  431SOL    HW2 1754   3.207   3.977   0.677
  431SOL    HW3 1755   3.078   3.933   0.742
  431SOL    MW4 1756   3.124   3.991   0.697
  432SOL     OW 1757   3.150   4.236   0.844
  432SOL    HW2 1758   3.229   4.265   0.799
  432SOL    HW3 1759   3.136   4.146   0.813
  432SOL    MW4 1760   3.159   4.228   0.834
  433SOL     OW 1761   3.387   4.344   0.748
  433SOL    HW2 1762   3.363   4.435   0.765
  433SOL    HW3 1763   3.451   4.348   0.677
  433SOL    MW4 1764   3.392   4.356   0.741
  434SOL     OW 1765   3.822   4.631   0.901
  434SOL    HW2 1766   3.895   4.688   0.877
  434SOL    HW3 1767   3.743   4.679   0.874
  434SOL    MW4 1768   3.821   4.645   0.894
  435SOL     OW 1769   3.598   0.093   0.846
  435SOL    HW2 1770   3.528   0.029   0.856
  435SOL    HW3 1771   3.596   0.117   0.753
  435SOL    MW4 1772   3.589   0.088   0.835
  436SOL     OW 1773   3.543   0.358   0.926
  436SOL    HW2 1774   3.559   0.375   1.019
  436SOL    HW3 1775   3.558   0.264   0.916
  436SOL    MW4 1776   3.547   0.348   0.937
  437SOL     OW 1777   3.738   0.535   0.787
  437SOL    HW2 1778   3.732   0.611   0.846
  437SOL    HW3 1779   3.683   0.468   0.829
  437SOL    MW4 1780   3.730   0.536   0.800
  438SOL     OW 1781   3.830   0.760   0.913
  438SOL    HW2 1782   3.844   0.793   1.002
  438SOL    HW3 1783   3.909   0.786   0.865
  438SOL    MW4 1784   3.843   0.767   0.919
  439SOL     OW 1785   3.624   0.870   0.755
  439SOL    HW2 1786   3.696   0.823   0.797
  439SOL    HW3 1787   3.546   0.837   0.798
  439SOL    MW4 1788   3.623   0.860   0.766
  440SOL     OW 1789   3.601   1.157   0.824
  440SOL    HW2 1790   3.581   1.166   0.917
  440SOL    HW3 1791   3.622   1.064   0.813
  440SOL    MW4 1792   3.601   1.146   0.835
  441SOL     OW 1793   3.860   1.243   0.755
  441SOL    HW2 1794   3.780   1.202   0.789
  441SOL    HW3 1795   3.871   1.205   0.668
  441SOL    MW4 1796   3.851   1.233   0.748
  442SOL     OW 1797   3.832   1.551   0.797
  442SOL    HW2 1798   3.906   1.599   0.759
  442SOL    HW3 1799   3.840   1.463   0.759
  442SOL    MW4 1800   3.843   1.546   0.787
  443SOL     OW 1801   3.630   1.601   0.626
  443SOL    HW2 1802   3.571   1.663   0.669
  443SOL    HW3 1803   3.700   1.587   0.690
  443SOL    MW4 1804   3.632   1.608   0.640
  444SOL     OW 1805   3.853   2.104   0.770
  444SOL    HW2 1806   3.900   2.038   0.820
  444SOL    HW3 1807   3.762   2.096   0.798
  444SOL    MW4 1808   3.847   2.094   0.780
  445SOL     OW 1809   3.783   2.389   0.669
  445SOL    HW2 1810   3.727   2.402   0.746
  445SOL    HW3 1811   3.813   2.298   0.677
  445SOL    MW4 1812   3.779   2.379   0.680
  446SOL     OW 1813   3.808   1.943   0.540
  446SOL    HW2 1814   3.833   1.999   0.614
  446SOL    HW3 1815   3.769   1.866   0.580
  446SOL    MW4 1816   3.807   1.940   0.555
  447SOL     OW 1817   3.680   2.427   0.905
  447SOL    HW2 1818   3.651   2.516   0.924
  447SOL    HW3 1819   3.744   2.407   0.973
  447SOL    MW4 1820   3.685   2.436   0.916
  448SOL     OW 1821   3.616   2.698   0.904
  448SOL    HW2 1822   3.625   2.718   0.997
  448SOL    HW3 1823   3.697   2.730   0.865
  448SOL    MW4 1824   3.628   2.705   0.911
  449SOL     OW 1825   3.865   2.814   0.765
  449SOL    HW2 1826   3.863   2.900   0.807
  449SOL    HW3 1827   3.884   2.833   0.673
  449SOL    MW4 1828   3.867   2.828   0.758
  450SOL     OW 1829   3.823   3.062   0.847
  450SOL    HW2 1830   3.897   3.105   0.805
  450SOL    HW3 1831   3.747   3.114   0.821
  450SOL    MW4 1832   3.822   3.075   0.838
  451SOL     OW 1833   3.587   3.193   0.777
  451SOL    HW2 1834   3.503   3.158   0.807
  451SOL    HW3 1835   3.581   3.193   0.682
  451SOL    MW4 1836   3.575   3.188   0.769
  452SOL     OW 1837   3.611   3.468   0.874
  452SOL    HW2 1838   3.611   3.376   0.851
  452SOL    HW3 1839   3.548   3.508   0.814
  452SOL    MW4 1840   3.603   3.461   0.863
  453SOL     OW 1841   3.812   3.587   0.716
  453SOL    HW2 1842   3.887   3.539   0.749
  453SOL    HW3 1843   3.737   3.545   0.759
  453SOL    MW4 1844   3.812   3.575   0.726
  454SOL     OW 1845   3.813   3.831   0.851
  454SOL    HW2 1846   3.728   3.875   0.854
  454SOL    HW3 1847   3.796   3.752   0.800
  454SOL    MW4 1848   3.799   3.827   0.845
  455SOL     OW 1849   3.230   4.096   0.258
  455SOL    HW2 1850   3.205   4.188   0.252
  455SOL    HW3 1851   3.211   4.060   0.172
  455SOL    MW4 1852   3.224   4.103   0.246
  456SOL     OW 1853   3.583   4.198   0.854
  456SOL    HW2 1854   3.654   4.247   0.813
  456SOL    HW3 1855   3.503   4.246   0.832
  456SOL    MW4 1856   3.582   4.211   0.846
  457SOL     OW 1857   3.789   4.382   0.768
  457SOL    HW2 1858   3.876   4.350   0.790
  457SOL    HW3 1859   3.779   4.462   0.819
  457SOL    MW4 1860   3.799   4.389   0.778
  458SOL     OW 1861   4.216   4.638   0.845
  458SOL    HW2 1862   4.211   4.638   0.940
  458SOL    HW3 1863   4.142   4.691   0.816
  458SOL    MW4 1864   4.206   4.645   0.854
  459SOL     OW 1865   4.011   0.141   0.784
  459SOL    HW2 1866   3.980   0.226   0.817
  459SOL    HW3 1867   4.007   0.150   0.689
  459SOL    MW4 1868   4.006   0.154   0.776
  460SOL     OW 1869   3.968   0.390   0.892
  460SOL    HW2 1870   4.055   0.425   0.872
  460SOL    HW3 1871   3.908   0.447   0.844
  460SOL    MW4 1872   3.972   0.402   0.883
  461SOL     OW 1873   4.199   0.519   0.789
  461SOL    HW2 1874   4.277   0.466   0.806
  461SOL    HW3 1875   4.185   0.512   0.695
  461SOL    MW4 1876   4.207   0.511   0.779
  462SOL     OW 1877   4.285   0.754   0.871
  462SOL    HW2 1878   4.199   0.793   0.854
  462SOL    HW3 1879   4.280   0.667   0.831
  462SOL    MW4 1880   4.273   0.748   0.863
  463SOL     OW 1881   4.053   0.850   0.776
  463SOL    HW2 1882   4.043   0.939   0.810
  463SOL    HW3 1883   4.075   0.862   0.684
  463SOL    MW4 1884   4.054   0.863   0.768
  464SOL     OW 1885   4.041   1.092   0.887
  464SOL    HW2 1886   4.038   1.119   0.979
  464SOL    HW3 1887   3.971   1.142   0.845
  464SOL    MW4 1888   4.031   1.102   0.893
  465SOL     OW 1889   4.231   1.291   0.770
  465SOL    HW2 1890   4.162   1.239   0.809
  465SOL    HW3 1891   4.312   1.246   0.794
  465SOL    MW4 1892   4.233   1.278   0.778
  466SOL     OW 1893   4.222   1.578   0.842
  466SOL    HW2 1894   4.238   1.584   0.936
  466SOL    HW3 1895   4.219   1.484   0.824
  466SOL    MW4 1896   4.224   1.567   0.852
  467SOL     OW 1897   4.029   1.689   0.666
  467SOL    HW2 1898   4.112   1.646   0.688
  467SOL    HW3 1899   4.044   1.729   0.580
  467SOL    MW4 1900   4.042   1.688   0.658
  468SOL     OW 1901   4.038   1.908   0.862
  468SOL    HW2 1902   4.036   1.825   0.814
  468SOL    HW3 1903   4.097   1.963   0.811
  468SOL    MW4 1904   4.046   1.904   0.849
  469SOL     OW 1905   4.236   2.063   0.744
  469SOL    HW2 1906   4.316   2.028   0.783
  469SOL    HW3 1907   4.248   2.051   0.650
  469SOL    MW4 1908   4.248   2.056   0.737
  470SOL     OW 1909   4.232   2.313   0.837
  470SOL    HW2 1910   4.156   2.359   0.801
  470SOL    HW3 1911   4.230   2.227   0.795
  470SOL    MW4 1912   4.222   2.308   0.827
  471SOL     OW 1913   4.039   2.461   0.716
  471SOL    HW2 1914   4.039   2.539   0.773
  471SOL    HW3 1915   3.946   2.436   0.711
  471SOL    MW4 1916   4.026   2.468   0.723
  472SOL     OW 1917   4.048   2.666   0.899
  472SOL    HW2 1918   4.119   2.724   0.870
  472SOL    HW3 1919   3.969   2.704   0.861
  472SOL    MW4 1920   4.047   2.678   0.890
  473SOL     OW 1921   4.238   2.806   0.752
  473SOL    HW2 1922   4.323   2.769   0.774
  473SOL    HW3 1923   4.229   2.791   0.658
  473SOL    MW4 1924   4.248   2.799   0.743
  474SOL     OW 1925   4.248   3.067   0.875
  474SOL    HW2 1926   4.249   2.978   0.838
  474SOL    HW3 1927   4.319   3.112   0.829
  474SOL    MW4 1928   4.258   3.061   0.864
  475SOL     OW 1929   4.050   3.171   0.726
  475SOL    HW2 1930   4.046   3.259   0.763
  475SOL    HW3 1931   4.113   3.125   0.782
  475SOL    MW4 1932   4.058   3.177   0.739
  476SOL     OW 1933   4.019   3.431   0.838
  476SOL    HW2 1934   4.004   3.429   0.932
  476SOL    HW3 1935   4.091   3.493   0.827
  476SOL    MW4 1936   4.027   3.439   0.849
  477SOL     OW 1937   4.246   3.613   0.778
  477SOL    HW2 1938   4.244   3.709   0.782
  477SOL    HW3 1939   4.240   3.593   0.685
  477SOL    MW4 1940   4.245   3.623   0.767
  478SOL     OW 1941   4.211   3.897   0.832
  478SOL    HW2 1942   4.216   3.907   0.927
  478SOL    HW3 1943   4.138   3.954   0.806
  478SOL    MW4 1944   4.202   3.906   0.841
  479SOL     OW 1945   3.963   4.039   0.760
  479SOL    HW2 1946   3.912   3.963   0.786
  479SOL    HW3 1947   3.934   4.059   0.671
  479SOL    MW4 1948   3.953   4.032   0.751
  480SOL     OW 1949   4.032   4.296   0.847
  480SOL    HW2 1950   4.116   4.324   0.811
  480SOL    HW3 1951   4.020   4.207   0.814
  480SOL    MW4 1952   4.042   4.288   0.838
  481SOL     OW 1953   4.272   4.377   0.752
  481SOL    HW2 1954   4.241   4.465   0.775
  481SOL    HW3 1955   4.331   4.353   0.824
  481SOL    MW4 1956   4.276   4.385   0.764
  482SOL     OW 1957   0.234   0.008   1.135
  482SOL    HW2 1958   0.310   0.061   1.159
  482SOL    HW3 1959   0.230   0.014   1.039
  482SOL    MW4 1960   0.244   0.016   1.125
  483SOL     OW 1961   4.490   0.119   1.255
  483SOL    HW2 1962   4.422   0.062   1.220
  483SOL    HW3 1963   4.572   0.081   1.223
  483SOL    MW4 1964   4.492   0.106   1.246
  484SOL     OW 1965   4.486   0.387   1.136
  484SOL    HW2 1966   4.422   0.427   1.194
  484SOL    HW3 1967   4.485   0.294   1.158
  484SOL    MW4 1968   4.477   0.380   1.146
  485SOL     OW 1969   0.223   0.499   1.249
  485SOL    HW2 1970   0.213   0.591   1.226
  485SOL    HW3 1971   0.153   0.454   1.201
  485SOL    MW4 1972   0.212   0.505   1.239
  486SOL     OW 1973   0.183   0.756   1.167
  486SOL    HW2 1974   0.269   0.795   1.184
  486SOL    HW3 1975   0.121   0.816   1.207
  486SOL    MW4 1976   0.186   0.769   1.174
  487SOL     OW 1977   4.479   0.915   1.271
  487SOL    HW2 1978   4.472   0.906   1.366
  487SOL    HW3 1979   4.404   0.865   1.237
  487SOL    MW4 1980   4.468   0.907   1.279
  488SOL     OW 1981   4.470   1.154   1.122
  488SOL    HW2 1982   4.405   1.220   1.143
  488SOL    HW3 1983   4.449   1.080   1.178
  488SOL    MW4 1984   4.459   1.153   1.132
  489SOL     OW 1985   0.209   1.304   1.252
  489SOL    HW2 1986   0.280   1.244   1.230
  489SOL    HW3 1987   0.130   1.261   1.219
  489SOL    MW4 1988   0.208   1.290   1.245
  490SOL     OW 1989   0.234   1.563   1.160
  490SOL    HW2 1990   0.240   1.470   1.182
  490SOL    HW3 1991   0.199   1.564   1.071
  490SOL    MW4 1992   0.230   1.551   1.151
  491SOL     OW 1993   0.006   1.711   1.249
  491SOL    HW2 1994   0.006   1.797   1.207
  491SOL    HW3 1995   0.088   1.670   1.219
  491SOL    MW4 1996   0.017   1.717   1.239
  492SOL     OW 1997   4.463   1.951   1.141
  492SOL    HW2 1998   4.376   1.966   1.178
  492SOL    HW3 1999   4.450   1.957   1.046
  492SOL    MW4 2000   4.450   1.954   1.133
  493SOL     OW 2001   0.236   2.082   1.210
  493SOL    HW2 2002   0.241   2.170   1.172
  493SOL    HW3 2003   0.150   2.049   1.184
  493SOL    MW4 2004   0.225   2.089   1.202
  494SOL     OW 2005   0.202   2.340   1.136
  494SOL    HW2 2006   0.280   2.373   1.181
  494SOL    HW3 2007   0.130   2.389   1.175
  494SOL    MW4 2008   0.203   2.351   1.147
  495SOL     OW 2009   4.463   2.479   1.214
  495SOL    HW2 2010   4.462   2.464   1.308
  495SOL    HW3 2011   4.403   2.413   1.178
  495SOL    MW4 2012   4.455   2.468   1.221
  496SOL     OW 2013   4.460   2.729   1.132
  496SOL    HW2 2014   4.391   2.776   1.179
  496SOL    HW3 2015   4.463   2.643   1.173
  496SOL    MW4 2016   4.451   2.724   1.143
  497SOL     OW 2017   0.229   2.845   1.191
  497SOL    HW2 2018   0.232   2.840   1.286
  497SOL    HW3 2019   0.149   2.799   1.167
  497SOL    MW4 2020   0.219   2.838   1.200
  498SOL     OW 2021   0.207   3.112   1.134
  498SOL    HW2 2022   0.281   3.158   1.174
  498SOL    HW3 2023   0.220   3.020   1.158
  498SOL    MW4 2024   0.219   3.106   1.142
  499SOL     OW 2025   4.477   3.202   1.265
  499SOL    HW2 2026   4.416   3.142   1.222
  499SOL    HW3 2027   4.564   3.176   1.232
  499SOL    MW4 2028   4.481   3.190   1.255
  500SOL     OW 2029   4.457   3.481   1.157
  500SOL    HW2 2030   4.448   3.392   1.190
  500SOL    HW3 2031   4.444   3.474   1.063
  500SOL    MW4 2032   4.454   3.469   1.149
  501SOL     OW 2033   0.199   3.572   1.261
  501SOL    HW2 2034   0.199   3.569   1.357
  501SOL    HW3 2035   0.117   3.527   1.236
  501SOL    MW4 2036   0.188   3.565   1.270
  502SOL     OW 2037   0.219   3.826   1.157
  502SOL    HW2 2038   0.136   3.856   1.194
  502SOL    HW3 2039   0.223   3.733   1.180
  502SOL    MW4 2040   0.209   3.818   1.165
  503SOL     OW 2041   0.002   3.968   1.240
  503SOL    HW2 2042  -0.006   3.965   1.336
  503SOL    HW3 2043  -0.089   3.973   1.209
  503SOL    MW4 2044  -0.011   3.969   1.249
  504SOL     OW 2045   4.463   4.251   1.212
  504SOL    HW2 2046   4.542   4.300   1.237
  504SOL    HW3 2047   4.479   4.162   1.243
  504SOL    MW4 2048   4.475   4.246   1.219
  505SOL     OW 2049   0.210   4.410   1.208
  505SOL    HW2 2050   0.241   4.408   1.299
  505SOL    HW3 2051   0.211   4.502   1.184
  505SOL    MW4 2052   0.214   4.422   1.217
  506SOL     OW 2053   0.646   4.657   1.125
  506SOL    HW2 2054   0.734   4.677   1.155
  506SOL    HW3 2055   0.635   4.564   1.144
  506SOL    MW4 2056   0.656   4.647   1.132
  507SOL     OW 2057   0.433   0.152   1.229
  507SOL    HW2 2058   0.429   0.242   1.197
  507SOL    HW3 2059   0.509   0.114   1.185
  507SOL    MW4 2060   0.442   0.159   1.219
  508SOL     OW 2061   0.453   0.399   1.133
  508SOL    HW2 2062   0.372   0.433   1.169
  508SOL    HW3 2063   0.442   0.405   1.038
  508SOL    MW4 2064   0.441   0.404   1.125
  509SOL     OW 2065   0.685   0.510   1.227
  509SOL    HW2 2066   0.681   0.605   1.229
  509SOL    HW3 2067   0.603   0.483   1.186
  509SOL    MW4 2068   0.674   0.519   1.222
  510SOL     OW 2069   0.679   0.782   1.180
  510SOL    HW2 2070   0.596   0.829   1.189
  510SOL    HW3 2071   0.688   0.767   1.086
  510SOL    MW4 2072   0.669   0.786   1.168
  511SOL     OW 2073   0.419   0.875   1.227
  511SOL    HW2 2074   0.396   0.865   1.319
  511SOL    HW3 2075   0.396   0.965   1.206
  511SOL    MW4 2076   0.413   0.885   1.236
  512SOL     OW 2077   0.414   1.140   1.152
  512SOL    HW2 2078   0.489   1.180   1.195
  512SOL    HW3 2079   0.433   1.148   1.058
  512SOL    MW4 2080   0.426   1.146   1.145
  513SOL     OW 2081   0.649   1.291   1.256
  513SOL    HW2 2082   0.727   1.254   1.217
  513SOL    HW3 2083   0.637   1.376   1.212
  513SOL    MW4 2084   0.658   1.298   1.245
  514SOL     OW 2085   0.699   1.550   1.116
  514SOL    HW2 2086   0.778   1.598   1.141
  514SOL    HW3 2087   0.626   1.604   1.148
  514SOL    MW4 2088   0.699   1.563   1.123
  515SOL     OW 2089   0.480   1.691   1.200
  515SOL    HW2 2090   0.469   1.707   1.294
  515SOL    HW3 2091   0.395   1.655   1.172
  515SOL    MW4 2092   0.467   1.688   1.209
  516SOL     OW 2093   0.434   1.936   1.093
  516SOL    HW2 2094   0.445   1.855   1.143
  516SOL    HW3 2095   0.361   1.981   1.135
  516SOL    MW4 2096   0.426   1.931   1.105
  517SOL     OW 2097   0.674   2.060   1.164
  517SOL    HW2 2098   0.678   2.034   1.256
  517SOL    HW3 2099   0.605   2.005   1.127
  517SOL    MW4 2100   0.665   2.049   1.172
  518SOL     OW 2101   0.682   2.339   1.131
  518SOL    HW2 2102   0.604   2.377   1.172
  518SOL    HW3 2103   0.672   2.245   1.142
  518SOL    MW4 2104   0.670   2.332   1.138
  519SOL     OW 2105   0.436   2.449   1.231
  519SOL    HW2 2106   0.446   2.460   1.325
  519SOL    HW3 2107   0.446   2.537   1.195
  519SOL    MW4 2108   0.438   2.462   1.238
  520SOL     OW 2109   0.455   2.707   1.110
  520SOL    HW2 2110   0.375   2.754   1.135
  520SOL    HW3 2111   0.452   2.707   1.014
  520SOL    MW4 2112   0.444   2.714   1.100
  521SOL     OW 2113   0.662   2.862   1.241
  521SOL    HW2 2114   0.664   2.943   1.189
  521SOL    HW3 2115   0.591   2.811   1.202
  521SOL    MW4 2116   0.653   2.866   1.229
  522SOL     OW 2117   0.687   3.099   1.106
  522SOL    HW2 2118   0.763   3.146   1.139
  522SOL    HW3 2119   0.693   3.106   1.011
  522SOL    MW4 2120   0.697   3.106   1.098
  523SOL     OW 2121   0.463   3.203   1.223
  523SOL    HW2 2122   0.456   3.292   1.189
  523SOL    HW3 2123   0.546   3.170   1.189
  523SOL    MW4 2124   0.473   3.211   1.214
  524SOL     OW 2125   0.425   3.480   1.139
  524SOL    HW2 2126   0.498   3.518   1.189
  524SOL    HW3 2127   0.347   3.504   1.189
  524SOL    MW4 2128   0.424   3.488   1.152
  525SOL     OW 2129   0.665   3.601   1.242
  525SOL    HW2 2130   0.685   3.616   1.335
  525SOL    HW3 2131   0.651   3.688   1.206
  525SOL    MW4 2132   0.666   3.614   1.250
  526SOL     OW 2133   0.657   3.860   1.133
  526SOL    HW2 2134   0.587   3.916   1.164
  526SOL    HW3 2135   0.640   3.849   1.039
  526SOL    MW4 2136   0.646   3.866   1.124
  527SOL     OW 2137   0.431   3.977   1.247
  527SOL    HW2 2138   0.415   4.063   1.210
  527SOL    HW3 2139   0.357   3.923   1.219
  527SOL    MW4 2140   0.419   3.981   1.239
  528SOL     OW 2141   0.403   4.226   1.134
  528SOL    HW2 2142   0.482   4.278   1.148
  528SOL    HW3 2143   0.332   4.282   1.165
  528SOL    MW4 2144   0.404   4.240   1.140
  529SOL     OW 2145   0.644   4.369   1.204
  529SOL    HW2 2146   0.654   4.382   1.298
  529SOL    HW3 2147   0.722   4.319   1.178
  529SOL    MW4 2148   0.656   4.364   1.213
  530SOL     OW 2149   1.089   4.611   1.108
  530SOL    HW2 2150   1.098   4.525   1.149
  530SOL    HW3 2151   1.099   4.594   1.014
  530SOL    MW4 2152   1.092   4.598   1.101
  531SOL     OW 2153   0.884   0.086   1.223
  531SOL    HW2 2154   0.903   0.081   1.317
  531SOL    HW3 2155   0.960   0.047   1.181
  531SOL    MW4 2156   0.896   0.080   1.230
  532SOL     OW 2157   0.899   0.334   1.092
  532SOL    HW2 2158   0.900   0.254   1.144
  532SOL    HW3 2159   0.817   0.377   1.115
  532SOL    MW4 2160   0.889   0.329   1.102
  533SOL     OW 2161   1.090   0.508   1.225
  533SOL    HW2 2162   1.112   0.489   1.317
  533SOL    HW3 2163   1.018   0.449   1.205
  533SOL    MW4 2164   1.084   0.498   1.235
  534SOL     OW 2165   1.121   0.772   1.135
  534SOL    HW2 2166   1.056   0.828   1.177
  534SOL    HW3 2167   1.107   0.686   1.174
  534SOL    MW4 2168   1.111   0.768   1.146
  535SOL     OW 2169   0.921   0.912   1.256
  535SOL    HW2 2170   0.904   1.005   1.241
  535SOL    HW3 2171   0.838   0.868   1.237
  535SOL    MW4 2172   0.908   0.918   1.252
  536SOL     OW 2173   0.881   1.171   1.156
  536SOL    HW2 2174   0.962   1.219   1.173
  536SOL    HW3 2175   0.899   1.123   1.074
  536SOL    MW4 2176   0.894   1.171   1.147
  537SOL     OW 2177   1.115   1.302   1.228
  537SOL    HW2 2178   1.124   1.324   1.321
  537SOL    HW3 2179   1.196   1.256   1.207
  537SOL    MW4 2180   1.127   1.299   1.237
  538SOL     OW 2181   1.134   1.564   1.113
  538SOL    HW2 2182   1.121   1.483   1.162
  538SOL    HW3 2183   1.136   1.536   1.021
  538SOL    MW4 2184   1.133   1.550   1.107
  539SOL     OW 2185   0.921   1.708   1.200
  539SOL    HW2 2186   0.910   1.782   1.140
  539SOL    HW3 2187   0.996   1.660   1.166
  539SOL    MW4 2188   0.929   1.712   1.188
  540SOL     OW 2189   0.900   1.950   1.061
  540SOL    HW2 2190   0.972   1.977   1.118
  540SOL    HW3 2191   0.825   2.001   1.092
  540SOL    MW4 2192   0.900   1.960   1.073
  541SOL     OW 2193   1.093   2.062   1.235
  541SOL    HW2 2194   1.076   2.090   1.325
  541SOL    HW3 2195   1.128   2.140   1.191
  541SOL    MW4 2196   1.095   2.076   1.241
  542SOL     OW 2197   1.157   2.314   1.073
  542SOL    HW2 2198   1.237   2.354   1.107
  542SOL    HW3 2199   1.086   2.366   1.111
  542SOL    MW4 2200   1.158   2.326   1.082
  543SOL     OW 2201   0.937   2.442   1.188
  543SOL    HW2 2202   0.948   2.440   1.283
  543SOL    HW3 2203   0.855   2.395   1.172
  543SOL    MW4 2204   0.928   2.436   1.199
  544SOL     OW 2205   0.857   2.695   1.122
  544SOL    HW2 2206   0.873   2.610   1.164
  544SOL    HW3 2207   0.785   2.733   1.173
  544SOL    MW4 2208   0.850   2.689   1.134
  545SOL     OW 2209   1.094   2.797   1.228
  545SOL    HW2 2210   1.076   2.800   1.322
  545SOL    HW3 2211   1.010   2.773   1.188
  545SOL    MW4 2212   1.080   2.794   1.235
  546SOL     OW 2213   1.090   3.067   1.121
  546SOL    HW2 2214   1.097   2.973   1.140
  546SOL    HW3 2215   1.094   3.071   1.025
  546SOL    MW4 2216   1.091   3.055   1.111
  547SOL     OW 2217   0.881   3.212   1.235
  547SOL    HW2 2218   0.887   3.298   1.192
  547SOL    HW3 2219   0.952   3.161   1.196
  547SOL    MW4 2220   0.891   3.217   1.224
  548SOL     OW 2221   0.915   3.478   1.134
  548SOL    HW2 2222   0.838   3.528   1.160
  548SOL    HW3 2223   0.918   3.487   1.039
  548SOL    MW4 2224   0.905   3.486   1.125
  549SOL     OW 2225   1.150   3.616   1.192
  549SOL    HW2 2226   1.209   3.542   1.209
  549SOL    HW3 2227   1.071   3.576   1.156
  549SOL    MW4 2228   1.147   3.601   1.190
  550SOL     OW 2229   1.149   3.879   1.113
  550SOL    HW2 2230   1.067   3.885   1.163
  550SOL    HW3 2231   1.183   3.792   1.134
  550SOL    MW4 2232   1.142   3.868   1.122
  551SOL     OW 2233   0.907   3.937   1.252
  551SOL    HW2 2234   0.898   3.935   1.347
  551SOL    HW3 2235   0.823   3.907   1.219
  551SOL    MW4 2236   0.895   3.933   1.260
  552SOL     OW 2237   0.866   4.213   1.167
  552SOL    HW2 2238   0.878   4.122   1.194
  552SOL    HW3 2239   0.873   4.211   1.071
  552SOL    MW4 2240   0.869   4.200   1.158
  553SOL     OW 2241   1.095   4.363   1.196
  553SOL    HW2 2242   1.115   4.360   1.290
  553SOL    HW3 2243   1.008   4.323   1.189
  553SOL    MW4 2244   1.086   4.357   1.208
  554SOL     OW 2245   1.548   4.631   1.140
  554SOL    HW2 2246   1.611   4.691   1.179
  554SOL    HW3 2247   1.566   4.547   1.181
  554SOL    MW4 2248   1.558   4.628   1.150
  555SOL     OW 2249   1.293   0.111   1.222
  555SOL    HW2 2250   1.367   0.056   1.194
  555SOL    HW3 2251   1.216   0.056   1.210
  555SOL    MW4 2252   1.293   0.096   1.217
  556SOL     OW 2253   1.306   0.372   1.123
  556SOL    HW2 2254   1.281   0.288   1.160
  556SOL    HW3 2255   1.241   0.434   1.156
  556SOL    MW4 2256   1.294   0.369   1.132
  557SOL     OW 2257   1.546   0.477   1.234
  557SOL    HW2 2258   1.545   0.569   1.207
  557SOL    HW3 2259   1.465   0.441   1.200
  557SOL    MW4 2260   1.535   0.485   1.226
  558SOL     OW 2261   1.573   0.719   1.148
  558SOL    HW2 2262   1.658   0.763   1.153
  558SOL    HW3 2263   1.560   0.701   1.055
  558SOL    MW4 2264   1.583   0.722   1.137
  559SOL     OW 2265   1.367   0.903   1.229
  559SOL    HW2 2266   1.435   0.837   1.216
  559SOL    HW3 2267   1.289   0.866   1.186
  559SOL    MW4 2268   1.365   0.889   1.222
  560SOL     OW 2269   1.364   1.183   1.135
  560SOL    HW2 2270   1.366   1.096   1.175
  560SOL    HW3 2271   1.363   1.166   1.041
  560SOL    MW4 2272   1.364   1.169   1.128
  561SOL     OW 2273   1.597   1.267   1.256
  561SOL    HW2 2274   1.676   1.236   1.212
  561SOL    HW3 2275   1.526   1.215   1.217
  561SOL    MW4 2276   1.598   1.256   1.245
  562SOL     OW 2277   1.572   1.508   1.127
  562SOL    HW2 2278   1.657   1.526   1.166
  562SOL    HW3 2279   1.549   1.420   1.158
  562SOL    MW4 2280   1.580   1.499   1.136
  563SOL     OW 2281   1.385   1.687   1.210
  563SOL    HW2 2282   1.454   1.626   1.183
  563SOL    HW3 2283   1.304   1.646   1.179
  563SOL    MW4 2284   1.383   1.673   1.203
  564SOL     OW 2285   1.326   1.947   1.098
  564SOL    HW2 2286   1.343   1.857   1.125
  564SOL    HW3 2287   1.236   1.965   1.128
  564SOL    MW4 2288   1.316   1.938   1.106
  565SOL     OW 2289   1.554   2.071   1.236
  565SOL    HW2 2290   1.579   2.160   1.212
  565SOL    HW3 2291   1.478   2.051   1.182
  565SOL    MW4 2292   1.547   2.080   1.226
  566SOL     OW 2293   1.615   2.306   1.080
  566SOL    HW2 2294   1.537   2.354   1.110
  566SOL    HW3 2295   1.602   2.297   0.985
  566SOL    MW4 2296   1.603   2.311   1.071
  567SOL     OW 2297   1.383   2.417   1.188
  567SOL    HW2 2298   1.366   2.408   1.282
  567SOL    HW3 2299   1.371   2.511   1.171
  567SOL    MW4 2300   1.379   2.428   1.198
  568SOL     OW 2301   1.298   2.670   1.089
  568SOL    HW2 2302   1.379   2.714   1.112
  568SOL    HW3 2303   1.229   2.721   1.132
  568SOL    MW4 2304   1.299   2.682   1.098
  569SOL     OW 2305   1.548   2.746   1.206
  569SOL    HW2 2306   1.627   2.708   1.169
  569SOL    HW3 2307   1.559   2.840   1.194
  569SOL    MW4 2308   1.560   2.754   1.199
  570SOL     OW 2309   1.566   3.014   1.145
  570SOL    HW2 2310   1.643   3.061   1.175
  570SOL    HW3 2311   1.492   3.065   1.178
  570SOL    MW4 2312   1.566   3.027   1.153
  571SOL     OW 2313   1.347   3.169   1.227
  571SOL    HW2 2314   1.334   3.181   1.321
  571SOL    HW3 2315   1.263   3.139   1.194
  571SOL    MW4 2316   1.334   3.167   1.235
  572SOL     OW 2317   1.361   3.429   1.196
  572SOL    HW2 2318   1.361   3.336   1.216
  572SOL    HW3 2319   1.384   3.433   1.103
  572SOL    MW4 2320   1.364   3.417   1.186
  573SOL     OW 2321   1.557   3.611   1.230
  573SOL    HW2 2322   1.543   3.695   1.186
  573SOL    HW3 2323   1.478   3.560   1.211
  573SOL    MW4 2324   1.545   3.615   1.222
  574SOL     OW 2325   1.521   3.865   1.139
  574SOL    HW2 2326   1.465   3.935   1.175
  574SOL    HW3 2327   1.506   3.868   1.045
  574SOL    MW4 2328   1.512   3.875   1.132
  575SOL     OW 2329   1.337   4.022   1.269
  575SOL    HW2 2330   1.343   4.110   1.231
  575SOL    HW3 2331   1.263   3.982   1.225
  575SOL    MW4 2332   1.328   4.029   1.258
  576SOL     OW 2333   1.350   4.248   1.119
  576SOL    HW2 2334   1.263   4.288   1.126
  576SOL    HW3 2335   1.370   4.250   1.025
  576SOL    MW4 2336   1.341   4.253   1.107
  577SOL     OW 2337   1.590   4.357   1.192
  577SOL    HW2 2338   1.591   4.352   1.287
  577SOL    HW3 2339   1.510   4.313   1.166
  577SOL    MW4 2340   1.580   4.351   1.201
  578SOL     OW 2341   1.973   4.653   1.127
  578SOL    HW2 2342   1.988   4.559   1.129
  578SOL    HW3 2343   1.947   4.671   1.037
  578SOL    MW4 2344   1.971   4.643   1.115
  579SOL     OW 2345   1.747   0.138   1.224
  579SOL    HW2 2346   1.754   0.221   1.175
  579SOL    HW3 2347   1.816   0.083   1.187
  579SOL    MW4 2348   1.757   0.142   1.212
  580SOL     OW 2349   1.779   0.394   1.102
  580SOL    HW2 2350   1.705   0.441   1.141
  580SOL    HW3 2351   1.775   0.416   1.009
  580SOL    MW4 2352   1.769   0.403   1.095
  581SOL     OW 2353   1.998   0.528   1.218
  581SOL    HW2 2354   2.003   0.519   1.313
  581SOL    HW3 2355   1.925   0.472   1.192
  581SOL    MW4 2356   1.989   0.520   1.227
  582SOL     OW 2357   2.024   0.783   1.103
  582SOL    HW2 2358   2.012   0.695   1.140
  582SOL    HW3 2359   2.015   0.770   1.008
  582SOL    MW4 2360   2.021   0.770   1.095
  583SOL     OW 2361   1.785   0.879   1.186
  583SOL    HW2 2362   1.792   0.880   1.281
  583SOL    HW3 2363   1.866   0.838   1.155
  583SOL    MW4 2364   1.796   0.874   1.194
  584SOL     OW 2365   1.789   1.148   1.087
  584SOL    HW2 2366   1.780   1.056   1.113
  584SOL    HW3 2367   1.760   1.150   0.996
  584SOL    MW4 2368   1.784   1.136   1.079
  585SOL     OW 2369   2.031   1.267   1.212
  585SOL    HW2 2370   2.101   1.203   1.198
  585SOL    HW3 2371   1.951   1.219   1.193
  585SOL    MW4 2372   2.030   1.252   1.208
  586SOL     OW 2373   2.017   1.518   1.082
  586SOL    HW2 2374   2.013   1.430   1.119
  586SOL    HW3 2375   2.017   1.504   0.987
  586SOL    MW4 2376   2.017   1.504   1.074
  587SOL     OW 2377   1.795   1.627   1.222
  587SOL    HW2 2378   1.794   1.722   1.215
  587SOL    HW3 2379   1.878   1.600   1.183
  587SOL    MW4 2380   1.806   1.636   1.216
  588SOL     OW 2381   1.802   1.901   1.160
  588SOL    HW2 2382   1.732   1.952   1.200
  588SOL    HW3 2383   1.785   1.906   1.066
  588SOL    MW4 2384   1.791   1.908   1.153
  589SOL     OW 2385   2.032   2.046   1.196
  589SOL    HW2 2386   2.033   2.064   1.290
  589SOL    HW3 2387   1.953   1.995   1.182
  589SOL    MW4 2388   2.022   2.042   1.207
  590SOL     OW 2389   2.060   2.322   1.098
  590SOL    HW2 2390   2.134   2.371   1.132
  590SOL    HW3 2391   2.064   2.237   1.142
  590SOL    MW4 2392   2.070   2.317   1.108
  591SOL     OW 2393   1.823   2.427   1.204
  591SOL    HW2 2394   1.909   2.393   1.180
  591SOL    HW3 2395   1.762   2.387   1.142
  591SOL    MW4 2396   1.826   2.417   1.193
  592SOL     OW 2397   1.797   2.689   1.087
  592SOL    HW2 2398   1.804   2.597   1.111
  592SOL    HW3 2399   1.806   2.690   0.992
  592SOL    MW4 2400   1.799   2.677   1.078
  593SOL     OW 2401   2.026   2.821   1.200
  593SOL    HW2 2402   2.021   2.913   1.175
  593SOL    HW3 2403   1.949   2.782   1.159
  593SOL    MW4 2404   2.015   2.828   1.191
  594SOL     OW 2405   2.025   3.071   1.079
  594SOL    HW2 2406   1.953   3.123   1.116
  594SOL    HW3 2407   2.005   3.067   0.986
  594SOL    MW4 2408   2.012   3.077   1.072
  595SOL     OW 2409   1.809   3.179   1.200
  595SOL    HW2 2410   1.805   3.169   1.295
  595SOL    HW3 2411   1.774   3.267   1.185
  595SOL    MW4 2412   1.804   3.190   1.211
  596SOL     OW 2413   1.774   3.460   1.129
  596SOL    HW2 2414   1.855   3.495   1.166
  596SOL    HW3 2415   1.705   3.512   1.168
  596SOL    MW4 2416   1.776   3.471   1.139
  597SOL     OW 2417   2.028   3.584   1.186
  597SOL    HW2 2418   2.043   3.579   1.280
  597SOL    HW3 2419   2.094   3.525   1.148
  597SOL    MW4 2420   2.039   3.576   1.194
  598SOL     OW 2421   2.021   3.835   1.089
  598SOL    HW2 2422   1.945   3.871   1.134
  598SOL    HW3 2423   2.032   3.748   1.127
  598SOL    MW4 2424   2.012   3.828   1.100
  599SOL     OW 2425   1.800   3.965   1.184
  599SOL    HW2 2426   1.800   3.970   1.280
  599SOL    HW3 2427   1.715   3.926   1.162
  599SOL    MW4 2428   1.789   3.960   1.194
  600SOL     OW 2429   1.821   4.228   1.088
  600SOL    HW2 2430   1.805   4.144   1.130
  600SOL    HW3 2431   1.737   4.274   1.093
  600SOL    MW4 2432   1.808   4.223   1.094
  601SOL     OW 2433   2.033   4.374   1.188
  601SOL    HW2 2434   2.035   4.391   1.282
  601SOL    HW3 2435   1.955   4.320   1.174
  601SOL    MW4 2436   2.023   4.369   1.198
  602SOL     OW 2437   2.438   4.658   1.123
  602SOL    HW2 2438   2.522   4.696   1.149
  602SOL    HW3 2439   2.373   4.712   1.170
  602SOL    MW4 2440   2.440   4.671   1.133
  603SOL     OW 2441   2.220   0.118   1.221
  603SOL    HW2 2442   2.216   0.212   1.205
  603SOL    HW3 2443   2.142   0.082   1.178
  603SOL    MW4 2444   2.209   0.125   1.213
  604SOL     OW 2445   2.208   0.385   1.141
  604SOL    HW2 2446   2.142   0.452   1.160
  604SOL    HW3 2447   2.224   0.394   1.047
  604SOL    MW4 2448   2.201   0.395   1.131
  605SOL     OW 2449   2.442   0.495   1.204
  605SOL    HW2 2450   2.449   0.501   1.300
  605SOL    HW3 2451   2.352   0.465   1.189
  605SOL    MW4 2452   2.431   0.492   1.215
  606SOL     OW 2453   2.464   0.749   1.076
  606SOL    HW2 2454   2.474   0.658   1.104
  606SOL    HW3 2455   2.452   0.744   0.982
  606SOL    MW4 2456   2.464   0.736   1.068
  607SOL     OW 2457   2.254   0.858   1.242
  607SOL    HW2 2458   2.324   0.821   1.188
  607SOL    HW3 2459   2.175   0.844   1.191
  607SOL    MW4 2460   2.253   0.851   1.228
  608SOL     OW 2461   2.240   1.111   1.136
  608SOL    HW2 2462   2.303   1.171   1.177
  608SOL    HW3 2463   2.253   1.028   1.183
  608SOL    MW4 2464   2.250   1.108   1.148
  609SOL     OW 2465   2.466   1.263   1.220
  609SOL    HW2 2466   2.538   1.221   1.172
  609SOL    HW3 2467   2.465   1.353   1.188
  609SOL    MW4 2468   2.475   1.269   1.210
  610SOL     OW 2469   2.465   1.557   1.150
  610SOL    HW2 2470   2.383   1.589   1.187
  610SOL    HW3 2471   2.451   1.560   1.055
  610SOL    MW4 2472   2.453   1.562   1.142
  611SOL     OW 2473   2.206   1.636   1.229
  611SOL    HW2 2474   2.207   1.721   1.186
  611SOL    HW3 2475   2.147   1.582   1.176
  611SOL    MW4 2476   2.198   1.640   1.217
  612SOL     OW 2477   2.237   1.888   1.121
  612SOL    HW2 2478   2.156   1.935   1.138
  612SOL    HW3 2479   2.237   1.873   1.026
  612SOL    MW4 2480   2.227   1.892   1.111
  613SOL     OW 2481   2.471   2.006   1.261
  613SOL    HW2 2482   2.548   1.964   1.223
  613SOL    HW3 2483   2.397   1.957   1.226
  613SOL    MW4 2484   2.471   1.994   1.251
  614SOL     OW 2485   2.464   2.296   1.136
  614SOL    HW2 2486   2.464   2.208   1.173
  614SOL    HW3 2487   2.471   2.283   1.042
  614SOL    MW4 2488   2.465   2.283   1.128
  615SOL     OW 2489   2.268   2.466   1.214
  615SOL    HW2 2490   2.277   2.452   1.308
  615SOL    HW3 2491   2.341   2.418   1.175
  615SOL    MW4 2492   2.279   2.458   1.221
  616SOL     OW 2493   2.203   2.672   1.059
  616SOL    HW2 2494   2.229   2.597   1.113
  616SOL    HW3 2495   2.138   2.719   1.111
  616SOL    MW4 2496   2.198   2.668   1.073
  617SOL     OW 2497   2.449   2.753   1.185
  617SOL    HW2 2498   2.430   2.743   1.278
  617SOL    HW3 2499   2.367   2.731   1.142
  617SOL    MW4 2500   2.436   2.749   1.192
  618SOL     OW 2501   2.501   3.016   1.065
  618SOL    HW2 2502   2.434   3.074   1.100
  618SOL    HW3 2503   2.488   2.933   1.112
  618SOL    MW4 2504   2.490   3.012   1.076
  619SOL     OW 2505   2.275   3.163   1.176
  619SOL    HW2 2506   2.274   3.254   1.146
  619SOL    HW3 2507   2.193   3.126   1.143
  619SOL    MW4 2508   2.264   3.170   1.168
  620SOL     OW 2509   2.259   3.435   1.089
  620SOL    HW2 2510   2.334   3.480   1.128
  620SOL    HW3 2511   2.281   3.427   0.996
  620SOL    MW4 2512   2.272   3.440   1.082
  621SOL     OW 2513   2.507   3.584   1.180
  621SOL    HW2 2514   2.499   3.593   1.275
  621SOL    HW3 2515   2.518   3.674   1.149
  621SOL    MW4 2516   2.508   3.597   1.189
  622SOL     OW 2517   2.503   3.861   1.127
  622SOL    HW2 2518   2.421   3.897   1.160
  622SOL    HW3 2519   2.490   3.854   1.033
  622SOL    MW4 2520   2.490   3.865   1.119
  623SOL     OW 2521   2.268   3.965   1.195
  623SOL    HW2 2522   2.274   4.054   1.160
  623SOL    HW3 2523   2.183   3.933   1.165
  623SOL    MW4 2524   2.257   3.973   1.187
  624SOL     OW 2525   2.250   4.219   1.103
  624SOL    HW2 2526   2.175   4.274   1.127
  624SOL    HW3 2527   2.256   4.227   1.008
  624SOL    MW4 2528   2.241   4.228   1.093
  625SOL     OW 2529   2.472   4.378   1.213
  625SOL    HW2 2530   2.393   4.328   1.193
  625SOL    HW3 2531   2.448   4.469   1.192
  625SOL    MW4 2532   2.458   4.383   1.208
  626SOL     OW 2533   2.909   4.637   1.131
  626SOL    HW2 2534   2.892   4.548   1.160
  626SOL    HW3 2535   2.907   4.632   1.036
  626SOL    MW4 2536   2.906   4.625   1.122
  627SOL     OW 2537   2.673   0.121   1.210
  627SOL    HW2 2538   2.672   0.115   1.305
  627SOL    HW3 2539   2.755   0.079   1.184
  627SOL    MW4 2540   2.684   0.115   1.219
  628SOL     OW 2541   2.677   0.371   1.118
  628SOL    HW2 2542   2.680   0.284   1.158
  628SOL    HW3 2543   2.590   0.404   1.138
  628SOL    MW4 2544   2.666   0.364   1.126
  629SOL     OW 2545   2.900   0.504   1.224
  629SOL    HW2 2546   2.918   0.590   1.185
  629SOL    HW3 2547   2.813   0.481   1.191
  629SOL    MW4 2548   2.891   0.513   1.214
  630SOL     OW 2549   2.926   0.770   1.088
  630SOL    HW2 2550   3.000   0.812   1.132
  630SOL    HW3 2551   2.849   0.813   1.124
  630SOL    MW4 2552   2.926   0.781   1.098
  631SOL     OW 2553   2.662   0.873   1.216
  631SOL    HW2 2554   2.645   0.964   1.191
  631SOL    HW3 2555   2.595   0.822   1.170
  631SOL    MW4 2556   2.651   0.878   1.207
  632SOL     OW 2557   2.676   1.140   1.100
  632SOL    HW2 2558   2.758   1.180   1.127
  632SOL    HW3 2559   2.689   1.117   1.008
  632SOL    MW4 2560   2.688   1.142   1.092
  633SOL     OW 2561   2.897   1.247   1.214
  633SOL    HW2 2562   2.913   1.242   1.308
  633SOL    HW3 2563   2.905   1.340   1.193
  633SOL    MW4 2564   2.900   1.259   1.223
  634SOL     OW 2565   2.916   1.506   1.141
  634SOL    HW2 2566   2.989   1.564   1.163
  634SOL    HW3 2567   2.908   1.512   1.046
  634SOL    MW4 2568   2.925   1.514   1.131
  635SOL     OW 2569   2.716   1.662   1.221
  635SOL    HW2 2570   2.779   1.595   1.193
  635SOL    HW3 2571   2.631   1.624   1.201
  635SOL    MW4 2572   2.713   1.648   1.215
  636SOL     OW 2573   2.704   1.923   1.121
  636SOL    HW2 2574   2.777   1.984   1.131
  636SOL    HW3 2575   2.735   1.842   1.161
  636SOL    MW4 2576   2.718   1.920   1.128
  637SOL     OW 2577   2.935   2.084   1.154
  637SOL    HW2 2578   2.932   2.068   1.249
  637SOL    HW3 2579   2.939   2.179   1.146
  637SOL    MW4 2580   2.935   2.094   1.166
  638SOL     OW 2581   2.921   2.368   1.059
  638SOL    HW2 2582   2.989   2.425   1.095
  638SOL    HW3 2583   2.843   2.390   1.109
  638SOL    MW4 2584   2.920   2.379   1.070
  639SOL     OW 2585   2.703   2.399   1.215
  639SOL    HW2 2586   2.703   2.397   1.311
  639SOL    HW3 2587   2.626   2.349   1.190
  639SOL    MW4 2588   2.693   2.392   1.225
  640SOL     OW 2589   2.716   2.677   1.150
  640SOL    HW2 2590   2.715   2.586   1.181
  640SOL    HW3 2591   2.636   2.715   1.185
  640SOL    MW4 2592   2.705   2.670   1.158
  641SOL     OW 2593   2.947   2.840   1.232
  641SOL    HW2 2594   2.924   2.850   1.325
  641SOL    HW3 2595   2.887   2.773   1.200
  641SOL    MW4 2596   2.936   2.832   1.240
  642SOL     OW 2597   2.951   3.085   1.099
  642SOL    HW2 2598   2.946   2.999   1.140
  642SOL    HW3 2599   2.948   3.067   1.005
  642SOL    MW4 2600   2.950   3.072   1.092
  643SOL     OW 2601   2.701   3.181   1.163
  643SOL    HW2 2602   2.782   3.140   1.134
  643SOL    HW3 2603   2.633   3.116   1.143
  643SOL    MW4 2604   2.703   3.167   1.156
  644SOL     OW 2605   2.717   3.446   1.075
  644SOL    HW2 2606   2.714   3.355   1.104
  644SOL    HW3 2607   2.639   3.486   1.114
  644SOL    MW4 2608   2.706   3.440   1.084
  645SOL     OW 2609   2.909   3.613   1.229
  645SOL    HW2 2610   2.987   3.567   1.199
  645SOL    HW3 2611   2.839   3.578   1.173
  645SOL    MW4 2612   2.910   3.602   1.217
  646SOL     OW 2613   2.912   3.860   1.126
  646SOL    HW2 2614   2.981   3.915   1.163
  646SOL    HW3 2615   2.924   3.774   1.167
  646SOL    MW4 2616   2.922   3.856   1.137
  647SOL     OW 2617   2.706   4.025   1.183
  647SOL    HW2 2618   2.775   3.968   1.149
  647SOL    HW3 2619   2.624   3.978   1.163
  647SOL    MW4 2620   2.704   4.011   1.176
  648SOL     OW 2621   2.670   4.273   1.031
  648SOL    HW2 2622   2.679   4.186   1.069
  648SOL    HW3 2623   2.609   4.319   1.089
  648SOL    MW4 2624   2.664   4.268   1.043
  649SOL     OW 2625   2.877   4.380   1.203
  649SOL    HW2 2626   2.960   4.336   1.188
  649SOL    HW3 2627   2.816   4.340   1.141
  649SOL    MW4 2628   2.880   4.369   1.193
  650SOL     OW 2629   3.380   4.649   1.093
  650SOL    HW2 2630   3.451   4.693   1.141
  650SOL    HW3 2631   3.300   4.685   1.130
  650SOL    MW4 2632   3.379   4.659   1.104
  651SOL     OW 2633   3.153   0.106   1.214
  651SOL    HW2 2634   3.156   0.107   1.309
  651SOL    HW3 2635   3.066   0.070   1.193
  651SOL    MW4 2636   3.142   0.101   1.224
  652SOL     OW 2637   3.156   0.365   1.139
  652SOL    HW2 2638   3.148   0.273   1.165
  652SOL    HW3 2639   3.070   0.403   1.158
  652SOL    MW4 2640   3.144   0.358   1.145
  653SOL     OW 2641   3.349   0.509   1.259
  653SOL    HW2 2642   3.362   0.589   1.207
  653SOL    HW3 2643   3.273   0.467   1.219
  653SOL    MW4 2644   3.341   0.514   1.247
  654SOL     OW 2645   3.390   0.754   1.132
  654SOL    HW2 2646   3.317   0.811   1.157
  654SOL    HW3 2647   3.397   0.765   1.037
  654SOL    MW4 2648   3.381   0.763   1.122
  655SOL     OW 2649   3.155   0.876   1.232
  655SOL    HW2 2650   3.159   0.876   1.327
  655SOL    HW3 2651   3.143   0.968   1.208
  655SOL    MW4 2652   3.154   0.888   1.241
  656SOL     OW 2653   3.099   1.113   1.084
  656SOL    HW2 2654   3.174   1.166   1.110
  656SOL    HW3 2655   3.023   1.159   1.121
  656SOL    MW4 2656   3.099   1.126   1.092
  657SOL     OW 2657   3.302   1.269   1.175
  657SOL    HW2 2658   3.290   1.273   1.270
  657SOL    HW3 2659   3.312   1.360   1.148
  657SOL    MW4 2660   3.302   1.281   1.184
  658SOL     OW 2661   3.352   1.523   1.073
  658SOL    HW2 2662   3.431   1.556   1.116
  658SOL    HW3 2663   3.280   1.568   1.117
  658SOL    MW4 2664   3.353   1.533   1.084
  659SOL     OW 2665   3.133   1.662   1.192
  659SOL    HW2 2666   3.142   1.682   1.285
  659SOL    HW3 2667   3.139   1.748   1.149
  659SOL    MW4 2668   3.135   1.676   1.199
  660SOL     OW 2669   3.179   1.948   1.083
  660SOL    HW2 2670   3.237   1.989   1.148
  660SOL    HW3 2671   3.093   1.988   1.099
  660SOL    MW4 2672   3.175   1.958   1.094
  661SOL     OW 2673   3.361   2.042   1.268
  661SOL    HW2 2674   3.446   2.005   1.245
  661SOL    HW3 2675   3.365   2.132   1.236
  661SOL    MW4 2676   3.373   2.049   1.261
  662SOL     OW 2677   3.369   2.306   1.144
  662SOL    HW2 2678   3.442   2.349   1.188
  662SOL    HW3 2679   3.298   2.369   1.149
  662SOL    MW4 2680   3.369   2.320   1.150
  663SOL     OW 2681   3.149   2.481   1.202
  663SOL    HW2 2682   3.148   2.467   1.297
  663SOL    HW3 2683   3.178   2.571   1.191
  663SOL    MW4 2684   3.153   2.491   1.213
  664SOL     OW 2685   3.203   2.750   1.122
  664SOL    HW2 2686   3.119   2.775   1.160
  664SOL    HW3 2687   3.189   2.753   1.028
  664SOL    MW4 2688   3.190   2.754   1.115
  665SOL     OW 2689   3.396   2.907   1.259
  665SOL    HW2 2690   3.414   2.997   1.231
  665SOL    HW3 2691   3.316   2.883   1.212
  665SOL    MW4 2692   3.388   2.915   1.249
  666SOL     OW 2693   3.381   3.139   1.111
  666SOL    HW2 2694   3.458   3.182   1.149
  666SOL    HW3 2695   3.308   3.173   1.161
  666SOL    MW4 2696   3.382   3.149   1.122
  667SOL     OW 2697   3.172   3.245   1.266
  667SOL    HW2 2698   3.171   3.335   1.234
  667SOL    HW3 2699   3.098   3.203   1.221
  667SOL    MW4 2700   3.162   3.251   1.256
  668SOL     OW 2701   3.153   3.492   1.133
  668SOL    HW2 2702   3.233   3.543   1.149
  668SOL    HW3 2703   3.157   3.471   1.040
  668SOL    MW4 2704   3.164   3.496   1.123
  669SOL     OW 2705   3.381   3.627   1.215
  669SOL    HW2 2706   3.365   3.633   1.309
  669SOL    HW3 2707   3.470   3.595   1.207
  669SOL    MW4 2708   3.390   3.624   1.226
  670SOL     OW 2709   3.394   3.897   1.079
  670SOL    HW2 2710   3.322   3.949   1.116
  670SOL    HW3 2711   3.376   3.807   1.108
  670SOL    MW4 2712   3.382   3.892   1.088
  671SOL     OW 2713   3.157   3.994   1.202
  671SOL    HW2 2714   3.156   3.985   1.297
  671SOL    HW3 2715   3.136   4.086   1.185
  671SOL    MW4 2716   3.154   4.005   1.212
  672SOL     OW 2717   3.114   4.259   1.132
  672SOL    HW2 2718   3.192   4.309   1.157
  672SOL    HW3 2719   3.121   4.248   1.038
  672SOL    MW4 2720   3.126   4.264   1.123
  673SOL     OW 2721   3.371   4.402   1.213
  673SOL    HW2 2722   3.454   4.365   1.183
  673SOL    HW3 2723   3.375   4.494   1.187
  673SOL    MW4 2724   3.383   4.409   1.206
  674SOL     OW 2725   3.840   4.659   1.200
  674SOL    HW2 2726   3.825   4.567   1.224
  674SOL    HW3 2727   3.824   4.662   1.106
  674SOL    MW4 2728   3.836   4.647   1.191
  675SOL     OW 2729   3.589   0.091   1.222
  675SOL    HW2 2730   3.589   0.184   1.199
  675SOL    HW3 2731   3.681   0.067   1.224
  675SOL    MW4 2732   3.601   0.100   1.219
  676SOL     OW 2733   3.589   0.380   1.196
  676SOL    HW2 2734   3.664   0.431   1.227
  676SOL    HW3 2735   3.513   0.420   1.238
  676SOL    MW4 2736   3.589   0.392   1.206
  677SOL     OW 2737   3.800   0.526   1.294
  677SOL    HW2 2738   3.875   0.471   1.273
  677SOL    HW3 2739   3.819   0.610   1.254
  677SOL    MW4 2740   3.812   0.530   1.286
  678SOL     OW 2741   3.835   0.787   1.197
  678SOL    HW2 2742   3.909   0.832   1.237
  678SOL    HW3 2743   3.765   0.852   1.195
  678SOL    MW4 2744   3.835   0.801   1.202
  679SOL     OW 2745   3.602   0.921   1.222
  679SOL    HW2 2746   3.584   1.001   1.173
  679SOL    HW3 2747   3.536   0.858   1.192
  679SOL    MW4 2748   3.591   0.923   1.211
  680SOL     OW 2749   3.550   1.156   1.099
  680SOL    HW2 2750   3.617   1.196   1.154
  680SOL    HW3 2751   3.468   1.197   1.127
  680SOL    MW4 2752   3.548   1.167   1.110
  681SOL     OW 2753   3.769   1.294   1.222
  681SOL    HW2 2754   3.786   1.320   1.313
  681SOL    HW3 2755   3.769   1.376   1.173
  681SOL    MW4 2756   3.771   1.308   1.228
  682SOL     OW 2757   3.800   1.521   1.078
  682SOL    HW2 2758   3.874   1.577   1.101
  682SOL    HW3 2759   3.801   1.519   0.982
  682SOL    MW4 2760   3.810   1.528   1.068
  683SOL     OW 2761   3.570   1.669   1.184
  683SOL    HW2 2762   3.571   1.756   1.143
  683SOL    HW3 2763   3.644   1.623   1.144
  683SOL    MW4 2764   3.580   1.675   1.173
  684SOL     OW 2765   3.595   1.943   1.123
  684SOL    HW2 2766   3.659   1.999   1.167
  684SOL    HW3 2767   3.598   1.971   1.031
  684SOL    MW4 2768   3.604   1.954   1.116
  685SOL     OW 2769   3.759   2.097   1.251
  685SOL    HW2 2770   3.755   2.095   1.347
  685SOL    HW3 2771   3.829   2.034   1.229
  685SOL    MW4 2772   3.768   2.088   1.261
  686SOL     OW 2773   3.809   2.352   1.146
  686SOL    HW2 2774   3.889   2.388   1.183
  686SOL    HW3 2775   3.809   2.260   1.170
  686SOL    MW4 2776   3.819   2.345   1.154
  687SOL     OW 2777   3.577   2.443   1.259
  687SOL    HW2 2778   3.579   2.422   1.352
  687SOL    HW3 2779   3.663   2.418   1.226
  687SOL    MW4 2780   3.588   2.437   1.267
  688SOL     OW 2781   3.591   2.704   1.181
  688SOL    HW2 2782   3.574   2.618   1.220
  688SOL    HW3 2783   3.515   2.757   1.206
  688SOL    MW4 2784   3.579   2.700   1.189
  689SOL     OW 2785   3.822   2.856   1.259
  689SOL    HW2 2786   3.819   2.874   1.353
  689SOL    HW3 2787   3.751   2.793   1.245
  689SOL    MW4 2788   3.812   2.850   1.270
  690SOL     OW 2789   3.821   3.084   1.131
  690SOL    HW2 2790   3.809   2.998   1.172
  690SOL    HW3 2791   3.800   3.070   1.039
  690SOL    MW4 2792   3.816   3.071   1.124
  691SOL     OW 2793   3.604   3.233   1.243
  691SOL    HW2 2794   3.604   3.318   1.199
  691SOL    HW3 2795   3.685   3.191   1.215
  691SOL    MW4 2796   3.615   3.239   1.234
  692SOL     OW 2797   3.611   3.487   1.156
  692SOL    HW2 2798   3.693   3.524   1.189
  692SOL    HW3 2799   3.620   3.486   1.061
  692SOL    MW4 2800   3.623   3.491   1.148
  693SOL     OW 2801   3.831   3.629   1.241
  693SOL    HW2 2802   3.840   3.635   1.336
  693SOL    HW3 2803   3.835   3.719   1.211
  693SOL    MW4 2804   3.833   3.641   1.250
  694SOL     OW 2805   3.853   3.867   1.134
  694SOL    HW2 2806   3.772   3.914   1.149
  694SOL    HW3 2807   3.850   3.842   1.042
  694SOL    MW4 2808   3.842   3.870   1.124
  695SOL     OW 2809   3.612   4.002   1.214
  695SOL    HW2 2810   3.602   3.990   1.309
  695SOL    HW3 2811   3.534   3.962   1.176
  695SOL    MW4 2812   3.601   3.995   1.222
  696SOL     OW 2813   3.593   4.254   1.129
  696SOL    HW2 2814   3.601   4.169   1.171
  696SOL    HW3 2815   3.595   4.235   1.035
  696SOL    MW4 2816   3.594   4.241   1.122
  697SOL     OW 2817   3.821   4.387   1.227
  697SOL    HW2 2818   3.815   4.383   1.323
  697SOL    HW3 2819   3.741   4.344   1.196
  697SOL    MW4 2820   3.810   4.381   1.236
  698SOL     OW 2821   4.258   0.003   1.144
  698SOL    HW2 2822   4.243  -0.080   1.189
  698SOL    HW3 2823   4.201   0.065   1.189
  698SOL    MW4 2824   4.248   0.000   1.156
  699SOL     OW 2825   4.053   0.137   1.263
  699SOL    HW2 2826   4.050   0.144   1.359
  699SOL    HW3 2827   3.978   0.083   1.240
  699SOL    MW4 2828   4.043   0.131   1.273
  700SOL     OW 2829   4.018   0.394   1.180
  700SOL    HW2 2830   4.031   0.300   1.191
  700SOL    HW3 2831   4.004   0.405   1.086
  700SOL    MW4 2832   4.018   0.383   1.169
  701SOL     OW 2833   4.259   0.483   1.267
  701SOL    HW2 2834   4.245   0.478   1.361
  701SOL    HW3 2835   4.178   0.450   1.228
  701SOL    MW4 2836   4.246   0.478   1.274
  702SOL     OW 2837   4.273   0.745   1.171
  702SOL    HW2 2838   4.278   0.653   1.199
  702SOL    HW3 2839   4.286   0.742   1.077
  702SOL    MW4 2840   4.276   0.732   1.163
  703SOL     OW 2841   4.085   0.949   1.269
  703SOL    HW2 2842   4.077   0.930   1.363
  703SOL    HW3 2843   4.158   0.895   1.239
  703SOL    MW4 2844   4.094   0.939   1.278
  704SOL     OW 2845   4.011   1.214   1.148
  704SOL    HW2 2846   4.034   1.139   1.203
  704SOL    HW3 2847   3.918   1.230   1.167
  704SOL    MW4 2848   4.002   1.206   1.158
  705SOL     OW 2849   4.263   1.312   1.221
  705SOL    HW2 2850   4.255   1.309   1.316
  705SOL    HW3 2851   4.176   1.288   1.189
  705SOL    MW4 2852   4.250   1.308   1.229
  706SOL     OW 2853   4.287   1.581   1.121
  706SOL    HW2 2854   4.280   1.491   1.154
  706SOL    HW3 2855   4.357   1.621   1.173
  706SOL    MW4 2856   4.296   1.574   1.132
  707SOL     OW 2857   4.016   1.661   1.194
  707SOL    HW2 2858   4.010   1.653   1.289
  707SOL    HW3 2859   4.106   1.634   1.173
  707SOL    MW4 2860   4.027   1.656   1.204
  708SOL     OW 2861   3.994   1.937   1.148
  708SOL    HW2 2862   3.991   1.843   1.166
  708SOL    HW3 2863   4.011   1.943   1.054
  708SOL    MW4 2864   3.996   1.926   1.138
  709SOL     OW 2865   4.222   2.059   1.237
  709SOL    HW2 2866   4.213   2.147   1.202
  709SOL    HW3 2867   4.143   2.013   1.210
  709SOL    MW4 2868   4.211   2.065   1.228
  710SOL     OW 2869   4.254   2.311   1.121
  710SOL    HW2 2870   4.188   2.362   1.168
  710SOL    HW3 2871   4.243   2.336   1.029
  710SOL    MW4 2872   4.244   2.321   1.115
  711SOL     OW 2873   4.052   2.429   1.270
  711SOL    HW2 2874   4.030   2.405   1.360
  711SOL    HW3 2875   4.051   2.524   1.269
  711SOL    MW4 2876   4.049   2.438   1.282
  712SOL     OW 2877   4.045   2.716   1.184
  712SOL    HW2 2878   3.967   2.766   1.208
  712SOL    HW3 2879   4.028   2.686   1.095
  712SOL    MW4 2880   4.032   2.719   1.176
  713SOL     OW 2881   4.266   2.860   1.266
  713SOL    HW2 2882   4.256   2.951   1.239
  713SOL    HW3 2883   4.188   2.816   1.233
  713SOL    MW4 2884   4.255   2.866   1.258
  714SOL     OW 2885   4.249   3.104   1.152
  714SOL    HW2 2886   4.168   3.140   1.188
  714SOL    HW3 2887   4.238   3.108   1.057
  714SOL    MW4 2888   4.237   3.109   1.144
  715SOL     OW 2889   4.020   3.217   1.258
  715SOL    HW2 2890   4.007   3.194   1.350
  715SOL    HW3 2891   3.949   3.172   1.212
  715SOL    MW4 2892   4.009   3.208   1.264
  716SOL     OW 2893   4.035   3.469   1.127
  716SOL    HW2 2894   4.030   3.387   1.176
  716SOL    HW3 2895   3.971   3.526   1.168
  716SOL    MW4 2896   4.026   3.466   1.139
  717SOL     OW 2897   4.231   3.611   1.241
  717SOL    HW2 2898   4.157   3.566   1.199
  717SOL    HW3 2899   4.309   3.567   1.208
  717SOL    MW4 2900   4.231   3.600   1.231
  718SOL     OW 2901   4.237   3.887   1.101
  718SOL    HW2 2902   4.169   3.928   1.154
  718SOL    HW3 2903   4.256   3.804   1.145
  718SOL    MW4 2904   4.231   3.882   1.114
  719SOL     OW 2905   4.058   4.024   1.244
  719SOL    HW2 2906   4.049   4.106   1.195
  719SOL    HW3 2907   3.981   3.973   1.220
  719SOL    MW4 2908   4.047   4.028   1.235
  720SOL     OW 2909   4.039   4.264   1.116
  720SOL    HW2 2910   3.960   4.309   1.145
  720SOL    HW3 2911   4.036   4.270   1.020
  720SOL    MW4 2912   4.028   4.271   1.107
  721SOL     OW 2913   4.244   4.397   1.240
  721SOL    HW2 2914   4.178   4.345   1.195
  721SOL    HW3 2915   4.325   4.347   1.232
  721SOL    MW4 2916   4.246   4.384   1.233
  722SOL     OW 2917   0.218   4.644   1.613
  722SOL    HW2 2918   0.292   4.687   1.569
  722SOL    HW3 2919   0.147   4.709   1.610
  722SOL    MW4 2920   0.218   4.658   1.607
  723SOL     OW 2921   4.473   0.133   1.559
  723SOL    HW2 2922   4.392   0.088   1.584
  723SOL    HW3 2923   4.463   0.148   1.465
  723SOL    MW4 2924   4.461   0.129   1.550
  724SOL     OW 2925   4.488   0.394   1.639
  724SOL    HW2 2926   4.501   0.383   1.734
  724SOL    HW3 2927   4.468   0.306   1.607
  724SOL    MW4 2928   4.487   0.381   1.648
  725SOL     OW 2929   0.203   0.515   1.520
  725SOL    HW2 2930   0.127   0.462   1.546
  725SOL    HW3 2931   0.195   0.522   1.425
  725SOL    MW4 2932   0.192   0.509   1.511
  726SOL     OW 2933   0.181   0.774   1.658
  726SOL    HW2 2934   0.264   0.805   1.624
  726SOL    HW3 2935   0.164   0.692   1.612
  726SOL    MW4 2936   0.190   0.768   1.648
  727SOL     OW 2937   4.460   0.912   1.544
  727SOL    HW2 2938   4.478   1.002   1.573
  727SOL    HW3 2939   4.529   0.859   1.586
  727SOL    MW4 2940   4.472   0.917   1.553
  728SOL     OW 2941   4.486   1.157   1.622
  728SOL    HW2 2942   4.463   1.192   1.708
  728SOL    HW3 2943   4.561   1.210   1.593
  728SOL    MW4 2944   4.493   1.169   1.629
  729SOL     OW 2945   0.217   1.264   1.517
  729SOL    HW2 2946   0.227   1.353   1.552
  729SOL    HW3 2947   0.220   1.276   1.422
  729SOL    MW4 2948   0.219   1.277   1.509
  730SOL     OW 2949   0.208   1.525   1.601
  730SOL    HW2 2950   0.228   1.534   1.694
  730SOL    HW3 2951   0.125   1.571   1.590
  730SOL    MW4 2952   0.200   1.532   1.612
  731SOL     OW 2953   4.464   1.689   1.523
  731SOL    HW2 2954   4.472   1.777   1.561
  731SOL    HW3 2955   4.492   1.700   1.432
  731SOL    MW4 2956   4.469   1.702   1.516
  732SOL     OW 2957   0.011   1.956   1.630
  732SOL    HW2 2958   0.004   1.954   1.726
  732SOL    HW3 2959  -0.074   1.989   1.601
  732SOL    MW4 2960  -0.001   1.960   1.639
  733SOL     OW 2961   0.254   2.059   1.509
  733SOL    HW2 2962   0.180   2.022   1.558
  733SOL    HW3 2963   0.232   2.045   1.417
  733SOL    MW4 2964   0.241   2.052   1.504
  734SOL     OW 2965   0.202   2.318   1.573
  734SOL    HW2 2966   0.213   2.292   1.664
  734SOL    HW3 2967   0.190   2.235   1.526
  734SOL    MW4 2968   0.202   2.303   1.579
  735SOL     OW 2969   4.465   2.456   1.484
  735SOL    HW2 2970   4.394   2.420   1.538
  735SOL    HW3 2971   4.544   2.410   1.513
  735SOL    MW4 2972   4.466   2.445   1.495
  736SOL     OW 2973   0.012   2.703   1.611
  736SOL    HW2 2974  -0.073   2.746   1.616
  736SOL    HW3 2975   0.001   2.637   1.543
  736SOL    MW4 2976  -0.001   2.700   1.603
  737SOL     OW 2977   0.232   2.821   1.479
  737SOL    HW2 2978   0.312   2.781   1.514
  737SOL    HW3 2979   0.162   2.786   1.534
  737SOL    MW4 2980   0.234   2.811   1.491
  738SOL     OW 2981   0.257   3.061   1.607
  738SOL    HW2 2982   0.175   3.106   1.586
  738SOL    HW3 2983   0.247   2.974   1.568
  738SOL    MW4 2984   0.245   3.056   1.599
  739SOL     OW 2985   4.479   3.183   1.548
  739SOL    HW2 2986   4.467   3.277   1.557
  739SOL    HW3 2987   4.471   3.166   1.454
  739SOL    MW4 2988   4.476   3.193   1.537
  740SOL     OW 2989   4.448   3.465   1.590
  740SOL    HW2 2990   4.448   3.478   1.684
  740SOL    HW3 2991   4.379   3.522   1.557
  740SOL    MW4 2992   4.439   3.474   1.598
  741SOL     OW 2993   0.197   3.584   1.527
  741SOL    HW2 2994   0.205   3.672   1.564
  741SOL    HW3 2995   0.123   3.546   1.573
  741SOL    MW4 2996   0.189   3.591   1.538
  742SOL     OW 2997   0.206   3.847   1.614
  742SOL    HW2 2998   0.194   3.870   1.706
  742SOL    HW3 2999   0.281   3.900   1.586
  742SOL    MW4 3000   0.215   3.857   1.622
  743SOL     OW 3001   4.464   3.972   1.511
  743SOL    HW2 3002   4.467   4.057   1.555
  743SOL    HW3 3003   4.546   3.928   1.537
  743SOL    MW4 3004   4.475   3.977   1.520
  744SOL     OW 3005   0.014   4.227   1.618
  744SOL    HW2 3006   0.002   4.225   1.713
  744SOL    HW3 3007  -0.065   4.268   1.584
  744SOL    MW4 3008   0.002   4.232   1.627
  745SOL     OW 3009   0.215   4.388   1.505
  745SOL    HW2 3010   0.147   4.333   1.544
  745SOL    HW3 3011   0.208   4.471   1.552
  745SOL    MW4 3012   0.205   4.392   1.516
  746SOL     OW 3013   0.681   4.653   1.587
  746SOL    HW2 3014   0.761   4.692   1.552
  746SOL    HW3 3015   0.611   4.708   1.554
  746SOL    MW4 3016   0.683   4.665   1.578
  747SOL     OW 3017   0.423   0.134   1.519
  747SOL    HW2 3018   0.400   0.214   1.566
  747SOL    HW3 3019   0.441   0.164   1.430
  747SOL    MW4 3020   0.423   0.149   1.513
  748SOL     OW 3021   0.435   0.387   1.621
  748SOL    HW2 3022   0.504   0.435   1.576
  748SOL    HW3 3023   0.354   0.426   1.588
  748SOL    MW4 3024   0.433   0.399   1.611
  749SOL     OW 3025   0.657   0.496   1.515
  749SOL    HW2 3026   0.660   0.586   1.547
  749SOL    HW3 3027   0.658   0.504   1.420
  749SOL    MW4 3028   0.658   0.509   1.507
  750SOL     OW 3029   0.650   0.759   1.617
  750SOL    HW2 3030   0.655   0.758   1.712
  750SOL    HW3 3031   0.726   0.810   1.589
  750SOL    MW4 3032   0.661   0.765   1.625
  751SOL     OW 3033   0.403   0.838   1.515
  751SOL    HW2 3034   0.416   0.927   1.548
  751SOL    HW3 3035   0.490   0.797   1.521
  751SOL    MW4 3036   0.416   0.844   1.520
  752SOL     OW 3037   0.417   1.104   1.625
  752SOL    HW2 3038   0.494   1.158   1.606
  752SOL    HW3 3039   0.344   1.154   1.589
  752SOL    MW4 3040   0.418   1.118   1.618
  753SOL     OW 3041   0.628   1.261   1.546
  753SOL    HW2 3042   0.641   1.354   1.566
  753SOL    HW3 3043   0.616   1.257   1.451
  753SOL    MW4 3044   0.628   1.273   1.536
  754SOL     OW 3045   0.669   1.528   1.589
  754SOL    HW2 3046   0.736   1.588   1.556
  754SOL    HW3 3047   0.587   1.562   1.553
  754SOL    MW4 3048   0.667   1.541   1.580
  755SOL     OW 3049   0.420   1.645   1.480
  755SOL    HW2 3050   0.417   1.732   1.520
  755SOL    HW3 3051   0.340   1.602   1.509
  755SOL    MW4 3052   0.409   1.651   1.489
  756SOL     OW 3053   0.443   1.904   1.613
  756SOL    HW2 3054   0.436   1.904   1.708
  756SOL    HW3 3055   0.367   1.955   1.583
  756SOL    MW4 3056   0.432   1.911   1.621
  757SOL     OW 3057   0.633   2.001   1.448
  757SOL    HW2 3058   0.710   1.971   1.496
  757SOL    HW3 3059   0.559   1.967   1.497
  757SOL    MW4 3060   0.634   1.993   1.461
  758SOL     OW 3061   0.649   2.304   1.599
  758SOL    HW2 3062   0.564   2.341   1.575
  758SOL    HW3 3063   0.642   2.211   1.577
  758SOL    MW4 3064   0.637   2.297   1.593
  759SOL     OW 3065   0.440   2.454   1.513
  759SOL    HW2 3066   0.427   2.543   1.545
  759SOL    HW3 3067   0.359   2.408   1.534
  759SOL    MW4 3068   0.428   2.460   1.520
  760SOL     OW 3069   0.469   2.726   1.592
  760SOL    HW2 3070   0.461   2.737   1.687
  760SOL    HW3 3071   0.551   2.770   1.570
  760SOL    MW4 3072   0.479   2.733   1.602
  761SOL     OW 3073   0.700   2.846   1.520
  761SOL    HW2 3074   0.700   2.938   1.548
  761SOL    HW3 3075   0.699   2.850   1.425
  761SOL    MW4 3076   0.700   2.859   1.511
  762SOL     OW 3077   0.680   3.108   1.605
  762SOL    HW2 3078   0.744   3.160   1.556
  762SOL    HW3 3079   0.595   3.138   1.572
  762SOL    MW4 3080   0.677   3.119   1.594
  763SOL     OW 3081   0.462   3.213   1.492
  763SOL    HW2 3082   0.401   3.145   1.520
  763SOL    HW3 3083   0.468   3.202   1.397
  763SOL    MW4 3084   0.455   3.202   1.483
  764SOL     OW 3085   0.455   3.478   1.563
  764SOL    HW2 3086   0.449   3.389   1.528
  764SOL    HW3 3087   0.366   3.512   1.557
  764SOL    MW4 3088   0.443   3.471   1.557
  765SOL     OW 3089   0.666   3.649   1.506
  765SOL    HW2 3090   0.744   3.605   1.540
  765SOL    HW3 3091   0.594   3.589   1.525
  765SOL    MW4 3092   0.667   3.635   1.513
  766SOL     OW 3093   0.650   3.897   1.617
  766SOL    HW2 3094   0.731   3.924   1.574
  766SOL    HW3 3095   0.648   3.802   1.606
  766SOL    MW4 3096   0.660   3.888   1.610
  767SOL     OW 3097   0.404   4.008   1.519
  767SOL    HW2 3098   0.489   3.976   1.550
  767SOL    HW3 3099   0.410   4.005   1.423
  767SOL    MW4 3100   0.416   4.003   1.510
  768SOL     OW 3101   0.450   4.287   1.628
  768SOL    HW2 3102   0.446   4.195   1.600
  768SOL    HW3 3103   0.369   4.326   1.594
  768SOL    MW4 3104   0.439   4.280   1.620
  769SOL     OW 3105   0.660   4.405   1.481
  769SOL    HW2 3106   0.585   4.356   1.515
  769SOL    HW3 3107   0.659   4.488   1.528
  769SOL    MW4 3108   0.650   4.409   1.492
  770SOL     OW 3109   1.131   4.648   1.612
  770SOL    HW2 3110   1.138   4.656   1.707
  770SOL    HW3 3111   1.204   4.701   1.578
  770SOL    MW4 3112   1.142   4.656   1.620
  771SOL     OW 3113   0.917   0.110   1.513
  771SOL    HW2 3114   0.914   0.199   1.548
  771SOL    HW3 3115   0.994   0.071   1.553
  771SOL    MW4 3116   0.927   0.117   1.523
  772SOL     OW 3117   0.885   0.358   1.606
  772SOL    HW2 3118   0.889   0.386   1.697
  772SOL    HW3 3119   0.799   0.386   1.576
  772SOL    MW4 3120   0.874   0.365   1.614
  773SOL     OW 3121   1.117   0.443   1.493
  773SOL    HW2 3122   1.117   0.530   1.532
  773SOL    HW3 3123   1.037   0.402   1.525
  773SOL    MW4 3124   1.106   0.449   1.502
  774SOL     OW 3125   1.131   0.718   1.565
  774SOL    HW2 3126   1.158   0.719   1.657
  774SOL    HW3 3127   1.191   0.779   1.522
  774SOL    MW4 3128   1.143   0.726   1.572
  775SOL     OW 3129   0.885   0.900   1.532
  775SOL    HW2 3130   0.960   0.855   1.572
  775SOL    HW3 3131   0.900   0.891   1.437
  775SOL    MW4 3132   0.897   0.893   1.525
  776SOL     OW 3133   0.882   1.176   1.571
  776SOL    HW2 3134   0.892   1.082   1.558
  776SOL    HW3 3135   0.788   1.192   1.563
  776SOL    MW4 3136   0.871   1.166   1.568
  777SOL     OW 3137   1.115   1.326   1.526
  777SOL    HW2 3138   1.175   1.258   1.557
  777SOL    HW3 3139   1.028   1.288   1.537
  777SOL    MW4 3140   1.111   1.312   1.532
  778SOL     OW 3141   1.110   1.600   1.614
  778SOL    HW2 3142   1.196   1.628   1.581
  778SOL    HW3 3143   1.098   1.512   1.580
  778SOL    MW4 3144   1.120   1.592   1.605
  779SOL     OW 3145   0.863   1.705   1.466
  779SOL    HW2 3146   0.945   1.683   1.511
  779SOL    HW3 3147   0.882   1.693   1.373
  779SOL    MW4 3148   0.876   1.701   1.460
  780SOL     OW 3149   0.838   1.942   1.631
  780SOL    HW2 3150   0.914   1.993   1.604
  780SOL    HW3 3151   0.837   1.867   1.572
  780SOL    MW4 3152   0.848   1.939   1.620
  781SOL     OW 3153   1.077   2.079   1.511
  781SOL    HW2 3154   1.157   2.028   1.528
  781SOL    HW3 3155   1.090   2.159   1.562
  781SOL    MW4 3156   1.090   2.083   1.520
  782SOL     OW 3157   1.138   2.320   1.614
  782SOL    HW2 3158   1.217   2.343   1.565
  782SOL    HW3 3159   1.069   2.373   1.575
  782SOL    MW4 3160   1.139   2.330   1.602
  783SOL     OW 3161   0.906   2.431   1.479
  783SOL    HW2 3162   0.898   2.518   1.518
  783SOL    HW3 3163   0.821   2.391   1.494
  783SOL    MW4 3164   0.894   2.437   1.486
  784SOL     OW 3165   0.889   2.672   1.605
  784SOL    HW2 3166   0.893   2.693   1.698
  784SOL    HW3 3167   0.820   2.729   1.571
  784SOL    MW4 3168   0.880   2.682   1.613
  785SOL     OW 3169   1.108   2.795   1.506
  785SOL    HW2 3170   1.092   2.887   1.524
  785SOL    HW3 3171   1.034   2.749   1.546
  785SOL    MW4 3172   1.096   2.801   1.514
  786SOL     OW 3173   1.098   3.068   1.582
  786SOL    HW2 3174   1.096   3.084   1.676
  786SOL    HW3 3175   1.178   3.111   1.552
  786SOL    MW4 3176   1.109   3.076   1.590
  787SOL     OW 3177   0.903   3.262   1.502
  787SOL    HW2 3178   0.963   3.195   1.534
  787SOL    HW3 3179   0.907   3.254   1.407
  787SOL    MW4 3180   0.911   3.252   1.494
  788SOL     OW 3181   0.881   3.522   1.606
  788SOL    HW2 3182   0.971   3.546   1.584
  788SOL    HW3 3183   0.872   3.432   1.574
  788SOL    MW4 3184   0.892   3.513   1.599
  789SOL     OW 3185   1.134   3.611   1.527
  789SOL    HW2 3186   1.211   3.559   1.548
  789SOL    HW3 3187   1.126   3.605   1.431
  789SOL    MW4 3188   1.143   3.603   1.517
  790SOL     OW 3189   1.101   3.880   1.637
  790SOL    HW2 3190   1.183   3.921   1.610
  790SOL    HW3 3191   1.114   3.787   1.621
  790SOL    MW4 3192   1.114   3.873   1.631
  791SOL     OW 3193   0.872   3.984   1.508
  791SOL    HW2 3194   0.864   4.071   1.548
  791SOL    HW3 3195   0.953   3.949   1.546
  791SOL    MW4 3196   0.882   3.991   1.519
  792SOL     OW 3197   0.891   4.274   1.575
  792SOL    HW2 3198   0.891   4.285   1.670
  792SOL    HW3 3199   0.809   4.315   1.547
  792SOL    MW4 3200   0.880   4.281   1.584
  793SOL     OW 3201   1.114   4.402   1.487
  793SOL    HW2 3202   1.039   4.359   1.527
  793SOL    HW3 3203   1.126   4.482   1.538
  793SOL    MW4 3204   1.105   4.407   1.499
  794SOL     OW 3205   1.580   4.590   1.572
  794SOL    HW2 3206   1.578   4.574   1.667
  794SOL    HW3 3207   1.509   4.653   1.557
  794SOL    MW4 3208   1.570   4.596   1.583
  795SOL     OW 3209   1.370   0.097   1.494
  795SOL    HW2 3210   1.372   0.188   1.523
  795SOL    HW3 3211   1.341   0.101   1.403
  795SOL    MW4 3212   1.367   0.109   1.486
  796SOL     OW 3213   1.350   0.366   1.613
  796SOL    HW2 3214   1.417   0.423   1.574
  796SOL    HW3 3215   1.267   0.406   1.588
  796SOL    MW4 3216   1.348   0.379   1.605
  797SOL     OW 3217   1.563   0.499   1.503
  797SOL    HW2 3218   1.644   0.454   1.530
  797SOL    HW3 3219   1.569   0.503   1.408
  797SOL    MW4 3220   1.575   0.493   1.494
  798SOL     OW 3221   1.548   0.762   1.622
  798SOL    HW2 3222   1.586   0.750   1.709
  798SOL    HW3 3223   1.545   0.673   1.585
  798SOL    MW4 3224   1.552   0.748   1.628
  799SOL     OW 3225   1.325   0.898   1.505
  799SOL    HW2 3226   1.397   0.858   1.553
  799SOL    HW3 3227   1.356   0.905   1.414
  799SOL    MW4 3228   1.339   0.894   1.499
  800SOL     OW 3229   1.337   1.166   1.589
  800SOL    HW2 3230   1.338   1.149   1.683
  800SOL    HW3 3231   1.328   1.079   1.550
  800SOL    MW4 3232   1.336   1.152   1.596
  801SOL     OW 3233   1.548   1.309   1.520
  801SOL    HW2 3234   1.463   1.264   1.527
  801SOL    HW3 3235   1.570   1.303   1.427
  801SOL    MW4 3236   1.540   1.302   1.508
  802SOL     OW 3237   1.609   1.573   1.605
  802SOL    HW2 3238   1.592   1.573   1.700
  802SOL    HW3 3239   1.596   1.483   1.578
  802SOL    MW4 3240   1.605   1.561   1.614
  803SOL     OW 3241   1.358   1.684   1.511
  803SOL    HW2 3242   1.440   1.648   1.543
  803SOL    HW3 3243   1.378   1.714   1.422
  803SOL    MW4 3244   1.371   1.683   1.503
  804SOL     OW 3245   1.320   1.949   1.595
  804SOL    HW2 3246   1.291   1.944   1.686
  804SOL    HW3 3247   1.341   1.859   1.572
  804SOL    MW4 3248   1.319   1.937   1.604
  805SOL     OW 3249   1.561   2.092   1.524
  805SOL    HW2 3250   1.487   2.035   1.548
  805SOL    HW3 3251   1.565   2.085   1.429
  805SOL    MW4 3252   1.552   2.083   1.515
  806SOL     OW 3253   1.588   2.365   1.617
  806SOL    HW2 3254   1.663   2.384   1.560
  806SOL    HW3 3255   1.576   2.271   1.610
  806SOL    MW4 3256   1.597   2.355   1.609
  807SOL     OW 3257   1.353   2.416   1.480
  807SOL    HW2 3258   1.343   2.503   1.516
  807SOL    HW3 3259   1.433   2.382   1.520
  807SOL    MW4 3260   1.362   2.423   1.490
  808SOL     OW 3261   1.326   2.662   1.589
  808SOL    HW2 3262   1.395   2.709   1.542
  808SOL    HW3 3263   1.244   2.699   1.555
  808SOL    MW4 3264   1.324   2.673   1.578
  809SOL     OW 3265   1.537   2.810   1.469
  809SOL    HW2 3266   1.616   2.774   1.510
  809SOL    HW3 3267   1.539   2.776   1.380
  809SOL    MW4 3268   1.548   2.801   1.463
  810SOL     OW 3269   1.545   3.050   1.604
  810SOL    HW2 3270   1.625   3.088   1.568
  810SOL    HW3 3271   1.540   2.963   1.564
  810SOL    MW4 3272   1.555   3.043   1.594
  811SOL     OW 3273   1.335   3.188   1.497
  811SOL    HW2 3274   1.340   3.277   1.531
  811SOL    HW3 3275   1.409   3.142   1.537
  811SOL    MW4 3276   1.346   3.194   1.507
  812SOL     OW 3277   1.359   3.452   1.569
  812SOL    HW2 3278   1.365   3.441   1.664
  812SOL    HW3 3279   1.438   3.502   1.546
  812SOL    MW4 3280   1.370   3.457   1.579
  813SOL     OW 3281   1.567   3.606   1.522
  813SOL    HW2 3282   1.561   3.698   1.549
  813SOL    HW3 3283   1.572   3.610   1.426
  813SOL    MW4 3284   1.567   3.619   1.513
  814SOL     OW 3285   1.585   3.872   1.605
  814SOL    HW2 3286   1.574   3.862   1.699
  814SOL    HW3 3287   1.506   3.916   1.575
  814SOL    MW4 3288   1.573   3.876   1.613
  815SOL     OW 3289   1.328   3.983   1.556
  815SOL    HW2 3290   1.335   4.072   1.588
  815SOL    HW3 3291   1.332   3.991   1.461
  815SOL    MW4 3292   1.329   3.995   1.548
  816SOL     OW 3293   1.343   4.267   1.599
  816SOL    HW2 3294   1.415   4.297   1.542
  816SOL    HW3 3295   1.265   4.306   1.561
  816SOL    MW4 3296   1.342   4.276   1.587
  817SOL     OW 3297   1.562   4.351   1.458
  817SOL    HW2 3298   1.630   4.297   1.498
  817SOL    HW3 3299   1.572   4.437   1.498
  817SOL    MW4 3300   1.572   4.355   1.468
  818SOL     OW 3301   2.015   4.644   1.590
  818SOL    HW2 3302   2.013   4.652   1.685
  818SOL    HW3 3303   1.940   4.696   1.560
  818SOL    MW4 3304   2.005   4.652   1.598
  819SOL     OW 3305   1.799   0.118   1.483
  819SOL    HW2 3306   1.731   0.055   1.506
  819SOL    HW3 3307   1.788   0.132   1.389
  819SOL    MW4 3308   1.788   0.111   1.474
  820SOL     OW 3309   1.793   0.367   1.598
  820SOL    HW2 3310   1.880   0.404   1.580
  820SOL    HW3 3311   1.793   0.282   1.554
  820SOL    MW4 3312   1.805   0.361   1.590
  821SOL     OW 3313   2.002   0.505   1.503
  821SOL    HW2 3314   2.076   0.453   1.534
  821SOL    HW3 3315   2.009   0.588   1.550
  821SOL    MW4 3316   2.013   0.509   1.513
  822SOL     OW 3317   2.014   0.779   1.582
  822SOL    HW2 3318   2.097   0.821   1.560
  822SOL    HW3 3319   1.948   0.845   1.564
  822SOL    MW4 3320   2.016   0.793   1.577
  823SOL     OW 3321   1.754   0.882   1.468
  823SOL    HW2 3322   1.753   0.965   1.515
  823SOL    HW3 3323   1.686   0.829   1.510
  823SOL    MW4 3324   1.745   0.886   1.480
  824SOL     OW 3325   1.792   1.147   1.598
  824SOL    HW2 3326   1.869   1.192   1.563
  824SOL    HW3 3327   1.718   1.197   1.563
  824SOL    MW4 3328   1.792   1.160   1.589
  825SOL     OW 3329   2.001   1.290   1.504
  825SOL    HW2 3330   2.022   1.378   1.535
  825SOL    HW3 3331   2.014   1.294   1.409
  825SOL    MW4 3332   2.006   1.302   1.495
  826SOL     OW 3333   2.021   1.571   1.604
  826SOL    HW2 3334   2.103   1.610   1.573
  826SOL    HW3 3335   1.953   1.618   1.555
  826SOL    MW4 3336   2.023   1.583   1.593
  827SOL     OW 3337   1.811   1.698   1.485
  827SOL    HW2 3338   1.735   1.659   1.528
  827SOL    HW3 3339   1.800   1.675   1.392
  827SOL    MW4 3340   1.800   1.690   1.478
  828SOL     OW 3341   1.793   1.959   1.601
  828SOL    HW2 3342   1.802   1.874   1.558
  828SOL    HW3 3343   1.711   1.996   1.567
  828SOL    MW4 3344   1.784   1.953   1.591
  829SOL     OW 3345   2.022   2.050   1.462
  829SOL    HW2 3346   2.097   2.004   1.500
  829SOL    HW3 3347   1.946   2.002   1.495
  829SOL    MW4 3348   2.022   2.038   1.472
  830SOL     OW 3349   2.013   2.303   1.583
  830SOL    HW2 3350   2.014   2.282   1.676
  830SOL    HW3 3351   2.017   2.219   1.538
  830SOL    MW4 3352   2.013   2.289   1.589
  831SOL     OW 3353   1.803   2.451   1.472
  831SOL    HW2 3354   1.876   2.402   1.510
  831SOL    HW3 3355   1.812   2.439   1.378
  831SOL    MW4 3356   1.813   2.443   1.465
  832SOL     OW 3357   1.774   2.713   1.584
  832SOL    HW2 3358   1.854   2.745   1.541
  832SOL    HW3 3359   1.765   2.623   1.552
  832SOL    MW4 3360   1.784   2.705   1.574
  833SOL     OW 3361   2.027   2.794   1.495
  833SOL    HW2 3362   2.018   2.889   1.503
  833SOL    HW3 3363   2.033   2.778   1.401
  833SOL    MW4 3364   2.027   2.804   1.484
  834SOL     OW 3365   2.003   3.062   1.548
  834SOL    HW2 3366   2.011   3.077   1.643
  834SOL    HW3 3367   2.084   3.097   1.511
  834SOL    MW4 3368   2.015   3.068   1.556
  835SOL     OW 3369   1.749   3.187   1.487
  835SOL    HW2 3370   1.748   3.279   1.515
  835SOL    HW3 3371   1.834   3.154   1.516
  835SOL    MW4 3372   1.760   3.195   1.494
  836SOL     OW 3373   1.818   3.451   1.565
  836SOL    HW2 3374   1.846   3.459   1.656
  836SOL    HW3 3375   1.744   3.510   1.557
  836SOL    MW4 3376   1.812   3.460   1.576
  837SOL     OW 3377   2.032   3.567   1.464
  837SOL    HW2 3378   2.106   3.516   1.499
  837SOL    HW3 3379   1.955   3.516   1.488
  837SOL    MW4 3380   2.032   3.553   1.472
  838SOL     OW 3381   2.039   3.845   1.577
  838SOL    HW2 3382   2.118   3.883   1.537
  838SOL    HW3 3383   2.029   3.761   1.533
  838SOL    MW4 3384   2.049   3.839   1.566
  839SOL     OW 3385   1.818   3.969   1.459
  839SOL    HW2 3386   1.898   3.943   1.505
  839SOL    HW3 3387   1.747   3.933   1.512
  839SOL    MW4 3388   1.819   3.961   1.472
  840SOL     OW 3389   1.783   4.229   1.540
  840SOL    HW2 3390   1.857   4.278   1.505
  840SOL    HW3 3391   1.795   4.140   1.506
  840SOL    MW4 3392   1.794   4.223   1.531
  841SOL     OW 3393   2.021   4.405   1.469
  841SOL    HW2 3394   2.081   4.356   1.525
  841SOL    HW3 3395   2.015   4.491   1.510
  841SOL    MW4 3396   2.028   4.410   1.482
  842SOL     OW 3397   2.461   4.642   1.577
  842SOL    HW2 3398   2.475   4.644   1.672
  842SOL    HW3 3399   2.380   4.692   1.564
  842SOL    MW4 3400   2.452   4.649   1.588
  843SOL     OW 3401   2.227   0.102   1.485
  843SOL    HW2 3402   2.148   0.059   1.519
  843SOL    HW3 3403   2.216   0.103   1.390
  843SOL    MW4 3404   2.215   0.096   1.477
  844SOL     OW 3405   2.230   0.372   1.600
  844SOL    HW2 3406   2.233   0.369   1.696
  844SOL    HW3 3407   2.245   0.282   1.573
  844SOL    MW4 3408   2.232   0.360   1.609
  845SOL     OW 3409   2.451   0.487   1.473
  845SOL    HW2 3410   2.524   0.463   1.530
  845SOL    HW3 3411   2.374   0.454   1.519
  845SOL    MW4 3412   2.451   0.479   1.487
  846SOL     OW 3413   2.462   0.731   1.628
  846SOL    HW2 3414   2.384   0.778   1.598
  846SOL    HW3 3415   2.452   0.643   1.592
  846SOL    MW4 3416   2.450   0.726   1.619
  847SOL     OW 3417   2.261   0.888   1.520
  847SOL    HW2 3418   2.244   0.979   1.543
  847SOL    HW3 3419   2.265   0.887   1.425
  847SOL    MW4 3420   2.260   0.900   1.511
  848SOL     OW 3421   2.254   1.154   1.585
  848SOL    HW2 3422   2.240   1.146   1.680
  848SOL    HW3 3423   2.174   1.195   1.552
  848SOL    MW4 3424   2.242   1.158   1.593
  849SOL     OW 3425   2.508   1.234   1.497
  849SOL    HW2 3426   2.424   1.206   1.534
  849SOL    HW3 3427   2.491   1.241   1.403
  849SOL    MW4 3428   2.495   1.231   1.489
  850SOL     OW 3429   2.492   1.497   1.608
  850SOL    HW2 3430   2.569   1.545   1.578
  850SOL    HW3 3431   2.504   1.409   1.573
  850SOL    MW4 3432   2.504   1.492   1.600
  851SOL     OW 3433   2.268   1.654   1.516
  851SOL    HW2 3434   2.338   1.594   1.545
  851SOL    HW3 3435   2.265   1.642   1.421
  851SOL    MW4 3436   2.277   1.644   1.508
  852SOL     OW 3437   2.203   1.886   1.608
  852SOL    HW2 3438   2.205   1.898   1.703
  852SOL    HW3 3439   2.233   1.797   1.594
  852SOL    MW4 3440   2.208   1.876   1.619
  853SOL     OW 3441   2.467   2.037   1.556
  853SOL    HW2 3442   2.392   1.985   1.585
  853SOL    HW3 3443   2.471   2.022   1.461
  853SOL    MW4 3444   2.458   2.028   1.547
  854SOL     OW 3445   2.449   2.293   1.641
  854SOL    HW2 3446   2.451   2.286   1.736
  854SOL    HW3 3447   2.456   2.203   1.610
  854SOL    MW4 3448   2.450   2.280   1.649
  855SOL     OW 3449   2.245   2.395   1.478
  855SOL    HW2 3450   2.314   2.371   1.540
  855SOL    HW3 3451   2.164   2.370   1.523
  855SOL    MW4 3452   2.243   2.389   1.492
  856SOL     OW 3453   2.238   2.660   1.615
  856SOL    HW2 3454   2.246   2.577   1.567
  856SOL    HW3 3455   2.161   2.702   1.577
  856SOL    MW4 3456   2.229   2.654   1.603
  857SOL     OW 3457   2.447   2.756   1.462
  857SOL    HW2 3458   2.452   2.847   1.490
  857SOL    HW3 3459   2.375   2.719   1.512
  857SOL    MW4 3460   2.438   2.763   1.472
  858SOL     OW 3461   2.482   3.030   1.553
  858SOL    HW2 3462   2.554   3.089   1.534
  858SOL    HW3 3463   2.403   3.079   1.530
  858SOL    MW4 3464   2.481   3.044   1.547
  859SOL     OW 3465   2.252   3.161   1.449
  859SOL    HW2 3466   2.253   3.252   1.479
  859SOL    HW3 3467   2.270   3.166   1.355
  859SOL    MW4 3468   2.255   3.173   1.441
  860SOL     OW 3469   2.263   3.443   1.552
  860SOL    HW2 3470   2.257   3.456   1.647
  860SOL    HW3 3471   2.337   3.498   1.525
  860SOL    MW4 3472   2.272   3.452   1.561
  861SOL     OW 3473   2.457   3.602   1.456
  861SOL    HW2 3474   2.533   3.560   1.496
  861SOL    HW3 3475   2.467   3.695   1.475
  861SOL    MW4 3476   2.468   3.609   1.464
  862SOL     OW 3477   2.498   3.869   1.543
  862SOL    HW2 3478   2.496   3.876   1.639
  862SOL    HW3 3479   2.581   3.910   1.518
  862SOL    MW4 3480   2.509   3.875   1.552
  863SOL     OW 3481   2.240   3.999   1.472
  863SOL    HW2 3482   2.317   3.966   1.520
  863SOL    HW3 3483   2.262   3.986   1.380
  863SOL    MW4 3484   2.253   3.993   1.466
  864SOL     OW 3485   2.240   4.236   1.584
  864SOL    HW2 3486   2.322   4.279   1.561
  864SOL    HW3 3487   2.236   4.159   1.528
  864SOL    MW4 3488   2.250   4.231   1.574
  865SOL     OW 3489   2.460   4.369   1.497
  865SOL    HW2 3490   2.473   4.461   1.518
  865SOL    HW3 3491   2.459   4.367   1.401
  865SOL    MW4 3492   2.462   4.381   1.487
  866SOL     OW 3493   2.918   0.017   1.580
  866SOL    HW2 3494   2.915   0.016   1.675
  866SOL    HW3 3495   2.832   0.049   1.553
  866SOL    MW4 3496   2.906   0.021   1.589
  867SOL     OW 3497   2.676   0.128   1.497
  867SOL    HW2 3498   2.662   0.214   1.537
  867SOL    HW3 3499   2.602   0.075   1.527
  867SOL    MW4 3500   2.664   0.132   1.506
  868SOL     OW 3501   2.661   0.403   1.625
  868SOL    HW2 3502   2.649   0.404   1.720
  868SOL    HW3 3503   2.741   0.453   1.610
  868SOL    MW4 3504   2.670   0.409   1.635
  869SOL     OW 3505   2.918   0.478   1.501
  869SOL    HW2 3506   2.945   0.559   1.544
  869SOL    HW3 3507   2.911   0.500   1.408
  869SOL    MW4 3508   2.920   0.491   1.494
  870SOL     OW 3509   2.950   0.744   1.584
  870SOL    HW2 3510   2.946   0.769   1.676
  870SOL    HW3 3511   2.870   0.778   1.545
  870SOL    MW4 3512   2.939   0.752   1.591
  871SOL     OW 3513   2.695   0.835   1.492
  871SOL    HW2 3514   2.623   0.784   1.528
  871SOL    HW3 3515   2.669   0.853   1.402
  871SOL    MW4 3516   2.682   0.831   1.485
  872SOL     OW 3517   2.725   1.090   1.606
  872SOL    HW2 3518   2.709   1.006   1.563
  872SOL    HW3 3519   2.651   1.145   1.582
  872SOL    MW4 3520   2.713   1.086   1.597
  873SOL     OW 3521   2.930   1.242   1.506
  873SOL    HW2 3522   3.013   1.205   1.535
  873SOL    HW3 3523   2.863   1.187   1.546
  873SOL    MW4 3524   2.932   1.230   1.515
  874SOL     OW 3525   2.949   1.543   1.573
  874SOL    HW2 3526   2.865   1.586   1.555
  874SOL    HW3 3527   2.941   1.458   1.530
  874SOL    MW4 3528   2.937   1.538   1.565
  875SOL     OW 3529   2.706   1.649   1.496
  875SOL    HW2 3530   2.713   1.736   1.535
  875SOL    HW3 3531   2.710   1.665   1.401
  875SOL    MW4 3532   2.708   1.662   1.488
  876SOL     OW 3533   2.708   1.896   1.610
  876SOL    HW2 3534   2.719   1.913   1.703
  876SOL    HW3 3535   2.626   1.941   1.587
  876SOL    MW4 3536   2.698   1.904   1.619
  877SOL     OW 3537   2.898   2.017   1.442
  877SOL    HW2 3538   2.888   2.101   1.487
  877SOL    HW3 3539   2.829   1.962   1.478
  877SOL    MW4 3540   2.888   2.021   1.452
  878SOL     OW 3541   2.914   2.267   1.550
  878SOL    HW2 3542   2.921   2.250   1.644
  878SOL    HW3 3543   2.824   2.298   1.538
  878SOL    MW4 3544   2.903   2.269   1.561
  879SOL     OW 3545   2.671   2.393   1.515
  879SOL    HW2 3546   2.677   2.484   1.544
  879SOL    HW3 3547   2.588   2.362   1.550
  879SOL    MW4 3548   2.661   2.401   1.524
  880SOL     OW 3549   2.692   2.666   1.611
  880SOL    HW2 3550   2.754   2.729   1.573
  880SOL    HW3 3551   2.607   2.691   1.575
  880SOL    MW4 3552   2.689   2.678   1.601
  881SOL     OW 3553   2.914   2.835   1.502
  881SOL    HW2 3554   2.982   2.779   1.538
  881SOL    HW3 3555   2.920   2.916   1.552
  881SOL    MW4 3556   2.924   2.839   1.513
  882SOL     OW 3557   2.906   3.086   1.619
  882SOL    HW2 3558   2.911   3.088   1.714
  882SOL    HW3 3559   2.980   3.139   1.589
  882SOL    MW4 3560   2.916   3.093   1.627
  883SOL     OW 3561   2.681   3.193   1.449
  883SOL    HW2 3562   2.753   3.151   1.496
  883SOL    HW3 3563   2.709   3.194   1.357
  883SOL    MW4 3564   2.694   3.188   1.443
  884SOL     OW 3565   2.685   3.462   1.549
  884SOL    HW2 3566   2.688   3.444   1.643
  884SOL    HW3 3567   2.682   3.375   1.508
  884SOL    MW4 3568   2.685   3.448   1.556
  885SOL     OW 3569   2.922   3.631   1.505
  885SOL    HW2 3570   2.838   3.599   1.538
  885SOL    HW3 3571   2.917   3.618   1.411
  885SOL    MW4 3572   2.910   3.625   1.497
  886SOL     OW 3573   2.958   3.899   1.592
  886SOL    HW2 3574   2.882   3.934   1.545
  886SOL    HW3 3575   2.962   3.807   1.565
  886SOL    MW4 3576   2.948   3.891   1.582
  887SOL     OW 3577   2.720   4.008   1.473
  887SOL    HW2 3578   2.711   4.098   1.505
  887SOL    HW3 3579   2.709   4.015   1.378
  887SOL    MW4 3580   2.718   4.021   1.465
  888SOL     OW 3581   2.705   4.264   1.596
  888SOL    HW2 3582   2.761   4.324   1.547
  888SOL    HW3 3583   2.616   4.292   1.574
  888SOL    MW4 3584   2.701   4.276   1.587
  889SOL     OW 3585   2.892   4.421   1.476
  889SOL    HW2 3586   2.916   4.512   1.496
  889SOL    HW3 3587   2.879   4.420   1.381
  889SOL    MW4 3588   2.893   4.433   1.466
  890SOL     OW 3589   3.329   4.662   1.637
  890SOL    HW2 3590   3.400   4.719   1.607
  890SOL    HW3 3591   3.342   4.581   1.587
  890SOL    MW4 3592   3.340   4.659   1.626
  891SOL     OW 3593   3.148   0.119   1.480
  891SOL    HW2 3594   3.207   0.078   1.544
  891SOL    HW3 3595   3.060   0.095   1.511
  891SOL    MW4 3596   3.144   0.110   1.493
  892SOL     OW 3597   3.106   0.347   1.622
  892SOL    HW2 3598   3.124   0.271   1.567
  892SOL    HW3 3599   3.031   0.389   1.580
  892SOL    MW4 3600   3.098   0.342   1.609
  893SOL     OW 3601   3.335   0.505   1.530
  893SOL    HW2 3602   3.259   0.450   1.551
  893SOL    HW3 3603   3.340   0.502   1.435
  893SOL    MW4 3604   3.325   0.497   1.520
  894SOL     OW 3605   3.392   0.762   1.616
  894SOL    HW2 3606   3.381   0.777   1.709
  894SOL    HW3 3607   3.366   0.671   1.603
  894SOL    MW4 3608   3.387   0.752   1.626
  895SOL     OW 3609   3.175   0.886   1.501
  895SOL    HW2 3610   3.253   0.850   1.543
  895SOL    HW3 3611   3.102   0.836   1.538
  895SOL    MW4 3612   3.176   0.875   1.512
  896SOL     OW 3613   3.157   1.129   1.616
  896SOL    HW2 3614   3.167   1.106   1.708
  896SOL    HW3 3615   3.154   1.046   1.570
  896SOL    MW4 3616   3.158   1.115   1.622
  897SOL     OW 3617   3.338   1.310   1.470
  897SOL    HW2 3618   3.424   1.270   1.483
  897SOL    HW3 3619   3.277   1.253   1.517
  897SOL    MW4 3620   3.341   1.297   1.478
  898SOL     OW 3621   3.378   1.548   1.587
  898SOL    HW2 3622   3.390   1.552   1.682
  898SOL    HW3 3623   3.350   1.458   1.570
  898SOL    MW4 3624   3.376   1.537   1.597
  899SOL     OW 3625   3.163   1.695   1.473
  899SOL    HW2 3626   3.245   1.660   1.507
  899SOL    HW3 3627   3.095   1.655   1.528
  899SOL    MW4 3628   3.165   1.685   1.485
  900SOL     OW 3629   3.086   1.908   1.626
  900SOL    HW2 3630   3.134   1.848   1.569
  900SOL    HW3 3631   3.008   1.931   1.575
  900SOL    MW4 3632   3.082   1.903   1.612
  901SOL     OW 3633   3.320   2.035   1.557
  901SOL    HW2 3634   3.236   1.990   1.564
  901SOL    HW3 3635   3.343   2.030   1.464
  901SOL    MW4 3636   3.312   2.029   1.545
  902SOL     OW 3637   3.334   2.300   1.637
  902SOL    HW2 3638   3.427   2.318   1.622
  902SOL    HW3 3639   3.321   2.212   1.600
  902SOL    MW4 3640   3.345   2.291   1.630
  903SOL     OW 3641   3.121   2.411   1.466
  903SOL    HW2 3642   3.191   2.355   1.500
  903SOL    HW3 3643   3.040   2.371   1.496
  903SOL    MW4 3644   3.120   2.399   1.474
  904SOL     OW 3645   3.122   2.668   1.609
  904SOL    HW2 3646   3.188   2.723   1.567
  904SOL    HW3 3647   3.129   2.583   1.564
  904SOL    MW4 3648   3.132   2.664   1.597
  905SOL     OW 3649   3.338   2.807   1.513
  905SOL    HW2 3650   3.324   2.887   1.563
  905SOL    HW3 3651   3.370   2.838   1.428
  905SOL    MW4 3652   3.340   2.822   1.508
  906SOL     OW 3653   3.327   3.060   1.633
  906SOL    HW2 3654   3.312   3.089   1.724
  906SOL    HW3 3655   3.399   3.114   1.603
  906SOL    MW4 3656   3.334   3.071   1.641
  907SOL     OW 3657   3.130   3.227   1.535
  907SOL    HW2 3658   3.210   3.182   1.563
  907SOL    HW3 3659   3.134   3.226   1.439
  907SOL    MW4 3660   3.141   3.221   1.526
  908SOL     OW 3661   3.148   3.478   1.620
  908SOL    HW2 3662   3.143   3.392   1.579
  908SOL    HW3 3663   3.065   3.520   1.597
  908SOL    MW4 3664   3.136   3.473   1.612
  909SOL     OW 3665   3.341   3.606   1.476
  909SOL    HW2 3666   3.422   3.561   1.498
  909SOL    HW3 3667   3.272   3.556   1.521
  909SOL    MW4 3668   3.342   3.594   1.485
  910SOL     OW 3669   3.374   3.860   1.597
  910SOL    HW2 3670   3.309   3.912   1.551
  910SOL    HW3 3671   3.363   3.771   1.562
  910SOL    MW4 3672   3.364   3.855   1.586
  911SOL     OW 3673   3.171   4.018   1.474
  911SOL    HW2 3674   3.165   4.111   1.492
  911SOL    HW3 3675   3.093   3.980   1.514
  911SOL    MW4 3676   3.160   4.025   1.482
  912SOL     OW 3677   3.132   4.279   1.553
  912SOL    HW2 3678   3.136   4.282   1.649
  912SOL    HW3 3679   3.056   4.334   1.531
  912SOL    MW4 3680   3.122   4.287   1.563
  913SOL     OW 3681   3.359   4.423   1.489
  913SOL    HW2 3682   3.282   4.367   1.500
  913SOL    HW3 3683   3.383   4.413   1.397
  913SOL    MW4 3684   3.352   4.414   1.478
  914SOL     OW 3685   3.755   0.002   1.611
  914SOL    HW2 3686   3.770  -0.007   1.705
  914SOL    HW3 3687   3.838   0.037   1.577
  914SOL    MW4 3688   3.768   0.006   1.619
  915SOL     OW 3689   3.545   0.142   1.499
  915SOL    HW2 3690   3.614   0.109   1.557
  915SOL    HW3 3691   3.569   0.109   1.412
  915SOL    MW4 3692   3.558   0.133   1.495
  916SOL     OW 3693   3.552   0.397   1.644
  916SOL    HW2 3694   3.554   0.313   1.598
  916SOL    HW3 3695   3.473   0.441   1.612
  916SOL    MW4 3696   3.542   0.392   1.634
  917SOL     OW 3697   3.800   0.509   1.578
  917SOL    HW2 3698   3.711   0.481   1.598
  917SOL    HW3 3699   3.803   0.513   1.482
  917SOL    MW4 3700   3.789   0.506   1.568
  918SOL     OW 3701   3.829   0.782   1.614
  918SOL    HW2 3702   3.758   0.839   1.584
  918SOL    HW3 3703   3.795   0.693   1.602
  918SOL    MW4 3704   3.815   0.778   1.609
  919SOL     OW 3705   3.607   0.907   1.495
  919SOL    HW2 3706   3.534   0.850   1.520
  919SOL    HW3 3707   3.605   0.908   1.399
  919SOL    MW4 3708   3.597   0.899   1.486
  920SOL     OW 3709   3.594   1.180   1.517
  920SOL    HW2 3710   3.684   1.213   1.515
  920SOL    HW3 3711   3.602   1.087   1.496
  920SOL    MW4 3712   3.607   1.172   1.514
  921SOL     OW 3713   3.819   1.327   1.488
  921SOL    HW2 3714   3.897   1.294   1.532
  921SOL    HW3 3715   3.804   1.413   1.527
  921SOL    MW4 3716   3.827   1.334   1.499
  922SOL     OW 3717   3.820   1.580   1.601
  922SOL    HW2 3718   3.811   1.572   1.696
  922SOL    HW3 3719   3.742   1.627   1.573
  922SOL    MW4 3720   3.809   1.585   1.610
  923SOL     OW 3721   3.595   1.660   1.465
  923SOL    HW2 3722   3.520   1.607   1.490
  923SOL    HW3 3723   3.592   1.663   1.370
  923SOL    MW4 3724   3.585   1.653   1.456
  924SOL     OW 3725   3.575   1.891   1.621
  924SOL    HW2 3726   3.591   1.816   1.563
  924SOL    HW3 3727   3.485   1.917   1.603
  924SOL    MW4 3728   3.566   1.884   1.611
  925SOL     OW 3729   3.784   2.059   1.530
  925SOL    HW2 3730   3.788   2.149   1.560
  925SOL    HW3 3731   3.713   2.019   1.580
  925SOL    MW4 3732   3.776   2.066   1.540
  926SOL     OW 3733   3.832   2.315   1.621
  926SOL    HW2 3734   3.823   2.308   1.716
  926SOL    HW3 3735   3.918   2.355   1.607
  926SOL    MW4 3736   3.842   2.319   1.631
  927SOL     OW 3737   3.585   2.394   1.532
  927SOL    HW2 3738   3.570   2.483   1.563
  927SOL    HW3 3739   3.672   2.371   1.567
  927SOL    MW4 3740   3.595   2.402   1.541
  928SOL     OW 3741   3.560   2.664   1.613
  928SOL    HW2 3742   3.566   2.683   1.706
  928SOL    HW3 3743   3.478   2.705   1.585
  928SOL    MW4 3744   3.550   2.672   1.621
  929SOL     OW 3745   3.770   2.849   1.542
  929SOL    HW2 3746   3.848   2.799   1.565
  929SOL    HW3 3747   3.698   2.787   1.551
  929SOL    MW4 3748   3.771   2.835   1.546
  930SOL     OW 3749   3.741   3.083   1.657
  930SOL    HW2 3750   3.810   3.127   1.606
  930SOL    HW3 3751   3.743   2.993   1.626
  930SOL    MW4 3752   3.750   3.077   1.646
  931SOL     OW 3753   3.548   3.226   1.519
  931SOL    HW2 3754   3.631   3.199   1.558
  931SOL    HW3 3755   3.564   3.222   1.424
  931SOL    MW4 3756   3.561   3.222   1.511
  932SOL     OW 3757   3.567   3.499   1.575
  932SOL    HW2 3758   3.649   3.520   1.530
  932SOL    HW3 3759   3.557   3.404   1.563
  932SOL    MW4 3760   3.577   3.489   1.568
  933SOL     OW 3761   3.833   3.605   1.511
  933SOL    HW2 3762   3.911   3.560   1.544
  933SOL    HW3 3763   3.832   3.688   1.559
  933SOL    MW4 3764   3.844   3.610   1.522
  934SOL     OW 3765   3.812   3.868   1.601
  934SOL    HW2 3766   3.883   3.929   1.578
  934SOL    HW3 3767   3.737   3.898   1.550
  934SOL    MW4 3768   3.812   3.880   1.591
  935SOL     OW 3769   3.601   4.003   1.498
  935SOL    HW2 3770   3.581   4.092   1.526
  935SOL    HW3 3771   3.519   3.955   1.507
  935SOL    MW4 3772   3.588   4.009   1.503
  936SOL     OW 3773   3.575   4.267   1.569
  936SOL    HW2 3774   3.571   4.274   1.664
  936SOL    HW3 3775   3.505   4.326   1.538
  936SOL    MW4 3776   3.565   4.276   1.577
  937SOL     OW 3777   3.797   4.406   1.514
  937SOL    HW2 3778   3.725   4.345   1.533
  937SOL    HW3 3779   3.774   4.485   1.563
  937SOL    MW4 3780   3.784   4.408   1.523
  938SOL     OW 3781   4.247   4.658   1.615
  938SOL    HW2 3782   4.242   4.634   1.708
  938SOL    HW3 3783   4.257   4.575   1.570
  938SOL    MW4 3784   4.247   4.644   1.621
  939SOL     OW 3785   3.994   0.142   1.541
  939SOL    HW2 3786   3.994   0.225   1.588
  939SOL    HW3 3787   4.074   0.098   1.568
  939SOL    MW4 3788   4.004   0.147   1.550
  940SOL     OW 3789   4.038   0.372   1.671
  940SOL    HW2 3790   4.047   0.371   1.766
  940SOL    HW3 3791   3.958   0.422   1.655
  940SOL    MW4 3792   4.028   0.378   1.681
  941SOL     OW 3793   4.251   0.536   1.560
  941SOL    HW2 3794   4.175   0.481   1.580
  941SOL    HW3 3795   4.326   0.489   1.598
  941SOL    MW4 3796   4.251   0.522   1.568
  942SOL     OW 3797   4.266   0.786   1.683
  942SOL    HW2 3798   4.270   0.697   1.649
  942SOL    HW3 3799   4.339   0.831   1.641
  942SOL    MW4 3800   4.276   0.780   1.673
  943SOL     OW 3801   4.059   0.906   1.548
  943SOL    HW2 3802   4.134   0.860   1.585
  943SOL    HW3 3803   3.985   0.847   1.563
  943SOL    MW4 3804   4.059   0.892   1.555
  944SOL     OW 3805   4.014   1.171   1.607
  944SOL    HW2 3806   4.017   1.183   1.702
  944SOL    HW3 3807   4.009   1.076   1.595
  944SOL    MW4 3808   4.014   1.160   1.618
  945SOL     OW 3809   4.255   1.254   1.488
  945SOL    HW2 3810   4.177   1.212   1.523
  945SOL    HW3 3811   4.327   1.199   1.519
  945SOL    MW4 3812   4.254   1.241   1.497
  946SOL     OW 3813   4.243   1.532   1.591
  946SOL    HW2 3814   4.249   1.443   1.557
  946SOL    HW3 3815   4.319   1.578   1.553
  946SOL    MW4 3816   4.254   1.527   1.581
  947SOL     OW 3817   4.042   1.676   1.463
  947SOL    HW2 3818   4.122   1.632   1.491
  947SOL    HW3 3819   3.973   1.636   1.516
  947SOL    MW4 3820   4.043   1.665   1.474
  948SOL     OW 3821   4.016   1.926   1.581
  948SOL    HW2 3822   4.007   1.837   1.546
  948SOL    HW3 3823   3.934   1.969   1.557
  948SOL    MW4 3824   4.004   1.920   1.573
  949SOL     OW 3825   4.258   2.047   1.516
  949SOL    HW2 3826   4.174   2.007   1.538
  949SOL    HW3 3827   4.259   2.047   1.420
  949SOL    MW4 3828   4.247   2.041   1.506
  950SOL     OW 3829   4.288   2.305   1.634
  950SOL    HW2 3830   4.278   2.307   1.729
  950SOL    HW3 3831   4.282   2.212   1.611
  950SOL    MW4 3832   4.286   2.293   1.644
  951SOL     OW 3833   4.047   2.434   1.554
  951SOL    HW2 3834   4.030   2.512   1.606
  951SOL    HW3 3835   4.137   2.410   1.573
  951SOL    MW4 3836   4.056   2.441   1.563
  952SOL     OW 3837   3.986   2.697   1.617
  952SOL    HW2 3838   4.011   2.708   1.708
  952SOL    HW3 3839   4.063   2.725   1.567
  952SOL    MW4 3840   3.999   2.702   1.622
  953SOL     OW 3841   4.257   2.800   1.561
  953SOL    HW2 3842   4.245   2.888   1.597
  953SOL    HW3 3843   4.245   2.811   1.467
  953SOL    MW4 3844   4.254   2.813   1.553
  954SOL     OW 3845   4.221   3.058   1.659
  954SOL    HW2 3846   4.222   3.055   1.755
  954SOL    HW3 3847   4.291   3.119   1.637
  954SOL    MW4 3848   4.231   3.066   1.669
  955SOL     OW 3849   3.961   3.172   1.542
  955SOL    HW2 3850   3.983   3.258   1.577
  955SOL    HW3 3851   4.036   3.117   1.566
  955SOL    MW4 3852   3.974   3.176   1.550
  956SOL     OW 3853   4.017   3.414   1.646
  956SOL    HW2 3854   4.008   3.451   1.734
  956SOL    HW3 3855   4.096   3.456   1.611
  956SOL    MW4 3856   4.026   3.425   1.653
  957SOL     OW 3857   4.182   3.611   1.544
  957SOL    HW2 3858   4.213   3.698   1.571
  957SOL    HW3 3859   4.185   3.614   1.448
  957SOL    MW4 3860   4.187   3.623   1.535
  958SOL     OW 3861   4.235   3.865   1.619
  958SOL    HW2 3862   4.167   3.925   1.587
  958SOL    HW3 3863   4.316   3.897   1.581
  958SOL    MW4 3864   4.237   3.877   1.610
  959SOL     OW 3865   4.028   4.038   1.518
  959SOL    HW2 3866   4.007   4.127   1.546
  959SOL    HW3 3867   4.043   4.046   1.423
  959SOL    MW4 3868   4.027   4.051   1.509
  960SOL     OW 3869   4.032   4.286   1.636
  960SOL    HW2 3870   4.018   4.258   1.727
  960SOL    HW3 3871   3.951   4.332   1.613
  960SOL    MW4 3872   4.019   4.289   1.645
  961SOL     OW 3873   4.268   4.384   1.523
  961SOL    HW2 3874   4.189   4.351   1.565
  961SOL    HW3 3875   4.248   4.382   1.429
  961SOL    MW4 3876   4.255   4.380   1.516
  962SOL     OW 3877   0.242   4.625   1.896
  962SOL    HW2 3878   0.314   4.680   1.925
  962SOL    HW3 3879   0.232   4.643   1.803
  962SOL    MW4 3880   0.250   4.634   1.888
  963SOL     OW 3881   0.003   0.091   1.976
  963SOL    HW2 3882  -0.008   0.182   1.949
  963SOL    HW3 3883   0.088   0.065   1.940
  963SOL    MW4 3884   0.013   0.100   1.968
  964SOL     OW 3885   0.015   0.357   1.909
  964SOL    HW2 3886  -0.051   0.420   1.939
  964SOL    HW3 3887   0.098   0.389   1.945
  964SOL    MW4 3888   0.018   0.369   1.918
  965SOL     OW 3889   0.241   0.504   1.980
  965SOL    HW2 3890   0.321   0.468   1.942
  965SOL    HW3 3891   0.236   0.594   1.947
  965SOL    MW4 3892   0.251   0.511   1.971
  966SOL     OW 3893   0.196   0.767   1.923
  966SOL    HW2 3894   0.280   0.814   1.922
  966SOL    HW3 3895   0.168   0.768   1.831
  966SOL    MW4 3896   0.203   0.774   1.910
  967SOL     OW 3897   4.483   0.957   2.017
  967SOL    HW2 3898   4.403   0.910   1.992
  967SOL    HW3 3899   4.555   0.897   1.994
  967SOL    MW4 3900   4.482   0.943   2.011
  968SOL     OW 3901   0.009   1.201   1.896
  968SOL    HW2 3902  -0.069   1.250   1.923
  968SOL    HW3 3903   0.000   1.116   1.940
  968SOL    MW4 3904  -0.003   1.196   1.906
  969SOL     OW 3905   0.254   1.289   2.000
  969SOL    HW2 3906   0.280   1.369   1.953
  969SOL    HW3 3907   0.176   1.259   1.953
  969SOL    MW4 3908   0.247   1.296   1.987
  970SOL     OW 3909   0.251   1.550   1.881
  970SOL    HW2 3910   0.328   1.580   1.930
  970SOL    HW3 3911   0.177   1.594   1.923
  970SOL    MW4 3912   0.252   1.560   1.893
  971SOL     OW 3913   0.029   1.683   1.965
  971SOL    HW2 3914   0.029   1.672   2.061
  971SOL    HW3 3915  -0.045   1.629   1.935
  971SOL    MW4 3916   0.019   1.674   1.974
  972SOL     OW 3917   0.014   1.950   1.902
  972SOL    HW2 3918  -0.066   1.987   1.940
  972SOL    HW3 3919   0.008   1.856   1.920
  972SOL    MW4 3920   0.003   1.942   1.909
  973SOL     OW 3921   0.228   2.083   1.999
  973SOL    HW2 3922   0.233   2.172   1.962
  973SOL    HW3 3923   0.145   2.049   1.964
  973SOL    MW4 3924   0.217   2.090   1.989
  974SOL     OW 3925   0.240   2.319   1.870
  974SOL    HW2 3926   0.315   2.367   1.905
  974SOL    HW3 3927   0.163   2.361   1.909
  974SOL    MW4 3928   0.239   2.331   1.880
  975SOL     OW 3929   0.031   2.432   1.985
  975SOL    HW2 3930   0.014   2.429   2.079
  975SOL    HW3 3931   0.030   2.526   1.964
  975SOL    MW4 3932   0.029   2.444   1.995
  976SOL     OW 3933   0.025   2.702   1.887
  976SOL    HW2 3934  -0.056   2.730   1.930
  976SOL    HW3 3935   0.001   2.695   1.795
  976SOL    MW4 3936   0.011   2.705   1.881
  977SOL     OW 3937   0.213   2.862   2.001
  977SOL    HW2 3938   0.205   2.949   1.962
  977SOL    HW3 3939   0.152   2.808   1.952
  977SOL    MW4 3940   0.204   2.867   1.990
  978SOL     OW 3941   0.203   3.114   1.879
  978SOL    HW2 3942   0.273   3.171   1.910
  978SOL    HW3 3943   0.219   3.106   1.785
  978SOL    MW4 3944   0.214   3.121   1.870
  979SOL     OW 3945   4.463   3.260   1.952
  979SOL    HW2 3946   4.393   3.198   1.973
  979SOL    HW3 3947   4.532   3.206   1.912
  979SOL    MW4 3948   4.463   3.245   1.949
  980SOL     OW 3949   4.454   3.502   1.853
  980SOL    HW2 3950   4.537   3.540   1.882
  980SOL    HW3 3951   4.452   3.415   1.894
  980SOL    MW4 3952   4.465   3.495   1.862
  981SOL     OW 3953   0.219   3.634   1.945
  981SOL    HW2 3954   0.228   3.632   2.040
  981SOL    HW3 3955   0.304   3.602   1.913
  981SOL    MW4 3956   0.232   3.630   1.953
  982SOL     OW 3957   0.200   3.903   1.882
  982SOL    HW2 3958   0.279   3.953   1.901
  982SOL    HW3 3959   0.224   3.812   1.902
  982SOL    MW4 3960   0.214   3.898   1.887
  983SOL     OW 3961   4.458   3.989   1.975
  983SOL    HW2 3962   4.450   4.080   1.948
  983SOL    HW3 3963   4.541   3.960   1.937
  983SOL    MW4 3964   4.468   3.997   1.967
  984SOL     OW 3965   0.005   4.232   1.885
  984SOL    HW2 3966  -0.078   4.271   1.915
  984SOL    HW3 3967   0.073   4.286   1.926
  984SOL    MW4 3968   0.003   4.244   1.894
  985SOL     OW 3969   0.205   4.378   1.988
  985SOL    HW2 3970   0.205   4.379   2.084
  985SOL    HW3 3971   0.201   4.470   1.963
  985SOL    MW4 3972   0.204   4.390   1.997
  986SOL     OW 3973   0.693   0.036   1.873
  986SOL    HW2 3974   0.671  -0.051   1.907
  986SOL    HW3 3975   0.695   0.025   1.778
  986SOL    MW4 3976   0.690   0.023   1.865
  987SOL     OW 3977   0.456   0.119   1.984
  987SOL    HW2 3978   0.450   0.208   1.950
  987SOL    HW3 3979   0.540   0.087   1.952
  987SOL    MW4 3980   0.466   0.127   1.975
  988SOL     OW 3981   0.458   0.359   1.888
  988SOL    HW2 3982   0.523   0.424   1.915
  988SOL    HW3 3983   0.447   0.373   1.794
  988SOL    MW4 3984   0.465   0.370   1.879
  989SOL     OW 3985   0.665   0.505   1.972
  989SOL    HW2 3986   0.665   0.490   2.067
  989SOL    HW3 3987   0.757   0.496   1.947
  989SOL    MW4 3988   0.677   0.502   1.982
  990SOL     OW 3989   0.690   0.761   1.893
  990SOL    HW2 3990   0.777   0.795   1.912
  990SOL    HW3 3991   0.691   0.672   1.928
  990SOL    MW4 3992   0.702   0.753   1.900
  991SOL     OW 3993   0.438   0.881   1.964
  991SOL    HW2 3994   0.464   0.973   1.961
  991SOL    HW3 3995   0.509   0.835   1.919
  991SOL    MW4 3996   0.451   0.887   1.957
  992SOL     OW 3997   0.459   1.158   1.891
  992SOL    HW2 3998   0.385   1.204   1.931
  992SOL    HW3 3999   0.431   1.141   1.801
  992SOL    MW4 4000   0.445   1.162   1.885
  993SOL     OW 4001   0.716   1.255   1.969
  993SOL    HW2 4002   0.694   1.264   2.062
  993SOL    HW3 4003   0.633   1.231   1.927
  993SOL    MW4 4004   0.702   1.253   1.976
  994SOL     OW 4005   0.651   1.525   1.886
  994SOL    HW2 4006   0.680   1.440   1.918
  994SOL    HW3 4007   0.656   1.518   1.791
  994SOL    MW4 4008   0.655   1.513   1.878
  995SOL     OW 4009   0.457   1.666   2.036
  995SOL    HW2 4010   0.462   1.659   2.132
  995SOL    HW3 4011   0.520   1.603   2.004
  995SOL    MW4 4012   0.466   1.657   2.045
  996SOL     OW 4013   0.438   1.921   1.902
  996SOL    HW2 4014   0.419   1.837   1.944
  996SOL    HW3 4015   0.369   1.980   1.934
  996SOL    MW4 4016   0.426   1.918   1.912
  997SOL     OW 4017   0.613   2.112   2.012
  997SOL    HW2 4018   0.621   2.104   2.107
  997SOL    HW3 4019   0.550   2.043   1.988
  997SOL    MW4 4020   0.605   2.102   2.021
  998SOL     OW 4021   0.650   2.358   1.888
  998SOL    HW2 4022   0.610   2.276   1.915
  998SOL    HW3 4023   0.649   2.355   1.792
  998SOL    MW4 4024   0.645   2.347   1.879
  999SOL     OW 4025   0.428   2.476   1.997
  999SOL    HW2 4026   0.426   2.467   2.092
  999SOL    HW3 4027   0.510   2.436   1.970
  999SOL    MW4 4028   0.438   2.469   2.006
 1000SOL     OW 4029   0.428   2.733   1.857
 1000SOL    HW2 4030   0.410   2.641   1.880
 1000SOL    HW3 4031   0.372   2.783   1.917
 1000SOL    MW4 4032   0.418   2.727   1.868
 1001SOL     OW 4033   0.665   2.860   1.998
 1001SOL    HW2 4034   0.648   2.875   2.092
 1001SOL    HW3 4035   0.589   2.809   1.969
 1001SOL    MW4 4036   0.652   2.855   2.007
 1002SOL     OW 4037   0.620   3.120   1.893
 1002SOL    HW2 4038   0.627   3.031   1.927
 1002SOL    HW3 4039   0.642   3.112   1.800
 1002SOL    MW4 4040   0.624   3.107   1.885
 1003SOL     OW 4041   0.396   3.276   1.966
 1003SOL    HW2 4042   0.401   3.361   1.922
 1003SOL    HW3 4043   0.475   3.230   1.937
 1003SOL    MW4 4044   0.407   3.281   1.956
 1004SOL     OW 4045   0.458   3.516   1.836
 1004SOL    HW2 4046   0.533   3.551   1.885
 1004SOL    HW3 4047   0.492   3.502   1.748
 1004SOL    MW4 4048   0.473   3.518   1.831
 1005SOL     OW 4049   0.667   3.630   1.971
 1005SOL    HW2 4050   0.749   3.583   1.951
 1005SOL    HW3 4051   0.681   3.718   1.938
 1005SOL    MW4 4052   0.680   3.635   1.964
 1006SOL     OW 4053   0.678   3.909   1.895
 1006SOL    HW2 4054   0.749   3.969   1.920
 1006SOL    HW3 4055   0.660   3.930   1.804
 1006SOL    MW4 4056   0.685   3.919   1.886
 1007SOL     OW 4057   0.436   4.015   1.977
 1007SOL    HW2 4058   0.448   4.107   1.956
 1007SOL    HW3 4059   0.520   3.974   1.956
 1007SOL    MW4 4060   0.449   4.021   1.971
 1008SOL     OW 4061   0.460   4.272   1.900
 1008SOL    HW2 4062   0.381   4.310   1.938
 1008SOL    HW3 4063   0.453   4.292   1.807
 1008SOL    MW4 4064   0.448   4.279   1.893
 1009SOL     OW 4065   0.672   4.439   1.987
 1009SOL    HW2 4066   0.748   4.410   1.937
 1009SOL    HW3 4067   0.601   4.382   1.957
 1009SOL    MW4 4068   0.672   4.427   1.976
 1010SOL     OW 4069   1.134   0.021   1.871
 1010SOL    HW2 4070   1.217   0.046   1.912
 1010SOL    HW3 4071   1.122  -0.071   1.896
 1010SOL    MW4 4072   1.143   0.012   1.880
 1011SOL     OW 4073   0.921   0.175   1.971
 1011SOL    HW2 4074   0.996   0.123   1.941
 1011SOL    HW3 4075   0.845   0.130   1.935
 1011SOL    MW4 4076   0.921   0.162   1.962
 1012SOL     OW 4077   0.907   0.424   1.865
 1012SOL    HW2 4078   0.995   0.456   1.884
 1012SOL    HW3 4079   0.900   0.342   1.915
 1012SOL    MW4 4080   0.918   0.418   1.874
 1013SOL     OW 4081   1.151   0.504   1.955
 1013SOL    HW2 4082   1.227   0.451   1.934
 1013SOL    HW3 4083   1.166   0.587   1.910
 1013SOL    MW4 4084   1.163   0.508   1.946
 1014SOL     OW 4085   1.189   0.739   1.834
 1014SOL    HW2 4086   1.259   0.789   1.875
 1014SOL    HW3 4087   1.109   0.771   1.876
 1014SOL    MW4 4088   1.188   0.750   1.845
 1015SOL     OW 4089   0.953   0.865   1.948
 1015SOL    HW2 4090   0.943   0.871   2.043
 1015SOL    HW3 4091   0.958   0.956   1.919
 1015SOL    MW4 4092   0.952   0.878   1.957
 1016SOL     OW 4093   0.929   1.124   1.846
 1016SOL    HW2 4094   0.844   1.158   1.874
 1016SOL    HW3 4095   0.940   1.159   1.757
 1016SOL    MW4 4096   0.919   1.133   1.838
 1017SOL     OW 4097   1.146   1.273   1.936
 1017SOL    HW2 4098   1.125   1.363   1.909
 1017SOL    HW3 4099   1.064   1.225   1.925
 1017SOL    MW4 4100   1.133   1.279   1.931
 1018SOL     OW 4101   1.090   1.544   1.887
 1018SOL    HW2 4102   1.026   1.600   1.930
 1018SOL    HW3 4103   1.091   1.572   1.796
 1018SOL    MW4 4104   1.082   1.555   1.881
 1019SOL     OW 4105   0.839   1.682   1.996
 1019SOL    HW2 4106   0.821   1.774   1.977
 1019SOL    HW3 4107   0.777   1.633   1.942
 1019SOL    MW4 4108   0.829   1.687   1.986
 1020SOL     OW 4109   0.826   1.966   1.930
 1020SOL    HW2 4110   0.755   2.022   1.961
 1020SOL    HW3 4111   0.820   1.971   1.835
 1020SOL    MW4 4112   0.816   1.974   1.922
 1021SOL     OW 4113   1.086   2.073   1.979
 1021SOL    HW2 4114   1.096   2.165   1.953
 1021SOL    HW3 4115   0.992   2.056   1.970
 1021SOL    MW4 4116   1.075   2.083   1.974
 1022SOL     OW 4117   1.094   2.336   1.911
 1022SOL    HW2 4118   1.175   2.379   1.938
 1022SOL    HW3 4119   1.094   2.342   1.816
 1022SOL    MW4 4120   1.105   2.343   1.902
 1023SOL     OW 4121   0.864   2.474   1.982
 1023SOL    HW2 4122   0.941   2.419   1.965
 1023SOL    HW3 4123   0.789   2.418   1.959
 1023SOL    MW4 4124   0.864   2.459   1.976
 1024SOL     OW 4125   0.896   2.738   1.886
 1024SOL    HW2 4126   0.881   2.646   1.904
 1024SOL    HW3 4127   0.826   2.784   1.931
 1024SOL    MW4 4128   0.885   2.732   1.894
 1025SOL     OW 4129   1.128   2.888   1.986
 1025SOL    HW2 4130   1.132   2.876   2.081
 1025SOL    HW3 4131   1.055   2.833   1.958
 1025SOL    MW4 4132   1.119   2.879   1.995
 1026SOL     OW 4133   1.077   3.129   1.854
 1026SOL    HW2 4134   1.001   3.171   1.893
 1026SOL    HW3 4135   1.090   3.050   1.906
 1026SOL    MW4 4136   1.068   3.124   1.866
 1027SOL     OW 4137   0.859   3.213   1.992
 1027SOL    HW2 4138   0.862   3.222   2.087
 1027SOL    HW3 4139   0.771   3.179   1.974
 1027SOL    MW4 4140   0.848   3.210   2.002
 1028SOL     OW 4141   0.906   3.495   1.881
 1028SOL    HW2 4142   0.889   3.405   1.907
 1028SOL    HW3 4143   0.884   3.498   1.788
 1028SOL    MW4 4144   0.901   3.484   1.872
 1029SOL     OW 4145   1.133   3.647   1.960
 1029SOL    HW2 4146   1.136   3.638   2.055
 1029SOL    HW3 4147   1.057   3.596   1.932
 1029SOL    MW4 4148   1.124   3.639   1.969
 1030SOL     OW 4149   1.105   3.914   1.911
 1030SOL    HW2 4150   1.109   3.822   1.939
 1030SOL    HW3 4151   1.101   3.910   1.816
 1030SOL    MW4 4152   1.105   3.901   1.902
 1031SOL     OW 4153   0.900   4.077   1.990
 1031SOL    HW2 4154   0.889   4.067   2.084
 1031SOL    HW3 4155   0.972   4.019   1.968
 1031SOL    MW4 4156   0.908   4.068   1.999
 1032SOL     OW 4157   0.882   4.304   1.846
 1032SOL    HW2 4158   0.957   4.354   1.880
 1032SOL    HW3 4159   0.886   4.221   1.894
 1032SOL    MW4 4160   0.893   4.299   1.857
 1033SOL     OW 4161   1.089   4.426   1.968
 1033SOL    HW2 4162   1.090   4.408   2.062
 1033SOL    HW3 4163   1.170   4.386   1.935
 1033SOL    MW4 4164   1.100   4.418   1.976
 1034SOL     OW 4165   1.606   4.649   1.861
 1034SOL    HW2 4166   1.683   4.687   1.903
 1034SOL    HW3 4167   1.594   4.565   1.905
 1034SOL    MW4 4168   1.614   4.643   1.872
 1035SOL     OW 4169   1.380   0.070   1.973
 1035SOL    HW2 4170   1.398   0.061   2.066
 1035SOL    HW3 4171   1.460   0.041   1.929
 1035SOL    MW4 4172   1.393   0.065   1.979
 1036SOL     OW 4173   1.379   0.352   1.891
 1036SOL    HW2 4174   1.382   0.261   1.922
 1036SOL    HW3 4175   1.370   0.343   1.796
 1036SOL    MW4 4176   1.378   0.338   1.882
 1037SOL     OW 4177   1.591   0.503   1.970
 1037SOL    HW2 4178   1.667   0.452   1.944
 1037SOL    HW3 4179   1.516   0.452   1.939
 1037SOL    MW4 4180   1.591   0.490   1.963
 1038SOL     OW 4181   1.644   0.769   1.881
 1038SOL    HW2 4182   1.717   0.805   1.930
 1038SOL    HW3 4183   1.643   0.676   1.905
 1038SOL    MW4 4184   1.654   0.761   1.890
 1039SOL     OW 4185   1.405   0.859   1.974
 1039SOL    HW2 4186   1.426   0.864   2.067
 1039SOL    HW3 4187   1.482   0.819   1.934
 1039SOL    MW4 4188   1.418   0.855   1.981
 1040SOL     OW 4189   1.385   1.127   1.874
 1040SOL    HW2 4190   1.390   1.040   1.913
 1040SOL    HW3 4191   1.309   1.167   1.914
 1040SOL    MW4 4192   1.376   1.121   1.884
 1041SOL     OW 4193   1.578   1.278   1.992
 1041SOL    HW2 4194   1.573   1.368   1.961
 1041SOL    HW3 4195   1.510   1.232   1.944
 1041SOL    MW4 4196   1.568   1.284   1.982
 1042SOL     OW 4197   1.546   1.544   1.893
 1042SOL    HW2 4198   1.616   1.598   1.930
 1042SOL    HW3 4199   1.467   1.596   1.904
 1042SOL    MW4 4200   1.545   1.558   1.899
 1043SOL     OW 4201   1.319   1.682   1.958
 1043SOL    HW2 4202   1.313   1.688   2.053
 1043SOL    HW3 4203   1.242   1.630   1.933
 1043SOL    MW4 4204   1.308   1.676   1.967
 1044SOL     OW 4205   1.301   1.950   1.874
 1044SOL    HW2 4206   1.311   1.858   1.900
 1044SOL    HW3 4207   1.217   1.977   1.912
 1044SOL    MW4 4208   1.291   1.941   1.883
 1045SOL     OW 4209   1.543   2.059   1.956
 1045SOL    HW2 4210   1.539   2.153   1.937
 1045SOL    HW3 4211   1.469   2.022   1.908
 1045SOL    MW4 4212   1.533   2.067   1.947
 1046SOL     OW 4213   1.545   2.354   1.893
 1046SOL    HW2 4214   1.636   2.369   1.919
 1046SOL    HW3 4215   1.543   2.373   1.800
 1046SOL    MW4 4216   1.557   2.358   1.884
 1047SOL     OW 4217   1.323   2.482   2.007
 1047SOL    HW2 4218   1.330   2.567   1.963
 1047SOL    HW3 4219   1.406   2.438   1.985
 1047SOL    MW4 4220   1.335   2.488   1.998
 1048SOL     OW 4221   1.324   2.731   1.871
 1048SOL    HW2 4222   1.253   2.788   1.901
 1048SOL    HW3 4223   1.307   2.718   1.778
 1048SOL    MW4 4224   1.313   2.737   1.863
 1049SOL     OW 4225   1.586   2.839   1.965
 1049SOL    HW2 4226   1.661   2.797   1.922
 1049SOL    HW3 4227   1.510   2.791   1.934
 1049SOL    MW4 4228   1.586   2.827   1.955
 1050SOL     OW 4229   1.540   3.110   1.868
 1050SOL    HW2 4230   1.561   3.024   1.903
 1050SOL    HW3 4231   1.539   3.099   1.773
 1050SOL    MW4 4232   1.543   3.098   1.860
 1051SOL     OW 4233   1.306   3.235   1.981
 1051SOL    HW2 4234   1.377   3.184   1.943
 1051SOL    HW3 4235   1.226   3.194   1.946
 1051SOL    MW4 4236   1.305   3.223   1.971
 1052SOL     OW 4237   1.381   3.483   1.859
 1052SOL    HW2 4238   1.364   3.399   1.902
 1052SOL    HW3 4239   1.305   3.536   1.880
 1052SOL    MW4 4240   1.369   3.479   1.867
 1053SOL     OW 4241   1.621   3.601   1.964
 1053SOL    HW2 4242   1.608   3.600   2.059
 1053SOL    HW3 4243   1.539   3.569   1.928
 1053SOL    MW4 4244   1.609   3.597   1.972
 1054SOL     OW 4245   1.572   3.864   1.883
 1054SOL    HW2 4246   1.657   3.906   1.897
 1054SOL    HW3 4247   1.584   3.775   1.917
 1054SOL    MW4 4248   1.585   3.858   1.889
 1055SOL     OW 4249   1.345   4.013   1.941
 1055SOL    HW2 4250   1.413   3.952   1.912
 1055SOL    HW3 4251   1.263   3.968   1.922
 1055SOL    MW4 4252   1.343   3.999   1.935
 1056SOL     OW 4253   1.306   4.283   1.864
 1056SOL    HW2 4254   1.320   4.194   1.896
 1056SOL    HW3 4255   1.326   4.279   1.771
 1056SOL    MW4 4256   1.311   4.271   1.856
 1057SOL     OW 4257   1.555   4.406   1.943
 1057SOL    HW2 4258   1.557   4.401   2.039
 1057SOL    HW3 4259   1.481   4.352   1.917
 1057SOL    MW4 4260   1.545   4.398   1.952
 1058SOL     OW 4261   2.000   4.631   1.884
 1058SOL    HW2 4262   2.078   4.674   1.920
 1058SOL    HW3 4263   2.005   4.540   1.916
 1058SOL    MW4 4264   2.011   4.624   1.893
 1059SOL     OW 4265   1.807   0.112   1.983
 1059SOL    HW2 4266   1.801   0.104   2.079
 1059SOL    HW3 4267   1.877   0.052   1.959
 1059SOL    MW4 4268   1.815   0.103   1.993
 1060SOL     OW 4269   1.840   0.373   1.875
 1060SOL    HW2 4270   1.803   0.290   1.906
 1060SOL    HW3 4271   1.830   0.369   1.780
 1060SOL    MW4 4272   1.834   0.362   1.867
 1061SOL     OW 4273   2.048   0.506   1.982
 1061SOL    HW2 4274   2.032   0.598   1.964
 1061SOL    HW3 4275   1.975   0.460   1.940
 1061SOL    MW4 4276   2.036   0.512   1.974
 1062SOL     OW 4277   2.026   0.755   1.852
 1062SOL    HW2 4278   2.099   0.809   1.881
 1062SOL    HW3 4279   2.032   0.755   1.757
 1062SOL    MW4 4280   2.036   0.762   1.843
 1063SOL     OW 4281   1.840   0.915   1.989
 1063SOL    HW2 4282   1.821   1.001   1.951
 1063SOL    HW3 4283   1.913   0.882   1.936
 1063SOL    MW4 4284   1.847   0.922   1.977
 1064SOL     OW 4285   1.806   1.191   1.888
 1064SOL    HW2 4286   1.726   1.220   1.933
 1064SOL    HW3 4287   1.781   1.185   1.796
 1064SOL    MW4 4288   1.792   1.194   1.882
 1065SOL     OW 4289   2.043   1.316   1.969
 1065SOL    HW2 4290   2.109   1.264   1.924
 1065SOL    HW3 4291   1.959   1.276   1.946
 1065SOL    MW4 4292   2.040   1.304   1.960
 1066SOL     OW 4293   2.001   1.596   1.893
 1066SOL    HW2 4294   2.011   1.505   1.920
 1066SOL    HW3 4295   2.007   1.594   1.797
 1066SOL    MW4 4296   2.003   1.584   1.884
 1067SOL     OW 4297   1.752   1.693   2.004
 1067SOL    HW2 4298   1.740   1.787   1.990
 1067SOL    HW3 4299   1.833   1.672   1.959
 1067SOL    MW4 4300   1.761   1.703   1.996
 1068SOL     OW 4301   1.781   1.958   1.887
 1068SOL    HW2 4302   1.708   2.015   1.911
 1068SOL    HW3 4303   1.785   1.963   1.791
 1068SOL    MW4 4304   1.772   1.966   1.877
 1069SOL     OW 4305   2.023   2.054   1.986
 1069SOL    HW2 4306   2.086   1.988   1.957
 1069SOL    HW3 4307   1.939   2.022   1.954
 1069SOL    MW4 4308   2.020   2.041   1.978
 1070SOL     OW 4309   2.030   2.306   1.862
 1070SOL    HW2 4310   2.088   2.368   1.905
 1070SOL    HW3 4311   2.036   2.227   1.915
 1070SOL    MW4 4312   2.038   2.304   1.874
 1071SOL     OW 4313   1.805   2.441   1.953
 1071SOL    HW2 4314   1.828   2.436   2.046
 1071SOL    HW3 4315   1.874   2.393   1.908
 1071SOL    MW4 4316   1.817   2.434   1.960
 1072SOL     OW 4317   1.798   2.718   1.865
 1072SOL    HW2 4318   1.801   2.625   1.885
 1072SOL    HW3 4319   1.796   2.722   1.769
 1072SOL    MW4 4320   1.798   2.706   1.855
 1073SOL     OW 4321   2.012   2.856   1.952
 1073SOL    HW2 4322   2.003   2.864   2.047
 1073SOL    HW3 4323   1.933   2.809   1.925
 1073SOL    MW4 4324   2.000   2.851   1.961
 1074SOL     OW 4325   2.003   3.101   1.824
 1074SOL    HW2 4326   1.937   3.152   1.870
 1074SOL    HW3 4327   2.000   3.015   1.867
 1074SOL    MW4 4328   1.994   3.096   1.836
 1075SOL     OW 4329   1.800   3.210   1.961
 1075SOL    HW2 4330   1.794   3.212   2.056
 1075SOL    HW3 4331   1.712   3.186   1.932
 1075SOL    MW4 4332   1.787   3.207   1.970
 1076SOL     OW 4333   1.860   3.471   1.873
 1076SOL    HW2 4334   1.868   3.379   1.900
 1076SOL    HW3 4335   1.779   3.501   1.915
 1076SOL    MW4 4336   1.850   3.463   1.882
 1077SOL     OW 4337   2.077   3.608   1.971
 1077SOL    HW2 4338   2.061   3.700   1.950
 1077SOL    HW3 4339   1.995   3.563   1.951
 1077SOL    MW4 4340   2.064   3.614   1.966
 1078SOL     OW 4341   2.017   3.860   1.858
 1078SOL    HW2 4342   2.101   3.901   1.878
 1078SOL    HW3 4343   2.011   3.862   1.763
 1078SOL    MW4 4344   2.027   3.866   1.848
 1079SOL     OW 4345   1.797   4.023   1.957
 1079SOL    HW2 4346   1.793   4.096   1.895
 1079SOL    HW3 4347   1.869   3.969   1.924
 1079SOL    MW4 4348   1.806   4.026   1.945
 1080SOL     OW 4349   1.792   4.259   1.829
 1080SOL    HW2 4350   1.711   4.300   1.859
 1080SOL    HW3 4351   1.783   4.255   1.734
 1080SOL    MW4 4352   1.780   4.264   1.821
 1081SOL     OW 4353   2.013   4.370   1.973
 1081SOL    HW2 4354   2.096   4.326   1.956
 1081SOL    HW3 4355   1.948   4.317   1.928
 1081SOL    MW4 4356   2.016   4.357   1.965
 1082SOL     OW 4357   2.466   4.632   1.855
 1082SOL    HW2 4358   2.538   4.676   1.899
 1082SOL    HW3 4359   2.471   4.541   1.887
 1082SOL    MW4 4360   2.476   4.626   1.865
 1083SOL     OW 4361   2.244   0.095   1.961
 1083SOL    HW2 4362   2.249   0.082   2.056
 1083SOL    HW3 4363   2.314   0.040   1.926
 1083SOL    MW4 4364   2.254   0.086   1.969
 1084SOL     OW 4365   2.264   0.356   1.876
 1084SOL    HW2 4366   2.259   0.265   1.906
 1084SOL    HW3 4367   2.190   0.399   1.918
 1084SOL    MW4 4368   2.254   0.350   1.886
 1085SOL     OW 4369   2.458   0.509   2.001
 1085SOL    HW2 4370   2.527   0.461   1.956
 1085SOL    HW3 4371   2.377   0.462   1.979
 1085SOL    MW4 4372   2.456   0.496   1.992
 1086SOL     OW 4373   2.476   0.770   1.901
 1086SOL    HW2 4374   2.460   0.683   1.939
 1086SOL    HW3 4375   2.477   0.754   1.806
 1086SOL    MW4 4376   2.474   0.756   1.893
 1087SOL     OW 4377   2.239   0.897   1.957
 1087SOL    HW2 4378   2.229   0.906   2.052
 1087SOL    HW3 4379   2.323   0.852   1.946
 1087SOL    MW4 4380   2.249   0.892   1.968
 1088SOL     OW 4381   2.257   1.154   1.869
 1088SOL    HW2 4382   2.340   1.194   1.894
 1088SOL    HW3 4383   2.258   1.068   1.910
 1088SOL    MW4 4384   2.268   1.148   1.877
 1089SOL     OW 4385   2.496   1.267   1.942
 1089SOL    HW2 4386   2.519   1.263   2.034
 1089SOL    HW3 4387   2.500   1.360   1.919
 1089SOL    MW4 4388   2.499   1.278   1.951
 1090SOL     OW 4389   2.509   1.528   1.880
 1090SOL    HW2 4390   2.430   1.567   1.917
 1090SOL    HW3 4391   2.490   1.520   1.786
 1090SOL    MW4 4392   2.496   1.532   1.873
 1091SOL     OW 4393   2.268   1.644   1.960
 1091SOL    HW2 4394   2.281   1.639   2.055
 1091SOL    HW3 4395   2.175   1.626   1.947
 1091SOL    MW4 4396   2.258   1.641   1.971
 1092SOL     OW 4397   2.230   1.915   1.890
 1092SOL    HW2 4398   2.302   1.961   1.936
 1092SOL    HW3 4399   2.249   1.822   1.904
 1092SOL    MW4 4400   2.242   1.909   1.898
 1093SOL     OW 4401   2.442   2.037   2.028
 1093SOL    HW2 4402   2.519   1.992   1.993
 1093SOL    HW3 4403   2.454   2.128   2.001
 1093SOL    MW4 4404   2.454   2.043   2.020
 1094SOL     OW 4405   2.473   2.292   1.914
 1094SOL    HW2 4406   2.549   2.346   1.939
 1094SOL    HW3 4407   2.397   2.344   1.943
 1094SOL    MW4 4408   2.473   2.306   1.921
 1095SOL     OW 4409   2.239   2.466   1.972
 1095SOL    HW2 4410   2.251   2.467   2.067
 1095SOL    HW3 4411   2.242   2.558   1.946
 1095SOL    MW4 4412   2.241   2.478   1.982
 1096SOL     OW 4413   2.260   2.715   1.880
 1096SOL    HW2 4414   2.183   2.768   1.898
 1096SOL    HW3 4415   2.254   2.695   1.786
 1096SOL    MW4 4416   2.249   2.719   1.870
 1097SOL     OW 4417   2.503   2.812   1.976
 1097SOL    HW2 4418   2.494   2.903   1.947
 1097SOL    HW3 4419   2.423   2.769   1.948
 1097SOL    MW4 4420   2.491   2.819   1.968
 1098SOL     OW 4421   2.445   3.058   1.876
 1098SOL    HW2 4422   2.363   3.103   1.898
 1098SOL    HW3 4423   2.440   3.045   1.782
 1098SOL    MW4 4424   2.433   3.062   1.867
 1099SOL     OW 4425   2.232   3.239   1.891
 1099SOL    HW2 4426   2.244   3.244   1.986
 1099SOL    HW3 4427   2.150   3.192   1.880
 1099SOL    MW4 4428   2.223   3.233   1.902
 1100SOL     OW 4429   2.264   3.506   1.810
 1100SOL    HW2 4430   2.238   3.422   1.848
 1100SOL    HW3 4431   2.205   3.569   1.851
 1100SOL    MW4 4432   2.253   3.503   1.820
 1101SOL     OW 4433   2.499   3.628   1.906
 1101SOL    HW2 4434   2.477   3.630   2.000
 1101SOL    HW3 4435   2.436   3.565   1.869
 1101SOL    MW4 4436   2.488   3.620   1.914
 1102SOL     OW 4437   2.493   3.897   1.834
 1102SOL    HW2 4438   2.410   3.936   1.861
 1102SOL    HW3 4439   2.489   3.806   1.865
 1102SOL    MW4 4440   2.481   3.890   1.842
 1103SOL     OW 4441   2.241   3.972   1.959
 1103SOL    HW2 4442   2.246   3.973   2.055
 1103SOL    HW3 4443   2.227   4.063   1.934
 1103SOL    MW4 4444   2.240   3.984   1.968
 1104SOL     OW 4445   2.238   4.240   1.882
 1104SOL    HW2 4446   2.326   4.274   1.893
 1104SOL    HW3 4447   2.221   4.247   1.789
 1104SOL    MW4 4448   2.247   4.245   1.872
 1105SOL     OW 4449   2.473   4.349   1.950
 1105SOL    HW2 4450   2.472   4.391   2.036
 1105SOL    HW3 4451   2.566   4.337   1.930
 1105SOL    MW4 4452   2.485   4.353   1.959
 1106SOL     OW 4453   2.910   4.656   1.866
 1106SOL    HW2 4454   2.978   4.695   1.920
 1106SOL    HW3 4455   2.901   4.567   1.898
 1106SOL    MW4 4456   2.918   4.650   1.877
 1107SOL     OW 4457   2.672   0.098   1.966
 1107SOL    HW2 4458   2.678   0.118   2.060
 1107SOL    HW3 4459   2.760   0.072   1.941
 1107SOL    MW4 4460   2.684   0.097   1.975
 1108SOL     OW 4461   2.667   0.376   1.900
 1108SOL    HW2 4462   2.744   0.417   1.939
 1108SOL    HW3 4463   2.682   0.282   1.908
 1108SOL    MW4 4464   2.679   0.369   1.906
 1109SOL     OW 4465   2.909   0.513   1.987
 1109SOL    HW2 4466   2.988   0.468   1.959
 1109SOL    HW3 4467   2.918   0.602   1.953
 1109SOL    MW4 4468   2.920   0.519   1.979
 1110SOL     OW 4469   2.948   0.772   1.860
 1110SOL    HW2 4470   3.020   0.801   1.916
 1110SOL    HW3 4471   2.869   0.800   1.907
 1110SOL    MW4 4472   2.947   0.780   1.874
 1111SOL     OW 4473   2.723   0.857   2.005
 1111SOL    HW2 4474   2.720   0.945   1.967
 1111SOL    HW3 4475   2.643   0.815   1.975
 1111SOL    MW4 4476   2.712   0.863   1.996
 1112SOL     OW 4477   2.738   1.108   1.882
 1112SOL    HW2 4478   2.655   1.153   1.895
 1112SOL    HW3 4479   2.742   1.091   1.788
 1112SOL    MW4 4480   2.728   1.111   1.871
 1113SOL     OW 4481   2.939   1.242   1.992
 1113SOL    HW2 4482   2.934   1.321   1.938
 1113SOL    HW3 4483   2.872   1.184   1.955
 1113SOL    MW4 4484   2.929   1.245   1.980
 1114SOL     OW 4485   2.944   1.482   1.853
 1114SOL    HW2 4486   3.021   1.520   1.896
 1114SOL    HW3 4487   2.952   1.510   1.761
 1114SOL    MW4 4488   2.955   1.491   1.846
 1115SOL     OW 4489   2.744   1.625   1.997
 1115SOL    HW2 4490   2.812   1.572   1.956
 1115SOL    HW3 4491   2.662   1.584   1.970
 1115SOL    MW4 4492   2.742   1.612   1.988
 1116SOL     OW 4493   2.693   1.900   1.910
 1116SOL    HW2 4494   2.772   1.942   1.944
 1116SOL    HW3 4495   2.710   1.806   1.922
 1116SOL    MW4 4496   2.706   1.893   1.916
 1117SOL     OW 4497   2.896   2.046   1.994
 1117SOL    HW2 4498   2.913   2.061   2.086
 1117SOL    HW3 4499   2.958   1.978   1.969
 1117SOL    MW4 4500   2.906   2.039   2.002
 1118SOL     OW 4501   2.932   2.264   1.834
 1118SOL    HW2 4502   2.994   2.309   1.891
 1118SOL    HW3 4503   2.920   2.178   1.875
 1118SOL    MW4 4504   2.939   2.259   1.847
 1119SOL     OW 4505   2.719   2.414   1.940
 1119SOL    HW2 4506   2.722   2.505   1.909
 1119SOL    HW3 4507   2.795   2.372   1.900
 1119SOL    MW4 4508   2.729   2.421   1.931
 1120SOL     OW 4509   2.730   2.701   1.887
 1120SOL    HW2 4510   2.648   2.736   1.921
 1120SOL    HW3 4511   2.720   2.702   1.792
 1120SOL    MW4 4512   2.718   2.706   1.879
 1121SOL     OW 4513   2.943   2.819   2.025
 1121SOL    HW2 4514   2.950   2.901   1.976
 1121SOL    HW3 4515   2.868   2.774   1.986
 1121SOL    MW4 4516   2.934   2.824   2.014
 1122SOL     OW 4517   2.904   3.070   1.901
 1122SOL    HW2 4518   2.973   3.113   1.951
 1122SOL    HW3 4519   2.825   3.120   1.920
 1122SOL    MW4 4520   2.902   3.082   1.910
 1123SOL     OW 4521   2.668   3.207   1.962
 1123SOL    HW2 4522   2.663   3.294   1.922
 1123SOL    HW3 4523   2.596   3.158   1.922
 1123SOL    MW4 4524   2.658   3.212   1.952
 1124SOL     OW 4525   2.700   3.448   1.834
 1124SOL    HW2 4526   2.776   3.500   1.862
 1124SOL    HW3 4527   2.624   3.502   1.856
 1124SOL    MW4 4528   2.700   3.462   1.841
 1125SOL     OW 4529   2.893   3.625   1.911
 1125SOL    HW2 4530   2.865   3.650   1.999
 1125SOL    HW3 4531   2.961   3.559   1.925
 1125SOL    MW4 4532   2.898   3.620   1.924
 1126SOL     OW 4533   2.925   3.905   1.868
 1126SOL    HW2 4534   2.915   3.810   1.872
 1126SOL    HW3 4535   2.944   3.924   1.777
 1126SOL    MW4 4536   2.926   3.895   1.857
 1127SOL     OW 4537   2.703   4.005   1.960
 1127SOL    HW2 4538   2.781   3.960   1.928
 1127SOL    HW3 4539   2.631   3.971   1.907
 1127SOL    MW4 4540   2.704   3.995   1.949
 1128SOL     OW 4541   2.745   4.274   1.877
 1128SOL    HW2 4542   2.713   4.189   1.909
 1128SOL    HW3 4543   2.740   4.267   1.782
 1128SOL    MW4 4544   2.740   4.262   1.869
 1129SOL     OW 4545   2.963   4.380   1.985
 1129SOL    HW2 4546   2.959   4.377   2.080
 1129SOL    HW3 4547   2.889   4.327   1.956
 1129SOL    MW4 4548   2.953   4.372   1.993
 1130SOL     OW 4549   3.384   4.633   1.914
 1130SOL    HW2 4550   3.365   4.541   1.933
 1130SOL    HW3 4551   3.364   4.642   1.820
 1130SOL    MW4 4552   3.379   4.622   1.904
 1131SOL     OW 4553   3.131   0.105   1.994
 1131SOL    HW2 4554   3.126   0.094   2.089
 1131SOL    HW3 4555   3.209   0.056   1.968
 1131SOL    MW4 4556   3.141   0.097   2.004
 1132SOL     OW 4557   3.136   0.364   1.913
 1132SOL    HW2 4558   3.132   0.272   1.939
 1132SOL    HW3 4559   3.127   0.363   1.818
 1132SOL    MW4 4560   3.134   0.352   1.904
 1133SOL     OW 4561   3.327   0.512   1.999
 1133SOL    HW2 4562   3.406   0.463   1.979
 1133SOL    HW3 4563   3.256   0.450   1.984
 1133SOL    MW4 4564   3.328   0.497   1.994
 1134SOL     OW 4565   3.360   0.773   1.885
 1134SOL    HW2 4566   3.291   0.821   1.929
 1134SOL    HW3 4567   3.358   0.686   1.925
 1134SOL    MW4 4568   3.351   0.768   1.896
 1135SOL     OW 4569   3.156   0.892   2.015
 1135SOL    HW2 4570   3.142   0.911   2.107
 1135SOL    HW3 4571   3.146   0.976   1.971
 1135SOL    MW4 4572   3.152   0.905   2.021
 1136SOL     OW 4573   3.167   1.121   1.884
 1136SOL    HW2 4574   3.247   1.173   1.884
 1136SOL    HW3 4575   3.105   1.173   1.935
 1136SOL    MW4 4576   3.169   1.135   1.891
 1137SOL     OW 4577   3.417   1.253   1.954
 1137SOL    HW2 4578   3.428   1.258   2.049
 1137SOL    HW3 4579   3.416   1.345   1.925
 1137SOL    MW4 4580   3.419   1.266   1.962
 1138SOL     OW 4581   3.400   1.532   1.851
 1138SOL    HW2 4582   3.465   1.579   1.903
 1138SOL    HW3 4583   3.317   1.550   1.895
 1138SOL    MW4 4584   3.398   1.540   1.864
 1139SOL     OW 4585   3.151   1.606   1.975
 1139SOL    HW2 4586   3.173   1.607   2.068
 1139SOL    HW3 4587   3.140   1.698   1.952
 1139SOL    MW4 4588   3.153   1.618   1.984
 1140SOL     OW 4589   3.096   1.878   1.910
 1140SOL    HW2 4590   3.158   1.938   1.953
 1140SOL    HW3 4591   3.103   1.899   1.817
 1140SOL    MW4 4592   3.105   1.889   1.904
 1141SOL     OW 4593   3.314   2.007   2.017
 1141SOL    HW2 4594   3.391   1.972   1.974
 1141SOL    HW3 4595   3.312   2.099   1.993
 1141SOL    MW4 4596   3.324   2.014   2.008
 1142SOL     OW 4597   3.353   2.314   1.920
 1142SOL    HW2 4598   3.274   2.354   1.956
 1142SOL    HW3 4599   3.347   2.329   1.826
 1142SOL    MW4 4600   3.342   2.321   1.912
 1143SOL     OW 4601   3.104   2.416   2.004
 1143SOL    HW2 4602   3.111   2.441   2.096
 1143SOL    HW3 4603   3.111   2.498   1.956
 1143SOL    MW4 4604   3.106   2.430   2.010
 1144SOL     OW 4605   3.136   2.658   1.887
 1144SOL    HW2 4606   3.063   2.703   1.930
 1144SOL    HW3 4607   3.117   2.665   1.794
 1144SOL    MW4 4608   3.124   2.665   1.881
 1145SOL     OW 4609   3.374   2.832   1.983
 1145SOL    HW2 4610   3.396   2.820   2.075
 1145SOL    HW3 4611   3.302   2.772   1.967
 1145SOL    MW4 4612   3.368   2.823   1.993
 1146SOL     OW 4613   3.300   3.104   1.903
 1146SOL    HW2 4614   3.387   3.144   1.903
 1146SOL    HW3 4615   3.315   3.016   1.940
 1146SOL    MW4 4616   3.314   3.098   1.908
 1147SOL     OW 4617   3.088   3.213   2.035
 1147SOL    HW2 4618   3.089   3.303   2.003
 1147SOL    HW3 4619   3.158   3.169   1.985
 1147SOL    MW4 4620   3.098   3.219   2.024
 1148SOL     OW 4621   3.112   3.449   1.898
 1148SOL    HW2 4622   3.185   3.497   1.938
 1148SOL    HW3 4623   3.123   3.463   1.804
 1148SOL    MW4 4624   3.123   3.457   1.891
 1149SOL     OW 4625   3.343   3.591   1.986
 1149SOL    HW2 4626   3.413   3.539   1.946
 1149SOL    HW3 4627   3.360   3.681   1.956
 1149SOL    MW4 4628   3.354   3.596   1.977
 1150SOL     OW 4629   3.365   3.833   1.876
 1150SOL    HW2 4630   3.292   3.881   1.915
 1150SOL    HW3 4631   3.351   3.841   1.781
 1150SOL    MW4 4632   3.353   3.840   1.868
 1151SOL     OW 4633   3.163   4.004   1.957
 1151SOL    HW2 4634   3.161   4.033   2.048
 1151SOL    HW3 4635   3.080   3.959   1.944
 1151SOL    MW4 4636   3.152   4.002   1.967
 1152SOL     OW 4637   3.151   4.253   1.832
 1152SOL    HW2 4638   3.144   4.161   1.856
 1152SOL    HW3 4639   3.083   4.297   1.883
 1152SOL    MW4 4640   3.141   4.247   1.842
 1153SOL     OW 4641   3.375   4.382   1.982
 1153SOL    HW2 4642   3.454   4.364   1.931
 1153SOL    HW3 4643   3.306   4.333   1.938
 1153SOL    MW4 4644   3.376   4.373   1.970
 1154SOL     OW 4645   3.825   0.007   1.881
 1154SOL    HW2 4646   3.818  -0.087   1.898
 1154SOL    HW3 4647   3.744   0.043   1.917
 1154SOL    MW4 4648   3.813  -0.001   1.888
 1155SOL     OW 4649   3.578   0.131   1.992
 1155SOL    HW2 4650   3.579   0.132   2.088
 1155SOL    HW3 4651   3.512   0.065   1.970
 1155SOL    MW4 4652   3.569   0.123   2.002
 1156SOL     OW 4653   3.563   0.396   1.924
 1156SOL    HW2 4654   3.565   0.301   1.938
 1156SOL    HW3 4655   3.552   0.406   1.829
 1156SOL    MW4 4656   3.562   0.384   1.913
 1157SOL     OW 4657   3.812   0.482   1.980
 1157SOL    HW2 4658   3.809   0.573   1.950
 1157SOL    HW3 4659   3.727   0.446   1.956
 1157SOL    MW4 4660   3.800   0.489   1.973
 1158SOL     OW 4661   3.842   0.750   1.927
 1158SOL    HW2 4662   3.771   0.804   1.961
 1158SOL    HW3 4663   3.839   0.764   1.832
 1158SOL    MW4 4664   3.832   0.759   1.919
 1159SOL     OW 4665   3.604   0.887   1.965
 1159SOL    HW2 4666   3.614   0.976   1.931
 1159SOL    HW3 4667   3.518   0.859   1.933
 1159SOL    MW4 4668   3.594   0.895   1.956
 1160SOL     OW 4669   3.646   1.139   1.843
 1160SOL    HW2 4670   3.573   1.187   1.882
 1160SOL    HW3 4671   3.630   1.146   1.748
 1160SOL    MW4 4672   3.634   1.146   1.835
 1161SOL     OW 4673   3.814   1.321   1.978
 1161SOL    HW2 4674   3.831   1.304   2.071
 1161SOL    HW3 4675   3.752   1.253   1.953
 1161SOL    MW4 4676   3.808   1.310   1.987
 1162SOL     OW 4677   3.811   1.572   1.871
 1162SOL    HW2 4678   3.893   1.613   1.898
 1162SOL    HW3 4679   3.820   1.480   1.896
 1162SOL    MW4 4680   3.823   1.565   1.878
 1163SOL     OW 4681   3.592   1.659   1.998
 1163SOL    HW2 4682   3.584   1.747   1.962
 1163SOL    HW3 4683   3.672   1.624   1.960
 1163SOL    MW4 4684   3.601   1.666   1.989
 1164SOL     OW 4685   3.570   1.926   1.898
 1164SOL    HW2 4686   3.652   1.973   1.912
 1164SOL    HW3 4687   3.564   1.917   1.802
 1164SOL    MW4 4688   3.580   1.931   1.887
 1165SOL     OW 4689   3.792   2.067   1.995
 1165SOL    HW2 4690   3.872   2.032   1.956
 1165SOL    HW3 4691   3.786   2.156   1.962
 1165SOL    MW4 4692   3.801   2.074   1.985
 1166SOL     OW 4693   3.803   2.305   1.899
 1166SOL    HW2 4694   3.885   2.341   1.933
 1166SOL    HW3 4695   3.735   2.361   1.937
 1166SOL    MW4 4696   3.805   2.317   1.908
 1167SOL     OW 4697   3.573   2.446   1.993
 1167SOL    HW2 4698   3.563   2.528   1.946
 1167SOL    HW3 4699   3.497   2.394   1.967
 1167SOL    MW4 4700   3.562   2.450   1.984
 1168SOL     OW 4701   3.600   2.708   1.875
 1168SOL    HW2 4702   3.672   2.745   1.926
 1168SOL    HW3 4703   3.522   2.753   1.907
 1168SOL    MW4 4704   3.599   2.719   1.886
 1169SOL     OW 4705   3.817   2.831   1.998
 1169SOL    HW2 4706   3.804   2.830   2.092
 1169SOL    HW3 4707   3.797   2.921   1.972
 1169SOL    MW4 4708   3.813   2.843   2.007
 1170SOL     OW 4709   3.777   3.106   1.943
 1170SOL    HW2 4710   3.698   3.156   1.961
 1170SOL    HW3 4711   3.775   3.092   1.848
 1170SOL    MW4 4712   3.766   3.110   1.933
 1171SOL     OW 4713   3.554   3.244   1.968
 1171SOL    HW2 4714   3.552   3.245   2.064
 1171SOL    HW3 4715   3.560   3.336   1.943
 1171SOL    MW4 4716   3.555   3.256   1.977
 1172SOL     OW 4717   3.573   3.504   1.859
 1172SOL    HW2 4718   3.652   3.546   1.894
 1172SOL    HW3 4719   3.588   3.500   1.764
 1172SOL    MW4 4720   3.585   3.509   1.851
 1173SOL     OW 4721   3.789   3.636   1.986
 1173SOL    HW2 4722   3.875   3.599   1.963
 1173SOL    HW3 4723   3.796   3.728   1.962
 1173SOL    MW4 4724   3.801   3.643   1.980
 1174SOL     OW 4725   3.789   3.894   1.877
 1174SOL    HW2 4726   3.708   3.942   1.891
 1174SOL    HW3 4727   3.791   3.877   1.783
 1174SOL    MW4 4728   3.778   3.898   1.866
 1175SOL     OW 4729   3.541   4.040   1.935
 1175SOL    HW2 4730   3.537   4.030   2.030
 1175SOL    HW3 4731   3.472   3.981   1.902
 1175SOL    MW4 4732   3.531   4.031   1.943
 1176SOL     OW 4733   3.584   4.299   1.834
 1176SOL    HW2 4734   3.660   4.330   1.883
 1176SOL    HW3 4735   3.570   4.209   1.865
 1176SOL    MW4 4736   3.592   4.291   1.845
 1177SOL     OW 4737   3.784   4.394   1.976
 1177SOL    HW2 4738   3.786   4.396   2.072
 1177SOL    HW3 4739   3.857   4.337   1.952
 1177SOL    MW4 4740   3.794   4.387   1.986
 1178SOL     OW 4741   4.287   4.598   1.902
 1178SOL    HW2 4742   4.212   4.646   1.938
 1178SOL    HW3 4743   4.364   4.644   1.936
 1178SOL    MW4 4744   4.287   4.611   1.911
 1179SOL     OW 4745   4.071   0.080   1.985
 1179SOL    HW2 4746   4.062   0.089   2.080
 1179SOL    HW3 4747   3.986   0.049   1.955
 1179SOL    MW4 4748   4.059   0.077   1.994
 1180SOL     OW 4749   4.082   0.357   1.929
 1180SOL    HW2 4750   4.082   0.261   1.935
 1180SOL    HW3 4751   3.996   0.383   1.962
 1180SOL    MW4 4752   4.071   0.347   1.934
 1181SOL     OW 4753   4.292   0.536   2.008
 1181SOL    HW2 4754   4.272   0.541   2.102
 1181SOL    HW3 4755   4.213   0.502   1.968
 1181SOL    MW4 4756   4.279   0.532   2.015
 1182SOL     OW 4757   4.254   0.812   1.960
 1182SOL    HW2 4758   4.268   0.724   1.996
 1182SOL    HW3 4759   4.246   0.798   1.865
 1182SOL    MW4 4760   4.255   0.798   1.952
 1183SOL     OW 4761   4.017   0.929   2.010
 1183SOL    HW2 4762   4.101   0.882   2.002
 1183SOL    HW3 4763   3.951   0.863   1.988
 1183SOL    MW4 4764   4.020   0.914   2.006
 1184SOL     OW 4765   4.033   1.172   1.887
 1184SOL    HW2 4766   4.035   1.085   1.927
 1184SOL    HW3 4767   3.961   1.217   1.932
 1184SOL    MW4 4768   4.023   1.166   1.898
 1185SOL     OW 4769   4.248   1.318   1.966
 1185SOL    HW2 4770   4.259   1.313   2.061
 1185SOL    HW3 4771   4.179   1.255   1.946
 1185SOL    MW4 4772   4.240   1.309   1.976
 1186SOL     OW 4773   4.263   1.567   1.855
 1186SOL    HW2 4774   4.251   1.477   1.885
 1186SOL    HW3 4775   4.255   1.562   1.760
 1186SOL    MW4 4776   4.260   1.555   1.846
 1187SOL     OW 4777   4.016   1.703   1.993
 1187SOL    HW2 4778   4.019   1.703   2.089
 1187SOL    HW3 4779   4.094   1.653   1.967
 1187SOL    MW4 4780   4.027   1.696   2.002
 1188SOL     OW 4781   4.019   1.954   1.887
 1188SOL    HW2 4782   4.007   1.863   1.915
 1188SOL    HW3 4783   4.024   1.949   1.791
 1188SOL    MW4 4784   4.018   1.941   1.878
 1189SOL     OW 4785   4.253   2.024   2.006
 1189SOL    HW2 4786   4.237   2.031   2.100
 1189SOL    HW3 4787   4.172   1.988   1.971
 1189SOL    MW4 4788   4.240   2.021   2.014
 1190SOL     OW 4789   4.268   2.324   1.910
 1190SOL    HW2 4790   4.275   2.242   1.960
 1190SOL    HW3 4791   4.349   2.370   1.929
 1190SOL    MW4 4792   4.280   2.319   1.919
 1191SOL     OW 4793   4.030   2.435   1.985
 1191SOL    HW2 4794   4.036   2.431   2.081
 1191SOL    HW3 4795   4.113   2.400   1.954
 1191SOL    MW4 4796   4.042   2.430   1.994
 1192SOL     OW 4797   4.044   2.696   1.903
 1192SOL    HW2 4798   4.041   2.605   1.934
 1192SOL    HW3 4799   3.978   2.741   1.956
 1192SOL    MW4 4800   4.035   2.690   1.914
 1193SOL     OW 4801   4.270   2.819   1.976
 1193SOL    HW2 4802   4.260   2.830   2.070
 1193SOL    HW3 4803   4.188   2.778   1.948
 1193SOL    MW4 4804   4.258   2.815   1.985
 1194SOL     OW 4805   4.243   3.092   1.918
 1194SOL    HW2 4806   4.166   3.124   1.965
 1194SOL    HW3 4807   4.245   2.998   1.936
 1194SOL    MW4 4808   4.233   3.084   1.926
 1195SOL     OW 4809   4.027   3.227   2.010
 1195SOL    HW2 4810   4.031   3.231   2.105
 1195SOL    HW3 4811   3.946   3.179   1.991
 1195SOL    MW4 4812   4.017   3.221   2.020
 1196SOL     OW 4813   4.008   3.496   1.913
 1196SOL    HW2 4814   4.096   3.526   1.936
 1196SOL    HW3 4815   4.001   3.409   1.951
 1196SOL    MW4 4816   4.019   3.489   1.921
 1197SOL     OW 4817   4.234   3.610   1.994
 1197SOL    HW2 4818   4.225   3.698   1.959
 1197SOL    HW3 4819   4.309   3.573   1.948
 1197SOL    MW4 4820   4.243   3.617   1.983
 1198SOL     OW 4821   4.227   3.875   1.917
 1198SOL    HW2 4822   4.316   3.907   1.933
 1198SOL    HW3 4823   4.221   3.866   1.822
 1198SOL    MW4 4824   4.238   3.878   1.907
 1199SOL     OW 4825   4.009   4.002   2.023
 1199SOL    HW2 4826   4.086   3.967   1.976
 1199SOL    HW3 4827   3.935   3.954   1.985
 1199SOL    MW4 4828   4.010   3.991   2.012
 1200SOL     OW 4829   4.010   4.263   1.905
 1200SOL    HW2 4830   4.098   4.298   1.919
 1200SOL    HW3 4831   4.007   4.183   1.957
 1200SOL    MW4 4832   4.021   4.257   1.913
 1201SOL     OW 4833   4.264   4.339   1.989
 1201SOL    HW2 4834   4.244   4.353   2.082
 1201SOL    HW3 4835   4.272   4.427   1.953
 1201SOL    MW4 4836   4.262   4.352   1.997
 1202SOL     OW 4837   0.218   4.612   2.341
 1202SOL    HW2 4838   0.207   4.604   2.436
 1202SOL    HW3 4839   0.295   4.669   2.331
 1202SOL    MW4 4840   0.227   4.618   2.352
 1203SOL     OW 4841   4.480   0.083   2.264
 1203SOL    HW2 4842   4.558   0.040   2.297
 1203SOL    HW3 4843   4.492   0.085   2.169
 1203SOL    MW4 4844   4.492   0.078   2.255
 1204SOL     OW 4845   4.466   0.350   2.385
 1204SOL    HW2 4846   4.532   0.400   2.335
 1204SOL    HW3 4847   4.469   0.263   2.346
 1204SOL    MW4 4848   4.475   0.345   2.373
 1205SOL     OW 4849   0.202   0.467   2.264
 1205SOL    HW2 4850   0.278   0.431   2.311
 1205SOL    HW3 4851   0.227   0.463   2.172
 1205SOL    MW4 4852   0.216   0.462   2.258
 1206SOL     OW 4853   0.203   0.740   2.339
 1206SOL    HW2 4854   0.213   0.746   2.434
 1206SOL    HW3 4855   0.198   0.647   2.321
 1206SOL    MW4 4856   0.203   0.729   2.349
 1207SOL     OW 4857   4.482   0.901   2.293
 1207SOL    HW2 4858   4.550   0.833   2.295
 1207SOL    HW3 4859   4.478   0.928   2.202
 1207SOL    MW4 4860   4.491   0.896   2.282
 1208SOL     OW 4861   0.047   1.157   2.395
 1208SOL    HW2 4862   0.021   1.175   2.485
 1208SOL    HW3 4863   0.010   1.071   2.375
 1208SOL    MW4 4864   0.039   1.148   2.404
 1209SOL     OW 4865   0.250   1.290   2.289
 1209SOL    HW2 4866   0.174   1.246   2.326
 1209SOL    HW3 4867   0.230   1.299   2.196
 1209SOL    MW4 4868   0.237   1.286   2.281
 1210SOL     OW 4869   0.220   1.524   2.408
 1210SOL    HW2 4870   0.221   1.512   2.503
 1210SOL    HW3 4871   0.240   1.438   2.372
 1210SOL    MW4 4872   0.222   1.511   2.416
 1211SOL     OW 4873   0.036   1.647   2.241
 1211SOL    HW2 4874   0.053   1.739   2.260
 1211SOL    HW3 4875   0.099   1.599   2.295
 1211SOL    MW4 4876   0.047   1.652   2.251
 1212SOL     OW 4877   0.029   1.940   2.368
 1212SOL    HW2 4878  -0.059   1.968   2.340
 1212SOL    HW3 4879   0.086   2.014   2.347
 1212SOL    MW4 4880   0.025   1.953   2.362
 1213SOL     OW 4881   0.240   2.106   2.272
 1213SOL    HW2 4882   0.326   2.070   2.295
 1213SOL    HW3 4883   0.236   2.097   2.177
 1213SOL    MW4 4884   0.251   2.100   2.262
 1214SOL     OW 4885   0.179   2.344   2.393
 1214SOL    HW2 4886   0.190   2.330   2.487
 1214SOL    HW3 4887   0.205   2.261   2.353
 1214SOL    MW4 4888   0.184   2.331   2.400
 1215SOL     OW 4889   4.461   2.487   2.254
 1215SOL    HW2 4890   4.442   2.574   2.289
 1215SOL    HW3 4891   4.540   2.459   2.300
 1215SOL    MW4 4892   4.469   2.494   2.265
 1216SOL     OW 4893   4.465   2.743   2.348
 1216SOL    HW2 4894   4.460   2.747   2.443
 1216SOL    HW3 4895   4.542   2.796   2.325
 1216SOL    MW4 4896   4.475   2.751   2.357
 1217SOL     OW 4897   0.193   2.890   2.281
 1217SOL    HW2 4898   0.261   2.836   2.322
 1217SOL    HW3 4899   0.192   2.862   2.189
 1217SOL    MW4 4900   0.202   2.879   2.274
 1218SOL     OW 4901   0.232   3.154   2.332
 1218SOL    HW2 4902   0.151   3.186   2.292
 1218SOL    HW3 4903   0.236   3.061   2.307
 1218SOL    MW4 4904   0.222   3.146   2.324
 1219SOL     OW 4905   0.003   3.241   2.219
 1219SOL    HW2 4906  -0.003   3.330   2.251
 1219SOL    HW3 4907   0.015   3.250   2.124
 1219SOL    MW4 4908   0.004   3.254   2.210
 1220SOL     OW 4909   4.473   3.486   2.332
 1220SOL    HW2 4910   4.501   3.498   2.423
 1220SOL    HW3 4911   4.383   3.518   2.329
 1220SOL    MW4 4912   4.465   3.491   2.343
 1221SOL     OW 4913   0.226   3.599   2.227
 1221SOL    HW2 4914   0.293   3.558   2.282
 1221SOL    HW3 4915   0.148   3.545   2.242
 1221SOL    MW4 4916   0.225   3.586   2.236
 1222SOL     OW 4917   0.212   3.832   2.362
 1222SOL    HW2 4918   0.144   3.886   2.322
 1222SOL    HW3 4919   0.219   3.756   2.305
 1222SOL    MW4 4920   0.204   3.829   2.349
 1223SOL     OW 4921   4.489   3.994   2.274
 1223SOL    HW2 4922   4.480   4.083   2.308
 1223SOL    HW3 4923   4.472   4.001   2.180
 1223SOL    MW4 4924   4.485   4.006   2.266
 1224SOL     OW 4925   4.429   4.249   2.368
 1224SOL    HW2 4926   4.414   4.253   2.463
 1224SOL    HW3 4927   4.517   4.285   2.356
 1224SOL    MW4 4928   4.439   4.254   2.379
 1225SOL     OW 4929   0.193   4.341   2.263
 1225SOL    HW2 4930   0.255   4.288   2.313
 1225SOL    HW3 4931   0.210   4.431   2.291
 1225SOL    MW4 4932   0.203   4.346   2.273
 1226SOL     OW 4933   0.666   0.004   2.349
 1226SOL    HW2 4934   0.673   0.001   2.444
 1226SOL    HW3 4935   0.748   0.043   2.320
 1226SOL    MW4 4936   0.677   0.009   2.358
 1227SOL     OW 4937   0.436   0.130   2.270
 1227SOL    HW2 4938   0.523   0.098   2.291
 1227SOL    HW3 4939   0.439   0.148   2.176
 1227SOL    MW4 4940   0.448   0.128   2.260
 1228SOL     OW 4941   0.425   0.363   2.401
 1228SOL    HW2 4942   0.432   0.354   2.496
 1228SOL    HW3 4943   0.399   0.276   2.370
 1228SOL    MW4 4944   0.422   0.350   2.409
 1229SOL     OW 4945   0.650   0.458   2.247
 1229SOL    HW2 4946   0.656   0.552   2.263
 1229SOL    HW3 4947   0.576   0.429   2.301
 1229SOL    MW4 4948   0.641   0.467   2.256
 1230SOL     OW 4949   0.704   0.741   2.340
 1230SOL    HW2 4950   0.701   0.751   2.436
 1230SOL    HW3 4951   0.616   0.764   2.311
 1230SOL    MW4 4952   0.692   0.745   2.349
 1231SOL     OW 4953   0.446   0.863   2.259
 1231SOL    HW2 4954   0.361   0.827   2.283
 1231SOL    HW3 4955   0.445   0.864   2.163
 1231SOL    MW4 4956   0.435   0.858   2.249
 1232SOL     OW 4957   0.469   1.120   2.359
 1232SOL    HW2 4958   0.453   1.035   2.318
 1232SOL    HW3 4959   0.394   1.173   2.334
 1232SOL    MW4 4960   0.457   1.116   2.350
 1233SOL     OW 4961   0.692   1.249   2.240
 1233SOL    HW2 4962   0.668   1.333   2.278
 1233SOL    HW3 4963   0.629   1.187   2.275
 1233SOL    MW4 4964   0.681   1.252   2.250
 1234SOL     OW 4965   0.671   1.506   2.359
 1234SOL    HW2 4966   0.682   1.494   2.454
 1234SOL    HW3 4967   0.735   1.573   2.336
 1234SOL    MW4 4968   0.681   1.513   2.369
 1235SOL     OW 4969   0.444   1.653   2.314
 1235SOL    HW2 4970   0.511   1.593   2.347
 1235SOL    HW3 4971   0.363   1.624   2.355
 1235SOL    MW4 4972   0.442   1.641   2.324
 1236SOL     OW 4973   0.448   1.932   2.368
 1236SOL    HW2 4974   0.527   1.977   2.340
 1236SOL    HW3 4975   0.459   1.842   2.337
 1236SOL    MW4 4976   0.460   1.926   2.360
 1237SOL     OW 4977   0.667   2.095   2.290
 1237SOL    HW2 4978   0.751   2.052   2.305
 1237SOL    HW3 4979   0.676   2.180   2.333
 1237SOL    MW4 4980   0.679   2.101   2.298
 1238SOL     OW 4981   0.640   2.342   2.386
 1238SOL    HW2 4982   0.656   2.346   2.480
 1238SOL    HW3 4983   0.708   2.397   2.348
 1238SOL    MW4 4984   0.651   2.350   2.394
 1239SOL     OW 4985   0.414   2.464   2.277
 1239SOL    HW2 4986   0.487   2.411   2.309
 1239SOL    HW3 4987   0.338   2.434   2.327
 1239SOL    MW4 4988   0.414   2.453   2.288
 1240SOL     OW 4989   0.416   2.746   2.346
 1240SOL    HW2 4990   0.430   2.755   2.440
 1240SOL    HW3 4991   0.426   2.652   2.328
 1240SOL    MW4 4992   0.419   2.735   2.356
 1241SOL     OW 4993   0.648   2.883   2.269
 1241SOL    HW2 4994   0.720   2.841   2.316
 1241SOL    HW3 4995   0.570   2.834   2.294
 1241SOL    MW4 4996   0.648   2.871   2.278
 1242SOL     OW 4997   0.661   3.100   2.427
 1242SOL    HW2 4998   0.598   3.165   2.397
 1242SOL    HW3 4999   0.646   3.024   2.371
 1242SOL    MW4 5000   0.651   3.099   2.415
 1243SOL     OW 5001   0.489   3.234   2.265
 1243SOL    HW2 5002   0.396   3.211   2.274
 1243SOL    HW3 5003   0.507   3.223   2.171
 1243SOL    MW4 5004   0.479   3.230   2.254
 1244SOL     OW 5005   0.430   3.481   2.387
 1244SOL    HW2 5006   0.500   3.535   2.350
 1244SOL    HW3 5007   0.440   3.396   2.344
 1244SOL    MW4 5008   0.440   3.477   2.376
 1245SOL     OW 5009   0.657   3.626   2.268
 1245SOL    HW2 5010   0.640   3.711   2.308
 1245SOL    HW3 5011   0.647   3.642   2.174
 1245SOL    MW4 5012   0.654   3.640   2.261
 1246SOL     OW 5013   0.653   3.888   2.347
 1246SOL    HW2 5014   0.646   3.881   2.442
 1246SOL    HW3 5015   0.569   3.922   2.319
 1246SOL    MW4 5016   0.641   3.891   2.356
 1247SOL     OW 5017   0.424   3.997   2.257
 1247SOL    HW2 5018   0.354   3.940   2.289
 1247SOL    HW3 5019   0.432   3.975   2.164
 1247SOL    MW4 5020   0.416   3.986   2.249
 1248SOL     OW 5021   0.422   4.255   2.379
 1248SOL    HW2 5022   0.500   4.299   2.345
 1248SOL    HW3 5023   0.417   4.174   2.329
 1248SOL    MW4 5024   0.432   4.250   2.368
 1249SOL     OW 5025   0.638   4.404   2.272
 1249SOL    HW2 5026   0.655   4.493   2.304
 1249SOL    HW3 5027   0.646   4.412   2.177
 1249SOL    MW4 5028   0.641   4.417   2.264
 1250SOL     OW 5029   1.154   4.620   2.329
 1250SOL    HW2 5030   1.155   4.632   2.424
 1250SOL    HW3 5031   1.079   4.671   2.299
 1250SOL    MW4 5032   1.144   4.628   2.337
 1251SOL     OW 5033   0.923   0.123   2.263
 1251SOL    HW2 5034   0.932   0.211   2.301
 1251SOL    HW3 5035   0.935   0.136   2.169
 1251SOL    MW4 5036   0.926   0.137   2.255
 1252SOL     OW 5037   0.891   0.373   2.386
 1252SOL    HW2 5038   0.956   0.430   2.345
 1252SOL    HW3 5039   0.808   0.400   2.346
 1252SOL    MW4 5040   0.889   0.384   2.375
 1253SOL     OW 5041   1.113   0.495   2.238
 1253SOL    HW2 5042   1.175   0.434   2.277
 1253SOL    HW3 5043   1.133   0.493   2.144
 1253SOL    MW4 5044   1.124   0.486   2.230
 1254SOL     OW 5045   1.150   0.778   2.319
 1254SOL    HW2 5046   1.065   0.808   2.285
 1254SOL    HW3 5047   1.156   0.687   2.290
 1254SOL    MW4 5048   1.139   0.770   2.310
 1255SOL     OW 5049   0.906   0.896   2.222
 1255SOL    HW2 5050   0.897   0.989   2.243
 1255SOL    HW3 5051   0.833   0.854   2.268
 1255SOL    MW4 5052   0.895   0.903   2.231
 1256SOL     OW 5053   0.926   1.153   2.327
 1256SOL    HW2 5054   0.980   1.220   2.285
 1256SOL    HW3 5055   0.836   1.182   2.314
 1256SOL    MW4 5056   0.921   1.165   2.320
 1257SOL     OW 5057   1.122   1.314   2.210
 1257SOL    HW2 5058   1.190   1.263   2.255
 1257SOL    HW3 5059   1.142   1.303   2.117
 1257SOL    MW4 5060   1.134   1.306   2.203
 1258SOL     OW 5061   1.117   1.539   2.369
 1258SOL    HW2 5062   1.041   1.591   2.343
 1258SOL    HW3 5063   1.105   1.456   2.322
 1258SOL    MW4 5064   1.105   1.535   2.359
 1259SOL     OW 5065   0.889   1.663   2.264
 1259SOL    HW2 5066   0.876   1.754   2.289
 1259SOL    HW3 5067   0.875   1.661   2.169
 1259SOL    MW4 5068   0.886   1.675   2.255
 1260SOL     OW 5069   0.875   1.927   2.348
 1260SOL    HW2 5070   0.871   1.937   2.444
 1260SOL    HW3 5071   0.945   1.987   2.322
 1260SOL    MW4 5072   0.884   1.936   2.357
 1261SOL     OW 5073   1.092   2.076   2.250
 1261SOL    HW2 5074   1.165   2.028   2.289
 1261SOL    HW3 5075   1.101   2.060   2.156
 1261SOL    MW4 5076   1.102   2.068   2.243
 1262SOL     OW 5077   1.068   2.353   2.392
 1262SOL    HW2 5078   1.154   2.384   2.366
 1262SOL    HW3 5079   1.063   2.264   2.356
 1262SOL    MW4 5080   1.079   2.345   2.384
 1263SOL     OW 5081   0.857   2.483   2.282
 1263SOL    HW2 5082   0.940   2.447   2.315
 1263SOL    HW3 5083   0.868   2.485   2.187
 1263SOL    MW4 5084   0.870   2.479   2.274
 1264SOL     OW 5085   0.862   2.741   2.385
 1264SOL    HW2 5086   0.853   2.738   2.480
 1264SOL    HW3 5087   0.859   2.649   2.358
 1264SOL    MW4 5088   0.861   2.728   2.394
 1265SOL     OW 5089   1.118   2.840   2.268
 1265SOL    HW2 5090   1.194   2.793   2.302
 1265SOL    HW3 5091   1.043   2.791   2.300
 1265SOL    MW4 5092   1.118   2.828   2.277
 1266SOL     OW 5093   1.112   3.101   2.374
 1266SOL    HW2 5094   1.038   3.142   2.329
 1266SOL    HW3 5095   1.121   3.015   2.334
 1266SOL    MW4 5096   1.103   3.095   2.363
 1267SOL     OW 5097   0.886   3.219   2.275
 1267SOL    HW2 5098   0.881   3.311   2.301
 1267SOL    HW3 5099   0.814   3.177   2.322
 1267SOL    MW4 5100   0.876   3.226   2.285
 1268SOL     OW 5101   0.886   3.495   2.315
 1268SOL    HW2 5102   0.895   3.491   2.410
 1268SOL    HW3 5103   0.802   3.540   2.301
 1268SOL    MW4 5104   0.876   3.501   2.326
 1269SOL     OW 5105   1.132   3.608   2.239
 1269SOL    HW2 5106   1.207   3.561   2.274
 1269SOL    HW3 5107   1.056   3.554   2.263
 1269SOL    MW4 5108   1.132   3.595   2.247
 1270SOL     OW 5109   1.119   3.883   2.307
 1270SOL    HW2 5110   1.192   3.929   2.265
 1270SOL    HW3 5111   1.136   3.790   2.288
 1270SOL    MW4 5112   1.131   3.876   2.299
 1271SOL     OW 5113   0.884   4.015   2.253
 1271SOL    HW2 5114   0.960   3.963   2.279
 1271SOL    HW3 5115   0.809   3.963   2.283
 1271SOL    MW4 5116   0.884   4.001   2.260
 1272SOL     OW 5117   0.869   4.275   2.352
 1272SOL    HW2 5118   0.862   4.186   2.317
 1272SOL    HW3 5119   0.787   4.317   2.327
 1272SOL    MW4 5120   0.857   4.269   2.344
 1273SOL     OW 5121   1.117   4.360   2.254
 1273SOL    HW2 5122   1.034   4.319   2.282
 1273SOL    HW3 5123   1.113   4.448   2.290
 1273SOL    MW4 5124   1.105   4.366   2.263
 1274SOL     OW 5125   1.597   4.626   2.378
 1274SOL    HW2 5126   1.673   4.659   2.330
 1274SOL    HW3 5127   1.524   4.681   2.349
 1274SOL    MW4 5128   1.597   4.638   2.368
 1275SOL     OW 5129   1.397   0.097   2.261
 1275SOL    HW2 5130   1.379   0.189   2.282
 1275SOL    HW3 5131   1.314   0.052   2.280
 1275SOL    MW4 5132   1.384   0.103   2.266
 1276SOL     OW 5133   1.317   0.351   2.326
 1276SOL    HW2 5134   1.315   0.367   2.421
 1276SOL    HW3 5135   1.405   0.378   2.300
 1276SOL    MW4 5136   1.329   0.357   2.335
 1277SOL     OW 5137   1.562   0.482   2.269
 1277SOL    HW2 5138   1.651   0.450   2.281
 1277SOL    HW3 5139   1.551   0.490   2.175
 1277SOL    MW4 5140   1.572   0.479   2.258
 1278SOL     OW 5141   1.558   0.755   2.341
 1278SOL    HW2 5142   1.645   0.791   2.323
 1278SOL    HW3 5143   1.566   0.662   2.320
 1278SOL    MW4 5144   1.570   0.748   2.336
 1279SOL     OW 5145   1.358   0.926   2.240
 1279SOL    HW2 5146   1.430   0.875   2.278
 1279SOL    HW3 5147   1.280   0.875   2.259
 1279SOL    MW4 5148   1.357   0.913   2.248
 1280SOL     OW 5149   1.301   1.155   2.369
 1280SOL    HW2 5150   1.303   1.138   2.464
 1280SOL    HW3 5151   1.319   1.070   2.330
 1280SOL    MW4 5152   1.303   1.141   2.377
 1281SOL     OW 5153   1.517   1.309   2.259
 1281SOL    HW2 5154   1.445   1.260   2.299
 1281SOL    HW3 5155   1.517   1.280   2.168
 1281SOL    MW4 5156   1.508   1.298   2.252
 1282SOL     OW 5157   1.538   1.572   2.333
 1282SOL    HW2 5158   1.628   1.597   2.313
 1282SOL    HW3 5159   1.531   1.481   2.303
 1282SOL    MW4 5160   1.549   1.564   2.326
 1283SOL     OW 5161   1.305   1.693   2.233
 1283SOL    HW2 5162   1.376   1.670   2.292
 1283SOL    HW3 5163   1.233   1.635   2.259
 1283SOL    MW4 5164   1.305   1.683   2.245
 1284SOL     OW 5165   1.330   1.946   2.341
 1284SOL    HW2 5166   1.416   1.972   2.306
 1284SOL    HW3 5167   1.317   1.857   2.308
 1284SOL    MW4 5168   1.340   1.938   2.332
 1285SOL     OW 5169   1.586   2.050   2.248
 1285SOL    HW2 5170   1.657   1.990   2.269
 1285SOL    HW3 5171   1.577   2.045   2.153
 1285SOL    MW4 5172   1.594   2.042   2.238
 1286SOL     OW 5173   1.584   2.331   2.348
 1286SOL    HW2 5174   1.575   2.350   2.442
 1286SOL    HW3 5175   1.591   2.235   2.344
 1286SOL    MW4 5176   1.584   2.321   2.360
 1287SOL     OW 5177   1.319   2.428   2.280
 1287SOL    HW2 5178   1.398   2.379   2.302
 1287SOL    HW3 5179   1.310   2.419   2.185
 1287SOL    MW4 5180   1.328   2.420   2.271
 1288SOL     OW 5181   1.355   2.701   2.341
 1288SOL    HW2 5182   1.447   2.717   2.320
 1288SOL    HW3 5183   1.344   2.607   2.334
 1288SOL    MW4 5184   1.366   2.691   2.337
 1289SOL     OW 5185   1.596   2.802   2.243
 1289SOL    HW2 5186   1.583   2.896   2.256
 1289SOL    HW3 5187   1.594   2.791   2.147
 1289SOL    MW4 5188   1.594   2.813   2.232
 1290SOL     OW 5189   1.564   3.070   2.324
 1290SOL    HW2 5190   1.584   3.076   2.417
 1290SOL    HW3 5191   1.480   3.115   2.314
 1290SOL    MW4 5192   1.555   3.076   2.335
 1291SOL     OW 5193   1.337   3.220   2.254
 1291SOL    HW2 5194   1.262   3.183   2.299
 1291SOL    HW3 5195   1.313   3.218   2.161
 1291SOL    MW4 5196   1.324   3.215   2.247
 1292SOL     OW 5197   1.341   3.473   2.338
 1292SOL    HW2 5198   1.346   3.487   2.432
 1292SOL    HW3 5199   1.347   3.378   2.328
 1292SOL    MW4 5200   1.343   3.462   2.349
 1293SOL     OW 5201   1.567   3.596   2.238
 1293SOL    HW2 5202   1.555   3.684   2.273
 1293SOL    HW3 5203   1.485   3.550   2.257
 1293SOL    MW4 5204   1.555   3.601   2.245
 1294SOL     OW 5205   1.555   3.864   2.328
 1294SOL    HW2 5206   1.547   3.871   2.423
 1294SOL    HW3 5207   1.628   3.922   2.306
 1294SOL    MW4 5208   1.564   3.873   2.337
 1295SOL     OW 5209   1.358   4.008   2.223
 1295SOL    HW2 5210   1.428   3.958   2.266
 1295SOL    HW3 5211   1.382   4.006   2.130
 1295SOL    MW4 5212   1.370   4.001   2.216
 1296SOL     OW 5213   1.333   4.241   2.365
 1296SOL    HW2 5214   1.338   4.164   2.308
 1296SOL    HW3 5215   1.253   4.287   2.336
 1296SOL    MW4 5216   1.323   4.237   2.354
 1297SOL     OW 5217   1.532   4.393   2.244
 1297SOL    HW2 5218   1.477   4.334   2.295
 1297SOL    HW3 5219   1.544   4.469   2.301
 1297SOL    MW4 5220   1.526   4.395   2.259
 1298SOL     OW 5221   2.038   0.002   2.382
 1298SOL    HW2 5222   2.120   0.027   2.339
 1298SOL    HW3 5223   2.017  -0.084   2.344
 1298SOL    MW4 5224   2.046  -0.006   2.371
 1299SOL     OW 5225   1.808   0.111   2.255
 1299SOL    HW2 5226   1.826   0.203   2.272
 1299SOL    HW3 5227   1.872   0.064   2.308
 1299SOL    MW4 5228   1.819   0.117   2.264
 1300SOL     OW 5229   1.838   0.370   2.301
 1300SOL    HW2 5230   1.824   0.369   2.396
 1300SOL    HW3 5231   1.915   0.426   2.289
 1300SOL    MW4 5232   1.846   0.377   2.312
 1301SOL     OW 5233   2.061   0.504   2.256
 1301SOL    HW2 5234   2.032   0.590   2.288
 1301SOL    HW3 5235   2.059   0.511   2.161
 1301SOL    MW4 5236   2.057   0.517   2.248
 1302SOL     OW 5237   1.976   0.784   2.337
 1302SOL    HW2 5238   2.052   0.836   2.311
 1302SOL    HW3 5239   1.901   0.836   2.307
 1302SOL    MW4 5240   1.976   0.798   2.329
 1303SOL     OW 5241   1.750   0.917   2.252
 1303SOL    HW2 5242   1.761   1.009   2.276
 1303SOL    HW3 5243   1.769   0.914   2.159
 1303SOL    MW4 5244   1.754   0.929   2.243
 1304SOL     OW 5245   1.792   1.182   2.338
 1304SOL    HW2 5246   1.869   1.216   2.292
 1304SOL    HW3 5247   1.721   1.240   2.310
 1304SOL    MW4 5248   1.793   1.194   2.328
 1305SOL     OW 5249   2.038   1.288   2.259
 1305SOL    HW2 5250   2.034   1.380   2.287
 1305SOL    HW3 5251   2.043   1.293   2.164
 1305SOL    MW4 5252   2.038   1.301   2.250
 1306SOL     OW 5253   2.043   1.564   2.335
 1306SOL    HW2 5254   2.045   1.558   2.431
 1306SOL    HW3 5255   1.950   1.574   2.314
 1306SOL    MW4 5256   2.031   1.565   2.345
 1307SOL     OW 5257   1.790   1.645   2.277
 1307SOL    HW2 5258   1.815   1.735   2.300
 1307SOL    HW3 5259   1.791   1.643   2.182
 1307SOL    MW4 5260   1.794   1.657   2.268
 1308SOL     OW 5261   1.838   1.905   2.349
 1308SOL    HW2 5262   1.835   1.910   2.444
 1308SOL    HW3 5263   1.916   1.956   2.325
 1308SOL    MW4 5264   1.848   1.912   2.358
 1309SOL     OW 5265   2.059   2.092   2.248
 1309SOL    HW2 5266   2.140   2.048   2.274
 1309SOL    HW3 5267   2.051   2.076   2.154
 1309SOL    MW4 5268   2.068   2.084   2.239
 1310SOL     OW 5269   2.049   2.328   2.396
 1310SOL    HW2 5270   2.114   2.381   2.350
 1310SOL    HW3 5271   2.073   2.238   2.376
 1310SOL    MW4 5272   2.061   2.323   2.388
 1311SOL     OW 5273   1.844   2.402   2.230
 1311SOL    HW2 5274   1.911   2.368   2.290
 1311SOL    HW3 5275   1.762   2.370   2.266
 1311SOL    MW4 5276   1.842   2.393   2.242
 1312SOL     OW 5277   1.803   2.667   2.361
 1312SOL    HW2 5278   1.819   2.586   2.313
 1312SOL    HW3 5279   1.726   2.705   2.320
 1312SOL    MW4 5280   1.795   2.661   2.349
 1313SOL     OW 5281   2.003   2.834   2.231
 1313SOL    HW2 5282   2.089   2.796   2.252
 1313SOL    HW3 5283   1.941   2.777   2.277
 1313SOL    MW4 5284   2.006   2.821   2.239
 1314SOL     OW 5285   2.027   3.114   2.306
 1314SOL    HW2 5286   2.106   3.149   2.264
 1314SOL    HW3 5287   2.019   3.025   2.274
 1314SOL    MW4 5288   2.036   3.107   2.296
 1315SOL     OW 5289   1.797   3.223   2.229
 1315SOL    HW2 5290   1.877   3.184   2.265
 1315SOL    HW3 5291   1.726   3.171   2.266
 1315SOL    MW4 5292   1.798   3.211   2.239
 1316SOL     OW 5293   1.815   3.488   2.324
 1316SOL    HW2 5294   1.823   3.399   2.288
 1316SOL    HW3 5295   1.727   3.516   2.297
 1316SOL    MW4 5296   1.804   3.480   2.315
 1317SOL     OW 5297   2.052   3.633   2.257
 1317SOL    HW2 5298   1.977   3.590   2.298
 1317SOL    HW3 5299   2.047   3.606   2.165
 1317SOL    MW4 5300   2.041   3.623   2.250
 1318SOL     OW 5301   1.987   3.902   2.343
 1318SOL    HW2 5302   1.989   3.880   2.436
 1318SOL    HW3 5303   1.999   3.818   2.298
 1318SOL    MW4 5304   1.989   3.888   2.349
 1319SOL     OW 5305   1.773   4.050   2.234
 1319SOL    HW2 5306   1.844   4.007   2.281
 1319SOL    HW3 5307   1.791   4.032   2.142
 1319SOL    MW4 5308   1.784   4.042   2.228
 1320SOL     OW 5309   1.789   4.295   2.317
 1320SOL    HW2 5310   1.790   4.205   2.285
 1320SOL    HW3 5311   1.708   4.332   2.284
 1320SOL    MW4 5312   1.779   4.288   2.309
 1321SOL     OW 5313   2.015   4.433   2.259
 1321SOL    HW2 5314   1.947   4.376   2.296
 1321SOL    HW3 5315   2.016   4.411   2.166
 1321SOL    MW4 5316   2.006   4.423   2.252
 1322SOL     OW 5317   2.478   4.652   2.365
 1322SOL    HW2 5318   2.541   4.711   2.323
 1322SOL    HW3 5319   2.482   4.572   2.313
 1322SOL    MW4 5320   2.487   4.650   2.353
 1323SOL     OW 5321   2.262   0.097   2.250
 1323SOL    HW2 5322   2.262   0.187   2.283
 1323SOL    HW3 5323   2.326   0.051   2.305
 1323SOL    MW4 5324   2.271   0.103   2.262
 1324SOL     OW 5325   2.282   0.350   2.371
 1324SOL    HW2 5326   2.359   0.403   2.348
 1324SOL    HW3 5327   2.210   0.392   2.324
 1324SOL    MW4 5328   2.283   0.363   2.362
 1325SOL     OW 5329   2.490   0.503   2.271
 1325SOL    HW2 5330   2.569   0.449   2.279
 1325SOL    HW3 5331   2.464   0.493   2.180
 1325SOL    MW4 5332   2.497   0.494   2.260
 1326SOL     OW 5333   2.435   0.770   2.328
 1326SOL    HW2 5334   2.510   0.829   2.325
 1326SOL    HW3 5335   2.472   0.683   2.316
 1326SOL    MW4 5336   2.449   0.766   2.326
 1327SOL     OW 5337   2.216   0.922   2.237
 1327SOL    HW2 5338   2.228   1.011   2.272
 1327SOL    HW3 5339   2.292   0.873   2.268
 1327SOL    MW4 5340   2.227   0.928   2.246
 1328SOL     OW 5341   2.277   1.162   2.365
 1328SOL    HW2 5342   2.348   1.193   2.309
 1328SOL    HW3 5343   2.202   1.216   2.340
 1328SOL    MW4 5344   2.277   1.173   2.354
 1329SOL     OW 5345   2.493   1.273   2.222
 1329SOL    HW2 5346   2.551   1.224   2.281
 1329SOL    HW3 5347   2.491   1.361   2.259
 1329SOL    MW4 5348   2.501   1.278   2.235
 1330SOL     OW 5349   2.511   1.526   2.361
 1330SOL    HW2 5350   2.505   1.530   2.457
 1330SOL    HW3 5351   2.592   1.572   2.340
 1330SOL    MW4 5352   2.521   1.532   2.371
 1331SOL     OW 5353   2.281   1.671   2.239
 1331SOL    HW2 5354   2.343   1.628   2.299
 1331SOL    HW3 5355   2.195   1.645   2.270
 1331SOL    MW4 5356   2.278   1.662   2.251
 1332SOL     OW 5357   2.256   1.918   2.337
 1332SOL    HW2 5358   2.335   1.970   2.325
 1332SOL    HW3 5359   2.268   1.842   2.280
 1332SOL    MW4 5360   2.268   1.915   2.328
 1333SOL     OW 5361   2.500   2.063   2.298
 1333SOL    HW2 5362   2.573   2.005   2.317
 1333SOL    HW3 5363   2.495   2.065   2.202
 1333SOL    MW4 5364   2.509   2.056   2.288
 1334SOL     OW 5365   2.471   2.334   2.360
 1334SOL    HW2 5366   2.563   2.359   2.346
 1334SOL    HW3 5367   2.467   2.242   2.336
 1334SOL    MW4 5368   2.483   2.325   2.355
 1335SOL     OW 5369   2.244   2.481   2.267
 1335SOL    HW2 5370   2.233   2.574   2.285
 1335SOL    HW3 5371   2.329   2.460   2.306
 1335SOL    MW4 5372   2.254   2.491   2.274
 1336SOL     OW 5373   2.254   2.744   2.322
 1336SOL    HW2 5374   2.258   2.733   2.417
 1336SOL    HW3 5375   2.343   2.765   2.296
 1336SOL    MW4 5376   2.266   2.745   2.331
 1337SOL     OW 5377   2.495   2.837   2.255
 1337SOL    HW2 5378   2.565   2.793   2.303
 1337SOL    HW3 5379   2.502   2.802   2.166
 1337SOL    MW4 5380   2.505   2.827   2.249
 1338SOL     OW 5381   2.476   3.112   2.278
 1338SOL    HW2 5382   2.560   3.157   2.284
 1338SOL    HW3 5383   2.498   3.020   2.265
 1338SOL    MW4 5384   2.490   3.106   2.277
 1339SOL     OW 5385   2.254   3.239   2.187
 1339SOL    HW2 5386   2.256   3.321   2.236
 1339SOL    HW3 5387   2.337   3.196   2.211
 1339SOL    MW4 5388   2.265   3.244   2.197
 1340SOL     OW 5389   2.268   3.466   2.320
 1340SOL    HW2 5390   2.263   3.471   2.416
 1340SOL    HW3 5391   2.214   3.538   2.289
 1340SOL    MW4 5392   2.260   3.476   2.329
 1341SOL     OW 5393   2.486   3.608   2.192
 1341SOL    HW2 5394   2.468   3.697   2.220
 1341SOL    HW3 5395   2.417   3.556   2.233
 1341SOL    MW4 5396   2.475   3.613   2.201
 1342SOL     OW 5397   2.455   3.869   2.303
 1342SOL    HW2 5398   2.456   3.872   2.399
 1342SOL    HW3 5399   2.380   3.922   2.278
 1342SOL    MW4 5400   2.445   3.876   2.313
 1343SOL     OW 5401   2.228   4.010   2.241
 1343SOL    HW2 5402   2.231   4.100   2.273
 1343SOL    HW3 5403   2.149   3.973   2.280
 1343SOL    MW4 5404   2.218   4.017   2.250
 1344SOL     OW 5405   2.238   4.301   2.332
 1344SOL    HW2 5406   2.226   4.285   2.425
 1344SOL    HW3 5407   2.162   4.353   2.306
 1344SOL    MW4 5408   2.227   4.306   2.341
 1345SOL     OW 5409   2.478   4.415   2.218
 1345SOL    HW2 5410   2.560   4.381   2.256
 1345SOL    HW3 5411   2.409   4.377   2.273
 1345SOL    MW4 5412   2.480   4.406   2.231
 1346SOL     OW 5413   2.908   4.638   2.386
 1346SOL    HW2 5414   2.983   4.680   2.344
 1346SOL    HW3 5415   2.907   4.549   2.350
 1346SOL    MW4 5416   2.918   4.632   2.376
 1347SOL     OW 5417   2.729   0.129   2.235
 1347SOL    HW2 5418   2.724   0.212   2.283
 1347SOL    HW3 5419   2.788   0.075   2.288
 1347SOL    MW4 5420   2.736   0.133   2.248
 1348SOL     OW 5421   2.708   0.373   2.352
 1348SOL    HW2 5422   2.710   0.366   2.448
 1348SOL    HW3 5423   2.782   0.430   2.331
 1348SOL    MW4 5424   2.718   0.380   2.362
 1349SOL     OW 5425   2.940   0.513   2.265
 1349SOL    HW2 5426   2.931   0.605   2.287
 1349SOL    HW3 5427   2.933   0.510   2.170
 1349SOL    MW4 5428   2.938   0.524   2.255
 1350SOL     OW 5429   2.895   0.769   2.334
 1350SOL    HW2 5430   2.897   0.762   2.430
 1350SOL    HW3 5431   2.815   0.817   2.316
 1350SOL    MW4 5432   2.885   0.775   2.345
 1351SOL     OW 5433   2.667   0.912   2.284
 1351SOL    HW2 5434   2.677   1.005   2.306
 1351SOL    HW3 5435   2.680   0.909   2.189
 1351SOL    MW4 5436   2.670   0.924   2.274
 1352SOL     OW 5437   2.698   1.163   2.372
 1352SOL    HW2 5438   2.710   1.175   2.467
 1352SOL    HW3 5439   2.777   1.201   2.333
 1352SOL    MW4 5440   2.710   1.170   2.380
 1353SOL     OW 5441   2.939   1.281   2.294
 1353SOL    HW2 5442   3.029   1.267   2.322
 1353SOL    HW3 5443   2.944   1.288   2.198
 1353SOL    MW4 5444   2.951   1.280   2.285
 1354SOL     OW 5445   2.965   1.550   2.398
 1354SOL    HW2 5446   2.973   1.555   2.493
 1354SOL    HW3 5447   2.954   1.456   2.380
 1354SOL    MW4 5448   2.964   1.538   2.408
 1355SOL     OW 5449   2.723   1.683   2.283
 1355SOL    HW2 5450   2.801   1.651   2.328
 1355SOL    HW3 5451   2.750   1.692   2.191
 1355SOL    MW4 5452   2.737   1.680   2.277
 1356SOL     OW 5453   2.742   1.942   2.373
 1356SOL    HW2 5454   2.732   1.928   2.467
 1356SOL    HW3 5455   2.736   1.854   2.336
 1356SOL    MW4 5456   2.740   1.928   2.381
 1357SOL     OW 5457   2.944   2.102   2.256
 1357SOL    HW2 5458   3.023   2.076   2.303
 1357SOL    HW3 5459   2.872   2.065   2.307
 1357SOL    MW4 5460   2.945   2.093   2.269
 1358SOL     OW 5461   2.928   2.349   2.368
 1358SOL    HW2 5462   2.911   2.332   2.461
 1358SOL    HW3 5463   2.945   2.263   2.330
 1358SOL    MW4 5464   2.928   2.336   2.376
 1359SOL     OW 5465   2.710   2.438   2.229
 1359SOL    HW2 5466   2.792   2.411   2.271
 1359SOL    HW3 5467   2.726   2.423   2.135
 1359SOL    MW4 5468   2.723   2.432   2.222
 1360SOL     OW 5469   2.706   2.687   2.352
 1360SOL    HW2 5470   2.785   2.735   2.325
 1360SOL    HW3 5471   2.710   2.605   2.302
 1360SOL    MW4 5472   2.717   2.682   2.341
 1361SOL     OW 5473   2.951   2.838   2.304
 1361SOL    HW2 5474   2.965   2.928   2.333
 1361SOL    HW3 5475   2.957   2.843   2.209
 1361SOL    MW4 5476   2.953   2.851   2.295
 1362SOL     OW 5477   2.947   3.105   2.365
 1362SOL    HW2 5478   3.024   3.155   2.339
 1362SOL    HW3 5479   2.876   3.142   2.313
 1362SOL    MW4 5480   2.948   3.117   2.355
 1363SOL     OW 5481   2.724   3.268   2.244
 1363SOL    HW2 5482   2.714   3.360   2.265
 1363SOL    HW3 5483   2.706   3.263   2.150
 1363SOL    MW4 5484   2.720   3.279   2.234
 1364SOL     OW 5485   2.693   3.530   2.364
 1364SOL    HW2 5486   2.769   3.570   2.321
 1364SOL    HW3 5487   2.619   3.551   2.306
 1364SOL    MW4 5488   2.693   3.538   2.351
 1365SOL     OW 5489   2.913   3.648   2.211
 1365SOL    HW2 5490   2.975   3.603   2.268
 1365SOL    HW3 5491   2.908   3.737   2.246
 1365SOL    MW4 5492   2.920   3.654   2.223
 1366SOL     OW 5493   2.927   3.908   2.358
 1366SOL    HW2 5494   2.918   3.893   2.452
 1366SOL    HW3 5495   2.839   3.932   2.328
 1366SOL    MW4 5496   2.914   3.909   2.366
 1367SOL     OW 5497   2.686   4.009   2.240
 1367SOL    HW2 5498   2.614   3.964   2.283
 1367SOL    HW3 5499   2.669   3.999   2.147
 1367SOL    MW4 5500   2.674   4.002   2.234
 1368SOL     OW 5501   2.690   4.269   2.352
 1368SOL    HW2 5502   2.680   4.258   2.447
 1368SOL    HW3 5503   2.667   4.183   2.316
 1368SOL    MW4 5504   2.685   4.256   2.360
 1369SOL     OW 5505   2.927   4.385   2.276
 1369SOL    HW2 5506   2.999   4.338   2.318
 1369SOL    HW3 5507   2.848   4.338   2.305
 1369SOL    MW4 5508   2.926   4.373   2.285
 1370SOL     OW 5509   3.368   4.666   2.347
 1370SOL    HW2 5510   3.373   4.657   2.443
 1370SOL    HW3 5511   3.443   4.722   2.325
 1370SOL    MW4 5512   3.379   4.673   2.357
 1371SOL     OW 5513   3.119   0.088   2.269
 1371SOL    HW2 5514   3.123   0.181   2.289
 1371SOL    HW3 5515   3.199   0.051   2.307
 1371SOL    MW4 5516   3.130   0.095   2.276
 1372SOL     OW 5517   3.150   0.366   2.337
 1372SOL    HW2 5518   3.229   0.411   2.308
 1372SOL    HW3 5519   3.080   0.431   2.325
 1372SOL    MW4 5520   3.151   0.381   2.331
 1373SOL     OW 5521   3.352   0.540   2.268
 1373SOL    HW2 5522   3.430   0.488   2.291
 1373SOL    HW3 5523   3.340   0.523   2.174
 1373SOL    MW4 5524   3.361   0.531   2.258
 1374SOL     OW 5525   3.338   0.798   2.351
 1374SOL    HW2 5526   3.420   0.836   2.320
 1374SOL    HW3 5527   3.342   0.706   2.324
 1374SOL    MW4 5528   3.350   0.791   2.343
 1375SOL     OW 5529   3.120   0.946   2.284
 1375SOL    HW2 5530   3.197   0.892   2.300
 1375SOL    HW3 5531   3.047   0.896   2.322
 1375SOL    MW4 5532   3.121   0.932   2.291
 1376SOL     OW 5533   3.190   1.214   2.400
 1376SOL    HW2 5534   3.281   1.230   2.378
 1376SOL    HW3 5535   3.164   1.138   2.348
 1376SOL    MW4 5536   3.198   1.206   2.391
 1377SOL     OW 5537   3.436   1.277   2.230
 1377SOL    HW2 5538   3.503   1.228   2.278
 1377SOL    HW3 5539   3.452   1.368   2.254
 1377SOL    MW4 5540   3.447   1.282   2.240
 1378SOL     OW 5541   3.428   1.521   2.365
 1378SOL    HW2 5542   3.421   1.528   2.460
 1378SOL    HW3 5543   3.337   1.526   2.334
 1378SOL    MW4 5544   3.415   1.523   2.374
 1379SOL     OW 5545   3.175   1.609   2.246
 1379SOL    HW2 5546   3.199   1.701   2.241
 1379SOL    HW3 5547   3.105   1.607   2.312
 1379SOL    MW4 5548   3.169   1.621   2.254
 1380SOL     OW 5549   3.170   2.049   2.389
 1380SOL    HW2 5550   3.158   2.015   2.478
 1380SOL    HW3 5551   3.226   1.985   2.346
 1380SOL    MW4 5552   3.175   2.036   2.395
 1381SOL     OW 5553   3.313   1.854   2.247
 1381SOL    HW2 5554   3.400   1.855   2.288
 1381SOL    HW3 5555   3.323   1.911   2.170
 1381SOL    MW4 5556   3.326   1.862   2.242
 1382SOL     OW 5557   3.353   2.259   2.371
 1382SOL    HW2 5558   3.308   2.336   2.337
 1382SOL    HW3 5559   3.287   2.189   2.369
 1382SOL    MW4 5560   3.338   2.260   2.366
 1383SOL     OW 5561   3.183   2.439   2.269
 1383SOL    HW2 5562   3.191   2.529   2.302
 1383SOL    HW3 5563   3.098   2.409   2.302
 1383SOL    MW4 5564   3.173   2.447   2.278
 1384SOL     OW 5565   3.175   2.678   2.388
 1384SOL    HW2 5566   3.190   2.672   2.482
 1384SOL    HW3 5567   3.087   2.714   2.380
 1384SOL    MW4 5568   3.165   2.682   2.399
 1385SOL     OW 5569   3.397   2.808   2.276
 1385SOL    HW2 5570   3.391   2.896   2.313
 1385SOL    HW3 5571   3.325   2.760   2.316
 1385SOL    MW4 5572   3.387   2.813   2.286
 1386SOL     OW 5573   3.382   3.069   2.363
 1386SOL    HW2 5574   3.445   3.122   2.315
 1386SOL    HW3 5575   3.298   3.115   2.352
 1386SOL    MW4 5576   3.379   3.082   2.355
 1387SOL     OW 5577   3.171   3.260   2.302
 1387SOL    HW2 5578   3.134   3.339   2.341
 1387SOL    HW3 5579   3.143   3.263   2.210
 1387SOL    MW4 5580   3.162   3.271   2.295
 1388SOL     OW 5581   3.099   3.516   2.374
 1388SOL    HW2 5582   3.114   3.515   2.468
 1388SOL    HW3 5583   3.186   3.533   2.336
 1388SOL    MW4 5584   3.113   3.518   2.381
 1389SOL     OW 5585   3.347   3.592   2.293
 1389SOL    HW2 5586   3.419   3.532   2.313
 1389SOL    HW3 5587   3.332   3.581   2.199
 1389SOL    MW4 5588   3.355   3.583   2.284
 1390SOL     OW 5589   3.373   3.852   2.369
 1390SOL    HW2 5590   3.444   3.897   2.323
 1390SOL    HW3 5591   3.371   3.764   2.330
 1390SOL    MW4 5592   3.382   3.846   2.358
 1391SOL     OW 5593   3.154   4.033   2.244
 1391SOL    HW2 5594   3.232   3.982   2.267
 1391SOL    HW3 5595   3.082   3.990   2.291
 1391SOL    MW4 5596   3.155   4.020   2.253
 1392SOL     OW 5597   3.176   4.276   2.377
 1392SOL    HW2 5598   3.244   4.327   2.332
 1392SOL    HW3 5599   3.162   4.200   2.321
 1392SOL    MW4 5600   3.183   4.272   2.364
 1393SOL     OW 5601   3.388   4.402   2.249
 1393SOL    HW2 5602   3.387   4.497   2.255
 1393SOL    HW3 5603   3.379   4.384   2.155
 1393SOL    MW4 5604   3.386   4.412   2.237
 1394SOL     OW 5605   3.804   4.638   2.345
 1394SOL    HW2 5606   3.802   4.647   2.440
 1394SOL    HW3 5607   3.889   4.676   2.320
 1394SOL    MW4 5608   3.815   4.644   2.354
 1395SOL     OW 5609   3.595   0.141   2.261
 1395SOL    HW2 5610   3.634   0.222   2.294
 1395SOL    HW3 5611   3.664   0.076   2.271
 1395SOL    MW4 5612   3.609   0.143   2.266
 1396SOL     OW 5613   3.590   0.421   2.324
 1396SOL    HW2 5614   3.589   0.405   2.419
 1396SOL    HW3 5615   3.682   0.439   2.305
 1396SOL    MW4 5616   3.602   0.421   2.334
 1397SOL     OW 5617   3.848   0.486   2.258
 1397SOL    HW2 5618   3.830   0.576   2.286
 1397SOL    HW3 5619   3.834   0.488   2.163
 1397SOL    MW4 5620   3.843   0.498   2.249
 1398SOL     OW 5621   3.812   0.764   2.391
 1398SOL    HW2 5622   3.795   0.776   2.484
 1398SOL    HW3 5623   3.876   0.831   2.369
 1398SOL    MW4 5624   3.819   0.774   2.400
 1399SOL     OW 5625   3.588   0.886   2.254
 1399SOL    HW2 5626   3.658   0.838   2.297
 1399SOL    HW3 5627   3.608   0.880   2.160
 1399SOL    MW4 5628   3.600   0.879   2.247
 1400SOL     OW 5629   3.630   1.135   2.344
 1400SOL    HW2 5630   3.624   1.130   2.440
 1400SOL    HW3 5631   3.612   1.046   2.315
 1400SOL    MW4 5632   3.627   1.122   2.353
 1401SOL     OW 5633   3.874   1.269   2.243
 1401SOL    HW2 5634   3.867   1.352   2.291
 1401SOL    HW3 5635   3.804   1.215   2.278
 1401SOL    MW4 5636   3.864   1.273   2.254
 1402SOL     OW 5637   3.851   1.518   2.352
 1402SOL    HW2 5638   3.846   1.507   2.447
 1402SOL    HW3 5639   3.772   1.567   2.329
 1402SOL    MW4 5640   3.840   1.523   2.361
 1403SOL     OW 5641   3.640   1.664   2.280
 1403SOL    HW2 5642   3.565   1.616   2.313
 1403SOL    HW3 5643   3.626   1.669   2.186
 1403SOL    MW4 5644   3.629   1.658   2.272
 1404SOL     OW 5645   3.567   1.903   2.385
 1404SOL    HW2 5646   3.610   1.975   2.339
 1404SOL    HW3 5647   3.617   1.825   2.360
 1404SOL    MW4 5648   3.579   1.902   2.376
 1405SOL     OW 5649   3.785   2.023   2.291
 1405SOL    HW2 5650   3.867   1.978   2.311
 1405SOL    HW3 5651   3.786   2.035   2.196
 1405SOL    MW4 5652   3.796   2.018   2.281
 1406SOL     OW 5653   3.805   2.280   2.388
 1406SOL    HW2 5654   3.729   2.327   2.353
 1406SOL    HW3 5655   3.792   2.189   2.362
 1406SOL    MW4 5656   3.793   2.274   2.380
 1407SOL     OW 5657   3.583   2.391   2.271
 1407SOL    HW2 5658   3.517   2.328   2.301
 1407SOL    HW3 5659   3.560   2.407   2.179
 1407SOL    MW4 5660   3.571   2.385   2.263
 1408SOL     OW 5661   3.595   2.666   2.389
 1408SOL    HW2 5662   3.582   2.575   2.362
 1408SOL    HW3 5663   3.522   2.713   2.349
 1408SOL    MW4 5664   3.584   2.660   2.380
 1409SOL     OW 5665   3.796   2.828   2.277
 1409SOL    HW2 5666   3.800   2.912   2.322
 1409SOL    HW3 5667   3.735   2.776   2.328
 1409SOL    MW4 5668   3.789   2.832   2.289
 1410SOL     OW 5669   3.783   3.081   2.375
 1410SOL    HW2 5670   3.789   3.109   2.466
 1410SOL    HW3 5671   3.850   3.132   2.330
 1410SOL    MW4 5672   3.793   3.091   2.381
 1411SOL     OW 5673   3.577   3.206   2.234
 1411SOL    HW2 5674   3.563   3.287   2.281
 1411SOL    HW3 5675   3.652   3.165   2.278
 1411SOL    MW4 5676   3.585   3.211   2.246
 1412SOL     OW 5677   3.552   3.443   2.371
 1412SOL    HW2 5678   3.564   3.447   2.466
 1412SOL    HW3 5679   3.623   3.496   2.335
 1412SOL    MW4 5680   3.563   3.450   2.379
 1413SOL     OW 5681   3.733   3.629   2.260
 1413SOL    HW2 5682   3.731   3.718   2.295
 1413SOL    HW3 5683   3.738   3.641   2.165
 1413SOL    MW4 5684   3.733   3.642   2.252
 1414SOL     OW 5685   3.776   3.890   2.362
 1414SOL    HW2 5686   3.771   3.887   2.458
 1414SOL    HW3 5687   3.857   3.936   2.343
 1414SOL    MW4 5688   3.786   3.895   2.372
 1415SOL     OW 5689   3.548   3.990   2.211
 1415SOL    HW2 5690   3.545   4.081   2.240
 1415SOL    HW3 5691   3.629   3.956   2.248
 1415SOL    MW4 5692   3.558   3.998   2.220
 1416SOL     OW 5693   3.583   4.241   2.363
 1416SOL    HW2 5694   3.660   4.275   2.319
 1416SOL    HW3 5695   3.511   4.297   2.331
 1416SOL    MW4 5696   3.583   4.253   2.353
 1417SOL     OW 5697   3.814   4.370   2.266
 1417SOL    HW2 5698   3.885   4.326   2.314
 1417SOL    HW3 5699   3.809   4.457   2.304
 1417SOL    MW4 5700   3.823   4.376   2.278
 1418SOL     OW 5701   4.236   4.628   2.361
 1418SOL    HW2 5702   4.237   4.639   2.456
 1418SOL    HW3 5703   4.321   4.660   2.332
 1418SOL    MW4 5704   4.247   4.634   2.370
 1419SOL     OW 5705   4.029   0.103   2.253
 1419SOL    HW2 5706   4.035   0.186   2.301
 1419SOL    HW3 5707   4.105   0.053   2.282
 1419SOL    MW4 5708   4.040   0.108   2.263
 1420SOL     OW 5709   4.072   0.346   2.361
 1420SOL    HW2 5710   4.145   0.406   2.345
 1420SOL    HW3 5711   3.995   0.394   2.331
 1420SOL    MW4 5712   4.072   0.361   2.355
 1421SOL     OW 5713   4.268   0.513   2.272
 1421SOL    HW2 5714   4.267   0.591   2.327
 1421SOL    HW3 5715   4.347   0.466   2.298
 1421SOL    MW4 5716   4.278   0.517   2.283
 1422SOL     OW 5717   4.258   0.760   2.384
 1422SOL    HW2 5718   4.182   0.802   2.343
 1422SOL    HW3 5719   4.333   0.808   2.351
 1422SOL    MW4 5720   4.258   0.772   2.375
 1423SOL     OW 5721   4.044   0.890   2.274
 1423SOL    HW2 5722   4.066   0.975   2.313
 1423SOL    HW3 5723   4.033   0.908   2.181
 1423SOL    MW4 5724   4.045   0.904   2.267
 1424SOL     OW 5725   4.084   1.147   2.367
 1424SOL    HW2 5726   4.060   1.141   2.460
 1424SOL    HW3 5727   4.011   1.193   2.327
 1424SOL    MW4 5728   4.072   1.152   2.374
 1425SOL     OW 5729   4.314   1.260   2.254
 1425SOL    HW2 5730   4.241   1.209   2.290
 1425SOL    HW3 5731   4.389   1.236   2.308
 1425SOL    MW4 5732   4.314   1.250   2.266
 1426SOL     OW 5733   4.307   1.549   2.356
 1426SOL    HW2 5734   4.308   1.454   2.344
 1426SOL    HW3 5735   4.391   1.578   2.321
 1426SOL    MW4 5736   4.318   1.540   2.349
 1427SOL     OW 5737   4.064   1.671   2.280
 1427SOL    HW2 5738   4.140   1.623   2.312
 1427SOL    HW3 5739   3.989   1.617   2.305
 1427SOL    MW4 5740   4.064   1.658   2.287
 1428SOL     OW 5741   4.037   1.928   2.340
 1428SOL    HW2 5742   4.020   1.929   2.434
 1428SOL    HW3 5743   4.045   1.836   2.317
 1428SOL    MW4 5744   4.036   1.916   2.349
 1429SOL     OW 5745   4.279   2.039   2.294
 1429SOL    HW2 5746   4.272   2.130   2.323
 1429SOL    HW3 5747   4.196   1.999   2.322
 1429SOL    MW4 5748   4.267   2.046   2.302
 1430SOL     OW 5749   4.279   2.306   2.384
 1430SOL    HW2 5750   4.193   2.337   2.355
 1430SOL    HW3 5751   4.341   2.365   2.342
 1430SOL    MW4 5752   4.276   2.318   2.375
 1431SOL     OW 5753   4.049   2.410   2.250
 1431SOL    HW2 5754   4.063   2.499   2.284
 1431SOL    HW3 5755   3.968   2.382   2.292
 1431SOL    MW4 5756   4.040   2.418   2.260
 1432SOL     OW 5757   4.039   2.696   2.342
 1432SOL    HW2 5758   4.044   2.725   2.434
 1432SOL    HW3 5759   3.957   2.734   2.310
 1432SOL    MW4 5760   4.028   2.705   2.350
 1433SOL     OW 5761   4.243   2.898   2.266
 1433SOL    HW2 5762   4.169   2.842   2.291
 1433SOL    HW3 5763   4.320   2.850   2.296
 1433SOL    MW4 5764   4.243   2.884   2.274
 1434SOL     OW 5765   4.272   3.156   2.364
 1434SOL    HW2 5766   4.240   3.071   2.334
 1434SOL    HW3 5767   4.348   3.174   2.308
 1434SOL    MW4 5768   4.278   3.147   2.353
 1435SOL     OW 5769   4.011   3.239   2.278
 1435SOL    HW2 5770   3.990   3.330   2.297
 1435SOL    HW3 5771   4.103   3.230   2.305
 1435SOL    MW4 5772   4.021   3.250   2.284
 1436SOL     OW 5773   3.985   3.501   2.363
 1436SOL    HW2 5774   4.065   3.537   2.326
 1436SOL    HW3 5775   3.915   3.555   2.326
 1436SOL    MW4 5776   3.986   3.513   2.353
 1437SOL     OW 5777   4.222   3.614   2.275
 1437SOL    HW2 5778   4.238   3.692   2.327
 1437SOL    HW3 5779   4.238   3.641   2.185
 1437SOL    MW4 5780   4.226   3.628   2.270
 1438SOL     OW 5781   4.267   3.863   2.398
 1438SOL    HW2 5782   4.284   3.884   2.490
 1438SOL    HW3 5783   4.338   3.905   2.350
 1438SOL    MW4 5784   4.279   3.871   2.404
 1439SOL     OW 5785   4.028   3.983   2.292
 1439SOL    HW2 5786   4.105   3.940   2.329
 1439SOL    HW3 5787   4.041   3.980   2.197
 1439SOL    MW4 5788   4.040   3.977   2.284
 1440SOL     OW 5789   4.029   4.240   2.398
 1440SOL    HW2 5790   4.097   4.292   2.355
 1440SOL    HW3 5791   4.033   4.155   2.353
 1440SOL    MW4 5792   4.038   4.235   2.386
 1441SOL     OW 5793   4.228   4.381   2.249
 1441SOL    HW2 5794   4.233   4.467   2.291
 1441SOL    HW3 5795   4.302   4.332   2.286
 1441SOL    MW4 5796   4.238   4.386   2.260
 1442SOL     OW 5797   0.203   4.596   2.641
 1442SOL    HW2 5798   0.202   4.505   2.670
 1442SOL    HW3 5799   0.133   4.638   2.690
 1442SOL    MW4 5800   0.194   4.590   2.651
 1443SOL     OW 5801   4.473   0.068   2.750
 1443SOL    HW2 5802   4.473   0.073   2.845
 1443SOL    HW3 5803   4.483   0.158   2.721
 1443SOL    MW4 5804   4.474   0.080   2.759
 1444SOL     OW 5805   4.475   0.339   2.673
 1444SOL    HW2 5806   4.557   0.385   2.694
 1444SOL    HW3 5807   4.473   0.336   2.577
 1444SOL    MW4 5808   4.486   0.344   2.663
 1445SOL     OW 5809   0.214   0.487   2.763
 1445SOL    HW2 5810   0.227   0.499   2.857
 1445SOL    HW3 5811   0.298   0.453   2.732
 1445SOL    MW4 5812   0.227   0.484   2.771
 1446SOL     OW 5813   0.199   0.723   2.612
 1446SOL    HW2 5814   0.281   0.766   2.639
 1446SOL    HW3 5815   0.193   0.646   2.668
 1446SOL    MW4 5816   0.209   0.718   2.623
 1447SOL     OW 5817   4.488   0.886   2.711
 1447SOL    HW2 5818   4.408   0.849   2.674
 1447SOL    HW3 5819   4.560   0.844   2.663
 1447SOL    MW4 5820   4.487   0.876   2.700
 1448SOL     OW 5821   4.474   1.155   2.668
 1448SOL    HW2 5822   4.554   1.200   2.699
 1448SOL    HW3 5823   4.486   1.064   2.698
 1448SOL    MW4 5824   4.486   1.149   2.676
 1449SOL     OW 5825   0.236   1.260   2.757
 1449SOL    HW2 5826   0.304   1.208   2.714
 1449SOL    HW3 5827   0.264   1.351   2.745
 1449SOL    MW4 5828   0.249   1.265   2.750
 1450SOL     OW 5829   0.260   1.521   2.678
 1450SOL    HW2 5830   0.340   1.569   2.700
 1450SOL    HW3 5831   0.189   1.578   2.706
 1450SOL    MW4 5832   0.261   1.535   2.684
 1451SOL     OW 5833   0.016   1.663   2.750
 1451SOL    HW2 5834  -0.004   1.659   2.844
 1451SOL    HW3 5835   0.020   1.756   2.730
 1451SOL    MW4 5836   0.014   1.675   2.760
 1452SOL     OW 5837   0.015   1.936   2.647
 1452SOL    HW2 5838   0.099   1.967   2.680
 1452SOL    HW3 5839   0.021   1.946   2.552
 1452SOL    MW4 5840   0.027   1.941   2.639
 1453SOL     OW 5841   0.215   2.082   2.800
 1453SOL    HW2 5842   0.294   2.045   2.763
 1453SOL    HW3 5843   0.206   2.167   2.757
 1453SOL    MW4 5844   0.224   2.089   2.790
 1454SOL     OW 5845   0.193   2.326   2.672
 1454SOL    HW2 5846   0.259   2.385   2.709
 1454SOL    HW3 5847   0.109   2.366   2.695
 1454SOL    MW4 5848   0.191   2.339   2.680
 1455SOL     OW 5849   4.468   2.491   2.762
 1455SOL    HW2 5850   4.479   2.467   2.854
 1455SOL    HW3 5851   4.390   2.443   2.734
 1455SOL    MW4 5852   4.459   2.481   2.771
 1456SOL     OW 5853   4.482   2.728   2.627
 1456SOL    HW2 5854   4.410   2.782   2.660
 1456SOL    HW3 5855   4.473   2.645   2.675
 1456SOL    MW4 5856   4.471   2.724   2.638
 1457SOL     OW 5857   0.192   2.880   2.754
 1457SOL    HW2 5858   0.195   2.963   2.707
 1457SOL    HW3 5859   0.118   2.833   2.715
 1457SOL    MW4 5860   0.182   2.884   2.743
 1458SOL     OW 5861   0.212   3.126   2.615
 1458SOL    HW2 5862   0.291   3.171   2.645
 1458SOL    HW3 5863   0.217   3.128   2.520
 1458SOL    MW4 5864   0.223   3.132   2.607
 1459SOL     OW 5865   0.014   3.265   2.745
 1459SOL    HW2 5866  -0.054   3.216   2.699
 1459SOL    HW3 5867   0.096   3.224   2.718
 1459SOL    MW4 5868   0.016   3.253   2.736
 1460SOL     OW 5869   0.041   3.513   2.601
 1460SOL    HW2 5870   0.102   3.563   2.655
 1460SOL    HW3 5871   0.026   3.432   2.651
 1460SOL    MW4 5872   0.047   3.509   2.615
 1461SOL     OW 5873   0.203   3.653   2.766
 1461SOL    HW2 5874   0.197   3.656   2.861
 1461SOL    HW3 5875   0.292   3.621   2.749
 1461SOL    MW4 5876   0.214   3.649   2.776
 1462SOL     OW 5877   0.161   3.895   2.625
 1462SOL    HW2 5878   0.166   3.810   2.670
 1462SOL    HW3 5879   0.183   3.875   2.534
 1462SOL    MW4 5880   0.165   3.881   2.619
 1463SOL     OW 5881   0.025   4.045   2.803
 1463SOL    HW2 5882   0.002   4.117   2.745
 1463SOL    HW3 5883   0.076   3.985   2.748
 1463SOL    MW4 5884   0.029   4.047   2.788
 1464SOL     OW 5885   4.412   4.252   2.646
 1464SOL    HW2 5886   4.350   4.303   2.698
 1464SOL    HW3 5887   4.499   4.283   2.673
 1464SOL    MW4 5888   4.415   4.263   2.656
 1465SOL     OW 5889   0.189   4.326   2.716
 1465SOL    HW2 5890   0.190   4.332   2.812
 1465SOL    HW3 5891   0.270   4.282   2.693
 1465SOL    MW4 5892   0.200   4.321   2.726
 1466SOL     OW 5893   0.673   4.640   2.618
 1466SOL    HW2 5894   0.747   4.675   2.668
 1466SOL    HW3 5895   0.596   4.682   2.656
 1466SOL    MW4 5896   0.673   4.650   2.630
 1467SOL     OW 5897   0.452   0.103   2.738
 1467SOL    HW2 5898   0.462   0.090   2.832
 1467SOL    HW3 5899   0.373   0.055   2.715
 1467SOL    MW4 5900   0.443   0.095   2.747
 1468SOL     OW 5901   0.466   0.386   2.674
 1468SOL    HW2 5902   0.544   0.438   2.689
 1468SOL    HW3 5903   0.486   0.301   2.713
 1468SOL    MW4 5904   0.479   0.381   2.681
 1469SOL     OW 5905   0.717   0.535   2.739
 1469SOL    HW2 5906   0.722   0.523   2.834
 1469SOL    HW3 5907   0.767   0.462   2.702
 1469SOL    MW4 5908   0.724   0.524   2.747
 1470SOL     OW 5909   0.676   0.781   2.624
 1470SOL    HW2 5910   0.746   0.829   2.666
 1470SOL    HW3 5911   0.670   0.699   2.672
 1470SOL    MW4 5912   0.684   0.777   2.636
 1471SOL     OW 5913   0.422   0.861   2.696
 1471SOL    HW2 5914   0.426   0.956   2.686
 1471SOL    HW3 5915   0.510   0.830   2.673
 1471SOL    MW4 5916   0.434   0.869   2.692
 1472SOL     OW 5917   0.445   1.132   2.646
 1472SOL    HW2 5918   0.529   1.170   2.673
 1472SOL    HW3 5919   0.447   1.134   2.550
 1472SOL    MW4 5920   0.457   1.137   2.637
 1473SOL     OW 5921   0.679   1.266   2.703
 1473SOL    HW2 5922   0.687   1.255   2.797
 1473SOL    HW3 5923   0.761   1.232   2.667
 1473SOL    MW4 5924   0.691   1.260   2.710
 1474SOL     OW 5925   0.692   1.527   2.639
 1474SOL    HW2 5926   0.620   1.581   2.671
 1474SOL    HW3 5927   0.683   1.444   2.687
 1474SOL    MW4 5928   0.681   1.523   2.650
 1475SOL     OW 5929   0.472   1.677   2.727
 1475SOL    HW2 5930   0.462   1.679   2.823
 1475SOL    HW3 5931   0.448   1.765   2.699
 1475SOL    MW4 5932   0.468   1.689   2.736
 1476SOL     OW 5933   0.427   1.947   2.657
 1476SOL    HW2 5934   0.503   1.991   2.695
 1476SOL    HW3 5935   0.435   1.963   2.563
 1476SOL    MW4 5936   0.439   1.955   2.649
 1477SOL     OW 5937   0.647   2.069   2.738
 1477SOL    HW2 5938   0.660   2.064   2.832
 1477SOL    HW3 5939   0.705   2.001   2.702
 1477SOL    MW4 5940   0.657   2.059   2.746
 1478SOL     OW 5941   0.689   2.352   2.661
 1478SOL    HW2 5942   0.769   2.388   2.700
 1478SOL    HW3 5943   0.689   2.260   2.688
 1478SOL    MW4 5944   0.700   2.345   2.670
 1479SOL     OW 5945   0.437   2.479   2.751
 1479SOL    HW2 5946   0.411   2.562   2.713
 1479SOL    HW3 5947   0.517   2.455   2.704
 1479SOL    MW4 5948   0.444   2.486   2.740
 1480SOL     OW 5949   0.399   2.720   2.639
 1480SOL    HW2 5950   0.477   2.752   2.683
 1480SOL    HW3 5951   0.327   2.773   2.675
 1480SOL    MW4 5952   0.400   2.731   2.650
 1481SOL     OW 5953   0.628   2.804   2.753
 1481SOL    HW2 5954   0.625   2.795   2.848
 1481SOL    HW3 5955   0.636   2.899   2.738
 1481SOL    MW4 5956   0.629   2.816   2.763
 1482SOL     OW 5957   0.668   3.083   2.707
 1482SOL    HW2 5958   0.757   3.113   2.726
 1482SOL    HW3 5959   0.654   3.105   2.615
 1482SOL    MW4 5960   0.678   3.090   2.697
 1483SOL     OW 5961   0.444   3.236   2.736
 1483SOL    HW2 5962   0.451   3.237   2.831
 1483SOL    HW3 5963   0.524   3.193   2.706
 1483SOL    MW4 5964   0.455   3.230   2.745
 1484SOL     OW 5965   0.444   3.501   2.675
 1484SOL    HW2 5966   0.408   3.419   2.708
 1484SOL    HW3 5967   0.446   3.489   2.580
 1484SOL    MW4 5968   0.439   3.488   2.667
 1485SOL     OW 5969   0.693   3.620   2.732
 1485SOL    HW2 5970   0.688   3.633   2.826
 1485SOL    HW3 5971   0.614   3.569   2.710
 1485SOL    MW4 5972   0.682   3.615   2.741
 1486SOL     OW 5973   0.663   3.874   2.634
 1486SOL    HW2 5974   0.587   3.902   2.685
 1486SOL    HW3 5975   0.682   3.786   2.665
 1486SOL    MW4 5976   0.655   3.866   2.645
 1487SOL     OW 5977   0.424   3.952   2.755
 1487SOL    HW2 5978   0.440   4.042   2.729
 1487SOL    HW3 5979   0.338   3.931   2.718
 1487SOL    MW4 5980   0.415   3.961   2.747
 1488SOL     OW 5981   0.465   4.219   2.663
 1488SOL    HW2 5982   0.538   4.274   2.692
 1488SOL    HW3 5983   0.457   4.238   2.569
 1488SOL    MW4 5984   0.474   4.229   2.654
 1489SOL     OW 5985   0.667   4.392   2.765
 1489SOL    HW2 5986   0.749   4.354   2.733
 1489SOL    HW3 5987   0.660   4.476   2.720
 1489SOL    MW4 5988   0.677   4.398   2.755
 1490SOL     OW 5989   1.169   4.621   2.614
 1490SOL    HW2 5990   1.242   4.663   2.660
 1490SOL    HW3 5991   1.178   4.528   2.636
 1490SOL    MW4 5992   1.180   4.615   2.623
 1491SOL     OW 5993   0.931   0.049   2.706
 1491SOL    HW2 5994   0.942   0.076   2.797
 1491SOL    HW3 5995   1.018   0.018   2.679
 1491SOL    MW4 5996   0.944   0.049   2.714
 1492SOL     OW 5997   0.890   0.327   2.644
 1492SOL    HW2 5998   0.904   0.233   2.649
 1492SOL    HW3 5999   0.890   0.346   2.550
 1492SOL    MW4 6000   0.892   0.317   2.632
 1493SOL     OW 6001   1.103   0.509   2.725
 1493SOL    HW2 6002   1.080   0.594   2.687
 1493SOL    HW3 6003   1.026   0.454   2.708
 1493SOL    MW4 6004   1.090   0.513   2.718
 1494SOL     OW 6005   1.089   0.766   2.607
 1494SOL    HW2 6006   1.163   0.803   2.655
 1494SOL    HW3 6007   1.106   0.788   2.516
 1494SOL    MW4 6008   1.101   0.774   2.602
 1495SOL     OW 6009   0.903   0.941   2.733
 1495SOL    HW2 6010   0.919   0.930   2.827
 1495SOL    HW3 6011   0.968   0.885   2.691
 1495SOL    MW4 6012   0.914   0.932   2.740
 1496SOL     OW 6013   0.926   1.185   2.593
 1496SOL    HW2 6014   0.928   1.095   2.626
 1496SOL    HW3 6015   0.934   1.176   2.498
 1496SOL    MW4 6016   0.927   1.172   2.585
 1497SOL     OW 6017   1.108   1.304   2.742
 1497SOL    HW2 6018   1.120   1.392   2.706
 1497SOL    HW3 6019   1.038   1.266   2.690
 1497SOL    MW4 6020   1.100   1.310   2.730
 1498SOL     OW 6021   1.133   1.556   2.639
 1498SOL    HW2 6022   1.048   1.595   2.661
 1498SOL    HW3 6023   1.127   1.538   2.545
 1498SOL    MW4 6024   1.121   1.559   2.630
 1499SOL     OW 6025   0.907   1.681   2.726
 1499SOL    HW2 6026   0.900   1.698   2.820
 1499SOL    HW3 6027   0.844   1.611   2.710
 1499SOL    MW4 6028   0.898   1.674   2.737
 1500SOL     OW 6029   0.879   1.937   2.618
 1500SOL    HW2 6030   0.945   1.991   2.662
 1500SOL    HW3 6031   0.899   1.847   2.646
 1500SOL    MW4 6032   0.890   1.932   2.628
 1501SOL     OW 6033   1.059   2.087   2.765
 1501SOL    HW2 6034   1.142   2.048   2.736
 1501SOL    HW3 6035   1.061   2.176   2.729
 1501SOL    MW4 6036   1.070   2.094   2.756
 1502SOL     OW 6037   1.110   2.333   2.673
 1502SOL    HW2 6038   1.181   2.393   2.693
 1502SOL    HW3 6039   1.112   2.323   2.578
 1502SOL    MW4 6040   1.119   2.340   2.663
 1503SOL     OW 6041   0.912   2.465   2.776
 1503SOL    HW2 6042   0.900   2.544   2.723
 1503SOL    HW3 6043   0.976   2.413   2.727
 1503SOL    MW4 6044   0.919   2.469   2.762
 1504SOL     OW 6045   0.854   2.696   2.648
 1504SOL    HW2 6046   0.923   2.749   2.690
 1504SOL    HW3 6047   0.774   2.723   2.693
 1504SOL    MW4 6048   0.853   2.707   2.660
 1505SOL     OW 6049   1.083   2.832   2.740
 1505SOL    HW2 6050   1.106   2.825   2.833
 1505SOL    HW3 6051   1.159   2.795   2.694
 1505SOL    MW4 6052   1.096   2.826   2.746
 1506SOL     OW 6053   1.148   3.096   2.653
 1506SOL    HW2 6054   1.122   3.007   2.676
 1506SOL    HW3 6055   1.136   3.101   2.558
 1506SOL    MW4 6056   1.143   3.085   2.643
 1507SOL     OW 6057   0.919   3.208   2.750
 1507SOL    HW2 6058   0.903   3.286   2.698
 1507SOL    HW3 6059   1.006   3.179   2.722
 1507SOL    MW4 6060   0.928   3.215   2.740
 1508SOL     OW 6061   0.887   3.462   2.612
 1508SOL    HW2 6062   0.961   3.508   2.653
 1508SOL    HW3 6063   0.810   3.512   2.642
 1508SOL    MW4 6064   0.887   3.475   2.621
 1509SOL     OW 6065   1.102   3.599   2.720
 1509SOL    HW2 6066   1.101   3.626   2.811
 1509SOL    HW3 6067   1.100   3.681   2.670
 1509SOL    MW4 6068   1.102   3.613   2.725
 1510SOL     OW 6069   1.098   3.851   2.588
 1510SOL    HW2 6070   1.178   3.889   2.626
 1510SOL    HW3 6071   1.110   3.859   2.493
 1510SOL    MW4 6072   1.110   3.857   2.580
 1511SOL     OW 6073   0.893   4.008   2.701
 1511SOL    HW2 6074   0.958   3.963   2.646
 1511SOL    HW3 6075   0.809   3.970   2.674
 1511SOL    MW4 6076   0.890   3.997   2.690
 1512SOL     OW 6077   0.888   4.266   2.623
 1512SOL    HW2 6078   0.892   4.174   2.648
 1512SOL    HW3 6079   0.884   4.265   2.527
 1512SOL    MW4 6080   0.888   4.254   2.613
 1513SOL     OW 6081   1.144   4.351   2.703
 1513SOL    HW2 6082   1.137   4.378   2.794
 1513SOL    HW3 6083   1.055   4.327   2.677
 1513SOL    MW4 6084   1.131   4.351   2.711
 1514SOL     OW 6085   1.589   4.667   2.642
 1514SOL    HW2 6086   1.599   4.581   2.684
 1514SOL    HW3 6087   1.607   4.650   2.550
 1514SOL    MW4 6088   1.593   4.653   2.635
 1515SOL     OW 6089   1.353   0.135   2.725
 1515SOL    HW2 6090   1.360   0.230   2.714
 1515SOL    HW3 6091   1.434   0.101   2.686
 1515SOL    MW4 6092   1.365   0.143   2.718
 1516SOL     OW 6093   1.348   0.394   2.612
 1516SOL    HW2 6094   1.430   0.439   2.631
 1516SOL    HW3 6095   1.280   0.450   2.650
 1516SOL    MW4 6096   1.349   0.407   2.619
 1517SOL     OW 6097   1.589   0.499   2.702
 1517SOL    HW2 6098   1.652   0.453   2.647
 1517SOL    HW3 6099   1.596   0.590   2.676
 1517SOL    MW4 6100   1.598   0.505   2.692
 1518SOL     OW 6101   1.569   0.747   2.623
 1518SOL    HW2 6102   1.493   0.794   2.658
 1518SOL    HW3 6103   1.561   0.757   2.528
 1518SOL    MW4 6104   1.558   0.755   2.615
 1519SOL     OW 6105   1.329   0.852   2.714
 1519SOL    HW2 6106   1.341   0.845   2.809
 1519SOL    HW3 6107   1.340   0.945   2.695
 1519SOL    MW4 6108   1.332   0.863   2.724
 1520SOL     OW 6109   1.321   1.144   2.665
 1520SOL    HW2 6110   1.389   1.210   2.677
 1520SOL    HW3 6111   1.239   1.192   2.679
 1520SOL    MW4 6112   1.319   1.159   2.669
 1521SOL     OW 6113   1.557   1.285   2.685
 1521SOL    HW2 6114   1.561   1.279   2.780
 1521SOL    HW3 6115   1.637   1.241   2.655
 1521SOL    MW4 6116   1.568   1.278   2.694
 1522SOL     OW 6117   1.570   1.560   2.616
 1522SOL    HW2 6118   1.557   1.466   2.628
 1522SOL    HW3 6119   1.554   1.575   2.523
 1522SOL    MW4 6120   1.566   1.550   2.605
 1523SOL     OW 6121   1.348   1.700   2.754
 1523SOL    HW2 6122   1.431   1.665   2.720
 1523SOL    HW3 6123   1.281   1.640   2.720
 1523SOL    MW4 6124   1.350   1.687   2.745
 1524SOL     OW 6125   1.322   1.976   2.636
 1524SOL    HW2 6126   1.317   1.886   2.668
 1524SOL    HW3 6127   1.305   1.969   2.542
 1524SOL    MW4 6128   1.319   1.963   2.628
 1525SOL     OW 6129   1.572   2.107   2.740
 1525SOL    HW2 6130   1.646   2.071   2.692
 1525SOL    HW3 6131   1.498   2.050   2.715
 1525SOL    MW4 6132   1.572   2.094   2.730
 1526SOL     OW 6133   1.520   2.367   2.622
 1526SOL    HW2 6134   1.602   2.408   2.649
 1526SOL    HW3 6135   1.513   2.289   2.676
 1526SOL    MW4 6136   1.530   2.362   2.633
 1527SOL     OW 6137   1.318   2.511   2.736
 1527SOL    HW2 6138   1.317   2.593   2.687
 1527SOL    HW3 6139   1.393   2.463   2.700
 1527SOL    MW4 6140   1.328   2.515   2.724
 1528SOL     OW 6141   1.322   2.771   2.605
 1528SOL    HW2 6142   1.409   2.802   2.630
 1528SOL    HW3 6143   1.327   2.758   2.511
 1528SOL    MW4 6144   1.334   2.773   2.596
 1529SOL     OW 6145   1.554   2.868   2.693
 1529SOL    HW2 6146   1.557   2.846   2.786
 1529SOL    HW3 6147   1.632   2.827   2.656
 1529SOL    MW4 6148   1.564   2.860   2.701
 1530SOL     OW 6149   1.578   3.131   2.602
 1530SOL    HW2 6150   1.663   3.172   2.620
 1530SOL    HW3 6151   1.584   3.046   2.646
 1530SOL    MW4 6152   1.590   3.125   2.611
 1531SOL     OW 6153   1.373   3.239   2.740
 1531SOL    HW2 6154   1.444   3.205   2.686
 1531SOL    HW3 6155   1.296   3.187   2.715
 1531SOL    MW4 6156   1.372   3.227   2.730
 1532SOL     OW 6157   1.356   3.495   2.620
 1532SOL    HW2 6158   1.384   3.414   2.663
 1532SOL    HW3 6159   1.269   3.512   2.655
 1532SOL    MW4 6160   1.348   3.486   2.630
 1533SOL     OW 6161   1.550   3.646   2.738
 1533SOL    HW2 6162   1.616   3.583   2.710
 1533SOL    HW3 6163   1.469   3.616   2.696
 1533SOL    MW4 6164   1.548   3.634   2.729
 1534SOL     OW 6165   1.546   3.900   2.606
 1534SOL    HW2 6166   1.469   3.932   2.654
 1534SOL    HW3 6167   1.560   3.812   2.641
 1534SOL    MW4 6168   1.537   3.893   2.617
 1535SOL     OW 6169   1.300   3.982   2.733
 1535SOL    HW2 6170   1.309   3.988   2.828
 1535SOL    HW3 6171   1.315   4.071   2.702
 1535SOL    MW4 6172   1.303   3.995   2.741
 1536SOL     OW 6173   1.364   4.232   2.634
 1536SOL    HW2 6174   1.279   4.269   2.658
 1536SOL    HW3 6175   1.359   4.219   2.540
 1536SOL    MW4 6176   1.352   4.235   2.625
 1537SOL     OW 6177   1.587   4.392   2.721
 1537SOL    HW2 6178   1.584   4.383   2.817
 1537SOL    HW3 6179   1.519   4.331   2.690
 1537SOL    MW4 6180   1.577   4.383   2.730
 1538SOL     OW 6181   2.048   0.038   2.648
 1538SOL    HW2 6182   2.137   0.069   2.660
 1538SOL    HW3 6183   2.038   0.029   2.553
 1538SOL    MW4 6184   2.058   0.041   2.637
 1539SOL     OW 6185   1.803   0.150   2.725
 1539SOL    HW2 6186   1.884   0.107   2.699
 1539SOL    HW3 6187   1.734   0.088   2.703
 1539SOL    MW4 6188   1.805   0.136   2.718
 1540SOL     OW 6189   1.823   0.379   2.574
 1540SOL    HW2 6190   1.872   0.439   2.630
 1540SOL    HW3 6191   1.817   0.298   2.626
 1540SOL    MW4 6192   1.829   0.376   2.588
 1541SOL     OW 6193   2.000   0.524   2.740
 1541SOL    HW2 6194   2.071   0.469   2.709
 1541SOL    HW3 6195   2.007   0.604   2.688
 1541SOL    MW4 6196   2.010   0.528   2.729
 1542SOL     OW 6197   2.024   0.781   2.607
 1542SOL    HW2 6198   1.944   0.818   2.645
 1542SOL    HW3 6199   2.006   0.779   2.513
 1542SOL    MW4 6200   2.011   0.786   2.599
 1543SOL     OW 6201   1.798   0.869   2.701
 1543SOL    HW2 6202   1.795   0.959   2.670
 1543SOL    HW3 6203   1.720   0.828   2.664
 1543SOL    MW4 6204   1.788   0.875   2.692
 1544SOL     OW 6205   1.788   1.139   2.603
 1544SOL    HW2 6206   1.855   1.197   2.639
 1544SOL    HW3 6207   1.789   1.156   2.509
 1544SOL    MW4 6208   1.797   1.149   2.596
 1545SOL     OW 6209   1.981   1.328   2.707
 1545SOL    HW2 6210   1.975   1.320   2.802
 1545SOL    HW3 6211   2.064   1.285   2.685
 1545SOL    MW4 6212   1.991   1.321   2.717
 1546SOL     OW 6213   2.013   1.570   2.609
 1546SOL    HW2 6214   1.933   1.617   2.632
 1546SOL    HW3 6215   1.999   1.481   2.642
 1546SOL    MW4 6216   2.001   1.565   2.616
 1547SOL     OW 6217   1.789   1.709   2.707
 1547SOL    HW2 6218   1.798   1.678   2.797
 1547SOL    HW3 6219   1.716   1.659   2.671
 1547SOL    MW4 6220   1.781   1.698   2.714
 1548SOL     OW 6221   1.823   1.973   2.637
 1548SOL    HW2 6222   1.902   2.013   2.672
 1548SOL    HW3 6223   1.817   1.888   2.681
 1548SOL    MW4 6224   1.833   1.967   2.647
 1549SOL     OW 6225   2.043   2.120   2.738
 1549SOL    HW2 6226   2.044   2.116   2.833
 1549SOL    HW3 6227   2.054   2.213   2.718
 1549SOL    MW4 6228   2.045   2.132   2.748
 1550SOL     OW 6229   2.013   2.380   2.651
 1550SOL    HW2 6230   2.093   2.416   2.690
 1550SOL    HW3 6231   2.038   2.359   2.561
 1550SOL    MW4 6232   2.027   2.382   2.644
 1551SOL     OW 6233   1.769   2.445   2.741
 1551SOL    HW2 6234   1.789   2.451   2.835
 1551SOL    HW3 6235   1.847   2.405   2.702
 1551SOL    MW4 6236   1.782   2.440   2.748
 1552SOL     OW 6237   1.770   2.706   2.630
 1552SOL    HW2 6238   1.788   2.619   2.666
 1552SOL    HW3 6239   1.774   2.694   2.535
 1552SOL    MW4 6240   1.773   2.693   2.622
 1553SOL     OW 6241   2.026   2.858   2.721
 1553SOL    HW2 6242   2.102   2.821   2.676
 1553SOL    HW3 6243   1.952   2.808   2.687
 1553SOL    MW4 6244   2.026   2.846   2.710
 1554SOL     OW 6245   1.977   3.088   2.587
 1554SOL    HW2 6246   1.992   3.001   2.623
 1554SOL    HW3 6247   2.023   3.088   2.503
 1554SOL    MW4 6248   1.985   3.077   2.580
 1555SOL     OW 6249   1.813   3.257   2.725
 1555SOL    HW2 6250   1.809   3.342   2.680
 1555SOL    HW3 6251   1.875   3.206   2.673
 1555SOL    MW4 6252   1.821   3.262   2.712
 1556SOL     OW 6253   1.776   3.498   2.613
 1556SOL    HW2 6254   1.855   3.539   2.650
 1556SOL    HW3 6255   1.789   3.502   2.519
 1556SOL    MW4 6256   1.788   3.504   2.606
 1557SOL     OW 6257   2.027   3.576   2.676
 1557SOL    HW2 6258   2.034   3.573   2.771
 1557SOL    HW3 6259   2.103   3.528   2.644
 1557SOL    MW4 6260   2.038   3.569   2.684
 1558SOL     OW 6261   2.033   3.869   2.613
 1558SOL    HW2 6262   1.961   3.903   2.667
 1558SOL    HW3 6263   2.028   3.774   2.623
 1558SOL    MW4 6264   2.023   3.861   2.621
 1559SOL     OW 6265   1.790   3.991   2.687
 1559SOL    HW2 6266   1.786   4.082   2.657
 1559SOL    HW3 6267   1.701   3.958   2.672
 1559SOL    MW4 6268   1.778   3.999   2.681
 1560SOL     OW 6269   1.797   4.274   2.607
 1560SOL    HW2 6270   1.721   4.312   2.652
 1560SOL    HW3 6271   1.778   4.285   2.514
 1560SOL    MW4 6272   1.785   4.280   2.601
 1561SOL     OW 6273   2.032   4.424   2.698
 1561SOL    HW2 6274   1.956   4.392   2.649
 1561SOL    HW3 6275   2.036   4.518   2.679
 1561SOL    MW4 6276   2.023   4.432   2.689
 1562SOL     OW 6277   2.494   4.608   2.641
 1562SOL    HW2 6278   2.571   4.655   2.671
 1562SOL    HW3 6279   2.497   4.615   2.546
 1562SOL    MW4 6280   2.504   4.615   2.633
 1563SOL     OW 6281   2.285   0.125   2.726
 1563SOL    HW2 6282   2.270   0.115   2.820
 1563SOL    HW3 6283   2.362   0.071   2.708
 1563SOL    MW4 6284   2.293   0.117   2.736
 1564SOL     OW 6285   2.248   0.392   2.665
 1564SOL    HW2 6286   2.278   0.301   2.671
 1564SOL    HW3 6287   2.257   0.414   2.573
 1564SOL    MW4 6288   2.253   0.383   2.654
 1565SOL     OW 6289   2.464   0.540   2.765
 1565SOL    HW2 6290   2.473   0.620   2.713
 1565SOL    HW3 6291   2.380   0.503   2.738
 1565SOL    MW4 6292   2.454   0.545   2.754
 1566SOL     OW 6293   2.446   0.793   2.613
 1566SOL    HW2 6294   2.365   0.840   2.630
 1566SOL    HW3 6295   2.440   0.769   2.520
 1566SOL    MW4 6296   2.434   0.796   2.603
 1567SOL     OW 6297   2.216   0.916   2.725
 1567SOL    HW2 6298   2.208   0.902   2.819
 1567SOL    HW3 6299   2.150   0.858   2.686
 1567SOL    MW4 6300   2.206   0.906   2.732
 1568SOL     OW 6301   2.222   1.166   2.635
 1568SOL    HW2 6302   2.222   1.074   2.661
 1568SOL    HW3 6303   2.243   1.164   2.541
 1568SOL    MW4 6304   2.225   1.154   2.626
 1569SOL     OW 6305   2.467   1.255   2.762
 1569SOL    HW2 6306   2.543   1.223   2.714
 1569SOL    HW3 6307   2.394   1.242   2.701
 1569SOL    MW4 6308   2.467   1.249   2.747
 1570SOL     OW 6309   2.467   1.551   2.641
 1570SOL    HW2 6310   2.393   1.610   2.657
 1570SOL    HW3 6311   2.445   1.472   2.689
 1570SOL    MW4 6312   2.454   1.548   2.649
 1571SOL     OW 6313   2.239   1.698   2.732
 1571SOL    HW2 6314   2.247   1.773   2.673
 1571SOL    HW3 6315   2.155   1.658   2.709
 1571SOL    MW4 6316   2.229   1.702   2.721
 1572SOL     OW 6317   2.276   1.933   2.612
 1572SOL    HW2 6318   2.208   1.987   2.651
 1572SOL    HW3 6319   2.253   1.928   2.519
 1572SOL    MW4 6320   2.264   1.939   2.605
 1573SOL     OW 6321   2.466   2.046   2.771
 1573SOL    HW2 6322   2.454   2.136   2.741
 1573SOL    HW3 6323   2.401   1.995   2.722
 1573SOL    MW4 6324   2.456   2.051   2.760
 1574SOL     OW 6325   2.468   2.319   2.657
 1574SOL    HW2 6326   2.542   2.373   2.682
 1574SOL    HW3 6327   2.482   2.301   2.564
 1574SOL    MW4 6328   2.480   2.324   2.648
 1575SOL     OW 6329   2.264   2.489   2.708
 1575SOL    HW2 6330   2.273   2.487   2.803
 1575SOL    HW3 6331   2.347   2.455   2.675
 1575SOL    MW4 6332   2.276   2.484   2.716
 1576SOL     OW 6333   2.251   2.741   2.599
 1576SOL    HW2 6334   2.315   2.779   2.659
 1576SOL    HW3 6335   2.245   2.649   2.626
 1576SOL    MW4 6336   2.259   2.734   2.611
 1577SOL     OW 6337   2.502   2.862   2.743
 1577SOL    HW2 6338   2.582   2.816   2.717
 1577SOL    HW3 6339   2.508   2.947   2.700
 1577SOL    MW4 6340   2.513   2.867   2.734
 1578SOL     OW 6341   2.468   3.120   2.599
 1578SOL    HW2 6342   2.381   3.144   2.631
 1578SOL    HW3 6343   2.459   3.121   2.503
 1578SOL    MW4 6344   2.455   3.123   2.590
 1579SOL     OW 6345   2.224   3.189   2.721
 1579SOL    HW2 6346   2.210   3.184   2.816
 1579SOL    HW3 6347   2.136   3.178   2.684
 1579SOL    MW4 6348   2.210   3.187   2.729
 1580SOL     OW 6349   2.263   3.451   2.601
 1580SOL    HW2 6350   2.320   3.516   2.643
 1580SOL    HW3 6351   2.272   3.372   2.654
 1580SOL    MW4 6352   2.271   3.449   2.613
 1581SOL     OW 6353   2.440   3.642   2.722
 1581SOL    HW2 6354   2.447   3.627   2.816
 1581SOL    HW3 6355   2.479   3.728   2.709
 1581SOL    MW4 6356   2.446   3.651   2.733
 1582SOL     OW 6357   2.509   3.906   2.581
 1582SOL    HW2 6358   2.578   3.943   2.636
 1582SOL    HW3 6359   2.427   3.928   2.625
 1582SOL    MW4 6360   2.507   3.914   2.594
 1583SOL     OW 6361   2.270   3.963   2.708
 1583SOL    HW2 6362   2.263   3.949   2.802
 1583SOL    HW3 6363   2.198   3.912   2.671
 1583SOL    MW4 6364   2.260   3.954   2.715
 1584SOL     OW 6365   2.237   4.244   2.627
 1584SOL    HW2 6366   2.227   4.164   2.679
 1584SOL    HW3 6367   2.167   4.302   2.657
 1584SOL    MW4 6368   2.226   4.241   2.638
 1585SOL     OW 6369   2.475   4.332   2.770
 1585SOL    HW2 6370   2.394   4.301   2.730
 1585SOL    HW3 6371   2.480   4.424   2.745
 1585SOL    MW4 6372   2.465   4.340   2.762
 1586SOL     OW 6373   2.907   0.014   2.652
 1586SOL    HW2 6374   2.993   0.050   2.673
 1586SOL    HW3 6375   2.903   0.013   2.557
 1586SOL    MW4 6376   2.918   0.019   2.643
 1587SOL     OW 6377   2.672   0.111   2.752
 1587SOL    HW2 6378   2.666   0.103   2.848
 1587SOL    HW3 6379   2.760   0.080   2.731
 1587SOL    MW4 6380   2.683   0.106   2.762
 1588SOL     OW 6381   2.672   0.378   2.629
 1588SOL    HW2 6382   2.673   0.290   2.665
 1588SOL    HW3 6383   2.595   0.419   2.668
 1588SOL    MW4 6384   2.662   0.372   2.639
 1589SOL     OW 6385   2.897   0.525   2.732
 1589SOL    HW2 6386   2.888   0.612   2.693
 1589SOL    HW3 6387   2.819   0.478   2.703
 1589SOL    MW4 6388   2.886   0.530   2.723
 1590SOL     OW 6389   2.884   0.761   2.616
 1590SOL    HW2 6390   2.970   0.803   2.622
 1590SOL    HW3 6391   2.824   0.826   2.652
 1590SOL    MW4 6392   2.888   0.775   2.621
 1591SOL     OW 6393   2.686   0.914   2.711
 1591SOL    HW2 6394   2.675   0.909   2.806
 1591SOL    HW3 6395   2.601   0.886   2.676
 1591SOL    MW4 6396   2.673   0.910   2.719
 1592SOL     OW 6397   2.719   1.186   2.645
 1592SOL    HW2 6398   2.802   1.216   2.683
 1592SOL    HW3 6399   2.712   1.095   2.673
 1592SOL    MW4 6400   2.729   1.178   2.654
 1593SOL     OW 6401   2.956   1.290   2.745
 1593SOL    HW2 6402   2.955   1.280   2.841
 1593SOL    HW3 6403   3.030   1.238   2.716
 1593SOL    MW4 6404   2.966   1.282   2.754
 1594SOL     OW 6405   2.963   1.546   2.676
 1594SOL    HW2 6406   2.901   1.592   2.733
 1594SOL    HW3 6407   2.958   1.455   2.704
 1594SOL    MW4 6408   2.954   1.540   2.688
 1595SOL     OW 6409   2.703   1.643   2.746
 1595SOL    HW2 6410   2.714   1.649   2.841
 1595SOL    HW3 6411   2.613   1.612   2.735
 1595SOL    MW4 6412   2.693   1.640   2.757
 1596SOL     OW 6413   2.697   1.911   2.666
 1596SOL    HW2 6414   2.675   1.818   2.677
 1596SOL    HW3 6415   2.627   1.957   2.712
 1596SOL    MW4 6416   2.685   1.905   2.674
 1597SOL     OW 6417   2.927   2.052   2.778
 1597SOL    HW2 6418   2.907   2.135   2.734
 1597SOL    HW3 6419   2.855   1.994   2.754
 1597SOL    MW4 6420   2.915   2.055   2.769
 1598SOL     OW 6421   2.890   2.299   2.640
 1598SOL    HW2 6422   2.971   2.328   2.682
 1598SOL    HW3 6423   2.821   2.345   2.688
 1598SOL    MW4 6424   2.892   2.309   2.652
 1599SOL     OW 6425   2.690   2.457   2.759
 1599SOL    HW2 6426   2.692   2.475   2.853
 1599SOL    HW3 6427   2.698   2.544   2.719
 1599SOL    MW4 6428   2.691   2.471   2.766
 1600SOL     OW 6429   2.705   2.698   2.634
 1600SOL    HW2 6430   2.780   2.748   2.666
 1600SOL    HW3 6431   2.708   2.708   2.539
 1600SOL    MW4 6432   2.715   2.706   2.626
 1601SOL     OW 6433   2.947   2.814   2.727
 1601SOL    HW2 6434   2.964   2.815   2.821
 1601SOL    HW3 6435   2.957   2.906   2.700
 1601SOL    MW4 6436   2.951   2.826   2.736
 1602SOL     OW 6437   2.942   3.093   2.640
 1602SOL    HW2 6438   2.874   3.150   2.676
 1602SOL    HW3 6439   2.937   3.107   2.545
 1602SOL    MW4 6440   2.932   3.103   2.632
 1603SOL     OW 6441   2.711   3.242   2.746
 1603SOL    HW2 6442   2.703   3.332   2.714
 1603SOL    HW3 6443   2.646   3.193   2.697
 1603SOL    MW4 6444   2.702   3.248   2.735
 1604SOL     OW 6445   2.657   3.502   2.627
 1604SOL    HW2 6446   2.576   3.548   2.650
 1604SOL    HW3 6447   2.667   3.515   2.533
 1604SOL    MW4 6448   2.648   3.510   2.618
 1605SOL     OW 6449   2.898   3.619   2.728
 1605SOL    HW2 6450   2.910   3.597   2.820
 1605SOL    HW3 6451   2.821   3.568   2.701
 1605SOL    MW4 6452   2.889   3.609   2.737
 1606SOL     OW 6453   2.926   3.881   2.634
 1606SOL    HW2 6454   3.003   3.922   2.674
 1606SOL    HW3 6455   2.926   3.792   2.669
 1606SOL    MW4 6456   2.936   3.875   2.644
 1607SOL     OW 6457   2.699   3.997   2.756
 1607SOL    HW2 6458   2.709   4.086   2.724
 1607SOL    HW3 6459   2.773   3.950   2.718
 1607SOL    MW4 6460   2.710   4.002   2.747
 1608SOL     OW 6461   2.694   4.236   2.636
 1608SOL    HW2 6462   2.766   4.295   2.657
 1608SOL    HW3 6463   2.620   4.269   2.687
 1608SOL    MW4 6464   2.693   4.248   2.645
 1609SOL     OW 6465   2.925   4.420   2.701
 1609SOL    HW2 6466   2.943   4.424   2.795
 1609SOL    HW3 6467   2.920   4.511   2.673
 1609SOL    MW4 6468   2.927   4.432   2.709
 1610SOL     OW 6469   3.361   4.635   2.621
 1610SOL    HW2 6470   3.362   4.554   2.672
 1610SOL    HW3 6471   3.280   4.679   2.648
 1610SOL    MW4 6472   3.351   4.630   2.632
 1611SOL     OW 6473   3.155   0.139   2.723
 1611SOL    HW2 6474   3.180   0.151   2.814
 1611SOL    HW3 6475   3.137   0.227   2.691
 1611SOL    MW4 6476   3.156   0.152   2.731
 1612SOL     OW 6477   3.106   0.377   2.619
 1612SOL    HW2 6478   3.034   0.433   2.648
 1612SOL    HW3 6479   3.119   0.401   2.527
 1612SOL    MW4 6480   3.098   0.388   2.611
 1613SOL     OW 6481   3.362   0.491   2.713
 1613SOL    HW2 6482   3.367   0.574   2.667
 1613SOL    HW3 6483   3.277   0.454   2.688
 1613SOL    MW4 6484   3.352   0.497   2.704
 1614SOL     OW 6485   3.351   0.743   2.613
 1614SOL    HW2 6486   3.424   0.788   2.655
 1614SOL    HW3 6487   3.365   0.756   2.520
 1614SOL    MW4 6488   3.362   0.750   2.606
 1615SOL     OW 6489   3.117   0.876   2.699
 1615SOL    HW2 6490   3.120   0.898   2.792
 1615SOL    HW3 6491   3.190   0.816   2.686
 1615SOL    MW4 6492   3.127   0.871   2.709
 1616SOL     OW 6493   3.169   1.142   2.668
 1616SOL    HW2 6494   3.161   1.047   2.679
 1616SOL    HW3 6495   3.191   1.153   2.576
 1616SOL    MW4 6496   3.171   1.131   2.657
 1617SOL     OW 6497   3.395   1.259   2.765
 1617SOL    HW2 6498   3.383   1.272   2.859
 1617SOL    HW3 6499   3.314   1.217   2.735
 1617SOL    MW4 6500   3.383   1.255   2.773
 1618SOL     OW 6501   3.390   1.528   2.647
 1618SOL    HW2 6502   3.310   1.567   2.683
 1618SOL    HW3 6503   3.387   1.437   2.676
 1618SOL    MW4 6504   3.379   1.521   2.656
 1619SOL     OW 6505   3.183   1.676   2.754
 1619SOL    HW2 6506   3.179   1.766   2.722
 1619SOL    HW3 6507   3.104   1.634   2.721
 1619SOL    MW4 6508   3.172   1.682   2.745
 1620SOL     OW 6509   3.149   1.939   2.635
 1620SOL    HW2 6510   3.234   1.973   2.665
 1620SOL    HW3 6511   3.085   1.982   2.693
 1620SOL    MW4 6512   3.152   1.949   2.647
 1621SOL     OW 6513   3.369   2.043   2.760
 1621SOL    HW2 6514   3.383   2.047   2.854
 1621SOL    HW3 6515   3.356   2.135   2.734
 1621SOL    MW4 6516   3.369   2.056   2.769
 1622SOL     OW 6517   3.349   2.301   2.665
 1622SOL    HW2 6518   3.436   2.337   2.679
 1622SOL    HW3 6519   3.346   2.280   2.571
 1622SOL    MW4 6520   3.360   2.303   2.654
 1623SOL     OW 6521   3.128   2.407   2.774
 1623SOL    HW2 6522   3.121   2.490   2.726
 1623SOL    HW3 6523   3.204   2.364   2.736
 1623SOL    MW4 6524   3.137   2.412   2.762
 1624SOL     OW 6525   3.176   2.671   2.665
 1624SOL    HW2 6526   3.243   2.714   2.717
 1624SOL    HW3 6527   3.096   2.721   2.682
 1624SOL    MW4 6528   3.174   2.683   2.674
 1625SOL     OW 6529   3.382   2.833   2.771
 1625SOL    HW2 6530   3.399   2.838   2.865
 1625SOL    HW3 6531   3.456   2.784   2.736
 1625SOL    MW4 6532   3.394   2.827   2.779
 1626SOL     OW 6533   3.400   3.080   2.636
 1626SOL    HW2 6534   3.398   2.995   2.680
 1626SOL    HW3 6535   3.376   3.061   2.546
 1626SOL    MW4 6536   3.397   3.066   2.630
 1627SOL     OW 6537   3.168   3.251   2.738
 1627SOL    HW2 6538   3.249   3.200   2.724
 1627SOL    HW3 6539   3.098   3.189   2.718
 1627SOL    MW4 6540   3.170   3.236   2.733
 1628SOL     OW 6541   3.122   3.502   2.640
 1628SOL    HW2 6542   3.134   3.411   2.667
 1628SOL    HW3 6543   3.036   3.525   2.673
 1628SOL    MW4 6544   3.112   3.493   2.648
 1629SOL     OW 6545   3.332   3.634   2.744
 1629SOL    HW2 6546   3.350   3.603   2.833
 1629SOL    HW3 6547   3.259   3.580   2.714
 1629SOL    MW4 6548   3.325   3.622   2.752
 1630SOL     OW 6549   3.372   3.880   2.639
 1630SOL    HW2 6550   3.353   3.792   2.669
 1630SOL    HW3 6551   3.353   3.878   2.545
 1630SOL    MW4 6552   3.367   3.868   2.631
 1631SOL     OW 6553   3.144   3.993   2.750
 1631SOL    HW2 6554   3.143   4.078   2.707
 1631SOL    HW3 6555   3.223   3.950   2.716
 1631SOL    MW4 6556   3.154   3.999   2.740
 1632SOL     OW 6557   3.165   4.262   2.651
 1632SOL    HW2 6558   3.081   4.305   2.664
 1632SOL    HW3 6559   3.192   4.287   2.563
 1632SOL    MW4 6560   3.158   4.271   2.641
 1633SOL     OW 6561   3.386   4.390   2.740
 1633SOL    HW2 6562   3.388   4.383   2.836
 1633SOL    HW3 6563   3.304   4.349   2.714
 1633SOL    MW4 6564   3.376   4.384   2.749
 1634SOL     OW 6565   3.803   0.002   2.617
 1634SOL    HW2 6566   3.814  -0.080   2.664
 1634SOL    HW3 6567   3.726   0.042   2.656
 1634SOL    MW4 6568   3.794  -0.003   2.628
 1635SOL     OW 6569   3.571   0.128   2.731
 1635SOL    HW2 6570   3.577   0.212   2.684
 1635SOL    HW3 6571   3.507   0.077   2.681
 1635SOL    MW4 6572   3.563   0.132   2.718
 1636SOL     OW 6573   3.582   0.359   2.593
 1636SOL    HW2 6574   3.663   0.393   2.632
 1636SOL    HW3 6575   3.512   0.401   2.644
 1636SOL    MW4 6576   3.583   0.369   2.605
 1637SOL     OW 6577   3.798   0.470   2.727
 1637SOL    HW2 6578   3.806   0.483   2.821
 1637SOL    HW3 6579   3.885   0.443   2.698
 1637SOL    MW4 6580   3.810   0.468   2.736
 1638SOL     OW 6581   3.824   0.742   2.689
 1638SOL    HW2 6582   3.734   0.770   2.707
 1638SOL    HW3 6583   3.820   0.647   2.688
 1638SOL    MW4 6584   3.812   0.733   2.692
 1639SOL     OW 6585   3.570   0.874   2.703
 1639SOL    HW2 6586   3.565   0.884   2.798
 1639SOL    HW3 6587   3.591   0.962   2.671
 1639SOL    MW4 6588   3.572   0.887   2.712
 1640SOL     OW 6589   3.601   1.153   2.615
 1640SOL    HW2 6590   3.679   1.200   2.646
 1640SOL    HW3 6591   3.531   1.181   2.674
 1640SOL    MW4 6592   3.602   1.163   2.627
 1641SOL     OW 6593   3.804   1.296   2.747
 1641SOL    HW2 6594   3.883   1.252   2.716
 1641SOL    HW3 6595   3.816   1.387   2.722
 1641SOL    MW4 6596   3.816   1.302   2.740
 1642SOL     OW 6597   3.850   1.533   2.623
 1642SOL    HW2 6598   3.921   1.594   2.645
 1642SOL    HW3 6599   3.773   1.571   2.666
 1642SOL    MW4 6600   3.849   1.546   2.632
 1643SOL     OW 6601   3.629   1.646   2.754
 1643SOL    HW2 6602   3.627   1.734   2.716
 1643SOL    HW3 6603   3.552   1.603   2.718
 1643SOL    MW4 6604   3.619   1.652   2.744
 1644SOL     OW 6605   3.614   1.917   2.663
 1644SOL    HW2 6606   3.531   1.958   2.690
 1644SOL    HW3 6607   3.605   1.905   2.568
 1644SOL    MW4 6608   3.602   1.921   2.654
 1645SOL     OW 6609   3.830   2.103   2.753
 1645SOL    HW2 6610   3.905   2.061   2.711
 1645SOL    HW3 6611   3.755   2.048   2.730
 1645SOL    MW4 6612   3.830   2.090   2.744
 1646SOL     OW 6613   3.866   2.346   2.650
 1646SOL    HW2 6614   3.849   2.268   2.702
 1646SOL    HW3 6615   3.832   2.326   2.563
 1646SOL    MW4 6616   3.860   2.333   2.646
 1647SOL     OW 6617   3.615   2.421   2.725
 1647SOL    HW2 6618   3.606   2.421   2.820
 1647SOL    HW3 6619   3.703   2.386   2.709
 1647SOL    MW4 6620   3.626   2.416   2.735
 1648SOL     OW 6621   3.594   2.688   2.662
 1648SOL    HW2 6622   3.609   2.596   2.685
 1648SOL    HW3 6623   3.594   2.690   2.567
 1648SOL    MW4 6624   3.596   2.676   2.653
 1649SOL     OW 6625   3.805   2.867   2.738
 1649SOL    HW2 6626   3.884   2.834   2.695
 1649SOL    HW3 6627   3.735   2.810   2.705
 1649SOL    MW4 6628   3.806   2.855   2.728
 1650SOL     OW 6629   3.813   3.141   2.643
 1650SOL    HW2 6630   3.739   3.185   2.685
 1650SOL    HW3 6631   3.810   3.052   2.677
 1650SOL    MW4 6632   3.803   3.135   2.653
 1651SOL     OW 6633   3.585   3.245   2.746
 1651SOL    HW2 6634   3.568   3.334   2.716
 1651SOL    HW3 6635   3.527   3.191   2.692
 1651SOL    MW4 6636   3.575   3.250   2.735
 1652SOL     OW 6637   3.583   3.506   2.651
 1652SOL    HW2 6638   3.652   3.550   2.700
 1652SOL    HW3 6639   3.512   3.571   2.647
 1652SOL    MW4 6640   3.582   3.521   2.657
 1653SOL     OW 6641   3.811   3.613   2.762
 1653SOL    HW2 6642   3.886   3.575   2.717
 1653SOL    HW3 6643   3.811   3.705   2.736
 1653SOL    MW4 6644   3.821   3.620   2.753
 1654SOL     OW 6645   3.777   3.872   2.650
 1654SOL    HW2 6646   3.860   3.908   2.680
 1654SOL    HW3 6647   3.711   3.911   2.709
 1654SOL    MW4 6648   3.779   3.882   2.662
 1655SOL     OW 6649   3.574   4.013   2.762
 1655SOL    HW2 6650   3.576   4.098   2.718
 1655SOL    HW3 6651   3.500   3.967   2.722
 1655SOL    MW4 6652   3.564   4.018   2.751
 1656SOL     OW 6653   3.608   4.254   2.631
 1656SOL    HW2 6654   3.526   4.298   2.652
 1656SOL    HW3 6655   3.604   4.240   2.536
 1656SOL    MW4 6656   3.597   4.258   2.621
 1657SOL     OW 6657   3.799   4.422   2.732
 1657SOL    HW2 6658   3.870   4.365   2.704
 1657SOL    HW3 6659   3.721   4.387   2.689
 1657SOL    MW4 6660   3.798   4.410   2.722
 1658SOL     OW 6661   4.221   0.007   2.644
 1658SOL    HW2 6662   4.153   0.061   2.686
 1658SOL    HW3 6663   4.301   0.030   2.690
 1658SOL    MW4 6664   4.222   0.017   2.656
 1659SOL     OW 6665   4.012   0.108   2.765
 1659SOL    HW2 6666   4.002   0.110   2.860
 1659SOL    HW3 6667   3.926   0.085   2.732
 1659SOL    MW4 6668   4.000   0.106   2.773
 1660SOL     OW 6669   4.042   0.371   2.636
 1660SOL    HW2 6670   4.041   0.281   2.669
 1660SOL    HW3 6671   4.059   0.362   2.542
 1660SOL    MW4 6672   4.044   0.358   2.628
 1661SOL     OW 6673   4.252   0.504   2.767
 1661SOL    HW2 6674   4.181   0.461   2.719
 1661SOL    HW3 6675   4.329   0.451   2.747
 1661SOL    MW4 6676   4.253   0.491   2.758
 1662SOL     OW 6677   4.254   0.752   2.653
 1662SOL    HW2 6678   4.246   0.662   2.685
 1662SOL    HW3 6679   4.222   0.749   2.563
 1662SOL    MW4 6680   4.248   0.740   2.646
 1663SOL     OW 6681   4.029   0.916   2.769
 1663SOL    HW2 6682   4.095   0.858   2.731
 1663SOL    HW3 6683   3.948   0.865   2.765
 1663SOL    MW4 6684   4.027   0.901   2.764
 1664SOL     OW 6685   4.003   1.146   2.621
 1664SOL    HW2 6686   4.061   1.214   2.654
 1664SOL    HW3 6687   4.017   1.072   2.680
 1664SOL    MW4 6688   4.013   1.145   2.633
 1665SOL     OW 6689   4.230   1.313   2.713
 1665SOL    HW2 6690   4.243   1.402   2.679
 1665SOL    HW3 6691   4.314   1.270   2.702
 1665SOL    MW4 6692   4.243   1.319   2.707
 1666SOL     OW 6693   4.281   1.571   2.625
 1666SOL    HW2 6694   4.370   1.583   2.658
 1666SOL    HW3 6695   4.292   1.558   2.531
 1666SOL    MW4 6696   4.294   1.571   2.617
 1667SOL     OW 6697   4.046   1.702   2.708
 1667SOL    HW2 6698   4.035   1.707   2.803
 1667SOL    HW3 6699   4.132   1.663   2.696
 1667SOL    MW4 6700   4.056   1.697   2.719
 1668SOL     OW 6701   4.030   1.960   2.633
 1668SOL    HW2 6702   4.115   1.993   2.663
 1668SOL    HW3 6703   4.028   1.869   2.661
 1668SOL    MW4 6704   4.041   1.953   2.641
 1669SOL     OW 6705   4.268   2.054   2.737
 1669SOL    HW2 6706   4.268   2.145   2.707
 1669SOL    HW3 6707   4.350   2.018   2.704
 1669SOL    MW4 6708   4.278   2.061   2.728
 1670SOL     OW 6709   4.270   2.332   2.676
 1670SOL    HW2 6710   4.199   2.394   2.690
 1670SOL    HW3 6711   4.276   2.325   2.581
 1670SOL    MW4 6712   4.261   2.339   2.665
 1671SOL     OW 6713   4.055   2.502   2.744
 1671SOL    HW2 6714   4.045   2.499   2.839
 1671SOL    HW3 6715   3.977   2.459   2.710
 1671SOL    MW4 6716   4.044   2.496   2.752
 1672SOL     OW 6717   4.043   2.760   2.627
 1672SOL    HW2 6718   4.118   2.807   2.664
 1672SOL    HW3 6719   4.042   2.676   2.672
 1672SOL    MW4 6720   4.052   2.755   2.638
 1673SOL     OW 6721   4.290   2.890   2.730
 1673SOL    HW2 6722   4.297   2.897   2.825
 1673SOL    HW3 6723   4.275   2.980   2.701
 1673SOL    MW4 6724   4.289   2.903   2.739
 1674SOL     OW 6725   4.271   3.133   2.633
 1674SOL    HW2 6726   4.207   3.191   2.675
 1674SOL    HW3 6727   4.269   3.158   2.540
 1674SOL    MW4 6728   4.262   3.144   2.626
 1675SOL     OW 6729   4.052   3.274   2.738
 1675SOL    HW2 6730   4.053   3.359   2.694
 1675SOL    HW3 6731   3.965   3.238   2.718
 1675SOL    MW4 6732   4.040   3.281   2.730
 1676SOL     OW 6733   4.039   3.540   2.631
 1676SOL    HW2 6734   4.114   3.597   2.648
 1676SOL    HW3 6735   4.028   3.543   2.536
 1676SOL    MW4 6736   4.047   3.548   2.620
 1677SOL     OW 6737   4.315   3.640   2.711
 1677SOL    HW2 6738   4.321   3.621   2.805
 1677SOL    HW3 6739   4.381   3.583   2.671
 1677SOL    MW4 6740   4.324   3.630   2.718
 1678SOL     OW 6741   4.280   3.925   2.692
 1678SOL    HW2 6742   4.292   3.831   2.702
 1678SOL    HW3 6743   4.353   3.964   2.741
 1678SOL    MW4 6744   4.291   3.918   2.700
 1679SOL     OW 6745   4.020   3.983   2.752
 1679SOL    HW2 6746   4.015   3.984   2.848
 1679SOL    HW3 6747   4.113   3.967   2.733
 1679SOL    MW4 6748   4.032   3.981   2.762
 1680SOL     OW 6749   4.025   4.265   2.681
 1680SOL    HW2 6750   4.010   4.175   2.711
 1680SOL    HW3 6751   4.021   4.259   2.586
 1680SOL    MW4 6752   4.023   4.252   2.673
 1681SOL     OW 6753   4.240   4.431   2.777
 1681SOL    HW2 6754   4.155   4.394   2.751
 1681SOL    HW3 6755   4.242   4.518   2.737
 1681SOL    MW4 6756   4.229   4.437   2.768
 1682SOL     OW 6757   0.225   4.631   3.070
 1682SOL    HW2 6758   0.217   4.623   3.165
 1682SOL    HW3 6759   0.149   4.683   3.044
 1682SOL    MW4 6760   0.214   4.637   3.079
 1683SOL     OW 6761   4.483   0.104   3.015
 1683SOL    HW2 6762   4.406   0.073   3.064
 1683SOL    HW3 6763   4.497   0.193   3.046
 1683SOL    MW4 6764   4.474   0.112   3.026
 1684SOL     OW 6765   0.058   0.359   3.104
 1684SOL    HW2 6766   0.066   0.359   3.200
 1684SOL    HW3 6767  -0.028   0.398   3.088
 1684SOL    MW4 6768   0.047   0.364   3.115
 1685SOL     OW 6769   0.258   0.523   3.036
 1685SOL    HW2 6770   0.338   0.477   3.061
 1685SOL    HW3 6771   0.187   0.465   3.063
 1685SOL    MW4 6772   0.260   0.509   3.043
 1686SOL     OW 6773   0.264   0.785   3.121
 1686SOL    HW2 6774   0.247   0.799   3.215
 1686SOL    HW3 6775   0.261   0.690   3.110
 1686SOL    MW4 6776   0.262   0.774   3.132
 1687SOL     OW 6777   4.475   0.835   3.011
 1687SOL    HW2 6778   4.567   0.815   3.029
 1687SOL    HW3 6779   4.465   0.818   2.917
 1687SOL    MW4 6780   4.486   0.830   3.001
 1688SOL     OW 6781   4.445   1.133   3.088
 1688SOL    HW2 6782   4.378   1.195   3.060
 1688SOL    HW3 6783   4.427   1.053   3.038
 1688SOL    MW4 6784   4.434   1.130   3.078
 1689SOL     OW 6785   0.215   1.234   3.027
 1689SOL    HW2 6786   0.136   1.192   3.061
 1689SOL    HW3 6787   0.207   1.226   2.932
 1689SOL    MW4 6788   0.204   1.227   3.019
 1690SOL     OW 6789   0.244   1.506   3.090
 1690SOL    HW2 6790   0.161   1.548   3.071
 1690SOL    HW3 6791   0.228   1.412   3.078
 1690SOL    MW4 6792   0.231   1.499   3.086
 1691SOL     OW 6793   0.011   1.640   3.017
 1691SOL    HW2 6794  -0.075   1.615   3.051
 1691SOL    HW3 6795   0.025   1.729   3.050
 1691SOL    MW4 6796   0.002   1.649   3.026
 1692SOL     OW 6797   4.469   1.900   3.115
 1692SOL    HW2 6798   4.404   1.949   3.066
 1692SOL    HW3 6799   4.552   1.944   3.097
 1692SOL    MW4 6800   4.471   1.912   3.106
 1693SOL     OW 6801   0.196   2.067   3.075
 1693SOL    HW2 6802   0.210   2.158   3.100
 1693SOL    HW3 6803   0.203   2.066   2.980
 1693SOL    MW4 6804   0.199   2.079   3.066
 1694SOL     OW 6805   0.260   2.332   3.150
 1694SOL    HW2 6806   0.253   2.330   3.246
 1694SOL    HW3 6807   0.326   2.399   3.132
 1694SOL    MW4 6808   0.268   2.340   3.160
 1695SOL     OW 6809   0.022   2.407   3.036
 1695SOL    HW2 6810   0.021   2.494   3.077
 1695SOL    HW3 6811   0.105   2.368   3.064
 1695SOL    MW4 6812   0.033   2.414   3.045
 1696SOL     OW 6813   0.028   2.702   3.144
 1696SOL    HW2 6814   0.011   2.720   3.236
 1696SOL    HW3 6815   0.088   2.772   3.117
 1696SOL    MW4 6816   0.034   2.714   3.152
 1697SOL     OW 6817   0.203   2.897   3.060
 1697SOL    HW2 6818   0.287   2.858   3.084
 1697SOL    HW3 6819   0.199   2.889   2.965
 1697SOL    MW4 6820   0.213   2.891   3.050
 1698SOL     OW 6821   0.235   3.150   3.159
 1698SOL    HW2 6822   0.152   3.192   3.137
 1698SOL    HW3 6823   0.227   3.062   3.122
 1698SOL    MW4 6824   0.223   3.144   3.151
 1699SOL     OW 6825   4.484   3.282   3.037
 1699SOL    HW2 6826   4.402   3.241   3.063
 1699SOL    HW3 6827   4.495   3.259   2.945
 1699SOL    MW4 6828   4.475   3.273   3.028
 1700SOL     OW 6829   0.022   3.545   3.151
 1700SOL    HW2 6830  -0.052   3.582   3.100
 1700SOL    HW3 6831   0.019   3.451   3.133
 1700SOL    MW4 6832   0.012   3.538   3.142
 1701SOL     OW 6833   0.255   3.686   3.065
 1701SOL    HW2 6834   0.233   3.779   3.064
 1701SOL    HW3 6835   0.176   3.643   3.097
 1701SOL    MW4 6836   0.242   3.692   3.069
 1702SOL     OW 6837   0.229   3.957   3.136
 1702SOL    HW2 6838   0.243   3.962   3.231
 1702SOL    HW3 6839   0.310   3.992   3.099
 1702SOL    MW4 6840   0.242   3.963   3.144
 1703SOL     OW 6841   4.472   4.045   3.078
 1703SOL    HW2 6842   4.556   4.009   3.107
 1703SOL    HW3 6843   4.479   4.051   2.983
 1703SOL    MW4 6844   4.484   4.041   3.069
 1704SOL     OW 6845   4.467   4.313   3.136
 1704SOL    HW2 6846   4.465   4.318   3.231
 1704SOL    HW3 6847   4.486   4.221   3.117
 1704SOL    MW4 6848   4.469   4.302   3.146
 1705SOL     OW 6849   0.211   4.364   2.996
 1705SOL    HW2 6850   0.136   4.338   3.049
 1705SOL    HW3 6851   0.210   4.459   2.998
 1705SOL    MW4 6852   0.201   4.373   3.003
 1706SOL     OW 6853   0.698   4.658   3.116
 1706SOL    HW2 6854   0.705   4.567   3.085
 1706SOL    HW3 6855   0.623   4.694   3.068
 1706SOL    MW4 6856   0.689   4.650   3.106
 1707SOL     OW 6857   0.472   0.093   3.010
 1707SOL    HW2 6858   0.464   0.185   3.036
 1707SOL    HW3 6859   0.386   0.056   3.031
 1707SOL    MW4 6860   0.459   0.101   3.016
 1708SOL     OW 6861   0.484   0.363   3.083
 1708SOL    HW2 6862   0.490   0.363   3.179
 1708SOL    HW3 6863   0.558   0.416   3.054
 1708SOL    MW4 6864   0.494   0.370   3.092
 1709SOL     OW 6865   0.692   0.525   3.012
 1709SOL    HW2 6866   0.761   0.472   3.050
 1709SOL    HW3 6867   0.694   0.607   3.061
 1709SOL    MW4 6868   0.701   0.529   3.024
 1710SOL     OW 6869   0.679   0.785   3.115
 1710SOL    HW2 6870   0.668   0.790   3.210
 1710SOL    HW3 6871   0.621   0.852   3.080
 1710SOL    MW4 6872   0.670   0.795   3.123
 1711SOL     OW 6873   0.471   0.900   2.975
 1711SOL    HW2 6874   0.392   0.863   3.015
 1711SOL    HW3 6875   0.452   0.900   2.881
 1711SOL    MW4 6876   0.458   0.895   2.967
 1712SOL     OW 6877   0.495   1.160   3.080
 1712SOL    HW2 6878   0.492   1.068   3.055
 1712SOL    HW3 6879   0.407   1.192   3.064
 1712SOL    MW4 6880   0.483   1.152   3.074
 1713SOL     OW 6881   0.721   1.287   2.981
 1713SOL    HW2 6882   0.796   1.238   3.015
 1713SOL    HW3 6883   0.645   1.246   3.022
 1713SOL    MW4 6884   0.721   1.275   2.991
 1714SOL     OW 6885   0.685   1.566   3.083
 1714SOL    HW2 6886   0.694   1.581   3.177
 1714SOL    HW3 6887   0.706   1.474   3.072
 1714SOL    MW4 6888   0.689   1.556   3.094
 1715SOL     OW 6889   0.448   1.693   3.006
 1715SOL    HW2 6890   0.526   1.647   3.036
 1715SOL    HW3 6891   0.375   1.638   3.036
 1715SOL    MW4 6892   0.449   1.680   3.014
 1716SOL     OW 6893   0.441   1.944   3.130
 1716SOL    HW2 6894   0.436   1.857   3.090
 1716SOL    HW3 6895   0.356   1.984   3.111
 1716SOL    MW4 6896   0.429   1.938   3.122
 1717SOL     OW 6897   0.653   2.093   3.015
 1717SOL    HW2 6898   0.727   2.055   3.062
 1717SOL    HW3 6899   0.577   2.046   3.050
 1717SOL    MW4 6900   0.653   2.081   3.026
 1718SOL     OW 6901   0.659   2.357   3.125
 1718SOL    HW2 6902   0.646   2.338   3.217
 1718SOL    HW3 6903   0.642   2.274   3.080
 1718SOL    MW4 6904   0.655   2.344   3.131
 1719SOL     OW 6905   0.451   2.501   3.024
 1719SOL    HW2 6906   0.528   2.461   3.064
 1719SOL    HW3 6907   0.454   2.474   2.932
 1719SOL    MW4 6908   0.461   2.492   3.017
 1720SOL     OW 6909   0.430   2.745   3.122
 1720SOL    HW2 6910   0.508   2.786   3.084
 1720SOL    HW3 6911   0.424   2.660   3.078
 1720SOL    MW4 6912   0.440   2.739   3.111
 1721SOL     OW 6913   0.662   2.840   3.028
 1721SOL    HW2 6914   0.735   2.800   3.076
 1721SOL    HW3 6915   0.679   2.934   3.033
 1721SOL    MW4 6916   0.674   2.848   3.035
 1722SOL     OW 6917   0.683   3.104   3.098
 1722SOL    HW2 6918   0.677   3.110   3.193
 1722SOL    HW3 6919   0.601   3.143   3.066
 1722SOL    MW4 6920   0.671   3.110   3.106
 1723SOL     OW 6921   0.468   3.244   3.013
 1723SOL    HW2 6922   0.468   3.339   3.025
 1723SOL    HW3 6923   0.400   3.212   3.073
 1723SOL    MW4 6924   0.459   3.252   3.022
 1724SOL     OW 6925   0.439   3.500   3.112
 1724SOL    HW2 6926   0.423   3.502   3.207
 1724SOL    HW3 6927   0.381   3.566   3.076
 1724SOL    MW4 6928   0.429   3.509   3.120
 1725SOL     OW 6929   0.669   3.618   3.010
 1725SOL    HW2 6930   0.747   3.574   3.045
 1725SOL    HW3 6931   0.596   3.580   3.059
 1725SOL    MW4 6932   0.670   3.607   3.021
 1726SOL     OW 6933   0.660   3.879   3.117
 1726SOL    HW2 6934   0.650   3.880   3.212
 1726SOL    HW3 6935   0.661   3.786   3.095
 1726SOL    MW4 6936   0.659   3.867   3.127
 1727SOL     OW 6937   0.458   4.035   3.011
 1727SOL    HW2 6938   0.531   3.984   3.045
 1727SOL    HW3 6939   0.447   4.004   2.921
 1727SOL    MW4 6940   0.466   4.024   3.003
 1728SOL     OW 6941   0.452   4.290   3.147
 1728SOL    HW2 6942   0.449   4.200   3.113
 1728SOL    HW3 6943   0.371   4.330   3.116
 1728SOL    MW4 6944   0.441   4.283   3.139
 1729SOL     OW 6945   0.692   4.384   3.059
 1729SOL    HW2 6946   0.609   4.353   3.093
 1729SOL    HW3 6947   0.679   4.389   2.964
 1729SOL    MW4 6948   0.679   4.380   3.051
 1730SOL     OW 6949   1.122   4.652   3.124
 1730SOL    HW2 6950   1.192   4.707   3.088
 1730SOL    HW3 6951   1.041   4.696   3.098
 1730SOL    MW4 6952   1.121   4.665   3.116
 1731SOL     OW 6953   0.917   0.117   3.007
 1731SOL    HW2 6954   0.919   0.206   3.043
 1731SOL    HW3 6955   0.838   0.078   3.044
 1731SOL    MW4 6956   0.907   0.124   3.016
 1732SOL     OW 6957   0.915   0.380   3.140
 1732SOL    HW2 6958   0.932   0.389   3.234
 1732SOL    HW3 6959   0.980   0.437   3.099
 1732SOL    MW4 6960   0.926   0.389   3.147
 1733SOL     OW 6961   1.118   0.515   3.016
 1733SOL    HW2 6962   1.187   0.462   3.057
 1733SOL    HW3 6963   1.118   0.488   2.924
 1733SOL    MW4 6964   1.127   0.505   3.009
 1734SOL     OW 6965   1.123   0.761   3.127
 1734SOL    HW2 6966   1.095   0.757   3.219
 1734SOL    HW3 6967   1.122   0.670   3.097
 1734SOL    MW4 6968   1.119   0.748   3.135
 1735SOL     OW 6969   0.927   0.921   3.003
 1735SOL    HW2 6970   0.999   0.871   3.041
 1735SOL    HW3 6971   0.849   0.888   3.048
 1735SOL    MW4 6972   0.926   0.910   3.014
 1736SOL     OW 6973   0.909   1.158   3.119
 1736SOL    HW2 6974   0.986   1.212   3.101
 1736SOL    HW3 6975   0.922   1.078   3.069
 1736SOL    MW4 6976   0.921   1.155   3.110
 1737SOL     OW 6977   1.119   1.282   3.024
 1737SOL    HW2 6978   1.200   1.234   3.041
 1737SOL    HW3 6979   1.113   1.286   2.928
 1737SOL    MW4 6980   1.129   1.276   3.013
 1738SOL     OW 6981   1.117   1.560   3.092
 1738SOL    HW2 6982   1.206   1.592   3.078
 1738SOL    HW3 6983   1.121   1.467   3.071
 1738SOL    MW4 6984   1.129   1.552   3.087
 1739SOL     OW 6985   0.901   1.739   3.014
 1739SOL    HW2 6986   0.980   1.689   3.039
 1739SOL    HW3 6987   0.829   1.678   3.028
 1739SOL    MW4 6988   0.902   1.724   3.019
 1740SOL     OW 6989   0.834   1.940   3.171
 1740SOL    HW2 6990   0.844   1.918   3.264
 1740SOL    HW3 6991   0.866   1.863   3.124
 1740SOL    MW4 6992   0.840   1.927   3.177
 1741SOL     OW 6993   1.068   2.080   3.049
 1741SOL    HW2 6994   0.987   2.046   3.087
 1741SOL    HW3 6995   1.057   2.069   2.955
 1741SOL    MW4 6996   1.056   2.074   3.042
 1742SOL     OW 6997   1.143   2.336   3.097
 1742SOL    HW2 6998   1.073   2.401   3.094
 1742SOL    HW3 6999   1.098   2.252   3.090
 1742SOL    MW4 7000   1.128   2.333   3.096
 1743SOL     OW 7001   0.916   2.479   3.056
 1743SOL    HW2 7002   0.842   2.427   3.089
 1743SOL    HW3 7003   0.905   2.479   2.961
 1743SOL    MW4 7004   0.905   2.472   3.048
 1744SOL     OW 7005   0.888   2.737   3.150
 1744SOL    HW2 7006   0.892   2.726   3.245
 1744SOL    HW3 7007   0.908   2.651   3.114
 1744SOL    MW4 7008   0.891   2.724   3.158
 1745SOL     OW 7009   1.144   2.835   3.016
 1745SOL    HW2 7010   1.148   2.928   3.037
 1745SOL    HW3 7011   1.066   2.803   3.062
 1745SOL    MW4 7012   1.135   2.843   3.025
 1746SOL     OW 7013   1.131   3.112   3.112
 1746SOL    HW2 7014   1.206   3.167   3.090
 1746SOL    HW3 7015   1.055   3.163   3.084
 1746SOL    MW4 7016   1.131   3.126   3.105
 1747SOL     OW 7017   0.903   3.238   3.042
 1747SOL    HW2 7018   0.821   3.199   3.072
 1747SOL    HW3 7019   0.905   3.221   2.948
 1747SOL    MW4 7020   0.893   3.231   3.034
 1748SOL     OW 7021   0.902   3.520   3.121
 1748SOL    HW2 7022   0.976   3.555   3.071
 1748SOL    HW3 7023   0.900   3.427   3.098
 1748SOL    MW4 7024   0.912   3.513   3.112
 1749SOL     OW 7025   1.113   3.663   3.002
 1749SOL    HW2 7026   1.181   3.605   3.035
 1749SOL    HW3 7027   1.131   3.747   3.043
 1749SOL    MW4 7028   1.124   3.666   3.012
 1750SOL     OW 7029   1.154   3.901   3.138
 1750SOL    HW2 7030   1.129   3.899   3.230
 1750SOL    HW3 7031   1.085   3.952   3.095
 1750SOL    MW4 7032   1.141   3.908   3.144
 1751SOL     OW 7033   0.896   3.990   3.012
 1751SOL    HW2 7034   0.813   3.947   3.033
 1751SOL    HW3 7035   0.894   4.000   2.917
 1751SOL    MW4 7036   0.885   3.986   3.002
 1752SOL     OW 7037   0.933   4.257   3.133
 1752SOL    HW2 7038   0.924   4.164   3.113
 1752SOL    HW3 7039   0.845   4.293   3.124
 1752SOL    MW4 7040   0.920   4.250   3.129
 1753SOL     OW 7041   1.144   4.414   2.984
 1753SOL    HW2 7042   1.071   4.363   3.019
 1753SOL    HW3 7043   1.140   4.496   3.032
 1753SOL    MW4 7044   1.134   4.418   2.995
 1754SOL     OW 7045   1.566   4.635   3.093
 1754SOL    HW2 7046   1.556   4.632   3.188
 1754SOL    HW3 7047   1.485   4.678   3.063
 1754SOL    MW4 7048   1.554   4.640   3.102
 1755SOL     OW 7049   1.333   0.087   2.990
 1755SOL    HW2 7050   1.342   0.173   3.032
 1755SOL    HW3 7051   1.322   0.107   2.897
 1755SOL    MW4 7052   1.332   0.101   2.984
 1756SOL     OW 7053   1.358   0.336   3.103
 1756SOL    HW2 7054   1.384   0.329   3.195
 1756SOL    HW3 7055   1.427   0.389   3.063
 1756SOL    MW4 7056   1.370   0.342   3.110
 1757SOL     OW 7057   1.598   0.475   2.974
 1757SOL    HW2 7058   1.576   0.560   3.012
 1757SOL    HW3 7059   1.577   0.484   2.881
 1757SOL    MW4 7060   1.592   0.487   2.966
 1758SOL     OW 7061   1.573   0.715   3.083
 1758SOL    HW2 7062   1.588   0.736   3.175
 1758SOL    HW3 7063   1.504   0.776   3.055
 1758SOL    MW4 7064   1.566   0.726   3.091
 1759SOL     OW 7065   1.354   0.859   3.009
 1759SOL    HW2 7066   1.332   0.950   3.030
 1759SOL    HW3 7067   1.288   0.807   3.054
 1759SOL    MW4 7068   1.342   0.864   3.018
 1760SOL     OW 7069   1.336   1.150   3.045
 1760SOL    HW2 7070   1.360   1.158   3.138
 1760SOL    HW3 7071   1.416   1.174   2.998
 1760SOL    MW4 7072   1.350   1.154   3.051
 1761SOL     OW 7073   1.569   1.265   2.950
 1761SOL    HW2 7074   1.648   1.232   2.993
 1761SOL    HW3 7075   1.553   1.350   2.992
 1761SOL    MW4 7076   1.578   1.272   2.962
 1762SOL     OW 7077   1.569   1.527   3.100
 1762SOL    HW2 7078   1.646   1.568   3.059
 1762SOL    HW3 7079   1.497   1.587   3.081
 1762SOL    MW4 7080   1.570   1.541   3.092
 1763SOL     OW 7081   1.366   1.696   3.037
 1763SOL    HW2 7082   1.362   1.787   3.066
 1763SOL    HW3 7083   1.356   1.700   2.942
 1763SOL    MW4 7084   1.364   1.708   3.029
 1764SOL     OW 7085   1.304   1.949   3.093
 1764SOL    HW2 7086   1.308   1.945   3.188
 1764SOL    HW3 7087   1.220   1.991   3.074
 1764SOL    MW4 7088   1.293   1.954   3.103
 1765SOL     OW 7089   1.565   2.076   3.018
 1765SOL    HW2 7090   1.493   2.020   3.047
 1765SOL    HW3 7091   1.558   2.078   2.923
 1765SOL    MW4 7092   1.555   2.069   3.010
 1766SOL     OW 7093   1.606   2.328   3.102
 1766SOL    HW2 7094   1.531   2.376   3.066
 1766SOL    HW3 7095   1.585   2.236   3.088
 1766SOL    MW4 7096   1.594   2.322   3.096
 1767SOL     OW 7097   1.360   2.487   3.014
 1767SOL    HW2 7098   1.281   2.438   3.038
 1767SOL    HW3 7099   1.358   2.491   2.919
 1767SOL    MW4 7100   1.350   2.481   3.005
 1768SOL     OW 7101   1.372   2.741   3.137
 1768SOL    HW2 7102   1.393   2.660   3.090
 1768SOL    HW3 7103   1.293   2.774   3.093
 1768SOL    MW4 7104   1.364   2.735   3.125
 1769SOL     OW 7105   1.562   2.855   2.989
 1769SOL    HW2 7106   1.640   2.802   3.006
 1769SOL    HW3 7107   1.492   2.809   3.035
 1769SOL    MW4 7108   1.563   2.842   2.997
 1770SOL     OW 7109   1.586   3.114   3.105
 1770SOL    HW2 7110   1.584   3.115   3.201
 1770SOL    HW3 7111   1.573   3.022   3.082
 1770SOL    MW4 7112   1.584   3.102   3.115
 1771SOL     OW 7113   1.355   3.262   3.024
 1771SOL    HW2 7114   1.437   3.233   3.065
 1771SOL    HW3 7115   1.363   3.236   2.932
 1771SOL    MW4 7116   1.367   3.255   3.017
 1772SOL     OW 7117   1.324   3.518   3.103
 1772SOL    HW2 7118   1.325   3.510   3.199
 1772SOL    HW3 7119   1.323   3.427   3.072
 1772SOL    MW4 7120   1.324   3.505   3.112
 1773SOL     OW 7121   1.558   3.647   3.028
 1773SOL    HW2 7122   1.482   3.598   3.059
 1773SOL    HW3 7123   1.549   3.648   2.933
 1773SOL    MW4 7124   1.547   3.641   3.020
 1774SOL     OW 7125   1.615   3.910   3.122
 1774SOL    HW2 7126   1.697   3.924   3.074
 1774SOL    HW3 7127   1.581   3.827   3.087
 1774SOL    MW4 7128   1.621   3.901   3.111
 1775SOL     OW 7129   1.374   4.036   3.015
 1775SOL    HW2 7130   1.451   4.003   3.060
 1775SOL    HW3 7131   1.300   3.995   3.061
 1775SOL    MW4 7132   1.374   4.026   3.027
 1776SOL     OW 7133   1.355   4.286   3.132
 1776SOL    HW2 7134   1.349   4.200   3.091
 1776SOL    HW3 7135   1.283   4.336   3.094
 1776SOL    MW4 7136   1.345   4.281   3.121
 1777SOL     OW 7137   1.576   4.379   3.008
 1777SOL    HW2 7138   1.497   4.354   3.055
 1777SOL    HW3 7139   1.588   4.472   3.027
 1777SOL    MW4 7140   1.567   4.388   3.017
 1778SOL     OW 7141   2.024   4.659   3.069
 1778SOL    HW2 7142   2.003   4.661   3.162
 1778SOL    HW3 7143   1.958   4.714   3.028
 1778SOL    MW4 7144   2.013   4.666   3.076
 1779SOL     OW 7145   1.784   0.114   3.002
 1779SOL    HW2 7146   1.700   0.075   3.029
 1779SOL    HW3 7147   1.772   0.133   2.909
 1779SOL    MW4 7148   1.771   0.112   2.994
 1780SOL     OW 7149   1.764   0.356   3.135
 1780SOL    HW2 7150   1.771   0.272   3.088
 1780SOL    HW3 7151   1.695   0.403   3.090
 1780SOL    MW4 7152   1.756   0.351   3.123
 1781SOL     OW 7153   1.982   0.520   3.027
 1781SOL    HW2 7154   1.893   0.485   3.038
 1781SOL    HW3 7155   1.989   0.538   2.933
 1781SOL    MW4 7156   1.971   0.518   3.016
 1782SOL     OW 7157   1.982   0.772   3.128
 1782SOL    HW2 7158   1.906   0.806   3.080
 1782SOL    HW3 7159   1.991   0.681   3.098
 1782SOL    MW4 7160   1.973   0.764   3.117
 1783SOL     OW 7161   1.783   0.862   2.975
 1783SOL    HW2 7162   1.706   0.808   2.994
 1783SOL    HW3 7163   1.789   0.862   2.879
 1783SOL    MW4 7164   1.774   0.855   2.965
 1784SOL     OW 7165   1.779   1.137   3.061
 1784SOL    HW2 7166   1.785   1.159   3.153
 1784SOL    HW3 7167   1.797   1.043   3.058
 1784SOL    MW4 7168   1.782   1.127   3.072
 1785SOL     OW 7169   1.973   1.314   2.981
 1785SOL    HW2 7170   2.056   1.270   3.001
 1785SOL    HW3 7171   1.906   1.250   3.007
 1785SOL    MW4 7172   1.975   1.299   2.987
 1786SOL     OW 7173   2.051   1.575   3.085
 1786SOL    HW2 7174   2.046   1.576   3.181
 1786SOL    HW3 7175   2.024   1.487   3.061
 1786SOL    MW4 7176   2.046   1.564   3.095
 1787SOL     OW 7177   1.801   1.656   2.991
 1787SOL    HW2 7178   1.809   1.750   3.004
 1787SOL    HW3 7179   1.876   1.619   3.038
 1787SOL    MW4 7180   1.812   1.664   2.999
 1788SOL     OW 7181   1.811   1.921   3.035
 1788SOL    HW2 7182   1.880   1.985   3.018
 1788SOL    HW3 7183   1.730   1.973   3.037
 1788SOL    MW4 7184   1.809   1.936   3.033
 1789SOL     OW 7185   2.027   2.088   3.015
 1789SOL    HW2 7186   2.101   2.037   3.046
 1789SOL    HW3 7187   2.033   2.171   3.063
 1789SOL    MW4 7188   2.037   2.092   3.026
 1790SOL     OW 7189   2.095   2.324   3.148
 1790SOL    HW2 7190   2.165   2.353   3.089
 1790SOL    HW3 7191   2.017   2.370   3.117
 1790SOL    MW4 7192   2.094   2.334   3.136
 1791SOL     OW 7193   1.872   2.436   3.023
 1791SOL    HW2 7194   1.850   2.525   3.049
 1791SOL    HW3 7195   1.799   2.382   3.054
 1791SOL    MW4 7196   1.860   2.440   3.031
 1792SOL     OW 7197   1.782   2.704   3.085
 1792SOL    HW2 7198   1.788   2.732   3.177
 1792SOL    HW3 7199   1.863   2.734   3.045
 1792SOL    MW4 7200   1.793   2.711   3.092
 1793SOL     OW 7201   2.037   2.815   2.999
 1793SOL    HW2 7202   2.029   2.902   3.038
 1793SOL    HW3 7203   2.057   2.832   2.907
 1793SOL    MW4 7204   2.039   2.829   2.992
 1794SOL     OW 7205   2.010   3.059   3.123
 1794SOL    HW2 7206   2.007   3.092   3.213
 1794SOL    HW3 7207   1.945   3.111   3.076
 1794SOL    MW4 7208   2.001   3.070   3.129
 1795SOL     OW 7209   1.806   3.242   3.010
 1795SOL    HW2 7210   1.725   3.196   3.032
 1795SOL    HW3 7211   1.810   3.238   2.915
 1795SOL    MW4 7212   1.796   3.235   3.000
 1796SOL     OW 7213   1.789   3.504   3.115
 1796SOL    HW2 7214   1.796   3.418   3.075
 1796SOL    HW3 7215   1.701   3.535   3.092
 1796SOL    MW4 7216   1.778   3.497   3.107
 1797SOL     OW 7217   2.014   3.595   2.948
 1797SOL    HW2 7218   2.028   3.685   2.977
 1797SOL    HW3 7219   1.931   3.569   2.987
 1797SOL    MW4 7220   2.005   3.603   2.957
 1798SOL     OW 7221   2.051   3.835   3.083
 1798SOL    HW2 7222   2.063   3.822   3.177
 1798SOL    HW3 7223   1.989   3.907   3.077
 1798SOL    MW4 7224   2.044   3.843   3.095
 1799SOL     OW 7225   1.832   4.009   2.983
 1799SOL    HW2 7226   1.824   4.092   3.030
 1799SOL    HW3 7227   1.824   4.033   2.890
 1799SOL    MW4 7228   1.830   4.023   2.977
 1800SOL     OW 7229   1.808   4.282   3.114
 1800SOL    HW2 7230   1.877   4.342   3.086
 1800SOL    HW3 7231   1.728   4.317   3.074
 1800SOL    MW4 7232   1.806   4.295   3.105
 1801SOL     OW 7233   2.005   4.405   2.974
 1801SOL    HW2 7234   2.029   4.488   3.016
 1801SOL    HW3 7235   2.016   4.422   2.881
 1801SOL    MW4 7236   2.009   4.419   2.967
 1802SOL     OW 7237   2.440   4.627   3.108
 1802SOL    HW2 7238   2.417   4.537   3.085
 1802SOL    HW3 7239   2.371   4.680   3.069
 1802SOL    MW4 7240   2.428   4.622   3.100
 1803SOL     OW 7241   2.246   0.122   2.994
 1803SOL    HW2 7242   2.249   0.201   3.048
 1803SOL    HW3 7243   2.171   0.073   3.028
 1803SOL    MW4 7244   2.237   0.126   3.006
 1804SOL     OW 7245   2.233   0.379   3.143
 1804SOL    HW2 7246   2.229   0.382   3.238
 1804SOL    HW3 7247   2.142   0.386   3.115
 1804SOL    MW4 7248   2.221   0.381   3.152
 1805SOL     OW 7249   2.477   0.513   3.038
 1805SOL    HW2 7250   2.396   0.463   3.049
 1805SOL    HW3 7251   2.487   0.523   2.943
 1805SOL    MW4 7252   2.468   0.508   3.027
 1806SOL     OW 7253   2.423   0.793   3.089
 1806SOL    HW2 7254   2.503   0.840   3.063
 1806SOL    HW3 7255   2.444   0.701   3.074
 1806SOL    MW4 7256   2.437   0.787   3.084
 1807SOL     OW 7257   2.190   0.924   3.003
 1807SOL    HW2 7258   2.265   0.881   3.044
 1807SOL    HW3 7259   2.113   0.883   3.043
 1807SOL    MW4 7260   2.190   0.913   3.013
 1808SOL     OW 7261   2.201   1.188   3.077
 1808SOL    HW2 7262   2.187   1.171   3.170
 1808SOL    HW3 7263   2.200   1.101   3.037
 1808SOL    MW4 7264   2.199   1.174   3.084
 1809SOL     OW 7265   2.472   1.219   3.034
 1809SOL    HW2 7266   2.377   1.212   3.043
 1809SOL    HW3 7267   2.485   1.250   2.944
 1809SOL    MW4 7268   2.461   1.222   3.023
 1810SOL     OW 7269   2.518   1.496   3.110
 1810SOL    HW2 7270   2.446   1.556   3.091
 1810SOL    HW3 7271   2.484   1.410   3.087
 1810SOL    MW4 7272   2.504   1.492   3.104
 1811SOL     OW 7273   2.306   1.667   3.010
 1811SOL    HW2 7274   2.231   1.638   3.062
 1811SOL    HW3 7275   2.273   1.669   2.920
 1811SOL    MW4 7276   2.291   1.664   3.005
 1812SOL     OW 7277   2.250   1.925   3.093
 1812SOL    HW2 7278   2.325   1.982   3.076
 1812SOL    HW3 7279   2.275   1.840   3.055
 1812SOL    MW4 7280   2.263   1.921   3.086
 1813SOL     OW 7281   2.484   2.088   3.043
 1813SOL    HW2 7282   2.548   2.019   3.057
 1813SOL    HW3 7283   2.461   2.081   2.950
 1813SOL    MW4 7284   2.489   2.078   3.033
 1814SOL     OW 7285   2.474   2.338   3.139
 1814SOL    HW2 7286   2.460   2.340   3.234
 1814SOL    HW3 7287   2.491   2.246   3.120
 1814SOL    MW4 7288   2.474   2.326   3.149
 1815SOL     OW 7289   2.267   2.458   2.985
 1815SOL    HW2 7290   2.270   2.540   3.034
 1815SOL    HW3 7291   2.344   2.409   3.014
 1815SOL    MW4 7292   2.277   2.462   2.995
 1816SOL     OW 7293   2.256   2.720   3.112
 1816SOL    HW2 7294   2.334   2.771   3.088
 1816SOL    HW3 7295   2.183   2.767   3.071
 1816SOL    MW4 7296   2.257   2.733   3.103
 1817SOL     OW 7297   2.505   2.838   3.014
 1817SOL    HW2 7298   2.468   2.921   3.044
 1817SOL    HW3 7299   2.499   2.841   2.919
 1817SOL    MW4 7300   2.499   2.849   3.006
 1818SOL     OW 7301   2.426   3.081   3.111
 1818SOL    HW2 7302   2.500   3.129   3.074
 1818SOL    HW3 7303   2.350   3.135   3.091
 1818SOL    MW4 7304   2.425   3.094   3.103
 1819SOL     OW 7305   2.205   3.210   3.003
 1819SOL    HW2 7306   2.203   3.297   3.044
 1819SOL    HW3 7307   2.142   3.158   3.054
 1819SOL    MW4 7308   2.196   3.215   3.015
 1820SOL     OW 7309   2.226   3.463   3.110
 1820SOL    HW2 7310   2.302   3.505   3.070
 1820SOL    HW3 7311   2.152   3.496   3.060
 1820SOL    MW4 7312   2.226   3.473   3.098
 1821SOL     OW 7313   2.441   3.610   3.009
 1821SOL    HW2 7314   2.526   3.584   3.046
 1821SOL    HW3 7315   2.437   3.705   3.026
 1821SOL    MW4 7316   2.452   3.619   3.016
 1822SOL     OW 7317   2.503   3.885   3.125
 1822SOL    HW2 7318   2.523   3.871   3.217
 1822SOL    HW3 7319   2.580   3.930   3.090
 1822SOL    MW4 7320   2.516   3.889   3.132
 1823SOL     OW 7321   2.282   3.933   2.966
 1823SOL    HW2 7322   2.353   3.923   3.030
 1823SOL    HW3 7323   2.207   3.888   3.005
 1823SOL    MW4 7324   2.281   3.926   2.979
 1824SOL     OW 7325   2.205   4.202   3.079
 1824SOL    HW2 7326   2.210   4.109   3.057
 1824SOL    HW3 7327   2.130   4.235   3.030
 1824SOL    MW4 7328   2.196   4.194   3.070
 1825SOL     OW 7329   2.429   4.353   3.035
 1825SOL    HW2 7330   2.355   4.300   3.066
 1825SOL    HW3 7331   2.428   4.343   2.940
 1825SOL    MW4 7332   2.419   4.345   3.027
 1826SOL     OW 7333   2.923   4.624   3.087
 1826SOL    HW2 7334   2.995   4.665   3.041
 1826SOL    HW3 7335   2.930   4.531   3.066
 1826SOL    MW4 7336   2.933   4.617   3.078
 1827SOL     OW 7337   2.678   0.090   3.032
 1827SOL    HW2 7338   2.748   0.032   3.060
 1827SOL    HW3 7339   2.598   0.043   3.054
 1827SOL    MW4 7340   2.677   0.076   3.039
 1828SOL     OW 7341   2.718   0.386   3.088
 1828SOL    HW2 7342   2.708   0.298   3.050
 1828SOL    HW3 7343   2.630   0.422   3.089
 1828SOL    MW4 7344   2.705   0.379   3.083
 1829SOL     OW 7345   2.969   0.508   3.012
 1829SOL    HW2 7346   2.893   0.455   3.037
 1829SOL    HW3 7347   2.956   0.525   2.919
 1829SOL    MW4 7348   2.957   0.503   3.003
 1830SOL     OW 7349   2.920   0.761   3.107
 1830SOL    HW2 7350   2.936   0.764   3.201
 1830SOL    HW3 7351   2.934   0.669   3.083
 1830SOL    MW4 7352   2.924   0.749   3.116
 1831SOL     OW 7353   2.689   0.890   2.986
 1831SOL    HW2 7354   2.708   0.975   3.025
 1831SOL    HW3 7355   2.751   0.830   3.029
 1831SOL    MW4 7356   2.700   0.893   2.997
 1832SOL     OW 7357   2.712   1.130   3.121
 1832SOL    HW2 7358   2.771   1.194   3.083
 1832SOL    HW3 7359   2.625   1.156   3.090
 1832SOL    MW4 7360   2.708   1.142   3.112
 1833SOL     OW 7361   2.934   1.283   3.022
 1833SOL    HW2 7362   3.010   1.234   3.053
 1833SOL    HW3 7363   2.948   1.371   3.056
 1833SOL    MW4 7364   2.946   1.288   3.031
 1834SOL     OW 7365   2.937   1.552   3.132
 1834SOL    HW2 7366   2.925   1.541   3.226
 1834SOL    HW3 7367   3.015   1.606   3.124
 1834SOL    MW4 7368   2.945   1.558   3.143
 1835SOL     OW 7369   2.700   1.653   3.019
 1835SOL    HW2 7370   2.780   1.623   3.062
 1835SOL    HW3 7371   2.633   1.590   3.045
 1835SOL    MW4 7372   2.702   1.641   3.028
 1836SOL     OW 7373   2.687   1.915   3.096
 1836SOL    HW2 7374   2.776   1.948   3.095
 1836SOL    HW3 7375   2.694   1.824   3.066
 1836SOL    MW4 7376   2.699   1.907   3.092
 1837SOL     OW 7377   2.929   2.059   3.066
 1837SOL    HW2 7378   2.894   2.139   3.106
 1837SOL    HW3 7379   2.937   2.081   2.973
 1837SOL    MW4 7380   2.926   2.073   3.059
 1838SOL     OW 7381   2.881   2.307   3.166
 1838SOL    HW2 7382   2.951   2.360   3.129
 1838SOL    HW3 7383   2.801   2.347   3.132
 1838SOL    MW4 7384   2.879   2.319   3.156
 1839SOL     OW 7385   2.697   2.476   3.048
 1839SOL    HW2 7386   2.702   2.560   3.093
 1839SOL    HW3 7387   2.623   2.431   3.087
 1839SOL    MW4 7388   2.688   2.481   3.059
 1840SOL     OW 7389   2.743   2.756   3.131
 1840SOL    HW2 7390   2.705   2.747   3.218
 1840SOL    HW3 7391   2.668   2.769   3.073
 1840SOL    MW4 7392   2.728   2.756   3.135
 1841SOL     OW 7393   2.971   2.875   3.019
 1841SOL    HW2 7394   3.044   2.828   3.059
 1841SOL    HW3 7395   2.894   2.849   3.070
 1841SOL    MW4 7396   2.970   2.865   3.031
 1842SOL     OW 7397   2.909   3.137   3.124
 1842SOL    HW2 7398   2.838   3.177   3.074
 1842SOL    HW3 7399   2.926   3.054   3.080
 1842SOL    MW4 7400   2.902   3.132   3.112
 1843SOL     OW 7401   2.653   3.217   3.017
 1843SOL    HW2 7402   2.667   3.306   3.048
 1843SOL    HW3 7403   2.660   3.224   2.921
 1843SOL    MW4 7404   2.656   3.230   3.008
 1844SOL     OW 7405   2.681   3.467   3.101
 1844SOL    HW2 7406   2.678   3.460   3.197
 1844SOL    HW3 7407   2.756   3.523   3.084
 1844SOL    MW4 7408   2.690   3.473   3.112
 1845SOL     OW 7409   2.904   3.610   2.997
 1845SOL    HW2 7410   2.987   3.581   3.036
 1845SOL    HW3 7411   2.897   3.702   3.022
 1845SOL    MW4 7412   2.914   3.618   3.006
 1846SOL     OW 7413   2.955   3.852   3.097
 1846SOL    HW2 7414   2.959   3.834   3.191
 1846SOL    HW3 7415   2.891   3.923   3.089
 1846SOL    MW4 7416   2.947   3.859   3.108
 1847SOL     OW 7417   2.733   4.015   3.034
 1847SOL    HW2 7418   2.721   4.110   3.045
 1847SOL    HW3 7419   2.723   4.000   2.940
 1847SOL    MW4 7420   2.730   4.026   3.023
 1848SOL     OW 7421   2.707   4.301   3.101
 1848SOL    HW2 7422   2.708   4.302   3.197
 1848SOL    HW3 7423   2.615   4.316   3.079
 1848SOL    MW4 7424   2.695   4.303   3.111
 1849SOL     OW 7425   2.952   4.361   2.993
 1849SOL    HW2 7426   3.019   4.321   3.048
 1849SOL    HW3 7427   2.870   4.324   3.025
 1849SOL    MW4 7428   2.950   4.351   3.004
 1850SOL     OW 7429   3.357   4.632   3.161
 1850SOL    HW2 7430   3.431   4.677   3.121
 1850SOL    HW3 7431   3.351   4.548   3.114
 1850SOL    MW4 7432   3.366   4.627   3.150
 1851SOL     OW 7433   3.148   0.104   3.034
 1851SOL    HW2 7434   3.170   0.193   3.062
 1851SOL    HW3 7435   3.203   0.048   3.088
 1851SOL    MW4 7436   3.158   0.108   3.045
 1852SOL     OW 7437   3.173   0.369   3.138
 1852SOL    HW2 7438   3.251   0.412   3.102
 1852SOL    HW3 7439   3.100   0.418   3.100
 1852SOL    MW4 7440   3.174   0.381   3.128
 1853SOL     OW 7441   3.361   0.525   3.006
 1853SOL    HW2 7442   3.440   0.489   3.045
 1853SOL    HW3 7443   3.368   0.505   2.913
 1853SOL    MW4 7444   3.372   0.518   2.999
 1854SOL     OW 7445   3.355   0.788   3.093
 1854SOL    HW2 7446   3.351   0.787   3.189
 1854SOL    HW3 7447   3.351   0.696   3.068
 1854SOL    MW4 7448   3.354   0.776   3.102
 1855SOL     OW 7449   3.125   0.911   2.979
 1855SOL    HW2 7450   3.202   0.864   3.012
 1855SOL    HW3 7451   3.051   0.868   3.022
 1855SOL    MW4 7452   3.126   0.899   2.989
 1856SOL     OW 7453   3.138   1.132   3.129
 1856SOL    HW2 7454   3.222   1.165   3.098
 1856SOL    HW3 7455   3.121   1.054   3.075
 1856SOL    MW4 7456   3.147   1.126   3.117
 1857SOL     OW 7457   3.366   1.260   3.051
 1857SOL    HW2 7458   3.447   1.226   3.090
 1857SOL    HW3 7459   3.352   1.344   3.094
 1857SOL    MW4 7460   3.375   1.267   3.062
 1858SOL     OW 7461   3.374   1.521   3.148
 1858SOL    HW2 7462   3.394   1.531   3.241
 1858SOL    HW3 7463   3.449   1.558   3.102
 1858SOL    MW4 7464   3.386   1.527   3.154
 1859SOL     OW 7465   3.169   1.683   3.037
 1859SOL    HW2 7466   3.239   1.627   3.071
 1859SOL    HW3 7467   3.168   1.664   2.943
 1859SOL    MW4 7468   3.178   1.673   3.029
 1860SOL     OW 7469   3.171   1.946   3.128
 1860SOL    HW2 7470   3.152   1.858   3.095
 1860SOL    HW3 7471   3.088   1.993   3.121
 1860SOL    MW4 7472   3.158   1.941   3.123
 1861SOL     OW 7473   3.412   2.076   3.034
 1861SOL    HW2 7474   3.485   2.026   3.071
 1861SOL    HW3 7475   3.334   2.031   3.066
 1861SOL    MW4 7476   3.412   2.063   3.043
 1862SOL     OW 7477   3.338   2.337   3.114
 1862SOL    HW2 7478   3.358   2.341   3.208
 1862SOL    HW3 7479   3.366   2.250   3.087
 1862SOL    MW4 7480   3.344   2.326   3.123
 1863SOL     OW 7481   3.095   2.428   3.047
 1863SOL    HW2 7482   3.185   2.412   3.077
 1863SOL    HW3 7483   3.101   2.422   2.952
 1863SOL    MW4 7484   3.108   2.425   3.038
 1864SOL     OW 7485   3.150   2.701   3.119
 1864SOL    HW2 7486   3.151   2.718   3.213
 1864SOL    HW3 7487   3.127   2.608   3.111
 1864SOL    MW4 7488   3.147   2.691   3.130
 1865SOL     OW 7489   3.394   2.795   3.034
 1865SOL    HW2 7490   3.400   2.881   3.076
 1865SOL    HW3 7491   3.313   2.757   3.069
 1865SOL    MW4 7492   3.384   2.802   3.044
 1866SOL     OW 7493   3.391   3.068   3.104
 1866SOL    HW2 7494   3.394   3.087   3.198
 1866SOL    HW3 7495   3.311   3.113   3.074
 1866SOL    MW4 7496   3.381   3.077   3.112
 1867SOL     OW 7497   3.167   3.215   3.017
 1867SOL    HW2 7498   3.082   3.182   3.044
 1867SOL    HW3 7499   3.165   3.211   2.921
 1867SOL    MW4 7500   3.156   3.210   3.008
 1868SOL     OW 7501   3.141   3.452   3.131
 1868SOL    HW2 7502   3.225   3.494   3.115
 1868SOL    HW3 7503   3.150   3.364   3.095
 1868SOL    MW4 7504   3.153   3.446   3.124
 1869SOL     OW 7505   3.372   3.594   3.036
 1869SOL    HW2 7506   3.457   3.565   3.070
 1869SOL    HW3 7507   3.363   3.684   3.066
 1869SOL    MW4 7508   3.382   3.602   3.044
 1870SOL     OW 7509   3.392   3.863   3.114
 1870SOL    HW2 7510   3.383   3.879   3.208
 1870SOL    HW3 7511   3.318   3.910   3.075
 1870SOL    MW4 7512   3.381   3.871   3.121
 1871SOL     OW 7513   3.174   3.999   3.027
 1871SOL    HW2 7514   3.097   3.948   3.053
 1871SOL    HW3 7515   3.168   4.004   2.932
 1871SOL    MW4 7516   3.163   3.993   3.018
 1872SOL     OW 7517   3.149   4.255   3.135
 1872SOL    HW2 7518   3.147   4.248   3.230
 1872SOL    HW3 7519   3.156   4.164   3.105
 1872SOL    MW4 7520   3.150   4.242   3.144
 1873SOL     OW 7521   3.368   4.388   3.040
 1873SOL    HW2 7522   3.441   4.346   3.085
 1873SOL    HW3 7523   3.291   4.340   3.070
 1873SOL    MW4 7524   3.367   4.376   3.050
 1874SOL     OW 7525   3.772   4.616   3.139
 1874SOL    HW2 7526   3.774   4.530   3.097
 1874SOL    HW3 7527   3.689   4.655   3.110
 1874SOL    MW4 7528   3.761   4.610   3.130
 1875SOL     OW 7529   3.563   0.115   3.024
 1875SOL    HW2 7530   3.557   0.204   3.060
 1875SOL    HW3 7531   3.577   0.128   2.930
 1875SOL    MW4 7532   3.564   0.129   3.016
 1876SOL     OW 7533   3.566   0.378   3.121
 1876SOL    HW2 7534   3.596   0.374   3.212
 1876SOL    HW3 7535   3.642   0.413   3.073
 1876SOL    MW4 7536   3.580   0.382   3.126
 1877SOL     OW 7537   3.813   0.475   3.009
 1877SOL    HW2 7538   3.886   0.431   3.053
 1877SOL    HW3 7539   3.819   0.566   3.039
 1877SOL    MW4 7540   3.823   0.481   3.019
 1878SOL     OW 7541   3.795   0.749   3.085
 1878SOL    HW2 7542   3.793   0.757   3.180
 1878SOL    HW3 7543   3.878   0.790   3.059
 1878SOL    MW4 7544   3.806   0.755   3.094
 1879SOL     OW 7545   3.591   0.915   2.970
 1879SOL    HW2 7546   3.646   0.855   3.022
 1879SOL    HW3 7547   3.502   0.895   2.998
 1879SOL    MW4 7548   3.587   0.905   2.981
 1880SOL     OW 7549   3.603   1.150   3.132
 1880SOL    HW2 7550   3.678   1.201   3.101
 1880SOL    HW3 7551   3.602   1.072   3.076
 1880SOL    MW4 7552   3.613   1.146   3.121
 1881SOL     OW 7553   3.839   1.291   3.034
 1881SOL    HW2 7554   3.853   1.378   3.071
 1881SOL    HW3 7555   3.815   1.307   2.942
 1881SOL    MW4 7556   3.837   1.304   3.027
 1882SOL     OW 7557   3.823   1.533   3.155
 1882SOL    HW2 7558   3.809   1.544   3.249
 1882SOL    HW3 7559   3.741   1.561   3.115
 1882SOL    MW4 7560   3.810   1.538   3.162
 1883SOL     OW 7561   3.599   1.630   3.038
 1883SOL    HW2 7562   3.611   1.719   3.071
 1883SOL    HW3 7563   3.612   1.637   2.943
 1883SOL    MW4 7564   3.602   1.643   3.030
 1884SOL     OW 7565   3.605   1.899   3.121
 1884SOL    HW2 7566   3.597   1.903   3.216
 1884SOL    HW3 7567   3.676   1.960   3.100
 1884SOL    MW4 7568   3.613   1.907   3.131
 1885SOL     OW 7569   3.807   2.076   3.022
 1885SOL    HW2 7570   3.816   2.166   3.053
 1885SOL    HW3 7571   3.823   2.081   2.927
 1885SOL    MW4 7572   3.810   2.088   3.013
 1886SOL     OW 7573   3.823   2.331   3.141
 1886SOL    HW2 7574   3.813   2.325   3.236
 1886SOL    HW3 7575   3.737   2.360   3.109
 1886SOL    MW4 7576   3.810   2.334   3.149
 1887SOL     OW 7577   3.577   2.424   3.023
 1887SOL    HW2 7578   3.595   2.510   3.061
 1887SOL    HW3 7579   3.493   2.399   3.062
 1887SOL    MW4 7580   3.568   2.432   3.033
 1888SOL     OW 7581   3.632   2.682   3.140
 1888SOL    HW2 7582   3.702   2.743   3.117
 1888SOL    HW3 7583   3.554   2.717   3.097
 1888SOL    MW4 7584   3.631   2.695   3.131
 1889SOL     OW 7585   3.820   2.858   3.021
 1889SOL    HW2 7586   3.814   2.948   3.051
 1889SOL    HW3 7587   3.827   2.864   2.926
 1889SOL    MW4 7588   3.820   2.870   3.013
 1890SOL     OW 7589   3.824   3.133   3.133
 1890SOL    HW2 7590   3.897   3.166   3.080
 1890SOL    HW3 7591   3.750   3.190   3.110
 1890SOL    MW4 7592   3.824   3.145   3.123
 1891SOL     OW 7593   3.585   3.255   3.029
 1891SOL    HW2 7594   3.531   3.184   3.063
 1891SOL    HW3 7595   3.575   3.250   2.934
 1891SOL    MW4 7596   3.576   3.245   3.021
 1892SOL     OW 7597   3.616   3.510   3.149
 1892SOL    HW2 7598   3.691   3.559   3.117
 1892SOL    HW3 7599   3.620   3.426   3.102
 1892SOL    MW4 7600   3.626   3.505   3.139
 1893SOL     OW 7601   3.842   3.620   3.036
 1893SOL    HW2 7602   3.832   3.713   3.055
 1893SOL    HW3 7603   3.821   3.613   2.942
 1893SOL    MW4 7604   3.838   3.632   3.026
 1894SOL     OW 7605   3.844   3.871   3.127
 1894SOL    HW2 7606   3.839   3.872   3.222
 1894SOL    HW3 7607   3.759   3.903   3.098
 1894SOL    MW4 7608   3.832   3.875   3.136
 1895SOL     OW 7609   3.618   3.985   3.027
 1895SOL    HW2 7610   3.537   3.946   3.061
 1895SOL    HW3 7611   3.601   4.000   2.934
 1895SOL    MW4 7612   3.605   3.982   3.020
 1896SOL     OW 7613   3.587   4.248   3.131
 1896SOL    HW2 7614   3.664   4.292   3.093
 1896SOL    HW3 7615   3.592   4.159   3.097
 1896SOL    MW4 7616   3.598   4.242   3.121
 1897SOL     OW 7617   3.797   4.379   3.001
 1897SOL    HW2 7618   3.875   4.344   3.045
 1897SOL    HW3 7619   3.819   4.376   2.908
 1897SOL    MW4 7620   3.810   4.374   2.995
 1898SOL     OW 7621   4.238   0.041   3.145
 1898SOL    HW2 7622   4.251   0.025   3.238
 1898SOL    HW3 7623   4.227  -0.046   3.107
 1898SOL    MW4 7624   4.238   0.027   3.152
 1899SOL     OW 7625   3.983   0.110   3.046
 1899SOL    HW2 7626   4.066   0.073   3.077
 1899SOL    HW3 7627   3.916   0.066   3.097
 1899SOL    MW4 7628   3.985   0.099   3.057
 1900SOL     OW 7629   4.023   0.384   3.172
 1900SOL    HW2 7630   4.101   0.411   3.124
 1900SOL    HW3 7631   4.017   0.289   3.158
 1900SOL    MW4 7632   4.032   0.375   3.164
 1901SOL     OW 7633   4.270   0.460   3.049
 1901SOL    HW2 7634   4.289   0.541   3.095
 1901SOL    HW3 7635   4.266   0.485   2.956
 1901SOL    MW4 7636   4.272   0.474   3.043
 1902SOL     OW 7637   4.271   0.727   3.148
 1902SOL    HW2 7638   4.191   0.761   3.108
 1902SOL    HW3 7639   4.341   0.755   3.088
 1902SOL    MW4 7640   4.269   0.735   3.134
 1903SOL     OW 7641   4.036   0.868   3.049
 1903SOL    HW2 7642   4.038   0.953   3.092
 1903SOL    HW3 7643   4.047   0.888   2.956
 1903SOL    MW4 7644   4.038   0.882   3.042
 1904SOL     OW 7645   4.024   1.124   3.143
 1904SOL    HW2 7646   4.015   1.122   3.238
 1904SOL    HW3 7647   3.949   1.175   3.113
 1904SOL    MW4 7648   4.013   1.130   3.152
 1905SOL     OW 7649   4.212   1.280   3.014
 1905SOL    HW2 7650   4.142   1.228   3.053
 1905SOL    HW3 7651   4.189   1.287   2.922
 1905SOL    MW4 7652   4.200   1.274   3.007
 1906SOL     OW 7653   4.251   1.559   3.087
 1906SOL    HW2 7654   4.178   1.610   3.051
 1906SOL    HW3 7655   4.231   1.469   3.063
 1906SOL    MW4 7656   4.239   1.554   3.079
 1907SOL     OW 7657   4.025   1.711   3.009
 1907SOL    HW2 7658   4.032   1.797   3.049
 1907SOL    HW3 7659   3.952   1.669   3.055
 1907SOL    MW4 7660   4.016   1.717   3.020
 1908SOL     OW 7661   4.026   1.951   3.142
 1908SOL    HW2 7662   4.103   1.987   3.098
 1908SOL    HW3 7663   3.951   1.992   3.097
 1908SOL    MW4 7664   4.026   1.961   3.130
 1909SOL     OW 7665   4.263   2.040   3.019
 1909SOL    HW2 7666   4.266   2.130   3.052
 1909SOL    HW3 7667   4.258   2.049   2.924
 1909SOL    MW4 7668   4.263   2.053   3.011
 1910SOL     OW 7669   4.280   2.301   3.111
 1910SOL    HW2 7670   4.206   2.352   3.078
 1910SOL    HW3 7671   4.357   2.351   3.084
 1910SOL    MW4 7672   4.281   2.314   3.103
 1911SOL     OW 7673   4.051   2.494   3.020
 1911SOL    HW2 7674   4.056   2.585   3.049
 1911SOL    HW3 7675   3.988   2.453   3.078
 1911SOL    MW4 7676   4.043   2.501   3.031
 1912SOL     OW 7677   4.070   2.747   3.104
 1912SOL    HW2 7678   4.063   2.736   3.199
 1912SOL    HW3 7679   3.991   2.795   3.079
 1912SOL    MW4 7680   4.059   2.752   3.113
 1913SOL     OW 7681   4.304   2.879   3.016
 1913SOL    HW2 7682   4.223   2.852   3.059
 1913SOL    HW3 7683   4.368   2.812   3.041
 1913SOL    MW4 7684   4.302   2.867   3.025
 1914SOL     OW 7685   4.273   3.117   3.173
 1914SOL    HW2 7686   4.202   3.165   3.131
 1914SOL    HW3 7687   4.288   3.042   3.115
 1914SOL    MW4 7688   4.266   3.114   3.160
 1915SOL     OW 7689   4.070   3.242   3.021
 1915SOL    HW2 7690   4.065   3.324   3.070
 1915SOL    HW3 7691   4.077   3.269   2.930
 1915SOL    MW4 7692   4.070   3.256   3.016
 1916SOL     OW 7693   4.099   3.508   3.149
 1916SOL    HW2 7694   4.097   3.537   3.240
 1916SOL    HW3 7695   4.035   3.565   3.105
 1916SOL    MW4 7696   4.090   3.520   3.155
 1917SOL     OW 7697   4.296   3.640   3.006
 1917SOL    HW2 7698   4.283   3.731   3.029
 1917SOL    HW3 7699   4.233   3.592   3.059
 1917SOL    MW4 7700   4.286   3.645   3.016
 1918SOL     OW 7701   4.254   3.890   3.118
 1918SOL    HW2 7702   4.175   3.938   3.093
 1918SOL    HW3 7703   4.326   3.949   3.099
 1918SOL    MW4 7704   4.253   3.904   3.112
 1919SOL     OW 7705   4.034   4.045   3.011
 1919SOL    HW2 7706   4.041   4.128   3.057
 1919SOL    HW3 7707   3.973   3.994   3.064
 1919SOL    MW4 7708   4.027   4.049   3.024
 1920SOL     OW 7709   4.031   4.283   3.147
 1920SOL    HW2 7710   4.031   4.258   3.240
 1920SOL    HW3 7711   4.113   4.330   3.135
 1920SOL    MW4 7712   4.042   4.286   3.158
 1921SOL     OW 7713   4.241   4.454   3.048
 1921SOL    HW2 7714   4.316   4.398   3.070
 1921SOL    HW3 7715   4.238   4.455   2.953
 1921SOL    MW4 7716   4.251   4.447   3.039
 1922SOL     OW 7717   0.240   4.651   3.380
 1922SOL    HW2 7718   0.314   4.700   3.416
 1922SOL    HW3 7719   0.229   4.577   3.441
 1922SOL    MW4 7720   0.248   4.648   3.393
 1923SOL     OW 7721   0.005   0.097   3.478
 1923SOL    HW2 7722   0.012   0.189   3.451
 1923SOL    HW3 7723   0.090   0.059   3.454
 1923SOL    MW4 7724   0.017   0.104   3.471
 1924SOL     OW 7725   0.028   0.366   3.379
 1924SOL    HW2 7726  -0.051   0.400   3.421
 1924SOL    HW3 7727   0.100   0.415   3.418
 1924SOL    MW4 7728   0.027   0.377   3.390
 1925SOL     OW 7729   0.263   0.469   3.441
 1925SOL    HW2 7730   0.353   0.442   3.423
 1925SOL    HW3 7731   0.259   0.560   3.412
 1925SOL    MW4 7732   0.274   0.477   3.434
 1926SOL     OW 7733   0.205   0.737   3.387
 1926SOL    HW2 7734   0.269   0.785   3.439
 1926SOL    HW3 7735   0.120   0.763   3.424
 1926SOL    MW4 7736   0.202   0.747   3.399
 1927SOL     OW 7737   4.464   0.861   3.502
 1927SOL    HW2 7738   4.496   0.883   3.590
 1927SOL    HW3 7739   4.475   0.942   3.451
 1927SOL    MW4 7740   4.470   0.875   3.507
 1928SOL     OW 7741   4.447   1.110   3.360
 1928SOL    HW2 7742   4.538   1.137   3.373
 1928SOL    HW3 7743   4.436   1.112   3.265
 1928SOL    MW4 7744   4.457   1.114   3.349
 1929SOL     OW 7745   0.201   1.276   3.451
 1929SOL    HW2 7746   0.279   1.243   3.408
 1929SOL    HW3 7747   0.200   1.370   3.432
 1929SOL    MW4 7748   0.211   1.284   3.443
 1930SOL     OW 7749   0.174   1.539   3.360
 1930SOL    HW2 7750   0.244   1.598   3.389
 1930SOL    HW3 7751   0.203   1.508   3.274
 1930SOL    MW4 7752   0.187   1.543   3.353
 1931SOL     OW 7753   4.450   1.662   3.483
 1931SOL    HW2 7754   4.367   1.620   3.461
 1931SOL    HW3 7755   4.516   1.613   3.433
 1931SOL    MW4 7756   4.448   1.650   3.473
 1932SOL     OW 7757   4.457   1.922   3.394
 1932SOL    HW2 7758   4.447   1.830   3.419
 1932SOL    HW3 7759   4.443   1.923   3.300
 1932SOL    MW4 7760   4.454   1.910   3.385
 1933SOL     OW 7761   0.182   2.072   3.470
 1933SOL    HW2 7762   0.201   2.063   3.564
 1933SOL    HW3 7763   0.100   2.023   3.458
 1933SOL    MW4 7764   0.174   2.065   3.481
 1934SOL     OW 7765   0.196   2.341   3.423
 1934SOL    HW2 7766   0.119   2.394   3.445
 1934SOL    HW3 7767   0.177   2.255   3.461
 1934SOL    MW4 7768   0.183   2.336   3.431
 1935SOL     OW 7769   4.470   2.488   3.482
 1935SOL    HW2 7770   4.470   2.467   3.575
 1935SOL    HW3 7771   4.410   2.425   3.443
 1935SOL    MW4 7772   4.462   2.477   3.489
 1936SOL     OW 7773   4.483   2.756   3.410
 1936SOL    HW2 7774   4.567   2.777   3.452
 1936SOL    HW3 7775   4.464   2.666   3.438
 1936SOL    MW4 7776   4.492   2.747   3.419
 1937SOL     OW 7777   0.242   2.841   3.535
 1937SOL    HW2 7778   0.318   2.798   3.496
 1937SOL    HW3 7779   0.249   2.932   3.506
 1937SOL    MW4 7780   0.253   2.847   3.526
 1938SOL     OW 7781   0.261   3.107   3.435
 1938SOL    HW2 7782   0.185   3.146   3.477
 1938SOL    HW3 7783   0.244   3.114   3.342
 1938SOL    MW4 7784   0.249   3.113   3.429
 1939SOL     OW 7785   0.038   3.249   3.553
 1939SOL    HW2 7786  -0.040   3.214   3.509
 1939SOL    HW3 7787   0.048   3.337   3.515
 1939SOL    MW4 7788   0.029   3.256   3.542
 1940SOL     OW 7789   0.037   3.493   3.422
 1940SOL    HW2 7790  -0.041   3.538   3.454
 1940SOL    HW3 7791   0.055   3.534   3.337
 1940SOL    MW4 7792   0.029   3.504   3.415
 1941SOL     OW 7793   0.240   3.668   3.539
 1941SOL    HW2 7794   0.233   3.681   3.633
 1941SOL    HW3 7795   0.165   3.612   3.518
 1941SOL    MW4 7796   0.229   3.662   3.549
 1942SOL     OW 7797   0.222   3.925   3.422
 1942SOL    HW2 7798   0.141   3.964   3.457
 1942SOL    HW3 7799   0.230   3.842   3.469
 1942SOL    MW4 7800   0.212   3.919   3.433
 1943SOL     OW 7801   4.475   4.031   3.520
 1943SOL    HW2 7802   4.489   4.037   3.614
 1943SOL    HW3 7803   4.461   4.122   3.492
 1943SOL    MW4 7804   4.475   4.044   3.528
 1944SOL     OW 7805   4.460   4.289   3.426
 1944SOL    HW2 7806   4.385   4.329   3.470
 1944SOL    HW3 7807   4.536   4.332   3.464
 1944SOL    MW4 7808   4.460   4.300   3.437
 1945SOL     OW 7809   0.203   4.410   3.536
 1945SOL    HW2 7810   0.203   4.410   3.632
 1945SOL    HW3 7811   0.288   4.374   3.512
 1945SOL    MW4 7812   0.214   4.405   3.546
 1946SOL     OW 7813   0.705   0.025   3.394
 1946SOL    HW2 7814   0.791   0.062   3.413
 1946SOL    HW3 7815   0.709   0.002   3.301
 1946SOL    MW4 7816   0.717   0.027   3.384
 1947SOL     OW 7817   0.462   0.136   3.485
 1947SOL    HW2 7818   0.489   0.150   3.575
 1947SOL    HW3 7819   0.538   0.097   3.442
 1947SOL    MW4 7820   0.476   0.133   3.491
 1948SOL     OW 7821   0.517   0.399   3.363
 1948SOL    HW2 7822   0.573   0.447   3.424
 1948SOL    HW3 7823   0.508   0.312   3.403
 1948SOL    MW4 7824   0.523   0.394   3.376
 1949SOL     OW 7825   0.695   0.545   3.518
 1949SOL    HW2 7826   0.699   0.571   3.610
 1949SOL    HW3 7827   0.772   0.490   3.505
 1949SOL    MW4 7828   0.705   0.541   3.528
 1950SOL     OW 7829   0.658   0.794   3.394
 1950SOL    HW2 7830   0.572   0.815   3.432
 1950SOL    HW3 7831   0.674   0.703   3.420
 1950SOL    MW4 7832   0.648   0.785   3.402
 1951SOL     OW 7833   0.425   0.900   3.489
 1951SOL    HW2 7834   0.430   0.918   3.583
 1951SOL    HW3 7835   0.402   0.984   3.449
 1951SOL    MW4 7836   0.422   0.913   3.496
 1952SOL     OW 7837   0.441   1.149   3.343
 1952SOL    HW2 7838   0.511   1.207   3.375
 1952SOL    HW3 7839   0.454   1.146   3.249
 1952SOL    MW4 7840   0.452   1.156   3.335
 1953SOL     OW 7841   0.632   1.307   3.436
 1953SOL    HW2 7842   0.713   1.262   3.412
 1953SOL    HW3 7843   0.651   1.400   3.421
 1953SOL    MW4 7844   0.645   1.313   3.431
 1954SOL     OW 7845   0.691   1.564   3.362
 1954SOL    HW2 7846   0.756   1.603   3.421
 1954SOL    HW3 7847   0.608   1.602   3.390
 1954SOL    MW4 7848   0.689   1.574   3.374
 1955SOL     OW 7849   0.407   1.665   3.480
 1955SOL    HW2 7850   0.418   1.663   3.575
 1955SOL    HW3 7851   0.403   1.758   3.458
 1955SOL    MW4 7852   0.408   1.677   3.490
 1956SOL     OW 7853   0.413   1.932   3.417
 1956SOL    HW2 7854   0.332   1.981   3.427
 1956SOL    HW3 7855   0.432   1.935   3.323
 1956SOL    MW4 7856   0.405   1.939   3.406
 1957SOL     OW 7857   0.651   2.056   3.519
 1957SOL    HW2 7858   0.641   2.053   3.614
 1957SOL    HW3 7859   0.572   2.015   3.485
 1957SOL    MW4 7860   0.639   2.050   3.527
 1958SOL     OW 7861   0.645   2.313   3.396
 1958SOL    HW2 7862   0.733   2.349   3.410
 1958SOL    HW3 7863   0.641   2.237   3.455
 1958SOL    MW4 7864   0.656   2.308   3.406
 1959SOL     OW 7865   0.439   2.476   3.485
 1959SOL    HW2 7866   0.501   2.421   3.436
 1959SOL    HW3 7867   0.356   2.429   3.479
 1959SOL    MW4 7868   0.436   2.462   3.478
 1960SOL     OW 7869   0.467   2.739   3.402
 1960SOL    HW2 7870   0.461   2.644   3.414
 1960SOL    HW3 7871   0.460   2.752   3.308
 1960SOL    MW4 7872   0.465   2.728   3.391
 1961SOL     OW 7873   0.691   2.870   3.510
 1961SOL    HW2 7874   0.772   2.822   3.492
 1961SOL    HW3 7875   0.622   2.816   3.473
 1961SOL    MW4 7876   0.693   2.856   3.503
 1962SOL     OW 7877   0.675   3.116   3.376
 1962SOL    HW2 7878   0.599   3.166   3.406
 1962SOL    HW3 7879   0.676   3.038   3.432
 1962SOL    MW4 7880   0.665   3.112   3.387
 1963SOL     OW 7881   0.472   3.271   3.535
 1963SOL    HW2 7882   0.479   3.260   3.630
 1963SOL    HW3 7883   0.387   3.233   3.513
 1963SOL    MW4 7884   0.462   3.265   3.545
 1964SOL     OW 7885   0.447   3.526   3.400
 1964SOL    HW2 7886   0.438   3.438   3.435
 1964SOL    HW3 7887   0.377   3.576   3.444
 1964SOL    MW4 7888   0.436   3.521   3.411
 1965SOL     OW 7889   0.660   3.630   3.526
 1965SOL    HW2 7890   0.743   3.591   3.499
 1965SOL    HW3 7891   0.595   3.590   3.469
 1965SOL    MW4 7892   0.663   3.620   3.515
 1966SOL     OW 7893   0.641   3.891   3.395
 1966SOL    HW2 7894   0.584   3.936   3.457
 1966SOL    HW3 7895   0.649   3.802   3.429
 1966SOL    MW4 7896   0.635   3.885   3.407
 1967SOL     OW 7897   0.440   4.064   3.526
 1967SOL    HW2 7898   0.443   4.153   3.490
 1967SOL    HW3 7899   0.361   4.025   3.487
 1967SOL    MW4 7900   0.430   4.071   3.516
 1968SOL     OW 7901   0.436   4.318   3.426
 1968SOL    HW2 7902   0.518   4.350   3.462
 1968SOL    HW3 7903   0.447   4.325   3.331
 1968SOL    MW4 7904   0.448   4.323   3.418
 1969SOL     OW 7905   0.692   4.419   3.493
 1969SOL    HW2 7906   0.769   4.376   3.456
 1969SOL    HW3 7907   0.696   4.509   3.460
 1969SOL    MW4 7908   0.703   4.425   3.484
 1970SOL     OW 7909   1.117   4.635   3.390
 1970SOL    HW2 7910   1.196   4.680   3.421
 1970SOL    HW3 7911   1.127   4.630   3.295
 1970SOL    MW4 7912   1.129   4.640   3.382
 1971SOL     OW 7913   0.938   0.148   3.483
 1971SOL    HW2 7914   0.919   0.129   3.575
 1971SOL    HW3 7915   1.003   0.082   3.459
 1971SOL    MW4 7916   0.944   0.137   3.492
 1972SOL     OW 7917   0.919   0.413   3.443
 1972SOL    HW2 7918   1.011   0.439   3.451
 1972SOL    HW3 7919   0.921   0.318   3.451
 1972SOL    MW4 7920   0.932   0.404   3.445
 1973SOL     OW 7921   1.184   0.505   3.503
 1973SOL    HW2 7922   1.182   0.488   3.597
 1973SOL    HW3 7923   1.177   0.600   3.495
 1973SOL    MW4 7924   1.183   0.515   3.514
 1974SOL     OW 7925   1.147   0.768   3.431
 1974SOL    HW2 7926   1.214   0.836   3.427
 1974SOL    HW3 7927   1.069   0.812   3.463
 1974SOL    MW4 7928   1.146   0.783   3.434
 1975SOL     OW 7929   0.899   0.896   3.495
 1975SOL    HW2 7930   0.909   0.988   3.473
 1975SOL    HW3 7931   0.825   0.867   3.441
 1975SOL    MW4 7932   0.891   0.904   3.485
 1976SOL     OW 7933   0.880   1.176   3.393
 1976SOL    HW2 7934   0.959   1.213   3.430
 1976SOL    HW3 7935   0.900   1.167   3.299
 1976SOL    MW4 7936   0.893   1.180   3.385
 1977SOL     OW 7937   1.115   1.298   3.459
 1977SOL    HW2 7938   1.128   1.297   3.554
 1977SOL    HW3 7939   1.101   1.391   3.438
 1977SOL    MW4 7940   1.115   1.310   3.469
 1978SOL     OW 7941   1.112   1.561   3.375
 1978SOL    HW2 7942   1.203   1.559   3.405
 1978SOL    HW3 7943   1.118   1.559   3.279
 1978SOL    MW4 7944   1.125   1.560   3.366
 1979SOL     OW 7945   0.901   1.656   3.522
 1979SOL    HW2 7946   0.900   1.745   3.487
 1979SOL    HW3 7947   0.977   1.615   3.482
 1979SOL    MW4 7948   0.911   1.663   3.512
 1980SOL     OW 7949   0.867   1.899   3.428
 1980SOL    HW2 7950   0.943   1.953   3.448
 1980SOL    HW3 7951   0.793   1.947   3.463
 1980SOL    MW4 7952   0.867   1.912   3.435
 1981SOL     OW 7953   1.098   2.051   3.473
 1981SOL    HW2 7954   1.171   2.000   3.437
 1981SOL    HW3 7955   1.114   2.140   3.443
 1981SOL    MW4 7956   1.110   2.056   3.464
 1982SOL     OW 7957   1.120   2.293   3.371
 1982SOL    HW2 7958   1.192   2.336   3.418
 1982SOL    HW3 7959   1.152   2.286   3.281
 1982SOL    MW4 7960   1.134   2.298   3.365
 1983SOL     OW 7961   0.891   2.436   3.461
 1983SOL    HW2 7962   0.895   2.442   3.556
 1983SOL    HW3 7963   0.979   2.410   3.434
 1983SOL    MW4 7964   0.903   2.434   3.470
 1984SOL     OW 7965   0.906   2.720   3.410
 1984SOL    HW2 7966   0.999   2.738   3.421
 1984SOL    HW3 7967   0.895   2.629   3.440
 1984SOL    MW4 7968   0.917   2.710   3.416
 1985SOL     OW 7969   1.178   2.851   3.475
 1985SOL    HW2 7970   1.170   2.847   3.570
 1985SOL    HW3 7971   1.254   2.796   3.455
 1985SOL    MW4 7972   1.187   2.843   3.485
 1986SOL     OW 7973   1.118   3.102   3.395
 1986SOL    HW2 7974   1.136   3.011   3.420
 1986SOL    HW3 7975   1.120   3.101   3.299
 1986SOL    MW4 7976   1.121   3.090   3.385
 1987SOL     OW 7977   0.885   3.260   3.483
 1987SOL    HW2 7978   0.951   3.196   3.455
 1987SOL    HW3 7979   0.801   3.216   3.471
 1987SOL    MW4 7980   0.883   3.246   3.477
 1988SOL     OW 7981   0.881   3.521   3.407
 1988SOL    HW2 7982   0.904   3.431   3.426
 1988SOL    HW3 7983   0.881   3.526   3.311
 1988SOL    MW4 7984   0.884   3.510   3.397
 1989SOL     OW 7985   1.106   3.649   3.469
 1989SOL    HW2 7986   1.118   3.654   3.564
 1989SOL    HW3 7987   1.020   3.608   3.457
 1989SOL    MW4 7988   1.096   3.644   3.480
 1990SOL     OW 7989   1.099   3.905   3.401
 1990SOL    HW2 7990   1.183   3.943   3.428
 1990SOL    HW3 7991   1.110   3.811   3.414
 1990SOL    MW4 7992   1.111   3.897   3.406
 1991SOL     OW 7993   0.882   4.001   3.529
 1991SOL    HW2 7994   0.955   3.963   3.479
 1991SOL    HW3 7995   0.804   3.962   3.490
 1991SOL    MW4 7996   0.881   3.991   3.517
 1992SOL     OW 7997   0.904   4.252   3.407
 1992SOL    HW2 7998   0.902   4.164   3.446
 1992SOL    HW3 7999   0.927   4.236   3.315
 1992SOL    MW4 8000   0.907   4.238   3.400
 1993SOL     OW 8001   1.127   4.384   3.510
 1993SOL    HW2 8002   1.051   4.333   3.482
 1993SOL    HW3 8003   1.113   4.471   3.471
 1993SOL    MW4 8004   1.115   4.389   3.501
 1994SOL     OW 8005   1.546   4.625   3.382
 1994SOL    HW2 8006   1.531   4.538   3.420
 1994SOL    HW3 8007   1.471   4.678   3.411
 1994SOL    MW4 8008   1.534   4.620   3.391
 1995SOL     OW 8009   1.341   0.118   3.467
 1995SOL    HW2 8010   1.360   0.099   3.559
 1995SOL    HW3 8011   1.368   0.209   3.455
 1995SOL    MW4 8012   1.347   0.127   3.477
 1996SOL     OW 8013   1.395   0.386   3.386
 1996SOL    HW2 8014   1.465   0.439   3.423
 1996SOL    HW3 8015   1.314   0.433   3.407
 1996SOL    MW4 8016   1.394   0.399   3.394
 1997SOL     OW 8017   1.611   0.509   3.492
 1997SOL    HW2 8018   1.590   0.517   3.585
 1997SOL    HW3 8019   1.677   0.440   3.488
 1997SOL    MW4 8020   1.617   0.501   3.504
 1998SOL     OW 8021   1.605   0.763   3.351
 1998SOL    HW2 8022   1.519   0.784   3.388
 1998SOL    HW3 8023   1.626   0.677   3.386
 1998SOL    MW4 8024   1.596   0.754   3.360
 1999SOL     OW 8025   1.372   0.907   3.449
 1999SOL    HW2 8026   1.382   0.901   3.544
 1999SOL    HW3 8027   1.362   1.001   3.431
 1999SOL    MW4 8028   1.372   0.919   3.459
 2000SOL     OW 8029   1.345   1.154   3.330
 2000SOL    HW2 8030   1.420   1.200   3.369
 2000SOL    HW3 8031   1.269   1.204   3.360
 2000SOL    MW4 8032   1.345   1.167   3.339
 2001SOL     OW 8033   1.565   1.268   3.446
 2001SOL    HW2 8034   1.572   1.278   3.541
 2001SOL    HW3 8035   1.648   1.228   3.420
 2001SOL    MW4 8036   1.577   1.264   3.455
 2002SOL     OW 8037   1.605   1.538   3.397
 2002SOL    HW2 8038   1.588   1.447   3.424
 2002SOL    HW3 8039   1.600   1.535   3.302
 2002SOL    MW4 8040   1.602   1.525   3.388
 2003SOL     OW 8041   1.365   1.667   3.483
 2003SOL    HW2 8042   1.372   1.671   3.579
 2003SOL    HW3 8043   1.446   1.623   3.455
 2003SOL    MW4 8044   1.377   1.661   3.492
 2004SOL     OW 8045   1.338   1.908   3.370
 2004SOL    HW2 8046   1.412   1.959   3.401
 2004SOL    HW3 8047   1.351   1.821   3.409
 2004SOL    MW4 8048   1.350   1.903   3.379
 2005SOL     OW 8049   1.594   2.067   3.468
 2005SOL    HW2 8050   1.660   2.013   3.425
 2005SOL    HW3 8051   1.609   2.155   3.436
 2005SOL    MW4 8052   1.604   2.071   3.458
 2006SOL     OW 8053   1.606   2.339   3.395
 2006SOL    HW2 8054   1.522   2.357   3.436
 2006SOL    HW3 8055   1.588   2.343   3.301
 2006SOL    MW4 8056   1.593   2.342   3.388
 2007SOL     OW 8057   1.367   2.425   3.484
 2007SOL    HW2 8058   1.363   2.436   3.579
 2007SOL    HW3 8059   1.378   2.514   3.450
 2007SOL    MW4 8060   1.368   2.438   3.492
 2008SOL     OW 8061   1.389   2.706   3.429
 2008SOL    HW2 8062   1.444   2.776   3.464
 2008SOL    HW3 8063   1.386   2.723   3.334
 2008SOL    MW4 8064   1.396   2.717   3.421
 2009SOL     OW 8065   1.580   2.872   3.511
 2009SOL    HW2 8066   1.644   2.824   3.459
 2009SOL    HW3 8067   1.565   2.953   3.462
 2009SOL    MW4 8068   1.586   2.876   3.498
 2010SOL     OW 8069   1.532   3.119   3.401
 2010SOL    HW2 8070   1.609   3.164   3.436
 2010SOL    HW3 8071   1.458   3.173   3.430
 2010SOL    MW4 8072   1.532   3.132   3.410
 2011SOL     OW 8073   1.316   3.251   3.516
 2011SOL    HW2 8074   1.327   3.234   3.609
 2011SOL    HW3 8075   1.246   3.192   3.489
 2011SOL    MW4 8076   1.308   3.241   3.524
 2012SOL     OW 8077   1.329   3.502   3.398
 2012SOL    HW2 8078   1.318   3.420   3.446
 2012SOL    HW3 8079   1.249   3.552   3.416
 2012SOL    MW4 8080   1.317   3.498   3.406
 2013SOL     OW 8081   1.586   3.617   3.467
 2013SOL    HW2 8082   1.571   3.631   3.560
 2013SOL    HW3 8083   1.512   3.562   3.439
 2013SOL    MW4 8084   1.574   3.611   3.475
 2014SOL     OW 8085   1.592   3.892   3.389
 2014SOL    HW2 8086   1.590   3.801   3.418
 2014SOL    HW3 8087   1.603   3.888   3.295
 2014SOL    MW4 8088   1.593   3.879   3.381
 2015SOL     OW 8089   1.334   4.022   3.499
 2015SOL    HW2 8090   1.334   4.115   3.477
 2015SOL    HW3 8091   1.414   3.988   3.460
 2015SOL    MW4 8092   1.344   4.029   3.491
 2016SOL     OW 8093   1.350   4.268   3.402
 2016SOL    HW2 8094   1.276   4.323   3.427
 2016SOL    HW3 8095   1.358   4.279   3.308
 2016SOL    MW4 8096   1.341   4.277   3.393
 2017SOL     OW 8097   1.555   4.377   3.550
 2017SOL    HW2 8098   1.631   4.342   3.503
 2017SOL    HW3 8099   1.481   4.326   3.517
 2017SOL    MW4 8100   1.555   4.365   3.539
 2018SOL     OW 8101   2.015   4.647   3.343
 2018SOL    HW2 8102   2.097   4.679   3.380
 2018SOL    HW3 8103   1.948   4.683   3.401
 2018SOL    MW4 8104   2.017   4.656   3.356
 2019SOL     OW 8105   1.784   0.040   3.483
 2019SOL    HW2 8106   1.760   0.033   3.575
 2019SOL    HW3 8107   1.704   0.018   3.435
 2019SOL    MW4 8108   1.770   0.036   3.489
 2020SOL     OW 8109   1.821   0.312   3.425
 2020SOL    HW2 8110   1.797   0.221   3.443
 2020SOL    HW3 8111   1.823   0.317   3.329
 2020SOL    MW4 8112   1.818   0.301   3.414
 2021SOL     OW 8113   2.018   0.482   3.520
 2021SOL    HW2 8114   2.010   0.570   3.482
 2021SOL    HW3 8115   1.941   0.435   3.489
 2021SOL    MW4 8116   2.007   0.488   3.511
 2022SOL     OW 8117   2.003   0.731   3.414
 2022SOL    HW2 8118   2.080   0.780   3.444
 2022SOL    HW3 8119   2.013   0.728   3.319
 2022SOL    MW4 8120   2.015   0.737   3.405
 2023SOL     OW 8121   1.802   0.908   3.484
 2023SOL    HW2 8122   1.880   0.861   3.453
 2023SOL    HW3 8123   1.729   0.865   3.438
 2023SOL    MW4 8124   1.802   0.896   3.474
 2024SOL     OW 8125   1.814   1.171   3.366
 2024SOL    HW2 8126   1.874   1.215   3.426
 2024SOL    HW3 8127   1.805   1.082   3.402
 2024SOL    MW4 8128   1.821   1.165   3.379
 2025SOL     OW 8129   1.991   1.297   3.522
 2025SOL    HW2 8130   1.978   1.314   3.615
 2025SOL    HW3 8131   1.979   1.382   3.480
 2025SOL    MW4 8132   1.988   1.311   3.529
 2026SOL     OW 8133   2.011   1.535   3.360
 2026SOL    HW2 8134   2.087   1.585   3.390
 2026SOL    HW3 8135   1.936   1.581   3.396
 2026SOL    MW4 8136   2.011   1.547   3.368
 2027SOL     OW 8137   1.821   1.688   3.458
 2027SOL    HW2 8138   1.793   1.771   3.419
 2027SOL    HW3 8139   1.745   1.631   3.450
 2027SOL    MW4 8140   1.807   1.691   3.452
 2028SOL     OW 8141   1.758   1.911   3.328
 2028SOL    HW2 8142   1.835   1.959   3.357
 2028SOL    HW3 8143   1.770   1.900   3.233
 2028SOL    MW4 8144   1.770   1.916   3.319
 2029SOL     OW 8145   1.970   2.061   3.456
 2029SOL    HW2 8146   2.059   2.030   3.436
 2029SOL    HW3 8147   1.976   2.156   3.445
 2029SOL    MW4 8148   1.983   2.070   3.452
 2030SOL     OW 8149   2.038   2.323   3.414
 2030SOL    HW2 8150   2.116   2.346   3.463
 2030SOL    HW3 8151   2.069   2.313   3.323
 2030SOL    MW4 8152   2.052   2.324   3.408
 2031SOL     OW 8153   1.828   2.501   3.470
 2031SOL    HW2 8154   1.904   2.453   3.439
 2031SOL    HW3 8155   1.753   2.446   3.447
 2031SOL    MW4 8156   1.828   2.487   3.463
 2032SOL     OW 8157   1.791   2.755   3.361
 2032SOL    HW2 8158   1.872   2.802   3.382
 2032SOL    HW3 8159   1.800   2.670   3.403
 2032SOL    MW4 8160   1.803   2.750   3.369
 2033SOL     OW 8161   2.037   2.856   3.489
 2033SOL    HW2 8162   2.020   2.861   3.583
 2033SOL    HW3 8163   2.037   2.947   3.460
 2033SOL    MW4 8164   2.035   2.868   3.498
 2034SOL     OW 8165   2.006   3.117   3.414
 2034SOL    HW2 8166   2.076   3.171   3.451
 2034SOL    HW3 8167   1.926   3.156   3.449
 2034SOL    MW4 8168   2.005   3.130   3.424
 2035SOL     OW 8169   1.783   3.248   3.477
 2035SOL    HW2 8170   1.787   3.257   3.573
 2035SOL    HW3 8171   1.798   3.337   3.445
 2035SOL    MW4 8172   1.786   3.261   3.486
 2036SOL     OW 8173   1.817   3.510   3.400
 2036SOL    HW2 8174   1.738   3.557   3.426
 2036SOL    HW3 8175   1.827   3.529   3.307
 2036SOL    MW4 8176   1.808   3.519   3.391
 2037SOL     OW 8177   2.043   3.639   3.497
 2037SOL    HW2 8178   2.117   3.580   3.482
 2037SOL    HW3 8179   1.966   3.586   3.477
 2037SOL    MW4 8180   2.043   3.624   3.492
 2038SOL     OW 8181   2.093   3.881   3.358
 2038SOL    HW2 8182   2.019   3.932   3.389
 2038SOL    HW3 8183   2.086   3.797   3.404
 2038SOL    MW4 8184   2.082   3.877   3.368
 2039SOL     OW 8185   1.849   3.980   3.448
 2039SOL    HW2 8186   1.864   3.957   3.540
 2039SOL    HW3 8187   1.762   3.945   3.429
 2039SOL    MW4 8188   1.840   3.972   3.457
 2040SOL     OW 8189   1.766   4.287   3.391
 2040SOL    HW2 8190   1.777   4.195   3.413
 2040SOL    HW3 8191   1.781   4.291   3.296
 2040SOL    MW4 8192   1.769   4.276   3.381
 2041SOL     OW 8193   2.021   4.390   3.470
 2041SOL    HW2 8194   1.933   4.354   3.455
 2041SOL    HW3 8195   2.018   4.477   3.430
 2041SOL    MW4 8196   2.009   4.396   3.463
 2042SOL     OW 8197   2.492   4.665   3.385
 2042SOL    HW2 8198   2.505   4.577   3.420
 2042SOL    HW3 8199   2.475   4.653   3.292
 2042SOL    MW4 8200   2.492   4.652   3.378
 2043SOL     OW 8201   2.252   0.063   3.479
 2043SOL    HW2 8202   2.266   0.153   3.449
 2043SOL    HW3 8203   2.336   0.019   3.462
 2043SOL    MW4 8204   2.265   0.069   3.473
 2044SOL     OW 8205   2.233   0.332   3.415
 2044SOL    HW2 8206   2.295   0.403   3.432
 2044SOL    HW3 8207   2.151   0.363   3.455
 2044SOL    MW4 8208   2.230   0.346   3.423
 2045SOL     OW 8209   2.456   0.510   3.462
 2045SOL    HW2 8210   2.541   0.475   3.435
 2045SOL    HW3 8211   2.458   0.602   3.433
 2045SOL    MW4 8212   2.468   0.518   3.454
 2046SOL     OW 8213   2.436   0.789   3.375
 2046SOL    HW2 8214   2.527   0.815   3.390
 2046SOL    HW3 8215   2.422   0.805   3.282
 2046SOL    MW4 8216   2.446   0.794   3.364
 2047SOL     OW 8217   2.204   0.899   3.477
 2047SOL    HW2 8218   2.188   0.986   3.440
 2047SOL    HW3 8219   2.291   0.876   3.445
 2047SOL    MW4 8220   2.213   0.908   3.468
 2048SOL     OW 8221   2.188   1.159   3.360
 2048SOL    HW2 8222   2.263   1.184   3.414
 2048SOL    HW3 8223   2.112   1.190   3.409
 2048SOL    MW4 8224   2.188   1.167   3.374
 2049SOL     OW 8225   2.446   1.258   3.482
 2049SOL    HW2 8226   2.435   1.248   3.577
 2049SOL    HW3 8227   2.521   1.203   3.460
 2049SOL    MW4 8228   2.454   1.249   3.492
 2050SOL     OW 8229   2.462   1.518   3.381
 2050SOL    HW2 8230   2.449   1.429   3.415
 2050SOL    HW3 8231   2.470   1.507   3.287
 2050SOL    MW4 8232   2.461   1.505   3.373
 2051SOL     OW 8233   2.238   1.659   3.469
 2051SOL    HW2 8234   2.255   1.667   3.562
 2051SOL    HW3 8235   2.314   1.612   3.435
 2051SOL    MW4 8236   2.250   1.654   3.476
 2052SOL     OW 8237   2.201   1.931   3.370
 2052SOL    HW2 8238   2.218   1.840   3.396
 2052SOL    HW3 8239   2.213   1.931   3.275
 2052SOL    MW4 8240   2.205   1.919   3.361
 2053SOL     OW 8241   2.428   2.050   3.470
 2053SOL    HW2 8242   2.438   2.046   3.565
 2053SOL    HW3 8243   2.350   1.998   3.451
 2053SOL    MW4 8244   2.419   2.042   3.480
 2054SOL     OW 8245   2.444   2.332   3.432
 2054SOL    HW2 8246   2.534   2.354   3.455
 2054SOL    HW3 8247   2.434   2.241   3.460
 2054SOL    MW4 8248   2.454   2.323   3.439
 2055SOL     OW 8249   2.236   2.445   3.582
 2055SOL    HW2 8250   2.205   2.521   3.533
 2055SOL    HW3 8251   2.320   2.424   3.542
 2055SOL    MW4 8252   2.243   2.452   3.570
 2056SOL     OW 8253   2.202   2.673   3.373
 2056SOL    HW2 8254   2.129   2.728   3.401
 2056SOL    HW3 8255   2.223   2.704   3.284
 2056SOL    MW4 8256   2.195   2.685   3.365
 2057SOL     OW 8257   2.436   2.769   3.508
 2057SOL    HW2 8258   2.441   2.861   3.484
 2057SOL    HW3 8259   2.355   2.738   3.467
 2057SOL    MW4 8260   2.426   2.777   3.500
 2058SOL     OW 8261   2.466   3.034   3.392
 2058SOL    HW2 8262   2.537   3.076   3.440
 2058SOL    HW3 8263   2.475   3.068   3.303
 2058SOL    MW4 8264   2.477   3.044   3.386
 2059SOL     OW 8265   2.268   3.207   3.475
 2059SOL    HW2 8266   2.270   3.201   3.570
 2059SOL    HW3 8267   2.332   3.142   3.445
 2059SOL    MW4 8268   2.277   3.198   3.483
 2060SOL     OW 8269   2.247   3.478   3.388
 2060SOL    HW2 8270   2.252   3.386   3.413
 2060SOL    HW3 8271   2.215   3.477   3.298
 2060SOL    MW4 8272   2.243   3.466   3.379
 2061SOL     OW 8273   2.487   3.580   3.496
 2061SOL    HW2 8274   2.519   3.665   3.467
 2061SOL    HW3 8275   2.402   3.571   3.453
 2061SOL    MW4 8276   2.480   3.590   3.486
 2062SOL     OW 8277   2.551   3.832   3.411
 2062SOL    HW2 8278   2.624   3.891   3.428
 2062SOL    HW3 8279   2.474   3.881   3.440
 2062SOL    MW4 8280   2.550   3.846   3.417
 2063SOL     OW 8281   2.333   3.986   3.467
 2063SOL    HW2 8282   2.348   4.070   3.423
 2063SOL    HW3 8283   2.255   3.950   3.427
 2063SOL    MW4 8284   2.325   3.993   3.456
 2064SOL     OW 8285   2.261   4.260   3.372
 2064SOL    HW2 8286   2.184   4.294   3.417
 2064SOL    HW3 8287   2.230   4.239   3.284
 2064SOL    MW4 8288   2.247   4.262   3.366
 2065SOL     OW 8289   2.474   4.407   3.477
 2065SOL    HW2 8290   2.459   4.388   3.570
 2065SOL    HW3 8291   2.402   4.363   3.431
 2065SOL    MW4 8292   2.462   4.399   3.483
 2066SOL     OW 8293   2.960   0.006   3.363
 2066SOL    HW2 8294   2.877   0.050   3.380
 2066SOL    HW3 8295   2.961  -0.006   3.268
 2066SOL    MW4 8296   2.950   0.010   3.352
 2067SOL     OW 8297   2.712   0.143   3.462
 2067SOL    HW2 8298   2.689   0.229   3.428
 2067SOL    HW3 8299   2.641   0.086   3.433
 2067SOL    MW4 8300   2.700   0.147   3.454
 2068SOL     OW 8301   2.675   0.393   3.353
 2068SOL    HW2 8302   2.757   0.429   3.386
 2068SOL    HW3 8303   2.684   0.394   3.258
 2068SOL    MW4 8304   2.687   0.398   3.345
 2069SOL     OW 8305   2.902   0.501   3.479
 2069SOL    HW2 8306   2.886   0.506   3.573
 2069SOL    HW3 8307   2.934   0.588   3.455
 2069SOL    MW4 8308   2.904   0.513   3.488
 2070SOL     OW 8309   2.949   0.758   3.374
 2070SOL    HW2 8310   3.015   0.799   3.431
 2070SOL    HW3 8311   2.865   0.778   3.416
 2070SOL    MW4 8312   2.947   0.766   3.387
 2071SOL     OW 8313   2.698   0.838   3.469
 2071SOL    HW2 8314   2.708   0.853   3.563
 2071SOL    HW3 8315   2.695   0.926   3.431
 2071SOL    MW4 8316   2.699   0.851   3.476
 2072SOL     OW 8317   2.662   1.111   3.392
 2072SOL    HW2 8318   2.743   1.154   3.421
 2072SOL    HW3 8319   2.665   1.114   3.297
 2072SOL    MW4 8320   2.673   1.117   3.384
 2073SOL     OW 8321   2.865   1.259   3.504
 2073SOL    HW2 8322   2.870   1.242   3.598
 2073SOL    HW3 8323   2.946   1.223   3.469
 2073SOL    MW4 8324   2.876   1.252   3.512
 2074SOL     OW 8325   2.888   1.527   3.405
 2074SOL    HW2 8326   2.821   1.573   3.455
 2074SOL    HW3 8327   2.890   1.439   3.441
 2074SOL    MW4 8328   2.879   1.522   3.416
 2075SOL     OW 8329   2.643   1.660   3.522
 2075SOL    HW2 8330   2.651   1.743   3.475
 2075SOL    HW3 8331   2.571   1.614   3.479
 2075SOL    MW4 8332   2.635   1.665   3.510
 2076SOL     OW 8333   2.690   1.912   3.402
 2076SOL    HW2 8334   2.614   1.967   3.422
 2076SOL    HW3 8335   2.691   1.907   3.306
 2076SOL    MW4 8336   2.680   1.919   3.392
 2077SOL     OW 8337   2.899   2.080   3.488
 2077SOL    HW2 8338   2.900   2.073   3.584
 2077SOL    HW3 8339   2.827   2.022   3.461
 2077SOL    MW4 8340   2.889   2.071   3.497
 2078SOL     OW 8341   2.931   2.365   3.425
 2078SOL    HW2 8342   2.926   2.277   3.461
 2078SOL    HW3 8343   2.919   2.354   3.331
 2078SOL    MW4 8344   2.929   2.352   3.418
 2079SOL     OW 8345   2.679   2.426   3.512
 2079SOL    HW2 8346   2.677   2.428   3.608
 2079SOL    HW3 8347   2.770   2.403   3.490
 2079SOL    MW4 8348   2.691   2.423   3.522
 2080SOL     OW 8349   2.668   2.683   3.403
 2080SOL    HW2 8350   2.673   2.594   3.439
 2080SOL    HW3 8351   2.583   2.716   3.430
 2080SOL    MW4 8352   2.658   2.675   3.411
 2081SOL     OW 8353   2.914   2.833   3.506
 2081SOL    HW2 8354   2.933   2.842   3.599
 2081SOL    HW3 8355   2.828   2.791   3.503
 2081SOL    MW4 8356   2.905   2.828   3.518
 2082SOL     OW 8357   2.937   3.101   3.424
 2082SOL    HW2 8358   2.928   3.012   3.457
 2082SOL    HW3 8359   2.927   3.093   3.329
 2082SOL    MW4 8360   2.934   3.088   3.416
 2083SOL     OW 8361   2.689   3.176   3.488
 2083SOL    HW2 8362   2.682   3.189   3.583
 2083SOL    HW3 8363   2.778   3.146   3.474
 2083SOL    MW4 8364   2.700   3.174   3.498
 2084SOL     OW 8365   2.671   3.441   3.376
 2084SOL    HW2 8366   2.674   3.348   3.398
 2084SOL    HW3 8367   2.596   3.475   3.424
 2084SOL    MW4 8368   2.661   3.433   3.385
 2085SOL     OW 8369   2.867   3.579   3.498
 2085SOL    HW2 8370   2.881   3.656   3.444
 2085SOL    HW3 8371   2.811   3.523   3.445
 2085SOL    MW4 8372   2.861   3.582   3.484
 2086SOL     OW 8373   2.933   3.831   3.366
 2086SOL    HW2 8374   3.012   3.857   3.413
 2086SOL    HW3 8375   2.872   3.903   3.379
 2086SOL    MW4 8376   2.935   3.844   3.374
 2087SOL     OW 8377   2.767   4.019   3.473
 2087SOL    HW2 8378   2.772   4.020   3.569
 2087SOL    HW3 8379   2.736   4.107   3.450
 2087SOL    MW4 8380   2.763   4.031   3.483
 2088SOL     OW 8381   2.714   4.284   3.371
 2088SOL    HW2 8382   2.797   4.318   3.406
 2088SOL    HW3 8383   2.648   4.344   3.404
 2088SOL    MW4 8384   2.716   4.296   3.380
 2089SOL     OW 8385   2.939   4.413   3.471
 2089SOL    HW2 8386   2.935   4.413   3.567
 2089SOL    HW3 8387   2.962   4.503   3.448
 2089SOL    MW4 8388   2.942   4.425   3.480
 2090SOL     OW 8389   3.385   0.013   3.425
 2090SOL    HW2 8390   3.307   0.047   3.468
 2090SOL    HW3 8391   3.354  -0.020   3.341
 2090SOL    MW4 8392   3.371   0.013   3.420
 2091SOL     OW 8393   3.142   0.124   3.535
 2091SOL    HW2 8394   3.155   0.217   3.518
 2091SOL    HW3 8395   3.088   0.093   3.463
 2091SOL    MW4 8396   3.137   0.132   3.524
 2092SOL     OW 8397   3.150   0.379   3.435
 2092SOL    HW2 8398   3.058   0.401   3.451
 2092SOL    HW3 8399   3.156   0.371   3.340
 2092SOL    MW4 8400   3.138   0.381   3.424
 2093SOL     OW 8401   3.390   0.537   3.503
 2093SOL    HW2 8402   3.409   0.539   3.597
 2093SOL    HW3 8403   3.304   0.496   3.497
 2093SOL    MW4 8404   3.381   0.532   3.515
 2094SOL     OW 8405   3.363   0.775   3.375
 2094SOL    HW2 8406   3.443   0.819   3.404
 2094SOL    HW3 8407   3.365   0.690   3.420
 2094SOL    MW4 8408   3.374   0.769   3.385
 2095SOL     OW 8409   3.140   0.896   3.521
 2095SOL    HW2 8410   3.128   0.980   3.477
 2095SOL    HW3 8411   3.208   0.851   3.469
 2095SOL    MW4 8412   3.148   0.901   3.508
 2096SOL     OW 8413   3.104   1.141   3.409
 2096SOL    HW2 8414   3.183   1.192   3.428
 2096SOL    HW3 8415   3.103   1.132   3.314
 2096SOL    MW4 8416   3.114   1.146   3.399
 2097SOL     OW 8417   3.320   1.278   3.479
 2097SOL    HW2 8418   3.395   1.235   3.438
 2097SOL    HW3 8419   3.334   1.371   3.463
 2097SOL    MW4 8420   3.332   1.285   3.471
 2098SOL     OW 8421   3.370   1.562   3.442
 2098SOL    HW2 8422   3.439   1.609   3.488
 2098SOL    HW3 8423   3.291   1.614   3.455
 2098SOL    MW4 8424   3.369   1.575   3.450
 2099SOL     OW 8425   3.128   1.692   3.488
 2099SOL    HW2 8426   3.131   1.781   3.452
 2099SOL    HW3 8427   3.051   1.652   3.448
 2099SOL    MW4 8428   3.118   1.699   3.478
 2100SOL     OW 8429   3.134   1.961   3.397
 2100SOL    HW2 8430   3.052   2.004   3.423
 2100SOL    HW3 8431   3.132   1.961   3.301
 2100SOL    MW4 8432   3.123   1.967   3.388
 2101SOL     OW 8433   3.380   2.083   3.491
 2101SOL    HW2 8434   3.358   2.172   3.464
 2101SOL    HW3 8435   3.302   2.032   3.472
 2101SOL    MW4 8436   3.367   2.088   3.485
 2102SOL     OW 8437   3.383   2.342   3.385
 2102SOL    HW2 8438   3.462   2.370   3.432
 2102SOL    HW3 8439   3.311   2.388   3.430
 2102SOL    MW4 8440   3.384   2.352   3.397
 2103SOL     OW 8441   3.178   2.454   3.508
 2103SOL    HW2 8442   3.192   2.545   3.483
 2103SOL    HW3 8443   3.095   2.430   3.465
 2103SOL    MW4 8444   3.169   2.462   3.499
 2104SOL     OW 8445   3.163   2.711   3.405
 2104SOL    HW2 8446   3.225   2.770   3.448
 2104SOL    HW3 8447   3.077   2.747   3.427
 2104SOL    MW4 8448   3.160   2.724   3.414
 2105SOL     OW 8449   3.378   2.856   3.533
 2105SOL    HW2 8450   3.443   2.807   3.482
 2105SOL    HW3 8451   3.371   2.940   3.489
 2105SOL    MW4 8452   3.385   2.860   3.521
 2106SOL     OW 8453   3.372   3.092   3.388
 2106SOL    HW2 8454   3.453   3.134   3.416
 2106SOL    HW3 8455   3.303   3.142   3.430
 2106SOL    MW4 8456   3.374   3.104   3.397
 2107SOL     OW 8457   3.160   3.229   3.514
 2107SOL    HW2 8458   3.167   3.321   3.490
 2107SOL    HW3 8459   3.076   3.200   3.480
 2107SOL    MW4 8460   3.150   3.237   3.507
 2108SOL     OW 8461   3.134   3.484   3.410
 2108SOL    HW2 8462   3.046   3.520   3.423
 2108SOL    HW3 8463   3.138   3.462   3.317
 2108SOL    MW4 8464   3.123   3.486   3.399
 2109SOL     OW 8465   3.340   3.624   3.507
 2109SOL    HW2 8466   3.343   3.711   3.469
 2109SOL    HW3 8467   3.263   3.583   3.467
 2109SOL    MW4 8468   3.330   3.630   3.496
 2110SOL     OW 8469   3.367   3.875   3.393
 2110SOL    HW2 8470   3.444   3.905   3.441
 2110SOL    HW3 8471   3.293   3.913   3.441
 2110SOL    MW4 8472   3.367   3.884   3.406
 2111SOL     OW 8473   3.129   3.966   3.527
 2111SOL    HW2 8474   3.141   3.985   3.620
 2111SOL    HW3 8475   3.135   4.052   3.485
 2111SOL    MW4 8476   3.132   3.980   3.534
 2112SOL     OW 8477   3.140   4.231   3.408
 2112SOL    HW2 8478   3.207   4.283   3.453
 2112SOL    HW3 8479   3.058   4.278   3.427
 2112SOL    MW4 8480   3.138   4.244   3.417
 2113SOL     OW 8481   3.357   4.387   3.471
 2113SOL    HW2 8482   3.363   4.385   3.567
 2113SOL    HW3 8483   3.364   4.480   3.449
 2113SOL    MW4 8484   3.359   4.399   3.481
 2114SOL     OW 8485   3.797   4.605   3.419
 2114SOL    HW2 8486   3.731   4.669   3.448
 2114SOL    HW3 8487   3.793   4.608   3.324
 2114SOL    MW4 8488   3.788   4.614   3.410
 2115SOL     OW 8489   3.616   0.125   3.497
 2115SOL    HW2 8490   3.611   0.213   3.460
 2115SOL    HW3 8491   3.533   0.083   3.473
 2115SOL    MW4 8492   3.604   0.131   3.489
 2116SOL     OW 8493   3.622   0.388   3.415
 2116SOL    HW2 8494   3.691   0.450   3.439
 2116SOL    HW3 8495   3.541   0.434   3.435
 2116SOL    MW4 8496   3.621   0.402   3.421
 2117SOL     OW 8497   3.820   0.550   3.516
 2117SOL    HW2 8498   3.826   0.563   3.610
 2117SOL    HW3 8499   3.906   0.514   3.491
 2117SOL    MW4 8500   3.832   0.547   3.525
 2118SOL     OW 8501   3.824   0.792   3.374
 2118SOL    HW2 8502   3.883   0.839   3.433
 2118SOL    HW3 8503   3.824   0.702   3.407
 2118SOL    MW4 8504   3.832   0.787   3.386
 2119SOL     OW 8505   3.580   0.897   3.468
 2119SOL    HW2 8506   3.580   0.891   3.564
 2119SOL    HW3 8507   3.655   0.844   3.441
 2119SOL    MW4 8508   3.590   0.889   3.477
 2120SOL     OW 8509   3.564   1.161   3.398
 2120SOL    HW2 8510   3.569   1.067   3.411
 2120SOL    HW3 8511   3.588   1.174   3.306
 2120SOL    MW4 8512   3.568   1.150   3.388
 2121SOL     OW 8513   3.770   1.303   3.509
 2121SOL    HW2 8514   3.761   1.298   3.604
 2121SOL    HW3 8515   3.692   1.259   3.475
 2121SOL    MW4 8516   3.759   1.296   3.517
 2122SOL     OW 8517   3.782   1.559   3.429
 2122SOL    HW2 8518   3.867   1.589   3.459
 2122SOL    HW3 8519   3.776   1.468   3.458
 2122SOL    MW4 8520   3.792   1.551   3.437
 2123SOL     OW 8521   3.583   1.746   3.528
 2123SOL    HW2 8522   3.578   1.827   3.477
 2123SOL    HW3 8523   3.660   1.701   3.494
 2123SOL    MW4 8524   3.592   1.751   3.517
 2124SOL     OW 8525   3.608   1.997   3.378
 2124SOL    HW2 8526   3.681   2.015   3.438
 2124SOL    HW3 8527   3.532   2.039   3.418
 2124SOL    MW4 8528   3.608   2.005   3.391
 2125SOL     OW 8529   3.827   2.082   3.535
 2125SOL    HW2 8530   3.859   2.089   3.625
 2125SOL    HW3 8531   3.896   2.033   3.490
 2125SOL    MW4 8532   3.840   2.076   3.541
 2126SOL     OW 8533   3.821   2.345   3.426
 2126SOL    HW2 8534   3.902   2.380   3.461
 2126SOL    HW3 8535   3.813   2.258   3.466
 2126SOL    MW4 8536   3.831   2.338   3.436
 2127SOL     OW 8537   3.598   2.468   3.518
 2127SOL    HW2 8538   3.598   2.551   3.472
 2127SOL    HW3 8539   3.670   2.418   3.477
 2127SOL    MW4 8540   3.608   2.472   3.507
 2128SOL     OW 8541   3.562   2.721   3.395
 2128SOL    HW2 8542   3.641   2.769   3.421
 2128SOL    HW3 8543   3.574   2.705   3.302
 2128SOL    MW4 8544   3.574   2.725   3.386
 2129SOL     OW 8545   3.817   2.857   3.493
 2129SOL    HW2 8546   3.823   2.853   3.588
 2129SOL    HW3 8547   3.816   2.951   3.473
 2129SOL    MW4 8548   3.817   2.869   3.503
 2130SOL     OW 8549   3.846   3.127   3.417
 2130SOL    HW2 8550   3.923   3.160   3.463
 2130SOL    HW3 8551   3.855   3.161   3.328
 2130SOL    MW4 8552   3.857   3.136   3.411
 2131SOL     OW 8553   3.602   3.249   3.510
 2131SOL    HW2 8554   3.592   3.333   3.465
 2131SOL    HW3 8555   3.692   3.221   3.489
 2131SOL    MW4 8556   3.613   3.256   3.501
 2132SOL     OW 8557   3.584   3.512   3.429
 2132SOL    HW2 8558   3.511   3.567   3.458
 2132SOL    HW3 8559   3.580   3.516   3.334
 2132SOL    MW4 8560   3.574   3.520   3.420
 2133SOL     OW 8561   3.828   3.638   3.499
 2133SOL    HW2 8562   3.845   3.626   3.592
 2133SOL    HW3 8563   3.751   3.583   3.481
 2133SOL    MW4 8564   3.820   3.629   3.509
 2134SOL     OW 8565   3.822   3.899   3.392
 2134SOL    HW2 8566   3.742   3.935   3.431
 2134SOL    HW3 8567   3.826   3.809   3.426
 2134SOL    MW4 8568   3.812   3.892   3.402
 2135SOL     OW 8569   3.581   3.975   3.509
 2135SOL    HW2 8570   3.583   3.964   3.604
 2135SOL    HW3 8571   3.572   4.070   3.497
 2135SOL    MW4 8572   3.580   3.986   3.520
 2136SOL     OW 8573   3.572   4.230   3.396
 2136SOL    HW2 8574   3.490   4.271   3.423
 2136SOL    HW3 8575   3.573   4.236   3.301
 2136SOL    MW4 8576   3.562   4.236   3.387
 2137SOL     OW 8577   3.811   4.352   3.494
 2137SOL    HW2 8578   3.739   4.300   3.458
 2137SOL    HW3 8579   3.800   4.439   3.454
 2137SOL    MW4 8580   3.800   4.357   3.484
 2138SOL     OW 8581   4.238   4.665   3.410
 2138SOL    HW2 8582   4.238   4.578   3.450
 2138SOL    HW3 8583   4.323   4.703   3.433
 2138SOL    MW4 8584   4.249   4.659   3.418
 2139SOL     OW 8585   4.005   0.130   3.500
 2139SOL    HW2 8586   4.088   0.086   3.481
 2139SOL    HW3 8587   3.938   0.066   3.476
 2139SOL    MW4 8588   4.007   0.116   3.494
 2140SOL     OW 8589   4.062   0.407   3.440
 2140SOL    HW2 8590   4.055   0.313   3.459
 2140SOL    HW3 8591   4.047   0.413   3.346
 2140SOL    MW4 8592   4.059   0.395   3.430
 2141SOL     OW 8593   4.310   0.494   3.491
 2141SOL    HW2 8594   4.301   0.585   3.460
 2141SOL    HW3 8595   4.220   0.460   3.489
 2141SOL    MW4 8596   4.297   0.502   3.486
 2142SOL     OW 8597   4.229   0.762   3.418
 2142SOL    HW2 8598   4.298   0.808   3.467
 2142SOL    HW3 8599   4.256   0.768   3.327
 2142SOL    MW4 8600   4.242   0.769   3.413
 2143SOL     OW 8601   4.008   0.859   3.568
 2143SOL    HW2 8602   3.996   0.944   3.527
 2143SOL    HW3 8603   4.080   0.819   3.520
 2143SOL    MW4 8604   4.016   0.865   3.556
 2144SOL     OW 8605   3.971   1.111   3.438
 2144SOL    HW2 8606   4.049   1.158   3.466
 2144SOL    HW3 8607   3.899   1.173   3.453
 2144SOL    MW4 8608   3.972   1.125   3.444
 2145SOL     OW 8609   4.220   1.214   3.488
 2145SOL    HW2 8610   4.231   1.299   3.445
 2145SOL    HW3 8611   4.298   1.165   3.464
 2145SOL    MW4 8612   4.232   1.219   3.479
 2146SOL     OW 8613   4.240   1.488   3.404
 2146SOL    HW2 8614   4.163   1.526   3.446
 2146SOL    HW3 8615   4.229   1.507   3.311
 2146SOL    MW4 8616   4.229   1.496   3.397
 2147SOL     OW 8617   4.036   1.641   3.506
 2147SOL    HW2 8618   4.026   1.652   3.601
 2147SOL    HW3 8619   4.043   1.730   3.472
 2147SOL    MW4 8620   4.036   1.654   3.514
 2148SOL     OW 8621   4.021   1.907   3.437
 2148SOL    HW2 8622   4.105   1.952   3.448
 2148SOL    HW3 8623   4.007   1.904   3.342
 2148SOL    MW4 8624   4.030   1.912   3.426
 2149SOL     OW 8625   4.236   2.068   3.501
 2149SOL    HW2 8626   4.252   2.152   3.460
 2149SOL    HW3 8627   4.311   2.014   3.476
 2149SOL    MW4 8628   4.248   2.072   3.493
 2150SOL     OW 8629   4.299   2.310   3.391
 2150SOL    HW2 8630   4.218   2.356   3.412
 2150SOL    HW3 8631   4.298   2.301   3.295
 2150SOL    MW4 8632   4.288   2.315   3.381
 2151SOL     OW 8633   4.085   2.452   3.496
 2151SOL    HW2 8634   4.071   2.465   3.590
 2151SOL    HW3 8635   4.060   2.536   3.456
 2151SOL    MW4 8636   4.080   2.465   3.503
 2152SOL     OW 8637   4.032   2.710   3.390
 2152SOL    HW2 8638   4.110   2.752   3.425
 2152SOL    HW3 8639   3.959   2.758   3.428
 2152SOL    MW4 8640   4.033   2.722   3.399
 2153SOL     OW 8641   4.242   2.859   3.494
 2153SOL    HW2 8642   4.229   2.847   3.588
 2153SOL    HW3 8643   4.329   2.823   3.477
 2153SOL    MW4 8644   4.252   2.853   3.504
 2154SOL     OW 8645   4.291   3.143   3.448
 2154SOL    HW2 8646   4.274   3.052   3.473
 2154SOL    HW3 8647   4.294   3.141   3.352
 2154SOL    MW4 8648   4.289   3.131   3.439
 2155SOL     OW 8649   4.060   3.239   3.538
 2155SOL    HW2 8650   4.062   3.333   3.521
 2155SOL    HW3 8651   4.146   3.207   3.509
 2155SOL    MW4 8652   4.072   3.247   3.532
 2156SOL     OW 8653   4.054   3.490   3.432
 2156SOL    HW2 8654   4.130   3.534   3.471
 2156SOL    HW3 8655   3.979   3.542   3.460
 2156SOL    MW4 8656   4.054   3.502   3.441
 2157SOL     OW 8657   4.287   3.615   3.489
 2157SOL    HW2 8658   4.285   3.604   3.584
 2157SOL    HW3 8659   4.271   3.708   3.475
 2157SOL    MW4 8660   4.285   3.625   3.500
 2158SOL     OW 8661   4.259   3.878   3.401
 2158SOL    HW2 8662   4.341   3.923   3.422
 2158SOL    HW3 8663   4.258   3.873   3.305
 2158SOL    MW4 8664   4.270   3.884   3.391
 2159SOL     OW 8665   4.030   3.981   3.538
 2159SOL    HW2 8666   4.111   3.956   3.494
 2159SOL    HW3 8667   3.961   3.958   3.476
 2159SOL    MW4 8668   4.032   3.974   3.524
 2160SOL     OW 8669   4.055   4.237   3.423
 2160SOL    HW2 8670   4.053   4.153   3.468
 2160SOL    HW3 8671   3.975   4.282   3.452
 2160SOL    MW4 8672   4.044   4.232   3.433
 2161SOL     OW 8673   4.231   4.426   3.551
 2161SOL    HW2 8674   4.231   4.436   3.647
 2161SOL    HW3 8675   4.163   4.360   3.534
 2161SOL    MW4 8676   4.222   4.419   3.562
 2162SOL     OW 8677   0.258   0.029   3.881
 2162SOL    HW2 8678   0.248   0.044   3.975
 2162SOL    HW3 8679   0.177   0.060   3.842
 2162SOL    MW4 8680   0.246   0.035   3.888
 2163SOL     OW 8681   0.034   0.136   3.757
 2163SOL    HW2 8682   0.031   0.230   3.774
 2163SOL    HW3 8683   0.025   0.128   3.662
 2163SOL    MW4 8684   0.033   0.147   3.746
 2164SOL     OW 8685   0.037   0.391   3.868
 2164SOL    HW2 8686  -0.044   0.437   3.844
 2164SOL    HW3 8687   0.104   0.429   3.811
 2164SOL    MW4 8688   0.035   0.402   3.857
 2165SOL     OW 8689   0.262   0.502   3.722
 2165SOL    HW2 8690   0.263   0.595   3.746
 2165SOL    HW3 8691   0.272   0.502   3.627
 2165SOL    MW4 8692   0.263   0.515   3.713
 2166SOL     OW 8693   0.249   0.761   3.851
 2166SOL    HW2 8694   0.245   0.728   3.941
 2166SOL    HW3 8695   0.162   0.799   3.836
 2166SOL    MW4 8696   0.237   0.762   3.861
 2167SOL     OW 8697   0.011   0.881   3.800
 2167SOL    HW2 8698  -0.064   0.833   3.837
 2167SOL    HW3 8699   0.002   0.970   3.835
 2167SOL    MW4 8700   0.000   0.886   3.810
 2168SOL     OW 8701   4.488   1.138   3.923
 2168SOL    HW2 8702   4.411   1.178   3.881
 2168SOL    HW3 8703   4.563   1.174   3.875
 2168SOL    MW4 8704   4.488   1.148   3.911
 2169SOL     OW 8705   0.205   1.259   3.734
 2169SOL    HW2 8706   0.188   1.351   3.756
 2169SOL    HW3 8707   0.201   1.256   3.639
 2169SOL    MW4 8708   0.202   1.271   3.724
 2170SOL     OW 8709   0.226   1.530   3.818
 2170SOL    HW2 8710   0.238   1.529   3.913
 2170SOL    HW3 8711   0.142   1.574   3.805
 2170SOL    MW4 8712   0.217   1.536   3.828
 2171SOL     OW 8713   4.479   1.651   3.747
 2171SOL    HW2 8714   4.477   1.740   3.781
 2171SOL    HW3 8715   4.461   1.661   3.653
 2171SOL    MW4 8716   4.477   1.664   3.739
 2172SOL     OW 8717   4.452   1.913   3.838
 2172SOL    HW2 8718   4.446   1.914   3.934
 2172SOL    HW3 8719   4.385   1.975   3.809
 2172SOL    MW4 8720   4.442   1.921   3.847
 2173SOL     OW 8721   0.198   2.064   3.781
 2173SOL    HW2 8722   0.193   2.156   3.808
 2173SOL    HW3 8723   0.126   2.021   3.828
 2173SOL    MW4 8724   0.187   2.071   3.791
 2174SOL     OW 8725   0.233   2.351   3.857
 2174SOL    HW2 8726   0.227   2.343   3.953
 2174SOL    HW3 8727   0.145   2.380   3.831
 2174SOL    MW4 8728   0.220   2.353   3.866
 2175SOL     OW 8729   4.479   2.426   3.765
 2175SOL    HW2 8730   4.404   2.384   3.808
 2175SOL    HW3 8731   4.476   2.516   3.795
 2175SOL    MW4 8732   4.468   2.432   3.774
 2176SOL     OW 8733   0.009   2.675   3.875
 2176SOL    HW2 8734   0.008   2.665   3.970
 2176SOL    HW3 8735   0.084   2.734   3.858
 2176SOL    MW4 8736   0.019   2.682   3.885
 2177SOL     OW 8737   0.220   2.831   3.816
 2177SOL    HW2 8738   0.306   2.794   3.837
 2177SOL    HW3 8739   0.220   2.839   3.721
 2177SOL    MW4 8740   0.232   2.827   3.807
 2178SOL     OW 8741   0.281   3.088   3.872
 2178SOL    HW2 8742   0.257   3.101   3.964
 2178SOL    HW3 8743   0.261   2.996   3.854
 2178SOL    MW4 8744   0.276   3.078   3.882
 2179SOL     OW 8745   0.027   3.196   3.818
 2179SOL    HW2 8746   0.111   3.152   3.830
 2179SOL    HW3 8747   0.022   3.216   3.725
 2179SOL    MW4 8748   0.037   3.192   3.808
 2180SOL     OW 8749   4.489   3.493   3.881
 2180SOL    HW2 8750   4.563   3.549   3.855
 2180SOL    HW3 8751   4.511   3.407   3.845
 2180SOL    MW4 8752   4.502   3.489   3.873
 2181SOL     OW 8753   0.204   3.689   3.809
 2181SOL    HW2 8754   0.283   3.639   3.828
 2181SOL    HW3 8755   0.209   3.765   3.867
 2181SOL    MW4 8756   0.215   3.692   3.819
 2182SOL     OW 8757   0.257   3.891   3.961
 2182SOL    HW2 8758   0.263   3.928   4.049
 2182SOL    HW3 8759   0.337   3.921   3.917
 2182SOL    MW4 8760   0.269   3.900   3.967
 2183SOL     OW 8761   0.050   4.027   3.789
 2183SOL    HW2 8762  -0.015   3.960   3.812
 2183SOL    HW3 8763   0.128   4.002   3.840
 2183SOL    MW4 8764   0.052   4.015   3.799
 2184SOL     OW 8765   0.002   4.283   3.896
 2184SOL    HW2 8766   0.069   4.343   3.864
 2184SOL    HW3 8767   0.019   4.200   3.851
 2184SOL    MW4 8768   0.013   4.280   3.886
 2185SOL     OW 8769   0.217   4.439   3.827
 2185SOL    HW2 8770   0.298   4.391   3.844
 2185SOL    HW3 8771   0.236   4.528   3.853
 2185SOL    MW4 8772   0.231   4.444   3.833
 2186SOL     OW 8773   0.686   0.022   3.882
 2186SOL    HW2 8774   0.662  -0.060   3.839
 2186SOL    HW3 8775   0.621   0.085   3.852
 2186SOL    MW4 8776   0.674   0.020   3.872
 2187SOL     OW 8777   0.474   0.158   3.757
 2187SOL    HW2 8778   0.470   0.234   3.815
 2187SOL    HW3 8779   0.404   0.100   3.788
 2187SOL    MW4 8780   0.464   0.160   3.769
 2188SOL     OW 8781   0.469   0.369   3.910
 2188SOL    HW2 8782   0.535   0.431   3.880
 2188SOL    HW3 8783   0.388   0.400   3.870
 2188SOL    MW4 8784   0.467   0.381   3.900
 2189SOL     OW 8785   0.694   0.512   3.825
 2189SOL    HW2 8786   0.762   0.458   3.865
 2189SOL    HW3 8787   0.704   0.598   3.866
 2189SOL    MW4 8788   0.704   0.516   3.836
 2190SOL     OW 8789   0.662   0.805   3.908
 2190SOL    HW2 8790   0.742   0.834   3.863
 2190SOL    HW3 8791   0.594   0.864   3.876
 2190SOL    MW4 8792   0.664   0.817   3.898
 2191SOL     OW 8793   0.450   0.927   3.758
 2191SOL    HW2 8794   0.425   1.009   3.801
 2191SOL    HW3 8795   0.387   0.862   3.792
 2191SOL    MW4 8796   0.438   0.929   3.768
 2192SOL     OW 8797   0.415   1.198   3.889
 2192SOL    HW2 8798   0.496   1.229   3.850
 2192SOL    HW3 8799   0.346   1.230   3.831
 2192SOL    MW4 8800   0.416   1.206   3.876
 2193SOL     OW 8801   0.641   1.292   3.746
 2193SOL    HW2 8802   0.726   1.249   3.754
 2193SOL    HW3 8803   0.630   1.307   3.652
 2193SOL    MW4 8804   0.651   1.289   3.735
 2194SOL     OW 8805   0.671   1.545   3.857
 2194SOL    HW2 8806   0.750   1.592   3.832
 2194SOL    HW3 8807   0.684   1.456   3.824
 2194SOL    MW4 8808   0.683   1.540   3.850
 2195SOL     OW 8809   0.452   1.675   3.752
 2195SOL    HW2 8810   0.521   1.622   3.792
 2195SOL    HW3 8811   0.371   1.626   3.769
 2195SOL    MW4 8812   0.451   1.662   3.759
 2196SOL     OW 8813   0.433   1.932   3.892
 2196SOL    HW2 8814   0.445   1.843   3.859
 2196SOL    HW3 8815   0.357   1.965   3.844
 2196SOL    MW4 8816   0.425   1.925   3.881
 2197SOL     OW 8817   0.650   2.063   3.799
 2197SOL    HW2 8818   0.647   2.155   3.824
 2197SOL    HW3 8819   0.563   2.029   3.823
 2197SOL    MW4 8820   0.638   2.070   3.806
 2198SOL     OW 8821   0.657   2.318   3.849
 2198SOL    HW2 8822   0.742   2.345   3.815
 2198SOL    HW3 8823   0.600   2.392   3.832
 2198SOL    MW4 8824   0.661   2.331   3.842
 2199SOL     OW 8825   0.465   2.489   3.772
 2199SOL    HW2 8826   0.389   2.438   3.798
 2199SOL    HW3 8827   0.453   2.506   3.679
 2199SOL    MW4 8828   0.454   2.485   3.763
 2200SOL     OW 8829   0.465   2.739   3.897
 2200SOL    HW2 8830   0.535   2.792   3.860
 2200SOL    HW3 8831   0.474   2.654   3.854
 2200SOL    MW4 8832   0.476   2.735   3.887
 2201SOL     OW 8833   0.685   2.850   3.789
 2201SOL    HW2 8834   0.762   2.800   3.816
 2201SOL    HW3 8835   0.694   2.858   3.694
 2201SOL    MW4 8836   0.696   2.844   3.780
 2202SOL     OW 8837   0.710   3.133   3.871
 2202SOL    HW2 8838   0.709   3.136   3.967
 2202SOL    HW3 8839   0.693   3.041   3.850
 2202SOL    MW4 8840   0.708   3.121   3.881
 2203SOL     OW 8841   0.461   3.263   3.812
 2203SOL    HW2 8842   0.548   3.224   3.826
 2203SOL    HW3 8843   0.400   3.197   3.844
 2203SOL    MW4 8844   0.465   3.249   3.818
 2204SOL     OW 8845   0.428   3.523   3.813
 2204SOL    HW2 8846   0.516   3.555   3.797
 2204SOL    HW3 8847   0.431   3.431   3.787
 2204SOL    MW4 8848   0.440   3.515   3.807
 2205SOL     OW 8849   0.695   3.622   3.804
 2205SOL    HW2 8850   0.685   3.709   3.844
 2205SOL    HW3 8851   0.699   3.640   3.710
 2205SOL    MW4 8852   0.694   3.636   3.797
 2206SOL     OW 8853   0.696   3.868   3.911
 2206SOL    HW2 8854   0.720   3.882   4.002
 2206SOL    HW3 8855   0.760   3.918   3.861
 2206SOL    MW4 8856   0.708   3.876   3.916
 2207SOL     OW 8857   0.484   4.024   3.818
 2207SOL    HW2 8858   0.550   3.963   3.851
 2207SOL    HW3 8859   0.475   4.001   3.725
 2207SOL    MW4 8860   0.492   4.013   3.810
 2208SOL     OW 8861   0.442   4.288   3.863
 2208SOL    HW2 8862   0.519   4.328   3.823
 2208SOL    HW3 8863   0.451   4.195   3.845
 2208SOL    MW4 8864   0.453   4.281   3.855
 2209SOL     OW 8865   0.658   4.432   3.780
 2209SOL    HW2 8866   0.728   4.388   3.827
 2209SOL    HW3 8867   0.676   4.414   3.688
 2209SOL    MW4 8868   0.670   4.424   3.774
 2210SOL     OW 8869   1.158   4.650   3.841
 2210SOL    HW2 8870   1.231   4.697   3.801
 2210SOL    HW3 8871   1.182   4.558   3.834
 2210SOL    MW4 8872   1.171   4.644   3.835
 2211SOL     OW 8873   0.916   0.081   3.752
 2211SOL    HW2 8874   0.986   0.027   3.789
 2211SOL    HW3 8875   0.836   0.048   3.793
 2211SOL    MW4 8876   0.915   0.069   3.762
 2212SOL     OW 8877   0.941   0.329   3.865
 2212SOL    HW2 8878   0.946   0.308   3.959
 2212SOL    HW3 8879   0.933   0.243   3.823
 2212SOL    MW4 8880   0.941   0.315   3.872
 2213SOL     OW 8881   1.157   0.498   3.781
 2213SOL    HW2 8882   1.227   0.446   3.821
 2213SOL    HW3 8883   1.076   0.457   3.812
 2213SOL    MW4 8884   1.155   0.485   3.791
 2214SOL     OW 8885   1.143   0.778   3.868
 2214SOL    HW2 8886   1.137   0.780   3.964
 2214SOL    HW3 8887   1.151   0.685   3.846
 2214SOL    MW4 8888   1.144   0.766   3.878
 2215SOL     OW 8889   0.891   0.875   3.761
 2215SOL    HW2 8890   0.977   0.848   3.795
 2215SOL    HW3 8891   0.903   0.878   3.666
 2215SOL    MW4 8892   0.904   0.871   3.753
 2216SOL     OW 8893   0.873   1.164   3.840
 2216SOL    HW2 8894   0.863   1.163   3.935
 2216SOL    HW3 8895   0.867   1.072   3.814
 2216SOL    MW4 8896   0.871   1.152   3.849
 2217SOL     OW 8897   1.115   1.277   3.746
 2217SOL    HW2 8898   1.131   1.346   3.810
 2217SOL    HW3 8899   1.032   1.237   3.774
 2217SOL    MW4 8900   1.106   1.281   3.758
 2218SOL     OW 8901   1.150   1.513   3.873
 2218SOL    HW2 8902   1.154   1.512   3.968
 2218SOL    HW3 8903   1.230   1.558   3.846
 2218SOL    MW4 8904   1.161   1.519   3.882
 2219SOL     OW 8905   0.923   1.675   3.805
 2219SOL    HW2 8906   1.003   1.630   3.833
 2219SOL    HW3 8907   0.930   1.682   3.710
 2219SOL    MW4 8908   0.934   1.670   3.797
 2220SOL     OW 8909   0.903   1.942   3.902
 2220SOL    HW2 8910   0.894   1.848   3.887
 2220SOL    HW3 8911   0.823   1.980   3.867
 2220SOL    MW4 8912   0.891   1.935   3.896
 2221SOL     OW 8913   1.122   2.044   3.765
 2221SOL    HW2 8914   1.040   2.008   3.800
 2221SOL    HW3 8915   1.109   2.044   3.670
 2221SOL    MW4 8916   1.109   2.039   3.757
 2222SOL     OW 8917   1.111   2.314   3.834
 2222SOL    HW2 8918   1.105   2.307   3.929
 2222SOL    HW3 8919   1.120   2.224   3.804
 2222SOL    MW4 8920   1.111   2.301   3.843
 2223SOL     OW 8921   0.889   2.440   3.729
 2223SOL    HW2 8922   0.888   2.527   3.769
 2223SOL    HW3 8923   0.960   2.394   3.773
 2223SOL    MW4 8924   0.898   2.445   3.740
 2224SOL     OW 8925   0.913   2.707   3.857
 2224SOL    HW2 8926   0.902   2.714   3.952
 2224SOL    HW3 8927   0.992   2.757   3.838
 2224SOL    MW4 8928   0.922   2.715   3.867
 2225SOL     OW 8929   1.142   2.834   3.771
 2225SOL    HW2 8930   1.222   2.793   3.804
 2225SOL    HW3 8931   1.142   2.921   3.811
 2225SOL    MW4 8932   1.153   2.840   3.781
 2226SOL     OW 8933   1.111   3.100   3.866
 2226SOL    HW2 8934   1.184   3.157   3.843
 2226SOL    HW3 8935   1.034   3.142   3.828
 2226SOL    MW4 8936   1.110   3.113   3.858
 2227SOL     OW 8937   0.910   3.272   3.751
 2227SOL    HW2 8938   0.836   3.225   3.789
 2227SOL    HW3 8939   0.896   3.267   3.656
 2227SOL    MW4 8940   0.899   3.265   3.743
 2228SOL     OW 8941   0.944   3.516   3.875
 2228SOL    HW2 8942   0.933   3.427   3.841
 2228SOL    HW3 8943   0.866   3.563   3.846
 2228SOL    MW4 8944   0.932   3.510   3.867
 2229SOL     OW 8945   1.127   3.656   3.745
 2229SOL    HW2 8946   1.135   3.731   3.803
 2229SOL    HW3 8947   1.071   3.595   3.791
 2229SOL    MW4 8948   1.121   3.658   3.759
 2230SOL     OW 8949   1.140   3.871   3.920
 2230SOL    HW2 8950   1.160   3.876   4.014
 2230SOL    HW3 8951   1.211   3.919   3.877
 2230SOL    MW4 8952   1.152   3.878   3.927
 2231SOL     OW 8953   0.932   4.006   3.802
 2231SOL    HW2 8954   1.005   3.957   3.838
 2231SOL    HW3 8955   0.939   3.995   3.707
 2231SOL    MW4 8956   0.942   3.998   3.794
 2232SOL     OW 8957   0.895   4.273   3.873
 2232SOL    HW2 8958   0.885   4.279   3.968
 2232SOL    HW3 8959   0.904   4.179   3.856
 2232SOL    MW4 8960   0.895   4.261   3.883
 2233SOL     OW 8961   1.142   4.367   3.783
 2233SOL    HW2 8962   1.064   4.320   3.813
 2233SOL    HW3 8963   1.128   4.378   3.689
 2233SOL    MW4 8964   1.130   4.362   3.775
 2234SOL     OW 8965   1.537   4.656   3.923
 2234SOL    HW2 8966   1.534   4.665   4.018
 2234SOL    HW3 8967   1.553   4.563   3.909
 2234SOL    MW4 8968   1.539   4.645   3.934
 2235SOL     OW 8969   1.378   0.120   3.741
 2235SOL    HW2 8970   1.390   0.208   3.776
 2235SOL    HW3 8971   1.425   0.063   3.802
 2235SOL    MW4 8972   1.386   0.124   3.754
 2236SOL     OW 8973   1.378   0.373   3.872
 2236SOL    HW2 8974   1.419   0.360   3.958
 2236SOL    HW3 8975   1.432   0.440   3.830
 2236SOL    MW4 8976   1.390   0.381   3.878
 2237SOL     OW 8977   1.582   0.525   3.782
 2237SOL    HW2 8978   1.659   0.496   3.832
 2237SOL    HW3 8979   1.574   0.618   3.802
 2237SOL    MW4 8980   1.591   0.534   3.791
 2238SOL     OW 8981   1.572   0.781   3.852
 2238SOL    HW2 8982   1.656   0.803   3.813
 2238SOL    HW3 8983   1.508   0.830   3.800
 2238SOL    MW4 8984   1.574   0.790   3.840
 2239SOL     OW 8985   1.344   0.914   3.732
 2239SOL    HW2 8986   1.345   1.002   3.769
 2239SOL    HW3 8987   1.273   0.870   3.778
 2239SOL    MW4 8988   1.334   0.920   3.743
 2240SOL     OW 8989   1.350   1.172   3.860
 2240SOL    HW2 8990   1.426   1.213   3.818
 2240SOL    HW3 8991   1.275   1.210   3.815
 2240SOL    MW4 8992   1.350   1.182   3.848
 2241SOL     OW 8993   1.559   1.285   3.720
 2241SOL    HW2 8994   1.610   1.217   3.763
 2241SOL    HW3 8995   1.590   1.367   3.760
 2241SOL    MW4 8996   1.570   1.287   3.731
 2242SOL     OW 8997   1.610   1.538   3.833
 2242SOL    HW2 8998   1.600   1.525   3.928
 2242SOL    HW3 8999   1.696   1.580   3.824
 2242SOL    MW4 9000   1.620   1.542   3.845
 2243SOL     OW 9001   1.357   1.647   3.759
 2243SOL    HW2 9002   1.352   1.734   3.799
 2243SOL    HW3 9003   1.443   1.614   3.786
 2243SOL    MW4 9004   1.368   1.654   3.768
 2244SOL     OW 9005   1.332   1.907   3.847
 2244SOL    HW2 9006   1.312   1.896   3.940
 2244SOL    HW3 9007   1.255   1.951   3.811
 2244SOL    MW4 9008   1.319   1.912   3.854
 2245SOL     OW 9009   1.545   2.068   3.742
 2245SOL    HW2 9010   1.461   2.027   3.762
 2245SOL    HW3 9011   1.560   2.050   3.649
 2245SOL    MW4 9012   1.536   2.061   3.733
 2246SOL     OW 9013   1.570   2.329   3.878
 2246SOL    HW2 9014   1.641   2.385   3.845
 2246SOL    HW3 9015   1.578   2.248   3.828
 2246SOL    MW4 9016   1.581   2.326   3.867
 2247SOL     OW 9017   1.357   2.452   3.768
 2247SOL    HW2 9018   1.435   2.408   3.803
 2247SOL    HW3 9019   1.284   2.407   3.809
 2247SOL    MW4 9020   1.358   2.440   3.778
 2248SOL     OW 9021   1.336   2.695   3.875
 2248SOL    HW2 9022   1.338   2.687   3.971
 2248SOL    HW3 9023   1.332   2.604   3.844
 2248SOL    MW4 9024   1.336   2.682   3.884
 2249SOL     OW 9025   1.586   2.839   3.783
 2249SOL    HW2 9026   1.503   2.794   3.801
 2249SOL    HW3 9027   1.581   2.861   3.690
 2249SOL    MW4 9028   1.574   2.836   3.773
 2250SOL     OW 9029   1.594   3.124   3.860
 2250SOL    HW2 9030   1.593   3.118   3.955
 2250SOL    HW3 9031   1.571   3.036   3.830
 2250SOL    MW4 9032   1.591   3.112   3.869
 2251SOL     OW 9033   1.353   3.253   3.803
 2251SOL    HW2 9034   1.376   3.346   3.802
 2251SOL    HW3 9035   1.436   3.208   3.820
 2251SOL    MW4 9036   1.367   3.259   3.805
 2252SOL     OW 9037   1.366   3.538   3.851
 2252SOL    HW2 9038   1.432   3.589   3.805
 2252SOL    HW3 9039   1.283   3.566   3.812
 2252SOL    MW4 9040   1.363   3.548   3.840
 2253SOL     OW 9041   1.592   3.649   3.748
 2253SOL    HW2 9042   1.664   3.598   3.785
 2253SOL    HW3 9043   1.591   3.729   3.800
 2253SOL    MW4 9044   1.601   3.653   3.760
 2254SOL     OW 9045   1.591   3.882   3.895
 2254SOL    HW2 9046   1.593   3.875   3.991
 2254SOL    HW3 9047   1.503   3.914   3.875
 2254SOL    MW4 9048   1.580   3.885   3.905
 2255SOL     OW 9049   1.342   4.023   3.812
 2255SOL    HW2 9050   1.335   4.103   3.864
 2255SOL    HW3 9051   1.335   4.052   3.721
 2255SOL    MW4 9052   1.340   4.037   3.807
 2256SOL     OW 9053   1.357   4.281   3.926
 2256SOL    HW2 9054   1.444   4.305   3.893
 2256SOL    HW3 9055   1.296   4.322   3.865
 2256SOL    MW4 9056   1.361   4.289   3.914
 2257SOL     OW 9057   1.593   4.386   3.841
 2257SOL    HW2 9058   1.677   4.351   3.870
 2257SOL    HW3 9059   1.594   4.376   3.746
 2257SOL    MW4 9060   1.604   4.380   3.833
 2258SOL     OW 9061   2.003   4.648   3.886
 2258SOL    HW2 9062   2.076   4.692   3.842
 2258SOL    HW3 9063   2.016   4.555   3.867
 2258SOL    MW4 9064   2.014   4.642   3.878
 2259SOL     OW 9065   1.741   0.098   3.765
 2259SOL    HW2 9066   1.813   0.065   3.819
 2259SOL    HW3 9067   1.662   0.064   3.807
 2259SOL    MW4 9068   1.740   0.089   3.778
 2260SOL     OW 9069   1.793   0.387   3.888
 2260SOL    HW2 9070   1.772   0.356   3.976
 2260SOL    HW3 9071   1.797   0.307   3.835
 2260SOL    MW4 9072   1.791   0.372   3.892
 2261SOL     OW 9073   2.060   0.479   3.807
 2261SOL    HW2 9074   1.979   0.448   3.847
 2261SOL    HW3 9075   2.041   0.480   3.713
 2261SOL    MW4 9076   2.047   0.475   3.800
 2262SOL     OW 9077   2.048   0.760   3.846
 2262SOL    HW2 9078   2.035   0.766   3.941
 2262SOL    HW3 9079   2.066   0.667   3.830
 2262SOL    MW4 9080   2.049   0.748   3.856
 2263SOL     OW 9081   1.819   0.880   3.756
 2263SOL    HW2 9082   1.901   0.835   3.775
 2263SOL    HW3 9083   1.822   0.898   3.662
 2263SOL    MW4 9084   1.830   0.876   3.746
 2264SOL     OW 9085   1.764   1.133   3.857
 2264SOL    HW2 9086   1.771   1.126   3.952
 2264SOL    HW3 9087   1.785   1.045   3.825
 2264SOL    MW4 9088   1.768   1.121   3.865
 2265SOL     OW 9089   1.952   1.331   3.806
 2265SOL    HW2 9090   2.034   1.285   3.827
 2265SOL    HW3 9091   1.883   1.272   3.838
 2265SOL    MW4 9092   1.954   1.317   3.813
 2266SOL     OW 9093   2.023   1.579   3.885
 2266SOL    HW2 9094   1.962   1.641   3.844
 2266SOL    HW3 9095   1.984   1.493   3.869
 2266SOL    MW4 9096   2.010   1.576   3.877
 2267SOL     OW 9097   1.811   1.716   3.734
 2267SOL    HW2 9098   1.796   1.810   3.744
 2267SOL    HW3 9099   1.824   1.704   3.640
 2267SOL    MW4 9100   1.811   1.726   3.723
 2268SOL     OW 9101   1.785   1.957   3.857
 2268SOL    HW2 9102   1.783   1.928   3.948
 2268SOL    HW3 9103   1.700   1.998   3.843
 2268SOL    MW4 9104   1.773   1.959   3.867
 2269SOL     OW 9105   2.022   2.061   3.732
 2269SOL    HW2 9106   1.940   2.017   3.755
 2269SOL    HW3 9107   2.020   2.068   3.637
 2269SOL    MW4 9108   2.011   2.056   3.723
 2270SOL     OW 9109   1.996   2.304   3.883
 2270SOL    HW2 9110   1.926   2.354   3.841
 2270SOL    HW3 9111   2.001   2.223   3.832
 2270SOL    MW4 9112   1.987   2.300   3.871
 2271SOL     OW 9113   1.786   2.453   3.749
 2271SOL    HW2 9114   1.801   2.542   3.780
 2271SOL    HW3 9115   1.797   2.458   3.654
 2271SOL    MW4 9116   1.789   2.465   3.740
 2272SOL     OW 9117   1.814   2.692   3.866
 2272SOL    HW2 9118   1.791   2.676   3.957
 2272SOL    HW3 9119   1.742   2.745   3.832
 2272SOL    MW4 9120   1.802   2.697   3.874
 2273SOL     OW 9121   2.025   2.852   3.765
 2273SOL    HW2 9122   2.091   2.799   3.810
 2273SOL    HW3 9123   1.941   2.819   3.797
 2273SOL    MW4 9124   2.023   2.841   3.776
 2274SOL     OW 9125   2.018   3.128   3.816
 2274SOL    HW2 9126   2.018   3.033   3.804
 2274SOL    HW3 9127   2.111   3.152   3.822
 2274SOL    MW4 9128   2.030   3.119   3.815
 2275SOL     OW 9129   1.779   3.273   3.750
 2275SOL    HW2 9130   1.862   3.230   3.773
 2275SOL    HW3 9131   1.712   3.220   3.793
 2275SOL    MW4 9132   1.781   3.260   3.758
 2276SOL     OW 9133   1.795   3.514   3.883
 2276SOL    HW2 9134   1.871   3.560   3.849
 2276SOL    HW3 9135   1.791   3.432   3.833
 2276SOL    MW4 9136   1.804   3.509   3.872
 2277SOL     OW 9137   2.033   3.635   3.796
 2277SOL    HW2 9138   2.103   3.573   3.818
 2277SOL    HW3 9139   2.048   3.655   3.703
 2277SOL    MW4 9140   2.044   3.629   3.787
 2278SOL     OW 9141   2.065   3.892   3.873
 2278SOL    HW2 9142   2.156   3.914   3.855
 2278SOL    HW3 9143   2.059   3.797   3.858
 2278SOL    MW4 9144   2.076   3.882   3.868
 2279SOL     OW 9145   1.827   3.972   3.746
 2279SOL    HW2 9146   1.908   3.951   3.791
 2279SOL    HW3 9147   1.758   3.954   3.810
 2279SOL    MW4 9148   1.829   3.967   3.760
 2280SOL     OW 9149   1.820   4.234   3.889
 2280SOL    HW2 9150   1.891   4.284   3.848
 2280SOL    HW3 9151   1.818   4.151   3.841
 2280SOL    MW4 9152   1.829   4.230   3.877
 2281SOL     OW 9153   2.016   4.386   3.767
 2281SOL    HW2 9154   2.098   4.340   3.784
 2281SOL    HW3 9155   2.011   4.392   3.672
 2281SOL    MW4 9156   2.026   4.381   3.757
 2282SOL     OW 9157   2.464   4.635   3.849
 2282SOL    HW2 9158   2.465   4.626   3.944
 2282SOL    HW3 9159   2.542   4.687   3.828
 2282SOL    MW4 9160   2.474   4.640   3.858
 2283SOL     OW 9161   2.225   0.084   3.747
 2283SOL    HW2 9162   2.299   0.028   3.771
 2283SOL    HW3 9163   2.220   0.078   3.651
 2283SOL    MW4 9164   2.234   0.076   3.737
 2284SOL     OW 9165   2.280   0.335   3.883
 2284SOL    HW2 9166   2.283   0.255   3.831
 2284SOL    HW3 9167   2.196   0.375   3.861
 2284SOL    MW4 9168   2.269   0.330   3.874
 2285SOL     OW 9169   2.445   0.536   3.744
 2285SOL    HW2 9170   2.378   0.487   3.792
 2285SOL    HW3 9171   2.425   0.521   3.651
 2285SOL    MW4 9172   2.434   0.527   3.738
 2286SOL     OW 9173   2.464   0.812   3.847
 2286SOL    HW2 9174   2.394   0.861   3.804
 2286SOL    HW3 9175   2.454   0.723   3.814
 2286SOL    MW4 9176   2.453   0.807   3.837
 2287SOL     OW 9177   2.246   0.935   3.756
 2287SOL    HW2 9178   2.178   0.878   3.793
 2287SOL    HW3 9179   2.223   0.943   3.663
 2287SOL    MW4 9180   2.234   0.928   3.748
 2288SOL     OW 9181   2.181   1.184   3.852
 2288SOL    HW2 9182   2.193   1.175   3.946
 2288SOL    HW3 9183   2.190   1.096   3.818
 2288SOL    MW4 9184   2.183   1.171   3.860
 2289SOL     OW 9185   2.454   1.284   3.756
 2289SOL    HW2 9186   2.468   1.362   3.810
 2289SOL    HW3 9187   2.376   1.243   3.793
 2289SOL    MW4 9188   2.445   1.289   3.768
 2290SOL     OW 9189   2.493   1.542   3.863
 2290SOL    HW2 9190   2.571   1.582   3.824
 2290SOL    HW3 9191   2.419   1.583   3.817
 2290SOL    MW4 9192   2.493   1.553   3.851
 2291SOL     OW 9193   2.281   1.698   3.746
 2291SOL    HW2 9194   2.286   1.783   3.790
 2291SOL    HW3 9195   2.208   1.654   3.788
 2291SOL    MW4 9196   2.272   1.704   3.757
 2292SOL     OW 9197   2.239   1.949   3.880
 2292SOL    HW2 9198   2.241   1.975   3.973
 2292SOL    HW3 9199   2.159   1.989   3.846
 2292SOL    MW4 9200   2.229   1.958   3.888
 2293SOL     OW 9201   2.469   2.056   3.769
 2293SOL    HW2 9202   2.464   2.145   3.802
 2293SOL    HW3 9203   2.391   2.013   3.803
 2293SOL    MW4 9204   2.458   2.062   3.777
 2294SOL     OW 9205   2.480   2.299   3.897
 2294SOL    HW2 9206   2.542   2.357   3.852
 2294SOL    HW3 9207   2.396   2.344   3.890
 2294SOL    MW4 9208   2.478   2.313   3.890
 2295SOL     OW 9209   2.259   2.435   3.849
 2295SOL    HW2 9210   2.172   2.403   3.872
 2295SOL    HW3 9211   2.259   2.434   3.753
 2295SOL    MW4 9212   2.247   2.430   3.839
 2296SOL     OW 9213   2.225   2.710   3.902
 2296SOL    HW2 9214   2.214   2.741   3.991
 2296SOL    HW3 9215   2.237   2.615   3.910
 2296SOL    MW4 9216   2.225   2.702   3.914
 2297SOL     OW 9217   2.485   2.766   3.779
 2297SOL    HW2 9218   2.407   2.734   3.825
 2297SOL    HW3 9219   2.459   2.769   3.687
 2297SOL    MW4 9220   2.471   2.763   3.773
 2298SOL     OW 9221   2.503   3.035   3.832
 2298SOL    HW2 9222   2.464   3.053   3.918
 2298SOL    HW3 9223   2.502   2.939   3.825
 2298SOL    MW4 9224   2.497   3.024   3.843
 2299SOL     OW 9225   2.290   3.207   3.758
 2299SOL    HW2 9226   2.306   3.295   3.792
 2299SOL    HW3 9227   2.371   3.159   3.778
 2299SOL    MW4 9228   2.303   3.212   3.765
 2300SOL     OW 9229   2.254   3.471   3.846
 2300SOL    HW2 9230   2.253   3.446   3.939
 2300SOL    HW3 9231   2.314   3.545   3.842
 2300SOL    MW4 9232   2.261   3.477   3.858
 2301SOL     OW 9233   2.486   3.637   3.791
 2301SOL    HW2 9234   2.531   3.562   3.831
 2301SOL    HW3 9235   2.486   3.617   3.698
 2301SOL    MW4 9236   2.492   3.624   3.784
 2302SOL     OW 9237   2.542   3.885   3.887
 2302SOL    HW2 9238   2.624   3.917   3.850
 2302SOL    HW3 9239   2.535   3.795   3.857
 2302SOL    MW4 9240   2.552   3.877   3.878
 2303SOL     OW 9241   2.300   3.998   3.774
 2303SOL    HW2 9242   2.372   3.950   3.814
 2303SOL    HW3 9243   2.316   3.994   3.680
 2303SOL    MW4 9244   2.311   3.991   3.767
 2304SOL     OW 9245   2.256   4.252   3.857
 2304SOL    HW2 9246   2.247   4.245   3.952
 2304SOL    HW3 9247   2.299   4.171   3.830
 2304SOL    MW4 9248   2.260   4.241   3.866
 2305SOL     OW 9249   2.470   4.369   3.751
 2305SOL    HW2 9250   2.396   4.327   3.794
 2305SOL    HW3 9251   2.465   4.461   3.778
 2305SOL    MW4 9252   2.460   4.376   3.760
 2306SOL     OW 9253   2.919   0.001   3.854
 2306SOL    HW2 9254   2.909  -0.005   3.949
 2306SOL    HW3 9255   2.990   0.064   3.841
 2306SOL    MW4 9256   2.927   0.009   3.864
 2307SOL     OW 9257   2.684   0.103   3.748
 2307SOL    HW2 9258   2.765   0.064   3.780
 2307SOL    HW3 9259   2.698   0.117   3.655
 2307SOL    MW4 9260   2.696   0.100   3.740
 2308SOL     OW 9261   2.661   0.361   3.848
 2308SOL    HW2 9262   2.662   0.273   3.812
 2308SOL    HW3 9263   2.592   0.406   3.799
 2308SOL    MW4 9264   2.652   0.356   3.837
 2309SOL     OW 9265   2.882   0.517   3.758
 2309SOL    HW2 9266   2.968   0.487   3.786
 2309SOL    HW3 9267   2.820   0.457   3.801
 2309SOL    MW4 9268   2.885   0.505   3.768
 2310SOL     OW 9269   2.888   0.739   3.900
 2310SOL    HW2 9270   2.970   0.778   3.869
 2310SOL    HW3 9271   2.879   0.659   3.848
 2310SOL    MW4 9272   2.898   0.733   3.889
 2311SOL     OW 9273   2.704   0.903   3.759
 2311SOL    HW2 9274   2.772   0.848   3.798
 2311SOL    HW3 9275   2.622   0.865   3.789
 2311SOL    MW4 9276   2.702   0.891   3.768
 2312SOL     OW 9277   2.663   1.128   3.889
 2312SOL    HW2 9278   2.677   1.051   3.835
 2312SOL    HW3 9279   2.585   1.170   3.852
 2312SOL    MW4 9280   2.654   1.124   3.877
 2313SOL     OW 9281   2.887   1.240   3.773
 2313SOL    HW2 9282   2.888   1.334   3.793
 2313SOL    HW3 9283   2.803   1.209   3.809
 2313SOL    MW4 9284   2.876   1.248   3.780
 2314SOL     OW 9285   2.936   1.500   3.829
 2314SOL    HW2 9286   2.937   1.506   3.925
 2314SOL    HW3 9287   3.010   1.555   3.801
 2314SOL    MW4 9288   2.946   1.508   3.838
 2315SOL     OW 9289   2.720   1.670   3.786
 2315SOL    HW2 9290   2.794   1.610   3.799
 2315SOL    HW3 9291   2.703   1.667   3.692
 2315SOL    MW4 9292   2.728   1.661   3.775
 2316SOL     OW 9293   2.689   1.939   3.879
 2316SOL    HW2 9294   2.704   1.846   3.861
 2316SOL    HW3 9295   2.608   1.960   3.834
 2316SOL    MW4 9296   2.680   1.929   3.871
 2317SOL     OW 9297   2.929   2.067   3.789
 2317SOL    HW2 9298   2.935   2.154   3.828
 2317SOL    HW3 9299   2.850   2.029   3.827
 2317SOL    MW4 9300   2.920   2.073   3.799
 2318SOL     OW 9301   2.928   2.332   3.899
 2318SOL    HW2 9302   2.910   2.368   3.986
 2318SOL    HW3 9303   3.007   2.377   3.871
 2318SOL    MW4 9304   2.936   2.343   3.907
 2319SOL     OW 9305   2.688   2.430   3.780
 2319SOL    HW2 9306   2.707   2.515   3.820
 2319SOL    HW3 9307   2.757   2.372   3.813
 2319SOL    MW4 9308   2.700   2.434   3.790
 2320SOL     OW 9309   2.725   2.698   3.873
 2320SOL    HW2 9310   2.711   2.695   3.968
 2320SOL    HW3 9311   2.644   2.735   3.838
 2320SOL    MW4 9312   2.713   2.703   3.881
 2321SOL     OW 9313   2.972   2.828   3.763
 2321SOL    HW2 9314   2.966   2.913   3.808
 2321SOL    HW3 9315   2.899   2.778   3.799
 2321SOL    MW4 9316   2.962   2.833   3.774
 2322SOL     OW 9317   2.956   3.083   3.879
 2322SOL    HW2 9318   3.029   3.144   3.873
 2322SOL    HW3 9319   2.882   3.129   3.839
 2322SOL    MW4 9320   2.956   3.097   3.873
 2323SOL     OW 9321   2.722   3.182   3.767
 2323SOL    HW2 9322   2.701   3.263   3.814
 2323SOL    HW3 9323   2.648   3.124   3.787
 2323SOL    MW4 9324   2.709   3.185   3.776
 2324SOL     OW 9325   2.673   3.446   3.862
 2324SOL    HW2 9326   2.705   3.448   3.952
 2324SOL    HW3 9327   2.713   3.522   3.820
 2324SOL    MW4 9328   2.682   3.456   3.869
 2325SOL     OW 9329   2.873   3.634   3.803
 2325SOL    HW2 9330   2.941   3.577   3.838
 2325SOL    HW3 9331   2.869   3.613   3.710
 2325SOL    MW4 9332   2.881   3.624   3.796
 2326SOL     OW 9333   2.927   3.899   3.888
 2326SOL    HW2 9334   2.941   3.893   3.983
 2326SOL    HW3 9335   2.904   3.810   3.861
 2326SOL    MW4 9336   2.926   3.887   3.897
 2327SOL     OW 9337   2.751   4.027   3.745
 2327SOL    HW2 9338   2.727   4.114   3.778
 2327SOL    HW3 9339   2.818   3.997   3.806
 2327SOL    MW4 9340   2.757   4.035   3.757
 2328SOL     OW 9341   2.689   4.267   3.862
 2328SOL    HW2 9342   2.760   4.308   3.812
 2328SOL    HW3 9343   2.609   4.300   3.822
 2328SOL    MW4 9344   2.688   4.277   3.850
 2329SOL     OW 9345   2.898   4.411   3.747
 2329SOL    HW2 9346   2.979   4.368   3.775
 2329SOL    HW3 9347   2.899   4.495   3.793
 2329SOL    MW4 9348   2.909   4.417   3.757
 2330SOL     OW 9349   3.344   4.659   3.922
 2330SOL    HW2 9350   3.320   4.653   4.014
 2330SOL    HW3 9351   3.423   4.713   3.922
 2330SOL    MW4 9352   3.351   4.665   3.934
 2331SOL     OW 9353   3.134   0.137   3.800
 2331SOL    HW2 9354   3.208   0.083   3.827
 2331SOL    HW3 9355   3.134   0.132   3.704
 2331SOL    MW4 9356   3.143   0.129   3.791
 2332SOL     OW 9357   3.115   0.408   3.870
 2332SOL    HW2 9358   3.097   0.402   3.964
 2332SOL    HW3 9359   3.116   0.317   3.840
 2332SOL    MW4 9360   3.113   0.395   3.878
 2333SOL     OW 9361   3.394   0.497   3.778
 2333SOL    HW2 9362   3.464   0.447   3.819
 2333SOL    HW3 9363   3.313   0.453   3.806
 2333SOL    MW4 9364   3.392   0.484   3.787
 2334SOL     OW 9365   3.343   0.746   3.890
 2334SOL    HW2 9366   3.335   0.736   3.985
 2334SOL    HW3 9367   3.362   0.658   3.858
 2334SOL    MW4 9368   3.344   0.734   3.898
 2335SOL     OW 9369   3.118   0.871   3.788
 2335SOL    HW2 9370   3.202   0.839   3.820
 2335SOL    HW3 9371   3.132   0.884   3.694
 2335SOL    MW4 9372   3.131   0.869   3.780
 2336SOL     OW 9373   3.121   1.154   3.847
 2336SOL    HW2 9374   3.113   1.059   3.835
 2336SOL    HW3 9375   3.034   1.189   3.828
 2336SOL    MW4 9376   3.109   1.146   3.843
 2337SOL     OW 9377   3.351   1.280   3.765
 2337SOL    HW2 9378   3.263   1.259   3.796
 2337SOL    HW3 9379   3.342   1.285   3.669
 2337SOL    MW4 9380   3.338   1.278   3.756
 2338SOL     OW 9381   3.425   1.534   3.847
 2338SOL    HW2 9382   3.350   1.582   3.811
 2338SOL    HW3 9383   3.417   1.446   3.809
 2338SOL    MW4 9384   3.414   1.529   3.837
 2339SOL     OW 9385   3.177   1.660   3.758
 2339SOL    HW2 9386   3.173   1.745   3.801
 2339SOL    HW3 9387   3.157   1.678   3.666
 2339SOL    MW4 9388   3.173   1.674   3.752
 2340SOL     OW 9389   3.145   1.919   3.873
 2340SOL    HW2 9390   3.140   1.921   3.969
 2340SOL    HW3 9391   3.063   1.958   3.844
 2340SOL    MW4 9392   3.134   1.924   3.882
 2341SOL     OW 9393   3.379   2.068   3.781
 2341SOL    HW2 9394   3.314   2.005   3.810
 2341SOL    HW3 9395   3.375   2.064   3.685
 2341SOL    MW4 9396   3.370   2.059   3.772
 2342SOL     OW 9397   3.401   2.339   3.850
 2342SOL    HW2 9398   3.320   2.387   3.832
 2342SOL    HW3 9399   3.380   2.248   3.829
 2342SOL    MW4 9400   3.388   2.334   3.845
 2343SOL     OW 9401   3.157   2.444   3.789
 2343SOL    HW2 9402   3.163   2.537   3.813
 2343SOL    HW3 9403   3.153   2.444   3.694
 2343SOL    MW4 9404   3.158   2.456   3.780
 2344SOL     OW 9405   3.192   2.716   3.848
 2344SOL    HW2 9406   3.196   2.704   3.943
 2344SOL    HW3 9407   3.106   2.755   3.833
 2344SOL    MW4 9408   3.181   2.720   3.859
 2345SOL     OW 9409   3.436   2.844   3.802
 2345SOL    HW2 9410   3.346   2.813   3.812
 2345SOL    HW3 9411   3.447   2.857   3.708
 2345SOL    MW4 9412   3.425   2.841   3.791
 2346SOL     OW 9413   3.399   3.110   3.873
 2346SOL    HW2 9414   3.485   3.142   3.849
 2346SOL    HW3 9415   3.397   3.019   3.842
 2346SOL    MW4 9416   3.410   3.102   3.866
 2347SOL     OW 9417   3.168   3.249   3.794
 2347SOL    HW2 9418   3.250   3.210   3.823
 2347SOL    HW3 9419   3.168   3.236   3.699
 2347SOL    MW4 9420   3.179   3.242   3.785
 2348SOL     OW 9421   3.096   3.499   3.901
 2348SOL    HW2 9422   3.175   3.548   3.880
 2348SOL    HW3 9423   3.111   3.412   3.863
 2348SOL    MW4 9424   3.109   3.494   3.893
 2349SOL     OW 9425   3.367   3.590   3.787
 2349SOL    HW2 9426   3.377   3.681   3.817
 2349SOL    HW3 9427   3.360   3.597   3.692
 2349SOL    MW4 9428   3.367   3.603   3.779
 2350SOL     OW 9429   3.367   3.841   3.881
 2350SOL    HW2 9430   3.446   3.895   3.882
 2350SOL    HW3 9431   3.298   3.900   3.851
 2350SOL    MW4 9432   3.368   3.856   3.877
 2351SOL     OW 9433   3.170   4.018   3.816
 2351SOL    HW2 9434   3.163   4.113   3.823
 2351SOL    HW3 9435   3.083   3.986   3.841
 2351SOL    MW4 9436   3.158   4.026   3.820
 2352SOL     OW 9437   3.115   4.289   3.838
 2352SOL    HW2 9438   3.115   4.281   3.933
 2352SOL    HW3 9439   3.190   4.346   3.819
 2352SOL    MW4 9440   3.125   4.295   3.848
 2353SOL     OW 9441   3.343   4.413   3.758
 2353SOL    HW2 9442   3.407   4.359   3.805
 2353SOL    HW3 9443   3.347   4.498   3.802
 2353SOL    MW4 9444   3.352   4.417   3.770
 2354SOL     OW 9445   3.778   4.660   3.893
 2354SOL    HW2 9446   3.857   4.704   3.860
 2354SOL    HW3 9447   3.784   4.571   3.859
 2354SOL    MW4 9448   3.789   4.654   3.885
 2355SOL     OW 9449   3.571   0.136   3.773
 2355SOL    HW2 9450   3.639   0.074   3.799
 2355SOL    HW3 9451   3.575   0.136   3.677
 2355SOL    MW4 9452   3.581   0.128   3.764
 2356SOL     OW 9453   3.591   0.363   3.910
 2356SOL    HW2 9454   3.676   0.398   3.883
 2356SOL    HW3 9455   3.588   0.275   3.873
 2356SOL    MW4 9456   3.602   0.356   3.902
 2357SOL     OW 9457   3.838   0.493   3.793
 2357SOL    HW2 9458   3.925   0.463   3.818
 2357SOL    HW3 9459   3.826   0.574   3.842
 2357SOL    MW4 9460   3.848   0.500   3.803
 2358SOL     OW 9461   3.816   0.736   3.906
 2358SOL    HW2 9462   3.895   0.782   3.877
 2358SOL    HW3 9463   3.745   0.778   3.858
 2358SOL    MW4 9464   3.817   0.747   3.896
 2359SOL     OW 9465   3.602   0.864   3.770
 2359SOL    HW2 9466   3.583   0.950   3.807
 2359SOL    HW3 9467   3.541   0.805   3.813
 2359SOL    MW4 9468   3.592   0.868   3.780
 2360SOL     OW 9469   3.561   1.127   3.846
 2360SOL    HW2 9470   3.634   1.188   3.837
 2360SOL    HW3 9471   3.489   1.169   3.798
 2360SOL    MW4 9472   3.561   1.141   3.838
 2361SOL     OW 9473   3.787   1.284   3.784
 2361SOL    HW2 9474   3.871   1.243   3.805
 2361SOL    HW3 9475   3.799   1.377   3.803
 2361SOL    MW4 9476   3.800   1.291   3.789
 2362SOL     OW 9477   3.827   1.556   3.889
 2362SOL    HW2 9478   3.800   1.536   3.978
 2362SOL    HW3 9479   3.760   1.617   3.857
 2362SOL    MW4 9480   3.814   1.561   3.896
 2363SOL     OW 9481   3.621   1.721   3.802
 2363SOL    HW2 9482   3.547   1.662   3.815
 2363SOL    HW3 9483   3.618   1.745   3.710
 2363SOL    MW4 9484   3.611   1.717   3.792
 2364SOL     OW 9485   3.622   1.992   3.881
 2364SOL    HW2 9486   3.608   1.902   3.851
 2364SOL    HW3 9487   3.542   2.038   3.855
 2364SOL    MW4 9488   3.609   1.986   3.874
 2365SOL     OW 9489   3.869   2.086   3.804
 2365SOL    HW2 9490   3.938   2.028   3.837
 2365SOL    HW3 9491   3.788   2.048   3.837
 2365SOL    MW4 9492   3.868   2.074   3.813
 2366SOL     OW 9493   3.856   2.339   3.909
 2366SOL    HW2 9494   3.784   2.386   3.868
 2366SOL    HW3 9495   3.859   2.254   3.864
 2366SOL    MW4 9496   3.847   2.334   3.898
 2367SOL     OW 9497   3.635   2.450   3.797
 2367SOL    HW2 9498   3.555   2.406   3.822
 2367SOL    HW3 9499   3.627   2.463   3.702
 2367SOL    MW4 9500   3.624   2.446   3.788
 2368SOL     OW 9501   3.642   2.694   3.923
 2368SOL    HW2 9502   3.623   2.610   3.881
 2368SOL    HW3 9503   3.581   2.755   3.883
 2368SOL    MW4 9504   3.632   2.691   3.912
 2369SOL     OW 9505   3.848   2.812   3.771
 2369SOL    HW2 9506   3.931   2.784   3.811
 2369SOL    HW3 9507   3.781   2.764   3.821
 2369SOL    MW4 9508   3.850   2.802   3.783
 2370SOL     OW 9509   3.842   3.065   3.868
 2370SOL    HW2 9510   3.766   3.116   3.841
 2370SOL    HW3 9511   3.822   2.976   3.839
 2370SOL    MW4 9512   3.830   3.060   3.860
 2371SOL     OW 9513   3.643   3.232   3.774
 2371SOL    HW2 9514   3.643   3.320   3.812
 2371SOL    HW3 9515   3.633   3.247   3.680
 2371SOL    MW4 9516   3.641   3.245   3.767
 2372SOL     OW 9517   3.616   3.493   3.879
 2372SOL    HW2 9518   3.607   3.487   3.975
 2372SOL    HW3 9519   3.529   3.522   3.849
 2372SOL    MW4 9520   3.603   3.496   3.888
 2373SOL     OW 9521   3.881   3.591   3.794
 2373SOL    HW2 9522   3.884   3.681   3.827
 2373SOL    HW3 9523   3.793   3.561   3.813
 2373SOL    MW4 9524   3.870   3.599   3.801
 2374SOL     OW 9525   3.852   3.878   3.890
 2374SOL    HW2 9526   3.865   3.872   3.984
 2374SOL    HW3 9527   3.928   3.926   3.857
 2374SOL    MW4 9528   3.864   3.883   3.898
 2375SOL     OW 9529   3.604   3.976   3.800
 2375SOL    HW2 9530   3.607   4.068   3.827
 2375SOL    HW3 9531   3.694   3.945   3.810
 2375SOL    MW4 9532   3.616   3.984   3.805
 2376SOL     OW 9533   3.573   4.235   3.884
 2376SOL    HW2 9534   3.570   4.238   3.979
 2376SOL    HW3 9535   3.641   4.297   3.859
 2376SOL    MW4 9536   3.581   4.243   3.893
 2377SOL     OW 9537   3.771   4.396   3.780
 2377SOL    HW2 9538   3.849   4.344   3.795
 2377SOL    HW3 9539   3.754   4.387   3.686
 2377SOL    MW4 9540   3.779   4.388   3.769
 2378SOL     OW 9541   4.263   0.039   3.844
 2378SOL    HW2 9542   4.263   0.049   3.939
 2378SOL    HW3 9543   4.344   0.083   3.815
 2378SOL    MW4 9544   4.274   0.046   3.853
 2379SOL     OW 9545   4.010   0.135   3.781
 2379SOL    HW2 9546   4.098   0.097   3.789
 2379SOL    HW3 9547   4.002   0.157   3.688
 2379SOL    MW4 9548   4.021   0.133   3.770
 2380SOL     OW 9549   4.080   0.385   3.858
 2380SOL    HW2 9550   4.057   0.397   3.950
 2380SOL    HW3 9551   4.067   0.291   3.842
 2380SOL    MW4 9552   4.075   0.374   3.868
 2381SOL     OW 9553   4.305   0.505   3.769
 2381SOL    HW2 9554   4.231   0.452   3.800
 2381SOL    HW3 9555   4.303   0.497   3.674
 2381SOL    MW4 9556   4.295   0.497   3.761
 2382SOL     OW 9557   4.273   0.757   3.964
 2382SOL    HW2 9558   4.201   0.807   3.924
 2382SOL    HW3 9559   4.279   0.678   3.910
 2382SOL    MW4 9560   4.264   0.753   3.952
 2383SOL     OW 9561   4.045   0.877   3.842
 2383SOL    HW2 9562   4.043   0.971   3.857
 2383SOL    HW3 9563   4.040   0.867   3.747
 2383SOL    MW4 9564   4.044   0.888   3.831
 2384SOL     OW 9565   4.007   1.154   3.880
 2384SOL    HW2 9566   4.020   1.157   3.975
 2384SOL    HW3 9567   4.087   1.194   3.844
 2384SOL    MW4 9568   4.020   1.159   3.888
 2385SOL     OW 9569   4.265   1.229   3.773
 2385SOL    HW2 9570   4.274   1.319   3.805
 2385SOL    HW3 9571   4.253   1.239   3.678
 2385SOL    MW4 9572   4.265   1.242   3.765
 2386SOL     OW 9573   4.269   1.496   3.873
 2386SOL    HW2 9574   4.191   1.535   3.833
 2386SOL    HW3 9575   4.342   1.543   3.834
 2386SOL    MW4 9576   4.268   1.507   3.863
 2387SOL     OW 9577   4.053   1.651   3.771
 2387SOL    HW2 9578   4.066   1.741   3.802
 2387SOL    HW3 9579   3.989   1.614   3.832
 2387SOL    MW4 9580   4.047   1.658   3.783
 2388SOL     OW 9581   4.062   1.907   3.865
 2388SOL    HW2 9582   4.081   1.900   3.959
 2388SOL    HW3 9583   4.128   1.968   3.832
 2388SOL    MW4 9584   4.073   1.914   3.873
 2389SOL     OW 9585   4.250   2.082   3.775
 2389SOL    HW2 9586   4.237   2.174   3.798
 2389SOL    HW3 9587   4.255   2.081   3.680
 2389SOL    MW4 9588   4.249   2.094   3.766
 2390SOL     OW 9589   4.243   2.357   3.891
 2390SOL    HW2 9590   4.240   2.353   3.987
 2390SOL    HW3 9591   4.170   2.415   3.867
 2390SOL    MW4 9592   4.233   2.364   3.900
 2391SOL     OW 9593   4.018   2.479   3.758
 2391SOL    HW2 9594   4.041   2.561   3.801
 2391SOL    HW3 9595   3.954   2.438   3.816
 2391SOL    MW4 9596   4.013   2.484   3.772
 2392SOL     OW 9597   4.083   2.702   3.896
 2392SOL    HW2 9598   4.088   2.708   3.992
 2392SOL    HW3 9599   4.163   2.743   3.865
 2392SOL    MW4 9600   4.094   2.708   3.905
 2393SOL     OW 9601   4.297   2.825   3.784
 2393SOL    HW2 9602   4.309   2.895   3.847
 2393SOL    HW3 9603   4.363   2.760   3.807
 2393SOL    MW4 9604   4.307   2.826   3.795
 2394SOL     OW 9605   4.266   3.051   3.925
 2394SOL    HW2 9606   4.194   3.108   3.898
 2394SOL    HW3 9607   4.344   3.095   3.891
 2394SOL    MW4 9608   4.267   3.064   3.917
 2395SOL     OW 9609   4.064   3.223   3.812
 2395SOL    HW2 9610   3.993   3.164   3.838
 2395SOL    HW3 9611   4.062   3.223   3.717
 2395SOL    MW4 9612   4.055   3.215   3.803
 2396SOL     OW 9613   4.089   3.477   3.923
 2396SOL    HW2 9614   4.087   3.388   3.888
 2396SOL    HW3 9615   4.007   3.517   3.892
 2396SOL    MW4 9616   4.078   3.471   3.914
 2397SOL     OW 9617   4.273   3.620   3.776
 2397SOL    HW2 9618   4.204   3.580   3.829
 2397SOL    HW3 9619   4.354   3.579   3.806
 2397SOL    MW4 9620   4.275   3.609   3.787
 2398SOL     OW 9621   4.327   3.877   3.860
 2398SOL    HW2 9622   4.247   3.928   3.861
 2398SOL    HW3 9623   4.302   3.793   3.821
 2398SOL    MW4 9624   4.314   3.872   3.855
 2399SOL     OW 9625   4.078   4.011   3.812
 2399SOL    HW2 9626   4.054   4.100   3.838
 2399SOL    HW3 9627   4.070   4.011   3.716
 2399SOL    MW4 9628   4.073   4.022   3.803
 2400SOL     OW 9629   4.002   4.286   3.856
 2400SOL    HW2 9630   3.997   4.261   3.948
 2400SOL    HW3 9631   4.077   4.345   3.851
 2400SOL    MW4 9632   4.011   4.291   3.867
 2401SOL     OW 9633   4.241   4.424   3.828
 2401SOL    HW2 9634   4.255   4.518   3.841
 2401SOL    HW3 9635   4.317   4.383   3.869
 2401SOL    MW4 9636   4.253   4.431   3.835
 2402SOL     OW 9637   0.296   0.028   4.149
 2402SOL    HW2 9638   0.370   0.061   4.200
 2402SOL    HW3 9639   0.297  -0.066   4.165
 2402SOL    MW4 9640   0.306   0.020   4.158
 2403SOL     OW 9641   0.030   0.097   4.216
 2403SOL    HW2 9642   0.022   0.082   4.310
 2403SOL    HW3 9643   0.108   0.048   4.190
 2403SOL    MW4 9644   0.039   0.089   4.225
 2404SOL     OW 9645   0.019   0.355   4.154
 2404SOL    HW2 9646   0.027   0.260   4.168
 2404SOL    HW3 9647   0.021   0.365   4.059
 2404SOL    MW4 9648   0.021   0.344   4.143
 2405SOL     OW 9649   0.239   0.483   4.285
 2405SOL    HW2 9650   0.316   0.445   4.243
 2405SOL    HW3 9651   0.167   0.424   4.259
 2405SOL    MW4 9652   0.239   0.470   4.276
 2406SOL     OW 9653   0.231   0.713   4.135
 2406SOL    HW2 9654   0.154   0.764   4.160
 2406SOL    HW3 9655   0.228   0.635   4.191
 2406SOL    MW4 9656   0.221   0.710   4.146
 2407SOL     OW 9657   0.041   0.867   4.272
 2407SOL    HW2 9658  -0.044   0.822   4.280
 2407SOL    HW3 9659   0.017   0.958   4.254
 2407SOL    MW4 9660   0.027   0.873   4.271
 2408SOL     OW 9661   0.013   1.148   4.193
 2408SOL    HW2 9662   0.093   1.199   4.208
 2408SOL    HW3 9663   0.016   1.126   4.099
 2408SOL    MW4 9664   0.024   1.152   4.182
 2409SOL     OW 9665   0.244   1.313   4.227
 2409SOL    HW2 9666   0.256   1.336   4.319
 2409SOL    HW3 9667   0.316   1.254   4.208
 2409SOL    MW4 9668   0.255   1.308   4.237
 2410SOL     OW 9669   4.480   1.600   4.667
 2410SOL    HW2 9670   4.545   1.632   4.604
 2410SOL    HW3 9671   4.494   1.655   4.745
 2410SOL    MW4 9672   4.490   1.612   4.669
 2411SOL     OW 9673   0.047   1.662   4.226
 2411SOL    HW2 9674  -0.025   1.600   4.209
 2411SOL    HW3 9675   0.005   1.748   4.221
 2411SOL    MW4 9676   0.032   1.665   4.223
 2412SOL     OW 9677   0.190   2.058   4.265
 2412SOL    HW2 9678   0.155   2.057   4.354
 2412SOL    HW3 9679   0.273   2.010   4.271
 2412SOL    MW4 9680   0.196   2.051   4.278
 2413SOL     OW 9681   0.688   1.513   4.590
 2413SOL    HW2 9682   0.594   1.524   4.577
 2413SOL    HW3 9683   0.713   1.586   4.647
 2413SOL    MW4 9684   0.679   1.524   4.596
 2414SOL     OW 9685   0.228   2.322   4.141
 2414SOL    HW2 9686   0.298   2.370   4.186
 2414SOL    HW3 9687   0.229   2.235   4.181
 2414SOL    MW4 9688   0.238   2.317   4.152
 2415SOL     OW 9689   4.478   2.469   4.255
 2415SOL    HW2 9690   4.399   2.415   4.244
 2415SOL    HW3 9691   4.548   2.417   4.215
 2415SOL    MW4 9692   4.477   2.455   4.248
 2416SOL     OW 9693   0.003   2.725   4.153
 2416SOL    HW2 9694   0.088   2.760   4.181
 2416SOL    HW3 9695  -0.002   2.638   4.194
 2416SOL    MW4 9696   0.014   2.718   4.162
 2417SOL     OW 9697   0.238   2.854   4.243
 2417SOL    HW2 9698   0.325   2.816   4.238
 2417SOL    HW3 9699   0.249   2.945   4.214
 2417SOL    MW4 9700   0.251   2.861   4.238
 2418SOL     OW 9701   0.236   3.107   4.150
 2418SOL    HW2 9702   0.312   3.158   4.180
 2418SOL    HW3 9703   0.161   3.150   4.191
 2418SOL    MW4 9704   0.236   3.119   4.160
 2419SOL     OW 9705   0.033   3.221   4.301
 2419SOL    HW2 9706  -0.050   3.187   4.266
 2419SOL    HW3 9707   0.040   3.309   4.263
 2419SOL    MW4 9708   0.023   3.228   4.291
 2420SOL     OW 9709   0.025   3.478   4.175
 2420SOL    HW2 9710  -0.030   3.538   4.226
 2420SOL    HW3 9711  -0.010   3.485   4.086
 2420SOL    MW4 9712   0.013   3.487   4.170
 2421SOL     OW 9713   0.239   3.632   4.237
 2421SOL    HW2 9714   0.306   3.594   4.180
 2421SOL    HW3 9715   0.165   3.572   4.230
 2421SOL    MW4 9716   0.238   3.619   4.229
 2422SOL     OW 9717   0.285   3.904   4.243
 2422SOL    HW2 9718   0.206   3.958   4.252
 2422SOL    HW3 9719   0.253   3.814   4.248
 2422SOL    MW4 9720   0.270   3.899   4.245
 2423SOL     OW 9721   0.041   4.040   4.293
 2423SOL    HW2 9722   0.023   4.038   4.387
 2423SOL    HW3 9723  -0.031   3.990   4.253
 2423SOL    MW4 9724   0.029   4.033   4.300
 2424SOL     OW 9725   0.014   4.294   4.182
 2424SOL    HW2 9726   0.036   4.208   4.218
 2424SOL    HW3 9727   0.017   4.281   4.087
 2424SOL    MW4 9728   0.017   4.281   4.174
 2425SOL     OW 9729   0.256   4.425   4.206
 2425SOL    HW2 9730   0.277   4.405   4.297
 2425SOL    HW3 9731   0.169   4.387   4.193
 2425SOL    MW4 9732   0.247   4.417   4.216
 2426SOL     OW 9733   0.740   0.014   4.160
 2426SOL    HW2 9734   0.665   0.051   4.208
 2426SOL    HW3 9735   0.713   0.018   4.068
 2426SOL    MW4 9736   0.726   0.019   4.155
 2427SOL     OW 9737   0.517   0.106   4.284
 2427SOL    HW2 9738   0.525   0.123   4.378
 2427SOL    HW3 9739   0.508   0.193   4.245
 2427SOL    MW4 9740   0.517   0.120   4.291
 2428SOL     OW 9741   0.480   0.363   4.194
 2428SOL    HW2 9742   0.560   0.410   4.219
 2428SOL    HW3 9743   0.470   0.382   4.100
 2428SOL    MW4 9744   0.490   0.372   4.185
 2429SOL     OW 9745   0.735   0.475   4.266
 2429SOL    HW2 9746   0.813   0.435   4.227
 2429SOL    HW3 9747   0.740   0.568   4.241
 2429SOL    MW4 9748   0.746   0.482   4.257
 2430SOL     OW 9749   0.684   0.759   4.181
 2430SOL    HW2 9750   0.602   0.789   4.220
 2430SOL    HW3 9751   0.671   0.771   4.087
 2430SOL    MW4 9752   0.672   0.765   4.174
 2431SOL     OW 9753   0.431   0.870   4.245
 2431SOL    HW2 9754   0.413   0.954   4.203
 2431SOL    HW3 9755   0.367   0.810   4.206
 2431SOL    MW4 9756   0.420   0.873   4.234
 2432SOL     OW 9757   0.438   1.131   4.156
 2432SOL    HW2 9758   0.522   1.156   4.195
 2432SOL    HW3 9759   0.436   1.173   4.071
 2432SOL    MW4 9760   0.449   1.140   4.150
 2433SOL     OW 9761   0.660   1.236   4.268
 2433SOL    HW2 9762   0.655   1.247   4.363
 2433SOL    HW3 9763   0.663   1.325   4.233
 2433SOL    MW4 9764   0.660   1.249   4.276
 2434SOL     OW 9765   0.680   1.476   4.130
 2434SOL    HW2 9766   0.759   1.522   4.159
 2434SOL    HW3 9767   0.671   1.501   4.038
 2434SOL    MW4 9768   0.689   1.486   4.121
 2435SOL     OW 9769   0.262   1.543   4.085
 2435SOL    HW2 9770   0.255   1.455   4.121
 2435SOL    HW3 9771   0.194   1.593   4.130
 2435SOL    MW4 9772   0.252   1.538   4.096
 2436SOL     OW 9773   0.422   1.919   4.182
 2436SOL    HW2 9774   0.444   1.826   4.195
 2436SOL    HW3 9775   0.428   1.931   4.087
 2436SOL    MW4 9776   0.426   1.908   4.171
 2437SOL     OW 9777   0.660   2.062   4.252
 2437SOL    HW2 9778   0.661   2.080   4.345
 2437SOL    HW3 9779   0.575   2.022   4.236
 2437SOL    MW4 9780   0.649   2.059   4.262
 2438SOL     OW 9781   0.664   2.312   4.128
 2438SOL    HW2 9782   0.655   2.219   4.150
 2438SOL    HW3 9783   0.670   2.314   4.032
 2438SOL    MW4 9784   0.664   2.300   4.118
 2439SOL     OW 9785   0.445   2.456   4.273
 2439SOL    HW2 9786   0.450   2.550   4.254
 2439SOL    HW3 9787   0.505   2.416   4.211
 2439SOL    MW4 9788   0.454   2.463   4.262
 2440SOL     OW 9789   0.476   2.716   4.179
 2440SOL    HW2 9790   0.548   2.773   4.207
 2440SOL    HW3 9791   0.467   2.733   4.085
 2440SOL    MW4 9792   0.484   2.726   4.170
 2441SOL     OW 9793   0.693   2.880   4.271
 2441SOL    HW2 9794   0.716   2.891   4.363
 2441SOL    HW3 9795   0.697   2.968   4.234
 2441SOL    MW4 9796   0.697   2.893   4.278
 2442SOL     OW 9797   0.690   3.130   4.144
 2442SOL    HW2 9798   0.759   3.177   4.190
 2442SOL    HW3 9799   0.611   3.183   4.158
 2442SOL    MW4 9800   0.688   3.143   4.152
 2443SOL     OW 9801   0.462   3.269   4.233
 2443SOL    HW2 9802   0.456   3.295   4.325
 2443SOL    HW3 9803   0.455   3.351   4.184
 2443SOL    MW4 9804   0.460   3.283   4.239
 2444SOL     OW 9805   0.434   3.504   4.100
 2444SOL    HW2 9806   0.501   3.567   4.126
 2444SOL    HW3 9807   0.447   3.492   4.005
 2444SOL    MW4 9808   0.445   3.510   4.091
 2445SOL     OW 9809   0.636   3.632   4.230
 2445SOL    HW2 9810   0.633   3.652   4.323
 2445SOL    HW3 9811   0.716   3.581   4.219
 2445SOL    MW4 9812   0.646   3.628   4.241
 2446SOL     OW 9813   0.718   3.907   4.195
 2446SOL    HW2 9814   0.640   3.941   4.240
 2446SOL    HW3 9815   0.709   3.812   4.200
 2446SOL    MW4 9816   0.706   3.899   4.202
 2447SOL     OW 9817   0.507   4.036   4.302
 2447SOL    HW2 9818   0.489   4.113   4.247
 2447SOL    HW3 9819   0.437   3.974   4.281
 2447SOL    MW4 9820   0.495   4.038   4.292
 2448SOL     OW 9821   0.481   4.276   4.138
 2448SOL    HW2 9822   0.402   4.321   4.167
 2448SOL    HW3 9823   0.470   4.265   4.043
 2448SOL    MW4 9824   0.469   4.281   4.129
 2449SOL     OW 9825   0.678   4.434   4.243
 2449SOL    HW2 9826   0.605   4.389   4.200
 2449SOL    HW3 9827   0.679   4.521   4.204
 2449SOL    MW4 9828   0.669   4.440   4.232
 2450SOL     OW 9829   1.138   4.658   4.131
 2450SOL    HW2 9830   1.149   4.567   4.158
 2450SOL    HW3 9831   1.129   4.654   4.035
 2450SOL    MW4 9832   1.138   4.646   4.122
 2451SOL     OW 9833   0.956   0.127   4.283
 2451SOL    HW2 9834   1.031   0.094   4.234
 2451SOL    HW3 9835   0.881   0.077   4.248
 2451SOL    MW4 9836   0.956   0.116   4.272
 2452SOL     OW 9837   0.952   0.358   4.141
 2452SOL    HW2 9838   1.030   0.401   4.177
 2452SOL    HW3 9839   0.941   0.279   4.195
 2452SOL    MW4 9840   0.961   0.353   4.153
 2453SOL     OW 9841   1.203   0.480   4.223
 2453SOL    HW2 9842   1.214   0.469   4.317
 2453SOL    HW3 9843   1.273   0.428   4.184
 2453SOL    MW4 9844   1.214   0.472   4.230
 2454SOL     OW 9845   1.135   0.743   4.161
 2454SOL    HW2 9846   1.202   0.789   4.211
 2454SOL    HW3 9847   1.156   0.650   4.173
 2454SOL    MW4 9848   1.147   0.736   4.169
 2455SOL     OW 9849   0.921   0.903   4.247
 2455SOL    HW2 9850   0.998   0.846   4.236
 2455SOL    HW3 9851   0.847   0.849   4.221
 2455SOL    MW4 9852   0.922   0.888   4.242
 2456SOL     OW 9853   0.868   1.137   4.127
 2456SOL    HW2 9854   0.884   1.049   4.160
 2456SOL    HW3 9855   0.796   1.170   4.181
 2456SOL    MW4 9856   0.861   1.130   4.139
 2457SOL     OW 9857   1.110   1.268   4.225
 2457SOL    HW2 9858   1.105   1.266   4.320
 2457SOL    HW3 9859   1.034   1.217   4.196
 2457SOL    MW4 9860   1.099   1.261   4.233
 2458SOL     OW 9861   1.139   1.534   4.140
 2458SOL    HW2 9862   1.065   1.585   4.171
 2458SOL    HW3 9863   1.122   1.445   4.170
 2458SOL    MW4 9864   1.127   1.529   4.148
 2459SOL     OW 9865   0.894   1.633   4.238
 2459SOL    HW2 9866   0.929   1.616   4.325
 2459SOL    HW3 9867   0.906   1.727   4.225
 2459SOL    MW4 9868   0.900   1.643   4.247
 2460SOL     OW 9869   0.866   1.899   4.173
 2460SOL    HW2 9870   0.790   1.950   4.200
 2460SOL    HW3 9871   0.883   1.926   4.083
 2460SOL    MW4 9872   0.858   1.909   4.164
 2461SOL     OW 9873   1.070   2.049   4.242
 2461SOL    HW2 9874   1.071   2.044   4.338
 2461SOL    HW3 9875   1.004   1.984   4.216
 2461SOL    MW4 9876   1.061   2.039   4.251
 2462SOL     OW 9877   1.078   2.314   4.107
 2462SOL    HW2 9878   1.161   2.340   4.148
 2462SOL    HW3 9879   1.054   2.232   4.152
 2462SOL    MW4 9880   1.086   2.306   4.118
 2463SOL     OW 9881   0.872   2.477   4.224
 2463SOL    HW2 9882   0.942   2.424   4.189
 2463SOL    HW3 9883   0.792   2.428   4.204
 2463SOL    MW4 9884   0.870   2.464   4.217
 2464SOL     OW 9885   0.879   2.728   4.130
 2464SOL    HW2 9886   0.874   2.638   4.162
 2464SOL    HW3 9887   0.819   2.777   4.186
 2464SOL    MW4 9888   0.871   2.722   4.142
 2465SOL     OW 9889   1.106   2.811   4.261
 2465SOL    HW2 9890   1.123   2.894   4.216
 2465SOL    HW3 9891   1.023   2.781   4.226
 2465SOL    MW4 9892   1.097   2.818   4.251
 2466SOL     OW 9893   1.143   3.058   4.154
 2466SOL    HW2 9894   1.220   3.112   4.169
 2466SOL    HW3 9895   1.127   3.064   4.060
 2466SOL    MW4 9896   1.151   3.066   4.144
 2467SOL     OW 9897   0.926   3.233   4.237
 2467SOL    HW2 9898   0.942   3.244   4.330
 2467SOL    HW3 9899   0.990   3.167   4.209
 2467SOL    MW4 9900   0.937   3.226   4.245
 2468SOL     OW 9901   0.924   3.516   4.172
 2468SOL    HW2 9902   0.928   3.426   4.205
 2468SOL    HW3 9903   0.941   3.508   4.078
 2468SOL    MW4 9904   0.927   3.503   4.164
 2469SOL     OW 9905   1.167   3.616   4.251
 2469SOL    HW2 9906   1.170   3.710   4.231
 2469SOL    HW3 9907   1.078   3.589   4.225
 2469SOL    MW4 9908   1.156   3.625   4.245
 2470SOL     OW 9909   1.201   3.893   4.202
 2470SOL    HW2 9910   1.274   3.928   4.252
 2470SOL    HW3 9911   1.123   3.925   4.247
 2470SOL    MW4 9912   1.200   3.902   4.215
 2471SOL     OW 9913   0.966   4.012   4.297
 2471SOL    HW2 9914   0.958   4.097   4.253
 2471SOL    HW3 9915   0.879   3.973   4.288
 2471SOL    MW4 9916   0.953   4.018   4.290
 2472SOL     OW 9917   0.895   4.289   4.169
 2472SOL    HW2 9918   0.969   4.339   4.202
 2472SOL    HW3 9919   0.818   4.338   4.197
 2472SOL    MW4 9920   0.894   4.302   4.177
 2473SOL     OW 9921   1.124   4.424   4.286
 2473SOL    HW2 9922   1.118   4.406   4.379
 2473SOL    HW3 9923   1.199   4.372   4.256
 2473SOL    MW4 9924   1.133   4.415   4.294
 2474SOL     OW 9925   1.566   4.632   4.194
 2474SOL    HW2 9926   1.638   4.689   4.220
 2474SOL    HW3 9927   1.489   4.670   4.237
 2474SOL    MW4 9928   1.566   4.645   4.203
 2475SOL     OW 9929   1.348   0.079   4.303
 2475SOL    HW2 9930   1.315   0.048   4.388
 2475SOL    HW3 9931   1.287   0.044   4.239
 2475SOL    MW4 9932   1.336   0.070   4.306
 2476SOL     OW 9933   1.420   0.325   4.159
 2476SOL    HW2 9934   1.472   0.390   4.206
 2476SOL    HW3 9935   1.393   0.262   4.226
 2476SOL    MW4 9936   1.423   0.325   4.174
 2477SOL     OW 9937   1.572   0.517   4.314
 2477SOL    HW2 9938   1.557   0.520   4.409
 2477SOL    HW3 9939   1.586   0.608   4.289
 2477SOL    MW4 9940   1.572   0.529   4.324
 2478SOL     OW 9941   1.576   0.773   4.142
 2478SOL    HW2 9942   1.658   0.814   4.170
 2478SOL    HW3 9943   1.582   0.769   4.047
 2478SOL    MW4 9944   1.587   0.778   4.133
 2479SOL     OW 9945   1.347   0.894   4.270
 2479SOL    HW2 9946   1.359   0.983   4.236
 2479SOL    HW3 9947   1.414   0.842   4.226
 2479SOL    MW4 9948   1.357   0.899   4.260
 2480SOL     OW 9949   1.351   1.150   4.147
 2480SOL    HW2 9950   1.275   1.200   4.179
 2480SOL    HW3 9951   1.347   1.159   4.052
 2480SOL    MW4 9952   1.340   1.158   4.139
 2481SOL     OW 9953   1.583   1.291   4.219
 2481SOL    HW2 9954   1.585   1.306   4.314
 2481SOL    HW3 9955   1.500   1.246   4.204
 2481SOL    MW4 9956   1.572   1.287   4.230
 2482SOL     OW 9957   1.600   1.564   4.118
 2482SOL    HW2 9958   1.525   1.609   4.157
 2482SOL    HW3 9959   1.604   1.480   4.164
 2482SOL    MW4 9960   1.591   1.559   4.129
 2483SOL     OW 9961   1.376   1.673   4.229
 2483SOL    HW2 9962   1.352   1.760   4.197
 2483SOL    HW3 9963   1.304   1.617   4.200
 2483SOL    MW4 9964   1.363   1.677   4.221
 2484SOL     OW 9965   1.296   1.925   4.142
 2484SOL    HW2 9966   1.376   1.971   4.168
 2484SOL    HW3 9967   1.226   1.975   4.182
 2484SOL    MW4 9968   1.298   1.937   4.151
 2485SOL     OW 9969   1.536   2.029   4.227
 2485SOL    HW2 9970   1.612   1.980   4.197
 2485SOL    HW3 9971   1.561   2.121   4.216
 2485SOL    MW4 9972   1.549   2.035   4.222
 2486SOL     OW 9973   1.598   2.317   4.169
 2486SOL    HW2 9974   1.631   2.402   4.197
 2486SOL    HW3 9975   1.592   2.325   4.073
 2486SOL    MW4 9976   1.602   2.329   4.160
 2487SOL     OW 9977   1.500   2.877   4.299
 2487SOL    HW2 9978   1.474   2.857   4.389
 2487SOL    HW3 9979   1.587   2.840   4.290
 2487SOL    MW4 9980   1.508   2.869   4.310
 2488SOL     OW 9981   1.321   2.680   4.166
 2488SOL    HW2 9982   1.385   2.743   4.198
 2488SOL    HW3 9983   1.238   2.707   4.205
 2488SOL    MW4 9984   1.318   2.692   4.175
 2489SOL     OW 9985   1.627   2.348   4.517
 2489SOL    HW2 9986   1.647   2.384   4.603
 2489SOL    HW3 9987   1.646   2.419   4.456
 2489SOL    MW4 9988   1.632   2.362   4.520
 2490SOL     OW 9989   1.561   3.091   4.130
 2490SOL    HW2 9990   1.631   3.129   4.183
 2490SOL    HW3 9991   1.539   3.009   4.173
 2490SOL    MW4 9992   1.567   3.085   4.143
 2491SOL     OW 9993   1.348   3.210   4.255
 2491SOL    HW2 9994   1.423   3.159   4.224
 2491SOL    HW3 9995   1.352   3.292   4.206
 2491SOL    MW4 9996   1.358   3.214   4.245
 2492SOL     OW 9997   1.359   3.466   4.116
 2492SOL    HW2 9998   1.285   3.511   4.158
 2492SOL    HW3 9999   1.351   3.488   4.023
 2492SOL    MW410000   1.348   3.475   4.109
 2493SOL     OW10001   1.548   3.619   4.242
 2493SOL    HW210002   1.524   3.627   4.334
 2493SOL    HW310003   1.481   3.561   4.205
 2493SOL    MW410004   1.536   3.612   4.249
 2494SOL     OW10005   1.596   3.889   4.172
 2494SOL    HW210006   1.521   3.937   4.208
 2494SOL    HW310007   1.578   3.797   4.195
 2494SOL    MW410008   1.584   3.883   4.180
 2495SOL     OW10009   1.415   4.034   4.307
 2495SOL    HW210010   1.469   4.034   4.386
 2495SOL    HW310011   1.402   4.127   4.287
 2495SOL    MW410012   1.421   4.046   4.315
 2496SOL     OW10013   1.344   4.279   4.214
 2496SOL    HW210014   1.428   4.311   4.247
 2496SOL    HW310015   1.353   4.282   4.119
 2496SOL    MW410016   1.357   4.283   4.206
 2497SOL     OW10017   1.620   4.369   4.299
 2497SOL    HW210018   1.639   4.453   4.258
 2497SOL    HW310019   1.692   4.311   4.271
 2497SOL    MW410020   1.632   4.372   4.290
 2498SOL     OW10021   2.023   4.657   4.158
 2498SOL    HW210022   1.944   4.706   4.178
 2498SOL    HW310023   2.024   4.650   4.062
 2498SOL    MW410024   2.013   4.662   4.148
 2499SOL     OW10025   1.797   0.127   4.279
 2499SOL    HW210026   1.824   0.129   4.370
 2499SOL    HW310027   1.800   0.218   4.250
 2499SOL    MW410028   1.801   0.139   4.287
 2500SOL     OW10029   1.789   0.398   4.178
 2500SOL    HW210030   1.873   0.438   4.200
 2500SOL    HW310031   1.727   0.440   4.238
 2500SOL    MW410032   1.792   0.409   4.189
 2501SOL     OW10033   2.050   0.495   4.250
 2501SOL    HW210034   2.067   0.476   4.343
 2501SOL    HW310035   2.110   0.438   4.203
 2501SOL    MW410036   2.060   0.485   4.256
 2502SOL     OW10037   2.040   0.748   4.126
 2502SOL    HW210038   2.104   0.803   4.172
 2502SOL    HW310039   2.043   0.664   4.173
 2502SOL    MW410040   2.049   0.744   4.138
 2503SOL     OW10041   1.806   0.870   4.244
 2503SOL    HW210042   1.814   0.961   4.215
 2503SOL    HW310043   1.881   0.825   4.206
 2503SOL    MW410044   1.817   0.876   4.235
 2504SOL     OW10045   1.812   1.139   4.155
 2504SOL    HW210046   1.892   1.184   4.184
 2504SOL    HW310047   1.741   1.191   4.190
 2504SOL    MW410048   1.813   1.151   4.164
 2505SOL     OW10049   2.022   1.278   4.259
 2505SOL    HW210050   2.091   1.240   4.205
 2505SOL    HW310051   2.027   1.372   4.241
 2505SOL    MW410052   2.032   1.286   4.250
 2506SOL     OW10053   2.035   1.547   4.169
 2506SOL    HW210054   2.112   1.602   4.186
 2506SOL    HW310055   2.030   1.542   4.073
 2506SOL    MW410056   2.045   1.554   4.158
 2507SOL     OW10057   1.804   1.675   4.267
 2507SOL    HW210058   1.881   1.624   4.243
 2507SOL    HW310059   1.734   1.641   4.210
 2507SOL    MW410060   1.805   1.664   4.256
 2508SOL     OW10061   1.797   1.922   4.133
 2508SOL    HW210062   1.812   1.834   4.169
 2508SOL    HW310063   1.829   1.981   4.202
 2508SOL    MW410064   1.803   1.918   4.147
 2509SOL     OW10065   1.736   2.531   4.338
 2509SOL    HW210066   1.740   2.589   4.414
 2509SOL    HW310067   1.813   2.475   4.347
 2509SOL    MW410068   1.747   2.531   4.349
 2510SOL     OW10069   2.227   2.421   4.209
 2510SOL    HW210070   2.177   2.342   4.190
 2510SOL    HW310071   2.314   2.404   4.173
 2510SOL    MW410072   2.232   2.409   4.202
 2511SOL     OW10073   1.814   2.902   4.399
 2511SOL    HW210074   1.825   2.886   4.305
 2511SOL    HW310075   1.901   2.923   4.431
 2511SOL    MW410076   1.827   2.903   4.391
 2512SOL     OW10077   1.785   2.783   4.134
 2512SOL    HW210078   1.864   2.734   4.158
 2512SOL    HW310079   1.817   2.865   4.099
 2512SOL    MW410080   1.800   2.787   4.133
 2513SOL     OW10081   2.047   3.160   4.309
 2513SOL    HW210082   2.049   3.089   4.374
 2513SOL    HW310083   2.017   3.117   4.229
 2513SOL    MW410084   2.043   3.145   4.307
 2514SOL     OW10085   2.180   2.886   4.125
 2514SOL    HW210086   2.263   2.933   4.114
 2514SOL    HW310087   2.186   2.846   4.212
 2514SOL    MW410088   2.192   2.887   4.135
 2515SOL     OW10089   1.763   3.234   4.256
 2515SOL    HW210090   1.766   3.327   4.233
 2515SOL    HW310091   1.855   3.207   4.258
 2515SOL    MW410092   1.776   3.243   4.253
 2516SOL     OW10093   1.794   3.482   4.170
 2516SOL    HW210094   1.729   3.545   4.199
 2516SOL    HW310095   1.796   3.492   4.075
 2516SOL    MW410096   1.786   3.492   4.161
 2517SOL     OW10097   2.044   3.582   4.259
 2517SOL    HW210098   2.061   3.664   4.212
 2517SOL    HW310099   1.961   3.551   4.223
 2517SOL    MW410100   2.035   3.589   4.248
 2518SOL     OW10101   2.060   3.819   4.143
 2518SOL    HW210102   1.981   3.852   4.184
 2518SOL    HW310103   2.057   3.855   4.054
 2518SOL    MW410104   2.049   3.828   4.136
 2519SOL     OW10105   1.835   3.958   4.232
 2519SOL    HW210106   1.834   4.053   4.230
 2519SOL    HW310107   1.743   3.933   4.224
 2519SOL    MW410108   1.823   3.967   4.231
 2520SOL     OW10109   1.826   4.235   4.185
 2520SOL    HW210110   1.896   4.282   4.230
 2520SOL    HW310111   1.845   4.246   4.092
 2520SOL    MW410112   1.838   4.243   4.178
 2521SOL     OW10113   2.054   4.395   4.274
 2521SOL    HW210114   2.041   4.400   4.369
 2521SOL    HW310115   2.050   4.486   4.245
 2521SOL    MW410116   2.052   4.408   4.283
 2522SOL     OW10117   2.450   4.622   4.140
 2522SOL    HW210118   2.513   4.667   4.195
 2522SOL    HW310119   2.445   4.533   4.176
 2522SOL    MW410120   2.458   4.616   4.152
 2523SOL     OW10121   2.248   0.079   4.289
 2523SOL    HW210122   2.318   0.025   4.252
 2523SOL    HW310123   2.170   0.055   4.238
 2523SOL    MW410124   2.247   0.069   4.277
 2524SOL     OW10125   2.239   0.315   4.157
 2524SOL    HW210126   2.272   0.236   4.200
 2524SOL    HW310127   2.261   0.304   4.065
 2524SOL    MW410128   2.246   0.303   4.151
 2525SOL     OW10129   2.407   0.530   4.227
 2525SOL    HW210130   2.386   0.556   4.317
 2525SOL    HW310131   2.335   0.472   4.201
 2525SOL    MW410132   2.395   0.526   4.235
 2526SOL     OW10133   2.434   0.789   4.139
 2526SOL    HW210134   2.418   0.696   4.159
 2526SOL    HW310135   2.443   0.792   4.044
 2526SOL    MW410136   2.433   0.777   4.129
 2527SOL     OW10137   2.215   0.928   4.253
 2527SOL    HW210138   2.203   0.907   4.346
 2527SOL    HW310139   2.298   0.887   4.230
 2527SOL    MW410140   2.224   0.920   4.263
 2528SOL     OW10141   2.227   1.172   4.125
 2528SOL    HW210142   2.304   1.218   4.158
 2528SOL    HW310143   2.227   1.088   4.171
 2528SOL    MW410144   2.237   1.167   4.135
 2529SOL     OW10145   2.464   1.286   4.198
 2529SOL    HW210146   2.483   1.292   4.292
 2529SOL    HW310147   2.543   1.248   4.160
 2529SOL    MW410148   2.477   1.282   4.206
 2530SOL     OW10149   2.424   1.571   4.137
 2530SOL    HW210150   2.414   1.477   4.152
 2530SOL    HW310151   2.449   1.578   4.045
 2530SOL    MW410152   2.426   1.559   4.127
 2531SOL     OW10153   2.237   1.750   4.238
 2531SOL    HW210154   2.313   1.704   4.202
 2531SOL    HW310155   2.249   1.841   4.212
 2531SOL    MW410156   2.249   1.756   4.230
 2532SOL     OW10157   2.266   2.011   4.164
 2532SOL    HW210158   2.349   2.041   4.202
 2532SOL    HW310159   2.202   2.077   4.189
 2532SOL    MW410160   2.269   2.023   4.172
 2533SOL     OW10161   2.476   2.076   4.326
 2533SOL    HW210162   2.478   2.034   4.412
 2533SOL    HW310163   2.547   2.036   4.277
 2533SOL    MW410164   2.485   2.065   4.331
 2534SOL     OW10165   2.491   2.372   4.167
 2534SOL    HW210166   2.517   2.317   4.241
 2534SOL    HW310167   2.503   2.317   4.090
 2534SOL    MW410168   2.496   2.358   4.167
 2535SOL     OW10169   2.496   2.433   4.619
 2535SOL    HW210170   2.434   2.451   4.549
 2535SOL    HW310171   2.551   2.512   4.625
 2535SOL    MW410172   2.495   2.446   4.611
 2536SOL     OW10173   2.029   2.662   4.223
 2536SOL    HW210174   2.080   2.709   4.289
 2536SOL    HW310175   2.086   2.590   4.196
 2536SOL    MW410176   2.043   2.659   4.228
 2537SOL     OW10177   2.484   2.797   4.336
 2537SOL    HW210178   2.388   2.802   4.334
 2537SOL    HW310179   2.510   2.865   4.397
 2537SOL    MW410180   2.475   2.806   4.344
 2538SOL     OW10181   2.413   3.058   4.086
 2538SOL    HW210182   2.488   3.002   4.107
 2538SOL    HW310183   2.408   3.118   4.161
 2538SOL    MW410184   2.422   3.059   4.099
 2539SOL     OW10185   1.943   3.014   4.069
 2539SOL    HW210186   1.970   3.057   3.988
 2539SOL    HW310187   2.016   2.955   4.091
 2539SOL    MW410188   1.957   3.012   4.062
 2540SOL     OW10189   2.245   3.455   4.134
 2540SOL    HW210190   2.266   3.375   4.181
 2540SOL    HW310191   2.167   3.490   4.178
 2540SOL    MW410192   2.237   3.449   4.146
 2541SOL     OW10193   2.496   3.595   4.143
 2541SOL    HW210194   2.404   3.571   4.135
 2541SOL    HW310195   2.495   3.685   4.174
 2541SOL    MW410196   2.484   3.603   4.146
 2542SOL     OW10197   2.486   3.873   4.162
 2542SOL    HW210198   2.564   3.908   4.205
 2542SOL    HW310199   2.496   3.897   4.070
 2542SOL    MW410200   2.497   3.881   4.155
 2543SOL     OW10201   2.250   3.989   4.259
 2543SOL    HW210202   2.336   3.948   4.251
 2543SOL    HW310203   2.190   3.928   4.216
 2543SOL    MW410204   2.254   3.976   4.252
 2544SOL     OW10205   2.245   4.240   4.152
 2544SOL    HW210206   2.235   4.149   4.180
 2544SOL    HW310207   2.173   4.287   4.195
 2544SOL    MW410208   2.234   4.234   4.161
 2545SOL     OW10209   2.470   4.365   4.263
 2545SOL    HW210210   2.547   4.325   4.224
 2545SOL    HW310211   2.396   4.317   4.225
 2545SOL    MW410212   2.470   4.354   4.253
 2546SOL     OW10213   2.917   4.665   4.124
 2546SOL    HW210214   2.989   4.707   4.171
 2546SOL    HW310215   2.915   4.575   4.158
 2546SOL    MW410216   2.926   4.659   4.135
 2547SOL     OW10217   2.674   0.106   4.281
 2547SOL    HW210218   2.670   0.202   4.276
 2547SOL    HW310219   2.757   0.083   4.238
 2547SOL    MW410220   2.685   0.116   4.275
 2548SOL     OW10221   2.633   0.358   4.189
 2548SOL    HW210222   2.558   0.417   4.199
 2548SOL    HW310223   2.648   0.354   4.094
 2548SOL    MW410224   2.625   0.365   4.178
 2549SOL     OW10225   2.876   0.468   4.295
 2549SOL    HW210226   2.866   0.558   4.264
 2549SOL    HW310227   2.800   0.422   4.258
 2549SOL    MW410228   2.864   0.474   4.286
 2550SOL     OW10229   2.884   0.723   4.173
 2550SOL    HW210230   2.968   0.756   4.205
 2550SOL    HW310231   2.885   0.740   4.079
 2550SOL    MW410232   2.895   0.729   4.165
 2551SOL     OW10233   2.669   0.866   4.281
 2551SOL    HW210234   2.750   0.828   4.247
 2551SOL    HW310235   2.600   0.822   4.231
 2551SOL    MW410236   2.670   0.855   4.270
 2552SOL     OW10237   2.694   1.119   4.200
 2552SOL    HW210238   2.692   1.039   4.253
 2552SOL    HW310239   2.702   1.088   4.110
 2552SOL    MW410240   2.695   1.104   4.195
 2553SOL     OW10241   2.926   1.274   4.237
 2553SOL    HW210242   2.976   1.212   4.184
 2553SOL    HW310243   2.837   1.238   4.238
 2553SOL    MW410244   2.921   1.261   4.230
 2554SOL     OW10245   2.912   1.512   4.110
 2554SOL    HW210246   2.991   1.557   4.140
 2554SOL    HW310247   2.905   1.436   4.167
 2554SOL    MW410248   2.922   1.508   4.121
 2555SOL     OW10249   2.679   1.667   4.210
 2555SOL    HW210250   2.752   1.612   4.180
 2555SOL    HW310251   2.601   1.616   4.188
 2555SOL    MW410252   2.679   1.653   4.203
 2556SOL     OW10253   2.670   1.968   4.159
 2556SOL    HW210254   2.651   1.875   4.176
 2556SOL    HW310255   2.684   1.973   4.065
 2556SOL    MW410256   2.669   1.956   4.149
 2557SOL     OW10257   2.899   2.105   4.199
 2557SOL    HW210258   2.876   2.192   4.169
 2557SOL    HW310259   2.818   2.055   4.192
 2557SOL    MW410260   2.885   2.110   4.194
 2558SOL     OW10261   2.871   2.395   4.170
 2558SOL    HW210262   2.916   2.419   4.251
 2558SOL    HW310263   2.800   2.458   4.163
 2558SOL    MW410264   2.868   2.407   4.180
 2559SOL     OW10265   2.685   2.583   4.140
 2559SOL    HW210266   2.706   2.627   4.222
 2559SOL    HW310267   2.607   2.531   4.160
 2559SOL    MW410268   2.677   2.582   4.153
 2560SOL     OW10269   2.679   2.936   4.162
 2560SOL    HW210270   2.620   2.892   4.223
 2560SOL    HW310271   2.699   3.020   4.204
 2560SOL    MW410272   2.674   2.941   4.175
 2561SOL     OW10273   2.960   2.913   4.127
 2561SOL    HW210274   2.865   2.905   4.137
 2561SOL    HW310275   2.972   2.967   4.050
 2561SOL    MW410276   2.949   2.919   4.118
 2562SOL     OW10277   2.983   3.103   4.322
 2562SOL    HW210278   2.954   3.059   4.402
 2562SOL    HW310279   2.993   3.032   4.258
 2562SOL    MW410280   2.980   3.087   4.324
 2563SOL     OW10281   2.746   3.187   4.277
 2563SOL    HW210282   2.715   3.223   4.360
 2563SOL    HW310283   2.837   3.163   4.294
 2563SOL    MW410284   2.754   3.189   4.290
 2564SOL     OW10285   2.746   3.463   4.147
 2564SOL    HW210286   2.737   3.375   4.184
 2564SOL    HW310287   2.659   3.501   4.155
 2564SOL    MW410288   2.734   3.456   4.153
 2565SOL     OW10289   2.930   3.599   4.280
 2565SOL    HW210290   2.929   3.576   4.373
 2565SOL    HW310291   2.862   3.543   4.242
 2565SOL    MW410292   2.920   3.588   4.287
 2566SOL     OW10293   2.920   3.835   4.170
 2566SOL    HW210294   2.993   3.892   4.196
 2566SOL    HW310295   2.934   3.754   4.219
 2566SOL    MW410296   2.932   3.832   4.180
 2567SOL     OW10297   2.712   3.993   4.266
 2567SOL    HW210298   2.715   4.084   4.237
 2567SOL    HW310299   2.782   3.950   4.217
 2567SOL    MW410300   2.722   3.999   4.256
 2568SOL     OW10301   2.695   4.254   4.154
 2568SOL    HW210302   2.762   4.315   4.187
 2568SOL    HW310303   2.687   4.276   4.061
 2568SOL    MW410304   2.703   4.265   4.146
 2569SOL     OW10305   2.929   4.409   4.242
 2569SOL    HW210306   2.947   4.417   4.336
 2569SOL    HW310307   3.007   4.368   4.205
 2569SOL    MW410308   2.942   4.404   4.250
 2570SOL     OW10309   3.334   4.658   4.199
 2570SOL    HW210310   3.417   4.694   4.230
 2570SOL    HW310311   3.330   4.569   4.234
 2570SOL    MW410312   3.344   4.651   4.208
 2571SOL     OW10313   3.112   0.133   4.286
 2571SOL    HW210314   3.084   0.091   4.367
 2571SOL    HW310315   3.189   0.082   4.259
 2571SOL    MW410316   3.119   0.120   4.293
 2572SOL     OW10317   3.080   0.379   4.143
 2572SOL    HW210318   3.085   0.292   4.184
 2572SOL    HW310319   3.010   0.423   4.190
 2572SOL    MW410320   3.072   0.373   4.154
 2573SOL     OW10321   3.325   0.456   4.284
 2573SOL    HW210322   3.400   0.417   4.240
 2573SOL    HW310323   3.249   0.421   4.238
 2573SOL    MW410324   3.325   0.446   4.272
 2574SOL     OW10325   3.364   0.721   4.173
 2574SOL    HW210326   3.293   0.773   4.210
 2574SOL    HW310327   3.365   0.641   4.225
 2574SOL    MW410328   3.355   0.717   4.185
 2575SOL     OW10329   3.137   0.844   4.254
 2575SOL    HW210330   3.109   0.871   4.341
 2575SOL    HW310331   3.114   0.917   4.197
 2575SOL    MW410332   3.130   0.857   4.258
 2576SOL     OW10333   3.126   1.099   4.109
 2576SOL    HW210334   3.205   1.119   4.160
 2576SOL    HW310335   3.144   1.137   4.022
 2576SOL    MW410336   3.139   1.107   4.104
 2577SOL     OW10337   3.346   1.199   4.260
 2577SOL    HW210338   3.354   1.182   4.354
 2577SOL    HW310339   3.340   1.294   4.252
 2577SOL    MW410340   3.346   1.209   4.271
 2578SOL     OW10341   3.303   1.472   4.257
 2578SOL    HW210342   3.222   1.519   4.236
 2578SOL    HW310343   3.366   1.502   4.191
 2578SOL    MW410344   3.300   1.482   4.245
 2579SOL     OW10345   3.129   1.664   4.195
 2579SOL    HW210346   3.091   1.670   4.283
 2579SOL    HW310347   3.139   1.755   4.168
 2579SOL    MW410348   3.125   1.677   4.203
 2580SOL     OW10349   3.111   1.934   4.139
 2580SOL    HW210350   3.193   1.974   4.167
 2580SOL    HW310351   3.045   2.002   4.150
 2580SOL    MW410352   3.113   1.948   4.145
 2581SOL     OW10353   3.313   2.096   4.223
 2581SOL    HW210354   3.399   2.057   4.209
 2581SOL    HW310355   3.320   2.184   4.187
 2581SOL    MW410356   3.325   2.103   4.217
 2582SOL     OW10357   3.376   2.343   4.123
 2582SOL    HW210358   3.456   2.369   4.169
 2582SOL    HW310359   3.402   2.339   4.031
 2582SOL    MW410360   3.390   2.346   4.117
 2583SOL     OW10361   3.263   2.522   4.297
 2583SOL    HW210362   3.223   2.586   4.238
 2583SOL    HW310363   3.303   2.457   4.240
 2583SOL    MW410364   3.263   2.521   4.282
 2584SOL     OW10365   3.169   2.717   4.119
 2584SOL    HW210366   3.237   2.766   4.166
 2584SOL    HW310367   3.089   2.767   4.135
 2584SOL    MW410368   3.168   2.730   4.127
 2585SOL     OW10369   3.368   2.853   4.272
 2585SOL    HW210370   3.452   2.809   4.282
 2585SOL    HW310371   3.389   2.938   4.232
 2585SOL    MW410372   3.382   2.859   4.268
 2586SOL     OW10373   3.406   3.133   4.168
 2586SOL    HW210374   3.337   3.181   4.213
 2586SOL    HW310375   3.387   3.145   4.075
 2586SOL    MW410376   3.395   3.141   4.161
 2587SOL     OW10377   3.213   3.258   4.299
 2587SOL    HW210378   3.176   3.327   4.244
 2587SOL    HW310379   3.139   3.199   4.315
 2587SOL    MW410380   3.198   3.259   4.294
 2588SOL     OW10381   3.150   3.496   4.173
 2588SOL    HW210382   3.068   3.531   4.206
 2588SOL    HW310383   3.138   3.492   4.078
 2588SOL    MW410384   3.138   3.500   4.165
 2589SOL     OW10385   3.391   3.610   4.267
 2589SOL    HW210386   3.390   3.599   4.362
 2589SOL    HW310387   3.304   3.582   4.239
 2589SOL    MW410388   3.379   3.605   4.276
 2590SOL     OW10389   3.382   3.868   4.161
 2590SOL    HW210390   3.396   3.792   4.217
 2590SOL    HW310391   3.372   3.831   4.073
 2590SOL    MW410392   3.383   3.853   4.157
 2591SOL     OW10393   3.146   3.985   4.235
 2591SOL    HW210394   3.130   3.990   4.329
 2591SOL    HW310395   3.226   3.933   4.226
 2591SOL    MW410396   3.154   3.979   4.246
 2592SOL     OW10397   3.131   4.246   4.117
 2592SOL    HW210398   3.189   4.285   4.182
 2592SOL    HW310399   3.137   4.152   4.133
 2592SOL    MW410400   3.139   4.239   4.127
 2593SOL     OW10401   3.320   4.381   4.264
 2593SOL    HW210402   3.330   4.367   4.358
 2593SOL    HW310403   3.397   4.340   4.225
 2593SOL    MW410404   3.332   4.374   4.271
 2594SOL     OW10405   3.782   4.633   4.166
 2594SOL    HW210406   3.855   4.679   4.208
 2594SOL    HW310407   3.797   4.644   4.072
 2594SOL    MW410408   3.794   4.641   4.159
 2595SOL     OW10409   3.584   0.085   4.292
 2595SOL    HW210410   3.584   0.177   4.264
 2595SOL    HW310411   3.653   0.045   4.239
 2595SOL    MW410412   3.593   0.092   4.281
 2596SOL     OW10413   3.575   0.349   4.195
 2596SOL    HW210414   3.637   0.412   4.231
 2596SOL    HW310415   3.593   0.348   4.101
 2596SOL    MW410416   3.586   0.357   4.187
 2597SOL     OW10417   3.800   0.494   4.282
 2597SOL    HW210418   3.844   0.489   4.366
 2597SOL    HW310419   3.807   0.586   4.256
 2597SOL    MW410420   3.806   0.505   4.290
 2598SOL     OW10421   3.810   0.748   4.188
 2598SOL    HW210422   3.734   0.804   4.200
 2598SOL    HW310423   3.814   0.732   4.094
 2598SOL    MW410424   3.801   0.753   4.177
 2599SOL     OW10425   3.582   0.895   4.204
 2599SOL    HW210426   3.567   0.980   4.163
 2599SOL    HW310427   3.500   0.847   4.193
 2599SOL    MW410428   3.570   0.900   4.197
 2600SOL     OW10429   3.575   1.166   4.111
 2600SOL    HW210430   3.494   1.177   4.160
 2600SOL    HW310431   3.546   1.162   4.019
 2600SOL    MW410432   3.560   1.167   4.105
 2601SOL     OW10433   3.822   1.219   4.228
 2601SOL    HW210434   3.743   1.187   4.186
 2601SOL    HW310435   3.816   1.186   4.318
 2601SOL    MW410436   3.811   1.210   4.234
 2602SOL     OW10437   3.787   1.496   4.165
 2602SOL    HW210438   3.799   1.404   4.185
 2602SOL    HW310439   3.817   1.542   4.243
 2602SOL    MW410440   3.793   1.490   4.178
 2603SOL     OW10441   3.557   2.001   4.162
 2603SOL    HW210442   3.589   1.993   4.072
 2603SOL    HW310443   3.555   1.911   4.195
 2603SOL    MW410444   3.561   1.988   4.154
 2604SOL     OW10445   3.520   1.541   4.101
 2604SOL    HW210446   3.612   1.515   4.101
 2604SOL    HW310447   3.489   1.519   4.013
 2604SOL    MW410448   3.528   1.535   4.089
 2605SOL     OW10449   3.800   2.068   4.302
 2605SOL    HW210450   3.781   2.070   4.396
 2605SOL    HW310451   3.718   2.043   4.261
 2605SOL    MW410452   3.787   2.065   4.309
 2606SOL     OW10453   3.859   2.322   4.191
 2606SOL    HW210454   3.853   2.235   4.229
 2606SOL    HW310455   3.849   2.308   4.097
 2606SOL    MW410456   3.857   2.309   4.184
 2607SOL     OW10457   3.601   2.419   4.279
 2607SOL    HW210458   3.619   2.415   4.373
 2607SOL    HW310459   3.678   2.382   4.237
 2607SOL    MW410460   3.613   2.414   4.286
 2608SOL     OW10461   3.610   2.691   4.229
 2608SOL    HW210462   3.622   2.602   4.262
 2608SOL    HW310463   3.605   2.681   4.134
 2608SOL    MW410464   3.611   2.678   4.221
 2609SOL     OW10465   3.820   2.851   4.237
 2609SOL    HW210466   3.823   2.879   4.329
 2609SOL    HW310467   3.740   2.798   4.231
 2609SOL    MW410468   3.810   2.848   4.249
 2610SOL     OW10469   3.854   3.111   4.144
 2610SOL    HW210470   3.839   3.019   4.165
 2610SOL    HW310471   3.855   3.114   4.049
 2610SOL    MW410472   3.852   3.099   4.134
 2611SOL     OW10473   3.641   3.234   4.278
 2611SOL    HW210474   3.708   3.207   4.215
 2611SOL    HW310475   3.561   3.191   4.248
 2611SOL    MW410476   3.640   3.225   4.266
 2612SOL     OW10477   3.634   3.485   4.182
 2612SOL    HW210478   3.624   3.399   4.221
 2612SOL    HW310479   3.553   3.531   4.205
 2612SOL    MW410480   3.622   3.480   4.190
 2613SOL     OW10481   3.838   3.619   4.330
 2613SOL    HW210482   3.922   3.608   4.286
 2613SOL    HW310483   3.778   3.560   4.284
 2613SOL    MW410484   3.841   3.610   4.319
 2614SOL     OW10485   3.850   3.864   4.179
 2614SOL    HW210486   3.773   3.918   4.194
 2614SOL    HW310487   3.829   3.780   4.220
 2614SOL    MW410488   3.837   3.860   4.187
 2615SOL     OW10489   3.611   3.994   4.259
 2615SOL    HW210490   3.606   4.007   4.353
 2615SOL    HW310491   3.527   3.954   4.236
 2615SOL    MW410492   3.599   3.991   4.268
 2616SOL     OW10493   3.558   4.240   4.150
 2616SOL    HW210494   3.645   4.276   4.170
 2616SOL    HW310495   3.558   4.153   4.190
 2616SOL    MW410496   3.569   4.233   4.158
 2617SOL     OW10497   3.792   4.356   4.210
 2617SOL    HW210498   3.874   4.331   4.167
 2617SOL    HW310499   3.783   4.449   4.192
 2617SOL    MW410500   3.802   4.365   4.202
 2618SOL     OW10501   4.271   0.038   4.125
 2618SOL    HW210502   4.259  -0.053   4.150
 2618SOL    HW310503   4.354   0.064   4.166
 2618SOL    MW410504   4.281   0.030   4.133
 2619SOL     OW10505   4.018   0.112   4.242
 2619SOL    HW210506   4.003   0.204   4.221
 2619SOL    HW310507   4.104   0.092   4.205
 2619SOL    MW410508   4.027   0.121   4.235
 2620SOL     OW10509   4.008   0.373   4.136
 2620SOL    HW210510   4.081   0.405   4.187
 2620SOL    HW310511   3.931   0.418   4.172
 2620SOL    MW410512   4.007   0.383   4.147
 2621SOL     OW10513   4.250   0.461   4.233
 2621SOL    HW210514   4.257   0.556   4.221
 2621SOL    HW310515   4.335   0.427   4.206
 2621SOL    MW410516   4.262   0.469   4.228
 2622SOL     OW10517   4.282   0.728   4.224
 2622SOL    HW210518   4.204   0.766   4.265
 2622SOL    HW310519   4.267   0.738   4.130
 2622SOL    MW410520   4.270   0.734   4.217
 2623SOL     OW10521   4.060   0.900   4.271
 2623SOL    HW210522   4.093   0.982   4.234
 2623SOL    HW310523   3.974   0.887   4.230
 2623SOL    MW410524   4.053   0.909   4.261
 2624SOL     OW10525   4.067   1.151   4.142
 2624SOL    HW210526   4.134   1.204   4.186
 2624SOL    HW310527   3.985   1.173   4.188
 2624SOL    MW410528   4.065   1.161   4.154
 2625SOL     OW10529   4.282   1.268   4.281
 2625SOL    HW210530   4.267   1.254   4.375
 2625SOL    HW310531   4.354   1.209   4.260
 2625SOL    MW410532   4.290   1.258   4.291
 2626SOL     OW10533   4.303   1.518   4.167
 2626SOL    HW210534   4.310   1.440   4.222
 2626SOL    HW310535   4.296   1.484   4.078
 2626SOL    MW410536   4.303   1.504   4.163
 2627SOL     OW10537   4.128   1.698   4.285
 2627SOL    HW210538   4.165   1.711   4.372
 2627SOL    HW310539   4.175   1.622   4.250
 2627SOL    MW410540   4.139   1.689   4.292
 2628SOL     OW10541   4.018   1.907   4.151
 2628SOL    HW210542   4.050   1.836   4.206
 2628SOL    HW310543   3.934   1.932   4.189
 2628SOL    MW410544   4.011   1.901   4.163
 2629SOL     OW10545   4.453   1.929   4.137
 2629SOL    HW210546   4.530   1.969   4.179
 2629SOL    HW310547   4.378   1.972   4.178
 2629SOL    MW410548   4.453   1.940   4.148
 2630SOL     OW10549   4.242   2.328   4.179
 2630SOL    HW210550   4.194   2.380   4.243
 2630SOL    HW310551   4.235   2.238   4.212
 2630SOL    MW410552   4.234   2.323   4.192
 2631SOL     OW10553   4.056   2.453   4.355
 2631SOL    HW210554   4.108   2.384   4.398
 2631SOL    HW310555   3.991   2.405   4.304
 2631SOL    MW410556   4.054   2.437   4.354
 2632SOL     OW10557   4.052   2.695   4.191
 2632SOL    HW210558   4.051   2.610   4.235
 2632SOL    HW310559   3.962   2.727   4.198
 2632SOL    MW410560   4.040   2.688   4.198
 2633SOL     OW10561   4.268   2.864   4.274
 2633SOL    HW210562   4.194   2.805   4.259
 2633SOL    HW310563   4.341   2.824   4.226
 2633SOL    MW410564   4.268   2.851   4.266
 2634SOL     OW10565   4.279   3.124   4.185
 2634SOL    HW210566   4.271   3.036   4.222
 2634SOL    HW310567   4.277   3.110   4.090
 2634SOL    MW410568   4.278   3.111   4.177
 2635SOL     OW10569   4.049   3.239   4.289
 2635SOL    HW210570   4.136   3.204   4.270
 2635SOL    HW310571   3.991   3.194   4.228
 2635SOL    MW410572   4.053   3.228   4.278
 2636SOL     OW10573   4.078   3.522   4.211
 2636SOL    HW210574   4.066   3.440   4.259
 2636SOL    HW310575   4.096   3.495   4.121
 2636SOL    MW410576   4.079   3.508   4.206
 2637SOL     OW10577   4.323   3.636   4.288
 2637SOL    HW210578   4.325   3.725   4.254
 2637SOL    HW310579   4.234   3.606   4.269
 2637SOL    MW410580   4.312   3.644   4.281
 2638SOL     OW10581   4.339   3.887   4.151
 2638SOL    HW210582   4.257   3.931   4.171
 2638SOL    HW310583   4.343   3.886   4.055
 2638SOL    MW410584   4.329   3.893   4.141
 2639SOL     OW10585   4.086   4.000   4.218
 2639SOL    HW210586   4.074   3.997   4.312
 2639SOL    HW310587   4.002   3.973   4.181
 2639SOL    MW410588   4.073   3.996   4.225
 2640SOL     OW10589   4.049   4.278   4.128
 2640SOL    HW210590   4.119   4.335   4.160
 2640SOL    HW310591   4.069   4.192   4.166
 2640SOL    MW410592   4.061   4.274   4.137
 2641SOL     OW10593   4.017   4.233   4.596
 2641SOL    HW210594   3.994   4.206   4.685
 2641SOL    HW310595   3.942   4.284   4.567
 2641SOL    MW410596   4.004   4.236   4.604
 2642SOL     OW10597   4.306   0.238   4.795
 2642SOL    HW210598   4.385   0.288   4.770
 2642SOL    HW310599   4.234   0.287   4.755
 2642SOL    MW410600   4.307   0.251   4.786
 2643SOL     OW10601   4.227   4.393   4.507
 2643SOL    HW210602   4.212   4.474   4.555
 2643SOL    HW310603   4.158   4.334   4.537
 2643SOL    MW410604   4.216   4.396   4.517
 2644SOL     OW10605   4.023   0.094   4.517
 2644SOL    HW210606   4.033   0.098   4.421
 2644SOL    HW310607   3.934   0.060   4.529
 2644SOL    MW410608   4.012   0.090   4.506
 2645SOL     OW10609   4.212   1.661   4.552
 2645SOL    HW210610   4.303   1.678   4.576
 2645SOL    HW310611   4.187   1.585   4.605
 2645SOL    MW410612   4.221   1.653   4.562
 2646SOL     OW10613   0.522   0.019   4.558
 2646SOL    HW210614   0.428   0.013   4.575
 2646SOL    HW310615   0.551  -0.073   4.552
 2646SOL    MW410616   0.513   0.006   4.560
 2647SOL     OW10617   0.215   0.502   4.566
 2647SOL    HW210618   0.233   0.500   4.472
 2647SOL    HW310619   0.291   0.459   4.605
 2647SOL    MW410620   0.228   0.496   4.558
 2648SOL     OW10621   4.351   0.744   4.618
 2648SOL    HW210622   4.320   0.660   4.583
 2648SOL    HW310623   4.444   0.746   4.595
 2648SOL    MW410624   4.359   0.733   4.610
 2649SOL     OW10625   0.660   1.236   4.565
 2649SOL    HW210626   0.687   1.326   4.583
 2649SOL    HW310627   0.568   1.233   4.591
 2649SOL    MW410628   0.651   1.248   4.571
 2650SOL     OW10629   1.129   1.997   4.533
 2650SOL    HW210630   1.218   1.971   4.511
 2650SOL    HW310631   1.139   2.065   4.600
 2650SOL    MW410632   1.142   2.003   4.539
 2651SOL     OW10633   4.248   1.208   4.560
 2651SOL    HW210634   4.235   1.124   4.604
 2651SOL    HW310635   4.332   1.240   4.592
 2651SOL    MW410636   4.257   1.201   4.570
 2652SOL     OW10637   0.154   1.729   4.482
 2652SOL    HW210638   0.117   1.693   4.401
 2652SOL    HW310639   0.124   1.820   4.484
 2652SOL    MW410640   0.145   1.736   4.471
 2653SOL     OW10641   0.476   1.650   4.206
 2653SOL    HW210642   0.400   1.617   4.158
 2653SOL    HW310643   0.548   1.594   4.179
 2653SOL    MW410644   0.476   1.639   4.196
 2654SOL     OW10645   0.069   1.998   4.504
 2654SOL    HW210646  -0.026   2.008   4.518
 2654SOL    HW310647   0.107   2.076   4.544
 2654SOL    MW410648   0.061   2.010   4.511
 2655SOL     OW10649   4.187   2.297   4.542
 2655SOL    HW210650   4.232   2.380   4.557
 2655SOL    HW310651   4.108   2.302   4.597
 2655SOL    MW410652   4.183   2.309   4.551
 2656SOL     OW10653   0.808   3.096   4.738
 2656SOL    HW210654   0.790   3.026   4.675
 2656SOL    HW310655   0.893   3.074   4.776
 2656SOL    MW410656   0.817   3.084   4.734
 2657SOL     OW10657   0.432   3.325   4.507
 2657SOL    HW210658   0.394   3.413   4.509
 2657SOL    HW310659   0.518   3.335   4.549
 2657SOL    MW410660   0.439   3.338   4.513
 2658SOL     OW10661   0.064   2.504   4.520
 2658SOL    HW210662   0.068   2.483   4.427
 2658SOL    HW310663   0.112   2.586   4.528
 2658SOL    MW410664   0.071   2.512   4.509
 2659SOL     OW10665   4.001   3.495   4.554
 2659SOL    HW210666   3.933   3.507   4.487
 2659SOL    HW310667   3.992   3.403   4.580
 2659SOL    MW410668   3.991   3.485   4.548
 2660SOL     OW10669   0.602   3.701   4.483
 2660SOL    HW210670   0.598   3.776   4.543
 2660SOL    HW310671   0.514   3.664   4.485
 2660SOL    MW410672   0.590   3.706   4.491
 2661SOL     OW10673   4.235   3.867   4.666
 2661SOL    HW210674   4.176   3.908   4.603
 2661SOL    HW310675   4.246   3.777   4.633
 2661SOL    MW410676   4.229   3.860   4.654
 2662SOL     OW10677   0.015   0.101   4.494
 2662SOL    HW210678  -0.071   0.068   4.522
 2662SOL    HW310679   0.018   0.191   4.527
 2662SOL    MW410680   0.004   0.109   4.502
 2663SOL     OW10681   3.876   0.504   4.555
 2663SOL    HW210682   3.792   0.462   4.572
 2663SOL    HW310683   3.866   0.592   4.592
 2663SOL    MW410684   3.863   0.510   4.562
 2664SOL     OW10685   4.048   3.810   4.852
 2664SOL    HW210686   4.105   3.790   4.927
 2664SOL    HW310687   4.108   3.832   4.781
 2664SOL    MW410688   4.063   3.810   4.853
 2665SOL     OW10689   3.868   4.143   4.852
 2665SOL    HW210690   3.888   4.057   4.889
 2665SOL    HW310691   3.774   4.140   4.833
 2665SOL    MW410692   3.858   4.132   4.854
 2666SOL     OW10693   0.627   4.423   4.519
 2666SOL    HW210694   0.645   4.430   4.425
 2666SOL    HW310695   0.592   4.334   4.529
 2666SOL    MW410696   0.625   4.412   4.508
 2667SOL     OW10697   4.192   0.975   4.699
 2667SOL    HW210698   4.257   0.908   4.677
 2667SOL    HW310699   4.162   0.950   4.787
 2667SOL    MW410700   4.196   0.963   4.708
 2668SOL     OW10701   1.315   0.733   4.685
 2668SOL    HW210702   1.228   0.701   4.660
 2668SOL    HW310703   1.305   0.761   4.776
 2668SOL    MW410704   1.302   0.733   4.693
 2669SOL     OW10705   0.894   0.391   4.655
 2669SOL    HW210706   0.953   0.330   4.612
 2669SOL    HW310707   0.826   0.336   4.694
 2669SOL    MW410708   0.893   0.376   4.654
 2670SOL     OW10709   0.912   0.856   4.520
 2670SOL    HW210710   0.924   0.877   4.427
 2670SOL    HW310711   0.819   0.836   4.528
 2670SOL    MW410712   0.901   0.856   4.508
 2671SOL     OW10713   0.399   0.927   4.525
 2671SOL    HW210714   0.316   0.891   4.556
 2671SOL    HW310715   0.401   0.906   4.432
 2671SOL    MW410716   0.388   0.920   4.517
 2672SOL     OW10717   2.138   1.256   4.518
 2672SOL    HW210718   2.088   1.260   4.436
 2672SOL    HW310719   2.196   1.331   4.514
 2672SOL    MW410720   2.139   1.266   4.507
 2673SOL     OW10721   0.414   1.606   4.485
 2673SOL    HW210722   0.341   1.663   4.506
 2673SOL    HW310723   0.436   1.627   4.394
 2673SOL    MW410724   0.407   1.616   4.476
 2674SOL     OW10725   1.350   1.215   4.524
 2674SOL    HW210726   1.359   1.121   4.542
 2674SOL    HW310727   1.256   1.232   4.530
 2674SOL    MW410728   1.339   1.205   4.527
 2675SOL     OW10729   0.974   1.539   4.498
 2675SOL    HW210730   0.878   1.541   4.507
 2675SOL    HW310731   1.007   1.583   4.576
 2675SOL    MW410732   0.965   1.545   4.509
 2676SOL     OW10733   0.669   2.167   4.514
 2676SOL    HW210734   0.716   2.251   4.513
 2676SOL    HW310735   0.731   2.105   4.551
 2676SOL    MW410736   0.683   2.170   4.519
 2677SOL     OW10737   1.137   1.714   4.650
 2677SOL    HW210738   1.214   1.670   4.614
 2677SOL    HW310739   1.133   1.798   4.604
 2677SOL    MW410740   1.147   1.719   4.640
 2678SOL     OW10741   0.448   2.315   4.522
 2678SOL    HW210742   0.525   2.259   4.524
 2678SOL    HW310743   0.452   2.357   4.435
 2678SOL    MW410744   0.459   2.313   4.511
 2679SOL     OW10745   1.115   2.661   4.756
 2679SOL    HW210746   1.093   2.731   4.694
 2679SOL    HW310747   1.208   2.647   4.744
 2679SOL    MW410748   1.124   2.669   4.746
 2680SOL     OW10749   0.724   2.642   4.647
 2680SOL    HW210750   0.772   2.616   4.725
 2680SOL    HW310751   0.731   2.568   4.587
 2680SOL    MW410752   0.731   2.629   4.649
 2681SOL     OW10753   0.951   3.309   4.513
 2681SOL    HW210754   0.864   3.309   4.552
 2681SOL    HW310755   1.003   3.251   4.569
 2681SOL    MW410756   0.946   3.301   4.525
 2682SOL     OW10757   0.751   3.590   4.705
 2682SOL    HW210758   0.697   3.636   4.640
 2682SOL    HW310759   0.835   3.635   4.702
 2682SOL    MW410760   0.755   3.602   4.696
 2683SOL     OW10761   1.276   4.625   4.545
 2683SOL    HW210762   1.207   4.560   4.558
 2683SOL    HW310763   1.356   4.580   4.572
 2683SOL    MW410764   1.277   4.611   4.551
 2684SOL     OW10765   0.214   2.748   4.495
 2684SOL    HW210766   0.304   2.725   4.520
 2684SOL    HW310767   0.223   2.789   4.409
 2684SOL    MW410768   0.227   2.750   4.487
 2685SOL     OW10769   0.083   3.502   4.605
 2685SOL    HW210770   0.071   3.407   4.613
 2685SOL    HW310771  -0.004   3.538   4.623
 2685SOL    MW410772   0.070   3.494   4.608
 2686SOL     OW10773   1.222   3.740   4.871
 2686SOL    HW210774   1.170   3.776   4.943
 2686SOL    HW310775   1.159   3.726   4.801
 2686SOL    MW410776   1.207   3.743   4.871
 2687SOL     OW10777   4.479   4.280   4.544
 2687SOL    HW210778   4.469   4.185   4.549
 2687SOL    HW310779   4.389   4.313   4.539
 2687SOL    MW410780   4.466   4.272   4.544
 2688SOL     OW10781   4.475   4.004   4.556
 2688SOL    HW210782   4.564   3.973   4.569
 2688SOL    HW310783   4.421   3.944   4.607
 2688SOL    MW410784   4.479   3.992   4.564
 2689SOL     OW10785   0.245   4.618   4.579
 2689SOL    HW210786   0.185   4.687   4.549
 2689SOL    HW310787   0.208   4.588   4.662
 2689SOL    MW410788   0.232   4.623   4.586
 2690SOL     OW10789   0.680   0.182   4.723
 2690SOL    HW210790   0.688   0.135   4.806
 2690SOL    HW310791   0.636   0.120   4.665
 2690SOL    MW410792   0.675   0.167   4.727
 2691SOL     OW10793   1.146   4.387   4.557
 2691SOL    HW210794   1.206   4.313   4.566
 2691SOL    HW310795   1.066   4.358   4.601
 2691SOL    MW410796   1.143   4.374   4.564
 2692SOL     OW10797   0.680   0.503   4.520
 2692SOL    HW210798   0.702   0.511   4.427
 2692SOL    HW310799   0.761   0.472   4.561
 2692SOL    MW410800   0.694   0.500   4.513
 2693SOL     OW10801   1.420   0.950   4.525
 2693SOL    HW210802   1.394   0.929   4.436
 2693SOL    HW310803   1.394   0.873   4.576
 2693SOL    MW410804   1.413   0.937   4.520
 2694SOL     OW10805   1.714   1.062   4.631
 2694SOL    HW210806   1.761   0.991   4.587
 2694SOL    HW310807   1.623   1.033   4.632
 2694SOL    MW410808   1.709   1.048   4.625
 2695SOL     OW10809   0.414   1.185   4.645
 2695SOL    HW210810   0.412   1.095   4.613
 2695SOL    HW310811   0.348   1.187   4.714
 2695SOL    MW410812   0.405   1.173   4.650
 2696SOL     OW10813   0.860   2.017   4.627
 2696SOL    HW210814   0.878   2.049   4.716
 2696SOL    HW310815   0.947   2.009   4.587
 2696SOL    MW410816   0.874   2.020   4.634
 2697SOL     OW10817   0.897   1.118   4.624
 2697SOL    HW210818   0.806   1.144   4.608
 2697SOL    HW310819   0.907   1.034   4.581
 2697SOL    MW410820   0.887   1.111   4.616
 2698SOL     OW10821   1.955   1.195   4.755
 2698SOL    HW210822   1.877   1.145   4.732
 2698SOL    HW310823   2.003   1.205   4.673
 2698SOL    MW410824   1.951   1.190   4.741
 2699SOL     OW10825   1.071   1.284   4.495
 2699SOL    HW210826   1.005   1.229   4.537
 2699SOL    HW310827   1.032   1.372   4.492
 2699SOL    MW410828   1.057   1.289   4.500
 2700SOL     OW10829   1.038   2.441   4.616
 2700SOL    HW210830   1.066   2.513   4.674
 2700SOL    HW310831   1.108   2.433   4.551
 2700SOL    MW410832   1.051   2.450   4.615
 2701SOL     OW10833   1.686   2.490   4.737
 2701SOL    HW210834   1.740   2.482   4.815
 2701SOL    HW310835   1.720   2.567   4.691
 2701SOL    MW410836   1.697   2.499   4.741
 2702SOL     OW10837   1.423   2.870   4.580
 2702SOL    HW210838   1.419   2.788   4.631
 2702SOL    HW310839   1.494   2.920   4.620
 2702SOL    MW410840   1.432   2.866   4.592
 2703SOL     OW10841   1.372   3.346   4.521
 2703SOL    HW210842   1.285   3.385   4.513
 2703SOL    HW310843   1.384   3.298   4.439
 2703SOL    MW410844   1.362   3.345   4.509
 2704SOL     OW10845   0.797   2.881   4.528
 2704SOL    HW210846   0.892   2.865   4.520
 2704SOL    HW310847   0.763   2.800   4.567
 2704SOL    MW410848   0.805   2.868   4.532
 2705SOL     OW10849   0.492   4.177   4.546
 2705SOL    HW210850   0.417   4.234   4.532
 2705SOL    HW310851   0.506   4.134   4.462
 2705SOL    MW410852   0.484   4.179   4.533
 2706SOL     OW10853   1.066   2.845   4.536
 2706SOL    HW210854   1.085   2.811   4.448
 2706SOL    HW310855   1.095   2.937   4.533
 2706SOL    MW410856   1.073   2.853   4.524
 2707SOL     OW10857   0.679   3.335   4.640
 2707SOL    HW210858   0.713   3.270   4.701
 2707SOL    HW310859   0.698   3.420   4.681
 2707SOL    MW410860   0.686   3.338   4.653
 2708SOL     OW10861   1.472   3.616   4.505
 2708SOL    HW210862   1.563   3.614   4.536
 2708SOL    HW310863   1.444   3.525   4.509
 2708SOL    MW410864   1.481   3.604   4.510
 2709SOL     OW10865   0.630   3.942   4.619
 2709SOL    HW210866   0.593   4.027   4.592
 2709SOL    HW310867   0.725   3.956   4.617
 2709SOL    MW410868   0.638   3.955   4.616
 2710SOL     OW10869   0.227   3.908   4.609
 2710SOL    HW210870   0.241   3.818   4.578
 2710SOL    HW310871   0.314   3.944   4.619
 2710SOL    MW410872   0.240   3.901   4.606
 2711SOL     OW10873   0.897   4.299   4.653
 2711SOL    HW210874   0.878   4.206   4.662
 2711SOL    HW310875   0.823   4.334   4.603
 2711SOL    MW410876   0.885   4.292   4.647
 2712SOL     OW10877   0.257   4.351   4.482
 2712SOL    HW210878   0.269   4.440   4.517
 2712SOL    HW310879   0.168   4.327   4.506
 2712SOL    MW410880   0.247   4.360   4.490
 2713SOL     OW10881   2.105   3.842   4.546
 2713SOL    HW210882   2.018   3.880   4.538
 2713SOL    HW310883   2.090   3.750   4.564
 2713SOL    MW410884   2.092   3.835   4.547
 2714SOL     OW10885   1.549   4.438   4.564
 2714SOL    HW210886   1.632   4.481   4.586
 2714SOL    HW310887   1.562   4.404   4.476
 2714SOL    MW410888   1.562   4.439   4.556
 2715SOL     OW10889   1.385   4.215   4.593
 2715SOL    HW210890   1.438   4.293   4.583
 2715SOL    HW310891   1.448   4.143   4.590
 2715SOL    MW410892   1.400   4.215   4.591
 2716SOL     OW10893   1.067   0.641   4.591
 2716SOL    HW210894   1.019   0.723   4.585
 2716SOL    HW310895   1.000   0.576   4.615
 2716SOL    MW410896   1.052   0.643   4.593
 2717SOL     OW10897   1.877   0.059   4.556
 2717SOL    HW210898   1.825  -0.005   4.603
 2717SOL    HW310899   1.967   0.043   4.584
 2717SOL    MW410900   1.882   0.049   4.566
 2718SOL     OW10901   1.225   0.426   4.490
 2718SOL    HW210902   1.207   0.507   4.537
 2718SOL    HW310903   1.171   0.360   4.533
 2718SOL    MW410904   1.216   0.428   4.502
 2719SOL     OW10905   1.792   1.764   4.522
 2719SOL    HW210906   1.747   1.696   4.571
 2719SOL    HW310907   1.795   1.731   4.432
 2719SOL    MW410908   1.786   1.751   4.516
 2720SOL     OW10909   0.640   0.789   4.515
 2720SOL    HW210910   0.553   0.824   4.535
 2720SOL    HW310911   0.629   0.694   4.520
 2720SOL    MW410912   0.627   0.781   4.518
 2721SOL     OW10913   1.785   0.580   4.560
 2721SOL    HW210914   1.693   0.560   4.577
 2721SOL    HW310915   1.833   0.506   4.598
 2721SOL    MW410916   1.779   0.567   4.567
 2722SOL     OW10917   1.609   1.306   4.506
 2722SOL    HW210918   1.517   1.288   4.521
 2722SOL    HW310919   1.655   1.230   4.543
 2722SOL    MW410920   1.603   1.294   4.513
 2723SOL     OW10921   1.418   1.658   4.518
 2723SOL    HW210922   1.499   1.637   4.564
 2723SOL    HW310923   1.443   1.660   4.425
 2723SOL    MW410924   1.432   1.655   4.512
 2724SOL     OW10925   1.386   2.592   4.688
 2724SOL    HW210926   1.377   2.540   4.608
 2724SOL    HW310927   1.467   2.561   4.728
 2724SOL    MW410928   1.396   2.581   4.683
 2725SOL     OW10929   2.309   2.543   4.439
 2725SOL    HW210930   2.284   2.489   4.364
 2725SOL    HW310931   2.261   2.625   4.427
 2725SOL    MW410932   2.299   2.547   4.428
 2726SOL     OW10933   0.785   2.409   4.477
 2726SOL    HW210934   0.868   2.405   4.526
 2726SOL    HW310935   0.810   2.445   4.392
 2726SOL    MW410936   0.800   2.414   4.472
 2727SOL     OW10937   1.423   3.826   4.693
 2727SOL    HW210938   1.365   3.794   4.762
 2727SOL    HW310939   1.431   3.753   4.632
 2727SOL    MW410940   1.417   3.812   4.694
 2728SOL     OW10941   1.328   2.385   4.213
 2728SOL    HW210942   1.338   2.478   4.193
 2728SOL    HW310943   1.414   2.347   4.196
 2728SOL    MW410944   1.341   2.392   4.208
 2729SOL     OW10945   1.293   2.387   4.496
 2729SOL    HW210946   1.306   2.377   4.402
 2729SOL    HW310947   1.335   2.310   4.535
 2729SOL    MW410948   1.300   2.376   4.489
 2730SOL     OW10949   1.207   3.105   4.590
 2730SOL    HW210950   1.277   3.041   4.601
 2730SOL    HW310951   1.252   3.183   4.556
 2730SOL    MW410952   1.223   3.107   4.587
 2731SOL     OW10953   1.142   3.508   4.497
 2731SOL    HW210954   1.062   3.455   4.493
 2731SOL    HW310955   1.143   3.556   4.414
 2731SOL    MW410956   1.131   3.508   4.486
 2732SOL     OW10957   1.019   3.698   4.668
 2732SOL    HW210958   1.054   3.623   4.619
 2732SOL    HW310959   1.028   3.772   4.608
 2732SOL    MW410960   1.025   3.698   4.653
 2733SOL     OW10961   2.039   3.531   4.537
 2733SOL    HW210962   2.041   3.535   4.441
 2733SOL    HW310963   2.120   3.486   4.560
 2733SOL    MW410964   2.050   3.526   4.527
 2734SOL     OW10965   1.729   3.295   4.514
 2734SOL    HW210966   1.671   3.230   4.555
 2734SOL    HW310967   1.742   3.263   4.425
 2734SOL    MW410968   1.723   3.282   4.508
 2735SOL     OW10969   2.328   3.224   4.305
 2735SOL    HW210970   2.243   3.181   4.309
 2735SOL    HW310971   2.386   3.167   4.355
 2735SOL    MW410972   2.324   3.211   4.312
 2736SOL     OW10973   0.917   4.016   4.564
 2736SOL    HW210974   0.935   4.029   4.470
 2736SOL    HW310975   1.003   4.018   4.605
 2736SOL    MW410976   0.931   4.018   4.557
 2737SOL     OW10977   1.822   3.884   4.497
 2737SOL    HW210978   1.848   3.917   4.411
 2737SOL    HW310979   1.808   3.790   4.484
 2737SOL    MW410980   1.824   3.876   4.484
 2738SOL     OW10981   2.173   0.313   4.463
 2738SOL    HW210982   2.206   0.253   4.396
 2738SOL    HW310983   2.252   0.347   4.505
 2738SOL    MW410984   2.188   0.310   4.459
 2739SOL     OW10985   1.068   0.174   4.546
 2739SOL    HW210986   1.026   0.150   4.463
 2739SOL    HW310987   1.127   0.100   4.564
 2739SOL    MW410988   1.070   0.161   4.537
 2740SOL     OW10989   1.940   0.335   4.605
 2740SOL    HW210990   2.017   0.329   4.549
 2740SOL    HW310991   1.901   0.248   4.602
 2740SOL    MW410992   1.945   0.323   4.597
 2741SOL     OW10993   2.467   4.544   4.695
 2741SOL    HW210994   2.436   4.456   4.675
 2741SOL    HW310995   2.400   4.602   4.657
 2741SOL    MW410996   2.454   4.540   4.687
 2742SOL     OW10997   1.863   0.834   4.515
 2742SOL    HW210998   1.835   0.745   4.533
 2742SOL    HW310999   1.857   0.842   4.419
 2742SOL    MW411000   1.858   0.824   4.504
 2743SOL     OW11001   1.481   0.513   4.587
 2743SOL    HW211002   1.442   0.595   4.617
 2743SOL    HW311003   1.406   0.454   4.574
 2743SOL    MW411004   1.466   0.516   4.589
 2744SOL     OW11005   2.040   1.720   4.659
 2744SOL    HW211006   2.033   1.638   4.707
 2744SOL    HW311007   1.971   1.716   4.594
 2744SOL    MW411008   2.030   1.709   4.657
 2745SOL     OW11009   0.838   1.736   4.693
 2745SOL    HW211010   0.821   1.822   4.655
 2745SOL    HW311011   0.929   1.740   4.720
 2745SOL    MW411012   0.847   1.748   4.692
 2746SOL     OW11013   1.668   1.549   4.633
 2746SOL    HW211014   1.674   1.467   4.583
 2746SOL    HW311015   1.728   1.537   4.707
 2746SOL    MW411016   1.677   1.537   4.636
 2747SOL     OW11017   1.154   2.194   4.736
 2747SOL    HW211018   1.247   2.208   4.751
 2747SOL    HW311019   1.118   2.281   4.719
 2747SOL    MW411020   1.162   2.207   4.736
 2748SOL     OW11021   1.395   1.959   4.455
 2748SOL    HW211022   1.449   1.969   4.376
 2748SOL    HW311023   1.399   1.865   4.474
 2748SOL    MW411024   1.403   1.948   4.447
 2749SOL     OW11025   2.053   2.194   4.145
 2749SOL    HW211026   1.972   2.187   4.196
 2749SOL    HW311027   2.026   2.237   4.064
 2749SOL    MW411028   2.039   2.198   4.141
 2750SOL     OW11029   1.446   2.159   4.648
 2750SOL    HW211030   1.447   2.078   4.597
 2750SOL    HW311031   1.514   2.214   4.608
 2750SOL    MW411032   1.455   2.156   4.636
 2751SOL     OW11033   2.498   3.059   4.426
 2751SOL    HW211034   2.566   3.067   4.493
 2751SOL    HW311035   2.417   3.045   4.475
 2751SOL    MW411036   2.496   3.058   4.441
 2752SOL     OW11037   1.669   3.015   4.628
 2752SOL    HW211038   1.718   2.995   4.548
 2752SOL    HW311039   1.735   3.049   4.689
 2752SOL    MW411040   1.685   3.017   4.626
 2753SOL     OW11041   1.837   4.486   4.691
 2753SOL    HW211042   1.825   4.459   4.782
 2753SOL    HW311043   1.900   4.423   4.656
 2753SOL    MW411044   1.844   4.474   4.699
 2754SOL     OW11045   2.693   3.078   4.621
 2754SOL    HW211046   2.769   3.026   4.594
 2754SOL    HW311047   2.641   3.018   4.674
 2754SOL    MW411048   2.696   3.063   4.625
 2755SOL     OW11049   2.285   3.370   4.536
 2755SOL    HW211050   2.282   3.320   4.454
 2755SOL    HW311051   2.291   3.303   4.604
 2755SOL    MW411052   2.285   3.354   4.534
 2756SOL     OW11053   2.661   3.940   4.533
 2756SOL    HW211054   2.574   3.902   4.528
 2756SOL    HW311055   2.681   3.967   4.444
 2756SOL    MW411056   2.652   3.938   4.521
 2757SOL     OW11057   2.405   3.811   4.482
 2757SOL    HW211058   2.415   3.719   4.507
 2757SOL    HW311059   2.316   3.833   4.510
 2757SOL    MW411060   2.394   3.802   4.489
 2758SOL     OW11061   2.502   3.528   4.444
 2758SOL    HW211062   2.427   3.478   4.475
 2758SOL    HW311063   2.491   3.532   4.349
 2758SOL    MW411064   2.491   3.522   4.436
 2759SOL     OW11065   1.765   3.572   4.571
 2759SOL    HW211066   1.856   3.562   4.598
 2759SOL    HW311067   1.733   3.483   4.556
 2759SOL    MW411068   1.773   3.559   4.572
 2760SOL     OW11069   2.063   4.353   4.556
 2760SOL    HW211070   2.129   4.284   4.555
 2760SOL    HW311071   2.112   4.433   4.573
 2760SOL    MW411072   2.078   4.355   4.558
 2761SOL     OW11073   1.204   4.001   4.608
 2761SOL    HW211074   1.248   4.085   4.597
 2761SOL    HW311075   1.275   3.940   4.628
 2761SOL    MW411076   1.219   4.004   4.609
 2762SOL     OW11077   2.186   4.639   4.592
 2762SOL    HW211078   2.194   4.714   4.651
 2762SOL    HW311079   2.201   4.677   4.505
 2762SOL    MW411080   2.189   4.654   4.588
 2763SOL     OW11081   2.193   0.209   4.776
 2763SOL    HW211082   2.257   0.275   4.749
 2763SOL    HW311083   2.109   0.254   4.772
 2763SOL    MW411084   2.190   0.224   4.772
 2764SOL     OW11085   1.926   1.470   4.819
 2764SOL    HW211086   1.937   1.378   4.791
 2764SOL    HW311087   1.918   1.465   4.914
 2764SOL    MW411088   1.926   1.457   4.828
 2765SOL     OW11089   2.619   0.115   4.564
 2765SOL    HW211090   2.604   0.029   4.604
 2765SOL    HW311091   2.624   0.097   4.470
 2765SOL    MW411092   2.618   0.101   4.557
 2766SOL     OW11093   2.335   0.647   4.495
 2766SOL    HW211094   2.257   0.702   4.508
 2766SOL    HW311095   2.408   0.707   4.506
 2766SOL    MW411096   2.334   0.662   4.498
 2767SOL     OW11097   2.832   0.721   4.612
 2767SOL    HW211098   2.899   0.787   4.599
 2767SOL    HW311099   2.881   0.638   4.619
 2767SOL    MW411100   2.848   0.719   4.611
 2768SOL     OW11101   2.306   1.475   4.492
 2768SOL    HW211102   2.400   1.483   4.507
 2768SOL    HW311103   2.271   1.562   4.513
 2768SOL    MW411104   2.314   1.488   4.497
 2769SOL     OW11105   2.584   1.250   4.458
 2769SOL    HW211106   2.562   1.189   4.529
 2769SOL    HW311107   2.584   1.336   4.500
 2769SOL    MW411108   2.581   1.253   4.473
 2770SOL     OW11109   2.569   1.504   4.579
 2770SOL    HW211110   2.651   1.545   4.551
 2770SOL    HW311111   2.523   1.572   4.628
 2770SOL    MW411112   2.573   1.519   4.581
 2771SOL     OW11113   2.294   1.757   4.528
 2771SOL    HW211114   2.272   1.750   4.435
 2771SOL    HW311115   2.211   1.749   4.573
 2771SOL    MW411116   2.280   1.755   4.521
 2772SOL     OW11117   2.245   2.141   4.742
 2772SOL    HW211118   2.268   2.232   4.763
 2772SOL    HW311119   2.149   2.141   4.740
 2772SOL    MW411120   2.235   2.153   4.745
 2773SOL     OW11121   2.433   1.982   4.592
 2773SOL    HW211122   2.381   1.903   4.573
 2773SOL    HW311123   2.377   2.034   4.650
 2773SOL    MW411124   2.418   1.978   4.597
 2774SOL     OW11125   2.614   2.293   4.431
 2774SOL    HW211126   2.578   2.342   4.505
 2774SOL    HW311127   2.555   2.219   4.420
 2774SOL    MW411128   2.602   2.290   4.440
 2775SOL     OW11129   1.799   2.699   4.577
 2775SOL    HW211130   1.798   2.768   4.511
 2775SOL    HW311131   1.892   2.687   4.599
 2775SOL    MW411132   1.811   2.706   4.571
 2776SOL     OW11133   2.209   3.168   4.732
 2776SOL    HW211134   2.115   3.172   4.717
 2776SOL    HW311135   2.241   3.100   4.672
 2776SOL    MW411136   2.201   3.160   4.722
 2777SOL     OW11137   2.710   3.335   4.501
 2777SOL    HW211138   2.681   3.286   4.578
 2777SOL    HW311139   2.648   3.407   4.493
 2777SOL    MW411140   2.698   3.338   4.510
 2778SOL     OW11141   2.363   3.052   4.938
 2778SOL    HW211142   2.432   3.112   4.967
 2778SOL    HW311143   2.303   3.107   4.887
 2778SOL    MW411144   2.364   3.067   4.935
 2779SOL     OW11145   1.580   4.012   4.545
 2779SOL    HW211146   1.535   3.950   4.602
 2779SOL    HW311147   1.673   3.991   4.557
 2779SOL    MW411148   1.587   4.001   4.554
 2780SOL     OW11149   2.693   4.200   4.626
 2780SOL    HW211150   2.616   4.236   4.582
 2780SOL    HW311151   2.691   4.106   4.604
 2780SOL    MW411152   2.682   4.192   4.617
 2781SOL     OW11153   1.931   3.142   4.663
 2781SOL    HW211154   1.967   3.080   4.599
 2781SOL    HW311155   1.901   3.216   4.611
 2781SOL    MW411156   1.932   3.143   4.648
 2782SOL     OW11157   3.369   3.856   4.479
 2782SOL    HW211158   3.284   3.900   4.489
 2782SOL    HW311159   3.352   3.765   4.502
 2782SOL    MW411160   3.355   3.850   4.483
 2783SOL     OW11161   3.088   3.972   4.489
 2783SOL    HW211162   3.031   3.913   4.538
 2783SOL    HW311163   3.098   4.048   4.545
 2783SOL    MW411164   3.082   3.974   4.503
 2784SOL     OW11165   2.237   4.110   4.523
 2784SOL    HW211166   2.205   4.042   4.582
 2784SOL    HW311167   2.245   4.066   4.438
 2784SOL    MW411168   2.234   4.095   4.520
 2785SOL     OW11169   2.460   4.299   4.535
 2785SOL    HW211170   2.405   4.220   4.536
 2785SOL    HW311171   2.473   4.318   4.443
 2785SOL    MW411172   2.454   4.291   4.523
 2786SOL     OW11173   2.911   0.442   4.574
 2786SOL    HW211174   2.892   0.458   4.482
 2786SOL    HW311175   2.827   0.417   4.613
 2786SOL    MW411176   2.898   0.441   4.567
 2787SOL     OW11177   2.638   0.323   4.730
 2787SOL    HW211178   2.628   0.260   4.659
 2787SOL    HW311179   2.697   0.280   4.792
 2787SOL    MW411180   2.645   0.309   4.729
 2788SOL     OW11181   3.310   0.191   4.615
 2788SOL    HW211182   3.223   0.186   4.653
 2788SOL    HW311183   3.310   0.273   4.566
 2788SOL    MW411184   3.299   0.201   4.613
 2789SOL     OW11185   2.571   0.795   4.529
 2789SOL    HW211186   2.641   0.751   4.578
 2789SOL    HW311187   2.612   0.816   4.445
 2789SOL    MW411188   2.586   0.792   4.524
 2790SOL     OW11189   3.615   0.643   4.802
 2790SOL    HW211190   3.690   0.689   4.765
 2790SOL    HW311191   3.618   0.556   4.762
 2790SOL    MW411192   3.625   0.637   4.792
 2791SOL     OW11193   2.146   0.877   4.523
 2791SOL    HW211194   2.168   0.944   4.589
 2791SOL    HW311195   2.053   0.859   4.538
 2791SOL    MW411196   2.136   0.884   4.534
 2792SOL     OW11197   2.548   1.065   4.676
 2792SOL    HW211198   2.565   0.979   4.636
 2792SOL    HW311199   2.457   1.060   4.705
 2792SOL    MW411200   2.538   1.053   4.675
 2793SOL     OW11201   3.083   1.332   4.504
 2793SOL    HW211202   3.012   1.280   4.542
 2793SOL    HW311203   3.063   1.334   4.410
 2793SOL    MW411204   3.071   1.326   4.497
 2794SOL     OW11205   3.071   1.611   4.473
 2794SOL    HW211206   2.983   1.634   4.502
 2794SOL    HW311207   3.077   1.516   4.488
 2794SOL    MW411208   3.060   1.601   4.479
 2795SOL     OW11209   2.779   1.660   4.485
 2795SOL    HW211210   2.758   1.746   4.523
 2795SOL    HW311211   2.751   1.666   4.394
 2795SOL    MW411212   2.773   1.672   4.478
 2796SOL     OW11213   2.700   1.893   4.611
 2796SOL    HW211214   2.745   1.960   4.561
 2796SOL    HW311215   2.608   1.921   4.610
 2796SOL    MW411216   2.694   1.906   4.604
 2797SOL     OW11217   2.805   2.100   4.457
 2797SOL    HW211218   2.759   2.183   4.453
 2797SOL    HW311219   2.851   2.093   4.373
 2797SOL    MW411220   2.805   2.110   4.446
 2798SOL     OW11221   3.047   2.230   4.572
 2798SOL    HW211222   3.126   2.188   4.537
 2798SOL    HW311223   2.981   2.160   4.572
 2798SOL    MW411224   3.049   2.215   4.567
 2799SOL     OW11225   2.488   2.910   4.724
 2799SOL    HW211226   2.450   2.950   4.802
 2799SOL    HW311227   2.425   2.929   4.654
 2799SOL    MW411228   2.475   2.917   4.725
 2800SOL     OW11229   3.720   3.275   4.552
 2800SOL    HW211230   3.687   3.264   4.463
 2800SOL    HW311231   3.810   3.242   4.549
 2800SOL    MW411232   3.727   3.269   4.540
 2801SOL     OW11233   2.620   2.685   4.583
 2801SOL    HW211234   2.597   2.756   4.643
 2801SOL    HW311235   2.560   2.695   4.510
 2801SOL    MW411236   2.609   2.696   4.582
 2802SOL     OW11237   2.955   3.518   4.556
 2802SOL    HW211238   3.031   3.465   4.581
 2802SOL    HW311239   2.884   3.455   4.546
 2802SOL    MW411240   2.956   3.503   4.558
 2803SOL     OW11241   2.924   2.915   4.528
 2803SOL    HW211242   3.019   2.909   4.540
 2803SOL    HW311243   2.900   2.833   4.485
 2803SOL    MW411244   2.933   2.904   4.524
 2804SOL     OW11245   2.733   4.511   4.738
 2804SOL    HW211246   2.757   4.421   4.718
 2804SOL    HW311247   2.637   4.513   4.732
 2804SOL    MW411248   2.723   4.500   4.735
 2805SOL     OW11249   3.844   3.663   4.726
 2805SOL    HW211250   3.897   3.598   4.680
 2805SOL    HW311251   3.905   3.706   4.786
 2805SOL    MW411252   3.859   3.660   4.728
 2806SOL     OW11253   3.789   3.849   4.521
 2806SOL    HW211254   3.813   3.791   4.593
 2806SOL    HW311255   3.780   3.790   4.445
 2806SOL    MW411256   3.791   3.833   4.520
 2807SOL     OW11257   2.898   3.789   4.605
 2807SOL    HW211258   2.815   3.817   4.565
 2807SOL    HW311259   2.897   3.693   4.597
 2807SOL    MW411260   2.887   3.780   4.599
 2808SOL     OW11261   2.928   4.358   4.510
 2808SOL    HW211262   2.854   4.299   4.498
 2808SOL    HW311263   3.001   4.302   4.535
 2808SOL    MW411264   2.928   4.343   4.511
 2809SOL     OW11265   3.018   0.196   4.674
 2809SOL    HW211266   2.988   0.278   4.633
 2809SOL    HW311267   2.949   0.174   4.736
 2809SOL    MW411268   3.005   0.204   4.677
 2810SOL     OW11269   3.376   0.474   4.556
 2810SOL    HW211270   3.348   0.483   4.465
 2810SOL    HW311271   3.339   0.551   4.599
 2810SOL    MW411272   3.368   0.486   4.549
 2811SOL     OW11273   2.405   0.389   4.609
 2811SOL    HW211274   2.483   0.373   4.662
 2811SOL    HW311275   2.400   0.484   4.602
 2811SOL    MW411276   2.415   0.399   4.615
 2812SOL     OW11277   2.260   1.077   4.687
 2812SOL    HW211278   2.222   1.120   4.764
 2812SOL    HW311279   2.240   1.135   4.614
 2812SOL    MW411280   2.253   1.091   4.688
 2813SOL     OW11281   2.787   0.115   4.863
 2813SOL    HW211282   2.783   0.028   4.824
 2813SOL    HW311283   2.776   0.100   4.957
 2813SOL    MW411284   2.785   0.101   4.870
 2814SOL     OW11285   3.418   0.764   4.676
 2814SOL    HW211286   3.473   0.792   4.603
 2814SOL    HW311287   3.477   0.715   4.733
 2814SOL    MW411288   3.433   0.762   4.674
 2815SOL     OW11289   3.318   1.195   4.549
 2815SOL    HW211290   3.238   1.244   4.532
 2815SOL    HW311291   3.288   1.107   4.571
 2815SOL    MW411292   3.304   1.190   4.549
 2816SOL     OW11293   2.846   1.155   4.544
 2816SOL    HW211294   2.792   1.104   4.604
 2816SOL    HW311295   2.783   1.194   4.483
 2816SOL    MW411296   2.830   1.154   4.544
 2817SOL     OW11297   3.995   0.928   4.535
 2817SOL    HW211298   4.031   0.932   4.447
 2817SOL    HW311299   4.071   0.936   4.593
 2817SOL    MW411300   4.010   0.930   4.531
 2818SOL     OW11301   3.491   1.421   4.487
 2818SOL    HW211302   3.427   1.438   4.418
 2818SOL    HW311303   3.450   1.353   4.541
 2818SOL    MW411304   3.477   1.414   4.485
 2819SOL     OW11305   3.324   1.794   4.495
 2819SOL    HW211306   3.362   1.780   4.409
 2819SOL    HW311307   3.253   1.731   4.501
 2819SOL    MW411308   3.320   1.784   4.484
 2820SOL     OW11309   3.308   2.080   4.507
 2820SOL    HW211310   3.326   1.986   4.515
 2820SOL    HW311311   3.325   2.100   4.415
 2820SOL    MW411312   3.313   2.070   4.496
 2821SOL     OW11313   3.547   1.656   4.627
 2821SOL    HW211314   3.532   1.572   4.585
 2821SOL    HW311315   3.471   1.709   4.604
 2821SOL    MW411316   3.535   1.652   4.619
 2822SOL     OW11317   2.824   2.679   4.390
 2822SOL    HW211318   2.753   2.677   4.454
 2822SOL    HW311319   2.883   2.609   4.416
 2822SOL    MW411320   2.822   2.670   4.402
 2823SOL     OW11321   3.401   2.611   4.504
 2823SOL    HW211322   3.351   2.567   4.434
 2823SOL    HW311323   3.348   2.687   4.527
 2823SOL    MW411324   3.387   2.615   4.498
 2824SOL     OW11325   3.016   2.469   4.407
 2824SOL    HW211326   3.109   2.483   4.387
 2824SOL    HW311327   3.016   2.398   4.471
 2824SOL    MW411328   3.028   2.461   4.413
 2825SOL     OW11329   3.823   2.889   4.539
 2825SOL    HW211330   3.823   2.793   4.534
 2825SOL    HW311331   3.910   2.911   4.571
 2825SOL    MW411332   3.834   2.879   4.543
 2826SOL     OW11333   3.331   3.083   4.682
 2826SOL    HW211334   3.324   3.039   4.766
 2826SOL    HW311335   3.424   3.073   4.658
 2826SOL    MW411336   3.343   3.076   4.690
 2827SOL     OW11337   3.575   3.025   4.574
 2827SOL    HW211338   3.650   2.968   4.557
 2827SOL    HW311339   3.610   3.114   4.569
 2827SOL    MW411340   3.590   3.029   4.571
 2828SOL     OW11341   4.295   2.552   4.571
 2828SOL    HW211342   4.388   2.532   4.557
 2828SOL    HW311343   4.288   2.646   4.557
 2828SOL    MW411344   4.306   2.562   4.567
 2829SOL     OW11345   3.645   3.536   4.576
 2829SOL    HW211346   3.700   3.592   4.630
 2829SOL    HW311347   3.683   3.448   4.584
 2829SOL    MW411348   3.657   3.532   4.584
 2830SOL     OW11349   3.608   4.234   4.676
 2830SOL    HW211350   3.657   4.305   4.633
 2830SOL    HW311351   3.618   4.159   4.617
 2830SOL    MW411352   3.616   4.234   4.662
 2831SOL     OW11353   3.130   4.206   4.638
 2831SOL    HW211354   3.153   4.182   4.728
 2831SOL    HW311355   3.214   4.227   4.597
 2831SOL    MW411356   3.145   4.206   4.644
 2832SOL     OW11357   3.013   4.651   4.508
 2832SOL    HW211358   2.944   4.589   4.529
 2832SOL    HW311359   3.008   4.716   4.579
 2832SOL    MW411360   3.004   4.652   4.520
 2833SOL     OW11361   3.360   4.331   4.539
 2833SOL    HW211362   3.443   4.321   4.586
 2833SOL    HW311363   3.334   4.421   4.555
 2833SOL    MW411364   3.367   4.341   4.548
 2834SOL     OW11365   3.586   4.008   4.530
 2834SOL    HW211366   3.654   3.941   4.521
 2834SOL    HW311367   3.504   3.961   4.516
 2834SOL    MW411368   3.584   3.993   4.527
 2835SOL     OW11369   3.550   0.155   4.762
 2835SOL    HW211370   3.521   0.148   4.853
 2835SOL    HW311371   3.469   0.152   4.711
 2835SOL    MW411372   3.535   0.154   4.767
 2836SOL     OW11373   3.015   0.940   4.468
 2836SOL    HW211374   2.973   1.027   4.472
 2836SOL    HW311375   3.080   0.942   4.538
 2836SOL    MW411376   3.018   0.952   4.478
 2837SOL     OW11377   3.225   0.943   4.636
 2837SOL    HW211378   3.294   0.880   4.656
 2837SOL    HW311379   3.194   0.973   4.722
 2837SOL    MW411380   3.230   0.938   4.650
 2838SOL     OW11381   4.104   1.448   4.665
 2838SOL    HW211382   4.155   1.370   4.641
 2838SOL    HW311383   4.013   1.418   4.664
 2838SOL    MW411384   4.099   1.434   4.662
 2839SOL     OW11385   3.808   1.116   4.476
 2839SOL    HW211386   3.826   1.198   4.522
 2839SOL    HW311387   3.883   1.060   4.495
 2839SOL    MW411388   3.820   1.119   4.485
 2840SOL     OW11389   0.155   0.778   4.541
 2840SOL    HW211390   0.132   0.799   4.451
 2840SOL    HW311391   0.175   0.685   4.540
 2840SOL    MW411392   0.155   0.769   4.529
 2841SOL     OW11393   4.296   0.494   4.508
 2841SOL    HW211394   4.280   0.486   4.414
 2841SOL    HW311395   4.230   0.440   4.549
 2841SOL    MW411396   4.285   0.486   4.501
 2842SOL     OW11397   3.553   1.747   4.295
 2842SOL    HW211398   3.626   1.709   4.345
 2842SOL    HW311399   3.533   1.681   4.229
 2842SOL    MW411400   3.560   1.733   4.293
 2843SOL     OW11401   3.798   1.803   4.625
 2843SOL    HW211402   3.712   1.765   4.645
 2843SOL    HW311403   3.780   1.896   4.609
 2843SOL    MW411404   3.784   1.810   4.625
 2844SOL     OW11405   3.509   2.206   4.647
 2844SOL    HW211406   3.481   2.235   4.734
 2844SOL    HW311407   3.431   2.166   4.608
 2844SOL    MW411408   3.495   2.205   4.653
 2845SOL     OW11409   3.955   2.244   4.712
 2845SOL    HW211410   4.003   2.175   4.758
 2845SOL    HW311411   3.954   2.318   4.773
 2845SOL    MW411412   3.961   2.245   4.726
 2846SOL     OW11413   4.082   1.893   4.636
 2846SOL    HW211414   3.994   1.865   4.661
 2846SOL    HW311415   4.129   1.811   4.616
 2846SOL    MW411416   4.077   1.878   4.636
 2847SOL     OW11417   3.763   2.072   4.595
 2847SOL    HW211418   3.825   2.128   4.642
 2847SOL    HW311419   3.678   2.115   4.608
 2847SOL    MW411420   3.760   2.085   4.603
 2848SOL     OW11421   3.873   2.602   4.538
 2848SOL    HW211422   3.802   2.542   4.563
 2848SOL    HW311423   3.935   2.547   4.490
 2848SOL    MW411424   3.872   2.587   4.535
 2849SOL     OW11425   4.065   2.515   4.753
 2849SOL    HW211426   4.005   2.547   4.686
 2849SOL    HW311427   4.152   2.538   4.721
 2849SOL    MW411428   4.069   2.523   4.740
 2850SOL     OW11429   4.057   2.955   4.667
 2850SOL    HW211430   4.045   2.920   4.755
 2850SOL    HW311431   4.143   2.922   4.640
 2850SOL    MW411432   4.067   2.946   4.675
 2851SOL     OW11433   3.225   3.314   4.578
 2851SOL    HW211434   3.275   3.243   4.617
 2851SOL    HW311435   3.232   3.299   4.483
 2851SOL    MW411436   3.233   3.303   4.570
 2852SOL     OW11437   3.993   3.218   4.547
 2852SOL    HW211438   4.026   3.133   4.577
 2852SOL    HW311439   4.005   3.216   4.452
 2852SOL    MW411440   3.999   3.206   4.538
 2853SOL     OW11441   3.355   3.585   4.530
 2853SOL    HW211442   3.311   3.505   4.558
 2853SOL    HW311443   3.448   3.570   4.551
 2853SOL    MW411444   3.362   3.573   4.537
 2854SOL     OW11445   4.292   3.616   4.582
 2854SOL    HW211446   4.308   3.624   4.488
 2854SOL    HW311447   4.218   3.556   4.588
 2854SOL    MW411448   4.285   3.609   4.570
 2855SOL     OW11449   0.065   2.940   4.663
 2855SOL    HW211450   0.142   2.896   4.627
 2855SOL    HW311451   0.089   3.033   4.664
 2855SOL    MW411452   0.078   2.947   4.659
 2856SOL     OW11453   4.033   3.976   4.489
 2856SOL    HW211454   4.030   4.071   4.503
 2856SOL    HW311455   3.944   3.947   4.506
 2856SOL    MW411456   4.021   3.985   4.493
 2857SOL     OW11457   3.797   4.387   4.504
 2857SOL    HW211458   3.795   4.377   4.409
 2857SOL    HW311459   3.785   4.481   4.518
 2857SOL    MW411460   3.795   4.398   4.493
 2858SOL     OW11461   3.281   4.591   4.535
 2858SOL    HW211462   3.303   4.681   4.558
 2858SOL    HW311463   3.189   4.594   4.511
 2858SOL    MW411464   3.272   4.603   4.535
 2859SOL     OW11465   3.601   0.877   4.479
 2859SOL    HW211466   3.643   0.963   4.487
 2859SOL    HW311467   3.595   0.862   4.384
 2859SOL    MW411468   3.606   0.886   4.467
 2860SOL     OW11469   3.804   0.766   4.630
 2860SOL    HW211470   3.872   0.828   4.602
 2860SOL    HW311471   3.728   0.791   4.578
 2860SOL    MW411472   3.803   0.778   4.619
 2861SOL     OW11473   0.004   0.331   4.626
 2861SOL    HW211474   0.090   0.374   4.627
 2861SOL    HW311475  -0.053   0.392   4.580
 2861SOL    MW411476   0.008   0.345   4.620
 2862SOL     OW11477   0.473   0.366   4.641
 2862SOL    HW211478   0.528   0.406   4.574
 2862SOL    HW311479   0.529   0.299   4.681
 2862SOL    MW411480   0.488   0.363   4.637
 2863SOL     OW11481   4.095   0.342   4.631
 2863SOL    HW211482   4.025   0.404   4.610
 2863SOL    HW311483   4.065   0.259   4.594
 2863SOL    MW411484   4.082   0.339   4.623
 2864SOL     OW11485   3.799   1.395   4.606
 2864SOL    HW211486   3.717   1.426   4.642
 2864SOL    HW311487   3.825   1.464   4.544
 2864SOL    MW411488   3.792   1.408   4.602
 2865SOL     OW11489   4.478   1.324   4.651
 2865SOL    HW211490   4.470   1.418   4.669
 2865SOL    HW311491   4.556   1.317   4.595
 2865SOL    MW411492   4.487   1.336   4.646
 2866SOL     OW11493   0.270   1.368   4.495
 2866SOL    HW211494   0.316   1.300   4.543
 2866SOL    HW311495   0.329   1.443   4.496
 2866SOL    MW411496   0.283   1.369   4.501
 2867SOL     OW11497   3.869   1.636   4.412
 2867SOL    HW211498   3.954   1.662   4.377
 2867SOL    HW311499   3.859   1.689   4.492
 2867SOL    MW411500   3.879   1.646   4.418
 2868SOL     OW11501   3.229   2.859   4.516
 2868SOL    HW211502   3.269   2.858   4.429
 2868SOL    HW311503   3.275   2.929   4.562
 2868SOL    MW411504   3.240   2.868   4.510
 2869SOL     OW11505   4.247   2.057   4.240
 2869SOL    HW211506   4.179   1.998   4.208
 2869SOL    HW311507   4.254   2.037   4.333
 2869SOL    MW411508   4.239   2.046   4.248
 2870SOL     OW11509   0.188   2.249   4.591
 2870SOL    HW211510   0.278   2.274   4.569
 2870SOL    HW311511   0.138   2.329   4.577
 2870SOL    MW411512   0.194   2.263   4.586
 2871SOL     OW11513   4.280   2.050   4.510
 2871SOL    HW211514   4.208   1.999   4.546
 2871SOL    HW311515   4.260   2.141   4.535
 2871SOL    MW411516   4.268   2.056   4.518
 2872SOL     OW11517   3.633   2.465   4.541
 2872SOL    HW211518   3.552   2.516   4.537
 2872SOL    HW311519   3.607   2.383   4.583
 2872SOL    MW411520   3.619   2.461   4.546
 2873SOL     OW11521   0.446   2.602   4.593
 2873SOL    HW211522   0.431   2.512   4.566
 2873SOL    HW311523   0.541   2.612   4.595
 2873SOL    MW411524   0.456   2.592   4.590
 2874SOL     OW11525   4.304   2.863   4.556
 2874SOL    HW211526   4.390   2.894   4.584
 2874SOL    HW311527   4.306   2.868   4.460
 2874SOL    MW411528   4.315   2.868   4.547
 2875SOL     OW11529   0.147   3.211   4.561
 2875SOL    HW211530   0.114   3.209   4.471
 2875SOL    HW311531   0.241   3.228   4.552
 2875SOL    MW411532   0.155   3.213   4.548
 2876SOL     OW11533   0.325   3.584   4.504
 2876SOL    HW211534   0.288   3.604   4.418
 2876SOL    HW311535   0.250   3.558   4.558
 2876SOL    MW411536   0.310   3.583   4.500
 2877SOL     OW11537   4.277   0.035   4.635
 2877SOL    HW211538   4.203   0.066   4.583
 2877SOL    HW311539   4.286   0.100   4.705
 2877SOL    MW411540   4.269   0.047   4.638
 2878SOL     OW11541   3.730   0.019   4.540
 2878SOL    HW211542   3.679   0.052   4.614
 2878SOL    HW311543   3.691   0.061   4.463
 2878SOL    MW411544   3.718   0.029   4.539
 2879SOL     OW11545   0.072   4.473   4.758
 2879SOL    HW211546   0.052   4.394   4.707
 2879SOL    HW311547   0.007   4.537   4.728
 2879SOL    MW411548   0.060   4.471   4.747
 2880SOL     OW11549   3.625   0.414   4.653
 2880SOL    HW211550   3.597   0.339   4.707
 2880SOL    HW311551   3.544   0.445   4.612
 2880SOL    MW411552   3.611   0.408   4.655
 2881SOL     OW11553   4.263   4.430   4.217
 2881SOL    HW211554   4.353   4.401   4.199
 2881SOL    HW311555   4.252   4.419   4.311
 2881SOL    MW411556   4.273   4.425   4.227
 2882NA      NA11557   2.607   4.332   0.555
 2883NA      NA11558   0.515   2.384   0.386
   4.49070   4.66690  10.00000
